/*--------------------------------*- C++ -*----------------------------------*\
  =========                 |
  \\      /  F ield         | OpenFOAM: The Open Source CFD Toolbox
   \\    /   O peration     | Website:  https://openfoam.org
    \\  /    A nd           | Version:  7
     \\/     M anipulation  |
\*---------------------------------------------------------------------------*/
FoamFile
{
    version     2.0;
    format      ascii;
    class       volScalarField;
    location    "5.5";
    object      rho;
}
// * * * * * * * * * * * * * * * * * * * * * * * * * * * * * * * * * * * * * //

dimensions      [1 -3 0 0 0 0 0];

internalField   nonuniform List<scalar> 
14400
(
1.00652
1.02468
1.04589
1.06838
1.0919
1.11591
1.14088
1.16572
1.19158
1.21634
1.24245
1.2659
1.2912
1.31152
1.33362
1.34888
1.36327
1.37197
1.37504
1.37235
1.36077
1.34248
1.3442
1.34959
1.36056
1.37063
1.37049
1.36636
1.36246
1.36328
1.36823
1.37309
1.37073
1.36657
1.36757
1.37055
1.3703
1.36996
1.37055
1.3713
0.992843
0.994054
0.996408
1.0003
1.00591
1.01377
1.02378
1.03676
1.05214
1.07141
1.09299
1.11894
1.14638
1.17732
1.20859
1.23958
1.27131
1.29498
1.32041
1.33218
1.34119
1.34931
1.36114
1.36881
1.37306
1.37305
1.36877
1.36458
1.36362
1.36783
1.37323
1.37332
1.37038
1.36777
1.37012
1.37186
1.37078
1.37099
1.37187
1.37214
0.993768
0.9938
0.993846
0.993898
0.993973
0.994158
0.994528
0.995272
0.996582
0.99885
1.00237
1.00827
1.01682
1.03059
1.04894
1.07652
1.11025
1.15433
1.2039
1.25454
1.31087
1.34252
1.36339
1.36849
1.37183
1.37028
1.3655
1.36711
1.37326
1.37774
1.37662
1.37271
1.37113
1.37382
1.37541
1.37435
1.37353
1.37448
1.37471
1.37448
0.99605
0.995971
0.995867
0.995754
0.995686
0.995634
0.995592
0.995621
0.995642
0.995627
0.995678
0.995782
0.995962
0.996484
0.9979
1.00113
1.00712
1.01979
1.04012
1.07674
1.12779
1.19167
1.25915
1.30231
1.34478
1.35346
1.36501
1.37506
1.3861
1.38495
1.37963
1.37308
1.37734
1.38309
1.38109
1.37724
1.37766
1.37931
1.37895
1.37823
0.998489
0.998302
0.998132
0.997999
0.997881
0.99781
0.997756
0.997685
0.997589
0.997479
0.997352
0.997281
0.997209
0.997293
0.997383
0.997425
0.997508
0.997921
0.999076
1.00313
1.01228
1.03599
1.07586
1.14268
1.22161
1.29039
1.35181
1.37045
1.38295
1.38096
1.37022
1.37459
1.38477
1.38724
1.38412
1.3802
1.38213
1.38323
1.38186
1.38145
0.998475
0.998541
0.998623
0.998716
0.998826
0.998949
0.99909
0.999271
0.999491
0.999697
0.999906
1.00017
1.0004
1.00069
1.00101
1.00116
1.00131
1.00153
1.00202
1.00212
1.00222
1.00302
1.00634
1.01918
1.04821
1.11075
1.19112
1.26466
1.32651
1.34555
1.36035
1.38536
1.39209
1.38878
1.38116
1.38222
1.38622
1.38534
1.38333
1.38381
0.99796
0.998209
0.998487
0.998782
0.999097
0.999416
0.99974
1.00009
1.00047
1.00088
1.00134
1.00181
1.00232
1.00288
1.00336
1.00377
1.00419
1.00442
1.00444
1.00443
1.00437
1.00411
1.0034
1.00315
1.00415
1.01216
1.03611
1.09397
1.17514
1.26889
1.3412
1.37518
1.38471
1.37649
1.37803
1.38649
1.38823
1.38546
1.38339
1.38533
0.999798
1.00008
1.0003
1.0005
1.00071
1.0009
1.00107
1.00125
1.00146
1.00171
1.00204
1.00239
1.00272
1.00302
1.00335
1.00377
1.00427
1.00447
1.00451
1.0046
1.00444
1.00361
1.00244
1.00103
0.999425
0.999297
1.00056
1.00786
1.0327
1.09326
1.18484
1.27534
1.33498
1.35858
1.37964
1.39257
1.38888
1.38141
1.38343
1.38696
1.00261
1.0026
1.0026
1.00259
1.00253
1.00241
1.00227
1.00217
1.00212
1.00214
1.00224
1.0024
1.0025
1.00257
1.00269
1.00303
1.00363
1.004
1.00401
1.00379
1.00303
1.00154
1.00007
0.999267
0.998523
0.997894
0.9978
0.99833
1.0012
1.01081
1.04135
1.10797
1.2068
1.3171
1.36725
1.3869
1.37396
1.37741
1.38686
1.38781
1.00309
1.00286
1.00265
1.00241
1.00214
1.00195
1.00187
1.00169
1.00138
1.00109
1.00072
1.00019
0.999271
0.998279
0.998074
0.99819
0.998744
0.999497
0.999909
0.999944
0.999552
0.998329
0.998081
0.998481
0.998986
0.998874
0.998757
0.999528
1.00189
1.00393
1.00681
1.01569
1.05353
1.13803
1.23844
1.32873
1.34961
1.38185
1.39028
1.38663
1.00074
1.00047
1.00011
0.999755
0.999383
0.998933
0.998302
0.997349
0.996368
0.995487
0.994944
0.994426
0.993769
0.993307
0.993287
0.993594
0.99441
0.99561
0.996667
0.99732
0.997349
0.997197
0.997402
0.999054
1.00246
1.00371
1.0036
1.00296
1.00281
1.00342
1.00389
1.0037
1.00587
1.02094
1.07897
1.18461
1.30037
1.3727
1.38437
1.37886
0.996452
0.996467
0.996465
0.996409
0.996434
0.996433
0.996173
0.995187
0.994499
0.99414
0.99357
0.992698
0.991894
0.99114
0.990321
0.989979
0.990264
0.991265
0.992695
0.994012
0.994951
0.995868
0.997854
1.0015
1.00502
1.00602
1.00569
1.00414
1.00133
1.00009
0.999908
0.999565
0.999407
1.00051
1.00849
1.04233
1.13625
1.25341
1.32668
1.36717
1.00002
1.00024
1.00046
1.00067
1.00088
1.00114
1.00141
1.00158
1.00214
1.00321
1.00356
1.00394
1.00477
1.00493
1.00384
1.00163
1.00058
1.00045
0.999893
0.999379
0.999353
1.00025
1.00263
1.00468
1.00501
1.00467
1.00382
1.0018
0.998011
0.996165
0.996129
0.996719
0.997203
0.997633
0.999367
1.00408
1.02465
1.08492
1.20216
1.33731
1.02722
1.02746
1.0277
1.02805
1.02838
1.02843
1.0286
1.02889
1.02878
1.02872
1.0291
1.03027
1.03094
1.03102
1.02956
1.02531
1.02145
1.01696
1.01173
1.00801
1.00573
1.00465
1.00498
1.00436
1.00134
0.998114
0.997516
0.997694
0.99664
0.995192
0.995345
0.996342
0.998332
1.00119
1.00432
1.00365
1.00317
1.00957
1.04656
1.19608
1.06289
1.06306
1.06371
1.06371
1.06307
1.06162
1.05968
1.0572
1.05305
1.04859
1.04774
1.04797
1.04665
1.04612
1.0472
1.0461
1.04262
1.03659
1.03423
1.03417
1.03271
1.02802
1.02224
1.01703
1.01102
1.00649
1.00624
1.00689
1.00721
1.00657
1.00658
1.00699
1.00842
1.00928
1.00817
1.00508
1.00034
0.998655
1.00166
1.06798
1.17856
1.17781
1.17681
1.17532
1.17373
1.17168
1.16892
1.16554
1.16119
1.15614
1.15147
1.14728
1.14238
1.13776
1.13378
1.1287
1.12324
1.11665
1.11139
1.11154
1.11288
1.1089
1.09828
1.09016
1.08197
1.06997
1.06301
1.05944
1.05475
1.04607
1.03724
1.02959
1.02234
1.01471
1.00659
1.00162
0.998576
0.998779
1.00033
1.01301
1.31161
1.30836
1.30643
1.30455
1.30166
1.299
1.29597
1.2917
1.28854
1.28505
1.28015
1.2757
1.27139
1.26611
1.26119
1.25576
1.24926
1.24122
1.23182
1.22164
1.21139
1.19975
1.18119
1.17
1.1622
1.15103
1.14017
1.12368
1.10649
1.09179
1.0771
1.06308
1.04933
1.03629
1.02573
1.01841
1.01455
1.01448
1.0151
1.01556
1.48821
1.48502
1.48304
1.48087
1.47737
1.47349
1.46937
1.46449
1.46038
1.45566
1.44949
1.4431
1.43636
1.42844
1.4199
1.41075
1.40077
1.38975
1.37808
1.3659
1.35395
1.34249
1.32874
1.31234
1.29537
1.2735
1.25906
1.24368
1.22187
1.20102
1.18262
1.16423
1.14585
1.1264
1.10742
1.0898
1.07078
1.05391
1.03639
1.01652
1.68238
1.67865
1.67637
1.67431
1.67089
1.66693
1.66252
1.65771
1.65304
1.64746
1.6407
1.63363
1.62582
1.61691
1.60711
1.59664
1.58487
1.57225
1.5586
1.54419
1.52901
1.51224
1.49458
1.47381
1.45384
1.43377
1.41052
1.38462
1.35764
1.33043
1.30411
1.27518
1.24811
1.21859
1.18952
1.15911
1.13041
1.10107
1.07555
1.04422
1.83148
1.83083
1.83005
1.82882
1.82759
1.82641
1.82466
1.82268
1.82075
1.81789
1.81406
1.81005
1.80539
1.79936
1.79224
1.78412
1.77445
1.76298
1.74997
1.73583
1.72049
1.704
1.685
1.66403
1.64066
1.61545
1.59029
1.56347
1.53094
1.49532
1.45991
1.42435
1.38791
1.35247
1.31672
1.27987
1.24688
1.21134
1.18342
1.13547
1.85846
1.85848
1.85836
1.85824
1.85832
1.85828
1.85833
1.85831
1.85768
1.85715
1.85724
1.85704
1.85701
1.85723
1.8566
1.85648
1.8568
1.85622
1.85385
1.84977
1.84489
1.83943
1.83188
1.82041
1.80585
1.78914
1.77063
1.74936
1.72223
1.68994
1.65179
1.60931
1.56294
1.51775
1.47043
1.42308
1.37508
1.32865
1.28737
1.22013
1.83605
1.83653
1.83715
1.83706
1.83645
1.83636
1.83699
1.83807
1.83799
1.83812
1.83879
1.83866
1.83864
1.83946
1.84076
1.84231
1.84468
1.84771
1.84868
1.84827
1.84729
1.84623
1.84612
1.84721
1.84761
1.84675
1.84255
1.83605
1.82965
1.82114
1.80705
1.78407
1.75194
1.71108
1.6626
1.60757
1.54854
1.4871
1.43313
1.34937
1.67764
1.67922
1.68086
1.68342
1.68593
1.6884
1.69193
1.69624
1.69931
1.70308
1.70824
1.7133
1.71852
1.72396
1.73018
1.7375
1.7457
1.75393
1.76285
1.77162
1.77849
1.78481
1.79201
1.80031
1.8089
1.8182
1.82559
1.82605
1.82677
1.82714
1.82745
1.82677
1.82331
1.81509
1.80085
1.77567
1.7364
1.6813
1.62148
1.51306
1.46683
1.4684
1.46962
1.4709
1.47279
1.475
1.47733
1.47991
1.48271
1.48596
1.48977
1.49396
1.49868
1.50402
1.51004
1.51692
1.52475
1.53357
1.54362
1.55505
1.56818
1.58254
1.59896
1.61719
1.63638
1.65784
1.67948
1.70237
1.72663
1.74816
1.76655
1.7838
1.79648
1.80568
1.8052
1.80433
1.80059
1.78994
1.77052
1.69774
1.40375
1.40387
1.40399
1.40417
1.40436
1.40457
1.40482
1.40511
1.40544
1.40582
1.40629
1.40684
1.40749
1.40827
1.4092
1.41032
1.41169
1.41334
1.41538
1.41797
1.42127
1.4255
1.43076
1.43751
1.44585
1.45659
1.47041
1.48768
1.50915
1.53519
1.56584
1.60057
1.63818
1.67726
1.71419
1.74436
1.76568
1.78038
1.78005
1.77094
1.40006
1.40006
1.40007
1.40007
1.40007
1.40008
1.40008
1.40009
1.4001
1.4001
1.40011
1.40013
1.40014
1.40016
1.40019
1.40022
1.40026
1.40031
1.40038
1.40047
1.4006
1.40079
1.40105
1.40143
1.40198
1.40281
1.40408
1.40605
1.4091
1.41381
1.42118
1.43238
1.44915
1.4732
1.50632
1.54866
1.59709
1.64986
1.69492
1.73722
1.40001
1.40001
1.40001
1.40001
1.40001
1.40001
1.40001
1.40001
1.40001
1.40001
1.40001
1.40001
1.40001
1.40001
1.40001
1.40001
1.40001
1.40001
1.40001
1.40001
1.40001
1.40001
1.40002
1.40002
1.40003
1.40004
1.40007
1.40011
1.40019
1.40033
1.40061
1.40116
1.40228
1.40455
1.40905
1.41781
1.43354
1.46082
1.49819
1.58064
1.40001
1.40001
1.40001
1.40001
1.40001
1.40001
1.40001
1.40001
1.40001
1.40001
1.40001
1.40001
1.40001
1.40001
1.40001
1.40001
1.40001
1.40001
1.40001
1.40001
1.40001
1.40001
1.40001
1.40001
1.40001
1.40001
1.40001
1.40001
1.40001
1.40001
1.40001
1.40002
1.40004
1.40008
1.40019
1.4005
1.4013
1.40356
1.40826
1.43448
1.40001
1.40001
1.40001
1.40001
1.40001
1.40001
1.40001
1.40001
1.40001
1.40001
1.40001
1.40001
1.40001
1.40001
1.40001
1.40001
1.40001
1.40001
1.40001
1.40001
1.40001
1.40001
1.40001
1.40001
1.40001
1.40001
1.40001
1.40001
1.40001
1.40001
1.40001
1.40001
1.40001
1.40001
1.40001
1.40001
1.40002
1.40006
1.40018
1.40196
1.40001
1.40001
1.40001
1.40001
1.40001
1.40001
1.40001
1.40001
1.40001
1.40001
1.40001
1.40001
1.40001
1.40001
1.40001
1.40001
1.40001
1.40001
1.40001
1.40001
1.40001
1.40001
1.40001
1.40001
1.40001
1.40001
1.40001
1.40001
1.40001
1.40001
1.40001
1.40001
1.40001
1.40001
1.40001
1.40001
1.40001
1.40001
1.40001
1.40005
0.992611
0.992347
0.993755
0.996116
0.998699
0.998399
0.997705
0.999473
1.00261
1.00339
1.00106
0.996414
0.999724
1.02696
1.06393
1.17977
1.31548
1.4923
1.68628
1.83245
1.8585
1.83539
1.67463
1.46507
1.4036
1.40006
1.40001
1.40001
1.40001
1.40001
0.992523
0.992286
0.993844
0.996271
0.99893
0.998288
0.997458
0.999112
1.00261
1.00373
1.00132
0.996132
0.999462
1.02688
1.06718
1.18341
1.32027
1.49754
1.69131
1.83427
1.85853
1.83395
1.67021
1.46278
1.40337
1.40005
1.40001
1.40001
1.40001
1.40001
0.992391
0.992223
0.993907
0.996437
0.999057
0.998199
0.997244
0.998694
1.0026
1.004
1.00144
0.995349
0.999012
1.02685
1.07068
1.18732
1.32478
1.50246
1.69611
1.83605
1.8584
1.83235
1.66648
1.4605
1.40317
1.40005
1.40001
1.40001
1.40001
1.40001
0.99225
0.992207
0.993982
0.996602
0.999167
0.998118
0.997043
0.998266
1.0026
1.00411
1.00148
0.994623
0.998561
1.02701
1.07402
1.19082
1.32953
1.50764
1.70112
1.83792
1.85835
1.83081
1.66259
1.45817
1.40297
1.40005
1.40001
1.40001
1.40001
1.40001
0.992072
0.992169
0.994051
0.996772
0.99928
0.998051
0.996848
0.99784
1.00249
1.0041
1.0015
0.994033
0.998181
1.02724
1.07758
1.19424
1.33466
1.51344
1.70673
1.83982
1.85864
1.82941
1.65799
1.45576
1.40276
1.40004
1.40001
1.40001
1.40001
1.40001
0.991858
0.992109
0.994113
0.996958
0.999388
0.997993
0.996666
0.997451
1.00211
1.00403
1.00153
0.99359
0.997899
1.0273
1.08168
1.19784
1.34044
1.51995
1.71298
1.84172
1.85917
1.82816
1.65282
1.4532
1.40256
1.40004
1.40001
1.40001
1.40001
1.40001
0.991612
0.992065
0.994183
0.997174
0.999487
0.997938
0.996499
0.997119
1.00182
1.00404
1.00158
0.99326
0.99775
1.02835
1.08661
1.2013
1.34656
1.5266
1.71932
1.84355
1.85938
1.82672
1.6477
1.45058
1.40236
1.40004
1.40001
1.40001
1.40001
1.40001
0.991319
0.992048
0.994293
0.997416
0.999572
0.997903
0.99635
0.996831
1.00164
1.00421
1.00163
0.992909
0.997701
1.03286
1.09222
1.20478
1.3529
1.53341
1.72594
1.84527
1.85937
1.82433
1.6423
1.44795
1.40216
1.40003
1.40001
1.40001
1.40001
1.40001
0.991005
0.992082
0.994453
0.997694
0.999643
0.997892
0.996214
0.996536
1.00153
1.00436
1.00166
0.992169
0.997664
1.0374
1.09783
1.20879
1.35971
1.54073
1.73304
1.84692
1.85935
1.82105
1.63631
1.44526
1.40197
1.40003
1.40001
1.40001
1.40001
1.40001
0.990667
0.992174
0.994663
0.997988
0.999713
0.997893
0.996088
0.996214
1.00134
1.00444
1.00167
0.991421
0.997561
1.04014
1.10303
1.21389
1.36708
1.54875
1.7405
1.84861
1.85977
1.81744
1.62988
1.44252
1.40178
1.40003
1.40001
1.40001
1.40001
1.40001
0.990255
0.992218
0.994871
0.998297
0.999831
0.997902
0.995988
0.99594
1.00096
1.00456
1.00173
0.991225
0.997412
1.04123
1.10784
1.21937
1.37482
1.55745
1.74819
1.85049
1.86105
1.81353
1.62314
1.43975
1.4016
1.40002
1.40001
1.40001
1.40001
1.40001
0.989761
0.992138
0.995048
0.998602
1.00004
0.997956
0.995957
0.995837
1.00049
1.00474
1.00209
0.991195
0.997174
1.04069
1.11229
1.22454
1.3829
1.56683
1.75618
1.8526
1.86215
1.80924
1.61607
1.43696
1.40142
1.40002
1.40001
1.40001
1.40001
1.40001
0.989338
0.991886
0.995166
0.998883
1.00024
0.998167
0.996095
0.995892
1.00014
1.00493
1.00289
0.99136
0.997031
1.03945
1.11652
1.23003
1.39156
1.57685
1.76438
1.85494
1.86259
1.80469
1.60867
1.43414
1.40125
1.40002
1.40001
1.40001
1.40001
1.40001
0.989104
0.991777
0.99521
0.999152
1.0004
0.998513
0.996332
0.995901
0.999999
1.00511
1.0037
0.992789
0.99761
1.04033
1.12108
1.23701
1.40094
1.58748
1.77272
1.85734
1.86291
1.80002
1.60068
1.43128
1.40109
1.40002
1.40001
1.40001
1.40001
1.40001
0.988979
0.991784
0.995333
0.999431
1.00054
0.998886
0.99655
0.995889
0.999981
1.00527
1.00442
0.995243
0.999429
1.04394
1.12657
1.24562
1.41081
1.59885
1.78107
1.85923
1.86339
1.79517
1.59198
1.42841
1.40095
1.40002
1.40001
1.40001
1.40001
1.40001
0.988834
0.991875
0.995754
0.99969
1.00067
0.999236
0.99678
0.995947
0.999831
1.00536
1.00498
0.997165
1.00065
1.047
1.13278
1.25506
1.42126
1.61092
1.78928
1.86047
1.86369
1.78999
1.5827
1.42556
1.40081
1.40001
1.40001
1.40001
1.40001
1.40001
0.988652
0.991859
0.995987
0.999858
1.00078
0.999541
0.997048
0.996095
0.999473
1.00532
1.00539
0.99835
1.00105
1.05017
1.13942
1.26502
1.43271
1.62376
1.79732
1.86212
1.86411
1.78442
1.57297
1.42278
1.40068
1.40001
1.40001
1.40001
1.40001
1.40001
0.988536
0.991622
0.996067
0.999961
1.0009
0.999825
0.997358
0.996328
0.998698
1.00462
1.00561
0.999054
1.00176
1.05581
1.14596
1.27562
1.44554
1.63746
1.80526
1.86599
1.8655
1.77833
1.56283
1.42009
1.40057
1.40001
1.40001
1.40001
1.40001
1.40001
0.988536
0.991486
0.996089
1.00001
1.00111
1.00017
0.997751
0.99665
0.99786
1.00324
1.00568
1.00055
1.00494
1.06271
1.15148
1.28716
1.45941
1.65203
1.81328
1.86896
1.86622
1.77123
1.55211
1.41751
1.40047
1.40001
1.40001
1.40001
1.40001
1.40001
0.988836
0.991515
0.996105
0.999932
1.00131
1.00055
0.998381
0.997022
0.997312
1.00188
1.00561
1.00241
1.00849
1.06867
1.15528
1.29985
1.47452
1.66739
1.82138
1.87032
1.86554
1.76279
1.54088
1.41508
1.40038
1.40001
1.40001
1.40001
1.40001
1.40001
0.989186
0.99156
0.996008
0.999765
1.0014
1.00076
0.999328
0.997384
0.996976
1.00005
1.00468
1.00301
1.01061
1.0745
1.15849
1.31411
1.49102
1.68358
1.82957
1.87112
1.86322
1.75306
1.52947
1.41283
1.40031
1.40001
1.40001
1.40001
1.40001
1.40001
0.989524
0.991846
0.995829
0.999456
1.00132
1.00084
1.00024
0.997849
0.996804
0.99737
1.00249
1.00301
1.0123
1.0824
1.16735
1.33045
1.50886
1.70045
1.83771
1.87226
1.85961
1.74228
1.51807
1.41078
1.40024
1.40001
1.40001
1.40001
1.40001
1.40001
0.989982
0.992185
0.995577
0.999014
1.00098
1.00093
1.00082
0.998496
0.996584
0.994401
1.00011
1.00273
1.01395
1.09315
1.18653
1.34848
1.52769
1.71797
1.84585
1.87413
1.85481
1.73014
1.50667
1.40891
1.40019
1.40001
1.40001
1.40001
1.40001
1.40001
0.990703
0.992561
0.995354
0.99844
1.00066
1.00097
1.00113
0.998752
0.995836
0.992512
0.99864
1.00241
1.01738
1.10508
1.20582
1.36651
1.54817
1.73609
1.85388
1.87533
1.84919
1.71646
1.49524
1.40723
1.40014
1.40001
1.40001
1.40001
1.40001
1.40001
0.991792
0.992959
0.995213
0.997736
1.00017
1.0008
1.00121
0.998761
0.995066
0.99116
0.997842
1.00459
1.02575
1.11585
1.22379
1.38524
1.57085
1.75433
1.86148
1.87583
1.84376
1.70139
1.48379
1.40574
1.40011
1.40001
1.40001
1.40001
1.40001
1.40001
0.993289
0.993415
0.995216
0.996934
0.999455
1.00039
1.00111
0.998695
0.994295
0.990022
0.996985
1.0086
1.03317
1.12356
1.24223
1.40629
1.59486
1.77251
1.86803
1.87642
1.83843
1.68482
1.47242
1.40445
1.40008
1.40001
1.40001
1.40001
1.40001
1.40001
0.994665
0.994048
0.995263
0.996362
0.998577
0.999816
1.00085
0.998722
0.993599
0.989009
0.995679
1.01434
1.04068
1.12906
1.26196
1.43005
1.62023
1.7905
1.87304
1.87697
1.83203
1.66658
1.46129
1.40335
1.40006
1.40001
1.40001
1.40001
1.40001
1.40001
0.995732
0.994695
0.995342
0.995869
0.997699
0.999274
1.00073
0.998784
0.992982
0.988038
0.994041
1.02043
1.05058
1.13665
1.28413
1.45664
1.64708
1.80817
1.87642
1.87658
1.82441
1.64644
1.4506
1.40244
1.40004
1.40001
1.40001
1.40001
1.40001
1.40001
0.996623
0.995161
0.99518
0.995563
0.996958
0.998703
1.00078
0.99911
0.992697
0.987135
0.992946
1.02613
1.06184
1.15483
1.30934
1.48587
1.67579
1.82513
1.87866
1.87583
1.8161
1.62427
1.44071
1.40173
1.40003
1.40001
1.40001
1.40001
1.40001
1.40001
0.997291
0.995623
0.995067
0.995493
0.996539
0.998023
1.00093
0.999743
0.993105
0.986649
0.992899
1.03363
1.07343
1.18064
1.33627
1.51866
1.70598
1.84075
1.88048
1.8729
1.80594
1.6004
1.43183
1.40119
1.40002
1.40001
1.40001
1.40001
1.40001
1.40001
0.997494
0.996002
0.995378
0.995782
0.99647
0.997326
1.00061
1.00042
0.995253
0.986825
0.993992
1.04051
1.08494
1.20714
1.36519
1.55458
1.73659
1.85466
1.88144
1.86821
1.79097
1.5755
1.42416
1.40079
1.40001
1.40001
1.40001
1.40001
1.40001
1.40001
0.996957
0.995996
0.995958
0.996383
0.996818
0.996705
0.999648
1.00098
0.997924
0.988067
0.99536
1.04467
1.10055
1.23672
1.39874
1.59329
1.7673
1.86595
1.88188
1.86198
1.77098
1.55046
1.41772
1.40051
1.40001
1.40001
1.40001
1.40001
1.40001
1.40001
0.995571
0.99575
0.996577
0.997471
0.997042
0.996414
0.998877
1.00124
0.999681
0.990679
0.996708
1.04966
1.12669
1.26988
1.43864
1.63459
1.79621
1.87382
1.88223
1.85499
1.74812
1.52569
1.41247
1.40031
1.40001
1.40001
1.40001
1.40001
1.40001
1.40001
0.993923
0.995181
0.997726
0.998904
0.99769
0.99662
0.99774
1.00083
1.00046
0.993923
0.998871
1.05788
1.15711
1.30491
1.4834
1.67726
1.82251
1.87815
1.88243
1.85181
1.72232
1.50114
1.40832
1.40018
1.40001
1.40001
1.40001
1.40001
1.40001
1.40001
0.991428
0.994732
0.998524
1.00031
0.999931
0.998012
0.996743
0.997202
1.00084
0.998182
1.00333
1.07429
1.19016
1.34433
1.53263
1.72123
1.84555
1.87988
1.88233
1.8528
1.69218
1.47733
1.40519
1.4001
1.40001
1.40001
1.40001
1.40001
1.40001
1.40001
0.989734
0.993808
0.998627
1.00116
1.00224
1.00075
0.99671
0.992224
0.998902
1.00309
1.01182
1.10224
1.22819
1.39277
1.58726
1.76482
1.86398
1.88066
1.88042
1.84363
1.65579
1.45587
1.40304
1.40005
1.40001
1.40001
1.40001
1.40001
1.40001
1.40001
0.989178
0.992038
0.997621
1.00134
1.00337
1.00358
0.997505
0.988686
0.992177
1.00702
1.02781
1.13697
1.27272
1.45133
1.64562
1.80417
1.87729
1.88207
1.87773
1.81203
1.61434
1.43828
1.40167
1.40003
1.40001
1.40001
1.40001
1.40001
1.40001
1.40001
0.989925
0.991178
0.995315
1.00018
1.00453
1.00482
0.997813
0.98581
0.988019
1.0121
1.05432
1.17589
1.32663
1.51752
1.70491
1.83682
1.8856
1.88313
1.87377
1.78333
1.57466
1.42464
1.40086
1.40002
1.40001
1.40001
1.40001
1.40001
1.40001
1.40001
0.991419
0.99091
0.992457
0.998109
1.00512
1.00563
0.997736
0.983211
0.987246
1.02757
1.08875
1.21883
1.3923
1.59037
1.76298
1.86105
1.889
1.88433
1.86736
1.75364
1.53454
1.41448
1.4004
1.40001
1.40001
1.40001
1.40001
1.40001
1.40001
1.40001
0.991915
0.990635
0.991796
0.995891
1.00362
1.00609
0.999585
0.982569
0.988234
1.04835
1.13206
1.27694
1.47126
1.66822
1.81477
1.87569
1.89049
1.88425
1.85179
1.71497
1.49381
1.40752
1.40017
1.40001
1.40001
1.40001
1.40001
1.40001
1.40001
1.40001
1.40001
1.40001
1.40001
1.40001
1.40001
1.40001
1.40001
1.40001
1.40001
1.40001
1.40001
1.40001
1.40055
1.42096
1.57349
1.80418
1.8615
1.89261
1.89611
1.89214
1.88459
1.88384
1.88641
1.89203
1.89531
1.89498
1.89186
1.88805
1.87877
1.7998
1.40001
1.40001
1.40001
1.40001
1.40001
1.40001
1.40001
1.40001
1.40001
1.40001
1.40001
1.40001
1.40065
1.4234
1.58442
1.80565
1.8623
1.89289
1.89621
1.8919
1.88454
1.8836
1.8863
1.89208
1.89543
1.89503
1.89175
1.88741
1.8627
1.68712
1.40001
1.40001
1.40001
1.40001
1.40001
1.40001
1.40001
1.40001
1.40001
1.40001
1.40001
1.40001
1.40078
1.42664
1.59327
1.8067
1.8631
1.89331
1.8965
1.8918
1.88455
1.88344
1.88617
1.89206
1.89547
1.89505
1.89168
1.8857
1.83391
1.57287
1.40001
1.40001
1.40001
1.40001
1.40001
1.40001
1.40001
1.40001
1.40001
1.40001
1.40001
1.40001
1.40095
1.4301
1.60199
1.81078
1.86385
1.89438
1.89708
1.89188
1.88462
1.8834
1.88601
1.89201
1.89549
1.89506
1.89149
1.8821
1.79617
1.46004
1.40001
1.40001
1.40001
1.40001
1.40001
1.40001
1.40001
1.40001
1.40001
1.40001
1.40001
1.40002
1.40115
1.4338
1.61318
1.81622
1.86521
1.89521
1.89785
1.8922
1.88481
1.88333
1.8858
1.89201
1.89548
1.89505
1.89099
1.87495
1.74557
1.35741
1.40001
1.40001
1.40001
1.40001
1.40001
1.40001
1.40001
1.40001
1.40001
1.40001
1.40001
1.40002
1.40139
1.43819
1.625
1.82141
1.86842
1.89613
1.89902
1.89282
1.885
1.88316
1.8856
1.89191
1.89545
1.89502
1.88993
1.86251
1.69094
1.25772
1.40001
1.40001
1.40001
1.40001
1.40001
1.40001
1.40001
1.40001
1.40001
1.40001
1.40001
1.40003
1.40172
1.44336
1.63695
1.82744
1.87017
1.8979
1.90075
1.89363
1.88512
1.88291
1.88542
1.89169
1.89537
1.89493
1.88786
1.84265
1.62772
1.16696
1.40001
1.40001
1.40001
1.40001
1.40001
1.40001
1.40001
1.40001
1.40001
1.40001
1.40001
1.40003
1.40212
1.44917
1.64944
1.83478
1.87128
1.89859
1.9018
1.8939
1.88531
1.8828
1.88521
1.89143
1.89523
1.89467
1.88384
1.81354
1.5612
1.08516
1.40001
1.40001
1.40001
1.40001
1.40001
1.40001
1.40001
1.40001
1.40001
1.40001
1.40001
1.40004
1.40265
1.45593
1.66277
1.84027
1.8731
1.8986
1.90199
1.89413
1.88566
1.88278
1.88487
1.8911
1.89499
1.89408
1.87638
1.77443
1.49659
1.00623
1.40001
1.40001
1.40001
1.40001
1.40001
1.40001
1.40001
1.40001
1.40001
1.40001
1.40001
1.40005
1.40332
1.46373
1.67617
1.84499
1.87345
1.89842
1.90206
1.89459
1.88616
1.88278
1.88472
1.89066
1.89464
1.89277
1.86329
1.72499
1.42773
0.940936
1.40001
1.40001
1.40001
1.40001
1.40001
1.40001
1.40001
1.40001
1.40001
1.40001
1.40001
1.40007
1.40419
1.47277
1.69057
1.85039
1.87322
1.89784
1.90204
1.89474
1.88656
1.88285
1.8847
1.89018
1.89419
1.89014
1.84264
1.6652
1.36096
0.888383
1.40001
1.40001
1.40001
1.40001
1.40001
1.40001
1.40001
1.40001
1.40001
1.40001
1.40001
1.40009
1.40534
1.48318
1.70586
1.8556
1.87296
1.89703
1.90167
1.89472
1.8869
1.88301
1.88475
1.88966
1.89355
1.88463
1.81112
1.59865
1.30255
0.837328
1.40001
1.40001
1.40001
1.40001
1.40001
1.40001
1.40001
1.40001
1.40001
1.40001
1.40001
1.40012
1.40681
1.49518
1.72099
1.86112
1.87293
1.89586
1.90067
1.8945
1.88717
1.8833
1.88489
1.88912
1.89253
1.87478
1.76899
1.52621
1.23985
0.799741
1.40001
1.40001
1.40001
1.40001
1.40001
1.40001
1.40001
1.40001
1.40001
1.40001
1.40001
1.40017
1.40875
1.50861
1.7378
1.86675
1.87338
1.89379
1.89912
1.89404
1.8873
1.88369
1.88501
1.88822
1.89071
1.85696
1.71331
1.45022
1.18832
0.784452
1.40001
1.40001
1.40001
1.40001
1.40001
1.40001
1.40001
1.40001
1.40001
1.40001
1.40001
1.40024
1.41122
1.52398
1.75409
1.87076
1.87427
1.89235
1.89779
1.89373
1.88744
1.88412
1.88514
1.88772
1.8863
1.8299
1.64885
1.37469
1.14075
0.768319
1.40001
1.40001
1.40001
1.40001
1.40001
1.40001
1.40001
1.40001
1.40001
1.40001
1.40001
1.40035
1.41452
1.5408
1.77058
1.87447
1.87477
1.89113
1.89693
1.89346
1.88777
1.88456
1.88523
1.88711
1.87735
1.78936
1.57516
1.30155
1.09685
0.769043
1.40001
1.40001
1.40001
1.40001
1.40001
1.40001
1.40001
1.40001
1.40001
1.40001
1.40001
1.4005
1.4187
1.55966
1.78509
1.87803
1.87576
1.88938
1.89619
1.8933
1.88842
1.88502
1.88505
1.88597
1.86159
1.7371
1.49883
1.22976
1.05602
0.774269
1.40001
1.40001
1.40001
1.40001
1.40001
1.40001
1.40001
1.40001
1.40001
1.40001
1.40001
1.40074
1.42426
1.57993
1.79616
1.88109
1.87678
1.88743
1.89554
1.89368
1.8893
1.88547
1.88513
1.88264
1.83497
1.67148
1.42012
1.16384
1.02614
0.793681
1.40001
1.40001
1.40001
1.40001
1.40001
1.40001
1.40001
1.40001
1.40001
1.40001
1.40002
1.40108
1.43115
1.60184
1.80941
1.88397
1.87727
1.88574
1.89484
1.8944
1.89059
1.886
1.88492
1.87486
1.79576
1.59758
1.34413
1.10108
1.0018
0.829801
1.40001
1.40001
1.40001
1.40001
1.40001
1.40001
1.40001
1.40001
1.40001
1.40001
1.40003
1.40162
1.44017
1.62513
1.82049
1.88703
1.87829
1.88387
1.89392
1.89482
1.892
1.88675
1.88387
1.85943
1.74199
1.51872
1.27112
1.04095
0.979298
0.866204
1.40001
1.40001
1.40001
1.40001
1.40001
1.40001
1.40001
1.40001
1.40001
1.40001
1.40004
1.40241
1.45108
1.64937
1.83147
1.89116
1.87904
1.88216
1.89339
1.89478
1.89287
1.88741
1.88065
1.83227
1.67496
1.43559
1.20732
1.00122
0.958078
0.896853
1.40001
1.40001
1.40001
1.40001
1.40001
1.40001
1.40001
1.40001
1.40001
1.40001
1.40006
1.40365
1.46529
1.6761
1.84305
1.89494
1.87969
1.8801
1.89243
1.89465
1.89349
1.88727
1.8723
1.7909
1.59949
1.35688
1.14792
0.967353
0.937156
0.936667
1.40001
1.40001
1.40001
1.40001
1.40001
1.40001
1.40001
1.40001
1.40001
1.40001
1.4001
1.40548
1.48225
1.70095
1.85083
1.89579
1.88031
1.87909
1.89085
1.89479
1.89379
1.88566
1.85537
1.73368
1.51488
1.27877
1.10258
0.949219
0.924952
0.964102
1.40001
1.40001
1.40001
1.40001
1.40001
1.40001
1.40001
1.40001
1.40001
1.40001
1.40017
1.40823
1.50261
1.72695
1.85811
1.89688
1.88146
1.87902
1.88944
1.89503
1.89383
1.88063
1.82441
1.66356
1.43394
1.20756
1.05874
0.943564
0.925281
0.97761
1.40001
1.40001
1.40001
1.40001
1.40001
1.40001
1.40001
1.40001
1.40001
1.40001
1.40029
1.41232
1.52639
1.75041
1.86386
1.89871
1.8829
1.87913
1.88884
1.89531
1.89348
1.8692
1.7788
1.58271
1.34929
1.14364
1.03238
0.94579
0.929138
0.985983
1.40001
1.40001
1.40001
1.40001
1.40001
1.40001
1.40001
1.40001
1.40001
1.40001
1.4005
1.41804
1.55323
1.77293
1.86908
1.89954
1.88445
1.8804
1.88926
1.8961
1.89138
1.84727
1.71572
1.49789
1.27385
1.08705
1.00918
0.949804
0.94119
0.990099
1.40001
1.40001
1.40001
1.40001
1.40001
1.40001
1.40001
1.40001
1.40001
1.40002
1.40088
1.42654
1.58339
1.79364
1.87463
1.89947
1.88526
1.88187
1.88963
1.89608
1.88483
1.81091
1.641
1.41204
1.20382
1.0389
0.994881
0.957849
0.95882
0.989963
1.40001
1.40001
1.40001
1.40001
1.40001
1.40001
1.40001
1.40001
1.40001
1.40002
1.40154
1.4377
1.61622
1.81261
1.87716
1.89892
1.88527
1.88218
1.88936
1.89508
1.86998
1.75845
1.55708
1.33007
1.14226
0.999337
0.981401
0.96611
0.976095
0.993096
1.40001
1.40001
1.40001
1.40001
1.40001
1.40001
1.40001
1.40001
1.40001
1.40004
1.40272
1.45377
1.65163
1.83098
1.87805
1.89787
1.88536
1.88161
1.88749
1.89134
1.8406
1.68938
1.4717
1.25428
1.09618
0.976799
0.96694
0.977629
0.988938
0.997529
1.40001
1.40001
1.40001
1.40001
1.40001
1.40001
1.40001
1.40001
1.40001
1.40009
1.40472
1.47385
1.6863
1.84587
1.87978
1.89765
1.88642
1.88058
1.88491
1.87919
1.79521
1.61057
1.38604
1.18664
1.05552
0.959979
0.954257
0.984326
0.995479
1.00333
1.40001
1.40001
1.40001
1.40001
1.40001
1.40001
1.40001
1.40001
1.40001
1.40017
1.4081
1.50001
1.72236
1.85892
1.88213
1.89822
1.88859
1.88067
1.8802
1.85476
1.72991
1.52335
1.30741
1.12625
1.02887
0.960099
0.955101
0.987526
0.999592
1.00786
1.40001
1.40001
1.40001
1.40001
1.40001
1.40001
1.40001
1.40001
1.40001
1.40035
1.41378
1.53187
1.75299
1.86693
1.88401
1.89872
1.89064
1.8806
1.87128
1.81352
1.6523
1.43598
1.23561
1.07752
1.00938
0.962668
0.96024
0.992211
0.99956
1.00704
1.40001
1.40001
1.40001
1.40001
1.40001
1.40001
1.40001
1.40001
1.40001
1.40073
1.42244
1.56817
1.78393
1.8726
1.88413
1.89861
1.89213
1.8796
1.85392
1.7552
1.56586
1.35388
1.16875
1.03106
0.998228
0.973093
0.969128
0.995177
0.997799
1.00326
1.40001
1.40001
1.40001
1.40001
1.40001
1.40001
1.40001
1.40001
1.40002
1.40147
1.4361
1.61044
1.81008
1.8783
1.88369
1.89728
1.89182
1.87521
1.8224
1.67939
1.4743
1.27412
1.11982
1.00201
0.988998
0.986836
0.981151
0.999472
0.995822
0.995282
1.40001
1.40001
1.40001
1.40001
1.40001
1.40001
1.40001
1.40001
1.40005
1.40298
1.45561
1.65302
1.8316
1.88408
1.88328
1.89432
1.89027
1.86307
1.77052
1.59562
1.3933
1.20699
1.07356
0.981197
0.975422
0.991072
0.994725
1.00122
0.994582
0.987485
1.40001
1.40001
1.40001
1.40001
1.40001
1.40001
1.40001
1.40001
1.40012
1.40593
1.48237
1.69956
1.84948
1.88677
1.88307
1.89167
1.8853
1.83728
1.70432
1.50687
1.30676
1.14441
1.04819
0.976518
0.971621
0.993345
1.00598
1.00243
0.991659
0.980042
1.40001
1.40001
1.40001
1.40001
1.40001
1.40001
1.40001
1.40001
1.40028
1.41119
1.51816
1.74019
1.86275
1.88896
1.88334
1.88948
1.87308
1.79266
1.62111
1.41467
1.23659
1.0956
1.02693
0.977656
0.974566
0.996586
1.00567
1.00161
0.98949
0.98005
1.40001
1.40001
1.40001
1.40001
1.40001
1.40001
1.40001
1.40001
1.40066
1.42079
1.56121
1.77734
1.87256
1.89095
1.88314
1.88615
1.84795
1.72708
1.52866
1.33516
1.17303
1.04832
1.0136
0.9849
0.979857
0.996899
1.00379
0.998472
0.989386
0.982319
1.40001
1.40001
1.40001
1.40001
1.40001
1.40001
1.40001
1.40003
1.40155
1.43659
1.60916
1.81201
1.87687
1.89132
1.88333
1.87584
1.80498
1.64638
1.44426
1.25451
1.11402
1.0159
1.00358
0.998674
0.989395
0.997737
1.00017
0.994658
0.989386
0.986938
1.40001
1.40001
1.40001
1.40001
1.40001
1.40001
1.40001
1.40007
1.40351
1.46004
1.66256
1.83454
1.88054
1.89105
1.88199
1.85332
1.74323
1.5591
1.35758
1.18596
1.07517
0.998619
0.991634
1.00078
1.00212
1.00017
0.995661
0.992424
0.990372
0.991198
1.88208
1.88468
1.88821
1.89204
1.89493
1.89517
1.89203
1.88661
1.88408
1.88473
1.89225
1.89608
1.89238
1.86087
1.79558
1.56449
1.41897
1.40047
1.40001
1.40001
1.40001
1.40001
1.40001
1.40001
1.40001