/*--------------------------------*- C++ -*----------------------------------*\
  =========                 |
  \\      /  F ield         | OpenFOAM: The Open Source CFD Toolbox
   \\    /   O peration     | Website:  https://openfoam.org
    \\  /    A nd           | Version:  7
     \\/     M anipulation  |
\*---------------------------------------------------------------------------*/
FoamFile
{
    version     2.0;
    format      ascii;
    class       volScalarField;
    location    "10";
    object      p;
}
// * * * * * * * * * * * * * * * * * * * * * * * * * * * * * * * * * * * * * //

dimensions      [1 -1 -2 0 0 0 0];

internalField   nonuniform List<scalar> 
90000
(
0.106779
0.143646
0.181484
0.20712
0.233966
0.266742
0.286444
0.303312
0.329193
0.352994
0.375139
0.400955
0.428241
0.459168
0.492706
0.526565
0.563598
0.604758
0.646562
0.690084
0.733557
0.77779
0.821155
0.862116
0.897001
0.924612
0.944749
0.953605
0.950844
0.946584
0.939852
0.932959
0.923626
0.917296
0.910094
0.905625
0.899577
0.898873
0.898372
0.896847
0.891033
0.880441
0.867569
0.8528
0.845501
0.848832
0.858308
0.870226
0.885274
0.90543
0.924528
0.938402
0.947977
0.943911
0.930917
0.91115
0.892251
0.87694
0.870061
0.871006
0.88012
0.895501
0.910673
0.922054
0.928815
0.920845
0.907259
0.892785
0.886765
0.887794
0.897155
0.907772
0.920397
0.916737
0.907168
0.897247
0.894671
0.900553
0.907756
0.912322
0.906606
0.898709
0.897047
0.903061
0.912763
0.909687
0.903533
0.898872
0.900338
0.906012
0.908789
0.907032
0.908814
0.91499
0.922478
0.928106
0.932276
0.936936
0.942129
0.949896
0.0762254
0.0762024
0.0761782
0.0761544
0.0761309
0.0761095
0.0760896
0.0760698
0.0760527
0.0760355
0.0760283
0.0759806
0.0762942
0.0775285
0.0803947
0.0851935
0.0930995
0.104383
0.120672
0.140831
0.167979
0.200015
0.241223
0.289526
0.347583
0.412417
0.483583
0.55434
0.618055
0.677532
0.726689
0.773652
0.807862
0.841558
0.859106
0.876228
0.879487
0.884872
0.882805
0.883143
0.880189
0.881457
0.879938
0.883214
0.89357
0.904814
0.909585
0.912828
0.917684
0.9214
0.922319
0.915381
0.903462
0.891055
0.884287
0.882685
0.883602
0.887169
0.894221
0.900224
0.908594
0.91555
0.921391
0.915108
0.906734
0.899178
0.895793
0.895803
0.900794
0.907004
0.912628
0.914125
0.90895
0.901217
0.896297
0.897426
0.903981
0.911817
0.911822
0.904497
0.8984
0.897319
0.903476
0.912863
0.90881
0.902355
0.898933
0.900227
0.905758
0.909827
0.908249
0.908965
0.914728
0.922799
0.927529
0.928746
0.932967
0.940023
0.946255
0.952843
0.0762897
0.0762858
0.0762836
0.0762799
0.0762747
0.0762713
0.0762699
0.0762676
0.0762672
0.0762658
0.0762664
0.0762664
0.0762608
0.076274
0.0762418
0.076207
0.0761785
0.0761605
0.0761468
0.0761386
0.0761351
0.0761426
0.0761454
0.0761572
0.0761401
0.0765246
0.0806277
0.0897276
0.10869
0.134356
0.173219
0.217072
0.27394
0.333891
0.404911
0.475427
0.547355
0.617342
0.681472
0.745303
0.799344
0.857734
0.902535
0.94446
0.960946
0.967379
0.962564
0.956125
0.944075
0.923696
0.896675
0.866261
0.838108
0.837171
0.847526
0.861271
0.881447
0.902077
0.923041
0.932425
0.931597
0.921747
0.90571
0.890951
0.879279
0.879427
0.885837
0.898841
0.913267
0.920315
0.914073
0.903346
0.896175
0.896452
0.901925
0.907872
0.913057
0.906997
0.902482
0.898626
0.898514
0.902863
0.910066
0.907712
0.904368
0.902664
0.902456
0.905096
0.907865
0.907751
0.911054
0.915098
0.92119
0.923202
0.925139
0.930761
0.938308
0.946112
0.948574
0.953843
0.0762064
0.0761994
0.076195
0.076189
0.0761815
0.0761762
0.0761736
0.0761732
0.0761748
0.0761743
0.0761766
0.0761802
0.0761879
0.0761959
0.0762034
0.0762118
0.0762248
0.0762431
0.0762578
0.0762692
0.0762842
0.0763011
0.0763115
0.0763183
0.0763174
0.0763186
0.0763003
0.0762833
0.076264
0.0762437
0.0762347
0.0762314
0.0762244
0.0762123
0.0772379
0.0817859
0.0962135
0.118297
0.15714
0.204454
0.272072
0.345601
0.43599
0.529983
0.613489
0.696344
0.752726
0.80615
0.829503
0.854598
0.854445
0.856746
0.861317
0.876013
0.890111
0.902267
0.911446
0.918617
0.926737
0.927719
0.9142
0.899151
0.89218
0.893745
0.897487
0.900789
0.905832
0.90935
0.912717
0.909272
0.902689
0.896906
0.895026
0.89568
0.902295
0.911204
0.913057
0.907661
0.899334
0.897919
0.901409
0.908772
0.909137
0.906014
0.902664
0.900588
0.901822
0.905938
0.908282
0.910626
0.91277
0.916309
0.92022
0.926448
0.932082
0.936445
0.939684
0.942707
0.947703
0.955003
0.0761381
0.0761413
0.0761467
0.0761534
0.0761588
0.0761628
0.0761677
0.0761762
0.0761848
0.0761922
0.0762005
0.0762113
0.0762285
0.0762484
0.076264
0.0762751
0.0762869
0.0763017
0.0763164
0.0763264
0.0763341
0.0763439
0.076352
0.0763531
0.0763493
0.0763418
0.0763331
0.0763212
0.076304
0.0762826
0.0762695
0.0762695
0.0762756
0.0762862
0.0762878
0.0762784
0.0762663
0.0762539
0.0762382
0.0762162
0.0761926
0.0761509
0.0796158
0.0906401
0.12109
0.166448
0.240188
0.328797
0.438302
0.556265
0.668108
0.782818
0.855286
0.908153
0.91106
0.917361
0.919431
0.917259
0.906255
0.886214
0.859979
0.863883
0.876048
0.891097
0.905926
0.914403
0.918477
0.916058
0.905729
0.893275
0.890989
0.893714
0.902361
0.913048
0.912004
0.906678
0.900169
0.898484
0.900339
0.900444
0.906294
0.90916
0.906434
0.902799
0.901992
0.904424
0.907664
0.908994
0.909878
0.910444
0.91402
0.919162
0.926339
0.931407
0.933423
0.93682
0.942594
0.94957
0.953752
0.957824
0.0762739
0.0762752
0.076277
0.0762806
0.0762856
0.0762881
0.0762884
0.0762892
0.0762918
0.0762962
0.0762997
0.0763035
0.0763144
0.0763336
0.0763509
0.0763562
0.0763569
0.0763589
0.0763641
0.0763659
0.0763654
0.0763657
0.0763638
0.0763588
0.076351
0.0763432
0.0763339
0.0763182
0.0762951
0.0762666
0.0762388
0.076228
0.0762451
0.0762884
0.0762975
0.0762869
0.0762787
0.0762773
0.0762693
0.0762543
0.0762378
0.0762179
0.0761655
0.0761354
0.0761374
0.0761707
0.0762254
0.0762261
0.0808267
0.0979968
0.14742
0.228031
0.347346
0.476177
0.588635
0.691909
0.749983
0.803997
0.82446
0.831045
0.860769
0.875994
0.900728
0.91624
0.928263
0.928299
0.925394
0.909104
0.892741
0.883701
0.8858
0.893411
0.903299
0.920416
0.917731
0.908939
0.900493
0.89394
0.898259
0.90789
0.910484
0.90649
0.901178
0.899334
0.900851
0.905087
0.911282
0.912378
0.911479
0.913432
0.91815
0.924196
0.927883
0.930498
0.933647
0.939486
0.945911
0.949889
0.953253
0.959631
0.0763155
0.0763171
0.0763162
0.0763141
0.0763146
0.0763175
0.0763162
0.0763137
0.0763142
0.0763179
0.0763174
0.0763153
0.0763175
0.0763278
0.0763413
0.0763429
0.0763401
0.0763341
0.0763271
0.0763247
0.0763243
0.0763214
0.0763158
0.0763071
0.0762947
0.0762772
0.0762559
0.0762364
0.0762175
0.0761943
0.0761722
0.0761668
0.0761933
0.0762713
0.0763143
0.0763177
0.0763169
0.076317
0.0763075
0.0762919
0.0762768
0.0762623
0.0762486
0.0762407
0.076249
0.0762525
0.0762438
0.0762354
0.0762318
0.0762309
0.0762325
0.0762411
0.0762433
0.0829107
0.119019
0.180136
0.283052
0.408847
0.552416
0.686201
0.81387
0.857623
0.889193
0.903578
0.915733
0.919074
0.90925
0.882356
0.883195
0.888045
0.900114
0.912108
0.91799
0.916531
0.906073
0.898259
0.898482
0.898047
0.902388
0.909346
0.908796
0.901343
0.897338
0.900767
0.908235
0.911227
0.910389
0.910502
0.911447
0.913858
0.920173
0.925863
0.929093
0.932912
0.938254
0.943431
0.949061
0.952917
0.955685
0.960484
0.0762932
0.0762916
0.0762908
0.0762896
0.0762865
0.0762846
0.0762835
0.0762812
0.0762844
0.0762952
0.0762992
0.0762985
0.0763007
0.0763008
0.0762969
0.076291
0.0762855
0.0762802
0.0762745
0.0762652
0.0762534
0.0762477
0.076242
0.0762341
0.0762242
0.0762002
0.0761674
0.0761527
0.0761477
0.076148
0.0761605
0.0761893
0.0762323
0.0762842
0.0763292
0.0763521
0.076363
0.0763555
0.0763388
0.0763185
0.0762998
0.0762869
0.0762789
0.0762745
0.0762842
0.0763048
0.0763144
0.0763117
0.0763153
0.0763135
0.0763011
0.0762875
0.0762825
0.0763007
0.0763542
0.0764115
0.0764338
0.0782793
0.101861
0.169274
0.279299
0.432738
0.577101
0.690465
0.769289
0.836706
0.844566
0.871459
0.890113
0.913736
0.930251
0.925923
0.922965
0.901696
0.885173
0.887781
0.894358
0.907227
0.916487
0.913596
0.902146
0.894999
0.896446
0.903672
0.910537
0.915699
0.913168
0.911767
0.913594
0.919275
0.923569
0.927957
0.930983
0.933797
0.939309
0.945499
0.948841
0.953766
0.957835
0.963013
0.0762284
0.0762269
0.0762248
0.0762216
0.0762174
0.0762137
0.0762123
0.0762179
0.0762429
0.0762671
0.0762671
0.076263
0.0762546
0.0762377
0.0762252
0.0762196
0.0762232
0.0762238
0.0762174
0.0762057
0.0761934
0.0761927
0.0761926
0.0761866
0.0761771
0.0761586
0.0761398
0.0761353
0.0761402
0.0761535
0.0761827
0.0762418
0.0763159
0.0763501
0.0763542
0.0763565
0.0763698
0.0763806
0.07637
0.0763476
0.07633
0.076319
0.0763132
0.0763087
0.076311
0.0763235
0.0763415
0.0763554
0.0763543
0.0763368
0.0763027
0.0762749
0.0762759
0.0763114
0.0763795
0.0764212
0.076453
0.0764804
0.0764903
0.07649
0.0764606
0.0838043
0.112037
0.195559
0.323464
0.489645
0.647653
0.815238
0.87077
0.903413
0.913752
0.917917
0.904286
0.874251
0.879673
0.893004
0.909066
0.919095
0.917129
0.902928
0.889407
0.890941
0.904209
0.915729
0.915582
0.913584
0.911427
0.911367
0.914958
0.920854
0.927057
0.929054
0.931832
0.936946
0.943523
0.949622
0.952679
0.953483
0.956855
0.963012
0.0761962
0.0761954
0.076195
0.0761965
0.0761987
0.0762043
0.0762207
0.0762231
0.0762152
0.0762069
0.0762131
0.0762358
0.0762454
0.0762453
0.0762451
0.0762538
0.0762686
0.0762669
0.0762598
0.0762515
0.0762337
0.0762124
0.0762121
0.0762305
0.0762369
0.0762348
0.0762334
0.0762236
0.0762067
0.0761979
0.076212
0.0762791
0.0763791
0.0764234
0.0764281
0.0764255
0.0764267
0.0764253
0.0764139
0.0763845
0.0763508
0.0763377
0.0763309
0.0763257
0.0763205
0.0763252
0.0763459
0.0763608
0.0763569
0.0763328
0.0762876
0.0762649
0.0762779
0.0763454
0.0763912
0.0764083
0.0764344
0.076474
0.0764954
0.0764973
0.076479
0.0763646
0.0761729
0.0760162
0.0758331
0.0877642
0.152753
0.276578
0.459514
0.640008
0.744397
0.845452
0.850458
0.867272
0.897558
0.92257
0.926367
0.923959
0.901491
0.88593
0.886948
0.90142
0.92182
0.920947
0.916559
0.91061
0.911228
0.915315
0.923682
0.928713
0.930566
0.931895
0.933337
0.938113
0.944744
0.9491
0.954434
0.957691
0.960326
0.965375
0.0762275
0.0762334
0.0762406
0.0762511
0.0762622
0.0762724
0.0762824
0.0762895
0.0762925
0.0762957
0.0762993
0.0762993
0.0762999
0.0763068
0.0763202
0.0763326
0.0763383
0.0763332
0.0763282
0.0763225
0.0763151
0.0763102
0.0763121
0.0763193
0.0763255
0.0763298
0.076332
0.076325
0.0763146
0.076316
0.0763372
0.0763868
0.0764394
0.076462
0.0764604
0.0764519
0.0764443
0.0764361
0.0764219
0.0763881
0.0763379
0.0763183
0.0763151
0.0763135
0.0763079
0.0763129
0.0763468
0.0763766
0.0763785
0.0763586
0.0763233
0.0763093
0.0763204
0.0763746
0.0763903
0.0763844
0.076398
0.0764444
0.0764832
0.07648
0.076429
0.0762112
0.0759506
0.0757415
0.0756434
0.0756043
0.0755154
0.0753761
0.0894645
0.140877
0.271634
0.476975
0.671747
0.837277
0.893991
0.918101
0.918489
0.902454
0.86963
0.878258
0.903342
0.923244
0.923232
0.91763
0.908266
0.90929
0.915217
0.924732
0.929028
0.931003
0.930961
0.932666
0.938187
0.944868
0.949659
0.951647
0.953854
0.957711
0.960923
0.965474
0.0763707
0.0763839
0.0763953
0.0764022
0.0764049
0.0764078
0.0764123
0.0764137
0.0764144
0.0764168
0.0764146
0.0764122
0.0764126
0.0764166
0.0764229
0.0764236
0.0764173
0.0763957
0.076378
0.0763717
0.0763662
0.0763591
0.0763549
0.0763532
0.0763517
0.0763476
0.0763395
0.0763308
0.0763273
0.0763329
0.0763545
0.0764026
0.0764435
0.0764465
0.0764383
0.0764158
0.0763905
0.0763789
0.0763718
0.0763458
0.0762994
0.0762873
0.0762919
0.076293
0.0762873
0.0762939
0.0763391
0.0763776
0.0763825
0.0763845
0.0763774
0.0763517
0.0763295
0.076347
0.0763771
0.07636
0.0763602
0.0763914
0.0763845
0.0763351
0.076146
0.0758221
0.0755565
0.0754648
0.0754442
0.0753372
0.0751233
0.075092
0.0751496
0.0753056
0.0753503
0.0833125
0.162051
0.320341
0.525398
0.69766
0.804162
0.839234
0.866704
0.902013
0.938743
0.937546
0.921923
0.900472
0.902779
0.912696
0.925985
0.934304
0.933052
0.932157
0.933297
0.938061
0.944408
0.949062
0.951143
0.952616
0.956055
0.960799
0.963526
0.967389
0.0764892
0.0764894
0.0764866
0.0764829
0.0764784
0.0764734
0.0764686
0.076464
0.0764563
0.0764504
0.0764475
0.0764438
0.076437
0.0764325
0.0764305
0.0764277
0.0764159
0.0763861
0.0763653
0.0763584
0.0763525
0.0763448
0.0763402
0.0763377
0.0763332
0.0763223
0.0763118
0.0763059
0.0763066
0.0763151
0.0763312
0.0763574
0.0763773
0.0763767
0.0763668
0.0763542
0.0763367
0.0763164
0.0762948
0.0762663
0.0762277
0.0762131
0.0762297
0.0762586
0.0762636
0.0762833
0.0763235
0.0763532
0.0763663
0.076382
0.076393
0.0763774
0.0763047
0.0762949
0.0762997
0.076278
0.0761714
0.0759895
0.0758734
0.0757543
0.0755252
0.0751885
0.0750123
0.0749862
0.0749467
0.0748268
0.074855
0.0749967
0.0753029
0.0754541
0.0753972
0.0752096
0.0748954
0.074551
0.0989595
0.202094
0.394184
0.632983
0.831895
0.892887
0.927699
0.925971
0.884531
0.891879
0.911657
0.926431
0.931156
0.933211
0.932992
0.934038
0.936971
0.942793
0.947321
0.949899
0.951385
0.953901
0.958225
0.962146
0.964306
0.968358
0.0764772
0.0764717
0.0764643
0.0764572
0.0764505
0.076443
0.0764349
0.0764265
0.0764182
0.0764095
0.0764015
0.0763939
0.0763865
0.0763844
0.0763836
0.0763804
0.0763682
0.0763418
0.076323
0.0763178
0.0763149
0.0763091
0.0763012
0.076297
0.076288
0.0762756
0.0762679
0.0762622
0.0762611
0.0762628
0.0762622
0.0762728
0.0762988
0.0762988
0.0763022
0.076313
0.0763121
0.0762845
0.0762326
0.0761777
0.0761461
0.0761439
0.0761653
0.076197
0.0762224
0.0762625
0.0763056
0.0763346
0.0763465
0.0763657
0.076385
0.0763805
0.0762671
0.076077
0.0759096
0.0757001
0.0753792
0.07517
0.0751206
0.0750761
0.0749417
0.0747296
0.0746322
0.0746307
0.0746306
0.0746363
0.0747908
0.0752665
0.0755543
0.0755117
0.075314
0.0749872
0.0746072
0.0744925
0.0746169
0.0751293
0.0782739
0.134697
0.30784
0.531836
0.728497
0.823544
0.852117
0.919795
0.942497
0.937066
0.928674
0.927032
0.929709
0.936747
0.943366
0.947312
0.948155
0.948737
0.951582
0.957001
0.961289
0.9633
0.96552
0.9696
0.0764255
0.0764235
0.0764226
0.0764213
0.0764182
0.0764138
0.0764056
0.0763849
0.0763688
0.0763569
0.0763338
0.076311
0.0763106
0.0763182
0.0763174
0.0763095
0.0762867
0.0762419
0.076218
0.0762119
0.0762102
0.0762127
0.0762283
0.0762435
0.0762443
0.0762316
0.0761993
0.0761846
0.0761703
0.0761563
0.0761533
0.0761595
0.0761841
0.0762165
0.0762542
0.0763004
0.076319
0.0763036
0.0762488
0.0761506
0.0760841
0.0760886
0.0761057
0.0761017
0.0760237
0.0759845
0.0760166
0.0761176
0.0761028
0.0760631
0.0760845
0.076086
0.0759489
0.0755913
0.0751946
0.0748505
0.0746473
0.0745977
0.0745983
0.0745983
0.0745551
0.0744798
0.0744853
0.0745338
0.0746113
0.0747765
0.0751724
0.075563
0.0756335
0.075489
0.0752166
0.0748625
0.0745225
0.074846
0.0760854
0.0780691
0.0797609
0.0799
0.0799962
0.110276
0.22195
0.465126
0.725869
0.885664
0.902845
0.926036
0.926115
0.936831
0.938119
0.944452
0.946178
0.947529
0.949086
0.951565
0.956201
0.960616
0.962287
0.964145
0.966916
0.970491
0.076323
0.0763259
0.0763261
0.0763273
0.0763331
0.0763345
0.0763308
0.0763055
0.0762801
0.0762743
0.0762632
0.0762315
0.0762148
0.0762145
0.0762099
0.0761972
0.0761762
0.0761373
0.0760827
0.0760566
0.0760546
0.0760575
0.0760761
0.0760989
0.0760968
0.0760814
0.0760455
0.0759897
0.0759521
0.0759546
0.0759602
0.0759643
0.0759851
0.0760375
0.0761227
0.0762331
0.0762746
0.076266
0.0762292
0.0761601
0.0760955
0.0759946
0.0758922
0.0757821
0.0755526
0.075465
0.0754174
0.0752809
0.0750427
0.074967
0.074999
0.0750186
0.0749774
0.0748464
0.0746503
0.0744797
0.0744086
0.0743945
0.0743968
0.0744004
0.0743953
0.0744028
0.0744837
0.0747814
0.0752136
0.0754621
0.0757034
0.0757056
0.0755916
0.0753946
0.075223
0.0755073
0.0765164
0.0783363
0.0800179
0.0809314
0.081695
0.0831629
0.0853614
0.0855253
0.0859263
0.0968059
0.207148
0.433434
0.642334
0.850071
0.8794
0.932997
0.947277
0.954465
0.945015
0.946283
0.948251
0.954168
0.959987
0.961097
0.962573
0.965766
0.969254
0.97214
0.0762994
0.0762989
0.0762958
0.0762959
0.0762952
0.0762799
0.076238
0.0762184
0.0762107
0.0762077
0.0762085
0.0762018
0.0761707
0.0761186
0.0760755
0.0760522
0.0760404
0.0760152
0.0759456
0.0758689
0.0758317
0.0758107
0.0757876
0.0757463
0.0756777
0.0755963
0.0755152
0.0754575
0.0754606
0.0755189
0.0755443
0.0755276
0.0755254
0.0755277
0.075533
0.0755831
0.0757291
0.075839
0.0758644
0.0758574
0.0757486
0.075483
0.0752533
0.0750947
0.0749721
0.0749277
0.0748735
0.0747112
0.074508
0.0744921
0.0745323
0.074533
0.0744851
0.0744437
0.0743988
0.0743471
0.0743332
0.0743443
0.0743634
0.0743807
0.0744591
0.0746563
0.0750264
0.0754944
0.0761632
0.0765376
0.076329
0.0761242
0.0761127
0.076442
0.0776967
0.0796874
0.0813929
0.0825368
0.083449
0.0836426
0.0844011
0.086402
0.0891664
0.0908212
0.0921364
0.0926404
0.0935983
0.0970061
0.185796
0.390993
0.636973
0.845922
0.884622
0.939324
0.952619
0.964585
0.956597
0.957507
0.958961
0.962408
0.966251
0.969835
0.970725
0.973074
0.0760816
0.0760368
0.0759806
0.0759327
0.0758895
0.0758524
0.075817
0.0757619
0.0756763
0.0756615
0.075706
0.07573
0.0757238
0.0756994
0.0756508
0.0755874
0.0755243
0.0754624
0.0753881
0.0753116
0.075236
0.07515
0.0750708
0.074983
0.0748821
0.0748624
0.0748881
0.074897
0.0748978
0.0749417
0.0749798
0.0749603
0.0749321
0.0749334
0.0749595
0.0750285
0.0750662
0.0750916
0.0751079
0.0750974
0.075028
0.0748709
0.0746432
0.0745241
0.0745125
0.0745113
0.0744863
0.0743682
0.0742897
0.0743047
0.0743596
0.0743678
0.0743633
0.0743729
0.0743671
0.0743523
0.0743772
0.074486
0.0747101
0.0750268
0.0754624
0.0761024
0.0767628
0.077036
0.0773916
0.0781176
0.0786222
0.0790067
0.0794877
0.0802959
0.081488
0.0833462
0.0850592
0.0858955
0.0870296
0.0892607
0.0908759
0.0909628
0.0917722
0.0946055
0.0968525
0.0979774
0.0994762
0.101007
0.102628
0.104005
0.180686
0.362808
0.608623
0.838659
0.885347
0.948601
0.96695
0.97163
0.962222
0.958259
0.965971
0.97129
0.972935
0.974612
0.0747893
0.0747857
0.0747826
0.0747771
0.0747637
0.0747092
0.0746156
0.0745971
0.0746113
0.0747088
0.07488
0.0749232
0.074923
0.074937
0.0749827
0.0749921
0.0749922
0.0749759
0.0749337
0.0748676
0.07479
0.0747402
0.0747004
0.0746568
0.0746489
0.0746733
0.0747465
0.0747546
0.0747302
0.0747308
0.0747552
0.0747419
0.0747247
0.0747517
0.0748165
0.074818
0.0747664
0.0747662
0.0747836
0.0747657
0.0747098
0.0745956
0.0744246
0.074359
0.0743565
0.0743585
0.0743433
0.0742544
0.0742309
0.0742508
0.0743216
0.0743715
0.0744022
0.0744681
0.0746224
0.0750105
0.075618
0.0762529
0.0770261
0.0779598
0.0786876
0.0792389
0.0798841
0.0802666
0.080248
0.0806555
0.0818823
0.0829737
0.084017
0.0850894
0.0865077
0.0883697
0.0901168
0.0911878
0.092122
0.0938721
0.0952638
0.0956853
0.0969942
0.0993481
0.101668
0.10297
0.103898
0.105177
0.107027
0.110147
0.111232
0.11148
0.175401
0.350311
0.609594
0.846758
0.895474
0.954675
0.973773
0.975082
0.975167
0.967829
0.971186
0.977661
0.0740082
0.0740709
0.0741194
0.0741523
0.0741666
0.0741735
0.0741885
0.0742245
0.0742936
0.074393
0.0744881
0.0745685
0.0746486
0.0747121
0.0747913
0.0748844
0.0748993
0.0748888
0.0748557
0.0748703
0.0749008
0.0748975
0.0748693
0.0748219
0.0747847
0.0747644
0.0747419
0.074696
0.0746197
0.0745968
0.0745964
0.0745835
0.0745946
0.0746892
0.0747512
0.0746984
0.0746066
0.0746297
0.0746416
0.0745989
0.0745651
0.0745166
0.0744071
0.0743518
0.0743654
0.0743746
0.0743741
0.0743745
0.0744416
0.074701
0.075245
0.0758846
0.0763789
0.0769086
0.0777103
0.0789247
0.0802318
0.0811122
0.0815447
0.082127
0.0828082
0.0828775
0.0829686
0.0834846
0.0839475
0.084651
0.0859381
0.0881121
0.090157
0.0917799
0.0929422
0.0939415
0.0955369
0.096455
0.0966102
0.0971481
0.0987924
0.102199
0.104293
0.105406
0.106338
0.107002
0.108059
0.110057
0.112546
0.114539
0.116564
0.117772
0.118992
0.120147
0.182184
0.354688
0.612388
0.855524
0.907715
0.964076
0.992757
0.972516
0.972951
0.974729
0.0752034
0.0752631
0.0753276
0.0753428
0.0753308
0.0752977
0.0752944
0.0753166
0.0753353
0.0753329
0.0753058
0.0752815
0.0752832
0.075336
0.0754052
0.0754115
0.0753947
0.0753352
0.0752123
0.0751311
0.075102
0.0750563
0.0749993
0.074988
0.0749857
0.0749462
0.0748322
0.0747118
0.0746083
0.0745764
0.074575
0.0746529
0.0747983
0.074818
0.0748175
0.0747211
0.0746863
0.0747177
0.0747079
0.074716
0.0748674
0.0752581
0.0756165
0.0758356
0.0761392
0.0766138
0.0772652
0.078066
0.07898
0.0800337
0.0809565
0.0817232
0.0824598
0.083104
0.0836309
0.0841336
0.0848515
0.0853921
0.085382
0.0854965
0.0861234
0.0865518
0.0869497
0.0877226
0.0896053
0.0919328
0.0940362
0.0956122
0.0970757
0.0986697
0.0987397
0.0985431
0.099071
0.100427
0.102274
0.103804
0.106078
0.108566
0.109282
0.109973
0.11067
0.112134
0.114937
0.117547
0.118969
0.119114
0.12021
0.122322
0.124509
0.127847
0.128095
0.128234
0.191672
0.371019
0.637849
0.877654
0.934969
0.959802
0.992292
0.983262
0.0748172
0.0748201
0.0748635
0.0748732
0.0748101
0.0747247
0.0747192
0.074738
0.0748066
0.0748747
0.0748819
0.0748683
0.0748493
0.0748596
0.0749242
0.074941
0.0748815
0.0747616
0.0747377
0.0747576
0.0749016
0.0750473
0.0750539
0.0750441
0.0750946
0.0752676
0.0754956
0.0756106
0.0755624
0.0755014
0.075564
0.0758078
0.0763107
0.0765982
0.0769042
0.0773789
0.0778361
0.0782237
0.0786148
0.0792558
0.0803207
0.0814252
0.0822635
0.0829187
0.0835358
0.0841883
0.0849244
0.0856218
0.0860432
0.086486
0.0869089
0.0871657
0.0875154
0.0879098
0.087903
0.0878256
0.0879513
0.0886126
0.0894112
0.0904844
0.0919313
0.0940332
0.0961747
0.0978979
0.0991594
0.100296
0.10131
0.101529
0.101978
0.102867
0.103515
0.103939
0.104545
0.106579
0.109646
0.111868
0.113435
0.113485
0.113845
0.114492
0.116418
0.11934
0.121595
0.123348
0.123384
0.123768
0.125392
0.128825
0.13042
0.132371
0.134388
0.13554
0.136463
0.137325
0.210339
0.407723
0.672958
0.89429
0.9594
0.978314
0.0761244
0.0761956
0.0762776
0.0763872
0.076522
0.0767406
0.0770129
0.0771175
0.0771336
0.0771795
0.0773216
0.0775447
0.0777282
0.0778543
0.0780411
0.0783006
0.0785866
0.0790355
0.0795162
0.0799734
0.080385
0.080679
0.0809144
0.0812329
0.0819466
0.0826498
0.083019
0.0833767
0.0837932
0.0843373
0.0847878
0.0849614
0.0850899
0.0853483
0.0858913
0.086524
0.086731
0.0868737
0.0871403
0.0877937
0.0884682
0.0887419
0.0889342
0.0892556
0.0896213
0.0897951
0.0900175
0.0901189
0.090186
0.0904718
0.0911749
0.091783
0.0923337
0.093273
0.0943802
0.095335
0.0963476
0.0976646
0.0995098
0.101147
0.102285
0.103265
0.104301
0.105551
0.105723
0.105708
0.105635
0.105652
0.106017
0.107274
0.109801
0.112401
0.114318
0.1159
0.117
0.117673
0.118051
0.118697
0.120022
0.121797
0.124169
0.126376
0.126684
0.127539
0.12925
0.131287
0.133054
0.135655
0.137269
0.13708
0.138363
0.140886
0.143623
0.14553
0.146246
0.147278
0.228323
0.459836
0.737837
0.937204
0.085972
0.0861333
0.086141
0.0860456
0.0859535
0.0859546
0.0859989
0.0861706
0.0863794
0.0866102
0.0869013
0.0870189
0.0870451
0.0871139
0.0873566
0.0877235
0.0879846
0.0881804
0.0883457
0.088429
0.0884691
0.0885711
0.0888345
0.0892547
0.089674
0.089899
0.0900335
0.0902338
0.0905997
0.0908103
0.0907704
0.0907424
0.090823
0.0911335
0.0915895
0.0919034
0.0921098
0.0923887
0.0928784
0.0935534
0.0936583
0.0937157
0.0940073
0.0948501
0.0956902
0.0962245
0.096657
0.0973174
0.0982515
0.0992415
0.100169
0.101211
0.102358
0.103611
0.104977
0.106238
0.107125
0.107719
0.108414
0.108914
0.108887
0.108706
0.108786
0.109402
0.109963
0.110581
0.111493
0.113117
0.115093
0.117225
0.119198
0.121073
0.121882
0.12232
0.122726
0.122794
0.123401
0.12493
0.127639
0.130173
0.131602
0.132657
0.133149
0.133772
0.13531
0.138101
0.139727
0.14089
0.143858
0.144863
0.145125
0.146593
0.149894
0.152621
0.152659
0.153978
0.155391
0.164824
0.254239
0.644732
0.0935313
0.0935989
0.0936698
0.0937557
0.0938607
0.0939986
0.0941756
0.0943868
0.09455
0.0946388
0.0947036
0.0948084
0.0948453
0.094926
0.095344
0.0954481
0.0954947
0.0956252
0.0957277
0.0958597
0.0961199
0.096428
0.0965714
0.0967369
0.0971445
0.0974104
0.0975229
0.0977436
0.098264
0.0989453
0.0994802
0.0999992
0.100631
0.100964
0.101099
0.101323
0.101808
0.102484
0.103154
0.103757
0.104436
0.105282
0.106161
0.106878
0.107571
0.108289
0.108929
0.10951
0.110125
0.110523
0.110703
0.110986
0.111459
0.111803
0.112056
0.112346
0.112579
0.112838
0.113285
0.114013
0.114273
0.114487
0.11509
0.11632
0.11845
0.120744
0.122738
0.124552
0.126041
0.126727
0.126765
0.127241
0.127335
0.127446
0.128064
0.130029
0.132313
0.134509
0.136474
0.138603
0.138559
0.13879
0.140241
0.141883
0.143222
0.145597
0.148117
0.14852
0.14933
0.151331
0.153357
0.154832
0.156328
0.158821
0.1602
0.161061
0.162739
0.16554
0.165925
0.258184
0.104427
0.104527
0.104627
0.10471
0.104785
0.104894
0.105046
0.105232
0.105298
0.10534
0.105474
0.105794
0.106059
0.106172
0.106329
0.106559
0.1068
0.106966
0.107142
0.107392
0.107663
0.107887
0.108092
0.108365
0.108737
0.109121
0.10943
0.109784
0.110431
0.11071
0.110708
0.110805
0.111169
0.111464
0.111615
0.111809
0.112093
0.112458
0.112856
0.113111
0.113319
0.113617
0.113894
0.114031
0.114139
0.114291
0.114563
0.114988
0.115791
0.116097
0.116208
0.116528
0.117334
0.117692
0.117893
0.118371
0.119301
0.120402
0.121647
0.123194
0.125128
0.12726
0.128802
0.129651
0.130478
0.13117
0.131532
0.132052
0.132879
0.132997
0.132777
0.132935
0.133962
0.136055
0.138379
0.140537
0.142678
0.144037
0.144341
0.144967
0.145665
0.14638
0.1477
0.149991
0.152404
0.153753
0.155721
0.156382
0.156225
0.157196
0.160459
0.163466
0.163824
0.164439
0.166581
0.169347
0.170528
0.171064
0.17279
0.175375
0.11444
0.114434
0.114467
0.114602
0.114862
0.114973
0.114975
0.114971
0.114983
0.115124
0.115488
0.115638
0.115628
0.115616
0.115681
0.115867
0.116084
0.116268
0.116418
0.116535
0.116645
0.11681
0.117054
0.117225
0.117377
0.117489
0.117602
0.117912
0.118116
0.118084
0.118125
0.11837
0.118855
0.119485
0.120068
0.12044
0.120674
0.120938
0.121464
0.121804
0.121934
0.122128
0.122558
0.122975
0.123325
0.123772
0.124442
0.125224
0.125967
0.126857
0.127948
0.1291
0.130266
0.131478
0.132604
0.133561
0.134342
0.135026
0.135582
0.13595
0.136252
0.136876
0.137735
0.138153
0.138203
0.138104
0.137812
0.137928
0.138769
0.140546
0.142543
0.144154
0.145806
0.147926
0.149956
0.150625
0.151374
0.151534
0.151584
0.152009
0.15361
0.156125
0.158328
0.160247
0.161865
0.161867
0.162259
0.163873
0.165795
0.167475
0.169145
0.171554
0.172198
0.17237
0.173818
0.176335
0.177985
0.179958
0.181183
0.183297
0.126297
0.126391
0.126481
0.126566
0.12666
0.126766
0.126865
0.126993
0.127127
0.127233
0.12733
0.127459
0.12767
0.127817
0.127929
0.128049
0.12817
0.128402
0.128642
0.128728
0.128818
0.128965
0.129121
0.129335
0.129613
0.129878
0.130114
0.130352
0.130655
0.13106
0.131487
0.131734
0.131894
0.132113
0.132489
0.13294
0.133354
0.133772
0.134217
0.134725
0.135243
0.135782
0.136428
0.137169
0.137682
0.138017
0.138363
0.138707
0.138987
0.139268
0.139646
0.140124
0.140456
0.140776
0.141197
0.141654
0.142116
0.142627
0.143071
0.143099
0.142831
0.142789
0.143195
0.144251
0.1456
0.147039
0.148832
0.150526
0.152127
0.153805
0.155602
0.157191
0.157861
0.158231
0.158784
0.158851
0.158986
0.15964
0.161184
0.163014
0.165139
0.167144
0.168313
0.16955
0.169779
0.170107
0.170763
0.172424
0.175368
0.177448
0.177668
0.178373
0.180089
0.182703
0.184069
0.184732
0.186896
0.188262
0.188839
0.190802
0.138823
0.138915
0.138975
0.139021
0.139106
0.139169
0.139259
0.139435
0.139537
0.139583
0.139658
0.139734
0.139898
0.140329
0.14052
0.140534
0.14063
0.140881
0.141133
0.141308
0.141473
0.141674
0.141884
0.142102
0.142258
0.142431
0.142653
0.142859
0.143024
0.143288
0.143724
0.143857
0.143824
0.143843
0.144048
0.144409
0.144789
0.145175
0.145454
0.14571
0.14599
0.146166
0.146504
0.146967
0.147109
0.147285
0.14767
0.148383
0.149068
0.149612
0.150305
0.150929
0.150949
0.150971
0.151203
0.151843
0.152771
0.15387
0.155178
0.156774
0.158516
0.159844
0.160653
0.161343
0.162171
0.163164
0.164377
0.165618
0.166305
0.166168
0.166067
0.166325
0.166478
0.166552
0.166912
0.167987
0.169764
0.171776
0.17381
0.175452
0.176767
0.177611
0.177562
0.17789
0.178891
0.18055
0.182427
0.184155
0.186214
0.18741
0.187517
0.18764
0.188962
0.191536
0.192763
0.194247
0.195207
0.195898
0.197413
0.200245
0.15315
0.153244
0.153645
0.153922
0.15393
0.153919
0.153925
0.15405
0.154391
0.154474
0.154414
0.154389
0.154372
0.154428
0.154801
0.155248
0.1553
0.155282
0.155364
0.155613
0.155773
0.15604
0.156244
0.156277
0.15636
0.156551
0.156838
0.157152
0.157525
0.157876
0.15811
0.158364
0.158741
0.159133
0.159419
0.159598
0.159914
0.16033
0.160669
0.161
0.161284
0.161553
0.161869
0.162269
0.162807
0.163447
0.163956
0.16428
0.164627
0.165147
0.165846
0.166642
0.167403
0.168089
0.168751
0.169568
0.170102
0.170185
0.170226
0.170405
0.17101
0.171926
0.172667
0.173192
0.173141
0.172774
0.172604
0.172906
0.173542
0.173775
0.174137
0.174926
0.176621
0.178753
0.180873
0.182838
0.184653
0.186008
0.186935
0.187429
0.18726
0.187552
0.188463
0.189576
0.191188
0.193234
0.194863
0.195646
0.195814
0.196431
0.197345
0.198953
0.200368
0.201003
0.202896
0.204353
0.204935
0.206167
0.207587
0.209771
0.170159
0.170148
0.170034
0.169963
0.169965
0.170185
0.170742
0.170933
0.170913
0.170844
0.170836
0.170976
0.171258
0.171337
0.171332
0.171345
0.171552
0.171987
0.172116
0.172132
0.172225
0.172421
0.172586
0.172828
0.17294
0.173006
0.173132
0.173467
0.173886
0.173967
0.173927
0.173932
0.174092
0.174525
0.174777
0.174812
0.174883
0.175145
0.175673
0.176225
0.176665
0.17706
0.177358
0.177586
0.177882
0.178361
0.178538
0.178489
0.178533
0.178873
0.179375
0.179724
0.180002
0.180258
0.180596
0.181357
0.182204
0.182407
0.18266
0.182738
0.182674
0.182854
0.183626
0.184953
0.186523
0.187781
0.188695
0.189489
0.19059
0.192337
0.194246
0.195571
0.196528
0.197309
0.198157
0.198642
0.198528
0.198182
0.197991
0.198272
0.198825
0.19973
0.201144
0.203033
0.204785
0.205863
0.206399
0.206353
0.206694
0.20753
0.209025
0.211022
0.21248
0.213504
0.21426
0.214688
0.215483
0.216372
0.21746
0.219539
0.188779
0.188767
0.188854
0.189126
0.189178
0.189079
0.188898
0.188848
0.188951
0.189441
0.189783
0.189831
0.189889
0.189973
0.189957
0.189965
0.190089
0.19027
0.190542
0.190684
0.19068
0.190721
0.190967
0.191138
0.191213
0.191361
0.191498
0.191643
0.191793
0.192042
0.192411