/*--------------------------------*- C++ -*----------------------------------*\
  =========                 |
  \\      /  F ield         | OpenFOAM: The Open Source CFD Toolbox
   \\    /   O peration     | Website:  https://openfoam.org
    \\  /    A nd           | Version:  7
     \\/     M anipulation  |
\*---------------------------------------------------------------------------*/
FoamFile
{
    version     2.0;
    format      ascii;
    class       volScalarField;
    location    "5.5";
    object      p;
}
// * * * * * * * * * * * * * * * * * * * * * * * * * * * * * * * * * * * * * //

dimensions      [1 -1 -2 0 0 0 0];

internalField   nonuniform List<scalar> 
90000
(
0.643886
0.661908
0.681568
0.70111
0.720382
0.7391
0.757612
0.775544
0.79338
0.810569
0.82773
0.844141
0.860559
0.876056
0.891622
0.905968
0.920513
0.933408
0.946668
0.957841
0.969198
0.978826
0.986998
0.995241
1.00151
1.00444
1.00954
1.01113
1.01083
1.00967
1.00775
1.00516
0.998383
0.992312
0.988605
0.988019
0.98855
0.989944
0.992493
0.995246
0.996992
0.998608
1.00042
1.00215
1.00142
0.999849
0.997087
0.994775
0.993058
0.991871
0.991987
0.992866
0.995124
0.997964
1.00018
0.99994
0.999012
0.997513
0.996283
0.995588
0.995815
0.996501
0.997616
0.999117
0.998956
0.998294
0.997641
0.997652
0.998118
0.998918
0.999327
0.998845
0.998185
0.998006
0.998326
0.998745
0.998728
0.998706
0.998573
0.998546
0.998536
0.998504
0.998541
0.99872
0.998923
0.998745
0.998535
0.998427
0.998432
0.998562
0.9989
0.999458
0.999582
0.999499
0.999292
0.999172
0.999133
0.999229
0.999214
0.99904
0.629824
0.630896
0.632927
0.636052
0.640252
0.645652
0.652099
0.659821
0.668507
0.678558
0.68949
0.701789
0.71483
0.72913
0.744002
0.759929
0.776156
0.793212
0.810084
0.827609
0.844526
0.861432
0.87823
0.893176
0.909095
0.922079
0.93532
0.945793
0.956135
0.963227
0.970051
0.973916
0.979328
0.985874
0.993774
0.998881
1.00195
1.00437
1.0055
1.00501
1.00335
1.00228
1.00101
0.998365
0.995208
0.994469
0.994086
0.993649
0.993978
0.995181
0.9969
0.99826
0.998812
0.998453
0.997972
0.997119
0.9966
0.996105
0.996222
0.996916
0.99793
0.998237
0.998094
0.997903
0.997651
0.997448
0.997968
0.998771
0.999092
0.999007
0.998674
0.998125
0.998097
0.998389
0.998769
0.998621
0.998349
0.998492
0.998625
0.998687
0.99857
0.998516
0.998608
0.99883
0.998792
0.998594
0.998498
0.998457
0.9985
0.99859
0.999056
0.999353
0.999383
0.999347
0.999232
0.999151
0.999146
0.999174
0.999098
0.998975
0.629395
0.629398
0.629403
0.629418
0.629453
0.629559
0.629748
0.630072
0.63058
0.631334
0.632386
0.633867
0.635844
0.638536
0.641974
0.646547
0.652122
0.659344
0.66785
0.678601
0.690858
0.705789
0.72225
0.741582
0.762161
0.785415
0.809363
0.834688
0.860745
0.885743
0.911402
0.934442
0.956047
0.969747
0.980761
0.986882
0.991759
0.994231
0.995503
0.995628
0.995447
0.993684
0.99048
0.98799
0.98912
0.990986
0.993914
0.997761
1.00088
1.00262
1.0022
1.00046
0.998024
0.994916
0.993495
0.993079
0.993634
0.996052
0.99884
0.999841
0.999426
0.997879
0.996487
0.995313
0.996105
0.998137
0.999754
0.999688
0.99878
0.997779
0.997233
0.997996
0.998954
0.999007
0.998667
0.99829
0.998404
0.998689
0.998735
0.998602
0.998476
0.998563
0.998678
0.998707
0.998697
0.998643
0.998573
0.998535
0.998517
0.998717
0.999003
0.999312
0.999551
0.999494
0.99933
0.999204
0.999154
0.999139
0.999116
0.998968
0.629337
0.629319
0.629299
0.629275
0.629261
0.629245
0.629233
0.629226
0.62923
0.629237
0.629248
0.629267
0.629292
0.629333
0.629395
0.629524
0.629786
0.630234
0.630905
0.631911
0.633342
0.635473
0.638402
0.642707
0.648381
0.656503
0.666612
0.680552
0.696931
0.718147
0.741589
0.769961
0.799874
0.83052
0.860958
0.887028
0.912988
0.930039
0.946733
0.955899
0.966047
0.970836
0.976201
0.98249
0.991577
0.997902
1.00306
1.00575
1.00583
1.00519
1.0033
0.999587
0.996599
0.993017
0.992321
0.993925
0.996754
0.999478
1.0006
1.00001
0.99822
0.99633
0.99532
0.996355
0.998016
0.999533
0.999793
0.999031
0.997914
0.997191
0.997862
0.998785
0.999361
0.999039
0.998464
0.998313
0.998441
0.998532
0.998497
0.998458
0.998577
0.998769
0.998764
0.998733
0.998635
0.998583
0.998533
0.998518
0.998597
0.998794
0.999032
0.999262
0.999364
0.999274
0.999234
0.999217
0.999222
0.999209
0.999153
0.999035
0.629289
0.629287
0.629284
0.629281
0.629278
0.629273
0.629265
0.629256
0.62923
0.629206
0.629184
0.629167
0.629156
0.62915
0.629148
0.629168
0.629143
0.629129
0.62912
0.629118
0.629122
0.629142
0.629182
0.629291
0.629481
0.629926
0.630684
0.631989
0.634023
0.637456
0.642443
0.650554
0.661506
0.678203
0.698616
0.726453
0.757348
0.793556
0.830185
0.865751
0.900522
0.928419
0.956067
0.9727
0.983513
0.988768
0.994023
0.996987
0.99814
0.995811
0.990599
0.990114
0.991811
0.995271
0.998584
1.0011
1.00107
0.999599
0.997692
0.996229
0.995407
0.995962
0.997778
0.99962
0.999595
0.998763
0.997771
0.997048
0.997307
0.998066
0.998823
0.998776
0.998558
0.99843
0.998573
0.998673
0.998698
0.998488
0.998405
0.998521
0.998741
0.998803
0.998709
0.998552
0.998493
0.998568
0.998614
0.998629
0.998725
0.998929
0.999075
0.999113
0.999243
0.999286
0.999322
0.999296
0.999236
0.999178
0.999089
0.998996
0.629242
0.62924
0.629238
0.629236
0.629234
0.629232
0.629229
0.629226
0.629223
0.629219
0.629214
0.629207
0.629198
0.629187
0.629173
0.629158
0.62914
0.62911
0.629073
0.62904
0.629019
0.629003
0.629001
0.629009
0.629069
0.62905
0.62902
0.628991
0.628986
0.629029
0.62915
0.629417
0.630023
0.631336
0.633699
0.638287
0.645487
0.6582
0.675316
0.701454
0.731996
0.77061
0.810895
0.85029
0.887815
0.913333
0.938081
0.950373
0.964147
0.970165
0.979369
0.988384
0.998079
1.00416
1.00602
1.00544
1.00319
0.998762
0.993137
0.992958
0.994377
0.997465
1.00114
1.0012
1.00025
0.998387
0.996053
0.996216
0.997516
0.998931
0.999579
0.999076
0.998288
0.998035
0.998442
0.998795
0.998769
0.998398
0.998214
0.998445
0.998852
0.998953
0.998796
0.998538
0.998463
0.998526
0.99857
0.998671
0.998884
0.999064
0.999073
0.998996
0.999045
0.999174
0.999298
0.999326
0.999281
0.999163
0.999051
0.998999
0.629198
0.629197
0.629195
0.629193
0.629191
0.629188
0.629186
0.629182
0.629179
0.629176
0.629173
0.62917
0.629166
0.62916
0.629153
0.629147
0.629139
0.629128
0.629115
0.6291
0.629085
0.629069
0.629052
0.629034
0.629014
0.628984
0.628955
0.628927
0.628911
0.628905
0.628905
0.628967
0.628933
0.628897
0.628888
0.628952
0.629141
0.629703
0.63099
0.634017
0.639439
0.650254
0.66605
0.692447
0.724839
0.767658
0.812239
0.856905
0.899957
0.933634
0.965656
0.980645
0.990802
0.996337
0.999824
0.997582
0.99132
0.98958
0.991523
0.995579
0.999375
1.00163
1.00145
0.999561
0.996355
0.995279
0.995543
0.997396
0.99925
0.999174
0.998718
0.997932
0.998014
0.99852
0.998968
0.99883
0.998477
0.998279
0.998432
0.998689
0.998778
0.998699
0.998603
0.998581
0.998525
0.998565
0.998641
0.998771
0.999029
0.999085
0.999069
0.998905
0.998953
0.999106
0.999316
0.999338
0.999273
0.999118
0.998978
0.998962
0.629159
0.629157
0.629156
0.629154
0.629152
0.62915
0.629146
0.629142
0.629137
0.629132
0.629127
0.629121
0.629116
0.62911
0.629103
0.629095
0.629087
0.629077
0.629065
0.629055
0.629047
0.629037
0.62903
0.62902
0.629004
0.628987
0.628971
0.62895
0.628927
0.628907
0.628881
0.628839
0.628826
0.628817
0.628809
0.628802
0.628837
0.628806
0.628779
0.6288
0.628905
0.629285
0.6303
0.632968
0.638222
0.649661
0.667193
0.697597
0.73428
0.782284
0.831363
0.874762
0.915803
0.936566
0.959359
0.967374
0.978224
0.988621
0.999426
1.00581
1.00546
1.00413
0.998544
0.993307
0.993259
0.994361
0.997305
1.00068
1.00057
0.999491
0.997379
0.997076
0.997732
0.998698
0.999094
0.998806
0.998183
0.998257
0.99866
0.999016
0.998832
0.998553
0.998476
0.998553
0.998561
0.99855
0.998644
0.998946
0.999186
0.999142
0.998977
0.998781
0.998831
0.999016
0.999286
0.999422
0.999333
0.999132
0.999006
0.99897
0.62911
0.629108
0.629107
0.629105
0.629103
0.6291
0.629097
0.629092
0.629086
0.62908
0.629071
0.629062
0.629056
0.629051
0.629044
0.629037
0.629027
0.629016
0.629005
0.628995
0.628986
0.62898
0.628983
0.62897
0.628947
0.628933
0.628928
0.628912
0.628893
0.628874
0.628848
0.628818
0.628801
0.628785
0.628761
0.628735
0.628717
0.628718
0.628722
0.62873
0.628756
0.628753
0.628773
0.628841
0.628995
0.629472
0.630705
0.634155
0.641029
0.656362
0.679379
0.718684
0.765091
0.819857
0.874203
0.918296
0.961608
0.980975
0.992887
0.999321
0.999661
0.994202
0.988674
0.990498
0.995182
0.999264
1.00086
1.00063
0.998863
0.996452
0.996349
0.997471
0.999001
0.998905
0.998581
0.997918
0.998029
0.998696
0.999019
0.998836
0.998584
0.998439
0.998513
0.998637
0.998655
0.998632
0.998749
0.99903
0.999186
0.999125
0.998954
0.998772
0.998791
0.99894
0.999195
0.999357
0.999318
0.999124
0.999065
0.999026
0.629085
0.629082
0.629079
0.629076
0.629073
0.629068
0.629063
0.629057
0.629049
0.629034
0.629021
0.629013
0.62901
0.629011
0.629005
0.628991
0.628979
0.628969
0.628961
0.628953
0.628947
0.628941
0.628931
0.628916
0.628901
0.628889
0.628882
0.628872
0.628856
0.628834
0.628814
0.628799
0.628782
0.628759
0.628734
0.628709
0.628693
0.628686
0.628681
0.628677
0.628682
0.628704
0.62874
0.628791
0.628883
0.628946
0.629007
0.629108
0.629372
0.630192
0.632302
0.638221
0.64974
0.674798
0.70953
0.76209
0.819001
0.871098
0.918756
0.942442
0.964022
0.972197
0.987719
0.99707
1.00417
1.00383
1.00232
0.99744
0.993439
0.99413
0.996723
1.00015
1.00006
0.998962
0.997049
0.997204
0.998292
0.999493
0.999381
0.998799
0.998204
0.998312
0.998633
0.998648
0.998637
0.998706
0.999011
0.999197
0.999165
0.99899
0.998839
0.998741
0.998781
0.998929
0.999137
0.999352
0.999245
0.999124
0.999076
0.99907
0.629077
0.629074
0.629071
0.629067
0.629062
0.629056
0.629051
0.629043
0.629035
0.629026
0.629015
0.629008
0.629004
0.629
0.628992
0.628982
0.62897
0.62896
0.628951
0.628943
0.628935
0.628926
0.628915
0.628904
0.628892
0.628883
0.628878
0.628871
0.628859
0.628844
0.628834
0.628824
0.628809
0.62879
0.628772
0.628759
0.628749
0.628741
0.628734
0.62873
0.628734
0.628749
0.628777
0.628814
0.628863
0.62893
0.628999
0.629072
0.629145
0.629237
0.629344
0.629544
0.630101
0.632051
0.636911
0.650145
0.672979
0.716284
0.770318
0.832607
0.894715
0.941595
0.979279
0.990006
0.99912
0.997965
0.992058
0.990029
0.992731
0.997272
1.00104
1.00103
0.999172
0.996125
0.99613
0.99762
0.999411
0.99951
0.998783
0.997983
0.998099
0.998603
0.998779
0.998665
0.99864
0.998859
0.999258
0.99922
0.999083
0.998888
0.998777
0.998756
0.998818
0.998942
0.999051
0.999199
0.999179
0.999109
0.999111
0.999086
0.629022
0.629018
0.629013
0.629008
0.629003
0.628998
0.628993
0.628984
0.628978
0.628975
0.628972
0.628967
0.628963
0.628959
0.628953
0.628942
0.628933
0.628929
0.628927
0.628925
0.628922
0.628919
0.628917
0.628917
0.628917
0.628919
0.628923
0.628926
0.628927
0.628928
0.628931
0.628935
0.62894
0.628941
0.628939
0.628936
0.628931
0.628927
0.628922
0.628907
0.628904
0.628912
0.628922
0.628931
0.628942
0.628959
0.628994
0.629035
0.629081
0.629131
0.629196
0.629268
0.629318
0.629355
0.629476
0.630039
0.631879
0.638181
0.651954
0.683771
0.729482
0.792772
0.860687
0.905421
0.950593
0.961399
0.975936
0.986941
1.00063
1.00398
1.00322
0.999085
0.994053
0.994465
0.996892
1.0003
1.00011
0.998768
0.997251
0.997563
0.998668
0.998927
0.998717
0.998511
0.998716
0.999304
0.999449
0.999248
0.998821
0.998726
0.998759
0.998814
0.998925
0.998986
0.998995
0.999019
0.999074
0.999112
0.999181
0.999134
0.628974
0.628969
0.628963
0.628958
0.628955
0.628952
0.628949
0.628946
0.628941
0.628936
0.628935
0.628934
0.628933
0.628929
0.628926
0.628923
0.62892
0.62892
0.628928
0.628934
0.628935
0.628935
0.628937
0.628943
0.628955
0.628972
0.628989
0.629007
0.629026
0.629049
0.629075
0.629105
0.629134
0.629159
0.629183
0.6292
0.629205
0.629205
0.629199
0.629183
0.62916
0.629139
0.629116
0.629089
0.629058
0.62904
0.629041
0.629047
0.62906
0.629083
0.629116
0.629169
0.629227
0.629294
0.629314
0.629303
0.629271
0.62937
0.629997
0.632959
0.640787
0.663278
0.700016
0.762605
0.833434
0.895767
0.957422
0.978788
0.994762
0.99766
0.993672
0.989579
0.992519
0.997678
1.00155
1.00116
0.998431
0.996283
0.996689
0.998573
0.999401
0.998997
0.998238
0.998395
0.999224
0.999601
0.999404
0.99887
0.998655
0.998683
0.998772
0.998878
0.998993
0.998987
0.998925
0.998855
0.998953
0.999118
0.999228
0.999176
0.628901
0.628898
0.628895
0.628892
0.628889
0.628886
0.628882
0.628878
0.628874
0.628869
0.628864
0.628864
0.628864
0.628863
0.628863
0.628864
0.628867
0.628875
0.628891
0.628913
0.628923
0.62893
0.628942
0.628962
0.62899
0.629019
0.629046
0.629073
0.629105
0.629141
0.629181
0.629223
0.629267
0.629311
0.629354
0.629399
0.629436
0.629449
0.62945
0.629444
0.629426
0.629392
0.629345
0.629282
0.629212
0.629148
0.629103
0.629079
0.629069
0.629064
0.629073
0.629109
0.629165
0.629238
0.629319
0.629348
0.62935
0.629316
0.629162
0.629056
0.629247
0.630624
0.635235
0.65111
0.680458
0.738887
0.809075
0.872035
0.931716
0.951178
0.969399
0.982485
1.00045
1.00478
1.00363
0.998186
0.993929
0.994947
0.998267
1.00017
0.999333
0.997944
0.998037
0.999061
0.999997
0.999745
0.998888
0.998585
0.998618
0.998736
0.998841
0.998984
0.999029
0.998972
0.998789
0.998723
0.99886
0.999099
0.999239
0.999192
0.628874
0.628873
0.628873
0.628872
0.628872
0.62887
0.628869
0.628867
0.628866
0.628866
0.628862
0.62886
0.628863
0.628866
0.62887
0.628875
0.628884
0.628898
0.628913
0.628933
0.628949
0.628959
0.628972
0.628991
0.629017
0.629042
0.629066
0.629093
0.629126
0.629161
0.629199
0.629241
0.629285
0.629333
0.629382
0.629432
0.629484
0.629534
0.629567
0.629579
0.629578
0.629562
0.629519
0.629449
0.629363
0.629273
0.629185
0.629112
0.629073
0.629064
0.629066
0.629083
0.629138
0.629245
0.629359
0.629423
0.629433
0.629406
0.629321
0.629168
0.628949
0.628858
0.628933
0.6297
0.632676
0.644301
0.668441
0.722774
0.791898
0.865119
0.940117
0.972117
0.993077
0.99776
0.992647
0.989547
0.993642
0.999326
1.00111
0.999835
0.996758
0.996928
0.998707
1.00021
1.00001
0.99894
0.998427
0.998554
0.998731
0.998779
0.998857
0.999033
0.999032
0.99889
0.998647
0.998685
0.998834
0.999053
0.999218
0.99918
0.629029
0.629028
0.629027
0.629026
0.629024
0.629022
0.62902
0.629019
0.629018
0.629018
0.629017
0.629015
0.629011
0.629008
0.629004
0.629005
0.629008
0.629006
0.629005
0.62901
0.629009
0.629005
0.629007
0.629019
0.629033
0.629044
0.629058
0.629074
0.629094
0.629122
0.629155
0.629192
0.629232
0.629276
0.629324
0.629376
0.629432
0.629489
0.629541
0.629582
0.629606
0.629609
0.629592
0.629549
0.629486
0.629407
0.62931
0.629194
0.629092
0.62905
0.629049
0.629055
0.629076
0.629137
0.629268
0.629437
0.629507
0.629499
0.629451
0.629325
0.629098
0.628857
0.628782
0.628784
0.628862
0.629453
0.631643
0.640628
0.661224
0.712337
0.781507
0.85447
0.921753
0.948481
0.968316
0.984106
1.00331
1.00498
1.00223
0.995095
0.995236
0.997569
1.00106
1.00079
0.998893
0.998063
0.998337
0.998902
0.998885
0.998809
0.998915
0.999088
0.998992
0.998733
0.998575
0.998662
0.998835
0.999002
0.999163
0.999126
0.629322
0.629323
0.629324
0.629324
0.62932
0.629316
0.629313
0.629311
0.629307
0.629302
0.629296
0.629289
0.629279
0.629265
0.629248
0.629229
0.62921
0.629189
0.629168
0.629148
0.629126
0.629104
0.629084
0.629067
0.629053
0.629041
0.629037
0.629039
0.629044
0.629051
0.629062
0.629078
0.629098
0.629124
0.629157
0.629202
0.629261
0.62933
0.629406
0.62948
0.629544
0.629586
0.629602
0.629595
0.629574
0.629535
0.629466
0.629356
0.629216
0.629092
0.629029
0.629018
0.629022
0.629048
0.629115
0.62925
0.629439
0.629527
0.62951
0.629444
0.629295
0.629044
0.628814
0.628761
0.628792
0.628905
0.629145
0.629673
0.631257
0.638628
0.657546
0.707783
0.77697
0.857399
0.938321
0.973644
0.996292
0.997766
0.988456
0.990568
0.996813
1.00189
1.00161
0.999032
0.996891
0.997596
0.999
0.999001
0.998806
0.998807
0.999095
0.999106
0.99888
0.998559
0.998569
0.998735
0.998846
0.998942
0.999102
0.999057
0.629525
0.629529
0.629532
0.629535
0.629535
0.629534
0.62953
0.629526
0.629521
0.629515
0.629508
0.629498
0.629486
0.629468
0.629446
0.629426
0.629404
0.629379
0.629349
0.629315
0.629278
0.629239
0.629196
0.629151
0.629109
0.629071
0.629038
0.629012
0.628994
0.628985
0.628979
0.628978
0.62898
0.628986
0.628998
0.62902
0.629056
0.629109
0.629187
0.629286
0.629397
0.629498
0.629571
0.629616
0.629631
0.62963
0.629608
0.629544
0.62943
0.629274
0.629113
0.629
0.62895
0.628938
0.628949
0.629004
0.62914
0.629344
0.62948
0.629484
0.629429
0.629277
0.629032
0.628852
0.628836
0.628894
0.629071
0.629358
0.629499
0.629746
0.630941
0.637642
0.65658
0.706923
0.779974
0.858941
0.924702
0.953995
0.971134
0.994728
1.00501
1.00415
0.998253
0.995066
0.996587
0.999578
0.999626
0.998932
0.998503
0.998897
0.999355
0.999122
0.998447
0.998456
0.998683
0.998849
0.998851
0.998889
0.998985
0.99895
0.629545
0.629553
0.629561
0.62957
0.629582
0.629587
0.629585
0.629583
0.629584
0.629586
0.629584
0.629579
0.629572
0.629562
0.62955
0.629537
0.629523
0.629504
0.629481
0.629454
0.629422
0.629383
0.629337
0.629288
0.629237
0.629184
0.629128
0.629072
0.629016
0.628971
0.628941
0.628924
0.628922
0.628927
0.628937
0.628949
0.628963
0.628985
0.629025
0.629092
0.62919
0.629322
0.629466
0.629585
0.629653
0.629674
0.629672
0.629649
0.629587
0.62947
0.629299
0.629103
0.628936
0.628842
0.628819
0.628822
0.628869
0.629023
0.629271
0.629456
0.629488
0.629447
0.629314
0.629098
0.628959
0.628959
0.629037
0.629237
0.629474
0.629513
0.629463
0.629582
0.630751
0.637608
0.658479
0.711741
0.787011
0.87539
0.950569
0.985584
0.999138
0.99418
0.987923
0.993424
1.00026
1.00066
0.999443
0.997516
0.99826
0.999563
0.999424
0.998427
0.998195
0.998554
0.998881
0.998853
0.998854
0.998876
0.998865
0.998805
0.629435
0.629458
0.629483
0.629512
0.629549
0.629581
0.629594
0.629597
0.629599
0.6296
0.629596
0.629593
0.62959
0.629585
0.629582
0.629579
0.629575
0.62957
0.629562
0.629549
0.629537
0.629525
0.62951
0.629489
0.629459
0.629417
0.629364
0.629302
0.629233
0.62916
0.629089
0.629021
0.628963
0.628932
0.628928
0.628929
0.628934
0.628944
0.628954
0.628973
0.629016
0.629101
0.629234
0.629397
0.629555
0.629656
0.629672
0.629655
0.629617
0.629556
0.629451
0.629287
0.629067
0.628847
0.62875
0.628739
0.628753
0.62884
0.629038
0.629309
0.629495
0.629533
0.629508
0.629397
0.629184
0.629043
0.629042
0.629122
0.629323
0.629485
0.629494
0.629409
0.629288
0.629465
0.630996
0.638654
0.66311
0.719493
0.803617
0.883703
0.938016
0.963879
0.982636
1.00406
1.00387
1.00075
0.995745
0.996984
1.00012
1.00006
0.998596
0.997764
0.998207
0.999026
0.998989
0.998828
0.998879
0.998887
0.998673
0.99866
0.629132
0.629158
0.629185
0.629215
0.629248
0.629284
0.629321
0.629359
0.629398
0.629439
0.629482
0.629527
0.629566
0.629589
0.629601
0.629609
0.629616
0.629623
0.629631
0.629641
0.629651
0.629662
0.629671
0.629675
0.629675
0.629672
0.629659
0.629631
0.62959
0.62954
0.629476
0.629397
0.629306
0.629211
0.629115
0.629025
0.628963
0.628936
0.628921
0.628906
0.628904
0.62892
0.62897
0.629061
0.629196
0.629361
0.629511
0.629584
0.629587
0.629563
0.629529
0.629459
0.629311
0.629066
0.628827
0.628736
0.628743
0.628809
0.628947
0.62914
0.629385
0.629547
0.629569
0.629544
0.629406
0.629163
0.629048
0.62906
0.629162
0.629359
0.62948
0.629482
0.629429
0.629338
0.629351
0.629661
0.631707
0.640697
0.671517
0.734299
0.821041
0.91856
0.970275
0.997619
0.996908
0.98874
0.992999
1.0005
1.00143
0.999559
0.996694
0.997409
0.999278
0.999209
0.99881
0.998769
0.998966
0.99886
0.998459
0.998524
0.628924
0.628942
0.62896
0.628979
0.629003
0.629032
0.629065
0.629101
0.62914
0.629182
0.629229
0.629281
0.629335
0.62939
0.629447
0.629505
0.629564
0.629614
0.62965
0.629675
0.629693
0.629707
0.629722
0.629742
0.629766
0.62979
0.629804
0.629809
0.629808
0.629801
0.629779
0.629738
0.629677
0.62959
0.629471
0.629323
0.629164
0.629023
0.628922
0.628867
0.628834
0.628817
0.628817
0.62883
0.628868
0.628943
0.629059
0.629201
0.629352
0.6295
0.629579
0.629603
0.629582
0.629466
0.629255
0.629034
0.628923
0.628925
0.628969
0.629046
0.629179
0.629402
0.629552
0.629554
0.629487
0.629299
0.629088
0.629046
0.629089
0.629243
0.62945
0.629537
0.629538
0.6295
0.629436
0.629407
0.629452
0.629855
0.632714
0.644231
0.683484
0.756242
0.846006
0.923759
0.955037
0.975229
1.00209
1.00454
1.00115
0.9949
0.996029
0.999483
1.00006
0.999084
0.998534
0.998915
0.999166
0.998774
0.998263
0.99853
0.628906
0.628919
0.628932
0.628944
0.628954
0.628969
0.628984
0.628995
0.629008
0.629025
0.629047
0.629076
0.62911
0.629147
0.629187
0.629232
0.629283
0.629337
0.629397
0.629463
0.629531
0.629593
0.629644
0.629683
0.629714
0.629739
0.629761
0.629784
0.629808
0.629825
0.629828
0.62982
0.629794
0.629747
0.629669
0.629549
0.629393
0.629224
0.629056
0.628913
0.628819
0.628777
0.628763
0.628759
0.628757
0.628764
0.628796
0.628878
0.629037
0.629291
0.629579
0.629732
0.629765
0.629751
0.629678
0.629544
0.629398
0.629243
0.629092
0.629041
0.62904
0.629126
0.62934
0.629484
0.629477
0.62939
0.629224
0.629115
0.629126
0.629211
0.629404
0.629553
0.629574
0.629557
0.629481
0.629367
0.629333
0.629311
0.629378
0.630001
0.634306
0.651371
0.702563
0.783654
0.885007
0.957626
0.994269
0.997118
0.986973
0.991121
0.99956
1.0015
0.999853
0.997531
0.998345
0.999436
0.999152
0.998073
0.998089
0.998776
0.629002
0.628997
0.628992
0.628986
0.628977
0.628969
0.628962
0.628949
0.62894
0.628935
0.628929
0.628924
0.628924
0.628922
0.628911
0.628892
0.62888
0.628875
0.628876
0.628895
0.628941
0.629006
0.629079
0.629153
0.629224
0.629293
0.629361
0.629435
0.629517
0.629596
0.62966
0.629698
0.629702
0.629683
0.629633
0.629563
0.629487
0.629399
0.629295
0.629177
0.629061
0.628965
0.628895
0.62884
0.628793
0.628757
0.628744
0.628771
0.628894
0.629114
0.629414
0.6297
0.629833
0.629839
0.629806
0.629747
0.629682
0.629553
0.629273
0.629028
0.628993
0.629006
0.629109
0.629307
0.62945
0.629467
0.629427
0.629343
0.629313
0.629339
0.629419
0.629526
0.629555
0.629538
0.629456
0.629327
0.629271
0.629246
0.629247
0.629285
0.629455
0.630658
0.637357
0.663668
0.727239
0.820402
0.903655
0.950048
0.970686
0.999981
1.00454
1.00127
0.995665
0.997067
1.00004
0.9999
0.998198
0.997687
0.998278
0.999227
0.629218
0.629187
0.629155
0.629121
0.629082
0.62904
0.628998
0.628954
0.628909
0.628875
0.62885
0.628825
0.628797
0.628764
0.628723
0.628673
0.628618
0.628563
0.628506
0.628459
0.628447
0.628445
0.628449
0.628478
0.628538
0.628614
0.628703
0.62881
0.628933
0.629062
0.629188
0.629307
0.629421
0.629521
0.629549
0.629533
0.62953
0.629537
0.629538
0.629533
0.629531
0.629526
0.629503
0.629448
0.629351
0.629204
0.629033
0.628925
0.628931
0.629025
0.629201
0.629407
0.629621
0.629741
0.629739
0.62972
0.629705
0.629637
0.629425
0.629114
0.628982
0.628985
0.629058
0.629234
0.629438
0.629564
0.629592
0.629587
0.629556
0.629516
0.629489
0.629476
0.629464
0.629434
0.629368
0.62929
0.629242
0.629237
0.629266
0.629367
0.62954
0.629595
0.629875
0.632005
0.643312
0.683334
0.759081
0.864624
0.947448
0.99251
0.997176
0.987226
0.992091
1.00029
1.00104
0.998999
0.996641
0.997477
0.999319
0.999491
0.629427
0.62939
0.62936
0.629332
0.629292
0.629239
0.629189
0.629137
0.629082
0.62902
0.628951
0.628879
0.628808
0.628738
0.628674
0.628614
0.628554
0.628501
0.628454
0.6284
0.628328
0.628264
0.628244
0.628251
0.628283
0.628342
0.628422
0.628525
0.628651
0.628795
0.628937
0.629058
0.629173
0.629301
0.62944
0.629538
0.629593
0.62965
0.629697
0.629748
0.629826
0.629907
0.629954
0.629948
0.629875
0.629705
0.629485
0.629251
0.629071
0.629041
0.629061
0.629116
0.629223
0.629329
0.629417
0.629523
0.629579
0.629576
0.62948
0.629277
0.629146
0.629142
0.629186
0.629312
0.629468
0.629586
0.629662
0.629668
0.629658
0.629606
0.629511
0.629391
0.629323
0.629293
0.629289
0.629284
0.629307
0.629342
0.629415
0.629505
0.629593
0.629604
0.629529
0.629476
0.629997
0.634252
0.654675
0.709878
0.804587
0.897538
0.946066
0.970119
1.00099
1.00367
1.00054
0.995177
0.996445
0.999639
1.00004
0.999452
0.629646
0.629635
0.629623
0.629608
0.62959
0.62957
0.629549
0.629524
0.629492
0.629452
0.629406
0.629351
0.629293
0.629245
0.629179
0.629121
0.629088
0.629044
0.62898
0.628904
0.628826
0.628746
0.628661
0.628627
0.628643
0.62867
0.628704
0.628748
0.628804
0.628879
0.628976
0.629074
0.629158
0.629234
0.629308
0.629386
0.629517
0.629665
0.629748
0.629826
0.629905
0.62996
0.630012
0.630015
0.62995
0.629785
0.629606
0.629456
0.629253
0.629051
0.629011
0.629019
0.629065
0.629088
0.629142
0.62928
0.629395
0.629456
0.629484
0.629481
0.629477
0.629512
0.629563
0.629623
0.629605
0.629571
0.629592
0.629642
0.62964
0.62959
0.629467
0.62934
0.629272
0.629266
0.629284
0.629371
0.629491
0.629553
0.629592
0.629615
0.629609
0.629546
0.629365
0.629132
0.629108
0.629271
0.630878
0.639549
0.675781
0.748642
0.856479
0.946199
0.992822
0.996191
0.987272
0.991728
0.999654
1.00123
1.00006
0.998775
0.629863
0.629869
0.629868
0.62987
0.629872
0.629859
0.629856
0.629858
0.629844
0.629835
0.629837
0.629823
0.629778
0.629751
0.629746
0.629747
0.629779
0.629824
0.629824
0.629809
0.629801
0.62978
0.629748
0.62972
0.62969
0.629652
0.629628
0.629594
0.629526
0.629507
0.629491
0.629371
0.629274
0.629246
0.629211
0.629219
0.629295
0.629358
0.629429
0.62957
0.629632
0.629633
0.629663
0.62968
0.629635
0.629528
0.629507
0.629502
0.629424
0.629206
0.629093
0.629114
0.629199
0.629192
0.62919
0.629277
0.62934
0.629392
0.629508
0.629613
0.629681
0.62977
0.629815
0.629809
0.6297
0.629475
0.629379
0.629382
0.629393
0.629376
0.629355
0.629324
0.62931
0.629336
0.629423
0.629551
0.629656
0.629675
0.629667
0.629617
0.629498
0.629304
0.629151
0.629045
0.629036
0.629108
0.629279
0.629837
0.633483
0.651284
0.705935
0.80187
0.894466
0.947402
0.97218
1.00052
1.00352
1.00084
0.997615
0.998704
0.629888
0.629921
0.629925
0.629925
0.62993
0.629926
0.629914
0.629915
0.629898
0.629878
0.629881
0.629859
0.629799
0.629775
0.629763
0.629763
0.629829
0.62988
0.629887
0.629919
0.630013
0.630084
0.630099
0.630105
0.630111
0.630109
0.630076
0.629976
0.6299
0.629864
0.629787
0.629508
0.629278
0.629195
0.629074
0.628964
0.628952
0.628966
0.629026
0.629037
0.62898
0.628941
0.628949
0.629
0.629073
0.629177
0.629365
0.629536
0.629549
0.629493
0.629486
0.629614
0.62984
0.629865
0.629838
0.629753
0.629537
0.629452
0.629497
0.629653
0.629776
0.629826
0.629846
0.629834
0.629689
0.629364
0.629185
0.629191
0.629226
0.629269
0.62932
0.629421
0.62954
0.629617
0.629676
0.629687
0.629703
0.629695
0.629619
0.629449
0.629227
0.629075
0.629071
0.629087
0.629163
0.629367
0.629538
0.62958
0.629696
0.630815
0.638943
0.673874
0.749201
0.864088
0.947602
0.996173
0.99521
0.990599
0.995297
0.999977
0.629107
0.629119
0.629126
0.62913
0.629118
0.629075
0.629065
0.629064
0.629044
0.629025
0.629024
0.629057
0.629058
0.629037
0.629041
0.629098
0.629181
0.629252
0.629344
0.629421
0.629465
0.629498
0.629497
0.629478
0.629466
0.629399
0.629288
0.629291
0.62927
0.629222
0.629194
0.629101
0.628986
0.628982
0.628961
0.6289
0.628901
0.62892
0.628888
0.628735
0.628584
0.628575
0.62863
0.62874
0.628898
0.62913
0.629378
0.629504
0.629579
0.629608
0.629658
0.629895
0.630226
0.630283
0.630273
0.63013
0.629745
0.629512
0.629507
0.629527
0.629554
0.629545
0.629559
0.629563
0.62947
0.629295
0.629199
0.629226
0.629305
0.629374
0.62947
0.629647
0.629805
0.629821
0.6298
0.629736
0.629611
0.629455
0.629291
0.629135
0.629028
0.629035
0.629092
0.629269
0.629477
0.629636
0.62964
0.629579
0.629363
0.629216
0.629603
0.63311
0.652724
0.709697
0.806542
0.915365
0.947351
0.978812
1.00123
1.00045
0.62767
0.627644
0.627636
0.627629
0.627625
0.627626
0.627626
0.627623
0.627616
0.627621
0.627657
0.627684
0.6277
0.627728
0.627787
0.627881
0.628012
0.628171
0.628308
0.62838
0.628434
0.62847
0.62851
0.628536
0.628464
0.628385
0.628375
0.628415
0.628579
0.628781
0.628815
0.6288
0.628805
0.628894
0.62912
0.629428
0.629587
0.629571
0.629469
0.62929
0.629066
0.628858
0.628835
0.628971
0.629212
0.629442
0.629571
0.629561
0.629572
0.629592
0.629643
0.629865
0.630134
0.630174
0.630123
0.629921
0.629617
0.62937
0.62928
0.629208
0.629089
0.629021
0.62906
0.629174
0.629243
0.629285
0.629422
0.629692
0.629852
0.629848
0.629815
0.629836
0.629927
0.629926
0.629827
0.629578
0.629245
0.62904
0.628956
0.628993
0.629059
0.629191
0.629423
0.629625
0.629702
0.629709
0.629613
0.629386
0.62909
0.629024
0.629065
0.629277
0.630929
0.640056
0.680618
0.762896
0.875598
0.961421
0.99312
0.992615
0.627376
0.627404
0.627439
0.627463
0.627498
0.627554
0.627569
0.627568
0.627581
0.627617
0.627655
0.627714
0.627796
0.627831
0.627864
0.627944
0.628127
0.628446
0.628545
0.628553
0.628597
0.62862
0.628604
0.6286
0.628586
0.628529
0.628519
0.628527
0.628609
0.628851
0.629012
0.629103
0.629256
0.629534
0.629807
0.629937
0.630012
0.629961
0.629795
0.629732
0.629791
0.630032
0.630252
0.630334
0.630332
0.630189
0.629763
0.629234
0.629015
0.628952
0.628973
0.629044
0.62908
0.629044
0.628903
0.628796
0.628838
0.628927
0.629013
0.629012
0.628899
0.628749
0.628753
0.628862
0.6291
0.629418
0.629749
0.630091
0.630144
0.630084
0.629957
0.629834
0.629729
0.629612
0.629432
0.629198
0.628941
0.628845
0.62887
0.629018
0.629377
0.629692
0.629824
0.629797
0.629753
0.629596
0.629296
0.629029
0.62899
0.629026
0.629221
0.629592
0.629685
0.630125
0.634463
0.656428
0.727691
0.826495
0.913293
0.969713
0.631185
0.631404
0.63164
0.631862
0.632026
0.632044
0.631992
0.63197
0.631976
0.631967
0.631874
0.631753
0.631641
0.631441
0.631063
0.630742
0.630617
0.630628
0.630696
0.630705
0.630596
0.630521
0.630495
0.630489
0.630563
0.630474
0.630317
0.630263
0.630201
0.63029
0.630589
0.630817
0.630832
0.630421
0.630124
0.629984
0.629655
0.629308
0.629196
0.629329
0.630073
0.63085
0.63105
0.631096
0.631053
0.630657
0.629731
0.6289
0.628538
0.628382
0.628303
0.628371
0.628496
0.628514
0.628484
0.628496
0.628545
0.628734
0.628965
0.629028
0.629004
0.629006
0.629093
0.62934
0.629495
0.629608
0.629853
0.63008
0.630101
0.629995
0.629685
0.629316
0.629015
0.628866
0.628832
0.628879
0.628907
0.628936
0.629148
0.629574
0.629968
0.63003
0.629992
0.629809
0.629494
0.62917
0.628952
0.628947
0.629014
0.629301
0.629605
0.629831
0.629785
0.629503
0.629555
0.631311
0.644707
0.69108
0.785122
0.925992
0.638488
0.638486
0.638475
0.638576
0.638627
0.638462
0.638126