/*--------------------------------*- C++ -*----------------------------------*\
  =========                 |
  \\      /  F ield         | OpenFOAM: The Open Source CFD Toolbox
   \\    /   O peration     | Website:  https://openfoam.org
    \\  /    A nd           | Version:  7
     \\/     M anipulation  |
\*---------------------------------------------------------------------------*/
FoamFile
{
    version     2.0;
    format      ascii;
    class       volVectorField;
    location    "9";
    object      U;
}
// * * * * * * * * * * * * * * * * * * * * * * * * * * * * * * * * * * * * * //

dimensions      [0 1 -1 0 0 0 0];

internalField   nonuniform List<vector> 
1750
(
(2.254 0.0870649 0)
(2.32467 0.652688 0)
(2.35733 0.815198 0)
(2.497 0.693906 0)
(2.60836 0.498405 0)
(2.69571 0.363388 0)
(2.70844 0.251522 0)
(2.71167 0.198615 0)
(2.70857 0.136615 0)
(2.68069 0.0946229 0)
(2.40023 -1.85555 0)
(2.44346 -1.24876 0)
(2.26491 -0.203149 0)
(2.18585 0.349299 0)
(2.17608 0.305942 0)
(2.30308 0.225908 0)
(2.39929 0.274628 0)
(2.45533 0.215108 0)
(2.48083 0.153053 0)
(2.52932 0.14216 0)
(2.64933 -2.12379 0)
(2.76681 -2.03358 0)
(2.78357 -1.72586 0)
(2.50267 -0.756732 0)
(2.35957 -0.391266 0)
(2.2626 -0.026178 0)
(2.29401 0.0389316 0)
(2.35884 0.122756 0)
(2.37726 0.0915606 0)
(2.47049 0.0861137 0)
(2.97491 -1.65518 0)
(2.94249 -1.83512 0)
(3.03595 -1.60454 0)
(3.16822 -1.75496 0)
(3.08623 -1.56518 0)
(2.77876 -0.998429 0)
(2.65287 -0.603918 0)
(2.63143 -0.28075 0)
(2.59977 -0.0373332 0)
(2.55403 0.071954 0)
(3.08466 -1.48788 0)
(3.09949 -1.484 0)
(3.06155 -1.57123 0)
(3.06294 -1.45044 0)
(3.12984 -1.29675 0)
(3.23932 -1.37451 0)
(3.20152 -1.33887 0)
(3.08167 -1.13209 0)
(2.97343 -0.804765 0)
(2.85474 -0.309186 0)
(3.15484 -1.19295 0)
(3.18947 -1.12143 0)
(3.18356 -1.12249 0)
(3.16626 -1.10042 0)
(3.1452 -1.11498 0)
(3.14255 -1.05762 0)
(3.14399 -1.04 0)
(3.14813 -1.02252 0)
(3.13864 -1.0407 0)
(3.08668 -0.877785 0)
(3.15189 -0.864088 0)
(3.16117 -0.850431 0)
(3.16322 -0.855149 0)
(3.15356 -0.861426 0)
(3.14154 -0.865254 0)
(3.13553 -0.871334 0)
(3.13598 -0.873275 0)
(3.13486 -0.869766 0)
(3.13541 -0.862351 0)
(3.13989 -0.859724 0)
(3.11313 -0.500432 0)
(3.11224 -0.490017 0)
(3.12379 -0.534467 0)
(3.12603 -0.569758 0)
(3.12192 -0.580089 0)
(3.11945 -0.600822 0)
(3.12002 -0.611429 0)
(3.12196 -0.641243 0)
(3.12407 -0.647443 0)
(3.12726 -0.658927 0)
(3.0385 -0.145208 0)
(3.04026 -0.167021 0)
(3.05499 -0.218271 0)
(3.06263 -0.245684 0)
(3.0742 -0.304216 0)
(3.07958 -0.339279 0)
(3.08594 -0.372557 0)
(3.09306 -0.40335 0)
(3.0994 -0.444352 0)
(3.1051 -0.49493 0)
(2.9784 0.0595582 0)
(2.98413 0.0423418 0)
(2.99108 0.024289 0)
(3.00294 -0.00901151 0)
(3.01219 -0.0390916 0)
(3.02225 -0.074628 0)
(3.03623 -0.124959 0)
(3.04632 -0.160652 0)
(3.05747 -0.2051 0)
(3.071 -0.267686 0)
(2.96827 0.0851981 0)
(2.96898 0.0849666 0)
(2.97022 0.0820337 0)
(2.97167 0.0785106 0)
(2.97474 0.0725196 0)
(2.97994 0.0627581 0)
(2.98714 0.0475857 0)
(2.99607 0.0251277 0)
(3.00587 -0.00334591 0)
(3.02334 -0.0618519 0)
(2.97797 0.060631 0)
(2.9778 0.0623111 0)
(2.97518 0.0686131 0)
(2.97342 0.0712477 0)
(2.97395 0.0717078 0)
(2.97488 0.0716351 0)
(2.97535 0.0712431 0)
(2.97656 0.0694675 0)
(2.97841 0.0663719 0)
(2.98543 0.0510702 0)
(2.99453 0.0137631 0)
(2.99276 0.0182885 0)
(2.99045 0.0235618 0)
(2.9872 0.0311171 0)
(2.98439 0.0382699 0)
(2.98185 0.0457521 0)
(2.98014 0.0518485 0)
(2.97861 0.0567935 0)
(2.97798 0.0604753 0)
(2.97852 0.0602271 0)
(2.9997 0.000657505 0)
(2.99947 0.00111884 0)
(2.99905 0.00194817 0)
(2.99834 0.0033698 0)
(2.99723 0.00571672 0)
(2.99564 0.00914357 0)
(2.99352 0.0140771 0)
(2.99099 0.0202432 0)
(2.98818 0.0273357 0)
(2.98476 0.0386287 0)
(2.99999 8.33758e-06 0)
(2.99999 1.55446e-05 0)
(2.99998 3.31949e-05 0)
(2.99995 6.98383e-05 0)
(2.99988 0.000156759 0)
(2.99975 0.000323671 0)
(2.99945 0.000714745 0)
(2.99888 0.00139538 0)
(2.99792 0.00264211 0)
(2.99466 0.00642105 0)
(2.00656 -1.48398 0)
(2.29356 -1.65216 0)
(2.54357 -2.0329 0)
(2.87914 -1.72261 0)
(3.06105 -1.51257 0)
(3.12397 -1.26488 0)
(3.14642 -0.882149 0)
(3.11514 -0.483758 0)
(3.03184 -0.0969296 0)
(2.97364 0.0707679 0)
(2.96796 0.084061 0)
(2.9797 0.0540425 0)
(2.99621 0.00954747 0)
(2.99982 0.000420248 0)
(3 5.21129e-06 0)
(1.99892 -1.48886 0)
(2.3606 -1.74204 0)
(2.60181 -2.04515 0)
(2.97703 -1.49078 0)
(3.06397 -1.48379 0)
(3.13176 -1.18661 0)
(3.15672 -0.722588 0)
(3.08928 -0.280778 0)
(3.00094 -0.0036002 0)
(2.96505 0.0902061 0)
(2.96746 0.0841724 0)
(2.98663 0.036737 0)
(2.99812 0.00489429 0)
(2.99994 0.000146232 0)
(3 1.77112e-06 0)
(1.92153 -1.47198 0)
(2.26814 -1.68091 0)
(2.62361 -1.94297 0)
(2.96946 -1.55219 0)
(3.02418 -1.54833 0)
(3.17034 -0.996326 0)
(3.14042 -0.493313 0)
(3.05727 -0.174836 0)
(2.97948 0.0442903 0)
(2.96208 0.0948631 0)
(2.96862 0.0816478 0)
(2.98826 0.0326094 0)
(2.99889 0.00281625 0)
(2.99997 6.62428e-05 0)
(3 7.23901e-07 0)
(1.81835 -1.41982 0)
(2.24908 -1.67791 0)
(2.65728 -1.74987 0)
(2.8934 -1.7394 0)
(3.10834 -1.38795 0)
(3.15111 -0.661706 0)
(3.12351 -0.443701 0)
(3.03317 -0.129653 0)
(2.96927 0.0699537 0)
(2.96108 0.0964871 0)
(2.97087 0.0787663 0)
(2.99254 0.0198906 0)
(2.99949 0.00122728 0)
(2.99999 2.56109e-05 0)
(3 2.71394e-07 0)
(1.67931 -1.39534 0)
(2.22791 -1.716 0)
(2.65309 -1.75419 0)
(2.83686 -1.75259 0)
(3.12357 -0.863051 0)
(3.16215 -0.733953 0)
(3.09439 -0.374618 0)
(3.00407 -0.0234792 0)
(2.96153 0.0979854 0)
(2.96075 0.0973294 0)
(2.98054 0.0526359 0)
(2.99664 0.00974134 0)
(2.99982 0.000488428 0)
(3 8.97851e-06 0)
(3 9.35138e-08 0)
(1.55734 -1.28111 0)
(2.12182 -1.738 0)
(2.63699 -1.76029 0)
(2.99776 -1.37367 0)
(3.15537 -0.882464 0)
(3.13038 -0.675353 0)
(3.06027 -0.1942 0)
(2.98382 0.0478135 0)
(2.95837 0.109965 0)
(2.9621 0.0999114 0)
(2.98457 0.0429693 0)
(2.99791 0.00622801 0)
(2.99993 0.000197327 0)
(3 3.23277e-06 0)
(3 3.13638e-08 0)
(1.38478 -1.41479 0)
(2.07514 -1.70643 0)
(2.63373 -1.66204 0)
(3.00677 -0.918979 0)
(3.12216 -0.99523 0)
(3.11312 -0.373197 0)
(3.0282 -0.0505391 0)
(2.96646 0.0955166 0)
(2.95655 0.115324 0)
(2.96658 0.0901959 0)
(2.98862 0.0334215 0)
(2.99907 0.00255626 0)
(2.99997 6.97302e-05 0)
(3 1.07363e-06 0)
(3 1.00882e-08 0)
(1.22555 -1.261 0)
(2.08185 -1.65228 0)
(2.6274 -1.6028 0)
(3.04397 -1.07377 0)
(3.1555 -0.691348 0)
(3.08216 -0.202183 0)
(3.00345 0.0158664 0)
(2.95797 0.115221 0)
(2.95638 0.115362 0)
(2.97617 0.0646713 0)
(2.99526 0.0140081 0)
(2.9997 0.000856407 0)
(2.99999 2.02016e-05 0)
(3 3.06473e-07 0)
(3 2.90039e-09 0)
(1.05699 -1.03019 0)
(2.06309 -1.50195 0)
(2.71812 -1.34722 0)
(3.05898 -1.02824 0)
(3.11469 -0.32123 0)
(3.05593 -0.118967 0)
(2.97442 0.0891243 0)
(2.95413 0.122756 0)
(2.96022 0.102895 0)
(2.98001 0.0538751 0)
(2.9975 0.00703186 0)
(2.99989 0.000303282 0)
(3 5.83953e-06 0)
(3 8.41491e-08 0)
(3 7.68131e-10 0)
(1.12628 -0.808041 0)
(2.16349 -1.31388 0)
(2.87015 -1.01212 0)
(3.12673 -0.488759 0)
(3.11091 -0.248978 0)
(3.00372 0.0289314 0)
(2.95735 0.122668 0)
(2.95347 0.122979 0)
(2.96664 0.0849833 0)
(2.98944 0.0277428 0)
(2.99895 0.00283894 0)
(2.99997 8.47496e-05 0)
(3 1.56497e-06 0)
(3 2.18722e-08 0)
(3 1.93509e-10 0)
(1.08546 -0.435432 0)
(2.21293 -1.20038 0)
(3.00361 -0.760202 0)
(3.12844 -0.286929 0)
(3.05836 -0.0773517 0)
(2.97033 0.0998301 0)
(2.95128 0.130937 0)
(2.95447 0.117593 0)
(2.97284 0.0728092 0)
(2.99572 0.0114733 0)
(2.99977 0.000645882 0)
(2.99999 1.81209e-05 0)
(3 3.25795e-07 0)
(3 4.63305e-09 0)
(3 4.22217e-11 0)
(0.433343 0.502741 0)
(2.52072 -0.409003 0)
(3.09535 -0.410058 0)
(3.10055 -0.170787 0)
(2.99933 0.059544 0)
(2.95308 0.134677 0)
(2.95011 0.13162 0)
(2.96133 0.0990012 0)
(2.98821 0.0322164 0)
(2.99847 0.00444315 0)
(2.99993 0.000182203 0)
(3 3.95618e-06 0)
(3 6.50648e-08 0)
(3 8.85373e-10 0)
(3 7.92707e-12 0)
(1.08779 0.416477 0)
(2.88099 -0.184188 0)
(3.14883 -0.204185 0)
(3.03296 0.0468574 0)
(2.96345 0.121408 0)
(2.94689 0.145365 0)
(2.95029 0.124493 0)
(2.9697 0.0779991 0)
(2.99428 0.0157766 0)
(2.99967 0.00104905 0)
(2.99999 3.31239e-05 0)
(3 6.63462e-07 0)
(3 1.05493e-08 0)
(3 1.40672e-10 0)
(3 1.25355e-12 0)
(2.06225 0.297832 0)
(3.14008 -0.160285 0)
(3.09138 -0.0188177 0)
(2.97699 0.129937 0)
(2.94578 0.143659 0)
(2.94547 0.147782 0)
(2.95561 0.116753 0)
(2.98569 0.0348348 0)
(2.99803 0.00514304 0)
(2.99991 0.000244137 0)
(3 5.96224e-06 0)
(3 1.05207e-07 0)
(3 1.50789e-09 0)
(3 1.88262e-11 0)
(3 1.59258e-13 0)
(2.67224 0.1549 0)
(3.11503 0.0598136 0)
(2.99095 0.124082 0)
(2.9482 0.160598 0)
(2.94273 0.144487 0)
(2.94817 0.137243 0)
(2.97451 0.0581023 0)
(2.99447 0.0120212 0)
(2.99969 0.000726013 0)
(2.99999 2.66765e-05 0)
(3 6.10877e-07 0)
(3 1.02664e-08 0)
(3 1.41121e-10 0)
(3 1.85492e-12 0)
(3 1.85324e-14 0)
(2.92933 0.150163 0)
(2.93775 0.151056 0)
(2.94127 0.159207 0)
(2.94142 0.16336 0)
(2.96046 0.129651 0)
(2.96789 0.0853933 0)
(2.99127 0.0178406 0)
(2.99963 0.000729269 0)
(2.99999 2.66627e-05 0)
(3 5.30416e-07 0)
(3 -5.42677e-10 0)
(3 -1.41274e-10 0)
(3 -7.18899e-12 0)
(3 2.83406e-14 0)
(3 1.5158e-15 0)
(2.9264 0.150582 0)
(2.9344 0.150063 0)
(2.94097 0.155303 0)
(2.94258 0.167852 0)
(2.9528 0.135681 0)
(2.97082 0.0741714 0)
(2.99304 0.0228407 0)
(2.9992 0.00178039 0)
(2.99996 6.70534e-05 0)
(3 1.41227e-06 0)
(3 2.17677e-08 0)
(3 2.7296e-10 0)
(3 2.62184e-12 0)
(3 8.18022e-15 0)
(3 -1.38098e-15 0)
(2.92546 0.152355 0)
(2.93439 0.15484 0)
(2.94473 0.156924 0)
(2.94389 0.170051 0)
(2.96221 0.110118 0)
(2.9771 0.0566867 0)
(2.99712 0.00549537 0)
(2.99986 0.000254391 0)
(3 4.17388e-06 0)
(3 4.84478e-08 0)
(3 4.59834e-10 0)
(3 3.74991e-12 0)
(3 2.52673e-14 0)
(3 -1.1174e-15 0)
(3 -8.95289e-16 0)
(2.92322 0.15515 0)
(2.93241 0.157798 0)
(2.94704 0.155134 0)
(2.94741 0.164668 0)
(2.96375 0.100119 0)
(2.98814 0.0263286 0)
(2.99863 0.00273277 0)
(2.99996 7.63612e-05 0)
(3 1.19178e-06 0)
(3 1.36628e-08 0)
(3 1.28358e-10 0)
(3 1.02401e-12 0)
(3 4.68597e-15 0)
(3 -1.01216e-15 0)
(3 -6.05456e-16 0)
(2.92354 0.156071 0)
(2.93163 0.160761 0)
(2.94821 0.153266 0)
(2.95988 0.137783 0)
(2.97533 0.0672023 0)
(2.99359 0.0143008 0)
(2.99958 0.000799744 0)
(2.99999 1.79584e-05 0)
(3 2.52809e-07 0)
(3 2.69088e-09 0)
(3 2.42913e-11 0)
(3 1.84775e-13 0)
(3 -1.95466e-15 0)
(3 -1.35799e-15 0)
(3 -3.4875e-16 0)
(2.92362 0.158497 0)
(2.92637 0.169798 0)
(2.95032 0.147 0)
(2.96131 0.126789 0)
(2.98132 0.0494737 0)
(2.99727 0.00560008 0)
(2.99987 0.000235989 0)
(3 4.48772e-06 0)
(3 5.65971e-08 0)
(3 5.84741e-10 0)
(3 5.13432e-12 0)
(3 3.64216e-14 0)
(3 -3.2493e-15 0)
(3 -2.40097e-15 0)
(3 -6.21733e-16 0)
(2.92403 0.158798 0)
(2.922 0.178044 0)
(2.95478 0.13901 0)
(2.96886 0.102276 0)
(2.9918 0.020212 0)
(2.99901 0.00206326 0)
(2.99997 5.74126e-05 0)
(3 9.68283e-07 0)
(3 1.14178e-08 0)
(3 1.15826e-10 0)
(3 9.6708e-13 0)
(3 6.60301e-15 0)
(3 -4.97899e-15 0)
(3 -4.29883e-15 0)
(3 -9.64589e-16 0)
(2.91998 0.15393 0)
(2.925 0.188824 0)
(2.97273 0.109219 0)
(2.9813 0.0609645 0)
(2.99516 0.0111573 0)
(2.99971 0.000543563 0)
(2.99999 1.41671e-05 0)
(3 1.92193e-07 0)
(3 2.34806e-09 0)
(3 2.14622e-11 0)
(3 1.7786e-13 0)
(3 1.85893e-16 0)
(3 -4.96324e-15 0)
(3 -3.84852e-15 0)
(3 -1.09393e-15 0)
(2.92455 0.136798 0)
(2.93017 0.19369 0)
(2.97421 0.0905139 0)
(2.98783 0.0341797 0)
(2.99838 0.003507 0)
(2.99992 0.000149605 0)
(3 2.66337e-06 0)
(3 4.012e-08 0)
(3 3.94389e-10 0)
(3 3.76067e-12 0)
(3 3.03839e-14 0)
(3 -3.31934e-15 0)
(3 -4.79883e-15 0)
(3 -2.48124e-15 0)
(3 -1.10647e-15 0)
(2.93477 0.118819 0)
(2.93955 0.172181 0)
(2.97903 0.0645932 0)
(2.99341 0.0162595 0)
(2.99944 0.0011259 0)
(2.99998 3.27909e-05 0)
(3 5.86853e-07 0)
(3 6.37952e-09 0)
(3 7.13348e-11 0)
(3 5.74012e-13 0)
(3 6.5321e-15 0)
(3 -3.41452e-15 0)
(3 -4.96895e-15 0)
(3 -2.15516e-15 0)
(3 -1.13095e-15 0)
(2.93304 0.0885643 0)
(2.94984 0.138986 0)
(2.98788 0.0355605 0)
(2.99773 0.00540692 0)
(2.99986 0.000282862 0)
(3 6.29889e-06 0)
(3 8.58356e-08 0)
(3 1.11469e-09 0)
(3 9.54277e-12 0)
(3 8.11141e-14 0)
(3 1.95709e-15 0)
(3 -4.06819e-15 0)
(3 -4.38255e-15 0)
(3 -2.32689e-15 0)
(3 -1.87381e-15 0)
(2.94584 0.061977 0)
(2.96557 0.0953218 0)
(2.99312 0.0187909 0)
(2.9992 0.00179665 0)
(2.99997 5.37192e-05 0)
(3 9.72524e-07 0)
(3 1.36739e-08 0)
(3 1.26694e-10 0)
(3 1.248e-12 0)
(3 1.0795e-14 0)
(3 -7.27611e-16 0)
(3 -4.18178e-15 0)
(3 -3.88024e-15 0)
(3 -2.63404e-15 0)
(3 -2.53357e-15 0)
(2.95238 0.0447828 0)
(2.97474 0.0610912 0)
(2.99717 0.00689444 0)
(2.99982 0.000376778 0)
(3 8.97195e-06 0)
(3 1.32599e-07 0)
(3 1.37795e-09 0)
(3 1.50269e-11 0)
(3 1.12251e-13 0)
(3 2.59735e-15 0)
(3 -6.60631e-16 0)
(3 -3.82837e-15 0)
(3 -3.12402e-15 0)
(3 -2.89357e-15 0)
(3 -3.09263e-15 0)
(2.96879 0.0187314 0)
(2.98913 0.0243653 0)
(2.99916 0.00184202 0)
(2.99997 5.83111e-05 0)
(3 9.7362e-07 0)
(3 1.18446e-08 0)
(3 1.3404e-10 0)
(3 1.01855e-12 0)
(3 1.28792e-14 0)
(3 1.04341e-15 0)
(3 -9.51579e-16 0)
(3 -2.20384e-15 0)
(3 -2.06534e-15 0)
(3 -3.01023e-15 0)
(3 -3.42075e-15 0)
(2.98471 0.00431616 0)
(2.99657 0.00666459 0)
(2.99988 0.000231715 0)
(3 4.6259e-06 0)
(3 6.10007e-08 0)
(3 6.8046e-10 0)
(3 5.61523e-12 0)
(3 5.20183e-14 0)
(3 5.44804e-15 0)
(3 1.938e-15 0)
(3 -1.1199e-15 0)
(3 -2.0052e-15 0)
(3 -1.58963e-15 0)
(3 -2.87656e-15 0)
(3 -3.05138e-15 0)
(3 8.995e-16 0)
(3 7.63089e-16 0)
(3 1.24256e-15 0)
(3 1.02167e-15 0)
(3 2.46799e-15 0)
(3 1.38578e-15 0)
(3 -1.06664e-15 0)
(3 2.98796e-15 0)
(3 5.95383e-15 0)
(3 2.2218e-15 0)
(3 -1.87737e-15 0)
(3 -2.13837e-15 0)
(3 -7.49094e-16 0)
(3 -2.40811e-15 0)
(3 -1.95837e-15 0)
(3 9.53585e-16 0)
(3 9.13435e-16 0)
(3 8.8354e-16 0)
(3 -5.98125e-16 0)
(3 1.19188e-15 0)
(3 8.79782e-16 0)
(3 -7.64598e-16 0)
(3 3.5157e-15 0)
(3 7.60685e-15 0)
(3 2.61507e-15 0)
(3 -3.10687e-15 0)
(3 -2.6723e-15 0)
(3 5.11586e-16 0)
(3 -1.629e-15 0)
(3 -1.76908e-15 0)
(3 1.48601e-15 0)
(3 2.47477e-15 0)
(3 6.27092e-16 0)
(3 -1.58475e-15 0)
(3 -4.37251e-16 0)
(3 -5.23267e-16 0)
(3 -9.04895e-16 0)
(3 3.09516e-15 0)
(3 7.92471e-15 0)
(3 3.09684e-15 0)
(3 -4.10239e-15 0)
(3 -3.08767e-15 0)
(3 1.5169e-15 0)
(3 -5.55625e-16 0)
(3 -1.37026e-15 0)
(3 1.73289e-15 0)
(3 2.98177e-15 0)
(3 1.34636e-15 0)
(3 -1.03502e-15 0)
(3 -1.48652e-15 0)
(3 -1.70548e-15 0)
(3 -2.51633e-16 0)
(3 2.81415e-15 0)
(3 6.90978e-15 0)
(3 3.41278e-15 0)
(3 -4.71477e-15 0)
(3 -3.07891e-15 0)
(3 2.47085e-15 0)
(3 7.71231e-16 0)
(3 -1.08916e-15 0)
(3 1.83734e-15 0)
(3 3.29242e-15 0)
(3 2.12075e-15 0)
(3 -8.66334e-16 0)
(3 -1.65654e-15 0)
(3 -1.98335e-15 0)
(3 2.62727e-16 0)
(3 2.89163e-15 0)
(3 4.74925e-15 0)
(3 2.01687e-15 0)
(3 -4.81585e-15 0)
(3 -2.33372e-15 0)
(3 3.30054e-15 0)
(3 1.5403e-15 0)
(3 -2.79196e-16 0)
(3 3.1547e-16 0)
(3 3.09595e-15 0)
(3 2.33245e-15 0)
(3 5.78443e-16 0)
(3 -3.36027e-16 0)
(3 -2.04525e-15 0)
(3 2.48892e-16 0)
(3 2.58537e-15 0)
(3 2.41267e-15 0)
(3 1.01616e-15 0)
(3 -2.68116e-15 0)
(3 -2.53955e-15 0)
(3 2.39246e-15 0)
(3 1.78074e-15 0)
(3 -5.19621e-16 0)
(3 -1.47475e-15 0)
(3 4.08492e-16 0)
(3 2.62542e-15 0)
(3 9.26015e-16 0)
(3 4.35913e-16 0)
(3 6.85035e-17 0)
(3 9.48648e-16 0)
(3 1.23748e-15 0)
(3 6.47457e-17 0)
(3 1.5778e-16 0)
(3 -1.0734e-15 0)
(3 -1.47202e-15 0)
(3 2.35577e-15 0)
(3 7.6647e-16 0)
(3 -9.80283e-16 0)
(3 -2.65387e-15 0)
(3 -4.18907e-16 0)
(3 2.53731e-15 0)
(3 1.06013e-15 0)
(3 1.70367e-16 0)
(3 1.09664e-15 0)
(3 2.56253e-16 0)
(3 -1.052e-15 0)
(3 -3.4214e-16 0)
(3 5.71722e-16 0)
(3 -2.2429e-16 0)
(3 -3.21762e-16 0)
(3 1.93798e-15 0)
(3 -2.7722e-16 0)
(3 -1.06526e-15 0)
(3 -2.60852e-15 0)
(3 -1.62567e-15 0)
(3 1.40906e-15 0)
(3 1.06618e-15 0)
(3 2.55669e-16 0)
(3 1.29299e-15 0)
(3 2.18025e-16 0)
(3 -1.86381e-15 0)
(3 -1.19762e-15 0)
(3 5.1052e-16 0)
(3 1.75639e-16 0)
(3 7.14288e-16 0)
(3 6.89177e-16 0)
(3 -5.71427e-16 0)
(3 -5.2164e-16 0)
(3 1.80489e-16 0)
(3 5.8552e-16 0)
(3 5.53403e-16 0)
(3 -4.08773e-16 0)
(3 -1.4518e-16 0)
(3 7.99731e-16 0)
(3 7.52097e-16 0)
(3 -1.03044e-15 0)
(3 -7.80004e-16 0)
(3 -2.28921e-16 0)
(3 2.23792e-16 0)
(3 8.90968e-16 0)
(3 -3.70004e-16 0)
(3 -1.04869e-15 0)
(3 -1.34543e-17 0)
(3 2.21433e-15 0)
(3 1.47282e-15 0)
(3 1.11091e-15 0)
(3 2.33875e-15 0)
(3 2.30618e-15 0)
(3 1.99224e-16 0)
(3 -6.8345e-16 0)
(3 -2.36074e-15 0)
(3 -6.4784e-16 0)
(3 1.30172e-15 0)
(3 4.00829e-16 0)
(3 1.3822e-15 0)
(3 2.21321e-15 0)
(3 2.78138e-15 0)
(3 2.31453e-15 0)
(3 3.18514e-15 0)
(3 3.46182e-15 0)
(3 2.76628e-15 0)
(3 1.68572e-15 0)
(3 1.66015e-15 0)
(3 -4.4861e-16 0)
(3 1.22904e-17 0)
(3 2.98534e-16 0)
(3 4.21881e-16 0)
(3 1.2118e-15 0)
(3 3.85522e-15 0)
(3 5.32728e-15 0)
(3 4.27292e-15 0)
(3 2.97065e-15 0)
(3 1.14162e-15 0)
(3 -5.84725e-16 0)
(3 -1.57188e-15 0)
(3 -2.19057e-15 0)
(3 -1.74808e-15 0)
(3 -2.49828e-16 0)
(3 7.12437e-17 0)
(3 1.33053e-15 0)
(3 1.72341e-15 0)
(3 1.67162e-15 0)
(3 7.00789e-16 0)
(3 1.17362e-15 0)
(3 5.52411e-16 0)
(3 -1.25376e-16 0)
(3 -1.10611e-15 0)
(3 -1.38809e-15 0)
(3 -1.42085e-15 0)
(3 -6.6231e-16 0)
(3 7.68049e-16 0)
(3 -1.37867e-17 0)
(3 -4.58699e-16 0)
(3 -1.55749e-15 0)
(3 -1.00482e-15 0)
(3 -7.94172e-16 0)
(3 -1.31311e-15 0)
(3 -2.00471e-15 0)
(3 -1.58195e-15 0)
(3 -2.13919e-15 0)
(3 -8.60813e-16 0)
(3 -4.48473e-16 0)
(3 -5.48089e-16 0)
(3 -3.36479e-15 0)
(3 -3.03215e-15 0)
(3 -1.57179e-15 0)
(3 -7.50956e-16 0)
(3 -2.12688e-15 0)
(3 -3.83448e-15 0)
(3 -2.46679e-15 0)
(3 -1.94505e-15 0)
(3 -7.36374e-16 0)
(3 2.80356e-16 0)
(3 -2.60205e-15 0)
(3 -2.73282e-15 0)
(3 -2.60905e-15 0)
(3 -2.9745e-15 0)
(3 -2.8742e-15 0)
(3 -2.94462e-15 0)
(3 -2.88199e-15 0)
(3 -2.4614e-15 0)
(3 -2.53048e-15 0)
(3 -9.81525e-16 0)
(3 -6.14748e-16 0)
(3 -1.08397e-15 0)
(3 -1.90354e-15 0)
(3 -2.75081e-15 0)
(3 -2.65439e-15 0)
(3 -2.72897e-15 0)
(3 -3.18803e-15 0)
(3 -2.1576e-15 0)
(3 -1.93278e-15 0)
(3 -1.3345e-15 0)
(3 3.11019e-15 0)
(3 1.81266e-15 0)
(3 -9.64756e-17 0)
(3 -1.47825e-15 0)
(3 -2.72764e-15 0)
(3 -3.19207e-15 0)
(3 -2.57897e-15 0)
(3 -3.34609e-16 0)
(3 5.94632e-16 0)
(3 -4.72943e-16 0)
(3 1.06902e-15 0)
(3 4.84789e-16 0)
(3 -7.99887e-16 0)
(3 -1.1683e-15 0)
(3 -1.01224e-15 0)
(3 -1.51148e-15 0)
(3 -2.41166e-16 0)
(3 6.41365e-16 0)
(3 5.03083e-16 0)
(3 9.33997e-17 0)
(3 -4.01129e-15 0)
(3 -4.70937e-15 0)
(3 -4.32958e-15 0)
(3 -2.38872e-15 0)
(3 3.3029e-16 0)
(3 1.28775e-15 0)
(3 1.31209e-15 0)
(3 6.28526e-16 0)
(3 2.59554e-16 0)
(3 1.64744e-16 0)
(3 -1.81124e-15 0)
(3 -1.70626e-15 0)
(3 -1.04158e-15 0)
(3 -1.30368e-15 0)
(3 -8.41896e-16 0)
(3 1.62035e-16 0)
(3 3.28558e-16 0)
(3 3.421e-16 0)
(3 3.72919e-16 0)
(3 5.2973e-16 0)
(3 1.87713e-15 0)
(3 2.07375e-15 0)
(3 2.21493e-15 0)
(3 1.86324e-15 0)
(3 9.20071e-17 0)
(3 -1.11214e-15 0)
(3 -1.77175e-15 0)
(3 -1.80362e-15 0)
(3 -6.29917e-16 0)
(3 -1.58771e-16 0)
(3 1.75348e-15 0)
(3 1.70336e-15 0)
(3 2.08831e-15 0)
(3 2.82236e-15 0)
(3 3.07565e-15 0)
(3 1.46606e-15 0)
(3 -3.29449e-17 0)
(3 -4.29169e-16 0)
(3 -7.77553e-16 0)
(3 -2.43603e-16 0)
(3 3.35399e-15 0)
(3 3.45914e-15 0)
(3 3.77784e-15 0)
(3 3.59781e-15 0)
(3 3.95212e-15 0)
(3 3.9038e-15 0)
(3 4.01125e-15 0)
(3 1.76534e-15 0)
(3 1.22845e-15 0)
(3 1.61952e-16 0)
(3 5.60863e-15 0)
(3 5.10181e-15 0)
(3 4.81332e-15 0)
(3 4.65978e-15 0)
(3 4.71705e-15 0)
(3 4.29976e-15 0)
(3 3.21048e-15 0)
(3 1.85013e-15 0)
(3 1.54346e-15 0)
(3 1.28682e-15 0)
(3 1.4066e-16 0)
(3 -7.75651e-17 0)
(3 1.94252e-17 0)
(3 4.66295e-16 0)
(3 6.76601e-16 0)
(3 7.60538e-16 0)
(3 6.20271e-16 0)
(3 9.68309e-16 0)
(3 1.1368e-15 0)
(3 3.76101e-16 0)
(3 -4.25699e-15 0)
(3 -4.00038e-15 0)
(3 -3.38308e-15 0)
(3 -3.59884e-15 0)
(3 -3.04086e-15 0)
(3 -2.07135e-15 0)
(3 -1.22254e-15 0)
(3 -7.16809e-16 0)
(3 -4.23339e-16 0)
(3 -1.27117e-15 0)
(3 -1.99824e-15 0)
(3 -1.57533e-15 0)
(3 -8.06662e-16 0)
(3 -1.35615e-15 0)
(3 -1.04895e-15 0)
(3 -7.71697e-16 0)
(3 -6.96033e-16 0)
(3 -4.28207e-16 0)
(3 -5.93452e-16 0)
(3 -2.8049e-16 0)
(2.30925 -0.533273 0)
(2.7716 -0.209625 0)
(3 1.23593e-06 0)
(3 -2.78096e-12 0)
(3 -5.24106e-16 0)
(3 -2.28669e-15 0)
(3 -3.06452e-15 0)
(3 -2.26561e-15 0)
(3 -2.0325e-16 0)
(3 2.88271e-15 0)
(3 -2.5631e-16 0)
(3 -2.46919e-15 0)
(3 -1.31009e-15 0)
(3 2.28911e-15 0)
(3 2.45905e-15 0)
(3 4.02287e-15 0)
(3 5.23258e-15 0)
(3 -1.15952e-16 0)
(3 -4.08047e-15 0)
(3 -2.2247e-15 0)
(1.21673 -0.636598 0)
(1.18358 -0.862442 0)
(2.19267 -0.755138 0)
(2.99881 -0.0427003 0)
(3 9.38078e-08 0)
(3 7.19073e-13 0)
(3 -3.00047e-15 0)
(3 -1.96958e-15 0)
(3 9.66043e-16 0)
(3 2.11564e-15 0)
(3 -1.2315e-15 0)
(3 -2.44631e-15 0)
(3 -1.84554e-16 0)
(3 2.78812e-15 0)
(3 3.73811e-15 0)
(3 4.69985e-15 0)
(3 3.38744e-15 0)
(3 -5.47282e-16 0)
(3 -4.34441e-15 0)
(3 -2.6353e-15 0)
(1.31479 -0.802757 0)
(1.24373 -0.92093 0)
(1.31945 -0.913526 0)
(1.68059 -0.79099 0)
(2.81162 -0.17136 0)
(2.99988 0.000105075 0)
(3 -3.96963e-10 0)
(3 1.49134e-14 0)
(3 1.5443e-15 0)
(3 2.02608e-15 0)
(3 -1.46291e-15 0)
(3 -2.13536e-15 0)
(3 6.74355e-16 0)
(3 3.4042e-15 0)
(3 3.40314e-15 0)
(3 4.69874e-15 0)
(3 3.52367e-15 0)
(3 -5.19509e-16 0)
(3 -4.399e-15 0)
(3 -2.74583e-15 0)
(1.34426 -0.896375 0)
(1.29792 -0.906149 0)
(1.3245 -0.904888 0)
(1.36601 -0.904449 0)
(1.60679 -0.843138 0)
(2.67502 -0.274479 0)
(3.00044 0.000472234 0)
(3 -1.35013e-09 0)
(3 8.1496e-13 0)
(3 -1.45658e-14 0)
(3 -1.86498e-15 0)
(3 -2.52519e-15 0)
(3 1.38906e-15 0)
(3 3.19839e-15 0)
(3 2.77284e-15 0)
(3 5.78397e-15 0)
(3 3.0553e-15 0)
(3 -1.38037e-15 0)
(3 -4.09446e-15 0)
(3 -2.37754e-15 0)
(1.33888 -0.90491 0)
(1.32526 -0.898739 0)
(1.34699 -0.88787 0)
(1.36373 -0.900825 0)
(1.36513 -0.910451 0)
(1.59554 -0.859125 0)
(2.62061 -0.326982 0)
(3.0008 0.00094474 0)
(3 -1.63912e-06 0)
(3 5.68361e-09 0)
(3 -2.70141e-12 0)
(3 8.24201e-15 0)
(3 1.49342e-15 0)
(3 4.74921e-15 0)
(3 2.62731e-15 0)
(3 6.79563e-15 0)
(3 3.02193e-15 0)
(3 -2.00644e-15 0)
(3 -3.91981e-15 0)
(3 -2.07853e-15 0)
(1.33279 -0.900564 0)
(1.32906 -0.89227 0)
(1.34218 -0.888833 0)
(1.36021 -0.904194 0)
(1.36269 -0.916532 0)
(1.37165 -0.920331 0)
(1.55474 -0.859492 0)
(2.58687 -0.31921 0)
(3.00125 0.000948634 0)
(3 -1.47287e-06 0)
(3 1.58138e-09 0)
(3 -2.90311e-13 0)
(3 1.9335e-15 0)
(3 6.1938e-15 0)
(3 2.21052e-15 0)
(3 6.70429e-15 0)
(3 3.23755e-15 0)
(3 -3.00374e-15 0)
(3 -3.54077e-15 0)
(3 -1.56182e-15 0)
(1.32834 -0.895228 0)
(1.33202 -0.891737 0)
(1.34418 -0.895217 0)
(1.35452 -0.909782 0)
(1.36293 -0.919859 0)
(1.3759 -0.922055 0)
(1.38043 -0.930578 0)
(1.5856 -0.850523 0)
(2.65178 -0.272808 0)
(3.00095 0.000884839 0)
(3 -1.14508e-06 0)
(3 4.35233e-10 0)
(3 -1.29725e-12 0)
(3 1.17779e-14 0)
(3 3.50523e-15 0)
(3 6.61557e-15 0)
(3 2.67702e-15 0)
(3 -3.38632e-15 0)
(3 -2.95202e-15 0)
(3 -1.13852e-15 0)
(1.33163 -0.894988 0)
(1.3375 -0.89585 0)
(1.34583 -0.902631 0)
(1.35417 -0.913828 0)
(1.36645 -0.919629 0)
(1.38042 -0.919979 0)
(1.38854 -0.926312 0)
(1.40602 -0.922117 0)
(1.61603 -0.828828 0)
(2.67828 -0.239149 0)
(3.00126 0.000986908 0)
(3 -2.60603e-06 0)
(3 5.24172e-09 0)
(3 -1.59303e-12 0)
(3 1.68911e-15 0)
(3 6.18885e-15 0)
(3 2.83414e-15 0)
(3 -3.05524e-15 0)
(3 -2.89638e-15 0)
(3 -4.29272e-16 0)
(1.33755 -0.897733 0)
(1.34101 -0.901005 0)
(1.34811 -0.906409 0)
(1.35841 -0.913514 0)
(1.37334 -0.918398 0)
(1.38828 -0.920952 0)
(1.39527 -0.926724 0)
(1.39646 -0.93052 0)
(1.38587 -0.934603 0)
(1.70163 -0.788453 0)
(2.78603 -0.145398 0)
(3.00095 0.00067576 0)
(3 -2.5488e-06 0)
(3 8.22053e-09 0)
(3 1.11026e-10 0)
(3 -2.5643e-13 0)
(3 -1.0662e-14 0)
(3 -2.13974e-15 0)
(3 -1.88392e-15 0)
(3 -2.81592e-16 0)
(1.34524 -0.902172 0)
(1.34632 -0.904726 0)
(1.3519 -0.908008 0)
(1.36418 -0.912761 0)
(1.37977 -0.919438 0)
(1.39431 -0.925552 0)
(1.3992 -0.933705 0)
(1.39818 -0.934578 0)
(1.39612 -0.934394 0)
(1.46341 -0.91899 0)
(1.98399 -0.694637 0)
(2.91498 -0.0661659 0)
(3.00041 0.000378932 0)
(3 -1.96322e-06 0)
(3 -2.46791e-08 0)
(3 1.15464e-10 0)
(3 5.09257e-12 0)
(3 -2.70219e-14 0)
(3 -2.09364e-15 0)
(3 -4.38128e-16 0)
(1.35144 -0.906075 0)
(1.35153 -0.907722 0)
(1.35682 -0.908836 0)
(1.36946 -0.913849 0)
(1.38563 -0.923402 0)
(1.39934 -0.931826 0)
(1.40491 -0.938866 0)
(1.40861 -0.938719 0)
(1.41468 -0.940753 0)
(1.42825 -0.952856 0)
(1.49044 -0.949471 0)
(2.31476 -0.508472 0)
(2.98501 -0.0163417 0)
(3.00007 9.46211e-05 0)
(3 1.07403e-06 0)
(3 -3.25866e-09 0)
(3 -1.2904e-10 0)
(3 3.02121e-13 0)
(3 1.29342e-14 0)
(3 9.53413e-17 0)
(1.35806 -0.909293 0)
(1.35816 -0.910714 0)
(1.36399 -0.911401 0)
(1.37547 -0.919029 0)
(1.39093 -0.928284 0)
(1.40457 -0.936469 0)
(1.41279 -0.944182 0)
(1.42147 -0.944407 0)
(1.42663 -0.947996 0)
(1.43221 -0.954104 0)
(1.44763 -0.951518 0)
(1.63492 -0.875222 0)
(2.64254 -0.291841 0)
(2.99983 -0.00116309 0)
(3 3.92067e-07 0)
(3 1.17194e-08 0)
(3 -8.41202e-11 0)
(3 -5.1283e-12 0)
(3 -2.34446e-14 0)
(3 1.646e-16 0)
(1.36588 -0.913492 0)
(1.366 -0.915842 0)
(1.372 -0.917103 0)
(1.38128 -0.925523 0)
(1.39524 -0.93406 0)
(1.40908 -0.941429 0)
(1.42048 -0.9486 0)
(1.42978 -0.948641 0)
(1.43065 -0.953537 0)
(1.43342 -0.951308 0)
(1.45659 -0.949638 0)
(1.49095 -0.965245 0)
(1.76965 -0.805347 0)
(2.79852 -0.14063 0)
(3.00075 0.000428142 0)
(3.00002 1.69059e-05 0)
(3 9.26884e-08 0)
(3 3.1069e-10 0)
(3 1.01565e-12 0)
(3 -1.18096e-15 0)
(1.37555 -0.91907 0)
(1.3756 -0.922182 0)
(1.38131 -0.923755 0)
(1.38956 -0.930642 0)
(1.4032 -0.937703 0)
(1.4178 -0.944868 0)
(1.42959 -0.950499 0)
(1.43747 -0.950653 0)
(1.43895 -0.954633 0)
(1.4465 -0.953496 0)
(1.4686 -0.952621 0)
(1.47775 -0.966834 0)
(1.52181 -0.954473 0)
(2.20468 -0.589254 0)
(2.9542 -0.0474783 0)
(2.9999 -0.000143058 0)
(3 -2.2863e-07 0)
(3 -3.08312e-10 0)
(3 4.34053e-14 0)
(3 2.98021e-14 0)
(1.41968 -0.928034 0)
(1.42347 -0.934456 0)
(1.43467 -0.933691 0)
(1.44532 -0.939301 0)
(1.45775 -0.944344 0)
(1.46953 -0.949868 0)
(1.47801 -0.951805 0)
(1.48189 -0.952661 0)
(1.48023 -0.956121 0)
(1.48749 -0.954336 0)
(1.50301 -0.95733 0)
(1.51134 -0.967768 0)
(1.52381 -0.971181 0)
(1.63898 -0.921694 0)
(2.67542 -0.271283 0)
(3.01623 0.0141436 0)
(3.00063 0.00069492 0)
(3 6.04965e-06 0)
(3 2.74584e-08 0)
(3 1.20598e-10 0)
(2.01554 -0.799531 0)
(2.08071 -0.675753 0)
(1.88315 -0.803121 0)
(1.80669 -0.857388 0)
(1.75841 -0.879561 0)
(1.70665 -0.910698 0)
(1.68222 -0.919502 0)
(1.64253 -0.934859 0)
(1.61875 -0.940787 0)
(1.60062 -0.945629 0)
(1.59766 -0.950465 0)
(1.58802 -0.958266 0)
(1.58302 -0.964433 0)
(1.58746 -0.960843 0)
(1.82835 -0.803224 0)
(2.70112 -0.265109 0)
(2.99348 -0.011897 0)
(2.99996 -7.98474e-05 0)
(3 -3.47388e-07 0)
(3 -1.09711e-09 0)
(2.60317 -0.828111 0)
(2.53036 -0.2593 0)
(2.2711 -0.513872 0)
(2.15814 -0.647992 0)
(2.02309 -0.765022 0)
(1.97222 -0.794105 0)
(1.88591 -0.849421 0)
(1.8336 -0.87425 0)
(1.78397 -0.892237 0)
(1.74116 -0.912851 0)
(1.71598 -0.927439 0)
(1.69069 -0.940089 0)
(1.67321 -0.941814 0)
(1.63791 -0.951376 0)
(1.65285 -0.936739 0)
(2.03695 -0.758516 0)
(2.84074 -0.178311 0)
(2.99769 -0.00531853 0)
(2.99999 -3.30518e-05 0)
(3 -1.32949e-07 0)
(2.76218 -0.156632 0)
(2.7674 0.172693 0)
(2.5422 -0.19627 0)
(2.40853 -0.385797 0)
(2.29111 -0.541587 0)
(2.17606 -0.657909 0)
(2.07243 -0.751837 0)
(2.01509 -0.787312 0)
(1.92417 -0.842913 0)
(1.88158 -0.861133 0)
(1.82955 -0.895198 0)
(1.7896 -0.916257 0)
(1.75759 -0.919849 0)
(1.72601 -0.92378 0)
(1.68966 -0.933842 0)
(1.73511 -0.942783 0)
(2.2996 -0.627037 0)
(2.9283 -0.0912854 0)
(2.99921 -0.00152138 0)
(3 -7.23785e-06 0)
(2.85274 0.111329 0)
(2.79543 0.300229 0)
(2.62707 -0.115741 0)
(2.54822 -0.271543 0)
(2.48203 -0.36191 0)
(2.32423 -0.543796 0)
(2.2607 -0.61022 0)
(2.1515 -0.705699 0)
(2.0739 -0.761968 0)
(2.01203 -0.795206 0)
(1.95472 -0.836269 0)
(1.89631 -0.871756 0)
(1.85226 -0.880601 0)
(1.80817 -0.890815 0)
(1.76434 -0.919638 0)
(1.75146 -0.942769 0)
(1.96281 -0.865784 0)
(2.65875 -0.374887 0)
(2.98734 -0.0232062 0)
(2.9999 -0.000171913 0)
(2.80133 0.201304 0)
(2.78748 0.274783 0)
(2.67869 0.0745653 0)
(2.68086 0.0601001 0)
(2.58536 -0.209672 0)
(2.49432 -0.360147 0)
(2.41633 -0.455568 0)
(2.29082 -0.58783 0)
(2.23332 -0.630108 0)
(2.13379 -0.714303 0)
(2.07642 -0.756587 0)
(2.00219 -0.812438 0)
(1.94078 -0.83881 0)
(1.89878 -0.85583 0)
(1.84551 -0.892656 0)
(1.79765 -0.932063 0)
(1.84647 -0.932922 0)
(2.2264 -0.726461 0)
(2.87718 -0.152665 0)
(2.99793 -0.00324098 0)
(2.81073 0.186601 0)
(2.80255 0.227671 0)
(2.74592 0.202281 0)
(2.71974 0.214563 0)
(2.67144 0.0158251 0)
(2.62798 -0.118058 0)
(2.51329 -0.324033 0)
(2.42845 -0.440462 0)
(2.33493 -0.551762 0)
(2.23355 -0.653574 0)
(2.16669 -0.70835 0)
(2.08452 -0.772788 0)
(2.02069 -0.806957 0)
(1.98569 -0.825871 0)
(1.91256 -0.868232 0)
(1.86363 -0.906284 0)
(1.86143 -0.927881 0)
(2.01353 -0.880631 0)
(2.59084 -0.449658 0)
(2.97564 -0.0302962 0)
(2.82011 0.171764 0)
(2.80975 0.165819 0)
(2.74904 0.211851 0)
(2.73862 0.230989 0)
(2.71007 0.035125 0)
(2.67326 -0.0736601 0)
(2.58418 -0.233723 0)
(2.51671 -0.350169 0)
(2.39932 -0.502789 0)
(2.33041 -0.577143 0)
(2.23964 -0.661307 0)
(2.18511 -0.698858 0)
(2.10788 -0.752282 0)
(2.07161 -0.779996 0)
(2.00098 -0.822986 0)
(1.93977 -0.859181 0)
(1.89021 -0.91376 0)
(1.95914 -0.925015 0)
(2.30952 -0.705222 0)
(2.86947 -0.122783 0)
(2.81928 0.159461 0)
(2.80346 0.154947 0)
(2.74516 0.207284 0)
(2.73175 0.210722 0)
(2.70858 0.0891026 0)
(2.71741 0.0329631 0)
(2.65508 -0.128981 0)
(2.58552 -0.257759 0)
(2.5042 -0.377127 0)
(2.4414 -0.442042 0)
(2.33963 -0.554186 0)
(2.2842 -0.587743 0)
(2.19059 -0.676153 0)
(2.14043 -0.735093 0)
(2.07334 -0.784928 0)
(1.99634 -0.835954 0)
(1.94208 -0.891664 0)
(1.96702 -0.919302 0)
(2.16697 -0.843325 0)
(2.61615 -0.344087 0)
(2.80602 0.158129 0)
(2.77841 0.15715 0)
(2.74168 0.18293 0)
(2.73602 0.203656 0)
(2.74424 0.162705 0)
(2.75521 0.184775 0)
(2.71691 0.0425759 0)
(2.66175 -0.104984 0)
(2.59732 -0.224676 0)
(2.50815 -0.34192 0)
(2.42512 -0.441553 0)
(2.33856 -0.541506 0)
(2.25435 -0.62992 0)
(2.19709 -0.70281 0)
(2.13334 -0.759648 0)
(2.05239 -0.814527 0)
(2.01079 -0.849724 0)
(1.99247 -0.903122 0)
(2.09083 -0.939067 0)
(2.37445 -0.5025 0)
(2.79206 0.14987 0)
(2.77251 0.141813 0)
(2.75469 0.151226 0)
(2.74649 0.175543 0)
(2.76201 0.174476 0)
(2.7862 0.203986 0)
(2.75287 0.0755662 0)
(2.70806 -0.0407149 0)
(2.65496 -0.15624 0)
(2.54316 -0.329942 0)
(2.47529 -0.406689 0)
(2.37465 -0.524213 0)
(2.30921 -0.598433 0)
(2.26804 -0.653382 0)
(2.18113 -0.729352 0)
(2.12801 -0.759989 0)
(2.07436 -0.798989 0)
(2.02672 -0.889416 0)
(2.07167 -0.938029 0)
(2.14652 -0.579675 0)