/*--------------------------------*- C++ -*----------------------------------*\
  =========                 |
  \\      /  F ield         | OpenFOAM: The Open Source CFD Toolbox
   \\    /   O peration     | Website:  https://openfoam.org
    \\  /    A nd           | Version:  7
     \\/     M anipulation  |
\*---------------------------------------------------------------------------*/
FoamFile
{
    version     2.0;
    format      ascii;
    class       volScalarField;
    location    "1";
    object      T;
}
// * * * * * * * * * * * * * * * * * * * * * * * * * * * * * * * * * * * * * //

dimensions      [0 0 0 1 0 0 0];

internalField   nonuniform List<scalar> 
60000
(
0.60806
0.67719
0.73573
0.963322
1.01058
0.968938
0.984502
1.10525
1.17475
1.17367
1.19061
1.26623
1.31888
1.33263
1.34098
1.35281
1.3624
1.36894
1.36007
1.3373
1.3266
1.33183
1.33408
1.32164
1.30462
1.28703
1.28848
1.28954
1.28778
1.28375
1.2789
1.26685
1.25122
1.23942
1.22201
1.20309
1.18828
1.18168
1.17798
1.17475
1.1719
1.16783
1.16175
1.15541
1.14621
1.13544
1.12527
1.11529
1.10606
1.09528
1.08415
1.07462
1.06643
1.0587
1.05045
1.0409
1.02878
1.01545
1.00446
0.994507
0.984739
0.975833
0.968238
0.959722
0.952173
0.946447
0.941437
0.938207
0.935706
0.932475
0.930567
0.931066
0.930766
0.93093
0.931437
0.933745
0.938916
0.945221
0.951069
0.955095
0.963185
0.97469
0.983404
0.993987
0.999722
1.00429
1.01071
1.01519
1.02336
1.03617
1.04251
1.04221
1.03994
1.0483
1.05776
1.05226
1.02962
0.998285
0.983668
0.983577
0.428221
0.428152
0.428127
0.428296
0.42823
0.428131
0.428181
0.43172
0.464839
0.491902
0.541874
0.656056
0.806225
0.893977
0.996791
1.10195
1.19008
1.22571
1.25989
1.31077
1.36433
1.40128
1.40779
1.39026
1.38475
1.38148
1.37048
1.36535
1.3631
1.3577
1.34835
1.34067
1.33938
1.33391
1.31981
1.30918
1.30428
1.30492
1.30384
1.29927
1.29048
1.27991
1.27126
1.26494
1.25814
1.24918
1.2393
1.22939
1.21854
1.20625
1.19534
1.18623
1.17661
1.1654
1.15187
1.13522
1.11432
1.09232
1.07386
1.0589
1.04379
1.02873
1.01449
1.00116
0.988386
0.975921
0.964272
0.95396
0.94698
0.940379
0.938484
0.937976
0.936389
0.935341
0.935752
0.938946
0.944676
0.951611
0.956708
0.960436
0.968604
0.979421
0.987688
0.995993
1.00051
1.00533
1.01207
1.01722
1.02735
1.04137
1.0463
1.04464
1.04037
1.04796
1.05767
1.05222
1.02943
0.997977
0.983352
0.983305
0.429022
0.428972
0.428938
0.429216
0.429386
0.429045
0.429101
0.429209
0.429267
0.430208
0.430673
0.43024
0.430446
0.431446
0.432097
0.444374
0.494699
0.577459
0.711501
0.884594
1.03216
1.13643
1.23805
1.30978
1.3818
1.40058
1.40417
1.42248
1.41897
1.40413
1.39454
1.38874
1.37486
1.36768
1.36578
1.36677
1.37102
1.36815
1.36214
1.35279
1.34595
1.342
1.3397
1.33786
1.33523
1.33141
1.32559
1.3178
1.30874
1.29875
1.29027
1.28527
1.28024
1.27207
1.25966
1.24184
1.21998
1.19708
1.17823
1.16188
1.14345
1.12334
1.10245
1.0822
1.06222
1.04179
1.02161
1.00282
0.987628
0.972823
0.962117
0.954505
0.951154
0.949656
0.949789
0.95186
0.957166
0.96361
0.967379
0.971162
0.980401
0.988636
0.994
1.00028
1.0034
1.00911
1.01652
1.02524
1.03995
1.05697
1.05851
1.05301
1.04385
1.04928
1.05803
1.05228
1.02883
0.997165
0.982852
0.982946
0.429857
0.429886
0.430044
0.430345
0.430095
0.430193
0.430508
0.430942
0.431479
0.43251
0.433308
0.43319
0.43348
0.434431
0.436133
0.436485
0.436945
0.437739
0.438727
0.43969
0.440567
0.462123
0.574729
0.773005
1.00203
1.22287
1.35813
1.4549
1.44694
1.42665
1.42571
1.41803
1.4024
1.40786
1.40825
1.39901
1.39437
1.38286
1.36884
1.36086
1.36208
1.36453
1.36384
1.3609
1.35872
1.3577
1.35556
1.353
1.34964
1.34589
1.34224
1.33916
1.33555
1.33023
1.32161
1.31
1.29604
1.28065
1.26878
1.25844
1.24489
1.22791
1.20872
1.18805
1.16651
1.14337
1.11815
1.09158
1.06541
1.04144
1.02382
1.01044
1.00176
0.993887
0.986032
0.986895
0.989503
0.992526
0.993832
0.996199
1.00403
1.00963
1.01162
1.01391
1.01702
1.02363
1.03373
1.04628
1.06474
1.08176
1.08068
1.06987
1.0535
1.05374
1.05941
1.0532
1.02812
0.995774
0.982081
0.982448
0.431377
0.43154
0.43201
0.432256
0.432498
0.432958
0.433519
0.43403
0.434818
0.435797
0.437039
0.437561
0.437685
0.438314
0.43945
0.440885
0.442296
0.443505
0.444272
0.444715
0.445667
0.447147
0.448241
0.448404
0.448164
0.54476
0.800708
1.09888
1.2822
1.36663
1.42936
1.42383
1.41398
1.42671
1.42545
1.41339
1.39722
1.37664
1.36333
1.36357
1.37014
1.3759
1.37399
1.37009
1.36707
1.36473
1.36205
1.36021
1.35789
1.35456
1.34979
1.34525
1.34144
1.33805
1.33433
1.32991
1.32492
1.31918
1.31446
1.30901
1.30149
1.29234
1.28216
1.27031
1.25656
1.24106
1.22241
1.19992
1.17489
1.1501
1.12882
1.10999
1.09338
1.0773
1.06228
1.05174
1.04502
1.04275
1.04254
1.04498
1.05073
1.05455
1.05935
1.06416
1.06853
1.07472
1.08302
1.09517
1.11309
1.12127
1.11429
1.09548
1.07038
1.06225
1.06345
1.0545
1.02626
0.993456
0.980942
0.981768
0.434419
0.434969
0.435487
0.43608
0.43671
0.437213
0.437884
0.438664
0.439542
0.441023
0.442278
0.443032
0.443554
0.444067
0.444538
0.445137
0.446416
0.448217
0.449627
0.449955
0.449903
0.449995
0.45118
0.452294
0.452635
0.452459
0.452235
0.454484
0.587005
0.820031
1.05726
1.19033
1.29065
1.39385
1.43278
1.43147
1.42029
1.38767
1.36323
1.36603
1.37372
1.37727
1.37484
1.37155
1.3674
1.36335
1.35945
1.35579
1.35124
1.34575
1.34082
1.33715
1.33432
1.33199
1.33037
1.32875
1.32672
1.32391
1.3203
1.31448
1.30863
1.30525
1.30277
1.29946
1.29415
1.28715
1.28055
1.27302
1.26283
1.25204
1.24143
1.22983
1.2183
1.20363
1.187
1.17157
1.15874
1.15163
1.14542
1.13656
1.139
1.14376
1.14523
1.14543
1.14321
1.14169
1.14413
1.15074
1.15326
1.14702
1.13191
1.10844
1.08459
1.07351
1.06943
1.0552
1.02348
0.990524
0.979577
0.980948
0.438935
0.439728
0.440492
0.441108
0.441853
0.44265
0.443509
0.444483
0.445349
0.446255
0.447486
0.448501
0.448877
0.449081
0.449845
0.450607
0.451142
0.451928
0.453181
0.45392
0.453964
0.453577
0.45346
0.454099
0.454611
0.454637
0.454684
0.454568
0.454589
0.454331
0.454552
0.532234
0.722639
0.97422
1.16157
1.28453
1.36696
1.37766
1.36188
1.36195
1.37234
1.3725
1.36728
1.36143
1.35592
1.35064
1.34822
1.34526
1.3411
1.3358
1.33056
1.32636
1.32388
1.32372
1.3241
1.32488
1.32382
1.32082
1.31602
1.30976
1.30505
1.30417
1.30424
1.30401
1.30226
1.2995
1.29902
1.30011
1.30213
1.30503
1.30803
1.30999
1.30855
1.30191
1.29295
1.28391
1.27675
1.27143
1.26263
1.25283
1.24707
1.23853
1.2272
1.21423
1.19945
1.18793
1.18127
1.17761
1.16612
1.14524
1.12444
1.10373
1.0886
1.08089
1.074
1.05536
1.02019
0.987399
0.978213
0.980071
0.445216
0.445884
0.446516
0.447156
0.447853
0.448497
0.449142
0.449944
0.450962
0.4515
0.451681
0.452285
0.453026
0.453429
0.453964
0.454732
0.454914
0.454915
0.455409
0.456081
0.456346
0.456196
0.455705
0.455686
0.455812
0.455632
0.455555
0.455679
0.455871
0.455712
0.454593
0.453273
0.452389
0.45226
0.514067
0.70755
0.95114
1.13473
1.2478
1.31836
1.35031
1.35008
1.34793
1.34482
1.34098
1.3375
1.33906
1.33996
1.33733
1.33245
1.32718
1.31989
1.31632
1.31336
1.31357
1.31495
1.31472
1.31226
1.30764
1.30313
1.29929
1.30078
1.30375
1.30445
1.30296
1.30046
1.30052
1.3035
1.30982
1.31817
1.32629
1.3339
1.33697
1.33659
1.33606
1.33508
1.33262
1.32544
1.31215
1.30026
1.28815
1.27106
1.25145
1.22884
1.20802
1.1929
1.1816
1.16888
1.14652
1.11203
1.08996
1.08296
1.082
1.08096
1.07433
1.05382
1.01612
0.984477
0.976975
0.979194
0.451058
0.451578
0.452097
0.452422
0.452866
0.453392
0.453893
0.454311
0.454807
0.455177
0.455308
0.455648
0.456199
0.456345
0.456416
0.456829
0.457175
0.457114
0.456967
0.457171
0.457371
0.457314
0.456927
0.456699
0.456631
0.456424
0.456176
0.45626
0.456341
0.456113
0.454873
0.453987
0.45406
0.454166
0.453791
0.453042
0.45189
0.505128
0.686779
0.91632
1.10624
1.20619
1.28356
1.31049
1.31872
1.32155
1.32833
1.3354
1.33319
1.32906
1.32233
1.31405
1.30724
1.3022
1.30232
1.30461
1.30616
1.30504
1.30187
1.29717
1.29283
1.29392
1.29635
1.29785
1.29771
1.29753
1.29938
1.30516
1.31493
1.32509
1.33337
1.3387
1.33885
1.3374
1.33414
1.32801
1.31898
1.30649
1.29339
1.28071
1.26424
1.24368
1.22178
1.20016
1.18251
1.16982
1.15562
1.13191
1.09298
1.0484
1.03655
1.04003
1.05438
1.06753
1.06503
1.04659
1.01042
0.981816
0.975876
0.97837
0.455751
0.455828
0.456201
0.456459
0.456632
0.456871
0.457043
0.457192
0.457431
0.457505
0.457522
0.457753
0.458096
0.458099
0.457976
0.458035
0.458162
0.458124
0.457791
0.457786
0.457794
0.45773
0.457541
0.457356
0.457363
0.457323
0.456848
0.456614
0.456549
0.456328
0.455707
0.455052
0.455016
0.455172
0.455156
0.454718
0.454351
0.453945
0.453306
0.447661
0.484193
0.650322
0.894084
1.07466
1.18964
1.26791
1.30004
1.32116
1.32113
1.32106
1.31726
1.30822
1.29828
1.28982
1.28891
1.29067
1.2931
1.29489
1.29459
1.29001
1.28444
1.28468
1.28644
1.28862
1.29039
1.29274
1.29701
1.30449
1.31321
1.32007
1.32368
1.32264
1.31575
1.30333
1.28811
1.27351
1.25912
1.24399
1.22873
1.21262
1.19571
1.17943
1.16217
1.14299
1.12696
1.11449
1.09673
1.06712
1.02406
0.985436
0.982656
0.992706
1.01578
1.04332
1.04704
1.03322
1.00174
0.978935
0.974919
0.977654
0.458488
0.458485
0.458607
0.458771
0.458795
0.458755
0.458706
0.458716
0.458803
0.458976
0.45912
0.459182
0.45916
0.458915
0.458751
0.458763
0.458775
0.458707
0.458383
0.458323
0.458303
0.458256
0.458203
0.457986
0.457754
0.457685
0.457568
0.457165
0.456709
0.456683
0.456669
0.456408
0.456069
0.456202
0.456348
0.45628
0.455999
0.455813
0.45574
0.455114
0.451233
0.438491
0.42261
0.470671
0.65427
0.895912
1.05546
1.17678
1.24546
1.28842
1.3022
1.29744
1.29192
1.2853
1.28301
1.28289
1.28218
1.28507
1.28706
1.2837
1.2783
1.27666
1.27661
1.27834
1.28016
1.28274
1.2867
1.29282
1.29899
1.30076
1.29887
1.29075
1.27488
1.2522
1.22735
1.20472
1.18436
1.16668
1.15091
1.13564
1.12064
1.10511
1.08803
1.07208
1.06119
1.05165
1.03628
1.01256
0.978682
0.954076
0.953348
0.959586
0.976178
1.00106
1.01298
1.00783
0.989697
0.976281
0.974007
0.977023
0.459653
0.459671
0.459674
0.459595
0.459487
0.459426
0.459424
0.459516
0.459662
0.459666
0.459669
0.459668
0.459448
0.459151
0.459165
0.459168
0.459169
0.459114
0.458787
0.458574
0.458518
0.458517
0.458563
0.458569
0.45841
0.458084
0.458003
0.457941
0.457713
0.457542
0.457558
0.457623
0.457608
0.457609
0.457697
0.45786
0.457893
0.457842
0.457809
0.45766
0.456158
0.449422
0.434484
0.421991
0.419853
0.419588
0.46437
0.633739
0.859319
1.01556
1.1429
1.21574
1.26407
1.2706
1.26796
1.2684
1.26675
1.27071
1.27408
1.27293
1.26941
1.2666
1.2657
1.26548
1.26516
1.26595
1.26743
1.2677
1.26617
1.26053
1.24994
1.23359
1.21224
1.18747
1.16328
1.14143
1.12179
1.10514
1.09012
1.07664
1.06531
1.05433
1.04218
1.0307
1.02202
1.01211
0.998915
0.98122
0.958259
0.945378
0.94477
0.946656
0.953084
0.966096
0.98102
0.982697
0.977212
0.973061
0.972705
0.976375
0.459859
0.459829
0.459728
0.45973
0.459743
0.459712
0.45964
0.459655
0.459745
0.459827
0.459842
0.45981
0.459512
0.459207
0.459196
0.459192
0.459231
0.459296
0.459295
0.459189
0.458908
0.458755
0.458743
0.458811
0.458964
0.459022
0.459056
0.459056
0.458972
0.458914
0.458921
0.458963
0.45906
0.459234
0.459281
0.459342
0.459548
0.459619
0.459617
0.459604
0.459095
0.45581
0.445088
0.429208
0.421836
0.420846
0.420331
0.419848
0.41932
0.441616
0.580982
0.805797
0.975483
1.10198
1.16718
1.22164
1.24992
1.25595
1.25256
1.25442
1.25452
1.25178
1.24914
1.24572
1.24083
1.23908
1.2354
1.22873
1.21942
1.20781
1.19265
1.17399
1.15374
1.13269
1.11415
1.09882
1.08553
1.07379
1.06191
1.05117
1.04237
1.03281
1.02078
1.00919
0.99968
0.990527
0.980214
0.967169
0.952081
0.945071
0.944081
0.944009
0.945464
0.951334
0.961127
0.967181
0.967016
0.968667
0.970424
0.975752
0.459685
0.459728
0.459747
0.459737
0.459616
0.459539
0.45958
0.459651
0.459747
0.459787
0.459788
0.459689
0.459441
0.459414
0.459443
0.459445
0.459449
0.45951
0.459696
0.45981
0.459836
0.45984
0.45975
0.459735
0.459801
0.459987
0.460275
0.460561
0.460582
0.46056
0.460462
0.46034
0.460342
0.460478
0.460684
0.460719
0.460758
0.460892
0.461072
0.46119
0.461072
0.459668
0.453183
0.438178
0.425143
0.421767
0.420995
0.420205
0.419298
0.417961
0.416868
0.415556
0.419291
0.523019
0.713503
0.895668
1.03637
1.11694
1.16874
1.20536
1.22556
1.22042
1.22048
1.22104
1.21606
1.20895
1.19976
1.18748
1.17304
1.15836
1.14173
1.12392
1.10746
1.09173
1.07894
1.06897
1.06005
1.0511
1.04076
1.03111
1.02299
1.01346
1.00269
0.993566
0.987748
0.981598
0.97257
0.961391
0.95164
0.946832
0.944525
0.943942
0.944861
0.94872
0.954892
0.959179
0.961471
0.96516
0.967871
0.974531
0.4596
0.459633
0.459662
0.459699
0.459701
0.459641
0.459639
0.459764
0.45994
0.459967
0.460008
0.460096
0.460151
0.460237
0.460356
0.460435
0.460522
0.460648
0.460781
0.461001
0.461063
0.461039
0.460939
0.460943
0.461116
0.461418
0.461603
0.461893
0.462082
0.462064
0.461979
0.461733
0.461595
0.461609
0.461728
0.461708
0.461501
0.461562
0.462245
0.462996
0.463067
0.462421
0.45791
0.44471
0.429163
0.42294
0.421188
0.419731
0.417786
0.415946
0.414562
0.41335
0.412293
0.411522
0.411182
0.410744
0.454736
0.598662
0.778056
0.915903
1.02295
1.09056
1.12363
1.1435
1.14578
1.14438
1.14112
1.13411
1.12426
1.11464
1.10382
1.09216
1.08124
1.07119
1.06186
1.05194
1.04243
1.03238
1.02185
1.01444
1.00732
0.999192
0.990908
0.984602
0.981293
0.975239
0.965699
0.955789
0.950542
0.947615
0.944496
0.94316
0.944109
0.948278
0.954567
0.958499
0.960131
0.962697
0.965089
0.972531
0.460449
0.460441
0.460459
0.460502
0.460565
0.4606
0.460641
0.460728
0.460818
0.460889
0.460952
0.461003
0.461038
0.461088
0.461171
0.461263
0.46143
0.461601
0.461681
0.461732
0.461747
0.461725
0.461737
0.461858
0.462019
0.462205
0.462396
0.462645
0.463012
0.46307
0.463016
0.462701
0.462427
0.462399
0.462516
0.462628
0.462736
0.463113
0.464218
0.46529
0.465421
0.464743
0.460018
0.447095
0.431826
0.424205
0.421069
0.418786
0.416567
0.414506
0.412977
0.411996
0.411189
0.410615
0.410617
0.410524
0.41048
0.410516
0.411018
0.412219
0.482717
0.628378
0.755191
0.850002
0.923919
0.969479
0.993347
1.00849
1.01726
1.02088
1.02244
1.02018
1.01643
1.0159
1.01443
1.01117
1.00842
1.00548
1.00208
1.001
0.997173
0.990538
0.983754
0.979244
0.974147
0.965684
0.955832
0.949379
0.947806
0.945599
0.942193
0.941005
0.942248
0.947031
0.953758
0.958375
0.959873
0.961142
0.962885
0.970611
0.461412
0.461452
0.461455
0.461464
0.46149
0.461498
0.461524
0.461575
0.461679
0.461692
0.461676
0.461699
0.461761
0.461784
0.46179
0.461861
0.461994
0.462062
0.462115
0.462119
0.462076
0.462094
0.462222
0.462515
0.462814
0.462923
0.463022
0.463175
0.463453
0.463711
0.463714
0.463472
0.463292
0.463381
0.463741
0.46443
0.465218
0.466176
0.46706
0.467214
0.467154
0.466084
0.460538
0.446838
0.432374
0.426234
0.423689
0.420981
0.417334
0.414168
0.41244
0.411508
0.410868
0.410603
0.410618
0.410843
0.411448
0.413533
0.417476
0.423405
0.428869
0.432744
0.436753
0.440135
0.471115
0.53248
0.599644
0.666265
0.724618
0.767437
0.804377
0.834218
0.858284
0.884334
0.908142
0.928553
0.946783
0.962067
0.971343
0.975474
0.974258
0.970591
0.968356
0.967782
0.961979
0.952171
0.943699
0.943073
0.942671
0.940415
0.936618
0.936035
0.937892
0.943194
0.949629
0.95467
0.957496
0.959795
0.961294
0.968918
0.462039
0.462053
0.462132
0.462152
0.462135
0.462076
0.462074
0.462075
0.462135
0.462174
0.462155
0.462149
0.46217
0.462191
0.462194
0.462197
0.462208
0.462212
0.462184
0.462188
0.462249
0.462364
0.462488
0.462727
0.463187
0.463483
0.463475
0.463555
0.463837
0.46417
0.464395
0.464587
0.464854
0.4652
0.465692
0.466453
0.467123
0.467482
0.467713
0.467779
0.467632
0.466065
0.459067
0.44434
0.432451
0.429256
0.428369
0.427082
0.424049
0.419533
0.415764
0.414083
0.414059
0.414256
0.41526
0.417862
0.421963
0.426727
0.431687
0.436393
0.439862
0.443711
0.447486
0.451292
0.455172
0.459354
0.463562
0.468207
0.473231
0.478253
0.483555
0.499395
0.524969
0.562783
0.610067
0.663853
0.719914
0.774153
0.823241
0.860441
0.890346
0.914039
0.932063
0.943755
0.940813
0.934857
0.933615
0.934391
0.933396
0.930459
0.927296
0.928302
0.931475
0.936376
0.941559
0.946579
0.951004
0.955224
0.95816
0.967184
0.462797
0.462844
0.462843
0.462815
0.462751
0.462708
0.462634
0.462611
0.462632
0.462657
0.462822
0.46288
0.462834
0.462848
0.462898
0.463036
0.463117
0.463124
0.463082
0.463055
0.463171
0.463361
0.463491
0.463686
0.464017
0.46458
0.464917
0.465108
0.465473
0.465761
0.465828
0.466009
0.466501
0.467061
0.467448
0.467613
0.467596
0.467337
0.467016
0.46689
0.466552
0.463968
0.454459
0.43949
0.43306
0.432904
0.43343
0.433861
0.433265
0.431137
0.428767
0.42757
0.427603
0.428269
0.429456
0.431387
0.434282
0.437587
0.441005
0.444607
0.447629
0.450864
0.454829
0.458431
0.462865
0.468212
0.47288
0.477713
0.483312
0.489156
0.494921
0.500517
0.506962
0.513765
0.520125
0.526816
0.534573
0.54214
0.562954
0.598336
0.648058
0.70675
0.76098
0.802797
0.840745
0.874819
0.900174
0.910041
0.911383
0.913618
0.917925
0.924471
0.930167
0.932827
0.934499
0.937835
0.942385
0.94786
0.952751
0.964794
0.464007
0.464172
0.464251
0.464243
0.464206
0.464163
0.46417
0.464131
0.464072
0.464055
0.464119
0.464229
0.464223
0.464233
0.464353
0.464513
0.464551
0.464599
0.464632
0.464678
0.464818
0.465066
0.465268
0.465519
0.46585
0.46617
0.466453
0.466736
0.467039
0.467296
0.467487
0.467676
0.46768
0.467655
0.467817
0.467923
0.467912
0.467803
0.467533
0.467007
0.465693
0.461472
0.451282
0.440514
0.438083
0.438406
0.439844
0.442165
0.443584
0.443963
0.44402
0.44304
0.441335
0.441172
0.441655
0.442422
0.443891
0.446011
0.448437
0.45179
0.455293
0.45865
0.462884
0.467256
0.471226
0.476633
0.482319
0.487758
0.49315
0.499177
0.505553
0.511604
0.517815
0.52524
0.532633
0.539423
0.54708
0.55568
0.563711
0.572966
0.581454
0.590611
0.600887
0.617684
0.645191
0.685635
0.735865
0.784793
0.82848
0.868628
0.899064
0.914491
0.921791
0.926366
0.930528
0.933919
0.937222
0.942105
0.947288
0.961842
0.466492
0.466673
0.46675
0.466788
0.466853
0.466852
0.46686
0.466869
0.4668
0.466684
0.466599
0.466594
0.466645
0.466669
0.466708
0.466806
0.466868
0.466938
0.466935
0.466885
0.466897
0.467095
0.467256
0.467406
0.467653
0.467924
0.468117
0.468296
0.468624
0.468854
0.468889
0.468872
0.468758
0.468523
0.468488
0.46844
0.468299
0.468085
0.467777
0.467091
0.46527
0.46065
0.452196
0.446399
0.445966
0.446636
0.448302
0.450387
0.452388
0.453498
0.453613
0.453001
0.452375
0.45272
0.453516
0.453461
0.453707
0.455126
0.457082
0.45971
0.463759
0.468144
0.472368
0.477659
0.482699
0.487363
0.493118
0.499099
0.504729
0.510461
0.5167
0.523466
0.529597
0.536071
0.54398
0.551593
0.558783
0.567063
0.575908
0.58464
0.593869
0.603522
0.613345
0.62344
0.634012
0.644669
0.657488
0.674273
0.700404
0.741819
0.794421
0.842193
0.876613
0.898583
0.912853
0.921821
0.927882
0.933695
0.93934
0.957262
0.470265
0.470269
0.470247
0.470235
0.470207
0.470116
0.469965
0.469881
0.469829
0.469706
0.46959
0.469466
0.469416
0.469423
0.469443
0.469454
0.46946
0.469436
0.469316
0.469284
0.469289
0.469363
0.469461
0.469575
0.469755
0.469958
0.470096
0.470099
0.470098
0.470102
0.470083
0.469856
0.469458
0.469453
0.469455
0.46925
0.468913
0.468555
0.468141
0.467436
0.465568
0.461045
0.456324
0.455317
0.455638
0.456491
0.45762
0.458515
0.459531
0.46136
0.463428
0.465379
0.468013
0.469339
0.469106
0.468949
0.469883
0.471544
0.473619
0.475798
0.478819
0.483164
0.487806
0.492426
0.497669
0.502363
0.507296
0.512634
0.518312
0.524147
0.529911
0.536218
0.543162
0.54943
0.556036
0.563978
0.571753
0.579417
0.58808
0.596993
0.606051
0.615389
0.625468
0.635889
0.647033
0.657748
0.669433
0.682467
0.696755
0.712359
0.732151
0.761582
0.799832
0.838153
0.86841
0.890325
0.906268
0.919758
0.931278
0.958129
0.470731
0.470673
0.470737
0.470751
0.470726
0.470688
0.470533
0.470463
0.470545
0.470651
0.470597
0.470587
0.470575
0.470607
0.470725
0.470753
0.470704
0.470795
0.470833
0.470799
0.470862
0.47101
0.471295
0.471499
0.471578
0.47156
0.471623
0.471954
0.472195
0.472156
0.472051
0.472238
0.472562
0.47274
0.472757
0.47235
0.471736
0.471479
0.471116
0.470308
0.468967
0.467918
0.468149
0.468661
0.469411
0.47058
0.472193
0.474045
0.476033
0.478323
0.481135
0.48399
0.486158
0.488334
0.489874
0.490961
0.492146
0.492756
0.493725
0.4952
0.496999
0.499511
0.502851
0.506468
0.510688
0.515425
0.520107
0.525036
0.530296
0.535909
0.541823
0.547528
0.554086
0.561266
0.567708
0.574793
0.583342
0.591602
0.599933
0.609449
0.619074
0.628347
0.638059
0.648638
0.659998
0.67194
0.683962
0.696804
0.710584
0.725553
0.741347
0.759976
0.780736
0.80526
0.832577
0.859756
0.884366
0.907417
0.927886
0.960976
0.474594
0.474745
0.474772
0.474833
0.475021
0.475201
0.47528
0.475368
0.475735
0.476014
0.476236
0.476719
0.476975
0.477074
0.47716
0.477529
0.478381
0.478484
0.478502
0.478636
0.478885
0.479199
0.479512
0.479799
0.480108
0.480508
0.480862
0.481289
0.481778
0.482301
0.48283
0.483372
0.483936
0.484643
0.484977
0.485172
0.485934
0.486679
0.486771
0.486721
0.487068
0.487451
0.48791
0.488801
0.490048
0.491417
0.492827
0.49426
0.495245
0.496309
0.497714
0.499938
0.502318
0.504183
0.506513
0.509077
0.509559
0.50944
0.509884
0.511315
0.512312
0.513421
0.515595
0.518735
0.522313
0.526977
0.531763
0.536674
0.541798
0.547261
0.5536
0.560386
0.566747
0.57392
0.582069
0.589543
0.597065
0.605978
0.615107
0.623856
0.633432
0.644012
0.654349
0.664468
0.67516
0.687462
0.700889
0.714603
0.728195
0.742241
0.757489
0.773341
0.791662
0.812657
0.835926
0.860325
0.884756
0.909257
0.931948
0.967763
0.485035
0.485179
0.485527
0.485813
0.485942
0.486058
0.486081
0.486149
0.486462
0.486916
0.487167
0.487491
0.487669
0.487886
0.48813
0.48839
0.489219
0.48966
0.489745
0.489889
0.490163
0.490682
0.491114
0.49139
0.491707
0.492144
0.492531
0.492972
0.493522
0.494199
0.49485
0.495441
0.496136
0.496973
0.498133
0.498813
0.499116
0.499542
0.499918
0.500405
0.501375
0.501897
0.502401
0.503338
0.504215
0.50503
0.505968
0.507161
0.50771
0.508619
0.510005
0.512026
0.514212
0.516046
0.517909
0.521083
0.523622
0.52482
0.525875
0.526693
0.528023
0.529294
0.530885
0.533463
0.536972
0.541084
0.546077
0.551386
0.557116
0.563292
0.569533
0.576573
0.58419
0.591394
0.598929
0.607361
0.615734
0.62397
0.632878
0.642254
0.651596
0.660978
0.671135
0.682132
0.693647
0.705302
0.717833
0.731764
0.7469
0.762522
0.778064
0.793793
0.81061
0.829393
0.850397
0.873093
0.896735
0.921416
0.945644
0.978595
0.495638
0.495924
0.496187
0.496573
0.496923
0.496977
0.497277
0.497578
0.49754
0.497687
0.498421
0.498786
0.499003
0.499231
0.499436
0.499861
0.500344
0.500775
0.501282
0.501733
0.502223
0.502604
0.503033
0.503462
0.503929
0.504459
0.505059
0.505683
0.506428
0.507099
0.507814
0.508461
0.509026
0.509646
0.510566
0.511352
0.511969
0.512628
0.513413
0.514378
0.515501
0.51688
0.517961
0.518924
0.520269
0.521493
0.522503
0.523495
0.524864
0.526454
0.527958
0.529587
0.531833
0.534284
0.536609
0.538946
0.542535
0.546702
0.548726
0.550138
0.551669
0.553593
0.555221
0.557098
0.559857
0.563331
0.567518
0.572479
0.577818
0.583342
0.589316
0.595636
0.602513
0.609949
0.617445
0.625183
0.633557
0.642041
0.650793
0.660117
0.669646
0.679275
0.689451
0.700445
0.712299
0.724858
0.737882
0.751597
0.766389
0.782466
0.799568
0.816976
0.834162
0.851276
0.869294
0.889684
0.913302
0.939487
0.964799
0.989824
0.513644
0.514148
0.51454
0.514766
0.515064
0.515333
0.515575
0.515887
0.516233
0.516852
0.517585
0.518002
0.518173
0.518343
0.51869
0.51932
0.519805
0.5202
0.520584
0.521193
0.52177
0.522321
0.522965
0.523633
0.524075
0.524456
0.525004
0.525798
0.526561
0.527181
0.527754
0.528426
0.529257
0.53008
0.530866
0.531694
0.532463
0.533216
0.533901
0.534754
0.535766
0.537
0.538155
0.539205
0.540308
0.541575
0.542852
0.544003
0.545343
0.546974
0.5486
0.550253
0.552159
0.554606
0.556861
0.559133
0.56145
0.565009
0.568092
0.57036
0.572679
0.574958
0.577065
0.578611
0.580347
0.582918
0.586305
0.590565
0.595466
0.60096
0.606995
0.613395
0.620207
0.62778
0.635857
0.643708
0.651725
0.660454
0.669406
0.678319
0.687945
0.698436
0.709282
0.720355
0.732166
0.745142
0.759193
0.773863
0.788888
0.804485
0.821158
0.839244
0.858452
0.878148
0.898158
0.919106
0.941694
0.965021
0.984773
0.997281
0.532248
0.532452
0.533012
0.533384
0.533547
0.533726
0.534032
0.534369
0.53471
0.535447
0.535669
0.535732
0.5361
0.536669
0.537216
0.537544
0.537806
0.53813
0.538502
0.538871
0.539331
0.539818
0.540575
0.540837
0.541056
0.54141
0.542051
0.542927
0.543739
0.544209
0.544701
0.545233
0.546319
0.547101
0.547602
0.548186
0.548951
0.549809
0.550647
0.551531
0.552499
0.55378
0.555019
0.556108
0.557208
0.558439
0.559928
0.561497
0.562866
0.564352
0.566255
0.568043
0.569904
0.572253
0.57497
0.577344
0.579788
0.58269
0.586094
0.58887
0.591573
0.595188
0.598204
0.600538
0.602451
0.604557
0.60739
0.610928
0.615571
0.621069
0.626831
0.63316
0.640241
0.647718
0.655732
0.664445
0.673288
0.681936
0.690964
0.70062
0.71053
0.720689
0.731614
0.743508
0.756104
0.769188
0.782908
0.797581
0.813304
0.829866
0.847049
0.864881
0.883583
0.903349
0.92427
0.946181
0.967878
0.986008
0.996438
0.999701
0.551983
0.551858
0.55191
0.552101
0.552475
0.553074
0.553934
0.554233
0.554346
0.554651
0.554849
0.555091
0.555692
0.555793
0.555857
0.556173
0.556822
0.557656
0.558008
0.558189
0.558468
0.558889
0.559473
0.560137
0.560707
0.561213
0.561668
0.562239
0.563304
0.563723
0.564108
0.564967
0.565885
0.566774
0.567744
0.56859
0.569443
0.57045
0.571167
0.571907
0.573164
0.574538
0.576023
0.577408
0.578729
0.580171
0.581768
0.58356
0.585393
0.587166
0.589069
0.591022
0.59328
0.595659
0.598515
0.601317
0.604103
0.607195
0.610796
0.613581
0.616147
0.619379
0.623643
0.62732
0.630208
0.632912
0.635646
0.638992
0.643033
0.647807
0.653414
0.65949
0.665923
0.673072
0.680919
0.68916
0.69777
0.706736
0.715873
0.725256
0.73526
0.746028
0.757413
0.769386
0.78212
0.795737
0.810157
0.825245
0.840999
0.857543
0.874986
0.893343
0.912563
0.932562
0.952998
0.972578
0.988334
0.997098
0.999681
0.99999
0.571116
0.571422
0.571597
0.571829
0.572364
0.572623
0.572728
0.572876
0.57316
0.573867
0.574441
0.574495
0.574574
0.574899
0.575431
0.576085
0.576514
0.576781
0.577104
0.5777
0.578348
0.578751
0.579013
0.579507
0.58035
0.581196
0.581792
0.582351
0.583132
0.584043
0.584898
0.585804
0.586543
0.587338
0.588286
0.589317
0.590425
0.591594
0.592725
0.593835
0.594978
0.596365
0.597973
0.599582
0.601144
0.602746
0.604397
0.606235
0.608227
0.610151
0.612242
0.614559
0.616907
0.619111
0.621815
0.624752
0.62784
0.630848
0.635121
0.638163
0.640327
0.642872
0.646628
0.651167
0.655298
0.658883
0.662298
0.665635
0.669266
0.673605
0.678716
0.684534
0.690937
0.697831
0.70535
0.713629
0.722506
0.731737
0.741295
0.751278
0.761772
0.772887
0.784751
0.797395
0.810758
0.824796
0.839542
0.855047
0.871315
0.888305
0.905976
0.924272
0.943014
0.961614
0.978593
0.991385
0.997984
0.99979
0.999992
1
0.591113
0.59123
0.591605
0.591917
0.592412
0.592748
0.592925
0.593135
0.593606
0.594252
0.594508
0.594724
0.595058
0.595607
0.596228
0.596938
0.597511
0.597855
0.598268
0.59923
0.59992
0.600182
0.600558
0.601256
0.602362
0.603211
0.603797
0.604567
0.605577
0.606502
0.607306
0.608269
0.609567
0.610877
0.611904
0.612763
0.613887
0.615414
0.617147
0.61856
0.619812
0.620989
0.622542
0.624441
0.62634
0.628209
0.63005
0.631928
0.634121
0.636293
0.638441
0.641053
0.643732
0.646145
0.648657
0.651659
0.654898
0.657996
0.661723
0.666036
0.668866
0.671391
0.674592
0.67881
0.683391
0.687898
0.692304
0.696501
0.70051
0.704681
0.709428
0.714915
0.721062
0.72777
0.735057
0.743041
0.751822
0.76134
0.771404
0.781899
0.792885
0.804486
0.816781
0.829789
0.843501
0.857901
0.872969
0.888684
0.905008
0.921851
0.939
0.956016
0.972041
0.985573
0.994746
0.998905
0.999897
0.999996
1
1
0.613806
0.614213
0.614566
0.614781
0.615116
0.615819
0.616038
0.616199
0.616497
0.617079
0.61749
0.617926
0.618528
0.618931
0.619625
0.620556
0.621338
0.622011
0.622694
0.623571
0.624417
0.625025
0.625645
0.626558
0.627691
0.628181
0.628655
0.629424
0.63061
0.631989
0.633216
0.634303
0.635532
0.636992
0.638417
0.639623
0.640776
0.642174
0.643944
0.645705
0.647204
0.648533
0.650169
0.652223
0.65428
0.656303
0.65838
0.660432
0.662576
0.665129
0.667575
0.669888
0.672703
0.675626
0.678281
0.681248
0.684486
0.687681
0.690876
0.694804
0.698879
0.702349
0.705719
0.709625
0.714052
0.718638
0.723388
0.72831
0.733126
0.737754
0.742526
0.747829
0.753815
0.760427
0.767623
0.775519
0.784297
0.79402
0.804561
0.81571
0.827349
0.839501
0.852254
0.865654
0.879679
0.894274
0.909359
0.924809
0.940396
0.955723
0.970138
0.982666
0.992089
0.997544
0.999574
0.999966
0.999999
1
1
1
0.640961
0.641451
0.641975
0.642374
0.642798
0.643265
0.643857
0.64419
0.644551
0.644856
0.645416
0.645849
0.646249
0.646764
0.647541
0.648588
0.649917
0.650716
0.651004
0.651695
0.652717
0.653939
0.65484
0.655545
0.656465
0.657344
0.658095
0.658844
0.659929
0.66139
0.6628
0.663897
0.664995
0.666443
0.668198
0.669981
0.671476
0.672814
0.674254
0.675932
0.677798
0.679678
0.681478
0.683422
0.685544
0.687625
0.689888
0.692171
0.694434
0.696906
0.699673
0.702254
0.704882
0.707987
0.711087
0.714092
0.71734
0.720798
0.72413
0.727645
0.73164
0.735836
0.739945
0.74412
0.748545
0.753181
0.757998
0.763093
0.768427
0.773776
0.779074
0.784566
0.790578
0.797279
0.804679
0.812801
0.821773
0.831718
0.842605
0.854235
0.866382
0.878934
0.891895
0.905279
0.919025
0.932966
0.946835
0.960239
0.972634
0.983319
0.991542
0.996772
0.999198
0.99989
0.999993
1
1
1
1
1
0.674213
0.67468
0.675081
0.675703
0.676144
0.67644
0.676925
0.67747
0.677806
0.678113
0.678642
0.679346
0.679941
0.680283
0.681055
0.681851
0.682863
0.684067
0.684977
0.685745
0.686322
0.686686
0.687474
0.688787
0.690923
0.691903
0.692202
0.692829
0.694085
0.695594
0.696917
0.698075
0.699449
0.700936
0.702437
0.704002
0.705631
0.70731
0.70904
0.710795
0.712571
0.714528
0.716555
0.71859
0.720736
0.72291
0.725116
0.72752
0.730059
0.732676
0.73553
0.738447
0.741226
0.744148
0.74743
0.750833
0.754217
0.75776
0.761487
0.765279
0.769216
0.773432
0.777853
0.782379
0.787037
0.791865
0.796867
0.802089
0.807589
0.813324
0.819202
0.825259
0.831702
0.838752
0.846521
0.855034
0.86433
0.874472
0.885449
0.8971
0.909157
0.921379
0.933612
0.945723
0.957495
0.968578
0.978518
0.986823
0.993081
0.997106
0.999132
0.999836
0.999983
0.999999
1
1
1
1