/*--------------------------------*- C++ -*----------------------------------*\
  =========                 |
  \\      /  F ield         | OpenFOAM: The Open Source CFD Toolbox
   \\    /   O peration     | Website:  https://openfoam.org
    \\  /    A nd           | Version:  7
     \\/     M anipulation  |
\*---------------------------------------------------------------------------*/
FoamFile
{
    version     2.0;
    format      ascii;
    class       volVectorField;
    location    "1";
    object      U;
}
// * * * * * * * * * * * * * * * * * * * * * * * * * * * * * * * * * * * * * //

dimensions      [0 1 -1 0 0 0 0];

internalField   nonuniform List<vector> 
60000
(
(1.93345 -1.22319 0)
(2.01323 -1.05262 0)
(2.03213 -0.889233 0)
(2.06969 -0.661356 0)
(2.19939 -0.523418 0)
(2.24883 -0.412688 0)
(2.23651 -0.273719 0)
(2.258 -0.154395 0)
(2.29193 -0.0698792 0)
(2.31006 0.00559198 0)
(2.30967 0.122611 0)
(2.33026 0.16858 0)
(2.33478 0.227626 0)
(2.34278 0.271986 0)
(2.35283 0.290395 0)
(2.36718 0.277981 0)
(2.38449 0.274123 0)
(2.42477 0.259584 0)
(2.45183 0.237749 0)
(2.47663 0.222801 0)
(2.49609 0.184979 0)
(2.49581 0.132915 0)
(2.50117 0.0745311 0)
(2.50785 0.0255284 0)
(2.51124 0.0045569 0)
(2.53225 -0.0320677 0)
(2.56633 -0.0470082 0)
(2.59487 -0.0352384 0)
(2.6374 -0.0156085 0)
(2.68346 0.0190243 0)
(2.73162 0.0513912 0)
(2.7819 0.0814784 0)
(2.83163 0.117913 0)
(2.88023 0.138592 0)
(2.93078 0.154864 0)
(2.96305 0.171713 0)
(3.00265 0.176213 0)
(3.01994 0.174361 0)
(3.03568 0.170158 0)
(3.04787 0.164729 0)
(3.06078 0.163665 0)
(3.07694 0.162668 0)
(3.09609 0.163234 0)
(3.1145 0.158003 0)
(3.13427 0.158036 0)
(3.1553 0.155214 0)
(3.1746 0.161942 0)
(3.1953 0.169583 0)
(3.21539 0.182873 0)
(3.23459 0.198456 0)
(3.25247 0.21004 0)
(3.26809 0.216504 0)
(3.28098 0.21916 0)
(3.29152 0.216608 0)
(3.30037 0.215039 0)
(3.30881 0.209976 0)
(3.316 0.215893 0)
(3.32247 0.215157 0)
(3.33055 0.225956 0)
(3.33472 0.233729 0)
(3.33926 0.24089 0)
(3.34179 0.247679 0)
(3.34504 0.255715 0)
(3.34643 0.262877 0)
(3.34791 0.262317 0)
(3.35103 0.259076 0)
(3.34895 0.255644 0)
(3.34713 0.25861 0)
(3.34307 0.263957 0)
(3.3379 0.267609 0)
(3.33526 0.26279 0)
(3.3337 0.257673 0)
(3.333 0.25324 0)
(3.33315 0.251137 0)
(3.33344 0.249513 0)
(3.33285 0.245621 0)
(3.32841 0.231199 0)
(3.32449 0.226405 0)
(3.31776 0.210348 0)
(3.31255 0.201523 0)
(3.30772 0.19942 0)
(3.29699 0.173867 0)
(3.2896 0.157768 0)
(3.28599 0.1568 0)
(3.27544 0.139048 0)
(3.26717 0.134578 0)
(3.25414 0.120538 0)
(3.23891 0.095079 0)
(3.22635 0.0789836 0)
(3.20031 0.10657 0)
(3.18949 0.143216 0)
(3.16791 0.166226 0)
(3.13803 0.219602 0)
(3.10468 0.23882 0)
(3.03324 0.235449 0)
(2.96773 0.205819 0)
(2.93577 0.164811 0)
(2.92798 0.126384 0)
(2.9266 0.0904978 0)
(2.94565 0.0565487 0)
(1.94578 -1.40084 0)
(1.9496 -1.4022 0)
(1.95351 -1.4053 0)
(1.95919 -1.40789 0)
(1.96481 -1.41294 0)
(1.97335 -1.41686 0)
(1.98089 -1.42388 0)
(1.9882 -1.42507 0)
(1.99626 -1.39894 0)
(1.99842 -1.34253 0)
(1.9862 -1.24218 0)
(1.96459 -1.11184 0)
(1.92815 -0.948978 0)
(1.87665 -0.728856 0)
(1.83011 -0.536463 0)
(1.77948 -0.355402 0)
(1.73695 -0.152576 0)
(1.74992 -0.0686161 0)
(1.74469 0.0482101 0)
(1.74612 0.071104 0)
(1.71213 0.0916716 0)
(1.7492 0.0809917 0)
(1.78665 0.061566 0)
(1.82472 0.0527129 0)
(1.8429 0.00657976 0)
(1.86427 -0.0336834 0)
(1.8947 -0.0475301 0)
(1.92368 -0.0620205 0)
(1.9664 -0.0603902 0)
(2.00459 -0.0547782 0)
(2.04469 -0.0340359 0)
(2.08773 -0.00383131 0)
(2.1394 0.037113 0)
(2.19418 0.0766407 0)
(2.25125 0.107254 0)
(2.3027 0.132145 0)
(2.35187 0.145634 0)
(2.3887 0.144783 0)
(2.42509 0.139644 0)
(2.46088 0.133565 0)
(2.50143 0.139316 0)
(2.54665 0.150121 0)
(2.58381 0.160152 0)
(2.62175 0.169537 0)
(2.66108 0.17565 0)
(2.70345 0.178247 0)
(2.74501 0.177669 0)
(2.7859 0.177462 0)
(2.82808 0.178666 0)
(2.8719 0.184506 0)
(2.91569 0.188802 0)
(2.95804 0.196702 0)
(2.99899 0.200935 0)
(3.03844 0.202538 0)
(3.07745 0.204974 0)
(3.1155 0.21291 0)
(3.15219 0.225111 0)
(3.18651 0.239359 0)
(3.21787 0.250028 0)
(3.24309 0.259447 0)
(3.26489 0.257474 0)
(3.28402 0.252534 0)
(3.30051 0.257756 0)
(3.31532 0.256184 0)
(3.3269 0.262952 0)
(3.33734 0.266576 0)
(3.34668 0.267514 0)
(3.34763 0.2751 0)
(3.3472 0.281125 0)
(3.34298 0.280723 0)
(3.337 0.269405 0)
(3.33383 0.255892 0)
(3.33335 0.250533 0)
(3.33344 0.248184 0)
(3.33278 0.247681 0)
(3.32918 0.244409 0)
(3.32257 0.22997 0)
(3.31845 0.223657 0)
(3.31193 0.205242 0)
(3.30715 0.197384 0)
(3.30252 0.191364 0)
(3.29104 0.165047 0)
(3.28541 0.158949 0)
(3.28181 0.153433 0)
(3.27358 0.139897 0)
(3.26506 0.134242 0)
(3.25178 0.119705 0)
(3.23856 0.0913996 0)
(3.22649 0.0852797 0)
(3.20477 0.109808 0)
(3.19481 0.147431 0)
(3.17231 0.172435 0)
(3.1408 0.226692 0)
(3.10662 0.246502 0)
(3.03327 0.244808 0)
(2.96471 0.212295 0)
(2.93105 0.167683 0)
(2.9237 0.126763 0)
(2.92313 0.0896224 0)
(2.94356 0.055726 0)
(2.00351 -1.43672 0)
(2.01335 -1.44241 0)
(2.02325 -1.45077 0)
(2.03562 -1.45787 0)
(2.04627 -1.46834 0)
(2.05944 -1.47549 0)
(2.07063 -1.48619 0)
(2.08445 -1.49217 0)
(2.0951 -1.50336 0)
(2.10383 -1.507 0)
(2.11133 -1.51263 0)
(2.11911 -1.51703 0)
(2.12669 -1.52163 0)
(2.13545 -1.52551 0)
(2.13992 -1.52931 0)
(2.12224 -1.49844 0)
(2.05879 -1.3994 0)
(1.96375 -1.2566 0)
(1.84517 -1.01385 0)
(1.72183 -0.788943 0)
(1.56674 -0.51254 0)
(1.48811 -0.305214 0)
(1.37725 -0.10988 0)
(1.27236 -0.0425095 0)
(1.28294 -0.0426378 0)
(1.35156 -0.0331635 0)
(1.39799 -0.031617 0)
(1.4371 -0.0465523 0)
(1.49304 -0.049433 0)
(1.53578 -0.0500924 0)
(1.56014 -0.0430076 0)
(1.58512 -0.02799 0)
(1.61684 -0.00986212 0)
(1.63015 0.00604234 0)
(1.64235 0.0202076 0)
(1.66008 0.0381733 0)
(1.68598 0.0568425 0)
(1.72447 0.0788398 0)
(1.76711 0.100238 0)
(1.81333 0.121555 0)
(1.85595 0.12722 0)
(1.89644 0.123507 0)
(1.9329 0.119504 0)
(1.97362 0.119737 0)
(2.01828 0.129185 0)
(2.06524 0.136516 0)
(2.1166 0.143446 0)
(2.17013 0.148074 0)
(2.22629 0.14881 0)
(2.28616 0.148659 0)
(2.34362 0.149266 0)
(2.40589 0.155462 0)
(2.47023 0.167974 0)
(2.53573 0.180717 0)
(2.60555 0.19105 0)
(2.67745 0.199842 0)
(2.75098 0.208452 0)
(2.82325 0.21403 0)
(2.89252 0.221753 0)
(2.95712 0.226244 0)
(3.01772 0.230854 0)
(3.07401 0.233592 0)
(3.12536 0.236661 0)
(3.17181 0.240545 0)
(3.21305 0.247718 0)
(3.24941 0.255025 0)
(3.28102 0.258072 0)
(3.30295 0.265647 0)
(3.31889 0.262462 0)
(3.32759 0.263475 0)
(3.32854 0.270172 0)
(3.32831 0.27045 0)
(3.32852 0.263948 0)
(3.32903 0.254765 0)
(3.32947 0.245273 0)
(3.32446 0.233805 0)
(3.31822 0.219063 0)
(3.31207 0.213914 0)
(3.30647 0.194659 0)
(3.30251 0.188222 0)
(3.2973 0.185138 0)
(3.28676 0.159667 0)
(3.28302 0.152163 0)
(3.27953 0.148447 0)
(3.27342 0.146392 0)
(3.26378 0.139822 0)
(3.25105 0.114615 0)
(3.23985 0.0912477 0)
(3.22728 0.0891268 0)
(3.21006 0.108707 0)
(3.20196 0.146309 0)
(3.1794 0.177509 0)
(3.14583 0.233687 0)
(3.11133 0.256765 0)
(3.03217 0.252203 0)
(2.96014 0.217608 0)
(2.92485 0.16958 0)
(2.91854 0.126982 0)
(2.91938 0.088509 0)
(2.94145 0.0547307 0)
(2.08216 -1.48746 0)
(2.0909 -1.49492 0)
(2.10114 -1.50092 0)
(2.10979 -1.50876 0)
(2.11951 -1.51383 0)
(2.12734 -1.52041 0)
(2.13563 -1.52501 0)
(2.14338 -1.53009 0)
(2.15061 -1.53499 0)
(2.15743 -1.53995 0)
(2.1636 -1.5438 0)
(2.16857 -1.54733 0)
(2.17297 -1.54952 0)
(2.17681 -1.55214 0)
(2.17813 -1.55324 0)
(2.17912 -1.55415 0)
(2.17988 -1.55462 0)
(2.18046 -1.55495 0)
(2.18101 -1.55545 0)
(2.18151 -1.55602 0)
(2.16615 -1.53835 0)
(2.0828 -1.45169 0)
(1.89234 -1.22312 0)
(1.63622 -0.910936 0)
(1.3507 -0.51926 0)
(1.15832 -0.255849 0)
(1.11135 -0.162416 0)
(1.16084 -0.129448 0)
(1.23452 -0.0894222 0)
(1.2797 -0.039118 0)
(1.3028 -0.0344967 0)
(1.34351 -0.0256733 0)
(1.36858 -0.00978259 0)
(1.33996 -0.00335821 0)
(1.31904 0.0114189 0)
(1.30448 0.032504 0)
(1.30128 0.0572751 0)
(1.31695 0.0847659 0)
(1.3445 0.106888 0)
(1.36993 0.10751 0)
(1.39165 0.104418 0)
(1.41808 0.100537 0)
(1.44907 0.0986785 0)
(1.48207 0.0993267 0)
(1.5162 0.0985549 0)
(1.55039 0.103824 0)
(1.58878 0.113293 0)
(1.63115 0.124617 0)
(1.67276 0.134211 0)
(1.71723 0.14018 0)
(1.76562 0.142222 0)
(1.81975 0.143736 0)
(1.87933 0.145764 0)
(1.94265 0.149657 0)
(2.01527 0.158657 0)
(2.09645 0.165081 0)
(2.18387 0.172372 0)
(2.27194 0.178374 0)
(2.36281 0.183712 0)
(2.45419 0.191697 0)
(2.54624 0.204897 0)
(2.63947 0.21575 0)
(2.73097 0.225615 0)
(2.81861 0.231404 0)
(2.90323 0.238828 0)
(2.98407 0.246817 0)
(3.05897 0.252416 0)
(3.12556 0.260066 0)
(3.18101 0.265296 0)
(3.22325 0.274334 0)
(3.25169 0.266729 0)
(3.27184 0.249044 0)
(3.2885 0.235713 0)
(3.30129 0.226929 0)
(3.30801 0.228556 0)
(3.30847 0.214781 0)
(3.30558 0.195266 0)
(3.30019 0.188034 0)
(3.29695 0.169284 0)
(3.29457 0.163391 0)
(3.2889 0.164603 0)
(3.28316 0.143182 0)
(3.28291 0.146896 0)
(3.27803 0.146871 0)
(3.27223 0.138761 0)
(3.26142 0.128774 0)
(3.24752 0.119502 0)
(3.22989 0.0984909 0)
(3.21292 0.0960222 0)
(3.19409 0.113868 0)
(3.18597 0.14696 0)
(3.1764 0.184004 0)
(3.15074 0.237115 0)
(3.11312 0.268948 0)
(3.03472 0.265503 0)
(2.95787 0.22606 0)
(2.91822 0.172899 0)
(2.91286 0.127268 0)
(2.91544 0.0871842 0)
(2.93928 0.0536587 0)
(2.14828 -1.53492 0)
(2.15364 -1.53823 0)
(2.15828 -1.54182 0)
(2.16268 -1.54487 0)
(2.16688 -1.5472 0)
(2.17053 -1.54964 0)
(2.17396 -1.55186 0)
(2.17703 -1.55374 0)
(2.17951 -1.55538 0)
(2.18159 -1.55636 0)
(2.18308 -1.55733 0)
(2.184 -1.55771 0)
(2.18406 -1.55766 0)
(2.18407 -1.55758 0)
(2.18425 -1.55753 0)
(2.18447 -1.55752 0)
(2.1846 -1.55763 0)
(2.18477 -1.55785 0)
(2.1849 -1.55791 0)
(2.1847 -1.55754 0)
(2.1827 -1.5556 0)
(2.17901 -1.55269 0)
(2.17518 -1.55003 0)
(2.16992 -1.54615 0)
(2.11381 -1.49018 0)
(1.87357 -1.28054 0)
(1.59603 -0.922752 0)
(1.358 -0.517129 0)
(1.19331 -0.237413 0)
(1.14897 -0.147197 0)
(1.19287 -0.123508 0)
(1.25201 -0.0845431 0)
(1.27862 -0.0312389 0)
(1.23634 -0.0225771 0)
(1.22313 -0.0158975 0)
(1.20982 -0.00264496 0)
(1.19898 0.0145398 0)
(1.20615 0.0349545 0)
(1.20864 0.0595257 0)
(1.20438 0.0747373 0)
(1.20471 0.0753603 0)
(1.21801 0.0743597 0)
(1.23884 0.0738493 0)
(1.25987 0.0721197 0)
(1.27837 0.0724498 0)
(1.29879 0.0726676 0)
(1.32122 0.079036 0)
(1.34296 0.0845237 0)
(1.3617 0.0879636 0)
(1.38471 0.0910959 0)
(1.41329 0.0960294 0)
(1.44794 0.0988469 0)
(1.48623 0.101189 0)
(1.52846 0.106132 0)
(1.57899 0.113349 0)
(1.63645 0.126604 0)
(1.69961 0.138903 0)
(1.76642 0.148861 0)
(1.83645 0.156833 0)
(1.91169 0.161871 0)
(1.99564 0.167326 0)
(2.08926 0.175153 0)
(2.1875 0.181037 0)
(2.28831 0.185583 0)
(2.39421 0.19331 0)
(2.50388 0.205749 0)
(2.61608 0.217462 0)
(2.72894 0.228075 0)
(2.83489 0.229103 0)
(2.93022 0.232708 0)
(3.00982 0.230997 0)
(3.07435 0.22961 0)
(3.12768 0.229161 0)
(3.17218 0.2258 0)
(3.2068 0.225935 0)
(3.22946 0.213266 0)
(3.24523 0.204098 0)
(3.25668 0.183797 0)
(3.26477 0.162993 0)
(3.27084 0.15126 0)
(3.26977 0.150171 0)
(3.25999 0.158311 0)
(3.25444 0.156029 0)
(3.2464 0.14264 0)
(3.23876 0.12756 0)
(3.23185 0.121156 0)
(3.19927 0.104475 0)
(3.16363 0.094146 0)
(3.12321 0.0994927 0)
(3.09219 0.11921 0)
(3.08852 0.155649 0)
(3.11396 0.190937 0)
(3.12404 0.240467 0)
(3.10205 0.276896 0)
(3.03236 0.273853 0)
(2.95359 0.230994 0)
(2.91143 0.175149 0)
(2.90728 0.127012 0)
(2.91141 0.0855839 0)
(2.93701 0.0524947 0)
(2.18275 -1.55691 0)
(2.18388 -1.55805 0)
(2.18504 -1.55915 0)
(2.18609 -1.55997 0)
(2.18686 -1.56074 0)
(2.1874 -1.56121 0)
(2.18766 -1.56142 0)
(2.18771 -1.56142 0)
(2.18777 -1.56133 0)
(2.18787 -1.56115 0)
(2.18789 -1.56115 0)
(2.18814 -1.56125 0)
(2.18835 -1.56146 0)
(2.18846 -1.5614 0)
(2.18823 -1.56106 0)
(2.18756 -1.56025 0)
(2.18598 -1.55923 0)
(2.18404 -1.5573 0)
(2.18158 -1.55466 0)
(2.17884 -1.55092 0)
(2.17565 -1.54679 0)
(2.17218 -1.5433 0)
(2.16842 -1.54075 0)
(2.16628 -1.53799 0)
(2.16204 -1.53534 0)
(2.158 -1.53184 0)
(2.15191 -1.5269 0)
(2.09757 -1.47153 0)
(1.89201 -1.26164 0)
(1.6465 -0.906576 0)
(1.50564 -0.562329 0)
(1.38076 -0.285464 0)
(1.30739 -0.157091 0)
(1.25569 -0.0970047 0)
(1.25187 -0.060448 0)
(1.23782 -0.0305438 0)
(1.22464 -0.00871798 0)
(1.22728 0.00291527 0)
(1.22155 0.0252155 0)
(1.19229 0.0476629 0)
(1.16756 0.0556409 0)
(1.17391 0.055511 0)
(1.19089 0.0561303 0)
(1.2051 0.0541469 0)
(1.21361 0.0560766 0)
(1.22562 0.060041 0)
(1.24023 0.0653766 0)
(1.24817 0.0702298 0)
(1.25394 0.0740741 0)
(1.2639 0.0782797 0)
(1.27859 0.0819103 0)
(1.29736 0.0829826 0)
(1.31895 0.0814285 0)
(1.34469 0.0790887 0)
(1.37435 0.0816563 0)
(1.40548 0.0876493 0)
(1.43874 0.0968289 0)
(1.47518 0.10666 0)
(1.51527 0.114274 0)
(1.56009 0.118925 0)
(1.6114 0.123939 0)
(1.67138 0.129641 0)
(1.73605 0.139572 0)
(1.8069 0.14447 0)
(1.88607 0.14651 0)
(1.97399 0.145505 0)
(2.07504 0.151677 0)
(2.18794 0.166756 0)
(2.30848 0.181117 0)
(2.43163 0.199593 0)
(2.54754 0.206527 0)
(2.65169 0.206462 0)
(2.74538 0.205358 0)
(2.83262 0.206195 0)
(2.9113 0.213404 0)
(2.97435 0.208625 0)
(3.0249 0.205881 0)
(3.06352 0.203385 0)
(3.09261 0.189909 0)
(3.11491 0.191182 0)
(3.12629 0.189022 0)
(3.11114 0.155338 0)
(3.103 0.14217 0)
(3.09282 0.134415 0)
(3.08068 0.125536 0)
(3.07343 0.121004 0)
(3.02825 0.114229 0)
(2.96638 0.111817 0)
(2.9006 0.114672 0)
(2.85467 0.11707 0)
(2.87525 0.134028 0)
(2.94534 0.170908 0)
(3.02068 0.226556 0)
(3.05204 0.278964 0)
(3.01427 0.284349 0)
(2.94591 0.242026 0)
(2.90512 0.179552 0)
(2.90135 0.126845 0)
(2.90706 0.0840034 0)
(2.93457 0.0512834 0)
(2.19125 -1.56497 0)
(2.1915 -1.5652 0)
(2.19168 -1.56539 0)
(2.19181 -1.56542 0)
(2.19184 -1.56533 0)
(2.19174 -1.56516 0)
(2.19164 -1.56484 0)
(2.19135 -1.5645 0)
(2.19079 -1.56402 0)
(2.18996 -1.5633 0)
(2.18881 -1.56231 0)
(2.18732 -1.56098 0)
(2.18575 -1.55907 0)
(2.18362 -1.55722 0)
(2.18124 -1.55507 0)
(2.17868 -1.55259 0)
(2.17646 -1.54931 0)
(2.17328 -1.54685 0)
(2.17084 -1.54322 0)
(2.16753 -1.54014 0)
(2.16516 -1.53646 0)
(2.16215 -1.53416 0)
(2.15931 -1.53198 0)
(2.1561 -1.52964 0)
(2.15246 -1.52656 0)
(2.14909 -1.52199 0)
(2.14503 -1.51815 0)
(2.14155 -1.51429 0)
(2.13856 -1.51143 0)
(2.13334 -1.50702 0)
(2.10985 -1.47663 0)
(1.98962 -1.32752 0)
(1.79112 -1.03594 0)
(1.6153 -0.667209 0)
(1.47367 -0.354625 0)
(1.38997 -0.157599 0)
(1.29751 -0.0524883 0)
(1.26784 -0.020243 0)
(1.2547 0.0132374 0)
(1.21193 0.0416355 0)
(1.17632 0.0368606 0)
(1.18155 0.0321103 0)
(1.19428 0.0357104 0)
(1.20174 0.0387577 0)
(1.20878 0.0418567 0)
(1.21996 0.0488161 0)
(1.2292 0.0557674 0)
(1.23213 0.0593054 0)
(1.23534 0.0624269 0)
(1.24179 0.0670729 0)
(1.25154 0.0701424 0)
(1.26339 0.0692652 0)
(1.27793 0.0649481 0)
(1.29672 0.0613106 0)
(1.316 0.063955 0)
(1.3323 0.0729189 0)
(1.34956 0.0839624 0)
(1.37009 0.093567 0)
(1.3932 0.0998459 0)
(1.41893 0.102373 0)
(1.44612 0.103055 0)
(1.47473 0.107101 0)
(1.50524 0.112406 0)
(1.54 0.116431 0)
(1.57809 0.11983 0)
(1.62218 0.124508 0)
(1.67622 0.130971 0)
(1.74267 0.137641 0)
(1.82197 0.14234 0)
(1.91332 0.149275 0)
(2.00859 0.154459 0)
(2.10233 0.161465 0)
(2.19422 0.160519 0)
(2.28599 0.1588 0)
(2.3777 0.163937 0)
(2.46083 0.159683 0)
(2.537 0.164305 0)
(2.60083 0.161969 0)
(2.65278 0.154137 0)
(2.69677 0.157596 0)
(2.73029 0.165211 0)
(2.73878 0.160444 0)
(2.73913 0.151177 0)
(2.73279 0.131327 0)
(2.72596 0.117341 0)
(2.72208 0.118764 0)
(2.696 0.118337 0)
(2.65353 0.116744 0)
(2.61006 0.12031 0)
(2.59729 0.126024 0)
(2.65035 0.13883 0)
(2.74786 0.167228 0)
(2.86109 0.217849 0)
(2.94507 0.270592 0)
(2.95473 0.283494 0)
(2.91821 0.247456 0)
(2.89072 0.181832 0)
(2.89348 0.126217 0)
(2.90203 0.0824057 0)
(2.93192 0.0499162 0)
(2.19026 -1.5665 0)
(2.18982 -1.56561 0)
(2.1891 -1.56456 0)
(2.1881 -1.5635 0)
(2.18715 -1.56202 0)
(2.18572 -1.56081 0)
(2.18421 -1.55941 0)
(2.18269 -1.55772 0)
(2.18075 -1.55629 0)
(2.17891 -1.55456 0)
(2.17713 -1.55254 0)
(2.17507 -1.55055 0)
(2.17276 -1.54877 0)
(2.17089 -1.54645 0)
(2.1689 -1.54388 0)
(2.16664 -1.54152 0)
(2.16432 -1.53902 0)
(2.16188 -1.53636 0)
(2.15984 -1.53338 0)
(2.15765 -1.53075 0)
(2.15526 -1.52852 0)
(2.1528 -1.52648 0)
(2.1505 -1.52393 0)
(2.14748 -1.52134 0)
(2.14496 -1.51748 0)
(2.14147 -1.51428 0)
(2.13872 -1.51041 0)
(2.13567 -1.50751 0)
(2.13253 -1.50475 0)
(2.12948 -1.50128 0)
(2.1264 -1.49815 0)
(2.12298 -1.49573 0)
(2.11736 -1.49127 0)
(2.11303 -1.48339 0)
(2.03776 -1.38104 0)
(1.88755 -1.12908 0)
(1.6868 -0.750173 0)
(1.54814 -0.408684 0)
(1.40248 -0.177321 0)
(1.29769 -0.0624805 0)
(1.22951 -0.0114981 0)
(1.2094 0.0241703 0)
(1.20534 0.0406325 0)
(1.19856 0.0431746 0)
(1.2061 0.0393917 0)
(1.22086 0.0435481 0)
(1.22525 0.0459392 0)
(1.22611 0.046058 0)
(1.23292 0.0505811 0)
(1.24197 0.0577757 0)
(1.24939 0.0601451 0)
(1.25711 0.0573077 0)
(1.26829 0.0505949 0)
(1.2853 0.0473886 0)
(1.30333 0.0488218 0)
(1.31838 0.0565027 0)
(1.33152 0.0691339 0)
(1.34711 0.0813699 0)
(1.36533 0.0870587 0)
(1.38408 0.0879104 0)
(1.40141 0.0891585 0)
(1.41771 0.0932378 0)
(1.4331 0.0986828 0)
(1.44812 0.101191 0)
(1.46317 0.100162 0)
(1.4801 0.0997434 0)
(1.49879 0.103223 0)
(1.52006 0.111375 0)
(1.54991 0.120092 0)
(1.58976 0.130006 0)
(1.6363 0.136497 0)
(1.68545 0.141241 0)
(1.73683 0.145348 0)
(1.79377 0.154596 0)
(1.86016 0.161632 0)
(1.92843 0.163205 0)
(1.99708 0.166931 0)
(2.06172 0.159819 0)
(2.1199 0.154919 0)
(2.1802 0.157356 0)
(2.2316 0.151592 0)
(2.26346 0.140528 0)
(2.28682 0.131124 0)
(2.31277 0.121191 0)
(2.34136 0.115068 0)
(2.3691 0.117215 0)
(2.38636 0.129568 0)
(2.40091 0.134255 0)
(2.41647 0.124911 0)
(2.44445 0.11071 0)
(2.51805 0.109888 0)
(2.61372 0.136558 0)
(2.70911 0.185886 0)
(2.79802 0.254922 0)
(2.8495 0.283934 0)
(2.86657 0.252629 0)
(2.86791 0.182089 0)
(2.88327 0.124655 0)
(2.89618 0.0805965 0)
(2.92896 0.0482971 0)
(2.18157 -1.55936 0)
(2.18023 -1.5579 0)
(2.17885 -1.5561 0)
(2.17708 -1.55461 0)
(2.17543 -1.55291 0)
(2.17367 -1.55124 0)
(2.1717 -1.54969 0)
(2.16996 -1.54781 0)
(2.16825 -1.54578 0)
(2.16633 -1.54402 0)
(2.16454 -1.54217 0)
(2.16305 -1.53982 0)
(2.16108 -1.53787 0)
(2.15941 -1.5359 0)
(2.15781 -1.53353 0)
(2.15593 -1.53125 0)
(2.15401 -1.52912 0)
(2.15261 -1.5268 0)
(2.15085 -1.52469 0)
(2.14923 -1.52238 0)
(2.14687 -1.52073 0)
(2.14506 -1.51852 0)
(2.14279 -1.51635 0)
(2.1408 -1.51331 0)
(2.13841 -1.51042 0)
(2.13614 -1.50752 0)
(2.13397 -1.50483 0)
(2.13151 -1.50275 0)
(2.12929 -1.50014 0)
(2.1266 -1.49771 0)
(2.124 -1.49466 0)
(2.11976 -1.49315 0)
(2.11844 -1.48823 0)
(2.11521 -1.48747 0)
(2.11265 -1.48335 0)
(2.1101 -1.47896 0)
(2.10233 -1.47358 0)
(2.0527 -1.39156 0)
(1.88785 -1.13886 0)
(1.68975 -0.771512 0)
(1.50068 -0.401359 0)
(1.32414 -0.141869 0)
(1.24476 -0.0407749 0)
(1.21429 0.0097693 0)
(1.21332 0.0358552 0)
(1.22275 0.0489308 0)
(1.22294 0.0481921 0)
(1.22853 0.0445997 0)
(1.24278 0.0483257 0)
(1.2535 0.0569961 0)
(1.25735 0.0582674 0)
(1.26254 0.0552723 0)
(1.27042 0.0485911 0)
(1.28161 0.0459193 0)
(1.29458 0.0450523 0)
(1.30847 0.0478233 0)
(1.32399 0.0577339 0)
(1.34117 0.0702996 0)
(1.35842 0.0748509 0)
(1.3743 0.0764487 0)
(1.38605 0.0781994 0)
(1.39805 0.0800723 0)
(1.4099 0.0844836 0)
(1.41708 0.0900091 0)
(1.42351 0.093475 0)
(1.43167 0.0962232 0)
(1.43858 0.100909 0)
(1.44511 0.106882 0)
(1.45428 0.112915 0)
(1.46753 0.120401 0)
(1.48423 0.12627 0)
(1.50217 0.131462 0)
(1.5243 0.135194 0)
(1.55597 0.139971 0)
(1.6005 0.142209 0)
(1.65301 0.142736 0)
(1.70946 0.144641 0)
(1.76722 0.140253 0)
(1.82385 0.139138 0)
(1.88148 0.142918 0)
(1.94015 0.141174 0)
(1.99348 0.132016 0)
(2.04118 0.116687 0)
(2.08931 0.10376 0)
(2.13843 0.10291 0)
(2.18488 0.111927 0)
(2.2269 0.122164 0)
(2.26345 0.121723 0)
(2.29404 0.108108 0)
(2.3302 0.0835568 0)
(2.41357 0.0754513 0)
(2.49594 0.111551 0)
(2.57283 0.168544 0)
(2.67162 0.235777 0)
(2.75688 0.270162 0)
(2.81285 0.245041 0)
(2.84073 0.177276 0)
(2.87156 0.121028 0)
(2.88962 0.0778052 0)
(2.92562 0.0461465 0)
(2.16707 -1.54743 0)
(2.16571 -1.54602 0)
(2.16444 -1.54435 0)
(2.16306 -1.5427 0)
(2.16169 -1.54113 0)
(2.16043 -1.53954 0)
(2.15911 -1.538 0)
(2.15778 -1.5364 0)
(2.15656 -1.53462 0)
(2.15532 -1.53279 0)
(2.15395 -1.53113 0)
(2.15282 -1.52943 0)
(2.15165 -1.52753 0)
(2.15031 -1.52565 0)
(2.14882 -1.52389 0)
(2.14724 -1.52219 0)
(2.14618 -1.52016 0)
(2.14475 -1.51852 0)
(2.1433 -1.51726 0)
(2.1417 -1.51597 0)
(2.14036 -1.51413 0)
(2.13833 -1.51244 0)
(2.13674 -1.50987 0)
(2.13484 -1.50742 0)
(2.13309 -1.5051 0)
(2.13139 -1.5031 0)
(2.12969 -1.50118 0)
(2.12809 -1.49873 0)
(2.12564 -1.49674 0)
(2.1237 -1.49358 0)
(2.12096 -1.49218 0)
(2.12035 -1.4889 0)
(2.11756 -1.48885 0)
(2.11679 -1.48613 0)
(2.11471 -1.48402 0)
(2.11253 -1.48097 0)
(2.11029 -1.47762 0)
(2.10619 -1.47411 0)
(2.10222 -1.46879 0)
(2.08754 -1.46311 0)
(2.03433 -1.37999 0)
(1.85711 -1.13018 0)
(1.62448 -0.739025 0)
(1.40322 -0.35433 0)
(1.31073 -0.127082 0)
(1.24963 -0.0208216 0)
(1.23591 0.0118693 0)
(1.25016 0.0263255 0)
(1.25947 0.0419353 0)
(1.26532 0.0616363 0)
(1.26974 0.0631896 0)
(1.28223 0.0629618 0)
(1.28915 0.0568628 0)
(1.29308 0.0468655 0)
(1.30344 0.0393568 0)
(1.31715 0.040275 0)
(1.33344 0.0492915 0)
(1.35128 0.0632253 0)
(1.36589 0.0712148 0)
(1.3777 0.0763611 0)
(1.38336 0.0779607 0)
(1.38926 0.0781378 0)
(1.39471 0.0804135 0)
(1.40101 0.0867924 0)
(1.40537 0.0944734 0)
(1.41062 0.100769 0)
(1.41605 0.105268 0)
(1.42011 0.110941 0)
(1.42515 0.115786 0)
(1.43184 0.119597 0)
(1.44098 0.122639 0)
(1.45175 0.124896 0)
(1.46715 0.124532 0)
(1.49175 0.123151 0)
(1.52656 0.117217 0)
(1.57169 0.10858 0)
(1.62542 0.099589 0)
(1.68172 0.0907847 0)
(1.73587 0.0892677 0)
(1.78973 0.0929625 0)
(1.84429 0.0927345 0)
(1.8954 0.0863783 0)
(1.94051 0.0770046 0)
(1.98272 0.0741341 0)
(2.02718 0.0855787 0)
(2.0722 0.101648 0)
(2.11415 0.108802 0)
(2.14944 0.106714 0)
(2.19175 0.0948059 0)
(2.25318 0.0707872 0)
(2.32665 0.0680363 0)
(2.39093 0.0968377 0)
(2.47194 0.145077 0)
(2.58442 0.20461 0)
(2.69641 0.245768 0)
(2.77148 0.234012 0)
(2.81691 0.165855 0)
(2.8596 0.114936 0)
(2.88236 0.0740066 0)
(2.92182 0.0433809 0)
(2.15541 -1.53435 0)
(2.15451 -1.53315 0)
(2.15365 -1.53161 0)
(2.15246 -1.53056 0)
(2.15149 -1.52953 0)
(2.15065 -1.5282 0)
(2.14955 -1.52708 0)
(2.14848 -1.52583 0)
(2.14758 -1.52445 0)
(2.14635 -1.52338 0)
(2.1452 -1.52223 0)
(2.14444 -1.52087 0)
(2.14358 -1.51982 0)
(2.14252 -1.51876 0)
(2.14192 -1.5174 0)
(2.14105 -1.51636 0)
(2.13999 -1.51535 0)
(2.13906 -1.51393 0)
(2.13745 -1.51241 0)
(2.13608 -1.51078 0)
(2.13511 -1.50838 0)
(2.13396 -1.50589 0)
(2.13206 -1.50402 0)
(2.13073 -1.50164 0)
(2.12966 -1.4992 0)
(2.12804 -1.49734 0)
(2.12685 -1.49508 0)
(2.12577 -1.49315 0)
(2.12445 -1.49206 0)
(2.123 -1.49066 0)
(2.1225 -1.4899 0)
(2.12174 -1.48918 0)
(2.12093 -1.48765 0)
(2.11943 -1.48606 0)
(2.11814 -1.48411 0)
(2.11579 -1.48187 0)
(2.11334 -1.47937 0)
(2.11041 -1.47688 0)
(2.10656 -1.47393 0)
(2.10094 -1.4714 0)
(2.09189 -1.46556 0)
(2.07726 -1.45668 0)
(2.03958 -1.4454 0)
(1.9699 -1.35661 0)
(1.78859 -1.09822 0)
(1.58937 -0.711885 0)
(1.42952 -0.351771 0)
(1.37794 -0.157055 0)
(1.29853 -0.00621268 0)
(1.28463 0.0277693 0)
(1.2981 0.0334891 0)
(1.30421 0.0593592 0)
(1.30639 0.066205 0)
(1.31237 0.0581048 0)
(1.32574 0.052355 0)
(1.34086 0.0522527 0)
(1.35551 0.056007 0)
(1.3721 0.0641809 0)
(1.38183 0.0732785 0)
(1.38985 0.0812195 0)
(1.39424 0.0849089 0)
(1.39607 0.0860305 0)
(1.39873 0.089918 0)
(1.40444 0.0987159 0)
(1.40633 0.106374 0)
(1.40829 0.107836 0)
(1.41168 0.108623 0)
(1.41529 0.109564 0)
(1.42126 0.109062 0)
(1.42958 0.106961 0)
(1.4404 0.103146 0)
(1.45373 0.097183 0)
(1.47075 0.0875521 0)
(1.49488 0.0786278 0)
(1.52403 0.0732317 0)
(1.55899 0.0704103 0)
(1.60023 0.0654308 0)
(1.64422 0.0617308 0)
(1.68763 0.0614238 0)
(1.73334 0.0633963 0)
(1.77812 0.0674894 0)
(1.81854 0.0686523 0)
(1.85822 0.0675784 0)
(1.90164 0.0739051 0)
(1.94919 0.0891301 0)
(1.99945 0.102317 0)
(2.04921 0.106086 0)
(2.1036 0.0990419 0)
(2.17121 0.0684191 0)
(2.23875 0.0414354 0)
(2.29309 0.0480655 0)
(2.33953 0.0822927 0)
(2.40425 0.134764 0)
(2.50171 0.184906 0)
(2.61862 0.224091 0)
(2.71957 0.218561 0)
(2.79217 0.153836 0)
(2.84721 0.107355 0)
(2.8747 0.0681503 0)
(2.91785 0.0395199 0)
(2.1455 -1.52623 0)
(2.14482 -1.5255 0)
(2.14467 -1.52431 0)
(2.14404 -1.52367 0)
(2.1435 -1.5229 0)
(2.14321 -1.52172 0)
(2.14248 -1.52113 0)
(2.14182 -1.52019 0)
(2.14162 -1.519 0)
(2.14071 -1.51802 0)
(2.1397 -1.51656 0)
(2.13945 -1.51561 0)
(2.13834 -1.51417 0)
(2.13718 -1.51283 0)
(2.13642 -1.51127 0)
(2.13566 -1.50993 0)
(2.13447 -1.50885 0)
(2.13375 -1.50722 0)
(2.13324 -1.5054 0)
(2.13195 -1.5042 0)
(2.13061 -1.50301 0)
(2.13024 -1.50076 0)
(2.12946 -1.49898 0)
(2.12819 -1.49687 0)
(2.12823 -1.49515 0)
(2.1281 -1.49482 0)
(2.12776 -1.49443 0)
(2.12733 -1.49382 0)
(2.12664 -1.49303 0)
(2.12603 -1.49221 0)
(2.12525 -1.49107 0)
(2.12457 -1.48958 0)
(2.12362 -1.488 0)
(2.12273 -1.48622 0)
(2.12148 -1.48451 0)
(2.1197 -1.48241 0)
(2.11777 -1.48017 0)
(2.11544 -1.47816 0)
(2.11237 -1.47595 0)
(2.10831 -1.47258 0)
(2.10124 -1.46943 0)
(2.09006 -1.46476 0)
(2.071 -1.45899 0)
(2.04036 -1.44613 0)
(2.00638 -1.43444 0)
(1.98816 -1.42791 0)
(1.94258 -1.35873 0)
(1.81313 -1.13179 0)
(1.64005 -0.743085 0)
(1.51455 -0.40624 0)
(1.46054 -0.204322 0)
(1.36937 -0.00794112 0)
(1.34658 0.0270336 0)
(1.34767 0.0249671 0)
(1.35178 0.0423169 0)
(1.35873 0.0511999 0)
(1.37537 0.0539781 0)
(1.38861 0.0594928 0)
(1.39577 0.0708671 0)
(1.40199 0.0760623 0)
(1.40842 0.0793627 0)
(1.40978 0.0795426 0)
(1.41327 0.0826272 0)
(1.42133 0.0897636 0)
(1.42621 0.101102 0)
(1.4301 0.10389 0)
(1.43666 0.104004 0)
(1.44753 0.106334 0)
(1.46097 0.108673 0)
(1.47599 0.10838 0)
(1.4928 0.106233 0)
(1.51138 0.101036 0)
(1.53296 0.0879344 0)
(1.55922 0.0732072 0)
(1.5877 0.0622721 0)
(1.61923 0.0528625 0)
(1.65349 0.042813 0)
(1.68927 0.0375581 0)
(1.72411 0.0367187 0)
(1.76057 0.0401416 0)
(1.79794 0.0487701 0)
(1.83523 0.0535644 0)
(1.87639 0.0587423 0)
(1.92256 0.0715301 0)
(1.97161 0.0876752 0)
(2.02062 0.0920347 0)
(2.07097 0.0867439 0)
(2.13301 0.069553 0)
(2.20335 0.0419655 0)
(2.25911 0.031215 0)
(2.30013 0.0460805 0)
(2.3395 0.0773789 0)
(2.38781 0.118303 0)
(2.46351 0.166723 0)
(2.57373 0.206107 0)
(2.69178 0.196026 0)
(2.77784 0.133216 0)
(2.83723 0.0952308 0)
(2.86701 0.0604787 0)
(2.91336 0.034943 0)
(2.13942 -1.51911 0)
(2.13891 -1.51803 0)
(2.13889 -1.51745 0)
(2.13835 -1.51662 0)
(2.13766 -1.51588 0)
(2.13747 -1.5149 0)
(2.13668 -1.51398 0)
(2.136 -1.51299 0)
(2.13578 -1.51189 0)
(2.13491 -1.51086 0)
(2.13409 -1.50947 0)
(2.13398 -1.50859 0)
(2.13322 -1.50749 0)
(2.13244 -1.50633 0)
(2.13218 -1.50499 0)
(2.13181 -1.50403 0)
(2.13122 -1.50308 0)
(2.13087 -1.50168 0)
(2.13095 -1.50093 0)
(2.13101 -1.49949 0)
(2.13086 -1.49871 0)
(2.13074 -1.49818 0)
(2.1307 -1.49748 0)
(2.13005 -1.49738 0)
(2.12946 -1.49744 0)
(2.12907 -1.49688 0)
(2.12826 -1.49605 0)
(2.12782 -1.49521 0)
(2.12748 -1.49445 0)
(2.12727 -1.4933 0)
(2.127 -1.49148 0)
(2.12628 -1.49026 0)
(2.12574 -1.48916 0)
(2.12523 -1.48757 0)
(2.12459 -1.48565 0)
(2.12346 -1.48352 0)
(2.12233 -1.48092 0)
(2.12091 -1.47868 0)
(2.11892 -1.47623 0)
(2.11596 -1.473 0)
(2.11069 -1.46992 0)
(2.10246 -1.46567 0)
(2.08822 -1.45929 0)
(2.06263 -1.45093 0)
(2.02695 -1.44028 0)
(1.99932 -1.43113 0)
(1.98808 -1.42862 0)
(1.98718 -1.42599 0)
(1.9861 -1.42524 0)
(1.96284 -1.38248 0)
(1.86554 -1.20165 0)
(1.70784 -0.821828 0)
(1.61124 -0.518324 0)
(1.53019 -0.271867 0)
(1.42877 -0.059391 0)
(1.38917 0.00699858 0)
(1.38854 0.00433002 0)
(1.39817 0.0279761 0)
(1.40028 0.0509079 0)
(1.41356 0.0594539 0)
(1.4243 0.0660925 0)
(1.42999 0.0767014 0)
(1.43887 0.0795842 0)
(1.45076 0.0783077 0)
(1.46339 0.0851234 0)
(1.47504 0.084916 0)
(1.49003 0.0778951 0)
(1.51161 0.0726807 0)
(1.53611 0.0698458 0)
(1.56033 0.0660657 0)
(1.58491 0.0615325 0)
(1.61147 0.0558621 0)
(1.64034 0.0438475 0)
(1.67069 0.0344516 0)
(1.70064 0.0295056 0)
(1.73126 0.0290135 0)
(1.76272 0.0286943 0)
(1.7935 0.0356289 0)
(1.82271 0.0433016 0)
(1.85286 0.0545008 0)
(1.88473 0.0657493 0)
(1.91825 0.0678225 0)
(1.95708 0.064379 0)
(1.99737 0.0656292 0)
(2.03676 0.0657476 0)
(2.07614 0.0603545 0)
(2.12306 0.0526341 0)
(2.17994 0.0341921 0)
(2.23383 0.0173151 0)
(2.27541 0.0185163 0)
(2.31151 0.0359477 0)
(2.35143 0.0662698 0)
(2.39972 0.107111 0)
(2.4694 0.152592 0)
(2.57005 0.180293 0)
(2.6813 0.164236 0)
(2.7629 0.116926 0)
(2.82418 0.0864114 0)
(2.85817 0.0529881 0)
(2.90885 0.0291473 0)
(2.13539 -1.51253 0)
(2.13542 -1.51197 0)
(2.13494 -1.51092 0)
(2.13449 -1.51017 0)
(2.13438 -1.5092 0)
(2.13432 -1.50875 0)
(2.1339 -1.50781 0)
(2.13374 -1.50722 0)
(2.13355 -1.50634 0)
(2.13347 -1.50569 0)
(2.13339 -1.50518 0)
(2.13336 -1.50431 0)
(2.13328 -1.50377 0)
(2.13317 -1.50351 0)
(2.13315 -1.5029 0)
(2.13311 -1.50225 0)
(2.13279 -1.50197 0)
(2.13249 -1.5017 0)
(2.13223 -1.50126 0)
(2.13167 -1.50107 0)
(2.13113 -1.50117 0)
(2.13091 -1.50081 0)
(2.13061 -1.49945 0)
(2.13053 -1.49816 0)
(2.13036 -1.49747 0)
(2.13021 -1.49677 0)
(2.13012 -1.4956 0)
(2.12991 -1.49471 0)
(2.12962 -1.49428 0)
(2.12936 -1.49297 0)
(2.12862 -1.49159 0)
(2.12827 -1.49095 0)
(2.12819 -1.48954 0)
(2.12861 -1.48776 0)
(2.1285 -1.48543 0)
(2.1278 -1.48335 0)
(2.12729 -1.48098 0)
(2.12667 -1.47867 0)
(2.12538 -1.47614 0)
(2.12374 -1.47221 0)
(2.1202 -1.46843 0)
(2.11414 -1.46415 0)
(2.10313 -1.45813 0)
(2.081 -1.45119 0)
(2.04574 -1.44192 0)
(2.01036 -1.43249 0)
(1.99289 -1.43022 0)
(1.9894 -1.4277 0)
(1.98802 -1.42549 0)
(1.98651 -1.42665 0)
(1.98489 -1.4256 0)
(1.98098 -1.43223 0)
(1.97585 -1.42293 0)
(1.90722 -1.28888 0)
(1.7841 -1.00101 0)
(1.65828 -0.671181 0)
(1.56148 -0.388599 0)
(1.47513 -0.149075 0)
(1.44256 -0.027692 0)
(1.44226 -0.0151417 0)
(1.45832 0.0198354 0)
(1.46925 0.0684916 0)
(1.47664 0.0707585 0)
(1.4947 0.058032 0)
(1.52261 0.0706089 0)
(1.54918 0.0823952 0)
(1.57423 0.081169 0)
(1.60288 0.0724833 0)
(1.6347 0.0666326 0)
(1.66571 0.0582404 0)
(1.69616 0.0463061 0)
(1.72767 0.0332833 0)
(1.75899 0.0152458 0)
(1.78802 0.00247253 0)
(1.81534 -0.00250188 0)
(1.8418 -0.00391188 0)
(1.86896 -0.00316302 0)
(1.89263 0.00540489 0)
(1.91547 0.0134051 0)
(1.93885 0.0223739 0)
(1.96298 0.0297585 0)
(1.98967 0.0289758 0)
(2.02193 0.028902 0)
(2.05476 0.034462 0)
(2.0881 0.0390572 0)
(2.12555 0.0417869 0)
(2.16995 0.032971 0)