/*--------------------------------*- C++ -*----------------------------------*\
  =========                 |
  \\      /  F ield         | OpenFOAM: The Open Source CFD Toolbox
   \\    /   O peration     | Website:  https://openfoam.org
    \\  /    A nd           | Version:  7
     \\/     M anipulation  |
\*---------------------------------------------------------------------------*/
FoamFile
{
    version     2.0;
    format      ascii;
    class       volScalarField;
    location    "7.8";
    object      p;
}
// * * * * * * * * * * * * * * * * * * * * * * * * * * * * * * * * * * * * * //

dimensions      [1 -1 -2 0 0 0 0];

internalField   nonuniform List<scalar> 
1750
(
0.341684
0.536892
0.69164
0.800316
0.956109
0.975039
0.936345
0.906414
0.92512
0.955259
0.127978
0.187626
0.341598
0.484363
0.625588
0.76767
0.843016
0.898957
0.971563
0.982187
0.119254
0.137713
0.135533
0.142259
0.176699
0.271312
0.478498
0.699528
0.828539
0.942921
0.131034
0.140366
0.150212
0.14495
0.136944
0.13864
0.154003
0.241933
0.399326
0.725028
0.162072
0.164585
0.182019
0.20403
0.217299
0.224017
0.231377
0.250313
0.2468
0.334605
0.317996
0.296963
0.30228
0.321317
0.325581
0.319049
0.309871
0.302142
0.287251
0.291129
0.508581
0.488325
0.446508
0.42048
0.419621
0.417447
0.401867
0.37649
0.376098
0.376151
0.704368
0.682812
0.667633
0.627982
0.582252
0.563764
0.552625
0.531233
0.510641
0.47894
1.051
0.947721
0.920402
0.881905
0.81956
0.747576
0.708699
0.682733
0.649063
0.590265
1.6116
1.45858
1.3225
1.21104
1.12154
1.0277
0.934503
0.873008
0.828387
0.752786
2.12816
2.03515
1.90007
1.74652
1.59497
1.45895
1.31956
1.17965
1.08226
0.957318
2.11692
2.13161
2.12366
2.08527
2.02754
1.94647
1.827
1.66978
1.51937
1.2994
1.68382
1.81225
1.8937
1.97824
1.99948
1.99511
1.98148
1.95417
1.91143
1.74849
1.10405
1.17935
1.27781
1.40341
1.54638
1.6788
1.7684
1.8583
1.86697
1.8823
1.00282
1.00663
1.01627
1.03519
1.07561
1.14621
1.2572
1.41998
1.60506
1.9586
0.147348
0.115681
0.10548
0.131592
0.188463
0.339572
0.511333
0.761001
1.17744
1.74701
2.18985
2.10368
1.53539
1.06132
1.00138
0.172967
0.117334
0.100969
0.152495
0.247638
0.383351
0.570835
0.926106
1.35678
1.96587
2.26274
2.0616
1.39445
1.02941
1.00049
0.181586
0.117162
0.0968092
0.16912
0.272634
0.40174
0.646535
1.05333
1.53159
2.16821
2.28372
1.97694
1.23687
1.01053
1.00015
0.180073
0.107862
0.0868412
0.171304
0.284814
0.461586
0.843888
1.2147
1.80593
2.30685
2.27873
1.7308
1.10794
1.00329
1.00004
0.162912
0.0979628
0.0811146
0.178744
0.318638
0.613407
0.992656
1.3937
2.06725
2.35933
2.20243
1.49222
1.04923
1.00108
1.00001
0.138839
0.093409
0.100953
0.253557
0.440616
0.760133
1.13118
1.68243
2.28707
2.38391
2.05789
1.32112
1.01939
1.00031
1
0.106534
0.0919489
0.16182
0.320159
0.549704
0.881415
1.30452
2.0012
2.44272
2.39539
1.88263
1.15612
1.00555
1.00008
1
0.0868746
0.115982
0.197799
0.357249
0.653804
1.08864
1.67721
2.30928
2.50901
2.35939
1.55234
1.05323
1.00135
1.00002
1
0.0751409
0.136811
0.219089
0.432489
0.9082
1.43142
2.05947
2.53403
2.5269
2.10452
1.26594
1.01564
1.00028
1
1
0.0569306
0.140831
0.291456
0.721529
1.27229
1.82363
2.39402
2.62738
2.4989
1.71689
1.10298
1.00354
1.00005
1
1
0.0378101
0.172664
0.516923
1.07026
1.64561
2.21753
2.6552
2.65177
2.2461
1.35984
1.02603
1.00059
1.00001
1
1
0.0259233
0.31669
0.893777
1.48756
2.11393
2.56003
2.76126
2.61474
1.78453
1.11482
1.00438
1.00008
1
1
1
0.0697519
0.644796
1.38623
2.02092
2.5798
2.73415
2.78887
2.22392
1.3413
1.02543
1.00066
1.00001
1
1
1
0.390301
1.24927
2.02429
2.53534
2.84987
2.79705
2.59919
1.69232
1.08514
1.0032
1.00006
1
1
1
1
1.31859
2.16621
2.59956
2.81071
2.91592
2.81731
2.03626
1.18603
1.00778
1.00013
1
1
1
1
1
2.89758
2.85191
2.8161
2.87969
2.92784
2.50851
1.28922
0.987999
0.998862
0.999982
1
1
1
1
1
2.88763
2.84741
2.80119
2.85398
2.86999
2.13648
1.17147
1.00507
1.00005
1
1
1
1
1
1
2.80133
2.86271
2.91469
2.89287
2.73416
1.69882
1.03838
1.00016
1
1
1
1
1
1
1
2.74625
2.87931
3.02325
2.92087
2.45997
1.26779
1.00468
1.00002
1
1
1
1
1
1
1
2.72604
2.89319
3.08539
2.87264
1.9049
1.07064
1.00045
1
1
1
1
1
1
1
1
2.77824
2.96477
3.129
2.61644
1.4472
1.01283
1.00004
1
1
1
1
1
1
1
1
2.94607
3.0159
3.15065
2.17601
1.1099
1.00081
1
1
1
1
1
1
1
1
1
3.25673
3.02813
2.7608
1.47954
1.0144
1.00004
1
1
1
1
1
1
1
1
1
3.6006
2.85145
2.14032
1.13388
1.00121
1
1
1
1
1
1
1
1
1
1
3.76728
2.60737
1.49146
1.01499
1.00005
1
1
1
1
1
1
1
1
1
1
3.67227
2.11362
1.16292
1.00202
1.00001
1
1
1
1
1
1
1
1
1
1
3.22491
1.65184
1.03862
1.0002
1
1
1
1
1
1
1
1
1
1
1
2.65483
1.29182
1.00696
1.00002
1
1
1
1
1
1
1
1
1
1
1
1.97649
1.10159
1.001
1
1
1
1
1
1
1
1
1
1
1
1
1.39279
1.01633
1.00006
1
1
1
1
1
1
1
1
1
1
1
1
1
1
1
1
1
1
1
1
1
1
1
1
1
1
1
1
1
1
1
1
1
1
1
1
1
1
1
1
1
1
1
1
1
1
1
1
1
1
1
1
1
1
1
1
1
1
1
1
1
1
1
1
1
1
1
1
1
1
1
1
1
1
1
1
1
1
1
1
1
1
1
1
1
1
1
1
1
1
1
1
1
1
1
1
1
1
1
1
1
1
1
1
1
1
1
1
1
1
1
1
1
1
1
1
1
1
1
1
1
1
1
1
1
1
1
1
1
1
1
1
1
1
1
1
1
1
1
1
1
1
1
1
1
1
1
1
1
1
1
1
1
1
1
1
1
1
1
1
1
1
1
1
1
1
1
1
1
1
1
1
1
1
1
1
1
1
1
1
1
1
1
1
1
1
1
1
1
1
1
1
1
1
1
1
1
1
1
1
1
1
1
1
1
1
1
1
1
1
1
1
1
1
1
1
1
1
1
1
1
1
1
1
1
1
1
1
1
1
1
1
1
1
1
1
1
1
1
1
1
1
1
1
1
1
1
1
1
1
1
1
1
1
1
1
1
1
1
1
1
1
1
1
1
1
1
1
1
1
1
1
1
1
1
1
1
1
1
1
1
1
1
1
1
1
1
1
1
1
1
1
1
1
1
1
1
1
1
1
1
1
1
1
1
1
1
1
1
1
1
1
1
1
1
1
1
1
1
1
1
1
1
1
1
1
1
1
1
1
1
1
1
1
1
1
1
1
1
1
1
1
1
1
1
1
1
1
1
1
1
1
1
1
1
1
1
1
1
1
1
1
1.78935
1.01393
1
1
1
1
1
1
1
1
1
1
1
1
1
1
1
1
1
1
3.04699
1.22957
0.999368
1
1
1
1
1
1
1
1
1
1
1
1
1
1
1
1
1
4.70161
1.88704
1.01406
0.999958
1
1
1
1
1
1
1
1
1
1
1
1
1
1
1
1
5.56804
3.27801
1.45917
1.00083
1
1
1
1
1
1
1
1
1
1
1
1
1
1
1
1
5.26988
4.18443
3.02989
1.23178
0.99972
0.999999
1
1
1
1
1
1
1
1
1
1
1
1
1
1
4.52971
4.31012
4.24128
2.58174
1.10674
0.999771
0.999998
1
1
1
1
1
1
1
1
1
1
1
1
1
3.95017
4.14174
4.38634
3.80561
1.93852
1.024
0.999939
0.999998
1
1
1
1
1
1
1
1
1
1
1
1
3.87799
4.01595
4.28157
4.1531
3.19103
1.35847
1.00089
1
1
1
1
1
1
1
1
1
1
1
1
1
3.93827
4.00495
4.08
4.11739
4.06826
2.50379
1.10505
0.999894
0.999997
1
1
1
1
1
1
1
1
1
1
1
4.02158
3.98949
3.96424
4.05018
4.11708
3.44401
1.71997
1.01385
0.999979
0.999999
1
1
1
1
1
1
1
1
1
1
4.01181
3.99125
3.97709
4.02528
4.0943
4.01835
2.84321
1.19991
1.00026
1
1
1
1
1
1
1
1
1
1
1
4.0018
3.99889
4.01013
4.0343
4.08196
4.06737
3.59081
1.91988
1.0306
0.999997
1
1
1
1
1
1
1
1
1
1
4.01958
4.02821
4.03647
4.03623
4.05571
4.05498
3.82111
2.86454
1.26325
1.00079
1
1
1
1
1
1
1
1
1
1
4.07054
4.06526
4.04326
4.03303
4.03221
4.0529
4.00081
3.71442
2.00414
1.06813
1.0008
1
1
1
1
1
1
1
1
1
4.11744
4.08684
4.05801
4.04993
4.04941
4.07642
4.07116
3.93393
2.82608
1.14895
0.987275
0.999058
0.99999
1
1
1
1
1
1
1
1.54007
2.72619
3.35711
3.70326
3.89699
4.01104
4.05993
3.96622
3.88413
2.57877
1.31703
1.01791
1.0004
1.00001
1
1
1
1
1
1
0.265352
1.39432
2.27348
2.84659
3.33581
3.67678
3.91129
3.89129
4.07349
3.68998
2.42471
1.26661
1.01455
1.00031
1
1
1
1
1
1
0.0880323
0.603161
1.31794
1.96899
2.52186
3.0586
3.44968
3.69199
3.99554
3.95718
3.49882
2.13538
1.17045
1.00745
1.00013
1
1
1
1
1
0.107552
0.322461
0.671256
1.25606
1.82258
2.3463
2.86789
3.2582
3.68151
3.8935
3.82021
3.23092
1.78272
1.08165
1.0025
1.00004
1
1
1
1
0.217291
0.307514
0.412437
0.695881
1.22215
1.73771
2.27895
2.7254
3.20532
3.58446
3.76737
3.70512
2.87167
1.45843
1.02867
1.00055
1.00001
1
1
1
0.335295
0.283523
0.316522
0.503393
0.801392
1.23916
1.72235
2.25246
2.65959
3.14339
3.53702
3.68351
3.50108
2.33047
1.20816
1.00782
1.00011
1
1
1
0.368673
0.254221
0.233084
0.420852
0.618494
0.930117
1.30909
1.81387
2.20613
2.66736
3.14342
3.56615
3.54371
3.0759
1.70394
1.05612
1.00111
1.00001
1
1
0.361667
0.246077
0.204223
0.326259
0.490339
0.751502
1.06088
1.39345
1.85458
2.21417
2.68707
3.2207
3.48878
3.40404
2.42834
1.25929
1.00977
1.00013
1
1
0.339919
0.255684
0.224581
0.296489
0.399604
0.591749
0.880853
1.15754
1.56856
1.93078
2.35598
2.83468
3.31465
3.39223
3.01012
1.69991
1.05833
1.00107
1.00001
1
0.307291
0.266922
0.269617
0.29076
0.351062
0.47269
0.701758
1.00524
1.25877
1.66059
2.06182
2.5234
3.03019
3.34092
3.26945
2.32995
1.21982
1.00772
1.00009
1
0.280529
0.28173
0.309358
0.285703
0.304208
0.417819
0.566614
0.856484
1.09383
1.43361
1.74752
2.17898
2.63406
3.1499
3.25407
2.91202
1.5974
1.03764
1.00059
1.00001
0.279256
0.29367
0.311921
0.274948
0.26967
0.374331
0.4822
0.709717
1.00382
1.20056
1.53652
1.8726
2.33021
2.84337
3.18986
3.05918
2.15329
1.15463
1.00368
1.00003
0.28934
0.307264
0.305781
0.270165
0.261375
0.342452
0.429206
0.586182
0.889286
1.08371
1.40451
1.70286
2.10366
2.58106
3.06437
3.06681
2.50788
1.38668
1.01823
1.00021
0.308204
0.31236
0.300922
0.270139
0.260524
0.314677
0.403822
0.522497
0.774179
0.994918
1.24986
1.55109
1.86323
2.30327
2.85295
3.04482
2.77304
1.68859
1.05534
1.00092
0.309602
0.309337
0.299869
0.271423
0.261361
0.29725
0.366705
0.464461
0.623325
0.870106
1.05388
1.38261
1.64273
2.01295
2.571
2.98912
2.93819
2.18924
1.18092
1.00507
0.390645
0.301322
0.291379
0.27638
0.279167
0.298014
0.3425
0.469717
0.582712
0.812135
1.00306
1.25919
1.56905
1.87578
2.31777
2.85835
2.94941
2.46732
1.39818
1.01889
0.503471
0.329722
0.300242
0.292792
0.294552
0.296709
0.322522
0.468404
0.565998
0.739099
0.965357
1.16597
1.47096
1.77886
2.12891
2.64971
2.91705
2.63644
1.66198
1.05403
0.594296
0.385773
0.31199
0.303232
0.297615
0.29425
0.319907
0.456036
0.558976
0.675591
0.911176
1.11141
1.33652
1.62241
1.95739
2.43751
2.84166
2.77431
2.01129
1.15011
0.727642
0.520926
0.334761
0.302632
0.294443
0.288678
0.324145
0.431333
0.546382
0.654635
0.804649
1.04977
1.26171
1.49413
1.78485
2.21631
2.71406
2.78287
2.29686
1.35699
0.912703
0.674536
0.37933
0.295384
0.289089
0.283884
0.334154
0.407356
0.512536
0.647621
0.764728
0.950515
1.17957
1.4098
1.66559
2.00841
2.49255
2.75129
2.50751
1.71375
0.992823
0.827141
0.538986
0.303485
0.285682
0.288304
0.34508
0.395426
0.457545
0.616358
0.746859
0.890163
1.0882
1.30872
1.54988
1.84451
2.26373
2.65597
2.56125
2.20926
0.983478
0.948636
0.738394
0.363546
0.285993
0.298975
0.345851
0.386979
0.434926
0.564936
0.702521
0.840809
1.01118
1.21746
1.43314
1.68593
2.04443
2.4967
2.6164
2.80767
0.924142
0.945994
0.827885
0.558826
0.30724
0.296887
0.342027
0.37449
0.440577
0.547059
0.649535
0.779186
0.929566
1.12743
1.33267
1.55202
1.85422
2.2908
2.73844
3.38922
0.915401
0.937675
0.91225
0.771797
0.383763
0.295791
0.33455
0.365354
0.445609
0.529168
0.618087
0.747247
0.876733
1.04765
1.24402
1.44634
1.69026
2.0855
2.7869
4.00052
0.946722
0.952854
0.970669
0.898969
0.660229
0.366732
0.333606
0.362998
0.435039
0.493748
0.573205
0.691598
0.802794
0.941373
1.1046
1.28547
1.49013
1.91609
2.91558
4.67291
)
;

boundaryField
{
    inlet
    {
        type            fixedValue;
        value           uniform 1;
    }
    outlet
    {
        type            zeroGradient;
    }
    airfoil
    {
        type            zeroGradient;
    }
    top
    {
        type            symmetryPlane;
    }
    bottom
    {
        type            symmetryPlane;
    }
    defaultFaces
    {
        type            empty;
    }
}


// ************************************************************************* //
