/*--------------------------------*- C++ -*----------------------------------*\
  =========                 |
  \\      /  F ield         | OpenFOAM: The Open Source CFD Toolbox
   \\    /   O peration     | Website:  https://openfoam.org
    \\  /    A nd           | Version:  7
     \\/     M anipulation  |
\*---------------------------------------------------------------------------*/
FoamFile
{
    version     2.0;
    format      ascii;
    class       volScalarField;
    location    "5.6";
    object      rho;
}
// * * * * * * * * * * * * * * * * * * * * * * * * * * * * * * * * * * * * * //

dimensions      [1 -3 0 0 0 0 0];

internalField   nonuniform List<scalar> 
1750
(
0.423273
0.590321
0.728087
0.847439
0.952683
0.959416
0.940484
0.942565
0.965406
0.978057
0.273246
0.349271
0.482726
0.633092
0.761533
0.847479
0.893773
0.939746
0.999631
0.994382
0.284873
0.293334
0.293656
0.31128
0.373611
0.492175
0.685115
0.848102
0.944247
1.00261
0.331198
0.337119
0.32009
0.312184
0.32643
0.347922
0.375731
0.46793
0.629804
0.896331
0.421156
0.426257
0.414481
0.410797
0.418363
0.449004
0.479671
0.51099
0.502548
0.573562
0.577397
0.610774
0.614509
0.601725
0.589902
0.584014
0.57854
0.567777
0.554434
0.557318
0.764828
0.77527
0.777638
0.761992
0.731595
0.701955
0.68673
0.668807
0.668216
0.664727
1.06998
1.02421
0.976621
0.934922
0.914985
0.892879
0.873906
0.851964
0.826453
0.783402
1.38665
1.33091
1.26764
1.17351
1.1217
1.09462
1.05635
1.01262
0.970828
0.903289
1.84275
1.73287
1.6436
1.5273
1.40369
1.33432
1.27587
1.20895
1.15504
1.07076
2.27447
2.21079
2.1118
1.9893
1.84831
1.71684
1.60828
1.49738
1.4051
1.27261
2.30841
2.31462
2.30157
2.26178
2.21244
2.14626
2.05019
1.92482
1.79577
1.58671
1.96506
2.07798
2.1663
2.19361
2.2049
2.21104
2.20609
2.1817
2.13651
1.97979
1.49706
1.55774
1.64984
1.75562
1.86768
1.97781
2.05792
2.12332
2.1219
2.11437
1.4028
1.40627
1.41514
1.43367
1.46965
1.53369
1.63263
1.77393
1.93108
2.19294
0.277819
0.245714
0.248001
0.315849
0.406965
0.560199
0.81153
1.13386
1.46395
1.96565
2.32644
2.28137
1.86397
1.45682
1.40134
0.273917
0.229571
0.230055
0.337928
0.45999
0.656358
0.971389
1.25799
1.64019
2.14539
2.39224
2.23393
1.72085
1.42487
1.40044
0.271505
0.224167
0.228479
0.377459
0.535038
0.768058
1.04673
1.34178
1.81195
2.29661
2.40893
2.17086
1.60758
1.41077
1.40016
0.2786
0.226608
0.257557
0.430635
0.601033
0.828599
1.10679
1.48936
2.01295
2.40883
2.40753
2.03096
1.50245
1.40322
1.40005
0.288482
0.23738
0.278702
0.442594
0.617539
0.882737
1.24093
1.73303
2.22243
2.45944
2.36119
1.81627
1.44283
1.40097
1.40002
0.283813
0.245207
0.27753
0.434796
0.639168
1.0153
1.50674
1.95071
2.39446
2.49356
2.25111
1.67731
1.41937
1.40033
1.40001
0.250185
0.242324
0.269258
0.447642
0.853332
1.28045
1.70883
2.15297
2.52117
2.51004
2.12007
1.5437
1.40571
1.40008
1.40001
0.1856
0.225934
0.302833
0.661965
1.09024
1.48102
1.89624
2.40351
2.57856
2.46974
1.86025
1.44778
1.40124
1.40002
1.40001
0.117479
0.225118
0.464741
0.874791
1.27033
1.69646
2.18946
2.58758
2.59163
2.24454
1.62371
1.41455
1.40029
1.40001
1.40001
0.0861244
0.292845
0.650237
1.04589
1.49945
2.02114
2.50414
2.6643
2.57456
1.98479
1.49285
1.4035
1.40006
1.40001
1.40001
0.080169
0.416278
0.835523
1.30511
1.91465
2.37388
2.68948
2.68356
2.34446
1.70405
1.42323
1.40054
1.40001
1.40001
1.40001
0.0893169
0.578259
1.14667
1.78342
2.30852
2.61775
2.75918
2.64269
2.04838
1.50544
1.40452
1.40009
1.40001
1.40001
1.40001
0.250069
0.93642
1.68306
2.24239
2.62381
2.74702
2.7802
2.36844
1.69032
1.42288
1.40062
1.40001
1.40001
1.40001
1.40001
0.733455
1.5702
2.22661
2.59491
2.82061
2.79458
2.64704
1.96726
1.47585
1.40317
1.40006
1.40001
1.40001
1.40001
1.40001
1.64838
2.32402
2.65237
2.79844
2.86541
2.80857
2.23518
1.55694
1.40682
1.40012
1.40001
1.40001
1.40001
1.40001
1.40001
2.89092
2.85055
2.81209
2.84294
2.87149
2.57713
1.64731
1.38943
1.39892
1.39999
1.4
1.40001
1.40001
1.40001
1.40001
2.88728
2.85023
2.80555
2.82742
2.83054
2.30508
1.55192
1.40488
1.40006
1.40001
1.40001
1.40001
1.40001
1.40001
1.40001
2.82906
2.86538
2.88895
2.86152
2.75519
1.97579
1.4342
1.40016
1.40001
1.40001
1.40001
1.40001
1.40001
1.40001
1.40001
2.78953
2.87603
2.96617
2.88385
2.54285
1.62598
1.40432
1.40002
1.40001
1.40001
1.40001
1.40001
1.40001
1.40001
1.40001
2.77587
2.88923
3.01072
2.83546
2.1351
1.46595
1.40047
1.40001
1.40001
1.40001
1.40001
1.40001
1.40001
1.40001
1.40001
2.81136
2.94334
3.04109
2.6722
1.77211
1.41164
1.40004
1.40001
1.40001
1.40001
1.40001
1.40001
1.40001
1.40001
1.40001
2.92153
2.98004
3.05219
2.32759
1.49372
1.40076
1.40001
1.40001
1.40001
1.40001
1.40001
1.40001
1.40001
1.40001
1.40001
3.14419
3.0061
2.78172
1.80143
1.41382
1.40005
1.40001
1.40001
1.40001
1.40001
1.40001
1.40001
1.40001
1.40001
1.40001
3.38137
2.90368
2.34004
1.5164
1.4011
1.40001
1.40001
1.40001
1.40001
1.40001
1.40001
1.40001
1.40001
1.40001
1.40001
3.49561
2.72608
1.82992
1.41417
1.40006
1.40001
1.40001
1.40001
1.40001
1.40001
1.40001
1.40001
1.40001
1.40001
1.40001
3.44211
2.34748
1.54917
1.40197
1.40001
1.40001
1.40001
1.40001
1.40001
1.40001
1.40001
1.40001
1.40001
1.40001
1.40001
3.15015
1.96519
1.43604
1.4002
1.40001
1.40001
1.40001
1.40001
1.40001
1.40001
1.40001
1.40001
1.40001
1.40001
1.40001
2.7582
1.66204
1.40675
1.40003
1.40001
1.40001
1.40001
1.40001
1.40001
1.40001
1.40001
1.40001
1.40001
1.40001
1.40001
2.25821
1.49329
1.40097
1.40001
1.40001
1.40001
1.40001
1.40001
1.40001
1.40001
1.40001
1.40001
1.40001
1.40001
1.40001
1.76672
1.41543
1.40006
1.40001
1.40001
1.40001
1.40001
1.40001
1.40001
1.40001
1.40001
1.40001
1.40001
1.40001
1.40001
1.40001
1.40001
1.40001
1.40001
1.40001
1.40001
1.40001
1.40001
1.40001
1.40001
1.40001
1.40001
1.40001
1.40001
1.40001
1.40001
1.40001
1.40001
1.40001
1.40001
1.40001
1.40001
1.40001
1.40001
1.40001
1.40001
1.40001
1.40001
1.40001
1.40001
1.40001
1.40001
1.40001
1.40001
1.40001
1.40001
1.40001
1.40001
1.40001
1.40001
1.40001
1.40001
1.40001
1.40001
1.40001
1.40001
1.40001
1.40001
1.40001
1.40001
1.40001
1.40001
1.40001
1.40001
1.40001
1.40001
1.40001
1.40001
1.40001
1.40001
1.40001
1.40001
1.40001
1.40001
1.40001
1.40001
1.40001
1.40001
1.40001
1.40001
1.40001
1.40001
1.40001
1.40001
1.40001
1.40001
1.40001
1.40001
1.40001
1.40001
1.40001
1.40001
1.40001
1.40001
1.40001
1.40001
1.40001
1.40001
1.40001
1.40001
1.40001
1.40001
1.40001
1.40001
1.40001
1.40001
1.40001
1.40001
1.40001
1.40001
1.40001
1.40001
1.40001
1.40001
1.40001
1.40001
1.40001
1.40001
1.40001
1.40001
1.40001
1.40001
1.40001
1.40001
1.40001
1.40001
1.40001
1.40001
1.40001
1.40001
1.40001
1.40001
1.40001
1.40001
1.40001
1.40001
1.40001
1.40001
1.40001
1.40001
1.40001
1.40001
1.40001
1.40001
1.40001
1.40001
1.40001
1.40001
1.40001
1.40001
1.40001
1.40001
1.40001
1.40001
1.40001
1.40001
1.40001
1.40001
1.40001
1.40001
1.40001
1.40001
1.40001
1.40001
1.40001
1.40001
1.40001
1.40001
1.40001
1.40001
1.40001
1.40001
1.40001
1.40001
1.40001
1.40001
1.40001
1.40001
1.40001
1.40001
1.40001
1.40001
1.40001
1.40001
1.40001
1.40001
1.40001
1.40001
1.40001
1.40001
1.40001
1.40001
1.40001
1.40001
1.40001
1.40001
1.40001
1.40001
1.40001
1.40001
1.40001
1.40001
1.40001
1.40001
1.40001
1.40001
1.40001
1.40001
1.40001
1.40001
1.40001
1.40001
1.40001
1.40001
1.40001
1.40001
1.40001
1.40001
1.40001
1.40001
1.40001
1.40001
1.40001
1.40001
1.40001
1.40001
1.40001
1.40001
1.40001
1.40001
1.40001
1.40001
1.40001
1.40001
1.40001
1.40001
1.40001
1.40001
1.40001
1.40001
1.40001
1.40001
1.40001
1.40001
1.40001
1.40001
1.40001
1.40001
1.40001
1.40001
1.40001
1.40001
1.40001
1.40001
1.40001
1.40001
1.40001
1.40001
1.40001
1.40001
1.40001
1.40001
1.40001
1.40001
1.40001
1.40001
1.40001
1.40001
1.40001
1.40001
1.40001
1.40001
1.40001
1.40001
1.40001
1.40001
1.40001
1.40001
1.40001
1.40001
1.40001
1.40001
1.40001
1.40001
1.40001
1.40001
1.40001
1.40001
1.40001
1.40001
1.40001
1.40001
1.40001
1.40001
1.40001
1.40001
1.40001
1.40001
1.40001
1.40001
1.40001
1.40001
1.40001
1.40001
1.40001
1.40001
1.40001
1.40001
1.40001
1.40001
1.40001
1.40001
1.40001
1.40001
1.40001
1.40001
1.40001
1.40001
1.40001
1.40001
1.40001
1.40001
1.40001
1.40001
1.40001
1.40001
1.40001
1.40001
1.40001
1.40001
1.40001
1.40001
1.40001
1.40001
1.40001
1.40001
1.40001
1.40001
1.40001
1.40001
1.40001
1.40001
1.40001
1.40001
1.40001
1.40001
1.40001
1.40001
1.40001
1.40001
1.40001
1.40001
1.40001
1.40001
1.40001
1.40001
1.40001
1.40001
1.40001
1.40001
2.09552
1.41266
1.40001
1.40001
1.40001
1.40001
1.40001
1.40001
1.40001
1.40001
1.40001
1.40001
1.40001
1.40001
1.40001
1.40001
1.40001
1.40001
1.40001
1.40001
3.014
1.59442
1.39943
1.40001
1.40001
1.40001
1.40001
1.40001
1.40001
1.40001
1.40001
1.40001
1.40001
1.40001
1.40001
1.40001
1.40001
1.40001
1.40001
1.40001
4.03672
2.1234
1.41274
1.39997
1.40001
1.40001
1.40001
1.40001
1.40001
1.40001
1.40001
1.40001
1.40001
1.40001
1.40001
1.40001
1.40001
1.40001
1.40001
1.40001
4.47389
3.1052
1.77026
1.40063
1.40001
1.40001
1.40001
1.40001
1.40001
1.40001
1.40001
1.40001
1.40001
1.40001
1.40001
1.40001
1.40001
1.40001
1.40001
1.40001
4.29153
3.68497
2.86874
1.59042
1.39978
1.4
1.40001
1.40001
1.40001
1.40001
1.40001
1.40001
1.40001
1.40001
1.40001
1.40001
1.40001
1.40001
1.40001
1.40001
3.83785
3.70026
3.59759
2.51368
1.48501
1.39982
1.4
1.40001
1.40001
1.40001
1.40001
1.40001
1.40001
1.40001
1.40001
1.40001
1.40001
1.40001
1.40001
1.40001
3.49647
3.5959
3.70892
3.3643
2.11215
1.41981
1.39995
1.4
1.40001
1.40001
1.40001
1.40001
1.40001
1.40001
1.40001
1.40001
1.40001
1.40001
1.40001
1.40001
3.43942
3.50198
3.63467
3.49431
2.9336
1.70703
1.40122
1.4
1.40001
1.40001
1.40001
1.40001
1.40001
1.40001
1.40001
1.40001
1.40001
1.40001
1.40001
1.40001
3.48066
3.49679
3.48835
3.48304
3.46082
2.49703
1.47899
1.39993
1.4
1.40001
1.40001
1.40001
1.40001
1.40001
1.40001
1.40001
1.40001
1.40001
1.40001
1.40001
3.53187
3.49654
3.44766
3.45731
3.49136
3.09864
1.96711
1.41319
1.39998
1.4
1.40001
1.40001
1.40001
1.40001
1.40001
1.40001
1.40001
1.40001
1.40001
1.40001
3.52903
3.50188
3.45961
3.45596
3.47914
3.36228
2.67775
1.56572
1.40034
1.4
1.40001
1.40001
1.40001
1.40001
1.40001
1.40001
1.40001
1.40001
1.40001
1.40001
3.51353
3.50138
3.47902
3.46319
3.472
3.45482
3.29395
2.09753
1.42329
1.39999
1.40001
1.40001
1.40001
1.40001
1.40001
1.40001
1.40001
1.40001
1.40001
1.40001
3.50786
3.50918
3.49791
3.47799
3.4693
3.45204
3.36167
2.79391
1.63728
1.40108
1.4
1.40001
1.40001
1.40001
1.40001
1.40001
1.40001
1.40001
1.40001
1.40001
3.51484
3.5188
3.50572
3.48649
3.46655
3.44773
3.41237
3.27961
2.16367
1.45075
1.40058
1.40001
1.40001
1.40001
1.40001
1.40001
1.40001
1.40001
1.40001
1.40001
3.53592
3.53172
3.51042
3.48911
3.47443
3.45943
3.44359
3.46129
2.78087
1.51361
1.38924
1.39909
1.39999
1.4
1.40001
1.40001
1.40001
1.40001
1.40001
1.40001
1.72959
2.59456
3.05724
3.2758
3.38356
3.43426
3.45641
3.44913
3.34198
2.5434
1.65441
1.41554
1.40037
1.40001
1.40001
1.40001
1.40001
1.40001
1.40001
1.40001
0.460863
1.49087
2.26569
2.74095
3.04032
3.23817
3.3805
3.39293
3.48836
3.28133
2.45868
1.62421
1.4139
1.40034
1.40001
1.40001
1.40001
1.40001
1.40001
1.40001
0.185189
0.811992
1.43192
2.04241
2.52404
2.84308
3.11477
3.24195
3.45204
3.4346
3.10943
2.25115
1.54594
1.40668
1.40013
1.40001
1.40001
1.40001
1.40001
1.40001
0.241999
0.609393
0.977397
1.38898
1.91088
2.35941
2.68258
2.95954
3.26812
3.39064
3.34139
2.95884
2.014
1.47394
1.40244
1.40004
1.40001
1.40001
1.40001
1.40001
0.29021
0.490699
0.733522
1.05995
1.4283
1.88518
2.23134
2.60946
2.94479
3.20206
3.31404
3.26906
2.69849
1.76212
1.4257
1.40052
1.40001
1.40001
1.40001
1.40001
0.342793
0.380183
0.487988
0.825437
1.14294
1.51354
1.89562
2.24805
2.59307
2.9102
3.17025
3.25435
3.15767
2.3579
1.57028
1.40735
1.40011
1.40001
1.40001
1.40001
0.425608
0.374846
0.377209
0.603882
0.904086
1.21585
1.60013
1.91019
2.27605
2.56185
2.9115
3.16302
3.16554
2.88466
1.94676
1.45141
1.40118
1.40002
1.40001
1.40001
0.474132
0.404076
0.400447
0.560959
0.758831
1.00503
1.32067
1.6476
1.96407
2.26431
2.59354
2.93161
3.12724
3.08776
2.5039
1.62079
1.40949
1.40013
1.40001
1.40001
0.47041
0.425481
0.442351
0.538501
0.667094
0.88382
1.1284
1.44157
1.7178
2.05566
2.33295
2.68919
3.00172
3.07596
2.84049
1.98986
1.45201
1.40104
1.40001
1.40001
0.449328
0.430334
0.464991
0.500933
0.55963
0.777434
0.984307
1.27661
1.55094
1.85448
2.1393
2.45705
2.81975
3.03539
2.98931
2.40274
1.59877
1.40698
1.40008
1.40001
0.443288
0.446107
0.487606
0.483962
0.488929
0.64311
0.85731
1.07385
1.38195
1.60073
1.92986
2.20418
2.56222
2.91161
2.98727
2.69891
1.85716
1.43561
1.4006
1.40001
0.449996
0.471076
0.502761
0.483956
0.487084
0.613271
0.788048
0.97637
1.23583
1.45516
1.74468
2.04034
2.32513
2.69533
2.95138
2.90819
2.21376
1.51587
1.40315
1.40004
0.445672
0.471093
0.500815
0.483655
0.484178
0.587579
0.738917
0.930482
1.13397
1.35782
1.6003
1.90408
2.16721
2.50521
2.85753
2.91762
2.60991
1.72901
1.41615
1.40022
0.425437
0.461522
0.495929
0.485269
0.484104
0.552502
0.654209
0.860119
1.04044
1.26375
1.47417
1.7578
2.01145
2.30735
2.69106
2.88652
2.74934
2.02869
1.46505
1.40118
0.419128
0.444389
0.48288
0.484467
0.490444
0.540274
0.577675
0.732756
0.913243
1.12033
1.33041
1.56293
1.83683
2.09679
2.47555
2.79299
2.77465
2.27271
1.56059
1.40504
0.511233
0.452313
0.48838
0.502843
0.521472
0.550793
0.571197
0.713335
0.885125
1.06117
1.28365
1.48625
1.76121
2.00924
2.32623
2.70461
2.76645
2.52135
1.71061
1.41494
0.604643
0.497271
0.512282
0.527618
0.534891
0.551042
0.58145
0.714482
0.871664
1.02997
1.24245
1.4402
1.67769
1.93703
2.20347
2.58022
2.75594
2.64331
1.94036
1.44795
0.71052
0.583368
0.527472
0.527914
0.533973
0.543211
0.58428
0.70521
0.835755
0.992617
1.17804
1.3877
1.57517
1.81363
2.07039
2.41287
2.70927
2.6721
2.18612
1.53346
0.827904
0.713636
0.553102
0.521071
0.528903
0.528188
0.59
0.69068
0.776922
0.946939
1.10109
1.30607
1.50328
1.69378
1.92238
2.23851
2.612
2.66249
2.3776
1.69545
0.970706
0.863526
0.604676
0.518663
0.523814
0.523461
0.596912
0.680817
0.739715
0.905804
1.06022
1.22877
1.4235
1.61248
1.81467
2.07208
2.46188
2.63675
2.51089
1.95292
1.03343
0.993297
0.772017
0.533519
0.519975
0.521224
0.595265
0.666307
0.724039
0.867545
1.01916
1.16893
1.34272
1.52663
1.72167
1.94718
2.28873
2.57415
2.53288
2.28748
1.02382
1.0973
0.996416
0.620454
0.519105
0.522141
0.582777
0.643945
0.717313
0.84145
0.963239
1.10627
1.26502
1.44244
1.61836
1.83168
2.11534
2.4592
2.52913
2.64548
0.997997
1.09095
1.05488
0.816743
0.541579
0.523406
0.570389
0.615845
0.70567
0.819224
0.909647
1.04597
1.18819
1.35909
1.52495
1.70979
1.95293
2.29732
2.55774
2.95153
0.991257
1.06995
1.10381
1.01797
0.629814
0.522789
0.565272
0.598885
0.695027
0.788946
0.869992
1.00555
1.13264
1.28115
1.44793
1.6141
1.82143
2.14857
2.58908
3.20514
0.997689
1.04845
1.11188
1.0897
0.894751
0.606824
0.559779
0.590329
0.672543
0.739483
0.814541
0.935502
1.04691
1.17062
1.31948
1.47327
1.64728
1.96211
2.56783
3.46746
)
;

boundaryField
{
    inlet
    {
        type            calculated;
        value           uniform 1.40001;
    }
    outlet
    {
        type            calculated;
        value           nonuniform List<scalar> 
35
(
0.997816
1.04874
1.11214
1.08994
0.894863
0.60685
0.559758
0.590182
0.672635
0.739541
0.814631
0.935696
1.04694
1.17073
1.31965
1.47335
1.64738
1.96227
2.56848
3.46901
0.978105
0.994478
1.00297
0.896919
0.573899
0.557276
0.664661
0.783441
0.903434
1.07091
1.27272
1.58682
1.97997
2.11458
2.19315
)
;
    }
    airfoil
    {
        type            calculated;
        value           nonuniform List<scalar> 
60
(
0.277819
0.273917
0.271505
0.2786
0.288482
0.283813
0.250185
0.1856
0.117479
0.0861244
0.080169
0.0893169
0.250069
0.733455
1.64838
2.89092
2.88728
2.82906
2.78953
2.77587
2.81136
2.92153
3.14419
3.38137
3.49561
3.44211
3.15015
2.7582
2.25821
1.76672
2.09552
3.014
4.03672
4.47389
4.29153
3.83785
3.49647
3.43942
3.48066
3.53187
3.52903
3.51353
3.50786
3.51484
3.53592
1.72959
0.460863
0.185189
0.241999
0.29021
0.342793
0.425608
0.474132
0.47041
0.449328
0.443288
0.449996
0.445672
0.425437
0.419128
)
;
    }
    top
    {
        type            symmetryPlane;
    }
    bottom
    {
        type            symmetryPlane;
    }
    defaultFaces
    {
        type            empty;
    }
}


// ************************************************************************* //
