/*--------------------------------*- C++ -*----------------------------------*\
  =========                 |
  \\      /  F ield         | OpenFOAM: The Open Source CFD Toolbox
   \\    /   O peration     | Website:  https://openfoam.org
    \\  /    A nd           | Version:  7
     \\/     M anipulation  |
\*---------------------------------------------------------------------------*/
FoamFile
{
    version     2.0;
    format      ascii;
    class       volScalarField;
    location    "9.5";
    object      rho;
}
// * * * * * * * * * * * * * * * * * * * * * * * * * * * * * * * * * * * * * //

dimensions      [1 -3 0 0 0 0 0];

internalField   nonuniform List<scalar> 
90000
(
1.04338
1.05158
1.0603
1.0689
1.07761
1.08655
1.09456
1.10262
1.11042
1.11847
1.12598
1.13409
1.14206
1.15191
1.16298
1.17587
1.1894
1.20378
1.21793
1.23229
1.24593
1.25966
1.27239
1.28506
1.29653
1.30806
1.31796
1.32749
1.33598
1.34303
1.34864
1.35502
1.35739
1.35901
1.36034
1.36084
1.36093
1.36044
1.35776
1.35091
1.34189
1.33488
1.33021
1.32883
1.32994
1.33266
1.33622
1.3401
1.344
1.34448
1.34568
1.34697
1.34674
1.34541
1.34278
1.34055
1.33875
1.33866
1.33909
1.34
1.34204
1.3425
1.34392
1.34518
1.34547
1.34488
1.34459
1.34397
1.34388
1.34421
1.34433
1.34558
1.3469
1.34891
1.34795
1.34724
1.34615
1.34619
1.34701
1.34848
1.34963
1.34937
1.34884
1.34906
1.34968
1.35038
1.35032
1.35035
1.3506
1.35124
1.3515
1.35141
1.35139
1.35149
1.35168
1.35191
1.35228
1.35266
1.35264
1.35235
1.03838
1.03895
1.04012
1.04176
1.04387
1.04675
1.05012
1.05392
1.05825
1.06326
1.06871
1.0747
1.08117
1.08822
1.09567
1.10389
1.11283
1.12266
1.13335
1.14489
1.15703
1.17023
1.18353
1.19781
1.2121
1.22643
1.24156
1.2554
1.26997
1.28328
1.29661
1.30828
1.3192
1.32965
1.33762
1.34227
1.34867
1.35388
1.35371
1.35455
1.35865
1.36235
1.36357
1.36224
1.35922
1.3551
1.35049
1.3468
1.34553
1.34344
1.34346
1.34424
1.34588
1.34794
1.35032
1.35307
1.35422
1.35363
1.35176
1.3491
1.34634
1.34358
1.34321
1.34424
1.34723
1.35085
1.35376
1.35288
1.35077
1.34832
1.34666
1.34751
1.35044
1.35366
1.35336
1.35166
1.34884
1.3485
1.34973
1.35225
1.35324
1.35268
1.35164
1.35168
1.35228
1.35322
1.35323
1.35319
1.35328
1.35344
1.35379
1.35393
1.35384
1.3538
1.3538
1.35396
1.35425
1.35468
1.3547
1.35442
1.04006
1.04012
1.0402
1.04027
1.04036
1.04045
1.04057
1.04074
1.04098
1.04132
1.04178
1.04238
1.04331
1.04454
1.04604
1.04788
1.05004
1.05273
1.05587
1.05975
1.06425
1.06979
1.07623
1.08399
1.09285
1.1034
1.11539
1.12911
1.14421
1.16142
1.17895
1.19881
1.21983
1.23942
1.26163
1.28179
1.30098
1.31798
1.33564
1.34877
1.35761
1.36272
1.36512
1.36495
1.36487
1.36397
1.36249
1.36055
1.35755
1.35394
1.35137
1.35226
1.35421
1.35724
1.35987
1.36276
1.36264
1.36154
1.35946
1.35625
1.35315
1.34984
1.35035
1.35212
1.35453
1.35719
1.35922
1.35964
1.35852
1.35638
1.35522
1.35558
1.35684
1.35812
1.35896
1.35845
1.35741
1.35631
1.35647
1.35704
1.35788
1.35808
1.35772
1.35723
1.35721
1.35757
1.35784
1.35808
1.35807
1.35816
1.35842
1.35837
1.35824
1.35806
1.3579
1.35792
1.3581
1.35837
1.35842
1.35811
1.04295
1.04301
1.04303
1.04308
1.04311
1.04313
1.04316
1.0432
1.04327
1.04338
1.04351
1.04372
1.04378
1.04385
1.04392
1.04401
1.04413
1.04428
1.04447
1.04471
1.04501
1.04541
1.04594
1.04686
1.04813
1.0499
1.05217
1.05543
1.05946
1.06504
1.07203
1.08116
1.09222
1.10691
1.12274
1.14299
1.16528
1.18978
1.21581
1.24248
1.26964
1.29082
1.31247
1.32598
1.34
1.34647
1.35334
1.35557
1.35663
1.35878
1.36356
1.36631
1.36838
1.36894
1.36862
1.36813
1.36703
1.3649
1.36378
1.36238
1.36236
1.36268
1.36302
1.36289
1.36222
1.36145
1.36162
1.36264
1.36389
1.3662
1.3666
1.3657
1.36405
1.36224
1.36287
1.36385
1.36538
1.36482
1.36374
1.36253
1.36267
1.36337
1.36399
1.36356
1.36296
1.36298
1.36344
1.36383
1.36376
1.36358
1.36357
1.36357
1.36348
1.36327
1.36295
1.36281
1.36286
1.36308
1.36306
1.36273
1.04573
1.04576
1.04579
1.04583
1.04585
1.04588
1.04591
1.04595
1.04598
1.04606
1.04609
1.04609
1.0461
1.04609
1.04609
1.04611
1.04616
1.04621
1.04626
1.04633
1.04643
1.04654
1.04676
1.0468
1.04684
1.04691
1.04697
1.04705
1.04719
1.04747
1.04791
1.04876
1.05002
1.05206
1.05497
1.05963
1.06589
1.07557
1.08744
1.10484
1.12476
1.15117
1.17916
1.21103
1.24306
1.27221
1.30104
1.32183
1.34304
1.35512
1.36248
1.3644
1.36662
1.36722
1.36707
1.36548
1.36148
1.36131
1.3628
1.36632
1.37002
1.3726
1.37241
1.3707
1.36752
1.36408
1.36324
1.36394
1.36618
1.36882
1.37135
1.37108
1.36946
1.36743
1.36657
1.36743
1.36873
1.36963
1.36934
1.36818
1.36709
1.36733
1.36784
1.36823
1.36791
1.36753
1.36779
1.36833
1.36839
1.36814
1.36802
1.36804
1.36793
1.36765
1.3673
1.36704
1.36705
1.36716
1.36713
1.3668
1.04748
1.04749
1.0475
1.04752
1.04755
1.04757
1.04762
1.04766
1.04769
1.04771
1.04772
1.04773
1.04774
1.04776
1.04778
1.04779
1.04782
1.04784
1.04786
1.04788
1.04789
1.0479
1.0479
1.04789
1.04787
1.04785
1.04784
1.04784
1.04786
1.0479
1.04807
1.04805
1.04803
1.04796
1.04794
1.048
1.04815
1.04862
1.04958
1.05153
1.05474
1.06065
1.06903
1.08324
1.10089
1.12689
1.15544
1.18993
1.22587
1.25797
1.2898
1.30886
1.32911
1.33687
1.34677
1.34993
1.35556
1.3616
1.36886
1.37357
1.37551
1.37539
1.37445
1.37171
1.36895
1.36699
1.36629
1.3674
1.36987
1.37067
1.37089
1.37055
1.36975
1.36992
1.37057
1.37121
1.37111
1.37104
1.37075
1.37049
1.37018
1.36989
1.36984
1.37007
1.37049
1.37043
1.37032
1.3705
1.37075
1.3708
1.37076
1.37068
1.37066
1.37053
1.37027
1.36995
1.36985
1.36998
1.37003
1.36979
1.04862
1.04861
1.04861
1.04861
1.04862
1.04865
1.04865
1.04865
1.04865
1.04866
1.04863
1.0486
1.04859
1.04859
1.04858
1.04859
1.04861
1.04863
1.04865
1.04869
1.0487
1.04868
1.04865
1.04863
1.04861
1.04858
1.04854
1.04848
1.04844
1.0484
1.04835
1.04828
1.0482
1.0481
1.04802
1.04793
1.04785
1.04773
1.04761
1.04754
1.04755
1.04761
1.04793
1.04891
1.05089
1.05509
1.06167
1.0741
1.09057
1.11724
1.14757
1.18616
1.22494
1.261
1.29611
1.32024
1.34619
1.3565
1.36468
1.36853
1.37169
1.36988
1.36489
1.36302
1.36462
1.3683
1.37146
1.37307
1.3731
1.3718
1.36882
1.36791
1.36849
1.37054
1.37221
1.3726
1.37231
1.37156
1.3709
1.37112
1.37153
1.37133
1.37082
1.37075
1.37101
1.37177
1.37174
1.37163
1.37164
1.37181
1.37213
1.37203
1.37185
1.37179
1.37175
1.37158
1.37138
1.37139
1.37141
1.37127
1.04916
1.04916
1.04916
1.04915
1.04915
1.04915
1.04914
1.04912
1.04911
1.0491
1.04909
1.04906
1.04904
1.04902
1.049
1.04899
1.04898
1.04898
1.04897
1.04899
1.04901
1.04899
1.04893
1.04889
1.04887
1.04885
1.04882
1.04878
1.04874
1.04869
1.04862
1.04854
1.04845
1.04836
1.04826
1.04813
1.04798
1.04781
1.04764
1.0475
1.04737
1.04724
1.04709
1.04701
1.047
1.04703
1.04726
1.04799
1.04958
1.05329
1.05966
1.07287
1.0911
1.12145
1.15505
1.19669
1.23753
1.27103
1.30411
1.31865
1.33733
1.34342
1.35268
1.36131
1.37086
1.37531
1.37602
1.37536
1.37133
1.36743
1.36655
1.36721
1.36954
1.37271
1.37274
1.37218
1.37108
1.37055
1.37085
1.37159
1.37205
1.37159
1.37119
1.37101
1.37126
1.37173
1.37214
1.37195
1.3719
1.37218
1.37248
1.3726
1.37249
1.37239
1.37243
1.37239
1.37218
1.37208
1.37209
1.37198
1.04932
1.0493
1.04929
1.04929
1.04928
1.04928
1.04927
1.04926
1.04923
1.04918
1.04916
1.04915
1.04914
1.04913
1.04912
1.04907
1.04906
1.04905
1.04903
1.049
1.04899
1.04898
1.04894
1.04887
1.04885
1.04885
1.04886
1.04885
1.04881
1.04876
1.04872
1.04866
1.04856
1.04844
1.04833
1.04823
1.0481
1.04795
1.0478
1.04767
1.04753
1.04738
1.04722
1.04696
1.04679
1.0468
1.04684
1.0469
1.04699
1.04712
1.0474
1.04816
1.04991
1.05444
1.06249
1.07953
1.10242
1.13965
1.18023
1.22575
1.27026
1.30472
1.34121
1.35529
1.36598
1.36991
1.37089
1.36621
1.36143
1.36334
1.3677
1.37131
1.37271
1.37261
1.37154
1.369
1.36913
1.37004
1.37153
1.37218
1.3719
1.37139
1.37129
1.37152
1.3718
1.37175
1.37181
1.37183
1.37206
1.37239
1.37256
1.37259
1.37264
1.37264
1.37272
1.37269
1.37254
1.37238
1.37228
1.37223
1.04934
1.04933
1.04933
1.04934
1.04934
1.04933
1.04932
1.04929
1.04927
1.04925
1.04923
1.04922
1.04919
1.04916
1.04911
1.04907
1.04904
1.04902
1.04899
1.04897
1.04896
1.04896
1.04895
1.04892
1.04891
1.04891
1.04891
1.04889
1.04886
1.04882
1.04874
1.0486
1.04846
1.04839
1.04834
1.04827
1.0482
1.04812
1.04805
1.04795
1.04782
1.04768
1.04753
1.04736
1.04715
1.04695
1.04692
1.04692
1.04693
1.04699
1.04717
1.04739
1.04753
1.04766
1.04796
1.04907
1.05179
1.05907
1.0717
1.09757
1.12984
1.17614
1.22305
1.26445
1.30394
1.32151
1.34022
1.34643
1.36061
1.36911
1.37519
1.37513
1.37422
1.37005
1.36643
1.36668
1.36843
1.37162
1.37225
1.37178
1.37059
1.37073
1.37148
1.37242
1.37226
1.37186
1.37148
1.37168
1.37222
1.37257
1.37254
1.37255
1.37266
1.37289
1.37294
1.37289
1.37279
1.3726
1.3724
1.3724
1.04894
1.04892
1.04891
1.04889
1.04887
1.04884
1.04881
1.04878
1.04875
1.04872
1.0487
1.04868
1.04863
1.04857
1.04852
1.04847
1.04842
1.0484
1.04838
1.04833
1.04831
1.04831
1.04831
1.04832
1.04833
1.04835
1.04836
1.04838
1.04839
1.0484
1.0484
1.04845
1.04851
1.0485
1.04847
1.04841
1.04833
1.0483
1.04828
1.04823
1.04816
1.04807
1.04795
1.04781
1.04761
1.0474
1.04733
1.04732
1.04735
1.04743
1.04754
1.04768
1.04783
1.04796
1.04819
1.04821
1.04821
1.04833
1.04901
1.05154
1.0574
1.07231
1.0951
1.13573
1.18248
1.23416
1.28518
1.32291
1.35467
1.3638
1.37185
1.37078
1.36576
1.36207
1.36432
1.36868
1.37245
1.37282
1.37194
1.36928
1.36942
1.37088
1.37275
1.37283
1.37241
1.37159
1.37138
1.37187
1.37249
1.37251
1.3724
1.37248
1.37283
1.37314
1.3731
1.37306
1.373
1.37283
1.37253
1.37254
1.04864
1.0486
1.04858
1.04856
1.04854
1.04851
1.04848
1.04845
1.04841
1.04839
1.04837
1.04835
1.04832
1.04828
1.04824
1.04821
1.04819
1.04815
1.04811
1.04805
1.04801
1.048
1.04799
1.048
1.04801
1.04803
1.04805
1.04807
1.0481
1.04811
1.04814
1.04817
1.04821
1.04824
1.04827
1.0483
1.04835
1.04842
1.04847
1.04851
1.04854
1.04854
1.04852
1.04844
1.0483
1.04812
1.04796
1.04791
1.04793
1.04801
1.04813
1.04827
1.04841
1.04851
1.04863
1.04875
1.04882
1.04886
1.04877
1.04857
1.04861
1.04934
1.05182
1.0596
1.07442
1.10573
1.14595
1.19906
1.25394
1.28863
1.32873
1.3373
1.35016
1.35961
1.37181
1.37471
1.37426
1.37119
1.36733
1.36766
1.37001
1.37333
1.37345
1.37276
1.37155
1.37155
1.37212
1.37276
1.37272
1.37233
1.37233
1.37264
1.37314
1.37339
1.37331
1.37331
1.37327
1.37308
1.37275
1.37274
1.04829
1.04827
1.04825
1.04823
1.04822
1.0482
1.04817
1.04815
1.04814
1.04811
1.04808
1.04807
1.04805
1.04801
1.04799
1.04798
1.04796
1.04792
1.04788
1.04785
1.04782
1.0478
1.04779
1.04779
1.04781
1.04783
1.04785
1.04787
1.0479
1.04792
1.04797
1.04801
1.04805
1.04809
1.04814
1.04822
1.04834
1.04846
1.04856
1.04866
1.04878
1.04888
1.04891
1.04889
1.04883
1.04872
1.04859
1.04846
1.0484
1.04844
1.04854
1.04866
1.04878
1.04892
1.04908
1.04927
1.04947
1.04955
1.04953
1.04941
1.04917
1.04886
1.04883
1.04907
1.05019
1.05436
1.06319
1.08593
1.11839
1.1722
1.23099
1.28203
1.3365
1.35415
1.36717
1.37054
1.36652
1.36089
1.36387
1.36981
1.3746
1.37451
1.37324
1.37057
1.37089
1.37235
1.37353
1.37335
1.3725
1.37224
1.37257
1.37318
1.37335
1.37349
1.3736
1.37367
1.3736
1.37335
1.3731
1.37311
1.04825
1.04825
1.04823
1.04822
1.04821
1.04819
1.04817
1.04815
1.04814
1.04812
1.0481
1.04808
1.04806
1.04804
1.04802
1.04799
1.04795
1.04791
1.04786
1.04782
1.04778
1.04776
1.04773
1.04771
1.04769
1.04769
1.0477
1.04771
1.04772
1.04774
1.04777
1.0478
1.04783
1.04787
1.04794
1.04804
1.04819
1.04839
1.04858
1.04875
1.04888
1.049
1.04911
1.04918
1.04921
1.04922
1.0492
1.04914
1.04902
1.04891
1.04888
1.04889
1.04893
1.04901
1.04916
1.04939
1.04973
1.05004
1.05011
1.05008
1.04992
1.04954
1.04914
1.0491
1.04918
1.04942
1.05011
1.05224
1.05739
1.07334
1.09965
1.1509
1.20864
1.26074
1.31086
1.32861
1.34455
1.35564
1.37229
1.3761
1.37563
1.37219
1.36875
1.36947
1.37252
1.37456
1.37429
1.3729
1.37227
1.37265
1.37339
1.37375
1.37354
1.3736
1.37389
1.37402
1.37387
1.37368
1.37359
1.37359
1.04836
1.04836
1.04837
1.04838
1.04839
1.04839
1.0484
1.04842
1.04843
1.04844
1.04844
1.04845
1.04845
1.04846
1.04846
1.04844
1.04842
1.0484
1.04837
1.04833
1.04829
1.04824
1.04818
1.04812
1.04803
1.04795
1.04788
1.04783
1.04781
1.04781
1.04782
1.04784
1.04787
1.04792
1.048
1.04811
1.04827
1.04846
1.04865
1.04879
1.04892
1.04904
1.04918
1.04932
1.04947
1.0496
1.04965
1.04967
1.04965
1.04955
1.04935
1.04915
1.04908
1.0491
1.04916
1.04934
1.04966
1.05007
1.05032
1.05034
1.0503
1.05011
1.04972
1.04938
1.04933
1.04944
1.04974
1.05009
1.05036
1.05135
1.05446
1.06627
1.08824
1.13682
1.1945
1.25408
1.31971
1.34866
1.36677
1.3715
1.36678
1.36172
1.36545
1.37223
1.376
1.37508
1.37282
1.37213
1.37261
1.374
1.37402
1.37379
1.37363
1.37394
1.37427
1.37425
1.37405
1.37408
1.37422
1.37415
1.04879
1.04881
1.04883
1.04886
1.04889
1.04892
1.04894
1.04897
1.049
1.04902
1.04904
1.04907
1.0491
1.04913
1.04915
1.04919
1.04922
1.04922
1.04922
1.04922
1.04921
1.04917
1.04912
1.04906
1.04896
1.04884
1.04872
1.04859
1.04848
1.04839
1.04832
1.04827
1.04824
1.04823
1.04824
1.04829
1.04838
1.04854
1.04872
1.04884
1.04895
1.04907
1.04922
1.0494
1.04963
1.04989
1.05007
1.05012
1.05013
1.05012
1.05
1.0497
1.04933
1.04913
1.04914
1.0492
1.04939
1.04977
1.05019
1.05036
1.05035
1.05029
1.0501
1.04975
1.04957
1.0496
1.04983
1.05023
1.05059
1.05059
1.05062
1.05109
1.05323
1.06253
1.08161
1.12666
1.18352
1.24409
1.30108
1.32517
1.34372
1.3567
1.37478
1.37731
1.37571
1.37058
1.37074
1.37213
1.37472
1.37529
1.37453
1.37358
1.37385
1.37444
1.37456
1.37431
1.37425
1.37456
1.37479
1.37467
1.04921
1.04923
1.04926
1.04931
1.04935
1.04937
1.04939
1.04942
1.04945
1.04948
1.04953
1.04959
1.04963
1.04967
1.04973
1.04982
1.04987
1.0499
1.04992
1.04995
1.04998
1.04998
1.04998
1.04996
1.04992
1.04985
1.04977
1.04968
1.04956
1.04942
1.04928
1.04915
1.04905
1.04896
1.04887
1.0488
1.04881
1.04887
1.04892
1.04898
1.04907
1.04919
1.04936
1.04959
1.04984
1.05007
1.0503
1.05047
1.05053
1.05055
1.05051
1.05027
1.04982
1.04935
1.04914
1.04914
1.04923
1.04947
1.04982
1.05015
1.05033
1.05036
1.05033
1.05011
1.04978
1.04974
1.0499
1.05033
1.05073
1.05081
1.05081
1.05071
1.05072
1.05111
1.0529
1.06075
1.07805
1.12226
1.17969
1.24505
1.31749
1.34917
1.36968
1.3718
1.36271
1.36391
1.36912
1.37515
1.37616
1.37521
1.37322
1.37347
1.37465
1.3747
1.37448
1.37428
1.37457
1.37517
1.37517
1.37501
1.04947
1.0495
1.04955
1.04959
1.04962
1.04965
1.04969
1.04972
1.04975
1.04981
1.04989
1.04992
1.04995
1.04999
1.05006
1.05016
1.05021
1.05024
1.05029
1.05038
1.05045
1.05048
1.05052
1.05055
1.05058
1.05062
1.05065
1.05065
1.05063
1.05057
1.05047
1.05036
1.05025
1.05017
1.05008
1.04998
1.0499
1.04982
1.04971
1.04964
1.04963
1.04965
1.04972
1.04984
1.04997
1.05013
1.05034
1.0506
1.05081
1.05087
1.05084
1.05069
1.0503
1.04975
1.04929
1.04919
1.04926
1.04942
1.04965
1.04991
1.05023
1.05046
1.05052
1.05046
1.05015
1.04995
1.05002
1.05034
1.05076
1.05084
1.05083
1.05082
1.05082
1.05082
1.05088
1.0513
1.05287
1.06001
1.07689
1.12068
1.1797
1.24504
1.30419
1.32907
1.34523
1.36464
1.37692
1.37687
1.37478
1.37168
1.37265
1.37544
1.37562
1.37489
1.3739
1.37419
1.37511
1.37551
1.37539
1.37524
1.04962
1.04966
1.04969
1.04971
1.04974
1.04979
1.04983
1.04985
1.04988
1.04992
1.04995
1.04999
1.05004
1.0501
1.0502
1.05029
1.05037
1.05045
1.05058
1.05072
1.05081
1.05086
1.05091
1.05097
1.05103
1.05111
1.0512
1.05127
1.05132
1.05133
1.05131
1.05124
1.05115
1.0511
1.05105
1.05099
1.0509
1.05075
1.05057
1.0504
1.05026
1.05015
1.05009
1.05007
1.0501
1.05023
1.05041
1.05067
1.05099
1.05117
1.05116
1.05106
1.05076
1.05033
1.04987
1.04957
1.04954
1.04961
1.04975
1.04996
1.05022
1.05059
1.05077
1.05076
1.05052
1.05026
1.05027
1.05042
1.05064
1.05075
1.0508
1.05085
1.0509
1.05093
1.05099
1.05106
1.05117
1.05152
1.05295
1.05983
1.07762
1.12383
1.18534
1.2577
1.32815
1.35787
1.37282
1.37012
1.36269
1.36713
1.37459
1.37664
1.3757
1.37317
1.37352
1.37504
1.37562
1.37548
1.37529
1.37547
1.04997
1.04996
1.04996
1.04996
1.04996
1.04995
1.04995
1.04994
1.04994
1.04996
1.04999
1.05003
1.05008
1.05014
1.05024
1.05035
1.05041
1.05046
1.05054
1.05067
1.05077
1.05085
1.05094
1.05104
1.05113
1.0512
1.05126
1.05132
1.05142
1.05149
1.05147
1.05138
1.05131
1.05131
1.05133
1.05134
1.05131
1.05124
1.05111
1.05096
1.0508
1.05063
1.05045
1.05025
1.05015
1.05015
1.05016
1.05025
1.05053
1.05097
1.05124
1.05123
1.05109
1.05088
1.05069
1.05052
1.05045
1.05042
1.05034
1.0503
1.05038
1.05073
1.05097
1.05098
1.05079
1.05058
1.05057
1.0506
1.05064
1.05068
1.05073
1.05084
1.05098
1.05106
1.05111
1.05115
1.0512
1.05123
1.05126
1.05149
1.05302
1.0604
1.08094
1.12971
1.19777
1.26494
1.31528
1.33895
1.35453
1.37613
1.37767
1.37587
1.37148
1.37219
1.37496
1.37632
1.37582
1.37502
1.37517
1.37574
1.05077
1.05077
1.05077
1.05077
1.05075
1.05072
1.05066
1.05055
1.05051
1.05051
1.05048
1.05042
1.05041
1.05041
1.05041
1.05038
1.05037
1.05039
1.05046
1.05049
1.05049
1.05049
1.05053
1.05062
1.05063
1.05061
1.05064
1.05072
1.0509
1.05116
1.05127
1.05128
1.05129
1.05132
1.05134
1.05134
1.05137
1.05138
1.05136
1.05128
1.05118
1.05104
1.05083
1.05053
1.05026
1.05016
1.05016
1.05022
1.05044
1.05084
1.05122
1.05133
1.05128
1.05123
1.0512
1.05119
1.0512
1.05119
1.05103
1.05087
1.05086
1.05099
1.05116
1.05117
1.05104
1.05091
1.0509
1.0509
1.05087
1.05085
1.05089
1.05097
1.05109
1.05117
1.05118
1.05117
1.05114
1.0511
1.05102
1.05097
1.05101
1.05138
1.05348
1.06221
1.08814
1.1424
1.21178
1.2951
1.3435
1.37146
1.37129
1.3619
1.36591
1.37385
1.37699
1.3762
1.37445
1.37462
1.37555
1.37596
1.05113
1.05117
1.0512
1.05119
1.05116
1.05104
1.05098
1.05095
1.05092
1.05088
1.05076
1.0507
1.05073
1.05075
1.05074
1.05065
1.05056
1.05051
1.0505
1.05049
1.05046
1.05044
1.05042
1.0504
1.05034
1.05015
1.05
1.04997
1.04998
1.05013
1.05035
1.0505
1.05064
1.05078
1.05097
1.05116
1.05128
1.05139
1.05143
1.05143
1.05143
1.05137
1.05118
1.05088
1.05057
1.05033
1.05026
1.0503
1.05048
1.0508
1.05117
1.05139
1.0514
1.05136
1.05129
1.0513
1.05137
1.05138
1.0513
1.05119
1.05119
1.05126
1.05131
1.05127
1.05116
1.05115
1.0512
1.05136
1.0514
1.05137
1.05134
1.05131
1.05127
1.05124
1.05121
1.05116
1.05109
1.05097
1.05089
1.05087
1.05088
1.05092
1.05105
1.05161
1.05464
1.06507
1.09859
1.157
1.23081
1.29967
1.32917
1.34644
1.37227
1.37746
1.37623
1.37236
1.37352
1.37555
1.37635
1.37605
1.05136
1.05134
1.05129
1.05118
1.05101
1.05095
1.05093
1.05094
1.05102
1.05108
1.05108
1.05111
1.05118
1.05121
1.05123
1.05123
1.05122
1.05118
1.05112
1.05101
1.05085
1.05067
1.05054
1.05048
1.05042
1.05026
1.04994
1.04981
1.04979
1.04978
1.0498
1.04989
1.05008
1.05038
1.05071
1.051
1.05126
1.0516
1.05172
1.05174
1.05174
1.05169
1.05154
1.05133
1.05112
1.05098
1.05094
1.05097
1.05107
1.05124
1.05138
1.05142
1.05138
1.05126
1.05119
1.05114
1.05116
1.05124
1.05132
1.05141
1.05144
1.05138
1.0513
1.05125
1.05125
1.05129
1.05143
1.05164
1.05179
1.05181
1.05178
1.05168
1.05145
1.0513
1.05125
1.05119
1.05108
1.05093
1.05087
1.05089
1.05099
1.05114
1.05129
1.05137
1.05152
1.05218
1.05626
1.07053
1.11319
1.17783
1.26135
1.33263
1.36416
1.37312
1.36232
1.36609
1.37258
1.37649
1.37611
1.37541
1.05095
1.05101
1.05101
1.051
1.051
1.05102
1.05102
1.05099
1.05101
1.05117
1.05157
1.05172
1.05176
1.05185
1.05198
1.05202
1.05203
1.05204
1.05205
1.05202
1.0519
1.05171
1.05151
1.05121
1.05105
1.05092
1.05064
1.05019
1.04999
1.04996
1.04995
1.04998
1.05016
1.05049
1.05083
1.05113
1.05146
1.05188
1.05214
1.0522
1.05219
1.05212
1.05194
1.05158
1.05126
1.05118
1.05122
1.05127
1.05126
1.0513
1.05153
1.05163
1.05156
1.05125
1.05112
1.05102
1.05094
1.05099
1.05116
1.05142
1.05173
1.05189
1.0518
1.05158
1.05138
1.0514
1.05153
1.05166
1.05183
1.05195
1.05195
1.05188
1.05156
1.05138
1.05136
1.05134
1.0513
1.05123
1.05121
1.05125
1.05135
1.05141
1.05144
1.05146
1.0514
1.05127
1.05139
1.05253
1.05865
1.08002
1.13177
1.20899
1.27744
1.3249
1.34402
1.37075
1.37696
1.3761
1.37302
1.37476
1.05029
1.05037
1.05053
1.05096
1.05132
1.05137
1.05138
1.05135
1.05133
1.05144
1.05173
1.05183
1.05187
1.05193
1.05204
1.05208
1.05209
1.0521
1.0521
1.05206
1.05197
1.05185
1.05171
1.05168
1.0517
1.05168
1.0515
1.05118
1.0511
1.0511
1.05111
1.05121
1.05143
1.05147
1.05145
1.05146
1.05167
1.05206
1.05213
1.05209
1.05199
1.05171
1.05137
1.0512
1.05109
1.05112
1.05131
1.05142
1.05136
1.05134
1.05161
1.05216
1.05226
1.05208
1.05172
1.0513
1.05098
1.05098
1.05117
1.05154
1.0519
1.05216
1.05213
1.05199
1.05183
1.05167
1.05163
1.05161
1.05168
1.05187
1.05191
1.05181
1.05149
1.05132
1.05132
1.05139
1.05155
1.05162
1.05164
1.05168
1.05166
1.05159
1.05155
1.05142
1.0512
1.05107
1.05108
1.05115
1.05147
1.05361
1.0633
1.09596
1.15812
1.24093
1.3228
1.36231
1.37335
1.36238
1.36659
1.37399
1.04972
1.0497
1.04962
1.04963
1.04975
1.0501
1.05083
1.05107
1.05108
1.05105
1.05099
1.05085
1.05067
1.05054
1.05047
1.05046
1.05048
1.05054
1.05062
1.05073
1.05084
1.05092
1.05101
1.05113
1.05124
1.05123
1.05107
1.05089
1.05087
1.05089
1.05093
1.05109
1.05132
1.05133
1.05105
1.05043
1.05032
1.05067
1.05112
1.05119
1.05117
1.05092
1.05047
1.05025
1.05025
1.05043
1.05091
1.05109
1.051
1.05105
1.05158
1.05236
1.05269
1.05262
1.05237
1.052
1.0516
1.05138
1.05148
1.05172
1.05194
1.05217
1.05225
1.05221
1.05219
1.05204
1.05155
1.05124
1.05123
1.05138
1.05163
1.05167
1.05156
1.05149
1.05153
1.05169
1.05184
1.0519
1.05189
1.05186
1.05181
1.05169
1.05143
1.05122
1.05113
1.05113
1.05115
1.05131
1.0516
1.05179
1.05238
1.05627
1.07215
1.11708
1.1936
1.26799
1.32182
1.34346
1.3713
1.3768
1.04858
1.04862
1.04866
1.04862
1.04834
1.04832
1.04852
1.04853
1.04834
1.04788
1.04729
1.04672
1.04634
1.04613
1.04596
1.04585
1.0458
1.04584
1.04609
1.04652
1.0469
1.04718
1.04753
1.04805
1.0486
1.0489
1.04916
1.04949
1.04961
1.04958
1.04952
1.0495
1.04946
1.04914
1.04822
1.04774
1.04783
1.04853
1.05001
1.0508
1.0509
1.05091
1.05073
1.05028
1.05005
1.04997
1.04999
1.05018
1.05047
1.05096
1.05178
1.05244
1.05264
1.05258
1.05236
1.05214
1.05197
1.05173
1.05167
1.05171
1.05162
1.05156
1.0517
1.05197
1.0521
1.05196
1.05131
1.05095
1.05095
1.05113
1.05155
1.0518
1.05185
1.0519
1.05197
1.05205
1.05203
1.05198
1.05194
1.05183
1.05157
1.05131
1.05111
1.05113
1.05121
1.05134
1.05156
1.0518
1.05186
1.05183
1.05165
1.05168
1.0529
1.06015
1.08818
1.14755
1.23239
1.32001
1.36162
1.37203
1.04766
1.04762
1.04762
1.04764
1.04761
1.04753
1.04725
1.04617
1.04563
1.04535
1.04471
1.04376
1.04297
1.04273
1.0427
1.04258
1.04248
1.04254
1.04289
1.04346
1.04394
1.04428
1.04462
1.04503
1.0456
1.04625
1.04717
1.0477
1.04772
1.04767
1.04768
1.04772
1.04755
1.04687
1.04602
1.04591
1.04607
1.04674
1.04825
1.05031
1.05123
1.05127
1.05119
1.05084
1.04988
1.04892
1.04864
1.04861
1.04878
1.04954
1.05064
1.05096
1.05094
1.05095
1.05114
1.0514
1.05147
1.05139
1.05095
1.05029
1.0499
1.04979
1.04983
1.05034
1.05111
1.05128
1.05117
1.05113
1.05118
1.05145
1.05189
1.05197
1.05206
1.05216
1.05218
1.05217
1.05209
1.0519
1.05168
1.05142
1.05114
1.05113
1.05115
1.05131
1.05163
1.0519
1.05211
1.05212
1.05206
1.05187
1.05154
1.05144
1.05148
1.05191
1.05519
1.06917
1.11213
1.18981
1.26379
1.33105
1.04915
1.04917
1.04926
1.04954
1.05028
1.0513
1.05173
1.05157
1.0509
1.04975
1.04874
1.0482
1.0479
1.04763
1.0473
1.04683
1.04635
1.04618
1.04638
1.04681
1.04684
1.04681
1.0469
1.04703
1.04723
1.0476
1.04792
1.04846
1.04903
1.04927
1.0495
1.05009
1.05043
1.05018
1.04913
1.04867
1.04876
1.04938
1.05053
1.05148
1.05183
1.05171
1.05148
1.05127
1.05087
1.04986
1.049
1.04876
1.04851
1.04821
1.04786
1.04745
1.0473
1.04732
1.04768
1.04827
1.04845
1.04853
1.04861
1.0487
1.04869
1.0486
1.04864
1.04904
1.05
1.05081
1.05117
1.05133
1.05149
1.05178
1.05204
1.05198
1.05193
1.05198
1.05199
1.0519
1.05157
1.05121
1.05098
1.05089
1.05095
1.0511
1.05143
1.05186
1.05214
1.0523
1.05229
1.05223
1.05202
1.05167
1.05147
1.05146
1.05151
1.05171
1.052
1.0532
1.05982
1.08661
1.14387
1.26476
1.06256
1.06256
1.06258
1.06277
1.0636
1.06475
1.06506
1.06459
1.06285
1.06159
1.06146
1.0617
1.06184
1.06133
1.06028
1.05955
1.05937
1.0593
1.05903
1.05849
1.05711
1.05552
1.05501
1.05462
1.05403
1.05321
1.05229
1.05161
1.05139
1.05146
1.05186
1.0519
1.05153
1.05103
1.0502
1.04972
1.04986
1.05086
1.05166
1.05159
1.05067
1.04861
1.04787
1.04796
1.04816
1.04821
1.04803
1.048
1.04809
1.04807
1.04771
1.04677
1.04623
1.04619
1.04633
1.04684
1.0472
1.04739
1.0477
1.04819
1.0486
1.04867
1.04862
1.04878
1.0493
1.04961
1.04989
1.05028
1.05087
1.05109
1.05089
1.05025
1.04982
1.04984
1.05003
1.0503
1.05043
1.05055
1.05069
1.05085
1.0513
1.05167
1.05201
1.05225
1.05239
1.05239
1.05232
1.05202
1.05171
1.0515
1.0515
1.05161
1.05182
1.05216
1.05229
1.05225
1.05244
1.05516
1.06779
1.14673
1.07048
1.06982
1.06978
1.0702
1.07077
1.07083
1.07044
1.06902
1.06831
1.06828
1.06852
1.06997
1.07119
1.07052
1.0676
1.06644
1.06642
1.06706
1.06769
1.06782
1.06769
1.0667
1.06564
1.06488
1.06356
1.06173
1.06027
1.05928
1.059
1.05923
1.0597
1.05978
1.05973
1.05977
1.0596
1.05803
1.05513
1.05462
1.05486
1.05459
1.05295
1.0507
1.05038
1.05055
1.05092
1.05112
1.05146
1.05191
1.0523
1.05307
1.05366
1.05361
1.05297
1.05148
1.05022
1.04941
1.04904
1.04915
1.05029
1.05235
1.05301
1.05268
1.05245
1.05218
1.05143
1.05029
1.04933
1.04921
1.04937
1.04943
1.04912
1.04857
1.04826
1.04825
1.04841
1.0488
1.04927
1.04971
1.05007
1.05085
1.05146
1.05174
1.05197
1.05214
1.05211
1.05199
1.05174
1.05147
1.05144
1.05155
1.05186
1.05207
1.05227
1.0524
1.0524
1.05222
1.05175
1.0517
1.0526
1.07765
1.11309
1.11402
1.11525
1.11554
1.11477
1.11252
1.11017
1.10806
1.10753
1.10745
1.1071
1.10554
1.10452
1.1035
1.1008
1.09674
1.0949
1.09475
1.09486
1.0952
1.09563
1.09608
1.09632
1.09616
1.09449
1.09194
1.09191
1.09225
1.09094
1.08956
1.09039
1.09106
1.09076
1.09
1.09015
1.08982
1.08757
1.08473
1.08334
1.08202
1.07979
1.07661
1.07448
1.07335
1.07174
1.07129
1.07138
1.0704
1.06799
1.06737
1.06757
1.06826
1.06828
1.06662
1.06313
1.05978
1.05712
1.05613
1.05632
1.05642
1.05588
1.05427
1.05302
1.05182
1.0508
1.04965
1.04868
1.04856
1.04857
1.04861
1.04853
1.0484
1.04836
1.04847
1.04876
1.04953
1.05075
1.05149
1.05143
1.0509
1.05072
1.05056
1.05032
1.05028
1.05035
1.05052
1.05074
1.05102
1.05136
1.05178
1.05213
1.05228
1.05242
1.0524
1.0522
1.05189
1.05156
1.0516
1.05169
1.05602
1.15364
1.15379
1.15436
1.15537
1.15665
1.1586
1.15948
1.15897
1.15717
1.15544
1.15525
1.15523
1.15414
1.1515
1.1483
1.14637
1.14647
1.14669
1.14537
1.14301
1.14251
1.14218
1.14177
1.14226
1.14271
1.14152
1.1371
1.13217
1.1294
1.12784
1.12652
1.12467
1.12233
1.11972
1.11459
1.11134
1.11132
1.11068
1.11011
1.11015
1.10975
1.1089
1.10628
1.10401
1.10285
1.10099
1.09852
1.09548
1.08961
1.08169
1.07906
1.07966
1.08021
1.07866
1.07478
1.07357
1.07326
1.07174
1.06829
1.06491
1.06193
1.05851
1.05658
1.05645
1.05694
1.0567
1.05473
1.05287
1.0525
1.05262
1.05293
1.05334
1.05376
1.05374
1.05332
1.05324
1.05347
1.05332
1.05265
1.05153
1.05027
1.04966
1.04944
1.04949
1.0496
1.04976
1.05014
1.05058
1.05123
1.05172
1.05194
1.05202
1.05193
1.05178
1.05166
1.05163
1.05174
1.05203
1.05213
1.05278
1.21723
1.21794
1.21845
1.21829
1.21515
1.21156
1.21139
1.21104
1.20967
1.20952
1.20963
1.20907
1.20643
1.203
1.20183
1.20134
1.20097
1.20045
1.1993
1.1972
1.19447
1.19245
1.19152
1.19158
1.19258
1.19279
1.19115
1.18615
1.18481
1.18504
1.18456
1.18272
1.18021
1.17808
1.17498
1.17058
1.16902
1.16691
1.1629
1.1587
1.15504
1.15227
1.14947
1.14583
1.14376
1.14359
1.14451
1.14394
1.13992
1.13308
1.12804
1.12566
1.12319
1.11774
1.1114
1.11052
1.11084
1.10883
1.10437
1.10175
1.09779
1.09088
1.08692
1.08469
1.08368
1.08298
1.08008
1.07489
1.07069
1.06834
1.06661
1.06422
1.06127
1.05884
1.05622
1.05458
1.05319
1.05225
1.05141
1.05068
1.04995
1.04957
1.0495
1.04956
1.04996
1.05082
1.05184
1.0518
1.05147
1.05119
1.05068
1.05037
1.05041
1.05061
1.05088
1.05137
1.05184
1.05211
1.05213
1.05204
1.28416
1.28423
1.28409
1.28337
1.28177
1.27953
1.27902
1.27895
1.27837
1.27776
1.27733
1.27534
1.2725
1.27244
1.2724
1.27116
1.26929
1.26562
1.26315
1.26312
1.26235
1.25905
1.25746
1.25696
1.25619
1.25433
1.25092
1.24714
1.24378
1.24136
1.23947
1.23739
1.23477
1.23255
1.22999
1.22579
1.22466
1.22376
1.22095
1.21749
1.21542
1.21355
1.2107
1.20601
1.20048
1.19778
1.19439
1.1864
1.18205
1.17984
1.17613
1.17359
1.17068
1.16556
1.16024
1.15791
1.15449
1.14351
1.13538
1.13486
1.13239
1.1272
1.12411
1.11853
1.10844
1.10401
1.10217
1.09903
1.09331
1.0863
1.08155
1.07843
1.07422
1.0693
1.06461
1.06205
1.05999
1.0582
1.05653
1.05548
1.05501
1.05546
1.05544
1.05544
1.05534
1.0551
1.05449
1.05338
1.05228
1.0509
1.05008
1.05008
1.0502
1.05053
1.05115
1.05197
1.05198
1.05193
1.05164
1.05135
1.35346
1.35173
1.35121
1.35107
1.35045
1.34836
1.34754
1.34717
1.34566
1.34268
1.3416
1.34178
1.34166
1.34081
1.33737
1.33464
1.33478
1.33448
1.33278
1.32875
1.32595
1.32555
1.32531
1.32359
1.32003
1.31896
1.31825
1.31691
1.31319
1.30993
1.30795
1.30601
1.30361
1.3009
1.29778
1.29455
1.29121
1.28815
1.28453
1.27737
1.27279
1.27234
1.27133
1.26704
1.2597
1.25823
1.2573
1.25379
1.24826
1.24299
1.23767
1.23268
1.22806
1.21959
1.21161
1.2114
1.21081
1.20532
1.1973
1.19104
1.18141
1.17497
1.17327
1.17041
1.16425
1.1536
1.14609
1.14257
1.13995
1.13388
1.12543
1.12034
1.1163
1.11031
1.10368
1.09766
1.09267
1.08728
1.08155
1.07628
1.07132
1.06725
1.06307
1.06028
1.05749
1.05546
1.05361
1.05242
1.05183
1.05097
1.05042
1.05072
1.05151
1.05253
1.05248
1.05197
1.05166
1.05094
1.05047
1.05063
1.42725
1.42639
1.42513
1.42438
1.42373
1.42151
1.41946
1.41942
1.41916
1.41816
1.41587
1.41303
1.41266
1.41278
1.41233
1.40987
1.40475
1.40354
1.40364
1.40297
1.40051
1.39778
1.39598
1.39431
1.39218
1.38942
1.38705
1.38514
1.38264
1.37913
1.37634
1.37379
1.37068
1.36797
1.36579
1.36239
1.35835
1.3558
1.35326
1.34815
1.34129
1.33979
1.3392
1.33684
1.33079
1.3244
1.32007
1.31416
1.30855
1.30482
1.30035
1.29558
1.29128
1.28615
1.27945
1.27307
1.2678
1.26104
1.25263
1.24787
1.2422
1.23578
1.22951
1.22099
1.21308
1.20517
1.19893
1.19186
1.18446
1.17747
1.16976
1.16094
1.15299
1.14522
1.13791
1.12988
1.12254
1.11442
1.10624
1.09809
1.09068
1.08366
1.07731
1.07181
1.06681
1.06349
1.0601
1.05817
1.05661
1.05685
1.05716
1.05731
1.05698
1.05615
1.05481
1.05321
1.05151
1.05069
1.05037
1.05074
1.50213
1.50126
1.50075
1.50014
1.49946
1.49853
1.49731
1.4945
1.4928
1.4927
1.49219
1.49099
1.48785
1.48515