/*--------------------------------*- C++ -*----------------------------------*\
  =========                 |
  \\      /  F ield         | OpenFOAM: The Open Source CFD Toolbox
   \\    /   O peration     | Website:  https://openfoam.org
    \\  /    A nd           | Version:  7
     \\/     M anipulation  |
\*---------------------------------------------------------------------------*/
FoamFile
{
    version     2.0;
    format      ascii;
    class       volScalarField;
    location    "5.5";
    object      T;
}
// * * * * * * * * * * * * * * * * * * * * * * * * * * * * * * * * * * * * * //

dimensions      [0 0 0 1 0 0 0];

internalField   nonuniform List<scalar> 
90000
(
0.953167
0.95678
0.960785
0.964532
0.968248
0.971594
0.97488
0.97778
0.980614
0.983071
0.985472
0.987525
0.989538
0.991278
0.992979
0.994648
0.996835
0.999486
1.00295
1.00679
1.01132
1.01577
1.02052
1.02488
1.02927
1.03326
1.03706
1.04048
1.04364
1.04625
1.04877
1.05046
1.05196
1.05313
1.05343
1.05353
1.0535
1.05325
1.05265
1.05139
1.04867
1.04553
1.04263
1.04054
1.03891
1.03912
1.03957
1.04045
1.04127
1.04125
1.04185
1.04267
1.04264
1.0426
1.04226
1.04153
1.04055
1.03968
1.03908
1.03867
1.03872
1.03867
1.03922
1.03996
1.04064
1.04075
1.04052
1.03966
1.03881
1.03829
1.03829
1.0384
1.03872
1.03926
1.0391
1.03841
1.03801
1.03772
1.03775
1.03799
1.03811
1.03779
1.03735
1.03695
1.03702
1.03711
1.03701
1.03685
1.03669
1.03674
1.03672
1.03657
1.03622
1.03593
1.0357
1.03559
1.03553
1.03541
1.03523
1.0349
0.94994
0.950123
0.9505
0.951065
0.95185
0.952821
0.953999
0.955343
0.956863
0.958531
0.960344
0.962288
0.964321
0.966459
0.968683
0.970842
0.972853
0.974826
0.976811
0.979007
0.981349
0.984053
0.986898
0.990123
0.993471
0.997129
1.00087
1.00469
1.0086
1.01246
1.01617
1.02004
1.02338
1.02639
1.03001
1.03206
1.03408
1.03637
1.03802
1.03892
1.03938
1.04044
1.04053
1.04007
1.03868
1.03673
1.03472
1.0332
1.03253
1.0324
1.03266
1.0335
1.03438
1.03509
1.03578
1.03652
1.03686
1.03656
1.03578
1.03466
1.03366
1.0329
1.03307
1.03369
1.03485
1.03569
1.03643
1.03619
1.03543
1.0345
1.03362
1.03381
1.03453
1.03552
1.03571
1.03535
1.03465
1.03394
1.03408
1.03469
1.03506
1.03489
1.03449
1.03411
1.03406
1.03424
1.03436
1.03431
1.03419
1.03413
1.03423
1.03419
1.034
1.03373
1.03354
1.03347
1.03341
1.03341
1.03337
1.03312
0.94865
0.948626
0.948599
0.948574
0.948557
0.948546
0.948548
0.94856
0.948589
0.948647
0.948742
0.94893
0.949209
0.949584
0.950068
0.950664
0.951382
0.952221
0.953173
0.954261
0.955453
0.956837
0.958344
0.960103
0.962107
0.964371
0.96708
0.96994
0.973328
0.976945
0.980992
0.985154
0.990015
0.994648
0.999383
1.00441
1.00929
1.01338
1.01735
1.02139
1.02432
1.02651
1.02781
1.02873
1.02962
1.02983
1.02971
1.02949
1.02894
1.0282
1.02749
1.02692
1.02696
1.02717
1.02761
1.02825
1.02874
1.02927
1.02932
1.02906
1.02838
1.02758
1.02711
1.0272
1.02764
1.02821
1.02899
1.02975
1.03014
1.02962
1.02899
1.02861
1.02872
1.02907
1.02959
1.03012
1.03001
1.02964
1.02932
1.0294
1.02969
1.03001
1.02999
1.02977
1.02959
1.02971
1.02996
1.03009
1.03007
1.03009
1.03019
1.03031
1.03028
1.03014
1.02995
1.02992
1.02996
1.03004
1.03001
1.02989
0.946838
0.946823
0.946806
0.946784
0.946759
0.946729
0.946694
0.946658
0.946623
0.946584
0.946562
0.946521
0.946488
0.94646
0.946431
0.946393
0.946342
0.946327
0.94634
0.94638
0.946452
0.946599
0.946822
0.947128
0.94755
0.948111
0.948864
0.949787
0.951013
0.952482
0.954405
0.956743
0.959535
0.963097
0.966903
0.971757
0.976616
0.98257
0.988259
0.994391
1.0001
1.00576
1.01026
1.0135
1.01727
1.01932
1.02087
1.02185
1.02236
1.02257
1.02278
1.02316
1.02316
1.02299
1.02276
1.02251
1.02234
1.02247
1.02279
1.02314
1.02319
1.02309
1.02294
1.02269
1.0224
1.02231
1.0225
1.02306
1.02388
1.02477
1.02525
1.02482
1.02409
1.02361
1.02378
1.02436
1.02498
1.02534
1.02499
1.02445
1.02447
1.02484
1.02538
1.02534
1.02513
1.02508
1.02529
1.02559
1.02569
1.02573
1.02583
1.02602
1.02611
1.02606
1.02597
1.02601
1.02607
1.02618
1.02628
1.02627
0.945034
0.945024
0.945016
0.945004
0.944986
0.944959
0.944931
0.944908
0.944876
0.944839
0.944806
0.944779
0.944752
0.944729
0.944702
0.944666
0.944625
0.944583
0.94456
0.94455
0.944556
0.944532
0.944502
0.944472
0.944442
0.944441
0.94445
0.944475
0.944524
0.944618
0.944815
0.94514
0.945644
0.946386
0.947423
0.948948
0.95094
0.953663
0.957306
0.961522
0.967311
0.973194
0.980284
0.98766
0.994261
1.00088
1.00605
1.01144
1.01408
1.01591
1.01781
1.01857
1.01881
1.01931
1.01954
1.0194
1.01903
1.01899
1.01933
1.01988
1.02016
1.02029
1.02044
1.02032
1.01995
1.01954
1.01921
1.01936
1.01978
1.02053
1.02113
1.02149
1.02166
1.02137
1.02103
1.02099
1.0212
1.02149
1.0218
1.02163
1.02136
1.02138
1.02162
1.02197
1.02199
1.02195
1.02196
1.02212
1.0223
1.02241
1.02249
1.02263
1.02284
1.02285
1.02281
1.02278
1.02285
1.02296
1.02306
1.02312
0.943893
0.943884
0.943873
0.943861
0.943848
0.943829
0.943814
0.9438
0.943779
0.943759
0.943746
0.943732
0.943716
0.943701
0.943688
0.943673
0.943651
0.943624
0.943602
0.943581
0.943556
0.943526
0.943494
0.943471
0.943447
0.943425
0.943407
0.943398
0.943402
0.943415
0.943398
0.943378
0.943366
0.943372
0.943396
0.943446
0.943589
0.943858
0.944359
0.945181
0.946567
0.948561
0.951667
0.955995
0.961342
0.968456
0.976294
0.983888
0.992146
0.999737
1.0053
1.00969
1.01181
1.01444
1.01684
1.01706
1.01656
1.01665
1.01745
1.01863
1.01917
1.01913
1.01888
1.01863
1.0186
1.01869
1.01866
1.01856
1.01854
1.01864
1.01883
1.0192
1.01946
1.01972
1.02005
1.01996
1.01976
1.01959
1.01971
1.01989
1.02007
1.01998
1.01982
1.01995
1.02018
1.02033
1.02026
1.02025
1.02033
1.02047
1.02059
1.02061
1.02074
1.02089
1.02099
1.02091
1.02089
1.02094
1.02102
1.02109
0.943332
0.943326
0.943316
0.943304
0.94329
0.943271
0.943257
0.943242
0.943224
0.943212
0.943202
0.943188
0.943173
0.943162
0.94315
0.943133
0.943119
0.943109
0.943097
0.94308
0.943059
0.943035
0.943011
0.942994
0.942981
0.942962
0.942935
0.942911
0.942898
0.942884
0.942863
0.942845
0.942831
0.942828
0.942824
0.942826
0.942805
0.942783
0.942776
0.942784
0.942808
0.942902
0.943146
0.943647
0.944689
0.946338
0.949271
0.953447
0.959553
0.967032
0.975437
0.985288
0.99396
1.00041
1.0059
1.01239
1.01488
1.01583
1.01657
1.01788
1.01846
1.01839
1.0175
1.01721
1.01755
1.01832
1.01889
1.01885
1.01857
1.01813
1.01816
1.01826
1.01846
1.01893
1.01925
1.01937
1.01931
1.01913
1.01903
1.0191
1.0192
1.01933
1.01932
1.01931
1.01941
1.01959
1.01959
1.01952
1.01949
1.01955
1.01967
1.01983
1.01985
1.01992
1.02003
1.02001
1.01991
1.0199
1.01993
1.01997
0.94317
0.943158
0.943146
0.943133
0.94312
0.943104
0.943094
0.943081
0.943054
0.943036
0.943019
0.942988
0.942972
0.942968
0.94296
0.942941
0.942918
0.942904
0.942888
0.942863
0.942843
0.942827
0.942809
0.942797
0.942785
0.942768
0.942742
0.942722
0.942711
0.9427
0.942684
0.942663
0.942646
0.942631
0.942613
0.94259
0.942564
0.942543
0.942527
0.942507
0.942488
0.942461
0.942434
0.942412
0.942409
0.942453
0.942622
0.943031
0.943946
0.945712
0.94914
0.953691
0.961201
0.970426
0.979231
0.988573
0.9984
1.00654
1.00857
1.01188
1.01481
1.01624
1.01617
1.01714
1.01837
1.01923
1.01924
1.01907
1.01864
1.0183
1.01807
1.01823
1.01858
1.01882
1.0189
1.01895
1.01893
1.01899
1.01901
1.01897
1.01891
1.01898
1.01905
1.01913
1.01923
1.01931
1.01936
1.01933
1.01927
1.01926
1.01928
1.01937
1.01949
1.01961
1.01968
1.01966
1.01957
1.01946
1.01946
1.01948
0.943154
0.943142
0.943131
0.943117
0.943101
0.943086
0.943073
0.943061
0.943044
0.943018
0.942983
0.942957
0.942942
0.942929
0.942914
0.942897
0.942882
0.942868
0.94284
0.94281
0.942791
0.942777
0.942762
0.942746
0.942729
0.942711
0.942692
0.942672
0.942656
0.942642
0.942627
0.942608
0.942588
0.942565
0.942536
0.942504
0.942472
0.94244
0.94241
0.942377
0.942343
0.942306
0.942272
0.942234
0.942211
0.942188
0.942162
0.942138
0.942147
0.942193
0.942393
0.942909
0.944223
0.946559
0.95126
0.957523
0.96634
0.977058
0.987697
0.99706
1.00347
1.01075
1.01486
1.01721
1.01804
1.01908
1.01893
1.018
1.01793
1.01823
1.01863
1.01896
1.01891
1.01877
1.01847
1.01856
1.01871
1.01903
1.01909
1.01904
1.01891
1.01891
1.01898
1.01911
1.01918
1.01918
1.0192
1.01922
1.01922
1.01918
1.01913
1.01916
1.01926
1.01944
1.01953
1.01951
1.01945
1.01932
1.01925
1.01925
0.943157
0.94315
0.943143
0.943135
0.943127
0.943121
0.94311
0.943097
0.943071
0.943029
0.943016
0.943017
0.943013
0.942996
0.942971
0.942937
0.942897
0.942868
0.942845
0.942829
0.942815
0.942799
0.942776
0.942749
0.942723
0.942705
0.942689
0.942672
0.942651
0.942629
0.94261
0.942587
0.942558
0.942524
0.942489
0.942451
0.942415
0.942378
0.942344
0.942314
0.94229
0.942263
0.942236
0.942209
0.942179
0.942142
0.942111
0.942097
0.942083
0.942094
0.942092
0.942094
0.942123
0.942225
0.94263
0.943556
0.945931
0.949649
0.956705
0.965353
0.976584
0.987211
0.996427
1.00581
1.00916
1.01359
1.01467
1.01662
1.018
1.01954
1.01965
1.01953
1.01911
1.01817
1.01819
1.01839
1.01885
1.01909
1.01906
1.01891
1.0188
1.01886
1.01902
1.01914
1.01912
1.01906
1.01908
1.01914
1.01916
1.01911
1.01905
1.01906
1.01914
1.01929
1.0194
1.01941
1.01937
1.01926
1.01915
1.01912
0.942881
0.942873
0.942863
0.942858
0.942857
0.942857
0.942855
0.942845
0.94283
0.94282
0.942808
0.942787
0.942777
0.942776
0.942771
0.942755
0.942737
0.942726
0.942716
0.942705
0.942697
0.942687
0.942671
0.942648
0.942627
0.942612
0.942599
0.942585
0.942569
0.942551
0.942534
0.942515
0.942491
0.942465
0.942438
0.942407
0.942373
0.942342
0.942313
0.94229
0.942276
0.942262
0.942246
0.94223
0.942206
0.942181
0.942171
0.942163
0.942149
0.942128
0.942103
0.942068
0.942059
0.942077
0.942076
0.942107
0.942234
0.942587
0.943584
0.945509
0.950124
0.956403
0.966883
0.977924
0.989368
1.00027
1.00722
1.01472
1.01682
1.01873
1.01865
1.01797
1.0173
1.01763
1.01823
1.01884
1.01896
1.01889
1.01852
1.01852
1.01869
1.01898
1.01906
1.01902
1.01891
1.0189
1.01897
1.01905
1.01904
1.01899
1.01894
1.01897
1.01905
1.01911
1.0192
1.01927
1.01924
1.01918
1.01907
1.019
0.942519
0.942516
0.942516
0.942515
0.942514
0.942514
0.942514
0.94251
0.942497
0.942486
0.942481
0.942476
0.942474
0.942474
0.942472
0.94247
0.942468
0.942469
0.942469
0.942464
0.942455
0.942448
0.942446
0.942442
0.942436
0.942425
0.942416
0.942409
0.942404
0.942399
0.942391
0.942382
0.942369
0.942356
0.942344
0.942327
0.942304
0.942289
0.94228
0.942268
0.942249
0.942236
0.942226
0.942211
0.9422
0.942204
0.942214
0.942214
0.94221
0.942187
0.942132
0.942061
0.942002
0.941965
0.941956
0.941969
0.94205
0.94213
0.942184
0.942261
0.942598
0.943481
0.946101
0.950493
0.95942
0.969557
0.981921
0.994007
1.00136
1.00941
1.01124
1.01366
1.01561
1.0184
1.01921
1.01912
1.01868
1.01782
1.01786
1.01824
1.01876
1.01894
1.01885
1.0186
1.01858
1.0187
1.01885
1.01884
1.01879
1.01877
1.0188
1.01888
1.0189
1.01888
1.01893
1.01903
1.01904
1.01902
1.01895
1.01884
0.942084
0.94208
0.94208
0.942081
0.942083
0.942087
0.942087
0.942083
0.942078
0.942071
0.942066
0.942066
0.942067
0.942071
0.942075
0.942079
0.942087
0.942096
0.942095
0.94209
0.942091
0.942093
0.942098
0.942108
0.94211
0.942109
0.942103
0.942101
0.942103
0.942107
0.942106
0.942102
0.942095
0.942089
0.942084
0.942077
0.942069
0.94207
0.942079
0.942098
0.942121
0.942148
0.942174
0.942197
0.942221
0.942256
0.942285
0.942284
0.942277
0.942263
0.942228
0.942157
0.942055
0.941968
0.941931
0.941927
0.94194
0.941972
0.942023
0.942077
0.942056
0.942002
0.942046
0.942374
0.943829
0.946849
0.953934
0.962785
0.97584
0.988861
0.999065
1.01019
1.01393
1.01679
1.01776
1.01717
1.01614
1.01664
1.01763
1.01844
1.01864
1.01849
1.01805
1.01808
1.01831
1.01854
1.01852
1.01846
1.0184
1.0185
1.01864
1.01864
1.0186
1.01857
1.0186
1.01867
1.01873
1.01876
1.01873
1.01863
0.941727
0.941724
0.941724
0.941724
0.941726
0.941726
0.941725
0.941721
0.941718
0.941713
0.941711
0.941711
0.941712
0.941717
0.941723
0.941725
0.94173
0.941737
0.941737
0.941736
0.941737
0.941742
0.941748
0.94176
0.941774
0.941781
0.941787
0.941793
0.9418
0.941808
0.941814
0.941816
0.941815
0.941812
0.941807
0.941805
0.941808
0.941824
0.941852
0.941886
0.941923
0.941962
0.942001
0.942039
0.942077
0.942115
0.942168
0.942222
0.942222
0.942216
0.9422
0.942156
0.942064
0.941967
0.941939
0.941932
0.941913
0.941883
0.941884
0.941896
0.941879
0.941849
0.941798
0.94165
0.941601
0.941748
0.942601
0.944677
0.950227
0.957865
0.970746
0.983975
0.994579
1.00469
1.00825
1.01177
1.01407
1.01757
1.01846
1.01837
1.01789
1.01716
1.0173
1.01783
1.01825
1.01821
1.01808
1.01794
1.01806
1.01827
1.01839
1.01831
1.01821
1.01821
1.01823
1.01826
1.01832
1.01843
1.01843
1.01836
0.941462
0.941463
0.941463
0.941464
0.941467
0.94147
0.941472
0.941475
0.941478
0.941482
0.941486
0.941491
0.941496
0.941504
0.941514
0.941523
0.941532
0.941542
0.941554
0.941563
0.941573
0.941587
0.941603
0.941616
0.941626
0.941634
0.941646
0.94166
0.941667
0.941666
0.941663
0.941656
0.941645
0.941626
0.941607
0.941595
0.941594
0.941599
0.941612
0.941632
0.941659
0.941693
0.941732
0.941773
0.941813
0.941853
0.94191
0.94199
0.942009
0.942004
0.941995
0.941974
0.941916
0.941836
0.94179
0.941789
0.941786
0.94177
0.941759
0.94177
0.941785
0.941758
0.941673
0.941529
0.941336
0.941261
0.941277
0.941382
0.941935
0.943343
0.947641
0.954315
0.967042
0.980557
0.993042
1.00659
1.01216
1.01585
1.01687
1.01612
1.01536
1.01603
1.0172
1.01801
1.01788
1.01751
1.01738
1.01754
1.01783
1.01793
1.0179
1.01785
1.01787
1.01787
1.01784
1.01784
1.01789
1.01801
1.01806
1.01803
0.941329
0.941329
0.941329
0.941328
0.941326
0.941325
0.941327
0.941329
0.941331
0.941334
0.941338
0.941341
0.941346
0.94135
0.941354
0.941359
0.941366
0.941374
0.941386
0.941402
0.941414
0.941425
0.94144
0.941446
0.941445
0.941445
0.941449
0.941454
0.941453
0.94145
0.941441
0.941422
0.941394
0.941361
0.941328
0.941302
0.9413
0.941303
0.941309
0.941317
0.94133
0.941348
0.941374
0.941408
0.941448
0.94149
0.941545
0.941623
0.941651
0.941646
0.94164
0.94163
0.941598
0.941527
0.941444
0.941401
0.9414
0.941409
0.94144
0.941505
0.941567
0.941572
0.941526
0.941391
0.94119
0.941047
0.941026
0.941071
0.941097
0.941139
0.941426
0.942386
0.945932
0.952055
0.964484
0.978042
0.990721
1.00233
1.00661
1.01058
1.01341
1.01713
1.01769
1.01746
1.01658
1.01664
1.01699
1.0175
1.01771
1.01759
1.01737
1.01743
1.01752
1.01752
1.01745
1.01744
1.01749
1.01757
1.01766
1.01766
0.941136
0.941141
0.941148
0.941156
0.941159
0.941158
0.941157
0.941158
0.941159
0.941168
0.941177
0.941176
0.941175
0.941176
0.941182
0.941188
0.94119
0.941193
0.941202
0.941219
0.941237
0.94125
0.941259
0.941262
0.941262
0.941261
0.941258
0.941256
0.941257
0.941255
0.941244
0.941215
0.941178
0.94114
0.941099
0.941059
0.941054
0.941054
0.941045
0.941031
0.941031
0.941034
0.941043
0.94106
0.941084
0.941112
0.941158
0.941223
0.941238
0.941234
0.941234
0.941237
0.94123
0.941175
0.94107
0.940969
0.940937
0.940944
0.940977
0.941058
0.941173
0.941234
0.941225
0.94116
0.941026
0.940921
0.940904
0.940893
0.940866
0.94087
0.940848
0.940824
0.940983
0.941742
0.944911
0.950753
0.96326
0.977018
0.991013
1.00571
1.01152
1.01552
1.01596
1.01439
1.01473
1.01589
1.01701
1.01736
1.01725
1.01692
1.01696
1.01713
1.01719
1.0171
1.01705
1.01711
1.01718
1.01719
1.01723
1.0173
0.94101
0.941017
0.941025
0.941037
0.941052
0.941059
0.941059
0.941057
0.941057
0.941062
0.941082
0.941094
0.941092
0.94109
0.941086
0.941077
0.94107
0.941069
0.941071
0.941078
0.941093
0.941103
0.941102
0.941099
0.9411
0.941101
0.941099
0.941094
0.941088
0.94108
0.941067
0.941042
0.941004
0.940961
0.940918
0.940873
0.940852
0.940853
0.940848
0.94082
0.9408
0.940787
0.940777
0.940774
0.940768
0.940767
0.940787
0.940825
0.940827
0.940825
0.940827
0.940843
0.940853
0.940824
0.940724
0.940618
0.940556
0.940548
0.940574
0.940662
0.940787
0.940844
0.940835
0.940795
0.94074
0.940717
0.940704
0.940684
0.940675
0.940673
0.940647
0.940619
0.940544
0.940483
0.940624
0.941371
0.944401
0.950264
0.962792
0.976907
0.99067
1.00212
1.00682
1.01023
1.01446
1.01701
1.01702
1.01669
1.01614
1.01635
1.01686
1.01698
1.01686
1.01667
1.01673
1.01686
1.01689
1.01684
1.01685
1.01697
0.940901
0.940906
0.940914
0.940928
0.940944
0.940951
0.94095
0.940949
0.940952
0.940966
0.940993
0.940998
0.940995
0.940992
0.94098
0.940948
0.94093
0.940928
0.940924
0.940924
0.940936
0.940951
0.940949
0.940944
0.940944
0.940939
0.940924
0.940907
0.940893
0.940877
0.94086
0.940838
0.940818
0.940794
0.940765
0.940729
0.940686
0.940684
0.940693
0.940684
0.940644
0.940614
0.940595
0.940575
0.940533
0.94049
0.94049
0.940507
0.940507
0.940503
0.940489
0.940494
0.940532
0.940531
0.940471
0.940414
0.940393
0.940377
0.940388
0.940444
0.940473
0.940471
0.940445
0.940434
0.94044
0.940449
0.940434
0.940391
0.940377
0.940399
0.940446
0.940445
0.940418
0.940358
0.940281
0.940284
0.940443
0.941229
0.944222
0.95047
0.963556
0.978223
0.993588
1.00726
1.01283
1.01572
1.01503
1.01395
1.01486
1.01625
1.01673
1.01661
1.01622
1.01629
1.01655
1.01669
1.01663
1.01654
1.01659
1.01671
0.940661
0.940661
0.940652
0.940645
0.940645
0.940644
0.940634
0.940631
0.940642
0.940656
0.940664
0.940672
0.940686
0.940694
0.940688
0.940679
0.940685
0.940688
0.940688
0.940691
0.94071
0.940734
0.940738
0.94073
0.940717
0.940698
0.940674
0.94067
0.940672
0.940659
0.940632
0.940605
0.940584
0.940569
0.94055
0.94052
0.940489
0.940499
0.940546
0.94056
0.940542
0.940522
0.940514
0.940498
0.940443
0.940373
0.940343
0.940355
0.940363
0.940361
0.940339
0.94033
0.940362
0.94037
0.940327
0.940274
0.94026
0.940252
0.940253
0.940256
0.940226
0.94018
0.940149
0.94015
0.940158
0.940173
0.940172
0.940137
0.940121
0.940144
0.940202
0.940236
0.940238
0.940225
0.940199
0.940164
0.940106
0.940104
0.940267
0.941134
0.944304
0.951516
0.965078
0.980903
0.994451
1.00397
1.00834
1.01221
1.01624
1.01652
1.01626
1.01554
1.01573
1.01633
1.01656
1.01646
1.01628
1.01633
1.01644
1.01654
0.940348
0.940346
0.940335
0.940318
0.940314
0.94031
0.940307
0.940307
0.940313
0.940318
0.940321
0.940329
0.940353
0.940371
0.940366
0.940365
0.940387
0.940404
0.940408
0.940415
0.940435
0.940446
0.940447
0.940442
0.940403
0.940356
0.940352
0.940345
0.940294
0.94023
0.940219
0.940231
0.940248
0.940249
0.940245
0.940238
0.94024
0.940273
0.940364
0.940394
0.940376
0.940377
0.9404
0.940396
0.940353
0.940297
0.940277
0.940305
0.940316
0.940307
0.940278
0.940253
0.940273
0.940292
0.940252
0.940193
0.940174
0.940178
0.940179
0.940152
0.940089
0.94001
0.939965
0.939962
0.939977
0.940001
0.940004
0.939991
0.939993
0.940009
0.940026
0.940027
0.940031
0.940043
0.940049
0.940035
0.939977
0.939922
0.939884
0.939907
0.940141
0.941269
0.944952
0.953671
0.96829
0.984039
1.00095
1.0102
1.01511
1.01497
1.01334
1.01424
1.01582
1.01643
1.01632
1.01594
1.01602
1.01627
1.01636
1.01635
0.93996
0.939968
0.939972
0.939972
0.939964
0.939957
0.939961
0.939981
0.940007
0.940014
0.940016
0.940021
0.940019
0.940013
0.940022
0.940071
0.940116
0.940133
0.940157
0.940193
0.9402
0.940199
0.940193
0.940171
0.940111
0.940075
0.940042
0.939973
0.939908
0.939886
0.939883
0.939903
0.939953
0.939976
0.939979
0.939977
0.939978
0.940022
0.94014
0.940164
0.94017
0.940239
0.940317
0.940318
0.940276
0.940228
0.940199
0.940209
0.940268
0.94027
0.940249
0.940207
0.940209
0.940224
0.940169
0.940056
0.940041
0.940047
0.940096
0.940116
0.940102
0.940022
0.93995
0.939928
0.939933
0.939944
0.939935
0.93992
0.939922
0.939924
0.939914
0.939867
0.939831
0.939836
0.939852
0.939853
0.939812
0.939762
0.939759
0.939793
0.939833
0.939894
0.940193
0.941734
0.946076
0.956757
0.972018
0.987959
1.00079
1.00681
1.01027
1.01561
1.01632
1.01609
1.01534
1.01555
1.01613
1.01633
1.01626
1.01617
0.939708
0.939687
0.939658
0.939656
0.939664
0.939675
0.939704
0.939756
0.939794
0.939816
0.939816
0.939799
0.939768
0.939755
0.93977
0.939839
0.939914
0.939966
0.940031
0.940097
0.940118
0.940121
0.940119
0.940101
0.940069
0.940034
0.939944
0.939864
0.93986
0.939862
0.939833
0.939825
0.939856
0.93987
0.939853
0.939837
0.939847
0.939917
0.939978
0.939994
0.940049
0.940172
0.940242
0.940253
0.940204
0.940101
0.940052
0.94005
0.940125
0.940218
0.940221
0.940179
0.940097
0.940086
0.940033
0.93987
0.939836
0.939848
0.939937
0.940089
0.940145
0.940118
0.940054
0.939965
0.939877
0.93986
0.939886
0.939919
0.939928
0.939911
0.939868
0.939773
0.939673
0.939662
0.939672
0.939693
0.939687
0.939683
0.939689
0.939718
0.939778
0.939805
0.939799
0.939856
0.940315
0.942408
0.948276
0.960981
0.97688
0.995294
1.00785
1.01426
1.01497
1.01303
1.01398
1.01565
1.01625
1.01618
1.01592
1.01602
0.939545
0.939505
0.939488
0.939479
0.939478
0.939506
0.939541
0.939576
0.939656
0.939725
0.939744
0.939734
0.939696
0.939676
0.939693
0.939753
0.939838
0.93993
0.940054
0.940162
0.940172
0.940171
0.940169
0.940161
0.940143
0.940115
0.940035
0.939927
0.939918
0.939916
0.939903
0.939907
0.939928
0.939907
0.939859
0.939814
0.939823
0.939861
0.939863
0.939877
0.939992
0.940109
0.940108
0.940135
0.940132
0.940025
0.939929
0.939906
0.939926
0.940045
0.940123
0.940116
0.940007
0.939983
0.939961
0.939794
0.939661
0.939673
0.939783
0.939982
0.940134
0.940169
0.940137
0.940036
0.939865
0.939757
0.939771
0.939845
0.939919
0.939921
0.939884
0.939777
0.939617
0.939575
0.939577
0.939598
0.939641
0.939667
0.939674
0.93968
0.939688
0.939685
0.939658
0.939651
0.939672
0.939824
0.940664
0.943567
0.951819
0.965952
0.983617
0.997592
1.00538
1.00938
1.01526
1.01617
1.01599
1.01534
1.01563
1.0161
0.93956
0.939547
0.939531
0.939519
0.939517
0.939536
0.939572
0.939608
0.939671
0.939732
0.93976
0.939759
0.939754
0.93977
0.939818
0.939846
0.939871
0.939918
0.940039
0.940185
0.940207
0.940207
0.940203
0.940188
0.940153
0.940116
0.940068
0.93997
0.939916
0.939918
0.939925
0.939964
0.939955
0.939886
0.939878
0.939857
0.939749
0.939569
0.939473
0.939522
0.939719
0.939991
0.940033
0.940053
0.94007
0.939989
0.939887
0.939881
0.939879
0.939862
0.939952
0.940092
0.940103
0.940076
0.940019
0.939829
0.93962
0.939615
0.939718
0.939901
0.940044
0.940096
0.940085
0.940005
0.939847
0.939697
0.939676
0.939695
0.939735
0.939797
0.939812
0.939764
0.939644
0.939598
0.939597
0.939616
0.939675
0.939707
0.939701
0.939665
0.939618
0.93955
0.939538
0.939548
0.939567
0.939599
0.939667
0.939963
0.941317
0.945592
0.956714
0.972311
0.991095
1.00631
1.01387
1.01496
1.013
1.014
1.01533
1.01614
0.939251
0.939241
0.939234
0.939224
0.939217
0.939217
0.939239
0.939274
0.939274
0.939288
0.939335
0.939385
0.939427
0.939442
0.939437
0.939437
0.93945
0.939484
0.939575
0.939762
0.939826
0.939837
0.939874
0.939941
0.939951
0.939937
0.93993
0.939912
0.939856
0.939821
0.939829
0.939837
0.939782
0.939755
0.93969
0.939477
0.939266
0.939183
0.939214
0.939362
0.939717
0.940008
0.940046
0.940119
0.940134
0.940018
0.939877
0.939854
0.939835
0.939778
0.93986
0.940122
0.940283
0.940284
0.940128
0.939787
0.939606
0.939611
0.939699
0.939858
0.939952
0.939979
0.939955
0.939863
0.939769
0.939701
0.939654
0.93964
0.939638
0.939681
0.93973
0.939747
0.939738
0.939729
0.939724
0.939721
0.939738
0.939757
0.939757
0.939712
0.939596
0.939502
0.939498
0.939517
0.939563
0.939624
0.939707
0.939738
0.939818
0.940291
0.942409
0.949018
0.962418
0.980834
0.99567
1.0049
1.00936
1.01523
1.01614
1.016
0.938107
0.938086
0.938084
0.938053
0.938015
0.938011
0.938014
0.938057
0.938078
0.938085
0.938127
0.93823
0.938298
0.938303
0.938308
0.938338
0.938395
0.938485
0.938606
0.938869
0.939177
0.939257
0.939304
0.93939
0.939524
0.939696
0.939805
0.939806
0.939763
0.939742
0.939734
0.939635
0.939559
0.93951
0.939318
0.939029
0.938938
0.938947
0.939074
0.939526
0.939911
0.94004
0.940182
0.940324
0.940312
0.940122
0.939903
0.939827
0.939701
0.93963
0.939738
0.940013
0.940182
0.940197
0.940044
0.939725
0.939622
0.939647
0.939755
0.939776
0.939753
0.939737
0.939702
0.939653
0.939672
0.939766
0.939818
0.939794
0.939731
0.939718
0.939742
0.939788
0.939824
0.939832
0.939817
0.939785
0.93977
0.939763
0.939735
0.939671
0.939589
0.939522
0.939534
0.939587
0.939658
0.939702
0.939727
0.939717
0.939684
0.939691
0.939844
0.940784
0.944366
0.954449
0.970129
0.990079
1.00567
1.01443
1.01447
1.01385
0.937484
0.937301
0.937219
0.937191
0.937166
0.937152
0.937151
0.937179
0.937222
0.937224
0.937243
0.937338
0.937411
0.937418
0.937426
0.937468
0.937573
0.937718
0.937904
0.938215
0.938671
0.938845
0.938825
0.938828
0.938925
0.93914
0.939391
0.939415
0.939396
0.939396
0.939371
0.939187
0.939102
0.939047
0.938831
0.938546
0.938508
0.938571
0.938833
0.939331
0.939639
0.939839
0.940059
0.94017
0.940142
0.939947
0.939713
0.939491
0.939245
0.939158
0.939242
0.939468
0.939666
0.939743
0.93968
0.939549
0.939515
0.939592
0.939691
0.939726
0.9397
0.939636
0.939622
0.939632
0.939672
0.939798
0.939943
0.939964
0.939928
0.939872
0.939838
0.93983
0.939841
0.93985
0.93983
0.939779
0.939698
0.93965
0.939648
0.939646
0.939641
0.939639
0.939653
0.939683
0.939723
0.93974
0.939722
0.939674
0.939645
0.939657
0.939692
0.939752
0.940102
0.941865
0.948119
0.961216
0.979897
0.996521
1.0045
1.01146
0.939059
0.93898
0.938895
0.938745
0.938474
0.938399
0.938394
0.938393
0.938411
0.938426
0.938447
0.938489
0.938494
0.938488
0.938478
0.938541
0.938845
0.938986
0.939026
0.939158
0.939244
0.939203
0.93911
0.939129
0.939134
0.938989
0.938819
0.938815
0.938902
0.939155
0.939248
0.939162
0.939115
0.939194
0.939163
0.938898
0.938481
0.938326
0.938343
0.938435
0.938689
0.939083
0.939265
0.93925
0.939193
0.939087
0.938928
0.938562
0.938159
0.938091
0.938172
0.93849
0.938999
0.939207
0.939214
0.939238
0.939312
0.939437
0.93962
0.939792
0.939846
0.939839
0.939795
0.93974
0.939744
0.939822
0.939942
0.939973
0.939933
0.939874
0.939847
0.93982
0.939814
0.939813
0.939787
0.939712
0.939639
0.939608
0.939622
0.939695
0.939738
0.939734
0.93972
0.939717
0.939737
0.939726
0.93968
0.939662
0.939661
0.939693
0.93975
0.939784
0.939768
0.93985
0.940653
0.944044
0.954161
0.970309
0.990676
1.00935
0.940185
0.940144
0.940068
0.939862
0.939717
0.93972
0.939721
0.939731
0.939771
0.939849
0.939973
0.940089
0.940166
0.940155
0.940179
0.940265
0.940281
0.940192
0.939774
0.9391
0.938669
0.93844
0.937971
0.937437
0.937291
0.937199
0.937225
0.937386
0.937637
0.937974
0.938471
0.938703
0.938828
0.938977
0.938939
0.938592
0.937927
0.937624
0.93762
0.937706
0.938004
0.938292
0.938388
0.938417
0.938427
0.938436
0.938427
0.938311
0.937896
0.937717
0.937742
0.937979
0.938496
0.93913
0.939474
0.939472
0.939391
0.939246
0.939249
0.939347
0.939562
0.939639
0.939631
0.939532
0.939285
0.939164
0.939186
0.939308
0.939507
0.939595
0.939576
0.939486
0.939423
0.939434
0.939485
0.939579
0.93968
0.939746
0.939783
0.939799
0.939792
0.939771
0.939743
0.939704
0.939679
0.93966
0.939671
0.9397
0.93977
0.939845
0.939842
0.939807
0.939745
0.939658
0.939678
0.940019
0.941791
0.948499
0.961364
0.98831
0.94235
0.942342
0.942319
0.942311
0.942333
0.942382
0.942487
0.942694
0.942779
0.942786
0.942801
0.942751
0.942572
0.942562
0.94264
0.942906
0.942876
0.942181
0.940749
0.939599
0.939107
0.938781
0.93836
0.938069
0.938016
0.938066
0.938238
0.938649
0.938998
0.939286
0.939681
0.940025
0.9403
0.940542
0.940488
0.940114
0.93924
0.938458
0.938428
0.938523
0.939241
0.93986
0.939875
0.939856
0.939699
0.939402
0.939187
0.938985
0.938839
0.938737
0.938802
0.939402
0.940157
0.940335
0.940355
0.940249
0.939847
0.939186
0.938961
0.938966
0.939104
0.939266
0.93926
0.939055
0.938573
0.938245
0.93826
0.938407
0.938668
0.938901
0.939023
0.939067
0.939097
0.939167
0.9393
0.939537
0.939746
0.93983
0.939856
0.939829
0.939768
0.939688
0.939576
0.939513
0.939523
0.939576
0.939719
0.939855
0.939929
0.939925
0.939889
0.939814
0.939661
0.939583
0.939591
0.939623
0.939783
0.940765
0.944143
0.963912
0.952587
0.95277
0.952991
0.953104
0.953085
0.952903
0.952827
0.953005
0.953371
0.953557
0.953815
0.953946
0.953943
0.953939
0.954009
0.954133
0.953895
0.95221
0.949126
0.948319
0.948257
0.947965
0.947496
0.94755
0.947682
0.947596
0.947463
0.947561
0.947482
0.94682
0.946502
0.946704
0.946914
0.946855
0.946442
0.945487
0.943863
0.943254
0.943275
0.943399
0.943947
0.944237
0.944252
0.944246
0.943825
0.942842
0.942434
0.942115
0.941418
0.940679
0.940482
0.94061
0.940751
0.940708
0.940374
0.939765
0.939137
0.938537
0.9383
0.938306
0.938439
0.938635
0.938684
0.938613
0.938387
0.938209
0.938229
0.938343
0.938451
0.93859
0.938793
0.938932
0.938991
0.939038
0.939058
0.939147
0.939407
0.939565
0.939514
0.939336
0.939249
0.939248
0.939287
0.939375
0.939468
0.939661
0.939862
0.939954
0.939965
0.939947
0.939867
0.939702
0.939564
0.939564
0.939579
0.939648
0.93973
0.939802
0.940122
0.946696
0.965041
0.965081
0.96505
0.964642
0.963535
0.96308
0.962847
0.962207
0.961085
0.960588
0.960592
0.960611
0.96026
0.959946
0.960156
0.960867
0.960935
0.959963
0.958363
0.95798
0.957979
0.958122
0.95871
0.959073
0.959305
0.959515
0.959385
0.958636
0.957324
0.956708
0.956823
0.957094
0.957097
0.956594
0.955237
0.952983
0.949997
0.949239
0.949216
0.949005
0.948313
0.94781
0.947123
0.946734
0.946718
0.946641
0.946598
0.946449
0.945989
0.945337
0.944254
0.9432
0.942721
0.942423
0.941901
0.940936
0.940411
0.940218
0.939945
0.939597
0.939568
0.939513
0.939509
0.9398
0.940269
0.940356
0.940234
0.939887
0.939514
0.939497
0.93965
0.93979
0.939797
0.939721
0.939375
0.939061
0.939059
0.93909
0.938996
0.938844
0.938812
0.938851
0.939006
0.939197
0.93952
0.939691
0.939841
0.939917
0.939899
0.939815
0.939682
0.939549
0.939544
0.93961
0.939671
0.939768
0.9398
0.939806
0.939764
0.941009
0.985157
0.985188
0.985055
0.984676
0.984301
0.983355
0.98211
0.98196
0.981808
0.98113
0.980638
0.980725
0.980717
0.980426
0.979968
0.979372
0.97883
0.978236
0.977275
0.975802
0.974312
0.973741
0.973787
0.973981
0.974014
0.973856
0.972726
0.970538
0.969697
0.969968
0.970162
0.96993
0.970064
0.970417
0.970323
0.969689
0.968385
0.966945
0.96615
0.965468
0.964544
0.963594
0.962419
0.960392
0.959432
0.959133
0.958138
0.957088
0.957062
0.957081
0.956325
0.954636
0.95367
0.953324
0.952368
0.951133
0.950352
0.949661
0.948908
0.947781
0.946544
0.94535
0.944304
0.943884
0.943784
0.943576
0.942993
0.941981
0.940881
0.940388
0.940166
0.939831
0.939579
0.939408
0.939033
0.938704
0.938709
0.938783
0.938814
0.938818
0.938942
0.939238
0.93955
0.939559
0.939471
0.939454
0.939397
0.939416
0.939435