/*--------------------------------*- C++ -*----------------------------------*\
  =========                 |
  \\      /  F ield         | OpenFOAM: The Open Source CFD Toolbox
   \\    /   O peration     | Website:  https://openfoam.org
    \\  /    A nd           | Version:  7
     \\/     M anipulation  |
\*---------------------------------------------------------------------------*/
FoamFile
{
    version     2.0;
    format      ascii;
    class       volScalarField;
    location    "3";
    object      p;
}
// * * * * * * * * * * * * * * * * * * * * * * * * * * * * * * * * * * * * * //

dimensions      [1 -1 -2 0 0 0 0];

internalField   nonuniform List<scalar> 
90000
(
0.0770543
0.111165
0.152814
0.174791
0.188081
0.218646
0.248249
0.264837
0.292693
0.330893
0.366331
0.405253
0.451298
0.497808
0.544483
0.590396
0.636634
0.673233
0.712631
0.736064
0.756091
0.766912
0.771927
0.77284
0.767026
0.75956
0.749233
0.742723
0.734184
0.732698
0.734031
0.736715
0.73472
0.734061
0.730812
0.724052
0.713453
0.697753
0.690918
0.69082
0.698721
0.712405
0.733114
0.753032
0.768482
0.77301
0.766175
0.751145
0.73613
0.72247
0.719995
0.722023
0.73261
0.744539
0.754235
0.755979
0.746767
0.735177
0.723896
0.720197
0.723216
0.72915
0.736242
0.737374
0.73153
0.725675
0.722789
0.726164
0.737001
0.749594
0.749223
0.747608
0.744513
0.743378
0.744161
0.743566
0.741632
0.744973
0.7855
0.811385
0.831978
0.870418
0.900182
0.904315
0.892948
0.896115
0.9082
0.926554
0.94617
0.964509
0.983406
0.999714
1.01347
1.02215
1.02505
1.02488
1.02812
1.02168
1.01173
0.988729
0.043806
0.0437858
0.0437663
0.0437485
0.0437332
0.0437166
0.043702
0.0436855
0.043679
0.043643
0.0442076
0.0465382
0.0527416
0.0626667
0.0782159
0.0995212
0.12865
0.166371
0.210944
0.267717
0.326549
0.390455
0.453818
0.514972
0.568864
0.621021
0.659659
0.697591
0.719753
0.743278
0.75475
0.765398
0.764341
0.763135
0.75575
0.75143
0.74656
0.74023
0.743151
0.744661
0.747368
0.750584
0.751555
0.751612
0.74429
0.734196
0.728539
0.726571
0.729178
0.736328
0.743566
0.748247
0.748811
0.748942
0.742655
0.736491
0.73052
0.727766
0.729658
0.733557
0.736052
0.737075
0.734441
0.731632
0.728549
0.72597
0.725659
0.729064
0.738649
0.746535
0.746761
0.745396
0.743899
0.745588
0.747075
0.744368
0.738532
0.73986
0.775712
0.804803
0.835025
0.877736
0.90193
0.900823
0.894082
0.898935
0.912149
0.931525
0.951114
0.967556
0.984223
0.999028
1.01302
1.02087
1.0239
1.02448
1.02743
1.02282
1.01157
0.986769
0.0438275
0.0438257
0.043825
0.0438262
0.0438278
0.04383
0.0438324
0.0438355
0.0438383
0.0438408
0.0438445
0.043816
0.0437828
0.0437546
0.0437311
0.0437147
0.0437007
0.0436927
0.0436836
0.0436891
0.0436655
0.0467492
0.0553329
0.0728833
0.0992709
0.135296
0.181578
0.233715
0.298293
0.363445
0.433188
0.498311
0.563635
0.625527
0.68034
0.730896
0.770506
0.799689
0.81384
0.812055
0.8062
0.794165
0.769909
0.740912
0.713244
0.686015
0.684201
0.695062
0.716604
0.741025
0.759659
0.769625
0.763388
0.750649
0.734705
0.719591
0.714242
0.715238
0.724201
0.733815
0.738854
0.739059
0.73313
0.726843
0.723639
0.723546
0.730286
0.739745
0.746116
0.74606
0.743834
0.742853
0.746271
0.750989
0.750863
0.746487
0.737202
0.736384
0.766421
0.800044
0.83785
0.881178
0.899221
0.895751
0.894831
0.903007
0.917275
0.935948
0.954434
0.97066
0.98639
0.999652
1.01398
1.02138
1.02467
1.02473
1.02741
1.02351
1.01209
0.985394
0.043844
0.0438446
0.0438439
0.0438412
0.0438363
0.0438317
0.0438271
0.0438241
0.0438198
0.0438173
0.0438133
0.0438106
0.0438064
0.0438034
0.0438014
0.0438022
0.043802
0.043802
0.0438006
0.0438031
0.0438082
0.043794
0.0437801
0.0437715
0.0437645
0.0437653
0.0437652
0.043771
0.0437592
0.0450749
0.0538488
0.0709587
0.103076
0.147814
0.211458
0.286678
0.378769
0.467859
0.556433
0.620234
0.669333
0.708695
0.728612
0.723456
0.719897
0.713568
0.721211
0.730173
0.732898
0.735455
0.740699
0.745104
0.743119
0.735046
0.733456
0.732177
0.732453
0.733925
0.733709
0.732686
0.732235
0.731927
0.731911
0.72943
0.726383
0.722783
0.724502
0.735351
0.744554
0.746157
0.743736
0.741765
0.746551
0.749569
0.750468
0.746187
0.734566
0.733446
0.761278
0.795652
0.838508
0.879186
0.891496
0.887174
0.894814
0.906827
0.922468
0.940354
0.957085
0.972511
0.987413
1.00113
1.01637
1.02346
1.02657
1.0259
1.02709
1.02393
1.0126
0.984238
0.0438363
0.0438312
0.0438237
0.0438132
0.0438029
0.0437938
0.0437887
0.0437847
0.0437811
0.0437776
0.043775
0.0437733
0.0437725
0.0437713
0.0437712
0.0437718
0.0437736
0.0437764
0.0437796
0.0437839
0.0437877
0.043794
0.043803
0.0438108
0.043817
0.0438256
0.0438308
0.0438324
0.0438334
0.0438183
0.0438051
0.0437949
0.0437877
0.0437789
0.0437746
0.0437601
0.0463929
0.0608916
0.0923577
0.149115
0.223084
0.324923
0.442171
0.54877
0.648254
0.710138
0.748199
0.753152
0.74607
0.739539
0.730882
0.720727
0.709735
0.707464
0.71754
0.729441
0.739155
0.74306
0.740364
0.734755
0.727417
0.722112
0.722549
0.726838
0.73175
0.73634
0.737757
0.735524
0.736534
0.739326
0.744299
0.749034
0.752144
0.749204
0.747269
0.745992
0.737043
0.739654
0.768195
0.79689
0.837399
0.869043
0.873737
0.877063
0.894487
0.910521
0.927371
0.944964
0.959956
0.974173
0.987776
1.00263
1.01874
1.0257
1.02915
1.02796
1.02643
1.02388
1.01264
0.982976
0.0437773
0.0437712
0.0437638
0.0437563
0.0437503
0.0437474
0.0437467
0.0437467
0.043747
0.0437478
0.0437504
0.0437549
0.0437599
0.0437645
0.0437701
0.0437763
0.0437834
0.0437899
0.0437972
0.0438039
0.0438098
0.043818
0.0438276
0.0438335
0.0438363
0.0438376
0.0438372
0.043833
0.0438247
0.0438169
0.0438117
0.0438071
0.0438
0.0437904
0.0437813
0.0437739
0.0437619
0.0437542
0.0437571
0.0437645
0.0437803
0.0437894
0.0552384
0.094164
0.16832
0.279721
0.39219
0.506688
0.571578
0.634443
0.662386
0.683287
0.700555
0.707057
0.732264
0.747881
0.754031
0.74932
0.741151
0.734983
0.728425
0.722713
0.720549
0.722183
0.726925
0.733887
0.74034
0.74016
0.738033
0.738184
0.742029
0.75156
0.753199
0.748143
0.745098
0.743633
0.73728
0.743051
0.774034
0.801998
0.834903
0.851179
0.854707
0.871218
0.896701
0.914861
0.932308
0.949581
0.964203
0.977178
0.989274
1.00469
1.02046
1.02746
1.03
1.0292
1.02543
1.02326
1.01231
0.981906
0.0437515
0.043748
0.0437454
0.0437448
0.043746
0.0437488
0.0437518
0.043755
0.0437584
0.0437633
0.0437697
0.0437775
0.0437855
0.0437938
0.0438016
0.0438083
0.0438154
0.0438231
0.0438297
0.0438327
0.0438344
0.0438382
0.0438434
0.0438452
0.0438421
0.0438374
0.0438309
0.0438222
0.0438117
0.0438019
0.0437937
0.0437861
0.0437773
0.0437683
0.0437599
0.0437533
0.0437491
0.0437502
0.0437598
0.0437741
0.0437895
0.0438057
0.0438165
0.0438172
0.0438107
0.0437917
0.0496745
0.0803519
0.144657
0.231797
0.352135
0.471175
0.586793
0.658162
0.705681
0.724421
0.735102
0.735512
0.735366
0.730679
0.725326
0.720965
0.722536
0.727938
0.731348
0.73505
0.738986
0.738541
0.737608
0.739871
0.748639
0.753488
0.750424
0.743391
0.741632
0.744736
0.744619
0.750617
0.778472
0.806136
0.82779
0.83241
0.841141
0.870756
0.901001
0.919879
0.936206
0.95185
0.966167
0.979346
0.991756
1.00779
1.02249
1.02877
1.03085
1.03076
1.0246
1.02256
1.0121
0.981361
0.0437528
0.0437543
0.0437571
0.0437615
0.0437661
0.043771
0.0437768
0.0437829
0.0437887
0.0437957
0.0438037
0.0438116
0.0438197
0.0438272
0.0438326
0.0438362
0.0438395
0.0438437
0.0438453
0.0438432
0.0438402
0.0438383
0.0438375
0.0438356
0.0438302
0.0438224
0.0438137
0.0438045
0.0437957
0.0437881
0.0437817
0.0437755
0.0437696
0.0437637
0.0437586
0.0437546
0.0437511
0.0437529
0.0437618
0.043773
0.0437838
0.0437938
0.0437951
0.0437905
0.0437834
0.0437722
0.0437556
0.0437464
0.0437482
0.0437604
0.0472583
0.0730109
0.132875
0.240168
0.364263
0.482662
0.585045
0.650558
0.702505
0.721066
0.72588
0.727177
0.734623
0.736817
0.731703
0.730149
0.731379
0.734671
0.739453
0.750289
0.757695
0.755186
0.743147
0.740327
0.7414
0.748218
0.750397
0.755847
0.782927
0.809867
0.821576
0.821194
0.835777
0.872494
0.905914
0.923682
0.938486
0.954252
0.969519
0.982166
0.995146
1.01231
1.02413
1.0299
1.03157
1.03219
1.0237
1.02153
1.01188
0.981123
0.0437794
0.0437831
0.0437876
0.0437941
0.0437999
0.0438049
0.0438114
0.0438167
0.0438213
0.0438265
0.0438316
0.0438354
0.0438394
0.0438435
0.043845
0.0438445
0.043844
0.0438431
0.0438397
0.043834
0.0438283
0.0438237
0.0438193
0.0438164
0.0438128
0.0438072
0.0438012
0.0437956
0.0437911
0.0437878
0.0437846
0.043781
0.0437773
0.0437727
0.043768
0.0437632
0.0437593
0.0437594
0.0437638
0.043769
0.0437671
0.0437591
0.0437573
0.0437587
0.0437602
0.0437571
0.0437527
0.0437566
0.043779
0.0438327
0.0438663
0.0438908
0.0439376
0.0439578
0.0468897
0.0815539
0.152246
0.273716
0.422235
0.554306
0.667739
0.712447
0.725531
0.730018
0.727137
0.728159
0.727836
0.731463
0.746138
0.760198
0.759404
0.748601
0.735553
0.738799
0.743808
0.752599
0.754048
0.754694
0.77989
0.803744
0.804937
0.806341
0.832559
0.881508
0.912303
0.927293
0.940779
0.95685
0.973275
0.986208
0.999143
1.01595
1.02517
1.02997
1.03209
1.03319
1.02346
1.02055
1.01118
0.981017
0.0438212
0.0438236
0.0438258
0.0438282
0.0438299
0.0438317
0.0438347
0.0438369
0.0438387
0.0438416
0.0438424
0.0438413
0.0438402
0.0438384
0.0438359
0.0438331
0.0438296
0.0438263
0.0438217
0.0438154
0.0438095
0.0438048
0.0438005
0.0437986
0.043799
0.0437993
0.0437989
0.0437986
0.0437993
0.0438003
0.0437999
0.043798
0.0437952
0.0437914
0.0437867
0.0437814
0.0437776
0.0437745
0.0437699
0.0437616
0.0437457
0.0437347
0.0437362
0.0437462
0.043754
0.0437574
0.0437661
0.0437947
0.0438518
0.0439133
0.0439521
0.0439743
0.0439865
0.0439835
0.0439591
0.0438964
0.043845
0.0438304
0.0573368
0.11737
0.233561
0.391905
0.523799
0.638205
0.67803
0.707723
0.712147
0.728595
0.757125
0.767136
0.760876
0.740876
0.738127
0.742992
0.749283
0.757559
0.754992
0.749102
0.770709
0.794225
0.80588
0.813634
0.847881
0.897359
0.919922
0.92938
0.942356
0.959418
0.977656
0.991435
1.00345
1.01677
1.02552
1.02942
1.03253
1.03376
1.02319
1.01937
1.01172
0.980918
0.0438447
0.043842
0.0438398
0.0438384
0.0438372
0.043836
0.0438342
0.0438318
0.0438298
0.043829
0.0438278
0.043825
0.0438208
0.0438161
0.0438112
0.0438064
0.0438021
0.0437988
0.0437943
0.0437885
0.0437835
0.0437804
0.0437798
0.0437838
0.043792
0.0438018
0.0438091
0.0438136
0.0438178
0.0438217
0.0438226
0.0438209
0.0438192
0.0438182
0.0438155
0.0438108
0.043807
0.0437973
0.0437793
0.0437553
0.0437366
0.0437293
0.0437326
0.0437456
0.0437577
0.0437768
0.0438162
0.0438784
0.043936
0.0439736
0.0439968
0.0440001
0.0439948
0.0439703
0.0439017
0.0438032
0.0437682
0.043777
0.0437906
0.0437621
0.0436745
0.0544296
0.10249
0.210121
0.375127
0.5393
0.648406
0.723898
0.754328
0.76053
0.737551
0.732537
0.745123
0.751698
0.755576
0.759432
0.753278
0.744249
0.762019
0.786746
0.799816
0.814856
0.859292
0.909217
0.92297
0.930616
0.944244
0.964302
0.983815
0.995647
1.00597
1.01648
1.02464
1.02866
1.03294
1.03401
1.02304
1.0172
1.01107
0.981512
0.0438176
0.0438147
0.0438115
0.0438084
0.0438055
0.0438032
0.0438011
0.0437989
0.0437971
0.0437958
0.0437941
0.0437916
0.0437883
0.0437842
0.0437807
0.0437778
0.0437762
0.0437738
0.043769
0.0437653
0.0437625
0.0437637
0.0437692
0.0437815
0.0437996
0.0438177
0.0438286
0.0438352
0.0438395
0.0438426
0.0438424
0.04384
0.0438383
0.0438399
0.0438403
0.0438375
0.0438292
0.0438073
0.0437712
0.0437489
0.0437373
0.0437324
0.0437371
0.0437604
0.0438033
0.0438521
0.0439121
0.0439635
0.0439886
0.0440069
0.044007
0.0440038
0.0439889
0.0439415
0.0438255
0.0437101
0.0436939
0.0437144
0.0437655
0.0437744
0.0437515
0.0437277
0.0438262
0.0439893
0.0515768
0.0988607
0.232635
0.407501
0.571399
0.670331
0.704729
0.740737
0.765211
0.758357
0.756136
0.759268
0.754081
0.74584
0.760458
0.781744
0.795374
0.819003
0.867077
0.909445
0.918044
0.928674
0.946551
0.96945
0.986448
0.996643
1.0053
1.01501
1.02328
1.02845
1.03369
1.03402
1.02248
1.01508
1.0095
0.982967
0.0437765
0.0437743
0.0437723
0.0437709
0.0437697
0.0437688
0.0437682
0.0437675
0.043768
0.0437688
0.043769
0.0437686
0.0437674
0.0437661
0.0437649
0.0437643
0.0437645
0.043763
0.0437609
0.0437595
0.0437617
0.0437694
0.0437855
0.0438084
0.0438287
0.0438442
0.0438507
0.0438534
0.0438553
0.043855
0.0438514
0.0438463
0.0438444
0.0438443
0.043844
0.0438404
0.0438215
0.0437833
0.0437593
0.0437496
0.043742
0.0437441
0.0437656
0.0438372
0.0439006
0.0439452
0.04398
0.0439985
0.0440107
0.0440105
0.0440007
0.0439735
0.0439462
0.0438856
0.0437386
0.0436314
0.0436282
0.0436648
0.0437639
0.0439288
0.0439727
0.0439689
0.0439869
0.0441164
0.0441377
0.0441239
0.0440691
0.0565748
0.129273
0.303209
0.529602
0.713779
0.756876
0.750582
0.753509
0.763732
0.762641
0.751639
0.762139
0.775939
0.784771
0.816691
0.864367
0.900913
0.923073
0.936611
0.954584
0.976304
0.988434
0.997377
1.00733
1.01703
1.02585
1.03091
1.03597
1.03332
1.02196
1.01328
1.00838
0.983998
0.0437702
0.0437681
0.0437673
0.043767
0.0437672
0.0437682
0.04377
0.043772
0.0437749
0.0437795
0.0437844
0.0437868
0.0437879
0.0437891
0.0437918
0.0437957
0.0437992
0.0438016
0.0438048
0.0438081
0.043812
0.0438197
0.0438342
0.0438467
0.0438542
0.043857
0.0438569
0.0438552
0.0438503
0.0438398
0.0438216
0.0438117
0.0438119
0.0438141
0.0438157
0.0438132
0.0437913
0.0437674
0.0437588
0.0437642
0.0437793
0.0438004
0.0438575
0.0439527
0.0439893
0.0439919
0.0439958
0.0440069
0.0440104
0.0439987
0.0439392
0.0438981
0.0438767
0.043821
0.0436747
0.0435953
0.0435996
0.0436481
0.0438065
0.0441021
0.0442933
0.0442832
0.0441984
0.0441435
0.0440916
0.0440839
0.0441644
0.0444018
0.0448335
0.0452499
0.100055
0.271048
0.491601
0.643755
0.713557
0.759205
0.777619
0.757819
0.757668
0.76748
0.78107
0.824136
0.86878
0.911431
0.931708
0.938072
0.959484
0.981121
0.992932
1.00306
1.01289
1.02328
1.03368
1.03968
1.04192
1.03452
1.02152
1.01315
1.00677
0.985241
0.0437812
0.0437832
0.0437861
0.0437893
0.0437937
0.0437996
0.0438046
0.043809
0.0438141
0.0438214
0.0438274
0.043828
0.0438277
0.0438288
0.0438344
0.0438437
0.0438514
0.0438519
0.0438506
0.0438462
0.0438405
0.0438413
0.0438462
0.0438449
0.0438391
0.0438284
0.0438132
0.0437987
0.0437831
0.0437626
0.0437533
0.0437552
0.0437658
0.0437864
0.0437962
0.0437946
0.0437814
0.0437845
0.0438013
0.0438395
0.0438747
0.0439103
0.0439744
0.0440202
0.0440194
0.044002
0.0439946
0.0439893
0.0439723
0.0439089
0.0438323
0.0438279
0.0438209
0.043779
0.0436522
0.0435888
0.0435953
0.0436575
0.0438897
0.0442355
0.0445573
0.0446085
0.0444946
0.0441946
0.0440996
0.0441533
0.0444819
0.0451803
0.0461638
0.0471498
0.0478821
0.0483397
0.0909844
0.235631
0.455102
0.661342
0.749072
0.7352
0.740589
0.767755
0.804414
0.864176
0.918997
0.950633
0.947957
0.945561
0.969865
0.981841
0.99342
1.00548
1.01634
1.02653
1.03663
1.04358
1.04641
1.03794
1.02486
1.01598
1.00674
0.98682
0.043844
0.0438461
0.0438493
0.0438535
0.0438586
0.0438608
0.0438604
0.0438613
0.043864
0.0438684
0.043873
0.0438739
0.0438727
0.0438722
0.0438756
0.0438786
0.0438782
0.0438751
0.0438681
0.0438561
0.0438398
0.04382
0.0437957
0.0437768
0.0437646
0.0437546
0.0437446
0.0437363
0.0437293
0.0437221
0.0437214
0.0437261
0.0437469
0.0437794
0.0437946
0.043808
0.0438313
0.0438632
0.043908
0.0439468
0.0439684
0.0439946
0.0440249
0.0440269
0.0440138
0.0439755
0.0439396
0.0439051
0.0438495
0.0437778
0.0437687
0.0437873
0.0437919
0.0437639
0.0436549
0.0436054
0.0436191
0.0437204
0.0440215
0.0443491
0.0446305
0.0448778
0.044799
0.0446848
0.0448564
0.0452405
0.045739
0.0462815
0.0472112
0.0482389
0.0490827
0.0502718
0.0513082
0.0521865
0.0806594
0.202038
0.428366
0.620049
0.670585
0.689445
0.724936
0.799233
0.872438
0.906887
0.931419
0.956775
0.994901
0.992698
0.994983
1.00643
1.01934
1.02832
1.03575
1.04192
1.04763
1.03873
1.0254
1.01689
1.00659
0.988062
0.0439091
0.0439083
0.0439067
0.0439048
0.0439023
0.0438954
0.0438864
0.0438856
0.0438871
0.0438929
0.0438971
0.0438978
0.0438964
0.04389
0.0438853
0.0438805
0.04387
0.0438524
0.0438288
0.0438012
0.0437728
0.0437436
0.0437193
0.0437033
0.0436958
0.0436976
0.0437076
0.043716
0.0437174
0.0437203
0.0437212
0.0437265
0.0437683
0.0438288
0.0438685
0.0438947
0.043916
0.0439438
0.0439906
0.0440113
0.0440073
0.04401
0.0440109
0.0440019
0.0439743
0.0439272
0.0438769
0.0438147
0.0437357
0.0437226
0.0437397
0.0437745
0.0437911
0.0437703
0.0437774
0.0438464
0.0439488
0.0441243
0.044367
0.0444868
0.0446288
0.0449846
0.0452307
0.0456213
0.046213
0.0470741
0.047923
0.0486576
0.0492207
0.0498901
0.0503435
0.051519
0.0536534
0.055839
0.0569618
0.0573761
0.0743946
0.199463
0.365108
0.426182
0.464831
0.515327
0.59264
0.668577
0.752861
0.854313
0.913294
0.980304
1.00589
1.01623
1.02219
1.03054
1.03808
1.04445
1.04897
1.03977
1.02594
1.01827
1.00752
0.989694
0.0439321
0.0439273
0.0439202
0.0439106
0.0438969
0.0438769
0.0438582
0.0438549
0.0438554
0.0438543
0.0438536
0.0438533
0.0438477
0.04383
0.0438044
0.0437803
0.0437589
0.0437382
0.043721
0.043707
0.0436944
0.0436833
0.043679
0.0436728
0.0436715
0.0436786
0.0436967
0.0437209
0.0437686
0.0438074
0.0438129
0.0438288
0.0439052
0.0439752
0.0439893
0.0439884
0.0439813
0.0439821
0.0440088
0.0440196
0.0439999
0.0439611
0.0439578
0.0439657
0.0439515
0.0439094
0.043858
0.0437845
0.0437077
0.0437077
0.0437372
0.0437907
0.0438879
0.04408
0.0443608
0.0446726
0.0450502
0.0452042
0.0452903
0.0452844
0.0451888
0.0452783
0.0458658
0.0466704
0.0476016
0.0488117
0.0500246
0.0513804
0.0522406
0.0526841
0.0533149
0.0545361
0.0565472
0.0581356
0.0593066
0.0604864
0.0612238
0.0621009
0.0667648
0.0777051
0.0870457
0.10021
0.123796
0.160405
0.230549
0.335457
0.519157
0.806193
0.956734
1.01667
1.02542
1.03303
1.04053
1.04569
1.04878
1.0407
1.02549
1.01822
1.00812
0.991021
0.0438453
0.0438182
0.0437693
0.043719
0.0436993
0.0436901
0.0436831
0.0436793
0.0436785
0.0436828
0.0436866
0.0436857
0.0436781
0.0436682
0.0436564
0.0436483
0.0436494
0.0436504
0.0436517
0.0436538
0.0436571
0.043664
0.0436726
0.0436847
0.0437088
0.043751
0.0438012
0.0438815
0.0440009
0.0440253
0.0440194
0.0440237
0.0440668
0.044086
0.0440794
0.0440586
0.0440269
0.0440013
0.0439998
0.0439933
0.043957
0.043938
0.04394
0.0439577
0.0439745
0.0439557
0.0438977
0.0437962
0.0437414
0.0437679
0.0438871
0.0441024
0.0444275
0.0448686
0.045349
0.0457118
0.0461207
0.0463205
0.0464457
0.0466807
0.0469071
0.0472971
0.0480267
0.0489917
0.0500043
0.0511152
0.0523844
0.0534792
0.0546617
0.0556788
0.0568377
0.0583914
0.0597447
0.0606993
0.0615279
0.0629535
0.0648711
0.0665763
0.0683221
0.071439
0.0775435
0.0889019
0.100117
0.106866
0.110569
0.112039
0.123575
0.251892
0.622136
0.939132
1.02414
1.03955
1.043
1.04595
1.05024
1.04409
1.02766
1.01841
1.0088
0.992206
0.04358
0.043561
0.0435334
0.0435243
0.0435227
0.0435232
0.0435249
0.0435284
0.0435375
0.0435637
0.0435861
0.0435879
0.0435893
0.0435959
0.0436085
0.0436237
0.0436394
0.0436602
0.0436912
0.0437373
0.0437957
0.0438505
0.0438936
0.0439382
0.0439792
0.0440159
0.0440723
0.0441619
0.0442259
0.0442365
0.044225
0.0442038
0.0441923
0.0441775
0.0441438
0.0441085
0.0440747
0.0440267
0.0439868
0.0439644
0.0439602
0.0439783
0.0440212
0.0440834
0.0441306
0.0441238
0.0440528
0.044023
0.0440965
0.0443266
0.0447303
0.0451689
0.0456061
0.0460379
0.0465258
0.0468478
0.0470413
0.0474172
0.047867
0.048397
0.0492163
0.0502914
0.0514971
0.053019
0.0539783
0.0544504
0.0551634
0.055824
0.0568334
0.0583406
0.0603382
0.061944
0.0626848
0.063702
0.064991
0.0664964
0.0681479
0.0697018
0.0711133
0.0733963
0.0781382
0.0882465
0.100741
0.108314
0.114428
0.119664
0.121483
0.122278
0.165212
0.47203
0.891522
1.03408
1.04968
1.0505
1.05385
1.04746
1.03209
1.01896
1.00925
0.993221
0.0435994
0.0436018
0.0436071
0.0436118
0.0436202
0.0436369
0.043658
0.0436807
0.0437059
0.0437465
0.0438106
0.0438383
0.0438506
0.0438663
0.0438857
0.0439095
0.0439428
0.0439829
0.0440277
0.0440797
0.0441369
0.0441938
0.0442389
0.0442613
0.0442746
0.0442946
0.0443246
0.0443546
0.0443784
0.0443876
0.044376
0.0443402
0.0443067
0.0442732
0.0442068
0.0441672
0.0441551
0.0440991
0.0440027
0.0440023
0.0440531
0.0440846
0.0441288
0.0442146
0.0443862
0.0446332
0.0449228
0.0453326
0.0458106
0.0463118
0.046779
0.0472012
0.0476483
0.0478977
0.0481894
0.0484864
0.0487296
0.0491397
0.0498698
0.0509809
0.052372
0.0537512
0.0548378
0.0561915
0.057365
0.057648
0.0579904
0.0588777
0.06017
0.0618193
0.0638591
0.0652047
0.0659216
0.0667347
0.0681434
0.0698068
0.0710078
0.0722289
0.073522
0.0757327
0.0811909
0.0900218
0.102223
0.112395
0.119118
0.124289
0.12771
0.130361
0.131576
0.138058
0.365129
0.834015
1.02551
1.05246
1.06252
1.05055
1.03689
1.0217
1.0113
0.995257
0.0441568
0.0441884
0.0442137
0.0442351
0.0442451
0.0442527
0.0442629
0.0442678
0.0442717
0.0442767
0.0442787
0.0442819
0.0442825
0.0442759
0.0442593
0.0442518
0.0442548
0.0442729
0.0443077
0.0443331
0.044359
0.0443958
0.0444255
0.0444377
0.0444407
0.0444352
0.0444284
0.0444318
0.0444368
0.0444356
0.0444289
0.044406
0.0443729
0.0443205
0.0442337
0.0442194
0.044246
0.0442701
0.0443048
0.0443954
0.0445559
0.0448199
0.0452441
0.0457609
0.0463243
0.0468784
0.0474258
0.0479723
0.0484015
0.0488321
0.0491976
0.049375
0.049666
0.0498717
0.0501751
0.0508531
0.0518532
0.0529306
0.0540938
0.0552948
0.0565706
0.0576826
0.0582067
0.0586899
0.0597641
0.0606375
0.0615185
0.062914
0.0646356
0.0662161
0.0672585
0.0681232
0.0688503
0.0698266
0.0714344
0.0734689
0.0746706
0.0755263
0.0769298
0.0798538
0.0864105
0.096589
0.108677
0.118899
0.124131
0.127443
0.131323
0.133612
0.135799
0.137885
0.139943
0.296067
0.767726
1.00058
1.06922
1.05664
1.04463
1.02702
1.01451
0.998483
0.0449148
0.0448937
0.0448635
0.0448369
0.0448149
0.0447887
0.044757
0.044721
0.044673
0.0445995
0.0445437
0.0445242
0.0445129
0.0444794
0.0444656
0.0444714
0.0444684
0.0444731
0.0444891
0.0444772
0.0444683
0.0444774
0.0445098
0.0445294
0.0445183
0.0444774
0.0444713
0.044484
0.0445146
0.044552
0.0446136
0.0447689
0.0449224
0.0450326
0.0451887
0.0454448
0.0457376
0.0460696
0.0465113
0.047026
0.0475015
0.047949
0.0484073
0.0488469
0.0492743
0.0496507
0.0500299
0.0504163
0.0507001
0.0510424
0.0513287
0.0515141
0.0519549
0.0528829
0.0541375
0.0555192
0.0568734
0.0581718
0.0592871
0.0599761
0.0604851
0.0610639
0.0613924
0.0617071
0.0625462
0.0643333
0.06622
0.0675321
0.0688937
0.0697686
0.0702181
0.0709663
0.0723671
0.0740467
0.0756789
0.0774626
0.0790439
0.0800599
0.0811426
0.0836744
0.0894979
0.101152
0.116417
0.127077
0.130458
0.132544
0.135101
0.137941
0.14032
0.143552
0.147073
0.148375
0.253312
0.697805
1.01214
1.04466
1.04937
1.03471
1.01841
1.00285
0.0446119
0.0445494
0.0445289
0.0445324
0.0445629
0.0445901
0.044595
0.0445831
0.0445251
0.0444818
0.0444813
0.0445048
0.0445284
0.0445294
0.0445322
0.0445692
0.0446278
0.0446973
0.0447797
0.0448044
0.04484
0.044915
0.045032
0.0451918
0.0453893
0.045615
0.0458326
0.0460504
0.0463461
0.0467144
0.0470991
0.0475171
0.0479556
0.0483593
0.0487587
0.0491682
0.0495307
0.0499021
0.0503018
0.0506151
0.0508706
0.0511234
0.0513946
0.0516688
0.0519928
0.0523764
0.0528074
0.0533016
0.0538833
0.0545709
0.0554285
0.0564357
0.0575713
0.0586952
0.0598505
0.0608368
0.0616549
0.0622591
0.0627295
0.0630588
0.0633552
0.0639758
0.0650287
0.0663193
0.0676414
0.0692703
0.0708025
0.0717394
0.072517
0.0730541
0.0737604
0.0749866
0.0769535
0.0789742
0.0803596
0.0812625
0.082447
0.0839011
0.0855114
0.087659
0.0922216
0.102888
0.119832
0.132721
0.136485
0.137749
0.139712
0.143499
0.147187
0.149963
0.152873
0.156489
0.157844
0.232446
0.655919
0.960755
1.05492
1.04309
1.02617
1.00718
0.045494
0.045594
0.0456978
0.0458159
0.0459456
0.0460736
0.0462137
0.0463617
0.0465109
0.0466738
0.0468387
0.0469956
0.0471596
0.0473439
0.0475462
0.0477464
0.0479247
0.0481096
0.0483206
0.0485166
0.0487099
0.0489204
0.0491419
0.0493858
0.0496536
0.0499363
0.0502229
0.0504894
0.0507513
0.051043
0.0513417
0.0516443
0.0519304
0.052209
0.0524748
0.052736
0.0530166
0.0533165
0.0535583
0.0537889
0.054088
0.0544383
0.0549298
0.0555349
0.0562401
0.0570598
0.0579092
0.0588283
0.0598594
0.0608656
0.0616432
0.0623383
0.0628968
0.0634159
0.0640171
0.0644427
0.0648131
0.065133
0.0656059
0.0663742
0.0674476
0.0688728
0.0704581
0.0721184
0.0732202
0.0738936
0.0746877
0.0753469
0.0758858
0.0769659
0.0785241
0.0802257
0.0817514
0.0834498
0.0846819
0.0849833
0.0856243
0.0873719
0.0897578
0.0920275
0.095535
0.1038
0.119859
0.135329
0.141209
0.143543
0.145782
0.148747
0.152387
0.155277
0.157313
0.159715
0.163308
0.165232
0.213013
0.588565
0.979345
1.0257
1.0315
1.01323
0.0503052
0.0503815
0.0504622
0.0505609
0.0506712
0.0507894
0.0509101
0.0510217
0.0511251
0.0512308
0.051343
0.0514692
0.051601
0.0517244
0.0518486
0.0519861
0.0521319
0.0522817
0.0524423
0.0526084
0.0527809
0.0529659
0.053151
0.0533367
0.0535516
0.0537884
0.054056
0.0543034
0.0545694
0.0548569
0.0551633
0.0554884
0.0558352
0.0562348
0.0566586
0.0570973
0.0576198
0.0581584
0.0586967
0.0592256
0.0597812
0.060414
0.0611071
0.0618392
0.0625704
0.0632124
0.0638205
0.064488
0.0651356
0.0655927
0.065944
0.066339
0.06666
0.0669976
0.0674784
0.0680566
0.0687735
0.0696638
0.0708568
0.0721819
0.073658
0.0749184
0.0760077
0.0770887
0.0776434
0.0778516
0.0782793
0.0791353
0.0805276
0.0821183
0.0840213
0.0858804
0.0868184
0.087502
0.0884963
0.0897922
0.0911944
0.0927242
0.0945931
0.0968445
0.100527
0.108471
0.121573
0.136067
0.14504
0.148912
0.15145
0.154315
0.157
0.159894
0.163072
0.165554
0.167013
0.170587
0.172705
0.207905
0.547874
0.907984
1.02697
1.02317
0.0545443
0.0546239
0.0547152
0.0548229
0.0549465
0.0550807
0.0552294
0.0553751
0.0555086
0.0556447
0.0557905
0.0559611
0.0561514
0.0563425
0.0565454
0.0567672
0.0570004
0.0572404
0.057496
0.0577806
0.0580846
0.0583905
0.0586998
0.0590156
0.0593603
0.0597477
0.0601254
0.0604834
0.0608657
0.0612996
0.0617405
0.0621557
0.0625846
0.0630244
0.0634939
0.0639959
0.0645235
0.0649647
0.0653291
0.0656889
0.0660417
0.0664148
0.0668086
0.0671877
0.0675392
0.0678283
0.0681448
0.0685117
0.0688371
0.0691717
0.0696762
0.070315
0.0710599
0.0719295
0.0729402
0.0742457
0.0755598
0.0768209
0.0777046
0.078476
0.079143
0.079607
0.0801266
0.0808048
0.0816942
0.0825948
0.0834954
0.0849407
0.0867725
0.0884959
0.0898234
0.0911449
0.0918899
0.0923289
0.0933914
0.0955644
0.0978875
0.0991855
0.100295
0.102217
0.107016
0.117078
0.131824
0.144486
0.152093
0.155933
0.158513
0.161457
0.164009
0.166217
0.169389
0.173355
0.176553
0.177371
0.179459
0.180811
0.199449
0.499596
0.919955
1.0066
0.0616531
0.061743
0.0618241
0.0619257
0.0620728
0.0622655
0.0624823
0.0626667
0.0628065
0.0629375
0.0630916
0.0632939
0.06351
0.0636898
0.0638676
0.0640454
0.0642078
0.0643714
0.0645375
0.0647228
0.0649183
0.0650976
0.0652989
0.0654808
0.0656755
0.0658913
0.0661018
0.0663054
0.0665299
0.0667709
0.0670102
0.0672355
0.0674511
0.0676874
0.0679827
0.0683159
0.0686374
0.0689625
0.0693159
0.0697328
0.0701489
0.0705899
0.071089
0.0716108
0.0721284
0.0726672
0.0732936
0.0739613
0.0747424
0.0756226
0.0764921
0.0772597
0.0781322
0.0790978
0.0800969
0.0809074
0.0816468
0.0824331
0.0829485
0.0834515
0.0837921
0.0841675
0.0846841
0.0855872
0.0871668
0.0889437
0.0907952
0.0921602
0.0934326
0.094553
0.0950738
0.0957436
0.0968672
0.0982601
0.0998074
0.101698
0.103695
0.105072
0.106037
0.107757
0.112016
0.122026
0.138494
0.154261
0.164099
0.168046
0.170093
0.171363
0.173303
0.175288
0.176957
0.17914
0.183106
0.185799
0.186358
0.187908
0.188901
0.203116
0.464786
0.898355
0.0674008
0.0674851
0.0675876
0.0676961
0.0678079
0.0679271
0.0680469
0.0681587
0.0682562
0.0683547
0.0685117
0.0686622
0.0688314
0.069
0.0691432
0.069299
0.0694739
0.0697047
0.0699042
0.0701014
0.070328
0.0705568
0.0708798
0.0712011
0.0714502
0.0717067
0.0719929
0.0722771
0.0725526
0.0728369
0.0731129
0.0733718
0.0736472
0.0739334
0.0742703
0.0746802
0.0751565
0.0756845
0.0762707
0.0768451
0.0774048
0.0780189
0.0786886
0.0793383
0.0799817
0.0806652
0.0813549
0.0820622
0.0827496
0.0833748
0.083889
0.08433
0.0847886
0.0851452
0.0855691
0.0858775
0.0862768
0.0868565
0.0876758
0.0885681
0.0896469
0.0910795
0.0925291
0.094045
0.0952512
0.0964582
0.0976692
0.0985059
0.0992164
0.0999335
0.100598
0.101518
0.102975
0.105115
0.107446
0.108591
0.109638
0.110994
0.11227
0.113937
0.116986
0.124508
0.139711
0.160228
0.172708
0.177586
0.179462
0.180008
0.180872
0.183201
0.185868
0.187414
0.188748
0.191705
0.194168
0.19509
0.196626
0.197522
0.202942
0.582244
0.0744859
0.0746193
0.074753
0.0748812
0.0749962
0.0751097
0.0752266
0.075365
0.0755172
0.0757088
0.0759206
0.0760925
0.0762546
0.0764383
0.0766659
0.0769292
0.0771789
0.077422
0.0776565
0.0778585
0.0780587
0.0782964
0.0785636
0.07883
0.079098
0.0793721
0.0796266
0.0798835
0.0801775
0.0804987
0.0808376
0.0811941
0.0815842
0.0820024
0.0824539
0.0829451
0.0834155
0.0838521
0.0842339
0.0845391
0.0848301
0.0851289
0.085437
0.0857605
0.086106
0.0864721
0.0868327
0.0872317
0.0876285
0.0881554
0.0887752
0.0894314
0.0901378
0.0908505
0.0916809
0.0926604
0.0936735
0.0946607
0.0958292
0.097081
0.0984315
0.0997442
0.101085
0.102199
0.102748
0.103139
0.103515
0.104227
0.105059
0.106231
0.108076
0.110039
0.11179
0.113435
0.115175
0.115817
0.116403
0.117527
0.119445
0.121767
0.12461
0.129911
0.141771
0.162425
0.178427
0.184918
0.187369
0.189215
0.190906
0.192161
0.194356
0.19695
0.19861
0.199735
0.201494
0.203386
0.204473
0.205807
0.205656
0.291314
0.0826804
0.0827509
0.0828216
0.0829026
0.0830169
0.0831707
0.0833211
0.0834524
0.0835679
0.0836665
0.0837617
0.0838728
0.0840088
0.0841624
0.0843104
0.0844608
0.0846242
0.084798
0.0849711
0.0851418
0.0853304
0.0855302
0.0857301
0.0859503
0.086196
0.086445
0.086704
0.0870287
0.087329
0.0875808
0.0878397
0.0881706
0.0885572
0.0888704
0.0891624
0.0894592
0.0897743
0.0901491
0.0905624
0.0910408
0.0916137
0.0922423
0.0929056
0.0935914
0.0942407
0.0948064
0.0952317
0.0956568
0.0962241
0.0970657
0.0980303
0.0989718
0.0998897
0.100918
0.10194
0.102963
0.103988
0.104872
0.105519
0.106009
0.106442
0.106839
0.107499
0.108212
0.108992
0.109681
0.110607
0.112063
0.113873
0.115899
0.117666
0.119324
0.120792
0.121402
0.121987
0.123135
0.124353
0.125757
0.127681
0.129931
0.133159
0.139351
0.151675
0.168974
0.185506
0.194317
0.197379
0.198745
0.200481
0.202196
0.203251
0.204992
0.207499
0.209155
0.209979
0.210943
0.212392
0.213454
0.214531
0.219104
0.0913612