/*--------------------------------*- C++ -*----------------------------------*\
  =========                 |
  \\      /  F ield         | OpenFOAM: The Open Source CFD Toolbox
   \\    /   O peration     | Website:  https://openfoam.org
    \\  /    A nd           | Version:  7
     \\/     M anipulation  |
\*---------------------------------------------------------------------------*/
FoamFile
{
    version     2.0;
    format      ascii;
    class       volVectorField;
    location    "3";
    object      U;
}
// * * * * * * * * * * * * * * * * * * * * * * * * * * * * * * * * * * * * * //

dimensions      [0 1 -1 0 0 0 0];

internalField   nonuniform List<vector> 
90000
(
(2.85174 -1.56358 0)
(2.7793 -1.42424 0)
(2.71798 -1.08564 0)
(2.73742 -0.97775 0)
(2.7634 -0.98996 0)
(2.73469 -0.810113 0)
(2.7541 -0.609909 0)
(2.78861 -0.610844 0)
(2.79516 -0.524766 0)
(2.79824 -0.424742 0)
(2.80185 -0.323097 0)
(2.81853 -0.287922 0)
(2.81178 -0.183145 0)
(2.82427 -0.139477 0)
(2.81832 -0.0499791 0)
(2.8238 0.000168471 0)
(2.82529 0.0542294 0)
(2.8199 0.118459 0)
(2.82877 0.125408 0)
(2.82205 0.175885 0)
(2.8229 0.176933 0)
(2.82134 0.18487 0)
(2.82207 0.185899 0)
(2.82455 0.181947 0)
(2.82586 0.179086 0)
(2.82956 0.16707 0)
(2.83133 0.161455 0)
(2.8393 0.151881 0)
(2.84525 0.140092 0)
(2.84505 0.125439 0)
(2.84819 0.117204 0)
(2.8488 0.105387 0)
(2.84653 0.0898926 0)
(2.85038 0.0810431 0)
(2.85446 0.0691447 0)
(2.85615 0.0657321 0)
(2.86228 0.0647846 0)
(2.87207 0.0645091 0)
(2.88269 0.0628051 0)
(2.88652 0.0620556 0)
(2.89125 0.0576605 0)
(2.8952 0.0601188 0)
(2.8951 0.0541739 0)
(2.89454 0.056703 0)
(2.89329 0.0445177 0)
(2.89606 0.0499395 0)
(2.89955 0.0560177 0)
(2.90527 0.0646013 0)
(2.91265 0.0768185 0)
(2.92313 0.0873495 0)
(2.92523 0.0873664 0)
(2.92701 0.0822783 0)
(2.92723 0.0736263 0)
(2.92899 0.070263 0)
(2.92899 0.056697 0)
(2.93325 0.0631819 0)
(2.93778 0.0700555 0)
(2.94281 0.0798829 0)
(2.95259 0.0898854 0)
(2.95536 0.0885479 0)
(2.95957 0.0835572 0)
(2.9634 0.0769628 0)
(2.96558 0.0660796 0)
(2.97141 0.0708737 0)
(2.97492 0.0765126 0)
(2.98259 0.0846689 0)
(2.98486 0.0836318 0)
(2.98766 0.0778878 0)
(2.98745 0.0672855 0)
(2.98309 0.0509809 0)
(2.98266 0.0535369 0)
(2.98263 0.0554941 0)
(2.98191 0.0556203 0)
(2.98512 0.0515044 0)
(2.98702 0.0492242 0)
(2.98975 0.0509242 0)
(2.99264 0.0641619 0)
(2.99962 0.0887834 0)
(2.96802 0.093553 0)
(2.87805 0.0845241 0)
(2.79769 0.0747161 0)
(2.66494 0.0631959 0)
(2.50568 0.0258965 0)
(2.45401 -0.0610591 0)
(2.42748 -0.112766 0)
(2.41724 -0.120707 0)
(2.39529 -0.119644 0)
(2.36678 -0.12172 0)
(2.33919 -0.12714 0)
(2.31664 -0.128476 0)
(2.29838 -0.125592 0)
(2.28882 -0.125349 0)
(2.28329 -0.128005 0)
(2.27444 -0.128483 0)
(2.26658 -0.127839 0)
(2.25719 -0.128863 0)
(2.24194 -0.136671 0)
(2.22897 -0.138306 0)
(2.23723 -0.147681 0)
(2.22658 -0.184691 0)
(2.97 -1.76501 0)
(2.97 -1.76485 0)
(2.96999 -1.76467 0)
(2.96991 -1.76455 0)
(2.96985 -1.76435 0)
(2.9697 -1.76432 0)
(2.9697 -1.76399 0)
(2.96946 -1.7641 0)
(2.96955 -1.76352 0)
(2.96921 -1.76404 0)
(2.96725 -1.75871 0)
(2.96009 -1.74047 0)
(2.94372 -1.69404 0)
(2.92269 -1.62701 0)
(2.89417 -1.53149 0)
(2.86237 -1.40493 0)
(2.82743 -1.26681 0)
(2.78785 -1.07873 0)
(2.76153 -0.943813 0)
(2.71578 -0.713324 0)
(2.70427 -0.614384 0)
(2.66075 -0.42353 0)
(2.65402 -0.333091 0)
(2.62533 -0.199004 0)
(2.61769 -0.120335 0)
(2.60874 -0.048604 0)
(2.59165 0.0380469 0)
(2.60432 0.0544311 0)
(2.59266 0.120791 0)
(2.59976 0.127479 0)
(2.59635 0.16134 0)
(2.60365 0.171114 0)
(2.60904 0.19676 0)
(2.62218 0.205973 0)
(2.63812 0.22271 0)
(2.65555 0.220842 0)
(2.66869 0.208497 0)
(2.68576 0.186818 0)
(2.69381 0.15832 0)
(2.70024 0.126295 0)
(2.70909 0.0958675 0)
(2.71786 0.0696541 0)
(2.72487 0.0382415 0)
(2.73305 0.0416153 0)
(2.74146 0.0570121 0)
(2.75349 0.0866315 0)
(2.75804 0.116191 0)
(2.7593 0.142651 0)
(2.76128 0.149284 0)
(2.76147 0.144905 0)
(2.75433 0.123661 0)
(2.7591 0.104096 0)
(2.75885 0.0787982 0)
(2.77012 0.0718475 0)
(2.77801 0.0781463 0)
(2.79182 0.0924286 0)
(2.80212 0.109944 0)
(2.81065 0.122446 0)
(2.81662 0.123663 0)
(2.81929 0.115888 0)
(2.82262 0.103277 0)
(2.82912 0.0962115 0)
(2.83911 0.0909388 0)
(2.84883 0.0950968 0)
(2.85652 0.0979719 0)
(2.86431 0.0974607 0)
(2.86913 0.0900265 0)
(2.87102 0.0774778 0)
(2.87045 0.0636069 0)
(2.86829 0.0635228 0)
(2.87075 0.0636145 0)
(2.87194 0.0635478 0)
(2.87178 0.0601297 0)
(2.87028 0.0513684 0)
(2.87425 0.0433299 0)
(2.87929 0.0455597 0)
(2.88712 0.0598833 0)
(2.90413 0.0850839 0)
(2.89056 0.1113 0)
(2.7748 0.107589 0)
(2.6645 0.10328 0)
(2.54285 0.0914366 0)
(2.44456 0.032632 0)
(2.43844 -0.0620986 0)
(2.42491 -0.112534 0)
(2.41314 -0.118734 0)
(2.38894 -0.119467 0)
(2.35962 -0.122339 0)
(2.33359 -0.125988 0)
(2.31217 -0.126418 0)
(2.29618 -0.124744 0)
(2.28774 -0.126013 0)
(2.28236 -0.128174 0)
(2.27248 -0.129359 0)
(2.26395 -0.128901 0)
(2.25355 -0.128157 0)
(2.23873 -0.135122 0)
(2.22559 -0.137346 0)
(2.23315 -0.149228 0)
(2.22114 -0.184537 0)
(2.96862 -1.76376 0)
(2.9686 -1.76343 0)
(2.96834 -1.76352 0)
(2.96837 -1.76305 0)
(2.96808 -1.76319 0)
(2.96821 -1.76262 0)
(2.96787 -1.76289 0)
(2.96803 -1.76233 0)
(2.96763 -1.76277 0)
(2.96785 -1.76216 0)
(2.96752 -1.76269 0)
(2.96767 -1.76227 0)
(2.9677 -1.76222 0)
(2.96793 -1.76186 0)
(2.96791 -1.76203 0)
(2.9682 -1.76172 0)
(2.96811 -1.76214 0)
(2.96854 -1.76181 0)
(2.96842 -1.76253 0)
(2.96913 -1.76194 0)
(2.96889 -1.76327 0)
(2.95842 -1.74016 0)
(2.93239 -1.68229 0)
(2.88613 -1.57397 0)
(2.83203 -1.43033 0)
(2.77436 -1.26092 0)
(2.71687 -1.05913 0)
(2.67824 -0.904727 0)
(2.62342 -0.672716 0)
(2.61773 -0.577962 0)
(2.56641 -0.378696 0)
(2.5664 -0.293737 0)
(2.53167 -0.150147 0)
(2.5276 -0.0896918 0)
(2.51072 -0.00483148 0)
(2.51001 0.0214183 0)
(2.50889 0.0537651 0)
(2.51392 0.0598154 0)
(2.51996 0.0578572 0)
(2.54442 0.0559122 0)
(2.54974 0.0496434 0)
(2.55455 0.0454373 0)
(2.56135 0.0519147 0)
(2.56589 0.0566938 0)
(2.57097 0.0649341 0)
(2.58143 0.0633662 0)
(2.58227 0.0620487 0)
(2.58105 0.059288 0)
(2.57479 0.0569669 0)
(2.57039 0.0629773 0)
(2.5689 0.0709794 0)
(2.58075 0.076699 0)
(2.59143 0.0774175 0)
(2.60791 0.0791323 0)
(2.62207 0.0821621 0)
(2.63914 0.0715361 0)
(2.64572 0.0667755 0)
(2.65137 0.0615917 0)
(2.65371 0.0590491 0)
(2.65606 0.0609841 0)
(2.65992 0.0673291 0)
(2.66915 0.0720381 0)
(2.68098 0.0735907 0)
(2.69478 0.0739704 0)
(2.70565 0.0738911 0)
(2.71373 0.0792698 0)
(2.71882 0.0819874 0)
(2.72062 0.0801866 0)
(2.71892 0.0687969 0)
(2.72131 0.0568574 0)
(2.72535 0.0571513 0)
(2.72764 0.0599624 0)
(2.72948 0.0592221 0)
(2.72498 0.0512337 0)
(2.73238 0.0443901 0)
(2.73958 0.0480235 0)
(2.74996 0.065284 0)
(2.76561 0.0880473 0)
(2.75582 0.128114 0)
(2.63993 0.138785 0)
(2.5199 0.12813 0)
(2.43234 0.103331 0)
(2.40593 0.0316937 0)
(2.42679 -0.066732 0)
(2.4266 -0.11199 0)
(2.41107 -0.117151 0)
(2.38461 -0.119649 0)
(2.35587 -0.123111 0)
(2.33118 -0.126196 0)
(2.31104 -0.124308 0)
(2.29638 -0.122466 0)
(2.28771 -0.124771 0)
(2.28197 -0.127566 0)
(2.27052 -0.129117 0)
(2.2611 -0.128909 0)
(2.25006 -0.126544 0)
(2.23481 -0.132996 0)
(2.22154 -0.135995 0)
(2.22817 -0.149801 0)
(2.21636 -0.183233 0)
(2.96795 -1.7619 0)
(2.9678 -1.76206 0)
(2.96787 -1.76186 0)
(2.9678 -1.76201 0)
(2.96797 -1.7618 0)
(2.96794 -1.762 0)
(2.96814 -1.76183 0)
(2.9681 -1.76208 0)
(2.96835 -1.76189 0)
(2.96837 -1.76213 0)
(2.96861 -1.76206 0)
(2.96873 -1.76229 0)
(2.96895 -1.76245 0)
(2.96922 -1.76259 0)
(2.9695 -1.76275 0)
(2.9698 -1.76293 0)
(2.97007 -1.76323 0)
(2.97037 -1.76357 0)
(2.97071 -1.76389 0)
(2.97111 -1.76411 0)
(2.97138 -1.76469 0)
(2.97176 -1.76458 0)
(2.97192 -1.76485 0)
(2.97223 -1.76497 0)
(2.97241 -1.76538 0)
(2.9729 -1.76539 0)
(2.97298 -1.7661 0)
(2.97368 -1.76593 0)
(2.97369 -1.76688 0)
(2.96977 -1.757 0)
(2.94134 -1.69553 0)
(2.8976 -1.59228 0)
(2.83068 -1.40979 0)
(2.76618 -1.2155 0)
(2.69109 -0.966767 0)
(2.62799 -0.743471 0)
(2.57449 -0.540501 0)
(2.50241 -0.30239 0)
(2.50453 -0.183796 0)
(2.43665 0.00582897 0)
(2.4357 0.0830289 0)
(2.41419 0.152927 0)
(2.40408 0.194749 0)
(2.41638 0.192673 0)
(2.434 0.174903 0)
(2.44774 0.147987 0)
(2.45698 0.101223 0)
(2.47718 0.0669542 0)
(2.48004 0.0424729 0)
(2.48701 0.0358149 0)
(2.49015 0.0422908 0)
(2.49346 0.0554068 0)
(2.50797 0.0824005 0)
(2.51184 0.105108 0)
(2.51754 0.121697 0)
(2.52 0.119051 0)
(2.52098 0.107398 0)
(2.52495 0.0933585 0)
(2.52446 0.0779428 0)
(2.53119 0.0714325 0)
(2.53777 0.0757754 0)
(2.5477 0.0850912 0)
(2.55673 0.0957974 0)
(2.57055 0.0973426 0)
(2.58211 0.0898745 0)
(2.5865 0.0745921 0)
(2.59064 0.0569275 0)
(2.59035 0.0572878 0)
(2.58687 0.0658498 0)
(2.5919 0.072341 0)
(2.59535 0.0679329 0)
(2.59834 0.0575403 0)
(2.60183 0.0494237 0)
(2.59999 0.039905 0)
(2.60361 0.039441 0)
(2.60973 0.0412746 0)
(2.61614 0.0575002 0)
(2.61216 0.0770041 0)
(2.57884 0.134837 0)
(2.4904 0.169907 0)
(2.40421 0.151468 0)
(2.35722 0.10765 0)
(2.38417 0.0172496 0)
(2.42192 -0.0773149 0)
(2.43131 -0.109358 0)
(2.4106 -0.116822 0)
(2.38387 -0.119447 0)
(2.35547 -0.123413 0)
(2.33105 -0.125522 0)
(2.31165 -0.123303 0)
(2.29804 -0.121601 0)
(2.28887 -0.123639 0)
(2.28227 -0.126288 0)
(2.2689 -0.128165 0)
(2.25878 -0.12783 0)
(2.24719 -0.124188 0)
(2.2306 -0.13052 0)
(2.21613 -0.134639 0)
(2.22228 -0.150278 0)
(2.21207 -0.181972 0)
(2.96796 -1.76272 0)
(2.96814 -1.76274 0)
(2.96827 -1.76292 0)
(2.96853 -1.76296 0)
(2.96877 -1.76306 0)
(2.96899 -1.76315 0)
(2.96925 -1.76316 0)
(2.96939 -1.76336 0)
(2.96965 -1.7634 0)
(2.96983 -1.76363 0)
(2.97011 -1.76375 0)
(2.97033 -1.76399 0)
(2.97061 -1.76417 0)
(2.97084 -1.76446 0)
(2.97118 -1.76459 0)
(2.97142 -1.76491 0)
(2.97181 -1.76502 0)
(2.97205 -1.76539 0)
(2.97241 -1.7656 0)
(2.97265 -1.766 0)
(2.97302 -1.76618 0)
(2.97328 -1.76651 0)
(2.97364 -1.76672 0)
(2.97385 -1.7672 0)
(2.9743 -1.76728 0)
(2.9746 -1.76755 0)
(2.9749 -1.76781 0)
(2.97524 -1.76797 0)
(2.97559 -1.76816 0)
(2.97582 -1.76816 0)
(2.97602 -1.76814 0)
(2.97615 -1.76826 0)
(2.97636 -1.76825 0)
(2.97651 -1.76839 0)
(2.97682 -1.76822 0)
(2.9768 -1.76855 0)
(2.96797 -1.74957 0)
(2.92312 -1.65334 0)
(2.85298 -1.47413 0)
(2.76097 -1.203 0)
(2.69812 -0.946591 0)
(2.62765 -0.658674 0)
(2.59085 -0.439471 0)
(2.54508 -0.229748 0)
(2.52004 -0.120965 0)
(2.49055 -0.0373154 0)
(2.48022 -0.0166699 0)
(2.48789 0.015998 0)
(2.4888 0.0293717 0)
(2.49432 0.0412 0)
(2.49472 0.0472628 0)
(2.48633 0.0607642 0)
(2.47713 0.0738692 0)
(2.47572 0.0905269 0)
(2.4685 0.0915005 0)
(2.46472 0.0851202 0)
(2.46507 0.0771658 0)
(2.47203 0.0734996 0)
(2.47853 0.0690308 0)
(2.48714 0.0659562 0)
(2.49711 0.064777 0)
(2.50887 0.0673175 0)
(2.51236 0.0732088 0)
(2.51615 0.0812465 0)
(2.51967 0.0853013 0)
(2.5237 0.0842872 0)
(2.52091 0.0735873 0)
(2.52165 0.0584889 0)
(2.52111 0.0582395 0)
(2.52127 0.0627815 0)
(2.52187 0.0663837 0)
(2.52534 0.0609934 0)
(2.52618 0.049871 0)
(2.52691 0.0439989 0)
(2.52498 0.03965 0)
(2.52368 0.0438477 0)
(2.5112 0.0700751 0)
(2.48437 0.0958181 0)
(2.42309 0.15279 0)
(2.36411 0.188622 0)
(2.32576 0.16842 0)
(2.32413 0.10219 0)
(2.37878 -0.000699207 0)
(2.42719 -0.0790777 0)
(2.43256 -0.107752 0)
(2.41115 -0.116642 0)
(2.38521 -0.119723 0)
(2.35722 -0.122695 0)
(2.33233 -0.124763 0)
(2.31294 -0.121697 0)
(2.29973 -0.120831 0)
(2.28998 -0.122761 0)
(2.2825 -0.125883 0)
(2.26781 -0.127136 0)
(2.25782 -0.126449 0)
(2.24557 -0.121486 0)
(2.22623 -0.126573 0)
(2.20988 -0.133128 0)
(2.21564 -0.15094 0)
(2.20829 -0.18076 0)
(2.96992 -1.76387 0)
(2.97016 -1.76397 0)
(2.97039 -1.76413 0)
(2.97062 -1.76431 0)
(2.97088 -1.76445 0)
(2.9711 -1.76458 0)
(2.97132 -1.76468 0)
(2.97156 -1.76476 0)
(2.97177 -1.76491 0)
(2.97203 -1.76502 0)
(2.97227 -1.76519 0)
(2.97255 -1.76532 0)
(2.97275 -1.76559 0)
(2.97305 -1.76572 0)
(2.97327 -1.76597 0)
(2.97357 -1.76612 0)
(2.9738 -1.76639 0)
(2.97407 -1.76658 0)
(2.97434 -1.76676 0)
(2.97457 -1.767 0)
(2.97482 -1.76719 0)
(2.97511 -1.76725 0)
(2.97525 -1.76753 0)
(2.97546 -1.76774 0)
(2.97568 -1.76795 0)
(2.97596 -1.76796 0)
(2.97615 -1.76809 0)
(2.97636 -1.76818 0)
(2.97656 -1.76825 0)
(2.97676 -1.76825 0)
(2.97688 -1.76833 0)
(2.97698 -1.7684 0)
(2.97705 -1.76859 0)
(2.97721 -1.76853 0)
(2.97736 -1.76846 0)
(2.9774 -1.76856 0)
(2.97746 -1.76852 0)
(2.97749 -1.76849 0)
(2.97753 -1.76844 0)
(2.97742 -1.76862 0)
(2.97753 -1.7684 0)
(2.97734 -1.76873 0)
(2.9476 -1.68886 0)
(2.86621 -1.44262 0)
(2.7759 -1.13879 0)
(2.65257 -0.701323 0)
(2.6239 -0.473722 0)
(2.58479 -0.242773 0)
(2.51528 -0.00524926 0)
(2.52838 0.0354882 0)
(2.49226 0.113432 0)
(2.47773 0.1366 0)
(2.46192 0.116059 0)
(2.46027 0.105063 0)
(2.46203 0.0737521 0)
(2.46674 0.0658487 0)
(2.47051 0.0673568 0)
(2.47431 0.0712553 0)
(2.48252 0.0743562 0)
(2.49198 0.070507 0)
(2.50085 0.0703091 0)
(2.50828 0.0731461 0)
(2.51056 0.0739918 0)
(2.50998 0.0726784 0)
(2.50881 0.0699188 0)
(2.50774 0.0670639 0)
(2.50421 0.0676762 0)
(2.50593 0.0658583 0)
(2.50719 0.0651251 0)
(2.5064 0.0636964 0)
(2.5035 0.0570045 0)
(2.50167 0.0517375 0)
(2.49929 0.0478566 0)
(2.50015 0.0489928 0)
(2.49651 0.0456875 0)
(2.48097 0.0402771 0)
(2.44747 0.0637213 0)
(2.40734 0.098427 0)
(2.3345 0.159229 0)
(2.29346 0.19404 0)
(2.29118 0.171357 0)
(2.32356 0.0907361 0)
(2.38885 -0.0121376 0)
(2.43635 -0.0780356 0)
(2.43496 -0.107976 0)
(2.41254 -0.118524 0)
(2.38665 -0.120038 0)
(2.35883 -0.121817 0)
(2.33327 -0.122163 0)
(2.31413 -0.120136 0)
(2.30112 -0.120354 0)
(2.29088 -0.123668 0)
(2.28208 -0.126343 0)
(2.267 -0.126668 0)
(2.25767 -0.125323 0)
(2.24206 -0.119146 0)
(2.22066 -0.122465 0)
(2.20402 -0.131672 0)
(2.20923 -0.1519 0)
(2.20478 -0.179875 0)
(2.97244 -1.76518 0)
(2.97263 -1.76531 0)
(2.97288 -1.76538 0)
(2.97302 -1.76559 0)
(2.97323 -1.7657 0)
(2.97338 -1.76588 0)
(2.97354 -1.76603 0)
(2.97371 -1.76619 0)
(2.97387 -1.76636 0)
(2.97407 -1.7665 0)
(2.97422 -1.7667 0)
(2.97442 -1.76681 0)
(2.97455 -1.76703 0)
(2.97475 -1.76714 0)
(2.97489 -1.76736 0)
(2.97506 -1.76754 0)
(2.97527 -1.76764 0)
(2.9754 -1.76783 0)
(2.97556 -1.76798 0)
(2.97569 -1.76816 0)
(2.97588 -1.76823 0)
(2.97603 -1.76832 0)
(2.97616 -1.7684 0)
(2.97625 -1.76858 0)
(2.97639 -1.76868 0)
(2.97657 -1.76866 0)
(2.97671 -1.76866 0)
(2.97684 -1.76866 0)
(2.97698 -1.76863 0)
(2.97708 -1.76864 0)
(2.97718 -1.76862 0)
(2.97723 -1.76866 0)
(2.97731 -1.76869 0)
(2.97741 -1.76863 0)
(2.97751 -1.76853 0)
(2.97759 -1.76848 0)
(2.97762 -1.7685 0)
(2.97765 -1.76844 0)
(2.97757 -1.7685 0)
(2.97745 -1.76855 0)
(2.97733 -1.76848 0)
(2.97722 -1.76833 0)
(2.97709 -1.76834 0)
(2.97713 -1.76851 0)
(2.97718 -1.76854 0)
(2.97736 -1.76864 0)
(2.96234 -1.72632 0)
(2.89573 -1.53764 0)
(2.81159 -1.20401 0)
(2.76327 -0.909072 0)
(2.70001 -0.582388 0)
(2.65926 -0.326279 0)
(2.64938 -0.207129 0)
(2.57096 -0.0604177 0)
(2.56343 -0.0208473 0)
(2.52821 0.024208 0)
(2.51966 0.0578457 0)
(2.50669 0.0848769 0)
(2.50401 0.0844084 0)
(2.50903 0.0801906 0)
(2.51512 0.0798724 0)
(2.51733 0.0797766 0)
(2.51531 0.0754629 0)
(2.51195 0.0647571 0)
(2.5141 0.0578825 0)
(2.51493 0.057157 0)
(2.51418 0.0626215 0)
(2.5135 0.068195 0)
(2.51125 0.0690833 0)
(2.50854 0.0650414 0)
(2.50263 0.0540922 0)
(2.49844 0.0456998 0)
(2.49829 0.0477777 0)
(2.49678 0.0550815 0)
(2.4872 0.0523719 0)
(2.4626 0.0506113 0)
(2.42027 0.0764601 0)
(2.37892 0.122111 0)
(2.31702 0.170836 0)
(2.28656 0.192759 0)
(2.30175 0.160706 0)
(2.34849 0.0705335 0)
(2.41233 -0.0258504 0)
(2.44745 -0.0792256 0)
(2.44069 -0.109109 0)
(2.41729 -0.11941 0)
(2.39053 -0.118595 0)
(2.36195 -0.118992 0)
(2.33553 -0.119443 0)
(2.31579 -0.118768 0)
(2.30218 -0.119979 0)
(2.29166 -0.123703 0)
(2.28032 -0.126402 0)
(2.26581 -0.125998 0)
(2.25619 -0.123888 0)
(2.23709 -0.115821 0)
(2.2145 -0.117353 0)
(2.19958 -0.130083 0)
(2.20394 -0.15262 0)
(2.20127 -0.178972 0)
(2.97452 -1.76657 0)
(2.97464 -1.76669 0)
(2.97479 -1.76677 0)
(2.97489 -1.76691 0)
(2.97499 -1.76708 0)
(2.97514 -1.76717 0)
(2.97523 -1.76735 0)
(2.97536 -1.76748 0)
(2.97547 -1.76762 0)
(2.9756 -1.76771 0)
(2.97567 -1.76788 0)
(2.97576 -1.76799 0)
(2.97586 -1.76807 0)
(2.97592 -1.76821 0)
(2.97602 -1.7683 0)
(2.97612 -1.76841 0)
(2.97624 -1.76847 0)
(2.97637 -1.76846 0)
(2.97643 -1.76859 0)
(2.97659 -1.76856 0)
(2.9767 -1.7686 0)
(2.9768 -1.76864 0)
(2.97686 -1.76874 0)
(2.97694 -1.76874 0)
(2.97702 -1.76874 0)
(2.9771 -1.76873 0)
(2.9772 -1.76863 0)
(2.9773 -1.76857 0)
(2.9774 -1.76847 0)
(2.97748 -1.76845 0)
(2.97752 -1.76845 0)
(2.97755 -1.76847 0)
(2.9776 -1.76845 0)
(2.97766 -1.76838 0)
(2.97772 -1.76833 0)
(2.97775 -1.76834 0)
(2.97775 -1.76838 0)
(2.97773 -1.76837 0)
(2.97763 -1.76839 0)
(2.97744 -1.76848 0)
(2.97732 -1.76837 0)
(2.97718 -1.76828 0)
(2.97721 -1.76806 0)
(2.97722 -1.76802 0)
(2.97729 -1.76793 0)
(2.97737 -1.76799 0)
(2.97742 -1.76821 0)
(2.97769 -1.76813 0)
(2.97779 -1.76798 0)
(2.9777 -1.76804 0)
(2.96942 -1.744 0)
(2.92546 -1.56168 0)
(2.87142 -1.26684 0)
(2.75187 -0.77481 0)
(2.77515 -0.596119 0)
(2.63475 -0.220454 0)
(2.62311 -0.0912072 0)
(2.56807 0.0623108 0)
(2.55164 0.0665643 0)
(2.53784 0.0834478 0)
(2.53165 0.0819727 0)
(2.53211 0.0795524 0)
(2.53279 0.0754781 0)
(2.53312 0.0653202 0)
(2.5375 0.0638274 0)
(2.53616 0.0652937 0)
(2.53412 0.0678933 0)
(2.53 0.0732795 0)
(2.52167 0.0705332 0)
(2.51223 0.0616264 0)
(2.50106 0.0454504 0)
(2.50033 0.0448134 0)
(2.50644 0.0563125 0)
(2.49959 0.0680029 0)
(2.48278 0.0630891 0)
(2.45667 0.0622864 0)
(2.417 0.0878111 0)
(2.38019 0.143201 0)
(2.33893 0.189226 0)
(2.32116 0.198344 0)
(2.3394 0.149547 0)
(2.38835 0.0504826 0)
(2.44006 -0.037672 0)
(2.45779 -0.084891 0)
(2.44909 -0.111257 0)
(2.42573 -0.1186 0)
(2.39794 -0.116024 0)
(2.36746 -0.115864 0)
(2.33951 -0.117363 0)
(2.31832 -0.118621 0)
(2.3035 -0.120963 0)
(2.29234 -0.12358 0)
(2.27662 -0.126121 0)
(2.26328 -0.125522 0)
(2.25325 -0.121554 0)
(2.23138 -0.112047 0)
(2.20815 -0.113731 0)
(2.19687 -0.129627 0)
(2.19997 -0.153796 0)
(2.19803 -0.178383 0)
(2.97589 -1.76782 0)
(2.97594 -1.76796 0)
(2.97603 -1.76803 0)
(2.97611 -1.76813 0)
(2.97612 -1.76833 0)
(2.97623 -1.76835 0)
(2.97626 -1.76848 0)
(2.97627 -1.76865 0)
(2.97637 -1.76866 0)
(2.97638 -1.7688 0)
(2.97643 -1.76887 0)
(2.97645 -1.76897 0)
(2.97655 -1.76888 0)
(2.97655 -1.76895 0)
(2.9766 -1.76897 0)
(2.97667 -1.76897 0)
(2.97674 -1.76897 0)
(2.97679 -1.76901 0)
(2.97688 -1.76895 0)
(2.97699 -1.7689 0)
(2.97712 -1.76883 0)
(2.97719 -1.76887 0)
(2.97722 -1.76897 0)
(2.97728 -1.76894 0)
(2.97733 -1.76874 0)
(2.97737 -1.76866 0)
(2.97742 -1.76863 0)
(2.97748 -1.76855 0)
(2.97754 -1.76851 0)
(2.9776 -1.76846 0)
(2.97763 -1.76847 0)
(2.97764 -1.76851 0)
(2.97767 -1.76852 0)
(2.9777 -1.7685 0)
(2.97775 -1.76849 0)
(2.97776 -1.76849 0)
(2.97775 -1.76849 0)
(2.97773 -1.76845 0)
(2.9776 -1.7684 0)
(2.97747 -1.76838 0)
(2.97733 -1.76819 0)
(2.9773 -1.76787 0)
(2.97735 -1.76771 0)
(2.97728 -1.76765 0)
(2.97725 -1.76769 0)
(2.97731 -1.76783 0)
(2.97745 -1.76797 0)
(2.97742 -1.76794 0)
(2.97731 -1.76796 0)
(2.97709 -1.76826 0)
(2.97695 -1.76819 0)
(2.9767 -1.76793 0)
(2.97651 -1.76748 0)
(2.97583 -1.76809 0)
(2.97064 -1.74695 0)
(2.90211 -1.52141 0)
(2.83975 -1.17935 0)
(2.76158 -0.746913 0)
(2.72675 -0.450473 0)
(2.63452 -0.153643 0)
(2.61129 -0.068702 0)
(2.56314 0.00896942 0)
(2.55762 0.0389061 0)
(2.56113 0.057766 0)
(2.55581 0.0694926 0)
(2.55061 0.0713419 0)
(2.54515 0.0763959 0)
(2.54182 0.0760642 0)
(2.53085 0.0668072 0)
(2.50905 0.0468599 0)
(2.50545 0.0448844 0)
(2.50549 0.0525411 0)
(2.50833 0.0642284 0)
(2.49138 0.0694642 0)
(2.47582 0.0662504 0)
(2.45196 0.0685045 0)
(2.42402 0.0942709 0)
(2.39651 0.160574 0)
(2.37899 0.206021 0)
(2.37038 0.195867 0)
(2.38306 0.123781 0)
(2.42183 0.0192832 0)
(2.4569 -0.05313 0)
(2.46555 -0.0922062 0)
(2.45542 -0.114757 0)
(2.43422 -0.115758 0)
(2.40692 -0.111431 0)
(2.37487 -0.111242 0)
(2.34359 -0.114982 0)
(2.32092 -0.118935 0)
(2.30515 -0.122041 0)
(2.29269 -0.123331 0)
(2.27312 -0.123584 0)
(2.26128 -0.122915 0)
(2.24931 -0.117468 0)
(2.22621 -0.106991 0)
(2.20396 -0.109469 0)
(2.19613 -0.12893 0)
(2.1976 -0.154699 0)
(2.19567 -0.177792 0)
(2.97664 -1.76868 0)
(2.97668 -1.76876 0)
(2.97674 -1.7688 0)
(2.97678 -1.76887 0)
(2.97681 -1.76893 0)
(2.97689 -1.76889 0)
(2.97692 -1.7689 0)
(2.97692 -1.76896 0)
(2.97698 -1.7689 0)
(2.977 -1.7689 0)
(2.97696 -1.76905 0)
(2.97701 -1.76901 0)
(2.97705 -1.76898 0)
(2.97707 -1.76896 0)
(2.97711 -1.76893 0)
(2.97717 -1.76888 0)
(2.97721 -1.76889 0)
(2.97726 -1.76888 0)
(2.97732 -1.76879 0)
(2.97741 -1.76872 0)
(2.9775 -1.76869 0)
(2.97756 -1.76871 0)
(2.97756 -1.76878 0)
(2.97756 -1.76879 0)
(2.97755 -1.76867 0)
(2.97755 -1.76855 0)
(2.97757 -1.76849 0)
(2.97759 -1.76847 0)
(2.97761 -1.76848 0)
(2.97761 -1.76851 0)
(2.97763 -1.76852 0)
(2.97767 -1.76854 0)
(2.97769 -1.76856 0)
(2.97771 -1.76856 0)
(2.97773 -1.76856 0)
(2.97775 -1.76852 0)
(2.97775 -1.76844 0)
(2.97772 -1.76832 0)
(2.97769 -1.76812 0)
(2.9776 -1.76794 0)
(2.97749 -1.76772 0)
(2.97748 -1.76734 0)
(2.97745 -1.76727 0)
(2.97731 -1.76722 0)
(2.97725 -1.76747 0)
(2.97722 -1.76765 0)
(2.9772 -1.7677 0)
(2.97702 -1.76791 0)
(2.97684 -1.76824 0)
(2.97636 -1.769 0)
(2.97594 -1.76871 0)
(2.97574 -1.7679 0)
(2.97541 -1.76755 0)
(2.97536 -1.76759 0)
(2.97515 -1.76786 0)
(2.9752 -1.76829 0)
(2.97537 -1.76866 0)
(2.97574 -1.7686 0)
(2.95203 -1.67508 0)
(2.86203 -1.30659 0)
(2.78837 -0.893721 0)
(2.66207 -0.412707 0)
(2.63529 -0.183302 0)
(2.61501 -0.045456 0)
(2.56157 0.0997524 0)
(2.52447 0.0901196 0)
(2.53589 0.0965668 0)
(2.53614 0.0808539 0)
(2.53207 0.0620106 0)
(2.5097 0.0565564 0)
(2.50712 0.0565221 0)
(2.51339 0.0719089 0)
(2.49957 0.0763401 0)
(2.4803 0.0669882 0)
(2.4645 0.0648462 0)
(2.45088 0.0721611 0)
(2.43588 0.101913 0)
(2.42334 0.176851 0)
(2.42719 0.219421 0)
(2.41655 0.192618 0)
(2.42211 0.107681 0)
(2.45146 0.00244418 0)
(2.47922 -0.0659785 0)
(2.48359 -0.103788 0)
(2.46801 -0.11453 0)
(2.44391 -0.110319 0)
(2.41575 -0.10533 0)
(2.38335 -0.105215 0)
(2.35035 -0.111768 0)
(2.3258 -0.120312 0)
(2.30932 -0.122504 0)
(2.29251 -0.120997 0)
(2.2719 -0.120137 0)
(2.2598 -0.119968 0)
(2.24525 -0.112576 0)
(2.22195 -0.102476 0)
(2.20185 -0.107698 0)
(2.19623 -0.127715 0)
(2.19547 -0.156246 0)
(2.19288 -0.177373 0)
(2.9771 -1.76879 0)
(2.97715 -1.7688 0)
(2.97719 -1.7688 0)
(2.97721 -1.76882 0)
(2.97724 -1.76882 0)
(2.97726 -1.76881 0)
(2.97728 -1.76881 0)
(2.97729 -1.76879 0)
(2.97732 -1.76874 0)
(2.97733 -1.76871 0)
(2.97731 -1.76876 0)
(2.97731 -1.7688 0)
(2.97734 -1.76879 0)
(2.97737 -1.76881 0)
(2.97738 -1.76884 0)
(2.97741 -1.76886 0)
(2.97745 -1.76884 0)
(2.97751 -1.7688 0)
(2.97753 -1.76879 0)
(2.9776 -1.76877 0)
(2.97764 -1.76875 0)
(2.97767 -1.76876 0)
(2.97767 -1.76877 0)
(2.97764 -1.76877 0)
(2.97758 -1.76875 0)
(2.97752 -1.76872 0)
(2.97746 -1.76873 0)
(2.97743 -1.76872 0)
(2.97743 -1.76871 0)
(2.97739 -1.76875 0)
(2.97739 -1.76877 0)
(2.97743 -1.76873 0)
(2.97748 -1.7687 0)
(2.97754 -1.7686 0)
(2.97755 -1.76854 0)
(2.9776 -1.76842 0)
(2.97765 -1.76823 0)
(2.97764 -1.76804 0)
(2.97772 -1.76782 0)
(2.97787 -1.76748 0)
(2.97778 -1.76712 0)
(2.97761 -1.76689 0)
(2.97758 -1.76685 0)
(2.97741 -1.76695 0)
(2.97714 -1.76719 0)
(2.977 -1.76741 0)
(2.97677 -1.76782 0)
(2.97648 -1.76822 0)
(2.97605 -1.76896 0)
(2.9757 -1.76918 0)
(2.97547 -1.76844 0)
(2.97529 -1.76797 0)
(2.97516 -1.76761 0)
(2.97507 -1.76723 0)
(2.97529 -1.76698 0)
(2.976 -1.76664 0)
(2.97651 -1.76632 0)
(2.97644 -1.76638 0)
(2.97586 -1.7671 0)
(2.97596 -1.76733 0)
(2.97692 -1.76633 0)
(2.9523 -1.69426 0)
(2.88196 -1.39938 0)
(2.79267 -0.958311 0)
(2.69294 -0.49441 0)
(2.69387 -0.291169 0)
(2.58351 -0.0184617 0)
(2.55251 -0.00731671 0)
(2.53538 0.0285465 0)
(2.52062 0.0549325 0)
(2.50193 0.0859443 0)
(2.4881 0.0821512 0)
(2.47413 0.0731289 0)
(2.46002 0.0614529 0)
(2.45266 0.0598466 0)
(2.45395 0.0676748 0)
(2.45154 0.100924 0)
(2.45635 0.182805 0)
(2.4736 0.224692 0)
(2.45908 0.190389 0)
(2.46532 0.0906242 0)
(2.50152 -0.0129125 0)
(2.52671 -0.0839041 0)
(2.52236 -0.107754 0)
(2.49546 -0.11356 0)
(2.4642 -0.107148 0)
(2.43286 -0.101412 0)
(2.39866 -0.102359 0)
(2.36399 -0.111228 0)
(2.33798 -0.119608 0)
(2.3191 -0.119835 0)
(2.29446 -0.116214 0)
(2.27393 -0.115441 0)
(2.25949 -0.11523 0)
(2.24209 -0.106503 0)
(2.21999 -0.0974348 0)
(2.20247 -0.104555 0)
(2.19748 -0.125186 0)
(2.19459 -0.157109 0)
(2.19002 -0.177265 0)
(2.97731 -1.76875 0)
(2.97734 -1.76873 0)
(2.97736 -1.7687 0)
(2.97738 -1.76868 0)
(2.9774 -1.76869 0)
(2.97742 -1.76868 0)
(2.97744 -1.76863 0)
(2.97745 -1.76861 0)
(2.97745 -1.76859 0)
(2.97746 -1.76857 0)
(2.97747 -1.76858 0)
(2.9775 -1.76862 0)
(2.97751 -1.76863 0)
(2.97754 -1.76867 0)
(2.97758 -1.7687 0)
(2.97759 -1.76873 0)
(2.97763 -1.76875 0)
(2.97764 -1.76874 0)
(2.97768 -1.76873 0)
(2.97773 -1.76874 0)
(2.97774 -1.76875 0)
(2.97774 -1.76878 0)
(2.9777 -1.76881 0)
(2.9776 -1.76882 0)
(2.97747 -1.76882 0)
(2.97733 -1.76881 0)
(2.97722 -1.76884 0)
(2.97719 -1.76879 0)
(2.97717 -1.76879 0)
(2.97719 -1.76875 0)
(2.97724 -1.76867 0)
(2.97729 -1.76859 0)
(2.97736 -1.76854 0)
(2.97743 -1.76843 0)
(2.97748 -1.76829 0)
(2.9775 -1.76813 0)
(2.97753 -1.76799 0)
(2.97761 -1.76779 0)
(2.97791 -1.76734 0)
(2.97811 -1.76688 0)
(2.97794 -1.76668 0)
(2.97776 -1.76654 0)
(2.97769 -1.76649 0)
(2.9774 -1.76654 0)
(2.97691 -1.76695 0)
(2.97649 -1.76758 0)
(2.97624 -1.76802 0)
(2.97559 -1.76891 0)
(2.97534 -1.7694 0)
(2.97523 -1.76886 0)
(2.97526 -1.76856 0)
(2.9752 -1.76802 0)
(2.97503 -1.76734 0)
(2.97493 -1.76698 0)
(2.97562 -1.7666 0)
(2.97669 -1.76628 0)
(2.97692 -1.76621 0)
(2.97674 -1.76623 0)
(2.97587 -1.76689 0)
(2.97549 -1.76757 0)
(2.97578 -1.76711 0)
(2.97608 -1.76569 0)
(2.97605 -1.76454 0)
(2.97197 -1.76643 0)
(2.95385 -1.71392 0)
(2.89404 -1.41642 0)
(2.76019 -0.868453 0)
(2.66114 -0.42906 0)
(2.61179 -0.120638 0)
(2.49909 0.116038 0)
(2.47879 0.150787 0)
(2.45588 0.0924623 0)
(2.457 0.0649044 0)
(2.45809 0.0640497 0)
(2.4643 0.0606547 0)
(2.46964 0.0638727 0)
(2.47677 0.090804 0)
(2.48809 0.17188 0)
(2.51107 0.218166 0)
(2.50415 0.187384 0)
(2.51557 0.0798932 0)
(2.55975 -0.028735 0)
(2.59128 -0.0764076 0)
(2.57634 -0.0943997 0)
(2.5338 -0.0918576 0)
(2.49747 -0.0937982 0)
(2.46154 -0.0960533 0)
(2.42402 -0.10027 0)
(2.38672 -0.109818 0)
(2.35907 -0.117619 0)
(2.33136 -0.11272 0)
(2.30416 -0.10964 0)
(2.28022 -0.109976 0)
(2.26092 -0.109603 0)
(2.24187 -0.0991946 0)
(2.22112 -0.0923063 0)
(2.20674 -0.101445 0)
(2.20244 -0.122302 0)
(2.19777 -0.154925 0)
(2.19011 -0.177375 0)
(2.97748 -1.76854 0)
(2.97749 -1.76852 0)
(2.97751 -1.76849 0)
(2.97754 -1.76848 0)
(2.97755 -1.76847 0)
(2.97756 -1.76846 0)
(2.97757 -1.76841 0)
(2.9776 -1.76835 0)
(2.97762 -1.76832 0)
(2.9776 -1.76834 0)
(2.9776 -1.76836 0)
(2.97764 -1.76834 0)
(2.97767 -1.7683 0)
(2.97771 -1.7683 0)
(2.97774 -1.76831 0)
(2.97777 -1.76833 0)
(2.97779 -1.76837 0)
(2.9778 -1.76838 0)
(2.97783 -1.76835 0)
(2.97786 -1.76832 0)
(2.97787 -1.76827 0)
(2.97781 -1.76826 0)
(2.97768 -1.76826 0)
(2.97745 -1.76836 0)
(2.97722 -1.7685 0)
(2.97713 -1.76849 0)
(2.97705 -1.76858 0)
(2.97706 -1.76857 0)
(2.97712 -1.76855 0)
(2.97715 -1.76854 0)
(2.97719 -1.76854 0)
(2.97728 -1.76847 0)
(2.97735 -1.76838 0)
(2.97742 -1.76827 0)
(2.97744 -1.76815 0)
(2.97745 -1.76799 0)
(2.97745 -1.76777 0)
(2.97768 -1.7673 0)
(2.97802 -1.76669 0)
(2.978 -1.76654 0)
(2.9778 -1.76641 0)
(2.97773 -1.76639 0)
(2.97755 -1.76634 0)
(2.97699 -1.7666 0)
(2.97587 -1.76766 0)
(2.97582 -1.76784 0)
(2.97532 -1.76855 0)
(2.97502 -1.76929 0)
(2.97501 -1.76922 0)
(2.97505 -1.7691 0)
(2.97501 -1.76874 0)
(2.97514 -1.76762 0)
(2.97503 -1.76681 0)
(2.97494 -1.76675 0)
(2.97576 -1.7667 0)
(2.9772 -1.7659 0)
(2.97739 -1.76562 0)
(2.97716 -1.76545 0)
(2.97575 -1.76618 0)
(2.97347 -1.76793 0)
(2.97192 -1.76788 0)
(2.97176 -1.7668 0)
(2.97131 -1.76567 0)
(2.9695 -1.76344 0)
(2.96843 -1.76216 0)
(2.96811 -1.76194 0)
(2.96813 -1.76139 0)
(2.94377 -1.67722 0)
(2.84141 -1.25327 0)
(2.74945 -0.740207 0)
(2.61059 -0.251173 0)
(2.55541 -0.0964399 0)
(2.50121 0.00676213 0)
(2.48727 0.0611907 0)
(2.48459 0.0655753 0)
(2.49394 0.0560811 0)
(2.50174 0.069015 0)
(2.51906 0.144166 0)
(2.5453 0.198338 0)
(2.54291 0.16589 0)
(2.57132 0.0569092 0)
(2.62293 -0.0505756 0)
(2.65354 -0.0786548 0)
(2.62624 -0.0573447 0)
(2.58018 -0.0783976 0)
(2.53581 -0.0907174 0)
(2.4949 -0.0921424 0)
(2.45525 -0.0947382 0)
(2.418 -0.100788 0)
(2.38354 -0.107376 0)
(2.35093 -0.106798 0)
(2.32023 -0.103271 0)
(2.29013 -0.10523 0)
(2.26531 -0.104375 0)
(2.2453 -0.0930113 0)
(2.2264 -0.0875659 0)
(2.2169 -0.100843 0)
(2.21306 -0.121287 0)
(2.20698 -0.15553 0)
(2.19582 -0.176588 0)
(2.97782 -1.7681 0)
(2.97782 -1.76803 0)
(2.97781 -1.768 0)
(2.97781 -1.76799 0)
(2.97781 -1.76795 0)
(2.9778 -1.76794 0)
(2.9778 -1.76792 0)
(2.97782 -1.76785 0)
(2.97783 -1.76779 0)
(2.97781 -1.76774 0)
(2.97778 -1.76771 0)
(2.97774 -1.76774 0)
(2.97775 -1.76772 0)
(2.97776 -1.76772 0)
(2.97774 -1.76773 0)
(2.97772 -1.76774 0)
(2.9777 -1.76771 0)
(2.97769 -1.76766 0)
(2.97767 -1.76764 0)
(2.9776 -1.76768 0)
(2.97754 -1.76771 0)
(2.97749 -1.76769 0)
(2.97736 -1.76774 0)
(2.97719 -1.76793 0)
(2.97707 -1.76813 0)
(2.97698 -1.76833 0)
(2.97704 -1.76834 0)
(2.97709 -1.76832 0)
(2.97717 -1.76827 0)
(2.97728 -1.76824 0)
(2.97733 -1.76821 0)
(2.97751 -1.76801 0)
(2.97744 -1.76784 0)
(2.97743 -1.76773 0)
(2.97737 -1.7676 0)
(2.97728 -1.76755 0)
(2.97713 -1.76745 0)
(2.97775 -1.76692 0)
(2.97783 -1.76647 0)
(2.97776 -1.76643 0)
(2.97753 -1.76663 0)
(2.97731 -1.7667 0)
(2.97702 -1.76646 0)
(2.9759 -1.76697 0)
(2.97491 -1.76768 0)
(2.9747 -1.76827 0)
(2.97481 -1.76873 0)
(2.97489 -1.7692 0)
(2.97484 -1.76942 0)
(2.97475 -1.76948 0)
(2.97493 -1.76887 0)
(2.97557 -1.76689 0)
(2.97542 -1.76615 0)
(2.97511 -1.76652 0)
(2.97589 -1.76649 0)
(2.97729 -1.76539 0)
(2.97736 -1.76514 0)
(2.97715 -1.76485 0)
(2.97523 -1.76518 0)
(2.97063 -1.76733 0)
(2.96656 -1.76723 0)
(2.96639 -1.76652 0)
(2.96652 -1.76511 0)
(2.96827 -1.76274 0)
(2.96853 -1.75924 0)
(2.96977 -1.75633 0)
(2.9703 -1.75598 0)
(2.97119 -1.7558 0)
(2.97402 -1.75149 0)
(2.97255 -1.75816 0)
(2.8801 -1.43011 0)
(2.74348 -0.779347 0)
(2.59905 -0.214145 0)
(2.54062 0.0263206 0)
(2.5141 0.0707402 0)
(2.50839 0.0474996 0)
(2.53538 0.0614523 0)
(2.55713 0.134212 0)