/*--------------------------------*- C++ -*----------------------------------*\
  =========                 |
  \\      /  F ield         | OpenFOAM: The Open Source CFD Toolbox
   \\    /   O peration     | Website:  https://openfoam.org
    \\  /    A nd           | Version:  7
     \\/     M anipulation  |
\*---------------------------------------------------------------------------*/
FoamFile
{
    version     2.0;
    format      ascii;
    class       volVectorField;
    location    "5";
    object      U;
}
// * * * * * * * * * * * * * * * * * * * * * * * * * * * * * * * * * * * * * //

dimensions      [0 1 -1 0 0 0 0];

internalField   nonuniform List<vector> 
90000
(
(4.84507 -1.65274 0)
(4.79506 -1.51378 0)
(4.74564 -1.17457 0)
(4.72412 -1.03192 0)
(4.73504 -1.05614 0)
(4.70811 -0.874486 0)
(4.70271 -0.696049 0)
(4.71348 -0.645455 0)
(4.72759 -0.608995 0)
(4.72175 -0.483621 0)
(4.7331 -0.421848 0)
(4.73987 -0.340267 0)
(4.75348 -0.313631 0)
(4.75106 -0.212551 0)
(4.76185 -0.178412 0)
(4.76444 -0.110654 0)
(4.77154 -0.0685678 0)
(4.77244 -0.00524645 0)
(4.77742 0.0372249 0)
(4.77521 0.111616 0)
(4.78703 0.129048 0)
(4.77845 0.221835 0)
(4.78829 0.23393 0)
(4.7851 0.297227 0)
(4.78871 0.32945 0)
(4.79413 0.359535 0)
(4.79849 0.385228 0)
(4.80427 0.411773 0)
(4.81229 0.418134 0)
(4.82107 0.418437 0)
(4.83189 0.420692 0)
(4.84151 0.400128 0)
(4.84701 0.373977 0)
(4.84632 0.34857 0)
(4.86273 0.318955 0)
(4.86276 0.292532 0)
(4.85271 0.266295 0)
(4.86092 0.235636 0)
(4.86836 0.199952 0)
(4.85843 0.184701 0)
(4.85021 0.161807 0)
(4.85334 0.153076 0)
(4.85115 0.15945 0)
(4.85332 0.168441 0)
(4.84762 0.194346 0)
(4.85065 0.211528 0)
(4.86191 0.22033 0)
(4.86365 0.248386 0)
(4.86865 0.260249 0)
(4.87162 0.261167 0)
(4.87507 0.26868 0)
(4.87956 0.277429 0)
(4.88295 0.280619 0)
(4.88456 0.273909 0)
(4.88556 0.27772 0)
(4.8881 0.278357 0)
(4.89135 0.278579 0)
(4.89511 0.279793 0)
(4.89751 0.284898 0)
(4.90005 0.287401 0)
(4.90185 0.288939 0)
(4.90243 0.289551 0)
(4.9024 0.285233 0)
(4.90103 0.278746 0)
(4.9018 0.267976 0)
(4.90291 0.255368 0)
(4.90256 0.248086 0)
(4.90182 0.240343 0)
(4.90223 0.241435 0)
(4.90267 0.243648 0)
(4.90277 0.248877 0)
(4.9035 0.259307 0)
(4.90268 0.266957 0)
(4.90434 0.278473 0)
(4.90481 0.280842 0)
(4.90475 0.28057 0)
(4.90398 0.279517 0)
(4.90454 0.274409 0)
(4.90414 0.270483 0)
(4.90339 0.26867 0)
(4.90526 0.269224 0)
(4.90563 0.271045 0)
(4.90581 0.271621 0)
(4.90444 0.268274 0)
(4.90261 0.260446 0)
(4.90091 0.251568 0)
(4.89928 0.241647 0)
(4.89819 0.232242 0)
(4.8961 0.224775 0)
(4.89601 0.215638 0)
(4.89388 0.206749 0)
(4.89459 0.207784 0)
(4.89243 0.19699 0)
(4.89077 0.191963 0)
(4.88844 0.181523 0)
(4.88746 0.169532 0)
(4.8867 0.165182 0)
(4.88617 0.16462 0)
(4.8855 0.162104 0)
(4.88336 0.153442 0)
(4.92517 -1.85942 0)
(4.92616 -1.85911 0)
(4.92666 -1.86017 0)
(4.92751 -1.86068 0)
(4.92868 -1.86056 0)
(4.9299 -1.86066 0)
(4.93086 -1.86175 0)
(4.93235 -1.86183 0)
(4.93359 -1.8629 0)
(4.93529 -1.86305 0)
(4.9366 -1.86444 0)
(4.93866 -1.86407 0)
(4.93989 -1.86626 0)
(4.94112 -1.86415 0)
(4.94068 -1.85734 0)
(4.93915 -1.82996 0)
(4.9344 -1.79803 0)
(4.92627 -1.7382 0)
(4.91461 -1.67994 0)
(4.90024 -1.57329 0)
(4.88467 -1.49862 0)
(4.86274 -1.33501 0)
(4.84711 -1.24681 0)
(4.82037 -1.04427 0)
(4.80626 -0.949421 0)
(4.7765 -0.723876 0)
(4.76835 -0.642097 0)
(4.73504 -0.417498 0)
(4.73326 -0.346718 0)
(4.70553 -0.167899 0)
(4.70117 -0.0749091 0)
(4.68363 0.0687203 0)
(4.70003 0.117665 0)
(4.68642 0.258878 0)
(4.7144 0.254415 0)
(4.70576 0.338422 0)
(4.71557 0.363268 0)
(4.73205 0.376714 0)
(4.73795 0.416459 0)
(4.74315 0.427705 0)
(4.75438 0.428551 0)
(4.76986 0.425468 0)
(4.77785 0.419128 0)
(4.78567 0.398698 0)
(4.7979 0.395138 0)
(4.80166 0.372302 0)
(4.80307 0.328566 0)
(4.81055 0.323282 0)
(4.81982 0.309537 0)
(4.815 0.260175 0)
(4.82109 0.246738 0)
(4.82772 0.241225 0)
(4.83385 0.236795 0)
(4.8388 0.235678 0)
(4.84759 0.246051 0)
(4.85463 0.265085 0)
(4.86144 0.283942 0)
(4.86686 0.298888 0)
(4.86886 0.298274 0)
(4.86946 0.301075 0)
(4.86921 0.284749 0)
(4.87071 0.266368 0)
(4.8722 0.253636 0)
(4.87492 0.236614 0)
(4.87883 0.235733 0)
(4.88216 0.244863 0)
(4.89058 0.259579 0)
(4.89147 0.273379 0)
(4.89568 0.286182 0)
(4.89925 0.295189 0)
(4.90015 0.299506 0)
(4.89901 0.301215 0)
(4.89688 0.2976 0)
(4.89552 0.292235 0)
(4.89514 0.279355 0)
(4.89758 0.268976 0)
(4.89998 0.259907 0)
(4.90203 0.263773 0)
(4.90307 0.266243 0)
(4.90385 0.272323 0)
(4.90406 0.274656 0)
(4.90437 0.277457 0)
(4.90244 0.269988 0)
(4.90173 0.25992 0)
(4.90093 0.250289 0)
(4.9001 0.241801 0)
(4.89899 0.232971 0)
(4.89792 0.227017 0)
(4.89609 0.217254 0)
(4.89584 0.213384 0)
(4.89401 0.20274 0)
(4.89307 0.202848 0)
(4.89148 0.196531 0)
(4.88982 0.186118 0)
(4.88735 0.174846 0)
(4.88695 0.167366 0)
(4.88666 0.165032 0)
(4.88617 0.164339 0)
(4.88452 0.159634 0)
(4.88182 0.148433 0)
(4.94582 -1.86953 0)
(4.94751 -1.86942 0)
(4.94918 -1.86972 0)
(4.9502 -1.87204 0)
(4.95225 -1.87156 0)
(4.95381 -1.87247 0)
(4.95565 -1.87282 0)
(4.95692 -1.8746 0)
(4.95896 -1.87454 0)
(4.96016 -1.87648 0)
(4.96222 -1.87605 0)
(4.96335 -1.87784 0)
(4.96535 -1.87746 0)
(4.9665 -1.87922 0)
(4.96844 -1.87935 0)
(4.96961 -1.8815 0)
(4.97073 -1.88157 0)
(4.9716 -1.88207 0)
(4.97255 -1.8824 0)
(4.97367 -1.88199 0)
(4.97448 -1.88229 0)
(4.97533 -1.88221 0)
(4.9761 -1.88235 0)
(4.97711 -1.88194 0)
(4.97777 -1.8828 0)
(4.97894 -1.88217 0)
(4.97942 -1.88305 0)
(4.97591 -1.86675 0)
(4.96436 -1.82862 0)
(4.93701 -1.72492 0)
(4.89986 -1.61023 0)
(4.84846 -1.37942 0)
(4.8085 -1.22809 0)
(4.75141 -0.912351 0)
(4.7381 -0.8033 0)
(4.68809 -0.485455 0)
(4.70149 -0.434925 0)
(4.66384 -0.17475 0)
(4.68194 -0.147642 0)
(4.65644 0.0285591 0)
(4.66533 0.0739161 0)
(4.66413 0.165579 0)
(4.67808 0.172109 0)
(4.67487 0.255842 0)
(4.68784 0.224374 0)
(4.68905 0.258367 0)
(4.69509 0.282151 0)
(4.70069 0.269139 0)
(4.71381 0.272807 0)
(4.71794 0.274802 0)
(4.72948 0.262682 0)
(4.73944 0.242792 0)
(4.74341 0.226331 0)
(4.74503 0.210782 0)
(4.75766 0.205366 0)
(4.76226 0.203478 0)
(4.76693 0.205164 0)
(4.7688 0.210802 0)
(4.76889 0.240361 0)
(4.77372 0.234842 0)
(4.77857 0.245577 0)
(4.78733 0.261355 0)
(4.79356 0.253246 0)
(4.81435 0.254553 0)
(4.82343 0.262317 0)
(4.83107 0.264967 0)
(4.84192 0.271719 0)
(4.85068 0.280223 0)
(4.85696 0.279252 0)
(4.86144 0.270285 0)
(4.86622 0.259276 0)
(4.872 0.240982 0)
(4.87803 0.235592 0)
(4.88383 0.231592 0)
(4.88482 0.242279 0)
(4.88978 0.251341 0)
(4.89003 0.266943 0)
(4.89302 0.275333 0)
(4.89491 0.281345 0)
(4.89591 0.281327 0)
(4.89602 0.27704 0)
(4.89689 0.263703 0)
(4.8981 0.246595 0)
(4.89744 0.235234 0)
(4.89718 0.228503 0)
(4.89702 0.222036 0)
(4.89662 0.215964 0)
(4.89542 0.212933 0)
(4.89423 0.202834 0)
(4.89276 0.202902 0)
(4.89244 0.195905 0)
(4.89228 0.194141 0)
(4.89114 0.189893 0)
(4.88926 0.179589 0)
(4.88751 0.168067 0)
(4.88696 0.164149 0)
(4.88711 0.16354 0)
(4.88656 0.162063 0)
(4.88371 0.156383 0)
(4.88135 0.146155 0)
(4.96517 -1.88246 0)
(4.96625 -1.88236 0)
(4.96735 -1.88235 0)
(4.96844 -1.88242 0)
(4.96936 -1.88302 0)
(4.9705 -1.88272 0)
(4.97147 -1.88289 0)
(4.97257 -1.88261 0)
(4.97331 -1.88321 0)
(4.97423 -1.88314 0)
(4.97505 -1.88328 0)
(4.97603 -1.88284 0)
(4.97688 -1.88288 0)
(4.97776 -1.88278 0)
(4.97853 -1.88296 0)
(4.97925 -1.88321 0)
(4.97999 -1.88319 0)
(4.98063 -1.88336 0)
(4.98123 -1.88335 0)
(4.98178 -1.8831 0)
(4.98219 -1.88283 0)
(4.98242 -1.88292 0)
(4.98262 -1.8826 0)
(4.98272 -1.88232 0)
(4.98287 -1.88219 0)
(4.98301 -1.88227 0)
(4.98323 -1.88216 0)
(4.98295 -1.88168 0)
(4.98266 -1.88154 0)
(4.98245 -1.88142 0)
(4.98228 -1.88127 0)
(4.98221 -1.88096 0)
(4.98185 -1.88063 0)
(4.98105 -1.8804 0)
(4.97955 -1.88037 0)
(4.97735 -1.87601 0)
(4.96712 -1.8474 0)
(4.93395 -1.72855 0)
(4.89626 -1.61081 0)
(4.83498 -1.32941 0)
(4.79617 -1.16752 0)
(4.73525 -0.803699 0)
(4.7259 -0.705131 0)
(4.65749 -0.356089 0)
(4.67527 -0.298424 0)
(4.60919 0.000707862 0)
(4.63687 0.0205352 0)
(4.58567 0.231367 0)
(4.5971 0.239522 0)
(4.57924 0.346265 0)
(4.58476 0.357126 0)
(4.59211 0.400069 0)
(4.60771 0.426318 0)
(4.61259 0.421435 0)
(4.61987 0.371895 0)
(4.6338 0.324199 0)
(4.6406 0.268157 0)
(4.63453 0.225462 0)
(4.65022 0.178813 0)
(4.67401 0.156632 0)
(4.69455 0.172612 0)
(4.69779 0.220042 0)
(4.69966 0.268508 0)
(4.71261 0.305925 0)
(4.72447 0.322946 0)
(4.73554 0.327816 0)
(4.74389 0.30154 0)
(4.75594 0.275111 0)
(4.76784 0.257582 0)
(4.77863 0.246357 0)
(4.79392 0.25162 0)
(4.80806 0.272373 0)
(4.82339 0.295075 0)
(4.83819 0.315425 0)
(4.84901 0.324401 0)
(4.8563 0.322355 0)
(4.85931 0.311428 0)
(4.8613 0.293504 0)
(4.86526 0.273267 0)
(4.87095 0.255223 0)
(4.87675 0.244588 0)
(4.88065 0.232684 0)
(4.88387 0.235546 0)
(4.88663 0.233951 0)
(4.88759 0.231088 0)
(4.88759 0.222885 0)
(4.88804 0.216028 0)
(4.88827 0.207713 0)
(4.88873 0.197811 0)
(4.88922 0.197464 0)
(4.88975 0.196891 0)
(4.88874 0.193121 0)
(4.88818 0.177592 0)
(4.88509 0.162697 0)
(4.88605 0.157705 0)
(4.88686 0.164305 0)
(4.88659 0.16477 0)
(4.88514 0.157706 0)
(4.88364 0.147929 0)
(4.88093 0.139826 0)
(4.97952 -1.88112 0)
(4.97987 -1.88117 0)
(4.98022 -1.88114 0)
(4.98058 -1.881 0)
(4.98082 -1.88111 0)
(4.98102 -1.88132 0)
(4.98126 -1.88117 0)
(4.98151 -1.88103 0)
(4.98169 -1.88112 0)
(4.98186 -1.88135 0)
(4.98204 -1.88117 0)
(4.98233 -1.88094 0)
(4.98273 -1.88092 0)
(4.98281 -1.88096 0)
(4.98296 -1.88109 0)
(4.98309 -1.88119 0)
(4.98324 -1.88142 0)
(4.98325 -1.88166 0)
(4.98324 -1.88175 0)
(4.98322 -1.88156 0)
(4.98336 -1.88144 0)
(4.98364 -1.88151 0)
(4.98352 -1.88154 0)
(4.98296 -1.88134 0)
(4.98249 -1.8812 0)
(4.98186 -1.88098 0)
(4.9819 -1.88099 0)
(4.98229 -1.88111 0)
(4.98147 -1.88077 0)
(4.98083 -1.88054 0)
(4.97993 -1.88017 0)
(4.97898 -1.87979 0)
(4.97903 -1.87926 0)
(4.97813 -1.87866 0)
(4.97644 -1.87751 0)
(4.97397 -1.87705 0)
(4.97279 -1.87707 0)
(4.97059 -1.877 0)
(4.96889 -1.87698 0)
(4.96733 -1.87802 0)
(4.96597 -1.87758 0)
(4.96484 -1.87749 0)
(4.96355 -1.87685 0)
(4.95038 -1.83149 0)
(4.92516 -1.75231 0)
(4.86412 -1.50121 0)
(4.82168 -1.32063 0)
(4.74349 -0.894962 0)
(4.73376 -0.776571 0)
(4.64979 -0.360551 0)
(4.6676 -0.299404 0)
(4.59386 0.031211 0)
(4.61002 0.0318885 0)
(4.592 0.193296 0)
(4.60357 0.166444 0)
(4.59216 0.228545 0)
(4.60626 0.232527 0)
(4.6087 0.231428 0)
(4.61603 0.23571 0)
(4.6252 0.237653 0)
(4.62829 0.233895 0)
(4.62849 0.228416 0)
(4.63 0.231641 0)
(4.63103 0.228848 0)
(4.62827 0.244346 0)
(4.63205 0.248211 0)
(4.6353 0.256629 0)
(4.65264 0.259643 0)
(4.66916 0.238009 0)
(4.68156 0.233666 0)
(4.70702 0.23449 0)
(4.71739 0.232515 0)
(4.73305 0.240793 0)
(4.74846 0.250148 0)
(4.76209 0.255017 0)
(4.77488 0.246648 0)
(4.7877 0.238571 0)
(4.7998 0.226944 0)
(4.81138 0.227568 0)
(4.82231 0.232138 0)
(4.83218 0.240772 0)
(4.84013 0.242853 0)
(4.84662 0.240482 0)
(4.8521 0.231877 0)
(4.85646 0.219034 0)
(4.86077 0.204471 0)
(4.86618 0.196937 0)
(4.87071 0.190305 0)
(4.87435 0.195653 0)
(4.8766 0.19695 0)
(4.878 0.188747 0)
(4.8787 0.171461 0)
(4.87782 0.147698 0)
(4.87912 0.153729 0)
(4.88137 0.168863 0)
(4.88194 0.172577 0)
(4.88022 0.168177 0)
(4.87925 0.143181 0)
(4.8806 0.130691 0)
(4.87934 0.135742 0)
(4.9835 -1.88106 0)
(4.98356 -1.88099 0)
(4.9836 -1.88089 0)
(4.98361 -1.88091 0)
(4.98371 -1.88099 0)
(4.98373 -1.881 0)
(4.98353 -1.88114 0)
(4.98337 -1.88134 0)
(4.98327 -1.88141 0)
(4.98325 -1.88139 0)
(4.98325 -1.88134 0)
(4.98323 -1.88139 0)
(4.98325 -1.88145 0)
(4.98316 -1.88145 0)
(4.98295 -1.8816 0)
(4.98294 -1.88182 0)
(4.98297 -1.88186 0)
(4.98279 -1.88191 0)
(4.98254 -1.88185 0)
(4.98222 -1.88191 0)
(4.98194 -1.882 0)
(4.98159 -1.88188 0)
(4.98103 -1.8816 0)
(4.9805 -1.88146 0)
(4.97982 -1.88146 0)
(4.97885 -1.88122 0)
(4.97786 -1.88092 0)
(4.97635 -1.88016 0)
(4.97488 -1.87949 0)
(4.97405 -1.87945 0)
(4.97307 -1.8792 0)
(4.97229 -1.87882 0)
(4.97095 -1.87769 0)
(4.9702 -1.8764 0)
(4.96912 -1.87591 0)
(4.96833 -1.87577 0)
(4.96746 -1.87542 0)
(4.96591 -1.8747 0)
(4.9651 -1.87438 0)
(4.96414 -1.87428 0)
(4.9633 -1.87404 0)
(4.9626 -1.87361 0)
(4.96213 -1.87339 0)
(4.9616 -1.87346 0)
(4.96136 -1.87396 0)
(4.96114 -1.87539 0)
(4.96093 -1.8759 0)
(4.96037 -1.87638 0)
(4.9599 -1.87449 0)
(4.94268 -1.81299 0)
(4.9112 -1.68998 0)
(4.82532 -1.31587 0)
(4.77474 -1.05298 0)
(4.66676 -0.523657 0)
(4.68324 -0.382299 0)
(4.58374 0.0452067 0)
(4.60806 0.124566 0)
(4.56174 0.30567 0)
(4.54588 0.338655 0)
(4.5448 0.384465 0)
(4.5435 0.376506 0)
(4.55499 0.332271 0)
(4.5728 0.269316 0)
(4.58169 0.230241 0)
(4.58321 0.200668 0)
(4.58388 0.198746 0)
(4.58808 0.200322 0)
(4.59431 0.25535 0)
(4.59119 0.294404 0)
(4.60323 0.330862 0)
(4.61019 0.328797 0)
(4.62307 0.324204 0)
(4.62635 0.28767 0)
(4.637 0.259142 0)
(4.64909 0.24711 0)
(4.66264 0.248977 0)
(4.67902 0.265041 0)
(4.69878 0.277408 0)
(4.71799 0.27381 0)
(4.73408 0.262796 0)
(4.74819 0.248981 0)
(4.75927 0.236735 0)
(4.77077 0.227544 0)
(4.78176 0.208816 0)
(4.79235 0.194507 0)
(4.80477 0.185676 0)
(4.81645 0.198897 0)
(4.82711 0.206677 0)
(4.83537 0.207083 0)
(4.84041 0.186441 0)
(4.84421 0.180547 0)
(4.8513 0.150278 0)
(4.85311 0.171545 0)
(4.85836 0.181361 0)
(4.86201 0.175322 0)
(4.86453 0.165037 0)
(4.86718 0.13371 0)
(4.86796 0.135114 0)
(4.8707 0.149889 0)
(4.8713 0.145213 0)
(4.98375 -1.88037 0)
(4.98353 -1.8804 0)
(4.98336 -1.87999 0)
(4.98331 -1.87946 0)
(4.98335 -1.87935 0)
(4.98291 -1.87957 0)
(4.9816 -1.87977 0)
(4.9812 -1.88021 0)
(4.98075 -1.88045 0)
(4.98045 -1.88044 0)
(4.98018 -1.88028 0)
(4.97979 -1.88018 0)
(4.97934 -1.88044 0)
(4.97888 -1.88069 0)
(4.97832 -1.88067 0)
(4.97751 -1.8807 0)
(4.97712 -1.88087 0)
(4.97679 -1.88088 0)
(4.97615 -1.88074 0)
(4.97564 -1.88063 0)
(4.97489 -1.88036 0)
(4.97461 -1.88023 0)
(4.97377 -1.87983 0)
(4.97296 -1.87942 0)
(4.97197 -1.87908 0)
(4.97101 -1.87875 0)
(4.96977 -1.8781 0)
(4.96903 -1.87763 0)
(4.96858 -1.87754 0)
(4.96764 -1.87744 0)
(4.96717 -1.87759 0)
(4.96654 -1.87751 0)
(4.96637 -1.87705 0)
(4.96642 -1.8761 0)
(4.9657 -1.87526 0)
(4.96549 -1.87513 0)
(4.96423 -1.87441 0)
(4.96267 -1.87369 0)
(4.96198 -1.87339 0)
(4.96135 -1.87342 0)
(4.96114 -1.87358 0)
(4.9605 -1.87369 0)
(4.9603 -1.87364 0)
(4.95998 -1.87348 0)
(4.95951 -1.87385 0)
(4.95885 -1.87494 0)
(4.9585 -1.87549 0)
(4.95853 -1.87601 0)
(4.95843 -1.87539 0)
(4.95738 -1.87273 0)
(4.95707 -1.87189 0)
(4.95707 -1.87193 0)
(4.95702 -1.87218 0)
(4.95614 -1.87287 0)
(4.93611 -1.80335 0)
(4.854 -1.47374 0)
(4.79787 -1.15351 0)
(4.70988 -0.648345 0)
(4.69041 -0.434763 0)
(4.62272 -0.0928663 0)
(4.60827 0.0284647 0)
(4.58603 0.119263 0)
(4.57351 0.169262 0)
(4.57311 0.186623 0)
(4.57636 0.184656 0)
(4.57661 0.196139 0)
(4.5623 0.206108 0)
(4.55013 0.247054 0)
(4.54963 0.26091 0)
(4.54813 0.269622 0)
(4.54622 0.274713 0)
(4.55293 0.25154 0)
(4.55813 0.259649 0)
(4.57032 0.226802 0)
(4.57882 0.214397 0)
(4.58687 0.214099 0)
(4.59809 0.220439 0)
(4.60967 0.229067 0)
(4.61967 0.235833 0)
(4.63077 0.226939 0)
(4.64382 0.21299 0)
(4.6578 0.183997 0)
(4.67038 0.188238 0)
(4.68268 0.204993 0)
(4.69681 0.217511 0)
(4.71449 0.217354 0)
(4.73215 0.202827 0)
(4.74711 0.1906 0)
(4.75916 0.186145 0)
(4.76897 0.175981 0)
(4.77775 0.152795 0)
(4.79112 0.157632 0)
(4.8013 0.164514 0)
(4.81102 0.156965 0)
(4.81961 0.149306 0)
(4.8279 0.132567 0)
(4.83383 0.145475 0)
(4.83954 0.162556 0)
(4.84277 0.147481 0)
(4.84895 0.12304 0)
(4.9799 -1.87937 0)
(4.97942 -1.8793 0)
(4.97885 -1.87872 0)
(4.9787 -1.8781 0)
(4.97891 -1.87789 0)
(4.97736 -1.87906 0)
(4.97605 -1.87938 0)
(4.97578 -1.87951 0)
(4.97542 -1.87979 0)
(4.97501 -1.87981 0)
(4.97455 -1.87956 0)
(4.97402 -1.87944 0)
(4.97373 -1.87968 0)
(4.97313 -1.88021 0)
(4.97236 -1.88042 0)
(4.97117 -1.88027 0)
(4.97008 -1.88016 0)
(4.96977 -1.88016 0)
(4.96919 -1.88005 0)
(4.9686 -1.88001 0)
(4.96814 -1.88005 0)
(4.96773 -1.87971 0)
(4.9675 -1.87865 0)
(4.96688 -1.87785 0)
(4.96612 -1.8777 0)
(4.96552 -1.87756 0)
(4.96494 -1.87703 0)
(4.96478 -1.87639 0)
(4.96453 -1.87631 0)
(4.96349 -1.87691 0)
(4.96322 -1.87727 0)
(4.96305 -1.87753 0)
(4.96333 -1.87681 0)
(4.96379 -1.87522 0)
(4.96389 -1.87496 0)
(4.96388 -1.87482 0)
(4.96232 -1.8736 0)
(4.96096 -1.87293 0)
(4.96024 -1.87263 0)
(4.95968 -1.87267 0)
(4.95972 -1.87286 0)
(4.95938 -1.87325 0)
(4.95919 -1.87335 0)
(4.95909 -1.87339 0)
(4.95883 -1.87384 0)
(4.95823 -1.87485 0)
(4.95795 -1.8755 0)
(4.95762 -1.87612 0)
(4.95698 -1.87598 0)
(4.9565 -1.87421 0)
(4.9566 -1.87332 0)
(4.95636 -1.87281 0)
(4.95574 -1.87405 0)
(4.9549 -1.87969 0)
(4.95323 -1.88523 0)
(4.95155 -1.89534 0)
(4.94944 -1.90215 0)
(4.94822 -1.9092 0)
(4.93016 -1.82833 0)
(4.84626 -1.4348 0)
(4.78612 -1.04628 0)
(4.6512 -0.362466 0)
(4.70415 -0.245269 0)
(4.58068 0.158242 0)
(4.59245 0.217288 0)
(4.54225 0.349674 0)
(4.52797 0.361512 0)
(4.51798 0.345186 0)
(4.52555 0.28823 0)
(4.53643 0.245928 0)
(4.53946 0.242868 0)
(4.54328 0.234699 0)
(4.54692 0.231353 0)
(4.54806 0.239015 0)
(4.54616 0.25276 0)
(4.55387 0.240795 0)
(4.55448 0.233634 0)
(4.55518 0.219654 0)
(4.55525 0.217193 0)
(4.55785 0.217734 0)
(4.56041 0.22456 0)
(4.57343 0.213642 0)
(4.58129 0.183018 0)
(4.59588 0.166475 0)
(4.60782 0.176439 0)
(4.62017 0.188678 0)
(4.63492 0.199458 0)
(4.64677 0.173849 0)
(4.65959 0.154997 0)
(4.67004 0.158298 0)
(4.68252 0.1832 0)
(4.69918 0.179817 0)
(4.71592 0.166646 0)
(4.73099 0.159258 0)
(4.7437 0.162845 0)
(4.75731 0.159286 0)
(4.76789 0.136174 0)
(4.78016 0.128482 0)
(4.78914 0.124666 0)
(4.80174 0.125876 0)
(4.97297 -1.87754 0)
(4.97259 -1.87734 0)
(4.97259 -1.87742 0)
(4.97267 -1.87702 0)
(4.97318 -1.87623 0)
(4.97122 -1.87781 0)
(4.96996 -1.87885 0)
(4.9696 -1.87887 0)
(4.96909 -1.87891 0)
(4.96879 -1.87914 0)
(4.96852 -1.87922 0)
(4.96796 -1.87907 0)
(4.96756 -1.87898 0)
(4.96713 -1.87917 0)
(4.96639 -1.87931 0)
(4.96564 -1.87911 0)
(4.96501 -1.87861 0)
(4.96478 -1.87843 0)
(4.96367 -1.87854 0)
(4.96316 -1.87871 0)
(4.96292 -1.8789 0)
(4.9632 -1.87848 0)
(4.96346 -1.87714 0)
(4.96283 -1.87615 0)
(4.96247 -1.87607 0)
(4.96217 -1.87598 0)
(4.96218 -1.87549 0)
(4.96238 -1.87512 0)
(4.96244 -1.87529 0)
(4.96111 -1.87656 0)
(4.96089 -1.87698 0)
(4.96091 -1.87728 0)
(4.96194 -1.87607 0)
(4.96201 -1.87462 0)
(4.96173 -1.87447 0)
(4.96095 -1.87372 0)
(4.95897 -1.8722 0)
(4.95862 -1.87197 0)
(4.95828 -1.87177 0)
(4.95835 -1.87175 0)
(4.95843 -1.87187 0)
(4.95829 -1.87235 0)
(4.95808 -1.87276 0)
(4.95794 -1.87279 0)
(4.95782 -1.87382 0)
(4.95773 -1.87471 0)
(4.95748 -1.87587 0)
(4.95706 -1.87656 0)
(4.95647 -1.87611 0)
(4.9549 -1.87805 0)
(4.95358 -1.88105 0)
(4.95217 -1.88236 0)
(4.95084 -1.88508 0)
(4.95036 -1.88989 0)
(4.94954 -1.89696 0)
(4.94942 -1.89753 0)
(4.9483 -1.89759 0)
(4.94789 -1.89633 0)
(4.94712 -1.89799 0)
(4.94532 -1.90415 0)
(4.94395 -1.90756 0)
(4.93638 -1.87136 0)
(4.90861 -1.69499 0)
(4.80629 -1.15942 0)
(4.7859 -0.856093 0)
(4.67322 -0.28824 0)
(4.71049 -0.196678 0)
(4.63274 0.0761176 0)
(4.61666 0.104526 0)
(4.5906 0.174354 0)
(4.58317 0.174697 0)
(4.55622 0.208525 0)
(4.54258 0.224108 0)
(4.53116 0.244068 0)
(4.52895 0.245553 0)
(4.52813 0.239388 0)
(4.52992 0.224781 0)
(4.53164 0.207003 0)
(4.53527 0.193153 0)
(4.5373 0.190444 0)
(4.53857 0.184839 0)
(4.53903 0.189213 0)
(4.54346 0.205109 0)
(4.54996 0.203408 0)
(4.55695 0.185858 0)
(4.56161 0.175341 0)
(4.56432 0.176228 0)
(4.56881 0.180537 0)
(4.57532 0.169596 0)
(4.58727 0.135488 0)
(4.60042 0.137467 0)
(4.61237 0.149825 0)
(4.62592 0.160942 0)
(4.63879 0.151072 0)
(4.65297 0.131029 0)
(4.66295 0.141668 0)
(4.67819 0.150147 0)
(4.69421 0.142147 0)
(4.7065 0.136257 0)
(4.72501 0.125092 0)
(4.96779 -1.87609 0)
(4.96816 -1.87549 0)
(4.96937 -1.87502 0)
(4.968 -1.87694 0)
(4.96641 -1.87806 0)
(4.9662 -1.87813 0)
(4.96607 -1.87771 0)
(4.96615 -1.87642 0)
(4.9661 -1.87621 0)
(4.96497 -1.87658 0)
(4.96388 -1.87649 0)
(4.96347 -1.87653 0)
(4.96284 -1.87644 0)
(4.96235 -1.87654 0)
(4.96192 -1.87658 0)
(4.96153 -1.87601 0)
(4.9618 -1.87525 0)
(4.96214 -1.87507 0)
(4.96101 -1.87634 0)
(4.95997 -1.87744 0)
(4.95941 -1.87767 0)
(4.95993 -1.87672 0)
(4.96087 -1.87576 0)
(4.96092 -1.87567 0)
(4.96067 -1.87572 0)
(4.96051 -1.87565 0)
(4.96058 -1.8753 0)
(4.96087 -1.8748 0)
(4.96042 -1.87506 0)
(4.95883 -1.87641 0)
(4.95862 -1.87684 0)
(4.95855 -1.8771 0)
(4.95944 -1.87566 0)
(4.95959 -1.87404 0)
(4.95941 -1.87392 0)
(4.95881 -1.87328 0)
(4.95787 -1.87177 0)
(4.95767 -1.87154 0)
(4.95745 -1.87139 0)
(4.95712 -1.87089 0)
(4.9562 -1.87048 0)
(4.95574 -1.8722 0)
(4.95582 -1.87337 0)
(4.95563 -1.875 0)
(4.95441 -1.87649 0)
(4.95474 -1.88054 0)
(4.95449 -1.88641 0)
(4.95246 -1.89028 0)
(4.95101 -1.89238 0)
(4.95053 -1.89256 0)
(4.94989 -1.89366 0)
(4.94877 -1.8968 0)
(4.94855 -1.89701 0)
(4.94839 -1.89704 0)
(4.94814 -1.89814 0)
(4.948 -1.89932 0)
(4.94787 -1.89914 0)
(4.94681 -1.89948 0)
(4.94629 -1.90197 0)
(4.94481 -1.90347 0)
(4.94303 -1.90451 0)
(4.94558 -1.90116 0)
(4.94708 -1.89967 0)
(4.94753 -1.89655 0)
(4.94735 -1.89652 0)
(4.91623 -1.72947 0)
(4.8878 -1.43238 0)
(4.76149 -0.642059 0)
(4.80891 -0.508474 0)
(4.64555 0.0456522 0)
(4.67694 0.0790293 0)
(4.58774 0.280141 0)
(4.54275 0.30034 0)
(4.53473 0.287897 0)
(4.5454 0.245205 0)
(4.5542 0.228135 0)
(4.55144 0.207583 0)
(4.54731 0.172123 0)
(4.54928 0.163934 0)
(4.54739 0.164034 0)
(4.5455 0.161847 0)
(4.54116 0.171842 0)
(4.53949 0.183008 0)
(4.54189 0.192539 0)
(4.54323 0.189679 0)
(4.54128 0.171946 0)
(4.5403 0.157743 0)
(4.54428 0.148335 0)
(4.54038 0.159289 0)
(4.5542 0.166976 0)
(4.55946 0.160342 0)
(4.56377 0.152739 0)
(4.56884 0.149958 0)
(4.57416 0.149406 0)
(4.58246 0.145945 0)
(4.59265 0.114361 0)
(4.60297 0.119374 0)
(4.6136 0.129872 0)
(4.62295 0.122011 0)
(4.64128 0.11245 0)
(4.96507 -1.87614 0)
(4.965 -1.87597 0)
(4.96488 -1.87563 0)
(4.96476 -1.87533 0)
(4.96415 -1.87589 0)
(4.96463 -1.87407 0)
(4.96557 -1.87077 0)
(4.96571 -1.87033 0)
(4.96599 -1.87096 0)
(4.96296 -1.87297 0)
(4.96117 -1.87305 0)
(4.96086 -1.87307 0)
(4.96036 -1.87337 0)
(4.95988 -1.87423 0)
(4.95957 -1.87446 0)
(4.95969 -1.87392 0)
(4.95984 -1.87344 0)
(4.96014 -1.87304 0)
(4.95836 -1.87486 0)
(4.95731 -1.87648 0)
(4.95672 -1.87689 0)
(4.95802 -1.87577 0)
(4.95851 -1.87515 0)
(4.95852 -1.87511 0)
(4.95802 -1.87536 0)
(4.95788 -1.87535 0)
(4.9581 -1.87498 0)
(4.9586 -1.87446 0)
(4.95873 -1.87477 0)
(4.9573 -1.87622 0)
(4.95703 -1.87669 0)
(4.95658 -1.87722 0)
(4.95801 -1.87555 0)
(4.95887 -1.87384 0)
(4.95872 -1.87375 0)
(4.95783 -1.87391 0)
(4.95619 -1.87394 0)
(4.95587 -1.87353 0)
(4.95502 -1.87415 0)
(4.95435 -1.8754 0)
(4.95438 -1.87268 0)
(4.95353 -1.8763 0)
(4.95269 -1.88333 0)
(4.95232 -1.88602 0)
(4.95206 -1.88791 0)
(4.95157 -1.89155 0)
(4.95099 -1.89606 0)
(4.94957 -1.8976 0)
(4.9487 -1.89765 0)
(4.94763 -1.89708 0)
(4.94735 -1.89679 0)
(4.94696 -1.89873 0)
(4.94632 -1.90257 0)
(4.94586 -1.90378 0)
(4.94555 -1.90467 0)
(4.9458 -1.90492 0)
(4.94692 -1.90302 0)
(4.94699 -1.9001 0)
(4.94668 -1.90176 0)
(4.94501 -1.90363 0)
(4.94348 -1.90354 0)
(4.94602 -1.89993 0)
(4.947 -1.89882 0)
(4.94726 -1.89369 0)
(4.94987 -1.88015 0)
(4.95249 -1.87074 0)
(4.9521 -1.87168 0)
(4.95655 -1.87535 0)
(4.95459 -1.77408 0)
(4.87339 -1.32339 0)
(4.86 -0.9907 0)
(4.7458 -0.369994 0)
(4.80369 -0.268158 0)
(4.67372 0.0684435 0)
(4.64945 0.110797 0)
(4.61673 0.196537 0)
(4.5987 0.200584 0)
(4.5871 0.209756 0)
(4.58879 0.211872 0)
(4.57574 0.201739 0)
(4.5652 0.188958 0)
(4.56307 0.190199 0)
(4.56033 0.19495 0)
(4.55556 0.192465 0)
(4.55048 0.178189 0)
(4.54887 0.157093 0)
(4.54398 0.134415 0)
(4.55064 0.13062 0)
(4.548 0.139603 0)
(4.54854 0.149446 0)
(4.55086 0.155259 0)
(4.55113 0.150394 0)
(4.55126 0.143785 0)
(4.5552 0.133514 0)
(4.55389 0.138093 0)
(4.56786 0.148039 0)
(4.56767 0.128762 0)
(4.5712 0.118117 0)
(4.57425 0.11856 0)
(4.58513 0.117235 0)
(4.96153 -1.87505 0)
(4.96112 -1.87556 0)
(4.96058 -1.87616 0)
(4.96182 -1.87519 0)
(4.96213 -1.87331 0)
(4.96245 -1.8699 0)
(4.96362 -1.86692 0)
(4.96536 -1.86574 0)
(4.96426 -1.86805 0)
(4.95869 -1.87054 0)
(4.95788 -1.87082 0)
(4.95699 -1.87123 0)
(4.95631 -1.87221 0)
(4.95654 -1.87282 0)
(4.95659 -1.87294 0)
(4.95664 -1.87304 0)
(4.95676 -1.87285 0)
(4.95717 -1.87253 0)
(4.95646 -1.87401 0)
(4.9557 -1.87578 0)
(4.95498 -1.87631 0)
(4.95613 -1.87555 0)
(4.95703 -1.87507 0)
(4.95716 -1.87507 0)
(4.95693 -1.87563 0)
(4.95682 -1.87583 0)
(4.9572 -1.87575 0)
(4.95757 -1.87551 0)
(4.95685 -1.87633 0)
(4.9559 -1.87771 0)
(4.95566 -1.8778 0)
(4.95537 -1.87975 0)
(4.95546 -1.88114 0)
(4.95626 -1.87902 0)
(4.95566 -1.88135 0)
(4.95395 -1.88563 0)
(4.95197 -1.88815 0)
(4.95152 -1.88685 0)
(4.95171 -1.88459 0)
(4.95166 -1.8858 0)
(4.95162 -1.88799 0)
(4.95122 -1.89031 0)
(4.95021 -1.89209 0)
(4.94961 -1.89607 0)
(4.9493 -1.89807 0)
(4.94885 -1.90098 0)
(4.94865 -1.90129 0)
(4.9486 -1.8996 0)
(4.9467 -1.90019 0)
(4.94435 -1.90294 0)
(4.94436 -1.90327 0)
(4.94485 -1.90417 0)
(4.9451 -1.90656 0)
(4.9449 -1.90803 0)
(4.94462 -1.90836 0)
(4.94482 -1.90666 0)
(4.94655 -1.90203 0)
(4.94792 -1.89891 0)
(4.94682 -1.89924 0)
(4.94589 -1.90082 0)
(4.94556 -1.89868 0)
(4.94597 -1.88643 0)
(4.94816 -1.87337 0)
(4.95273 -1.85755 0)
(4.9559 -1.85231 0)
(4.96604 -1.82773 0)
(4.96376 -1.84651 0)
(4.97291 -1.82798 0)
(4.9732 -1.82573 0)
(4.97558 -1.82043 0)
(4.97565 -1.80892 0)
(4.95667 -1.68185 0)
(4.95251 -1.40225 0)
(4.84062 -0.673043 0)
(4.84766 -0.518403 0)
(4.70487 -0.0413151 0)
(4.72029 0.0283952 0)
(4.65048 0.165625 0)
(4.62479 0.208318 0)
(4.61539 0.224793 0)
(4.6117 0.188571 0)
(4.61644 0.169813 0)
(4.60125 0.143999 0)
(4.59598 0.139247 0)
(4.58811 0.139439 0)
(4.57759 0.144994 0)
(4.57453 0.151788 0)
(4.57225 0.166132 0)
(4.56646 0.160723 0)
(4.56192 0.156568 0)
(4.56021 0.150618 0)
(4.55839 0.138019 0)
(4.55521 0.123814 0)
(4.56163 0.11414 0)
(4.55846 0.12501 0)
(4.56076 0.133281 0)
(4.5609 0.127459 0)
(4.56086 0.115716 0)
(4.5629 0.109087 0)
(4.56812 0.109398 0)
(4.95786 -1.8722 0)
(4.95731 -1.87249 0)
(4.95785 -1.872 0)
(4.95881 -1.87066 0)
(4.95907 -1.8695 0)
(4.95917 -1.86834 0)
(4.96 -1.86688 0)
(4.96129 -1.86531 0)
(4.95982 -1.86751 0)
(4.9569 -1.87077 0)
(4.95632 -1.87153 0)
(4.95566 -1.87197 0)
(4.95512 -1.8724 0)
(4.95534 -1.87294 0)
(4.95571 -1.87331 0)
(4.95569 -1.87348 0)
(4.95576 -1.87483 0)
(4.95532 -1.87597 0)
(4.95501 -1.87549 0)
(4.95483 -1.87702 0)
(4.95447 -1.88018 0)
(4.95416 -1.88215 0)
(4.95441 -1.88174 0)
(4.95422 -1.8821 0)
(4.95428 -1.88576 0)
(4.95347 -1.88857 0)
(4.95358 -1.88919 0)
(4.95416 -1.88755 0)
(4.95383 -1.88729 0)
(4.95326 -1.8901 0)
(4.95246 -1.89256 0)
(4.95123 -1.89568 0)
(4.95081 -1.89761 0)
(4.95262 -1.89478 0)
(4.95324 -1.8931 0)
(4.95242 -1.89442 0)
(4.95097 -1.89574 0)
(4.94968 -1.89663 0)
(4.94976 -1.89503 0)
(4.94953 -1.89488 0)
(4.94955 -1.89555 0)
(4.9491 -1.89761 0)
(4.94877 -1.89846 0)
(4.94832 -1.90053 0)
(4.948 -1.90321 0)
(4.94712 -1.90689 0)
(4.94603 -1.90621 0)
(4.94606 -1.90343 0)
(4.94432 -1.90446 0)
(4.9435 -1.90694 0)
(4.94386 -1.90731 0)
(4.94463 -1.90714 0)
(4.94431 -1.90676 0)
(4.94499 -1.90568 0)
(4.94385 -1.90596 0)
(4.94521 -1.90385 0)
(4.9469 -1.89964 0)
(4.94889 -1.89613 0)
(4.95148 -1.88626 0)
(4.95453 -1.87044 0)
(4.95496 -1.85503 0)
(4.95593 -1.839 0)
(4.95775 -1.83358 0)
(4.96095 -1.83733 0)
(4.96939 -1.82334 0)
(4.97255 -1.82109 0)
(4.97516 -1.81441 0)
(4.97525 -1.81411 0)
(4.98479 -1.80719 0)
(4.98785 -1.77163 0)
(4.98107 -1.75509 0)
(4.97274 -1.75562 0)
(4.97965 -1.73565 0)
(4.98024 -1.75748 0)
(4.98177 -1.66976 0)
(4.90296 -1.20876 0)
(4.88919 -0.818074 0)
(4.78281 -0.274344 0)
(4.79205 -0.153338 0)
(4.68077 0.105926 0)
(4.67285 0.150441 0)
(4.66015 0.195791 0)
(4.65688 0.19733 0)
(4.65807 0.209073 0)
(4.64074 0.177524 0)
(4.63065 0.146282 0)
(4.62496 0.148255 0)
(4.62111 0.143398 0)
(4.61012 0.129486 0)
(4.60485 0.126976 0)
(4.59802 0.128615 0)
(4.59141 0.128098 0)
(4.58506 0.130929 0)
(4.57984 0.141168 0)
(4.57711 0.135752 0)
(4.57254 0.127923 0)
(4.57123 0.115473 0)
(4.56833 0.0982347 0)
(4.5698 0.0959417 0)
(4.57133 0.0987818 0)
(4.95323 -1.8894 0)
(4.95305 -1.88947 0)
(4.95188 -1.89098 0)
(4.9509 -1.89069 0)
(4.95266 -1.88806 0)
(4.95322 -1.88732 0)
(4.95086 -1.88796 0)
(4.94956 -1.88849 0)
(4.94863 -1.88824 0)
(4.94828 -1.88595 0)
(4.94824 -1.88755 0)
(4.94839 -1.89122 0)
(4.94976 -1.89184 0)
(4.95104 -1.89158 0)
(4.9519 -1.89089 0)
(4.95215 -1.89122 0)
(4.95146 -1.89386 0)
(4.95124 -1.89476 0)
(4.95213 -1.89256 0)
(4.95233 -1.89336 0)
(4.95153 -1.89772 0)
(4.95093 -1.90029 0)
(4.95192 -1.89732 0)
(4.95162 -1.89642 0)
(4.95128 -1.89896 0)
(4.9499 -1.90109 0)
(4.95062 -1.90047 0)
(4.95106 -1.89816 0)
(4.9506 -1.89756 0)
(4.95055 -1.89813 0)
(4.94954 -1.89978 0)
(4.94816 -1.90124 0)
(4.94837 -1.90166 0)
(4.94963 -1.90037 0)
(4.95055 -1.89937 0)
(4.95106 -1.89945 0)
(4.94929 -1.90045 0)
(4.94863 -1.9004 0)
(4.94833 -1.90026 0)
(4.94765 -1.90124 0)
(4.94741 -1.90184 0)
(4.94665 -1.90366 0)
(4.94573 -1.90573 0)
(4.94366 -1.91029 0)
(4.94315 -1.91215 0)
(4.94203 -1.91132 0)
(4.94176 -1.91027 0)
(4.94349 -1.90634 0)
(4.94471 -1.90422 0)
(4.9451 -1.90392 0)
(4.94396 -1.90385 0)
(4.94443 -1.90279 0)
(4.94394 -1.9027 0)
(4.94672 -1.90098 0)
(4.94641 -1.89079 0)
(4.94791 -1.87827 0)
(4.95138 -1.85633 0)
(4.95795 -1.83451 0)
(4.96243 -1.8283 0)
(4.9663 -1.82655 0)
(4.9657 -1.82885 0)
(4.96831 -1.81799 0)
(4.96765 -1.82338 0)
(4.97398 -1.81354 0)
(4.97862 -1.8088 0)
(4.98148 -1.80006 0)
(4.98008 -1.79687 0)
(4.98012 -1.76888 0)
(4.98297 -1.74183 0)
(4.98246 -1.73298 0)
(4.97288 -1.76319 0)
(4.97788 -1.75184 0)
(4.989 -1.72938 0)
(4.99666 -1.71414 0)
(4.99819 -1.71488 0)
(5.00089 -1.71442 0)
(5.00143 -1.70423 0)
(4.97228 -1.51387 0)
(4.93593 -1.10935 0)
(4.83323 -0.490898 0)
(4.86115 -0.371413 0)
(4.76402 -0.0655563 0)
(4.74679 0.0650585 0)
(4.71428 0.191941 0)
(4.68508 0.181223 0)
(4.68816 0.195392 0)
(4.68469 0.196356 0)
(4.68353 0.15009 0)
(4.67116 0.123936 0)
(4.66353 0.132605 0)
(4.65602 0.148185 0)
(4.6434 0.150164 0)
(4.63426 0.142951 0)
(4.62662 0.123151 0)
(4.6216 0.100993 0)
(4.61157 0.0935218 0)
(4.60566 0.102601 0)
(4.59926 0.117254 0)
(4.593 0.122464 0)
(4.58882 0.118637 0)
(4.95296 -1.89001 0)
(4.95238 -1.89038 0)
(4.95136 -1.89166 0)
(4.95084 -1.89204 0)
(4.95023 -1.89286 0)
(4.94943 -1.89307 0)