/*--------------------------------*- C++ -*----------------------------------*\
  =========                 |
  \\      /  F ield         | OpenFOAM: The Open Source CFD Toolbox
   \\    /   O peration     | Website:  https://openfoam.org
    \\  /    A nd           | Version:  7
     \\/     M anipulation  |
\*---------------------------------------------------------------------------*/
FoamFile
{
    version     2.0;
    format      ascii;
    class       volVectorField;
    location    "5";
    object      U;
}
// * * * * * * * * * * * * * * * * * * * * * * * * * * * * * * * * * * * * * //

dimensions      [0 1 -1 0 0 0 0];

internalField   nonuniform List<vector> 
24000
(
(2.9844 -1.3531 0)
(2.89599 -1.09262 0)
(2.8631 -0.982744 0)
(2.85485 -0.920606 0)
(2.82894 -0.722808 0)
(2.84271 -0.596764 0)
(2.8692 -0.571372 0)
(2.8594 -0.426563 0)
(2.86921 -0.358356 0)
(2.87251 -0.25575 0)
(2.88474 -0.193817 0)
(2.87562 -0.0817308 0)
(2.88723 -0.0389168 0)
(2.87506 0.0683933 0)
(2.88001 0.0847229 0)
(2.87148 0.132889 0)
(2.868 0.135858 0)
(2.86866 0.127718 0)
(2.86809 0.112065 0)
(2.86779 0.108629 0)
(2.87193 0.108818 0)
(2.86908 0.107302 0)
(2.86486 0.103881 0)
(2.85849 0.0921873 0)
(2.85389 0.0842958 0)
(2.85278 0.0848441 0)
(2.85705 0.0836592 0)
(2.85401 0.0799521 0)
(2.85017 0.0807352 0)
(2.84463 0.067402 0)
(2.84921 0.0617517 0)
(2.85648 0.0738806 0)
(2.86173 0.084368 0)
(2.8785 0.0896321 0)
(2.87921 0.0829053 0)
(2.87375 0.0610459 0)
(2.8758 0.0648814 0)
(2.88021 0.0680201 0)
(2.89193 0.0750367 0)
(2.89736 0.0757866 0)
(2.90259 0.0712737 0)
(2.90344 0.0639421 0)
(2.90979 0.0647535 0)
(2.91464 0.0671413 0)
(2.91859 0.0645255 0)
(2.92005 0.0565831 0)
(2.9218 0.0475493 0)
(2.91947 0.0418835 0)
(2.92107 0.0421703 0)
(2.9198 0.0274651 0)
(3.08165 -1.48385 0)
(3.08168 -1.48295 0)
(3.08164 -1.48272 0)
(3.08127 -1.48228 0)
(3.08094 -1.4819 0)
(3.08066 -1.48173 0)
(3.08006 -1.48121 0)
(3.0798 -1.48029 0)
(3.07755 -1.47451 0)
(3.06726 -1.45184 0)
(3.04856 -1.40592 0)
(3.01803 -1.3042 0)
(2.98496 -1.19237 0)
(2.93496 -0.972516 0)
(2.90551 -0.814887 0)
(2.84524 -0.535516 0)
(2.83697 -0.408909 0)
(2.78437 -0.176101 0)
(2.79681 -0.114754 0)
(2.75881 0.0357863 0)
(2.77081 0.0535006 0)
(2.75371 0.125365 0)
(2.75512 0.138246 0)
(2.75136 0.172764 0)
(2.76045 0.193579 0)
(2.77005 0.186893 0)
(2.76752 0.146018 0)
(2.77048 0.103575 0)
(2.77746 0.0517844 0)
(2.78599 0.048895 0)
(2.79603 0.06578 0)
(2.80136 0.0984261 0)
(2.8053 0.118083 0)
(2.80409 0.107161 0)
(2.80033 0.0889665 0)
(2.8021 0.0704341 0)
(2.80826 0.0754449 0)
(2.82315 0.088635 0)
(2.83246 0.0928341 0)
(2.83892 0.0903451 0)
(2.84291 0.0794648 0)
(2.84693 0.074855 0)
(2.85384 0.0720424 0)
(2.8609 0.0710974 0)
(2.86597 0.0620887 0)
(2.86801 0.051528 0)
(2.87043 0.0471117 0)
(2.86913 0.0382667 0)
(2.87018 0.0294383 0)
(2.86884 0.0182207 0)
(3.07518 -1.4783 0)
(3.07446 -1.47781 0)
(3.07363 -1.47742 0)
(3.0727 -1.47696 0)
(3.07139 -1.47619 0)
(3.0709 -1.47572 0)
(3.07017 -1.47563 0)
(3.06944 -1.47516 0)
(3.06811 -1.47478 0)
(3.06764 -1.47428 0)
(3.06728 -1.47385 0)
(3.06669 -1.47395 0)
(3.06637 -1.47346 0)
(3.06567 -1.47364 0)
(3.06531 -1.47328 0)
(3.06462 -1.47404 0)
(3.05251 -1.44629 0)
(3.01125 -1.34131 0)
(2.96105 -1.19225 0)
(2.88933 -0.929924 0)
(2.85111 -0.736044 0)
(2.79205 -0.461246 0)
(2.79233 -0.340125 0)
(2.73861 -0.116911 0)
(2.7376 -0.0622123 0)
(2.72736 0.0364257 0)
(2.7231 0.0282965 0)
(2.74039 0.0577912 0)
(2.74339 0.0614818 0)
(2.74581 0.0685589 0)
(2.74069 0.0972462 0)
(2.73781 0.0871781 0)
(2.73404 0.0843282 0)
(2.72388 0.0752191 0)
(2.72545 0.058463 0)
(2.73727 0.0603254 0)
(2.74712 0.0666018 0)
(2.7656 0.0756809 0)
(2.76719 0.0731521 0)
(2.76912 0.065158 0)
(2.77309 0.0619217 0)
(2.78202 0.063977 0)
(2.78905 0.0659873 0)
(2.7966 0.0647214 0)
(2.80192 0.0617781 0)
(2.80441 0.0538747 0)
(2.80787 0.0475101 0)
(2.80927 0.0420977 0)
(2.81084 0.0386395 0)
(2.81136 0.0254507 0)
(3.06793 -1.47427 0)
(3.06763 -1.47396 0)
(3.06721 -1.47385 0)
(3.0668 -1.47375 0)
(3.06657 -1.47339 0)
(3.06605 -1.47349 0)
(3.06558 -1.47341 0)
(3.06513 -1.47311 0)
(3.06456 -1.47296 0)
(3.06426 -1.47229 0)
(3.06375 -1.47213 0)
(3.06275 -1.47264 0)
(3.06218 -1.4729 0)
(3.06213 -1.47253 0)
(3.06156 -1.4731 0)
(3.06142 -1.47305 0)
(3.06121 -1.47307 0)
(3.06096 -1.47323 0)
(3.06058 -1.47388 0)
(3.06066 -1.47404 0)
(3.06101 -1.47405 0)
(3.05343 -1.45341 0)
(3.02482 -1.37044 0)
(2.95564 -1.15593 0)
(2.88413 -0.882648 0)
(2.79362 -0.535095 0)
(2.75706 -0.27887 0)
(2.72067 -0.033916 0)
(2.69189 0.0919393 0)
(2.69191 0.186437 0)
(2.67708 0.172329 0)
(2.68294 0.128832 0)
(2.68806 0.0705746 0)
(2.6867 0.0528711 0)
(2.69442 0.0624502 0)
(2.70254 0.0769198 0)
(2.7128 0.097409 0)
(2.71336 0.0939971 0)
(2.71037 0.0845008 0)
(2.71223 0.076448 0)
(2.71991 0.0706106 0)
(2.73135 0.0716588 0)
(2.73753 0.069783 0)
(2.7437 0.0632216 0)
(2.74709 0.0512237 0)
(2.74981 0.044738 0)
(2.75427 0.0405321 0)
(2.75701 0.0326164 0)
(2.759 0.0251698 0)
(2.76363 0.0165403 0)
(3.06485 -1.47189 0)
(3.06462 -1.47189 0)
(3.06453 -1.47178 0)
(3.06422 -1.47195 0)
(3.06394 -1.47203 0)
(3.06361 -1.47205 0)
(3.06313 -1.47222 0)
(3.06272 -1.47227 0)
(3.06233 -1.47247 0)
(3.06217 -1.47221 0)
(3.06226 -1.47169 0)
(3.06107 -1.47239 0)
(3.06063 -1.47318 0)
(3.06078 -1.47318 0)
(3.0608 -1.47351 0)
(3.06076 -1.47377 0)
(3.06092 -1.47362 0)
(3.06067 -1.47423 0)
(3.06051 -1.47476 0)
(3.06043 -1.47515 0)
(3.06126 -1.47499 0)
(3.06308 -1.47438 0)
(3.06369 -1.47351 0)
(3.06478 -1.47137 0)
(3.065 -1.47083 0)
(3.0619 -1.46236 0)
(3.02265 -1.36311 0)
(2.93993 -1.08712 0)
(2.86022 -0.736756 0)
(2.81216 -0.394169 0)
(2.76291 -0.144175 0)
(2.7401 -0.0574202 0)
(2.70793 0.000235671 0)
(2.71097 0.0283755 0)
(2.70331 0.0562776 0)
(2.68538 0.0919329 0)
(2.68723 0.0925197 0)
(2.68441 0.0829183 0)
(2.68286 0.0700178 0)
(2.69365 0.0663697 0)
(2.69892 0.0673044 0)
(2.71147 0.0686382 0)
(2.71442 0.0667195 0)
(2.71584 0.0606921 0)
(2.71604 0.0521669 0)
(2.71886 0.0455047 0)
(2.7231 0.0431893 0)
(2.72603 0.0375483 0)
(2.72804 0.0314833 0)
(2.73557 0.0171147 0)
(3.06271 -1.47305 0)
(3.06249 -1.47335 0)
(3.0624 -1.47354 0)
(3.06249 -1.47321 0)
(3.06217 -1.47338 0)
(3.06198 -1.47326 0)
(3.0621 -1.47291 0)
(3.06141 -1.47354 0)
(3.06113 -1.47409 0)
(3.06118 -1.47397 0)
(3.06116 -1.47369 0)
(3.06066 -1.47431 0)
(3.06042 -1.47487 0)
(3.06025 -1.47505 0)
(3.06059 -1.47494 0)
(3.06088 -1.4749 0)
(3.06086 -1.4751 0)
(3.06093 -1.47524 0)
(3.06117 -1.47542 0)
(3.06129 -1.47593 0)
(3.06194 -1.47597 0)
(3.06406 -1.47504 0)
(3.0649 -1.47333 0)
(3.06517 -1.47095 0)
(3.06595 -1.46944 0)
(3.06564 -1.4682 0)
(3.06178 -1.47007 0)
(3.05999 -1.47483 0)
(3.05993 -1.48029 0)
(3.03515 -1.39957 0)
(2.95415 -1.07827 0)
(2.84167 -0.576262 0)
(2.79974 -0.27482 0)
(2.74662 -0.000417419 0)
(2.69398 0.129923 0)
(2.69506 0.1576 0)
(2.68167 0.0961273 0)
(2.67979 0.0792588 0)
(2.69119 0.0665674 0)
(2.69827 0.0672087 0)
(2.70337 0.0705675 0)
(2.71016 0.0682536 0)
(2.70986 0.0642663 0)
(2.70788 0.0554428 0)
(2.70675 0.0473343 0)
(2.71014 0.0411604 0)
(2.71394 0.0366544 0)
(2.71635 0.0300758 0)
(2.7179 0.0241237 0)
(2.72569 0.0173833 0)
(3.06204 -1.47469 0)
(3.06209 -1.47457 0)
(3.06198 -1.47486 0)
(3.06201 -1.47468 0)
(3.06207 -1.47447 0)
(3.06203 -1.47454 0)
(3.06213 -1.47425 0)
(3.06218 -1.47414 0)
(3.06213 -1.47421 0)
(3.06216 -1.47399 0)
(3.06222 -1.4738 0)
(3.06223 -1.47367 0)
(3.06225 -1.47363 0)
(3.06233 -1.47346 0)
(3.06256 -1.47291 0)
(3.06304 -1.47281 0)
(3.06318 -1.47301 0)
(3.06329 -1.47333 0)
(3.06357 -1.4735 0)
(3.06398 -1.47432 0)
(3.06477 -1.47548 0)
(3.06656 -1.47558 0)
(3.06727 -1.47241 0)
(3.06802 -1.47083 0)
(3.06776 -1.46948 0)
(3.06569 -1.46683 0)
(3.05995 -1.47236 0)
(3.05845 -1.47823 0)
(3.05874 -1.48065 0)
(3.06041 -1.48255 0)
(3.06264 -1.48326 0)
(3.06486 -1.48256 0)
(3.02415 -1.33925 0)
(2.93401 -0.923399 0)
(2.90532 -0.566633 0)
(2.79172 -0.160137 0)
(2.78314 -0.0481825 0)
(2.72561 0.0451822 0)
(2.71354 0.065669 0)
(2.712 0.0723511 0)
(2.70886 0.0760147 0)
(2.7079 0.0694681 0)
(2.70688 0.0589256 0)
(2.70648 0.0482317 0)
(2.70699 0.0420304 0)
(2.70985 0.037126 0)
(2.71248 0.0317859 0)
(2.71381 0.0239582 0)
(2.71515 0.0195512 0)
(2.72469 0.0133699 0)
(3.06314 -1.47361 0)
(3.06315 -1.47348 0)
(3.06319 -1.47342 0)
(3.06323 -1.47337 0)
(3.06327 -1.47321 0)
(3.0633 -1.47315 0)
(3.06337 -1.47301 0)
(3.06346 -1.47287 0)
(3.0635 -1.47268 0)
(3.06333 -1.47246 0)
(3.06331 -1.47222 0)
(3.06321 -1.4721 0)
(3.06312 -1.47205 0)
(3.06341 -1.47147 0)
(3.06342 -1.47087 0)
(3.06376 -1.47108 0)
(3.06386 -1.47168 0)
(3.06395 -1.47265 0)
(3.0647 -1.47365 0)
(3.06518 -1.47532 0)
(3.0662 -1.47711 0)
(3.06881 -1.4762 0)
(3.06898 -1.47598 0)
(3.06832 -1.47574 0)
(3.06717 -1.47194 0)
(3.06409 -1.46922 0)
(3.05897 -1.47637 0)
(3.05832 -1.47872 0)
(3.05875 -1.4815 0)
(3.06004 -1.48356 0)
(3.06321 -1.4805 0)
(3.06554 -1.47499 0)
(3.06511 -1.47527 0)
(3.06538 -1.47419 0)
(3.05989 -1.44999 0)
(2.95718 -1.06138 0)
(2.93179 -0.64845 0)
(2.78691 -0.108177 0)
(2.76326 -0.0156586 0)
(2.73609 0.107743 0)
(2.70199 0.0796465 0)
(2.71287 0.073104 0)
(2.71158 0.0481612 0)
(2.71467 0.0460124 0)
(2.71563 0.0456154 0)
(2.71629 0.0407749 0)
(2.71682 0.0305693 0)
(2.71695 0.0200882 0)
(2.71857 0.0197431 0)
(2.72692 0.0100985 0)
(3.06329 -1.47336 0)
(3.06378 -1.47308 0)
(3.0642 -1.47279 0)
(3.06456 -1.47241 0)
(3.06462 -1.47162 0)
(3.06467 -1.47115 0)
(3.06484 -1.47055 0)
(3.0652 -1.46975 0)
(3.06526 -1.46939 0)
(3.06548 -1.46877 0)
(3.06565 -1.46788 0)
(3.06559 -1.46745 0)
(3.06561 -1.46733 0)
(3.06586 -1.46713 0)
(3.06584 -1.4672 0)
(3.06542 -1.4683 0)
(3.06407 -1.47075 0)
(3.064 -1.47297 0)
(3.06539 -1.47497 0)
(3.06637 -1.47886 0)
(3.06702 -1.48097 0)
(3.06742 -1.48151 0)
(3.06724 -1.48195 0)
(3.06604 -1.48122 0)
(3.06414 -1.47685 0)
(3.0617 -1.47428 0)
(3.05959 -1.4782 0)
(3.0599 -1.47976 0)
(3.06098 -1.48181 0)
(3.06183 -1.48183 0)
(3.06319 -1.47596 0)
(3.06334 -1.47462 0)
(3.06392 -1.47362 0)
(3.06481 -1.47253 0)
(3.06258 -1.47138 0)
(3.05881 -1.47151 0)
(3.0518 -1.47949 0)
(2.98647 -1.20685 0)
(2.91285 -0.699977 0)
(2.80766 -0.195478 0)
(2.79573 -0.0752191 0)
(2.7527 0.0494793 0)
(2.72596 0.0472487 0)
(2.7398 0.0550987 0)
(2.73706 0.0430199 0)
(2.73493 0.0281284 0)
(2.73367 0.0182402 0)
(2.73348 0.0172036 0)
(2.73347 0.0147776 0)
(2.7399 0.00468082 0)
(3.0655 -1.47539 0)
(3.06808 -1.47387 0)
(3.06853 -1.47265 0)
(3.06874 -1.47111 0)
(3.06901 -1.46858 0)
(3.06893 -1.46763 0)
(3.06852 -1.46746 0)
(3.06833 -1.46695 0)
(3.06784 -1.46601 0)
(3.06751 -1.46546 0)
(3.06691 -1.46526 0)
(3.06603 -1.46548 0)
(3.0656 -1.46649 0)
(3.06569 -1.46685 0)
(3.06613 -1.46703 0)
(3.06491 -1.46932 0)
(3.06245 -1.47292 0)
(3.062 -1.47652 0)
(3.06253 -1.48042 0)
(3.0626 -1.48507 0)
(3.06221 -1.48667 0)
(3.06218 -1.48646 0)
(3.06202 -1.48536 0)
(3.06158 -1.48443 0)
(3.06053 -1.48103 0)
(3.06199 -1.48027 0)
(3.06305 -1.48021 0)
(3.06443 -1.48002 0)
(3.06457 -1.48033 0)
(3.06275 -1.47618 0)
(3.06145 -1.47107 0)
(3.06166 -1.47078 0)
(3.06344 -1.47238 0)
(3.05903 -1.46976 0)
(3.05495 -1.46399 0)
(3.04568 -1.47218 0)
(3.0492 -1.47029 0)
(3.05772 -1.45862 0)
(3.06832 -1.43884 0)
(3.01046 -1.1803 0)
(2.9427 -0.686268 0)
(2.82106 -0.191207 0)
(2.81098 -0.058442 0)
(2.77536 0.0470116 0)
(2.75917 0.0527286 0)
(2.76594 0.0414691 0)
(2.76345 0.0157513 0)
(2.76477 0.015125 0)
(2.76223 0.0141004 0)
(2.76762 0.0096648 0)
(3.06812 -1.47465 0)
(3.06808 -1.47463 0)
(3.06787 -1.47424 0)
(3.06756 -1.47385 0)
(3.06803 -1.47114 0)
(3.06837 -1.46991 0)
(3.06807 -1.46898 0)
(3.06748 -1.46838 0)
(3.06736 -1.46787 0)
(3.0673 -1.46717 0)
(3.06674 -1.46621 0)
(3.06485 -1.46697 0)
(3.06441 -1.46824 0)
(3.06442 -1.46904 0)
(3.06348 -1.47106 0)
(3.06147 -1.47559 0)
(3.05795 -1.48056 0)
(3.05626 -1.48551 0)
(3.05656 -1.48864 0)
(3.05716 -1.48868 0)
(3.05592 -1.48687 0)
(3.05563 -1.48642 0)
(3.05635 -1.48473 0)
(3.05814 -1.48277 0)
(3.05898 -1.4819 0)
(3.06252 -1.48057 0)
(3.06542 -1.47888 0)
(3.0653 -1.47825 0)
(3.06438 -1.47441 0)
(3.06264 -1.46803 0)
(3.0616 -1.46473 0)
(3.05972 -1.46489 0)
(3.05385 -1.46118 0)
(3.04645 -1.45708 0)
(3.0453 -1.45804 0)
(3.06002 -1.43957 0)
(3.07142 -1.44133 0)
(3.07834 -1.433 0)
(3.08599 -1.39485 0)
(3.0872 -1.38804 0)
(3.08126 -1.40371 0)
(3.01931 -1.14399 0)
(2.95191 -0.614246 0)
(2.86506 -0.223153 0)
(2.8336 -0.0349668 0)
(2.79529 0.0326597 0)
(2.78915 0.0354655 0)
(2.80129 0.0268991 0)
(2.79812 0.00307632 0)
(2.80374 -0.00383763 0)
(3.06584 -1.47381 0)
(3.06588 -1.47436 0)
(3.0659 -1.47396 0)
(3.06487 -1.47214 0)
(3.0642 -1.47053 0)
(3.06467 -1.46874 0)
(3.06582 -1.46775 0)
(3.06584 -1.46935 0)
(3.06521 -1.47207 0)
(3.06568 -1.47184 0)
(3.06395 -1.47203 0)
(3.06132 -1.47495 0)
(3.06137 -1.47551 0)
(3.06086 -1.47694 0)
(3.05847 -1.48102 0)
(3.05838 -1.48393 0)
(3.05584 -1.48596 0)
(3.05398 -1.48883 0)
(3.05349 -1.4904 0)
(3.05333 -1.48879 0)
(3.0558 -1.48379 0)
(3.05772 -1.48069 0)
(3.0589 -1.47861 0)
(3.06088 -1.47605 0)
(3.06169 -1.47549 0)
(3.0646 -1.47323 0)
(3.06648 -1.47153 0)
(3.06572 -1.47181 0)
(3.06243 -1.46566 0)
(3.06158 -1.44945 0)
(3.06075 -1.43961 0)
(3.05776 -1.43143 0)
(3.05162 -1.43482 0)
(3.05125 -1.43429 0)
(3.0603 -1.43363 0)
(3.07631 -1.41501 0)
(3.08765 -1.39063 0)
(3.08927 -1.39044 0)
(3.08819 -1.37782 0)
(3.08361 -1.36718 0)
(3.08449 -1.36297 0)
(3.08838 -1.34599 0)
(3.09335 -1.32681 0)
(3.03788 -1.03769 0)
(2.95411 -0.507647 0)
(2.92476 -0.248162 0)
(2.85991 -0.0286851 0)
(2.82848 0.0278906 0)
(2.83032 0.0311282 0)
(2.84043 0.015056 0)
(3.05953 -1.4715 0)
(3.05969 -1.47066 0)
(3.05951 -1.46978 0)
(3.06006 -1.47014 0)
(3.06114 -1.4703 0)
(3.06179 -1.47058 0)
(3.06245 -1.47301 0)
(3.06239 -1.4739 0)
(3.06224 -1.47441 0)
(3.06204 -1.47413 0)
(3.06182 -1.47372 0)
(3.06192 -1.47533 0)
(3.06084 -1.47894 0)
(3.063 -1.48096 0)
(3.06393 -1.48047 0)
(3.06319 -1.48028 0)
(3.06268 -1.47994 0)
(3.06351 -1.47781 0)
(3.06427 -1.47694 0)
(3.06475 -1.47284 0)
(3.06296 -1.46607 0)
(3.06396 -1.45808 0)
(3.06655 -1.45443 0)
(3.06568 -1.45177 0)
(3.0642 -1.45349 0)
(3.06529 -1.44716 0)
(3.06433 -1.44207 0)
(3.064 -1.42813 0)
(3.06237 -1.41589 0)
(3.06061 -1.41181 0)
(3.06384 -1.40714 0)
(3.06873 -1.4034 0)
(3.07062 -1.40687 0)
(3.07667 -1.40583 0)
(3.08427 -1.38318 0)
(3.09375 -1.36845 0)
(3.09529 -1.34979 0)
(3.09637 -1.33748 0)
(3.09167 -1.32735 0)
(3.08818 -1.32793 0)
(3.09464 -1.32042 0)
(3.10108 -1.29372 0)
(3.1091 -1.2682 0)
(3.11006 -1.26206 0)
(3.10384 -1.24449 0)
(3.05604 -0.92966 0)
(2.97346 -0.435468 0)
(2.94087 -0.190306 0)
(2.88322 -0.015503 0)
(2.86265 0.0176898 0)
(3.04822 -1.48093 0)
(3.04735 -1.47977 0)
(3.04753 -1.47963 0)
(3.04745 -1.48023 0)
(3.04739 -1.48159 0)
(3.04928 -1.48311 0)
(3.05188 -1.48105 0)
(3.05306 -1.47924 0)
(3.0546 -1.47771 0)
(3.05532 -1.47636 0)
(3.05649 -1.47538 0)
(3.05857 -1.47575 0)
(3.06013 -1.4774 0)
(3.062 -1.48026 0)
(3.06699 -1.4723 0)
(3.07224 -1.46085 0)
(3.07174 -1.44802 0)
(3.06943 -1.43215 0)
(3.06832 -1.42658 0)
(3.06568 -1.41719 0)
(3.06304 -1.40839 0)
(3.06318 -1.39581 0)
(3.06471 -1.38812 0)
(3.0638 -1.38415 0)
(3.06344 -1.38179 0)
(3.0659 -1.37958 0)
(3.06697 -1.38403 0)
(3.06791 -1.38764 0)
(3.07058 -1.38535 0)
(3.07426 -1.38186 0)
(3.08082 -1.37594 0)
(3.08786 -1.36622 0)
(3.08949 -1.36088 0)
(3.09959 -1.34755 0)
(3.10201 -1.34167 0)
(3.10135 -1.31148 0)
(3.09893 -1.29643 0)
(3.09274 -1.3035 0)
(3.09503 -1.29367 0)
(3.09932 -1.29204 0)
(3.10497 -1.26491 0)
(3.11253 -1.24629 0)
(3.11649 -1.22839 0)
(3.11389 -1.21948 0)
(3.11265 -1.21762 0)
(3.11239 -1.20019 0)
(3.09762 -1.1261 0)
(3.04568 -0.737863 0)
(3.00285 -0.389417 0)
(2.91561 -0.0817224 0)
(3.07033 -1.35943 0)
(3.07042 -1.35853 0)
(3.07096 -1.3582 0)
(3.0712 -1.35971 0)
(3.07218 -1.35802 0)
(3.07282 -1.3566 0)
(3.07313 -1.35726 0)
(3.0751 -1.35541 0)
(3.07507 -1.35718 0)
(3.07482 -1.36497 0)
(3.07745 -1.36291 0)
(3.07924 -1.35477 0)
(3.08013 -1.34798 0)
(3.08 -1.34651 0)
(3.07984 -1.3447 0)
(3.07923 -1.34219 0)
(3.0793 -1.34 0)
(3.07987 -1.33876 0)
(3.07877 -1.34123 0)
(3.0801 -1.34093 0)
(3.07896 -1.34772 0)
(3.08116 -1.34496 0)
(3.08389 -1.3395 0)
(3.08065 -1.34588 0)
(3.08353 -1.34581 0)
(3.08494 -1.35201 0)
(3.08682 -1.34484 0)
(3.0904 -1.3397 0)
(3.09303 -1.34125 0)
(3.09573 -1.33657 0)
(3.09991 -1.32559 0)
(3.10318 -1.31239 0)
(3.09973 -1.28915 0)
(3.1103 -1.26313 0)
(3.10933 -1.25914 0)
(3.10187 -1.26312 0)
(3.09922 -1.25742 0)
(3.10285 -1.25357 0)
(3.1114 -1.24378 0)
(3.11275 -1.21896 0)
(3.11981 -1.19619 0)
(3.12319 -1.18469 0)
(3.12038 -1.1773 0)
(3.11505 -1.18271 0)
(3.11549 -1.16509 0)
(3.11755 -1.14743 0)
(3.12891 -1.14609 0)
(3.12563 -1.13334 0)
(3.11099 -1.03914 0)
(2.99161 -0.358176 0)
(3.08183 -1.35077 0)
(3.08088 -1.35349 0)
(3.08099 -1.35543 0)
(3.08089 -1.35291 0)
(3.08153 -1.35019 0)
(3.081 -1.35025 0)
(3.08126 -1.3523 0)
(3.08211 -1.35284 0)
(3.0797 -1.35582 0)
(3.07655 -1.36035 0)
(3.0775 -1.3597 0)
(3.07987 -1.358 0)
(3.07838 -1.36004 0)
(3.07839 -1.36179 0)
(3.07743 -1.35711 0)
(3.0787 -1.3509 0)
(3.07984 -1.34978 0)
(3.08106 -1.34695 0)
(3.08233 -1.34371 0)
(3.08281 -1.34436 0)
(3.08449 -1.33804 0)
(3.0861 -1.33703 0)
(3.08845 -1.33091 0)
(3.09093 -1.3206 0)
(3.09855 -1.31218 0)
(3.10449 -1.29816 0)
(3.10264 -1.28463 0)
(3.10869 -1.26813 0)
(3.11571 -1.25259 0)
(3.11809 -1.23603 0)
(3.1159 -1.22436 0)
(3.11062 -1.21853 0)
(3.10461 -1.22346 0)
(3.10825 -1.20972 0)
(3.1103 -1.21083 0)
(3.11142 -1.2057 0)
(3.11566 -1.2075 0)
(3.12036 -1.18821 0)
(3.1213 -1.17176 0)
(3.12665 -1.15755 0)
(3.12568 -1.15219 0)
(3.12273 -1.14322 0)
(3.11871 -1.13916 0)
(3.1183 -1.14153 0)
(3.11893 -1.12275 0)
(3.12278 -1.10811 0)
(3.12557 -1.08907 0)
(3.12749 -1.07866 0)
(3.12639 -1.08032 0)
(3.11164 -0.962475 0)
(3.10881 -1.24764 0)
(3.10899 -1.24639 0)
(3.10872 -1.24629 0)
(3.10899 -1.2461 0)
(3.11003 -1.24551 0)
(3.11083 -1.24412 0)
(3.11194 -1.2427 0)
(3.11294 -1.2401 0)
(3.11279 -1.23044 0)
(3.11283 -1.22045 0)
(3.11408 -1.21596 0)
(3.11548 -1.21607 0)
(3.1149 -1.21228 0)
(3.11391 -1.20473 0)
(3.11509 -1.19743 0)
(3.11649 -1.18945 0)
(3.11773 -1.18324 0)
(3.11931 -1.17865 0)
(3.11958 -1.17823 0)
(3.12028 -1.17652 0)
(3.12124 -1.17465 0)
(3.12187 -1.17516 0)
(3.12243 -1.17199 0)
(3.12195 -1.16809 0)
(3.12029 -1.16139 0)
(3.11701 -1.15865 0)
(3.1153 -1.15822 0)
(3.1173 -1.15447 0)
(3.12029 -1.15219 0)
(3.12058 -1.15483 0)
(3.12296 -1.14867 0)
(3.11847 -1.1561 0)
(3.11726 -1.15935 0)
(3.11839 -1.16019 0)
(3.12381 -1.14615 0)
(3.12538 -1.14138 0)
(3.13205 -1.13294 0)
(3.12906 -1.11804 0)
(3.13138 -1.10343 0)
(3.13003 -1.09494 0)
(3.12363 -1.09817 0)
(3.1219 -1.08974 0)
(3.12384 -1.09033 0)
(3.12467 -1.07169 0)
(3.12713 -1.06448 0)
(3.12917 -1.05048 0)
(3.1292 -1.04499 0)
(3.13012 -1.03712 0)
(3.12943 -1.03138 0)
(3.12754 -1.02206 0)
(3.12185 -1.14905 0)
(3.12241 -1.15031 0)
(3.12252 -1.15185 0)
(3.12227 -1.15126 0)
(3.12215 -1.14906 0)
(3.12274 -1.14661 0)
(3.12117 -1.14768 0)
(3.12049 -1.14989 0)
(3.12041 -1.14934 0)
(3.12083 -1.14587 0)
(3.12184 -1.14311 0)
(3.11952 -1.14607 0)
(3.11925 -1.14828 0)
(3.11977 -1.14788 0)
(3.11923 -1.14961 0)
(3.11931 -1.15112 0)
(3.11971 -1.14923 0)
(3.12005 -1.14755 0)
(3.12067 -1.14698 0)
(3.12137 -1.14378 0)
(3.12208 -1.13791 0)
(3.12228 -1.13492 0)
(3.12179 -1.13254 0)
(3.12238 -1.12662 0)
(3.12089 -1.12625 0)
(3.11973 -1.12754 0)
(3.1192 -1.13219 0)
(3.1202 -1.13248 0)
(3.12075 -1.12938 0)
(3.12186 -1.12515 0)
(3.12541 -1.11202 0)
(3.12895 -1.1023 0)
(3.13073 -1.09524 0)
(3.13577 -1.08252 0)
(3.13776 -1.07653 0)
(3.13238 -1.05853 0)
(3.13324 -1.04527 0)
(3.13199 -1.04227 0)
(3.12894 -1.04097 0)
(3.12479 -1.0445 0)
(3.12526 -1.04136 0)
(3.12815 -1.04257 0)
(3.12908 -1.02741 0)
(3.13136 -1.01236 0)
(3.1335 -1.0068 0)
(3.13312 -1.0018 0)
(3.13146 -0.999192 0)
(3.12989 -0.988202 0)
(3.12941 -0.984421 0)
(3.13031 -0.97521 0)
(3.13258 -1.04752 0)
(3.13289 -1.04513 0)
(3.1334 -1.04333 0)
(3.13283 -1.04308 0)
(3.1325 -1.04393 0)
(3.13298 -1.04457 0)
(3.13307 -1.04367 0)
(3.13313 -1.04208 0)
(3.13355 -1.04093 0)
(3.13377 -1.04038 0)
(3.13416 -1.03873 0)
(3.13397 -1.03735 0)
(3.13436 -1.03538 0)
(3.13543 -1.03396 0)
(3.13585 -1.02994 0)
(3.13592 -1.02839 0)
(3.13577 -1.02724 0)
(3.13561 -1.02587 0)
(3.13556 -1.02382 0)
(3.13566 -1.0215 0)
(3.13508 -1.02182 0)
(3.13533 -1.02317 0)
(3.13519 -1.02093 0)
(3.13669 -1.01813 0)
(3.13968 -1.01363 0)
(3.13894 -1.00762 0)
(3.13755 -0.995907 0)
(3.13988 -0.989664 0)
(3.14057 -0.985675 0)
(3.14006 -0.984814 0)
(3.13951 -0.985567 0)
(3.13752 -0.978831 0)
(3.13701 -0.972694 0)
(3.13705 -0.969998 0)
(3.13531 -0.972047 0)
(3.13302 -0.975385 0)
(3.13107 -0.980041 0)
(3.13171 -0.977337 0)
(3.13067 -0.981757 0)
(3.13197 -0.976286 0)
(3.13463 -0.970101 0)
(3.13607 -0.963479 0)
(3.13539 -0.951909 0)
(3.13535 -0.948944 0)
(3.13492 -0.943138 0)
(3.13346 -0.943105 0)
(3.13358 -0.936157 0)
(3.13139 -0.93774 0)
(3.13125 -0.937503 0)
(3.13272 -0.928632 0)
(3.14024 -0.937813 0)
(3.14024 -0.938884 0)
(3.13992 -0.939018 0)
(3.13972 -0.938412 0)
(3.13995 -0.937191 0)
(3.14041 -0.935081 0)
(3.14019 -0.934241 0)
(3.14005 -0.934574 0)
(3.14041 -0.935662 0)
(3.14034 -0.935392 0)
(3.14028 -0.934395 0)
(3.14013 -0.934249 0)
(3.14013 -0.933832 0)
(3.14004 -0.933864 0)
(3.14003 -0.934147 0)
(3.14013 -0.932857 0)
(3.14022 -0.932286 0)
(3.14021 -0.932326 0)
(3.14008 -0.931596 0)
(3.14016 -0.931124 0)
(3.14018 -0.92986 0)
(3.14028 -0.928357 0)
(3.14003 -0.927879 0)
(3.13961 -0.927207 0)
(3.13935 -0.925889 0)
(3.13846 -0.926711 0)
(3.13759 -0.929656 0)
(3.13794 -0.931117 0)
(3.13799 -0.929122 0)
(3.13819 -0.925263 0)
(3.13777 -0.923834 0)
(3.13551 -0.92661 0)
(3.13481 -0.928128 0)
(3.13445 -0.926094 0)
(3.13526 -0.924007 0)
(3.1356 -0.921674 0)
(3.13566 -0.920019 0)
(3.13662 -0.916012 0)
(3.13757 -0.909654 0)
(3.13712 -0.90575 0)
(3.13738 -0.897367 0)
(3.13696 -0.895029 0)
(3.13558 -0.895237 0)
(3.13505 -0.893535 0)
(3.13302 -0.898893 0)
(3.13324 -0.895555 0)
(3.13398 -0.895721 0)
(3.13411 -0.8912 0)
(3.1346 -0.888643 0)
(3.13512 -0.885915 0)
(3.14141 -0.848363 0)
(3.14132 -0.848164 0)
(3.1413 -0.848465 0)
(3.1413 -0.848607 0)
(3.14105 -0.849601 0)
(3.14114 -0.85072 0)
(3.14124 -0.850766 0)
(3.14119 -0.849983 0)
(3.14091 -0.849169 0)
(3.14092 -0.849199 0)
(3.14106 -0.849536 0)
(3.14123 -0.849708 0)
(3.14109 -0.84944 0)
(3.14103 -0.849329 0)
(3.14094 -0.849212 0)
(3.1409 -0.849193 0)
(3.14075 -0.849123 0)
(3.14062 -0.848995 0)
(3.14048 -0.848821 0)
(3.14036 -0.848524 0)
(3.14022 -0.848401 0)
(3.14008 -0.848467 0)
(3.14007 -0.848345 0)
(3.14032 -0.848114 0)
(3.14045 -0.848061 0)
(3.14081 -0.847693 0)
(3.1409 -0.847003 0)
(3.14009 -0.846528 0)
(3.13957 -0.846407 0)
(3.13839 -0.846281 0)
(3.13812 -0.846229 0)
(3.13807 -0.845757 0)
(3.13855 -0.843817 0)
(3.13817 -0.842471 0)
(3.13761 -0.841835 0)
(3.13739 -0.841603 0)
(3.1369 -0.840163 0)
(3.13673 -0.839806 0)
(3.13629 -0.840168 0)
(3.13606 -0.840561 0)
(3.13549 -0.842427 0)
(3.13545 -0.842922 0)
(3.13506 -0.844568 0)
(3.13534 -0.844421 0)
(3.13568 -0.843446 0)
(3.13563 -0.842972 0)
(3.13553 -0.842316 0)
(3.13493 -0.842939 0)
(3.13518 -0.842916 0)
(3.13703 -0.841871 0)
(3.13888 -0.807064 0)
(3.13878 -0.807244 0)
(3.13874 -0.807349 0)
(3.13874 -0.807344 0)
(3.13874 -0.807237 0)
(3.13866 -0.807132 0)
(3.13864 -0.807158 0)
(3.13859 -0.807317 0)
(3.13849 -0.807473 0)
(3.13867 -0.807392 0)
(3.13881 -0.807232 0)
(3.13885 -0.807227 0)
(3.13872 -0.807284 0)
(3.13863 -0.807287 0)
(3.13852 -0.807253 0)
(3.13838 -0.807214 0)
(3.13824 -0.807207 0)
(3.13809 -0.807242 0)
(3.13791 -0.807367 0)
(3.13781 -0.807466 0)
(3.13768 -0.807552 0)
(3.13756 -0.807645 0)
(3.1375 -0.807807 0)
(3.13768 -0.808042 0)
(3.13777 -0.80811 0)
(3.13789 -0.808082 0)
(3.13789 -0.807754 0)
(3.13759 -0.80748 0)
(3.13705 -0.807597 0)
(3.13684 -0.807754 0)
(3.13627 -0.808252 0)
(3.13601 -0.808506 0)
(3.13584 -0.808464 0)
(3.13578 -0.808187 0)
(3.13585 -0.808155 0)
(3.1359 -0.80837 0)
(3.1359 -0.808608 0)
(3.13597 -0.808728 0)
(3.13605 -0.808764 0)
(3.136 -0.808844 0)
(3.1361 -0.808623 0)
(3.13617 -0.808576 0)
(3.13626 -0.808402 0)
(3.13617 -0.808529 0)
(3.13605 -0.808812 0)
(3.13593 -0.809397 0)
(3.13553 -0.810267 0)
(3.13587 -0.811629 0)
(3.13685 -0.811819 0)
(3.13951 -0.811642 0)
(3.13752 -0.797509 0)
(3.13748 -0.797563 0)
(3.13746 -0.79757 0)
(3.13736 -0.797382 0)
(3.13729 -0.79733 0)
(3.13725 -0.797323 0)
(3.13718 -0.797269 0)
(3.13705 -0.797281 0)
(3.13682 -0.797655 0)
(3.13644 -0.798025 0)
(3.13666 -0.797701 0)
(3.13668 -0.797226 0)
(3.13651 -0.797153 0)
(3.13624 -0.797299 0)
(3.13599 -0.797566 0)
(3.13576 -0.797729 0)
(3.13564 -0.797871 0)
(3.13565 -0.797915 0)
(3.1357 -0.79815 0)
(3.13566 -0.798662 0)
(3.13581 -0.799237 0)
(3.13603 -0.799797 0)
(3.13588 -0.800502 0)
(3.13582 -0.800885 0)
(3.13563 -0.800224 0)
(3.13549 -0.799255 0)
(3.13573 -0.79843 0)
(3.13569 -0.797848 0)
(3.13557 -0.797892 0)
(3.13611 -0.799586 0)
(3.13631 -0.800439 0)
(3.13606 -0.799972 0)
(3.1356 -0.798888 0)
(3.13534 -0.79845 0)
(3.13541 -0.798579 0)
(3.13565 -0.798654 0)
(3.13583 -0.798516 0)
(3.136 -0.798402 0)
(3.1361 -0.798405 0)
(3.13605 -0.798394 0)
(3.13605 -0.798313 0)
(3.13609 -0.798287 0)
(3.13607 -0.798407 0)
(3.13619 -0.798708 0)
(3.13623 -0.799492 0)
(3.13687 -0.800069 0)
(3.13688 -0.801769 0)
(3.13811 -0.80153 0)
(3.13945 -0.801091 0)
(3.14135 -0.79987 0)
(3.13599 -0.801048 0)
(3.13592 -0.801105 0)
(3.13576 -0.80112 0)
(3.13598 -0.800913 0)
(3.13601 -0.800331 0)
(3.13567 -0.800059 0)
(3.13502 -0.79997 0)
(3.13477 -0.799851 0)
(3.13424 -0.799481 0)
(3.13396 -0.798648 0)
(3.13411 -0.798234 0)
(3.13412 -0.797671 0)
(3.13408 -0.797223 0)
(3.13403 -0.797088 0)
(3.1343 -0.797258 0)
(3.13457 -0.797399 0)
(3.13471 -0.797602 0)
(3.13492 -0.797902 0)
(3.13541 -0.798411 0)
(3.13628 -0.799321 0)
(3.13695 -0.800757 0)
(3.13684 -0.801138 0)
(3.13613 -0.800662 0)
(3.13533 -0.800322 0)
(3.13502 -0.800097 0)
(3.13403 -0.798783 0)
(3.13369 -0.797281 0)
(3.13408 -0.796863 0)
(3.13471 -0.79773 0)
(3.13523 -0.798807 0)
(3.13682 -0.79947 0)
(3.13721 -0.799133 0)
(3.13657 -0.797879 0)
(3.13591 -0.797538 0)
(3.13532 -0.797986 0)
(3.13568 -0.798367 0)
(3.13586 -0.798251 0)
(3.13623 -0.798057 0)
(3.13629 -0.798193 0)
(3.13617 -0.798432 0)
(3.13604 -0.79875 0)
(3.1361 -0.798887 0)
(3.13597 -0.800414 0)
(3.13669 -0.801274 0)
(3.1369 -0.802336 0)
(3.13853 -0.803138 0)
(3.13931 -0.802876 0)
(3.14087 -0.801715 0)
(3.1419 -0.799332 0)
(3.14304 -0.798345 0)
(3.13152 -0.785006 0)
(3.13123 -0.785757 0)
(3.13107 -0.785901 0)
(3.1311 -0.78592 0)
(3.13134 -0.786376 0)
(3.13157 -0.786837 0)
(3.13157 -0.786883 0)
(3.13156 -0.787175 0)
(3.13177 -0.787307 0)
(3.13226 -0.787584 0)
(3.13229 -0.789295 0)
(3.13219 -0.790648 0)
(3.13309 -0.792426 0)
(3.1338 -0.794236 0)
(3.13433 -0.797221 0)
(3.13558 -0.799054 0)
(3.13609 -0.799971 0)
(3.13607 -0.799952 0)
(3.13685 -0.797667 0)
(3.13788 -0.79495 0)
(3.13852 -0.789443 0)
(3.13693 -0.784724 0)
(3.13472 -0.781846 0)
(3.13376 -0.781527 0)
(3.13402 -0.783063 0)
(3.13384 -0.783556 0)
(3.13331 -0.785156 0)
(3.13367 -0.789958 0)
(3.13427 -0.793618 0)
(3.13525 -0.794057 0)
(3.13489 -0.788686 0)
(3.13573 -0.784488 0)
(3.13678 -0.785192 0)
(3.13748 -0.788248 0)
(3.13644 -0.789469 0)
(3.13601 -0.789425 0)
(3.13572 -0.789642 0)
(3.13625 -0.790768 0)
(3.1377 -0.791849 0)
(3.13744 -0.794453 0)
(3.13775 -0.79571 0)
(3.13804 -0.795447 0)
(3.13933 -0.796455 0)
(3.14014 -0.796676 0)
(3.14143 -0.796713 0)
(3.14316 -0.795789 0)
(3.14493 -0.794042 0)
(3.14668 -0.790953 0)
(3.14626 -0.788936 0)
(3.14375 -0.790364 0)
(3.13545 -0.777254 0)
(3.13554 -0.776385 0)
(3.1359 -0.775856 0)
(3.13582 -0.773519 0)
(3.13562 -0.772537 0)
(3.13583 -0.772853 0)
(3.13606 -0.773606 0)
(3.1363 -0.774216 0)
(3.13702 -0.77446 0)
(3.1377 -0.773895 0)
(3.13839 -0.773018 0)
(3.1385 -0.77071 0)
(3.1373 -0.767604 0)
(3.1378 -0.762175 0)
(3.13807 -0.760322 0)
(3.13668 -0.760948 0)
(3.13497 -0.765075 0)
(3.13387 -0.767103 0)
(3.13301 -0.771566 0)
(3.13363 -0.775041 0)
(3.13514 -0.777636 0)
(3.13569 -0.779982 0)
(3.13601 -0.780899 0)
(3.1367 -0.783128 0)
(3.13705 -0.783904 0)
(3.13747 -0.782942 0)
(3.13838 -0.779653 0)
(3.13811 -0.774741 0)
(3.13725 -0.771894 0)
(3.13696 -0.77215 0)
(3.13517 -0.776412 0)
(3.1363 -0.782916 0)
(3.13747 -0.784325 0)
(3.13744 -0.78362 0)
(3.13752 -0.782628 0)
(3.13818 -0.782903 0)
(3.13825 -0.784434 0)
(3.13857 -0.785076 0)
(3.13931 -0.784989 0)
(3.14021 -0.784335 0)
(3.14105 -0.784281 0)
(3.14266 -0.78264 0)
(3.14322 -0.781812 0)
(3.14442 -0.778694 0)
(3.14407 -0.777757 0)
(3.14462 -0.774741 0)
(3.14168 -0.773467 0)
(3.14008 -0.775214 0)
(3.13757 -0.779351 0)
(3.13515 -0.786853 0)
(3.13699 -0.723662 0)
(3.13721 -0.721625 0)
(3.13699 -0.719447 0)
(3.13718 -0.719639 0)
(3.13736 -0.721781 0)
(3.13729 -0.722425 0)
(3.13699 -0.72354 0)
(3.13687 -0.725287 0)
(3.13665 -0.726017 0)
(3.13637 -0.727557 0)
(3.13679 -0.729049 0)
(3.13725 -0.72931 0)
(3.13726 -0.729151 0)
(3.13724 -0.729324 0)
(3.13773 -0.73002 0)
(3.13793 -0.731918 0)
(3.13796 -0.732611 0)
(3.13981 -0.731927 0)
(3.14076 -0.728882 0)
(3.14002 -0.727062 0)
(3.13979 -0.724753 0)
(3.13974 -0.722644 0)
(3.13914 -0.721817 0)
(3.1379 -0.722487 0)
(3.1368 -0.724131 0)
(3.13689 -0.725268 0)
(3.13741 -0.729482 0)
(3.13692 -0.732366 0)
(3.13954 -0.734009 0)
(3.14113 -0.732906 0)
(3.14167 -0.728291 0)
(3.14033 -0.725218 0)
(3.13921 -0.726215 0)
(3.13778 -0.727929 0)
(3.13895 -0.728452 0)
(3.13997 -0.727767 0)
(3.14052 -0.726836 0)
(3.14054 -0.726138 0)
(3.13986 -0.725527 0)
(3.13919 -0.725766 0)
(3.13916 -0.725517 0)
(3.13913 -0.725745 0)
(3.13782 -0.727988 0)
(3.13758 -0.730088 0)
(3.13652 -0.734239 0)
(3.13644 -0.73858 0)
(3.13532 -0.744996 0)
(3.13638 -0.750488 0)
(3.13584 -0.756319 0)
(3.13889 -0.756393 0)
(3.1339 -0.644905 0)
(3.13387 -0.643732 0)
(3.13382 -0.643589 0)
(3.1342 -0.643986 0)
(3.13426 -0.644883 0)
(3.13396 -0.64568 0)
(3.13419 -0.645842 0)
(3.13436 -0.645136 0)
(3.13409 -0.644638 0)
(3.13454 -0.645223 0)
(3.13437 -0.646507 0)
(3.13367 -0.647851 0)
(3.13424 -0.648046 0)
(3.13472 -0.648134 0)
(3.13496 -0.648072 0)
(3.13457 -0.647517 0)
(3.13407 -0.648035 0)
(3.13413 -0.64969 0)
(3.13383 -0.650494 0)
(3.13357 -0.650138 0)
(3.13348 -0.650722 0)
(3.13373 -0.652029 0)
(3.13383 -0.652756 0)
(3.13432 -0.65506 0)
(3.13431 -0.657643 0)