/*--------------------------------*- C++ -*----------------------------------*\
  =========                 |
  \\      /  F ield         | OpenFOAM: The Open Source CFD Toolbox
   \\    /   O peration     | Website:  https://openfoam.org
    \\  /    A nd           | Version:  7
     \\/     M anipulation  |
\*---------------------------------------------------------------------------*/
FoamFile
{
    version     2.0;
    format      ascii;
    class       volScalarField;
    location    "5.5";
    object      T;
}
// * * * * * * * * * * * * * * * * * * * * * * * * * * * * * * * * * * * * * //

dimensions      [0 0 0 1 0 0 0];

internalField   nonuniform List<scalar> 
90000
(
0.663809
0.728907
0.780014
0.821436
0.858249
0.882897
0.902442
0.921375
0.938821
0.951902
0.963668
0.97648
0.988717
0.999541
1.01168
1.02305
1.03496
1.04779
1.06056
1.07344
1.08711
1.1014
1.11515
1.1293
1.14266
1.1558
1.1656
1.1744
1.17648
1.17769
1.17719
1.17621
1.17413
1.17178
1.16878
1.16579
1.16222
1.15883
1.15492
1.15237
1.14985
1.1478
1.14528
1.14213
1.1387
1.1361
1.1369
1.13858
1.14066
1.14308
1.14585
1.14924
1.15235
1.15545
1.15581
1.15393
1.14978
1.14434
1.13935
1.13647
1.13411
1.13503
1.1369
1.14013
1.14296
1.14286
1.14073
1.13772
1.1342
1.13098
1.13044
1.13076
1.1321
1.13359
1.13291
1.13123
1.12839
1.12649
1.12546
1.1262
1.12619
1.1255
1.12352
1.12126
1.11954
1.11984
1.12027
1.11972
1.11818
1.11607
1.11437
1.11311
1.11166
1.11008
1.10861
1.1075
1.10632
1.10491
1.10377
1.10227
0.600466
0.600317
0.600153
0.599981
0.599803
0.59962
0.599432
0.599233
0.599049
0.598732
0.599074
0.600219
0.602878
0.607067
0.614088
0.62338
0.636911
0.653365
0.675151
0.699558
0.730537
0.763334
0.801945
0.839088
0.880429
0.918399
0.957759
0.992463
1.02348
1.04977
1.07238
1.09208
1.10791
1.12306
1.13393
1.14481
1.15023
1.15612
1.15801
1.16166
1.16181
1.16237
1.1619
1.16064
1.16135
1.16654
1.17028
1.1736
1.17552
1.17693
1.17735
1.17756
1.17727
1.17568
1.17123
1.16561
1.16203
1.16011
1.1603
1.16124
1.16155
1.16182
1.16267
1.16365
1.16334
1.16164
1.15813
1.15477
1.15217
1.15226
1.15337
1.15603
1.15649
1.1557
1.15376
1.15054
1.14765
1.14718
1.14739
1.14855
1.14815
1.14661
1.14381
1.14171
1.1411
1.14189
1.14156
1.14012
1.13765
1.13556
1.13416
1.13266
1.13085
1.12901
1.12747
1.12645
1.12511
1.12328
1.12195
1.11998
0.59809
0.597952
0.597804
0.597646
0.597484
0.597315
0.597143
0.596963
0.596777
0.596588
0.596389
0.59619
0.595942
0.59567
0.59539
0.595109
0.594834
0.594563
0.594302
0.594049
0.593815
0.593588
0.593377
0.59317
0.593006
0.592757
0.594822
0.600528
0.615071
0.636475
0.670864
0.708979
0.757267
0.803515
0.854736
0.89966
0.94493
0.983604
1.02083
1.05348
1.08273
1.11013
1.1328
1.15537
1.1715
1.18271
1.18662
1.18904
1.19009
1.18994
1.18901
1.18645
1.18136
1.17328
1.16149
1.16026
1.16213
1.16572
1.16978
1.17367
1.17664
1.17822
1.17807
1.17659
1.17312
1.16848
1.16607
1.16455
1.16461
1.16611
1.16849
1.17118
1.1705
1.16858
1.1653
1.16242
1.16191
1.16326
1.16456
1.16412
1.16251
1.15958
1.15711
1.15757
1.15888
1.15888
1.15804
1.15599
1.15391
1.15235
1.15142
1.15009
1.14842
1.14677
1.14549
1.14413
1.14264
1.14107
1.13993
1.13812
0.595072
0.594948
0.594819
0.594686
0.594551
0.594415
0.594275
0.59413
0.593984
0.59384
0.593699
0.593558
0.593417
0.593277
0.593141
0.593009
0.592878
0.59275
0.592627
0.592509
0.592397
0.592291
0.592193
0.592105
0.592031
0.591958
0.591877
0.591803
0.591745
0.591689
0.591627
0.591567
0.591517
0.591475
0.591436
0.591375
0.595434
0.605864
0.631534
0.666238
0.718895
0.773188
0.83703
0.895926
0.953739
0.998328
1.03729
1.06978
1.09427
1.11643
1.12947
1.14048
1.14514
1.14904
1.15338
1.16611
1.17181
1.17829
1.18118
1.18396
1.18412
1.18391
1.18237
1.17677
1.17138
1.16769
1.1679
1.16902
1.17297
1.17695
1.17795
1.17664
1.17402
1.1701
1.16774
1.1678
1.16958
1.17129
1.17285
1.1715
1.16847
1.16589
1.16595
1.16673
1.16914
1.1686
1.16707
1.16468
1.16323
1.16294
1.16228
1.16099
1.15963
1.15835
1.15822
1.15751
1.15624
1.15481
1.15421
1.15279
0.592798
0.592729
0.59266
0.592589
0.592518
0.592446
0.592373
0.5923
0.592228
0.592161
0.592095
0.592029
0.591963
0.591902
0.591844
0.591788
0.591731
0.591677
0.591627
0.591582
0.591538
0.591496
0.591462
0.59144
0.591429
0.591413
0.591393
0.591381
0.591375
0.591361
0.591338
0.591309
0.59129
0.591278
0.591265
0.591246
0.591217
0.591186
0.591166
0.591168
0.59118
0.591215
0.591216
0.591203
0.599098
0.618379
0.663681
0.718614
0.790919
0.856878
0.923363
0.981266
1.03365
1.08548
1.12674
1.15281
1.16268
1.17075
1.17338
1.17593
1.1765
1.1753
1.17035
1.16365
1.16427
1.16629
1.17018
1.17508
1.17803
1.17797
1.17728
1.1729
1.16878
1.16733
1.16787
1.17131
1.17543
1.17526
1.17415
1.17074
1.16768
1.16774
1.16931
1.17296
1.17294
1.17171
1.1691
1.16799
1.16751
1.16769
1.1671
1.16602
1.16504
1.1648
1.16423
1.16358
1.16302
1.16252
1.16231
1.16181
0.591583
0.591562
0.591539
0.591518
0.591497
0.591474
0.591452
0.591429
0.591412
0.591398
0.59138
0.591358
0.591339
0.591318
0.591295
0.591271
0.59125
0.591234
0.591223
0.591214
0.591204
0.591183
0.591177
0.591184
0.591199
0.591215
0.591237
0.59124
0.591237
0.591229
0.591218
0.591203
0.591189
0.591187
0.591185
0.591171
0.591143
0.591127
0.591132
0.591153
0.591187
0.591184
0.591177
0.591165
0.591128
0.591074
0.59101
0.590905
0.590843
0.590845
0.596495
0.617503
0.671382
0.747617
0.845169
0.921996
0.988631
1.03917
1.07403
1.10766
1.12217
1.13668
1.13988
1.15128
1.16059
1.17253
1.17761
1.1799
1.17784
1.17616
1.16937
1.16267
1.16291
1.1644
1.16933
1.17539
1.17545
1.17417
1.16964
1.16593
1.16619
1.16858
1.17311
1.17474
1.17328
1.16996
1.16786
1.16796
1.16891
1.16875
1.16771
1.16667
1.16642
1.16669
1.16655
1.16591
1.16537
1.16551
1.16586
1.16559
0.59127
0.591267
0.591265
0.591261
0.591256
0.591251
0.591248
0.591244
0.591241
0.591237
0.591231
0.591223
0.591215
0.591206
0.591183
0.591166
0.591161
0.591156
0.591154
0.591155
0.591155
0.591151
0.591152
0.591165
0.591197
0.591225
0.591261
0.591285
0.591282
0.591275
0.591266
0.591253
0.591221
0.591191
0.591185
0.591174
0.591157
0.591158
0.591169
0.591201
0.591211
0.591202
0.591188
0.591148
0.591072
0.591002
0.590925
0.59081
0.590761
0.590783
0.59079
0.590768
0.590726
0.590671
0.59056
0.594046
0.62799
0.683267
0.77709
0.861133
0.945751
1.01735
1.07624
1.12883
1.14963
1.16336
1.16823
1.17088
1.17027
1.16386
1.15439
1.15641
1.1611
1.16763
1.171
1.17188
1.17094
1.16584
1.16138
1.16206
1.16559
1.17059
1.17251
1.17198
1.16854
1.16599
1.16591
1.16741
1.16844
1.16782
1.16653
1.16603
1.16655
1.16698
1.16659
1.16585
1.16581
1.16621
1.16666
1.16665
0.59132
0.591323
0.591324
0.591323
0.591319
0.591316
0.591316
0.591316
0.591314
0.591311
0.591305
0.591296
0.59129
0.591277
0.591248
0.591242
0.591243
0.591242
0.59124
0.591237
0.59123
0.59123
0.591244
0.591283
0.591333
0.591335
0.591333
0.591326
0.591309
0.591295
0.591289
0.591278
0.591244
0.591173
0.591102
0.591035
0.590989
0.590989
0.591017
0.591082
0.591089
0.591071
0.591029
0.590958
0.59088
0.590811
0.590731
0.590646
0.590638
0.59068
0.5907
0.590686
0.590658
0.59061
0.590507
0.590398
0.59038
0.590395
0.590394
0.590374
0.607957
0.654013
0.761639
0.864012
0.962467
1.0296
1.07296
1.11205
1.12782
1.13657
1.14285
1.162
1.16969
1.17325
1.17248
1.16892
1.15913
1.15516
1.1564
1.16229
1.16889
1.17166
1.17045
1.16528
1.16184
1.16229
1.16471
1.16663
1.16636
1.16457
1.16393
1.16463
1.16608
1.16591
1.16532
1.16495
1.16554
1.16651
1.1665
1.16644
0.591345
0.591345
0.591343
0.59134
0.591338
0.591334
0.591331
0.59133
0.591329
0.591326
0.591317
0.591295
0.59127
0.591259
0.591259
0.59126
0.591258
0.591249
0.591239
0.591227
0.591225
0.591232
0.591271
0.591312
0.591308
0.591297
0.591273
0.591235
0.59119
0.591144
0.5911
0.591051
0.591
0.590952
0.590891
0.590808
0.590763
0.590768
0.590794
0.590841
0.590836
0.590811
0.590775
0.59074
0.590697
0.590638
0.590563
0.59052
0.590529
0.590588
0.59061
0.590603
0.590584
0.590543
0.590444
0.590362
0.590353
0.59036
0.590355
0.590336
0.590326
0.590337
0.59041
0.590494
0.615848
0.674411
0.788312
0.892998
0.987917
1.07505
1.1307
1.15818
1.16579
1.1686
1.16516
1.15353
1.14747
1.15135
1.16085
1.16647
1.16866
1.1679
1.16258
1.15807
1.15848
1.1619
1.1645
1.16436
1.16221
1.16098
1.16182
1.16363
1.16441
1.1638
1.16301
1.16348
1.16482
1.16553
1.16531
1.1656
0.591322
0.591319
0.59131
0.591293
0.591282
0.591279
0.591276
0.59127
0.591262
0.591249
0.59123
0.591201
0.591161
0.591129
0.591127
0.591135
0.591138
0.591134
0.591121
0.591093
0.591085
0.591099
0.591146
0.591145
0.591135
0.591112
0.591077
0.591032
0.590981
0.590927
0.590867
0.590805
0.590756
0.590709
0.590652
0.5906
0.5906
0.590633
0.590652
0.590642
0.590634
0.590623
0.590604
0.590588
0.590556
0.590494
0.59044
0.590423
0.590432
0.590475
0.590513
0.590518
0.590506
0.590455
0.590391
0.590364
0.590365
0.590363
0.590352
0.590328
0.590318
0.59033
0.590409
0.59059
0.590715
0.590714
0.590658
0.592259
0.637427
0.738535
0.886765
0.984347
1.04843
1.10795
1.12282
1.13523
1.14415
1.16365
1.17188
1.17102
1.16892
1.15915
1.15388
1.15477
1.15924
1.16434
1.16401
1.16067
1.15837
1.1589
1.16162
1.16345
1.16272
1.16092
1.16117
1.16265
1.1638
1.16379
1.16381
1.16451
0.591128
0.591108
0.591093
0.591081
0.591069
0.591054
0.591038
0.591017
0.590985
0.59095
0.59092
0.590915
0.590917
0.590917
0.590914
0.590913
0.590911
0.590901
0.590885
0.590869
0.590865
0.590869
0.590891
0.590893
0.590886
0.590867
0.59083
0.59079
0.590755
0.590719
0.590669
0.590617
0.590575
0.590532
0.590494
0.590494
0.59052
0.590553
0.590546
0.590526
0.590521
0.590522
0.590517
0.590507
0.590477
0.590422
0.59039
0.590382
0.590382
0.590403
0.590457
0.590475
0.59045
0.590384
0.590364
0.590385
0.590429
0.590432
0.590421
0.590382
0.590375
0.590381
0.590442
0.59062
0.590771
0.590776
0.590732
0.5906
0.590485
0.590347
0.59236
0.620985
0.733119
0.860101
0.982389
1.0912
1.14356
1.16748
1.17139
1.16997
1.15849
1.15011
1.15255
1.1587
1.16312
1.1641
1.16101
1.15623
1.15672
1.16023
1.16264
1.16241
1.15999
1.15954
1.16061
1.16278
1.16318
1.16275
1.1628
1.16389
0.590845
0.590823
0.590809
0.590796
0.590772
0.590738
0.590713
0.590699
0.590694
0.590692
0.590693
0.590692
0.590686
0.590681
0.59068
0.590681
0.590682
0.590688
0.590702
0.590704
0.590696
0.590672
0.590659
0.590668
0.590683
0.590679
0.590655
0.59062
0.590601
0.590592
0.590566
0.590538
0.590511
0.590472
0.590447
0.59046
0.590516
0.590527
0.590522
0.590515
0.590508
0.590495
0.59049
0.590472
0.590419
0.59038
0.590374
0.590375
0.590377
0.590402
0.590461
0.590465
0.590424
0.590384
0.590383
0.590422
0.59056
0.590604
0.590601
0.590555
0.590469
0.590459
0.590484
0.590629
0.590778
0.590787
0.590713
0.590494
0.59028
0.59017
0.590104
0.590075
0.590111
0.590219
0.635394
0.754736
0.919426
1.01857
1.07658
1.12417
1.12934
1.15146
1.15973
1.16848
1.16759
1.16188
1.15546
1.15576
1.15934
1.16399
1.1636
1.16022
1.15862
1.15956
1.16244
1.16354
1.16293
1.16223
1.16261
1.16424
0.590594
0.590581
0.590577
0.590576
0.590566
0.590538
0.590516
0.590497
0.590492
0.590493
0.590502
0.590521
0.590519
0.59051
0.59051
0.590512
0.590516
0.590527
0.590558
0.590581
0.590579
0.590571
0.59057
0.590578
0.590588
0.590589
0.590577
0.590553
0.590548
0.590542
0.590519
0.590496
0.590487
0.590482
0.59048
0.590498
0.590564
0.590588
0.590585
0.590575
0.590566
0.590556
0.590531
0.590467
0.590392
0.590383
0.590383
0.590385
0.590387
0.590399
0.590401
0.590403
0.590392
0.590376
0.590385
0.590435
0.590643
0.590756
0.590753
0.59072
0.590563
0.590477
0.590487
0.5906
0.590741
0.590739
0.590583
0.590283
0.590098
0.590032
0.59002
0.590032
0.590196
0.59046
0.590682
0.590745
0.599625
0.656311
0.798914
0.942725
1.06002
1.14539
1.16055
1.1701
1.16687
1.15268
1.1532
1.15982
1.16568
1.1657
1.16222
1.1578
1.15872
1.16301
1.16518
1.1645
1.16229
1.16262
1.16396
1.1653
0.590479
0.59048
0.59048
0.590478
0.590466
0.590456
0.590449
0.590439
0.590427
0.59043
0.590455
0.590461
0.590459
0.59046
0.590473
0.590487
0.590494
0.590498
0.590501
0.590509
0.590517
0.590517
0.59052
0.590525
0.590523
0.590521
0.590522
0.590519
0.590512
0.590496
0.590471
0.590456
0.590451
0.590451
0.590461
0.590506
0.590577
0.590599
0.590596
0.590585
0.59059
0.590593
0.590563
0.590449
0.590349
0.590325
0.590326
0.590346
0.590359
0.590356
0.590335
0.590311
0.590305
0.590317
0.59036
0.590433
0.590667
0.590843
0.590841
0.590817
0.590664
0.590454
0.590422
0.59044
0.590489
0.590451
0.590229
0.590035
0.590004
0.589981
0.590016
0.590143
0.590381
0.590637
0.59081
0.590838
0.590748
0.590498
0.589896
0.604828
0.733095
0.89269
1.01374
1.11255
1.12621
1.1451
1.15598
1.17161
1.17106
1.16569
1.1589
1.15923
1.16365
1.16775
1.16717
1.1641
1.16304
1.16435
1.16674
1.16693
0.590519
0.590517
0.590508
0.590486
0.590474
0.590468
0.590455
0.590439
0.590442
0.590472
0.590481
0.590478
0.590467
0.590466
0.590488
0.590515
0.590515
0.590502
0.590483
0.590461
0.59045
0.59045
0.590451
0.590448
0.590449
0.590455
0.590461
0.590455
0.590427
0.590389
0.590373
0.590374
0.590377
0.590382
0.590408
0.59048
0.590571
0.590602
0.5906
0.590582
0.59057
0.590564
0.590519
0.590351
0.590227
0.590211
0.590241
0.590368
0.590385
0.590381
0.590348
0.590286
0.590273
0.590293
0.590331
0.590392
0.590631
0.590856
0.590857
0.590837
0.590697
0.590413
0.590212
0.590131
0.590088
0.589975
0.589794
0.589828
0.589956
0.590079
0.590181
0.590327
0.590529
0.590699
0.590852
0.590731
0.590326
0.589563
0.589096
0.589059
0.589007
0.589458
0.674899
0.831416
0.98736
1.12114
1.1586
1.17484
1.1721
1.1573
1.15762
1.16516
1.17064
1.17024
1.16585
1.16297
1.16434
1.16858
1.16892
1.16795
0.590448
0.590439
0.590435
0.590436
0.590438
0.590435
0.59043
0.590432
0.590458
0.590502
0.590503
0.590501
0.590486
0.590481
0.590504
0.590532
0.590528
0.590496
0.590445
0.590405
0.590381
0.59038
0.590392
0.590399
0.590393
0.590396
0.5904
0.590362
0.590237
0.590189
0.590193
0.590217
0.59024
0.590265
0.590306
0.590367
0.590475
0.590534
0.590532
0.59049
0.590468
0.590483
0.590498
0.590442
0.590256
0.590147
0.590152
0.590311
0.59046
0.590461
0.590451
0.590373
0.590368
0.590342
0.590317
0.590315
0.590501
0.590776
0.590805
0.590794
0.590651
0.590248
0.58993
0.589822
0.589735
0.589581
0.589568
0.589685
0.589978
0.590162
0.590265
0.590392
0.590608
0.590557
0.590216
0.589638
0.589058
0.588476
0.588425
0.588363
0.588372
0.588554
0.588596
0.588392
0.644929
0.801036
0.967388
1.09141
1.11903
1.14455
1.15806
1.17552
1.17466
1.16816
1.16322
1.16413
1.16918
1.17106
1.16952
1.16841
0.590371
0.590369
0.590383
0.590401
0.5904
0.590391
0.590389
0.590393
0.590412
0.590477
0.590525
0.590533
0.590527
0.590515
0.590529
0.590545
0.590536
0.590489
0.590433
0.590403
0.590384
0.590372
0.590357
0.590331
0.590332
0.590341
0.590311
0.590108
0.589917
0.589901
0.589929
0.59001
0.590027
0.590022
0.590022
0.59006
0.590177
0.590316
0.590373
0.590359
0.590324
0.590321
0.590412
0.590442
0.590331
0.590161
0.590147
0.590298
0.590557
0.590589
0.590543
0.590425
0.59043
0.590413
0.590309
0.590184
0.590069
0.590135
0.590335
0.590373
0.59025
0.589826
0.589547
0.589504
0.589406
0.589338
0.589391
0.589634
0.58979
0.589881
0.589882
0.58982
0.589583
0.589227
0.588813
0.588314
0.587962
0.587822
0.587695
0.587772
0.588084
0.588447
0.588367
0.587907
0.587384
0.587191
0.627306
0.763914
0.946903
1.10522
1.15474
1.17414
1.17075
1.15944
1.16134
1.16863
1.17192
1.17054
1.16748
1.168
0.590307
0.590324
0.590324
0.590321
0.590317
0.590319
0.590326
0.590337
0.590375
0.590455
0.590476
0.59047
0.590473
0.590506
0.590571
0.590598
0.590591
0.590562
0.590523
0.590442
0.590416
0.590419
0.590405
0.590343
0.590341
0.590327
0.590185
0.58984
0.589702
0.589694
0.58974
0.5898
0.589798
0.589753
0.589669
0.589692
0.58982
0.589992
0.590078
0.590106
0.590102
0.5901
0.590251
0.59036
0.590302
0.590132
0.590074
0.590215
0.590548
0.590612
0.590554
0.590395
0.590344
0.590274
0.590046
0.589591
0.589207
0.589146
0.589212
0.589235
0.589091
0.588829
0.588812
0.588827
0.588759
0.588724
0.588817
0.588901
0.588875
0.588875
0.588884
0.588821
0.588644
0.588369
0.587905
0.587549
0.587361
0.587334
0.587407
0.58791
0.588405
0.588357
0.587943
0.587321
0.587152
0.587189
0.587739
0.588163
0.617937
0.76532
0.950306
1.08764
1.11616
1.14679
1.16273
1.17426
1.17282
1.16579
1.16317
1.16769
0.590106
0.590187
0.590256
0.590281
0.59029
0.590298
0.590319
0.590372
0.590381
0.590372
0.59029
0.590255
0.590288
0.590409
0.590508
0.590528
0.590518
0.590479
0.590468
0.590454
0.590426
0.59041
0.59036
0.590272
0.590263
0.590244
0.5901
0.58977
0.589622
0.589615
0.589653
0.589623
0.589483
0.589307
0.589254
0.589324
0.589594
0.589823
0.589848
0.589769
0.589668
0.589629
0.589684
0.58992
0.589988
0.589938
0.589757
0.589623
0.589646
0.589647
0.589624
0.589632
0.589517
0.589182
0.588796
0.588445
0.588128
0.587947
0.587925
0.587935
0.587957
0.587984
0.587991
0.58794
0.587833
0.587916
0.588177
0.588498
0.588671
0.588659
0.588504
0.588214
0.587903
0.587584
0.58721
0.587142
0.587161
0.58724
0.587806
0.588527
0.588547
0.588338
0.587643
0.587261
0.587436
0.588639
0.589982
0.590646
0.590955
0.591385
0.623381
0.75868
0.951334
1.10542
1.14584
1.16308
1.16035
1.15489
1.16009
1.16457
0.589138
0.589111
0.589113
0.589156
0.589185
0.589199
0.589224
0.589226
0.589188
0.58917
0.589187
0.589227
0.589281
0.589294
0.589215
0.589086
0.589072
0.589078
0.589108
0.589178
0.58933
0.589542
0.589622
0.589587
0.589532
0.589477
0.58938
0.589293
0.589267
0.589245
0.5891
0.588597
0.588284
0.588297
0.588389
0.588576
0.58892
0.589106
0.589063
0.589032
0.58901
0.5889
0.588805
0.588748
0.588683
0.588534
0.588354
0.588071
0.587674
0.587523
0.587509
0.587564
0.587717
0.587751
0.587739
0.587622
0.587313
0.587111
0.587104
0.587148
0.587416
0.587639
0.587665
0.587623
0.587616
0.587827
0.588569
0.588859
0.588743
0.588391
0.587875
0.587644
0.5874
0.587246
0.587088
0.587169
0.587662
0.588543
0.589561
0.589422
0.588983
0.588314
0.587955
0.589251
0.591807
0.594274
0.594067
0.594086
0.595142
0.597017
0.598369
0.599169
0.635576
0.788544
0.960673
1.08678
1.11399
1.13605
1.162
1.15942
0.586728
0.586772
0.586854
0.586969
0.587018
0.587072
0.587136
0.587156
0.587192
0.587242
0.587236
0.587223
0.587241
0.587371
0.58742
0.587397
0.587397
0.587481
0.587685
0.58795
0.588211
0.588355
0.588435
0.588455
0.588453
0.588391
0.588335
0.588375
0.588402
0.588395
0.588288
0.587974
0.587675
0.587626
0.587672
0.587851
0.588102
0.588218
0.588172
0.588141
0.588288
0.588359
0.5883
0.588169
0.588053
0.587925
0.587683
0.587181
0.586795
0.586694
0.586673
0.58674
0.587091
0.587413
0.587445
0.587386
0.587139
0.586898
0.586848
0.586895
0.58738
0.588168
0.588364
0.588396
0.588459
0.588818
0.589094
0.588905
0.588385
0.587929
0.587594
0.587488
0.587276
0.587328
0.587858
0.589494
0.591042
0.592555
0.592419
0.591746
0.591539
0.592016
0.594491
0.596631
0.598419
0.598353
0.598702
0.600258
0.601722
0.602991
0.604418
0.606386
0.607185
0.607785
0.656242
0.80758
0.988717
1.0998
1.13023
1.1401
0.586076
0.586084
0.586058
0.586059
0.586081
0.586189
0.586302
0.586427
0.586593
0.586619
0.586595
0.586584
0.586628
0.586815
0.586885
0.586807
0.586742
0.586769
0.586993
0.587425
0.587567
0.587557
0.587589
0.587827
0.587921
0.587885
0.587917
0.588208
0.588549
0.588605
0.588599
0.58848
0.587925
0.587402
0.587297
0.587228
0.587125
0.58691
0.586797
0.58687
0.587355
0.587598
0.58757
0.587497
0.587534
0.587568
0.587454
0.586968
0.586616
0.586543
0.586541
0.586625
0.586983
0.58743
0.587667
0.587816
0.587909
0.587966
0.588021
0.588209
0.588923
0.58995
0.590215
0.590072
0.589854
0.589569
0.589099
0.588621
0.588143
0.587917
0.588341
0.58949
0.591444
0.593393
0.595033
0.596155
0.596802
0.596696
0.596147
0.596339
0.597394
0.599818
0.602747
0.602823
0.602821
0.603509
0.605473
0.607765
0.608961
0.609908
0.611219
0.612882
0.614216
0.615344
0.616576
0.617377
0.687929
0.860515
0.995414
1.09313
0.589282
0.589126
0.589069
0.589026
0.589023
0.589029
0.589005
0.588882
0.588822
0.588862
0.588867
0.588862
0.588813
0.588644
0.588462
0.588303
0.588134
0.587911
0.587843
0.587885
0.588058
0.588529
0.588721
0.588727
0.588641
0.588477
0.588488
0.588691
0.588825
0.588839
0.588805
0.588675
0.588454
0.58804
0.587531
0.587172
0.58687
0.586723
0.58667
0.586766
0.587292
0.587575
0.587588
0.587584
0.587679
0.587787
0.587969
0.588017
0.587821
0.587751
0.587707
0.58774
0.588073
0.588975
0.590188
0.591043
0.591538
0.591994
0.592429
0.592899
0.593143
0.59301
0.592993
0.593062
0.592941
0.592889
0.593136
0.593888
0.595058
0.596775
0.598742
0.60022
0.601164
0.601837
0.601723
0.601044
0.600162
0.600358
0.601597
0.60423
0.606861
0.60906
0.60982
0.610517
0.611327
0.612659
0.613776
0.61448
0.615952
0.617871
0.619072
0.619977
0.621235
0.622265
0.623482
0.625604
0.626272
0.632267
0.708761
0.986786
0.590688
0.590483
0.590131
0.589852
0.58978
0.589768
0.589725
0.589585
0.58922
0.588682
0.588334
0.588167
0.588079
0.588029
0.587931
0.587529
0.58664
0.586292
0.586325
0.586488
0.58688
0.587755
0.588322
0.588353
0.588253
0.588212
0.588394
0.588664
0.588697
0.588626
0.588582
0.58861
0.588606
0.588647
0.58843
0.588005
0.587941
0.587961
0.587943
0.588071
0.588573
0.589357
0.590162
0.590747
0.591306
0.592331
0.594037
0.595332
0.595773
0.595891
0.596004
0.596213
0.596621
0.597289
0.597987
0.598485
0.59889
0.599266
0.599312
0.599234
0.599258
0.599348
0.599695
0.600361
0.60108
0.601594
0.602245
0.603339
0.604714
0.605874
0.60712
0.607433
0.6071
0.60717
0.607571
0.608561
0.610293
0.612297
0.614559
0.616154
0.617579
0.617427
0.617473
0.617967
0.619051
0.620429
0.621601
0.622858
0.624356
0.626242
0.626987
0.627464
0.628707
0.630462
0.631597
0.633058
0.634828
0.634759
0.634985
0.723157
0.592493
0.592512
0.592549
0.59262
0.592848
0.593065
0.593057
0.592839
0.592588
0.592559
0.5926
0.592824
0.593418
0.593932
0.59397
0.593773
0.593497
0.593506
0.593704
0.594238
0.594955
0.595572
0.59607
0.596592
0.597207
0.597726
0.597966
0.598027
0.598074
0.598213
0.598512
0.598947
0.599596
0.60063
0.601772
0.602546
0.602819
0.602814
0.602757
0.602765
0.603023
0.603914
0.604458
0.604472
0.604512
0.604791
0.605458
0.606185
0.606415
0.606452
0.606479
0.60646
0.606454
0.606479
0.606345
0.606324
0.60651
0.606742
0.606733
0.606585
0.606671
0.60713
0.608173
0.609905
0.611831
0.613356
0.614192
0.614685
0.615423
0.615955
0.61649
0.617353
0.618144
0.618734
0.619596
0.621022
0.622621
0.623605
0.624313
0.624178
0.624175
0.624624
0.625609
0.626997
0.628658
0.629915
0.631267
0.632922
0.633782
0.634165
0.634789
0.635592
0.636656
0.637821
0.638739
0.63973
0.640875
0.641588
0.642615
0.643845
0.607785
0.607848
0.607924
0.608044
0.608197
0.608371
0.608607
0.608932
0.609298
0.609502
0.609535
0.609574
0.60975
0.609778
0.609684
0.609615
0.60963
0.609592
0.609229
0.608876
0.608898
0.609199
0.609681
0.610195
0.61049
0.610482
0.610428
0.610542
0.61091
0.61114
0.611349
0.611684
0.611886
0.612033
0.612326
0.61284
0.61311
0.613052
0.612802
0.612571
0.612422
0.61215
0.611626
0.611337
0.611338
0.6114
0.611586
0.611998
0.612111
0.612202
0.612432
0.612673
0.612977
0.613458
0.614266
0.615353
0.616501
0.617605
0.618849
0.620281
0.621586
0.622702
0.62366
0.624652
0.625534
0.626233
0.626524
0.626845
0.627271
0.627306
0.627229
0.627438
0.628213
0.629267
0.629916
0.630519
0.631101
0.631869
0.63277
0.633719
0.635044
0.636316
0.637516
0.638445
0.63904
0.639683
0.640099
0.640489
0.640931
0.641637
0.642738
0.644033
0.645037
0.64579
0.64687
0.64745
0.64781
0.648943
0.650116
0.651565
0.622704
0.622754
0.622419
0.621659
0.621485
0.62151
0.621762
0.621865
0.621802
0.621465
0.621284
0.621305
0.621629
0.621935
0.621855
0.621751
0.62202
0.622287
0.622003
0.621482
0.62148
0.621796
0.621867
0.621749
0.621406
0.620905
0.620816
0.620842
0.620916
0.62111
0.621541
0.622097
0.622409
0.622529
0.622653
0.623025
0.623817
0.62477
0.62555
0.626132
0.626702
0.627199
0.627542
0.627854
0.628312
0.62895
0.629394
0.629753
0.630343
0.631289
0.632391
0.633405
0.634228
0.634939
0.635613
0.636098
0.636475
0.636824
0.63708
0.637315
0.637502
0.637486
0.637421
0.63739
0.637281
0.636899
0.636734
0.636797
0.637232
0.637694
0.638209
0.638878
0.639872
0.641137
0.642501
0.643381
0.643882
0.64427
0.644602
0.645016
0.645441
0.645658
0.64597
0.64616
0.646599
0.647557
0.648974
0.649691
0.650427
0.651274
0.651951
0.652686
0.653396
0.654395
0.655345
0.655641
0.656086
0.656672
0.65721
0.658317
0.638718
0.638311
0.638203
0.638224
0.63834
0.638486
0.638534
0.638527
0.638529
0.638713
0.639202
0.6399
0.640461
0.640684
0.640849
0.641052
0.641124
0.641114
0.641128
0.641189
0.641142
0.641034
0.641056
0.641321
0.64143
0.641385
0.641485
0.641836
0.642023
0.642116
0.642202
0.642345
0.642677
0.642944
0.643012
0.643194
0.643795
0.644101
0.644089
0.644081
0.644133
0.64428
0.644475
0.644667
0.644862
0.645256
0.645504
0.645582
0.645666
0.645781
0.64577
0.64565
0.645366
0.645054
0.644747
0.644412
0.644373
0.644519
0.644464
0.644086
0.643478
0.643425
0.643707
0.644339
0.644848
0.645523
0.646536
0.647778
0.649111
0.650473
0.65167
0.652631
0.653315
0.653309
0.653474
0.653385
0.653202
0.65308
0.652848
0.653073
0.653522
0.654485
0.655803
0.657342
0.658813
0.65939
0.659923
0.66006
0.659999
0.660049
0.660313
0.661218
0.662044
0.663014
0.663139
0.663434
0.663958
0.664945
0.665675
0.666439
0.654052
0.654118
0.654285
0.654559
0.654627
0.654629
0.654647
0.654647
0.654617
0.654588
0.654606
0.654634
0.654593
0.654554
0.654545
0.654496
0.654486
0.654542
0.654686
0.65468
0.654674
0.6548
0.654943
0.654925
0.654908
0.65507
0.655422
0.655742
0.655823
0.655819
0.655707
0.655566
0.655574
0.655687
0.655714
0.655497
0.655194
0.655215
0.655203
0.655038
0.654707
0.654287
0.654133
0.654136
0.654195
0.654384
0.65471
0.655046
0.655184
0.655285
0.655585
0.656221
0.656637
0.65685
0.657047
0.657342
0.657797
0.658506
0.659489
0.660609
0.661729
0.662859
0.663677
0.664183
0.664663
0.665255
0.665659
0.66608
0.666035
0.665835
0.665564
0.665315
0.66501
0.664596
0.664055
0.663961
0.66425
0.664914
0.666158
0.667454
0.668615
0.669329
0.669819
0.669792
0.669536
0.668968
0.668375
0.668092
0.668559
0.669672
0.671089
0.672009
0.672287
0.671879
0.671802
0.671949
0.672634
0.673422
0.673607
0.673704
0.671557
0.671536
0.67151
0.6715
0.671511
0.671568
0.671681
0.671713
0.671716
0.671721
0.671763
0.671819
0.671811
0.6718
0.671849
0.671952
0.672091
0.672156
0.672159
0.672179
0.672282
0.672413
0.672428
0.672338
0.672233
0.672235
0.672336
0.672395
0.672414
0.672436
0.672476
0.672561
0.672677
0.67279
0.672924
0.673125
0.673526
0.673985
0.674207
0.674401
0.674678
0.674864
0.674898
0.674918
0.675
0.675113
0.675159
0.675234
0.675428
0.675735
0.676031
0.676281
0.676511
0.676783
0.676996
0.677081
0.677083
0.677022
0.676917
0.676808
0.676688
0.676596
0.676446
0.676104
0.675672
0.675216
0.674792
0.674386
0.673697
0.673156
0.67279
0.672903
0.673246
0.673959
0.674984
0.676227
0.677378
0.678216
0.679028
0.678949
0.678669
0.678141
0.677407
0.67669
0.675921
0.676282
0.677321
0.678943
0.680375
0.681303
0.681214
0.680592
0.679911
0.679195
0.679501
0.680371
0.681359
0.681482
0.681267
0.681472
0.688917
0.688902
0.688991
0.689049
0.688916
0.688741
0.688694
0.688684
0.688782
0.688949
0.688999
0.689069
0.689163
0.68917
0.689114
0.689008
0.688994
0.689044
0.689061
0.688966
0.688855
0.688854
0.68889
0.68898
0.689071
0.68908
0.689043
0.689025
0.689032
0.689041
0.689011
0.688909
0.688824
0.688818
0.688839
0.688838
0.688759
0.688588
0.688456
0.688375
0.688374
0.688391
0.688385
0.68835
0.68834
0.688351
0.688374
0.688348
0.688207
0.687893
0.687502
0.687141
0.686773
0.686376
0.686236
0.686238
0.686126
0.68575
0.685694
0.685822
0.685853
0.685704
0.685547
0.685594
0.685848
0.686451
0.68734
0.688061
0.688737
0.689474
0.690272
0.691105
0.691684
0.692056
0.692203
0.692105
0.691799
0.691334
0.690677
0.689903
0.689243
0.688746
0.688932
0.689578
0.690643
0.691682
0.692398
0.692324
0.691767
0.690839
0.689809
0.688905
0.689124
0.690131
0.691219
0.691964
0.691626
0.691105
0.690478
0.690526
0.70737
0.707178
0.707076
0.707098
0.707116
0.707041
0.707023
0.707116
0.707081
0.706768
0.706593
0.706677
0.706795
0.706848
0.706968
0.707046
0.70704
0.706941
0.706832
0.706833
0.706893
0.706886
0.706785
0.706688
0.706681
0.706691
0.706685
0.706649
0.706603
0.706597
0.706607
0.706606
0.706549
0.706407
0.70636
0.706366
0.706343
0.706253
0.706235
0.706246
0.706286
0.7063
0.706259
0.706124
0.706008
0.705989
0.705983
0.705969
0.705979
0.706067
0.706229
0.706356
0.706421
0.706435
0.706415
0.70635
0.706311
0.706364
0.706524
0.706691
0.706798
0.706859
0.706848
0.70676
0.706592
0.706479
0.706338
0.706101
0.705766
0.705276
0.704725
0.704142
0.703396
0.702545
0.701622
0.700756
0.700077
0.699425
0.699454
0.69981
0.700513
0.701501
0.702299
0.703018
0.702824
0.70235
0.701395
0.700321
0.699337
0.698674
0.699129
0.700117
0.701147
0.701493
0.701057
0.700052
0.699117
0.698147
0.69852
0.69919
0.726286
0.726242
0.726166
0.726148
0.726269
0.726385
0.726338
0.726047
0.725877
0.72594
0.726087
0.72599
0.725605
0.725455
0.725503
0.725573
0.725631
0.72566
0.725643
0.725499
0.725356
0.725349
0.725334
0.725217
0.725123
0.725085
0.725028
0.724908
0.724804
0.724755
0.72475
0.724736
0.724669
0.724514
0.724257
0.724113
0.724122
0.724128
0.724068
0.723891
0.72362
0.723468
0.723415
0.723323
0.723128
0.722904
0.722757
0.722624
0.72249
0.722361
0.722165
0.721888
0.72158
0.721322
0.721121
0.720886
0.720592
0.720276
0.719964
0.719584
0.719086
0.718601
0.7182
0.717836
0.717463
0.717074
0.716639
0.716096
0.715587
0.715588
0.715584
0.715532
0.715644
0.715951
0.716445
0.716972
0.717477
0.717856
0.718242
0.718224
0.718047
0.717547
0.716887
0.715987
0.714914
0.713769
0.713039
0.712684
0.712878
0.713384
0.713678
0.713363
0.712679
0.711395
0.710243
0.709042
0.70919
0.709856
0.710154
0.709504
0.74646
0.746519
0.746585
0.746385
0.745794
0.745605
0.745695
0.745969
0.746001
0.74599
0.745993
0.745973
0.745783
0.74558
0.745497
0.745396
0.745255
0.745231
0.745258
0.745239
0.745114
0.744898
0.74481
0.74478
0.744666
0.744552
0.744433
0.744258
0.744062
0.743844
0.743758
0.743768
0.743755
0.743655
0.743348
0.742905
0.742738
0.742753
0.742755
0.742662
0.742378
0.741955
0.741798
0.741705
0.741544
0.741221
0.740965
0.740815
0.740643
0.740433
0.740232
0.740013
0.739679
0.739313
0.739076
0.738895
0.738654
0.738314
0.738137
0.738031
0.737881
0.737556
0.737214
0.736979
0.736735
0.736588
0.736466
0.736239
0.735777
0.735516
0.735316