/*--------------------------------*- C++ -*----------------------------------*\
  =========                 |
  \\      /  F ield         | OpenFOAM: The Open Source CFD Toolbox
   \\    /   O peration     | Website:  https://openfoam.org
    \\  /    A nd           | Version:  7
     \\/     M anipulation  |
\*---------------------------------------------------------------------------*/
FoamFile
{
    version     2.0;
    format      ascii;
    class       volScalarField;
    location    "0.5601";
    object      p;
}
// * * * * * * * * * * * * * * * * * * * * * * * * * * * * * * * * * * * * * //

dimensions      [1 -1 -2 0 0 0 0];

internalField   nonuniform List<scalar> 
324000
(
0.268875
0.41936
0.609093
0.792391
0.931576
0.912992
0.867092
0.838813
0.820544
0.826609
0.836257
0.849632
0.847578
0.843877
0.841494
0.838814
0.83622
0.835391
0.833546
0.832674
0.835967
0.840139
0.842034
0.841793
0.840527
0.839098
0.839221
0.840268
0.842117
0.842965
0.843153
0.841607
0.8403
0.840098
0.84221
0.839699
0.832744
0.825055
0.818895
0.814629
0.809912
0.805483
0.80051
0.796835
0.797027
0.798502
0.800672
0.802181
0.80514
0.808627
0.815107
0.827066
0.845036
0.859646
0.865006
0.863183
0.849705
0.849841
0.889379
0.930177
0.956339
0.959139
0.957132
0.960231
0.963195
0.967938
0.975765
0.985798
0.994907
0.999378
1.00011
1.00009
1.00004
1.00001
1
1
1
1
1
1
0.131571
0.13198
0.167546
0.352653
0.621393
0.813702
0.906
0.886127
0.838755
0.836581
0.837144
0.836088
0.833681
0.837535
0.845123
0.84465
0.837591
0.835561
0.836285
0.837053
0.840382
0.843357
0.843912
0.842933
0.841268
0.840185
0.839947
0.841461
0.844016
0.84519
0.843541
0.84177
0.841177
0.840885
0.842427
0.841349
0.833926
0.825096
0.81875
0.813189
0.807692
0.803495
0.798728
0.795508
0.79567
0.796735
0.800103
0.80379
0.807535
0.810961
0.817838
0.829034
0.845138
0.860551
0.862775
0.857971
0.850413
0.849035
0.885033
0.928673
0.955838
0.957374
0.956316
0.959098
0.961957
0.966824
0.974852
0.985129
0.994534
0.99926
1.00009
1.00008
1.00004
1.00001
1
1
1
1
1
1
0.131709
0.131687
0.131689
0.131572
0.173711
0.34782
0.605202
0.809218
0.867245
0.877445
0.852709
0.829707
0.828281
0.836634
0.852565
0.853222
0.847663
0.84556
0.842824
0.84173
0.843688
0.845209
0.844414
0.841938
0.840173
0.840301
0.841009
0.841738
0.841716
0.841963
0.841655
0.841565
0.842441
0.842651
0.843386
0.841946
0.833478
0.824363
0.817456
0.811589
0.80717
0.8045
0.800829
0.796941
0.796232
0.796985
0.799071
0.805167
0.811854
0.817127
0.824442
0.831249
0.845188
0.860448
0.860387
0.851419
0.847792
0.851508
0.882325
0.928354
0.954942
0.955848
0.955363
0.957802
0.960632
0.965677
0.973938
0.984466
0.994167
0.999145
1.00007
1.00007
1.00003
1.00001
1
1
1
1
1
1
0.131703
0.131683
0.131698
0.131674
0.131668
0.131632
0.170719
0.328557
0.58454
0.811975
0.843029
0.845831
0.83384
0.831392
0.843181
0.84569
0.847845
0.852061
0.848509
0.844076
0.842066
0.842231
0.841985
0.840805
0.840103
0.841451
0.844078
0.843997
0.841358
0.840168
0.841296
0.844027
0.846659
0.847861
0.848878
0.844237
0.833537
0.822818
0.814871
0.808952
0.805229
0.802086
0.798697
0.795226
0.794334
0.798791
0.804663
0.809999
0.812736
0.815213
0.821444
0.831051
0.845025
0.859128
0.858504
0.849766
0.844828
0.853438
0.881371
0.927342
0.953123
0.95451
0.954248
0.95638
0.959218
0.96449
0.973016
0.983805
0.993809
0.999034
1.00005
1.00006
1.00003
1.00001
1
1
1
1
1
1
0.131742
0.131697
0.131664
0.131652
0.13163
0.131611
0.131676
0.13159
0.174716
0.33535
0.57801
0.799531
0.824367
0.835442
0.845112
0.841231
0.843226
0.845966
0.843156
0.83986
0.839343
0.839826
0.840717
0.840352
0.840204
0.842438
0.844547
0.843769
0.841036
0.84071
0.842913
0.847146
0.850895
0.851695
0.850547
0.843294
0.831351
0.820797
0.812591
0.806844
0.803015
0.800156
0.799616
0.799677
0.801896
0.804229
0.807074
0.808917
0.809307
0.810708
0.817398
0.829609
0.847598
0.851165
0.852657
0.850251
0.846675
0.855617
0.882469
0.925893
0.950651
0.953229
0.952984
0.954868
0.957747
0.963278
0.972079
0.983143
0.993459
0.998929
1.00003
1.00005
1.00003
1.00001
1
1
1
1
1
1
0.131659
0.131645
0.131638
0.131629
0.131613
0.131674
0.131634
0.131658
0.131734
0.131699
0.180101
0.355525
0.583106
0.738675
0.817004
0.825286
0.8397
0.836729
0.837611
0.837526
0.836803
0.838065
0.839194
0.838172
0.838152
0.840458
0.843966
0.843223
0.84193
0.84151
0.843051
0.84648
0.849434
0.850131
0.847289
0.838911
0.827023
0.818607
0.811273
0.805708
0.804104
0.804215
0.805018
0.805152
0.804964
0.806603
0.809012
0.809391
0.807451
0.808241
0.816034
0.826443
0.841546
0.852057
0.858446
0.846784
0.847292
0.856976
0.883854
0.924938
0.948053
0.95187
0.951554
0.953258
0.95625
0.962062
0.97113
0.982477
0.99312
0.998831
1.00001
1.00005
1.00003
1.00001
1
1
1
1
1
1
0.131641
0.13163
0.13163
0.131627
0.131662
0.131663
0.131673
0.131716
0.131703
0.131675
0.131659
0.13167
0.196416
0.376175
0.626384
0.740065
0.812292
0.821266
0.837271
0.839271
0.836092
0.838825
0.842655
0.841614
0.841823
0.84258
0.841987
0.83966
0.840268
0.842575
0.844597
0.846351
0.845907
0.844599
0.840487
0.833058
0.824652
0.818534
0.813002
0.809325
0.808294
0.80759
0.806949
0.805086
0.803156
0.805575
0.807795
0.807211
0.805207
0.806251
0.811703
0.828254
0.845795
0.84991
0.851906
0.852553
0.851126
0.860292
0.885477
0.922902
0.945373
0.950239
0.949798
0.951492
0.954734
0.960848
0.970172
0.981813
0.992794
0.998741
0.999992
1.00004
1.00002
1.00001
1
1
1
1
1
1
0.131629
0.131638
0.131648
0.131671
0.131684
0.131686
0.131698
0.131686
0.131674
0.131661
0.131659
0.131669
0.131678
0.133444
0.200844
0.401848
0.640296
0.756988
0.827269
0.844464
0.838589
0.846196
0.847005
0.844439
0.845136
0.844494
0.840803
0.838845
0.841278
0.843698
0.843543
0.842525
0.84141
0.83961
0.835574
0.829056
0.823488
0.819363
0.814727
0.811554
0.809173
0.805727
0.802529
0.800368
0.801357
0.80427
0.805324
0.804203
0.805085
0.809941
0.816998
0.827764
0.842226
0.844977
0.849463
0.854263
0.850096
0.856837
0.879402
0.916209
0.944178
0.948365
0.94756
0.949572
0.953197
0.95963
0.969207
0.981156
0.992485
0.998658
0.999977
1.00004
1.00002
1.00001
1
1
1
1
1
1
0.131638
0.131658
0.13167
0.131688
0.131694
0.131689
0.131674
0.131663
0.131656
0.131666
0.131676
0.131686
0.131691
0.131683
0.131655
0.137344
0.209328
0.42448
0.679306
0.815479
0.828217
0.851203
0.849981
0.844235
0.844422
0.841805
0.839469
0.841141
0.843857
0.843725
0.842331
0.840818
0.838779
0.836256
0.832947
0.828962
0.82524
0.820675
0.815615
0.81149
0.806482
0.800664
0.798222
0.798552
0.800319
0.801896
0.801359
0.800383
0.802443
0.809045
0.818271
0.830102
0.842113
0.844872
0.85266
0.858676
0.858631
0.867422
0.886249
0.917659
0.942617
0.945449
0.945142
0.947618
0.951617
0.958382
0.968233
0.980513
0.992197
0.998585
0.999964
1.00003
1.00002
1.00001
1
1
1
1
1
1
0.131674
0.131699
0.131701
0.131688
0.131678
0.131659
0.131647
0.131654
0.131668
0.13168
0.131686
0.131689
0.131679
0.131658
0.131642
0.131631
0.131613
0.141483
0.240479
0.480101
0.703076
0.830334
0.833544
0.842163
0.842883
0.837284
0.838438
0.84632
0.847615
0.844037
0.841695
0.842007
0.842792
0.841888
0.839262
0.83345
0.826565
0.819752
0.81496
0.810217
0.803306
0.797928
0.797283
0.796476
0.796522
0.796401
0.798288
0.801589
0.806959
0.813493
0.820533
0.833231
0.841981
0.843444
0.851812
0.859985
0.862008
0.869582
0.884796
0.912181
0.935237
0.942287
0.942742
0.945487
0.949926
0.95708
0.967245
0.979886
0.991931
0.998521
0.999953
1.00003
1.00002
1.00001
1
1
1
1
1
1
0.131704
0.13169
0.131664
0.131639
0.131641
0.131648
0.131667
0.131681
0.131688
0.131689
0.131682
0.131663
0.131646
0.131641
0.13164
0.131634
0.131627
0.131624
0.131616
0.152272
0.295027
0.568884
0.723631
0.820513
0.825441
0.824527
0.841822
0.852225
0.847816
0.840063
0.840977
0.844686
0.849625
0.849923
0.846434
0.837996
0.82744
0.819122
0.814384
0.809077
0.801293
0.798424
0.797021
0.794457
0.791888
0.792726
0.796932
0.801835
0.808897
0.816176
0.823052
0.832677
0.835228
0.837679
0.84718
0.85693
0.864355
0.87253
0.892299
0.918133
0.935524
0.939586
0.940297
0.943306
0.948202
0.95573
0.966235
0.979275
0.991691
0.99847
0.999944
1.00002
1.00002
1.00001
1
1
1
1
1
1
0.131645
0.131631
0.131634
0.13165
0.131672
0.131688
0.131694
0.131697
0.131693
0.131672
0.131651
0.13164
0.131643
0.131647
0.131642
0.131634
0.131629
0.131634
0.131643
0.131654
0.131656
0.17352
0.378531
0.655589
0.79169
0.818937
0.861961
0.85813
0.83951
0.837144
0.843455
0.849743
0.853248
0.852763
0.848181
0.838628
0.826573
0.817566
0.812718
0.806949
0.801764
0.799016
0.796071
0.791827
0.788701
0.791342
0.798019
0.806041
0.814289
0.818393
0.823706
0.828916
0.829915
0.834924
0.84579
0.855372
0.864344
0.875064
0.893713
0.918061
0.933409
0.936125
0.93794
0.941241
0.946499
0.954351
0.965205
0.978676
0.99147
0.99843
0.999936
1.00002
1.00001
1
1
1
1
1
1
1
0.131643
0.131665
0.131679
0.131688
0.131696
0.131699
0.131696
0.131678
0.131655
0.13164
0.131639
0.131644
0.131649
0.131649
0.131642
0.131634
0.131637
0.13165
0.131672
0.131687
0.131701
0.13167
0.134801
0.219377
0.469434
0.72532
0.843749
0.84856
0.824594
0.837852
0.84819
0.851408
0.853879
0.851876
0.844814
0.832951
0.821671
0.815741
0.811836
0.806955
0.80163
0.800482
0.796809
0.790861
0.788757
0.794394
0.802294
0.811468
0.817173
0.819671
0.824789
0.829154
0.830231
0.835082
0.84558
0.855809
0.864686
0.876073
0.895393
0.917227
0.930137
0.93312
0.935607
0.939239
0.944833
0.952971
0.964166
0.978114
0.991292
0.998386
0.999929
1.00002
1.00001
1
1
1
1
1
1
1
0.131672
0.131688
0.131699
0.131703
0.131701
0.131684
0.131663
0.131649
0.131642
0.131641
0.131644
0.131647
0.13165
0.13165
0.131643
0.131644
0.131663
0.131698
0.131747
0.131774
0.131785
0.131766
0.131701
0.131568
0.151101
0.304052
0.575431
0.74591
0.800546
0.854189
0.855067
0.853082
0.846405
0.838466
0.832074
0.8245
0.819912
0.81799
0.812779
0.805749
0.803661
0.803094
0.799003
0.793671
0.795245
0.800776
0.805366
0.809211
0.809163
0.811636
0.819985
0.826905
0.829834
0.835091
0.845048
0.855767
0.865602
0.878035
0.89641
0.915777
0.926414
0.9299
0.933047
0.937179
0.943164
0.951583
0.963132
0.977549
0.991143
0.998383
0.999926
1.00001
1.00001
1
1
1
1
1
1
1
0.131694
0.131697
0.131695
0.131683
0.131666
0.131652
0.131642
0.131641
0.131642
0.131643
0.131646
0.131649
0.131653
0.131651
0.131651
0.131669
0.131704
0.131758
0.131821
0.131877
0.131895
0.131887
0.131859
0.131826
0.131746
0.13161
0.18273
0.424265
0.707984
0.843273
0.844111
0.846133
0.837296
0.830428
0.829566
0.826679
0.824364
0.820029
0.811168
0.806741
0.806029
0.805377
0.800186
0.79756
0.802121
0.805522
0.805696
0.805141
0.802446
0.804683
0.81424
0.822239
0.826654
0.833338
0.843799
0.855249
0.866225
0.879154
0.896346
0.913745
0.922556
0.926661
0.930267
0.934938
0.941356
0.950112
0.96213
0.977061
0.990933
0.998362
0.999923
1.00001
1.00001
1
1
1
1
1
1
1
0.13169
0.131684
0.131671
0.131659
0.131648
0.131643
0.13164
0.13164
0.131642
0.131646
0.13165
0.131654
0.131658
0.131659
0.131671
0.131694
0.131739
0.131802
0.131864
0.131925
0.131965
0.131973
0.131983
0.132009
0.132013
0.132042
0.131895
0.141744
0.283914
0.585733
0.741032
0.832623
0.841676
0.834693
0.833848
0.831026
0.826811
0.819369
0.812122
0.80788
0.808459
0.805057
0.800085
0.802765
0.806388
0.801164
0.797631
0.79651
0.797132
0.803149
0.812918
0.81907
0.823495
0.831379
0.842295
0.854224
0.865996
0.878935
0.895135
0.910505
0.919015
0.923776
0.927724
0.932702
0.939441
0.948583
0.961064
0.976562
0.99096
0.998408
0.999925
1.00001
1.00001
1
1
1
1
1
1
1
0.131674
0.131661
0.131651
0.131645
0.131643
0.131642
0.131641
0.131642
0.131646
0.131652
0.131657
0.131663
0.131667
0.131674
0.13169
0.131716
0.131765
0.131828
0.131886
0.131943
0.13199
0.132018
0.13205
0.132092
0.132106
0.132131
0.132091
0.131995
0.131585
0.18511
0.442893
0.753025
0.837104
0.84269
0.848516
0.838007
0.831307
0.820044
0.81027
0.808664
0.808852
0.800666
0.797735
0.799949
0.800228
0.794274
0.790901
0.789993
0.795254
0.806677
0.814963
0.817024
0.821321
0.830488
0.841407
0.852709
0.864676
0.878068
0.893522
0.906696
0.914821
0.920172
0.924849
0.930336
0.937397
0.947007
0.960099
0.976029
0.99085
0.998432
0.999927
1.00001
1.00001
1
1
1
1
1
1
1
0.13165
0.131644
0.131643
0.131641
0.131639
0.13164
0.131644
0.131649
0.131656
0.131662
0.131669
0.131675
0.131675
0.131676
0.131685
0.13171
0.131764
0.131827
0.131883
0.13194
0.131994
0.132035
0.132068
0.132111
0.132119
0.132119
0.132081
0.13193
0.131673
0.13043
0.144034
0.320017
0.642556
0.814462
0.85278
0.834859
0.829366
0.813306
0.805026
0.80793
0.806698
0.796948
0.794329
0.797792
0.794634
0.790225
0.789354
0.791844
0.802846
0.814697
0.817437
0.816214
0.820845
0.830424
0.840778
0.851045
0.862618
0.876343
0.891141
0.903117
0.911178
0.916881
0.922087
0.927972
0.935359
0.945348
0.958993
0.975754
0.990973
0.998487
0.999931
1.00001
1
1
1
1
1
1
1
1
0.131639
0.131636
0.131636
0.131638
0.131642
0.131646
0.131653
0.13166
0.131668
0.131674
0.131679
0.131679
0.131671
0.131662
0.131657
0.131668
0.131706
0.131745
0.13179
0.131853
0.131916
0.13198
0.132016
0.132067
0.132087
0.13204
0.131929
0.131554
0.130716
0.129137
0.126815
0.124929
0.226906
0.529356
0.797368
0.798569
0.822198
0.806075
0.805699
0.806365
0.797577
0.79035
0.790768
0.790276
0.785603
0.78605
0.790281
0.797721
0.811218
0.819194
0.816355
0.814919
0.820517
0.829376
0.839023
0.849191
0.860425
0.873792
0.888069
0.89935
0.907303
0.91354
0.919556
0.925883
0.933496
0.943899
0.957997
0.975259
0.991007
0.998549
0.999936
1
1
1
1
1
1
1
1
1
0.131632
0.131636
0.131641
0.131647
0.131653
0.131658
0.131665
0.131674
0.131681
0.131683
0.131678
0.131668
0.131656
0.131647
0.131642
0.131635
0.131647
0.13164
0.131618
0.131635
0.131635
0.131671
0.131684
0.131678
0.13166
0.131433
0.130898
0.12995
0.12848
0.12668
0.124936
0.124311
0.124322
0.176689
0.429901
0.698316
0.804834
0.793414
0.817356
0.807724
0.791167
0.787544
0.7878
0.779434
0.777247
0.788854
0.795459
0.801643
0.812339
0.815377
0.812025
0.812915
0.819237
0.826746
0.835957
0.847159
0.858757
0.871151
0.884563
0.895655
0.903209
0.909285
0.915604
0.922789
0.931303
0.942255
0.957072
0.975351
0.991206
0.998627
0.999941
1
1
1
1
1
1
1
1
1
0.13164
0.131647
0.131655
0.131662
0.131669
0.131674
0.131678
0.131683
0.131687
0.13168
0.131663
0.13165
0.131645
0.131644
0.131643
0.131632
0.131625
0.131591
0.131517
0.131462
0.131357
0.131261
0.131202
0.131031
0.130751
0.130291
0.129492
0.128329
0.126693
0.125052
0.124282
0.124264
0.124904
0.125865
0.138169
0.325505
0.598544
0.750215
0.80477
0.791155
0.787964
0.798412
0.789557
0.775459
0.780461
0.79748
0.799012
0.802657
0.809466
0.808099
0.807129
0.811704
0.817104
0.822893
0.832208
0.844708
0.857394
0.868995
0.880591
0.891632
0.900293
0.906649
0.91246
0.919517
0.928652
0.940521
0.956004
0.974994
0.991389
0.99872
0.999948
1
1
1
1
1
1
1
1
1
0.131653
0.131662
0.131672
0.131681
0.131684
0.131683
0.131682
0.131685
0.131687
0.131674
0.131652
0.131645
0.131651
0.131661
0.131666
0.131654
0.131634
0.13159
0.131496
0.131375
0.131217
0.130994
0.130815
0.130531
0.130055
0.129416
0.128353
0.126764
0.124997
0.124278
0.12439
0.125039
0.126665
0.129037
0.13203
0.134881
0.206383
0.450856
0.681744
0.74872
0.7802
0.8112
0.793604
0.782643
0.793864
0.799346
0.793247
0.795274
0.800549
0.798424
0.803062
0.810639
0.813659
0.818412
0.82852
0.841618
0.855049
0.867051
0.876921
0.886397
0.895232
0.90302
0.910237
0.917634
0.92654
0.938727
0.955413
0.97525
0.991696
0.998823
0.999955
1
1
1
1
1
1
1
1
1
0.131676
0.131682
0.131685
0.131685
0.131681
0.131679
0.131681
0.131687
0.131691
0.131677
0.131663
0.13167
0.131703
0.131753
0.13178
0.131771
0.131728
0.131653
0.131532
0.131357
0.131186
0.130919
0.130595
0.130239
0.129635
0.128559
0.126822
0.125118
0.124374
0.124608
0.125599
0.126919
0.128507
0.131403
0.135492
0.140621
0.14479
0.165913
0.281769
0.5193
0.699351
0.782605
0.777805
0.792328
0.809582
0.800166
0.783657
0.784869
0.78519
0.788162
0.801156
0.808574
0.809361
0.81446
0.825851
0.837979
0.850512
0.863033
0.874006
0.882044
0.889548
0.8975
0.905649
0.914327
0.924473
0.937176
0.954288
0.975218
0.992045
0.99894
0.999962
1
1
1
1
1
1
1
1
1
0.131686
0.131681
0.131678
0.131674
0.131672
0.131676
0.131684
0.131697
0.131704
0.131706
0.131723
0.131747
0.131796
0.131879
0.131919
0.131919
0.131883
0.131811
0.131704
0.131553
0.131376
0.131102
0.130643
0.129967
0.12871
0.126838
0.125399
0.124648
0.125056
0.125844
0.127046
0.128504
0.130703
0.134778
0.140271
0.145498
0.15101
0.156274
0.160537
0.199957
0.334843
0.516944
0.684248
0.773641
0.787867
0.78188
0.763369
0.778725
0.778294
0.785152
0.80358
0.805262
0.802815
0.811529
0.823022
0.83338
0.844557
0.857041
0.869023
0.878774
0.886131
0.892969
0.900997
0.910387
0.921411
0.935401
0.954311
0.975677
0.992479
0.99906
0.999969
1
1
1
1
1
1
1
1
1
0.131669
0.131669
0.131673
0.131677
0.13168
0.131689
0.131702
0.131718
0.131733
0.131751
0.131789
0.131821
0.13186
0.131942
0.131975
0.131971
0.131939
0.131872
0.131764
0.131634
0.131413
0.131027
0.130117
0.128454
0.126651
0.125463
0.125185
0.125496
0.126157
0.12698
0.12791
0.130718
0.135112
0.13945
0.144571
0.150332
0.156133
0.162077
0.168216
0.174092
0.178619
0.216175
0.352562
0.524124
0.647621
0.729295
0.754397
0.794084
0.784246
0.797726
0.806804
0.798833
0.798836
0.809121
0.818495
0.827487
0.838121
0.849885
0.861891
0.872734
0.88183
0.890022
0.898274
0.907791
0.91907
0.933499
0.953426
0.976067
0.99299
0.999188
0.999975
1
1
1
1
1
1
1
1
1
0.131664
0.131674
0.131686
0.131697
0.131709
0.131717
0.131727
0.131745
0.13176
0.131777
0.131818
0.131849
0.131875
0.131951
0.13198
0.131968
0.131928
0.131865
0.131751
0.131547
0.130966
0.129685
0.127863
0.126323
0.125389
0.125341
0.125703
0.126206
0.126836
0.128097
0.130381
0.134451
0.14
0.145163
0.149914
0.15562
0.161185
0.167079
0.173135
0.179366
0.186035
0.192506
0.198341
0.236162
0.343666
0.516395
0.696669
0.770976
0.775018
0.807992
0.805941
0.790928
0.793623
0.804844
0.812576
0.821651
0.833266
0.844543
0.855129
0.865318
0.874997
0.884585
0.894379
0.904476
0.916291
0.932368
0.953723
0.976795
0.993555
0.999315
0.999981
1
1
1
1
1
1
1
1
1
0.131693
0.13171
0.131725
0.13174
0.131745
0.131746
0.131743
0.13175
0.131756
0.131762
0.131798
0.131852
0.131848
0.131859
0.131849
0.131743
0.131554
0.131346
0.130825
0.129781
0.128479
0.126936
0.12578
0.125082
0.12508
0.125256
0.125746
0.126274
0.127577
0.13106
0.135834
0.139867
0.144518
0.150632
0.156473
0.161649
0.167083
0.172572
0.178172
0.184139
0.190711
0.197812
0.205287
0.21321
0.220665
0.253115
0.374635
0.53472
0.690996
0.78696
0.788369
0.775589
0.798888
0.801593
0.804987
0.81675
0.829761
0.841594
0.850839
0.859077
0.868228
0.878141
0.888966
0.900519
0.913491
0.930414
0.953384
0.977636
0.994199
0.99944
0.999986
1
1
1
1
1
1
1
1
1
0.131745
0.131749
0.131759
0.131766
0.131757
0.131731
0.131681
0.131642
0.131619
0.131575
0.131536
0.131535
0.1315
0.131341
0.131139
0.130878
0.130314
0.129439
0.128495
0.127241
0.126132
0.125113
0.124615
0.12462
0.124679
0.124936
0.125657
0.128015
0.131767
0.135691
0.140968
0.146513
0.150995
0.155505
0.160696
0.165669
0.171318
0.177006
0.183184
0.189926
0.196745
0.204036
0.212037
0.220262
0.228702
0.237671
0.248046
0.289881
0.420541
0.586767
0.699167
0.762182
0.80348
0.795693
0.798
0.811457
0.822569
0.832672
0.843634
0.853795
0.863002
0.873342
0.88446
0.896352
0.910763
0.930052
0.953967
0.978739
0.994878
0.999558
0.999991
1
1
1
1
1
1
1
1
1
0.131772
0.131761
0.131759
0.131742
0.131694
0.131641
0.131565
0.131459
0.131352
0.131247
0.131121
0.130983
0.130895
0.130719
0.130291
0.129677
0.128866
0.127717
0.126571
0.125423
0.124587
0.124439
0.124326
0.12451
0.124776
0.125906
0.128783
0.133173
0.138082
0.142307
0.146133
0.15111
0.156522
0.160885
0.16553
0.170938
0.176433
0.182592
0.189125
0.195674
0.20307
0.210899
0.218787
0.227228
0.236389
0.245873
0.2557
0.26612
0.28122
0.340515
0.506809
0.702055
0.782052
0.77819
0.796399
0.805966
0.810976
0.818986
0.831487
0.845103
0.85696
0.867796
0.879592
0.892644
0.907737
0.928277
0.954393
0.980089
0.99561
0.999665
0.999994
1
1
1
1
1
1
1
1
1
0.131718
0.131698
0.131681
0.131639
0.131573
0.131511
0.131431
0.131313
0.131199
0.131089
0.130943
0.130706
0.130417
0.130046
0.129363
0.128329
0.127149
0.125872
0.124935
0.124442
0.124284
0.124401
0.124528
0.125257
0.127676
0.131397
0.135588
0.138713
0.142629
0.147601
0.151897
0.155455
0.160244
0.165845
0.171191
0.177065
0.183195
0.189485
0.196213
0.203161
0.209962
0.217352
0.22559
0.233813
0.242614
0.25205
0.262727
0.274138
0.285816
0.297748
0.329123
0.451023
0.618607
0.740793
0.790731
0.791208
0.796606
0.807831
0.820936
0.834128
0.847728
0.86104
0.873712
0.887834
0.905482
0.92844
0.955578
0.98167
0.996345
0.999758
0.999996
1
1
1
1
1
1
1
1
1
0.131659
0.131642
0.131611
0.131556
0.131497
0.131459
0.131422
0.131357
0.131298
0.131223
0.131075
0.130701
0.129938
0.128849
0.127605
0.126287
0.125346
0.124708
0.124453
0.124487
0.124607
0.125276
0.127293
0.13015
0.133436
0.136411
0.140128
0.144276
0.147465
0.151295
0.156632
0.161875
0.166175
0.171545
0.177576
0.183301
0.189212
0.195396
0.20148
0.208632
0.216352
0.223913
0.231984
0.241199
0.250726
0.260247
0.269821
0.280765
0.293246
0.306224
0.320369
0.342262
0.427767
0.609019
0.72995
0.764709
0.78877
0.805274
0.816602
0.826369
0.837894
0.852756
0.868223
0.883502
0.901971
0.927428
0.957016
0.983533
0.997077
0.999835
0.999998
1
1
1
1
1
1
1
1
1
0.131573
0.131544
0.131519
0.131484
0.131466
0.131464
0.131443
0.131397
0.131317
0.131051
0.130418
0.129371
0.127982
0.126553
0.125685
0.125078
0.12478
0.124944
0.125208
0.125829
0.127441
0.129429
0.131724
0.134465
0.137777
0.140987
0.143826
0.148423
0.153459
0.157697
0.161915
0.167546
0.173449
0.178466
0.18371
0.189592
0.195574
0.202024
0.208849
0.215357
0.222694
0.231144
0.239417
0.248146
0.257793
0.268753
0.279869
0.290776
0.302644
0.315417
0.328719
0.344313
0.363998
0.431084
0.580866
0.720058
0.779855
0.796429
0.806169
0.818409
0.832217
0.845373
0.860779
0.878879
0.90109
0.928134
0.95909
0.985577
0.997765
0.999894
0.999999
1
1
1
1
1
1
1
1
1
0.131577
0.13153
0.131493
0.131447
0.131359
0.131227
0.13099
0.130517
0.129751
0.128716
0.127548
0.126602
0.125968
0.125348
0.125181
0.12531
0.125516
0.126152
0.127554
0.128829
0.130494
0.13285
0.135398
0.138027
0.141093
0.145911
0.150401
0.154074
0.159031
0.164559
0.169707
0.173924
0.178858
0.184512
0.18995
0.195403
0.201659
0.207785
0.215018
0.222855
0.230456
0.238556
0.247713
0.256993
0.266357
0.276522
0.288348
0.300631
0.313174
0.326327
0.340869
0.354709
0.369841
0.390824
0.449077
0.584782
0.711334
0.764651
0.784593
0.8008
0.818775
0.837356
0.85469
0.873542
0.898111
0.928675
0.961804
0.987833
0.998388
0.999938
0.999999
1
1
1
1
1
1
1
1
1
0.131228
0.131023
0.130805
0.130489
0.129989
0.129314
0.128522
0.127605
0.126688
0.126108
0.125665
0.125389
0.125415
0.125409
0.125492
0.126016
0.126759
0.127523
0.129102
0.131178
0.133021
0.135729
0.139467
0.143921
0.148139
0.152056
0.157308
0.162098
0.166128
0.170295
0.175101
0.180194
0.184942
0.189969
0.195838
0.201916
0.208244
0.21521
0.221937
0.229366
0.237689
0.246177
0.255126
0.264774
0.275129
0.285528
0.29667
0.3093
0.322563
0.336846
0.351208
0.367459
0.382949
0.398515
0.421764
0.479062
0.598921
0.708809
0.761604
0.785977
0.804999
0.825793
0.847
0.8698
0.897973
0.930571
0.965185
0.99017
0.998916
0.999967
1
1
1
1
1
1
1
1
1
1
0.13045
0.130151
0.129712
0.129111
0.128349
0.127475
0.126654
0.125965
0.12533
0.125106
0.1251
0.12508
0.125332
0.125824
0.12596
0.126618
0.128017
0.129487
0.13122
0.134655
0.139056
0.143161
0.147104
0.151194
0.155889
0.15976
0.163113
0.167435
0.17182
0.17631
0.180558
0.185504
0.191181
0.196893
0.202633
0.209277
0.215892
0.22313
0.230826
0.238597
0.246808
0.25545
0.264473
0.274057
0.284529
0.295497
0.3066
0.318958
0.332634
0.346773
0.362524
0.379076
0.396428
0.413424
0.431133
0.458885
0.51726
0.625172
0.721393
0.770811
0.796592
0.816445
0.837065
0.863423
0.896469
0.933344
0.969366
0.992507
0.999331
0.999984
1
1
1
1
1
1
1
1
1
1
0.129438
0.128631
0.127667
0.126743
0.126053
0.125533
0.12517
0.124995
0.124887
0.124886
0.125035
0.125088
0.125247
0.126328
0.127997
0.129461
0.131967
0.135784
0.139623
0.142957
0.146625
0.150382
0.154155
0.157485
0.160644
0.16499
0.168857
0.172721
0.177276
0.182185
0.187446
0.19287
0.198249
0.204241
0.210639
0.216867
0.223813
0.230687
0.237989
0.245936
0.254406
0.263449
0.272837
0.282962
0.293475
0.305291
0.317748
0.329967
0.343136
0.357979
0.37392
0.390581
0.408487
0.427645
0.445756
0.467137
0.501511
0.56162
0.651805
0.728265
0.774935
0.804578
0.831824
0.863397
0.898123
0.93765
0.974154
0.994681
0.999629
0.999993
1
1
1
1
1
1
1
1
1
1
0.126555
0.125946
0.12554
0.12527
0.125151
0.125082
0.12505
0.125088
0.125164
0.12523
0.125726
0.127221
0.128812
0.130553
0.133759
0.137086
0.139847
0.142825
0.146142
0.149328
0.152346
0.155482
0.158857
0.162917
0.166631
0.170329
0.175218
0.179971
0.184745
0.189657
0.194941
0.200351
0.206222
0.212007
0.218134
0.224699
0.231518
0.238772
0.246553
0.254743
0.262962
0.272097
0.281958
0.292019
0.302767
0.314307
0.327345
0.341203
0.355479
0.370356
0.385853
0.403212
0.422212
0.441119
0.461171
0.481999
0.509719
0.552761
0.612531
0.683845
0.742331
0.784505
0.823249
0.861621
0.901326
0.943667
0.979373
0.996547
0.999819
0.999998
1
1
1
1
1
1
1
1
1
1
0.12518
0.125211
0.125268
0.125457
0.12575
0.125972
0.126181
0.126634
0.127767
0.129462
0.130747
0.132442
0.135164
0.137537
0.139652
0.142652
0.14535
0.148062
0.151059
0.154327
0.157845
0.161637
0.165491
0.16935
0.174044
0.178416
0.18257
0.187281
0.192065
0.197063
0.202247
0.207541
0.213021
0.219176
0.225509
0.232196
0.239154
0.246736
0.254694
0.263206
0.272691
0.281925
0.29204
0.30285
0.314383
0.326024
0.338143
0.352058
0.366843
0.382352
0.399437
0.41712
0.43582
0.456225
0.477094
0.498049
0.521905
0.555207
0.605211
0.663596
0.723087
0.778679
0.82316
0.863538
0.906977
0.951259
0.984713
0.998008
0.999925
0.999999
1
1
1
1
1
1
1
1
1
1
0.12584
0.126008
0.126337
0.12668
0.127072
0.127728
0.128773
0.129969
0.131151
0.133064
0.13515
0.136909
0.139382
0.142403
0.144659
0.147426
0.151108
0.154381
0.157775
0.16159
0.165415
0.169286
0.173266
0.177296
0.181105
0.185473
0.189862
0.194291
0.199112
0.204147
0.209228
0.215092
0.22104
0.227079
0.233716
0.240899
0.248475
0.256431
0.264623
0.273243
0.282249
0.292349
0.302379
0.313391
0.325147
0.338015
0.351315
0.364753
0.379677
0.39582
0.412401
0.430721
0.45045
0.471773
0.493723
0.516428
0.540281
0.570175
0.610405
0.663185
0.720316
0.773232
0.821382
0.867053
0.914693
0.960027
0.989733
0.999017
0.999975
1
1
1
1
1
1
1
1
1
1
1
0.126212
0.126368
0.126902
0.127318
0.127858
0.1289
0.130551
0.132689
0.134495
0.13627
0.139544
0.142795
0.145182
0.148412
0.152456
0.155411
0.15859
0.162379
0.16582
0.169084
0.172685
0.176242
0.179837
0.183766
0.187769
0.191779
0.196294
0.201127
0.206002
0.211296
0.217219
0.222784
0.229177
0.236063
0.243075
0.25013
0.257748
0.265665
0.27431
0.283417
0.292743
0.302547
0.313371
0.324301
0.336059
0.34885
0.362827
0.377496
0.392712
0.409133
0.427015
0.445526
0.465594
0.486975
0.510474
0.534386
0.55885
0.585718
0.621723
0.668456
0.722312
0.775946
0.825626
0.874981
0.925488
0.9698
0.993999
0.999607
0.999994
1
1
1
1
1
1
1
1
1
1
1
0.127628
0.128804
0.129933
0.131758
0.134222
0.136412
0.138379
0.140855
0.144085
0.146784
0.148978
0.152056
0.155069
0.157465
0.160361
0.163595
0.166272
0.169188
0.172575
0.175816
0.179082
0.182782
0.186754
0.190551
0.195022
0.199696
0.204461
0.209471
0.215025
0.220564
0.226212
0.23259
0.238813
0.245306
0.252296
0.259865
0.267484
0.275639
0.284089
0.293112
0.303151
0.313386
0.324309
0.336301
0.348837
0.361733
0.375457
0.390648
0.40672
0.423614
0.441645
0.461146
0.481335
0.503207
0.52718
0.553679
0.58065
0.606974
0.636103
0.675774
0.7261
0.779759
0.832936
0.886443
0.939038
0.97973
0.997112
0.999881
0.999999
1
1
1
1
1
1
1
1
1
1
1
0.133153
0.134975
0.136765
0.138489
0.140615
0.143011
0.145218
0.14724
0.149606
0.152503
0.154679
0.15694
0.160089
0.162763
0.16515
0.168363
0.171823
0.174861
0.178124
0.182153
0.186096
0.189992
0.194194
0.198885
0.203236
0.208026
0.213069
0.218252
0.223429
0.229203
0.234983
0.240864
0.247427
0.254279
0.26128
0.268727
0.276861
0.285525
0.294711
0.30433
0.314203
0.32518
0.336506
0.348445
0.36126
0.3752
0.389842
0.404878
0.421147
0.438564
0.457096
0.477111
0.49895
0.521552
0.545252
0.570904
0.599144
0.629205
0.660852
0.696372
0.738601
0.787531
0.842578
0.900832
0.954361
0.9885
0.998938
0.999975
1
1
1
1
1
1
1
1
1
1
1
1
0.138514
0.140282
0.142632
0.144716
0.146488
0.148792
0.151765
0.154344
0.156368
0.158973
0.162503
0.165068
0.167544
0.171092
0.174376
0.177237
0.18064
0.184389
0.18796
0.191403
0.195368
0.19936
0.20334
0.207558
0.21214
0.216609
0.221449
0.226652
0.232005
0.237456
0.243732
0.250214
0.25686
0.264121
0.271922
0.279886
0.288345
0.297072
0.306384
0.316335
0.327029
0.337815
0.349511
0.361958
0.375218
0.389119
0.403893
0.419879
0.436854
0.455034
0.474196
0.494303
0.51589
0.539784
0.56569
0.592808
0.620237
0.648503
0.680268
0.71776
0.761395
0.810811
0.865555
0.922796
0.970948
0.994943
0.999731
0.999997
1
1
1
1
1
1
1
1
1
1
1
1
0.146727
0.1487
0.150876
0.153435
0.155803
0.15782
0.160118
0.162924
0.16547
0.167626
0.170321
0.173408
0.175816
0.178496
0.181838
0.184835
0.18782
0.191163
0.194815
0.198414
0.201928
0.206096
0.21045
0.21468
0.219437
0.224671
0.229896
0.235341
0.241432
0.24761
0.253734
0.260623
0.267811
0.275033
0.282705
0.291011
0.29944
0.308636
0.318342
0.328333
0.338828
0.350467
0.36261
0.375382
0.388845
0.403407
0.419058
0.435378
0.452561
0.470977
0.491
0.512557
0.535201
0.558818
0.584393
0.612792
0.643509
0.675139
0.707583
0.742657
0.783263
0.832432
0.889586
0.946207
0.98521
0.998463
0.999959
1
1
1
1
1
1
1
1
1
1
1
1
1
0.154019
0.156142
0.157892
0.159869
0.162409
0.164835
0.166666
0.168762
0.171739
0.17444
0.176448
0.179259
0.182766
0.185378
0.188199
0.191973
0.195492
0.19893
0.202683
0.20685
0.211165
0.215376
0.219932
0.224931
0.229792
0.234914
0.240464
0.246219
0.251894
0.258206
0.264849
0.271365
0.278531
0.286201
0.294037
0.302255
0.311361
0.320587
0.330399
0.34116
0.352465
0.363977
0.376388
0.389867
0.40421
0.419012
0.434648
0.451626
0.469866
0.489091
0.509224
0.530867
0.554548
0.580023
0.606804
0.634929
0.665007
0.698035
0.734321
0.77374
0.817437
0.867486
0.922448
0.970427
0.99484
0.999731
0.999997
1
1
1
1
1
1
1
1
1
1
1
1
1