/*--------------------------------*- C++ -*----------------------------------*\
  =========                 |
  \\      /  F ield         | OpenFOAM: The Open Source CFD Toolbox
   \\    /   O peration     | Website:  https://openfoam.org
    \\  /    A nd           | Version:  7
     \\/     M anipulation  |
\*---------------------------------------------------------------------------*/
FoamFile
{
    version     2.0;
    format      ascii;
    class       volScalarField;
    location    "3.3";
    object      T;
}
// * * * * * * * * * * * * * * * * * * * * * * * * * * * * * * * * * * * * * //

dimensions      [0 0 0 1 0 0 0];

internalField   nonuniform List<scalar> 
1750
(
1.0624
1.20516
1.31071
1.36483
1.38651
1.37282
1.34058
1.3151
1.28823
1.29494
0.635313
0.71171
0.949756
1.04727
1.11483
1.18657
1.24039
1.25033
1.26186
1.2832
0.591121
0.584098
0.565035
0.567341
0.593119
0.735757
0.876658
1.01277
1.08025
1.15445
0.586342
0.587609
0.585518
0.564725
0.552544
0.561997
0.575276
0.643971
0.713459
0.903687
0.621545
0.62571
0.633521
0.638858
0.642066
0.646874
0.656686
0.659761
0.658017
0.668878
0.724456
0.725081
0.734215
0.733417
0.725907
0.720925
0.715977
0.712426
0.705534
0.693111
0.827923
0.809632
0.809002
0.805237
0.7921
0.779388
0.771159
0.766162
0.75644
0.746615
0.938928
0.911257
0.899479
0.893743
0.87861
0.861281
0.849173
0.840253
0.829934
0.807938
1.05441
1.02934
1.00544
0.991826
0.972449
0.947469
0.927717
0.909792
0.892984
0.868214
1.19588
1.16657
1.135
1.10744
1.07984
1.0467
1.01891
0.993195
0.967593
0.936717
1.27659
1.26178
1.24356
1.22136
1.19611
1.16417
1.13067
1.09858
1.06893
1.02605
1.26434
1.25841
1.25037
1.24308
1.23325
1.21757
1.20137
1.1829
1.16164
1.12335
1.16348
1.1815
1.19334
1.20142
1.20391
1.20083
1.19264
1.18192
1.16963
1.14509
1.02489
1.03911
1.05599
1.07423
1.09416
1.11116
1.12343
1.13109
1.1308
1.12321
1.00055
1.00117
1.00241
1.00474
1.00875
1.01566
1.02441
1.03568
1.04657
1.05888
0.731892
0.649858
0.5853
0.586983
0.641845
0.745387
0.855022
0.957197
1.0827
1.23003
1.28675
1.26637
1.13707
1.01485
1.00029
0.771607
0.648384
0.570697
0.606847
0.681091
0.787343
0.889437
0.999591
1.14125
1.27136
1.29586
1.25369
1.09936
1.00662
1.0001
0.802993
0.64957
0.565004
0.628119
0.700307
0.807238
0.918416
1.04592
1.19115
1.29953
1.30444
1.23348
1.06704
1.00287
1.00004
0.811849
0.636635
0.551917
0.633139
0.714935
0.835821
0.973292
1.10633
1.24166
1.32122
1.31292
1.20741
1.03762
1.00105
1.00001
0.809265
0.62182
0.532903
0.627494
0.747335
0.905945
1.03951
1.15993
1.28932
1.33535
1.31476
1.15938
1.01629
1.00032
1
0.790682
0.607828
0.5279
0.691314
0.83784
0.967066
1.08389
1.21488
1.33019
1.34382
1.28422
1.09736
1.00598
1.00009
1
0.77148
0.602597
0.592025
0.776927
0.892993
1.0059
1.13562
1.28345
1.35534
1.34785
1.2338
1.05057
1.00182
1.00002
1
0.715749
0.5987
0.693906
0.819138
0.929941
1.06111
1.21728
1.33753
1.36473
1.33945
1.16795
1.01828
1.00041
1
1
0.674241
0.648142
0.731004
0.852308
0.99495
1.15999
1.29235
1.36802
1.36712
1.28483
1.08642
1.00472
1.00008
1
1
0.663814
0.690386
0.77047
0.922089
1.12131
1.24719
1.34718
1.38085
1.36105
1.21615
1.0367
1.00121
1.00002
1
1
0.656321
0.710978
0.85826
1.07038
1.21644
1.31533
1.38607
1.38545
1.32602
1.12381
1.00954
1.0002
1
1
1
0.498076
0.773654
1.02109
1.18411
1.29644
1.37092
1.40035
1.38757
1.23698
1.04047
1.00146
1.00002
1
1
1
0.390588
0.918569
1.16361
1.27965
1.37004
1.39544
1.40425
1.32441
1.10781
1.00791
1.00019
1
1
1
1
0.730349
1.1153
1.28206
1.36039
1.41233
1.40082
1.37753
1.20076
1.03038
1.00106
1.00002
1
1
1
1
1.11953
1.30439
1.37021
1.40412
1.4233
1.40191
1.27458
1.06566
1.00286
1.00005
1
1
1
1
1
1.40296
1.40052
1.40188
1.41708
1.426
1.35544
1.09526
0.995595
0.999564
0.999994
1
1
1
1
1
1.40163
1.39963
1.39784
1.4133
1.42356
1.30084
1.05613
1.00157
1.00002
1
1
1
1
1
1
1.38857
1.40046
1.41231
1.4178
1.39529
1.2026
1.01298
1.00005
1
1
1
1
1
1
1
1.37948
1.40217
1.42772
1.41995
1.35126
1.09421
1.00172
1.00001
1
1
1
1
1
1
1
1.37534
1.40182
1.43531
1.41838
1.25121
1.02312
1.00013
1
1
1
1
1
1
1
1
1.37912
1.40936
1.44114
1.37232
1.13905
1.0041
1.00001
1
1
1
1
1
1
1
1
1.40935
1.41572
1.44396
1.30585
1.04143
1.00028
1
1
1
1
1
1
1
1
1
1.44924
1.41064
1.3901
1.15182
1.00457
1.00001
1
1
1
1
1
1
1
1
1
1.49188
1.37509
1.2812
1.04665
1.0004
1
1
1
1
1
1
1
1
1
1
1.51005
1.3398
1.14212
1.00502
1.00001
1
1
1
1
1
1
1
1
1
1
1.49449
1.26053
1.05019
1.0006
1
1
1
1
1
1
1
1
1
1
1
1.43128
1.17596
1.01256
1.00006
1
1
1
1
1
1
1
1
1
1
1
1.34662
1.08916
1.00219
1.00001
1
1
1
1
1
1
1
1
1
1
1
1.22668
1.0322
1.0003
1
1
1
1
1
1
1
1
1
1
1
1
1.10338
1.00526
1.00002
1
1
1
1
1
1
1
1
1
1
1
1
1
1
1
1
1
1
1
1
1
1
1
1
1
1
1
1
1
1
1
1
1
1
1
1
1
1
1
1
1
1
1
1
1
1
1
1
1
1
1
1
1
1
1
1
1
1
1
1
1
1
1
1
1
1
1
1
1
1
1
1
1
1
1
1
1
1
1
1
1
1
1
1
1
1
1
1
1
1
1
1
1
1
1
1
1
1
1
1
1
1
1
1
1
1
1
1
1
1
1
1
1
1
1
1
1
1
1
1
1
1
1
1
1
1
1
1
1
1
1
1
1
1
1
1
1
1
1
1
1
1
1
1
1
1
1
1
1
1
1
1
1
1
1
1
1
1
1
1
1
1
1
1
1
1
1
1
1
1
1
1
1
1
1
1
1
1
1
1
1
1
1
1
1
1
1
1
1
1
1
1
1
1
1
1
1
1
1
1
1
1
1
1
1
1
1
1
1
1
1
1
1
1
1
1
1
1
1
1
1
1
1
1
1
1
1
1
1
1
1
1
1
1
1
1
1
1
1
1
1
1
1
1
1
1
1
1
1
1
1
1
1
1
1
1
1
1
1
1
1
1
1
1
1
1
1
1
1
1
1
1
1
1
1
1
1
1
1
1
1
1
1
1
1
1
1
1
1
1
1
1
1
1
1
1
1
1
1
1
1
1
1
1
1
1
1
1
1
1
1
1
1
1
1
1
1
1
1
1
1
1
1
1
1
1
1
1
1
1
1
1
1
1
1
1
1
1
1
1
1
1
1
1
1
1
1
1
1
1
1
1
1
1
1
1
1
1
1
1
1
1
1.19535
1.00486
1
1
1
1
1
1
1
1
1
1
1
1
1
1
1
1
1
1
1.41585
1.0799
0.999777
1
1
1
1
1
1
1
1
1
1
1
1
1
1
1
1
1
1.62862
1.24211
1.00488
0.999986
1
1
1
1
1
1
1
1
1
1
1
1
1
1
1
1
1.74357
1.4806
1.15135
1.00029
1
1
1
1
1
1
1
1
1
1
1
1
1
1
1
1
1.71906
1.58624
1.47651
1.08993
0.999886
1
1
1
1
1
1
1
1
1
1
1
1
1
1
1
1.65013
1.63065
1.65709
1.42705
1.03967
0.999913
0.999999
1
1
1
1
1
1
1
1
1
1
1
1
1
1.58191
1.61452
1.66007
1.62183
1.29484
1.00849
0.999978
0.999999
1
1
1
1
1
1
1
1
1
1
1
1
1.58024
1.60255
1.64542
1.64194
1.52231
1.13615
1.00038
1
1
1
1
1
1
1
1
1
1
1
1
1
1.58867
1.60181
1.62145
1.64089
1.65085
1.40484
1.03581
0.999954
0.999999
1
1
1
1
1
1
1
1
1
1
1
1.60031
1.60259
1.61274
1.63613
1.65085
1.55647
1.23566
1.00522
0.999991
1
1
1
1
1
1
1
1
1
1
1
1.60091
1.60426
1.61409
1.63197
1.6472
1.61981
1.43743
1.07224
1.0001
1
1
1
1
1
1
1
1
1
1
1
1.60106
1.60515
1.61703
1.63238
1.64354
1.64003
1.58655
1.27147
1.0093
0.999991
1
1
1
1
1
1
1
1
1
1
1.60241
1.60839
1.62088
1.6334
1.641
1.63885
1.60639
1.4608
1.10526
1.00043
0.999999
1
1
1
1
1
1
1
1
1
1.60544
1.61038
1.62077
1.63281
1.63803
1.63576
1.61955
1.58533
1.30205
1.01928
1.00017
1
1
1
1
1
1
1
1
1
1.60951
1.6142
1.62456
1.63515
1.63919
1.63738
1.62604
1.60234
1.44312
1.05961
0.99476
0.999687
0.999997
1
1
1
1
1
1
1
1.23447
1.45432
1.5383
1.58765
1.61746
1.63297
1.63169
1.6209
1.58584
1.40248
1.1105
1.00618
1.00013
1
1
1
1
1
1
1
0.763773
1.25104
1.39287
1.47376
1.5424
1.59155
1.6181
1.6131
1.623
1.59663
1.39143
1.09848
1.00527
1.0001
1
1
1
1
1
1
0.742221
1.05085
1.22788
1.33858
1.42754
1.50711
1.56195
1.58685
1.61685
1.61102
1.56004
1.32732
1.06104
1.0024
1.00004
1
1
1
1
1
0.813394
0.895567
1.03395
1.18913
1.30195
1.40091
1.47772
1.53313
1.58738
1.59888
1.59273
1.50769
1.23502
1.02733
1.00069
1.00001
1
1
1
1
0.999334
0.892409
0.893202
1.00428
1.1567
1.27923
1.37323
1.45591
1.53014
1.56442
1.58393
1.57149
1.42618
1.13199
1.008
1.00013
1
1
1
1
1.04322
0.87382
0.828829
0.91708
1.03655
1.16397
1.26421
1.36636
1.44848
1.50207
1.5549
1.5664
1.54339
1.32169
1.05258
1.00159
1.00002
1
1
1
1.05873
0.860195
0.77541
0.879238
0.969555
1.08232
1.18595
1.28916
1.37223
1.43423
1.4989
1.54833
1.54173
1.45048
1.17331
1.01234
1.00019
1
1
1
1.04807
0.86416
0.749825
0.818443
0.893068
1.00604
1.10697
1.21477
1.30634
1.37569
1.4407
1.50834
1.52771
1.50405
1.32514
1.05735
1.00162
1.00002
1
1
1.00693
0.866327
0.765616
0.779765
0.825127
0.909941
1.01766
1.11874
1.22662
1.30625
1.38313
1.45902
1.50895
1.50145
1.40528
1.1486
1.00886
1.00011
1
1
0.967001
0.875234
0.810665
0.784248
0.803656
0.867504
0.954411
1.05286
1.14593
1.23129
1.31427
1.39691
1.4773
1.49337
1.44792
1.25477
1.03299
1.00068
1.00001
1
0.9368
0.883002
0.835514
0.780805
0.780537
0.850343
0.933347
1.02048
1.11097
1.1911
1.26103
1.3399
1.42557
1.478
1.46378
1.33429
1.09022
1.00336
1.00003
1
0.931219
0.897512
0.829073
0.760808
0.752317
0.823167
0.894335
0.989698
1.07669
1.157
1.2285
1.30137
1.37794
1.45298
1.45871
1.38722
1.16579
1.01301
1.00018
1
0.938339
0.909967
0.828479
0.748969
0.728448
0.773671
0.826452
0.920657
1.01635
1.10306
1.18382
1.25752
1.33496
1.41844
1.44847
1.42154
1.24788
1.03653
1.00078
1.00001
0.942313
0.910708
0.827239
0.749089
0.725679
0.749565
0.792456
0.8704
0.946424
1.02939
1.12111
1.19616
1.2818
1.37527
1.43134
1.41915
1.31489
1.0814
1.00283
1.00003
0.929269
0.900811
0.831946
0.757143
0.729158
0.750103
0.783647
0.852416
0.922783
0.995697
1.07994
1.15979
1.23363
1.32749
1.40634
1.41038
1.34525
1.14393
1.00982
1.00012
1.0794
0.873965
0.800552
0.74992
0.736636
0.7559
0.782672
0.856953
0.921344
0.991685
1.06977
1.14569
1.21441
1.29547
1.38125
1.39991
1.35533
1.18496
1.01936
1.00027
1.15684
0.891163
0.786212
0.749826
0.740438
0.750774
0.771656
0.849726
0.907394
0.978375
1.05177
1.12294
1.19129
1.26501
1.35189
1.38809
1.3615
1.22547
1.03671
1.00076
1.16945
0.896818
0.771322
0.745568
0.739165
0.738899
0.754799
0.835047
0.883152
0.945682
1.0218
1.09008
1.15628
1.22707
1.31523
1.37294
1.35767
1.25764
1.06705
1.00229
1.23038
0.968981
0.777901
0.73672
0.731125
0.725156
0.7546
0.823751
0.867492
0.928378
0.99571
1.063
1.12767
1.19361
1.27608
1.34856
1.34835
1.28263
1.1048
1.00631
1.30858
1.06519
0.812206
0.722209
0.715547
0.711548
0.759919
0.814871
0.852859
0.918604
0.979229
1.03799
1.09923
1.16109
1.23574
1.31812
1.33312
1.29478
1.14571
1.01486
1.30854
1.10831
0.86619
0.713258
0.708302
0.711158
0.76428
0.804957
0.839749
0.906941
0.961948
1.01682
1.07485
1.13224
1.19981
1.28463
1.3164
1.28994
1.17467
1.03028
1.28979
1.14996
0.971119
0.739885
0.703927
0.714418
0.761498
0.792311
0.823432
0.886451
0.93671
0.990865
1.04949
1.10466
1.16861
1.25091
1.29879
1.28124
1.19703
1.05167
1.26983
1.18445
1.05557
0.857294
0.701327
0.714615
0.754946
0.777031
0.814563
0.868344
0.913022
0.96393
1.02048
1.07546
1.13338
1.21135
1.27323
1.26746
1.20696
1.07838
1.2501
1.18241
1.06259
0.921607
0.713159
0.702223
0.73516
0.753786
0.805351
0.847521
0.889846
0.94303
0.995053
1.04974
1.1039
1.17498
1.24515
1.24849
1.20509
1.10136
1.2608
1.18885
1.10371
1.04373
0.8914
0.712689
0.710971
0.738667
0.787071
0.819585
0.862194
0.917251
0.966583
1.0179
1.0668
1.12751
1.19975
1.21374
1.19069
1.12333
)
;

boundaryField
{
    inlet
    {
        type            fixedValue;
        value           uniform 1;
    }
    outlet
    {
        type            inletOutlet;
        inletValue      uniform 1;
        value           nonuniform List<scalar> 
35
(
1.2613
1.18922
1.10376
1.04389
0.891945
0.71261
0.710793
0.738274
0.786693
0.819354
0.862033
0.917277
0.96674
1.01798
1.06693
1.12781
1.1998
1.21296
1.18945
1.12116
1.29533
1.28332
1.15462
0.903825
0.668899
0.692891
0.746497
0.80752
0.868079
0.936781
1.02621
1.12329
1.14455
1.12248
1.05804
)
;
    }
    airfoil
    {
        type            zeroGradient;
    }
    top
    {
        type            symmetryPlane;
    }
    bottom
    {
        type            symmetryPlane;
    }
    defaultFaces
    {
        type            empty;
    }
}


// ************************************************************************* //
