/*--------------------------------*- C++ -*----------------------------------*\
  =========                 |
  \\      /  F ield         | OpenFOAM: The Open Source CFD Toolbox
   \\    /   O peration     | Website:  https://openfoam.org
    \\  /    A nd           | Version:  7
     \\/     M anipulation  |
\*---------------------------------------------------------------------------*/
FoamFile
{
    version     2.0;
    format      ascii;
    class       volScalarField;
    location    "9.7";
    object      rho;
}
// * * * * * * * * * * * * * * * * * * * * * * * * * * * * * * * * * * * * * //

dimensions      [1 -3 0 0 0 0 0];

internalField   nonuniform List<scalar> 
1750
(
0.41332
0.589096
0.724809
0.850359
0.972348
0.967119
0.938653
0.939583
0.969362
1.00186
0.267546
0.346475
0.484662
0.619727
0.757221
0.841924
0.889368
0.946118
1.00408
1.01443
0.298394
0.295952
0.289897
0.297758
0.34392
0.460428
0.670184
0.849644
0.948473
1.02043
0.353344
0.358625
0.346173
0.309626
0.309652
0.324456
0.358361
0.461386
0.629945
0.916532
0.40569
0.438859
0.454083
0.449034
0.436621
0.444434
0.467654
0.506368
0.501104
0.590836
0.534024
0.552768
0.600113
0.613305
0.607794
0.595047
0.587506
0.571624
0.545366
0.553435
0.831883
0.765796
0.720326
0.725126
0.729131
0.710477
0.689589
0.68234
0.676646
0.667304
1.08627
1.06673
0.999315
0.929543
0.913607
0.88771
0.854798
0.851157
0.841066
0.797831
1.35479
1.31927
1.28391
1.20435
1.13371
1.09497
1.04651
1.00252
0.973545
0.917729
1.83644
1.70727
1.62041
1.53683
1.42745
1.34113
1.27579
1.20414
1.15293
1.08198
2.28548
2.2084
2.10435
1.98615
1.85762
1.72148
1.60453
1.49503
1.40635
1.28389
2.29286
2.28824
2.28226
2.26211
2.22106
2.15199
2.04895
1.92039
1.79621
1.5994
1.96371
2.07712
2.14763
2.19348
2.2128
2.21241
2.20321
2.1759
2.13613
1.9965
1.49966
1.55906
1.64801
1.75429
1.86848
1.97937
2.05664
2.11741
2.11978
2.13447
1.40299
1.40634
1.41526
1.43307
1.47048
1.53348
1.63291
1.77199
1.92839
2.21399
0.265309
0.241541
0.258754
0.327064
0.383838
0.564624
0.868642
1.08649
1.44866
1.96886
2.33981
2.30761
1.87713
1.4604
1.40143
0.271661
0.237014
0.248168
0.328289
0.426687
0.69968
0.956795
1.20452
1.654
2.17515
2.38278
2.27854
1.72479
1.42318
1.40042
0.290109
0.236576
0.243038
0.348256
0.519852
0.767263
1.00092
1.38514
1.8278
2.31445
2.39305
2.13472
1.58526
1.409
1.40013
0.311008
0.24303
0.247474
0.39702
0.582992
0.808927
1.09997
1.53558
2.00308
2.40193
2.39092
2.00287
1.50857
1.40364
1.40005
0.314359
0.245159
0.246722
0.411443
0.61536
0.874844
1.31124
1.70478
2.21674
2.45496
2.36691
1.87044
1.45164
1.40114
1.40002
0.284783
0.231014
0.235205
0.408032
0.699042
1.08216
1.48836
1.91657
2.40778
2.49765
2.28723
1.67724
1.41786
1.40032
1.40001
0.225314
0.21252
0.252906
0.521023
0.881598
1.29385
1.66915
2.18646
2.52467
2.51389
2.10465
1.52841
1.40535
1.40008
1.40001
0.158484
0.21191
0.383817
0.71412
1.07287
1.45259
1.90587
2.4217
2.57032
2.45517
1.83001
1.44758
1.40125
1.40002
1.40001
0.119063
0.270849
0.510327
0.839872
1.22927
1.67228
2.24871
2.59145
2.58178
2.22915
1.62898
1.41454
1.40028
1.40001
1.40001
0.10343
0.332804
0.607108
0.984191
1.5044
2.03561
2.53473
2.65706
2.5384
1.99261
1.4934
1.4033
1.40006
1.40001
1.40001
0.0834466
0.381922
0.784149
1.36235
1.9082
2.36709
2.70035
2.67429
2.37109
1.71431
1.42461
1.40062
1.40001
1.40001
1.40001
0.0748169
0.537943
1.17996
1.80799
2.27644
2.62393
2.74822
2.6224
2.06719
1.50681
1.40462
1.40009
1.40001
1.40001
1.40001
0.252015
0.969445
1.69386
2.20495
2.60136
2.78106
2.75284
2.40305
1.68448
1.42415
1.40068
1.40002
1.40001
1.40001
1.40001
0.730642
1.57118
2.21562
2.57176
2.80487
2.81727
2.61778
1.93218
1.47128
1.40285
1.40006
1.40001
1.40001
1.40001
1.40001
1.65134
2.31682
2.65205
2.78404
2.85873
2.81267
2.2581
1.55334
1.4073
1.40014
1.40001
1.40001
1.40001
1.40001
1.40001
2.89105
2.85015
2.81448
2.84704
2.86823
2.50863
1.66224
1.39087
1.39864
1.39998
1.4
1.40001
1.40001
1.40001
1.40001
2.89195
2.85741
2.8152
2.85122
2.86505
2.31712
1.57858
1.40691
1.40007
1.40001
1.40001
1.40001
1.40001
1.40001
1.40001
2.82194
2.86384
2.8902
2.86668
2.78161
1.95173
1.42665
1.40011
1.40001
1.40001
1.40001
1.40001
1.40001
1.40001
1.40001
2.78199
2.87379
2.97353
2.86925
2.49462
1.64864
1.40571
1.40003
1.40001
1.40001
1.40001
1.40001
1.40001
1.40001
1.40001
2.76933
2.90154
3.02425
2.88447
2.17423
1.47208
1.40051
1.40001
1.40001
1.40001
1.40001
1.40001
1.40001
1.40001
1.40001
2.79543
2.93906
3.04297
2.71139
1.73786
1.40872
1.40003
1.40001
1.40001
1.40001
1.40001
1.40001
1.40001
1.40001
1.40001
2.90647
2.96838
3.02505
2.27855
1.50084
1.40089
1.40001
1.40001
1.40001
1.40001
1.40001
1.40001
1.40001
1.40001
1.40001
3.14648
3.01543
2.80544
1.81566
1.41393
1.40005
1.40001
1.40001
1.40001
1.40001
1.40001
1.40001
1.40001
1.40001
1.40001
3.38063
2.89637
2.3362
1.50897
1.40096
1.40001
1.40001
1.40001
1.40001
1.40001
1.40001
1.40001
1.40001
1.40001
1.40001
3.49315
2.7181
1.83843
1.41591
1.40006
1.40001
1.40001
1.40001
1.40001
1.40001
1.40001
1.40001
1.40001
1.40001
1.40001
3.45941
2.35505
1.54479
1.40177
1.40001
1.40001
1.40001
1.40001
1.40001
1.40001
1.40001
1.40001
1.40001
1.40001
1.40001
3.12967
1.96083
1.43658
1.40021
1.40001
1.40001
1.40001
1.40001
1.40001
1.40001
1.40001
1.40001
1.40001
1.40001
1.40001
2.75694
1.66663
1.40696
1.40003
1.40001
1.40001
1.40001
1.40001
1.40001
1.40001
1.40001
1.40001
1.40001
1.40001
1.40001
2.26662
1.4898
1.40091
1.40001
1.40001
1.40001
1.40001
1.40001
1.40001
1.40001
1.40001
1.40001
1.40001
1.40001
1.40001
1.76439
1.4157
1.40006
1.40001
1.40001
1.40001
1.40001
1.40001
1.40001
1.40001
1.40001
1.40001
1.40001
1.40001
1.40001
1.40001
1.40001
1.40001
1.40001
1.40001
1.40001
1.40001
1.40001
1.40001
1.40001
1.40001
1.40001
1.40001
1.40001
1.40001
1.40001
1.40001
1.40001
1.40001
1.40001
1.40001
1.40001
1.40001
1.40001
1.40001
1.40001
1.40001
1.40001
1.40001
1.40001
1.40001
1.40001
1.40001
1.40001
1.40001
1.40001
1.40001
1.40001
1.40001
1.40001
1.40001
1.40001
1.40001
1.40001
1.40001
1.40001
1.40001
1.40001
1.40001
1.40001
1.40001
1.40001
1.40001
1.40001
1.40001
1.40001
1.40001
1.40001
1.40001
1.40001
1.40001
1.40001
1.40001
1.40001
1.40001
1.40001
1.40001
1.40001
1.40001
1.40001
1.40001
1.40001
1.40001
1.40001
1.40001
1.40001
1.40001
1.40001
1.40001
1.40001
1.40001
1.40001
1.40001
1.40001
1.40001
1.40001
1.40001
1.40001
1.40001
1.40001
1.40001
1.40001
1.40001
1.40001
1.40001
1.40001
1.40001
1.40001
1.40001
1.40001
1.40001
1.40001
1.40001
1.40001
1.40001
1.40001
1.40001
1.40001
1.40001
1.40001
1.40001
1.40001
1.40001
1.40001
1.40001
1.40001
1.40001
1.40001
1.40001
1.40001
1.40001
1.40001
1.40001
1.40001
1.40001
1.40001
1.40001
1.40001
1.40001
1.40001
1.40001
1.40001
1.40001
1.40001
1.40001
1.40001
1.40001
1.40001
1.40001
1.40001
1.40001
1.40001
1.40001
1.40001
1.40001
1.40001
1.40001
1.40001
1.40001
1.40001
1.40001
1.40001
1.40001
1.40001
1.40001
1.40001
1.40001
1.40001
1.40001
1.40001
1.40001
1.40001
1.40001
1.40001
1.40001
1.40001
1.40001
1.40001
1.40001
1.40001
1.40001
1.40001
1.40001
1.40001
1.40001
1.40001
1.40001
1.40001
1.40001
1.40001
1.40001
1.40001
1.40001
1.40001
1.40001
1.40001
1.40001
1.40001
1.40001
1.40001
1.40001
1.40001
1.40001
1.40001
1.40001
1.40001
1.40001
1.40001
1.40001
1.40001
1.40001
1.40001
1.40001
1.40001
1.40001
1.40001
1.40001
1.40001
1.40001
1.40001
1.40001
1.40001
1.40001
1.40001
1.40001
1.40001
1.40001
1.40001
1.40001
1.40001
1.40001
1.40001
1.40001
1.40001
1.40001
1.40001
1.40001
1.40001
1.40001
1.40001
1.40001
1.40001
1.40001
1.40001
1.40001
1.40001
1.40001
1.40001
1.40001
1.40001
1.40001
1.40001
1.40001
1.40001
1.40001
1.40001
1.40001
1.40001
1.40001
1.40001
1.40001
1.40001
1.40001
1.40001
1.40001
1.40001
1.40001
1.40001
1.40001
1.40001
1.40001
1.40001
1.40001
1.40001
1.40001
1.40001
1.40001
1.40001
1.40001
1.40001
1.40001
1.40001
1.40001
1.40001
1.40001
1.40001
1.40001
1.40001
1.40001
1.40001
1.40001
1.40001
1.40001
1.40001
1.40001
1.40001
1.40001
1.40001
1.40001
1.40001
1.40001
1.40001
1.40001
1.40001
1.40001
1.40001
1.40001
1.40001
1.40001
1.40001
1.40001
1.40001
1.40001
1.40001
1.40001
1.40001
1.40001
1.40001
1.40001
1.40001
1.40001
1.40001
1.40001
1.40001
1.40001
1.40001
1.40001
1.40001
1.40001
1.40001
1.40001
1.40001
1.40001
1.40001
1.40001
1.40001
1.40001
1.40001
1.40001
1.40001
1.40001
1.40001
1.40001
1.40001
1.40001
1.40001
1.40001
1.40001
1.40001
1.40001
1.40001
1.40001
1.40001
1.40001
1.40001
1.40001
1.40001
1.40001
1.40001
1.40001
2.09526
1.41261
1.40001
1.40001
1.40001
1.40001
1.40001
1.40001
1.40001
1.40001
1.40001
1.40001
1.40001
1.40001
1.40001
1.40001
1.40001
1.40001
1.40001
1.40001
3.01569
1.59486
1.39943
1.40001
1.40001
1.40001
1.40001
1.40001
1.40001
1.40001
1.40001
1.40001
1.40001
1.40001
1.40001
1.40001
1.40001
1.40001
1.40001
1.40001
4.03266
2.12145
1.41282
1.39997
1.40001
1.40001
1.40001
1.40001
1.40001
1.40001
1.40001
1.40001
1.40001
1.40001
1.40001
1.40001
1.40001
1.40001
1.40001
1.40001
4.47698
3.10225
1.76052
1.40051
1.40001
1.40001
1.40001
1.40001
1.40001
1.40001
1.40001
1.40001
1.40001
1.40001
1.40001
1.40001
1.40001
1.40001
1.40001
1.40001
4.29436
3.69154
2.89541
1.59399
1.39973
1.4
1.40001
1.40001
1.40001
1.40001
1.40001
1.40001
1.40001
1.40001
1.40001
1.40001
1.40001
1.40001
1.40001
1.40001
3.83062
3.67223
3.54732
2.481
1.49203
1.39982
1.4
1.40001
1.40001
1.40001
1.40001
1.40001
1.40001
1.40001
1.40001
1.40001
1.40001
1.40001
1.40001
1.40001
3.48482
3.58396
3.72076
3.40321
2.09223
1.41672
1.39996
1.4
1.40001
1.40001
1.40001
1.40001
1.40001
1.40001
1.40001
1.40001
1.40001
1.40001
1.40001
1.40001
3.44978
3.52909
3.65195
3.52871
2.93618
1.74019
1.40185
1.40001
1.40001
1.40001
1.40001
1.40001
1.40001
1.40001
1.40001
1.40001
1.40001
1.40001
1.40001
1.40001
3.46755
3.48419
3.51186
3.50026
3.4074
2.45536
1.48709
1.39994
1.4
1.40001
1.40001
1.40001
1.40001
1.40001
1.40001
1.40001
1.40001
1.40001
1.40001
1.40001
3.48796
3.48152
3.4566
3.48667
3.52695
3.21552
1.93652
1.40929
1.39998
1.4
1.40001
1.40001
1.40001
1.40001
1.40001
1.40001
1.40001
1.40001
1.40001
1.40001
3.49782
3.48977
3.47479
3.48465
3.50326
3.36385
2.67294
1.5836
1.4005
1.40001
1.40001
1.40001
1.40001
1.40001
1.40001
1.40001
1.40001
1.40001
1.40001
1.40001
3.50696
3.50561
3.49375
3.47328
3.44269
3.41645
3.24517
2.09291
1.42197
1.39999
1.40001
1.40001
1.40001
1.40001
1.40001
1.40001
1.40001
1.40001
1.40001
1.40001
3.52006
3.52191
3.50187
3.46282
3.4222
3.43125
3.45053
2.80873
1.63836
1.40115
1.4
1.4
1.40001
1.40001
1.40001
1.40001
1.40001
1.40001
1.40001
1.40001
3.54491
3.54081
3.51462
3.4622
3.42532
3.4273
3.45725
3.17415
2.16369
1.45074
1.40046
1.40001
1.40001
1.40001
1.40001
1.40001
1.40001
1.40001
1.40001
1.40001
3.56527
3.55046
3.51336
3.46642
3.44004
3.44107
3.48347
3.44856
2.81948
1.50518
1.39032
1.39913
1.39999
1.4
1.40001
1.40001
1.40001
1.40001
1.40001
1.40001
1.73584
2.61446
3.06385
3.27029
3.35711
3.40257
3.46005
3.49453
3.33956
2.5375
1.64084
1.41511
1.40037
1.40001
1.40001
1.40001
1.40001
1.40001
1.40001
1.40001
0.476524
1.52906
2.27945
2.72932
3.01469
3.21449
3.34893
3.45754
3.4264
3.35012
2.4962
1.62713
1.41423
1.40035
1.40001
1.40001
1.40001
1.40001
1.40001
1.40001
0.174442
0.781384
1.46263
2.06992
2.50512
2.82168
3.08891
3.28426
3.40461
3.40274
3.1351
2.28531
1.55518
1.40741
1.40015
1.40001
1.40001
1.40001
1.40001
1.40001
0.205932
0.553347
0.921737
1.41083
1.96577
2.36453
2.69783
2.97689
3.25851
3.34772
3.32199
2.96659
2.02782
1.47536
1.40236
1.40004
1.40001
1.40001
1.40001
1.40001
0.310733
0.501254
0.691024
0.976813
1.40538
1.92029
2.24414
2.61021
2.95832
3.181
3.2964
3.25671
2.70174
1.76198
1.42602
1.40055
1.40001
1.40001
1.40001
1.40001
0.3891
0.424498
0.542827
0.823433
1.07508
1.50635
1.89024
2.21882
2.62328
2.90015
3.1572
3.24195
3.14838
2.34225
1.55848
1.40651
1.4001
1.40001
1.40001
1.40001
0.425339
0.377895
0.407924
0.701003
0.942048
1.18427
1.57916
1.88939
2.31212
2.57593
2.91541
3.15637
3.15729
2.87966
1.94511
1.44607
1.40098
1.40002
1.40001
1.40001
0.444266
0.378179
0.366553
0.551155
0.82099
1.03436
1.32517
1.64204
2.0021
2.30956
2.62773
2.95625
3.12098
3.07995
2.47099
1.6287
1.40998
1.40014
1.40001
1.40001
0.444702
0.400721
0.395646
0.477163
0.651308
0.919068
1.13452
1.44262
1.73483
2.08333
2.32708
2.69567
2.9963
3.06801
2.80861
1.95186
1.45275
1.40104
1.40001
1.40001
0.453777
0.440964
0.469519
0.492685
0.530707
0.776521
0.982417
1.27047
1.56036
1.85526
2.13447
2.41499
2.78101
3.01783
2.99547
2.40506
1.58912
1.40746
1.40009
1.40001
0.448376
0.466683
0.51405
0.500952
0.510432
0.681533
0.866147
1.06626
1.39137
1.63329
1.97713
2.22159
2.56365
2.90373
2.99653
2.77412
1.8738
1.43426
1.40058
1.40001
0.434984
0.466099
0.509137
0.484675
0.484881
0.621632
0.802785
0.948048
1.2379
1.48749
1.7848
2.07085
2.32908
2.69572
2.95394
2.86727
2.2913
1.53643
1.40359
1.40004
0.431571
0.460278
0.493936
0.470045
0.467762
0.554766
0.741079
0.905564
1.06613
1.35913
1.54777
1.90739
2.15447
2.4922
2.84811
2.87528
2.5321
1.72478
1.41733
1.40022
0.428278
0.4583
0.493783
0.473932
0.470708
0.535804
0.655344
0.861444
0.993565
1.26036
1.46694
1.73615
2.019
2.3176
2.7028
2.86543
2.70826
1.95652
1.44982
1.40086
0.428186
0.448701
0.488943
0.487472
0.495875
0.548386
0.576081
0.7678
0.927584
1.13517
1.38856
1.56254
1.87151
2.12635
2.51878
2.8289
2.80834
2.31287
1.55383
1.40469
0.504591
0.456532
0.496054
0.5154
0.537704
0.55974
0.571603
0.729829
0.902716
1.03286
1.32114
1.50819
1.75359
2.00515
2.33657
2.73729
2.81063
2.50146
1.72215
1.41649
0.600302
0.500101
0.509204
0.523513
0.540772
0.560026
0.581128
0.703568
0.881176
0.992748
1.19934
1.46026
1.66006
1.92087
2.1809
2.58243
2.79343
2.62579
1.93207
1.44811
0.708149
0.590647
0.519653
0.50936
0.527069
0.544617
0.600016
0.699074
0.835708
0.981621
1.12345
1.38618
1.59023
1.82156
2.0689
2.41774
2.73609
2.70918
2.19864
1.53254
0.836264
0.719112
0.538258
0.501809
0.512506
0.520291
0.612289
0.704491
0.768633
0.960127
1.11178
1.29135
1.51389
1.71207
1.94573
2.25595
2.62796
2.70657
2.40452
1.70711
0.984393
0.873298
0.583748
0.50355
0.512054
0.517715
0.610292
0.700824
0.746103
0.897171
1.086
1.24244
1.43184
1.63007
1.84013
2.10132
2.46267
2.67465
2.53654
1.99019
1.03143
0.989221
0.761643
0.524815
0.513233
0.518937
0.605624
0.686985
0.751045
0.863861
1.02603
1.19399
1.35684
1.54214
1.74299
1.97534
2.2954
2.60655
2.57213
2.36116
1.02318
1.08682
0.977741
0.613896
0.514765
0.521989
0.596813
0.667999
0.756786
0.866299
0.977762
1.13719
1.29599
1.46775
1.6456
1.8518
2.13861
2.49767
2.61741
2.79029
0.990935
1.07994
1.05038
0.820576
0.541336
0.521693
0.58254
0.642522
0.748537
0.855211
0.941015
1.08351
1.23399
1.39788
1.56539
1.74728
1.99747
2.35048
2.69923
3.18236
0.99588
1.07402
1.11079
1.01741
0.621154
0.521409
0.567392
0.621537
0.729904
0.824291
0.907826
1.04193
1.17664
1.32914
1.49541
1.6658
1.86826
2.18997
2.71785
3.56501
1.0305
1.0882
1.15458
1.12241
0.892161
0.601054
0.571245
0.613297
0.703274
0.774478
0.861452
0.976223
1.08954
1.22547
1.37423
1.53323
1.70712
2.04793
2.78832
3.97428
)
;

boundaryField
{
    inlet
    {
        type            calculated;
        value           uniform 1.40001;
    }
    outlet
    {
        type            calculated;
        value           nonuniform List<scalar> 
35
(
1.03036
1.08817
1.15464
1.12244
0.891971
0.60085
0.571143
0.613398
0.703494
0.774558
0.861378
0.976321
1.08968
1.22556
1.37426
1.53316
1.70714
2.04799
2.78829
3.97427
1.00186
1.01461
1.02059
0.916602
0.590759
0.553309
0.667316
0.798102
0.917812
1.08197
1.28392
1.59939
1.99645
2.13446
2.21399
)
;
    }
    airfoil
    {
        type            calculated;
        value           nonuniform List<scalar> 
60
(
0.265309
0.271661
0.290109
0.311008
0.314359
0.284783
0.225314
0.158484
0.119063
0.10343
0.0834466
0.0748169
0.252015
0.730642
1.65134
2.89105
2.89195
2.82194
2.78199
2.76933
2.79543
2.90647
3.14648
3.38063
3.49315
3.45941
3.12967
2.75694
2.26662
1.76439
2.09526
3.01569
4.03266
4.47698
4.29436
3.83062
3.48482
3.44978
3.46755
3.48796
3.49782
3.50696
3.52006
3.54491
3.56527
1.73584
0.476524
0.174442
0.205932
0.310733
0.3891
0.425339
0.444266
0.444702
0.453777
0.448376
0.434984
0.431571
0.428278
0.428186
)
;
    }
    top
    {
        type            symmetryPlane;
    }
    bottom
    {
        type            symmetryPlane;
    }
    defaultFaces
    {
        type            empty;
    }
}


// ************************************************************************* //
