/*--------------------------------*- C++ -*----------------------------------*\
  =========                 |
  \\      /  F ield         | OpenFOAM: The Open Source CFD Toolbox
   \\    /   O peration     | Website:  https://openfoam.org
    \\  /    A nd           | Version:  7
     \\/     M anipulation  |
\*---------------------------------------------------------------------------*/
FoamFile
{
    version     2.0;
    format      ascii;
    class       volScalarField;
    location    "6.5";
    object      rho;
}
// * * * * * * * * * * * * * * * * * * * * * * * * * * * * * * * * * * * * * //

dimensions      [1 -3 0 0 0 0 0];

internalField   nonuniform List<scalar> 
90000
(
0.724931
0.768038
0.80895
0.848589
0.888233
0.924106
0.959297
0.996384
1.03235
1.06669
1.10205
1.13561
1.16804
1.1984
1.22612
1.25014
1.27028
1.28707
1.29669
1.30419
1.30789
1.30826
1.30782
1.30772
1.30739
1.3062
1.30378
1.3
1.29459
1.28891
1.28335
1.28228
1.28421
1.28879
1.29371
1.29794
1.30111
1.30314
1.30372
1.30287
1.30019
1.29566
1.29266
1.29077
1.29164
1.2941
1.29822
1.30133
1.30134
1.29984
1.29708
1.29396
1.29318
1.29421
1.29656
1.29916
1.29995
1.29899
1.29628
1.29437
1.29462
1.29622
1.29797
1.29768
1.29613
1.29498
1.29538
1.29662
1.29653
1.29567
1.29456
1.29434
1.29455
1.29441
1.29395
1.29358
1.29366
1.29358
1.29321
1.29265
1.29262
1.29294
1.29355
1.29495
1.29781
1.30144
1.30399
1.30443
1.3046
1.30467
1.30485
1.30484
1.30426
1.3041
1.30408
1.30386
1.30413
1.30442
1.30398
1.30453
0.688946
0.689154
0.689695
0.690805
0.692932
0.696385
0.7014
0.709285
0.719958
0.73476
0.753616
0.778488
0.807937
0.844389
0.88539
0.932543
0.981098
1.03532
1.08194
1.12776
1.16449
1.19673
1.22188
1.24249
1.25574
1.26581
1.27214
1.27447
1.27605
1.27763
1.28308
1.2895
1.29619
1.30213
1.30537
1.30758
1.30697
1.30612
1.304
1.29758
1.29251
1.28909
1.29057
1.29226
1.29517
1.29897
1.3019
1.30183
1.30008
1.29648
1.293
1.29148
1.29224
1.29537
1.29893
1.30145
1.30052
1.29748
1.29424
1.29445
1.29526
1.29723
1.29895
1.2977
1.29543
1.29508
1.296
1.29754
1.297
1.29566
1.29479
1.29485
1.29527
1.29504
1.29445
1.29411
1.29433
1.29425
1.29386
1.29337
1.29339
1.29375
1.29443
1.29598
1.29892
1.3026
1.30513
1.30567
1.30593
1.30611
1.30645
1.30643
1.30586
1.30573
1.30572
1.30552
1.30584
1.30598
1.30548
1.30583
0.689364
0.689394
0.689424
0.689454
0.689488
0.689528
0.689582
0.68966
0.689783
0.69002
0.690442
0.691188
0.692396
0.694503
0.698001
0.703953
0.713503
0.728177
0.750201
0.778567
0.817091
0.861201
0.91406
0.969379
1.02748
1.08313
1.13556
1.18068
1.22248
1.25144
1.27923
1.29155
1.30025
1.30229
1.30419
1.30658
1.30615
1.30311
1.29516
1.2859
1.28825
1.2931
1.29794
1.30277
1.30689
1.30628
1.30421
1.30015
1.29522
1.29271
1.29285
1.294
1.29853
1.30349
1.30354
1.30226
1.29855
1.29612
1.29535
1.29653
1.29998
1.30121
1.29984
1.29722
1.29631
1.29736
1.29931
1.29914
1.29785
1.29659
1.29636
1.29716
1.29722
1.29655
1.2959
1.29594
1.29624
1.29594
1.29542
1.29506
1.29514
1.29553
1.29621
1.29795
1.30091
1.30439
1.30681
1.3075
1.30794
1.30819
1.30845
1.30839
1.30771
1.30756
1.30748
1.30717
1.30741
1.30732
1.3066
1.30676
0.69019
0.69023
0.690268
0.690308
0.690352
0.690399
0.69045
0.690506
0.690571
0.690615
0.690661
0.690706
0.690752
0.690804
0.690866
0.69095
0.691076
0.691286
0.691746
0.69261
0.694346
0.697474
0.703669
0.714028
0.731989
0.758241
0.796337
0.845135
0.90519
0.971642
1.04222
1.10419
1.15938
1.20059
1.23232
1.25386
1.26492
1.27569
1.28014
1.29013
1.3006
1.30983
1.31826
1.31835
1.31515
1.3089
1.30175
1.29709
1.2944
1.29469
1.29825
1.30455
1.31004
1.30921
1.30663
1.30088
1.29781
1.29745
1.30024
1.30435
1.30568
1.30382
1.29982
1.29794
1.29937
1.3026
1.30253
1.30092
1.299
1.29871
1.29961
1.30024
1.29957
1.29855
1.29836
1.29872
1.29862
1.29817
1.29773
1.29749
1.29748
1.29773
1.29841
1.30028
1.30314
1.30642
1.30881
1.30951
1.31001
1.31021
1.31037
1.31016
1.30937
1.30913
1.30892
1.30841
1.30856
1.30826
1.30734
1.30734
0.691148
0.691186
0.691226
0.691268
0.691311
0.691354
0.691398
0.691443
0.691487
0.691533
0.691576
0.691614
0.691654
0.691698
0.691747
0.691803
0.691862
0.691946
0.691987
0.69202
0.692055
0.692098
0.692163
0.69228
0.692528
0.693088
0.694421
0.697386
0.703549
0.716381
0.737719
0.774933
0.823788
0.890571
0.963449
1.04334
1.11496
1.18325
1.23301
1.27429
1.29313
1.29971
1.30782
1.30961
1.31013
1.30791
1.29978
1.2988
1.30116
1.30657
1.3128
1.31586
1.31384
1.3098
1.30287
1.29941
1.29969
1.30327
1.30921
1.30986
1.30826
1.30323
1.30013
1.30134
1.30499
1.30673
1.30484
1.30197
1.30092
1.30168
1.30314
1.30283
1.3018
1.30098
1.30115
1.30132
1.30091
1.30032
1.3
1.29983
1.29971
1.29986
1.3005
1.30238
1.30508
1.30818
1.31045
1.31113
1.31171
1.31182
1.31183
1.31153
1.31061
1.31026
1.30992
1.30921
1.30925
1.30882
1.30777
1.30765
0.692011
0.692038
0.692068
0.692097
0.692128
0.692159
0.69219
0.692222
0.692255
0.692288
0.692321
0.692354
0.692387
0.692419
0.692451
0.69248
0.692511
0.692536
0.692564
0.692586
0.692613
0.692642
0.692678
0.692718
0.692775
0.692832
0.692841
0.692856
0.692897
0.693007
0.693302
0.694204
0.69647
0.702534
0.715294
0.740768
0.784079
0.844562
0.925841
1.01375
1.09917
1.15978
1.2211
1.24704
1.27422
1.28245
1.2913
1.30729
1.31746
1.32359
1.32564
1.32379
1.31616
1.30382
1.29898
1.30005
1.30566
1.31221
1.31534
1.31293
1.30589
1.30207
1.30292
1.30705
1.30978
1.30876
1.30561
1.30298
1.3033
1.30507
1.30556
1.30448
1.30331
1.30293
1.30341
1.30314
1.30242
1.30171
1.30164
1.30143
1.30117
1.30126
1.30199
1.30381
1.30624
1.30917
1.31144
1.31218
1.31283
1.31286
1.3126
1.31227
1.31135
1.31094
1.31051
1.30968
1.30963
1.30908
1.308
1.30785
0.692616
0.692632
0.692648
0.692665
0.692682
0.692699
0.692716
0.692734
0.692752
0.69277
0.692788
0.692807
0.692825
0.692844
0.692862
0.692881
0.6929
0.692918
0.692936
0.692954
0.692971
0.692988
0.693005
0.693021
0.693038
0.693051
0.693067
0.693088
0.693111
0.693138
0.693202
0.693197
0.693202
0.693228
0.693328
0.693681
0.694916
0.698374
0.708565
0.729583
0.773137
0.837506
0.922525
1.02064
1.1144
1.19465
1.25284
1.29686
1.30604
1.31165
1.31677
1.31401
1.30055
1.29905
1.30231
1.31045
1.31721
1.31739
1.31466
1.30625
1.30156
1.30253
1.30858
1.31257
1.31164
1.30702
1.30386
1.3039
1.30608
1.30748
1.30635
1.30465
1.30398
1.30452
1.3047
1.30391
1.30308
1.30258
1.30266
1.30236
1.30203
1.30204
1.30276
1.30445
1.3068
1.30976
1.31199
1.31274
1.31345
1.31347
1.31302
1.31264
1.31174
1.31133
1.31086
1.30993
1.30979
1.30917
1.30811
1.30802
0.692962
0.692969
0.692977
0.692985
0.692994
0.693002
0.69301
0.693019
0.693027
0.693036
0.693045
0.693054
0.693064
0.693074
0.693085
0.693096
0.693107
0.693118
0.693129
0.69314
0.693152
0.693164
0.693175
0.693188
0.6932
0.693211
0.69322
0.693231
0.693239
0.69325
0.693252
0.693262
0.693272
0.693282
0.693302
0.693296
0.693288
0.693295
0.693345
0.693582
0.694607
0.698162
0.708121
0.735009
0.781844
0.864307
0.963474
1.07464
1.15659
1.21388
1.26099
1.27822
1.28852
1.30298
1.31911
1.32876
1.32612
1.32064
1.30532
1.29812
1.30023
1.3082
1.31606
1.3149
1.30885
1.30384
1.30313
1.3059
1.30925
1.3085
1.30632
1.3043
1.30447
1.30571
1.30523
1.30415
1.30306
1.30307
1.30293
1.30246
1.30226
1.30244
1.30333
1.30463
1.30678
1.3098
1.31217
1.31303
1.31383
1.31379
1.31319
1.31279
1.31191
1.31157
1.31115
1.31014
1.30989
1.30921
1.30815
1.30813
0.69313
0.693134
0.693138
0.693142
0.693147
0.693151
0.693156
0.693161
0.693166
0.693171
0.693177
0.693182
0.693188
0.693194
0.693201
0.693208
0.693215
0.693221
0.693229
0.693237
0.693245
0.693253
0.693261
0.693269
0.693277
0.693285
0.693292
0.693299
0.693305
0.69331
0.693312
0.693315
0.693315
0.693313
0.693308
0.693309
0.693308
0.693307
0.693308
0.6933
0.69329
0.693298
0.693354
0.693711
0.695115
0.700674
0.717577
0.75622
0.832713
0.9327
1.04715
1.15532
1.23921
1.28834
1.30712
1.3175
1.31749
1.30496
1.29437
1.29963
1.31056
1.31762
1.31683
1.3095
1.3015
1.30159
1.30422
1.31045
1.3101
1.30767
1.30431
1.30404
1.30587
1.3064
1.30522
1.30354
1.30302
1.30345
1.30305
1.30232
1.30221
1.3027
1.30357
1.30471
1.30678
1.30976
1.31223
1.31326
1.31412
1.31401
1.31337
1.31293
1.31203
1.31171
1.31133
1.31025
1.30994
1.30928
1.30822
1.30826
0.693207
0.693209
0.693212
0.693215
0.693218
0.693221
0.693224
0.693228
0.693231
0.693236
0.69324
0.693244
0.693248
0.693252
0.693257
0.693263
0.693268
0.693275
0.693281
0.693288
0.693294
0.6933
0.693305
0.69331
0.693314
0.693317
0.69332
0.693323
0.693326
0.693327
0.693326
0.693326
0.693325
0.693318
0.693313
0.693308
0.693301
0.693296
0.693291
0.693284
0.693284
0.693287
0.693291
0.693289
0.693295
0.693331
0.693506
0.694315
0.698165
0.710968
0.747566
0.82033
0.932315
1.05512
1.15706
1.22587
1.26365
1.27883
1.29655
1.31522
1.32777
1.32335
1.31263
1.29852
1.29859
1.30219
1.3101
1.31301
1.30976
1.30333
1.30302
1.30529
1.30747
1.30646
1.3037
1.30287
1.30348
1.30355
1.30289
1.30207
1.30225
1.30311
1.3036
1.30429
1.3065
1.30972
1.31237
1.31355
1.31426
1.3141
1.31329
1.31301
1.31218
1.31184
1.31148
1.31025
1.30981
1.30916
1.3082
1.30825
0.693275
0.693277
0.693279
0.693281
0.693284
0.693287
0.693289
0.693292
0.693296
0.693299
0.693303
0.693306
0.693309
0.693313
0.693316
0.69332
0.693324
0.693327
0.693331
0.693333
0.693336
0.693339
0.69334
0.693341
0.693342
0.693344
0.693344
0.693343
0.693342
0.69334
0.693338
0.693335
0.69333
0.693322
0.693316
0.693307
0.6933
0.693295
0.693293
0.693293
0.693296
0.693301
0.69331
0.693327
0.693348
0.693377
0.693391
0.693408
0.693437
0.69355
0.694216
0.69749
0.711431
0.75161
0.835013
0.954413
1.0857
1.20092
1.27729
1.30378
1.31545
1.31516
1.29624
1.29578
1.30211
1.31209
1.31498
1.31151
1.30211
1.30021
1.30291
1.30823
1.3078
1.30439
1.3021
1.30283
1.30412
1.30357
1.30192
1.30167
1.30263
1.30324
1.30318
1.30386
1.30635
1.30977
1.3123
1.31386
1.31432
1.31399
1.3133
1.31306
1.31231
1.31183
1.31155
1.31022
1.30967
1.3091
1.30829
1.30832
0.693345
0.693346
0.693347
0.693349
0.693351
0.693353
0.693355
0.693357
0.693359
0.693362
0.693364
0.693367
0.693369
0.693371
0.693373
0.693374
0.693375
0.693375
0.693376
0.693376
0.693375
0.693374
0.693373
0.69337
0.693368
0.693366
0.693366
0.693363
0.693359
0.693358
0.693354
0.693348
0.693343
0.693339
0.693336
0.693334
0.693333
0.693335
0.693339
0.693345
0.693356
0.69337
0.693387
0.693405
0.693423
0.693438
0.693448
0.693454
0.693457
0.693449
0.693436
0.693437
0.693539
0.694322
0.698687
0.71707
0.768533
0.87388
1.01183
1.13589
1.21689
1.26305
1.27838
1.30005
1.31932
1.32304
1.31859
1.30118
1.29631
1.30005
1.30891
1.31005
1.30601
1.30141
1.30174
1.30452
1.30442
1.30256
1.30113
1.30162
1.30334
1.30318
1.30276
1.30359
1.30635
1.30965
1.31232
1.31422
1.31422
1.31393
1.31337
1.31308
1.31238
1.31189
1.31159
1.3102
1.30956
1.30908
1.3084
1.30842
0.693406
0.693407
0.693408
0.693409
0.693409
0.69341
0.69341
0.693411
0.693411
0.693411
0.69341
0.69341
0.69341
0.693409
0.693408
0.693405
0.693403
0.6934
0.693399
0.693398
0.693393
0.69339
0.69339
0.693387
0.693382
0.69338
0.693381
0.693378
0.693373
0.693372
0.693372
0.693369
0.693367
0.693369
0.693372
0.693378
0.693386
0.693397
0.69341
0.693426
0.693444
0.693463
0.693484
0.693499
0.693509
0.693509
0.693502
0.693491
0.693475
0.693454
0.693422
0.693399
0.693397
0.693399
0.693425
0.693624
0.694989
0.702743
0.734479
0.813334
0.941211
1.0908
1.21351
1.28572
1.30656
1.31375
1.30253
1.28995
1.29841
1.31037
1.31341
1.30904
1.29944
1.29979
1.30366
1.30611
1.30455
1.30075
1.30081
1.30314
1.30383
1.30279
1.30239
1.30351
1.30642
1.30952
1.31245
1.31456
1.3143
1.31396
1.31353
1.31315
1.31249
1.31198
1.31162
1.31019
1.30956
1.30914
1.30857
1.30852
0.693453
0.693452
0.693451
0.693448
0.693447
0.693445
0.693443
0.69344
0.693437
0.693435
0.693431
0.693425
0.693423
0.693419
0.693415
0.693412
0.693408
0.693404
0.693402
0.6934
0.693395
0.693391
0.693387
0.693382
0.693379
0.693379
0.693379
0.693376
0.693375
0.693375
0.693376
0.693379
0.693386
0.693396
0.69341
0.693428
0.693448
0.693466
0.693486
0.693506
0.693526
0.693546
0.693565
0.693569
0.693567
0.69356
0.693544
0.69352
0.693495
0.693464
0.693422
0.693394
0.693392
0.693394
0.693406
0.693435
0.693483
0.693578
0.694109
0.697451
0.715676
0.771337
0.89537
1.04856
1.16505
1.24546
1.26885
1.291
1.31598
1.32251
1.31732
1.2986
1.29548
1.30046
1.30772
1.30675
1.30175
1.29977
1.30224
1.30508
1.30418
1.30201
1.30222
1.30396
1.30663
1.30939
1.31283
1.3147
1.31448
1.31415
1.31382
1.31327
1.31261
1.31211
1.31162
1.3102
1.30962
1.30928
1.30877
1.30864
0.693483
0.69348
0.693476
0.693473
0.69347
0.693466
0.693462
0.693457
0.693452
0.693446
0.69344
0.693434
0.693428
0.69342
0.693414
0.69341
0.693403
0.693397
0.693395
0.693391
0.693387
0.693382
0.693378
0.693377
0.693376
0.693375
0.693375
0.693376
0.693377
0.693381
0.693389
0.6934
0.693417
0.693438
0.69346
0.693484
0.693505
0.693524
0.693543
0.693559
0.693573
0.693588
0.693598
0.693597
0.693592
0.693578
0.693555
0.693524
0.693494
0.693458
0.693418
0.693405
0.693405
0.69341
0.693435
0.693489
0.69355
0.693614
0.693653
0.693683
0.693869
0.69535
0.706727
0.750099
0.858392
1.01159
1.16443
1.2667
1.30353
1.3114
1.30039
1.28918
1.29914
1.31093
1.30972
1.30331
1.29828
1.2997
1.3062
1.30585
1.30303
1.30165
1.30267
1.30442
1.30623
1.30915
1.31351
1.31485
1.31469
1.31448
1.31417
1.31343
1.3128
1.31225
1.31162
1.31026
1.30976
1.3095
1.30897
1.30876
0.693498
0.693493
0.693489
0.693486
0.693482
0.693475
0.69347
0.693464
0.693457
0.69345
0.693445
0.693441
0.693434
0.693428
0.693424
0.69342
0.693416
0.693411
0.693408
0.693404
0.693401
0.693397
0.693395
0.693395
0.693395
0.693396
0.693399
0.693403
0.693409
0.693421
0.693438
0.693458
0.693479
0.693499
0.693517
0.693533
0.693546
0.69356
0.693573
0.693581
0.693589
0.693595
0.693604
0.693603
0.693597
0.693578
0.693543
0.693516
0.693489
0.693456
0.693434
0.693426
0.693432
0.693456
0.693503
0.693556
0.6936
0.693634
0.693661
0.693678
0.693663
0.69362
0.693679
0.69454
0.701919
0.736053
0.838006
0.99494
1.14234
1.22891
1.26798
1.28877
1.31951
1.31936
1.31156
1.296
1.29739
1.30521
1.30894
1.30568
1.30118
1.30175
1.30391
1.30466
1.30565
1.30909
1.31427
1.31498
1.31488
1.31492
1.31448
1.3136
1.31302
1.31237
1.3116
1.31035
1.30998
1.30982
1.30918
1.30888
0.693479
0.693472
0.693471
0.693472
0.693469
0.693463
0.69346
0.693456
0.693451
0.693451
0.693451
0.693448
0.693444
0.693442
0.69344
0.693439
0.693438
0.693438
0.693439
0.693439
0.69344
0.69344
0.693442
0.693446
0.693452
0.693459
0.693469
0.693481
0.693492
0.693506
0.693519
0.69353
0.693539
0.693548
0.693555
0.693561
0.693568
0.693576
0.693582
0.693587
0.69359
0.693594
0.693591
0.693583
0.693568
0.693543
0.693526
0.69351
0.69349
0.69348
0.693485
0.693494
0.693516
0.693554
0.69359
0.693613
0.693625
0.693638
0.693655
0.693648
0.693611
0.693575
0.693545
0.69351
0.693546
0.694131
0.699743
0.731969
0.825488
0.983568
1.15862
1.26055
1.30838
1.30771
1.29239
1.29333
1.30515
1.31199
1.30889
1.29993
1.2999
1.30346
1.30468
1.30345
1.30461
1.30961
1.31471
1.31505
1.31509
1.31534
1.31476
1.3138
1.31327
1.31246
1.31155
1.31047
1.31031
1.31018
1.30938
1.30902
0.693455
0.693454
0.693454
0.693453
0.693453
0.693454
0.693453
0.693453
0.693454
0.693455
0.693457
0.693459
0.693462
0.693466
0.693472
0.693477
0.693484
0.693493
0.6935
0.693509
0.69352
0.693526
0.693531
0.693541
0.693548
0.693555
0.693566
0.693573
0.693576
0.69358
0.69358
0.693577
0.693572
0.693568
0.693566
0.693564
0.693558
0.693549
0.693536
0.693526
0.693523
0.693522
0.69352
0.693517
0.693511
0.693512
0.693518
0.693518
0.693529
0.693551
0.693578
0.693609
0.693638
0.693659
0.693662
0.693649
0.693631
0.693615
0.693607
0.693576
0.693543
0.693542
0.693533
0.693539
0.693571
0.693592
0.693642
0.694173
0.698925
0.729697
0.826836
0.992901
1.15903
1.22916
1.27054
1.29759
1.32081
1.31713
1.30114
1.29611
1.3012
1.30547
1.3034
1.30165
1.3043
1.31115
1.31468
1.31496
1.31543
1.31572
1.31495
1.31402
1.31352
1.31255
1.31155
1.31069
1.3107
1.31048
1.30958
1.30919
0.693445
0.693447
0.69345
0.693453
0.693457
0.693461
0.693466
0.693474
0.693482
0.693491
0.6935
0.693512
0.693523
0.693533
0.693548
0.693561
0.693572
0.693585
0.693596
0.693603
0.693613
0.69362
0.693622
0.693625
0.693628
0.693628
0.693626
0.693622
0.693614
0.693605
0.693594
0.693582
0.693571
0.69356
0.693543
0.693522
0.693501
0.693478
0.693456
0.693451
0.693451
0.693453
0.693459
0.693467
0.693479
0.693496
0.693512
0.693545
0.693585
0.693624
0.693664
0.693695
0.69371
0.693707
0.69369
0.69365
0.693581
0.69355
0.693533
0.693501
0.693499
0.693522
0.693554
0.693607
0.69366
0.693695
0.69372
0.693715
0.693732
0.694192
0.699011
0.734855
0.836626
1.012
1.19067
1.2731
1.30768
1.30128
1.29049
1.29967
1.30828
1.30598
1.29856
1.29983
1.30625
1.31262
1.31398
1.31457
1.31616
1.31602
1.31506
1.31411
1.31373
1.31266
1.3116
1.31106
1.3111
1.31074
1.30984
1.30939
0.693471
0.693478
0.693486
0.693497
0.693507
0.693516
0.693529
0.693543
0.693554
0.693567
0.693579
0.693592
0.693608
0.69362
0.693631
0.693643
0.693654
0.69366
0.693666
0.69367
0.693671
0.69367
0.693668
0.693664
0.693658
0.693649
0.69364
0.693628
0.693614
0.693599
0.69358
0.69356
0.69354
0.693517
0.693492
0.693471
0.693451
0.69343
0.693417
0.693415
0.693417
0.693422
0.693434
0.693448
0.693466
0.693494
0.693542
0.693592
0.693632
0.693662
0.693696
0.693716
0.693717
0.693709
0.693672
0.693597
0.693513
0.693481
0.693467
0.693463
0.693475
0.693513
0.693592
0.693684
0.693721
0.693738
0.693738
0.693726
0.693693
0.693644
0.693665
0.694273
0.700241
0.742451
0.862818
1.03726
1.19729
1.24524
1.28101
1.31631
1.31356
1.30442
1.29408
1.29946
1.30989
1.31321
1.31217
1.31434
1.31693
1.31626
1.31524
1.31468
1.31392
1.31265
1.3118
1.31173
1.31136
1.31078
1.31007
1.30963
0.693548
0.693556
0.693563
0.693572
0.693581
0.693587
0.693596
0.693607
0.693618
0.693627
0.693636
0.693645
0.693654
0.693663
0.693669
0.693673
0.693678
0.693681
0.693684
0.693684
0.693681
0.693677
0.693671
0.693664
0.693653
0.69364
0.693623
0.6936
0.693574
0.693548
0.693524
0.693509
0.693496
0.693482
0.69347
0.693456
0.693439
0.693424
0.693414
0.693412
0.693415
0.693425
0.693441
0.693466
0.693505
0.693551
0.693594
0.69363
0.693649
0.693666
0.693694
0.693705
0.693699
0.693668
0.693603
0.693531
0.69347
0.693444
0.693444
0.693444
0.693472
0.693547
0.693671
0.693733
0.693736
0.693741
0.693737
0.693705
0.693649
0.693604
0.693607
0.693628
0.693736
0.694744
0.703369
0.758518
0.89343
1.08589
1.2367
1.29654
1.30565
1.28775
1.29323
1.3088
1.31298
1.30972
1.31049
1.31589
1.31748
1.31619
1.31516
1.31554
1.31426
1.31269
1.31218
1.31252
1.31171
1.31083
1.31035
1.30991
0.693592
0.693595
0.6936
0.693604
0.693609
0.693614
0.693621
0.693627
0.693634
0.693642
0.693649
0.693655
0.69366
0.693664
0.693664
0.693662
0.69366
0.693658
0.693653
0.693643
0.693629
0.693615
0.693602
0.693589
0.693573
0.693552
0.693531
0.69351
0.693492
0.693483
0.693482
0.693482
0.69348
0.693476
0.693469
0.693464
0.693465
0.69347
0.693482
0.693496
0.693512
0.693531
0.693551
0.693573
0.693598
0.693625
0.693643
0.693648
0.69365
0.693656
0.693657
0.693647
0.693617
0.693577
0.693539
0.693499
0.69346
0.693435
0.693441
0.693488
0.693561
0.693644
0.693738
0.693746
0.693737
0.693719
0.69368
0.693633
0.693598
0.693595
0.693611
0.693716
0.693921
0.694064
0.694195
0.695592
0.708417
0.783429
0.942953
1.11781
1.23468
1.2667
1.30248
1.32099
1.31501
1.30359
1.31027
1.31834
1.31783
1.31554
1.31598
1.31616
1.31455
1.3128
1.31315
1.31292
1.3118
1.31091
1.31076
1.3103
0.693603
0.693604
0.693605
0.693606
0.693605
0.693604
0.693603
0.693599
0.693597
0.693595
0.693586
0.693581
0.693577
0.693566
0.693558
0.693554
0.693546
0.693538
0.693528
0.693519
0.693512
0.693501
0.693493
0.693489
0.69348
0.693473
0.693465
0.693462
0.693463
0.693469
0.693476
0.693481
0.693492
0.693513
0.693544
0.693578
0.693605
0.693639
0.693665
0.693677
0.693686
0.693688
0.693686
0.693681
0.693673
0.693672
0.693663
0.693645
0.693617
0.693584
0.693558
0.693539
0.693516
0.693507
0.693515
0.693504
0.693489
0.693495
0.69354
0.693618
0.693683
0.693742
0.693758
0.693747
0.693705
0.693628
0.693575
0.693566
0.693579
0.693618
0.693727
0.693907
0.694114
0.694184
0.694176
0.694036
0.694038
0.696437
0.719348
0.816101
1.00224
1.18908
1.28349
1.30868
1.29536
1.30118
1.31843
1.31993
1.31494
1.31481
1.31803
1.31699
1.31395
1.31303
1.31427
1.31339
1.31195
1.31116
1.31119
1.31057
0.693526
0.693521
0.693517
0.693511
0.693496
0.693486
0.693479
0.693469
0.693465
0.69346
0.693451
0.693449
0.693447
0.693442
0.69344
0.69344
0.693442
0.693443
0.693443
0.693445
0.693449
0.693454
0.693456
0.693457
0.693457
0.693457
0.693458
0.693461
0.693469
0.693486
0.693514
0.693556
0.693607
0.693652
0.693698
0.69373
0.693757
0.693791
0.693803
0.693801
0.693791
0.693773
0.693744
0.693717
0.693697
0.693663
0.693622
0.693582
0.69354
0.693496
0.69347
0.693471
0.693479
0.693491
0.693514
0.693561
0.693616
0.693654
0.693684
0.693728
0.693776
0.693784
0.693759
0.693697
0.693617
0.693545
0.693536
0.693548
0.693611
0.693754
0.693944
0.694132
0.694223
0.694206
0.694104
0.693832
0.693478
0.693287
0.693604
0.698656
0.737914
0.877694
1.06689
1.21021
1.2669
1.30625
1.3274
1.32151
1.31164
1.31639
1.31971
1.31603
1.31318
1.31463
1.31499
1.31303
1.31148
1.31165
1.31169
1.31085
0.693422
0.693418
0.693415
0.69341
0.693404
0.693396
0.69339
0.693388
0.693387
0.693388
0.69339
0.69339
0.693393
0.693399
0.693406
0.693414
0.69342
0.693427
0.693434
0.693443
0.693453
0.693463
0.693472
0.693481
0.693494
0.693506
0.693522
0.693547
0.693577
0.693622
0.693674
0.69371
0.693748
0.693776
0.693786
0.693795
0.69381
0.693826
0.693833
0.693829
0.693815
0.693787
0.693735
0.693663
0.693628
0.693604
0.693566
0.69354
0.693512
0.69347
0.693451
0.693453
0.693478
0.693537
0.693607
0.693679
0.693767
0.693803
0.693785
0.693787
0.693799
0.693781
0.693708
0.693614
0.693541
0.693531
0.693537
0.693596
0.693767
0.693974
0.694165
0.694261
0.694252
0.694154
0.693876
0.693484
0.693265
0.693202
0.693244
0.693441
0.694478
0.706617
0.774211
0.944549
1.16079
1.27772
1.31681
1.30335
1.31078
1.32435
1.3209
1.31316
1.3133
1.31681
1.31533
1.31246
1.31179
1.31241
1.31226
1.31108
0.693395
0.693391
0.693387
0.693382
0.693379
0.693376
0.693376
0.693378
0.693382
0.693388
0.693397
0.693409
0.693425
0.693446
0.693467
0.693491
0.693513
0.693535
0.69356
0.693582
0.693605
0.693629
0.693646
0.693663
0.693683
0.693698
0.693718
0.693741
0.693757
0.693779
0.6938
0.6938
0.693797
0.6938
0.693801
0.693795
0.693786
0.69378
0.693774
0.693755
0.693717
0.693674
0.693602
0.693542
0.693549
0.693563
0.693551
0.693531
0.693515
0.693495
0.693493
0.693523
0.693605
0.693696
0.693753
0.6938
0.693829
0.693843
0.693833
0.693793
0.693745
0.693695
0.69363
0.693551
0.693527
0.693538
0.693609
0.693788
0.694022
0.694182
0.69427
0.694278
0.694189
0.69393
0.69354
0.693238
0.693175
0.693211
0.693447
0.693883
0.694023
0.694185
0.696343
0.721643
0.838518
1.03775
1.22128
1.27111
1.31866
1.33152
1.32127
1.31114
1.31636
1.31866
1.31436
1.31151
1.31257
1.31313
1.31263
1.31132
0.693486
0.693494
0.693503
0.693514
0.693521
0.693532
0.693547
0.693562
0.693575
0.693592
0.693616
0.693639
0.693664
0.693691
0.693719
0.693744
0.693765
0.693785
0.693804
0.693823
0.693838
0.693851
0.693859
0.693862
0.693865
0.693865
0.693862
0.693853
0.693845
0.693837
0.693825
0.693807
0.693778
0.693737
0.693693
0.693651
0.69361
0.69358
0.693561
0.69353
0.693511
0.693506
0.693507
0.693503
0.693516
0.693537
0.693538
0.693547
0.693615
0.693677
0.693694
0.69372
0.693794
0.693839
0.693841
0.693843
0.693835
0.693812
0.693765
0.693681
0.693625
0.69362
0.693581
0.693538
0.693552
0.69366
0.693857
0.694099
0.694223
0.694271
0.694278
0.694183
0.693921
0.69357
0.693278
0.693156
0.693176
0.693378
0.693832
0.694136
0.694167
0.69409
0.693857
0.694177
0.70143
0.762174
0.938201
1.16164
1.29892
1.31798
1.30337
1.31368
1.32288
1.31878
1.31134
1.31145
1.31473
1.31391
1.31301
1.31158
0.693771
0.693783
0.693784
0.693787
0.693796
0.693801
0.693807
0.693817
0.693821
0.693823
0.693829
0.693837
0.693847
0.693857
0.693864
0.693869
0.693877
0.693891
0.693895
0.693899
0.693913
0.693927
0.693926
0.693923
0.693926
0.693922
0.693901
0.693876
0.693847
0.693801
0.693745
0.693682
0.693604
0.693545
0.693504
0.693472
0.693447
0.693425
0.693413
0.693414
0.693423
0.693443
0.693485
0.693526
0.69356
0.693606
0.693654
0.693732
0.69387
0.693933
0.693913
0.6939
0.69389
0.693873
0.693855
0.693814
0.693725
0.693643
0.693581
0.693542
0.693557
0.693577
0.693583
0.69362
0.693751
0.693957
0.69419
0.694311
0.694303
0.694257
0.694106
0.693812
0.693488
0.693283
0.69318
0.693179
0.693358
0.693785
0.694162
0.694259
0.694204
0.693905
0.693431
0.693431
0.693654
0.695854
0.720243
0.851434
1.07203
1.22219
1.28148
1.32954
1.32775
1.31759
1.30904
1.31436
1.31603
1.31405
1.3134
1.3119
0.693922
0.693916
0.69391
0.693908
0.693907
0.693908
0.693909
0.693903
0.693897
0.693891
0.693886
0.693884
0.693883
0.693882
0.693878
0.693867
0.693858
0.69386
0.693851
0.69383
0.693828
0.693821
0.693797
0.693783
0.693782
0.693771
0.693733
0.693697
0.693665
0.693616
0.693571
0.693526
0.693467
0.693431
0.693434
0.693437
0.69343
0.693421
0.693427
0.693429
0.693448
0.693536
0.693654
0.69374
0.693794
0.693824
0.693856
0.693933
0.694013
0.69405
0.694042
0.693991
0.693893
0.693819
0.693764
0.693674
0.693566
0.693502
0.693498
0.693516
0.69355
0.693634
0.693769
0.693937
0.694096
0.69426
0.694364
0.694362
0.694265
0.694004
0.693642
0.693307
0.693187
0.69317
0.693201
0.6934
0.693811
0.694189
0.694331
0.694296
0.694006
0.693497
0.693234
0.693316
0.693597
0.694446
0.69573
0.706404
0.776588
0.975289
1.19715
1.30425
1.31766
1.30205
1.31078
1.32024
1.31633
1.31321
1.31391
1.31186
0.6939
0.693886
0.693867
0.693851
0.693833
0.693815
0.693799
0.693769
0.693737
0.693702
0.69367
0.69366
0.693641
0.693619
0.6936
0.693567
0.693546
0.693551
0.693545
0.693515
0.693504
0.693492
0.69348
0.693493
0.693502
0.693507
0.69352
0.693531
0.693541
0.693531
0.693501
0.693462
0.69344
0.69345
0.693459
0.693473
0.693513
0.693579
0.693628
0.693651
0.693709
0.693847
0.693956
0.693973
0.693967
0.69396
0.693943
0.693957
0.693986
0.69399
0.693969
0.693877
0.693703
0.693645
0.693636
0.693581
0.693495
0.693485
0.693499
0.693572
0.693733
0.693984
0.694163
0.694262
0.694321
0.694391
0.694376
0.694223
0.693917
0.693541
0.693171
0.693067
0.693102
0.693184
0.693463
0.693911
0.69428
0.694399
0.694366
0.694065
0.693558
0.693195
0.693185
0.693312
0.69393
0.69481
0.696064
0.697456
0.701442
0.737419
0.883099
1.09674
1.24209
1.28432
1.32584
1.32538
1.31683
1.31345
1.31489
1.31146
0.693529
0.693505
0.693487
0.693471
0.693448
0.693434
0.693422
0.693393
0.693361
0.693355
0.693358
0.693365
0.693365
0.693365
0.69337
0.693389
0.693393
0.693386
0.693391
0.693386
0.693367
0.693371
0.693389
0.693393
0.693398
0.693419
0.693481
0.693532
0.693538
0.693564
0.693624
0.693667
0.6937
0.693757
0.693816
0.693853
0.693933
0.694063
0.694089
0.694076
0.694068
0.694067
0.694077
0.694071
0.694021
0.693959
0.693924
0.693842
0.693714
0.693624
0.693567
0.693482
0.693472
0.693494
0.693562
0.693552
0.693548
0.693591
0.69372
0.693955
0.694212
0.694396
0.694406
0.694397
0.694368
0.694274
0.694029
0.693694
0.693434
0.693157
0.693026
0.693048
0.693187
0.693563
0.694075
0.694408
0.69448
0.694425
0.694085
0.693507
0.693183
0.69313
0.693209
0.693617
0.694342
0.695051
0.696095
0.697319
0.699591
0.702308
0.717372
0.803474
1.01324
1.2136
1.3158
1.31287
1.30698
1.31675
1.31569
1.3092
0.693258
0.693247
0.693234
0.693215
0.693194
0.693183
0.693174
0.693169
0.693169
0.693173
0.693189
0.69321
0.693238
0.693276
0.693308
0.693336
0.693377
0.693391
0.693373
0.69337
0.693406
0.693422
0.693423
0.693438
0.693459
0.693524
0.69365
0.693763
0.693926
0.694051
0.694052
0.69402
0.694014
0.694035
0.69411
0.694128
0.69416
0.69426
0.694279
0.694243
0.694162
0.694054
0.694028
0.693993
0.693869
0.693726
0.693668
0.693623
0.69352
0.693387
0.693297
0.693261
0.693304
0.693406
0.693568
0.69375
0.693906
0.69409
0.694292
0.694513
0.694524
0.69449
0.694429
0.694261
0.693996
0.693696
0.693367
0.69317
0.693069
0.693026
0.693039
0.693229
0.693691
0.694262
0.694563
0.694583
0.694483
0.694089
0.693487
0.693069
0.693071
0.693153
0.69357
0.694139
0.694581
0.695105
0.695788
0.697158
0.699579
0.702849
0.704847
0.709725
0.753322
0.916622
1.14777
1.24007
1.29486
1.32714
1.31753
1.30686
0.693355
0.69337
0.693372
0.693345
0.693333
0.693349
0.693386
0.693455
0.693515
0.693555
0.693605
0.693687
0.693788
0.693908
0.693994
0.694023
0.694052
0.694097
0.694125
0.69414
0.694168
0.694195
0.694188
0.694165
0.694139
0.694144
0.694226
0.694369
0.694511
0.694531
0.694356
0.69422
0.694161
0.694057
0.694034
0.694082
0.694038
0.69398
0.694038
0.694021
0.693844
0.693706
0.693711
0.693814
0.693762
0.693559
0.693485
0.693522
0.693511
0.693395
0.693305
0.693276
0.693364
0.693614
0.693999
0.694396
0.694579
0.694708
0.694739
0.694714
0.694612
0.694393
0.694089
0.693689
0.693374
0.693097
0.692978
0.692946
0.692954
0.693027
0.69334
0.693941
0.694492
0.694713
0.694701
0.694495
0.693978
0.693359
0.692975
0.692967
0.693061
0.69358
0.694156
0.694458
0.694623
0.694778
0.695401
0.697044
0.699955
0.703628
0.70549
0.706011
0.707377
0.72721
0.834882
1.06344
1.24421
1.30673
1.30013
1.30688
0.694704
0.694783
0.694794
0.69475
0.694751
0.694804
0.694882
0.694988
0.695019
0.695047
0.695099
0.695117
0.695134
0.695154
0.695172
0.695215
0.695219
0.695155
0.695114
0.695141
0.695153
0.695054
0.694901
0.694749
0.694648
0.694593
0.694552
0.694598
0.694676
0.694602
0.694576
0.694524
0.694223
0.693786
0.693682
0.693731
0.693759
0.693632
0.693658
0.693741
0.693652
0.693475
0.693443
0.693577
0.693664
0.693679
0.693719
0.693828
0.693925
0.693981
0.694017
0.694079
0.694244
0.694493
0.694784
0.695002
0.695007
0.694963
0.694806
0.694542
0.694157
0.693811
0.693497
0.693225
0.693056
0.692932
0.692912
0.692952
0.693154
0.693666
0.694331
0.694874
0.694914
0.694805
0.694399
0.693701
0.69313
0.69283
0.692837
0.692953
0.693631
0.694291
0.694511
0.694468
0.694222
0.694324
0.695099
0.697144
0.700874
0.70401
0.705408
0.705799
0.706224
0.706997
0.714365
0.782545
0.964391
1.16996
1.26653
1.31155
0.696387
0.696372
0.696292
0.69622
0.69625
0.696339
0.696328
0.696265
0.696249
0.696226
0.696152
0.696065
0.695996
0.695886
0.695853
0.695853
0.69572
0.695658
0.695585
0.695388
0.695393
0.695335
0.69493
0.694661
0.694542
0.694425
0.694402
0.694489
0.694547