/*--------------------------------*- C++ -*----------------------------------*\
  =========                 |
  \\      /  F ield         | OpenFOAM: The Open Source CFD Toolbox
   \\    /   O peration     | Website:  https://openfoam.org
    \\  /    A nd           | Version:  7
     \\/     M anipulation  |
\*---------------------------------------------------------------------------*/
FoamFile
{
    version     2.0;
    format      ascii;
    class       volVectorField;
    location    "3";
    object      U;
}
// * * * * * * * * * * * * * * * * * * * * * * * * * * * * * * * * * * * * * //

dimensions      [0 1 -1 0 0 0 0];

internalField   nonuniform List<vector> 
90000
(
(4.06317 -0.318282 0)
(4.05908 -0.299636 0)
(4.05496 -0.284609 0)
(4.04988 -0.269263 0)
(4.04373 -0.249236 0)
(4.0401 -0.241997 0)
(4.03538 -0.230658 0)
(4.03072 -0.219032 0)
(4.02684 -0.205913 0)
(4.02469 -0.198144 0)
(4.02227 -0.186077 0)
(4.02064 -0.177409 0)
(4.01873 -0.164932 0)
(4.01773 -0.15815 0)
(4.01579 -0.144609 0)
(4.01506 -0.140067 0)
(4.01282 -0.125508 0)
(4.01216 -0.122486 0)
(4.00978 -0.108741 0)
(4.00876 -0.104499 0)
(4.00679 -0.0945319 0)
(4.00505 -0.0860238 0)
(4.00392 -0.0805935 0)
(4.00172 -0.070533 0)
(4.00013 -0.0631391 0)
(3.99934 -0.0590175 0)
(3.99633 -0.0460519 0)
(3.99579 -0.0434498 0)
(3.99426 -0.036159 0)
(3.99108 -0.025257 0)
(3.99133 -0.0222929 0)
(3.99051 -0.0166035 0)
(3.98665 -0.007284 0)
(3.9869 -0.00492475 0)
(3.98604 -0.00209841 0)
(3.98542 0.0006704 0)
(3.98542 0.0031089 0)
(3.98426 0.00546904 0)
(3.98223 0.0064061 0)
(3.98147 0.00986695 0)
(3.98297 0.00306288 0)
(3.98218 0.00262418 0)
(3.98189 -0.00329559 0)
(3.98115 -0.00560956 0)
(3.97995 -0.00762725 0)
(3.97858 -0.00943014 0)
(3.9774 -0.00890313 0)
(3.97751 -0.00963501 0)
(3.97744 -0.00769631 0)
(3.97674 -0.00453906 0)
(3.97792 -0.0018484 0)
(3.97888 0.000823968 0)
(3.97935 0.00179447 0)
(3.97973 0.00247189 0)
(3.98054 0.00135466 0)
(3.98111 0.0020298 0)
(3.98182 -0.000240972 0)
(3.98171 -0.00127396 0)
(3.98164 -0.00293747 0)
(3.98141 -0.00393918 0)
(3.98102 -0.00625837 0)
(3.98078 -0.00445212 0)
(3.98051 -0.00244502 0)
(3.98105 0.000311449 0)
(3.9812 0.0015256 0)
(3.98168 0.00200174 0)
(3.9822 0.00208247 0)
(3.98226 0.000225819 0)
(3.98247 -0.00131949 0)
(3.98278 -0.0032381 0)
(3.98205 -0.00191289 0)
(3.98171 -0.00071126 0)
(3.98175 0.00106018 0)
(3.98191 0.000826484 0)
(3.9817 -0.000726173 0)
(3.98194 -0.00254733 0)
(3.98218 -0.00351134 0)
(3.98193 -0.00244329 0)
(3.98203 -0.00108333 0)
(3.98199 0.000289632 0)
(3.98193 -0.000192627 0)
(3.98202 -0.00101953 0)
(3.98252 -0.00164221 0)
(3.98207 -0.000870839 0)
(3.98213 -0.000319929 0)
(3.98225 -0.00065855 0)
(3.98237 -0.00086069 0)
(3.98258 -0.000919685 0)
(3.98261 -0.000847894 0)
(3.9826 -0.000927098 0)
(3.98258 -0.00127761 0)
(3.98263 -0.00128628 0)
(3.98258 -0.00103514 0)
(3.98253 -0.000984493 0)
(3.98245 -0.00102895 0)
(3.98271 -0.00110799 0)
(3.98302 -0.00103905 0)
(3.98408 -0.000311753 0)
(3.98614 0.00031534 0)
(3.99226 0.000880937 0)
(4.06482 -0.335023 0)
(4.0646 -0.334294 0)
(4.06411 -0.333102 0)
(4.06336 -0.331518 0)
(4.06228 -0.328774 0)
(4.06121 -0.325874 0)
(4.05986 -0.32224 0)
(4.05838 -0.318516 0)
(4.05614 -0.312713 0)
(4.05377 -0.308385 0)
(4.05058 -0.301769 0)
(4.04734 -0.296247 0)
(4.04346 -0.287588 0)
(4.04016 -0.28067 0)
(4.03617 -0.269933 0)
(4.03292 -0.261367 0)
(4.02875 -0.247991 0)
(4.02587 -0.238711 0)
(4.02143 -0.221939 0)
(4.01906 -0.212713 0)
(4.01451 -0.193443 0)
(4.01228 -0.183002 0)
(4.00815 -0.163576 0)
(4.00571 -0.150548 0)
(4.00205 -0.131477 0)
(4.00081 -0.120203 0)
(3.99586 -0.0951336 0)
(3.99709 -0.090644 0)
(3.99146 -0.064925 0)
(3.98998 -0.0538981 0)
(3.98992 -0.0439217 0)
(3.98538 -0.0233623 0)
(3.98362 -0.0108286 0)
(3.98726 -0.0108385 0)
(3.97977 0.00895097 0)
(3.97815 0.0172597 0)
(3.98 0.017907 0)
(3.97612 0.0253873 0)
(3.97512 0.025819 0)
(3.97472 0.0215137 0)
(3.97397 0.0145837 0)
(3.97701 0.0113024 0)
(3.97631 0.00513622 0)
(3.9785 0.000569551 0)
(3.97923 -0.00169442 0)
(3.98032 -0.00371723 0)
(3.98115 -0.00522803 0)
(3.9819 -0.00501048 0)
(3.98212 -0.00465483 0)
(3.98228 -0.00351747 0)
(3.98256 -0.00015004 0)
(3.98244 0.00215734 0)
(3.98227 0.00352983 0)
(3.98167 0.00560912 0)
(3.981 0.00513038 0)
(3.98112 0.00378612 0)
(3.98053 0.00044666 0)
(3.98053 -0.00302894 0)
(3.98075 -0.00611549 0)
(3.98082 -0.00751375 0)
(3.9813 -0.00736496 0)
(3.98156 -0.00578798 0)
(3.98193 -0.0028207 0)
(3.98164 0.000223748 0)
(3.98162 0.00353354 0)
(3.98127 0.0034462 0)
(3.98101 0.00237084 0)
(3.98056 -0.00147417 0)
(3.98055 -0.0035082 0)
(3.98102 -0.00372645 0)
(3.98137 -0.00290195 0)
(3.9816 -1.85912e-05 0)
(3.9812 0.000558435 0)
(3.98137 0.00114328 0)
(3.98014 -0.00185815 0)
(3.98031 -0.00270205 0)
(3.98052 -0.0025946 0)
(3.98114 -0.00102538 0)
(3.98116 -0.000427704 0)
(3.98123 -3.29157e-05 0)
(3.98075 -0.000947892 0)
(3.98076 -0.00123501 0)
(3.98111 -0.000781897 0)
(3.98118 -0.000647742 0)
(3.98112 -0.000763301 0)
(3.98105 -0.000530716 0)
(3.98112 -0.000457608 0)
(3.98131 -0.000719071 0)
(3.98131 -0.000913164 0)
(3.98136 -0.00127991 0)
(3.98138 -0.000904653 0)
(3.98145 -0.000898005 0)
(3.98147 -0.00103006 0)
(3.98145 -0.00121715 0)
(3.98148 -0.0010975 0)
(3.98167 -0.000708607 0)
(3.98205 -0.000439139 0)
(3.98318 -0.000115544 0)
(3.98531 0.000396405 0)
(3.99142 0.000698158 0)
(4.06146 -0.334662 0)
(4.0614 -0.3347 0)
(4.06134 -0.334681 0)
(4.06128 -0.334653 0)
(4.06121 -0.33462 0)
(4.06113 -0.33451 0)
(4.06104 -0.334406 0)
(4.06094 -0.334234 0)
(4.06081 -0.33403 0)
(4.06066 -0.333711 0)
(4.06048 -0.333347 0)
(4.06023 -0.332764 0)
(4.05988 -0.332076 0)
(4.05931 -0.331291 0)
(4.05858 -0.330126 0)
(4.05775 -0.328593 0)
(4.05679 -0.326774 0)
(4.05566 -0.324143 0)
(4.05438 -0.321181 0)
(4.0529 -0.317171 0)
(4.05115 -0.31216 0)
(4.04939 -0.307235 0)
(4.0469 -0.298296 0)
(4.045 -0.292704 0)
(4.04182 -0.279762 0)
(4.03945 -0.271319 0)
(4.0359 -0.256923 0)
(4.03281 -0.243379 0)
(4.02874 -0.225391 0)
(4.02664 -0.215407 0)
(4.02081 -0.184484 0)
(4.01998 -0.181577 0)
(4.01342 -0.150057 0)
(4.01107 -0.138583 0)
(4.00632 -0.113375 0)
(4.00655 -0.110373 0)
(4.00118 -0.0799262 0)
(4.00096 -0.078521 0)
(3.9971 -0.0601755 0)
(4.00073 -0.0567887 0)
(3.99259 -0.0372614 0)
(3.9934 -0.0311616 0)
(3.98855 -0.0215754 0)
(3.98883 -0.014671 0)
(3.98739 -0.0111434 0)
(3.98741 -0.00760095 0)
(3.98715 -0.00437417 0)
(3.98774 -0.000670053 0)
(3.98682 0.00138079 0)
(3.986 0.00301882 0)
(3.98432 0.00424653 0)
(3.98333 0.00381384 0)
(3.98212 0.00202636 0)
(3.98121 0.000860342 0)
(3.9802 -0.00260707 0)
(3.97987 -0.00349646 0)
(3.97999 -0.00453952 0)
(3.98037 -0.00457678 0)
(3.98119 -0.00418262 0)
(3.98196 -0.0032767 0)
(3.98266 -0.00149727 0)
(3.98266 -0.000300905 0)
(3.98264 0.00137601 0)
(3.98222 0.00106612 0)
(3.98139 0.00029652 0)
(3.98029 -0.00165776 0)
(3.97989 -0.00144226 0)
(3.97988 -0.0011069 0)
(3.98026 -0.000765694 0)
(3.98076 0.000179779 0)
(3.98104 2.33188e-05 0)
(3.98091 -0.000712245 0)
(3.98057 -0.00131931 0)
(3.98048 -0.00295204 0)
(3.97979 -0.00136985 0)
(3.97999 -0.00125596 0)
(3.97973 -0.0001099 0)
(3.98061 -0.00171617 0)
(3.98042 -0.00217228 0)
(3.98056 -0.0027936 0)
(3.98013 -0.00128064 0)
(3.98016 -0.000759585 0)
(3.98028 -0.000969664 0)
(3.98032 -0.0012023 0)
(3.9804 -0.00119102 0)
(3.98028 -0.000777427 0)
(3.9803 -0.000706907 0)
(3.98041 -0.000938309 0)
(3.98042 -0.0011093 0)
(3.98046 -0.00117162 0)
(3.98051 -0.00108519 0)
(3.98059 -0.00104563 0)
(3.98063 -0.00102253 0)
(3.98064 -0.00103227 0)
(3.9807 -0.00102008 0)
(3.98087 -0.00106811 0)
(3.98123 -0.00096888 0)
(3.98247 -0.000352924 0)
(3.98464 0.000383235 0)
(3.99076 0.000945151 0)
(4.05708 -0.334614 0)
(4.05702 -0.334676 0)
(4.05699 -0.334684 0)
(4.05698 -0.334676 0)
(4.05694 -0.33476 0)
(4.05691 -0.334828 0)
(4.05689 -0.334846 0)
(4.05686 -0.334842 0)
(4.05681 -0.334873 0)
(4.05675 -0.334948 0)
(4.05669 -0.334979 0)
(4.05661 -0.334965 0)
(4.05655 -0.334994 0)
(4.05647 -0.334944 0)
(4.05639 -0.334813 0)
(4.05632 -0.334701 0)
(4.05625 -0.334644 0)
(4.05617 -0.33454 0)
(4.05607 -0.334364 0)
(4.05597 -0.334148 0)
(4.05584 -0.333918 0)
(4.05569 -0.333548 0)
(4.05551 -0.333108 0)
(4.0553 -0.332384 0)
(4.05491 -0.331617 0)
(4.0544 -0.330305 0)
(4.05372 -0.328314 0)
(4.05293 -0.325849 0)
(4.05179 -0.321688 0)
(4.05053 -0.316838 0)
(4.04871 -0.309882 0)
(4.04674 -0.301166 0)
(4.04364 -0.288095 0)
(4.04119 -0.277742 0)
(4.03613 -0.253708 0)
(4.03376 -0.240863 0)
(4.02655 -0.207235 0)
(4.02516 -0.193779 0)
(4.01599 -0.147053 0)
(4.0174 -0.137954 0)
(4.00745 -0.0874408 0)
(4.00941 -0.0845833 0)
(3.99987 -0.041602 0)
(4.00105 -0.042289 0)
(3.99313 -0.0128576 0)
(3.99322 -0.0134477 0)
(3.98828 0.00290143 0)
(3.9866 0.00390553 0)
(3.98516 0.0117834 0)
(3.98309 0.00898339 0)
(3.98196 0.00380063 0)
(3.98226 0.000632904 0)
(3.98139 -0.00255234 0)
(3.98135 -0.00389062 0)
(3.98058 -0.00413656 0)
(3.98059 -0.00344625 0)
(3.98091 -0.00193299 0)
(3.98126 0.000298941 0)
(3.98189 0.00375366 0)
(3.9825 0.0045184 0)
(3.98153 0.00609416 0)
(3.98277 0.00204831 0)
(3.98247 -0.000517025 0)
(3.98174 -0.00410432 0)
(3.98109 -0.00517751 0)
(3.98108 -0.00422594 0)
(3.98169 -0.00170869 0)
(3.98139 -0.000117924 0)
(3.98132 0.00248048 0)
(3.98176 0.00209272 0)
(3.98158 0.000209745 0)
(3.98118 -0.00196197 0)
(3.98152 -0.00367465 0)
(3.98105 -0.00294359 0)
(3.98112 -0.00164121 0)
(3.98117 -4.56291e-05 0)
(3.98123 -0.000185832 0)
(3.98124 -0.00120296 0)
(3.981 -0.00226368 0)
(3.9809 -0.00186001 0)
(3.98096 -0.0012707 0)
(3.98099 -0.000519772 0)
(3.98097 -0.000660257 0)
(3.9808 -0.000931206 0)
(3.98085 -0.000809486 0)
(3.98087 -0.000380201 0)
(3.98086 -6.62283e-05 0)
(3.98083 -0.000368654 0)
(3.98087 -0.000876699 0)
(3.98088 -0.00134622 0)
(3.98102 -0.00116454 0)
(3.98108 -0.00108004 0)
(3.98107 -0.00114697 0)
(3.98107 -0.00128294 0)
(3.98111 -0.00111337 0)
(3.98122 -0.000938536 0)
(3.98163 -0.000652989 0)
(3.98284 0.000215766 0)
(3.98496 0.000798982 0)
(3.99099 0.000829283 0)
(4.05436 -0.334431 0)
(4.05435 -0.334414 0)
(4.05433 -0.334438 0)
(4.05431 -0.334517 0)
(4.0543 -0.334511 0)
(4.0543 -0.334512 0)
(4.05428 -0.334564 0)
(4.05427 -0.334549 0)
(4.05426 -0.334544 0)
(4.05423 -0.334605 0)
(4.05422 -0.334613 0)
(4.05421 -0.334569 0)
(4.05417 -0.334564 0)
(4.05416 -0.334649 0)
(4.05418 -0.334665 0)
(4.05421 -0.334672 0)
(4.05423 -0.334719 0)
(4.05425 -0.334773 0)
(4.05428 -0.3348 0)
(4.05429 -0.33486 0)
(4.0543 -0.334895 0)
(4.05431 -0.334919 0)
(4.05431 -0.334921 0)
(4.05425 -0.334914 0)
(4.05431 -0.334985 0)
(4.05435 -0.334924 0)
(4.05438 -0.334818 0)
(4.05439 -0.334686 0)
(4.05439 -0.334561 0)
(4.05436 -0.334318 0)
(4.0543 -0.333989 0)
(4.0542 -0.333385 0)
(4.05406 -0.332615 0)
(4.05377 -0.33113 0)
(4.0533 -0.329086 0)
(4.05253 -0.325418 0)
(4.05126 -0.320166 0)
(4.0496 -0.31247 0)
(4.04676 -0.300671 0)
(4.04392 -0.287444 0)
(4.0389 -0.263417 0)
(4.03596 -0.246537 0)
(4.02853 -0.207359 0)
(4.02666 -0.193272 0)
(4.01715 -0.142458 0)
(4.01684 -0.136941 0)
(4.00784 -0.0884597 0)
(4.00734 -0.090569 0)
(4.00135 -0.056739 0)
(4.00522 -0.062632 0)
(3.99544 -0.0405207 0)
(3.99699 -0.0366576 0)
(3.99118 -0.0249493 0)
(3.99222 -0.0199449 0)
(3.98823 -0.0134932 0)
(3.98777 -0.00681065 0)
(3.98524 -0.000914931 0)
(3.9827 0.00516729 0)
(3.98258 0.00609158 0)
(3.98183 0.00542645 0)
(3.9805 0.00110338 0)
(3.98109 0.000117781 0)
(3.98057 -0.0049861 0)
(3.98104 -0.00592458 0)
(3.98194 -0.0054815 0)
(3.98349 -0.00381088 0)
(3.9833 -0.00202456 0)
(3.98392 0.000496329 0)
(3.98368 0.000906455 0)
(3.98314 -0.000481863 0)
(3.98256 -0.00213048 0)
(3.98257 -0.00250993 0)
(3.98293 -0.00236345 0)
(3.98297 -0.00289384 0)
(3.98344 -0.00105318 0)
(3.98328 -0.000734083 0)
(3.98348 1.40093e-05 0)
(3.98255 -0.00148984 0)
(3.98267 -0.00186335 0)
(3.98247 -0.0025624 0)
(3.983 -0.00178389 0)
(3.98292 -0.00134021 0)
(3.9829 -0.00091338 0)
(3.9827 -0.00106565 0)
(3.98264 -0.00149945 0)
(3.98277 -0.00121948 0)
(3.98272 -0.000992176 0)
(3.98274 -0.000696086 0)
(3.98279 -0.000818655 0)
(3.98289 -0.00102305 0)
(3.983 -0.00105312 0)
(3.98298 -0.0010281 0)
(3.98291 -0.00122807 0)
(3.98285 -0.0014475 0)
(3.9828 -0.00150454 0)
(3.9829 -0.00129403 0)
(3.98331 -0.000861714 0)
(3.98447 -0.000500378 0)
(3.98659 0.000431851 0)
(3.99253 0.00101605 0)
(4.0543 -0.334346 0)
(4.05431 -0.334328 0)
(4.05432 -0.334355 0)
(4.05433 -0.334393 0)
(4.05436 -0.334389 0)
(4.05437 -0.33442 0)
(4.05439 -0.334461 0)
(4.05441 -0.33445 0)
(4.05443 -0.33446 0)
(4.05442 -0.334544 0)
(4.05444 -0.334557 0)
(4.05446 -0.334555 0)
(4.05445 -0.334605 0)
(4.05448 -0.334626 0)
(4.05451 -0.334651 0)
(4.05451 -0.334746 0)
(4.05456 -0.334834 0)
(4.05463 -0.334853 0)
(4.05472 -0.334903 0)
(4.05474 -0.334946 0)
(4.05481 -0.334986 0)
(4.0549 -0.335012 0)
(4.05498 -0.335069 0)
(4.05508 -0.335122 0)
(4.05519 -0.335166 0)
(4.05533 -0.335204 0)
(4.05541 -0.335277 0)
(4.05548 -0.335305 0)
(4.05554 -0.335318 0)
(4.0556 -0.335298 0)
(4.05565 -0.335298 0)
(4.05571 -0.335193 0)
(4.05576 -0.335148 0)
(4.05585 -0.335066 0)
(4.05594 -0.33497 0)
(4.05602 -0.334833 0)
(4.05606 -0.334623 0)
(4.05606 -0.334229 0)
(4.05616 -0.333572 0)
(4.05613 -0.332327 0)
(4.05585 -0.330131 0)
(4.05514 -0.326229 0)
(4.05349 -0.319397 0)
(4.0513 -0.309468 0)
(4.04711 -0.291142 0)
(4.04373 -0.273444 0)
(4.03569 -0.235178 0)
(4.03317 -0.215311 0)
(4.02094 -0.155884 0)
(4.02336 -0.142827 0)
(4.00958 -0.0763099 0)
(4.01374 -0.0735709 0)
(4.00178 -0.0244572 0)
(4.00459 -0.0231316 0)
(3.99617 0.00590356 0)
(3.99363 0.00836156 0)
(3.98986 0.0210725 0)
(3.98621 0.0156111 0)
(3.98338 0.00592697 0)
(3.98298 0.000914434 0)
(3.98224 -0.00253701 0)
(3.98146 -0.00461091 0)
(3.98174 -0.00480239 0)
(3.98263 -0.00276317 0)
(3.98401 -0.000339199 0)
(3.98485 0.00257012 0)
(3.98501 0.0013768 0)
(3.98493 0.000178252 0)
(3.98454 -0.00151139 0)
(3.98513 -0.0044397 0)
(3.9836 -0.00338539 0)
(3.98377 -0.00257184 0)
(3.98422 -0.000894605 0)
(3.98462 0.00056997 0)
(3.98521 -0.000744919 0)
(3.98498 -0.0014895 0)
(3.98481 -0.00271047 0)
(3.98473 -0.00157255 0)
(3.98496 -0.00111712 0)
(3.985 -0.000737347 0)
(3.98512 -0.00158318 0)
(3.98512 -0.00179957 0)
(3.98513 -0.00165925 0)
(3.98534 -0.00086498 0)
(3.9853 0.000133796 0)
(3.98527 -8.51375e-05 0)
(3.98515 -0.00086739 0)
(3.98535 -0.00127226 0)
(3.98546 -0.00100735 0)
(3.98555 -0.000932198 0)
(3.98556 -0.000917878 0)
(3.98539 -0.00129452 0)
(3.98534 -0.00132138 0)
(3.98514 -0.00112039 0)
(3.98516 -0.000986421 0)
(3.98532 -0.000865102 0)
(3.98581 -0.000627057 0)
(3.98698 0.000487136 0)
(3.98907 0.000511619 0)
(3.99491 0.000570722 0)
(4.05617 -0.33412 0)
(4.0562 -0.334141 0)
(4.05623 -0.334141 0)
(4.05626 -0.334143 0)
(4.05629 -0.334147 0)
(4.05631 -0.334106 0)
(4.05635 -0.334085 0)
(4.05639 -0.33409 0)
(4.05642 -0.334052 0)
(4.05647 -0.334018 0)
(4.05652 -0.334025 0)
(4.05657 -0.33403 0)
(4.05664 -0.334012 0)
(4.05671 -0.333975 0)
(4.05679 -0.33397 0)
(4.05687 -0.333977 0)
(4.05696 -0.333972 0)
(4.05707 -0.333987 0)
(4.0572 -0.334045 0)
(4.05727 -0.334094 0)
(4.05732 -0.334114 0)
(4.05744 -0.334175 0)
(4.05754 -0.334251 0)
(4.05766 -0.334316 0)
(4.05777 -0.334349 0)
(4.0579 -0.334372 0)
(4.05802 -0.33441 0)
(4.05807 -0.334431 0)
(4.05816 -0.334473 0)
(4.05823 -0.334504 0)
(4.05828 -0.334561 0)
(4.05834 -0.334642 0)
(4.05839 -0.33467 0)
(4.05843 -0.334669 0)
(4.05847 -0.33471 0)
(4.05853 -0.334703 0)
(4.05859 -0.334674 0)
(4.05868 -0.334569 0)
(4.05878 -0.334515 0)
(4.05884 -0.334504 0)
(4.05909 -0.334406 0)
(4.05917 -0.334319 0)
(4.05932 -0.333992 0)
(4.05954 -0.333418 0)
(4.05955 -0.332425 0)
(4.05912 -0.330198 0)
(4.05808 -0.326166 0)
(4.05639 -0.318341 0)
(4.05318 -0.304995 0)
(4.04966 -0.28701 0)
(4.04288 -0.254165 0)
(4.03932 -0.230422 0)
(4.02928 -0.175396 0)
(4.02822 -0.160858 0)
(4.01851 -0.102451 0)
(4.01849 -0.101876 0)
(4.01215 -0.063467 0)
(4.01849 -0.0666437 0)
(4.00481 -0.0374691 0)
(4.00248 -0.0321431 0)
(3.99907 -0.0217562 0)
(3.99493 -0.0110463 0)
(3.99258 -0.00442448 0)
(3.98785 0.00352238 0)
(3.98763 0.00434519 0)
(3.98666 0.00367379 0)
(3.98568 -0.000844448 0)
(3.98573 -0.00385133 0)
(3.98576 -0.00755845 0)
(3.98584 -0.0072712 0)
(3.98637 -0.00426723 0)
(3.98639 -0.00218199 0)
(3.98724 0.00122572 0)
(3.98703 0.00134294 0)
(3.98662 0.000102532 0)
(3.98642 -0.00258909 0)
(3.98655 -0.00316574 0)
(3.98687 -0.00250183 0)
(3.98712 -0.00102831 0)
(3.98709 -0.000610213 0)
(3.98672 -0.00106832 0)
(3.987 -0.00193798 0)
(3.98705 -0.00231568 0)
(3.9875 -0.00170344 0)
(3.9875 -0.00115802 0)
(3.98746 -0.000265919 0)
(3.98741 -0.000737244 0)
(3.98752 -0.0009098 0)
(3.98774 -0.000958374 0)
(3.98773 -0.000729908 0)
(3.98756 -0.000963874 0)
(3.9874 -0.00123304 0)
(3.98736 -0.0016745 0)
(3.98736 -0.00169142 0)
(3.9875 -0.00141696 0)
(3.98777 -0.00112048 0)
(3.98833 -0.000993181 0)
(3.98956 -0.000248325 0)
(3.99154 0.000949718 0)
(3.99729 0.000799 0)
(4.0585 -0.334506 0)
(4.05854 -0.334499 0)
(4.05859 -0.3345 0)
(4.05862 -0.334499 0)
(4.05866 -0.334497 0)
(4.05869 -0.334494 0)
(4.05874 -0.334495 0)
(4.05879 -0.334501 0)
(4.05885 -0.334515 0)
(4.05887 -0.334523 0)
(4.05893 -0.334548 0)
(4.059 -0.334563 0)
(4.05905 -0.334589 0)
(4.05911 -0.334624 0)
(4.05917 -0.334673 0)
(4.05924 -0.33471 0)
(4.0593 -0.334726 0)
(4.05937 -0.334739 0)
(4.05944 -0.334742 0)
(4.05952 -0.334728 0)
(4.0596 -0.334692 0)
(4.05966 -0.334673 0)
(4.05975 -0.334667 0)
(4.05983 -0.334654 0)
(4.0599 -0.334639 0)
(4.06002 -0.334597 0)
(4.06008 -0.334563 0)
(4.06016 -0.334551 0)
(4.06025 -0.334537 0)
(4.06032 -0.334516 0)
(4.06039 -0.33452 0)
(4.06048 -0.334526 0)
(4.06058 -0.334523 0)
(4.06067 -0.334512 0)
(4.06075 -0.334534 0)
(4.06082 -0.334554 0)
(4.0609 -0.334565 0)
(4.06103 -0.334465 0)
(4.06109 -0.334404 0)
(4.06114 -0.334359 0)
(4.0612 -0.334337 0)
(4.06123 -0.334343 0)
(4.06125 -0.334264 0)
(4.06127 -0.334048 0)
(4.06144 -0.333908 0)
(4.06155 -0.333846 0)
(4.06172 -0.333712 0)
(4.06189 -0.333433 0)
(4.06192 -0.332826 0)
(4.06168 -0.331351 0)
(4.06084 -0.327879 0)
(4.0593 -0.32107 0)
(4.05592 -0.306735 0)
(4.05229 -0.288617 0)
(4.0438 -0.248696 0)
(4.04102 -0.223938 0)
(4.02656 -0.15232 0)
(4.03199 -0.135796 0)
(4.01631 -0.0553314 0)
(4.02165 -0.053382 0)
(4.00886 -0.000572139 0)
(4.00729 0.00205057 0)
(4.00122 0.0269923 0)
(3.99572 0.0213722 0)
(3.99037 0.00703372 0)
(3.9898 0.00133534 0)
(3.98763 -0.00590535 0)
(3.98782 -0.00615973 0)
(3.9883 -0.00590441 0)
(3.98967 -0.00236684 0)
(3.99091 0.00143902 0)
(3.99053 0.00122705 0)
(3.98988 0.00049436 0)
(3.98884 -0.00122901 0)
(3.98796 -0.00251675 0)
(3.98795 -0.00274047 0)
(3.98822 -0.00206857 0)
(3.98921 -0.00098332 0)
(3.98836 -0.000692303 0)
(3.98814 -0.00117369 0)
(3.98818 -0.00150496 0)
(3.98818 -0.00166295 0)
(3.98834 -0.00156477 0)
(3.98884 -0.00130084 0)
(3.98877 -0.00122567 0)
(3.98874 -0.00156198 0)
(3.98864 -0.0012359 0)
(3.98869 -0.00104299 0)
(3.98885 -0.000735876 0)
(3.98889 -0.000674782 0)
(3.98879 -0.000970496 0)
(3.98883 -0.00132374 0)
(3.98907 -0.00113582 0)
(3.9893 -0.00112143 0)
(3.98951 -0.00088503 0)
(3.98976 -0.000664833 0)
(3.99027 -0.000720518 0)
(3.99153 -0.000365741 0)
(3.99351 0.00028416 0)
(3.99922 0.00104945 0)
(4.06063 -0.334662 0)
(4.06064 -0.334672 0)
(4.06067 -0.334679 0)
(4.06071 -0.334665 0)
(4.06079 -0.334655 0)
(4.06081 -0.334639 0)
(4.06083 -0.334614 0)
(4.06085 -0.334606 0)
(4.0609 -0.334572 0)
(4.06095 -0.334554 0)
(4.06098 -0.33455 0)
(4.06102 -0.334544 0)
(4.06105 -0.334541 0)
(4.06113 -0.334553 0)
(4.06117 -0.334558 0)
(4.06119 -0.334554 0)
(4.0612 -0.334549 0)
(4.06124 -0.33454 0)
(4.06126 -0.334536 0)
(4.06128 -0.334512 0)
(4.06129 -0.334497 0)
(4.06132 -0.334473 0)
(4.06136 -0.334452 0)
(4.06139 -0.334421 0)
(4.06143 -0.334384 0)
(4.0615 -0.334368 0)
(4.06156 -0.334341 0)
(4.0616 -0.334316 0)
(4.06168 -0.334287 0)
(4.06176 -0.334276 0)
(4.06184 -0.334281 0)
(4.06188 -0.334279 0)
(4.06199 -0.33425 0)
(4.06206 -0.334234 0)
(4.06213 -0.334238 0)
(4.06222 -0.334247 0)
(4.06231 -0.334251 0)
(4.06246 -0.334129 0)
(4.06254 -0.334018 0)
(4.06256 -0.33398 0)
(4.06259 -0.333985 0)
(4.06267 -0.333872 0)
(4.0627 -0.33371 0)
(4.06268 -0.333544 0)
(4.06264 -0.333461 0)
(4.0627 -0.333517 0)
(4.06277 -0.333553 0)
(4.06281 -0.333557 0)
(4.06287 -0.333584 0)
(4.06295 -0.333565 0)
(4.06307 -0.333481 0)
(4.06317 -0.333227 0)
(4.06315 -0.332679 0)
(4.06283 -0.331125 0)
(4.06186 -0.327554 0)
(4.06 -0.319015 0)
(4.05607 -0.303197 0)
(4.05165 -0.27972 0)
(4.04318 -0.236414 0)
(4.03999 -0.20782 0)
(4.02876 -0.139283 0)
(4.02886 -0.130328 0)
(4.02008 -0.0731166 0)
(4.02934 -0.0793003 0)
(4.01058 -0.0411142 0)
(4.00982 -0.0334335 0)
(4.00174 -0.0204708 0)
(4.00006 -0.00989615 0)
(3.99406 -0.001988 0)
(3.99344 0.00399842 0)
(3.9927 0.00260259 0)
(3.99111 -0.00106076 0)
(3.99018 -0.00446784 0)
(3.99013 -0.00636112 0)
(3.99018 -0.00519008 0)
(3.99022 -0.00283508 0)
(3.99043 3.9491e-05 0)
(3.99037 -6.35585e-05 0)
(3.98981 -0.000772875 0)
(3.98941 -0.00258286 0)
(3.9894 -0.00252329 0)
(3.98948 -0.00177003 0)
(3.9897 -0.000727889 0)
(3.98976 -0.00085554 0)
(3.98967 -0.00138329 0)
(3.99009 -0.00242598 0)
(3.98949 -0.00161741 0)
(3.98954 -0.00107149 0)
(3.9897 -0.000542319 0)
(3.98978 -0.000684592 0)
(3.98968 -0.0011224 0)
(3.99017 -0.00156891 0)
(3.99036 -0.00151929 0)
(3.99057 -0.00116489 0)
(3.99077 -0.000916158 0)
(3.991 -0.00069942 0)
(3.99148 -0.00055492 0)
(3.99274 -0.000353303 0)
(3.99478 -0.000230465 0)
(4.00054 0.00073292 0)
(4.06229 -0.334872 0)
(4.0623 -0.334865 0)
(4.0623 -0.334867 0)
(4.06231 -0.334858 0)
(4.06232 -0.334817 0)
(4.06234 -0.334808 0)
(4.06234 -0.334813 0)
(4.06237 -0.334774 0)
(4.06239 -0.334721 0)
(4.06239 -0.334685 0)
(4.06239 -0.33468 0)
(4.0624 -0.334664 0)
(4.06243 -0.334594 0)
(4.06241 -0.334551 0)
(4.06238 -0.334567 0)
(4.06236 -0.334582 0)
(4.06236 -0.334546 0)
(4.06249 -0.33445 0)
(4.06253 -0.334403 0)
(4.06255 -0.33438 0)
(4.06261 -0.334305 0)
(4.06265 -0.334244 0)
(4.06267 -0.334214 0)
(4.06273 -0.334165 0)
(4.06282 -0.33415 0)
(4.06287 -0.334132 0)
(4.0629 -0.334101 0)
(4.06293 -0.334074 0)
(4.06298 -0.334016 0)
(4.06303 -0.333982 0)
(4.06308 -0.333962 0)
(4.06311 -0.33394 0)
(4.06312 -0.333936 0)
(4.06314 -0.333942 0)
(4.06318 -0.333933 0)
(4.0632 -0.333936 0)
(4.0632 -0.333939 0)
(4.06321 -0.333877 0)
(4.06325 -0.333771 0)
(4.06335 -0.333724 0)
(4.06342 -0.33368 0)
(4.06354 -0.333553 0)
(4.06359 -0.333516 0)
(4.06358 -0.333473 0)
(4.06355 -0.333458 0)
(4.0635 -0.333448 0)
(4.06346 -0.333441 0)
(4.06347 -0.333413 0)
(4.06347 -0.333394 0)
(4.06362 -0.333315 0)
(4.06368 -0.333304 0)
(4.06373 -0.333317 0)
(4.06378 -0.333326 0)
(4.06381 -0.333412 0)
(4.06385 -0.333518 0)
(4.06383 -0.333353 0)
(4.06364 -0.332575 0)
(4.06303 -0.330274 0)
(4.06138 -0.324107 0)
(4.05857 -0.311904 0)
(4.05214 -0.284765 0)
(4.04723 -0.255143 0)
(4.03276 -0.187103 0)
(4.03667 -0.157111 0)
(4.01919 -0.0641549 0)
(4.02463 -0.0561577 0)
(4.00962 0.000140493 0)
(4.00566 0.00978707 0)
(4.00175 0.0269479 0)
(3.9956 0.0121557 0)
(3.99241 0.000325717 0)
(3.99177 -0.00517695 0)
(3.99173 -0.00565248 0)
(3.99196 -0.00492073 0)
(3.9928 -0.00176449 0)
(3.99306 0.00295422 0)
(3.99262 0.00240584 0)
(3.99125 -4.97303e-05 0)
(3.99054 -0.00310714 0)
(3.99044 -0.00319625 0)
(3.99061 -0.00222172 0)
(3.99115 -0.000278169 0)
(3.991 -0.000302232 0)
(3.99055 -0.00118143 0)
(3.99039 -0.00232208 0)
(3.99053 -0.00245777 0)
(3.99069 -0.00168596 0)
(3.99098 -0.000437523 0)
(3.99088 -0.000491135 0)
(3.99074 -0.00126334 0)
(3.99075 -0.00143294 0)
(3.99091 -0.00144416 0)
(3.99115 -0.00120487 0)
(3.99122 -0.00101612 0)
(3.99134 -0.000653762 0)
(3.99162 -0.000806906 0)
(3.99216 -0.000773127 0)
(3.99345 -0.000319913 0)
(3.99562 -0.000392111 0)
(4.00143 0.000493676 0)
(4.06317 -0.334837 0)
(4.06316 -0.334851 0)
(4.06315 -0.334839 0)
(4.06321 -0.334731 0)
(4.06321 -0.334692 0)
(4.06321 -0.334644 0)
(4.06323 -0.334558 0)
(4.06322 -0.334539 0)
(4.06323 -0.334526 0)
(4.06326 -0.334464 0)
(4.0633 -0.334449 0)
(4.06332 -0.334435 0)
(4.06337 -0.334334 0)
(4.06338 -0.334254 0)
(4.06342 -0.334278 0)
(4.06348 -0.334316 0)
(4.06357 -0.334207 0)
(4.06358 -0.334127 0)
(4.06355 -0.334143 0)
(4.06354 -0.334142 0)
(4.06357 -0.334062 0)
(4.06359 -0.333999 0)
(4.06361 -0.334 0)
(4.06362 -0.333983 0)
(4.06371 -0.333896 0)
(4.06377 -0.33384 0)
(4.06378 -0.333803 0)
(4.06379 -0.33375 0)
(4.06383 -0.333657 0)
(4.06386 -0.33361 0)
(4.06388 -0.333579 0)
(4.06387 -0.333563 0)
(4.06385 -0.333552 0)
(4.06387 -0.333553 0)
(4.06389 -0.333557 0)
(4.06391 -0.333551 0)
(4.06393 -0.333488 0)
(4.06394 -0.3334 0)
(4.06395 -0.333395 0)
(4.06401 -0.333412 0)
(4.06407 -0.333471 0)
(4.06408 -0.333498 0)
(4.06409 -0.333494 0)
(4.06404 -0.333412 0)
(4.06399 -0.333338 0)
(4.06391 -0.333289 0)
(4.06383 -0.333201 0)
(4.06383 -0.333077 0)
(4.06383 -0.333015 0)
(4.0639 -0.333047 0)
(4.06396 -0.333137 0)
(4.06397 -0.333208 0)
(4.06398 -0.333284 0)
(4.06396 -0.333363 0)
(4.06391 -0.333615 0)
(4.06389 -0.333753 0)
(4.06404 -0.333857 0)
(4.06408 -0.333824 0)
(4.06403 -0.33365 0)
(4.06381 -0.333165 0)
(4.06316 -0.331486 0)
(4.06174 -0.326355 0)
(4.05844 -0.314789 0)
(4.05371 -0.291465 0)
(4.04558 -0.25079 0)
(4.03991 -0.209692 0)
(4.02874 -0.141439 0)
(4.02554 -0.117415 0)
(4.01956 -0.0727375 0)
(4.02507 -0.0628335 0)
(4.00915 -0.0338156 0)
(4.00402 -0.0194315 0)
(4.00222 -0.0114631 0)
(3.99406 -0.00104724 0)
(3.99336 0.00340355 0)
(3.99237 0.00142223 0)
(3.99084 -0.00303386 0)
(3.99075 -0.00482337 0)
(3.99085 -0.00462967 0)
(3.99135 -0.00262916 0)
(3.99203 8.50141e-05 0)
(3.99191 0.000109695 0)
(3.99121 -0.0010262 0)
(3.99066 -0.00311508 0)
(3.99068 -0.0029991 0)
(3.99094 -0.0020453 0)
(3.99137 -0.00107292 0)
(3.99144 -0.00087619 0)
(3.99123 -0.00174729 0)
(3.99132 -0.00181212 0)
(3.99141 -0.00157078 0)
(3.9915 -0.00121427 0)
(3.99162 -0.000958016 0)
(3.99174 -0.00079902 0)
(3.99185 -0.000841451 0)
(3.99211 -0.000897037 0)
(3.99268 -0.000898349 0)
(3.99397 -0.000623915 0)
(3.99619 -0.000517039 0)
(4.00214 0.000359079 0)
(4.06378 -0.334556 0)
(4.06378 -0.334606 0)
(4.06375 -0.334643 0)
(4.0638 -0.334559 0)
(4.06386 -0.334489 0)
(4.06387 -0.334424 0)
(4.06386 -0.334346 0)
(4.06386 -0.334232 0)
(4.06389 -0.334232 0)
(4.0639 -0.334325 0)
(4.06391 -0.334342 0)
(4.06401 -0.334197 0)
(4.06401 -0.334073 0)
(4.06401 -0.334073 0)
(4.06403 -0.334133 0)
(4.0641 -0.334108 0)
(4.06415 -0.334033 0)
(4.06413 -0.333932 0)
(4.0641 -0.333906 0)
(4.06406 -0.333907 0)
(4.0641 -0.333824 0)
(4.06412 -0.333749 0)
(4.06413 -0.333742 0)
(4.06413 -0.333723 0)
(4.06418 -0.333623 0)
(4.0642 -0.33354 0)
(4.06418 -0.333501 0)
(4.06415 -0.333439 0)
(4.06416 -0.333333 0)
(4.06416 -0.33331 0)
(4.06414 -0.333311 0)
(4.06412 -0.333323 0)
(4.06411 -0.333329 0)
(4.06413 -0.333343 0)
(4.06415 -0.333339 0)
(4.06416 -0.333327 0)
(4.06418 -0.333316 0)
(4.06419 -0.333297 0)
(4.06421 -0.333293 0)
(4.06422 -0.333326 0)
(4.06421 -0.333413 0)
(4.06417 -0.333489 0)
(4.0641 -0.333498 0)
(4.06406 -0.3335 0)
(4.06403 -0.3335 0)
(4.06401 -0.333484 0)
(4.06399 -0.333443 0)
(4.06396 -0.333377 0)
(4.06398 -0.333283 0)
(4.06401 -0.333184 0)
(4.06401 -0.333146 0)
(4.06399 -0.333157 0)
(4.06392 -0.333209 0)
(4.06378 -0.333337 0)
(4.06364 -0.33359 0)
(4.06364 -0.333778 0)
(4.06376 -0.333941 0)
(4.06387 -0.334069 0)
(4.06398 -0.334124 0)
(4.06392 -0.334089 0)
(4.06383 -0.334027 0)
(4.06366 -0.333909 0)
(4.06332 -0.333428 0)
(4.06271 -0.331867 0)
(4.06114 -0.325949 0)
(4.05838 -0.313977 0)
(4.05076 -0.279622 0)
(4.04602 -0.247808 0)
(4.02765 -0.157565 0)
(4.03445 -0.129979 0)
(4.01471 -0.0320125 0)
(4.01839 -0.0275101 0)
(4.00504 0.0205521 0)
(3.99944 0.0203382 0)
(3.99432 0.0060067 0)
(3.99282 -0.00326564 0)
(3.99117 -0.00716862 0)
(3.9917 -0.00668213 0)
(3.99278 -0.00264762 0)
(3.99349 0.00389226 0)
(3.99318 0.00312941 0)
(3.99184 6.34471e-06 0)
(3.9909 -0.00330018 0)
(3.99083 -0.00343816 0)
(3.99121 -0.00208008 0)
(3.9916 -0.000191104 0)
(3.99154 -0.000433697 0)
(3.99127 -0.00154312 0)
(3.99124 -0.00233334 0)
(3.99136 -0.00210581 0)
(3.99164 -0.00146091 0)
(3.99194 -0.000712943 0)
(3.99198 -0.000724363 0)
(3.992 -0.000861402 0)
(3.9921 -0.000876943 0)
(3.99235 -0.000881111 0)
(3.99295 -0.00108892 0)
(3.99422 -0.000887607 0)
(3.99642 -0.000609278 0)
(4.00245 0.000281924 0)
(4.06413 -0.334345 0)
(4.06413 -0.334366 0)
(4.06413 -0.334342 0)
(4.06412 -0.334329 0)
(4.06412 -0.334364 0)
(4.06411 -0.334381 0)
(4.06413 -0.334354 0)
(4.06413 -0.334348 0)
(4.06414 -0.334295 0)
(4.06417 -0.334167 0)
(4.06413 -0.334061 0)
(4.06411 -0.334062 0)
(4.06413 -0.334163 0)
(4.06414 -0.334271 0)
(4.06413 -0.334338 0)
(4.06412 -0.334312 0)
(4.0641 -0.334229 0)
(4.06411 -0.334176 0)
(4.06412 -0.334111 0)
(4.06411 -0.334044 0)
(4.0641 -0.333995 0)
(4.06411 -0.333974 0)
(4.06413 -0.333966 0)
(4.06415 -0.333902 0)
(4.06415 -0.333807 0)
(4.06416 -0.333748 0)
(4.06414 -0.333686 0)
(4.0641 -0.333618 0)
(4.06409 -0.333497 0)
(4.06409 -0.333456 0)
(4.06407 -0.333443 0)
(4.06405 -0.333461 0)
(4.06405 -0.333483 0)
(4.06406 -0.333443 0)
(4.06407 -0.333377 0)
(4.06407 -0.333358 0)
(4.06409 -0.333366 0)
(4.06409 -0.333383 0)
(4.06409 -0.333407 0)
(4.06407 -0.333427 0)
(4.064 -0.333486 0)
(4.06391 -0.333572 0)
(4.06385 -0.333662 0)
(4.06381 -0.333777 0)
(4.06379 -0.333834 0)
(4.06381 -0.333817 0)
(4.06386 -0.333793 0)
(4.06389 -0.333778 0)
(4.06396 -0.333702 0)
(4.06404 -0.333554 0)
(4.064 -0.333386 0)
(4.06392 -0.333308 0)
(4.0638 -0.333299 0)
(4.06353 -0.333404 0)
(4.0633 -0.333632 0)
(4.06326 -0.333893 0)
(4.06335 -0.334016 0)
(4.06348 -0.33415 0)
(4.0637 -0.334239 0)
(4.06378 -0.334239 0)
(4.06361 -0.334201 0)
(4.06346 -0.334179 0)
(4.06334 -0.33416 0)
(4.0632 -0.334059 0)
(4.06315 -0.333924 0)
(4.063 -0.333274 0)
(4.06242 -0.331129 0)
(4.06068 -0.323163 0)
(4.05649 -0.307091 0)
(4.04954 -0.269812 0)
(4.03977 -0.217989 0)
(4.03273 -0.166075 0)
(4.02142 -0.0974648 0)
(4.02483 -0.0843185 0)
(4.01367 -0.0520121 0)
(4.0113 -0.0341767 0)
(4.00269 -0.0149869 0)
(3.99884 -0.0050775 0)
(3.99485 0.00288601 0)
(3.99347 0.00153664 0)
(3.99124 -0.00329742 0)
(3.9907 -0.00557436 0)
(3.99078 -0.0052619 0)
(3.99131 -0.00279467 0)
(3.9918 -0.000149849 0)
(3.99163 -0.000174426 0)
(3.99099 -0.0016912 0)
(3.99067 -0.00355446 0)
(3.99087 -0.00310594 0)
(3.99121 -0.00213755 0)
(3.99165 -0.00104619 0)