/*--------------------------------*- C++ -*----------------------------------*\
  =========                 |
  \\      /  F ield         | OpenFOAM: The Open Source CFD Toolbox
   \\    /   O peration     | Website:  https://openfoam.org
    \\  /    A nd           | Version:  7
     \\/     M anipulation  |
\*---------------------------------------------------------------------------*/
FoamFile
{
    version     2.0;
    format      ascii;
    class       volScalarField;
    location    "6";
    object      T;
}
// * * * * * * * * * * * * * * * * * * * * * * * * * * * * * * * * * * * * * //

dimensions      [0 0 0 1 0 0 0];

internalField   nonuniform List<scalar> 
90000
(
0.676833
0.876095
1.05146
1.12812
1.15385
1.21166
1.24466
1.25028
1.26563
1.29339
1.31883
1.33767
1.36086
1.38737
1.41591
1.4388
1.45786
1.47583
1.4881
1.50247
1.50869
1.51591
1.51513
1.51147
1.5032
1.49234
1.47782
1.46673
1.45421
1.44192
1.43082
1.41846
1.41556
1.41242
1.40249
1.38848
1.37761
1.36982
1.36237
1.35099
1.3403
1.3319
1.32015
1.30842
1.29878
1.28855
1.27804
1.2678
1.25885
1.24996
1.24178
1.23354
1.22518
1.21653
1.20907
1.20343
1.19905
1.19582
1.19373
1.19239
1.19059
1.18891
1.18726
1.18498
1.18253
1.18037
1.17807
1.17487
1.17128
1.168
1.165
1.16382
1.16386
1.16438
1.16574
1.16624
1.16661
1.16655
1.16594
1.1657
1.16645
1.16839
1.17107
1.17405
1.17722
1.18081
1.18432
1.18912
1.19359
1.19852
1.19983
1.20317
1.2054
1.20828
1.21321
1.2153
1.21754
1.22159
1.22462
1.2272
0.395332
0.394954
0.394545
0.394124
0.393687
0.393248
0.392801
0.392359
0.391899
0.391366
0.391593
0.398506
0.423781
0.474283
0.542593
0.642026
0.746926
0.873557
1.00261
1.12052
1.24675
1.34674
1.43918
1.51409
1.57925
1.63236
1.67063
1.70261
1.71701
1.72691
1.7202
1.70651
1.68428
1.66509
1.64367
1.62228
1.60604
1.58947
1.57588
1.56588
1.55442
1.53818
1.51968
1.50284
1.48751
1.47244
1.45879
1.44681
1.43317
1.41736
1.39999
1.38294
1.36807
1.35255
1.33774
1.3244
1.31226
1.30119
1.28962
1.2762
1.2624
1.24835
1.23535
1.22378
1.21435
1.20638
1.19965
1.19371
1.1883
1.18306
1.17877
1.17525
1.17479
1.17422
1.1735
1.1721
1.17015
1.16733
1.16568
1.16648
1.16916
1.17233
1.17495
1.17685
1.17945
1.18223
1.18704
1.19135
1.19663
1.19853
1.20049
1.20385
1.20651
1.21072
1.21407
1.21536
1.21866
1.22344
1.22573
1.22842
0.391819
0.391493
0.391153
0.3908
0.390441
0.390075
0.38971
0.389347
0.388976
0.388598
0.388223
0.38781
0.38734
0.386878
0.386452
0.386055
0.385698
0.385368
0.38508
0.384799
0.384572
0.384252
0.397479
0.445714
0.55994
0.714661
0.912953
1.10064
1.28474
1.41743
1.52753
1.60721
1.66838
1.72039
1.76637
1.79661
1.82156
1.82972
1.82644
1.81684
1.80186
1.77869
1.75876
1.73428
1.71272
1.68704
1.65993
1.63437
1.60851
1.5891
1.57257
1.56205
1.55924
1.55279
1.53788
1.51599
1.4894
1.46146
1.43387
1.40999
1.3879
1.3685
1.34999
1.33175
1.31389
1.29592
1.27847
1.26273
1.24963
1.23751
1.22662
1.2165
1.2084
1.1995
1.19016
1.18241
1.1777
1.17413
1.17402
1.17562
1.17749
1.17907
1.18038
1.18168
1.18372
1.18666
1.19116
1.19578
1.19896
1.1996
1.20151
1.2042
1.2078
1.21213
1.21363
1.21557
1.21965
1.22337
1.22565
1.22943
0.387688
0.387453
0.38721
0.386962
0.386717
0.386473
0.386234
0.385995
0.385758
0.38553
0.385312
0.385094
0.384885
0.384699
0.384526
0.384358
0.384195
0.384051
0.383923
0.383794
0.383669
0.383563
0.383439
0.38331
0.383191
0.383085
0.38297
0.38283
0.382681
0.382468
0.414471
0.503068
0.688695
0.890858
1.10837
1.29656
1.43403
1.5593
1.65317
1.7213
1.7841
1.82358
1.8661
1.86951
1.86546
1.84997
1.83204
1.8151
1.80042
1.78531
1.76561
1.75074
1.74281
1.73409
1.72033
1.70273
1.68344
1.66267
1.64126
1.61588
1.59075
1.56363
1.53629
1.50865
1.47908
1.44738
1.41628
1.38847
1.36408
1.34101
1.31818
1.29585
1.27515
1.2576
1.24224
1.22931
1.2186
1.21046
1.20628
1.20269
1.19921
1.19621
1.19378
1.19309
1.19345
1.19589
1.19939
1.20294
1.2033
1.20281
1.20404
1.2069
1.21116
1.21331
1.21414
1.21688
1.22109
1.22359
1.22584
1.2299
0.385145
0.385006
0.384865
0.384727
0.384592
0.38446
0.384329
0.384197
0.384066
0.383955
0.383855
0.383755
0.383654
0.383562
0.383482
0.383401
0.38331
0.383236
0.383176
0.383104
0.383022
0.382958
0.3829
0.382831
0.382761
0.382692
0.382598
0.382443
0.382256
0.382089
0.381923
0.381863
0.381854
0.381827
0.38177
0.381581
0.38161
0.442629
0.589708
0.834709
1.07134
1.3166
1.4872
1.6359
1.74028
1.8162
1.87467
1.91115
1.92251
1.91877
1.90274
1.88311
1.85989
1.8342
1.80818
1.78478
1.78445
1.79031
1.79903
1.79537
1.78087
1.75431
1.71803
1.68092
1.65157
1.62716
1.603
1.57538
1.54484
1.5117
1.47844
1.44621
1.41596
1.38791
1.36195
1.33757
1.31401
1.29141
1.26993
1.25175
1.23889
1.23083
1.22611
1.22315
1.21977
1.21976
1.21909
1.218
1.21441
1.21124
1.21244
1.21528
1.21754
1.21729
1.21743
1.22053
1.22375
1.22517
1.22704
1.23079
0.383551
0.383493
0.383435
0.383376
0.383312
0.383248
0.383188
0.383133
0.38308
0.383058
0.383044
0.383011
0.382963
0.382902
0.382853
0.382808
0.382755
0.382708
0.38267
0.382613
0.382545
0.382482
0.382415
0.382358
0.382309
0.38224
0.382073
0.381834
0.381561
0.381366
0.381352
0.381394
0.381437
0.381417
0.381337
0.381194
0.381013
0.380824
0.380691
0.380585
0.380482
0.380265
0.393981
0.546302
0.793641
1.11232
1.38445
1.5879
1.71075
1.81783
1.86741
1.89596
1.89084
1.88066
1.87696
1.87406
1.87234
1.86958
1.869
1.87166
1.86718
1.85925
1.84632
1.8279
1.80305
1.78112
1.76608
1.74935
1.72653
1.69615
1.66033
1.62399
1.59157
1.56131
1.5292
1.49459
1.45875
1.42451
1.3938
1.3669
1.34448
1.32651
1.31153
1.29793
1.28381
1.26765
1.2525
1.2436
1.23888
1.23629
1.23689
1.23557
1.23107
1.22659
1.22827
1.23062
1.23056
1.22892
1.22974
1.23408
0.382777
0.382755
0.382743
0.382718
0.382681
0.382646
0.382622
0.382605
0.382604
0.382612
0.382615
0.382597
0.382562
0.382514
0.382456
0.382405
0.382362
0.382312
0.382247
0.382175
0.382106
0.382007
0.381868
0.38185
0.381839
0.381777
0.381586
0.381265
0.380898
0.380759
0.380785
0.380909
0.380954
0.380923
0.380821
0.380657
0.380479
0.380384
0.380384
0.38038
0.380328
0.38022
0.379998
0.37974
0.379623
0.379588
0.379502
0.46962
0.723592
1.04492
1.36878
1.58446
1.7351
1.83072
1.91638
1.92902
1.92612
1.91892
1.90808
1.89249
1.87292
1.8739
1.8846
1.89776
1.89528
1.88202
1.86385
1.84381
1.83107
1.82038
1.80678
1.78684
1.76125
1.73265
1.70807
1.68107
1.64904
1.6128
1.5779
1.54381
1.50947
1.47527
1.443
1.41308
1.3863
1.36293
1.34108
1.32359
1.31028
1.30035
1.28733
1.27082
1.26101
1.25863
1.25953
1.25451
1.24536
1.24248
1.24131
1.24111
0.382372
0.38235
0.382317
0.382299
0.382302
0.38231
0.38232
0.382341
0.382346
0.382332
0.382294
0.382245
0.3822
0.38215
0.382096
0.382038
0.381967
0.381889
0.381825
0.381756
0.381672
0.381546
0.381419
0.381392
0.381352
0.381253
0.381006
0.380672
0.380339
0.380263
0.380305
0.380434
0.380455
0.380409
0.380304
0.380143
0.379966
0.379934
0.37997
0.380011
0.379986
0.379901
0.379739
0.379551
0.379511
0.379483
0.379434
0.379297
0.379144
0.379011
0.378954
0.474356
0.791987
1.18277
1.47449
1.64843
1.78326
1.84615
1.87631
1.87579
1.87681
1.88948
1.89931
1.91044
1.92051
1.9181
1.90912
1.89684
1.88434
1.8732
1.87479
1.87531
1.86868
1.85311
1.83067
1.81256
1.79862
1.77968
1.75288
1.72466
1.69537
1.66237
1.62837
1.59559
1.56192
1.52757
1.49383
1.45924
1.42943
1.40293
1.37836
1.35842
1.34348
1.33289
1.31606
1.30112
1.29033
1.28404
1.27711
1.26554
0.38201
0.381998
0.381999
0.382006
0.382055
0.382121
0.382119
0.382096
0.382051
0.381997
0.381942
0.381889
0.381833
0.381773
0.381711
0.381637
0.38155
0.381466
0.381379
0.381286
0.381172
0.381028
0.380947
0.380887
0.380799
0.380629
0.380361
0.380064
0.37983
0.379805
0.37985
0.379944
0.37994
0.379882
0.379808
0.3797
0.379563
0.37952
0.379562
0.379647
0.379643
0.379601
0.379506
0.379407
0.379371
0.379335
0.379247
0.379127
0.379049
0.378963
0.378939
0.378942
0.378953
0.378752
0.399274
0.657866
1.0116
1.3364
1.57026
1.74427
1.83656
1.90153
1.90748
1.90515
1.91392
1.91411
1.90801
1.91111
1.90989
1.90465
1.903
1.90326
1.9046
1.90525
1.90129
1.89327
1.88698
1.88456
1.8768
1.8597
1.83827
1.8183
1.79579
1.76909
1.74233
1.70961
1.67376
1.639
1.60391
1.56889
1.53778
1.50817
1.47905
1.44986
1.42468
1.40278
1.38211
1.36012
1.34458
1.32458
0.381698
0.381759
0.3818
0.381791
0.381761
0.381712
0.381652
0.38159
0.381526
0.381464
0.381408
0.381349
0.381288
0.381228
0.381162
0.381087
0.38101
0.380919
0.380822
0.380723
0.380608
0.380499
0.380414
0.380326
0.380219
0.380064
0.379862
0.379638
0.379479
0.379471
0.379521
0.379555
0.379536
0.379486
0.379432
0.379355
0.379252
0.379165
0.379168
0.379236
0.379242
0.379218
0.379172
0.379138
0.379096
0.379039
0.37889
0.37881
0.378872
0.37887
0.378839
0.378824
0.378739
0.37857
0.378174
0.377864
0.377445
0.37653
0.528975
0.937533
1.30229
1.55514
1.71706
1.79568
1.86332
1.87557
1.89191
1.92058
1.92407
1.92039
1.9166
1.9124
1.91075
1.91326
1.91837
1.92155
1.92221
1.9237
1.92858
1.92738
1.92088
1.91092
1.90257
1.8903
1.87111
1.8529
1.83183
1.80702
1.78262
1.75139
1.71594
1.68516
1.65428
1.62134
1.58931
1.55694
1.52447
1.49371
1.46931
1.43044
0.38112
0.381129
0.38112
0.381093
0.381045
0.380987
0.380932
0.38088
0.380825
0.380771
0.380722
0.380681
0.380639
0.38059
0.38054
0.38048
0.380403
0.380321
0.380241
0.380162
0.380067
0.379974
0.379919
0.379871
0.379814
0.379721
0.379583
0.379431
0.379284
0.379258
0.379289
0.379294
0.379277
0.379244
0.379151
0.379008
0.378923
0.378868
0.378812
0.378806
0.378833
0.378827
0.378809
0.378786
0.378748
0.378672
0.378511
0.378282
0.378166
0.378074
0.37792
0.377604
0.377225
0.377094
0.377101
0.377043
0.376775
0.376274
0.375753
0.375566
0.375586
0.504258
0.918479
1.26823
1.52897
1.71476
1.8302
1.89869
1.90925
1.91404
1.91044
1.90762
1.91194
1.91787
1.92701
1.93272
1.93435
1.93658
1.93821
1.94059
1.94273
1.94201
1.94005
1.94017
1.93611
1.92856
1.9239
1.91352
1.89311
1.87692
1.86137
1.84051
1.81662
1.79196
1.76245
1.7307
1.69851
1.66537
1.63565
1.58425
0.380361
0.380412
0.380407
0.380383
0.380343
0.380306
0.380276
0.38025
0.380223
0.380191
0.380155
0.380121
0.38009
0.380055
0.380012
0.379957
0.379885
0.379818
0.379769
0.379729
0.379676
0.37959
0.379556
0.37957
0.379564
0.37953
0.379453
0.379354
0.379245
0.379187
0.379161
0.379139
0.379123
0.379059
0.378867
0.378604
0.378554
0.378577
0.378571
0.378507
0.378489
0.3785
0.37849
0.37844
0.378354
0.378209
0.378016
0.37772
0.377357
0.377014
0.376628
0.376164
0.375995
0.376044
0.376172
0.376274
0.376244
0.375985
0.375591
0.375529
0.375714
0.376266
0.377616
0.37874
0.505299
0.951722
1.31318
1.57732
1.75025
1.82853
1.86518
1.88501
1.91059
1.91048
1.91549
1.91877
1.92338
1.92801
1.93378
1.9409
1.94703
1.94938
1.94898
1.94753
1.94819
1.94925
1.95003
1.95173
1.9464
1.93756
1.93226
1.92699
1.91692
1.8974
1.87841
1.86058
1.83912
1.81405
1.79228
1.74783
0.379714
0.379754
0.379781
0.379794
0.379803
0.379818
0.379821
0.379819
0.379819
0.379819
0.379808
0.379767
0.37971
0.379668
0.379639
0.379599
0.379536
0.379486
0.379474
0.379458
0.37942
0.379332
0.379268
0.379286
0.379359
0.379388
0.379391
0.379369
0.379293
0.379183
0.379079
0.378983
0.378902
0.37876
0.378456
0.3781
0.377991
0.378027
0.378155
0.378196
0.378157
0.378134
0.378079
0.377943
0.377716
0.377456
0.377251
0.376995
0.376648
0.376249
0.37581
0.375557
0.375546
0.37562
0.375887
0.376084
0.376085
0.375841
0.37582
0.376153
0.37711
0.378588
0.380686
0.383331
0.384283
0.384954
0.38553
0.600372
1.08479
1.42811
1.64386
1.76988
1.83574
1.85863
1.88694
1.88239
1.89073
1.89902
1.90708
1.91653
1.92268
1.92707
1.93244
1.9388
1.94531
1.95142
1.95235
1.95043
1.95113
1.9517
1.95168
1.95074
1.94762
1.94123
1.93561
1.92951
1.92144
1.90994
1.89513
1.86742
0.379295
0.379333
0.379348
0.379369
0.379389
0.379388
0.37938
0.379376
0.379384
0.379389
0.379373
0.379288
0.379192
0.379138
0.379124
0.379107
0.37909
0.379086
0.379078
0.379037
0.37891
0.378739
0.37869
0.378728
0.378929
0.379127
0.379166
0.379156
0.379108
0.378981
0.378883
0.378751
0.378522
0.378192
0.377857
0.3776
0.377521
0.377561
0.37764
0.377618
0.377501
0.377281
0.377036
0.37685
0.376681
0.376537
0.376426
0.376252
0.376004
0.375787
0.375562
0.375439
0.375438
0.375505
0.375818
0.37608
0.376344
0.376739
0.377694
0.37947
0.381778
0.383865
0.384879
0.386407
0.387975
0.389136
0.391195
0.393886
0.396177
0.467368
0.812044
1.20364
1.47516
1.65507
1.73882
1.77671
1.83122
1.83548
1.84453
1.85461
1.86266
1.87301
1.88917
1.90156
1.91
1.9184
1.92264
1.92886
1.93972
1.94909
1.95176
1.9511
1.95005
1.94857
1.94684
1.94559
1.94309
1.93779
1.93471
1.92337
0.378975
0.378975
0.378951
0.378927
0.378921
0.378904
0.378865
0.378821
0.378751
0.378623
0.378345
0.37806
0.378017
0.378035
0.378079
0.378127
0.378183
0.378227
0.378222
0.37816
0.377993
0.377865
0.377825
0.377829
0.378011
0.378448
0.378523
0.378513
0.378431
0.378261
0.378047
0.37782
0.377597
0.377356
0.377147
0.377021
0.376988
0.376962
0.376881
0.376699
0.376416
0.376112
0.375878
0.375848
0.375881
0.375952
0.375975
0.37591
0.375774
0.375678
0.37555
0.375474
0.375506
0.375716
0.376349
0.377596
0.379177
0.38114
0.383764
0.386236
0.388366
0.390407
0.390377
0.390406
0.391487
0.394043
0.398664
0.402864
0.406752
0.410699
0.411244
0.411704
0.605593
1.00929
1.29188
1.50854
1.62254
1.68382
1.73451
1.77405
1.78199
1.78733
1.80239
1.8152
1.82997
1.84722
1.86401
1.87634
1.88903
1.90249
1.91045
1.91669
1.92519
1.93446
1.93991
1.94091
1.94063
1.93824
1.93396
1.93065
0.378263
0.37819
0.378145
0.378124
0.378096
0.378029
0.377902
0.377699
0.377266
0.376842
0.376805
0.376817
0.376846
0.376894
0.376985
0.377131
0.377191
0.37718
0.377068
0.377023
0.377063
0.377101
0.377032
0.376944
0.376983
0.377281
0.377394
0.377378
0.377299
0.3771
0.376869
0.376724
0.376607
0.376466
0.376349
0.376314
0.376309
0.37628
0.376175
0.376029
0.375873
0.375687
0.375581
0.375578
0.375636
0.375803
0.375882
0.375826
0.375797
0.375849
0.376089
0.376512
0.377372
0.378846
0.380798
0.383294
0.385901
0.388572
0.39062
0.392074
0.393069
0.394217
0.395272
0.39649
0.399215
0.404008
0.409027
0.412561
0.413851
0.414305
0.415794
0.418826
0.422212
0.424711
0.479195
0.799886
1.09429
1.3543
1.50307
1.58216
1.64812
1.68865
1.71256
1.71367
1.72628
1.74312
1.7647
1.78122
1.79525
1.81255
1.831
1.84788
1.8611
1.87443
1.88523
1.89396
1.90311
1.91081
1.916
1.92052
0.377004
0.377088
0.377152
0.377174
0.377159
0.377057
0.376732
0.376339
0.37625
0.376256
0.376297
0.376347
0.376379
0.37641
0.376499
0.376705
0.376763
0.376716
0.376456
0.376346
0.37639
0.376416
0.376343
0.376158
0.376131
0.376197
0.376229
0.376202
0.37619
0.376179
0.376186
0.376178
0.376125
0.376037
0.376008
0.376013
0.376039
0.37603
0.375946
0.375843
0.375769
0.37566
0.375584
0.375599
0.375709
0.376044
0.376433
0.376773
0.377472
0.378999
0.381281
0.383799
0.3863
0.388424
0.390547
0.391766
0.392792
0.394338
0.3954
0.396183
0.397023
0.398736
0.402452
0.407017
0.411701
0.414627
0.41676
0.418875
0.419005
0.419564
0.421552
0.425814
0.429679
0.433065
0.436636
0.437955
0.438126
0.633087
0.947178
1.20159
1.40098
1.49997
1.55534
1.59782
1.63578
1.6389
1.65351
1.66442
1.68056
1.7005
1.72337
1.74056
1.75367
1.76916
1.78721
1.80569
1.82303
1.83957
1.85221
1.8709
0.376379
0.376415
0.376458
0.376484
0.376482
0.376461
0.376397
0.376349
0.376343
0.376345
0.376354
0.376352
0.376361
0.37639
0.376487
0.376583
0.376585
0.376471
0.376066
0.375921
0.375954
0.375989
0.375962
0.375762
0.375663
0.375673
0.375642
0.375604
0.375632
0.375778
0.375959
0.37601
0.376
0.375973
0.375979
0.376003
0.376048
0.376053
0.376011
0.376077
0.376401
0.376868
0.377298
0.377911
0.378899
0.380413
0.38223
0.38447
0.386856
0.389385
0.391562
0.393609
0.39536
0.39634
0.39728
0.397691
0.39809
0.399097
0.4009
0.403445
0.406546
0.410558
0.414095
0.417428
0.419657
0.42075
0.421474
0.422384
0.424416
0.427644
0.431526
0.435251
0.437323
0.438447
0.440969
0.444442
0.447299
0.449252
0.451413
0.522471
0.798472
1.09155
1.2754
1.40378
1.47912
1.52001
1.57438
1.5712
1.5765
1.58647
1.60583
1.62503
1.64325
1.65893
1.67496
1.69108
1.70854
1.72771
1.74447
1.774
0.377926
0.377895
0.377863
0.377801
0.377735
0.377676
0.377592
0.377561
0.377527
0.377447
0.377272
0.377066
0.377004
0.377011
0.377025
0.377023
0.376967
0.376611
0.376145
0.376079
0.376127
0.376144
0.376105
0.375818
0.375705
0.375727
0.375711
0.375712
0.375765
0.375941
0.376202
0.376401
0.376618
0.376904
0.377322
0.377904
0.378719
0.379652
0.380692
0.382043
0.38371
0.385346
0.386995
0.388614
0.390373
0.392053
0.393655
0.395052
0.396375
0.397563
0.39869
0.399864
0.400897
0.401718
0.402637
0.404209
0.406321
0.408855
0.412453
0.416036
0.419483
0.421556
0.422857
0.424083
0.424401
0.424997
0.425963
0.428299
0.432282
0.437014
0.441316
0.444177
0.445705
0.445424
0.445368
0.448096
0.453358
0.45781
0.462037
0.463411
0.463919
0.483286
0.651467
0.960554
1.19059
1.35157
1.4232
1.45426
1.50219
1.50648
1.51583
1.52384
1.53586
1.54869
1.56531
1.58113
1.59621
1.61315
1.63046
1.65995
0.376571
0.376578
0.376622
0.376636
0.376576
0.376539
0.37654
0.376615
0.376669
0.37663
0.376434
0.376296
0.376298
0.37639
0.376652
0.37678
0.376777
0.376696
0.376645
0.37672
0.37705
0.377471
0.377621
0.377806
0.378108
0.378579
0.379226
0.379964
0.380648
0.381407
0.382392
0.38372
0.385173
0.386603
0.387924
0.389204
0.390443
0.39166
0.39297
0.394356
0.395498
0.396486
0.397442
0.398486
0.399609
0.400556
0.401508
0.402202
0.403046
0.404003
0.405309
0.40685
0.408817
0.411497
0.414062
0.416818
0.419417
0.421977
0.42369
0.425078
0.426374
0.427098
0.427816
0.428456
0.429794
0.432356
0.436113
0.439975
0.443209
0.445501
0.44744
0.449548
0.451036
0.451863
0.452877
0.45579
0.461831
0.46571
0.467359
0.469833
0.472409
0.47309
0.475737
0.478191
0.589284
0.896914
1.10375
1.27059
1.36372
1.40149
1.44832
1.45674
1.46222
1.46454
1.47396
1.48599
1.50111
1.51643
1.52695
1.54878
0.378073
0.378392
0.378721
0.379004
0.379288
0.379515
0.379703
0.379968
0.380361
0.380845
0.381396
0.381966
0.382609
0.383371
0.384057
0.384563
0.385059
0.385677
0.386366
0.387082
0.387781
0.388435
0.389133
0.389921
0.390716
0.391438
0.392152
0.392897
0.393726
0.394611
0.39549
0.396345
0.397193
0.398048
0.398871
0.399665
0.400399
0.401237
0.402133
0.40304
0.403848
0.40475
0.405657
0.406659
0.407712
0.408868
0.410176
0.41165
0.413462
0.415525
0.417798
0.419923
0.422187
0.424118
0.425933
0.427294
0.428295
0.429264
0.429748
0.430366
0.430995
0.432285
0.434012
0.436788
0.440554
0.444702
0.448497
0.450983
0.45201
0.45203
0.452228
0.453514
0.456478
0.461115
0.465035
0.467376
0.47074
0.473298
0.473391
0.474549
0.477769
0.481961
0.486378
0.488698
0.489701
0.491119
0.537304
0.814874
1.04539
1.22639
1.32407
1.35706
1.39474
1.41302
1.41905
1.4182
1.42443
1.43486
1.44624
1.46374
0.391114
0.391396
0.391743
0.392059
0.392265
0.392451
0.392672
0.392953
0.393309
0.393753
0.394297
0.394784
0.395126
0.39538
0.395684
0.396171
0.396791
0.397344
0.397762
0.398086
0.398451
0.398947
0.399535
0.400094
0.400625
0.401169
0.401796
0.40253
0.403295
0.403958
0.404602
0.405296
0.406083
0.406914
0.407793
0.408727
0.409765
0.410877
0.412011
0.413309
0.414679
0.41611
0.417631
0.419295
0.420886
0.42244
0.423747
0.425085
0.426314
0.427584
0.428854
0.429918
0.430786
0.431511
0.432402
0.433074
0.433876
0.434826
0.43627
0.438115
0.440792
0.443894
0.447316
0.450136
0.452567
0.454154
0.455746
0.457404
0.457764
0.458109
0.458987
0.461091
0.465159
0.470508
0.475403
0.476286
0.476735
0.47857
0.48097
0.482853
0.485429
0.490294
0.493938
0.495063
0.496447
0.499575
0.50243
0.504473
0.52557
0.772874
1.0001
1.17694
1.28509
1.32089
1.35688
1.37398
1.37854
1.37785
1.38228
1.39557
0.40263
0.403017
0.403399
0.40344
0.403326
0.403285
0.403455
0.403956
0.404577
0.405104
0.405628
0.406024
0.406125
0.406199
0.406435
0.406991
0.407756
0.408444
0.408935
0.409358
0.409855
0.410527
0.411259
0.411968
0.412714
0.413525
0.414423
0.415428
0.416415
0.417286
0.418146
0.419021
0.419913
0.420793
0.42172
0.422673
0.423675
0.424696
0.425808
0.426812
0.42774
0.428633
0.429559
0.430498
0.431406
0.432293
0.433097
0.433846
0.434441
0.435156
0.435961
0.436851
0.437488
0.438382
0.439596
0.441458
0.443638
0.446246
0.449088
0.452007
0.454641
0.456712
0.458353
0.459549
0.46016
0.460214
0.46047
0.461931
0.464532
0.467876
0.47166
0.475279
0.477281
0.47892
0.482067
0.483511
0.483354
0.484573
0.488739
0.493273
0.496586
0.498489
0.499764
0.501947
0.504986
0.508088
0.511347
0.515055
0.515812
0.516893
0.525331
0.745118
0.971234
1.14519
1.25307
1.2892
1.32232
1.34054
1.3409
1.34492
0.417085
0.417364
0.417631
0.417936
0.418216
0.418595
0.41914
0.419507
0.419651
0.419759
0.419904
0.4203
0.420955
0.421458
0.421764
0.422068
0.422527
0.423166
0.423763
0.424263
0.424753
0.425299
0.425931
0.426614
0.427223
0.427762
0.42827
0.428782
0.429307
0.429821
0.430313
0.430805
0.431312
0.431822
0.432316
0.432801
0.43331
0.433885
0.434481
0.434983
0.4355
0.436052
0.436694
0.437362
0.438222
0.439226
0.44041
0.441683
0.443105
0.444637
0.446317
0.448227
0.450256
0.452306
0.454253
0.456086
0.458023
0.459438
0.460715
0.462008
0.463163
0.46405
0.464797
0.465889
0.466772
0.467963
0.469564
0.472107
0.475978
0.479835
0.483004
0.486236
0.486775
0.486229
0.486785
0.489288
0.492403
0.495444
0.498232
0.502346
0.50556
0.505926
0.507031
0.509671
0.51313
0.516057
0.519543
0.521934
0.523099
0.525377
0.528985
0.531456
0.534064
0.72959
0.949057
1.12149
1.22691
1.26292
1.29504
1.30973
0.429261
0.429479
0.429693
0.429889
0.430034
0.430206
0.430423
0.43069
0.430992
0.431285
0.431577
0.431877
0.43215
0.432412
0.432737
0.433121
0.433487
0.433847
0.434263
0.434651
0.435018
0.435415
0.435842
0.436265
0.436655
0.437019
0.437402
0.437878
0.438446
0.439041
0.439667
0.440362
0.441123
0.441892
0.442639
0.443403
0.444171
0.444965
0.445784
0.446638
0.447538
0.448551
0.449717
0.450939
0.452186
0.453469
0.454863
0.456263
0.457716
0.459147
0.460487
0.461722
0.463012
0.464346
0.465493
0.466414
0.467411
0.468071
0.468588
0.469222
0.470077
0.471132
0.472686
0.475023
0.47826
0.4817
0.484815
0.486853
0.488494
0.489695
0.490627
0.492388
0.493896
0.494719
0.495824
0.49849
0.503733
0.507617
0.509451
0.510977
0.512157
0.5136
0.515646
0.518735
0.52153
0.524801
0.527217
0.528861
0.531267
0.533644
0.537591
0.540987
0.541821
0.542915
0.546667
0.72831
0.942046
1.11439
1.20605
1.25576
0.442921
0.443126
0.44333
0.443541
0.443774
0.444013
0.444321
0.444608
0.444825
0.445022
0.445256
0.445463
0.445652
0.445933
0.44632
0.446683
0.44702
0.447313
0.447548
0.447845
0.448229
0.448654
0.449107
0.449593
0.45009
0.450602
0.451177
0.451815
0.452452
0.453064
0.453689
0.454328
0.455005
0.455716
0.45647
0.457204
0.457929
0.45867
0.459454
0.460299
0.461207
0.462217
0.463219
0.46417
0.465057
0.465888
0.46671
0.467476
0.468207
0.468926
0.469628
0.470227
0.470964
0.471887
0.473023
0.474206
0.475604
0.477487
0.479398
0.481291
0.483236
0.485404
0.487544
0.489413
0.491349
0.493221
0.495113
0.49639
0.497325
0.497766
0.49811
0.499317
0.502249
0.506746
0.509802
0.512124
0.514355
0.516433
0.517678
0.518199
0.51968
0.522206
0.525846
0.528924
0.531916
0.534101
0.534925
0.536815
0.540143
0.54324
0.545261
0.548736
0.550892
0.552044
0.555094
0.557326
0.563555
0.748015
0.93555
1.16779
0.455748
0.45592
0.45613
0.456336
0.456509
0.456676
0.456875
0.457127
0.45744
0.457707
0.457909
0.458132
0.458458
0.458776
0.459056
0.459405
0.459819
0.460196
0.460557
0.460921
0.461352
0.461832
0.462315
0.46276
0.463206
0.463653
0.464137
0.46462
0.465057
0.465505
0.465982
0.46645
0.466901
0.467399
0.467941
0.468538
0.469183
0.469901
0.470678
0.471467
0.472239
0.473007
0.473768
0.474578
0.475463
0.476481
0.477596
0.478864
0.480152
0.481378
0.482574
0.483695
0.48482
0.486037
0.487484
0.489027
0.490512
0.492112
0.493823
0.495534
0.497006
0.498327
0.499439
0.500335
0.501006
0.501612
0.50255
0.504074
0.506141
0.508498
0.51133
0.513523
0.515896
0.518796
0.521402
0.522673
0.523152
0.524185
0.525549
0.527841
0.530346
0.533954
0.536829
0.538931
0.540671
0.541492
0.543358
0.545654
0.54914
0.553767
0.555052
0.556262
0.558956
0.561398
0.563364
0.565777
0.568157
0.569755
0.581522
0.913451
0.470149
0.470328
0.470549
0.47075
0.470921
0.471134
0.471423
0.471715
0.471852
0.471953
0.47221
0.47269
0.473055
0.473252
0.473492
0.473799
0.474146
0.474622
0.475017
0.475349
0.47564
0.47602
0.476551
0.477057
0.477475
0.47788
0.478396
0.478969
0.479527
0.480096
0.480678
0.481277
0.481931
0.482624
0.483321
0.483989
0.484652
0.48533
0.485994
0.486642
0.487318
0.488045
0.488822
0.489611
0.490455
0.491389
0.492375
0.493282
0.494194
0.495114
0.496086
0.497127
0.498242
0.499359
0.500394
0.501359
0.502209
0.502964
0.503767
0.504679
0.505724
0.506859
0.508248
0.510076
0.511878
0.513832
0.515645
0.517777
0.520087
0.522713
0.525532
0.527523
0.528043
0.528453
0.529801
0.530707
0.531978
0.533606
0.536944
0.540112
0.543081
0.545219
0.546449
0.547695
0.548688
0.550767
0.554029
0.557796
0.559394
0.562193
0.563943
0.563926
0.565221
0.569223
0.572832
0.574981
0.576999
0.57999
0.580048
0.586042
0.485736
0.485905
0.486099
0.486294
0.486481
0.486676
0.486899
0.48715
0.487448
0.487694
0.487942
0.48817
0.488327
0.488624
0.48893
0.489197
0.489518
0.489849
0.490158
0.49047
0.490764
0.491138
0.491479
0.491829
0.492224
0.492626
0.493009
0.493392
0.493804
0.494263
0.49474
0.495227
0.495767
0.496294
0.4968
0.497315
0.497844
0.498424
0.499075
0.49975
0.500441
0.501191
0.501968
0.502717
0.503471
0.504191
0.504812
0.505425
0.506118
0.506963
0.507847
0.508814
0.509807
0.510919
0.512137
0.513535
0.515117
0.51667
0.518168
0.519611
0.52107
0.522523
0.524141
0.525847
0.527896
0.529914
0.531631
0.5328
0.533488
0.534009
0.534907
0.536532
0.537118
0.537852
0.539022
0.541987
0.545012
0.548144
0.550659
0.552818
0.554603
0.555189
0.556068
0.557272
0.559943
0.562696
0.565264
0.568712
0.569697
0.569966
0.571941
0.575054
0.577266
0.579289
0.581726
0.583779
0.585598
0.587558
0.589597
0.592675
0.501784
0.501943
0.502127
0.502301
0.502491
0.502679
0.502878
0.503057
0.503218
0.503384
0.503577
0.503858
0.504167
0.504482
0.504645
0.504851
0.50512
0.505459
0.505874
0.506135
0.506408
0.50669
0.507055
0.507513
0.507942
0.508301
0.508666
0.509064
0.50952
0.509977
0.51044
0.510896
0.511349
0.511858
0.512395
0.512934
0.513484
0.514071
0.514724
0.515379
0.516077
0.516807
0.517585
0.518374
0.519191
0.520123
0.521169
0.522198
0.523172
0.524143
0.525112
0.526082
0.527045
0.528043
0.529081
0.530119
0.531107
0.532217
0.533348
0.534532
0.535678
0.536727
0.537599
0.538264
0.538848
0.539699
0.540941
0.54212
0.543423
0.544291
0.545352
0.547049
0.550229
0.553132
0.555677
0.557752
0.559959
0.56179
0.562488
0.563328
0.563882
0.565021
0.566597
0.568942
0.57165
0.574719
0.576081
0.577211
0.579537
0.581054
0.582458
0.58504
0.587631
0.588823
0.590027
0.59221
0.594526
0.596542
0.598142
0.600733
0.5191
0.519241
0.519389
0.519538
0.51967
0.519812
0.519994
0.520223
0.520499
0.520743
0.520958
0.521171
0.521351
0.521529
0.521764
0.522083
0.522388
0.522649
0.522909
0.52324
0.523573
0.523892
0.524213
0.524505
0.5248
0.525146
0.525542
0.525982
0.526449
0.526929
0.527411
0.527827
0.528225
0.528637
0.529106
0.529639
0.530218
0.530818
0.531424
0.532069
0.532721
0.533369
0.534019
0.534674
0.535312
0.535977
0.536655
0.537332
0.538055
0.538807
0.539621
0.540462
0.541346
0.54219
0.542917
0.543607
0.544292
0.545064
0.545897
0.546693
0.547678
0.549017
0.55048
0.552068
0.553392
0.554734
0.556138
0.558011
0.560105
0.56263
0.564627
0.565905
0.566983
0.568468
0.569916
0.57037
0.570963
0.571521
0.572472
0.573523
0.575352
0.577458
0.580247
0.582836
0.584329
0.586188
0.587571
0.588078
0.58926
0.591764
0.5937
0.59475
0.596125
0.597956
0.59989
0.601743
0.603284
0.604379
0.605418
0.607628
0.537653
0.537801
0.537991
0.538178
0.538336
0.538503
0.538677
0.538845
0.539018
0.53918
0.539375
0.539584
0.539754
0.540016
0.540337
0.54059
0.540802
0.54103
0.541284
0.541544
0.541822
0.542215
0.542508
0.542749
0.542964
0.54321
0.54355
0.543975
0.544423
0.544854
0.545273
0.545706
0.546104
0.546485
0.546869
0.547278
0.547725
0.548233
0.548759
0.549322
0.549917
0.55055
0.551198
0.551834
0.552487
0.553164
0.553869
0.554639
0.555364
0.55604
0.556706
0.557406
0.558188
0.559065
0.560042
0.561103
0.562252
0.563313
0.564333
0.565365
0.566511
0.567612
0.568716
0.569822
0.571161
0.572483
0.573683
0.574535
0.57505
0.575714
0.576761
0.577617
0.577866
0.578404
0.579214
0.580369
0.581602
0.583653
0.586053
0.588519
0.590612
0.592385
0.593523
0.594711
0.595636
0.596153
0.597397
0.599014
0.60021
0.601514
0.603295
0.604741
0.605841
0.607126
0.608417
0.60945
0.610413
0.611571
0.612593
0.614207
0.55778
0.557895
0.558016
0.55813
0.558246
0.558371
0.558568
0.558703
0.558838
0.559175
0.559439
0.559494
0.559593
0.559909
0.560151
0.560266
0.560409
0.560642
0.560893
0.561113
0.561368
0.56165
0.561938
0.562162
0.562415
0.562661
0.562967
0.563329
0.563684
0.56406
0.564378
0.564722
0.565121
0.565512
0.565879
0.566242
0.566639
0.5671
0.567637
0.568201
0.568771
0.569317
0.569856
0.570427
0.571012
0.571592
0.572134
0.572708
0.573359
0.574078
0.574792
0.575508
0.576195
0.576864
0.577537
0.578213
0.578799
0.579497
0.580333
0.581213
0.582093
0.582835
0.583468
0.584092
0.584721
0.58544
0.586413
0.587517
0.588399
0.588961
0.589779
0.591186
0.593021
0.594435
0.595883
0.597484
0.599316
0.600613
0.601684
0.602566
0.603129
0.603728
0.603964
0.604354
0.605299
0.606532
0.607635
0.608916
0.610198
0.611059
0.611789
0.612627
0.613437
0.614124
0.614881
0.615766
0.616666
0.617478
0.617992
0.618707
0.579087
0.579172
0.579278
0.579408
0.579537
0.579715
0.579879
0.57993
0.580023
0.580311
0.580409
0.580434
0.580584
0.580937
0.581118
0.581188
0.581294
0.581508
0.581701
0.581871
0.582071
0.582297
0.582485
0.58266
0.582883
0.583151
0.583438
0.5837
0.583972
0.584254
0.584512
0.58478
0.585081
0.585412
0.585753
0.586088
0.58644
0.586823
0.587245
0.587691
0.588128
0.588561
0.588987
0.589405
0.589828
0.590268
0.590738
0.591196
0.591666
0.59213
0.592611
0.593121
0.593661
0.59423
0.59482
0.595394
0.595978
0.596559
0.597097
0.597622
0.598262
0.599018
0.599787
0.600583
0.60133
0.602086
0.602754
0.603474
0.604357
0.605305
0.605952
0.606536
0.607197
0.607921
0.608487
0.60897
0.609501
0.60992
0.610262
0.610646
0.611126
0.61167
0.612474
0.613346
0.614218
0.615126
0.615876
0.616352
0.61681
0.617352
0.61783
0.618264
0.618704
0.619169
0.619661
0.620163
0.620584
0.620847
0.621019
0.621278
0.599709
0.599764
0.599839