/*--------------------------------*- C++ -*----------------------------------*\
  =========                 |
  \\      /  F ield         | OpenFOAM: The Open Source CFD Toolbox
   \\    /   O peration     | Website:  https://openfoam.org
    \\  /    A nd           | Version:  7
     \\/     M anipulation  |
\*---------------------------------------------------------------------------*/
FoamFile
{
    version     2.0;
    format      ascii;
    class       volScalarField;
    location    "2.5";
    object      T;
}
// * * * * * * * * * * * * * * * * * * * * * * * * * * * * * * * * * * * * * //

dimensions      [0 0 0 1 0 0 0];

internalField   nonuniform List<scalar> 
1750
(
1.30191
1.39855
1.51385
1.47581
1.51124
1.58678
1.57745
1.51684
1.54112
1.47728
0.380256
0.690231
1.04015
1.46357
1.75975
1.78594
1.76566
1.70677
1.6715
1.5164
0.34944
0.357677
0.366904
0.515524
0.911789
1.17531
1.51328
1.68274
1.67905
1.53971
0.386006
0.389115
0.411516
0.439296
0.462211
0.47313
0.755154
1.37465
1.42852
1.35172
0.458956
0.462126
0.488158
0.515849
0.532148
0.533347
0.535268
0.731424
0.854981
0.933787
0.564598
0.56846
0.574804
0.579377
0.584219
0.595474
0.610607
0.624281
0.631837
0.649689
0.677846
0.678044
0.678864
0.680966
0.684122
0.685609
0.687317
0.687948
0.689878
0.702161
0.813665
0.800384
0.792505
0.787444
0.778689
0.768816
0.762231
0.752126
0.74667
0.753052
0.939339
0.925248
0.909282
0.895682
0.882039
0.865188
0.854509
0.843275
0.828456
0.824738
1.00708
1.00039
0.991762
0.981089
0.970118
0.956661
0.941939
0.928929
0.913909
0.898159
1.01784
1.01629
1.01423
1.01171
1.0083
1.00354
0.99665
0.989059
0.980033
0.964007
1.01304
1.0131
1.01287
1.01196
1.01064
1.00899
1.00686
1.00449
1.00214
0.99597
1.0032
1.00402
1.00488
1.00566
1.00596
1.00582
1.00524
1.00411
1.00281
1.00112
1.00016
1.00026
1.00041
1.00063
1.00089
1.00114
1.0013
1.00126
1.00106
1.00053
1
1
1.00001
1.00001
1.00003
1.00004
1.00007
1.00008
1.00008
1.00005
0.486899
0.407645
0.346686
0.380768
0.463106
0.558965
0.68026
0.824173
0.951659
1.01187
1.01886
1.01249
1.00241
1.00011
1
0.464429
0.387028
0.342441
0.416351
0.493912
0.598182
0.730471
0.874242
0.983225
1.02002
1.01967
1.01002
1.00131
1.00004
1
0.444639
0.372745
0.352091
0.427739
0.507939
0.625799
0.769758
0.912952
1.00212
1.02291
1.02004
1.00766
1.00071
1.00002
1
0.43325
0.341339
0.36345
0.417478
0.525601
0.668141
0.823683
0.951107
1.01536
1.0244
1.01834
1.00514
1.00034
1.00001
1
0.431325
0.319783
0.364722
0.426699
0.56467
0.732441
0.873213
0.980496
1.02309
1.02497
1.01556
1.00307
1.00014
1
1
0.446725
0.312182
0.358334
0.488468
0.650517
0.786856
0.917334
1.00448
1.02716
1.02517
1.01172
1.00154
1.00005
1
1
0.474436
0.328926
0.373877
0.553208
0.697868
0.837809
0.961022
1.02136
1.02876
1.02271
1.00759
1.00068
1.00002
1
1
0.489184
0.378721
0.46145
0.617991
0.761074
0.901909
0.997018
1.02939
1.02916
1.01883
1.00432
1.00026
1.00001
1
1
0.495674
0.409
0.539162
0.688973
0.836744
0.957256
1.01919
1.03219
1.02915
1.0135
1.00195
1.00009
1
1
1
0.437738
0.442923
0.595911
0.773921
0.912865
0.997347
1.03099
1.03294
1.02429
1.00759
1.0007
1.00002
1
1
1
0.173731
0.436348
0.707979
0.864707
0.968841
1.02341
1.03524
1.03295
1.0178
1.00344
1.00021
1.00001
1
1
1
0.112419
0.593544
0.807993
0.938625
1.01017
1.03561
1.03605
1.02741
1.00985
1.00121
1.00005
1
1
1
1
0.219961
0.688898
0.889994
0.994081
1.03389
1.03883
1.03519
1.01937
1.00434
1.00033
1.00001
1
1
1
1
0.468969
0.805015
0.978084
1.02912
1.04145
1.03934
1.0279
1.01006
1.00133
1.00007
1
1
1
1
1
0.815005
0.975493
1.02921
1.04075
1.04253
1.03475
1.01763
1.00359
1.00027
1.00001
1
1
1
1
1
1.04117
1.04216
1.04271
1.04216
1.04052
1.02481
1.00638
1.00039
1.00001
1
1
1
1
1
1
1.04096
1.04219
1.04282
1.04087
1.03788
1.02203
1.00569
1.00062
1.00003
1
1
1
1
1
1
1.04095
1.04303
1.0435
1.04041
1.03345
1.01432
1.00226
1.00011
1
1
1
1
1
1
1
1.04135
1.04399
1.04388
1.03912
1.02776
1.00888
1.00093
1.00003
1
1
1
1
1
1
1
1.04181
1.04446
1.04417
1.03776
1.02005
1.00431
1.00032
1.00001
1
1
1
1
1
1
1
1.0422
1.04452
1.04384
1.03145
1.01303
1.00205
1.0001
1
1
1
1
1
1
1
1
1.0438
1.04367
1.04128
1.0248
1.00742
1.00072
1.00003
1
1
1
1
1
1
1
1
1.04835
1.04102
1.03675
1.01699
1.00333
1.00023
1.00001
1
1
1
1
1
1
1
1
1.05174
1.03829
1.02854
1.00972
1.00131
1.00006
1
1
1
1
1
1
1
1
1
1.05333
1.03441
1.01955
1.00474
1.00043
1.00001
1
1
1
1
1
1
1
1
1
1.05286
1.02812
1.01192
1.00191
1.00011
1
1
1
1
1
1
1
1
1
1
1.04728
1.02084
1.0058
1.00059
1.00002
1
1
1
1
1
1
1
1
1
1
1.03891
1.01314
1.00231
1.00014
1
1
1
1
1
1
1
1
1
1
1
1.02717
1.0061
1.00058
1.00002
1
1
1
1
1
1
1
1
1
1
1
1.01213
1.00181
1.00009
1
1
1
1
1
1
1
1
1
1
1
1
1
1
1
1
1
1
1
1
1
1
1
1
1
1
1
1
1
1
1
1
1
1
1
1
1
1
1
1
1
1
1
1
1
1
1
1
1
1
1
1
1
1
1
1
1
1
1
1
1
1
1
1
1
1
1
1
1
1
1
1
1
1
1
1
1
1
1
1
1
1
1
1
1
1
1
1
1
1
1
1
1
1
1
1
1
1
1
1
1
1
1
1
1
1
1
1
1
1
1
1
1
1
1
1
1
1
1
1
1
1
1
1
1
1
1
1
1
1
1
1
1
1
1
1
1
1
1
1
1
1
1
1
1
1
1
1
1
1
1
1
1
1
1
1
1
1
1
1
1
1
1
1
1
1
1
1
1
1
1
1
1
1
1
1
1
1
1
1
1
1
1
1
1
1
1
1
1
1
1
1
1
1
1
1
1
1
1
1
1
1
1
1
1
1
1
1
1
1
1
1
1
1
1
1
1
1
1
1
1
1
1
1
1
1
1
1
1
1
1
1
1
1
1
1
1
1
1
1
1
1
1
1
1
1
1
1
1
1
1
1
1
1
1
1
1
1
1
1
1
1
1
1
1
1
1
1
1
1
1
1
1
1
1
1
1
1
1
1
1
1
1
1
1
1
1
1
1
1
1
1
1
1
1
1
1
1
1
1
1
1
1
1
1
1
1
1
1
1
1
1
1
1
1
1
1
1
1
1
1
1
1
1
1
1
1
1
1
1
1
1
1
1
1
1
1
1
1
1
1
1
1
1
1
1
1
1
1
1
1
1
1
1
1
1
1
1
1
1
1
1
1.31209
0.999997
1
1
1
1
1
1
1
1
1
1
1
1
1
1
1
1
1
1
2.29602
1.9719
1.30031
0.999998
1
1
1
1
1
1
1
1
1
1
1
1
1
1
1
1
2.40432
2.32166
2.38013
1.86099
1.04735
1
1
1
1
1
1
1
1
1
1
1
1
1
1
1
2.32409
2.28312
2.35609
2.32557
1.94828
1.11997
0.999668
1
1
1
1
1
1
1
1
1
1
1
1
1
2.27137
2.2624
2.29157
2.29044
2.26965
1.80984
1.05396
0.999844
1
1
1
1
1
1
1
1
1
1
1
1
2.23404
2.23401
2.25368
2.25829
2.26402
2.16996
1.61168
1.00389
1
1
1
1
1
1
1
1
1
1
1
1
2.21055
2.2115
2.23248
2.24126
2.24225
2.21384
2.03204
1.33238
0.99878
1
1
1
1
1
1
1
1
1
1
1
2.19734
2.19804
2.21581
2.22335
2.22521
2.20626
2.14778
1.78605
1.06892
0.999999
1
1
1
1
1
1
1
1
1
1
2.18664
2.18593
2.19998
2.20919
2.21075
2.19369
2.1433
1.99012
1.40444
0.998404
1
1
1
1
1
1
1
1
1
1
2.17776
2.17586
2.18839
2.1994
2.19879
2.1846
2.14744
2.0633
1.72781
1.05818
1
1
1
1
1
1
1
1
1
1
2.1701
2.16801
2.17905
2.18902
2.18527
2.17047
2.13942
2.08081
1.93052
1.34916
0.998547
1
1
1
1
1
1
1
1
1
2.16467
2.16213
2.17044
2.17737
2.17211
2.15876
2.13134
2.08552
2.00194
1.63262
1.02756
1
1
1
1
1
1
1
1
1
2.16149
2.15836
2.16235
2.16288
2.15933
2.14678
2.12365
2.08566
2.03692
1.85883
1.21227
0.999146
1
1
1
1
1
1
1
1
2.15796
2.1542
2.15634
2.15283
2.14821
2.13507
2.11217
2.08123
2.03953
1.95113
1.52243
1.01154
1
1
1
1
1
1
1
1
2.1514
2.14816
2.14904
2.14254
2.13507
2.11873
2.09336
2.06659
2.03661
1.98058
1.68965
1.0222
0.999445
1
1
1
1
1
1
1
1.61156
1.83835
1.92773
1.98114
2.01762
2.04507
2.04512
2.03834
2.02742
2.01248
1.96649
1.56749
1.06256
1.0007
1
1
1
1
1
1
1.14099
1.54024
1.67402
1.78053
1.85312
1.90627
1.9469
1.96593
1.97755
1.99194
1.99113
1.91527
1.45967
1.03531
1.00033
1
1
1
1
1
1.14185
1.33194
1.45334
1.56828
1.68254
1.75709
1.82136
1.86536
1.89976
1.93223
1.96444
1.94583
1.78984
1.27007
1.00996
1.00006
1
1
1
1
1.22637
1.25754
1.30669
1.40635
1.52363
1.62961
1.69753
1.7651
1.81232
1.85118
1.89656
1.91723
1.90048
1.60816
1.10595
1.00166
1.00001
1
1
1
1.29656
1.22788
1.20804
1.30914
1.39689
1.51134
1.59839
1.67795
1.74021
1.77138
1.80922
1.86868
1.88344
1.78713
1.34394
1.01993
1.00015
1
1
1
1.33781
1.21761
1.14779
1.19779
1.27781
1.38471
1.4911
1.58177
1.66456
1.69948
1.73472
1.79825
1.84919
1.82758
1.58831
1.12038
1.00218
1.00001
1
1
1.32373
1.21849
1.15128
1.16419
1.19962
1.27748
1.3889
1.4806
1.5719
1.61822
1.66679
1.72921
1.80215
1.80644
1.70221
1.30274
1.01677
1.00012
1
1
1.2983
1.21663
1.1672
1.14625
1.16516
1.23538
1.32813
1.41822
1.48957
1.54067
1.59354
1.65636
1.73712
1.77157
1.73239
1.47155
1.07141
1.00095
1
1
1.26408
1.2126
1.16859
1.12557
1.12986
1.20081
1.27855
1.36609
1.43534
1.48777
1.53437
1.59367
1.6678
1.73531
1.71566
1.56546
1.177
1.00562
1.00003
1
1.24076
1.20971
1.16238
1.11229
1.09615
1.14733
1.20693
1.29844
1.37727
1.43873
1.48966
1.5468
1.61435
1.69262
1.69305
1.59971
1.29471
1.02193
1.00018
1
1.24094
1.21293
1.16145
1.10965
1.09255
1.12143
1.15085
1.20383
1.29457
1.37171
1.43672
1.49693
1.56284
1.64328
1.66892
1.6153
1.38476
1.06027
1.00085
1
1.24488
1.21414
1.15756
1.11024
1.10105
1.11307
1.1305
1.17375
1.24091
1.31433
1.38109
1.44686
1.50914
1.58798
1.64019
1.60501
1.44082
1.11743
1.0031
1.00002
1.24501
1.21206
1.15285
1.10844
1.09682
1.09338
1.10793
1.1581
1.21448
1.286
1.35028
1.41349
1.47189
1.53936
1.60409
1.58521
1.46736
1.18054
1.00908
1.00006
1.238
1.19988
1.1415
1.09794
1.0763
1.05989
1.07195
1.12327
1.17534
1.25345
1.32206
1.38459
1.44337
1.50421
1.56818
1.56087
1.47255
1.2369
1.02169
1.00022
1.22024
1.19179
1.1426
1.09687
1.069
1.05081
1.05537
1.08322
1.11163
1.19375
1.2689
1.34265
1.40809
1.46863
1.53255
1.53243
1.46721
1.27923
1.04271
1.00067
1.20961
1.1788
1.14392
1.09961
1.07158
1.05314
1.05652
1.08142
1.10235
1.1491
1.22201
1.28429
1.35899
1.42065
1.4866
1.5059
1.4525
1.29683
1.06461
1.00147
1.18342
1.15167
1.13818
1.10676
1.07842
1.05879
1.05973
1.082
1.10484
1.15111
1.21785
1.27894
1.34059
1.39094
1.44866
1.48416
1.43812
1.30672
1.08457
1.00274
1.19493
1.11738
1.12086
1.10426
1.07659
1.05951
1.05823
1.07388
1.10106
1.14636
1.20879
1.27349
1.32629
1.36909
1.41937
1.45983
1.41928
1.30467
1.10449
1.00482
1.18993
1.08736
1.08395
1.08903
1.07217
1.06214
1.06039
1.06842
1.08526
1.13002
1.17303
1.24214
1.29474
1.33351
1.37918
1.42244
1.38895
1.2929
1.11751
1.0077
1.19566
1.08194
1.05574
1.06848
1.07219
1.06779
1.06815
1.07128
1.08478
1.12059
1.16605
1.21938
1.26778
1.30011
1.33881
1.38226
1.35629
1.27513
1.11925
1.00998
1.27781
1.10016
1.04492
1.04895
1.07135
1.08133
1.08183
1.07917
1.09166
1.1228
1.16418
1.2139
1.25396
1.27866
1.30831
1.35339
1.33145
1.25877
1.11657
1.01054
1.29318
1.10924
1.0502
1.04793
1.07307
1.09736
1.09954
1.09835
1.10977
1.13269
1.1622
1.20061
1.22757
1.24369
1.26688
1.3142
1.29883
1.23705
1.10895
1.01007
1.28312
1.1248
1.06285
1.0574
1.07763
1.11193
1.13267
1.1336
1.13868
1.14522
1.15247
1.1741
1.18474
1.1905
1.21496
1.26718
1.25796
1.20891
1.09416
1.00821
1.37757
1.26776
1.18871
1.12182
1.11093
1.12888
1.15105
1.16561
1.16071
1.14735
1.13375
1.13269
1.12855
1.13105
1.17034
1.23161
1.22502
1.17902
1.07206
1.00512
1.38103
1.30475
1.2402
1.19402
1.15891
1.13742
1.13642
1.14104
1.13252
1.10984
1.07896
1.05904
1.04926
1.07177
1.13008
1.18351
1.1786
1.13101
1.03645
1.00159
)
;

boundaryField
{
    inlet
    {
        type            fixedValue;
        value           uniform 1;
    }
    outlet
    {
        type            inletOutlet;
        inletValue      uniform 1;
        value           nonuniform List<scalar> 
35
(
1.38022
1.30398
1.23938
1.19335
1.15825
1.13683
1.13584
1.14023
1.13117
1.10811
1.07725
1.05745
1.04799
1.07174
1.13121
1.18296
1.17731
1.12798
1.03396
1.00139
1.47512
1.51291
1.53706
1.34818
0.929787
0.64986
0.702656
0.753516
0.825132
0.898399
0.964039
0.99592
1.00108
1.00051
1.00005
)
;
    }
    airfoil
    {
        type            zeroGradient;
    }
    top
    {
        type            symmetryPlane;
    }
    bottom
    {
        type            symmetryPlane;
    }
    defaultFaces
    {
        type            empty;
    }
}


// ************************************************************************* //
