/*--------------------------------*- C++ -*----------------------------------*\
  =========                 |
  \\      /  F ield         | OpenFOAM: The Open Source CFD Toolbox
   \\    /   O peration     | Website:  https://openfoam.org
    \\  /    A nd           | Version:  7
     \\/     M anipulation  |
\*---------------------------------------------------------------------------*/
FoamFile
{
    version     2.0;
    format      ascii;
    class       volScalarField;
    location    "1.5";
    object      rho;
}
// * * * * * * * * * * * * * * * * * * * * * * * * * * * * * * * * * * * * * //

dimensions      [1 -3 0 0 0 0 0];

internalField   nonuniform List<scalar> 
90000
(
1.06975
1.08062
1.09155
1.10271
1.11387
1.12432
1.13362
1.14333
1.15273
1.16161
1.17128
1.18189
1.19372
1.20579
1.21895
1.23176
1.2449
1.2578
1.26967
1.28217
1.29278
1.30299
1.31306
1.32064
1.32829
1.33523
1.33898
1.3427
1.34618
1.34738
1.3482
1.34822
1.34795
1.34616
1.34062
1.33468
1.32946
1.32731
1.32846
1.3312
1.33422
1.33864
1.34431
1.35054
1.35665
1.36242
1.37007
1.37909
1.38729
1.39483
1.40403
1.41326
1.42107
1.43034
1.43471
1.43691
1.43917
1.43954
1.43912
1.43997
1.44259
1.44605
1.44953
1.45142
1.45254
1.45341
1.45466
1.4561
1.45738
1.45877
1.45974
1.46014
1.46055
1.46154
1.46264
1.46368
1.46446
1.46472
1.46422
1.46407
1.46526
1.46732
1.46993
1.47336
1.47608
1.47658
1.47645
1.47598
1.47493
1.47327
1.4713
1.46954
1.46774
1.46546
1.46193
1.45695
1.44896
1.43483
1.41627
1.38656
1.06205
1.0632
1.06511
1.06775
1.07131
1.07592
1.08093
1.08673
1.09335
1.10065
1.10838
1.11675
1.12576
1.13544
1.14571
1.15696
1.1685
1.1811
1.19385
1.20699
1.22087
1.23389
1.24783
1.26077
1.27394
1.2857
1.29715
1.30797
1.31641
1.3237
1.33106
1.3344
1.33783
1.33953
1.34274
1.34763
1.34956
1.35027
1.35002
1.34895
1.34667
1.34627
1.34735
1.34977
1.35383
1.36027
1.36881
1.37977
1.39248
1.40586
1.41638
1.42314
1.42751
1.43152
1.43474
1.43601
1.43855
1.44252
1.44336
1.44413
1.44604
1.44815
1.44964
1.45107
1.45313
1.45557
1.45703
1.45778
1.45844
1.45958
1.46079
1.46165
1.46207
1.46247
1.46313
1.46402
1.46505
1.46557
1.46514
1.46487
1.46596
1.46818
1.47119
1.47493
1.47815
1.47886
1.47862
1.47795
1.47672
1.47501
1.4731
1.4714
1.46969
1.46763
1.4643
1.45936
1.45131
1.43715
1.41855
1.38873
1.06275
1.06288
1.06303
1.06321
1.06344
1.06374
1.06411
1.06467
1.06549
1.06662
1.06803
1.06986
1.07212
1.07497
1.07836
1.0826
1.08752
1.09353
1.10051
1.1088
1.11847
1.1295
1.14194
1.15623
1.17108
1.18829
1.20584
1.22397
1.24351
1.2613
1.27997
1.29611
1.31227
1.32546
1.33604
1.34402
1.34847
1.34939
1.35076
1.35303
1.35465
1.35653
1.35738
1.35753
1.36147
1.36814
1.37722
1.38872
1.40218
1.41503
1.42352
1.42953
1.43235
1.43385
1.43536
1.43804
1.44133
1.44562
1.44916
1.45071
1.45131
1.45178
1.45252
1.45446
1.45696
1.45984
1.46137
1.46186
1.46228
1.4629
1.46404
1.46503
1.46539
1.46541
1.46575
1.46661
1.46771
1.46822
1.46766
1.46722
1.46827
1.47043
1.47344
1.47767
1.48161
1.4825
1.48211
1.48119
1.4798
1.47799
1.47606
1.47439
1.47279
1.47088
1.46759
1.46263
1.45454
1.44027
1.42155
1.39157
1.06427
1.06438
1.06451
1.06465
1.06481
1.06498
1.06517
1.06535
1.06556
1.0658
1.06604
1.06631
1.06661
1.06695
1.06734
1.06782
1.06839
1.06925
1.07041
1.07195
1.07389
1.07653
1.07982
1.08436
1.08998
1.09745
1.10652
1.11825
1.13181
1.14843
1.16706
1.1884
1.21028
1.23419
1.25765
1.27795
1.2986
1.31305
1.32759
1.33625
1.34282
1.35028
1.35512
1.36109
1.371
1.38093
1.39025
1.40092
1.4119
1.42178
1.42784
1.43338
1.4376
1.43873
1.4402
1.44317
1.4461
1.44881
1.45197
1.45422
1.45609
1.45752
1.45878
1.46003
1.4611
1.46281
1.46507
1.46633
1.46746
1.46793
1.46832
1.46891
1.46939
1.46946
1.4697
1.47036
1.47128
1.47178
1.47128
1.4708
1.47181
1.47396
1.47702
1.48125
1.48517
1.48601
1.48554
1.48462
1.4832
1.48133
1.47938
1.47765
1.47602
1.47414
1.47084
1.4658
1.45769
1.44335
1.42458
1.39459
1.06602
1.06615
1.0663
1.06645
1.0666
1.06675
1.06693
1.06711
1.06728
1.06745
1.06763
1.06784
1.06806
1.06829
1.06856
1.06886
1.06923
1.06952
1.06984
1.07019
1.07056
1.07098
1.07147
1.07205
1.07276
1.07368
1.07507
1.0771
1.0799
1.08407
1.08965
1.09797
1.10855
1.12353
1.14126
1.16369
1.18924
1.21718
1.24515
1.2739
1.29916
1.32038
1.34194
1.35655
1.36845
1.37987
1.38974
1.40006
1.4145
1.41979
1.42531
1.43274
1.44117
1.4458
1.44841
1.44985
1.44964
1.45023
1.45159
1.45365
1.45646
1.46061
1.46437
1.46665
1.46611
1.46622
1.46729
1.46923
1.4715
1.47263
1.47252
1.47247
1.47284
1.47345
1.47404
1.47454
1.47502
1.47534
1.47486
1.47447
1.47549
1.4775
1.48044
1.48449
1.48822
1.48886
1.48825
1.4872
1.48574
1.48392
1.48198
1.48005
1.47825
1.47632
1.47305
1.468
1.45995
1.44566
1.42692
1.39696
1.06752
1.06765
1.06781
1.06797
1.06812
1.06826
1.06843
1.06862
1.06879
1.06898
1.06919
1.0694
1.06961
1.06983
1.07005
1.07029
1.07055
1.07081
1.07108
1.07136
1.07166
1.07201
1.07238
1.0728
1.07326
1.07383
1.07423
1.07462
1.07501
1.07547
1.07604
1.07683
1.07814
1.0804
1.08392
1.08996
1.09864
1.11239
1.13
1.15402
1.18351
1.21409
1.25038
1.28362
1.31284
1.33818
1.36328
1.38038
1.39866
1.41346
1.42758
1.43795
1.44657
1.45177
1.45386
1.4533
1.45173
1.45161
1.45196
1.45347
1.45707
1.4621
1.46436
1.46629
1.46881
1.46906
1.46959
1.47164
1.47349
1.47458
1.4749
1.47527
1.47575
1.47657
1.47733
1.47762
1.47779
1.47795
1.47743
1.47706
1.4781
1.48014
1.48314
1.48701
1.49002
1.49037
1.4899
1.48895
1.48751
1.48563
1.48367
1.4817
1.47965
1.47755
1.47428
1.46918
1.46125
1.44704
1.42844
1.39858
1.06863
1.06876
1.06892
1.06907
1.06922
1.06937
1.06953
1.06971
1.06989
1.07008
1.07028
1.07049
1.07071
1.07093
1.07117
1.07141
1.07167
1.07194
1.07222
1.0725
1.07279
1.0731
1.07342
1.07375
1.07409
1.07443
1.07478
1.07514
1.07549
1.07586
1.07623
1.07673
1.07707
1.07743
1.07789
1.07855
1.07948
1.0813
1.08436
1.09005
1.09905
1.11401
1.13453
1.16527
1.20014
1.24131
1.28781
1.3279
1.36723
1.39996
1.42361
1.43315
1.44127
1.44803
1.44805
1.44592
1.44764
1.4524
1.45642
1.45813
1.46026
1.4622
1.46276
1.46418
1.46767
1.47028
1.47226
1.47425
1.47476
1.4753
1.47607
1.47715
1.47802
1.47878
1.4792
1.47926
1.4793
1.47925
1.47863
1.47845
1.47959
1.48171
1.48501
1.48874
1.49039
1.49042
1.49001
1.48932
1.48816
1.48644
1.48429
1.48206
1.48008
1.47806
1.47486
1.46984
1.46188
1.44775
1.4293
1.39957
1.06933
1.06946
1.06961
1.06975
1.0699
1.07006
1.07023
1.0704
1.07058
1.07077
1.07098
1.07119
1.07141
1.07163
1.07187
1.07211
1.07237
1.07264
1.07291
1.07319
1.07348
1.07378
1.07409
1.07439
1.0747
1.07501
1.07532
1.07564
1.07593
1.07624
1.07654
1.07684
1.07721
1.0776
1.07801
1.07852
1.07914
1.07981
1.08069
1.08193
1.08377
1.08685
1.0916
1.10027
1.1136
1.13646
1.16766
1.21112
1.26094
1.31021
1.35663
1.38382
1.40602
1.42078
1.43046
1.43807
1.44903
1.45859
1.46341
1.46412
1.46326
1.45995
1.46082
1.46309
1.46729
1.47158
1.47407
1.47564
1.47549
1.47587
1.47703
1.47839
1.47968
1.48011
1.48008
1.48012
1.48002
1.47959
1.47882
1.47898
1.48029
1.48259
1.48638
1.48979
1.49046
1.49041
1.48996
1.48928
1.48831
1.48683
1.48461
1.48219
1.47983
1.47777
1.47451
1.4695
1.4618
1.44806
1.42995
1.40037
1.06974
1.06987
1.07002
1.07016
1.07031
1.07048
1.07065
1.07082
1.07101
1.0712
1.0714
1.07161
1.07184
1.07207
1.07231
1.07255
1.07281
1.07308
1.07336
1.07363
1.07391
1.07419
1.07448
1.07476
1.07504
1.07533
1.07561
1.0759
1.07618
1.07647
1.07676
1.07705
1.07737
1.07771
1.07807
1.07849
1.079
1.07964
1.08053
1.08168
1.08309
1.0851
1.08761
1.09117
1.09615
1.10365
1.11461
1.1334
1.15914
1.1976
1.24085
1.28807
1.33247
1.36822
1.40417
1.42767
1.44314
1.45188
1.45945
1.45891
1.45637
1.45768
1.46126
1.46604
1.4695
1.47247
1.47334
1.47347
1.47472
1.47622
1.4784
1.47946
1.48008
1.48064
1.48062
1.48068
1.48052
1.48005
1.47906
1.47917
1.4806
1.48329
1.48753
1.49034
1.49075
1.4906
1.49006
1.48932
1.48845
1.4871
1.48495
1.48229
1.47972
1.47742
1.47412
1.46913
1.46172
1.44828
1.43048
1.40105
1.07009
1.07021
1.07035
1.07049
1.07064
1.07081
1.07098
1.07115
1.07134
1.07154
1.07173
1.07193
1.07214
1.07237
1.07261
1.07286
1.07309
1.07335
1.07362
1.07389
1.07415
1.07441
1.07469
1.07496
1.07522
1.07549
1.07576
1.07602
1.07628
1.07654
1.07681
1.07709
1.07739
1.07771
1.07803
1.07842
1.07889
1.07948
1.08029
1.08138
1.08277
1.08464
1.0871
1.09036
1.09472
1.10058
1.10776
1.11817
1.13157
1.14758
1.16532
1.19072
1.22016
1.25948
1.3033
1.34575
1.38593
1.40859
1.43308
1.44149
1.45204
1.46039
1.46888
1.47237
1.47255
1.47134
1.4706
1.47185
1.4743
1.47831
1.47966
1.48015
1.48027
1.48052
1.48098
1.48111
1.48074
1.47975
1.47875
1.47919
1.48103
1.48421
1.48849
1.49067
1.49105
1.49094
1.49046
1.48951
1.48853
1.48719
1.48507
1.48243
1.47975
1.47725
1.47372
1.46873
1.46166
1.44857
1.43091
1.40151
1.07047
1.0706
1.07073
1.07087
1.071
1.07115
1.07131
1.07148
1.07164
1.07182
1.07201
1.0722
1.07239
1.07259
1.0728
1.07303
1.07327
1.07351
1.07376
1.074
1.07425
1.0745
1.07477
1.07503
1.0753
1.07557
1.07583
1.07607
1.07632
1.07656
1.07683
1.07711
1.07739
1.07768
1.07798
1.07833
1.07878
1.07935
1.08011
1.08116
1.08249
1.08425
1.08668
1.08984
1.09405
1.09966
1.10673
1.11609
1.12788
1.14129
1.15314
1.16217
1.1704
1.18352
1.20279
1.23729
1.27962
1.32805
1.37797
1.41364
1.44461
1.4552
1.46541
1.46798
1.46628
1.46669
1.46927
1.47306
1.47652
1.47928
1.47922
1.47867
1.47953
1.48057
1.48142
1.48146
1.48092
1.47972
1.47881
1.47973
1.48205
1.4854
1.48925
1.49098
1.49129
1.49108
1.49029
1.48952
1.48853
1.48709
1.48509
1.48262
1.48
1.4773
1.47349
1.46847
1.46141
1.44864
1.43119
1.40187
1.07049
1.07061
1.07075
1.07088
1.07101
1.07115
1.0713
1.07146
1.07163
1.0718
1.07199
1.07217
1.07237
1.07257
1.07277
1.073
1.07325
1.07348
1.07372
1.07396
1.07422
1.07448
1.07475
1.07502
1.0753
1.07557
1.07584
1.07609
1.07635
1.0766
1.07686
1.07713
1.07738
1.07765
1.07794
1.07826
1.07872
1.07928
1.07999
1.081
1.08227
1.08391
1.08624
1.08933
1.0933
1.09868
1.10579
1.1147
1.12585
1.1391
1.15171
1.16106
1.16532
1.16743
1.17022
1.17759
1.19166
1.22113
1.26089
1.31332
1.3664
1.4002
1.43411
1.44502
1.45607
1.46502
1.4739
1.47758
1.47835
1.47694
1.47588
1.4774
1.47971
1.48166
1.48192
1.48089
1.48007
1.47953
1.47954
1.48094
1.48322
1.48636
1.48982
1.49123
1.49137
1.4911
1.49021
1.48956
1.48856
1.487
1.48514
1.48277
1.47983
1.4769
1.47328
1.46838
1.46138
1.44903
1.43178
1.40225
1.07049
1.07061
1.07073
1.07086
1.071
1.07114
1.07128
1.07144
1.0716
1.07178
1.07196
1.07213
1.07232
1.07253
1.07273
1.07295
1.07321
1.07345
1.07367
1.07392
1.07419
1.07447
1.07475
1.07503
1.07531
1.07559
1.07587
1.07613
1.0764
1.07666
1.07692
1.07717
1.0774
1.07764
1.07791
1.07823
1.07868
1.07927
1.07993
1.0809
1.08215
1.08365
1.08586
1.08886
1.09253
1.09766
1.10468
1.11315
1.1237
1.13683
1.15015
1.16103
1.16588
1.16701
1.16745
1.16817
1.16984
1.17493
1.18573
1.21184
1.24918
1.30233
1.35832
1.40229
1.44402
1.45979
1.46974
1.4737
1.47133
1.47164
1.47482
1.47955
1.48208
1.48241
1.48112
1.4801
1.47997
1.47985
1.48061
1.4821
1.48407
1.48721
1.49049
1.49137
1.49135
1.49083
1.49023
1.48964
1.48832
1.48685
1.48524
1.48291
1.47993
1.47694
1.47335
1.46841
1.46129
1.4488
1.43153
1.40225
1.07036
1.07046
1.07058
1.07072
1.07085
1.07098
1.07112
1.07128
1.07145
1.07161
1.07178
1.07196
1.07215
1.07235
1.07256
1.07276
1.073
1.07326
1.07352
1.07379
1.07408
1.07437
1.07466
1.07497
1.0753
1.07562
1.07594
1.07626
1.07656
1.07684
1.07709
1.07732
1.07753
1.07775
1.07802
1.07833
1.07872
1.07927
1.07994
1.08084
1.08206
1.08352
1.08556
1.08844
1.09191
1.09666
1.10346
1.11158
1.12139
1.13424
1.14787
1.15979
1.16626
1.16718
1.16749
1.16792
1.16857
1.1695
1.17111
1.17537
1.18451
1.20713
1.24059
1.29285
1.34923
1.39186
1.4312
1.44595
1.45813
1.46803
1.4795
1.48378
1.48325
1.48018
1.47994
1.48038
1.48096
1.48088
1.48163
1.48237
1.48464
1.48869
1.49138
1.49152
1.49128
1.49065
1.49033
1.48953
1.48798
1.48676
1.4854
1.48308
1.48009
1.47714
1.47358
1.46852
1.46126
1.44874
1.43146
1.40229
1.07012
1.07024
1.07036
1.07049
1.07062
1.07076
1.07091
1.07107
1.07123
1.0714
1.07159
1.07179
1.072
1.07222
1.07245
1.0727
1.07295
1.07322
1.0735
1.0738
1.0741
1.07442
1.07475
1.07509
1.07545
1.0758
1.07614
1.07649
1.07683
1.07714
1.07736
1.07754
1.07772
1.07792
1.07817
1.07848
1.07886
1.07939
1.08003
1.08085
1.082
1.08346
1.08534
1.08803
1.09139
1.09573
1.10206
1.10995
1.1191
1.13119
1.14512
1.15747
1.16611
1.16779
1.1679
1.16807
1.16853
1.16937
1.17042
1.17183
1.17399
1.17812
1.18596
1.20516
1.23541
1.2872
1.34472
1.39527
1.44346
1.46191
1.47472
1.47954
1.47463
1.47594
1.4794
1.48233
1.48243
1.48142
1.48012
1.48221
1.48595
1.49063
1.49166
1.49158
1.49123
1.49086
1.49051
1.48922
1.48766
1.48674
1.48556
1.48328
1.48022
1.47711
1.47349
1.46838
1.46108
1.44851
1.43129
1.40241
1.07026
1.07037
1.07049
1.07062
1.07076
1.0709
1.07104
1.0712
1.07138
1.07156
1.07175
1.07195
1.07216
1.07238
1.07262
1.07287
1.07312
1.07339
1.07368
1.07399
1.07431
1.07464
1.07499
1.07536
1.07575
1.07615
1.07655
1.07695
1.07728
1.07754
1.07771
1.07784
1.07799
1.07818
1.07842
1.07873
1.07911
1.07961
1.08023
1.081
1.08207
1.08345
1.08519
1.0876
1.09078
1.09482
1.10045
1.10802
1.11688
1.12791
1.14178
1.15459
1.16435
1.16841
1.16875
1.16873
1.16891
1.16949
1.17037
1.17161
1.17343
1.17602
1.17873
1.18214
1.18832
1.20512
1.23402
1.28625
1.3449
1.39449
1.43107
1.4535
1.46234
1.47651
1.48387
1.48388
1.48159
1.4779
1.47936
1.48303
1.48904
1.49172
1.49151
1.49164
1.49165
1.49146
1.49082
1.48882
1.48753
1.48673
1.48545
1.48327
1.48038
1.47721
1.47346
1.46807
1.46069
1.44816
1.43125
1.40279
1.07058
1.07071
1.07084
1.07097
1.0711
1.07124
1.07141
1.07158
1.07175
1.07193
1.07213
1.07233
1.07255
1.07277
1.07302
1.07328
1.07355
1.07383
1.07414
1.07446
1.0748
1.07516
1.07554
1.07593
1.07635
1.07679
1.07723
1.07762
1.07785
1.07799
1.0781
1.0782
1.07834
1.07852
1.07875
1.07904
1.0794
1.07985
1.08041
1.08113
1.08208
1.08333
1.08494
1.08709
1.09006
1.09385
1.0988
1.10577
1.11447
1.12478
1.13767
1.15134
1.16233
1.16854
1.16961
1.16957
1.16958
1.16988
1.17051
1.17155
1.17328
1.17582
1.17842
1.18064
1.18217
1.18439
1.18968
1.20566
1.23518
1.28839
1.34503
1.406
1.44606
1.47141
1.47912
1.4783
1.47397
1.47621
1.48147
1.48675
1.49078
1.49036
1.49118
1.49232
1.49251
1.49215
1.49016
1.48849
1.48753
1.48661
1.48518
1.48324
1.48062
1.47735
1.47316
1.46751
1.46017
1.44781
1.43133
1.40352
1.07128
1.0714
1.07153
1.07166
1.07181
1.07196
1.07212
1.07228
1.07245
1.07263
1.07282
1.07302
1.07323
1.07346
1.0737
1.07395
1.07421
1.07449
1.07479
1.0751
1.07543
1.07577
1.07614
1.07652
1.07692
1.07736
1.07778
1.07806
1.07817
1.07823
1.0783
1.07838
1.0785
1.07865
1.07884
1.07909
1.07941
1.07982
1.08036
1.08104
1.08191
1.08309
1.08462
1.08655
1.08924
1.09274
1.09714
1.10335
1.11168
1.12159
1.13352
1.14752
1.15992
1.16789
1.17018
1.17032
1.17023
1.17029
1.17072
1.17167
1.17332
1.17576
1.17834
1.18041
1.18187
1.18301
1.18415
1.18637
1.19207
1.20722
1.23999
1.29268
1.35375
1.41456
1.43852
1.4582
1.4673
1.48046
1.48677
1.48928
1.48815
1.4894
1.49219
1.49375
1.4935
1.49133
1.48945
1.4886
1.48771
1.48635
1.48487
1.48328
1.48072
1.47704
1.47267
1.46707
1.45979
1.44756
1.43148
1.40422
1.07192
1.07204
1.07217
1.0723
1.07244
1.07259
1.07274
1.07289
1.07306
1.07323
1.07341
1.0736
1.0738
1.074
1.07422
1.07446
1.0747
1.07496
1.07524
1.07553
1.07583
1.07615
1.07648
1.07683
1.07721
1.0776
1.07793
1.07811
1.07818
1.07823
1.0783
1.07837
1.07848
1.07862
1.0788
1.07903
1.07933
1.07971
1.08021
1.08084
1.08165
1.08272
1.08414
1.08589
1.08825
1.09145
1.09546
1.1009
1.10859
1.11818
1.12946
1.14317
1.15678
1.16654
1.1704
1.17085
1.17087
1.17089
1.17118
1.17198
1.1735
1.17583
1.17853
1.1806
1.18173
1.18269
1.18382
1.18517
1.18676
1.18908
1.19533
1.2106
1.25019
1.30528
1.36748
1.43069
1.45848
1.47481
1.48236
1.48055
1.4845
1.49088
1.49475
1.49486
1.49274
1.49027
1.48961
1.48925
1.48791
1.48602
1.48473
1.48341
1.48072
1.47675
1.47248
1.46702
1.4596
1.44739
1.43159
1.40465
1.07221
1.07233
1.07245
1.07258
1.07272
1.07286
1.073
1.07316
1.07332
1.07348
1.07366
1.07384
1.07404
1.07424
1.07446
1.07468
1.07492
1.07517
1.07544
1.07572
1.07601
1.07631
1.07661
1.07693
1.07729
1.07767
1.07797
1.07811
1.07816
1.0782
1.07825
1.07832
1.07842
1.07854
1.07871
1.07892
1.07918
1.07952
1.07995
1.08053
1.08127
1.08222
1.08347
1.08506
1.08716
1.09003
1.09376
1.09866
1.10554
1.11458
1.12543
1.13865
1.15307
1.16431
1.16988
1.17114
1.17131
1.17144
1.17175
1.17248
1.17386
1.17605
1.17867
1.18053
1.18157
1.18253
1.18367
1.18489
1.18643
1.18834
1.18953
1.19149
1.1993
1.21778
1.26302
1.32207
1.38209
1.43192
1.4549
1.46824
1.48823
1.49586
1.49575
1.49323
1.49155
1.49071
1.49082
1.49
1.48782
1.48575
1.48479
1.48364
1.48057
1.47655
1.47259
1.46731
1.45966
1.44734
1.43152
1.40484
1.07224
1.07236
1.07249
1.07263
1.07277
1.07291
1.07306
1.07322
1.07339
1.07356
1.07374
1.07393
1.07413
1.07434
1.07456
1.07479
1.07504
1.0753
1.07556
1.07584
1.07613
1.07642
1.07669
1.07698
1.07732
1.07768
1.07791
1.07799
1.07802
1.07805
1.0781
1.07816
1.07825
1.07837
1.07853
1.07873
1.07899
1.07931
1.07971
1.08024
1.08093
1.08183
1.08296
1.0844
1.08629
1.08879
1.09214
1.09663
1.10275
1.11092
1.12125
1.13403
1.14862
1.1612
1.16846
1.17125
1.17189
1.17213
1.17247
1.17316
1.17442
1.17636
1.17871
1.18044
1.18156
1.18263
1.18387
1.18532
1.18723
1.18866
1.18937
1.19005
1.19122
1.19415
1.20462
1.22783
1.28122
1.34369
1.40811
1.45366
1.48258
1.49082
1.48826
1.48929
1.49127
1.4929
1.49197
1.48942
1.48707
1.48581
1.48511
1.48354
1.4803
1.47648
1.47248
1.46715
1.45946
1.44709
1.43105
1.40474
1.07234
1.07247
1.07261
1.07275
1.07292
1.07306
1.07322
1.07338
1.07356
1.07374
1.07392
1.07412
1.07432
1.07454
1.07476
1.07499
1.07524
1.0755
1.07576
1.07604
1.07632
1.07659
1.07686
1.07716
1.07749
1.07782
1.07804
1.07812
1.07816
1.0782
1.07825
1.07831
1.07839
1.07852
1.07866
1.07886
1.07909
1.07937
1.07974
1.08021
1.0808
1.0816
1.08259
1.08381
1.0855
1.08774
1.09066
1.09469
1.10021
1.10744
1.11687
1.12904
1.14342
1.15711
1.16646
1.17097
1.1725
1.17294
1.1733
1.17388
1.17487
1.17654
1.17866
1.1804
1.18165
1.18294
1.18409
1.1852
1.18687
1.18856
1.18942
1.18993
1.19075
1.19203
1.19389
1.1979
1.21215
1.24293
1.30205
1.36674
1.42924
1.453
1.47304
1.48818
1.49505
1.49417
1.49072
1.48761
1.48691
1.48633
1.48554
1.48314
1.48044
1.47672
1.47215
1.46649
1.45878
1.44649
1.43032
1.40453
1.07278
1.07291
1.07306
1.0732
1.07336
1.07352
1.07368
1.07383
1.074
1.07418
1.07435
1.07453
1.07472
1.07491
1.0751
1.07531
1.07554
1.07578
1.07602
1.07627
1.07651
1.07676
1.07701
1.07729
1.0776
1.0779
1.07809
1.07817
1.07821
1.07825
1.0783
1.07837
1.07847
1.07862
1.07879
1.079
1.07924
1.07952
1.07987
1.08029
1.08078
1.08141
1.08223
1.08328
1.08475
1.08675
1.08935
1.09292
1.09776
1.10411
1.11261
1.1237
1.13711
1.15151
1.16355
1.17069
1.17322
1.17364
1.17389
1.1743
1.17506
1.17629
1.17804
1.17991
1.18161
1.18306
1.18413
1.18529
1.18689
1.18867
1.18953
1.18996
1.19065
1.19184
1.19355
1.19529
1.19738
1.2034
1.22175
1.26467
1.32307
1.39117
1.45577
1.47905
1.49159
1.48892
1.48425
1.48594
1.48752
1.48701
1.48462
1.48233
1.48057
1.4771
1.47154
1.46561
1.45801
1.44562
1.42958
1.40456
1.07339
1.07353
1.07366
1.07379
1.07394
1.0741
1.07425
1.07439
1.07454
1.0747
1.07486
1.07502
1.07519
1.07537
1.07554
1.07572
1.07591
1.0761
1.07632
1.07654
1.07674
1.07694
1.07717
1.07742
1.07769
1.07794
1.07812
1.07819
1.07823
1.07828
1.07835
1.07844
1.07855
1.07868
1.07886
1.07908
1.07934
1.07963
1.07995
1.08031
1.08071
1.08121
1.08191
1.08286
1.08412
1.08585
1.08814
1.09123
1.09542
1.10091
1.10829
1.1181
1.13025
1.14449
1.1589
1.16969
1.17362
1.17404
1.17411
1.17439
1.17505
1.17617
1.17781
1.17971
1.1816
1.18315
1.1843
1.18557
1.18745
1.18905
1.18979
1.19018
1.19085
1.19196
1.19351
1.19542
1.19716
1.19887
1.20177
1.21159
1.23431
1.28672
1.35408
1.40788
1.45983
1.46893
1.48027
1.48924
1.48877
1.48617
1.48389
1.48269
1.48143
1.47714
1.47055
1.46496
1.45761
1.44496
1.42906
1.4048
1.07407
1.0742
1.07432
1.07443
1.07456
1.0747
1.07483
1.07495
1.07507
1.0752
1.07532
1.07546
1.07559
1.07573
1.07587
1.07601
1.07614
1.07628
1.07645
1.07663
1.0768
1.07698
1.07718
1.07741
1.07767
1.07796
1.0781
1.07814
1.07816
1.07823
1.07834
1.07844
1.07853
1.07866
1.07883
1.07906
1.07934
1.07964
1.07995
1.08029
1.08066
1.08108
1.08161
1.08236
1.08343
1.08499
1.08705
1.08966
1.09325
1.09797
1.10402
1.11232
1.12335
1.13666
1.15167
1.1664
1.17352
1.17418
1.17419
1.17442
1.1751
1.17623
1.17782
1.17984
1.18201
1.18389
1.18498
1.18598
1.18735
1.18923
1.19027
1.19088
1.19166
1.1928
1.19441
1.19613
1.19773
1.19918
1.20118
1.20356
1.20779
1.22142
1.25246
1.31368
1.38592
1.44143
1.47339
1.48733
1.48594
1.48304
1.48274
1.48315
1.48191
1.47641
1.47025
1.46477
1.45725
1.44431
1.42873
1.40553
1.07464
1.07476
1.07487
1.07497
1.07507
1.07517
1.0753
1.07541
1.0755
1.0756
1.07571
1.07582
1.07593
1.07604
1.07615
1.07627
1.07639
1.07651
1.07665
1.0768
1.07698
1.07715
1.07732
1.07752
1.07772
1.07796
1.07815
1.07818
1.07819
1.07828
1.07837
1.07842
1.07848
1.07859
1.07874
1.07895
1.07921
1.0795
1.07981
1.08016
1.08054
1.08096
1.08148
1.08216
1.0831
1.08442
1.08618
1.08838
1.09124
1.09517
1.10019
1.10682
1.11626
1.1285
1.14309
1.15994
1.17218
1.174
1.17429
1.17477
1.17565
1.17685
1.17831
1.17997
1.18178
1.18381
1.18546
1.18649
1.18764
1.18941
1.19102
1.19187
1.19273
1.19398
1.19571
1.19737
1.19877
1.20001
1.20175
1.20383
1.20585
1.20793
1.2137
1.23462
1.27556
1.34643
1.40865
1.45381
1.46722
1.48005
1.48415
1.48319
1.48094
1.47594
1.47075
1.46523
1.45702
1.44367
1.42855
1.40636
1.07518
1.07529
1.07541
1.07553
1.07563
1.07574
1.07585
1.07597
1.07609
1.07621
1.07634
1.07647
1.0766
1.07674
1.07687
1.07701
1.07716
1.07732
1.07748
1.07766
1.07785
1.07805
1.07821
1.07835
1.07849
1.0786
1.07862
1.0786
1.07859
1.07859
1.07855
1.07856
1.07858
1.07857
1.0786
1.07873
1.07893
1.07919
1.07952
1.0799
1.08028
1.08068
1.08115
1.08181
1.08269
1.08386
1.08544
1.0873
1.08957
1.09273
1.09676
1.10198
1.10969
1.12054
1.13419
1.15044
1.16644
1.17364
1.17521
1.17621
1.17707
1.17797
1.17904
1.18036
1.18198
1.18395
1.1859
1.18704
1.18814
1.18959
1.1911
1.19231
1.19339
1.19473
1.19635
1.19794
1.19942
1.20087
1.20248
1.20459
1.20631
1.20779
1.20915
1.21224
1.22211
1.25369
1.3094
1.37514
1.43764
1.47214
1.47813
1.47647
1.47734
1.47582
1.47257
1.46565
1.45522
1.44216
1.42802
1.40705
1.07598
1.0761
1.07622
1.07633
1.07643
1.07653
1.07665
1.07675
1.07686
1.07697
1.07709
1.07721
1.07734
1.07748
1.07765
1.07785
1.07806
1.07827
1.07851
1.07875
1.07896
1.07911
1.07917
1.07916
1.07914
1.07912
1.07908
1.07903
1.07898
1.07891
1.0788
1.07864
1.07851
1.07841
1.07835
1.07834
1.07842
1.07862
1.07896
1.07937
1.0798
1.08021
1.08067
1.08132
1.08225
1.0834
1.08482
1.08645
1.08827
1.09067
1.09387
1.09811
1.10414
1.11317
1.12561
1.1406
1.15655
1.1686
1.17515
1.1779
1.17859
1.17901
1.17971
1.18083
1.18231
1.18429
1.18657
1.18775
1.18875
1.19003
1.19149
1.19293
1.19429
1.19574
1.19729
1.19874
1.20012
1.20161
1.20328
1.2053
1.20712
1.20834
1.20927
1.21054
1.21221
1.2176
1.23493
1.27892
1.34492
1.40819
1.43878
1.45895
1.47439
1.47713
1.47301
1.46263
1.4514
1.44003
1.42678
1.40697
1.07636
1.07644
1.07652
1.07659
1.07667
1.07677
1.07687
1.07698
1.0771
1.07723
1.07735
1.07749
1.07764
1.07781
1.07802
1.07826
1.07852
1.0788
1.07907
1.07933
1.0795
1.0795
1.07944
1.07936
1.07931
1.07927
1.07921
1.07913
1.07899
1.07882
1.07859
1.07831
1.07804
1.07784
1.07772
1.07772
1.07782
1.07803
1.07835
1.07878
1.07928
1.07982
1.08038
1.08111
1.08209
1.08331
1.08459
1.086
1.08751
1.08928
1.09181
1.09523
1.09989
1.10706
1.11747
1.13042
1.14531
1.16078
1.17329
1.17854
1.17896
1.17915
1.17975
1.18088
1.18245
1.1848
1.18769
1.18894
1.18973
1.19084
1.19214
1.19348
1.1949
1.19646
1.19808
1.19967
1.2013
1.20314
1.20505
1.2066
1.20789
1.20872
1.20941
1.21029
1.21163
1.21291
1.21549
1.22511
1.25389
1.30885
1.38047
1.43441
1.46984
1.47052
1.46576
1.45673
1.44876
1.43912
1.42558
1.4067
1.07602
1.07607
1.07612
1.07617
1.07622
1.07629
1.07636
1.07645
1.07655
1.07666
1.07676
1.07688
1.07702
1.07719
1.0774
1.07764
1.07793
1.07824
1.0785
1.07864
1.07871
1.0787
1.07864
1.07852
1.07846
1.07847
1.07849
1.07846
1.07834
1.07816
1.07797
1.07779
1.07755
1.07734
1.07737
1.07757
1.07773
1.07788
1.07814
1.07856
1.07913
1.07977
1.08049
1.08126
1.08229
1.08357
1.0848
1.08592
1.08706
1.08844
1.09037
1.09306
1.0969
1.10242
1.11006
1.12067
1.13421
1.14956
1.1653
1.17669
1.17889
1.17938
1.18032
1.18163
1.18304
1.18483
1.18695
1.18863
1.19009
1.19164
1.19318
1.19471
1.19629
1.19783
1.19927
1.20075
1.20258
1.20488
1.2075
1.20891
1.20952
1.20997
1.21019
1.21047
1.21113
1.21226
1.21355
1.21478
1.21934
1.23673
1.28245
1.34338
1.41246
1.44104
1.45048
1.45369
1.45027
1.44003
1.42496
1.40682
1.07553
1.07556
1.07559
1.07562
1.07568
1.07575
1.07581
1.07587
1.07594
1.07602
1.07612
1.07625
1.07641
1.07661
1.07683
1.07704
1.07727
1.07749
1.07762
1.07771
1.07776
1.0778
1.07778
1.07776
1.07776
1.0778
1.07782
1.07783
1.07781
1.07773
1.07761
1.07745
1.07743
1.07759
1.07796
1.07835
1.07844
1.07852
1.07873
1.07914
1.07967
1.08032
1.08101
1.08174
1.08265
1.08381
1.0849
1.08555
1.08621
1.08728
1.0888
1.09095
1.09411
1.09823
1.10377
1.11206
1.12308
1.13619
1.15227
1.16803
1.1764
1.18016
1.18271
1.18403
1.18466
1.1855
1.187
1.18893
1.19078
1.19236
1.19391
1.19575
1.19791
1.20004
1.20179
1.20318
1.2046
1.20649
1.20908
1.21099
1.21175
1.21221
1.21237
1.21231
1.21208
1.21233
1.21313
1.21394
1.21454
1.21645
1.22616
1.25862
1.31489
1.39013
1.43662
1.45071
1.44609
1.43397
1.42284
1.40752
1.07592
1.076
1.07613
1.07629
1.07628
1.07618
1.07613
1.07616
1.07625
1.07636
1.07648
1.0766
1.07681
1.07708
1.07724
1.07736
1.07762
1.07779
1.07789
1.07803
1.07819
1.07826
1.07829
1.07833
1.07834
1.07833
1.07832
1.07841
1.07847
1.07845
1.07853
1.0788
1.07892
1.07913
1.07948
1.07958
1.07954
1.07945
1.07962
1.07994
1.08021
1.08056
1.08104
1.08166
1.08249
1.08333
1.08375
1.08405
1.08458
1.08557
1.08714
1.0891
1.09154
1.0948
1.09904
1.1048
1.11312
1.12424
1.13839
1.15611
1.16991
1.17819
1.18467
1.1864
1.18653
1.18656
1.18746
1.18944
1.19171
1.19348
1.19504
1.1969
1.19918
1.20154
1.20352
1.20505
1.20643
1.20799
1.21002
1.2122
1.21342
1.21417
1.21473
1.21506
1.21497
1.21443
1.21383
1.21379
1.2138
1.21365
1.21397
1.21901
1.23966
1.29077
1.35591
1.40588
1.41192
1.41926
1.42081
1.40895
1.08027
1.08045
1.08069
1.08101
1.08116
1.08115
1.08112
1.08118
1.08128
1.0812
1.08116
1.08112
1.08103
1.08075
1.08063
1.08063
1.08065
1.08067
1.08068
1.08068
1.08058
1.08044
1.08032
1.08017
1.07985
1.07943
1.07933
1.07932
1.07928
1.07927
1.07936
1.07967
1.07995
1.07998
1.0799
1.07991
1.07994
1.07972
1.07974
1.08028
1.08077
1.08086
1.08097
1.0813
1.08197
1.08253
1.08272
1.08294
1.08348
1.08457
1.08624
1.08829
1.09058
1.09331
1.09653
1.1005
1.10652
1.11507
1.12578
1.14018
1.15656
1.17041
1.18158
1.18765
1.18829
1.18838
1.18888
1.19032
1.19227
1.19419
1.19618
1.19851
1.20078
1.2027
1.20449
1.20637
1.20826
1.20992
1.21132
1.21262
1.21394
1.21516
1.21612
1.21684
1.21722
1.21726
1.21648
1.21518
1.21405
1.21355
1.21338
1.21241
1.21332
1.22532
1.26305
1.31686
1.36276
1.40278
1.41237
1.40545
1.08529
1.08522
1.08505
1.0848
1.08459
1.0846
1.08493
1.08518
1.08504
1.08489
1.08486
1.0847
1.08412
1.0832
1.08248
1.08218
1.0821
1.08203
1.08192
1.0819
1.08186
1.08164
1.08111
1.08035
1.07941
1.07859
1.07836
1.0784
1.07849
1.07858
1.07881
1.07892
1.07894
1.07894
1.07884
1.07888
1.07903
1.07903
1.07935
1.08011
1.08036
1.08046
1.0807
1.08125
1.08198
1.08272
1.08308
1.08337
1.0839
1.08497
1.08657
1.08884
1.09122
1.09357
1.09616
1.09919
1.10328
1.10899
1.11604
1.1258
1.13985
1.15436
1.16902
1.18132
1.18474
1.18671
1.18895
1.19119
1.19309
1.19496
1.19742
1.20019
1.20236
1.20414
1.20598
1.20815
1.21102
1.21337
1.21422
1.21473
1.21514
1.21577
1.21656
1.21721
1.21781
1.2184
1.21855
1.21793
1.21664
1.21544
1.21441
1.21276
1.21105
1.20483
1.21149
1.22978
1.26689
1.31467
1.35751
1.38785
1.09088
1.0904
1.09004
1.08989
1.08986
1.08992
1.08999
1.08991
1.08967
1.08965
1.08963
1.08931
1.08832
1.08726
1.08683
1.08668
1.08658
1.08655
1.08659
1.08661
1.08651
1.08603
1.08507
1.08405
1.08321
1.08258
1.08208
1.08212
1.0828
1.08358
1.08384
1.08386
1.0838
1.08347
1.08279
1.08246
1.08257
1.08294
1.08324
1.08362
1.0839
1.08389
1.08388
1.08412
1.08477
1.08602
1.08658
1.0869
1.08759
1.08886
1.09023
1.09218
1.0943
1.09565
1.09714
1.09937
1.10221
1.10585
1.11038
1.11654
1.12608
1.13849
1.1518
1.1664
1.17748
1.18409
1.18865
1.19224
1.19493
1.19742
1.20015
1.20275
1.20471
1.20641
1.20828
1.21054
1.2136
1.2163
1.21744
1.21823
1.2187
1.21884
1.21898
1.21919
1.21925
1.21907
1.21919
1.21967
1.21964
1.21891
1.21736
1.21489
1.2124
1.20655
1.19871
1.18928
1.19463
1.21985
1.27885
1.35963
1.11967
1.11925
1.11828
1.1167
1.11523
1.11452
1.11411
1.11405
1.11417
1.11411
1.11365
1.11261
1.11163
1.1111
1.11047
1.11024
1.11036
1.11024
1.10961
1.10919
1.10907
1.1086
1.10735
1.10701
1.1067
1.10579
1.10466
1.10459
1.10524
1.10537
1.10494
1.10401
1.10325
1.10225
1.10006
1.09917
1.09897
1.09842
1.09765
1.09682
1.09608
1.09524
1.09447
1.09397
1.0939
1.09378
1.0933
1.09323
1.09345
1.09391
1.09429
1.09452
1.09492
1.09512
1.0957
1.09734
1.1001
1.10378
1.10822
1.11356
1.12047
1.129
1.1388
1.15058
1.16391
1.17593
1.18462
1.19047
1.19477
1.19888
1.20271
1.20562
1.20798
1.21026
1.21234
1.21413
1.21593
1.21783
1.21972
1.22163
1.22302
1.22379
1.22419
1.22439
1.22422
1.22313
1.2215
1.22101
1.22123
1.22107
1.21966
1.21696
1.21426
1.20879
1.19743
1.18003
1.16385
1.16716
1.1922
1.279
1.15396
1.15339
1.15278
1.15185
1.15084
1.14981
1.1487
1.1477
1.14672
1.14551
1.14451
1.14427
1.14386
1.14241
1.14129
1.14061
1.13979
1.13888
1.13737
1.13539
1.13471
1.13405
1.13172
1.13038
1.13063
1.13022
1.12841
1.12681
1.12667
1.12687
1.12627
1.12375
1.12146
1.11978
1.11804
1.11657
1.11526
1.11423
1.11323
1.11241
1.11168
1.11064
1.10851
1.1073
1.10698
1.10649
1.10522
1.10333
1.10274
1.1023
1.10144
1.10058
1.09987
1.0995
1.09974
1.10079
1.10306
1.10638
1.11055
1.11527
1.12107
1.12842
1.13699
1.14658
1.15715
1.16778
1.17732
1.18542
1.1929
1.19941
1.20392
1.20662
1.20927
1.21295
1.21718
1.21938
1.22022
1.2211
1.22218
1.22346
1.22545
1.22731
1.22814
1.22861
1.22884
1.22858
1.22732
1.2255
1.22407
1.22299
1.2217
1.21923
1.21413
1.20647
1.19373
1.17511
1.15896
1.15464
1.1582
1.20585
1.19674
1.19557
1.19431
1.19396
1.19449
1.19505
1.1944
1.19243
1.1909
1.19015
1.18972