/*--------------------------------*- C++ -*----------------------------------*\
  =========                 |
  \\      /  F ield         | OpenFOAM: The Open Source CFD Toolbox
   \\    /   O peration     | Website:  https://openfoam.org
    \\  /    A nd           | Version:  7
     \\/     M anipulation  |
\*---------------------------------------------------------------------------*/
FoamFile
{
    version     2.0;
    format      ascii;
    class       volScalarField;
    location    "7.8";
    object      rho;
}
// * * * * * * * * * * * * * * * * * * * * * * * * * * * * * * * * * * * * * //

dimensions      [1 -3 0 0 0 0 0];

internalField   nonuniform List<scalar> 
1750
(
0.239059
0.428651
0.536979
0.548074
0.580977
0.646801
0.716817
0.769776
0.835597
0.885645
0.0706373
0.134765
0.316715
0.462993
0.595833
0.654689
0.675589
0.713939
0.771217
0.810579
0.0832262
0.0909449
0.116563
0.237298
0.424208
0.578878
0.700068
0.767274
0.78896
0.787476
0.104424
0.12914
0.169477
0.192703
0.204439
0.281749
0.464041
0.642297
0.732479
0.817343
0.194292
0.210014
0.248969
0.262666
0.263228
0.269297
0.273896
0.326625
0.452956
0.719243
0.324141
0.331289
0.342958
0.35714
0.372813
0.389439
0.405503
0.426334
0.426264
0.475929
0.519711
0.515463
0.514092
0.522183
0.534581
0.542996
0.542413
0.541867
0.536974
0.532629
0.797111
0.774009
0.756563
0.73823
0.718687
0.700472
0.68465
0.670336
0.662636
0.652031
1.15681
1.11695
1.07233
1.03381
0.995131
0.957468
0.924286
0.88806
0.862307
0.825194
1.42303
1.40027
1.36809
1.33213
1.29226
1.24623
1.19751
1.14855
1.10261
1.03023
1.47147
1.46932
1.46535
1.45915
1.44971
1.43426
1.41109
1.37992
1.3452
1.27246
1.45153
1.4547
1.45747
1.45874
1.45853
1.45773
1.45608
1.45286
1.44757
1.42498
1.41217
1.41649
1.42135
1.42723
1.43325
1.43854
1.44296
1.44633
1.44766
1.44678
1.40062
1.40109
1.40187
1.40318
1.40523
1.40829
1.41227
1.41744
1.42314
1.43133
1.40001
1.40002
1.40004
1.40009
1.40019
1.40041
1.40085
1.40172
1.40315
1.40808
0.0766625
0.0637594
0.0725705
0.0929031
0.183082
0.320029
0.518598
0.814524
1.19054
1.43881
1.47228
1.44659
1.40899
1.40041
1.40001
0.0765744
0.0578794
0.0735019
0.117176
0.223704
0.382695
0.610427
0.949254
1.31275
1.47244
1.47337
1.43765
1.40503
1.40016
1.40001
0.069883
0.0540166
0.0742053
0.141178
0.244088
0.417431
0.687133
1.06458
1.38763
1.48266
1.47371
1.42881
1.40273
1.40007
1.40001
0.0650531
0.0522708
0.0810074
0.16739
0.274343
0.474572
0.814898
1.1881
1.44143
1.48767
1.46704
1.41912
1.4013
1.40003
1.40001
0.062996
0.0515838
0.0908039
0.179881
0.329337
0.598403
0.941689
1.29004
1.47598
1.48962
1.45729
1.41153
1.40058
1.40002
1.40001
0.0608599
0.059247
0.0981744
0.193192
0.408991
0.719979
1.06952
1.38527
1.49444
1.49012
1.4431
1.40628
1.40024
1.40001
1.40001
0.046009
0.0688185
0.118009
0.253591
0.514697
0.841592
1.21513
1.45854
1.5016
1.48265
1.42972
1.40298
1.40009
1.40001
1.40001
0.0323399
0.0630064
0.155071
0.353984
0.644666
1.00782
1.3492
1.49651
1.50352
1.46993
1.41798
1.4012
1.40003
1.40001
1.40001
0.020307
0.0579163
0.198669
0.461447
0.811836
1.1959
1.44418
1.5118
1.50407
1.45335
1.40907
1.40046
1.40001
1.40001
1.40001
0.0114604
0.0885549
0.296683
0.620988
1.01904
1.34596
1.50008
1.51677
1.49194
1.43381
1.4038
1.40014
1.40001
1.40001
1.40001
0.00991561
0.16531
0.454541
0.846534
1.22683
1.45611
1.52197
1.51787
1.47384
1.41825
1.40143
1.40005
1.40001
1.40001
1.40001
0.0444126
0.275513
0.671844
1.10728
1.40143
1.51611
1.52712
1.50732
1.44829
1.40787
1.40042
1.40002
1.40001
1.40001
1.40001
0.178686
0.507367
0.99218
1.33625
1.49948
1.53308
1.52774
1.48503
1.42549
1.40264
1.40011
1.40001
1.40001
1.40001
1.40001
0.429175
0.876776
1.28264
1.47929
1.53608
1.53571
1.5122
1.45333
1.41029
1.40069
1.40003
1.40001
1.40001
1.40001
1.40001
0.902659
1.26675
1.4785
1.53776
1.54208
1.53218
1.48603
1.42697
1.40301
1.40013
1.40001
1.40001
1.40001
1.40001
1.40001
1.52799
1.53581
1.54542
1.54501
1.54227
1.50934
1.451
1.40789
1.40022
1.40001
1.40001
1.40001
1.40001
1.40001
1.40001
1.52642
1.53362
1.54421
1.54389
1.53792
1.50565
1.44499
1.4081
1.40053
1.40002
1.40001
1.40001
1.40001
1.40001
1.40001
1.5272
1.53428
1.54541
1.54352
1.53233
1.48367
1.42481
1.40251
1.40008
1.40001
1.40001
1.40001
1.40001
1.40001
1.40001
1.52794
1.53374
1.54365
1.54022
1.51995
1.46643
1.41559
1.40113
1.40003
1.40001
1.40001
1.40001
1.40001
1.40001
1.40001
1.52972
1.53395
1.54133
1.53809
1.50876
1.44734
1.40759
1.4004
1.40001
1.40001
1.40001
1.40001
1.40001
1.40001
1.40001
1.53196
1.53518
1.53881
1.53283
1.48976
1.42953
1.40345
1.40014
1.40001
1.40001
1.40001
1.40001
1.40001
1.40001
1.40001
1.5337
1.53537
1.53538
1.5215
1.46914
1.41698
1.40137
1.40004
1.40001
1.40001
1.40001
1.40001
1.40001
1.40001
1.40001
1.53545
1.53477
1.53281
1.50522
1.44817
1.40828
1.40047
1.40002
1.40001
1.40001
1.40001
1.40001
1.40001
1.40001
1.40001
1.53658
1.53094
1.52315
1.48409
1.42791
1.40327
1.40014
1.40001
1.40001
1.40001
1.40001
1.40001
1.40001
1.40001
1.40001
1.53641
1.52298
1.51041
1.46194
1.41518
1.40121
1.40004
1.40001
1.40001
1.40001
1.40001
1.40001
1.40001
1.40001
1.40001
1.53701
1.51813
1.4974
1.44035
1.40611
1.40033
1.40001
1.40001
1.40001
1.40001
1.40001
1.40001
1.40001
1.40001
1.40001
1.53352
1.51286
1.47124
1.42117
1.40215
1.40008
1.40001
1.40001
1.40001
1.40001
1.40001
1.40001
1.40001
1.40001
1.40001
1.51732
1.49331
1.44751
1.40911
1.40056
1.40002
1.40001
1.40001
1.40001
1.40001
1.40001
1.40001
1.40001
1.40001
1.40001
1.50243
1.47159
1.42594
1.40291
1.40012
1.40001
1.40001
1.40001
1.40001
1.40001
1.40001
1.40001
1.40001
1.40001
1.40001
1.48141
1.44584
1.40867
1.40057
1.40002
1.40001
1.40001
1.40001
1.40001
1.40001
1.40001
1.40001
1.40001
1.40001
1.40001
1.44876
1.41649
1.40194
1.4001
1.40001
1.40001
1.40001
1.40001
1.40001
1.40001
1.40001
1.40001
1.40001
1.40001
1.40001
1.40001
1.40001
1.40001
1.40001
1.40001
1.40001
1.40001
1.40001
1.40001
1.40001
1.40001
1.40001
1.40001
1.40001
1.40001
1.40001
1.40001
1.40001
1.40001
1.40001
1.40001
1.40001
1.40001
1.40001
1.40001
1.40001
1.40001
1.40001
1.40001
1.40001
1.40001
1.40001
1.40001
1.40001
1.40001
1.40001
1.40001
1.40001
1.40001
1.40001
1.40001
1.40001
1.40001
1.40001
1.40001
1.40001
1.40001
1.40001
1.40001
1.40001
1.40001
1.40001
1.40001
1.40001
1.40001
1.40001
1.40001
1.40001
1.40001
1.40001
1.40001
1.40001
1.40001
1.40001
1.40001
1.40001
1.40001
1.40001
1.40001
1.40001
1.40001
1.40001
1.40001
1.40001
1.40001
1.40001
1.40001
1.40001
1.40001
1.40001
1.40001
1.40001
1.40001
1.40001
1.40001
1.40001
1.40001
1.40001
1.40001
1.40001
1.40001
1.40001
1.40001
1.40001
1.40001
1.40001
1.40001
1.40001
1.40001
1.40001
1.40001
1.40001
1.40001
1.40001
1.40001
1.40001
1.40001
1.40001
1.40001
1.40001
1.40001
1.40001
1.40001
1.40001
1.40001
1.40001
1.40001
1.40001
1.40001
1.40001
1.40001
1.40001
1.40001
1.40001
1.40001
1.40001
1.40001
1.40001
1.40001
1.40001
1.40001
1.40001
1.40001
1.40001
1.40001
1.59761
1.40001
1.40001
1.40001
1.40001
1.40001
1.40001
1.40001
1.40001
1.40001
1.44841
1.40001
1.40001
1.40001
1.40001
1.40001
1.40001
1.40001
1.40001
1.40001
1.41451
1.40001
1.40001
1.40001
1.40001
1.40001
1.40001
1.40001
1.40001
1.40001
1.40322
1.40001
1.40001
1.40001
1.40001
1.40001
1.40001
1.40001
1.40001
1.40001
1.40057
1.40001
1.40001
1.40001
1.40001
1.40001
1.40001
1.40001
1.40001
1.40001
1.40008
1.40001
1.40001
1.40001
1.40001
1.40001
1.40001
1.40001
1.40001
1.40001
1.40001
1.40001
1.40001
1.40001
1.40001
1.40001
1.40001
1.40001
1.40001
1.40001
1.40001
1.40001
1.40001
1.40001
1.40001
1.40001
1.40001
1.40001
1.40001
1.40001
1.40001
1.40001
1.40001
1.40001
1.40001
1.40001
1.40001
1.40001
1.40001
1.40001
1.40001
1.40001
1.40001
1.40001
1.40001
1.40001
1.40001
1.40001
1.40001
1.40001
1.40001
1.40001
1.40001
1.40001
1.40001
1.40001
1.40001
1.40001
1.40001
1.40001
1.40001
1.40001
1.40001
1.40001
1.40001
1.40001
1.40001
1.40001
1.40001
1.40001
1.40001
1.40001
1.40001
1.40001
1.40001
1.40001
1.40001
1.40001
1.40001
1.40001
1.40001
1.40001
1.40001
1.40001
1.40001
1.40001
1.40001
1.40001
1.40001
1.40001
1.40001
1.40001
1.40001
1.40001
1.40001
1.40001
1.40001
1.40001
1.40001
1.40001
1.40001
1.40001
1.40001
1.40001
1.40001
1.40001
1.40001
1.40001
1.40001
1.40001
1.40001
1.40001
1.40001
1.40001
1.40001
1.40001
1.40001
1.40001
1.40001
1.40001
1.40001
1.40001
1.40001
1.40001
1.40001
1.40001
1.40001
1.40001
1.40001
1.40001
1.40001
1.40001
1.40001
1.40001
1.40001
1.40001
1.40001
1.40001
1.40001
1.40001
1.40001
1.40001
1.40001
1.40001
1.40001
1.40001
1.40001
1.40001
1.40001
1.40001
4.61207
3.57888
1.90623
1.40164
1.40028
1.40005
1.40001
1.40001
1.40001
1.40001
1.40001
1.40001
1.40001
1.40001
1.40001
1.40001
1.40001
1.40001
1.40001
1.40001
4.8707
4.7432
4.63113
3.06621
1.46005
1.40003
1.40001
1.40001
1.40001
1.40001
1.40001
1.40001
1.40001
1.40001
1.40001
1.40001
1.40001
1.40001
1.40001
1.40001
4.76586
4.70869
4.91271
4.92056
3.75639
1.7014
1.40001
1.40001
1.40001
1.40001
1.40001
1.40001
1.40001
1.40001
1.40001
1.40001
1.40001
1.40001
1.40001
1.40001
4.68851
4.67623
4.82782
4.92692
4.921
4.07892
1.90681
1.39941
1.40001
1.40001
1.40001
1.40001
1.40001
1.40001
1.40001
1.40001
1.40001
1.40001
1.40001
1.40001
4.67136
4.67695
4.80134
4.87199
4.91596
4.9138
4.23908
1.9983
1.39868
1.40001
1.40001
1.40001
1.40001
1.40001
1.40001
1.40001
1.40001
1.40001
1.40001
1.40001
4.65835
4.66893
4.76407
4.83888
4.88604
4.88818
4.85983
4.06782
1.87
1.39878
1.40001
1.40001
1.40001
1.40001
1.40001
1.40001
1.40001
1.40001
1.40001
1.40001
4.64391
4.65501
4.73528
4.7928
4.84636
4.84511
4.84854
4.85109
3.86517
1.72461
1.39888
1.40001
1.40001
1.40001
1.40001
1.40001
1.40001
1.40001
1.40001
1.40001
4.62913
4.63286
4.70021
4.75004
4.79997
4.80491
4.80809
4.84324
4.71576
3.33277
1.53843
1.39944
1.40001
1.40001
1.40001
1.40001
1.40001
1.40001
1.40001
1.40001
4.61376
4.61296
4.67077
4.71573
4.76425
4.78027
4.7913
4.80574
4.83696
4.69155
2.75629
1.43019
1.39987
1.40001
1.40001
1.40001
1.40001
1.40001
1.40001
1.40001
4.59854
4.59676
4.64484
4.68865
4.73988
4.76022
4.7771
4.78814
4.81581
4.86457
4.57585
2.28405
1.40293
1.40001
1.40001
1.40001
1.40001
1.40001
1.40001
1.40001
4.58424
4.58226
4.62447
4.66817
4.72253
4.74792
4.76564
4.78055
4.80592
4.83584
4.77136
3.96378
1.7965
1.3984
1.40001
1.40001
1.40001
1.40001
1.40001
1.40001
4.56951
4.56733
4.60509
4.6485
4.70435
4.73092
4.75106
4.77019
4.78613
4.78965
4.73415
4.69783
3.15853
1.50328
1.39955
1.4
1.40001
1.40001
1.40001
1.40001
4.55163
4.54948
4.58358
4.62481
4.67569
4.70388
4.72828
4.74496
4.74799
4.74514
4.69382
4.6616
4.30684
2.25857
1.4085
1.39997
1.4
1.40001
1.40001
1.40001
4.51956
4.512
4.53434
4.56062
4.59841
4.6211
4.6417
4.65237
4.66066
4.66357
4.62252
4.60564
4.64766
3.75043
1.72045
1.40249
1.40001
1.40001
1.40001
1.40001
4.37786
4.29682
4.30166
4.30872
4.33744
4.3671
4.39971
4.42895
4.46268
4.48456
4.49032
4.51849
4.58365
4.40357
2.65627
1.40436
1.39981
1.4
1.4
1.40001
1.98422
2.66832
3.01529
3.28753
3.4889
3.66746
3.81016
3.93889
4.04781
4.14004
4.20606
4.27914
4.36806
4.36027
4.08853
2.24321
1.44453
1.40041
1.40001
1.40001
0.766274
1.5858
2.07011
2.46
2.77488
3.00364
3.22874
3.40718
3.58106
3.73559
3.85349
3.96704
4.0648
4.17355
4.23194
3.5873
1.91484
1.41862
1.40015
1.40001
0.796895
1.24963
1.50855
1.81115
2.16576
2.47281
2.73327
2.96156
3.17441
3.3571
3.53047
3.66687
3.7979
3.92846
4.10197
3.99108
2.95315
1.61887
1.40436
1.40003
0.876188
1.06079
1.2048
1.50145
1.75924
2.04456
2.3087
2.57644
2.80741
3.01849
3.20948
3.37681
3.53953
3.68948
3.85129
3.9148
3.72066
2.30788
1.45916
1.40057
0.916221
0.957951
1.01488
1.23124
1.47252
1.73516
1.97847
2.23115
2.4644
2.70741
2.89003
3.09444
3.27646
3.452
3.60517
3.74823
3.75073
3.08276
1.72994
1.40904
0.983279
0.970779
1.01294
1.1287
1.26131
1.46993
1.71365
1.94862
2.19347
2.42357
2.64597
2.83288
3.05397
3.23203
3.3943
3.54561
3.69842
3.57089
2.31133
1.46823
1.02438
1.00472
1.04299
1.09628
1.16451
1.32174
1.52175
1.73625
1.97972
2.18992
2.43928
2.61964
2.84787
3.03929
3.18013
3.33717
3.5721
3.58509
2.97409
1.72355
1.02504
1.02592
1.06039
1.05957
1.0844
1.21544
1.3775
1.56342
1.78599
2.00068
2.22191
2.43492
2.61445
2.83718
2.97606
3.14308
3.37805
3.54916
3.32701
2.22825
1.02624
1.0321
1.05334
1.05024
1.05405
1.1157
1.22431
1.40453
1.59098
1.8244
2.01816
2.25943
2.43119
2.64171
2.81801
2.99102
3.20422
3.46577
3.36314
2.94845
1.03233
1.04013
1.05411
1.05514
1.06853
1.11375
1.16042
1.29444
1.46275
1.67811
1.88521
2.1035
2.3015
2.47953
2.66875
2.83683
3.0233
3.30082
3.40206
3.78114
1.02959
1.03609
1.05244
1.07178
1.08623
1.10229
1.12545
1.23643
1.37952
1.56268
1.76864
1.95223
2.16411
2.33086
2.51824
2.67302
2.85145
3.11162
3.50101
4.52146
1.01756
1.02494
1.05379
1.08104
1.08964
1.07945
1.08459
1.16565
1.2925
1.44958
1.65394
1.81524
2.00156
2.17824
2.37176
2.54676
2.73869
2.9477
3.54868
5.21155
1.01041
1.02243
1.05835
1.08411
1.08522
1.07454
1.07377
1.11234
1.19441
1.3318
1.52227
1.71189
1.87386
2.06353
2.24415
2.43849
2.62534
2.85059
3.65248
5.84007
1.01078
1.02422
1.05738
1.08458
1.08561
1.07861
1.07935
1.11436
1.16748
1.2814
1.42851
1.62059
1.7785
1.96983
2.14013
2.32299
2.47556
2.76608
3.82691
6.27787
1.01326
1.02789
1.0532
1.08066
1.08577
1.08326
1.09
1.10907
1.13914
1.23856
1.35603
1.52826
1.68326
1.8605
2.04539
2.19325
2.34997
2.69347
3.98995
6.47558
0.881
1.00818
1.04638
1.07568
1.08696
1.0907
1.09614
1.09319
1.10419
1.18265
1.28392
1.43448
1.59925
1.72677
1.94177
2.09958
2.28568
2.72018
4.18521
6.47745
0.751111
0.933682
1.02155
1.0675
1.09248
1.09722
1.09664
1.09105
1.09692
1.15843
1.23586
1.33745
1.51721
1.66023
1.82797
2.00906
2.21622
2.85725
4.3561
6.32456
0.662392
0.836301
0.968065
1.04732
1.09129
1.10436
1.09999
1.09248
1.09584
1.14048
1.20538
1.29534
1.42905
1.59128
1.72012
1.89862
2.14513
3.05487
4.39025
6.03081
0.617104
0.757354
0.89719
1.00704
1.07727
1.10189
1.09945
1.0945
1.09734
1.11799
1.15839
1.25064
1.34831
1.50507
1.64369
1.805
2.18099
3.33244
4.40453
5.68064
0.623154
0.710646
0.824979
0.944604
1.04026
1.08876
1.10147
1.10187
1.10325
1.10872
1.11565
1.18554
1.28369
1.40176
1.5496
1.75529
2.33966
3.60076
4.34542
5.28425
0.64878
0.674377
0.759994
0.878595
0.978421
1.05706
1.09695
1.10528
1.10362
1.09899
1.10157
1.13759
1.21921
1.335
1.48011
1.77169
2.58426
3.74731
4.22955
4.81789
0.701873
0.687118
0.722596
0.802761
0.903553
1.0035
1.07298
1.09771
1.09596
1.08612
1.0892
1.11815
1.1693
1.27237
1.42026
1.87671
2.83412
3.75025
4.07128
4.33915
0.774059
0.742177
0.722922
0.743764
0.828717
0.931401
1.02068
1.07127
1.08335
1.07827
1.08343
1.10175
1.12713
1.2134
1.4694
2.13183
3.02489
3.69404
3.8648
3.89198
0.850759
0.813836
0.740761
0.746682
0.773622
0.852805
0.948878
1.02713
1.06493
1.07302
1.0797
1.08481
1.09787
1.23528
1.65923
2.46712
3.03202
3.55299
3.60124
3.55167
0.939553
0.922769
0.854143
0.782023
0.761266
0.780188
0.847758
0.930307
1.00337
1.048
1.06855
1.09026
1.19032
1.51557
2.04253
2.57742
2.88344
3.19253
3.15159
3.0794
)
;

boundaryField
{
    inlet
    {
        type            calculated;
        value           uniform 1.40001;
    }
    outlet
    {
        type            calculated;
        value           nonuniform List<scalar> 
35
(
0.939719
0.922918
0.854249
0.782072
0.761235
0.780169
0.847729
0.930289
1.00338
1.04807
1.06872
1.09061
1.19124
1.51732
2.04407
2.57838
2.88391
3.19216
3.15146
3.07918
0.885786
0.810772
0.787486
0.817268
0.719289
0.47607
0.532715
0.652003
0.825182
1.03023
1.27246
1.42498
1.44678
1.43133
1.40808
)
;
    }
    airfoil
    {
        type            calculated;
        value           nonuniform List<scalar> 
60
(
0.0766625
0.0765744
0.069883
0.0650531
0.062996
0.0608599
0.046009
0.0323399
0.020307
0.0114604
0.00991561
0.0444126
0.178686
0.429175
0.902659
1.52799
1.52642
1.5272
1.52794
1.52972
1.53196
1.5337
1.53545
1.53658
1.53641
1.53701
1.53352
1.51732
1.50243
1.48141
4.61207
4.8707
4.76586
4.68851
4.67136
4.65835
4.64391
4.62913
4.61376
4.59854
4.58424
4.56951
4.55163
4.51956
4.37786
1.98422
0.766274
0.796895
0.876188
0.916221
0.983279
1.02438
1.02504
1.02624
1.03233
1.02959
1.01756
1.01041
1.01078
1.01326
)
;
    }
    top
    {
        type            symmetryPlane;
    }
    bottom
    {
        type            symmetryPlane;
    }
    defaultFaces
    {
        type            empty;
    }
}


// ************************************************************************* //
