/*--------------------------------*- C++ -*----------------------------------*\
  =========                 |
  \\      /  F ield         | OpenFOAM: The Open Source CFD Toolbox
   \\    /   O peration     | Website:  https://openfoam.org
    \\  /    A nd           | Version:  7
     \\/     M anipulation  |
\*---------------------------------------------------------------------------*/
FoamFile
{
    version     2.0;
    format      ascii;
    class       volScalarField;
    location    "5";
    object      p;
}
// * * * * * * * * * * * * * * * * * * * * * * * * * * * * * * * * * * * * * //

dimensions      [1 -1 -2 0 0 0 0];

internalField   nonuniform List<scalar> 
90000
(
0.945572
0.943257
0.942796
0.942543
0.944249
0.946495
0.949962
0.953362
0.95692
0.959755
0.962962
0.965338
0.96785
0.969698
0.971898
0.973462
0.975272
0.976815
0.978581
0.980065
0.981721
0.983325
0.985402
0.987465
0.989665
0.992043
0.994227
0.996437
0.99872
1.00075
1.00245
1.00417
1.00559
1.00705
1.00686
1.0052
1.00079
0.995779
0.991843
0.989127
0.989268
0.990282
0.992342
0.994999
0.997163
0.999106
1.00039
1.00036
0.999616
0.997728
0.994763
0.992122
0.991085
0.991585
0.993372
0.996554
0.999137
1.00107
1.0008
0.9994
0.99652
0.993641
0.99356
0.99482
0.997554
0.999595
0.999412
0.998531
0.996646
0.995136
0.995605
0.997043
0.997763
0.997437
0.996183
0.995234
0.995406
0.996381
0.99674
0.996669
0.996568
0.996634
0.997119
0.997239
0.996982
0.996895
0.997127
0.997241
0.997038
0.996585
0.996407
0.996343
0.996521
0.996836
0.997383
0.997727
0.997761
0.997485
0.996901
0.99464
0.948521
0.948522
0.948548
0.948616
0.948733
0.94898
0.949331
0.949733
0.950287
0.950982
0.951897
0.953281
0.955239
0.957455
0.959588
0.961673
0.963682
0.965791
0.967948
0.970063
0.971902
0.973679
0.975433
0.977353
0.979295
0.981318
0.983533
0.985779
0.988101
0.990489
0.992882
0.995184
0.997208
0.999229
1.0005
1.00157
1.00261
1.00355
1.00283
1.00058
0.997298
0.994191
0.992096
0.991122
0.991496
0.992321
0.993765
0.995998
0.998185
1.0005
1.00028
0.998957
0.996297
0.993852
0.992444
0.992998
0.994458
0.997028
0.99942
1.00133
1.00033
0.997626
0.995208
0.994178
0.994966
0.99689
0.998796
0.999275
0.998111
0.996389
0.995721
0.996121
0.997003
0.997555
0.99721
0.996204
0.995713
0.995955
0.99667
0.996928
0.996784
0.996717
0.996952
0.997155
0.997131
0.997032
0.99709
0.99725
0.997239
0.996975
0.996586
0.996379
0.9964
0.996694
0.997196
0.997717
0.997675
0.997483
0.997028
0.994815
0.948528
0.948534
0.948532
0.948514
0.948497
0.948512
0.948522
0.948527
0.948553
0.948577
0.948643
0.9488
0.949081
0.949538
0.950168
0.950997
0.952022
0.953246
0.954679
0.956248
0.957985
0.959849
0.961858
0.963941
0.966124
0.968297
0.970645
0.973024
0.975522
0.978162
0.980924
0.983799
0.98657
0.989471
0.992141
0.994828
0.997046
0.998522
0.999337
0.999959
1.00068
1.0006
0.999554
0.997604
0.995433
0.993653
0.993312
0.993896
0.994887
0.996338
0.997715
0.998977
0.999445
0.998786
0.996767
0.994491
0.993636
0.99424
0.995918
0.998074
1.00039
1.00038
0.998785
0.996283
0.994325
0.994798
0.996442
0.998256
0.999215
0.998109
0.996352
0.995454
0.995945
0.997
0.997489
0.996939
0.995848
0.995719
0.996168
0.996738
0.996767
0.996678
0.996781
0.99711
0.997216
0.997109
0.997075
0.997197
0.997217
0.997043
0.996641
0.996392
0.99642
0.996601
0.997037
0.997606
0.997647
0.99751
0.997049
0.994813
0.948524
0.948503
0.948481
0.948458
0.94844
0.948422
0.948403
0.94838
0.948354
0.94832
0.948276
0.948247
0.948237
0.948257
0.948294
0.948347
0.948425
0.948597
0.948889
0.949325
0.949935
0.950713
0.95172
0.952917
0.954385
0.956012
0.957927
0.960027
0.962441
0.965013
0.967888
0.970865
0.974073
0.977395
0.980846
0.984483
0.987712
0.990978
0.99348
0.996014
0.997448
0.998191
0.998434
0.998356
0.998371
0.998006
0.99702
0.995815
0.994734
0.994764
0.995209
0.996015
0.996926
0.997668
0.998016
0.997615
0.99642
0.995014
0.994786
0.995346
0.996883
0.998155
0.999366
0.998875
0.997113
0.995062
0.99515
0.995937
0.997302
0.998691
0.998098
0.996723
0.995766
0.996147
0.997032
0.997463
0.996774
0.995871
0.995935
0.996403
0.996856
0.996803
0.996775
0.996947
0.997139
0.997175
0.997104
0.997154
0.997204
0.997152
0.996875
0.996516
0.996414
0.996504
0.996823
0.997389
0.99754
0.997454
0.997054
0.994847
0.948535
0.948514
0.948493
0.948475
0.948461
0.948445
0.94843
0.948411
0.948386
0.948358
0.948327
0.948296
0.94826
0.948205
0.948174
0.94815
0.948154
0.94813
0.948122
0.948153
0.948211
0.948292
0.948413
0.948591
0.948841
0.949325
0.950061
0.951004
0.952241
0.953718
0.955599
0.957709
0.96032
0.963135
0.966486
0.969983
0.973856
0.97789
0.981888
0.986075
0.989297
0.992283
0.99439
0.996112
0.997036
0.997452
0.997441
0.997646
0.997565
0.997144
0.996476
0.995839
0.995828
0.996064
0.996575
0.997078
0.997455
0.997192
0.996457
0.9954
0.995495
0.996016
0.997304
0.998008
0.998501
0.997453
0.996079
0.995284
0.995717
0.996864
0.997871
0.997726
0.996781
0.995973
0.996243
0.996841
0.997179
0.99664
0.995981
0.99612
0.996569
0.996931
0.996844
0.996908
0.997132
0.997225
0.997183
0.997172
0.997221
0.997221
0.997027
0.996682
0.996461
0.996508
0.996728
0.997191
0.99753
0.997462
0.997079
0.994897
0.948567
0.948551
0.94854
0.948533
0.948527
0.948521
0.948513
0.948503
0.94849
0.948475
0.94846
0.948448
0.948432
0.94842
0.948415
0.948403
0.948387
0.948366
0.948344
0.948311
0.948283
0.94829
0.948326
0.948395
0.948535
0.948561
0.948625
0.948723
0.948878
0.949115
0.949467
0.950108
0.951157
0.952519
0.954383
0.9566
0.959548
0.962797
0.966771
0.970994
0.975601
0.980394
0.98467
0.988957
0.991909
0.994427
0.995912
0.996756
0.997021
0.996966
0.996812
0.996475
0.996167
0.995996
0.996167
0.996502
0.996784
0.996901
0.996768
0.996306
0.995639
0.99569
0.995897
0.996726
0.997493
0.997632
0.997249
0.996385
0.995654
0.995842
0.996572
0.99713
0.997504
0.996981
0.996313
0.996395
0.996741
0.996925
0.996612
0.996263
0.996349
0.996629
0.99685
0.996874
0.996993
0.997183
0.997203
0.997155
0.997143
0.997181
0.997112
0.996875
0.996528
0.99648
0.996614
0.996935
0.997386
0.997335
0.997013
0.994875
0.948644
0.94864
0.948637
0.948637
0.94864
0.94864
0.94864
0.948643
0.948642
0.948638
0.948638
0.948639
0.948642
0.948649
0.948659
0.948669
0.948685
0.9487
0.948707
0.948708
0.948712
0.948727
0.948756
0.948768
0.948776
0.948788
0.948802
0.948837
0.948905
0.949012
0.949192
0.949349
0.949394
0.949494
0.949719
0.950121
0.95098
0.952251
0.954195
0.956624
0.960103
0.964053
0.968786
0.973988
0.978992
0.984084
0.988158
0.991091
0.993903
0.994608
0.995544
0.995745
0.99611
0.996481
0.996742
0.996696
0.996497
0.996299
0.996296
0.996367
0.996307
0.99619
0.996031
0.996185
0.996362
0.99673
0.997008
0.997074
0.996638
0.995925
0.99601
0.996339
0.996866
0.997345
0.997055
0.996555
0.996573
0.996786
0.996892
0.996665
0.996362
0.996413
0.996627
0.99695
0.996983
0.997132
0.99726
0.997229
0.997159
0.997177
0.997169
0.997044
0.996728
0.996515
0.996593
0.996805
0.997304
0.997261
0.997008
0.994916
0.948755
0.948761
0.948765
0.94877
0.94878
0.948792
0.948801
0.948813
0.948829
0.948845
0.948852
0.948861
0.948877
0.948896
0.948917
0.948946
0.948964
0.948982
0.94901
0.949043
0.949085
0.949112
0.949138
0.94917
0.9492
0.949238
0.949263
0.949275
0.949299
0.949321
0.949352
0.949369
0.94941
0.949478
0.949581
0.949826
0.949846
0.94991
0.950092
0.950454
0.951296
0.952666
0.955041
0.958133
0.962579
0.967392
0.973256
0.978639
0.984203
0.988059
0.991908
0.993922
0.995121
0.995562
0.995888
0.995889
0.995778
0.995765
0.995939
0.996335
0.996637
0.996594
0.996381
0.995935
0.995863
0.996003
0.996389
0.996717
0.996925
0.996602
0.996131
0.996111
0.996334
0.996784
0.997182
0.997012
0.996747
0.996758
0.996814
0.996768
0.99656
0.996406
0.996489
0.996741
0.997048
0.997141
0.997202
0.997168
0.997139
0.997164
0.99718
0.997128
0.996945
0.996639
0.996601
0.9967
0.997064
0.997157
0.99695
0.994883
0.948917
0.948927
0.948938
0.948954
0.948969
0.948981
0.948999
0.949022
0.949035
0.94905
0.94907
0.949092
0.949115
0.949143
0.949172
0.9492
0.949226
0.94927
0.9493
0.949318
0.949353
0.949394
0.949451
0.949488
0.949509
0.949539
0.949577
0.949623
0.94966
0.949671
0.949685
0.949699
0.949701
0.949702
0.949715
0.949736
0.949777
0.949831
0.949908
0.95011
0.950093
0.950136
0.950332
0.950869
0.952118
0.954186
0.957555
0.962033
0.967366
0.973534
0.979495
0.984352
0.988943
0.991093
0.993119
0.994023
0.994541
0.995359
0.996021
0.996407
0.996566
0.996422
0.996188
0.995829
0.995763
0.995861
0.996085
0.996255
0.996456
0.996692
0.996607
0.996388
0.996334
0.996452
0.996758
0.997117
0.997059
0.996917
0.996801
0.996771
0.996722
0.996532
0.996514
0.996604
0.996895
0.997145
0.997175
0.99711
0.997117
0.997158
0.997195
0.997168
0.997093
0.996851
0.996631
0.996669
0.99686
0.997056
0.996883
0.994847
0.949104
0.949118
0.949132
0.949148
0.949164
0.949183
0.949199
0.949212
0.949228
0.949252
0.949272
0.949292
0.949315
0.949338
0.949363
0.949384
0.9494
0.949429
0.94946
0.949504
0.949546
0.94956
0.949581
0.949622
0.949671
0.949712
0.949743
0.949772
0.949808
0.949846
0.949875
0.949889
0.949899
0.949913
0.949917
0.949912
0.949904
0.949892
0.94988
0.949883
0.949914
0.949956
0.950035
0.949993
0.95001
0.950141
0.950667
0.951972
0.95414
0.957956
0.962493
0.968643
0.975057
0.980923
0.986121
0.989648
0.992622
0.993937
0.994838
0.995226
0.995513
0.995689
0.995812
0.996064
0.996146
0.996088
0.995919
0.995801
0.995886
0.996221
0.996703
0.996716
0.996587
0.996414
0.996482
0.996741
0.997022
0.997018
0.996916
0.996838
0.996831
0.996748
0.996589
0.996616
0.996733
0.996931
0.997133
0.997131
0.997162
0.997181
0.997207
0.997195
0.997176
0.99704
0.996752
0.996696
0.996759
0.996936
0.996789
0.994776
0.949318
0.949329
0.949339
0.949358
0.94937
0.94937
0.94937
0.949375
0.949386
0.949399
0.949414
0.949429
0.949446
0.949463
0.949481
0.949488
0.949501
0.949538
0.949556
0.949567
0.949596
0.949619
0.949648
0.949685
0.949709
0.949731
0.949762
0.949799
0.949835
0.949873
0.949906
0.949929
0.949948
0.949973
0.950006
0.950024
0.950022
0.950011
0.949983
0.949935
0.949895
0.949862
0.949842
0.949838
0.949805
0.949808
0.949768
0.949808
0.950056
0.950806
0.952202
0.954998
0.958831
0.964649
0.971128
0.977237
0.983305
0.98689
0.990566
0.991806
0.993084
0.994256
0.995449
0.996539
0.996521
0.996313
0.995755
0.995464
0.995561
0.995959
0.996487
0.996898
0.996864
0.99663
0.996456
0.996531
0.996765
0.997031
0.997006
0.997009
0.996994
0.996931
0.996753
0.996628
0.996656
0.996751
0.996958
0.997164
0.997213
0.997205
0.997214
0.997221
0.997237
0.99718
0.996932
0.996752
0.996735
0.99684
0.996695
0.994684
0.949485
0.949486
0.949486
0.949486
0.949486
0.949482
0.949476
0.949469
0.949466
0.949476
0.949493
0.949496
0.949494
0.9495
0.949505
0.949505
0.949506
0.94951
0.949519
0.949531
0.949543
0.949559
0.949589
0.949603
0.949612
0.949631
0.94965
0.949675
0.949705
0.949737
0.949769
0.949801
0.949832
0.949865
0.949907
0.949958
0.950001
0.950011
0.950005
0.949983
0.949946
0.949895
0.949827
0.949761
0.949699
0.949635
0.949562
0.949531
0.949518
0.949549
0.949687
0.950118
0.951031
0.95306
0.956274
0.96148
0.967772
0.97429
0.980893
0.985693
0.989913
0.992778
0.994256
0.99556
0.995592
0.995557
0.995448
0.99558
0.995862
0.996066
0.996232
0.996524
0.996664
0.996658
0.996579
0.996531
0.996585
0.996771
0.996983
0.997127
0.997111
0.997059
0.996936
0.996733
0.996634
0.996657
0.996789
0.997029
0.997207
0.997215
0.997229
0.997256
0.99729
0.997279
0.997123
0.996853
0.996777
0.996781
0.996601
0.994567
0.949583
0.949582
0.949577
0.949566
0.949562
0.949561
0.949553
0.949543
0.94954
0.949537
0.949534
0.949529
0.949512
0.949496
0.949492
0.949487
0.949476
0.949464
0.949462
0.949462
0.949462
0.949466
0.949472
0.94948
0.949484
0.949486
0.949492
0.949502
0.949519
0.949542
0.949571
0.949603
0.949639
0.949679
0.949727
0.949785
0.949852
0.949908
0.949932
0.949935
0.949927
0.949903
0.949852
0.949778
0.949691
0.949588
0.949474
0.949372
0.949288
0.949261
0.949276
0.949325
0.949436
0.949721
0.950326
0.95185
0.954437
0.959249
0.964975
0.971904
0.978674
0.984053
0.987823
0.991446
0.992638
0.994252
0.995436
0.996177
0.996243
0.996117
0.996035
0.99617
0.996447
0.996688
0.996707
0.996576
0.996495
0.996601
0.996887
0.997189
0.997181
0.99716
0.997078
0.996885
0.996643
0.996615
0.996687
0.996864
0.997104
0.997205
0.997241
0.997285
0.99733
0.997346
0.997261
0.996998
0.996826
0.996736
0.996511
0.994444
0.949643
0.94963
0.949628
0.949629
0.949626
0.94962
0.94961
0.949596
0.949586
0.949575
0.949561
0.949546
0.949526
0.949492
0.949468
0.949455
0.94944
0.949426
0.94941
0.949391
0.949372
0.949357
0.949346
0.949336
0.949323
0.949315
0.94931
0.949304
0.949301
0.949306
0.949324
0.949349
0.949379
0.949416
0.949463
0.949519
0.949582
0.949644
0.949702
0.949747
0.949768
0.949767
0.949748
0.949709
0.949653
0.949568
0.949446
0.949295
0.949139
0.949039
0.949019
0.949033
0.949077
0.949165
0.949304
0.949497
0.949921
0.951104
0.953257
0.957569
0.963058
0.970127
0.977242
0.983729
0.988308
0.992678
0.994398
0.995245
0.995488
0.995163
0.995429
0.996083
0.996588
0.99664
0.99652
0.996408
0.996481
0.996649
0.996798
0.99696
0.997092
0.997204
0.997172
0.997013
0.996766
0.996629
0.996668
0.996752
0.996921
0.99714
0.997248
0.997312
0.997352
0.997382
0.997348
0.997171
0.996908
0.996696
0.996437
0.994315
0.949702
0.949697
0.949694
0.949692
0.949688
0.949679
0.949669
0.949657
0.949642
0.949626
0.949606
0.949586
0.949558
0.949515
0.949494
0.949483
0.949461
0.949433
0.949406
0.949375
0.94934
0.949307
0.949277
0.949248
0.949217
0.949188
0.949159
0.949128
0.949105
0.949096
0.949094
0.949096
0.949107
0.949129
0.949161
0.949204
0.94926
0.949326
0.9494
0.949476
0.949531
0.949547
0.949543
0.94953
0.949508
0.949457
0.949368
0.949242
0.949082
0.948915
0.948808
0.948793
0.948802
0.948858
0.94897
0.949161
0.949291
0.949404
0.94959
0.950468
0.952386
0.956337
0.962029
0.969087
0.976776
0.983545
0.988197
0.991134
0.993101
0.993998
0.995498
0.996402
0.996572
0.996487
0.996238
0.99635
0.996549
0.996705
0.996686
0.996726
0.996942
0.997186
0.997168
0.997057
0.996921
0.996737
0.996685
0.99668
0.996767
0.997
0.997228
0.997322
0.997363
0.997412
0.99741
0.997299
0.997019
0.996674
0.996385
0.994165
0.949745
0.949745
0.949743
0.949739
0.949735
0.949728
0.94972
0.94971
0.949698
0.949684
0.949666
0.949645
0.949622
0.9496
0.949578
0.949559
0.949535
0.949504
0.949472
0.949436
0.949398
0.949357
0.949315
0.949267
0.949216
0.949168
0.949121
0.949074
0.949032
0.94899
0.94895
0.948931
0.948924
0.948921
0.94892
0.94893
0.948954
0.948997
0.949061
0.94914
0.94921
0.949251
0.949272
0.949283
0.949282
0.949262
0.949211
0.949126
0.949008
0.948852
0.948688
0.948615
0.948622
0.948667
0.948752
0.948906
0.949097
0.949284
0.949496
0.949425
0.949486
0.950115
0.951945
0.955602
0.961945
0.968988
0.97746
0.983683
0.990332
0.992711
0.994559
0.995342
0.995804
0.99586
0.996281
0.996623
0.996621
0.996474
0.996446
0.996602
0.996852
0.997094
0.997072
0.997031
0.997052
0.996985
0.996825
0.996689
0.996728
0.996872
0.997108
0.997318
0.997375
0.997438
0.997459
0.9974
0.997172
0.996739
0.996358
0.993969
0.949781
0.949784
0.949783
0.949781
0.949781
0.94978
0.949778
0.949776
0.949773
0.949766
0.949757
0.949745
0.949729
0.949711
0.94969
0.949669
0.949645
0.949616
0.949586
0.949555
0.94952
0.949479
0.949431
0.949372
0.949306
0.94924
0.949173
0.949105
0.949037
0.948969
0.948902
0.948839
0.94879
0.948753
0.948729
0.948715
0.948704
0.948701
0.948715
0.948761
0.948834
0.948911
0.948976
0.949024
0.949049
0.949051
0.949039
0.949003
0.948938
0.948836
0.948683
0.948528
0.948494
0.948537
0.94862
0.948754
0.94894
0.949162
0.949388
0.949447
0.949494
0.949325
0.949292
0.949839
0.95183
0.955755
0.962328
0.969841
0.978012
0.984252
0.989336
0.991161
0.993424
0.995106
0.996537
0.996633
0.996424
0.996157
0.996249
0.996578
0.996799
0.996828
0.996851
0.996999
0.997173
0.997139
0.997004
0.996802
0.996759
0.996792
0.996937
0.997203
0.997382
0.997471
0.997499
0.997464
0.997292
0.996852
0.996331
0.993735
0.94974
0.94975
0.94976
0.94977
0.949779
0.949789
0.949798
0.949806
0.949812
0.949813
0.949811
0.949811
0.949807
0.949795
0.949783
0.949775
0.949765
0.949748
0.949727
0.949704
0.949679
0.949649
0.949609
0.949554
0.949488
0.949417
0.949343
0.949263
0.949178
0.949086
0.948989
0.948889
0.948795
0.948712
0.948632
0.948562
0.948531
0.948517
0.948504
0.948502
0.948531
0.948606
0.948694
0.948772
0.948836
0.948886
0.948921
0.948935
0.948936
0.948903
0.948812
0.948651
0.948487
0.94846
0.948514
0.948617
0.948769
0.948987
0.949243
0.949422
0.949451
0.949404
0.949322
0.949052
0.949119
0.949905
0.952112
0.956788
0.96274
0.971104
0.979155
0.98513
0.990813
0.993717
0.995368
0.995756
0.995479
0.995728
0.996267
0.996674
0.996627
0.996572
0.996701
0.99699
0.997158
0.997123
0.997111
0.997037
0.996897
0.996773
0.996821
0.996999
0.997298
0.997442
0.99754
0.997519
0.997384
0.996986
0.996342
0.993516
0.949593
0.949613
0.949634
0.949654
0.949675
0.949694
0.949711
0.949727
0.949741
0.949751
0.949756
0.949758
0.949755
0.949754
0.949762
0.94978
0.949798
0.949804
0.949799
0.949792
0.949784
0.949773
0.949754
0.949722
0.949674
0.949616
0.949551
0.949478
0.949395
0.9493
0.949191
0.949072
0.948945
0.94881
0.948679
0.948564
0.948476
0.94842
0.948394
0.94838
0.948375
0.948392
0.948446
0.948532
0.948638
0.948748
0.948856
0.948947
0.948988
0.948998
0.948982
0.948893
0.948717
0.948531
0.948479
0.948518
0.948602
0.94874
0.948966
0.949242
0.949412
0.949414
0.949344
0.949169
0.948989
0.948952
0.949233
0.950409
0.95281
0.957568
0.963844
0.972429
0.980233
0.985992
0.990465
0.992862
0.994211
0.996041
0.996523
0.996439
0.996278
0.996397
0.996726
0.996951
0.996996
0.997066
0.997221
0.997211
0.997069
0.996801
0.996775
0.996862
0.997106
0.9974
0.997548
0.997531
0.997428
0.997084
0.996363
0.993316
0.949115
0.949133
0.949153
0.949176
0.949197
0.949219
0.949243
0.94927
0.949299
0.949331
0.949365
0.949404
0.949448
0.94949
0.949525
0.949556
0.949584
0.949609
0.949632
0.949655
0.949675
0.949681
0.949675
0.949666
0.949662
0.949657
0.949644
0.949623
0.949589
0.949535
0.949458
0.949363
0.949248
0.949113
0.948968
0.948831
0.948711
0.948606
0.948509
0.948444
0.948423
0.948415
0.948414
0.948448
0.948544
0.948673
0.948815
0.948962
0.949088
0.949152
0.94917
0.949163
0.949083
0.948897
0.948656
0.948507
0.948502
0.948546
0.94867
0.948897
0.949172
0.949335
0.949341
0.949273
0.949091
0.948918
0.948923
0.949141
0.949727
0.951019
0.953506
0.958688
0.9655
0.974303
0.982198
0.989086
0.992741
0.994863
0.995561
0.995294
0.995675
0.996308
0.996715
0.996685
0.996687
0.996932
0.997293
0.997328
0.99722
0.996975
0.996802
0.996843
0.996981
0.99726
0.997553
0.997549
0.997451
0.997125
0.996374
0.993156
0.948758
0.948759
0.948761
0.948764
0.948764
0.948765
0.94877
0.94878
0.948796
0.948817
0.948841
0.948871
0.948906
0.94894
0.948975
0.949012
0.94905
0.949095
0.94915
0.949211
0.949275
0.949337
0.949397
0.949454
0.949502
0.949537
0.949562
0.949587
0.949616
0.949626
0.949616
0.949587
0.949536
0.949463
0.949371
0.949257
0.949121
0.94897
0.94882
0.948691
0.948601
0.948562
0.948555
0.948565
0.948616
0.948722
0.948877
0.949036
0.949179
0.949318
0.949397
0.949412
0.949392
0.949279
0.949028
0.948698
0.948481
0.948442
0.948457
0.948552
0.948803
0.94913
0.949309
0.949314
0.949249
0.949058
0.948933
0.948966
0.94921
0.949626
0.950197
0.951508
0.954415
0.96021
0.968024
0.976439
0.983933
0.989172
0.991541
0.993523
0.995916
0.996491
0.996427
0.996204
0.996389
0.996857
0.997251
0.997272
0.997248
0.997168
0.996962
0.996882
0.996948
0.997131
0.997417
0.997553
0.997486
0.997181
0.996397
0.993023
0.948512
0.9485
0.948482
0.948471
0.948474
0.948478
0.948481
0.948485
0.94849
0.948496
0.948505
0.948519
0.948533
0.94855
0.948573
0.948599
0.948627
0.948663
0.94871
0.948763
0.948827
0.948905
0.948995
0.94909
0.949185
0.949279
0.949367
0.949437
0.949487
0.949531
0.949582
0.949633
0.949667
0.949677
0.949673
0.949645
0.949575
0.949459
0.949304
0.949126
0.948947
0.948799
0.948714
0.948697
0.948711
0.948758
0.948852
0.948999
0.949188
0.949402
0.949571
0.949604
0.949607
0.949569
0.949418
0.949106
0.948717
0.948471
0.948423
0.948445
0.948577
0.948871
0.949221
0.949363
0.949359
0.949267
0.949057
0.948941
0.949003
0.949271
0.949566
0.94982
0.950358
0.952055
0.955783
0.962241
0.971086
0.979232
0.986362
0.991969
0.994756
0.995725
0.995224
0.995551
0.996308
0.996754
0.99706
0.997082
0.99717
0.997247
0.997161
0.997005
0.997
0.997108
0.997286
0.99746
0.997419
0.997137
0.996426
0.992933
0.948454
0.948436
0.948421
0.948406
0.948393
0.948383
0.948376
0.94837
0.948358
0.948347
0.948352
0.948364
0.948367
0.948374
0.948389
0.948409
0.948434
0.948464
0.948493
0.948523
0.94856
0.948606
0.948663
0.94873
0.948808
0.948899
0.949012
0.949147
0.949285
0.949402
0.949492
0.949573
0.949662
0.94975
0.949822
0.949862
0.949865
0.949844
0.949768
0.949627
0.949439
0.94923
0.94903
0.948871
0.948791
0.94878
0.948787
0.948814
0.948887
0.94904
0.949289
0.949575
0.949705
0.949711
0.949668
0.949515
0.949218
0.948848
0.948604
0.948553
0.948586
0.948765
0.94909
0.949388
0.949458
0.949427
0.949273
0.949011
0.948906
0.948985
0.949228
0.949461
0.949572
0.949796
0.950622
0.952985
0.957729
0.964995
0.974009
0.982225
0.987584
0.991579
0.993524
0.995917
0.996625
0.996577
0.99655
0.996814
0.99716
0.99729
0.997226
0.997112
0.997112
0.997179
0.997259
0.997364
0.997315
0.997024
0.996298
0.992863
0.948951
0.948897
0.948846
0.948798
0.948749
0.948701
0.948651
0.948601
0.948551
0.948504
0.948468
0.948448
0.948435
0.948433
0.94844
0.948449
0.948454
0.948462
0.948475
0.948487
0.948503
0.948525
0.948552
0.948578
0.948608
0.948647
0.948705
0.948789
0.948902
0.949046
0.949219
0.949406
0.94957
0.949684
0.949757
0.94981
0.949857
0.949875
0.949871
0.949847
0.949778
0.949652
0.949474
0.949253
0.949003
0.948779
0.948681
0.94867
0.948678
0.948737
0.948887
0.949128
0.949406
0.94962
0.949699
0.949706
0.949657
0.949468
0.949156
0.948899
0.94884
0.948881
0.949076
0.949386
0.949535
0.949524
0.949431
0.949185
0.948894
0.948829
0.948913
0.949135
0.949368
0.949419
0.949531
0.949952
0.951273
0.954402
0.960235
0.968354
0.9772
0.985717
0.991634
0.9948
0.995893
0.995386
0.995825
0.996502
0.997069
0.997197
0.997154
0.997184
0.997298
0.997311
0.997284
0.997282
0.997203
0.996888
0.99615
0.992651
0.94983
0.94979
0.949748
0.949703
0.949653
0.949597
0.949535
0.949465
0.949391
0.949313
0.949233
0.949154
0.949079
0.949007
0.948936
0.948866
0.9488
0.948747
0.948706
0.948671
0.948639
0.948609
0.948595
0.94859
0.948586
0.948591
0.948604
0.948619
0.948646
0.948696
0.948778
0.948893
0.949033
0.949185
0.949345
0.949514
0.949683
0.949812
0.949864
0.949871
0.949866
0.949849
0.949789
0.949662
0.949453
0.949165
0.948851
0.94863
0.948574
0.948594
0.948677
0.948809
0.948985
0.949223
0.949499
0.949724
0.949817
0.949816
0.94972
0.949493
0.94926
0.949178
0.949193
0.949308
0.94954
0.949624
0.949546
0.949336
0.949015
0.948795
0.94878
0.948866
0.949127
0.949371
0.94938
0.949402
0.949585
0.950229
0.952123
0.956281
0.963469
0.972225
0.981107
0.987648
0.991377
0.993595
0.996143
0.996845
0.996827
0.996804
0.997003
0.997302
0.99742
0.997413
0.997335
0.997265
0.997123
0.996752
0.995984
0.992457
0.950211
0.950212
0.950209
0.950199
0.950183
0.950162
0.950135
0.950102
0.950062
0.950018
0.949969
0.94991
0.949844
0.949769
0.949684
0.949583
0.949468
0.94935
0.949239
0.949137
0.94904
0.948943
0.94884
0.948729
0.948642
0.948611
0.948606
0.948605
0.948608
0.948615
0.948619
0.948623
0.948644
0.948699
0.948789
0.948912
0.949062
0.949229
0.949417
0.949641
0.949851
0.949934
0.949947
0.949937
0.949866
0.949698
0.949459
0.949183
0.948917
0.948744
0.948695
0.948713
0.948776
0.948896
0.949117
0.949446
0.949744
0.949861
0.949863
0.949827
0.949711
0.949506
0.949352
0.949331
0.94936
0.949475
0.949523
0.949444
0.949207
0.94891
0.948796
0.948823
0.948992
0.949278
0.949418
0.949425
0.949356
0.949393
0.949668
0.950704
0.953544
0.959057
0.967639
0.976881
0.985273
0.992097
0.995054
0.996115
0.995742
0.996194
0.996778
0.997273
0.997377
0.997367
0.997346
0.997258
0.997083
0.99664
0.995819
0.992241
0.950247
0.950254
0.950261
0.950264
0.950265
0.950265
0.950263
0.950257
0.950245
0.950227
0.9502
0.950162
0.950115
0.950059
0.949995
0.949933
0.949867
0.949784
0.949682
0.949579
0.94949
0.949411
0.949328
0.94923
0.949114
0.948984
0.948846
0.948728
0.94866
0.948633
0.948615
0.948604
0.9486
0.948596
0.948595
0.948609
0.948661
0.948772
0.948962
0.949231
0.949535
0.949814
0.950002
0.95005
0.950032
0.949994
0.949939
0.949846
0.949699
0.949494
0.949229
0.948944
0.948784
0.948776
0.948847
0.949046
0.949342
0.949645
0.94982
0.949857
0.949848
0.949763
0.949539
0.949342
0.949312
0.949311
0.949343
0.949353
0.949312
0.949174
0.949019
0.948984
0.949039
0.949247
0.949413
0.949434
0.949407
0.949287
0.949259
0.949368
0.949921
0.951719
0.95586
0.962998
0.972164
0.982013
0.987659
0.991949
0.994264
0.99664
0.997099
0.997014
0.996995
0.997234
0.997309
0.997256
0.997072
0.996573
0.995685
0.991998
0.949513
0.949555
0.949597
0.949642
0.949684
0.949722
0.949751
0.949772
0.949796
0.949821
0.949835
0.949845
0.949854
0.94986
0.949865
0.949869
0.949863
0.949847
0.949839
0.949848
0.94986
0.949861
0.949853
0.949828
0.94978
0.949711
0.949625
0.94953
0.949428
0.949311
0.949174
0.94902
0.948862
0.948731
0.948662
0.948658
0.948692
0.948794
0.948972
0.949199
0.949399
0.949557
0.949696
0.949842
0.949977
0.950067
0.950098
0.950115
0.950129
0.950097
0.949918
0.949554
0.949126
0.948885
0.948862
0.948902
0.948989
0.949145
0.949388
0.949658
0.949785
0.949778
0.949689
0.94949
0.949287
0.949235
0.949236
0.949248
0.94929
0.949321
0.949311
0.949279
0.949274
0.94932
0.949419
0.949456
0.949428
0.949322
0.949222
0.949204
0.949245
0.949548
0.950664
0.953471
0.959296
0.967848
0.977245
0.986507
0.992584
0.995565
0.996261
0.995967
0.996449
0.997018
0.997302
0.997256
0.997048
0.996517
0.995584
0.991724
0.948853
0.948876
0.948902
0.948933
0.948971
0.949006
0.949041
0.949084
0.949132
0.949181
0.94924
0.949308
0.949373
0.949432
0.949499
0.949577
0.949663
0.949759
0.949864
0.949978
0.95004
0.950054
0.95008
0.950135
0.95019
0.950214
0.950227
0.950227
0.950205
0.950144
0.950042
0.949907
0.94975
0.949574
0.949399
0.949231
0.949088
0.949074
0.949141
0.949213
0.949266
0.949327
0.949399
0.949479
0.949577
0.949719
0.949957
0.950202
0.950263
0.950262
0.950178
0.949922
0.949597
0.949299
0.949055
0.948958
0.948946
0.948964
0.949056
0.949237
0.949497
0.949677
0.949696
0.949661
0.949539
0.949347
0.949203
0.949185
0.949215
0.949303
0.949419
0.949484
0.949482
0.949458
0.949438
0.949438
0.949427
0.94936
0.949252
0.949209
0.949216
0.94927
0.949426
0.950003
0.951903
0.95598
0.96383
0.972971
0.98247
0.988505
0.992489
0.994741
0.996884
0.996991
0.997121
0.997119
0.996968
0.996524
0.995501
0.991352
0.948945
0.94896
0.948973
0.948982
0.948993
0.949005
0.94902
0.949044
0.949077
0.949119
0.949168
0.949214
0.949254
0.949285
0.949339
0.949377
0.949407
0.949473
0.949586
0.949687
0.949797
0.949957
0.950136
0.950276
0.950359
0.950392
0.950408
0.9504
0.950359
0.950289
0.9502
0.95012
0.950071
0.95004
0.950006
0.94996
0.94988
0.949762
0.949635
0.949495
0.949359
0.949296
0.949263
0.949235
0.949229
0.949247
0.949351
0.949539
0.949709
0.949781
0.949787
0.949774
0.949738
0.949653
0.949489
0.949292
0.949143
0.949088
0.949115
0.949194
0.949274
0.949398
0.949586
0.949728
0.949754
0.949699
0.949497
0.949267
0.949203
0.949223
0.949329
0.949499
0.949553
0.949541
0.949493
0.949455
0.949447
0.949431
0.949383
0.949353
0.949361
0.94942
0.949557
0.9496
0.949848
0.950861
0.953918
0.959761
0.96925
0.978335
0.988005
0.992952
0.996228
0.995971
0.996383
0.996878
0.996886
0.996474
0.995223
0.99088
0.949741
0.949696
0.949647
0.949591
0.949539
0.949489
0.949437
0.949404
0.949391
0.949384
0.949378
0.949379
0.949411
0.949426
0.94945
0.949498
0.949502
0.949504
0.949562
0.949581
0.949596
0.949682
0.949837
0.94995
0.95002
0.950065
0.950045
0.949963
0.949896
0.949858
0.949846
0.949885
0.949997
0.950122
0.950217
0.950256
0.950274
0.950254
0.950157
0.949988
0.949809
0.949631
0.949426
0.949294
0.949225
0.949167
0.949152
0.949132
0.949055
0.949026
0.949053
0.949177
0.949364
0.949555
0.949698
0.949773
0.949765
0.949682
0.94952
0.949346
0.949261
0.94926
0.949348
0.94961
0.949872
0.9499
0.949824
0.949591
0.949296
0.949206
0.949218
0.94935
0.949528
0.949559
0.94953
0.949472
0.949468
0.949508
0.949536
0.949556
0.949584
0.949616
0.949657
0.949691
0.949677
0.94976
0.950276
0.952276
0.956677
0.964913
0.974968
0.983115
0.991076
0.992879
0.995538
0.996906
0.996793
0.99609
0.994664
0.990492
0.950728
0.950755
0.950751
0.950695
0.950641
0.950592
0.950529
0.950459
0.950399
0.950325
0.950246
0.950182
0.950118
0.950047
0.949953
0.949855
0.949772
0.949675
0.949565
0.94951
0.949455
0.949402
0.94939
0.949352
0.949261
0.949137
0.948979
0.948823
0.948736
0.948707
0.948718
0.948816
0.949052
0.949355
0.949584
0.949771
0.949989
0.950213
0.950298
0.950269
0.95025
0.950278
0.95022
0.950132
0.950057
0.949938
0.9497
0.949301
0.948933
0.948813
0.948827
0.948872
0.948961
0.949193
0.949561
0.949941
0.950139
0.950175
0.950123
0.949853
0.949437
0.949226
0.949233
0.949338
0.949609
0.949907
0.949933
0.94982
0.94955
0.949261
0.949205
0.949235
0.949383
0.949538
0.949576
0.949554
0.949539
0.949582
0.949654
0.94974
0.949802
0.949797
0.94977
0.949745
0.949713
0.949655
0.949672
0.949915
0.951019
0.954549
0.960961
0.970781
0.981472
0.988827
0.994691
0.995925
0.995854
0.995227
0.994074
0.990221
0.950727
0.950779
0.950856
0.95089
0.950879
0.950835
0.950776
0.95072
0.950653
0.950569
0.950488
0.950412
0.95033
0.950275
0.950242
0.950207
0.95015
0.950026
0.949789
0.949411
0.949055
0.948898
0.948809
0.948681
0.948524
0.948399
0.948311
0.948233
0.948141
0.948108
0.948169
0.948307
0.94847
0.94866
0.948894
0.949128
0.949322
0.949471
0.949613
0.94982
0.9502
0.950637
0.950832
0.950848
0.950832
0.950747
0.950555
0.9502
0.949741
0.949319
0.949112
0.949062
0.949046
0.949056
0.949186
0.949558
0.950081
0.950363
0.950358
0.950214
0.949935
0.949612
0.949384
0.949335
0.949366
0.949506
0.949701
0.949759
0.949697
0.949501
0.949299
0.949269
0.94933
0.949494
0.949666
0.949739
0.949749
0.949746
0.949774
0.949853
0.949915
0.949903
0.949862
0.949803
0.949726
0.94964
0.949557
0.949498
0.949606
0.950315
0.952617
0.958277
0.966921
0.977162
0.987303
0.990674
0.994069
0.994534
0.993905