/*--------------------------------*- C++ -*----------------------------------*\
  =========                 |
  \\      /  F ield         | OpenFOAM: The Open Source CFD Toolbox
   \\    /   O peration     | Website:  https://openfoam.org
    \\  /    A nd           | Version:  7
     \\/     M anipulation  |
\*---------------------------------------------------------------------------*/
FoamFile
{
    version     2.0;
    format      ascii;
    class       volScalarField;
    location    "2.7";
    object      T;
}
// * * * * * * * * * * * * * * * * * * * * * * * * * * * * * * * * * * * * * //

dimensions      [0 0 0 1 0 0 0];

internalField   nonuniform List<scalar> 
1750
(
1.08681
1.26325
1.32356
1.32473
1.34241
1.33132
1.29501
1.30136
1.34254
1.4046
0.639274
0.765872
0.979055
1.01435
1.07102
1.18462
1.19876
1.21539
1.29713
1.39941
0.554076
0.571906
0.571552
0.573253
0.606299
0.738318
0.819119
0.904348
1.10997
1.33134
0.575537
0.566737
0.563682
0.571341
0.577793
0.576231
0.568719
0.57397
0.732797
1.13038
0.628626
0.616986
0.608127
0.610526
0.626781
0.642747
0.644216
0.644759
0.647165
0.812946
0.726108
0.723116
0.708823
0.702727
0.702666
0.702284
0.697743
0.691474
0.694514
0.718516
0.82067
0.814998
0.799299
0.784201
0.776601
0.76849
0.753463
0.751731
0.75706
0.767952
0.926214
0.91339
0.895626
0.874107
0.858823
0.849935
0.836969
0.82813
0.832334
0.832606
1.05847
1.03362
1.0088
0.984304
0.959081
0.938385
0.922881
0.903795
0.89367
0.88266
1.1998
1.17303
1.14128
1.11223
1.08354
1.04984
1.02597
1.00737
0.987727
0.960911
1.24805
1.23378
1.21981
1.20322
1.18442
1.16042
1.13586
1.11559
1.09151
1.05679
1.22212
1.21955
1.2124
1.20256
1.19092
1.1763
1.16002
1.14452
1.12723
1.09834
1.10824
1.12386
1.1344
1.14325
1.14475
1.14256
1.13566
1.126
1.11423
1.09087
1.01033
1.01605
1.02331
1.03222
1.04185
1.05073
1.05656
1.05739
1.05611
1.04792
1.00016
1.00031
1.00059
1.00109
1.00194
1.00324
1.00484
1.00618
1.00688
1.00635
0.763477
0.636834
0.541309
0.572095
0.6295
0.720472
0.82571
0.942816
1.08501
1.22447
1.2593
1.22277
1.09016
1.00661
1.0001
0.768011
0.616225
0.523453
0.579255
0.65261
0.751777
0.872266
0.995312
1.1377
1.25738
1.26761
1.20923
1.06189
1.0028
1.00003
0.756552
0.605235
0.517922
0.592464
0.681464
0.802042
0.921952
1.03755
1.18502
1.27871
1.27277
1.18849
1.039
1.00123
1.00001
0.7581
0.602784
0.527494
0.636418
0.737305
0.851724
0.957891
1.08302
1.23457
1.29371
1.27549
1.15714
1.02104
1.00047
1
0.760833
0.611626
0.578783
0.676312
0.766769
0.879668
0.999965
1.14611
1.27627
1.30577
1.26712
1.11779
1.00985
1.00017
1
0.752341
0.608597
0.599243
0.689258
0.78476
0.918549
1.06961
1.21292
1.30912
1.31461
1.25119
1.07546
1.00376
1.00005
1
0.753273
0.608237
0.597753
0.69387
0.825048
1.00417
1.14434
1.27024
1.33316
1.32027
1.20747
1.03751
1.00116
1.00001
1
0.758916
0.623749
0.597779
0.736387
0.943229
1.08261
1.20771
1.32023
1.34849
1.3144
1.14839
1.01549
1.00033
1
1
0.741628
0.617259
0.660416
0.882621
1.03208
1.14871
1.27566
1.35482
1.35367
1.27887
1.08205
1.00425
1.00007
1
1
0.667291
0.619979
0.799904
0.978953
1.10502
1.22951
1.34142
1.37068
1.35285
1.20179
1.03097
1.00095
1.00001
1
1
0.531431
0.697325
0.914411
1.06243
1.19724
1.31417
1.38143
1.37775
1.30949
1.11516
1.00901
1.00019
1
1
1
0.515401
0.826619
1.01661
1.16464
1.29943
1.37234
1.39762
1.38045
1.23913
1.04416
1.00164
1.00003
1
1
1
0.402871
0.927291
1.1484
1.28243
1.37204
1.39819
1.40283
1.32984
1.1114
1.00789
1.00018
1
1
1
1
0.730777
1.10372
1.28298
1.36103
1.41252
1.40234
1.3838
1.20316
1.02872
1.00102
1.00002
1
1
1
1
1.11927
1.30497
1.37008
1.40383
1.42379
1.39845
1.27517
1.06633
1.00306
1.00005
1
1
1
1
1
1.40325
1.40043
1.40191
1.41719
1.42604
1.34976
1.09874
0.995823
0.999592
0.999994
1
1
1
1
1
1.40308
1.40067
1.39801
1.41322
1.42557
1.30775
1.05703
1.00172
1.00002
1
1
1
1
1
1
1.3895
1.401
1.41238
1.41581
1.39541
1.19884
1.01204
1.00004
1
1
1
1
1
1
1
1.37977
1.40265
1.42856
1.42021
1.34911
1.09712
1.00195
1.00001
1
1
1
1
1
1
1
1.37584
1.40357
1.43648
1.42085
1.25506
1.02267
1.00011
1
1
1
1
1
1
1
1
1.37896
1.40985
1.44145
1.37384
1.13512
1.00388
1.00001
1
1
1
1
1
1
1
1
1.40659
1.41244
1.44318
1.30256
1.04142
1.00027
1
1
1
1
1
1
1
1
1
1.44928
1.40968
1.39044
1.15311
1.00474
1.00001
1
1
1
1
1
1
1
1
1
1.49269
1.37688
1.28163
1.04566
1.00038
1
1
1
1
1
1
1
1
1
1
1.50985
1.33871
1.14246
1.00519
1.00001
1
1
1
1
1
1
1
1
1
1
1.49447
1.26067
1.04993
1.00058
1
1
1
1
1
1
1
1
1
1
1
1.43105
1.17606
1.01265
1.00006
1
1
1
1
1
1
1
1
1
1
1
1.34653
1.08913
1.00218
1.00001
1
1
1
1
1
1
1
1
1
1
1
1.22663
1.03228
1.0003
1
1
1
1
1
1
1
1
1
1
1
1
1.10345
1.00523
1.00002
1
1
1
1
1
1
1
1
1
1
1
1
1
1
1
1
1
1
1
1
1
1
1
1
1
1
1
1
1
1
1
1
1
1
1
1
1
1
1
1
1
1
1
1
1
1
1
1
1
1
1
1
1
1
1
1
1
1
1
1
1
1
1
1
1
1
1
1
1
1
1
1
1
1
1
1
1
1
1
1
1
1
1
1
1
1
1
1
1
1
1
1
1
1
1
1
1
1
1
1
1
1
1
1
1
1
1
1
1
1
1
1
1
1
1
1
1
1
1
1
1
1
1
1
1
1
1
1
1
1
1
1
1
1
1
1
1
1
1
1
1
1
1
1
1
1
1
1
1
1
1
1
1
1
1
1
1
1
1
1
1
1
1
1
1
1
1
1
1
1
1
1
1
1
1
1
1
1
1
1
1
1
1
1
1
1
1
1
1
1
1
1
1
1
1
1
1
1
1
1
1
1
1
1
1
1
1
1
1
1
1
1
1
1
1
1
1
1
1
1
1
1
1
1
1
1
1
1
1
1
1
1
1
1
1
1
1
1
1
1
1
1
1
1
1
1
1
1
1
1
1
1
1
1
1
1
1
1
1
1
1
1
1
1
1
1
1
1
1
1
1
1
1
1
1
1
1
1
1
1
1
1
1
1
1
1
1
1
1
1
1
1
1
1
1
1
1
1
1
1
1
1
1
1
1
1
1
1
1
1
1
1
1
1
1
1
1
1
1
1
1
1
1
1
1
1
1
1
1
1
1
1
1
1
1
1
1
1
1
1
1
1
1
1
1
1
1
1
1
1
1
1
1
1
1
1
1
1
1
1
1
1
1.19522
1.00483
1
1
1
1
1
1
1
1
1
1
1
1
1
1
1
1
1
1
1.41626
1.08006
0.999776
1
1
1
1
1
1
1
1
1
1
1
1
1
1
1
1
1
1.62813
1.24146
1.0049
0.999986
1
1
1
1
1
1
1
1
1
1
1
1
1
1
1
1
1.74343
1.48151
1.14836
1.00022
1
1
1
1
1
1
1
1
1
1
1
1
1
1
1
1
1.7183
1.58265
1.4763
1.09142
0.999875
1
1
1
1
1
1
1
1
1
1
1
1
1
1
1
1.64723
1.62969
1.65403
1.40996
1.03941
0.999917
1
1
1
1
1
1
1
1
1
1
1
1
1
1
1.5907
1.61871
1.66359
1.65219
1.30155
1.00751
0.99998
0.999999
1
1
1
1
1
1
1
1
1
1
1
1
1.58375
1.60898
1.64831
1.64833
1.5289
1.15214
1.00073
1
1
1
1
1
1
1
1
1
1
1
1
1
1.58657
1.59795
1.61404
1.6387
1.65065
1.40292
1.03646
0.999956
0.999999
1
1
1
1
1
1
1
1
1
1
1
1.59297
1.59848
1.60937
1.63345
1.65346
1.57675
1.22928
1.00452
0.99999
1
1
1
1
1
1
1
1
1
1
1
1.59824
1.60272
1.61439
1.63335
1.64826
1.60961
1.44092
1.07913
1.00012
1
1
1
1
1
1
1
1
1
1
1
1.60249
1.6073
1.62008
1.63376
1.63917
1.62977
1.58573
1.27619
1.01008
0.999989
1
1
1
1
1
1
1
1
1
1
1.60526
1.60977
1.62184
1.63351
1.63561
1.63264
1.62279
1.46353
1.11045
1.0005
0.999999
1
1
1
1
1
1
1
1
1
1.60522
1.60958
1.62086
1.63147
1.63379
1.63046
1.62407
1.57301
1.30138
1.02164
1.00018
1
1
1
1
1
1
1
1
1
1.60626
1.61299
1.6245
1.632
1.63163
1.62736
1.624
1.59687
1.43066
1.05147
0.995487
0.999734
0.999998
1
1
1
1
1
1
1
1.23115
1.44966
1.53901
1.58518
1.6116
1.62011
1.6186
1.61592
1.5741
1.38076
1.09664
1.00497
1.0001
1
1
1
1
1
1
1
0.741712
1.19597
1.3758
1.47405
1.53904
1.57901
1.59987
1.60762
1.59911
1.55465
1.3433
1.0731
1.00328
1.00006
1
1
1
1
1
1
0.798643
1.05659
1.17997
1.3074
1.41618
1.49414
1.54844
1.57831
1.59137
1.58427
1.51162
1.26398
1.03803
1.00116
1.00002
1
1
1
1
1
0.850029
0.953082
1.04962
1.15169
1.26674
1.37608
1.45769
1.51806
1.56315
1.57469
1.56064
1.43912
1.16364
1.0136
1.00029
1
1
1
1
1
0.879795
0.861604
0.934302
1.05237
1.15907
1.26494
1.35374
1.43817
1.50623
1.54672
1.55245
1.53405
1.34913
1.0775
1.00312
1.00004
1
1
1
1
0.945092
0.816739
0.807071
0.934644
1.05329
1.16974
1.26413
1.36069
1.44159
1.49577
1.53314
1.53172
1.47205
1.21621
1.02298
1.00048
1
1
1
1
1.00973
0.820097
0.728093
0.806296
0.924234
1.05496
1.16335
1.27251
1.3684
1.43505
1.49364
1.51761
1.49787
1.3614
1.09048
1.0038
1.00004
1
1
1
1.02404
0.835307
0.733924
0.782538
0.862143
0.968191
1.06697
1.18022
1.27748
1.3584
1.43557
1.49013
1.48726
1.42799
1.20303
1.01862
1.00032
1
1
1
1.02172
0.847131
0.736291
0.771564
0.833086
0.926869
1.02247
1.12335
1.21187
1.2894
1.36512
1.44781
1.47366
1.45255
1.30134
1.06167
1.00183
1.00002
1
1
1.00635
0.858918
0.747851
0.749922
0.786374
0.885948
0.973777
1.07518
1.16596
1.24002
1.30943
1.39533
1.45804
1.44921
1.3591
1.1317
1.00783
1.0001
1
1
0.977686
0.869369
0.7798
0.731953
0.725687
0.802343
0.896599
1.00267
1.10328
1.1885
1.26449
1.34568
1.4282
1.44254
1.40114
1.21134
1.02626
1.0005
1
1
0.922905
0.874473
0.798518
0.732363
0.718657
0.775906
0.837439
0.927639
1.01922
1.11126
1.20435
1.28965
1.38529
1.4305
1.41566
1.28997
1.06452
1.0021
1.00002
1
0.888293
0.865851
0.804883
0.742569
0.729965
0.778712
0.831617
0.908715
0.987729
1.06722
1.14733
1.23193
1.33027
1.40946
1.40924
1.34173
1.12829
1.00767
1.00009
1
0.882016
0.86248
0.806966
0.742737
0.727975
0.77251
0.818333
0.895
0.972653
1.04724
1.12224
1.19643
1.28307
1.37767
1.39695
1.3546
1.18827
1.02099
1.00034
1
0.888967
0.866511
0.812699
0.744708
0.718586
0.751039
0.785523
0.858988
0.937962
1.01633
1.09027
1.1614
1.24167
1.33943
1.38108
1.35773
1.23189
1.0443
1.00122
1.00001
1.05972
0.858056
0.787208
0.728897
0.717762
0.733889
0.757731
0.824605
0.898538
0.974968
1.05414
1.12348
1.20354
1.30364
1.36538
1.35243
1.25883
1.06809
1.00241
1.00002
1.10465
0.856135
0.7645
0.721628
0.716669
0.722867
0.742369
0.810108
0.878074
0.948152
1.02062
1.09262
1.16711
1.26451
1.34275
1.34199
1.27588
1.0986
1.00528
1.00005
1.12424
0.856486
0.738943
0.71368
0.711794
0.714521
0.740707
0.808573
0.864384
0.933738
0.999951
1.07086
1.1428
1.22945
1.31524
1.32697
1.28176
1.13061
1.0112
1.00014
1.19613
0.932835
0.741589
0.704736
0.703331
0.6995
0.73116
0.799371
0.846147
0.914236
0.979696
1.0449
1.11686
1.19647
1.28413
1.30624
1.27583
1.15236
1.02024
1.00036
1.26695
1.02895
0.778511
0.69222
0.689187
0.686067
0.727471
0.785115
0.826928
0.888928
0.952484
1.01766
1.08336
1.16189
1.25096
1.28508
1.26485
1.17016
1.03219
1.00084
1.2511
1.03721
0.816323
0.674605
0.671088
0.669922
0.730071
0.774677
0.813476
0.874625
0.931988
0.998143
1.06265
1.13165
1.21778
1.26535
1.25014
1.17493
1.04634
1.00178
1.24666
1.08825
0.901068
0.684797
0.65956
0.670805
0.727834
0.760122
0.796197
0.862407
0.918865
0.980945
1.04615
1.1096
1.19003
1.24399
1.23235
1.17183
1.05601
1.00311
1.25772
1.16363
1.02668
0.802367
0.660626
0.673676
0.725301
0.749972
0.794994
0.851175
0.907698
0.967026
1.0266
1.08636
1.16027
1.2194
1.2106
1.16375
1.06165
1.00447
1.30293
1.23012
1.11804
0.969985
0.713982
0.677468
0.727246
0.751051
0.803986
0.855805
0.90887
0.964973
1.01414
1.06463
1.12799
1.18873
1.18663
1.15071
1.06088
1.00493
1.3701
1.31431
1.24347
1.15764
1.0508
0.832295
0.754149
0.769558
0.829397
0.867581
0.907268
0.953525
0.986556
1.02485
1.08498
1.14799
1.15103
1.12495
1.05181
1.0043
)
;

boundaryField
{
    inlet
    {
        type            fixedValue;
        value           uniform 1;
    }
    outlet
    {
        type            inletOutlet;
        inletValue      uniform 1;
        value           nonuniform List<scalar> 
35
(
1.37108
1.31504
1.24474
1.15935
1.05323
0.835096
0.755478
0.770464
0.830408
0.868568
0.907765
0.953676
0.986351
1.02469
1.08549
1.14786
1.15009
1.12326
1.04989
1.00397
1.40605
1.40179
1.33481
1.13286
0.815484
0.719515
0.768184
0.832942
0.883216
0.961376
1.05716
1.09766
1.09002
1.04684
1.00606
)
;
    }
    airfoil
    {
        type            zeroGradient;
    }
    top
    {
        type            symmetryPlane;
    }
    bottom
    {
        type            symmetryPlane;
    }
    defaultFaces
    {
        type            empty;
    }
}


// ************************************************************************* //
