/*--------------------------------*- C++ -*----------------------------------*\
  =========                 |
  \\      /  F ield         | OpenFOAM: The Open Source CFD Toolbox
   \\    /   O peration     | Website:  https://openfoam.org
    \\  /    A nd           | Version:  7
     \\/     M anipulation  |
\*---------------------------------------------------------------------------*/
FoamFile
{
    version     2.0;
    format      ascii;
    class       volScalarField;
    location    "2";
    object      T;
}
// * * * * * * * * * * * * * * * * * * * * * * * * * * * * * * * * * * * * * //

dimensions      [0 0 0 1 0 0 0];

internalField   nonuniform List<scalar> 
90000
(
0.839404
0.851756
0.8644
0.876168
0.887129
0.897234
0.906741
0.915634
0.924134
0.932127
0.939893
0.947223
0.954429
0.961255
0.968014
0.974428
0.980859
0.986881
0.993004
0.998684
1.00449
1.00981
1.01531
1.02022
1.02535
1.02982
1.03454
1.03847
1.04264
1.04593
1.0495
1.05209
1.05506
1.0568
1.05862
1.06007
1.06046
1.06058
1.0605
1.05999
1.05901
1.05722
1.05495
1.05284
1.04938
1.04743
1.04571
1.0458
1.0462
1.04683
1.04824
1.05002
1.05068
1.05097
1.05169
1.05207
1.05179
1.05111
1.05021
1.04914
1.04814
1.04719
1.04644
1.04651
1.04711
1.04789
1.04902
1.05034
1.05085
1.05029
1.04883
1.04728
1.04578
1.045
1.04488
1.04532
1.04637
1.0462
1.04551
1.04423
1.04323
1.04258
1.04294
1.04389
1.04384
1.04344
1.04274
1.04177
1.0414
1.04007
1.03748
1.03472
1.03308
1.03295
1.03246
1.03175
1.03035
1.02903
1.02827
1.02679
0.827823
0.82801
0.828426
0.829119
0.830151
0.831564
0.833344
0.835546
0.838136
0.841178
0.844591
0.848469
0.852699
0.857419
0.862406
0.867897
0.873607
0.879794
0.886084
0.892889
0.899622
0.906842
0.91391
0.921445
0.928677
0.936363
0.943657
0.951284
0.958464
0.965868
0.972813
0.9798
0.986389
0.992817
0.999029
1.00442
1.01032
1.01457
1.01926
1.02263
1.02605
1.02812
1.03008
1.03302
1.0393
1.04298
1.04635
1.04795
1.04936
1.0501
1.05009
1.04973
1.04863
1.04753
1.04674
1.04617
1.04584
1.04534
1.04458
1.0436
1.0436
1.04394
1.04486
1.04609
1.04723
1.04753
1.04714
1.04652
1.04577
1.04506
1.04453
1.04352
1.04376
1.044
1.04427
1.04412
1.04365
1.04284
1.04215
1.04129
1.04142
1.04167
1.04206
1.04195
1.04163
1.04116
1.04091
1.04071
1.03995
1.0379
1.0355
1.03365
1.03252
1.03192
1.03117
1.03012
1.02892
1.02822
1.02728
1.02577
0.824927
0.824854
0.824774
0.824709
0.824618
0.824512
0.824388
0.824249
0.824107
0.823992
0.823885
0.823765
0.823662
0.823621
0.82364
0.82371
0.823846
0.824077
0.824485
0.82511
0.825945
0.827089
0.828534
0.830467
0.832801
0.835836
0.839365
0.843872
0.848881
0.855165
0.86186
0.870064
0.878506
0.888623
0.898748
0.910366
0.9218
0.934403
0.946605
0.959134
0.971641
0.983118
0.996
1.00589
1.01315
1.01754
1.02193
1.02463
1.02733
1.02905
1.03065
1.03175
1.03251
1.03292
1.03287
1.03247
1.03214
1.03246
1.0338
1.03561
1.03794
1.03971
1.04102
1.04101
1.04064
1.03945
1.03779
1.03635
1.03551
1.0351
1.03594
1.03783
1.03967
1.03963
1.0391
1.0378
1.03635
1.03503
1.03543
1.03678
1.03773
1.03762
1.03709
1.03658
1.03647
1.03689
1.03731
1.03692
1.03544
1.03282
1.03143
1.03072
1.02956
1.02838
1.02714
1.02604
1.02601
1.02533
1.0243
1.02289
0.820823
0.820777
0.820721
0.820654
0.82058
0.820503
0.820428
0.820347
0.820256
0.820154
0.820051
0.819944
0.819826
0.819708
0.819603
0.819525
0.81946
0.819424
0.81932
0.819187
0.81905
0.81891
0.818775
0.818674
0.818608
0.818551
0.81851
0.818534
0.818612
0.818774
0.819074
0.819643
0.82052
0.821939
0.823864
0.826809
0.830528
0.836043
0.842521
0.851701
0.861805
0.875032
0.888783
0.905035
0.920189
0.935831
0.950346
0.962625
0.974867
0.983235
0.992726
0.998112
1.00458
1.00792
1.01182
1.01372
1.0183
1.02246
1.0272
1.02999
1.03209
1.03345
1.03346
1.03312
1.0314
1.02906
1.02696
1.02527
1.02579
1.02756
1.02964
1.03163
1.03294
1.03254
1.03104
1.02939
1.028
1.02869
1.03
1.03116
1.03172
1.0313
1.03054
1.02984
1.03024
1.03101
1.03117
1.03085
1.02908
1.02709
1.02608
1.02563
1.02485
1.02347
1.02184
1.02147
1.02127
1.02074
1.01995
1.01864
0.818073
0.818043
0.818012
0.817981
0.817951
0.817926
0.817903
0.817867
0.817826
0.817787
0.817755
0.817726
0.817666
0.817579
0.817507
0.81748
0.817474
0.817457
0.817399
0.817304
0.817222
0.81717
0.817135
0.817115
0.817105
0.817085
0.817046
0.816995
0.816935
0.816883
0.81684
0.816811
0.816815
0.816831
0.81685
0.816883
0.816974
0.817187
0.817518
0.818055
0.818835
0.820236
0.822242
0.825925
0.830905
0.839658
0.849922
0.865324
0.880792
0.900539
0.91889
0.938544
0.95683
0.97244
0.987912
0.998859
1.0084
1.01271
1.01685
1.01955
1.02162
1.02261
1.02233
1.02023
1.01614
1.01642
1.01784
1.02008
1.02255
1.02407
1.02457
1.02501
1.02435
1.02287
1.02259
1.02308
1.02435
1.02525
1.02555
1.02524
1.02463
1.02464
1.0248
1.02503
1.02577
1.02596
1.02587
1.02499
1.02406
1.02291
1.02154
1.02054
1.01958
1.01839
1.01741
1.01683
1.01665
1.01605
1.01543
1.01447
0.816077
0.816071
0.816065
0.816061
0.816061
0.816061
0.816058
0.81605
0.816049
0.816054
0.816067
0.816082
0.816092
0.816092
0.816085
0.816088
0.816109
0.81613
0.816145
0.816153
0.816153
0.816145
0.816122
0.816096
0.816083
0.816089
0.816095
0.816087
0.816085
0.816093
0.816112
0.816143
0.816196
0.816261
0.816317
0.816383
0.816461
0.816515
0.816566
0.816618
0.816679
0.816752
0.816868
0.817025
0.817211
0.817539
0.818108
0.819302
0.82123
0.82524
0.830928
0.84171
0.85445
0.874406
0.893948
0.918256
0.938585
0.956552
0.972318
0.982069
0.993053
0.997016
1.00247
1.00416
1.01015
1.01483
1.02036
1.02305
1.02388
1.02379
1.02292
1.01964
1.01664
1.01682
1.01795
1.02087
1.02405
1.02444
1.02411
1.02285
1.02122
1.02129
1.02189
1.02298
1.02385
1.02351
1.02266
1.02168
1.02118
1.02075
1.01978
1.01799
1.01616
1.01482
1.01449
1.01416
1.01387
1.01336
1.01278
1.01164
0.815397
0.81541
0.815422
0.815437
0.815458
0.815469
0.815473
0.815476
0.815486
0.815506
0.815535
0.81557
0.815613
0.815677
0.815723
0.815726
0.815724
0.81573
0.815751
0.815818
0.815905
0.815933
0.815934
0.81592
0.815872
0.815834
0.815836
0.815863
0.815914
0.815972
0.816032
0.816072
0.816083
0.816099
0.816148
0.816236
0.81631
0.816331
0.816342
0.81636
0.816387
0.816421
0.816476
0.816607
0.816853
0.817086
0.817245
0.817371
0.817439
0.817466
0.817528
0.817778
0.81839
0.820146
0.823255
0.830529
0.840518
0.858919
0.878499
0.904822
0.928997
0.953213
0.975642
0.992659
1.0104
1.01605
1.02083
1.02327
1.02362
1.02146
1.0154
1.01321
1.01436
1.01764
1.02124
1.02299
1.02376
1.02339
1.02193
1.01988
1.01994
1.02095
1.0223
1.02269
1.02258
1.02197
1.02114
1.02105
1.02087
1.01999
1.01836
1.01623
1.0145
1.01369
1.01324
1.01278
1.01209
1.01156
1.01149
1.01078
0.815505
0.815528
0.815562
0.815595
0.81562
0.815641
0.81566
0.815679
0.8157
0.815725
0.815754
0.815791
0.815831
0.815879
0.81594
0.815988
0.816014
0.816031
0.81605
0.816083
0.816134
0.816188
0.816222
0.816241
0.816262
0.816293
0.816326
0.816362
0.816404
0.816454
0.81652
0.816589
0.816635
0.816669
0.816701
0.816736
0.816762
0.816759
0.816754
0.816761
0.816773
0.816781
0.81679
0.816807
0.816877
0.817009
0.817138
0.817246
0.817312
0.817331
0.817323
0.817274
0.817173
0.817008
0.81688
0.816934
0.817167
0.81803
0.820087
0.825827
0.834837
0.853291
0.873991
0.903907
0.930374
0.955408
0.977714
0.988209
1.00105
1.00383
1.00921
1.01502
1.02161
1.02422
1.02482
1.02461
1.02244
1.01924
1.01946
1.02008
1.02197
1.02375
1.02369
1.02296
1.0215
1.02079
1.0207
1.0215
1.02167
1.02041
1.01739
1.01472
1.01348
1.01352
1.0133
1.01266
1.0116
1.01104
1.01092
1.01019
0.816005
0.816044
0.816075
0.816112
0.816133
0.816145
0.816156
0.81617
0.816194
0.816225
0.816256
0.816284
0.816315
0.816349
0.816376
0.816399
0.816426
0.816453
0.816478
0.816509
0.816552
0.816584
0.816605
0.816631
0.816675
0.816713
0.81674
0.816766
0.816802
0.816859
0.816938
0.817013
0.817045
0.817067
0.817077
0.817074
0.817061
0.817034
0.817015
0.817014
0.817004
0.816977
0.816957
0.816957
0.816977
0.817031
0.817097
0.817157
0.817186
0.817174
0.817125
0.817044
0.816935
0.816782
0.816643
0.816482
0.816262
0.816079
0.816005
0.816047
0.816267
0.817191
0.819309
0.825496
0.835228
0.856939
0.881487
0.915392
0.946827
0.974847
1.00468
1.01598
1.02269
1.02511
1.02503
1.02197
1.01455
1.01569
1.01855
1.02288
1.02573
1.02552
1.02407
1.02148
1.02084
1.0211
1.02225
1.02299
1.02241
1.02017
1.01622
1.0141
1.0141
1.01393
1.01337
1.01242
1.01143
1.01131
1.01103
1.01004
0.816623
0.816632
0.816642
0.816643
0.816633
0.816629
0.816629
0.816633
0.816658
0.816679
0.816678
0.816678
0.816684
0.816681
0.816681
0.816692
0.81671
0.81672
0.81673
0.816743
0.816754
0.816766
0.816788
0.816828
0.816878
0.816933
0.816965
0.816985
0.817016
0.817074
0.817143
0.817213
0.817263
0.817277
0.817275
0.817262
0.817227
0.817177
0.817126
0.817081
0.817027
0.81696
0.816926
0.816897
0.81686
0.816814
0.81677
0.81675
0.816737
0.816683
0.81657
0.816446
0.816351
0.816299
0.816244
0.816138
0.815963
0.815759
0.815599
0.815543
0.815542
0.815558
0.815611
0.815768
0.816116
0.817297
0.820166
0.829251
0.844016
0.873907
0.90593
0.942364
0.970369
0.988039
1.00185
1.00607
1.01222
1.02107
1.02534
1.02633
1.0262
1.0238
1.02067
1.02125
1.02173
1.02355
1.02501
1.02438
1.02207
1.01922
1.01654
1.01513
1.01489
1.01429
1.01309
1.01224
1.01194
1.01175
1.01127
1.01005
0.817022
0.817012
0.816992
0.816978
0.816967
0.816961
0.816962
0.816963
0.816962
0.816955
0.816944
0.81693
0.816908
0.816885
0.816882
0.816884
0.816883
0.816874
0.816868
0.81686
0.816856
0.81686
0.816882
0.816929
0.816993
0.817043
0.817072
0.817098
0.817138
0.81719
0.817243
0.817301
0.817342
0.817351
0.817345
0.817315
0.817252
0.817167
0.817075
0.816988
0.816919
0.816854
0.816757
0.816641
0.816545
0.81644
0.816316
0.816234
0.816156
0.816053
0.815957
0.815875
0.815872
0.815888
0.815879
0.815831
0.815729
0.815587
0.815469
0.815409
0.815403
0.815421
0.815471
0.815577
0.81573
0.815835
0.815891
0.816034
0.816613
0.819089
0.82539
0.842936
0.869829
0.908726
0.944935
0.980433
1.00918
1.02072
1.02475
1.0256
1.02242
1.01509
1.01666
1.02082
1.02497
1.02629
1.02577
1.02321
1.02009
1.01808
1.0177
1.01668
1.01546
1.01366
1.01258
1.01215
1.01257
1.01234
1.01154
1.00992
0.817242
0.817228
0.817213
0.817191
0.817177
0.817179
0.817183
0.817181
0.817173
0.817144
0.81713
0.817121
0.81709
0.817038
0.81702
0.817013
0.816998
0.816972
0.816946
0.816921
0.816886
0.816858
0.816857
0.816862
0.816875
0.816905
0.816923
0.816935
0.816957
0.816999
0.817024
0.817043
0.817077
0.817101
0.817102
0.817075
0.817011
0.8169
0.816769
0.816676
0.816604
0.816508
0.816403
0.816318
0.816229
0.81611
0.815972
0.815829
0.815661
0.815542
0.81549
0.815479
0.815506
0.815588
0.815615
0.81561
0.815576
0.815545
0.815506
0.815443
0.815399
0.815398
0.815423
0.815512
0.815683
0.815866
0.815948
0.815969
0.815911
0.815825
0.815889
0.816419
0.818829
0.826122
0.844481
0.87637
0.917729
0.954217
0.980203
0.999104
1.00466
1.01198
1.02189
1.02659
1.02719
1.0264
1.02253
1.02071
1.01973
1.01935
1.01905
1.01775
1.01494
1.01306
1.01237
1.01282
1.01304
1.0125
1.01117
1.0097
0.817559
0.817538
0.817519
0.817502
0.817485
0.817469
0.817457
0.817443
0.817416
0.817378
0.817346
0.817309
0.817253
0.817187
0.817137
0.817081
0.817014
0.816959
0.816917
0.816868
0.816808
0.816733
0.816665
0.816643
0.816621
0.816607
0.816615
0.816648
0.816691
0.816712
0.81671
0.816707
0.816718
0.816754
0.8168
0.816809
0.816757
0.8166
0.81642
0.816279
0.816174
0.816112
0.816088
0.816059
0.815988
0.81587
0.815733
0.815592
0.815426
0.815324
0.815304
0.815305
0.815339
0.815432
0.815483
0.815491
0.815543
0.815645
0.815666
0.815662
0.815616
0.815547
0.815541
0.815567
0.815668
0.815833
0.815909
0.815906
0.815865
0.815746
0.815662
0.815658
0.81569
0.815851
0.816591
0.819376
0.82972
0.852286
0.892284
0.933505
0.975819
1.00883
1.02134
1.02556
1.0251
1.01859
1.01665
1.01877
1.02161
1.02127
1.0197
1.01637
1.01355
1.01258
1.01321
1.01364
1.01304
1.01151
1.01062
1.00969
0.817437
0.817433
0.817431
0.817434
0.817441
0.817442
0.817439
0.817429
0.817395
0.817348
0.817296
0.817244
0.817201
0.817159
0.817093
0.816993
0.816937
0.816918
0.816897
0.816839
0.816748
0.816668
0.816594
0.816487
0.816364
0.816255
0.816158
0.816082
0.816039
0.816015
0.815981
0.815917
0.815883
0.815881
0.815884
0.815874
0.815805
0.815712
0.815706
0.815725
0.815781
0.815871
0.815906
0.815898
0.815857
0.815772
0.81566
0.815536
0.815411
0.815313
0.81528
0.815281
0.815312
0.815387
0.815458
0.815539
0.815659
0.81582
0.8159
0.815905
0.815894
0.815826
0.815763
0.815746
0.815756
0.815821
0.815871
0.815866
0.81581
0.815665
0.815561
0.815549
0.815559
0.815591
0.815589
0.815557
0.815674
0.816869
0.821748
0.838227
0.871189
0.917043
0.957509
0.984856
1.00096
1.00577
1.01945
1.0237
1.02348
1.02198
1.01718
1.01438
1.01304
1.01376
1.01467
1.01403
1.012
1.01068
1.01012
1.00992
0.817194
0.817182
0.817171
0.817169
0.817174
0.817175
0.817162
0.817126
0.817059
0.81693
0.816787
0.816654
0.81658
0.816495
0.816328
0.816257
0.816268
0.816274
0.816261
0.816139
0.815998
0.815972
0.815959
0.815929
0.815873
0.815809
0.815752
0.815692
0.815621
0.815545
0.815466
0.815367
0.815298
0.815268
0.81523
0.815204
0.815204
0.815219
0.815271
0.815371
0.815519
0.815682
0.815799
0.815865
0.815904
0.815911
0.81588
0.815784
0.815636
0.815524
0.815522
0.815562
0.815626
0.815651
0.815656
0.81568
0.815754
0.815942
0.816122
0.816121
0.816108
0.816027
0.815912
0.81589
0.815906
0.815962
0.815971
0.815949
0.815844
0.815635
0.815491
0.815479
0.815488
0.815514
0.815554
0.815591
0.815561
0.815494
0.815542
0.816059
0.818703
0.83011
0.856735
0.900893
0.948489
0.990543
1.017
1.0225
1.02236
1.01711
1.01193
1.01271
1.01469
1.01569
1.01499
1.01265
1.0107
1.01012
1.01058
1.01012
0.816216
0.816213
0.816207
0.816192
0.816152
0.816139
0.816102
0.816002
0.815891
0.81573
0.815605
0.815573
0.81556
0.815561
0.815601
0.815704
0.815719
0.815718
0.815694
0.815614
0.815598
0.815608
0.815605
0.815573
0.815538
0.815515
0.815492
0.81545
0.815369
0.815255
0.815141
0.815051
0.814984
0.81492
0.814876
0.814869
0.814882
0.814935
0.815039
0.815182
0.815346
0.815508
0.815637
0.815731
0.815799
0.815857
0.815859
0.815789
0.815643
0.815586
0.815627
0.815727
0.815743
0.815736
0.815734
0.815726
0.81573
0.815823
0.816074
0.81613
0.816113
0.816026
0.815871
0.815873
0.815911
0.815986
0.815974
0.815922
0.815778
0.815567
0.815445
0.815441
0.81545
0.815473
0.815555
0.815672
0.815683
0.815655
0.815625
0.815577
0.815583
0.81579
0.817305
0.824625
0.846999
0.89111
0.939283
0.973048
0.99977
1.00193
1.01271
1.01529
1.01722
1.01646
1.0128
1.01055
1.01034
1.01116
1.0111
1.00997
0.815255
0.81526
0.815257
0.815224
0.815207
0.815193
0.815133
0.815002
0.81494
0.81493
0.814934
0.815014
0.815092
0.815086
0.815104
0.815223
0.815377
0.815429
0.815446
0.815462
0.815505
0.81557
0.815594
0.815606
0.815638
0.815658
0.815661
0.815644
0.81557
0.815444
0.815323
0.815238
0.815161
0.81506
0.814983
0.814968
0.814982
0.815032
0.815131
0.815291
0.815469
0.815592
0.815655
0.815687
0.815712
0.815788
0.815831
0.815758
0.815635
0.815633
0.815763
0.815827
0.815809
0.815776
0.815779
0.815768
0.815707
0.815701
0.815875
0.816179
0.816195
0.816133
0.815802
0.815677
0.815705
0.815829
0.815833
0.815745
0.815599
0.81544
0.815439
0.815521
0.815579
0.815577
0.815606
0.815709
0.815729
0.815717
0.815679
0.815575
0.815518
0.815379
0.815122
0.815169
0.815993
0.822364
0.840071
0.885287
0.936708
0.979357
1.0103
1.0141
1.0164
1.01202
1.00762
1.00902
1.01175
1.01209
1.01131
1.00901
0.814637
0.814641
0.814664
0.814662
0.814632
0.814607
0.814591
0.814582
0.814582
0.81459
0.814614
0.81468
0.81474
0.814794
0.814872
0.814959
0.815047
0.815141
0.815233
0.815316
0.815459
0.815608
0.81565
0.815665
0.815706
0.815777
0.815791
0.815772
0.81574
0.815702
0.815634
0.815523
0.815335
0.815184
0.815127
0.815072
0.815032
0.815042
0.815121
0.815331
0.815513
0.815568
0.81559
0.815589
0.815596
0.815675
0.81575
0.815684
0.815514
0.815481
0.815629
0.815758
0.815738
0.815689
0.815689
0.815734
0.815694
0.815635
0.815657
0.815859
0.815895
0.815894
0.815718
0.815462
0.815459
0.815549
0.815564
0.815458
0.815229
0.815194
0.81531
0.815597
0.815718
0.815709
0.815686
0.815705
0.815737
0.815734
0.815695
0.815581
0.815312
0.815029
0.814779
0.814709
0.81466
0.814762
0.8155
0.820798
0.838476
0.882676
0.930263
0.964926
0.992548
0.995703
1.00719
1.01238
1.01305
1.01201
1.00921
1.00818
0.814957
0.814962
0.81495
0.814907
0.814847
0.814789
0.814757
0.814752
0.814756
0.814781
0.814853
0.814927
0.814995
0.815095
0.815157
0.815172
0.815212
0.815332
0.81542
0.815453
0.815478
0.815541
0.815592
0.815619
0.815661
0.815732
0.815775
0.815762
0.815746
0.815753
0.815733
0.815633
0.815406
0.815266
0.815245
0.815221
0.815123
0.815105
0.815172
0.815399
0.815511
0.815521
0.815534
0.815544
0.815518
0.815523
0.815597
0.815553
0.815376
0.815278
0.815389
0.815668
0.815695
0.81564
0.815607
0.81565
0.815662
0.815596
0.815515
0.815352
0.815202
0.815238
0.815268
0.815214
0.815253
0.815435
0.815493
0.815394
0.815086
0.815039
0.81521
0.81556
0.815728
0.815722
0.815664
0.815629
0.815586
0.815523
0.815351
0.81511
0.814799
0.814659
0.814646
0.814665
0.814778
0.814901
0.814846
0.814789
0.815108
0.819814
0.834809
0.877385
0.927144
0.97214
1.00436
1.01101
1.01189
1.00466
1.0053
1.00745
0.814656
0.814639
0.814605
0.814496
0.814435
0.814398
0.814384
0.814395
0.814484
0.814684
0.814789
0.814809
0.814805
0.814803
0.814766
0.814693
0.814708
0.814862
0.814954
0.814952
0.814959
0.815033
0.8151
0.815137
0.815195
0.815342
0.815447
0.815447
0.815402
0.815399
0.815434
0.815392
0.815082
0.814789
0.814771
0.814793
0.814746
0.814735
0.814916
0.815332
0.815484
0.815493
0.815461
0.815364
0.815236
0.815231
0.815386
0.815388
0.815164
0.814893
0.814881
0.815128
0.815349
0.815328
0.815304
0.815376
0.815405
0.815336
0.815139
0.814927
0.814796
0.814702
0.814694
0.814679
0.814872
0.815419
0.815675
0.815598
0.815282
0.815142
0.815237
0.815487
0.815631
0.815619
0.815542
0.815337
0.815085
0.814805
0.814631
0.814543
0.81446
0.814505
0.81464
0.814845
0.815028
0.815016
0.814929
0.814669
0.814236
0.812765
0.812339
0.816079
0.83249
0.876798
0.925637
0.96438
0.989194
0.994265
1.00754
1.00957
0.81345
0.813453
0.81345
0.813445
0.813488
0.813628
0.813684
0.813676
0.813543
0.813291
0.813224
0.813253
0.813332
0.813382
0.81343
0.813529
0.813804
0.814067
0.814198
0.814315
0.814356
0.814312
0.814209
0.814206
0.814267
0.81451
0.814677
0.814655
0.814609
0.814725
0.81492
0.814871
0.814413
0.813936
0.813898
0.814045
0.814142
0.814236
0.814497
0.814919
0.815292
0.815421
0.815387
0.815148
0.814941
0.814989
0.815136
0.815111
0.81481
0.814273
0.814009
0.814058
0.814128
0.814127
0.814141
0.814488
0.814752
0.814731
0.814735
0.814903
0.815
0.814755
0.81424
0.814165
0.814438
0.815267
0.815757
0.815737
0.815518
0.815317
0.815302
0.815426
0.81547
0.81539
0.815134
0.814734
0.814331
0.814054
0.814077
0.814187
0.814358
0.814674
0.81493
0.815127
0.815146
0.815099
0.814953
0.814532
0.8138
0.81241
0.811236
0.810082
0.810343
0.814945
0.832217
0.877688
0.93105
0.981864
1.00379
1.00812
0.811509
0.811512
0.811503
0.811493
0.81149
0.811638
0.812046
0.812193
0.812111
0.811669
0.811259
0.811213
0.811225
0.811363
0.811774
0.81225
0.812527
0.812704
0.81287
0.813012
0.813046
0.812988
0.812814
0.812581
0.812379
0.812255
0.812192
0.81217
0.81221
0.812579
0.81288
0.81287
0.812637
0.812388
0.812343
0.812304
0.812255
0.812339
0.812627
0.812929
0.813192
0.813535
0.813744
0.813715
0.813769
0.813951
0.813946
0.813708
0.813018
0.81294
0.813047
0.812855
0.812378
0.812309
0.812354
0.812646
0.813017
0.813383
0.81405
0.814864
0.815008
0.814784
0.814205
0.813915
0.814151
0.814968
0.815646
0.81565
0.815432
0.815229
0.815115
0.814804
0.814424
0.814172
0.81402
0.813887
0.813695
0.813705
0.813816
0.814032
0.814518
0.814901
0.815096
0.815167
0.815136
0.81504
0.814769
0.814103
0.81307
0.812109
0.811283
0.810518
0.809877
0.809016
0.809321
0.813711
0.835524
0.885928
0.933125
0.979374
0.812143
0.812146
0.812098
0.811988
0.811988
0.811994
0.812157
0.812544
0.812597
0.812244
0.810948
0.810273
0.810257
0.81045
0.81078
0.810994
0.81125
0.811703
0.812162
0.812473
0.812536
0.812406
0.81195
0.811228
0.810719
0.810531
0.810529
0.810635
0.810852
0.811177
0.811291
0.811291
0.811062
0.810669
0.810665
0.810807
0.810794
0.810427
0.809967
0.809743
0.809638
0.809533
0.80953
0.809732
0.810609
0.811301
0.811316
0.81112
0.810913
0.811006
0.811159
0.811078
0.810913
0.810905
0.811026
0.811259
0.811437
0.811732
0.812474
0.813466
0.814049
0.814027
0.813762
0.813498
0.813519
0.813607
0.813611
0.813685
0.81384
0.813842
0.813601
0.813057
0.812705
0.812713
0.81284
0.81313
0.813446
0.813806
0.814129
0.814445
0.814785
0.814945
0.815067
0.815093
0.814996
0.814613
0.813992
0.813272
0.812547
0.81208
0.811501
0.810762
0.810049
0.809308
0.808505
0.806876
0.807156
0.814369
0.837735
0.922414
0.811586
0.811632
0.811615
0.81148
0.811464
0.811581
0.811848
0.812046
0.812202
0.812312
0.812329
0.812056
0.810545
0.809139
0.808747
0.808719
0.808943
0.809609
0.809847
0.809758
0.809457
0.808831
0.808087
0.807803
0.807814
0.808053
0.808622
0.80887
0.808898
0.808804
0.808796
0.809024
0.809334
0.809637
0.810199
0.810622
0.810619
0.810187
0.809345
0.808651
0.807903
0.807449
0.807357
0.807525
0.808521
0.809854
0.810045
0.81
0.810026
0.810348
0.81066
0.8105
0.809956
0.809593
0.809597
0.809719
0.810035
0.810627
0.811229
0.811285
0.81109
0.810957
0.810996
0.811096
0.811098
0.810978
0.810635
0.810459
0.810479
0.81061
0.810803
0.810963
0.811105
0.811259
0.811548
0.812063
0.81285
0.813537
0.813883
0.814227
0.814513
0.814486
0.814399
0.814164
0.813716
0.813244
0.812862
0.812644
0.812524
0.812193
0.811574
0.81074
0.810005
0.809246
0.808094
0.806679
0.805687
0.804778
0.805671
0.834859
0.813084
0.81305
0.81303
0.812742
0.812197
0.81212
0.812128
0.812111
0.812216
0.812944
0.813179
0.813011
0.812104
0.810908
0.810108
0.809758
0.809773
0.809953
0.810075
0.809959
0.809882
0.809929
0.809793
0.809403
0.809393
0.809691
0.810002
0.810124
0.810146
0.810079
0.810055
0.810222
0.810831
0.811902
0.813395
0.81484
0.815373
0.815335
0.81488
0.813739
0.811715
0.810141
0.809946
0.81015
0.811051
0.811924
0.81194
0.811762
0.811857
0.812846
0.813746
0.813665
0.813103
0.812415
0.812007
0.811846
0.811956
0.812107
0.812005
0.811375
0.810091
0.809708
0.809767
0.810113
0.810357
0.810338
0.810028
0.809507
0.809391
0.809415
0.809542
0.809773
0.810036
0.810229
0.810405
0.810708
0.811241
0.81181
0.811993
0.811914
0.811568
0.811464
0.81158
0.811637
0.811702
0.811892
0.812195
0.812595
0.812525
0.812198
0.811538
0.81046
0.809325
0.808134
0.80715
0.806435
0.805886
0.805165
0.80404
0.805413
0.824904
0.824762
0.824145
0.823443
0.823258
0.82326
0.823285
0.823518
0.824087
0.824261
0.823995
0.823359
0.823095
0.823171
0.823558
0.823601
0.823541
0.823039
0.822428
0.822243
0.821884
0.820668
0.819192
0.818899
0.81902
0.819002
0.818558
0.818605
0.818729
0.818321
0.816857
0.816358
0.816375
0.816911
0.818751
0.821
0.821714
0.821765
0.821687
0.821397
0.82081
0.819886
0.818855
0.817979
0.817351
0.816776
0.815931
0.814953
0.814523
0.81449
0.814546
0.814676
0.814541
0.813815
0.812884
0.81248
0.812354
0.812366
0.812348
0.811594
0.81
0.809507
0.809533
0.809869
0.810186
0.810239
0.81011
0.809787
0.809651
0.809694
0.810002
0.810856
0.811789
0.812252
0.812181
0.811983
0.811704
0.811385
0.810964
0.810384
0.809786
0.809666
0.809738
0.80989
0.810052
0.810409
0.810835
0.81128
0.811158
0.810473
0.809315
0.808045
0.807146
0.806747
0.806417
0.806442
0.805983
0.805224
0.804117
0.80207
0.832172
0.832176
0.832441
0.83417
0.835229
0.835217
0.835173
0.835352
0.835293
0.835156
0.835562
0.836752
0.837095
0.837107
0.837055
0.836902
0.836934
0.83709
0.837102
0.836945
0.835807
0.834139
0.834081
0.834537
0.834298
0.832204
0.830372
0.830611
0.830939
0.830659
0.829076
0.826022
0.824741
0.824827
0.825319
0.8255
0.824913
0.823766
0.823673
0.824482
0.825809
0.826024
0.826001
0.826328
0.826335
0.825587
0.823956
0.822449
0.821469
0.82068
0.819854
0.819082
0.818286
0.817278
0.816664
0.816545
0.816673
0.817574
0.818846
0.819043
0.818518
0.816783
0.815276
0.81505
0.815234
0.816055
0.817231
0.817405
0.817001
0.816153
0.815648
0.815597
0.815446
0.8151
0.814213
0.813001
0.811731
0.810941
0.810588
0.810216
0.80978
0.809739
0.809873
0.810456
0.81134
0.812286
0.812245
0.811666
0.810353
0.80858
0.806937
0.806114
0.805459
0.805234
0.805358
0.805604
0.805317
0.80464
0.803062
0.80073
0.852847
0.852643
0.852587
0.852576
0.85247
0.852316
0.852389
0.852494
0.85245
0.852247
0.852381
0.853188
0.853691
0.853679
0.853478
0.853097
0.852141
0.851436
0.851425
0.851577
0.851395
0.85149
0.85244
0.85275
0.852101
0.850022
0.849346
0.849505
0.8503
0.850763
0.850611
0.849363
0.846635
0.846027
0.84629
0.846488
0.845779
0.844319
0.843852
0.843583
0.842939
0.842657
0.842742
0.842606
0.841637
0.841025
0.840359
0.839325
0.838941
0.839036
0.839347
0.839392
0.838856
0.837216
0.835145
0.833414
0.832308
0.832024
0.83189
0.831769
0.831406
0.830375
0.828871
0.827395
0.826217
0.824908
0.824011
0.82331
0.822342
0.820876
0.819173
0.817841
0.816903
0.815815
0.814465
0.813297
0.813008
0.812732
0.812842
0.813224
0.813796
0.814294
0.814995
0.81499
0.814796
0.814254
0.813051
0.811241
0.809272
0.807823
0.806763
0.805883
0.805949
0.806334
0.806406
0.805935
0.804592
0.803014
0.801348
0.799411
0.875684
0.875571
0.874955
0.873745
0.873502
0.87351
0.87358
0.8741
0.874672
0.874747
0.874709
0.874436
0.873978
0.87393
0.873957
0.873864
0.873626
0.873102
0.872688
0.872805
0.872996
0.872532
0.870969
0.870333
0.869966
0.868893
0.867266
0.867001
0.867051
0.866808
0.866
0.86518
0.864132
0.862817
0.862639
0.862757
0.862662
0.862895
0.863157
0.862825
0.861953
0.861865
0.861992
0.861728
0.86031
0.858159
0.856035
0.853583
0.851575
0.851122
0.851541
0.852101
0.851766
0.850338
0.850072
0.850112
0.848981
0.845857
0.843357
0.841613
0.840545
0.840491
0.840435
0.840164
0.839266
0.837013
0.83372
0.832321
0.832416
0.832334
0.831569
0.829606
0.827939
0.8279
0.82778
0.827097
0.826838
0.826377
0.825521
0.824554
0.823574
0.822398
0.821013
0.819236
0.817261
0.815234
0.812981
0.811211
0.809583
0.808492
0.808412
0.808895
0.80884
0.808477
0.807351
0.805594
0.803901
0.802283
0.80116
0.800021
0.89718
0.896265
0.896148
0.896256
0.896604
0.896559
0.895818
0.894699
0.894453
0.8946
0.895003
0.895055
0.894617
0.893586
0.893321
0.893596
0.893768
0.893635
0.893437
0.8933
0.892722
0.892019
0.891935
0.892032
0.892007
0.891903
0.891644
0.8907
0.890094
0.890067
0.889903
0.889508
0.888714
0.887515
0.885691
0.884038
0.883468
0.883449
0.883427
0.882991
0.881523
0.880799
0.880863
0.880851
0.880304
0.879769
0.878994
0.877447
0.875606
0.874641
0.874148
0.873395
0.87177
0.86986
0.869452
0.869532
0.869052
0.867101
0.865692
0.864978
0.863381
0.861127
0.859854
0.859488
0.859136
0.858072
0.855649
0.853033
0.851522
0.850824
0.849827
0.847794
0.844857
0.84271
0.841266
0.839603
0.83722
0.834934
0.832719
0.830478
0.828494
0.826438
0.824126
0.822666
0.82113
0.820318
0.820115
0.819542
0.819141
0.818307
0.816732
0.815082
0.812677
0.810159
0.807199
0.80528
0.803886
0.802408
0.802898
0.802235
0.919784
0.919403
0.919228
0.91912
0.918953
0.918651
0.91798
0.917845
0.917882
0.917746
0.917415
0.91722
0.916787
0.916009
0.915824
0.915878
0.915816
0.915634
0.915441
0.915144
0.914644
0.913793
0.912768
0.91259
0.91261
0.912574
0.912238
0.91143
0.910435
0.909734
0.909345
0.908978
0.908321
0.907432
0.906825
0.906216
0.904941
0.904513
0.904493
0.904222
0.90343
0.902307
0.901439
0.900619
0.899421
0.897953
0.896765
0.895029
0.893263
0.893071
0.893389
0.89334
0.89245
0.890484
0.888972
0.88734
0.884338
0.882076
0.881982
0.881867
0.88093
0.879542
0.877462
0.874614
0.87258
0.871571
0.870831
0.869683
0.867465
0.864502
0.862468
0.861212
0.859693
0.857394
0.855627
0.854192
0.852367
0.850232
0.848575
0.847053
0.845364
0.843771
0.842257
0.841143
0.8399
0.838112
0.836077
0.833084
0.829859
0.825714
0.821933
0.818118
0.81453
0.811312
0.809359
0.808987
0.80982
0.809722
0.808738
0.805435
0.941794
0.941664
0.941608
0.941437
0.940952
0.940654
0.940663
0.940639
0.940106
0.939258
0.939197
0.939133
0.938553
0.93812
0.9379
0.937385
0.936753
0.936672
0.936638
0.936339
0.935618
0.935397
0.93527
0.934992
0.934402
0.933624
0.933003
0.93255
0.932074
0.931599
0.931062
0.930446
0.929872
0.928911
0.928046
0.927584
0.927028
0.926132
0.924946
0.923967
0.923043
0.922185
0.921524
0.92103
0.92043
0.918903
0.917898
0.917273
0.91645
0.915122
0.913601
0.912334
0.910645
0.909692
0.909287
0.908459
0.90661
0.904442
0.903294
0.901858
0.899444
0.898731
0.898122
0.896924
0.894886
0.891807
0.890042
0.889204
0.888571
0.886909
0.884176
0.882108
0.880586
0.878691
0.876469
0.874302
0.872247
0.869793
0.867153
0.864594
0.86204
0.859132
0.856277
0.853122
0.850247
0.846906
0.84368
0.840052
0.836283
0.832859
0.830307
0.827968
0.827367
0.826176
0.824481
0.822637
0.819991
0.817214
0.813308
0.806913
0.964889
0.964785
0.964727
0.964444
0.963696
0.96341
0.963512
0.963653
0.963536
0.963165
0.962647
0.961961
0.961736
0.961598
0.961458
0.96105
0.960216
0.959511
0.959288
0.958963
0.958391
0.958112
0.957958
0.95757
0.956718
0.955978
0.955601
0.955185
0.95442
0.953842
0.953349
0.952879
0.952208
0.951355
0.950444
0.949331
0.948554
0.947986
0.947239
0.946266
0.945316
0.944494
0.943565
0.942637
0.941873
0.940958
0.93943
0.938091
0.93723
0.936194
0.934824
0.933516
0.93217
0.930837
0.9296
0.928482
0.926543
0.9238
0.92287
0.922233
0.920814
0.918801
0.916609
0.914631
0.912798
0.910562
0.908978
0.90697
0.904858
0.90327
0.90147
0.898997
0.89632
0.893825
0.891254
0.888697
0.886395
0.883973
0.881426
0.878967
0.876465
0.8741
0.871503
0.868969
0.866636
0.864255
0.861618
0.859226
0.856335
0.853362
0.850472
0.846966
0.843798
0.839783
0.835429
0.830498
0.825982
0.821886
0.819186
0.816747
0.989081
0.98908
0.988905
0.98788
0.986876
0.986786
0.986981
0.987112
0.986952
0.986457
0.986316
0.986031
0.985205
0.985118
0.985078
0.984707
0.984042
0.983459
0.983047
0.982481
0.98143
0.981127
0.981038
0.980795
0.980013
0.979065
0.9785
0.978118
0.977483
0.97658
0.975871
0.975346
0.974721
0.973895
0.973086
0.972308
0.971274
0.970202
0.96936
0.968552
0.967454
0.966425
0.965621
0.964651
0.963466
0.962429
0.961246
0.959759
0.958514
0.957403
0.956127
0.954724
0.953252
0.951492
0.949909
0.948774
0.947467
0.945571
0.943559
0.941839
0.940187
0.938526
0.936841
0.934954
0.932929
0.93011