/*--------------------------------*- C++ -*----------------------------------*\
  =========                 |
  \\      /  F ield         | OpenFOAM: The Open Source CFD Toolbox
   \\    /   O peration     | Website:  https://openfoam.org
    \\  /    A nd           | Version:  7
     \\/     M anipulation  |
\*---------------------------------------------------------------------------*/
FoamFile
{
    version     2.0;
    format      ascii;
    class       volScalarField;
    location    "2.5";
    object      T;
}
// * * * * * * * * * * * * * * * * * * * * * * * * * * * * * * * * * * * * * //

dimensions      [0 0 0 1 0 0 0];

internalField   nonuniform List<scalar> 
90000
(
0.618201
0.712439
0.789931
0.841679
0.887347
0.925515
0.950274
0.970218
0.991924
1.00912
1.02177
1.03373
1.04658
1.05868
1.07011
1.08113
1.09312
1.10552
1.11857
1.13153
1.14539
1.15948
1.17475
1.18992
1.20525
1.2192
1.23346
1.24618
1.26061
1.27202
1.28238
1.2899
1.28984
1.28828
1.28577
1.28162
1.27702
1.2719
1.26637
1.26163
1.25655
1.25237
1.24965
1.24673
1.24375
1.23993
1.23578
1.22953
1.22255
1.2143
1.21412
1.21658
1.21902
1.22136
1.22656
1.23295
1.23774
1.24116
1.24377
1.24181
1.2351
1.22458
1.21433
1.20643
1.20157
1.19826
1.199
1.20123
1.20511
1.20828
1.20768
1.20363
1.19601
1.1881
1.18218
1.17935
1.18023
1.18249
1.18428
1.18195
1.17555
1.16893
1.16355
1.16116
1.16232
1.16207
1.15866
1.15378
1.14895
1.14544
1.14504
1.14415
1.14114
1.13789
1.13547
1.13568
1.13571
1.13429
1.13164
1.12837
0.524847
0.52455
0.524223
0.523883
0.523532
0.523182
0.52283
0.522465
0.522074
0.521666
0.521226
0.520827
0.520171
0.520477
0.522059
0.526541
0.533867
0.546306
0.562332
0.585485
0.612153
0.647461
0.685645
0.732112
0.777685
0.82915
0.877398
0.930619
0.977817
1.02898
1.07398
1.11686
1.15317
1.18316
1.20866
1.22964
1.24811
1.26351
1.27439
1.28703
1.28987
1.29506
1.29462
1.29401
1.2914
1.28777
1.28422
1.28049
1.28184
1.28612
1.29352
1.29501
1.29472
1.2961
1.29812
1.29754
1.29517
1.29111
1.28416
1.2763
1.26992
1.26695
1.26451
1.26424
1.26419
1.26268
1.26175
1.26204
1.26177
1.25911
1.25425
1.24746
1.24262
1.23731
1.23587
1.23396
1.23456
1.23415
1.23061
1.22394
1.21677
1.2116
1.20744
1.20669
1.20517
1.2009
1.19515
1.18899
1.18445
1.181
1.17921
1.17578
1.17118
1.16697
1.16345
1.16266
1.16115
1.15843
1.15463
1.15006
0.52035
0.52011
0.519864
0.519619
0.519363
0.519093
0.518807
0.518493
0.518159
0.517815
0.517473
0.517126
0.516801
0.516492
0.516177
0.515891
0.515547
0.515191
0.514843
0.51452
0.514231
0.513966
0.513734
0.513521
0.513317
0.51311
0.512918
0.512745
0.512615
0.512404
0.515053
0.530087
0.55652
0.60639
0.662784
0.736902
0.808481
0.883859
0.954661
1.01208
1.06921
1.11459
1.1565
1.1937
1.22701
1.25827
1.2856
1.30943
1.3335
1.34313
1.34941
1.34714
1.34462
1.34168
1.33781
1.33043
1.31949
1.30585
1.29163
1.28659
1.28852
1.29263
1.2977
1.30284
1.30857
1.31309
1.31256
1.30972
1.30304
1.2953
1.28834
1.28047
1.28084
1.28257
1.28756
1.28734
1.28562
1.28001
1.2726
1.26576
1.26112
1.2587
1.25671
1.25507
1.25092
1.24497
1.23834
1.233
1.22916
1.22649
1.22228
1.21645
1.21077
1.20595
1.20212
1.20113
1.19835
1.19378
1.18751
1.18142
0.515718
0.51555
0.515391
0.515258
0.515089
0.514882
0.51463
0.514373
0.514135
0.513911
0.513701
0.513511
0.513341
0.51319
0.51306
0.512941
0.512821
0.512698
0.512572
0.512464
0.512394
0.512332
0.512281
0.512231
0.512169
0.512106
0.512055
0.512015
0.511984
0.51194
0.511888
0.511831
0.511804
0.511808
0.511834
0.511852
0.511844
0.511848
0.511885
0.511896
0.519744
0.538173
0.587213
0.647805
0.732733
0.821623
0.90958
0.992487
1.05857
1.11714
1.1659
1.20315
1.23864
1.25816
1.27941
1.28574
1.29425
1.29348
1.29892
1.30435
1.31547
1.3212
1.32636
1.33103
1.33203
1.33296
1.33113
1.32389
1.31513
1.31221
1.31164
1.30996
1.31136
1.31313
1.3162
1.31602
1.31324
1.307
1.30035
1.2958
1.29587
1.29764
1.29693
1.29366
1.28847
1.2819
1.27742
1.27237
1.27197
1.27014
1.26555
1.25974
1.25465
1.25106
1.24785
1.24512
1.24085
1.23535
1.22933
1.22248
0.512472
0.512429
0.512377
0.512319
0.512249
0.512126
0.51195
0.511841
0.511775
0.51172
0.511676
0.511658
0.511647
0.511629
0.511618
0.511623
0.511624
0.511625
0.511622
0.511622
0.511631
0.511652
0.511684
0.511718
0.51174
0.511747
0.511757
0.511779
0.511789
0.51178
0.511734
0.51169
0.511675
0.511679
0.511747
0.511901
0.512056
0.512196
0.512272
0.512277
0.512239
0.512198
0.512191
0.512197
0.512205
0.512187
0.512153
0.512168
0.518742
0.560184
0.617338
0.724169
0.821172
0.926873
1.00812
1.0852
1.15905
1.22227
1.28282
1.30642
1.32367
1.32832
1.33333
1.33568
1.33489
1.33034
1.32047
1.30685
1.30866
1.31378
1.31932
1.32813
1.33363
1.3331
1.33059
1.32448
1.31674
1.31257
1.31312
1.31349
1.31615
1.31836
1.31706
1.31358
1.30808
1.30265
1.30313
1.30378
1.30256
1.29924
1.29446
1.29018
1.2886
1.2871
1.28556
1.28326
1.2795
1.27464
1.2696
1.26298
0.511478
0.511467
0.511453
0.511436
0.511411
0.51138
0.511346
0.511326
0.511321
0.51132
0.511323
0.511334
0.511356
0.511387
0.511414
0.511441
0.511478
0.511517
0.511549
0.511573
0.51159
0.511612
0.511648
0.511693
0.511725
0.511731
0.511738
0.511764
0.511799
0.511813
0.511838
0.511891
0.511939
0.512001
0.512175
0.512465
0.512608
0.512665
0.512706
0.512728
0.512714
0.512665
0.512599
0.512548
0.512509
0.512437
0.512353
0.512334
0.512354
0.512324
0.512235
0.512234
0.512286
0.512288
0.512636
0.550779
0.621836
0.764948
0.892402
1.01706
1.0944
1.15614
1.20971
1.23828
1.26817
1.27592
1.28464
1.29399
1.31562
1.32621
1.33488
1.33883
1.33846
1.33671
1.32695
1.31797
1.31409
1.31464
1.31727
1.32366
1.32867
1.32726
1.32302
1.31661
1.31462
1.31339
1.31532
1.31945
1.3181
1.31438
1.31125
1.30981
1.31129
1.3111
1.31045
1.30866
1.30654
1.30348
1.30049
1.29492
0.511788
0.511786
0.511786
0.511784
0.511783
0.511781
0.511774
0.511757
0.511743
0.511738
0.511737
0.511739
0.511755
0.511784
0.511812
0.511833
0.511855
0.511881
0.511906
0.511926
0.511928
0.511922
0.511922
0.511957
0.512023
0.512078
0.512118
0.512149
0.512169
0.512187
0.512218
0.512234
0.51225
0.512322
0.512542
0.512785
0.512826
0.512823
0.512823
0.512838
0.512845
0.512839
0.51278
0.512675
0.512588
0.512499
0.512414
0.512373
0.512304
0.512104
0.511922
0.511946
0.512099
0.51215
0.51213
0.512083
0.511997
0.511824
0.511577
0.517325
0.547586
0.657901
0.77281
0.909149
1.01425
1.10996
1.20487
1.26707
1.30682
1.31532
1.32499
1.32863
1.32767
1.32024
1.30701
1.30732
1.31011
1.31811
1.32454
1.32805
1.32772
1.32211
1.31466
1.31389
1.31499
1.32065
1.32406
1.32342
1.32033
1.31666
1.31696
1.31878
1.32125
1.32315
1.3231
1.32195
1.32088
1.31977
1.318
1.31384
0.512089
0.512093
0.512097
0.512102
0.51211
0.512114
0.512113
0.512113
0.51212
0.512134
0.512145
0.512152
0.512162
0.512176
0.512202
0.512237
0.512241
0.512233
0.512231
0.512233
0.512235
0.512231
0.512205
0.512201
0.512247
0.512317
0.512344
0.512344
0.512324
0.512321
0.512325
0.512324
0.51233
0.512401
0.51264
0.512855
0.512878
0.512876
0.512871
0.512845
0.51278
0.512705
0.512637
0.512571
0.512491
0.512407
0.512311
0.512201
0.511991
0.51163
0.511526
0.511602
0.511839
0.511865
0.511847
0.511837
0.511796
0.511629
0.511423
0.511355
0.511369
0.511447
0.511571
0.511563
0.516398
0.596649
0.727162
0.914408
1.034
1.12326
1.19549
1.23216
1.26731
1.27241
1.28959
1.3027
1.32047
1.32787
1.32776
1.327
1.31852
1.30955
1.30967
1.31199
1.31923
1.32644
1.32562
1.32066
1.31753
1.31768
1.32072
1.32601
1.32669
1.3273
1.32709
1.32733
1.32802
1.32805
1.32699
1.32434
0.512497
0.512487
0.512471
0.512451
0.512448
0.512452
0.512444
0.512445
0.512492
0.512525
0.512527
0.512526
0.512525
0.512518
0.512508
0.512499
0.512485
0.512461
0.512442
0.512429
0.512413
0.512382
0.512337
0.512332
0.512368
0.512393
0.512395
0.512387
0.512361
0.512331
0.512286
0.512266
0.512271
0.512357
0.51265
0.512729
0.512716
0.512686
0.512632
0.512547
0.512447
0.51235
0.512243
0.512117
0.51198
0.511927
0.511912
0.511843
0.511515
0.511207
0.511192
0.51128
0.511485
0.511497
0.511479
0.511513
0.511554
0.511516
0.511429
0.511403
0.511429
0.511529
0.511567
0.511521
0.511382
0.511371
0.511448
0.511408
0.519539
0.625013
0.758872
0.924345
1.05553
1.16503
1.26566
1.30188
1.32209
1.32661
1.32624
1.31763
1.29742
1.30082
1.31011
1.31962
1.32501
1.32538
1.3212
1.31428
1.31544
1.32021
1.32621
1.32849
1.32766
1.32767
1.32839
1.32952
1.33169
1.33168
1.33088
1.32876
0.512446
0.512438
0.512436
0.512432
0.512418
0.512418
0.512433
0.512513
0.512584
0.512582
0.512578
0.512556
0.51254
0.512539
0.512532
0.512512
0.512473
0.512443
0.512426
0.512413
0.512398
0.512378
0.512338
0.512283
0.512223
0.512157
0.51213
0.512133
0.512132
0.512114
0.512037
0.51197
0.511973
0.512067
0.512193
0.512181
0.512142
0.512072
0.511994
0.511962
0.511952
0.511917
0.511853
0.511747
0.511628
0.511602
0.511581
0.511454
0.511124
0.510966
0.510946
0.510976
0.511089
0.511128
0.511152
0.51126
0.511423
0.511428
0.511396
0.511381
0.511412
0.511511
0.511482
0.511305
0.510937
0.510798
0.510776
0.510521
0.509936
0.509491
0.508896
0.507716
0.530892
0.695999
0.884446
1.06075
1.16466
1.22401
1.27521
1.2804
1.29101
1.31509
1.32699
1.32992
1.32912
1.32124
1.31358
1.31406
1.32122
1.32906
1.33065
1.32945
1.32743
1.32754
1.32883
1.3323
1.33485
1.33428
1.33312
1.33112
0.512365
0.512374
0.512404
0.512431
0.512441
0.512469
0.512509
0.51251
0.512509
0.51251
0.512506
0.51247
0.512456
0.512459
0.512454
0.512446
0.512421
0.512371
0.512318
0.51229
0.512276
0.512263
0.51223
0.51213
0.511983
0.511926
0.511918
0.511921
0.51192
0.511896
0.51179
0.511642
0.511629
0.511631
0.511618
0.5116
0.511551
0.511456
0.511427
0.511483
0.511587
0.511588
0.511566
0.511486
0.511339
0.5113
0.511306
0.511241
0.511005
0.510855
0.510805
0.510804
0.510831
0.510818
0.51084
0.511006
0.511202
0.511244
0.511242
0.51125
0.511287
0.511305
0.511189
0.510685
0.509817
0.509063
0.508438
0.508075
0.507791
0.507403
0.506814
0.506148
0.505776
0.505671
0.505459
0.540231
0.652501
0.863562
1.03787
1.18036
1.28986
1.32554
1.33654
1.33528
1.32721
1.30626
1.3091
1.32186
1.33196
1.33217
1.33117
1.32791
1.32682
1.32745
1.33074
1.3338
1.33427
1.33367
1.33302
1.33141
0.512183
0.512184
0.512207
0.512293
0.512302
0.512297
0.512288
0.512267
0.512235
0.512194
0.512149
0.512105
0.512047
0.511964
0.511889
0.511834
0.511783
0.511732
0.511681
0.511631
0.51158
0.51151
0.511466
0.511457
0.511437
0.511381
0.511326
0.511313
0.511299
0.511217
0.510981
0.51078
0.510752
0.510762
0.510818
0.510902
0.510944
0.510961
0.510996
0.511144
0.51128
0.511277
0.511244
0.511163
0.511049
0.511059
0.511142
0.511142
0.51097
0.510731
0.510702
0.510768
0.510793
0.510774
0.510675
0.510709
0.510785
0.510762
0.51073
0.510646
0.510471
0.510038
0.509389
0.508658
0.50792
0.507108
0.506478
0.506155
0.505924
0.505558
0.505139
0.504792
0.50474
0.504964
0.505171
0.505122
0.504952
0.504595
0.518409
0.687364
0.929199
1.08918
1.20095
1.26193
1.28778
1.29366
1.32163
1.33993
1.33766
1.33314
1.32759
1.32374
1.3242
1.32775
1.33145
1.3318
1.33155
1.33122
1.33151
1.33058
0.511734
0.511741
0.511737
0.511731
0.511726
0.511702
0.511635
0.511527
0.511444
0.511403
0.511375
0.511348
0.511304
0.511242
0.511196
0.511145
0.511096
0.511108
0.511111
0.511103
0.511045
0.510972
0.510997
0.511059
0.511061
0.511057
0.511023
0.510936
0.510871
0.510796
0.510594
0.51031
0.510221
0.510218
0.510253
0.510375
0.510544
0.510654
0.510781
0.510896
0.510882
0.510818
0.51072
0.510598
0.510585
0.510764
0.51103
0.511
0.510715
0.510406
0.510391
0.510503
0.510618
0.510624
0.510528
0.510102
0.509402
0.50881
0.508271
0.50771
0.507104
0.506627
0.50626
0.506056
0.505868
0.505509
0.505136
0.504914
0.504766
0.504561
0.504348
0.504309
0.504405
0.505118
0.505759
0.505619
0.50503
0.504526
0.504709
0.506146
0.508203
0.55139
0.746009
0.954162
1.13522
1.25227
1.31079
1.32044
1.32246
1.31348
1.31363
1.31424
1.31887
1.32342
1.32385
1.32367
1.32413
1.32546
1.3264
1.32551
0.510794
0.510799
0.510833
0.510872
0.510875
0.510861
0.510824
0.510794
0.510788
0.510807
0.510886
0.510902
0.510892
0.510865
0.510875
0.510898
0.510918
0.510956
0.51096
0.510937
0.510853
0.510841
0.510939
0.511025
0.51103
0.511025
0.510998
0.510908
0.510804
0.510713
0.510548
0.510249
0.51007
0.510039
0.510058
0.510151
0.510311
0.510445
0.510487
0.510428
0.510205
0.509871
0.50959
0.509515
0.509577
0.509945
0.510055
0.509835
0.509142
0.508576
0.508549
0.508684
0.508767
0.508708
0.508328
0.507566
0.506879
0.506373
0.505912
0.505399
0.504941
0.504666
0.504587
0.504577
0.504536
0.504425
0.504235
0.504297
0.50432
0.504234
0.50426
0.504624
0.505127
0.505818
0.506499
0.506329
0.506619
0.507828
0.509603
0.51211
0.516152
0.517651
0.517472
0.517596
0.613927
0.88225
1.06196
1.15805
1.23826
1.25332
1.29152
1.30278
1.30797
1.30703
1.30526
1.30703
1.30996
1.31307
1.31356
1.31174
0.510796
0.510852
0.510865
0.510861
0.510846
0.510818
0.510815
0.510831
0.5109
0.510959
0.510958
0.510912
0.510879
0.510887
0.510962
0.511027
0.511025
0.511025
0.511021
0.510964
0.510848
0.510853
0.510876
0.510859
0.510793
0.510717
0.510688
0.510641
0.510448
0.510212
0.509979
0.509567
0.509138
0.508972
0.508935
0.508953
0.509086
0.509148
0.509123
0.508987
0.508507
0.507709
0.507436
0.507501
0.507634
0.507615
0.5074
0.506881
0.506444
0.506315
0.506232
0.506042
0.505762
0.505524
0.505346
0.50521
0.505098
0.504979
0.504817
0.504502
0.504113
0.503916
0.503942
0.504027
0.504019
0.503999
0.50402
0.504207
0.504998
0.505738
0.506249
0.507257
0.50831
0.507876
0.507937
0.509162
0.512091
0.516494
0.519658
0.519641
0.519944
0.522114
0.525285
0.527273
0.528683
0.530283
0.563888
0.765253
0.966832
1.12589
1.21475
1.24391
1.26708
1.28141
1.2799
1.28541
1.28665
1.28924
1.2893
1.28763
0.510535
0.510506
0.510435
0.510346
0.510252
0.510113
0.510022
0.510025
0.510036
0.510036
0.510011
0.509922
0.509754
0.509456
0.509066
0.508723
0.508505
0.508426
0.508361
0.508249
0.508057
0.507818
0.507571
0.507175
0.506638
0.506536
0.506703
0.506846
0.506808
0.506543
0.505977
0.505479
0.505429
0.50551
0.505772
0.506161
0.506293
0.506298
0.506311
0.506217
0.505722
0.505417
0.505479
0.505676
0.505629
0.505626
0.505667
0.505626
0.505577
0.50555
0.505434
0.50503
0.504326
0.503918
0.503912
0.504048
0.504239
0.504336
0.504301
0.504132
0.503814
0.5037
0.503792
0.504072
0.50442
0.504723
0.505196
0.506355
0.508383
0.510904
0.511736
0.511991
0.513396
0.515041
0.516085
0.517136
0.518594
0.521808
0.525943
0.527648
0.527385
0.528086
0.531693
0.535615
0.538479
0.540446
0.541851
0.543057
0.548846
0.724046
0.90034
1.05266
1.17445
1.21435
1.23236
1.26081
1.25737
1.25877
1.25754
1.25398
0.505933
0.505775
0.505505
0.505195
0.504993
0.504824
0.50473
0.50469
0.504669
0.504651
0.504673
0.504697
0.504683
0.50452
0.504423
0.504362
0.504165
0.50399
0.503988
0.504068
0.504316
0.504405
0.50433
0.503804
0.503448
0.50352
0.504022
0.504318
0.504285
0.504039
0.503906
0.503972
0.504259
0.504715
0.505423
0.50574
0.505672
0.505574
0.505488
0.505199
0.504712
0.504656
0.504685
0.504681
0.504535
0.504516
0.504854
0.505032
0.505037
0.505041
0.504926
0.504405
0.503525
0.503221
0.503271
0.503573
0.504033
0.504352
0.504433
0.50437
0.504394
0.504729
0.505905
0.507842
0.509927
0.511739
0.513473
0.514724
0.51567
0.517381
0.518494
0.518488
0.518769
0.52061
0.523918
0.527494
0.529499
0.529969
0.532102
0.536092
0.538051
0.538033
0.538357
0.541062
0.54597
0.548305
0.549473
0.551682
0.553353
0.555271
0.557265
0.67314
0.856426
1.02821
1.14937
1.18923
1.20463
1.22672
1.22478
1.22007
0.502145
0.502019
0.501816
0.501752
0.501752
0.501787
0.50182
0.501831
0.501921
0.502269
0.50244
0.502438
0.502424
0.502455
0.502611
0.502857
0.502951
0.502903
0.502859
0.502923
0.503352
0.503617
0.503553
0.503089
0.50278
0.502865
0.503313
0.503533
0.503476
0.503339
0.503336
0.503518
0.504318
0.505563
0.505799
0.50568
0.505402
0.505153
0.504984
0.504666
0.50435
0.50435
0.504335
0.50424
0.504024
0.504002
0.504324
0.504855
0.504937
0.504932
0.504835
0.504353
0.503573
0.503398
0.503534
0.504203
0.505665
0.507755
0.50967
0.511374
0.513091
0.514735
0.516257
0.517992
0.519976
0.521497
0.522583
0.522642
0.522542
0.522642
0.523645
0.525249
0.527134
0.529378
0.532745
0.537101
0.540592
0.541058
0.540806
0.541552
0.543869
0.546578
0.548386
0.550629
0.554218
0.556684
0.557245
0.558741
0.562194
0.564148
0.566528
0.567824
0.568512
0.660918
0.842821
0.996753
1.11588
1.16105
1.17603
1.19109
0.504985
0.504895
0.50481
0.504738
0.504683
0.504616
0.504393
0.50372
0.503327
0.503344
0.503448
0.503598
0.503694
0.503815
0.504099
0.504562
0.504933
0.504984
0.504941
0.504959
0.505368
0.505941
0.505942
0.505464
0.505051
0.505099
0.505209
0.505158
0.504835
0.50441
0.504339
0.504516
0.505267
0.506268
0.506484
0.506437
0.506232
0.505554
0.505133
0.505143
0.505367
0.506172
0.506422
0.505756
0.504545
0.504423
0.504781
0.505785
0.506893
0.507797
0.508894
0.510079
0.510984
0.511912
0.513293
0.515588
0.518841
0.521713
0.523706
0.524976
0.525796
0.526343
0.526247
0.526106
0.526443
0.527099
0.52714
0.527142
0.527731
0.529594
0.533108
0.53767
0.541621
0.544399
0.545653
0.54633
0.547363
0.548043
0.548201
0.548623
0.550937
0.555543
0.559537
0.561116
0.561504
0.56251
0.563959
0.566411
0.570316
0.572063
0.572079
0.57332
0.57596
0.579015
0.580249
0.641441
0.83028
0.985481
1.09413
1.14485
0.507975
0.508129
0.508262
0.508373
0.508466
0.508518
0.508469
0.507812
0.50614
0.505579
0.505541
0.505527
0.505546
0.505627
0.505629
0.505617
0.505713
0.505752
0.505753
0.50579
0.506253
0.506806
0.506821
0.506423
0.506188
0.506196
0.506402
0.506416
0.505939
0.505151
0.504947
0.505114
0.505827
0.506901
0.507545
0.507766
0.507784
0.507515
0.507273
0.507522
0.508816
0.511296
0.514173
0.516328
0.517574
0.518341
0.519343
0.520889
0.522847
0.524914
0.526285
0.527205
0.528053
0.528862
0.529639
0.530115
0.5305
0.53077
0.530903
0.53105
0.531247
0.531306
0.530854
0.530552
0.531137
0.533307
0.536512
0.540245
0.543736
0.547047
0.550122
0.552359
0.553085
0.55364
0.553551
0.552877
0.552839
0.55371
0.556279
0.55979
0.563305
0.565591
0.567846
0.568302
0.568462
0.569619
0.572744
0.575258
0.57788
0.579425
0.579636
0.580571
0.582723
0.585783
0.589542
0.58959
0.589859
0.654744
0.805195
1.03501
0.511554
0.511797
0.512088
0.512491
0.512937
0.513553
0.513899
0.513777
0.512485
0.511387
0.51137
0.51145
0.511448
0.511521
0.511742
0.512444
0.513046
0.513074
0.513298
0.514913
0.516673
0.516827
0.51671
0.516693
0.516915
0.518028
0.519846
0.521705
0.523452
0.524149
0.524122
0.524042
0.524125
0.524657
0.525751
0.526763
0.527157
0.52737
0.527791
0.528799
0.530382
0.531796
0.532775
0.533444
0.533759
0.533858
0.533917
0.534039
0.534593
0.535798
0.53618
0.53616
0.536196
0.536308
0.53638
0.536123
0.535352
0.535184
0.535559
0.536633
0.538571
0.541259
0.544292
0.547744
0.55068
0.553176
0.555727
0.55809
0.55937
0.559426
0.559399
0.559339
0.559066
0.55853
0.558719
0.559929
0.562826
0.566695
0.570213
0.573085
0.57469
0.574381
0.574493
0.575307
0.576968
0.579883
0.58285
0.583321
0.583818
0.585442
0.587939
0.591355
0.593218
0.593438
0.595088
0.597203
0.598673
0.600252
0.601003
0.740691
0.527393
0.527393
0.52754
0.527992
0.528693
0.52995
0.531536
0.531979
0.531935
0.531214
0.530416
0.530385
0.530551
0.53109
0.531971
0.532894
0.533548
0.53385
0.534109
0.534736
0.535179
0.535199
0.535158
0.535263
0.536185
0.536835
0.53684
0.536913
0.537248
0.53728
0.536913
0.53679
0.536856
0.537257
0.538107
0.539092
0.539391
0.539333
0.539233
0.539241
0.539547
0.540038
0.540205
0.540205
0.539904
0.539657
0.5397
0.539947
0.540777
0.541705
0.541909
0.542236
0.543222
0.545194
0.547629
0.549781
0.551748
0.553737
0.555918
0.558191
0.56005
0.561617
0.563202
0.564728
0.565665
0.56563
0.565327
0.565234
0.565203
0.564728
0.56383
0.564015
0.565127
0.567726
0.571283
0.575079
0.57836
0.580184
0.58153
0.581696
0.581327
0.58072
0.581686
0.583702
0.587093
0.58992
0.591852
0.592837
0.593093
0.594045
0.596181
0.599511
0.602107
0.602048
0.601746
0.602931
0.605338
0.608713
0.609594
0.610523
0.542978
0.543088
0.543323
0.5436
0.543659
0.543589
0.543123
0.54284
0.543
0.543658
0.543891
0.543962
0.544169
0.544519
0.545163
0.546254
0.546644
0.54636
0.545615
0.545354
0.545195
0.544775
0.544096
0.544038
0.544894
0.545942
0.546212
0.546438
0.547354
0.548966
0.549311
0.549366
0.549439
0.549775
0.550726
0.55162
0.551791
0.551591
0.550867
0.550723
0.551163
0.552658
0.554816
0.556486
0.55753
0.558484
0.559634
0.560758
0.561625
0.562354
0.563172
0.564311
0.565718
0.567132
0.568328
0.569179
0.569856
0.570459
0.57081
0.571156
0.571435
0.571301
0.571152
0.570941
0.57095
0.570861
0.570317
0.570461
0.57144
0.573484
0.576394
0.579788
0.582954
0.585235
0.586787
0.588386
0.588543
0.58791
0.587492
0.587379
0.587977
0.590204
0.593535
0.596804
0.599159
0.599649
0.599956
0.600844
0.601852
0.603089
0.604607
0.605639
0.607901
0.610048
0.61036
0.610874
0.612724
0.616349
0.618037
0.618955
0.56116
0.561617
0.561639
0.561238
0.560648
0.560629
0.560713
0.561102
0.561738
0.562451
0.562938
0.562958
0.56275
0.562703
0.563589
0.564617
0.564515
0.563559
0.563156
0.563346
0.563712
0.563602
0.563309
0.563353
0.564217
0.565188
0.565576
0.566066
0.56667
0.566764
0.566598
0.566217
0.566128
0.566176
0.566522
0.567389
0.568519
0.569354
0.569865
0.570653
0.571905
0.572703
0.573195
0.573339
0.573295
0.573184
0.573224
0.573456
0.573905
0.574477
0.575168
0.575561
0.575645
0.575668
0.575675
0.575628
0.575679
0.576081
0.576375
0.5768
0.577952
0.578653
0.579022
0.579727
0.581165
0.583428
0.586388
0.589283
0.59138
0.592886
0.593998
0.594899
0.595852
0.595927
0.595663
0.595305
0.594683
0.594686
0.59575
0.598223
0.601626
0.604787
0.606199
0.607629
0.607326
0.606988
0.606999
0.607796
0.609842
0.61311
0.615448
0.616039
0.616212
0.617408
0.619135
0.621116
0.622688
0.623615
0.625148
0.627253
0.575123
0.574917
0.574889
0.574962
0.575199
0.575517
0.57574
0.57583
0.575865
0.575952
0.576196
0.576356
0.576494
0.576562
0.576527
0.576423
0.576495
0.57712
0.578416
0.579196
0.579347
0.579336
0.579336
0.579392
0.579186
0.578897
0.578977
0.579506
0.579568
0.579458
0.579561
0.579941
0.580295
0.580337
0.580332
0.580555
0.580876
0.581141
0.581755
0.582309
0.58223
0.58195
0.581945
0.582426
0.583144
0.583688
0.584259
0.584977
0.585681
0.586431
0.587616
0.588635
0.589008
0.589315
0.589845
0.590847
0.592209
0.593491
0.594792
0.596197
0.597625
0.599203
0.600774
0.601662
0.601949
0.602007
0.602141
0.602761
0.603359
0.603339
0.60299
0.602332
0.601938
0.602205
0.602764
0.603947
0.606043
0.609169
0.611897
0.613916
0.615163
0.615275
0.614852
0.614317
0.614217
0.615131
0.61726
0.620111
0.622357
0.624344
0.625147
0.625191
0.625028
0.625552
0.627135
0.629912
0.631732
0.631802
0.632255
0.634464
0.591366
0.591366
0.591366
0.591502
0.591709
0.591668
0.591301
0.591221
0.591256
0.591553
0.592372
0.592619
0.592512
0.592402
0.592383
0.592566
0.593176
0.593952
0.594339
0.594363
0.594366
0.594434
0.59458
0.594746
0.594996
0.595491
0.595989
0.596366
0.596852
0.597656
0.597991
0.598151
0.598551
0.598945
0.599167
0.599199
0.599145
0.599314
0.599806
0.600367
0.600994
0.601583
0.602198
0.603096
0.603404
0.603449
0.603691
0.604023
0.604261
0.604547
0.605061
0.605837
0.606681
0.607446
0.607995
0.608321
0.608589
0.608721
0.608677
0.608487
0.608294
0.608348
0.60871
0.609073
0.609135
0.608808
0.608173
0.607999
0.608405
0.609353
0.61071
0.612262
0.614302
0.616679
0.619202
0.621467
0.622994
0.624397
0.624481
0.624186
0.62368
0.623103
0.623242
0.624265
0.626441
0.629
0.63149
0.632833
0.63348
0.633033
0.632652
0.632875
0.634145
0.63629
0.638522
0.640214
0.640086
0.640356
0.641055
0.642677
0.610409
0.610408
0.610437
0.610515
0.610643
0.61083
0.611026
0.611248
0.61131
0.6113
0.611318
0.611473
0.611668
0.611686
0.611697
0.611828
0.612015
0.612174
0.612406
0.612591
0.612736
0.612959
0.61304
0.613023
0.613018
0.613101
0.613192
0.613083
0.612806
0.612671
0.612621
0.612698
0.613117
0.61361
0.61384
0.614054
0.614529
0.615497
0.616088
0.61636
0.616689
0.616916
0.616867
0.61666
0.616554
0.616275
0.61614
0.616207
0.616475
0.616785
0.616782
0.616691
0.616703
0.616993
0.617216
0.617308
0.617523
0.618122
0.618834
0.619327
0.619755
0.620042
0.620556
0.621771
0.623478
0.625392
0.627185
0.628716
0.630107
0.631506
0.632681
0.633389
0.634126
0.634646
0.63473
0.634539
0.634155
0.633679
0.633029
0.632566
0.633164
0.634529
0.63695
0.639269
0.641361
0.641975
0.64236
0.641915
0.6415
0.641108
0.641947
0.643409
0.645792
0.647316
0.64875
0.648499
0.648191
0.648393
0.649275
0.651187
0.627908
0.627986
0.627996
0.627994
0.628128
0.628457
0.62846
0.628065
0.627742
0.627748
0.628031
0.62823
0.628172
0.628072
0.628065
0.628117
0.628249
0.628274
0.628372
0.628713
0.629002
0.629271
0.62959
0.629654
0.629667
0.629831
0.630148
0.630387
0.630556
0.630638
0.630737
0.631003
0.631269
0.631304
0.631237
0.630947
0.630704
0.630698
0.630653
0.630436
0.630391
0.630496
0.630857
0.631596
0.632585
0.633338
0.633868
0.634438
0.635006
0.635191
0.635216
0.635296
0.635589
0.636142
0.636826
0.63755
0.638239
0.638844
0.639504
0.640238
0.640981
0.641648
0.642263
0.642731
0.642954
0.64296
0.642923
0.643105
0.643146
0.642998
0.642466
0.641838
0.641253
0.640699
0.640259
0.640047
0.640505
0.641625
0.643436
0.646001
0.648532
0.650445
0.651977
0.652504
0.652397
0.651856
0.651279
0.650842
0.65131
0.652657
0.654695
0.656493
0.657952
0.658017
0.657575
0.657421
0.657882
0.658924
0.660277
0.661577
0.646731
0.646784
0.646816
0.646874
0.646919
0.646939
0.647022
0.647103
0.647126
0.647241
0.647496
0.647517
0.647361
0.647275
0.647309
0.647524
0.647537
0.647515
0.64756
0.647659
0.64768
0.647777
0.648037
0.648135
0.648252
0.648376
0.648384
0.648319
0.648253
0.64825
0.648291
0.648523
0.648738
0.64887
0.649052
0.649384
0.649845
0.650184
0.650408
0.650783
0.651201
0.651383
0.651521
0.651721
0.651746
0.651639
0.651592
0.651649
0.651838
0.652157
0.652577
0.653052
0.653427
0.65368
0.654045
0.654292
0.654272
0.654061
0.653767
0.653529
0.65341
0.653523
0.653828
0.653841
0.653643
0.65309
0.65287
0.652963
0.653233
0.653573
0.654202
0.655348
0.656896
0.658667
0.660263
0.661925
0.663333
0.664557
0.665153
0.665595
0.6654
0.665101
0.664557
0.663894
0.663244
0.662522
0.662762
0.6637
0.665246
0.666922
0.667772
0.668298
0.667994
0.667454
0.666849
0.667178
0.667812
0.668911
0.66974
0.670534
0.667351
0.667371
0.667415
0.6675
0.667588
0.667665
0.667709
0.667747
0.667765
0.667741
0.667642
0.667596
0.667632
0.667873
0.668082
0.668068
0.667886
0.667819
0.667829
0.667951
0.667973
0.668011
0.668338
0.668543
0.668508
0.668503
0.668626
0.668743
0.668867
0.669018
0.669062
0.669094
0.669157
0.669166
0.669169
0.669259
0.669366
0.669359
0.669297
0.669281
0.669369
0.669517
0.669612
0.66969
0.669818
0.670092
0.670354
0.670405
0.670391
0.670335
0.670275
0.670268
0.670225
0.670094
0.670071
0.670159
0.6704
0.670733
0.671054
0.671363
0.671527
0.671612
0.671753
0.672004
0.672416
0.67307
0.673745
0.674273
0.674711
0.675183
0.675634
0.676064
0.676313
0.676468
0.676368
0.676151
0.675632
0.674934
0.673956
0.672839
0.67159
0.670641
0.669999
0.670411
0.671513
0.673447
0.675498
0.677499
0.678452
0.678933
0.678596
0.677896
0.677189
0.676762
0.677255
0.678323
0.679494
0.680299
0.680528
0.680339
0.688698
0.688458
0.688428
0.688576
0.688673
0.688614
0.688523
0.688544
0.68871
0.688752
0.688573
0.688319
0.688338
0.688374
0.688387
0.688485
0.688643
0.688649
0.688424
0.688219
0.688239
0.688382
0.688423
0.688332
0.688277
0.6883
0.688293
0.688267
0.688296
0.688318
0.688331
0.688283
0.688195
0.688192
0.688233
0.68825
0.688227
0.68818
0.688165
0.688165
0.688172
0.6882
0.688195
0.688088
0.68803
0.688028
0.688004
0.687997
0.688013
0.68804
0.688068
0.688111
0.688189
0.688304
0.688366
0.688381
0.688403
0.688449
0.688519
0.688625
0.688778
0.688967
0.689212
0.689291
0.689245
0.689119
0.688941
0.688846
0.688705
0.68849
0.688131
0.687695
0.687191
0.686642
0.686141
0.685625
0.685648
0.685873
0.686501
0.687498
0.688874
0.690313
0.691742
0.69294
0.693594
0.693853
0.693598
0.693101
0.692267
0.69125
0.690218
0.689102
0.689148
0.689921
0.690975
0.691832
0.692135
0.691777
0.691155
0.690016
0.71126
0.711171
0.711094
0.711008
0.710914
0.710846
0.710853
0.710914
0.710983
0.711164
0.711406
0.71142
0.711128
0.710762
0.710751
0.710685
0.710664
0.710845
0.71092
0.710871
0.710635
0.710527
0.710536
0.710617
0.710684
0.710635
0.710345
0.710225
0.710272
0.710482
0.710564
0.710515
0.710351
0.710309
0.710281
0.710193
0.710138
0.710136
0.710138
0.710127
0.710113
0.710134
0.710165
0.710159
0.71012
0.710072
0.710014
0.709919
0.709881
0.709852
0.70979
0.709677
0.70958
0.709562
0.709564
0.70954
0.709455
0.709308
0.709165
0.709052
0.708946
0.708778
0.708575
0.708442
0.708339
0.708195
0.707998
0.707771
0.707619
0.707446
0.707381
0.707433
0.707534
0.707625
0.707729
0.707929
0.708105
0.708241
0.708174
0.70804
0.707706
0.707214
0.706421
0.705354
0.703948
0.702348
0.700471
0.69914
0.697764
0.698143
0.699249
0.701151
0.702759
0.704283
0.704074
0.703555
0.702317
0.701267
0.699922
0.700402
0.735149
0.735061
0.73503
0.735035
0.735122
0.735118
0.734751
0.734471
0.734487
0.734807
0.73493
0.734781
0.73451
0.7345
0.734592
0.734565
0.734318
0.734226
0.734236
0.734158
0.734019
0.733935
0.73383
0.733811
0.733804
0.733664
0.733325
0.733222
0.733254
0.733289
0.733278
0.733125
0.732802
0.732674
0.732613
0.7325
0.732286
0.732115
0.732049
0.731974
0.731757
0.731599
0.731526
0.731448
0.731282
0.731022
0.730748
0.73047
0.730214
0.729983
0.729763
0.729553
0.729327
0.729079
0.728807
0.728528
0.728301
0.728098
0.727864
0.727563
0.727196
0.726849
0.726499
0.726215
0.725941
0.725658
0.725374
0.725133
0.724898
0.724679
0.724396
0.724108
0.72382
0.723525
0.72317
0.722742
0.722192
0.721532
0.720873
0.720101
0.71938
0.71873
0.718198
0.717818
0.717977
0.718424
0.719194
0.720062
0.720819
0.721249
0.72103
0.720404
0.719406
0.717966
0.716351
0.714626
0.713228
0.712874
0.713371
0.713903
0.760987
0.760898
0.76079
0.760787
0.760901
0.760889
0.760448
0.760168
0.760167
0.760112
0.760004
0.759995
0.759968
0.759859
0.759845
0.759853
0.759774
0.759532
0.75927
0.75911
0.759072
0.759046
0.758938
0.75875
0.758576
0.758431
0.758334
0.758202
0.757885
0.757635
0.757592
0.757549
0.757405
0.757108
0.75682
0.7566
0.756416
0.756258
0.7561
0.755916
0.755689
0.755396
0.755105
0.754866
0.754658
0.754407
0.754115
0.753777
0.75345
0.753158
0.752866
0.752568
0.752251
0.751912
0.751596
0.751287
0.750952
0.750627
0.750293
0.749926
0.749507