/*--------------------------------*- C++ -*----------------------------------*\
  =========                 |
  \\      /  F ield         | OpenFOAM: The Open Source CFD Toolbox
   \\    /   O peration     | Website:  https://openfoam.org
    \\  /    A nd           | Version:  7
     \\/     M anipulation  |
\*---------------------------------------------------------------------------*/
FoamFile
{
    version     2.0;
    format      ascii;
    class       volVectorField;
    location    "8";
    object      U;
}
// * * * * * * * * * * * * * * * * * * * * * * * * * * * * * * * * * * * * * //

dimensions      [0 1 -1 0 0 0 0];

internalField   nonuniform List<vector> 
90000
(
(0.843102 -0.684975 0)
(0.906543 -0.405737 0)
(1.01723 -0.209231 0)
(1.14624 -0.0717011 0)
(1.23001 0.0451331 0)
(1.32228 0.149554 0)
(1.41616 0.237768 0)
(1.49879 0.318685 0)
(1.58465 0.366439 0)
(1.67293 0.426355 0)
(1.76967 0.455576 0)
(1.86334 0.487555 0)
(1.95216 0.500895 0)
(2.03652 0.518121 0)
(2.11636 0.518856 0)
(2.18917 0.527471 0)
(2.25854 0.526947 0)
(2.32018 0.528602 0)
(2.37842 0.527896 0)
(2.43039 0.527927 0)
(2.47605 0.522284 0)
(2.51732 0.521313 0)
(2.55454 0.515247 0)
(2.58873 0.513798 0)
(2.62132 0.505551 0)
(2.65105 0.503777 0)
(2.67832 0.496806 0)
(2.70355 0.492734 0)
(2.72766 0.486838 0)
(2.75112 0.479909 0)
(2.77297 0.472654 0)
(2.79339 0.464548 0)
(2.811 0.454572 0)
(2.82346 0.441854 0)
(2.83192 0.436824 0)
(2.83838 0.42739 0)
(2.84279 0.425088 0)
(2.84669 0.426429 0)
(2.85144 0.426645 0)
(2.85551 0.430201 0)
(2.8597 0.431989 0)
(2.86179 0.43575 0)
(2.86298 0.438718 0)
(2.86263 0.443482 0)
(2.8626 0.446607 0)
(2.8606 0.451753 0)
(2.8596 0.456538 0)
(2.85819 0.461824 0)
(2.85732 0.466368 0)
(2.85614 0.470336 0)
(2.85525 0.471538 0)
(2.85517 0.476625 0)
(2.85549 0.477783 0)
(2.85354 0.477079 0)
(2.85165 0.471972 0)
(2.85039 0.464146 0)
(2.84929 0.454583 0)
(2.84898 0.448008 0)
(2.84893 0.441709 0)
(2.8508 0.434154 0)
(2.85013 0.427081 0)
(2.8515 0.422201 0)
(2.85178 0.421647 0)
(2.85319 0.422056 0)
(2.85566 0.422566 0)
(2.8562 0.422745 0)
(2.85799 0.421279 0)
(2.85852 0.41767 0)
(2.8582 0.411543 0)
(2.85713 0.402738 0)
(2.85558 0.389688 0)
(2.85307 0.380689 0)
(2.85217 0.377961 0)
(2.85073 0.374848 0)
(2.85011 0.370816 0)
(2.84832 0.369192 0)
(2.84589 0.360113 0)
(2.84356 0.347203 0)
(2.84072 0.331909 0)
(2.83717 0.316444 0)
(2.83684 0.312507 0)
(2.83424 0.299617 0)
(2.83257 0.292587 0)
(2.82888 0.275025 0)
(2.82658 0.261594 0)
(2.82607 0.255596 0)
(2.82399 0.24498 0)
(2.82158 0.237963 0)
(2.81939 0.2259 0)
(2.81747 0.214221 0)
(2.81465 0.203983 0)
(2.81382 0.200254 0)
(2.81377 0.189105 0)
(2.81498 0.179114 0)
(2.81512 0.176009 0)
(2.81366 0.168313 0)
(2.81184 0.159204 0)
(2.81196 0.154807 0)
(2.81188 0.150221 0)
(2.81377 0.142076 0)
(0.360088 -0.614281 0)
(0.329585 -0.55348 0)
(0.335447 -0.528312 0)
(0.349149 -0.453513 0)
(0.338187 -0.336328 0)
(0.349739 -0.229057 0)
(0.378321 -0.135785 0)
(0.436127 -0.0613971 0)
(0.507357 0.00406288 0)
(0.592679 0.0658855 0)
(0.679728 0.136903 0)
(0.770534 0.206653 0)
(0.870383 0.263708 0)
(0.979386 0.301988 0)
(1.09112 0.332959 0)
(1.20216 0.355314 0)
(1.3103 0.365869 0)
(1.41256 0.374481 0)
(1.51067 0.372398 0)
(1.6017 0.376911 0)
(1.68793 0.374451 0)
(1.76762 0.380562 0)
(1.84341 0.383336 0)
(1.91479 0.391532 0)
(1.98261 0.398272 0)
(2.04693 0.408052 0)
(2.10934 0.415356 0)
(2.16999 0.424992 0)
(2.22989 0.433162 0)
(2.28872 0.442309 0)
(2.34593 0.451396 0)
(2.40199 0.459844 0)
(2.45505 0.467753 0)
(2.51034 0.475168 0)
(2.56601 0.48002 0)
(2.6158 0.483335 0)
(2.65626 0.486105 0)
(2.68973 0.491551 0)
(2.7182 0.496493 0)
(2.74233 0.503634 0)
(2.76363 0.508885 0)
(2.78226 0.514941 0)
(2.79836 0.51931 0)
(2.81082 0.524268 0)
(2.82109 0.526568 0)
(2.82783 0.528836 0)
(2.83227 0.527855 0)
(2.83405 0.527273 0)
(2.83403 0.523186 0)
(2.83315 0.518143 0)
(2.8318 0.506579 0)
(2.83041 0.489962 0)
(2.82928 0.472816 0)
(2.83227 0.460496 0)
(2.83384 0.448683 0)
(2.83504 0.439121 0)
(2.83581 0.431438 0)
(2.83641 0.425958 0)
(2.83689 0.424424 0)
(2.83795 0.421364 0)
(2.8391 0.420493 0)
(2.84105 0.420381 0)
(2.84481 0.420734 0)
(2.85026 0.423393 0)
(2.85126 0.423296 0)
(2.85225 0.42157 0)
(2.85291 0.41627 0)
(2.85329 0.406919 0)
(2.85347 0.395762 0)
(2.85309 0.387317 0)
(2.85454 0.383573 0)
(2.85183 0.377797 0)
(2.85121 0.376393 0)
(2.85024 0.373723 0)
(2.84984 0.369846 0)
(2.84817 0.363067 0)
(2.8451 0.349539 0)
(2.84155 0.33343 0)
(2.84053 0.323677 0)
(2.83756 0.310686 0)
(2.83526 0.306172 0)
(2.83294 0.293851 0)
(2.83009 0.281633 0)
(2.8256 0.263551 0)
(2.82487 0.259515 0)
(2.82389 0.250149 0)
(2.82264 0.242413 0)
(2.81801 0.229595 0)
(2.81585 0.218612 0)
(2.81474 0.208287 0)
(2.8134 0.201257 0)
(2.81204 0.196386 0)
(2.81207 0.184477 0)
(2.81304 0.178346 0)
(2.81351 0.175942 0)
(2.81134 0.166433 0)
(2.80993 0.157824 0)
(2.81028 0.154692 0)
(2.80967 0.149031 0)
(2.81142 0.140592 0)
(2.25998 -1.50737 0)
(1.13519 -1.38375 0)
(0.598271 -0.881377 0)
(0.544121 -0.57659 0)
(0.441854 -0.347432 0)
(0.390326 -0.346056 0)
(0.411859 -0.36041 0)
(0.44812 -0.331778 0)
(0.451558 -0.263192 0)
(0.443154 -0.196149 0)
(0.452501 -0.140138 0)
(0.472241 -0.0929512 0)
(0.497265 -0.0463145 0)
(0.532466 -0.00249718 0)
(0.573137 0.0441106 0)
(0.619688 0.094757 0)
(0.666938 0.146841 0)
(0.725928 0.181285 0)
(0.789952 0.20567 0)
(0.858688 0.217623 0)
(0.928106 0.224656 0)
(0.997656 0.225694 0)
(1.06732 0.221647 0)
(1.13667 0.21855 0)
(1.20543 0.215578 0)
(1.27384 0.21687 0)
(1.34315 0.219762 0)
(1.41335 0.227891 0)
(1.48672 0.237022 0)
(1.56252 0.251697 0)
(1.6412 0.270464 0)
(1.72039 0.296529 0)
(1.80053 0.324417 0)
(1.88445 0.353048 0)
(1.97281 0.373975 0)
(2.0624 0.392899 0)
(2.14885 0.40321 0)
(2.23027 0.412324 0)
(2.30513 0.417767 0)
(2.3737 0.421132 0)
(2.43694 0.418995 0)
(2.49518 0.416253 0)
(2.5486 0.410526 0)
(2.5971 0.406569 0)
(2.64087 0.402337 0)
(2.67957 0.399454 0)
(2.71331 0.395184 0)
(2.742 0.39351 0)
(2.76571 0.391961 0)
(2.78491 0.391418 0)
(2.80005 0.389661 0)
(2.81006 0.386409 0)
(2.81519 0.38297 0)
(2.81906 0.382964 0)
(2.82251 0.384521 0)
(2.82542 0.38864 0)
(2.82821 0.392148 0)
(2.82969 0.3973 0)
(2.83082 0.40269 0)
(2.83292 0.41009 0)
(2.83351 0.415856 0)
(2.83371 0.420546 0)
(2.83657 0.424796 0)
(2.83971 0.425752 0)
(2.83873 0.420262 0)
(2.8384 0.412542 0)
(2.83921 0.403017 0)
(2.84162 0.395079 0)
(2.84424 0.38652 0)
(2.84504 0.377305 0)
(2.84595 0.377396 0)
(2.84618 0.376359 0)
(2.84685 0.375573 0)
(2.84715 0.371336 0)
(2.84669 0.363233 0)
(2.84535 0.351066 0)
(2.84143 0.329831 0)
(2.84014 0.320507 0)
(2.8368 0.309107 0)
(2.83693 0.305222 0)
(2.835 0.300051 0)
(2.83173 0.285666 0)
(2.8287 0.273854 0)
(2.82505 0.257543 0)
(2.82463 0.256036 0)
(2.82188 0.245789 0)
(2.82016 0.236636 0)
(2.8162 0.222722 0)
(2.81527 0.214682 0)
(2.81342 0.203801 0)
(2.81289 0.199172 0)
(2.81073 0.191832 0)
(2.81053 0.180906 0)
(2.81135 0.177589 0)
(2.81224 0.175344 0)
(2.80871 0.165838 0)
(2.80738 0.158694 0)
(2.80784 0.1545 0)
(2.80728 0.147164 0)
(2.80847 0.137614 0)
(2.61977 -1.87427 0)
(2.61981 -1.8739 0)
(2.57923 -1.84419 0)
(2.37985 -1.75402 0)
(2.20553 -1.50246 0)
(1.40381 -1.28029 0)
(0.781382 -0.794611 0)
(0.683604 -0.502704 0)
(0.585067 -0.251279 0)
(0.522724 -0.190307 0)
(0.519014 -0.216499 0)
(0.560163 -0.211825 0)
(0.576757 -0.170761 0)
(0.57927 -0.117298 0)
(0.573393 -0.0809387 0)
(0.586153 -0.0575986 0)
(0.60724 -0.0416347 0)
(0.624872 -0.0223052 0)
(0.642218 -0.000789103 0)
(0.656701 0.026398 0)
(0.676997 0.0558934 0)
(0.700082 0.0830021 0)
(0.728013 0.104563 0)
(0.758763 0.123384 0)
(0.790796 0.141106 0)
(0.823973 0.156333 0)
(0.858213 0.170759 0)
(0.895101 0.182872 0)
(0.935529 0.195024 0)
(0.982348 0.202858 0)
(1.03577 0.202761 0)
(1.09366 0.199279 0)
(1.15509 0.198065 0)
(1.22147 0.204192 0)
(1.29493 0.213729 0)
(1.37535 0.227485 0)
(1.4614 0.240071 0)
(1.55212 0.253587 0)
(1.64507 0.26727 0)
(1.73587 0.290976 0)
(1.82533 0.317046 0)
(1.91601 0.34 0)
(2.00697 0.358448 0)
(2.09683 0.374242 0)
(2.18454 0.387576 0)
(2.2677 0.401236 0)
(2.34589 0.411285 0)
(2.41937 0.417177 0)
(2.487 0.423276 0)
(2.54844 0.42983 0)
(2.60312 0.439503 0)
(2.65097 0.448476 0)
(2.69087 0.455972 0)
(2.7224 0.460278 0)
(2.74666 0.465721 0)
(2.76523 0.468815 0)
(2.77954 0.472002 0)
(2.78977 0.471491 0)
(2.79656 0.470554 0)
(2.80121 0.466495 0)
(2.80427 0.460136 0)
(2.80511 0.447366 0)
(2.80602 0.431787 0)
(2.80939 0.414297 0)
(2.81748 0.400252 0)
(2.82123 0.388569 0)
(2.8232 0.379405 0)
(2.8253 0.375646 0)
(2.82747 0.37386 0)
(2.83198 0.372161 0)
(2.8388 0.37384 0)
(2.84143 0.375623 0)
(2.84052 0.373286 0)
(2.83857 0.36308 0)
(2.83758 0.347827 0)
(2.83653 0.334889 0)
(2.83619 0.320247 0)
(2.83628 0.315751 0)
(2.83557 0.304638 0)
(2.83577 0.301689 0)
(2.83286 0.291737 0)
(2.82952 0.275415 0)
(2.82496 0.263041 0)
(2.82429 0.253912 0)
(2.82327 0.252472 0)
(2.82118 0.240819 0)
(2.81848 0.230111 0)
(2.81357 0.214464 0)
(2.81403 0.210377 0)
(2.81279 0.200845 0)
(2.81187 0.196764 0)
(2.80852 0.187404 0)
(2.80873 0.17851 0)
(2.80999 0.176833 0)
(2.8102 0.174952 0)
(2.80711 0.165466 0)
(2.80576 0.159261 0)
(2.8058 0.151657 0)
(2.80535 0.143493 0)
(2.8061 0.133191 0)
(2.61988 -1.87385 0)
(2.61997 -1.87446 0)
(2.62035 -1.87452 0)
(2.62076 -1.87467 0)
(2.62136 -1.87481 0)
(2.62173 -1.87525 0)
(2.58732 -1.84639 0)
(2.41208 -1.75647 0)
(2.1394 -1.44678 0)
(1.63696 -1.17464 0)
(0.967807 -0.704353 0)
(0.846404 -0.430577 0)
(0.751476 -0.193792 0)
(0.675791 -0.087773 0)
(0.654472 -0.100296 0)
(0.674071 -0.115753 0)
(0.699209 -0.103033 0)
(0.700007 -0.0772197 0)
(0.699583 -0.0509051 0)
(0.701433 -0.0322389 0)
(0.718651 -0.0248873 0)
(0.730844 -0.0102891 0)
(0.740613 0.00667103 0)
(0.748216 0.0224256 0)
(0.758195 0.0367042 0)
(0.767973 0.0497285 0)
(0.779811 0.0592396 0)
(0.792499 0.0675679 0)
(0.806408 0.0739205 0)
(0.818574 0.087268 0)
(0.830751 0.106612 0)
(0.849415 0.124368 0)
(0.872663 0.139004 0)
(0.898387 0.153585 0)
(0.928467 0.165645 0)
(0.961718 0.180421 0)
(1.00109 0.192185 0)
(1.04629 0.207014 0)
(1.10231 0.208693 0)
(1.16529 0.200282 0)
(1.23055 0.196952 0)
(1.30097 0.202761 0)
(1.37932 0.210747 0)
(1.46418 0.222062 0)
(1.55589 0.232692 0)
(1.65195 0.243748 0)
(1.74605 0.267311 0)
(1.84146 0.294353 0)
(1.94001 0.315231 0)
(2.04009 0.332292 0)
(2.13987 0.344794 0)
(2.23481 0.360558 0)
(2.32686 0.365048 0)
(2.41226 0.365533 0)
(2.48922 0.360109 0)
(2.55538 0.35892 0)
(2.61176 0.356908 0)
(2.65902 0.354296 0)
(2.69803 0.352875 0)
(2.72936 0.351432 0)
(2.75427 0.350604 0)
(2.77273 0.34743 0)
(2.78491 0.344486 0)
(2.78987 0.341269 0)
(2.79749 0.341526 0)
(2.80463 0.347123 0)
(2.81048 0.350113 0)
(2.81469 0.359329 0)
(2.81784 0.36921 0)
(2.82149 0.375604 0)
(2.82574 0.378871 0)
(2.82582 0.376706 0)
(2.82454 0.362349 0)
(2.82348 0.345658 0)
(2.82429 0.333186 0)
(2.82443 0.318661 0)
(2.826 0.312298 0)
(2.82759 0.308495 0)
(2.8299 0.299623 0)
(2.83121 0.296154 0)
(2.82731 0.279188 0)
(2.82534 0.268984 0)
(2.82138 0.255514 0)
(2.82247 0.252296 0)
(2.82139 0.24801 0)
(2.81843 0.233469 0)
(2.81487 0.223202 0)
(2.81214 0.210189 0)
(2.81297 0.207482 0)
(2.81209 0.199288 0)
(2.81076 0.193801 0)
(2.8076 0.182879 0)
(2.80861 0.175728 0)
(2.80996 0.174773 0)
(2.80868 0.170851 0)
(2.80646 0.163496 0)
(2.8045 0.157355 0)
(2.80357 0.147887 0)
(2.80383 0.139953 0)
(2.80552 0.129696 0)
(2.62509 -1.88045 0)
(2.62658 -1.88057 0)
(2.62752 -1.88186 0)
(2.62936 -1.88216 0)
(2.63052 -1.88378 0)
(2.63272 -1.88412 0)
(2.63402 -1.88614 0)
(2.63565 -1.88638 0)
(2.63743 -1.88677 0)
(2.63874 -1.88725 0)
(2.60072 -1.8543 0)
(2.44116 -1.73321 0)
(2.15159 -1.4551 0)
(1.84086 -1.13558 0)
(1.31161 -0.681786 0)
(1.0294 -0.391534 0)
(0.944076 -0.1701 0)
(0.848136 -0.0471058 0)
(0.823774 -0.0199446 0)
(0.82026 -0.0285297 0)
(0.830469 -0.0206701 0)
(0.833395 -0.00615082 0)
(0.828621 0.00729057 0)
(0.820857 0.0147782 0)
(0.82088 0.0131897 0)
(0.825333 0.0130813 0)
(0.828615 0.018969 0)
(0.831672 0.0278005 0)
(0.836245 0.0396348 0)
(0.843294 0.0507931 0)
(0.851342 0.0611208 0)
(0.856006 0.0716224 0)
(0.860036 0.0807691 0)
(0.866338 0.0886049 0)
(0.875059 0.095056 0)
(0.885861 0.100454 0)
(0.898374 0.105501 0)
(0.911644 0.109997 0)
(0.922539 0.125343 0)
(0.940799 0.140759 0)
(0.965477 0.150248 0)
(0.992401 0.16012 0)
(1.02339 0.17238 0)
(1.06011 0.185471 0)
(1.1042 0.199124 0)
(1.15939 0.203083 0)
(1.22344 0.193887 0)
(1.29156 0.1938 0)
(1.36734 0.201012 0)
(1.45257 0.213757 0)
(1.5485 0.225627 0)
(1.65091 0.240298 0)
(1.75495 0.2787 0)
(1.86635 0.311368 0)
(1.98069 0.34148 0)
(2.09597 0.354711 0)
(2.20209 0.375559 0)
(2.30097 0.383868 0)
(2.39164 0.387334 0)
(2.47232 0.38847 0)
(2.54267 0.395345 0)
(2.60313 0.401512 0)
(2.65372 0.409226 0)
(2.69067 0.416031 0)
(2.7181 0.422254 0)
(2.7396 0.422404 0)
(2.7569 0.422066 0)
(2.76959 0.416322 0)
(2.77842 0.406205 0)
(2.78501 0.392203 0)
(2.79025 0.373223 0)
(2.8 0.347846 0)
(2.80292 0.32789 0)
(2.80357 0.314941 0)
(2.8052 0.310687 0)
(2.81059 0.301035 0)
(2.81435 0.302163 0)
(2.81811 0.29762 0)
(2.82082 0.291952 0)
(2.81983 0.283995 0)
(2.81703 0.267091 0)
(2.81723 0.25972 0)
(2.81835 0.250145 0)
(2.81934 0.248644 0)
(2.81794 0.24085 0)
(2.81481 0.226455 0)
(2.81139 0.216708 0)
(2.81098 0.207605 0)
(2.8114 0.205558 0)
(2.81054 0.197411 0)
(2.80738 0.189427 0)
(2.80476 0.17839 0)
(2.80715 0.173232 0)
(2.80858 0.170816 0)
(2.80783 0.164684 0)
(2.80625 0.16132 0)
(2.8035 0.15404 0)
(2.80227 0.143679 0)
(2.80145 0.13745 0)
(2.8036 0.126507 0)
(2.64073 -1.88653 0)
(2.64229 -1.88772 0)
(2.64425 -1.88865 0)
(2.6461 -1.88997 0)
(2.6483 -1.89099 0)
(2.65033 -1.89248 0)
(2.6529 -1.89335 0)
(2.655 -1.89516 0)
(2.6579 -1.89624 0)
(2.65996 -1.89833 0)
(2.6637 -1.89992 0)
(2.66528 -1.90153 0)
(2.6679 -1.90162 0)
(2.66877 -1.90391 0)
(2.6538 -1.88192 0)
(2.50873 -1.7564 0)
(2.26184 -1.49431 0)
(1.95869 -1.12015 0)
(1.71739 -0.756917 0)
(1.32741 -0.401043 0)
(1.12498 -0.160139 0)
(1.02208 -0.0297981 0)
(0.97615 0.0151353 0)
(0.969615 0.0253305 0)
(0.972639 0.0344385 0)
(0.971797 0.0504603 0)
(0.96866 0.0652172 0)
(0.956535 0.072768 0)
(0.949617 0.0760455 0)
(0.94542 0.0734683 0)
(0.937428 0.072092 0)
(0.928499 0.0689469 0)
(0.922295 0.0682317 0)
(0.919233 0.0683931 0)
(0.919149 0.0690909 0)
(0.919893 0.0719849 0)
(0.924025 0.0754756 0)
(0.929292 0.0841622 0)
(0.938034 0.0910282 0)
(0.940941 0.0990706 0)
(0.944719 0.103526 0)
(0.95101 0.107964 0)
(0.96036 0.110671 0)
(0.971464 0.114829 0)
(0.984377 0.117091 0)
(0.996296 0.130137 0)
(1.01584 0.14371 0)
(1.04142 0.153125 0)
(1.07005 0.163795 0)
(1.10432 0.177431 0)
(1.14793 0.195063 0)
(1.2055 0.201421 0)
(1.27571 0.191578 0)
(1.35297 0.194778 0)
(1.44254 0.204514 0)
(1.54438 0.220005 0)
(1.65532 0.224269 0)
(1.76241 0.253425 0)
(1.87379 0.279399 0)
(1.98739 0.293974 0)
(2.10043 0.305372 0)
(2.20751 0.317886 0)
(2.30938 0.322076 0)
(2.40354 0.314299 0)
(2.48564 0.313884 0)
(2.55536 0.308971 0)
(2.61493 0.303766 0)
(2.66307 0.303985 0)
(2.69985 0.302403 0)
(2.72647 0.301554 0)
(2.74255 0.296609 0)
(2.75474 0.294724 0)
(2.76877 0.295244 0)
(2.77875 0.299576 0)
(2.78594 0.307258 0)
(2.79135 0.309593 0)
(2.79559 0.310601 0)
(2.79774 0.303314 0)
(2.80135 0.285566 0)
(2.80343 0.26282 0)
(2.8029 0.249437 0)
(2.80832 0.24531 0)
(2.81261 0.242883 0)
(2.81345 0.24134 0)
(2.80974 0.228875 0)
(2.80859 0.218299 0)
(2.80712 0.207937 0)
(2.80896 0.205512 0)
(2.80929 0.202621 0)
(2.80607 0.193178 0)
(2.80318 0.184742 0)
(2.80367 0.173775 0)
(2.80657 0.170207 0)
(2.80872 0.165552 0)
(2.80771 0.160527 0)
(2.8056 0.157795 0)
(2.80293 0.150359 0)
(2.80204 0.141418 0)
(2.80085 0.13534 0)
(2.8027 0.127567 0)
(2.65771 -1.90067 0)
(2.65989 -1.90139 0)
(2.66165 -1.90302 0)
(2.66414 -1.90366 0)
(2.66602 -1.90545 0)
(2.66877 -1.90601 0)
(2.67069 -1.90807 0)
(2.6738 -1.90842 0)
(2.6757 -1.91083 0)
(2.67916 -1.91101 0)
(2.68094 -1.91394 0)
(2.68487 -1.91383 0)
(2.68658 -1.91751 0)
(2.69067 -1.91672 0)
(2.69448 -1.92321 0)
(2.69766 -1.92192 0)
(2.6987 -1.9237 0)
(2.70211 -1.92251 0)
(2.70242 -1.92589 0)
(2.621 -1.81786 0)
(2.38161 -1.56789 0)
(2.10039 -1.19291 0)
(1.84722 -0.787553 0)
(1.64196 -0.45155 0)
(1.39837 -0.162921 0)
(1.18853 0.000451231 0)
(1.11801 0.0597668 0)
(1.10784 0.0584721 0)
(1.11111 0.0752598 0)
(1.11711 0.0956432 0)
(1.10809 0.110226 0)
(1.09091 0.10858 0)
(1.08424 0.10082 0)
(1.08018 0.0941663 0)
(1.07061 0.0980046 0)
(1.05454 0.102751 0)
(1.03949 0.103914 0)
(1.02753 0.106825 0)
(1.01748 0.102801 0)
(1.00662 0.0984382 0)
(0.99997 0.0922566 0)
(0.997574 0.086178 0)
(0.998969 0.0850549 0)
(0.999946 0.0879115 0)
(1.00237 0.0938628 0)
(1.00848 0.10182 0)
(1.01214 0.108147 0)
(1.01573 0.113731 0)
(1.02257 0.118986 0)
(1.0331 0.122745 0)
(1.04785 0.126552 0)
(1.06291 0.140733 0)
(1.08464 0.157049 0)
(1.11431 0.167965 0)
(1.15039 0.181605 0)
(1.1955 0.196124 0)
(1.25318 0.210838 0)
(1.32014 0.192557 0)
(1.3951 0.193177 0)
(1.48115 0.20311 0)
(1.58057 0.213161 0)
(1.68843 0.218958 0)
(1.79713 0.25268 0)
(1.91395 0.290933 0)
(2.03872 0.307263 0)
(2.15554 0.333816 0)
(2.26728 0.339982 0)
(2.3682 0.337568 0)
(2.4543 0.339619 0)
(2.52599 0.343495 0)
(2.58274 0.347307 0)
(2.62388 0.348797 0)
(2.65818 0.343879 0)
(2.68708 0.334803 0)
(2.70985 0.318443 0)
(2.72829 0.298571 0)
(2.74444 0.277934 0)
(2.76013 0.252399 0)
(2.76946 0.240202 0)
(2.77816 0.229085 0)
(2.78484 0.238339 0)
(2.79065 0.249999 0)
(2.79446 0.251375 0)
(2.79449 0.233788 0)
(2.79423 0.208111 0)
(2.7987 0.203718 0)
(2.80239 0.208743 0)
(2.80287 0.208652 0)
(2.80122 0.201385 0)
(2.79933 0.18584 0)
(2.79869 0.177734 0)
(2.80083 0.16904 0)
(2.80485 0.164056 0)
(2.80756 0.157892 0)
(2.80682 0.156866 0)
(2.80459 0.154679 0)
(2.80238 0.145797 0)
(2.80172 0.139475 0)
(2.80097 0.137928 0)
(2.80346 0.132875 0)
(2.682 -1.90737 0)
(2.68354 -1.90898 0)
(2.68599 -1.90932 0)
(2.68754 -1.91121 0)
(2.69027 -1.91136 0)
(2.69175 -1.91356 0)
(2.69467 -1.91368 0)
(2.69621 -1.91603 0)
(2.69922 -1.91633 0)
(2.70095 -1.91864 0)
(2.70385 -1.91944 0)
(2.70597 -1.92155 0)
(2.70871 -1.9229 0)
(2.71113 -1.92491 0)
(2.71352 -1.92696 0)
(2.71661 -1.92825 0)
(2.71849 -1.93161 0)
(2.72268 -1.93179 0)
(2.72412 -1.93683 0)
(2.72758 -1.93588 0)
(2.72813 -1.93901 0)
(2.73197 -1.93805 0)
(2.73202 -1.94344 0)
(2.70435 -1.87653 0)
(2.54352 -1.65276 0)
(2.25874 -1.28498 0)
(1.97864 -0.853235 0)
(1.76399 -0.487603 0)
(1.61961 -0.207644 0)
(1.43531 0.00122759 0)
(1.27173 0.100181 0)
(1.2336 0.094682 0)
(1.23483 0.108642 0)
(1.25324 0.129121 0)
(1.25164 0.147658 0)
(1.23051 0.141657 0)
(1.21601 0.126715 0)
(1.21264 0.105517 0)
(1.20104 0.0984014 0)
(1.18028 0.100969 0)
(1.16021 0.0995959 0)
(1.14672 0.107827 0)
(1.13299 0.118443 0)
(1.11339 0.12644 0)
(1.0923 0.12495 0)
(1.07853 0.113818 0)
(1.07184 0.104105 0)
(1.06513 0.100267 0)
(1.06084 0.0976903 0)
(1.06048 0.0978422 0)
(1.06617 0.103872 0)
(1.07481 0.114824 0)
(1.07881 0.123334 0)
(1.08664 0.127409 0)
(1.09865 0.13277 0)
(1.11453 0.136527 0)
(1.13217 0.140376 0)
(1.14605 0.159736 0)
(1.17446 0.168737 0)
(1.20884 0.177846 0)
(1.25151 0.190548 0)
(1.30696 0.20114 0)
(1.37691 0.18584 0)
(1.45972 0.182268 0)
(1.55673 0.19702 0)
(1.66889 0.191837 0)
(1.77798 0.223477 0)
(1.89414 0.247375 0)
(2.01216 0.253727 0)
(2.12404 0.267968 0)
(2.22969 0.269926 0)
(2.32405 0.260734 0)
(2.40541 0.249112 0)
(2.47462 0.245557 0)
(2.53205 0.238746 0)
(2.57924 0.238706 0)
(2.61828 0.241113 0)
(2.65274 0.252435 0)
(2.68006 0.265801 0)
(2.70398 0.280371 0)
(2.72287 0.282142 0)
(2.73341 0.253316 0)
(2.74848 0.217343 0)
(2.75757 0.184924 0)
(2.77125 0.19507 0)
(2.77768 0.216733 0)
(2.78311 0.219445 0)
(2.78318 0.209807 0)
(2.78524 0.182444 0)
(2.78828 0.171084 0)
(2.79088 0.177969 0)
(2.7929 0.17261 0)
(2.79653 0.158878 0)
(2.80125 0.153997 0)
(2.80289 0.155414 0)
(2.8011 0.149471 0)
(2.79991 0.141777 0)
(2.80078 0.143429 0)
(2.8005 0.14258 0)
(2.80267 0.137601 0)
(2.70021 -1.92282 0)
(2.70213 -1.92349 0)
(2.70368 -1.92486 0)
(2.70561 -1.9258 0)
(2.70748 -1.92687 0)
(2.70925 -1.92822 0)
(2.71131 -1.92921 0)
(2.71307 -1.93083 0)
(2.71541 -1.93173 0)
(2.7171 -1.93375 0)
(2.71971 -1.93459 0)
(2.72132 -1.93699 0)
(2.72435 -1.93748 0)
(2.72559 -1.94049 0)
(2.72884 -1.94083 0)
(2.73012 -1.94398 0)
(2.73315 -1.94499 0)
(2.7356 -1.94693 0)
(2.73817 -1.94896 0)
(2.74152 -1.94994 0)
(2.74378 -1.95276 0)
(2.74767 -1.95306 0)
(2.74958 -1.9582 0)
(2.75329 -1.95586 0)
(2.75476 -1.95781 0)
(2.75867 -1.95653 0)
(2.75953 -1.96045 0)
(2.73783 -1.89949 0)
(2.63366 -1.71139 0)
(2.41927 -1.37059 0)
(2.11537 -0.921175 0)
(1.88679 -0.519219 0)
(1.69996 -0.210906 0)
(1.59835 -0.00186359 0)
(1.43319 0.129315 0)
(1.35427 0.124236 0)
(1.34434 0.134839 0)
(1.3619 0.152447 0)
(1.37358 0.172296 0)
(1.35289 0.168068 0)
(1.33648 0.149977 0)
(1.33966 0.129314 0)
(1.33033 0.124997 0)
(1.29987 0.127291 0)
(1.26817 0.11329 0)
(1.24803 0.110281 0)
(1.23561 0.121574 0)
(1.21413 0.130333 0)
(1.18753 0.13608 0)
(1.16926 0.132896 0)
(1.15662 0.133435 0)
(1.14085 0.128046 0)
(1.12852 0.118179 0)
(1.12641 0.110687 0)
(1.12902 0.108305 0)
(1.13391 0.112199 0)
(1.13859 0.121105 0)
(1.14553 0.12934 0)
(1.14816 0.133395 0)
(1.1572 0.135375 0)
(1.17121 0.137434 0)
(1.1885 0.141014 0)
(1.20798 0.155376 0)
(1.24018 0.165489 0)
(1.28183 0.176536 0)
(1.33434 0.196069 0)
(1.39803 0.176441 0)
(1.47156 0.177342 0)
(1.55804 0.190361 0)
(1.65776 0.185329 0)
(1.75934 0.212462 0)
(1.86801 0.246391 0)
(1.97937 0.264142 0)
(2.08443 0.271356 0)
(2.17976 0.268786 0)
(2.26662 0.258522 0)
(2.34337 0.245578 0)
(2.41092 0.232063 0)
(2.47296 0.219586 0)
(2.52888 0.207256 0)
(2.57761 0.201431 0)
(2.61227 0.195711 0)
(2.6451 0.196216 0)
(2.67035 0.225292 0)
(2.6957 0.239204 0)
(2.71158 0.224023 0)
(2.72581 0.193803 0)
(2.74158 0.162598 0)
(2.75157 0.17421 0)
(2.75824 0.196185 0)
(2.76269 0.19366 0)
(2.76669 0.168515 0)
(2.7779 0.15868 0)
(2.78479 0.166649 0)
(2.7906 0.169575 0)
(2.78974 0.158293 0)
(2.79133 0.153067 0)
(2.79264 0.149732 0)
(2.79144 0.14171 0)
(2.79554 0.131931 0)
(2.7219 -1.9309 0)
(2.72369 -1.9314 0)
(2.72477 -1.93307 0)
(2.72678 -1.93352 0)
(2.72791 -1.93528 0)
(2.73007 -1.93564 0)
(2.73106 -1.9377 0)
(2.73334 -1.93815 0)
(2.73445 -1.94039 0)
(2.73694 -1.94089 0)
(2.73812 -1.94332 0)
(2.74071 -1.9438 0)
(2.74213 -1.94595 0)
(2.74436 -1.94709 0)
(2.74654 -1.94837 0)
(2.74835 -1.95034 0)
(2.75105 -1.95126 0)
(2.75287 -1.95399 0)
(2.75658 -1.9539 0)
(2.75844 -1.95675 0)
(2.76208 -1.95665 0)
(2.76457 -1.95836 0)
(2.76707 -1.96027 0)
(2.77054 -1.96097 0)
(2.77311 -1.96315 0)
(2.77667 -1.96378 0)
(2.77909 -1.96716 0)
(2.78202 -1.9662 0)
(2.78302 -1.96857 0)
(2.78664 -1.96736 0)
(2.78729 -1.97148 0)
(2.77185 -1.91645 0)
(2.6522 -1.71208 0)
(2.47029 -1.35951 0)
(2.20478 -0.908661 0)
(1.98101 -0.504566 0)
(1.78564 -0.185542 0)
(1.67 0.024471 0)
(1.55674 0.136775 0)
(1.46861 0.154282 0)
(1.45325 0.15502 0)
(1.46923 0.171698 0)
(1.49424 0.191208 0)
(1.47114 0.187917 0)
(1.43997 0.168807 0)
(1.44071 0.142867 0)
(1.4395 0.144902 0)
(1.41109 0.15339 0)
(1.37138 0.145604 0)
(1.3508 0.134174 0)
(1.3349 0.136295 0)
(1.30814 0.137955 0)
(1.27967 0.13234 0)
(1.26205 0.13095 0)
(1.24586 0.13623 0)
(1.22686 0.142736 0)
(1.20808 0.136852 0)
(1.19726 0.125923 0)
(1.18827 0.118142 0)
(1.18642 0.112113 0)
(1.18978 0.114142 0)
(1.19521 0.121265 0)
(1.20038 0.127895 0)
(1.20996 0.131478 0)
(1.22486 0.135517 0)
(1.24223 0.136116 0)
(1.25302 0.151868 0)
(1.27745 0.153374 0)
(1.31005 0.158532 0)
(1.35108 0.178024 0)
(1.40762 0.16462 0)
(1.47928 0.157554 0)
(1.56165 0.163637 0)
(1.6516 0.15745 0)
(1.74245 0.172136 0)
(1.83624 0.19838 0)
(1.93186 0.201941 0)
(2.02407 0.203097 0)
(2.11517 0.217153 0)
(2.20278 0.212068 0)
(2.28341 0.208863 0)
(2.35438 0.211184 0)
(2.41802 0.203514 0)
(2.47371 0.193152 0)
(2.52574 0.178624 0)
(2.56944 0.174736 0)
(2.60471 0.169091 0)
(2.63663 0.188383 0)
(2.66265 0.201136 0)
(2.67981 0.178103 0)
(2.69525 0.152023 0)
(2.71053 0.145425 0)
(2.72656 0.156882 0)
(2.74088 0.156555 0)
(2.7538 0.15421 0)
(2.75931 0.158297 0)
(2.76299 0.153914 0)
(2.76641 0.140192 0)
(2.76878 0.117833 0)
(2.78171 0.108705 0)
(2.7369 -1.94616 0)
(2.73796 -1.9473 0)
(2.7394 -1.94808 0)
(2.74071 -1.94916 0)
(2.74214 -1.95018 0)
(2.74369 -1.95105 0)
(2.74502 -1.9523 0)
(2.74663 -1.95328 0)
(2.74815 -1.9546 0)
(2.74995 -1.95563 0)
(2.7515 -1.9571 0)
(2.75368 -1.95767 0)
(2.755 -1.95962 0)
(2.75752 -1.95994 0)
(2.75893 -1.9621 0)
(2.76194 -1.96189 0)
(2.76338 -1.96418 0)
(2.76634 -1.96449 0)
(2.7685 -1.96639 0)
(2.77156 -1.96693 0)
(2.77439 -1.96784 0)
(2.77699 -1.96915 0)
(2.7804 -1.96915 0)
(2.7821 -1.97195 0)
(2.78589 -1.97116 0)
(2.78785 -1.97332 0)
(2.79112 -1.97332 0)
(2.79414 -1.9738 0)
(2.79679 -1.97506 0)
(2.80044 -1.97474 0)
(2.80198 -1.97901 0)
(2.80518 -1.97725 0)
(2.8064 -1.97913 0)
(2.81053 -1.97731 0)
(2.81046 -1.98272 0)
(2.79257 -1.91902 0)
(2.66107 -1.67978 0)
(2.45729 -1.26728 0)
(2.23858 -0.830583 0)
(2.01084 -0.422824 0)
(1.85166 -0.125381 0)
(1.71382 0.0718275 0)
(1.64257 0.142939 0)
(1.57868 0.168661 0)
(1.54888 0.182749 0)
(1.55834 0.192117 0)
(1.59672 0.194328 0)
(1.57774 0.188522 0)
(1.53795 0.170513 0)
(1.53117 0.151504 0)
(1.52905 0.149936 0)
(1.50012 0.163038 0)
(1.46475 0.161603 0)
(1.44751 0.157068 0)
(1.42588 0.15954 0)
(1.39628 0.148522 0)
(1.37099 0.13347 0)
(1.3485 0.127861 0)
(1.32209 0.130127 0)
(1.29798 0.136094 0)
(1.27741 0.144143 0)
(1.25586 0.13679 0)
(1.24611 0.125496 0)
(1.24455 0.116092 0)
(1.24765 0.112874 0)
(1.25093 0.118041 0)
(1.25038 0.12751 0)
(1.24853 0.129167 0)
(1.25658 0.130172 0)
(1.26948 0.130781 0)
(1.28071 0.145419 0)
(1.30525 0.151508 0)
(1.33769 0.157201 0)
(1.37708 0.16975 0)
(1.42821 0.149703 0)
(1.49049 0.131081 0)
(1.55704 0.133427 0)
(1.63344 0.136526 0)
(1.71717 0.136755 0)
(1.79727 0.157828 0)
(1.88253 0.174437 0)
(1.97344 0.175063 0)
(2.05911 0.189261 0)
(2.146 0.175955 0)
(2.22634 0.167328 0)
(2.29937 0.174715 0)
(2.3638 0.177088 0)
(2.42132 0.164921 0)
(2.47518 0.151627 0)
(2.51703 0.1503 0)
(2.55 0.160891 0)
(2.58084 0.162449 0)
(2.61017 0.144105 0)
(2.64193 0.132223 0)
(2.66845 0.138311 0)
(2.68665 0.131193 0)
(2.70083 0.119401 0)
(2.71212 0.115012 0)
(2.719 0.113972 0)
(2.73988 0.114652 0)
(2.75615 -1.95247 0)
(2.75722 -1.9533 0)
(2.75848 -1.95403 0)
(2.75971 -1.95495 0)
(2.76108 -1.95578 0)
(2.76235 -1.95686 0)
(2.76397 -1.95748 0)
(2.7651 -1.95891 0)
(2.76697 -1.95929 0)
(2.76819 -1.96067 0)
(2.76993 -1.96137 0)
(2.77155 -1.96234 0)
(2.77339 -1.96314 0)
(2.77513 -1.96429 0)
(2.77723 -1.96508 0)
(2.77935 -1.96591 0)
(2.78157 -1.96666 0)
(2.78381 -1.96762 0)
(2.78616 -1.96873 0)
(2.78928 -1.96852 0)
(2.79121 -1.9704 0)
(2.79445 -1.96994 0)
(2.79624 -1.97166 0)
(2.79841 -1.97275 0)
(2.80102 -1.97307 0)
(2.8025 -1.97511 0)
(2.80535 -1.97478 0)
(2.807 -1.97633 0)
(2.8095 -1.97655 0)
(2.81172 -1.97727 0)
(2.81392 -1.97803 0)
(2.81581 -1.97983 0)
(2.81788 -1.98167 0)
(2.82121 -1.98171 0)
(2.82208 -1.9854 0)
(2.82411 -1.9853 0)
(2.8253 -1.98702 0)
(2.82863 -1.98542 0)
(2.82946 -1.98797 0)
(2.79251 -1.89004 0)
(2.63973 -1.58277 0)
(2.40707 -1.0981 0)
(2.21817 -0.672216 0)
(2.00798 -0.289589 0)
(1.87974 -0.02412 0)
(1.73705 0.155703 0)
(1.69931 0.159831 0)
(1.65988 0.180447 0)
(1.62972 0.200738 0)
(1.64385 0.206377 0)
(1.66468 0.19376 0)
(1.65008 0.185026 0)
(1.62304 0.170431 0)
(1.61806 0.159868 0)
(1.60458 0.159238 0)
(1.57024 0.163426 0)
(1.54832 0.170208 0)
(1.52825 0.175606 0)
(1.49757 0.169913 0)
(1.46852 0.153069 0)
(1.44252 0.135224 0)
(1.41123 0.125935 0)
(1.38465 0.129097 0)
(1.36316 0.137722 0)
(1.34054 0.144973 0)
(1.31634 0.142572 0)
(1.29571 0.12895 0)
(1.28201 0.115494 0)
(1.27991 0.10997 0)
(1.28036 0.113387 0)
(1.28254 0.123718 0)
(1.28401 0.126386 0)
(1.29294 0.129066 0)
(1.30616 0.125677 0)
(1.32039 0.136046 0)
(1.34292 0.141682 0)
(1.3719 0.142708 0)
(1.40941 0.142873 0)
(1.45304 0.146704 0)
(1.50242 0.133869 0)
(1.55953 0.123033 0)
(1.6275 0.12813 0)
(1.70365 0.117273 0)
(1.77545 0.146878 0)
(1.85422 0.165777 0)
(1.93735 0.169116 0)
(2.0182 0.167154 0)
(2.09862 0.159556 0)
(2.17442 0.162878 0)
(2.24044 0.16382 0)
(2.29573 0.150741 0)
(2.34795 0.13233 0)
(2.39989 0.123548 0)
(2.45199 0.136096 0)
(2.49974 0.146423 0)
(2.53843 0.140699 0)
(2.57104 0.139771 0)
(2.59832 0.145975 0)
(2.61686 0.146969 0)
(2.65118 0.138396 0)
(2.76928 -1.96483 0)
(2.77035 -1.96567 0)
(2.7717 -1.96624 0)
(2.77288 -1.96708 0)
(2.7742 -1.96778 0)
(2.7755 -1.96859 0)
(2.77698 -1.96912 0)
(2.77827 -1.96991 0)
(2.77973 -1.97045 0)
(2.78125 -1.97099 0)
(2.78279 -1.97164 0)
(2.78426 -1.97261 0)
(2.78626 -1.97283 0)
(2.7878 -1.97401 0)
(2.78997 -1.97424 0)
(2.79173 -1.97528 0)
(2.79397 -1.97556 0)
(2.79585 -1.97663 0)
(2.79807 -1.97729 0)
(2.8006 -1.97742 0)
(2.80272 -1.97825 0)
(2.80507 -1.97853 0)
(2.80693 -1.97943 0)
(2.80879 -1.98015 0)
(2.81002 -1.98174 0)
(2.81242 -1.98132 0)
(2.81317 -1.98316 0)
(2.81545 -1.98271 0)
(2.81632 -1.9844 0)
(2.81838 -1.9845 0)
(2.82066 -1.98449 0)
(2.82068 -1.98845 0)
(2.82418 -1.98718 0)
(2.82573 -1.98895 0)
(2.82866 -1.98828 0)
(2.83014 -1.98986 0)
(2.83292 -1.98942 0)
(2.83481 -1.99106 0)
(2.83841 -1.98898 0)
(2.84081 -1.98808 0)
(2.84356 -1.98639 0)
(2.84451 -1.98775 0)
(2.84311 -1.97616 0)
(2.75609 -1.7937 0)
(2.56601 -1.36535 0)
(2.32649 -0.827761 0)
(2.16418 -0.447133 0)
(1.96103 -0.117983 0)
(1.85255 0.0758755 0)
(1.75873 0.16802 0)
(1.73614 0.183659 0)
(1.72829 0.198498 0)
(1.71405 0.212512 0)
(1.7296 0.201944 0)
(1.7364 0.19341 0)
(1.70752 0.172186 0)
(1.69476 0.16732 0)
(1.68109 0.169007 0)
(1.65483 0.171638 0)
(1.62973 0.172713 0)
(1.61023 0.173837 0)
(1.58437 0.170394 0)
(1.5585 0.163016 0)
(1.53449 0.153443 0)
(1.50195 0.143206 0)
(1.46673 0.131611 0)
(1.43084 0.130972 0)
(1.39688 0.132774 0)
(1.37144 0.13944 0)
(1.34641 0.13578 0)
(1.32706 0.119562 0)
(1.31887 0.109289 0)
(1.31641 0.105661 0)
(1.31753 0.104339 0)
(1.32522 0.115663 0)
(1.32886 0.11671 0)
(1.3375 0.113366 0)
(1.35435 0.110242 0)
(1.37145 0.114999 0)
(1.38884 0.117327 0)
(1.41098 0.119182 0)
(1.44453 0.120835 0)
(1.4838 0.130093 0)
(1.52868 0.114375 0)
(1.5804 0.114993 0)
(1.63906 0.111171 0)
(1.70234 0.101672 0)
(1.76883 0.120113 0)
(1.83909 0.127466 0)
(1.90902 0.122674 0)
(1.97488 0.124563 0)
(2.03749 0.134733 0)
(2.10288 0.138583 0)
(2.17025 0.122301 0)
(2.238 0.114195 0)