/*--------------------------------*- C++ -*----------------------------------*\
  =========                 |
  \\      /  F ield         | OpenFOAM: The Open Source CFD Toolbox
   \\    /   O peration     | Website:  https://openfoam.org
    \\  /    A nd           | Version:  7
     \\/     M anipulation  |
\*---------------------------------------------------------------------------*/
FoamFile
{
    version     2.0;
    format      ascii;
    class       volVectorField;
    location    "5";
    object      U;
}
// * * * * * * * * * * * * * * * * * * * * * * * * * * * * * * * * * * * * * //

dimensions      [0 1 -1 0 0 0 0];

internalField   nonuniform List<vector> 
90000
(
(3.9987 -0.0461735 0)
(4.00054 -0.0428362 0)
(4.0009 -0.0433457 0)
(4.00314 -0.0358082 0)
(4.00319 -0.0339004 0)
(4.00347 -0.0355388 0)
(4.0023 -0.0351067 0)
(4.00171 -0.0341332 0)
(4.00112 -0.0334073 0)
(4.00035 -0.0326336 0)
(3.99936 -0.0333404 0)
(3.99841 -0.033509 0)
(3.99741 -0.0324049 0)
(3.9965 -0.0332361 0)
(3.99552 -0.031674 0)
(3.99484 -0.0326946 0)
(3.99391 -0.0313736 0)
(3.9932 -0.0313411 0)
(3.99247 -0.0305516 0)
(3.99186 -0.0295191 0)
(3.99141 -0.0287506 0)
(3.99114 -0.0285812 0)
(3.99059 -0.0272968 0)
(3.99038 -0.0261808 0)
(3.98992 -0.024159 0)
(3.98996 -0.0231914 0)
(3.98911 -0.0201834 0)
(3.98904 -0.018521 0)
(3.98847 -0.0154999 0)
(3.98853 -0.0141213 0)
(3.98774 -0.0105779 0)
(3.98767 -0.00912499 0)
(3.98706 -0.00608266 0)
(3.9868 -0.00483833 0)
(3.98594 -0.00207343 0)
(3.98539 -0.00157158 0)
(3.98468 0.00026518 0)
(3.98366 -0.000116822 0)
(3.98367 -0.000692302 0)
(3.98391 -0.00223974 0)
(3.98449 -0.00427187 0)
(3.98558 -0.00707229 0)
(3.9876 -0.0113579 0)
(3.98845 -0.0133892 0)
(3.98941 -0.0157687 0)
(3.98816 -0.0185642 0)
(3.98726 -0.0187323 0)
(3.98585 -0.0180664 0)
(3.98423 -0.0163945 0)
(3.98264 -0.0149154 0)
(3.98073 -0.0112594 0)
(3.97986 -0.00967132 0)
(3.97838 -0.00530579 0)
(3.97827 -0.00407728 0)
(3.97804 -0.000425859 0)
(3.97823 -0.00176166 0)
(3.97894 -0.00324346 0)
(3.9799 -0.00644882 0)
(3.98117 -0.0108753 0)
(3.98273 -0.0128801 0)
(3.98165 -0.0147463 0)
(3.98098 -0.014145 0)
(3.97979 -0.0123961 0)
(3.97816 -0.00928636 0)
(3.97741 -0.00637282 0)
(3.97706 -0.00353659 0)
(3.97737 -0.00404216 0)
(3.97814 -0.00676734 0)
(3.97894 -0.0108106 0)
(3.98093 -0.0117637 0)
(3.97883 -0.012681 0)
(3.97798 -0.0117125 0)
(3.97638 -0.0100228 0)
(3.97583 -0.00640164 0)
(3.97595 -0.00647362 0)
(3.97632 -0.00796601 0)
(3.97677 -0.0103378 0)
(3.97717 -0.00937894 0)
(3.97644 -0.00959968 0)
(3.9756 -0.00873226 0)
(3.97548 -0.00747357 0)
(3.97564 -0.00766615 0)
(3.97634 -0.00840048 0)
(3.97654 -0.00939822 0)
(3.97618 -0.00924396 0)
(3.97585 -0.00828661 0)
(3.97564 -0.00833864 0)
(3.97567 -0.00879664 0)
(3.97598 -0.00954701 0)
(3.97632 -0.0102461 0)
(3.97648 -0.0105778 0)
(3.97643 -0.0105143 0)
(3.97608 -0.00982792 0)
(3.97593 -0.00988227 0)
(3.97581 -0.0100621 0)
(3.97568 -0.0102861 0)
(3.97568 -0.0103912 0)
(3.97563 -0.0106012 0)
(3.97559 -0.0107934 0)
(3.97546 -0.0108168 0)
(3.99598 -0.0499063 0)
(3.99596 -0.0498458 0)
(3.99594 -0.0497728 0)
(3.99591 -0.0497982 0)
(3.9959 -0.0497429 0)
(3.99574 -0.0494337 0)
(3.99571 -0.0492215 0)
(3.99568 -0.049022 0)
(3.99554 -0.0485985 0)
(3.99545 -0.0481554 0)
(3.99525 -0.0474935 0)
(3.99521 -0.0470509 0)
(3.99514 -0.0465125 0)
(3.99473 -0.0454567 0)
(3.9947 -0.0447399 0)
(3.99449 -0.043737 0)
(3.99435 -0.0428777 0)
(3.99423 -0.0420677 0)
(3.99387 -0.0406754 0)
(3.99374 -0.0397253 0)
(3.99358 -0.0387052 0)
(3.99341 -0.037802 0)
(3.99303 -0.0363127 0)
(3.99283 -0.0353936 0)
(3.99256 -0.0340899 0)
(3.99235 -0.0334002 0)
(3.99189 -0.0317928 0)
(3.99166 -0.0310306 0)
(3.99119 -0.0291803 0)
(3.99097 -0.0283526 0)
(3.99037 -0.0259045 0)
(3.99026 -0.0249733 0)
(3.98961 -0.0222093 0)
(3.98943 -0.021094 0)
(3.98847 -0.017623 0)
(3.98831 -0.0164108 0)
(3.98732 -0.0130571 0)
(3.98714 -0.0115669 0)
(3.98622 -0.00861087 0)
(3.9858 -0.00679757 0)
(3.9854 -0.00585878 0)
(3.9851 -0.00417712 0)
(3.98529 -0.0049759 0)
(3.98563 -0.00565791 0)
(3.98629 -0.00702857 0)
(3.9873 -0.00929711 0)
(3.98847 -0.0120317 0)
(3.98912 -0.0142538 0)
(3.98992 -0.0163714 0)
(3.98937 -0.0174508 0)
(3.98877 -0.0173033 0)
(3.98758 -0.0157456 0)
(3.98614 -0.0137425 0)
(3.98506 -0.0115288 0)
(3.98391 -0.00804811 0)
(3.98379 -0.00575717 0)
(3.98292 -0.00173702 0)
(3.9823 -0.000427391 0)
(3.98263 -0.00139894 0)
(3.98364 -0.00391546 0)
(3.98478 -0.00868355 0)
(3.98526 -0.0109065 0)
(3.98487 -0.0131087 0)
(3.98423 -0.0121366 0)
(3.98316 -0.010295 0)
(3.98206 -0.00773769 0)
(3.98129 -0.00449592 0)
(3.98098 -0.00283207 0)
(3.98147 -0.00471744 0)
(3.98299 -0.00914321 0)
(3.98359 -0.012442 0)
(3.98296 -0.0149695 0)
(3.98208 -0.0133275 0)
(3.98093 -0.0111459 0)
(3.97987 -0.00585807 0)
(3.97973 -0.006163 0)
(3.98008 -0.0076417 0)
(3.98098 -0.0109434 0)
(3.98057 -0.0125468 0)
(3.98003 -0.0113715 0)
(3.97933 -0.00933014 0)
(3.97895 -0.00754429 0)
(3.97915 -0.00845259 0)
(3.97954 -0.00987809 0)
(3.97945 -0.0107742 0)
(3.97929 -0.0105339 0)
(3.97888 -0.0093213 0)
(3.97849 -0.00825293 0)
(3.97861 -0.00868235 0)
(3.97886 -0.0100848 0)
(3.97921 -0.00982448 0)
(3.97914 -0.0093601 0)
(3.97908 -0.00926109 0)
(3.97881 -0.00943801 0)
(3.97866 -0.00958599 0)
(3.97852 -0.00961202 0)
(3.97851 -0.00983903 0)
(3.97846 -0.0101566 0)
(3.9784 -0.0105488 0)
(3.97822 -0.010629 0)
(3.99374 -0.0505424 0)
(3.99372 -0.0505713 0)
(3.99368 -0.0505292 0)
(3.99363 -0.0504339 0)
(3.99358 -0.0504315 0)
(3.99353 -0.0504799 0)
(3.99345 -0.0504344 0)
(3.99337 -0.0503518 0)
(3.9933 -0.0502898 0)
(3.99323 -0.0502596 0)
(3.99317 -0.0502498 0)
(3.9931 -0.0501725 0)
(3.99303 -0.0499994 0)
(3.99298 -0.0498273 0)
(3.99291 -0.0496034 0)
(3.99281 -0.0493315 0)
(3.99271 -0.0491664 0)
(3.99256 -0.0488924 0)
(3.99236 -0.0483836 0)
(3.99222 -0.0480464 0)
(3.99208 -0.0476706 0)
(3.99194 -0.047136 0)
(3.99176 -0.04634 0)
(3.99164 -0.0457224 0)
(3.99145 -0.0449082 0)
(3.99127 -0.0442226 0)
(3.99096 -0.0430996 0)
(3.99071 -0.0423455 0)
(3.9903 -0.0410793 0)
(3.98999 -0.040222 0)
(3.98944 -0.0385034 0)
(3.98903 -0.0375275 0)
(3.98829 -0.0353108 0)
(3.98787 -0.0342905 0)
(3.987 -0.0312739 0)
(3.98674 -0.0303364 0)
(3.98588 -0.026821 0)
(3.98583 -0.0259678 0)
(3.98502 -0.0222386 0)
(3.98525 -0.0212301 0)
(3.9843 -0.0178703 0)
(3.98402 -0.0159493 0)
(3.98363 -0.0134588 0)
(3.9832 -0.0110698 0)
(3.98237 -0.00939296 0)
(3.98223 -0.00793985 0)
(3.98247 -0.00769021 0)
(3.98268 -0.00788553 0)
(3.98319 -0.00853626 0)
(3.98374 -0.00924347 0)
(3.9848 -0.0115392 0)
(3.98501 -0.0122072 0)
(3.98564 -0.0140013 0)
(3.98552 -0.0140598 0)
(3.98501 -0.0138127 0)
(3.98414 -0.012419 0)
(3.98292 -0.00945089 0)
(3.98272 -0.00764087 0)
(3.98189 -0.00390461 0)
(3.98142 -0.00199596 0)
(3.98157 -0.00250807 0)
(3.98212 -0.00373678 0)
(3.98333 -0.00761141 0)
(3.98372 -0.00935332 0)
(3.98405 -0.0124688 0)
(3.98358 -0.0120758 0)
(3.98254 -0.0107555 0)
(3.98156 -0.00832059 0)
(3.98118 -0.00430112 0)
(3.98123 -0.00467485 0)
(3.98208 -0.00709123 0)
(3.98281 -0.00994764 0)
(3.9832 -0.0132681 0)
(3.98286 -0.0124035 0)
(3.98172 -0.0110077 0)
(3.98101 -0.00762598 0)
(3.98053 -0.00511249 0)
(3.98083 -0.00674932 0)
(3.9812 -0.00916176 0)
(3.98115 -0.0105224 0)
(3.98086 -0.00971114 0)
(3.98038 -0.00824978 0)
(3.97996 -0.00676488 0)
(3.98012 -0.0078105 0)
(3.98028 -0.00993704 0)
(3.98023 -0.00932812 0)
(3.98002 -0.00902551 0)
(3.9796 -0.0082308 0)
(3.97956 -0.00836838 0)
(3.97967 -0.00904707 0)
(3.97995 -0.0102618 0)
(3.97994 -0.0103496 0)
(3.97987 -0.010043 0)
(3.97968 -0.00956699 0)
(3.97961 -0.00971354 0)
(3.97955 -0.00994577 0)
(3.97953 -0.0100996 0)
(3.97952 -0.0102776 0)
(3.97956 -0.0105045 0)
(3.97936 -0.010765 0)
(3.98988 -0.0509606 0)
(3.98988 -0.0509648 0)
(3.98989 -0.0509732 0)
(3.98986 -0.0508911 0)
(3.98984 -0.0508238 0)
(3.98983 -0.05079 0)
(3.98979 -0.0507489 0)
(3.98976 -0.050679 0)
(3.98974 -0.0506542 0)
(3.98973 -0.0506692 0)
(3.98972 -0.0506713 0)
(3.98972 -0.0506701 0)
(3.9897 -0.050625 0)
(3.98967 -0.0505307 0)
(3.98967 -0.050439 0)
(3.98968 -0.0503337 0)
(3.98967 -0.0502417 0)
(3.98964 -0.0501507 0)
(3.98957 -0.0499271 0)
(3.98953 -0.0497559 0)
(3.98948 -0.0496508 0)
(3.98936 -0.0494585 0)
(3.9892 -0.0491672 0)
(3.98905 -0.0488101 0)
(3.98892 -0.0484741 0)
(3.98873 -0.0479666 0)
(3.98851 -0.0473783 0)
(3.98831 -0.0466936 0)
(3.98812 -0.0459998 0)
(3.98791 -0.045211 0)
(3.98763 -0.044154 0)
(3.98736 -0.0431106 0)
(3.98696 -0.0416846 0)
(3.98662 -0.0405252 0)
(3.98596 -0.0384194 0)
(3.98559 -0.0371016 0)
(3.98474 -0.0342244 0)
(3.98439 -0.0327906 0)
(3.98332 -0.0288606 0)
(3.98308 -0.0276779 0)
(3.98199 -0.0230986 0)
(3.98196 -0.0224941 0)
(3.98104 -0.0177279 0)
(3.98097 -0.017423 0)
(3.9804 -0.0144163 0)
(3.9803 -0.0141223 0)
(3.97983 -0.0127576 0)
(3.97956 -0.011494 0)
(3.97924 -0.0101942 0)
(3.97952 -0.00975331 0)
(3.97955 -0.0103326 0)
(3.97973 -0.0104822 0)
(3.98014 -0.0109101 0)
(3.98065 -0.0113479 0)
(3.98112 -0.0120626 0)
(3.9815 -0.0121813 0)
(3.9815 -0.0121438 0)
(3.98106 -0.0106605 0)
(3.98047 -0.00899843 0)
(3.98 -0.00790752 0)
(3.97942 -0.00617683 0)
(3.97903 -0.004401 0)
(3.97918 -0.00454514 0)
(3.97945 -0.00511578 0)
(3.98024 -0.00751563 0)
(3.98051 -0.00863358 0)
(3.98087 -0.0108455 0)
(3.98061 -0.010675 0)
(3.97956 -0.00966912 0)
(3.97921 -0.00775909 0)
(3.97928 -0.00619916 0)
(3.97947 -0.00689222 0)
(3.98024 -0.00904877 0)
(3.98099 -0.0115413 0)
(3.98066 -0.0126266 0)
(3.98009 -0.0118139 0)
(3.97938 -0.00932376 0)
(3.97892 -0.00655775 0)
(3.97905 -0.00692221 0)
(3.97953 -0.00858039 0)
(3.97991 -0.0110556 0)
(3.9797 -0.0105774 0)
(3.97924 -0.00935195 0)
(3.97902 -0.00733622 0)
(3.97927 -0.00841071 0)
(3.97945 -0.0103008 0)
(3.97936 -0.010044 0)
(3.97912 -0.00934303 0)
(3.97905 -0.00866327 0)
(3.97908 -0.00887102 0)
(3.97928 -0.00967425 0)
(3.97928 -0.00994032 0)
(3.97928 -0.00985882 0)
(3.97919 -0.00979589 0)
(3.97909 -0.00954861 0)
(3.97909 -0.00961934 0)
(3.97912 -0.00987258 0)
(3.97916 -0.0101299 0)
(3.97924 -0.0104712 0)
(3.97919 -0.0106741 0)
(3.98675 -0.0510427 0)
(3.98677 -0.0509904 0)
(3.98677 -0.0509196 0)
(3.98677 -0.0509018 0)
(3.98677 -0.0508773 0)
(3.98674 -0.050829 0)
(3.98671 -0.0508043 0)
(3.98669 -0.0507956 0)
(3.98668 -0.0507841 0)
(3.98666 -0.0507813 0)
(3.98666 -0.050778 0)
(3.98666 -0.0507685 0)
(3.98668 -0.050754 0)
(3.9867 -0.0507443 0)
(3.98677 -0.0507058 0)
(3.98686 -0.0506742 0)
(3.98691 -0.0506395 0)
(3.98696 -0.0505853 0)
(3.98698 -0.0505394 0)
(3.98707 -0.0504783 0)
(3.98709 -0.0504283 0)
(3.98709 -0.0503838 0)
(3.98703 -0.0502964 0)
(3.98702 -0.0501621 0)
(3.98705 -0.0500614 0)
(3.98704 -0.0499206 0)
(3.98699 -0.0497109 0)
(3.98693 -0.0495243 0)
(3.98688 -0.0493403 0)
(3.9868 -0.0490554 0)
(3.98671 -0.0487226 0)
(3.98657 -0.0482214 0)
(3.98642 -0.047631 0)
(3.98623 -0.0469233 0)
(3.98601 -0.046146 0)
(3.98574 -0.0451333 0)
(3.98542 -0.0439209 0)
(3.9851 -0.0426469 0)
(3.98457 -0.0406388 0)
(3.98422 -0.0392836 0)
(3.98344 -0.0363495 0)
(3.98309 -0.0350303 0)
(3.98201 -0.0309192 0)
(3.98173 -0.0297564 0)
(3.98037 -0.0242894 0)
(3.98033 -0.0240732 0)
(3.97915 -0.0187657 0)
(3.97915 -0.0185702 0)
(3.9785 -0.0151949 0)
(3.97897 -0.0153233 0)
(3.97807 -0.0138054 0)
(3.97826 -0.0126285 0)
(3.97798 -0.0120657 0)
(3.97822 -0.0113552 0)
(3.9784 -0.0110042 0)
(3.97841 -0.0106956 0)
(3.97872 -0.0113379 0)
(3.97878 -0.0116574 0)
(3.97872 -0.0119421 0)
(3.97837 -0.0111437 0)
(3.97815 -0.00989502 0)
(3.97786 -0.00853272 0)
(3.97794 -0.00768054 0)
(3.97753 -0.00606829 0)
(3.97748 -0.00594602 0)
(3.97761 -0.00626829 0)
(3.97802 -0.0077264 0)
(3.97828 -0.00918271 0)
(3.97828 -0.0106585 0)
(3.97803 -0.0105546 0)
(3.97744 -0.00937341 0)
(3.97736 -0.0081954 0)
(3.97752 -0.00715014 0)
(3.97791 -0.00829389 0)
(3.9783 -0.0097984 0)
(3.9786 -0.0115155 0)
(3.9784 -0.0112498 0)
(3.97802 -0.00973545 0)
(3.97767 -0.00777077 0)
(3.97776 -0.00707604 0)
(3.97804 -0.0080027 0)
(3.97841 -0.00974098 0)
(3.97835 -0.00970029 0)
(3.97805 -0.0092854 0)
(3.97802 -0.00774594 0)
(3.97812 -0.0084669 0)
(3.97825 -0.00968805 0)
(3.97822 -0.00952444 0)
(3.97823 -0.00852144 0)
(3.97813 -0.00878289 0)
(3.97823 -0.00908508 0)
(3.97829 -0.0100489 0)
(3.97847 -0.00980624 0)
(3.97841 -0.00968493 0)
(3.97832 -0.00982162 0)
(3.97831 -0.009706 0)
(3.97835 -0.00975483 0)
(3.97843 -0.00995234 0)
(3.97853 -0.010292 0)
(3.97861 -0.0106649 0)
(3.98579 -0.0508726 0)
(3.98581 -0.0508699 0)
(3.98584 -0.0508589 0)
(3.98587 -0.0508069 0)
(3.98586 -0.0507668 0)
(3.98586 -0.0507577 0)
(3.98586 -0.0507442 0)
(3.98586 -0.0507387 0)
(3.98585 -0.0507305 0)
(3.98585 -0.0507151 0)
(3.98584 -0.0507064 0)
(3.98585 -0.0507119 0)
(3.98587 -0.0507228 0)
(3.98591 -0.050741 0)
(3.98595 -0.0507433 0)
(3.98603 -0.0506619 0)
(3.98605 -0.0505688 0)
(3.98604 -0.0505413 0)
(3.98604 -0.0505379 0)
(3.98606 -0.0504946 0)
(3.98608 -0.0504362 0)
(3.98613 -0.050444 0)
(3.98619 -0.0505039 0)
(3.9863 -0.0504379 0)
(3.98635 -0.0503264 0)
(3.98637 -0.0502667 0)
(3.98636 -0.0502157 0)
(3.98638 -0.0501483 0)
(3.98643 -0.0501097 0)
(3.98643 -0.0500149 0)
(3.98644 -0.049933 0)
(3.98648 -0.0498351 0)
(3.98643 -0.0495799 0)
(3.98642 -0.0493389 0)
(3.98642 -0.0491204 0)
(3.98637 -0.0488138 0)
(3.98627 -0.0483862 0)
(3.98614 -0.047786 0)
(3.98597 -0.0470799 0)
(3.98575 -0.0461005 0)
(3.98547 -0.0449623 0)
(3.98513 -0.0435438 0)
(3.98454 -0.0413751 0)
(3.98413 -0.039465 0)
(3.9832 -0.0358582 0)
(3.98284 -0.0339076 0)
(3.9815 -0.0285768 0)
(3.98135 -0.0274798 0)
(3.9797 -0.0210359 0)
(3.97978 -0.0207469 0)
(3.97845 -0.0151473 0)
(3.9785 -0.0153317 0)
(3.97783 -0.0120537 0)
(3.97778 -0.0121791 0)
(3.97757 -0.0108832 0)
(3.97753 -0.0108621 0)
(3.97744 -0.0115515 0)
(3.97763 -0.0115137 0)
(3.97759 -0.0120966 0)
(3.97769 -0.0119652 0)
(3.97769 -0.0115386 0)
(3.97746 -0.0107006 0)
(3.97734 -0.00921281 0)
(3.9774 -0.00853049 0)
(3.97717 -0.00801363 0)
(3.97694 -0.00708496 0)
(3.97673 -0.00710961 0)
(3.9768 -0.0076532 0)
(3.97692 -0.00839316 0)
(3.97708 -0.00983171 0)
(3.97713 -0.0100136 0)
(3.97704 -0.00934033 0)
(3.97684 -0.00889994 0)
(3.97697 -0.00814463 0)
(3.97712 -0.00845417 0)
(3.97739 -0.00951188 0)
(3.97768 -0.0111104 0)
(3.97761 -0.0106562 0)
(3.97748 -0.00979298 0)
(3.97736 -0.00876739 0)
(3.97737 -0.00795162 0)
(3.97753 -0.00843863 0)
(3.97774 -0.0096627 0)
(3.97773 -0.00972533 0)
(3.97749 -0.00946324 0)
(3.97747 -0.00827106 0)
(3.97754 -0.00871389 0)
(3.97768 -0.00964806 0)
(3.97767 -0.00957402 0)
(3.97768 -0.00870281 0)
(3.9777 -0.00888211 0)
(3.97778 -0.00939439 0)
(3.97793 -0.0101613 0)
(3.97796 -0.00997296 0)
(3.97797 -0.0096029 0)
(3.97798 -0.00977515 0)
(3.978 -0.00989107 0)
(3.97806 -0.00996934 0)
(3.97818 -0.0101654 0)
(3.97834 -0.0105538 0)
(3.98672 -0.0504034 0)
(3.98675 -0.050377 0)
(3.98678 -0.0502976 0)
(3.98682 -0.0502616 0)
(3.98686 -0.0503274 0)
(3.98688 -0.0503421 0)
(3.98689 -0.0503389 0)
(3.9869 -0.0503473 0)
(3.9869 -0.0503495 0)
(3.9869 -0.0503553 0)
(3.9869 -0.0503543 0)
(3.9869 -0.0503657 0)
(3.98692 -0.0504148 0)
(3.98693 -0.0504454 0)
(3.98698 -0.0503689 0)
(3.98701 -0.0502765 0)
(3.98706 -0.0503107 0)
(3.98709 -0.0503544 0)
(3.98712 -0.0503093 0)
(3.98714 -0.0502741 0)
(3.98716 -0.0503044 0)
(3.98718 -0.0503191 0)
(3.9872 -0.0502733 0)
(3.9872 -0.0502061 0)
(3.9872 -0.0501478 0)
(3.9872 -0.050118 0)
(3.9872 -0.0501186 0)
(3.9872 -0.0501288 0)
(3.98724 -0.0501002 0)
(3.98727 -0.0500588 0)
(3.98727 -0.0499866 0)
(3.98726 -0.0498979 0)
(3.9873 -0.0498291 0)
(3.98733 -0.0497733 0)
(3.98737 -0.0496892 0)
(3.98741 -0.0496396 0)
(3.98743 -0.0495135 0)
(3.98748 -0.049377 0)
(3.98752 -0.049197 0)
(3.98755 -0.0489611 0)
(3.98755 -0.0486552 0)
(3.98749 -0.048172 0)
(3.98737 -0.0475688 0)
(3.98715 -0.0465675 0)
(3.98685 -0.0452875 0)
(3.98649 -0.0436866 0)
(3.98591 -0.0413427 0)
(3.98545 -0.0391688 0)
(3.98441 -0.0350819 0)
(3.98392 -0.0331586 0)
(3.98251 -0.0274753 0)
(3.98221 -0.026644 0)
(3.98089 -0.0207317 0)
(3.98073 -0.020894 0)
(3.97982 -0.0168414 0)
(3.98021 -0.0173703 0)
(3.97919 -0.015013 0)
(3.97934 -0.0142624 0)
(3.97878 -0.0132479 0)
(3.97869 -0.0126937 0)
(3.97841 -0.0120274 0)
(3.97828 -0.0116725 0)
(3.97803 -0.0112129 0)
(3.97771 -0.0109245 0)
(3.97716 -0.00964318 0)
(3.97686 -0.00912916 0)
(3.97677 -0.00862874 0)
(3.97668 -0.0084337 0)
(3.97662 -0.00818849 0)
(3.97692 -0.00846328 0)
(3.9771 -0.00898178 0)
(3.97732 -0.00959793 0)
(3.97742 -0.0096215 0)
(3.97724 -0.00912097 0)
(3.97731 -0.00855435 0)
(3.97736 -0.00863688 0)
(3.97745 -0.00926048 0)
(3.97772 -0.0106384 0)
(3.97769 -0.0104937 0)
(3.97748 -0.00980115 0)
(3.97748 -0.00914867 0)
(3.97748 -0.00854724 0)
(3.97768 -0.008828 0)
(3.97784 -0.00943705 0)
(3.97778 -0.00944477 0)
(3.97761 -0.00926655 0)
(3.97764 -0.00854757 0)
(3.97766 -0.00885641 0)
(3.97773 -0.00939614 0)
(3.97776 -0.0093934 0)
(3.97786 -0.00877446 0)
(3.97791 -0.00891735 0)
(3.97795 -0.00940791 0)
(3.97811 -0.010072 0)
(3.97815 -0.0100013 0)
(3.97822 -0.00954303 0)
(3.97821 -0.00971927 0)
(3.97827 -0.00990895 0)
(3.97837 -0.0101318 0)
(3.97856 -0.0104544 0)
(3.9884 -0.0499871 0)
(3.98842 -0.0500092 0)
(3.98844 -0.0499861 0)
(3.98848 -0.0499125 0)
(3.9885 -0.049874 0)
(3.98853 -0.0499251 0)
(3.98856 -0.0499304 0)
(3.98857 -0.0498889 0)
(3.98858 -0.0498803 0)
(3.98857 -0.0498608 0)
(3.98857 -0.0498544 0)
(3.98857 -0.049849 0)
(3.98858 -0.0498663 0)
(3.98861 -0.0499457 0)
(3.98863 -0.0500121 0)
(3.98869 -0.0499807 0)
(3.98873 -0.04992 0)
(3.98876 -0.0499191 0)
(3.98878 -0.0499438 0)
(3.98882 -0.0499264 0)
(3.98884 -0.0498775 0)
(3.98883 -0.0498734 0)
(3.98882 -0.0498626 0)
(3.98882 -0.0497828 0)
(3.98881 -0.0496905 0)
(3.98883 -0.0497152 0)
(3.98886 -0.0497966 0)
(3.98886 -0.049814 0)
(3.98889 -0.0497704 0)
(3.98891 -0.0497049 0)
(3.9889 -0.0496435 0)
(3.9889 -0.049615 0)
(3.9889 -0.0496227 0)
(3.9889 -0.0496111 0)
(3.9889 -0.0495645 0)
(3.9889 -0.0495551 0)
(3.98891 -0.0495363 0)
(3.98894 -0.0494863 0)
(3.98899 -0.0494436 0)
(3.98909 -0.0494071 0)
(3.98916 -0.0493337 0)
(3.9892 -0.0492704 0)
(3.98921 -0.0491722 0)
(3.98918 -0.0490024 0)
(3.98914 -0.0487031 0)
(3.98912 -0.0483553 0)
(3.98904 -0.047662 0)
(3.98887 -0.046665 0)
(3.98852 -0.0450833 0)
(3.98803 -0.0433877 0)
(3.98709 -0.0401998 0)
(3.98655 -0.038012 0)
(3.98512 -0.032363 0)
(3.98489 -0.0307743 0)
(3.98316 -0.0236752 0)
(3.98332 -0.0228973 0)
(3.98182 -0.0165245 0)
(3.9819 -0.0164209 0)
(3.9808 -0.0128275 0)
(3.98028 -0.0123467 0)
(3.97993 -0.0111734 0)
(3.97939 -0.0121221 0)
(3.97904 -0.0122297 0)
(3.97876 -0.0125111 0)
(3.97872 -0.0119471 0)
(3.97849 -0.0114675 0)
(3.9783 -0.0106785 0)
(3.97789 -0.00941493 0)
(3.97761 -0.00844762 0)
(3.97763 -0.00820111 0)
(3.97779 -0.0084814 0)
(3.97803 -0.00881105 0)
(3.97826 -0.00924553 0)
(3.97818 -0.00919931 0)
(3.97802 -0.0088259 0)
(3.9781 -0.00861772 0)
(3.97815 -0.00884815 0)
(3.97824 -0.0093946 0)
(3.97833 -0.0103109 0)
(3.97827 -0.0103117 0)
(3.97802 -0.00978839 0)
(3.97802 -0.00919365 0)
(3.97823 -0.00899202 0)
(3.97834 -0.00915888 0)
(3.97836 -0.00943869 0)
(3.9783 -0.00937646 0)
(3.9782 -0.00924972 0)
(3.97827 -0.00883831 0)
(3.97829 -0.00900944 0)
(3.97837 -0.00928152 0)
(3.97844 -0.00926713 0)
(3.97854 -0.00901619 0)
(3.97858 -0.00918595 0)
(3.97863 -0.00962047 0)
(3.97877 -0.010008 0)
(3.97881 -0.0100487 0)
(3.97887 -0.00967434 0)
(3.97891 -0.00978845 0)
(3.97898 -0.00996273 0)
(3.97914 -0.0103517 0)
(3.98998 -0.0494522 0)
(3.99 -0.049414 0)
(3.99 -0.0493915 0)
(3.99001 -0.0494307 0)
(3.99002 -0.0494398 0)
(3.99005 -0.0493827 0)
(3.99007 -0.0493583 0)
(3.99008 -0.0493476 0)
(3.9901 -0.0492977 0)
(3.99011 -0.049254 0)
(3.99013 -0.0492939 0)
(3.99017 -0.0493608 0)
(3.9902 -0.04944 0)
(3.99018 -0.0495414 0)
(3.99016 -0.0496121 0)
(3.99022 -0.0495226 0)
(3.99025 -0.049456 0)
(3.99028 -0.0495273 0)
(3.9903 -0.0495692 0)
(3.99034 -0.0494709 0)
(3.99035 -0.0494347 0)
(3.99034 -0.0494688 0)
(3.99032 -0.0494397 0)
(3.99031 -0.0493885 0)
(3.9903 -0.0493461 0)
(3.9903 -0.0493027 0)
(3.99033 -0.0493381 0)
(3.99035 -0.0494126 0)
(3.99034 -0.0494252 0)
(3.99039 -0.0493648 0)
(3.99041 -0.04927 0)
(3.9904 -0.0492106 0)
(3.99041 -0.0492091 0)
(3.99042 -0.0492778 0)
(3.99041 -0.0493268 0)
(3.99039 -0.0493279 0)
(3.99039 -0.0493116 0)
(3.99039 -0.0492991 0)
(3.9904 -0.0493045 0)
(3.99043 -0.0493182 0)
(3.99045 -0.0493399 0)
(3.99046 -0.0493428 0)
(3.99045 -0.0493501 0)
(3.99044 -0.0493643 0)
(3.99046 -0.0493262 0)
(3.99053 -0.049371 0)
(3.99062 -0.0492623 0)
(3.99059 -0.0491495 0)
(3.99051 -0.0489035 0)
(3.9904 -0.0484568 0)
(3.99018 -0.0476753 0)
(3.98988 -0.0464666 0)
(3.98936 -0.0444849 0)
(3.9888 -0.0422465 0)
(3.98773 -0.0381144 0)
(3.9872 -0.0355342 0)
(3.98586 -0.0294845 0)
(3.98548 -0.0276662 0)
(3.98433 -0.0217885 0)
(3.98428 -0.0218492 0)
(3.98349 -0.0180974 0)
(3.98357 -0.0179511 0)
(3.98229 -0.0155318 0)
(3.98175 -0.0152431 0)
(3.98127 -0.0137653 0)
(3.98064 -0.0121316 0)
(3.9804 -0.0112722 0)
(3.97993 -0.0106513 0)
(3.9792 -0.00898913 0)
(3.97857 -0.00870013 0)
(3.97854 -0.00899321 0)
(3.97886 -0.0088885 0)
(3.97901 -0.00892862 0)
(3.9793 -0.00892456 0)
(3.97925 -0.00883124 0)
(3.97925 -0.00883166 0)
(3.97931 -0.008919 0)
(3.97943 -0.0093072 0)
(3.97951 -0.00971663 0)
(3.97956 -0.00996846 0)
(3.9794 -0.00994652 0)
(3.97919 -0.00976021 0)
(3.97899 -0.00939055 0)
(3.97913 -0.00916517 0)
(3.97921 -0.00922511 0)
(3.97925 -0.00933794 0)
(3.97921 -0.00927999 0)
(3.97921 -0.00924107 0)
(3.97931 -0.00901726 0)
(3.97935 -0.00912713 0)
(3.97938 -0.00915835 0)
(3.97943 -0.00909615 0)
(3.97947 -0.00910651 0)
(3.97953 -0.00935905 0)
(3.97958 -0.0098588 0)
(3.97964 -0.00994303 0)
(3.97972 -0.00993708 0)
(3.97979 -0.0098266 0)
(3.97982 -0.00988788 0)
(3.97993 -0.0101655 0)
(3.99121 -0.0487642 0)
(3.99121 -0.0487497 0)
(3.99121 -0.0487066 0)
(3.99122 -0.0487096 0)
(3.99121 -0.04875 0)
(3.99123 -0.0487227 0)
(3.99125 -0.0486631 0)
(3.99128 -0.0486762 0)
(3.99132 -0.048698 0)
(3.99135 -0.0486883 0)
(3.99139 -0.048675 0)
(3.9914 -0.0486582 0)
(3.99142 -0.0487061 0)
(3.99146 -0.0488098 0)
(3.99145 -0.048894 0)
(3.99148 -0.0488475 0)
(3.9915 -0.0488128 0)
(3.99152 -0.0488868 0)
(3.99153 -0.0489057 0)
(3.99158 -0.0487886 0)
(3.99158 -0.0487208 0)
(3.99157 -0.0486866 0)
(3.99156 -0.048652 0)
(3.99155 -0.0486608 0)
(3.99154 -0.0486469 0)
(3.99154 -0.0486228 0)
(3.99155 -0.0486697 0)
(3.99156 -0.0486871 0)
(3.99156 -0.048596 0)
(3.99154 -0.048542 0)
(3.99152 -0.0485318 0)
(3.99152 -0.0485047 0)
(3.99152 -0.0484944 0)
(3.99156 -0.0485836 0)
(3.99156 -0.0486904 0)
(3.99158 -0.0487337 0)
(3.9916 -0.0487723 0)
(3.99165 -0.0488594 0)
(3.99165 -0.0490314 0)
(3.99167 -0.0491625 0)
(3.9917 -0.0492158 0)
(3.99174 -0.049244 0)
(3.99176 -0.0493127 0)
(3.99181 -0.0494075 0)
(3.99184 -0.0494234 0)
(3.99183 -0.0494295 0)
(3.99181 -0.0494061 0)
(3.99174 -0.0493947 0)
(3.99165 -0.0493017 0)
(3.99163 -0.0492756 0)
(3.99156 -0.049148 0)
(3.99152 -0.04906 0)
(3.99141 -0.0488257 0)
(3.99127 -0.0483295 0)
(3.99095 -0.0471475 0)
(3.9906 -0.0457018 0)
(3.98968 -0.0421996 0)
(3.98924 -0.0399457 0)
(3.98766 -0.0331472 0)
(3.98763 -0.0312229 0)
(3.98569 -0.0226296 0)
(3.98633 -0.0223141 0)
(3.9845 -0.0154259 0)
(3.98425 -0.0148373 0)
(3.98351 -0.0117029 0)
(3.98279 -0.0110606 0)
(3.98194 -0.0113175 0)
(3.98121 -0.0123033 0)
(3.98077 -0.0111984 0)
(3.98082 -0.0109966 0)
(3.98071 -0.0104014 0)
(3.98069 -0.00904429 0)
(3.98074 -0.00859176 0)
(3.98081 -0.0085068 0)
(3.98081 -0.00873805 0)
(3.98083 -0.00893533 0)
(3.98079 -0.0091283 0)
(3.9808 -0.009193 0)
(3.98081 -0.00926956 0)
(3.98086 -0.00948473 0)
(3.98095 -0.00992188 0)
(3.98074 -0.00993073 0)
(3.98046 -0.0098255 0)
(3.98031 -0.00962668 0)
(3.98039 -0.0092728 0)
(3.98036 -0.00938412 0)
(3.9804 -0.00939641 0)
(3.9804 -0.00926834 0)
(3.98044 -0.00914623 0)
(3.98046 -0.00911485 0)
(3.98051 -0.00919187 0)
(3.98048 -0.00918187 0)
(3.98049 -0.00916136 0)
(3.98051 -0.00921435 0)
(3.98054 -0.00952252 0)
(3.98064 -0.0100081 0)
(3.98067 -0.00999934 0)
(3.98071 -0.00993087 0)
(3.98075 -0.00992003 0)
(3.98081 -0.010081 0)
(3.99209 -0.0479519 0)
(3.99208 -0.0479952 0)
(3.99207 -0.0479927 0)
(3.99207 -0.0479873 0)
(3.99212 -0.0480693 0)
(3.99214 -0.0481364 0)
(3.99217 -0.0481153 0)
(3.9922 -0.0481121 0)
(3.99225 -0.048155 0)
(3.99229 -0.0481594 0)
(3.99232 -0.0481297 0)
(3.99234 -0.0481464 0)
(3.99246 -0.0482524 0)
(3.9925 -0.0483778 0)
(3.9925 -0.0484313 0)
(3.99252 -0.0484017 0)
(3.99253 -0.048385 0)
(3.99256 -0.0484501 0)
(3.99257 -0.0485133 0)
(3.9926 -0.0484611 0)
(3.9926 -0.0484261 0)
(3.99262 -0.0485015 0)
(3.99263 -0.0485487 0)
(3.99264 -0.0485243 0)
(3.99264 -0.048536 0)
(3.99264 -0.0485581 0)
(3.99265 -0.0485318 0)
(3.99266 -0.0484817 0)
(3.99264 -0.0484531 0)
(3.99261 -0.0484302 0)
(3.99257 -0.0484177 0)
(3.99253 -0.0484519 0)
(3.99252 -0.0485483 0)
(3.99253 -0.0486243 0)
(3.99254 -0.0486603 0)
(3.99252 -0.048733 0)
(3.99251 -0.0488333 0)
(3.99257 -0.0488906 0)
(3.99258 -0.0490085 0)
(3.99256 -0.0491377 0)
(3.99259 -0.0492167 0)
(3.99265 -0.0492869 0)
(3.9927 -0.0493944 0)
(3.99276 -0.0495178 0)
(3.99284 -0.0496338 0)
(3.99288 -0.0497392 0)
(3.99291 -0.0497576 0)
(3.99292 -0.0497591 0)
(3.99294 -0.0497555 0)
(3.99286 -0.049719 0)
(3.99269 -0.0496489 0)
(3.99246 -0.0494941 0)
(3.99236 -0.0494172 0)
(3.99235 -0.0493251 0)
(3.99231 -0.049266 0)
(3.99223 -0.0492095 0)
(3.99209 -0.0488037 0)
(3.99189 -0.047858 0)
(3.99136 -0.04562 0)
(3.99088 -0.0429703 0)
(3.98965 -0.0377568 0)
(3.98907 -0.0345307 0)
(3.98751 -0.027516 0)
(3.98733 -0.0265536 0)
(3.98615 -0.02058 0)
(3.98624 -0.0206116 0)
(3.98554 -0.0177379 0)
(3.98563 -0.017073 0)
(3.98424 -0.0143538 0)
(3.98347 -0.0129121 0)
(3.98306 -0.0104434 0)
(3.98289 -0.00957161 0)
(3.98247 -0.00897718 0)
(3.98228 -0.00912481 0)
(3.98207 -0.00918387 0)
(3.98188 -0.00915838 0)
(3.98185 -0.00912368 0)
(3.98195 -0.00900168 0)
(3.98192 -0.00907196 0)
(3.98195 -0.00931066 0)
(3.98206 -0.00959172 0)
(3.98212 -0.00989261 0)
(3.98202 -0.00986077 0)
(3.98182 -0.00970423 0)
(3.98158 -0.00965557 0)
(3.98155 -0.00941039 0)
(3.98155 -0.009405 0)
(3.98157 -0.00930886 0)
(3.98156 -0.00922005 0)
(3.98157 -0.0091459 0)
(3.98159 -0.00915225 0)
(3.98157 -0.00912885 0)
(3.98154 -0.00911624 0)
(3.98152 -0.00915657 0)
(3.98152 -0.00939687 0)
(3.98156 -0.00968009 0)
(3.98166 -0.0100072 0)
(3.98166 -0.0100294 0)
(3.98165 -0.00993162 0)
(3.98168 -0.0100039 0)
(3.99274 -0.0475257 0)
(3.99275 -0.0475551 0)
(3.99274 -0.0475828 0)
(3.99275 -0.0475839 0)
(3.99275 -0.0475747 0)
(3.99278 -0.0476129 0)
(3.99279 -0.047645 0)
(3.99281 -0.0476221 0)
(3.99283 -0.0476126 0)
(3.99288 -0.0476645 0)
(3.99291 -0.0476829 0)
(3.99296 -0.0477105 0)
(3.993 -0.0477438 0)
(3.99303 -0.0477865 0)
(3.99305 -0.0478533 0)
(3.99304 -0.0479039 0)
(3.99305 -0.0478917 0)
(3.99306 -0.0478935 0)
(3.9931 -0.0479748 0)
(3.99312 -0.0479816 0)
(3.99314 -0.047959 0)
(3.99317 -0.0479902 0)
(3.99317 -0.0480193 0)
(3.9932 -0.0480839 0)
(3.9932 -0.048161 0)
(3.99321 -0.0481777 0)
(3.99322 -0.0481741 0)
(3.99323 -0.0482018 0)
(3.99322 -0.0482062 0)
(3.99319 -0.0482115 0)
(3.99317 -0.0482755 0)
(3.99314 -0.0483222 0)
(3.99308 -0.0482996 0)
(3.99304 -0.0483607 0)
(3.99301 -0.0484351 0)
(3.99296 -0.0484579 0)
(3.99292 -0.0485246 0)
(3.99294 -0.0485923 0)
(3.99294 -0.0486699 0)
(3.9929 -0.0487719 0)
(3.99292 -0.0489055 0)
(3.99298 -0.0489849 0)
(3.99307 -0.0490642 0)
(3.99315 -0.0492081 0)
(3.99323 -0.0493895 0)
(3.99333 -0.0495272 0)
(3.99343 -0.0496462 0)
(3.99349 -0.0497239 0)
(3.99355 -0.0497447 0)
(3.99361 -0.0497436 0)
(3.99359 -0.0497257 0)
(3.99344 -0.0496867 0)
(3.99324 -0.0495823 0)
(3.9931 -0.0494809 0)
(3.99302 -0.0494739 0)
(3.99289 -0.0494787 0)
(3.99285 -0.0495819 0)
(3.99291 -0.0497871 0)
(3.99297 -0.0496264 0)
(3.99294 -0.0490386 0)
(3.9926 -0.0474857 0)
(3.99204 -0.0452105 0)
(3.99081 -0.0407054 0)
(3.98999 -0.0368905 0)
(3.98808 -0.029405 0)
(3.98803 -0.0271495 0)
(3.98646 -0.0181508 0)
(3.987 -0.017662 0)
(3.98587 -0.0132437 0)
(3.98466 -0.0112085 0)
(3.9842 -0.0102964 0)
(3.98347 -0.0106455 0)
(3.98285 -0.010376 0)
(3.98317 -0.0106991 0)
(3.98287 -0.00991879 0)
(3.98276 -0.00944206 0)
(3.98273 -0.0088543 0)
(3.98275 -0.00876168 0)
(3.98268 -0.00913369 0)
(3.98268 -0.00935912 0)
(3.98271 -0.00952349 0)
(3.98275 -0.00954694 0)
(3.98287 -0.00986352 0)
(3.98277 -0.00991051 0)
(3.98261 -0.0098829 0)
(3.98262 -0.00973691 0)
(3.98246 -0.00933542 0)
(3.9825 -0.00924782 0)
(3.98252 -0.00921709 0)
(3.98256 -0.00921621 0)
(3.9825 -0.00912375 0)
(3.98248 -0.00911817 0)
(3.98244 -0.00913272 0)
(3.98241 -0.0091182 0)
(3.98233 -0.00928539 0)
(3.98237 -0.00955199 0)
(3.98247 -0.00980183 0)
(3.98249 -0.0100411 0)
(3.98247 -0.00997234 0)
(3.98244 -0.0100125 0)
(3.99294 -0.0469803 0)
(3.99295 -0.0470023 0)
(3.99295 -0.0470392 0)
(3.99295 -0.0470447 0)
(3.99296 -0.047057 0)
(3.99298 -0.0470909 0)
(3.99299 -0.0471222 0)
(3.993 -0.047129 0)
(3.99302 -0.0471494 0)
(3.99302 -0.0471693 0)
(3.99304 -0.0472022 0)
(3.99306 -0.0472156 0)
(3.9931 -0.0472351 0)
(3.99311 -0.0472938 0)
(3.99313 -0.0473263 0)
(3.99314 -0.0473234 0)
(3.99313 -0.0473417 0)
(3.99312 -0.0474136 0)
(3.99315 -0.0474711 0)
(3.9932 -0.0474935 0)
(3.99323 -0.0475024 0)
(3.99326 -0.0475211 0)
(3.99329 -0.0475495 0)
(3.99333 -0.0475917 0)
(3.99334 -0.0476527 0)
(3.99334 -0.0476693 0)
(3.99335 -0.0476755 0)
(3.99336 -0.0476778 0)
(3.99336 -0.0477002 0)
(3.99336 -0.0477736 0)
(3.99335 -0.0478216 0)
(3.99332 -0.047792 0)
(3.99329 -0.0478105 0)
(3.99325 -0.0479171 0)
(3.99318 -0.0479945 0)
(3.99306 -0.0479968 0)
(3.99298 -0.0480866 0)
(3.99298 -0.0482564 0)
(3.99294 -0.0483192 0)
(3.99288 -0.0483996 0)
(3.99292 -0.0486073 0)
(3.99298 -0.0487599 0)
(3.99307 -0.0488985 0)
(3.99314 -0.0491125 0)
(3.99322 -0.049302 0)
(3.99333 -0.049462 0)
(3.99345 -0.0496608 0)
(3.99358 -0.0498917 0)
(3.99365 -0.0499939 0)
(3.99372 -0.0499964 0)
(3.9938 -0.0499629 0)
(3.99377 -0.0499339 0)
(3.99364 -0.0499856 0)
(3.99347 -0.0499405 0)
(3.99333 -0.0498869 0)
(3.99328 -0.0498626 0)
(3.99322 -0.0498417 0)
(3.9932 -0.0499445 0)
(3.99324 -0.0499159 0)
(3.99339 -0.0500907 0)
(3.99348 -0.0499487 0)
(3.99342 -0.0494783 0)
(3.99316 -0.0484345 0)
(3.99267 -0.0464559 0)
(3.99153 -0.0424769 0)
(3.99063 -0.039198 0)
(3.989 -0.0327108 0)
(3.9884 -0.0295238 0)
(3.98729 -0.0229912 0)
(3.98776 -0.0232531 0)
(3.98688 -0.0186233 0)