/*--------------------------------*- C++ -*----------------------------------*\
  =========                 |
  \\      /  F ield         | OpenFOAM: The Open Source CFD Toolbox
   \\    /   O peration     | Website:  https://openfoam.org
    \\  /    A nd           | Version:  7
     \\/     M anipulation  |
\*---------------------------------------------------------------------------*/
FoamFile
{
    version     2.0;
    format      ascii;
    class       volScalarField;
    location    "9.8";
    object      rho;
}
// * * * * * * * * * * * * * * * * * * * * * * * * * * * * * * * * * * * * * //

dimensions      [1 -3 0 0 0 0 0];

internalField   nonuniform List<scalar> 
8400
(
0.232954
0.329933
0.422591
0.520016
0.594507
0.661195
0.713683
0.756867
0.791565
0.818955
0.829429
0.842136
0.859208
0.872682
0.885261
0.915557
0.949644
0.971949
0.980212
0.979558
0.981018
0.983999
0.99584
1.01723
1.04283
1.06493
1.08801
1.10988
1.11858
1.1192
0.154289
0.157874
0.168567
0.190091
0.238004
0.298247
0.385427
0.482848
0.574507
0.660101
0.733405
0.791609
0.837159
0.869423
0.882431
0.886522
0.88192
0.864181
0.84364
0.847408
0.866501
0.894142
0.92421
0.943795
0.961808
0.978818
0.995804
1.00528
1.00912
1.02358
0.169293
0.17056
0.17202
0.174773
0.175776
0.175385
0.173441
0.179811
0.202911
0.243976
0.31513
0.414336
0.521786
0.625016
0.7095
0.764529
0.798322
0.800081
0.801587
0.813915
0.815894
0.824081
0.837763
0.852455
0.876565
0.898315
0.916415
0.92714
0.930443
0.945734
0.169399
0.170612
0.17191
0.171727
0.171149
0.170651
0.169211
0.166692
0.165998
0.165879
0.166139
0.167246
0.180924
0.220246
0.299527
0.408196
0.54131
0.671359
0.752201
0.807113
0.818374
0.813878
0.813276
0.81875
0.841623
0.856406
0.870722
0.884058
0.893341
0.909861
0.168851
0.169723
0.169494
0.168126
0.166614
0.166437
0.166467
0.165413
0.164823
0.164748
0.165385
0.168639
0.175428
0.179856
0.182218
0.183813
0.205613
0.27783
0.401383
0.554207
0.687714
0.755631
0.795302
0.833655
0.8762
0.864264
0.879921
0.900265
0.909271
0.920493
0.170916
0.170444
0.169578
0.167327
0.165919
0.166287
0.168434
0.172621
0.175711
0.178109
0.183182
0.193172
0.203135
0.213897
0.221269
0.22077
0.221043
0.224685
0.228033
0.243015
0.314095
0.450177
0.614637
0.755113
0.835031
0.867539
0.91444
0.954264
0.950405
0.953124
0.181737
0.182071
0.183273
0.18543
0.188046
0.192293
0.19881
0.20786
0.217839
0.225276
0.229584
0.230229
0.230114
0.234864
0.242961
0.242558
0.240809
0.242921
0.254468
0.269558
0.277334
0.281823
0.302729
0.37733
0.513929
0.705474
0.835998
0.911776
0.985234
1.04536
0.22529
0.229632
0.232931
0.235335
0.235615
0.234974
0.234932
0.237342
0.242589
0.250635
0.255798
0.253264
0.250651
0.253213
0.264422
0.277977
0.286772
0.295484
0.307593
0.318892
0.324345
0.326905
0.330822
0.329367
0.327812
0.35768
0.440812
0.614864
0.818311
1.00184
0.264289
0.26906
0.2747
0.27772
0.278473
0.275526
0.271144
0.271225
0.274489
0.285352
0.299799
0.308186
0.313881
0.319383
0.327138
0.337007
0.343072
0.346166
0.350407
0.351547
0.349783
0.346975
0.348498
0.352751
0.360144
0.373288
0.379424
0.383552
0.413166
0.639558
0.316615
0.322349
0.331856
0.342557
0.347084
0.346824
0.344275
0.344058
0.346593
0.353448
0.363879
0.371866
0.372666
0.371688
0.372701
0.3753
0.375162
0.372118
0.372458
0.375126
0.378559
0.382863
0.391307
0.404112
0.418147
0.424414
0.427337
0.426503
0.425697
0.429062
0.389217
0.391242
0.397085
0.408625
0.416866
0.417758
0.41479
0.409386
0.408901
0.410891
0.417982
0.419661
0.417459
0.41707
0.419234
0.425187
0.429848
0.434057
0.439562
0.447941
0.45671
0.463202
0.466976
0.467921
0.466273
0.463492
0.461839
0.462236
0.465085
0.474298
0.474304
0.474722
0.477197
0.485222
0.495388
0.498654
0.498514
0.492032
0.485398
0.485516
0.491654
0.498216
0.500718
0.50184
0.503221
0.507971
0.510496
0.510388
0.510595
0.5119
0.511224
0.509483
0.506108
0.502398
0.497864
0.498799
0.502095
0.508673
0.516546
0.52382
0.576126
0.5732
0.573684
0.577324
0.585909
0.592898
0.594344
0.590606
0.580318
0.574821
0.575494
0.57846
0.578218
0.574978
0.572616
0.571976
0.57072
0.566287
0.562573
0.561717
0.561171
0.559966
0.56067
0.562675
0.566985
0.572771
0.574615
0.574379
0.572063
0.565006
0.701595
0.689238
0.686978
0.68848
0.694842
0.701247
0.702105
0.698943
0.687532
0.677415
0.676915
0.677655
0.67585
0.669208
0.667563
0.667999
0.667066
0.662319
0.65829
0.657027
0.655956
0.653739
0.651018
0.647887
0.644651
0.64072
0.63649
0.630961
0.625574
0.619936
0.85442
0.828086
0.819845
0.819513
0.826775
0.832324
0.830904
0.823511
0.80777
0.795936
0.79605
0.796688
0.79162
0.77518
0.769186
0.76839
0.765424
0.757591
0.748662
0.741559
0.736095
0.730635
0.723229
0.716211
0.71005
0.703661
0.698575
0.69177
0.68872
0.686716
1.02936
1.00191
0.975918
0.969685
0.974832
0.98494
0.983543
0.970726
0.946869
0.929837
0.929179
0.930566
0.924529
0.901253
0.887872
0.885675
0.881815
0.870871
0.859244
0.84886
0.839466
0.831831
0.823346
0.813836
0.804497
0.796205
0.787568
0.77946
0.771391
0.755805
1.22304
1.20084
1.16247
1.14035
1.14051
1.15149
1.15407
1.14299
1.11577
1.08455
1.07758
1.07949
1.07357
1.0458
1.02477
1.0195
1.01327
0.99959
0.98178
0.96703
0.953608
0.941424
0.929832
0.914726
0.900029
0.887407
0.875316
0.862197
0.849435
0.828696
1.43001
1.41561
1.3868
1.34568
1.32382
1.32497
1.33357
1.32891
1.30539
1.26375
1.24479
1.24565
1.23911
1.20754
1.17821
1.16888
1.1591
1.14218
1.12007
1.09941
1.08136
1.06493
1.04836
1.02931
1.0099
0.991772
0.974804
0.956543
0.940719
0.916023
1.65385
1.63909
1.61944
1.59125
1.54993
1.53434
1.53582
1.52874
1.50358
1.45814
1.43187
1.42953
1.42005
1.38792
1.35208
1.33305
1.31588
1.29381
1.27047
1.24511
1.22125
1.19895
1.17663
1.15402
1.12926
1.10623
1.08483
1.0624
1.04254
1.00942
1.90424
1.89144
1.86798
1.8377
1.81675
1.79595
1.77325
1.75226
1.72864
1.68956
1.6557
1.63849
1.62018
1.58405
1.54664
1.51934
1.49149
1.46191
1.43377
1.40454
1.37406
1.34568
1.31763
1.28886
1.26063
1.23225
1.20539
1.17814
1.1534
1.1133
2.05191
2.04578
2.03682
2.02654
2.01797
2.0084
1.99539
1.97874
1.9584
1.93261
1.90395
1.87606
1.84709
1.81358
1.77619
1.74071
1.70323
1.66371
1.62513
1.5876
1.54953
1.51229
1.47677
1.44
1.40486
1.37105
1.33792
1.30491
1.27609
1.22778
2.05161
2.04755
2.04626
2.04832
2.04949
2.04956
2.04633
2.04339
2.04212
2.0403
2.03516
2.02537
2.01454
2.00101
1.98057
1.9542
1.92577
1.89211
1.85197
1.808
1.76255
1.71584
1.66825
1.6218
1.57553
1.53079
1.48876
1.44669
1.41084
1.35289
1.96613
1.97131
1.96795
1.96474
1.97492
1.99214
2.00419
2.01711
2.02032
2.01774
2.02381
2.02856
2.0275
2.02174
2.02016
2.01959
2.01782
2.01208
2.00068
1.98285
1.95865
1.92758
1.88805
1.8408
1.78809
1.7325
1.6768
1.62098
1.57306
1.49735
1.65321
1.67151
1.68677
1.7096
1.73229
1.75365
1.78168
1.82139
1.84388
1.85716
1.87943
1.91681
1.95087
1.95687
1.96478
1.98197
1.99689
2.00192
2.00076
2.00041
1.99963
1.99724
1.99137
1.97965
1.95943
1.92849
1.88592
1.83217
1.77745
1.68089
1.43303
1.43986
1.44713
1.4553
1.46527
1.4762
1.49063
1.51003
1.53258
1.55648
1.58155
1.61221
1.65256
1.69309
1.72929
1.7688
1.8106
1.85491
1.88789
1.92001
1.94431
1.96076
1.9751
1.97861
1.97819
1.97643
1.97099
1.95894
1.93976
1.87574
1.40094
1.4012
1.40159
1.40207
1.40273
1.40357
1.40475
1.40654
1.40919
1.41289
1.41754
1.42389
1.43304
1.447
1.46353
1.48584
1.51385
1.55036
1.59382
1.64163
1.6971
1.74972
1.80692
1.85418
1.89357
1.92732
1.94352
1.95221
1.95404
1.94749
1.40001
1.40002
1.40002
1.40002
1.40003
1.40004
1.40006
1.40009
1.40014
1.40022
1.40034
1.40053
1.40087
1.40149
1.40251
1.40421
1.40713
1.41193
1.42002
1.43207
1.45136
1.47877
1.51581
1.56633
1.62439
1.68951
1.75727
1.81898
1.86585
1.91044
1.40001
1.40001
1.40001
1.40001
1.40001
1.40001
1.40001
1.40001
1.40001
1.40001
1.40001
1.40001
1.40001
1.40002
1.40003
1.40005
1.4001
1.4002
1.4004
1.40085
1.40179
1.40378
1.4077
1.41529
1.42907
1.45238
1.48828
1.541
1.60141
1.71306
1.40001
1.40001
1.40001
1.40001
1.40001
1.40001
1.40001
1.40001
1.40001
1.40001
1.40001
1.40001
1.40001
1.40001
1.40001
1.40001
1.40001
1.40001
1.40001
1.40001
1.40002
1.40005
1.40011
1.40029
1.40077
1.40201
1.40496
1.41205
1.42441
1.47484
1.40001
1.40001
1.40001
1.40001
1.40001
1.40001
1.40001
1.40001
1.40001
1.40001
1.40001
1.40001
1.40001
1.40001
1.40001
1.40001
1.40001
1.40001
1.40001
1.40001
1.40001
1.40001
1.40001
1.40001
1.40001
1.40002
1.40007
1.40023
1.40065
1.4052
0.149743
0.151482
0.16835
0.16842
0.166798
0.170805
0.180819
0.219712
0.260238
0.313514
0.389166
0.480732
0.594923
0.728293
0.87973
1.04899
1.23891
1.44529
1.67413
1.92583
2.0579
2.05435
1.92918
1.61573
1.42537
1.40072
1.40001
1.40001
1.40001
1.40001
0.148233
0.152345
0.170168
0.16767
0.164643
0.171229
0.184339
0.222703
0.267133
0.332134
0.423117
0.522722
0.636167
0.764414
0.913191
1.08463
1.27645
1.48718
1.72983
1.97505
2.06684
2.05097
1.86661
1.55765
1.41426
1.40028
1.40001
1.40001
1.40001
1.40001
0.147709
0.152193
0.171171
0.1666
0.162542
0.170699
0.183888
0.222483
0.277269
0.354642
0.441656
0.538058
0.648411
0.775869
0.926904
1.10338
1.30304
1.53049
1.79284
2.01455
2.06972
2.02774
1.82015
1.52163
1.40867
1.40014
1.40001
1.40001
1.40001
1.40001
0.147865
0.152759
0.172113
0.165299
0.160228
0.169172
0.182818
0.230179
0.294899
0.36453
0.446063
0.543012
0.654028
0.784737
0.942768
1.13662
1.36088
1.61159
1.86675
2.0461
2.07147
2.00736
1.77818
1.48855
1.40477
1.40007
1.40001
1.40001
1.40001
1.40001
0.147982
0.153036
0.171054
0.163549
0.158524
0.168722
0.187196
0.246158
0.303099
0.365623
0.445765
0.545132
0.664181
0.819954
1.00893
1.2227
1.44645
1.67729
1.919
2.0666
2.07324
1.99567
1.72373
1.45782
1.40236
1.40003
1.40001
1.40001
1.40001
1.40001
0.147948
0.153451
0.169717
0.162352
0.157388
0.169476
0.201767
0.255887
0.306971
0.36586
0.456571
0.574281
0.728681
0.898504
1.08022
1.27895
1.49165
1.72123
1.96435
2.08071
2.07638
1.97795
1.65224
1.4353
1.40112
1.40002
1.40001
1.40001
1.40001
1.40001
0.147993
0.154601
0.169576
0.162
0.157106
0.173987
0.211954
0.258324
0.313285
0.395284
0.507689
0.634924
0.778341
0.936391
1.11307
1.31042
1.53033
1.77906
2.01456
2.08818
2.07294
1.90576
1.59195
1.42133
1.40053
1.40001
1.40001
1.40001
1.40001
1.40001
0.148756
0.1566
0.169943
0.162381
0.158243
0.177813
0.214588
0.260112
0.329887
0.433821
0.540346
0.65967
0.796308
0.954314
1.1381
1.34895
1.59915
1.86258
2.05257
2.08973
2.04923
1.84727
1.5445
1.4122
1.40024
1.40001
1.40001
1.40001
1.40001
1.40001
0.150599
0.157558
0.170639
0.162275
0.158951
0.17865
0.214437
0.269293
0.35757
0.449042
0.549111
0.669006
0.807462
0.973983
1.18444
1.43082
1.68915
1.92481
2.07452
2.0884
2.02699
1.80318
1.5042
1.40662
1.40011
1.40001
1.40001
1.40001
1.40001
1.40001
0.151308
0.157658
0.170804
0.159797
0.156405
0.178531
0.216936
0.28999
0.370829
0.450147
0.549875
0.67734
0.841587
1.05289
1.28565
1.51844
1.74903
1.97456
2.09114
2.08842
2.01255
1.74551
1.46726
1.40319
1.40005
1.40001
1.40001
1.40001
1.40001
1.40001
0.150042
0.155354
0.168452
0.156824
0.15219
0.179042
0.227336
0.304349
0.37618
0.449583
0.572694
0.738383
0.934505
1.13708
1.34964
1.56914
1.80457
2.02905
2.10204
2.09433
1.98863
1.66177
1.43907
1.40138
1.40002
1.40001
1.40001
1.40001
1.40001
1.40001
0.146773
0.152082
0.164998
0.154749
0.15112
0.188421
0.242747
0.309008
0.381693
0.495224
0.646694
0.810554
0.987571
1.1789
1.39121
1.62733
1.88716
2.07127
2.10752
2.08938
1.90945
1.59403
1.42263
1.40061
1.40001
1.40001
1.40001
1.40001
1.40001
1.40001
0.144505
0.151689
0.162906
0.154531
0.154508
0.202934
0.249925
0.315495
0.408413
0.550584
0.687742
0.839361
1.01382
1.21349
1.45165
1.72331
1.95963
2.09364
2.10792
2.0588
1.84556
1.54293
1.41238
1.40026
1.40001
1.40001
1.40001
1.40001
1.40001
1.40001
0.143691
0.15225
0.16194
0.155742
0.161812
0.211089
0.253359
0.336314
0.455376
0.573161
0.700989
0.857189
1.04512
1.2833
1.5549
1.80795
2.00849
2.10812
2.10408
2.02958
1.79163
1.4968
1.40606
1.4001
1.40001
1.40001
1.40001
1.40001
1.40001
1.40001
0.143944
0.155261
0.16127
0.156322
0.16424
0.212376
0.264194
0.366411
0.476729
0.577841
0.709225
0.896581
1.14138
1.4003
1.64182
1.8712
2.05311
2.11711
2.09914
2.00393
1.72049
1.45898
1.40275
1.40004
1.40001
1.40001
1.40001
1.40001
1.40001
1.40001
0.147113
0.158323
0.160412
0.155337
0.165181
0.211033
0.289967
0.391159
0.488726
0.592839
0.780187
1.01105
1.24634
1.4757
1.70448
1.94158
2.09414
2.12075
2.10308
1.9687
1.6357
1.433
1.40113
1.40002
1.40001
1.40001
1.40001
1.40001
1.40001
1.40001
0.150852
0.158531
0.158017
0.152188
0.173038
0.225296
0.316553
0.403008
0.502769
0.682226
0.881908
1.08787
1.30385
1.53457
1.78638
2.01486
2.11733
2.12197
2.09558
1.88222
1.565
1.41688
1.40043
1.40001
1.40001
1.40001
1.40001
1.40001
1.40001
1.40001
0.152349
0.153561
0.157161
0.152019
0.188036
0.253596
0.32811
0.420249
0.56685
0.753773
0.932047
1.13036
1.3582
1.62488
1.88445
2.06323
2.12437
2.12106
2.044
1.79887
1.50915
1.40795
1.40016
1.40001
1.40001
1.40001
1.40001
1.40001
1.40001
1.40001
0.151672
0.147919
0.157632
0.159802
0.199051
0.260937
0.331452
0.454235
0.634036
0.790136
0.963409
1.183
1.46196
1.74212
1.95898
2.09423
2.12617
2.10964
1.99792
1.7282
1.46754
1.40363
1.40006
1.40001
1.40001
1.40001
1.40001
1.40001
1.40001
1.40001
0.147756
0.14347
0.15856
0.168704
0.201115
0.25988
0.347072
0.510706
0.670357
0.811361
1.02493
1.30854
1.59237
1.83375
2.02023
2.11721
2.12631
2.09211
1.95822
1.6521
1.43807
1.40147
1.40002
1.40001
1.40001
1.40001
1.40001
1.40001
1.40001
1.40001
0.145601
0.138938
0.1585
0.171452
0.196019
0.257867
0.397342
0.558707
0.697769
0.889159
1.16069
1.43429
1.68438
1.91258
2.07685
2.13117
2.12985
2.08704
1.90386
1.57195
1.41851
1.40051
1.40001
1.40001
1.40001
1.40001
1.40001
1.40001
1.40001
1.40001
0.145182
0.133426
0.153487
0.170333
0.195144
0.301836
0.456845
0.591654
0.754501
1.01427
1.2665
1.51826
1.77041
1.99479
2.11683
2.13796
2.13429
2.07894
1.80113
1.50348
1.40759
1.40016
1.40001
1.40001
1.40001
1.40001
1.40001
1.40001
1.40001
1.40001
0.145276
0.126941
0.141907
0.167146
0.22744
0.368481
0.487042
0.630527
0.869896
1.10351
1.34198
1.61182
1.87868
2.05985
2.13624
2.14162
2.12794
1.99583
1.69846
1.45786
1.40298
1.40005
1.40001
1.40001
1.40001
1.40001
1.40001
1.40001
1.40001
1.40001
0.144678
0.123082
0.132345
0.175055
0.280879
0.395397
0.508619
0.708225
0.956371
1.17796
1.44776
1.74616
1.97468
2.10244
2.14153
2.14053
2.09566
1.91515
1.61705
1.43072
1.40115
1.40002
1.40001
1.40001
1.40001
1.40001
1.40001
1.40001
1.40001
1.40001
0.146494
0.122165
0.128497
0.204673
0.309103
0.402221
0.552646
0.811652
1.03723
1.29425
1.60344
1.86822
2.04475
2.12814
2.14188
2.12795
2.05852
1.85098
1.54663
1.4143
1.40037
1.40001
1.40001
1.40001
1.40001
1.40001
1.40001
1.40001
1.40001
1.40001
0.152697
0.12234
0.134786
0.223452
0.315615
0.417879
0.664774
0.903262
1.14596
1.45319
1.73428
1.95927
2.0965
2.14149
2.13992
2.11781
2.02793
1.76673
1.48298
1.40551
1.40011
1.40001
1.40001
1.40001
1.40001
1.40001
1.40001
1.40001
1.40001
1.40001
0.155106
0.119279
0.150076
0.228557
0.319443
0.520013
0.762885
0.998964
1.30197
1.58755
1.84209
2.0383
2.12945
2.14582
2.14362
2.12055
1.98286
1.6467
1.43846
1.4017
1.40003
1.40001
1.40001
1.40001
1.40001
1.40001
1.40001
1.40001
1.40001
1.40001
0.148305
0.113174
0.157081
0.236835
0.366438
0.627807
0.849036
1.12996
1.4413
1.71624
1.95441
2.09672
2.144
2.14693
2.14357
2.09783
1.85783
1.54958
1.41621
1.40049
1.40001
1.40001
1.40001
1.40001
1.40001
1.40001
1.40001
1.40001
1.40001
1.40001
0.138093
0.110436
0.156052
0.277243
0.490531
0.709065
0.952792
1.29119
1.5893
1.86068
2.04609
2.12856
2.14783
2.14732
2.1303
2.01425
1.74796
1.48813
1.40638
1.40014
1.40001
1.40001
1.40001
1.40001
1.40001
1.40001
1.40001
1.40001
1.40001
1.40001
0.117663
0.118436
0.160122
0.339019
0.571706
0.79385
1.12924
1.46122
1.75863
1.97872
2.09963
2.14423
2.14904
2.14113
2.1037
1.95248
1.66376
1.44565
1.4022
1.40004
1.40001
1.40001
1.40001
1.40001
1.40001
1.40001
1.40001
1.40001
1.40001
1.40001
0.088477
0.12717
0.222547
0.421668
0.655097
0.956661
1.31793
1.63854
1.90886
2.05717
2.12709
2.15237
2.15048
2.1327
2.07585
1.88408
1.56529
1.41796
1.40059
1.40001
1.40001
1.40001
1.40001
1.40001
1.40001
1.40001
1.40001
1.40001
1.40001
1.40001
0.0606697
0.13513
0.296077
0.507795
0.780722
1.16639
1.51088
1.81273
2.02142
2.10431
2.13999
2.1552
2.15499
2.13699
2.04852
1.75403
1.47684
1.40537
1.40013
1.40001
1.40001
1.40001
1.40001
1.40001
1.40001
1.40001
1.40001
1.40001
1.40001
1.40001
0.0405826
0.144088
0.360493
0.639056
1.0039
1.36991
1.70594
1.95723
2.0994
2.12579
2.14612
2.15437
2.15641
2.13188
1.93882
1.60848
1.43091
1.40139
1.40003
1.40001
1.40001
1.40001
1.40001
1.40001
1.40001
1.40001
1.40001
1.40001
1.40001
1.40001
0.0341654
0.198861
0.453223
0.80747
1.22707
1.59098
1.89347
2.06359
2.13808
2.13283
2.1514
2.14968
2.14367
2.0594
1.80067
1.51989
1.4118
1.40034
1.40001
1.40001
1.40001
1.40001
1.40001
1.40001
1.40001
1.40001
1.40001
1.40001
1.40001
1.40001
0.0399408
0.273879
0.617038
1.0589
1.47246
1.82168
2.02984
2.12284
2.14912
2.13605
2.15526
2.14673
2.11294
1.97693
1.69476
1.46023
1.40352
1.40007
1.40001
1.40001
1.40001
1.40001
1.40001
1.40001
1.40001
1.40001
1.40001
1.40001
1.40001
1.40001
0.0601638
0.383001
0.869291
1.3597
1.74347
1.99307
2.10664
2.14734
2.15334
2.13599
2.15594
2.14841
2.08415
1.89271
1.57717
1.42046
1.40075
1.40002
1.40001
1.40001
1.40001
1.40001
1.40001
1.40001
1.40001
1.40001
1.40001
1.40001
1.40001
1.40001
0.180367
0.61346
1.19583
1.65727
1.95734
2.09403
2.13933
2.15562
2.15462
2.13188
2.15509
2.15137
2.05699
1.7459
1.46893
1.40458
1.40012
1.40001
1.40001
1.40001
1.40001
1.40001
1.40001
1.40001
1.40001
1.40001
1.40001
1.40001
1.40001
1.40001
0.405915
0.969138
1.54957
1.92249
2.08324
2.13609
2.15026
2.15769
2.15447
2.12853
2.14564
2.12296
1.92829
1.57586
1.4203
1.40077
1.40002
1.40001
1.40001
1.40001
1.40001
1.40001
1.40001
1.40001
1.40001
1.40001
1.40001
1.40001
1.40001
1.40001
0.772614
1.39397
1.89206
2.08763
2.13553
2.14739
2.15318
2.15826
2.15036
2.12622
2.13068
2.0417
1.75237
1.47736
1.40506
1.40011
1.40001
1.40001
1.40001
1.40001
1.40001
1.40001
1.40001
1.40001
1.40001
1.40001
1.40001
1.40001
1.40001
1.40001
1.41168
1.87387
2.09378
2.1413
2.14684
2.14946
2.15346
2.15784
2.14684
2.12515
2.12372
1.94643
1.60759
1.42351
1.40064
1.40001
1.40001
1.40001
1.40001
1.40001
1.40001
1.40001
1.40001
1.40001
1.40001
1.40001
1.40001
1.40001
1.40001
1.40001
2.15277
2.15224
2.15115
2.15062
2.14851
2.14963
2.15114
2.15684
2.14593
2.12779
2.10477
1.79675
1.46175
1.3993
1.39992
1.4
1.40001
1.40001
1.40001
1.40001
1.40001
1.40001
1.40001
1.40001
1.40001
1.40001
1.40001
1.40001
1.40001
1.40001
2.15053
2.15164
2.15303
2.15295
2.14872
2.14495
2.14639
2.15769
2.15559
2.12468
2.05619
1.72739
1.45514
1.40248
1.40004
1.40001
1.40001
1.40001
1.40001
1.40001
1.40001
1.40001
1.40001
1.40001
1.40001
1.40001
1.40001
1.40001
1.40001
1.40001
2.14928
2.1509
2.15437
2.15503
2.15009
2.1423
2.14332
2.15689
2.15712
2.11517
1.98245
1.62991
1.42133
1.40034
1.40001
1.40001
1.40001
1.40001
1.40001
1.40001
1.40001
1.40001
1.40001
1.40001
1.40001
1.40001
1.40001
1.40001
1.40001
1.40001
2.14891
2.15045
2.15479
2.15587
2.1509
2.13979
2.13955
2.15458
2.1579
2.10733
1.9211
1.55869
1.40981
1.40012
1.40001
1.40001
1.40001
1.40001
1.40001
1.40001
1.40001
1.40001
1.40001
1.40001
1.40001
1.40001
1.40001
1.40001
1.40001
1.40001
2.14884
2.14981
2.15458
2.15588
2.15149
2.13913
2.13702
2.15238
2.15569
2.09631
1.83752
1.48932
1.40353
1.40004
1.40001
1.40001
1.40001
1.40001
1.40001
1.40001
1.40001
1.40001
1.40001
1.40001
1.40001
1.40001
1.40001
1.40001
1.40001
1.40001
2.14892
2.14917
2.15247
2.15477
2.15167
2.14078
2.13725
2.15271
2.15471
2.04985
1.73293
1.44818
1.40128
1.40001
1.40001
1.40001
1.40001
1.40001
1.40001
1.40001
1.40001
1.40001
1.40001
1.40001
1.40001
1.40001
1.40001
1.40001
1.40001
1.40001
2.15016
2.14939
2.1504
2.15139
2.15016
2.14511
2.1416
2.1537
2.15282
1.98749
1.63888
1.42296
1.40039
1.40001
1.40001
1.40001
1.40001
1.40001
1.40001
1.40001
1.40001
1.40001
1.40001
1.40001
1.40001
1.40001
1.40001
1.40001
1.40001
1.40001
2.1534
2.15109
2.14872
2.1477
2.14861
2.15219
2.14657
2.14811
2.13246
1.91495
1.55493
1.40928
1.40011
1.40001
1.40001
1.40001
1.40001
1.40001
1.40001
1.40001
1.40001
1.40001
1.40001
1.40001
1.40001
1.40001
1.40001
1.40001
1.40001
1.40001
2.15546
2.15229
2.14719
2.14318
2.14781
2.15781
2.15488
2.1349
2.09767
1.83254
1.48638
1.40334
1.40003
1.40001
1.40001
1.40001
1.40001
1.40001
1.40001
1.40001
1.40001
1.40001
1.40001
1.40001
1.40001
1.40001
1.40001
1.40001
1.40001
1.40001
2.15603
2.15256
2.14649
2.14058
2.14455
2.16065
2.16389
2.1292
2.0519
1.73127
1.44541
1.40113
1.40001
1.40001
1.40001
1.40001
1.40001
1.40001
1.40001
1.40001
1.40001
1.40001
1.40001
1.40001
1.40001
1.40001
1.40001
1.40001
1.40001
1.40001
2.15604
2.15234
2.1462
2.13954
2.1418
2.16228
2.16673
2.12635
1.99952
1.62943
1.42003
1.40032
1.40001
1.40001
1.40001
1.40001
1.40001
1.40001
1.40001
1.40001
1.40001
1.40001
1.40001
1.40001
1.40001
1.40001
1.40001
1.40001
1.40001
1.40001
2.15553
2.15127
2.14562
2.13946
2.14069
2.16351
2.1674
2.10542
1.9179
1.54101
1.40796
1.40009
1.40001
1.40001
1.40001
1.40001
1.40001
1.40001
1.40001
1.40001
1.40001
1.40001
1.40001
1.40001
1.40001
1.40001
1.40001
1.40001
1.40001
1.40001
2.15342
2.14956
2.14612
2.14167
2.14027
2.16578
2.16859
2.07737
1.8148
1.47681
1.40261
1.40003
1.40001
1.40001
1.40001
1.40001
1.40001
1.40001
1.40001
1.40001
1.40001
1.40001
1.40001
1.40001
1.40001
1.40001
1.40001
1.40001
1.40001
1.40001
2.15102
2.14758
2.14831
2.14373
2.14059
2.16459
2.16954
2.04708
1.70417
1.43685
1.4008
1.40001
1.40001
1.40001
1.40001
1.40001
1.40001
1.40001
1.40001
1.40001
1.40001
1.40001
1.40001
1.40001
1.40001
1.40001
1.40001
1.40001
1.40001
1.40001
2.14986
2.14556
2.14934
2.14935
2.14131
2.15454
2.16078
1.98501
1.59403
1.41409
1.4002
1.40001
1.40001
1.40001
1.40001
1.40001
1.40001
1.40001
1.40001
1.40001
1.40001
1.40001
1.40001
1.40001
1.40001
1.40001
1.40001
1.40001
1.40001
1.40001
2.14946
2.14388
2.14752
2.15611
2.1513
2.1425
2.12686
1.87932
1.51546
1.40527
1.40005
1.40001
1.40001
1.40001
1.40001
1.40001
1.40001
1.40001
1.40001
1.40001
1.40001
1.40001
1.40001
1.40001
1.40001
1.40001
1.40001
1.40001
1.40001
1.40001
2.14942
2.14332
2.14324
2.16189
2.174
2.13956
2.09203
1.7809
1.45837
1.40159
1.40002
1.40001
1.40001
1.40001
1.40001
1.40001
1.40001
1.40001
1.40001
1.40001
1.40001
1.40001
1.40001
1.40001
1.40001
1.40001
1.40001
1.40001
1.40001
1.40001
2.14726
2.14226
2.13939
2.17319
2.18468
2.14096
2.04378
1.65098
1.42332
1.40041
1.40001
1.40001
1.40001
1.40001
1.40001
1.40001
1.40001
1.40001
1.40001
1.40001
1.40001
1.40001
1.40001
1.40001
1.40001
1.40001
1.40001
1.40001
1.40001
1.40001
2.14343
2.13946
2.13648
2.18109
2.18967
2.12524
1.93861
1.55115
1.40882
1.4001
1.40001
1.40001
1.40001
1.40001
1.40001
1.40001
1.40001
1.40001
1.40001
1.40001
1.40001
1.40001
1.40001
1.40001
1.40001
1.40001
1.40001
1.40001
1.40001
1.40001
2.14008
2.13914
2.13647
2.18434
2.19162
2.10051
1.83021
1.48071
1.40268
1.40003
1.40001
1.40001
1.40001
1.40001
1.40001
1.40001
1.40001
1.40001
1.40001
1.40001
1.40001
1.40001
1.40001
1.40001
1.40001
1.40001
1.40001
1.40001
1.40001
1.40001
2.13591
2.14198
2.1392
2.18218
2.19434
2.07742
1.69961
1.43253
1.40065
1.40001
1.40001
1.40001
1.40001
1.40001
1.40001
1.40001
1.40001
1.40001
1.40001
1.40001
1.40001
1.40001
1.40001
1.40001
1.40001
1.40001
1.40001
1.40001
1.40001
1.40001
2.13081
2.14477
2.14563
2.17423
2.18317
1.97981
1.58135
1.41205
1.40015
1.40001
1.40001
1.40001
1.40001
1.40001
1.40001
1.40001
1.40001
1.40001
1.40001
1.40001
1.40001
1.40001
1.40001
1.40001
1.40001
1.40001
1.40001
1.40001
1.40001
1.40001
2.12702
2.15495
2.17723
2.16382
2.14828
1.87077
1.50104
1.40385
1.40004
1.40001
1.40001
1.40001
1.40001
1.40001
1.40001
1.40001
1.40001
1.40001
1.40001
1.40001
1.40001
1.40001
1.40001
1.40001
1.40001
1.40001
1.40001
1.40001
1.40001
1.40001
2.12642
2.17332
2.20345
2.16462
2.10766
1.74157
1.44156
1.40093
1.40001
1.40001
1.40001
1.40001
1.40001
1.40001
1.40001
1.40001
1.40001
1.40001
1.40001
1.40001
1.40001
1.40001
1.40001
1.40001
1.40001
1.40001
1.40001
1.40001
1.40001
1.40001
2.1287
2.18636
2.21837
2.16716
2.02091
1.59858
1.41424
1.4002
1.40001
1.40001
1.40001
1.40001
1.40001
1.40001
1.40001
1.40001
1.40001
1.40001
1.40001
1.40001
1.40001
1.40001
1.40001
1.40001
1.40001
1.40001
1.40001
1.40001
1.40001
1.40001
2.13397
2.19264
2.22549
2.13817
1.88795
1.50856
1.4045
1.40004
1.40001
1.40001
1.40001
1.40001
1.40001
1.40001
1.40001
1.40001
1.40001
1.40001
1.40001
1.40001
1.40001
1.40001
1.40001
1.40001
1.40001
1.40001
1.40001
1.40001
1.40001
1.40001
2.14052
2.19711
2.23058
2.10768
1.7533
1.44512
1.40102
1.40001
1.40001
1.40001
1.40001
1.40001
1.40001
1.40001
1.40001
1.40001
1.40001
1.40001
1.40001
1.40001
1.40001
1.40001
1.40001
1.40001
1.40001
1.40001
1.40001
1.40001
1.40001
1.40001
2.1541
2.2068
2.23133
2.03434
1.60441
1.41438
1.40021
1.40001
1.40001
1.40001
1.40001
1.40001
1.40001
1.40001
1.40001
1.40001
1.40001
1.40001
1.40001
1.40001
1.40001
1.40001
1.40001
1.40001
1.40001
1.40001
1.40001
1.40001
1.40001
1.40001
2.18885
2.2129
2.19127
1.87969
1.50602
1.40436
1.40004
1.40001
1.40001
1.40001
1.40001
1.40001
1.40001
1.40001
1.40001
1.40001
1.40001
1.40001
1.40001
1.40001
1.40001
1.40001
1.40001
1.40001
1.40001
1.40001
1.40001
1.40001
1.40001
1.40001
2.26166
2.19463
2.13258
1.74037
1.44396
1.40104
1.40001
1.40001
1.40001
1.40001
1.40001
1.40001
1.40001
1.40001
1.40001
1.40001
1.40001
1.40001
1.40001
1.40001
1.40001
1.40001
1.40001
1.40001
1.40001
1.40001
1.40001
1.40001
1.40001
1.40001
2.33374
2.15926
2.03038
1.59011
1.41343
1.40021
1.40001
1.40001
1.40001
1.40001
1.40001
1.40001
1.40001
1.40001
1.40001
1.40001
1.40001
1.40001
1.40001
1.40001
1.40001
1.40001
1.40001
1.40001
1.40001
1.40001
1.40001
1.40001
1.40001
1.40001
2.38842
2.11111
1.86683
1.49526
1.40412
1.40005
1.40001
1.40001
1.40001
1.40001
1.40001
1.40001
1.40001
1.40001
1.40001
1.40001
1.40001
1.40001
1.40001
1.40001
1.40001
1.40001
1.40001
1.40001
1.40001
1.40001
1.40001
1.40001
1.40001
1.40001
2.421
2.04616
1.71047
1.43895
1.40104
1.40001
1.40001
1.40001
1.40001
1.40001
1.40001
1.40001
1.40001
1.40001
1.40001
1.40001
1.40001
1.40001
1.40001
1.40001
1.40001
1.40001
1.40001
1.40001
1.40001
1.40001
1.40001
1.40001
1.40001
1.40001
2.41756
1.94439
1.58285
1.41397
1.40025
1.40001
1.40001
1.40001
1.40001
1.40001
1.40001
1.40001
1.40001
1.40001
1.40001
1.40001
1.40001
1.40001
1.40001
1.40001
1.40001
1.40001
1.40001
1.40001
1.40001
1.40001
1.40001
1.40001
1.40001
1.40001
2.32298
1.82301
1.49794
1.40473
1.40006
1.40001
1.40001
1.40001
1.40001
1.40001
1.40001
1.40001
1.40001
1.40001
1.40001
1.40001
1.40001
1.40001
1.40001
1.40001
1.40001
1.40001
1.40001
1.40001
1.40001
1.40001
1.40001
1.40001
1.40001
1.40001
2.23769
1.71262
1.44504
1.40128
1.40002
1.40001
1.40001
1.40001
1.40001
1.40001
1.40001
1.40001
1.40001
1.40001
1.40001
1.40001
1.40001
1.40001
1.40001
1.40001
1.40001
1.40001
1.40001
1.40001
1.40001
1.40001
1.40001
1.40001
1.40001
1.40001
2.1305
1.58825
1.41537
1.40026
1.40001
1.40001
1.40001
1.40001
1.40001
1.40001
1.40001
1.40001
1.40001
1.40001
1.40001
1.40001
1.40001
1.40001
1.40001
1.40001
1.40001
1.40001
1.40001
1.40001
1.40001
1.40001
1.40001
1.40001
1.40001
1.40001
1.94112
1.50177
1.40469
1.40005
1.40001
1.40001
1.40001
1.40001
1.40001
1.40001
1.40001
1.40001
1.40001
1.40001
1.40001
1.40001
1.40001
1.40001
1.40001
1.40001
1.40001
1.40001
1.40001
1.40001
1.40001
1.40001
1.40001
1.40001
1.40001
1.40001
1.7452
1.44295
1.40096
1.40001
1.40001
1.40001
1.40001
1.40001
1.40001
1.40001
1.40001
1.40001
1.40001
1.40001
1.40001
1.40001
1.40001
1.40001
1.40001
1.40001
1.40001
1.40001
1.40001
1.40001
1.40001
1.40001
1.40001
1.40001
1.40001
1.40001
1.53376
1.40807
1.40008
1.40001
1.40001
1.40001
1.40001
1.40001
1.40001
1.40001
1.40001
1.40001
1.40001
1.40001
1.40001
1.40001
1.40001
1.40001
1.40001
1.40001
1.40001
1.40001
1.40001
1.40001
1.40001
1.40001
1.40001
1.40001
1.40001
1.40001
1.40001
1.40001
1.40001
1.40001
1.40001
1.40001
1.40001
1.40001
1.40001
1.40001
1.40001
1.40001
1.40001
1.40001
1.40001
1.40001
1.40001
1.40001
1.40001
1.40001
1.40001
1.40001
1.40001
1.40001
1.40001
1.40001
1.40001
1.40001
1.40001
1.40001
1.40001
1.40001
1.40001
1.40001
1.40001
1.40001
1.40001
1.40001
1.40001
1.40001
1.40001
1.40001
1.40001
1.40001
1.40001
1.40001
1.40001
1.40001
1.40001
1.40001
1.40001
1.40001
1.40001
1.40001
1.40001
1.40001
1.40001
1.40001
1.40001
1.40001
1.40001
1.40001
1.40001
1.40001
1.40001
1.40001
1.40001
1.40001
1.40001
1.40001
1.40001
1.40001
1.40001
1.40001
1.40001
1.40001
1.40001
1.40001
1.40001
1.40001
1.40001
1.40001
1.40001
1.40001
1.40001
1.40001
1.40001
1.40001
1.40001
1.40001
1.40001
1.40001
1.40001
1.40001
1.40001
1.40001
1.40001
1.40001
1.40001
1.40001
1.40001
1.40001
1.40001
1.40001
1.40001
1.40001
1.40001
1.40001
1.40001
1.40001
1.40001
1.40001
1.40001
1.40001
1.40001
1.40001
1.40001
1.40001
1.40001
1.40001
1.40001
1.40001
1.40001
1.40001
1.40001
1.40001
1.40001
1.40001
1.40001
1.40001
1.40001
1.40001
1.40001
1.40001
1.40001
1.40001
1.40001
1.40001
1.40001
1.40001
1.40001
1.40001
1.40001
1.40001
1.40001
1.40001
1.40001
1.40001
1.40001
1.40001
1.40001
1.40001
1.40001
1.40001
1.40001
1.40001
1.40001
1.40001
1.40001
1.40001
1.40001
1.40001
1.40001
1.40001
1.40001
1.40001
1.40001
1.40001
1.40001
1.40001
1.40001
1.40001
1.40001
1.40001
1.40001
1.40001
1.40001
1.40001
1.40001
1.40001
1.40001
1.40001
1.40001
1.40001
1.40001
1.40001
1.40001
1.40001
1.40001
1.40001
1.40001
1.40001
1.40001
1.40001
1.40001
1.40001
1.40001
1.40001
1.40001
1.40001
1.40001
1.40001
1.40001
1.40001
1.40001
1.40001
1.40001
1.40001
1.40001
1.40001
1.40001
1.40001
1.40001
1.40001
1.40001
1.40001
1.40001
1.40001
1.40001
1.40001
1.40001
1.40001
1.40001
1.40001
1.40001
1.40001
1.40001
1.40001
1.40001
1.40001
1.40001
1.40001
1.40001
1.40001
1.40001
1.40001
1.40001
1.40001
1.40001
1.40001
1.40001
1.40001
1.40001
1.40001
1.40001
1.40001
1.40001
1.40001
1.40001
1.40001
1.40001
1.40001
1.40001
1.40001
1.40001
1.40001
1.40001
1.40001
1.40001
1.40001
1.40001
1.40001
1.40001
1.40001
1.40001
1.40001
1.40001
1.40001
1.40001
1.40001
1.40001
1.40001
1.40001
1.40001
1.40001
1.40001
1.40001
1.40001
1.40001
1.40001
1.40001
1.40001
1.40001
1.40001
1.40001
1.40001
1.40001