/*--------------------------------*- C++ -*----------------------------------*\
  =========                 |
  \\      /  F ield         | OpenFOAM: The Open Source CFD Toolbox
   \\    /   O peration     | Website:  https://openfoam.org
    \\  /    A nd           | Version:  7
     \\/     M anipulation  |
\*---------------------------------------------------------------------------*/
FoamFile
{
    version     2.0;
    format      ascii;
    class       volVectorField;
    location    "5.6";
    object      U;
}
// * * * * * * * * * * * * * * * * * * * * * * * * * * * * * * * * * * * * * //

dimensions      [0 1 -1 0 0 0 0];

internalField   nonuniform List<vector> 
8400
(
(2.4444 -0.627371 0)
(2.44482 -0.148505 0)
(2.51161 -0.0907831 0)
(2.47267 0.15046 0)
(2.48135 0.2281 0)
(2.50094 0.244944 0)
(2.49728 0.356347 0)
(2.51416 0.346461 0)
(2.53931 0.353854 0)
(2.58125 0.393314 0)
(2.61104 0.384013 0)
(2.63091 0.326682 0)
(2.66943 0.298798 0)
(2.69725 0.272232 0)
(2.69467 0.216967 0)
(2.70356 0.161904 0)
(2.72198 0.139929 0)
(2.72986 0.0995392 0)
(2.74334 0.11237 0)
(2.75228 0.13201 0)
(2.76838 0.16725 0)
(2.77701 0.194317 0)
(2.78072 0.194628 0)
(2.78152 0.180897 0)
(2.77975 0.148255 0)
(2.78502 0.115785 0)
(2.7798 0.0792823 0)
(2.78576 0.0606606 0)
(2.78811 0.0693489 0)
(2.80398 0.0824229 0)
(2.57202 -1.38734 0)
(2.60462 -1.3895 0)
(2.6187 -1.38955 0)
(2.60747 -1.20433 0)
(2.59085 -1.03427 0)
(2.55684 -0.874925 0)
(2.49795 -0.599236 0)
(2.47139 -0.418 0)
(2.47436 -0.300808 0)
(2.44996 -0.070468 0)
(2.47815 -0.0106834 0)
(2.48661 0.0269122 0)
(2.49371 0.0464114 0)
(2.51346 0.100522 0)
(2.5288 0.0784462 0)
(2.54353 0.0867089 0)
(2.57116 0.115839 0)
(2.58669 0.117658 0)
(2.59108 0.126981 0)
(2.60003 0.108415 0)
(2.60576 0.0953568 0)
(2.61654 0.0883895 0)
(2.62579 0.0920881 0)
(2.62968 0.0928034 0)
(2.62171 0.107315 0)
(2.64367 0.0990868 0)
(2.64559 0.0846417 0)
(2.65739 0.0498138 0)
(2.66872 0.040397 0)
(2.68765 0.0426471 0)
(2.81929 -1.47939 0)
(2.86399 -1.50879 0)
(2.90513 -1.55437 0)
(2.93408 -1.57652 0)
(2.97381 -1.62657 0)
(2.99447 -1.65054 0)
(3.0283 -1.67547 0)
(3.02455 -1.65862 0)
(2.9755 -1.5713 0)
(2.86481 -1.33387 0)
(2.77926 -1.05729 0)
(2.68014 -0.741046 0)
(2.61653 -0.552391 0)
(2.52055 -0.255897 0)
(2.50887 -0.0695006 0)
(2.44687 0.147221 0)
(2.45152 0.190264 0)
(2.46729 0.260998 0)
(2.47634 0.237194 0)
(2.47732 0.208842 0)
(2.49868 0.148716 0)
(2.52931 0.0950783 0)
(2.5538 0.0612546 0)
(2.56247 0.0575838 0)
(2.55946 0.0793694 0)
(2.56705 0.109611 0)
(2.56549 0.106628 0)
(2.59499 0.0879384 0)
(2.60872 0.0701346 0)
(2.62482 0.0544184 0)
(2.96095 -1.65492 0)
(2.98526 -1.66238 0)
(3.00362 -1.68728 0)
(3.01488 -1.699 0)
(3.03564 -1.71808 0)
(3.07033 -1.73332 0)
(3.08517 -1.73831 0)
(3.08891 -1.74002 0)
(3.08707 -1.73799 0)
(3.08436 -1.73492 0)
(3.08044 -1.73005 0)
(3.09021 -1.72159 0)
(3.07738 -1.69596 0)
(2.99599 -1.55395 0)
(2.90381 -1.31968 0)
(2.79285 -0.912657 0)
(2.72549 -0.615664 0)
(2.6767 -0.339081 0)
(2.67064 -0.176292 0)
(2.60888 0.00251821 0)
(2.57941 0.0277276 0)
(2.57778 0.0624752 0)
(2.57265 0.0587818 0)
(2.58673 0.0644902 0)
(2.59373 0.0565976 0)
(2.58888 0.0564178 0)
(2.57699 0.0491897 0)
(2.59123 0.0511423 0)
(2.60287 0.0577702 0)
(2.61648 0.0485332 0)
(3.0788 -1.73954 0)
(3.08526 -1.74601 0)
(3.09363 -1.75135 0)
(3.10061 -1.75882 0)
(3.10441 -1.76596 0)
(3.1098 -1.75102 0)
(3.1084 -1.74795 0)
(3.10083 -1.74508 0)
(3.09082 -1.73934 0)
(3.07532 -1.72652 0)
(3.0676 -1.71805 0)
(3.07456 -1.69092 0)
(3.07655 -1.68606 0)
(3.06135 -1.69186 0)
(3.05071 -1.67051 0)
(3.06526 -1.60881 0)
(3.06986 -1.61406 0)
(3.02541 -1.46329 0)
(2.95666 -1.19509 0)
(2.83392 -0.685614 0)
(2.8046 -0.446966 0)
(2.69605 -0.132634 0)
(2.69514 -0.0660458 0)
(2.66621 0.0577614 0)
(2.63262 0.0457378 0)
(2.62608 0.0446153 0)
(2.63951 0.058192 0)
(2.65739 0.0679873 0)
(2.65038 0.0550072 0)
(2.64462 0.018712 0)
(3.09112 -1.76234 0)
(3.09217 -1.76227 0)
(3.09217 -1.75857 0)
(3.09326 -1.75596 0)
(3.09124 -1.74258 0)
(3.09434 -1.72556 0)
(3.10355 -1.68798 0)
(3.09939 -1.66533 0)
(3.07675 -1.66774 0)
(3.06047 -1.6443 0)
(3.04307 -1.61368 0)
(3.05598 -1.56664 0)
(3.07807 -1.54255 0)
(3.07415 -1.56371 0)
(3.07312 -1.57841 0)
(3.08022 -1.54117 0)
(3.08949 -1.5156 0)
(3.09542 -1.52305 0)
(3.10314 -1.52586 0)
(3.10144 -1.49984 0)
(3.07495 -1.41802 0)
(2.99218 -1.12814 0)
(2.93236 -0.828685 0)
(2.86542 -0.471147 0)
(2.88678 -0.324923 0)
(2.81953 -0.121967 0)
(2.79009 -0.0169553 0)
(2.75518 0.0631496 0)
(2.72272 0.038641 0)
(2.7331 0.0797557 0)
(3.08308 -1.61253 0)
(3.07347 -1.5993 0)
(3.06594 -1.57933 0)
(3.06822 -1.55635 0)
(3.07804 -1.54113 0)
(3.09576 -1.52894 0)
(3.1119 -1.52893 0)
(3.11669 -1.5391 0)
(3.10077 -1.55789 0)
(3.08085 -1.5867 0)
(3.07338 -1.57828 0)
(3.07055 -1.53874 0)
(3.08913 -1.51031 0)
(3.10356 -1.50847 0)
(3.1103 -1.50119 0)
(3.0994 -1.47681 0)
(3.09497 -1.45619 0)
(3.11074 -1.40218 0)
(3.11862 -1.38259 0)
(3.11261 -1.36295 0)
(3.10296 -1.36138 0)
(3.10079 -1.35054 0)
(3.10555 -1.34735 0)
(3.09849 -1.28982 0)
(3.08593 -1.10378 0)
(3.03963 -0.814344 0)
(3.00844 -0.597796 0)
(2.9509 -0.376471 0)
(2.94678 -0.233411 0)
(2.85823 -0.0275983 0)
(3.07398 -1.60476 0)
(3.07205 -1.59429 0)
(3.06717 -1.58745 0)
(3.06492 -1.58711 0)
(3.07618 -1.5619 0)
(3.09671 -1.53468 0)
(3.10251 -1.52724 0)
(3.12087 -1.50697 0)
(3.12629 -1.49726 0)
(3.11178 -1.49987 0)
(3.0964 -1.49018 0)
(3.08768 -1.45384 0)
(3.11331 -1.39582 0)
(3.13386 -1.38321 0)
(3.13642 -1.36516 0)
(3.12353 -1.32573 0)
(3.10788 -1.31162 0)
(3.1106 -1.29809 0)
(3.11598 -1.29707 0)
(3.11609 -1.29789 0)
(3.11945 -1.28422 0)
(3.12093 -1.28164 0)
(3.12317 -1.26441 0)
(3.1287 -1.24603 0)
(3.12589 -1.22531 0)
(3.12274 -1.21743 0)
(3.1185 -1.2123 0)
(3.0901 -1.05496 0)
(3.07984 -0.891351 0)
(2.99887 -0.459484 0)
(3.13423 -1.40876 0)
(3.1337 -1.40383 0)
(3.12885 -1.41374 0)
(3.1303 -1.38863 0)
(3.13836 -1.33572 0)
(3.14104 -1.32424 0)
(3.14668 -1.2923 0)
(3.16294 -1.25597 0)
(3.16963 -1.24475 0)
(3.1477 -1.25798 0)
(3.12353 -1.27221 0)
(3.1165 -1.25585 0)
(3.13681 -1.22505 0)
(3.14525 -1.22818 0)
(3.13831 -1.24242 0)
(3.12338 -1.25322 0)
(3.11408 -1.24627 0)
(3.11357 -1.24801 0)
(3.12314 -1.23761 0)
(3.13248 -1.21724 0)
(3.13542 -1.20856 0)
(3.13601 -1.19062 0)
(3.13828 -1.14397 0)
(3.13301 -1.13337 0)
(3.1256 -1.12796 0)
(3.11697 -1.13684 0)
(3.12134 -1.12307 0)
(3.1197 -1.13568 0)
(3.12442 -1.12071 0)
(3.11217 -1.0402 0)
(3.15309 -1.25332 0)
(3.15615 -1.25165 0)
(3.151 -1.25824 0)
(3.14156 -1.28152 0)
(3.13195 -1.25822 0)
(3.13309 -1.22579 0)
(3.13819 -1.21724 0)
(3.14164 -1.21407 0)
(3.14255 -1.21335 0)
(3.13464 -1.22386 0)
(3.11858 -1.23675 0)
(3.10807 -1.22248 0)
(3.11937 -1.20375 0)
(3.13294 -1.18825 0)
(3.14064 -1.18249 0)
(3.13963 -1.17062 0)
(3.13496 -1.16117 0)
(3.13303 -1.1338 0)
(3.14162 -1.10838 0)
(3.14576 -1.09469 0)
(3.14013 -1.08069 0)
(3.13498 -1.07107 0)
(3.1294 -1.07188 0)
(3.12584 -1.07262 0)
(3.12263 -1.09479 0)
(3.12508 -1.07083 0)
(3.13336 -1.05017 0)
(3.13747 -1.039 0)
(3.14067 -1.01769 0)
(3.13826 -1.01342 0)
(3.16323 -1.09593 0)
(3.16422 -1.09842 0)
(3.16372 -1.10634 0)
(3.15355 -1.12934 0)
(3.1432 -1.12698 0)
(3.14098 -1.09215 0)
(3.14407 -1.08209 0)
(3.15071 -1.06734 0)
(3.15877 -1.0494 0)
(3.1565 -1.04697 0)
(3.14814 -1.05231 0)
(3.13597 -1.04633 0)
(3.14163 -1.03249 0)
(3.14872 -1.01634 0)
(3.15365 -1.01147 0)
(3.15385 -1.00988 0)
(3.1484 -0.999778 0)
(3.14094 -0.998227 0)
(3.1371 -0.99609 0)
(3.13724 -0.993324 0)
(3.13208 -1.00815 0)
(3.13137 -1.00848 0)
(3.12958 -1.00539 0)
(3.13492 -0.994188 0)
(3.1367 -0.989265 0)
(3.14286 -0.979055 0)
(3.14099 -0.973968 0)
(3.1395 -0.959091 0)
(3.13645 -0.955061 0)
(3.1325 -0.950906 0)
(3.1618 -0.930535 0)
(3.16723 -0.939242 0)
(3.16754 -0.940534 0)
(3.16197 -0.947438 0)
(3.14891 -0.968654 0)
(3.13875 -0.963753 0)
(3.14339 -0.941735 0)
(3.14742 -0.932612 0)
(3.15594 -0.923619 0)
(3.15495 -0.925848 0)
(3.14986 -0.930198 0)
(3.13889 -0.934383 0)
(3.13462 -0.926011 0)
(3.14085 -0.922287 0)
(3.14613 -0.922806 0)
(3.14614 -0.927183 0)
(3.14199 -0.927626 0)
(3.13765 -0.925485 0)
(3.1351 -0.924755 0)
(3.13667 -0.921174 0)
(3.13947 -0.918417 0)
(3.14354 -0.910765 0)
(3.14311 -0.903897 0)
(3.14392 -0.892093 0)
(3.1422 -0.877708 0)
(3.13997 -0.87496 0)
(3.13703 -0.873154 0)
(3.13249 -0.875991 0)
(3.12425 -0.894369 0)
(3.1287 -0.894672 0)
(3.13915 -0.739497 0)
(3.15351 -0.760011 0)
(3.15807 -0.780961 0)
(3.15758 -0.783617 0)
(3.14981 -0.792913 0)
(3.13677 -0.811028 0)
(3.13418 -0.804405 0)
(3.14084 -0.792846 0)
(3.14755 -0.780748 0)
(3.1551 -0.779928 0)
(3.14633 -0.790639 0)
(3.13973 -0.792674 0)
(3.13556 -0.793044 0)
(3.13717 -0.791847 0)
(3.14417 -0.789579 0)
(3.1451 -0.790505 0)
(3.14403 -0.792209 0)
(3.14185 -0.7919 0)
(3.1413 -0.785953 0)
(3.13989 -0.783408 0)
(3.14151 -0.779945 0)
(3.13958 -0.780757 0)
(3.13767 -0.782852 0)
(3.13479 -0.787474 0)
(3.13357 -0.792735 0)
(3.12914 -0.808983 0)
(3.1312 -0.811041 0)
(3.13072 -0.818406 0)
(3.13304 -0.817259 0)
(3.13436 -0.816108 0)
(3.12202 -0.590695 0)
(3.12656 -0.573741 0)
(3.14178 -0.596693 0)
(3.14124 -0.625919 0)
(3.1405 -0.633555 0)
(3.13235 -0.647322 0)
(3.12221 -0.654232 0)
(3.1235 -0.649397 0)
(3.12882 -0.639658 0)
(3.1408 -0.62944 0)
(3.14292 -0.642104 0)
(3.13466 -0.659875 0)
(3.12763 -0.666276 0)
(3.12568 -0.664011 0)
(3.13205 -0.667 0)
(3.13572 -0.670746 0)
(3.13508 -0.676165 0)
(3.1327 -0.679423 0)
(3.1309 -0.688922 0)
(3.12928 -0.697137 0)
(3.13053 -0.704049 0)
(3.12947 -0.708903 0)
(3.12921 -0.718552 0)
(3.12869 -0.725891 0)
(3.12951 -0.729079 0)
(3.1318 -0.730718 0)
(3.13405 -0.72947 0)
(3.13387 -0.7304 0)
(3.137 -0.71643 0)
(3.13221 -0.716469 0)
(3.09975 -0.459326 0)
(3.10352 -0.438187 0)
(3.10625 -0.414946 0)
(3.12259 -0.439264 0)
(3.12073 -0.473413 0)
(3.11901 -0.479255 0)
(3.10566 -0.495692 0)
(3.09826 -0.506511 0)
(3.10188 -0.505992 0)
(3.11865 -0.494923 0)
(3.12924 -0.498362 0)
(3.12617 -0.515732 0)
(3.11638 -0.531559 0)
(3.11081 -0.530309 0)
(3.1145 -0.533216 0)
(3.12137 -0.548205 0)
(3.12107 -0.551094 0)
(3.12122 -0.555089 0)
(3.12211 -0.56494 0)
(3.12115 -0.570901 0)
(3.12047 -0.578444 0)
(3.12229 -0.578795 0)
(3.1238 -0.5853 0)
(3.123 -0.586707 0)
(3.12223 -0.597448 0)
(3.12249 -0.597079 0)
(3.12217 -0.603179 0)
(3.12152 -0.618719 0)
(3.12465 -0.634008 0)
(3.1229 -0.649856 0)
(3.06832 -0.311807 0)
(3.07156 -0.30642 0)
(3.07556 -0.292234 0)
(3.0863 -0.282404 0)
(3.09432 -0.300241 0)
(3.08901 -0.314091 0)
(3.08648 -0.325599 0)
(3.0783 -0.357693 0)
(3.07554 -0.369216 0)
(3.08702 -0.3608 0)
(3.0995 -0.360057 0)
(3.10351 -0.369224 0)
(3.09819 -0.39025 0)
(3.09305 -0.394662 0)
(3.09491 -0.398671 0)
(3.1022 -0.421618 0)
(3.10155 -0.42651 0)
(3.10247 -0.432953 0)
(3.10505 -0.442726 0)
(3.10618 -0.457442 0)
(3.10524 -0.467081 0)
(3.10768 -0.482379 0)
(3.10886 -0.487753 0)
(3.11152 -0.50701 0)
(3.11149 -0.518225 0)
(3.11152 -0.528891 0)
(3.11354 -0.544788 0)
(3.11514 -0.557326 0)
(3.11657 -0.569221 0)
(3.11807 -0.580484 0)
(3.0268 -0.159486 0)
(3.02748 -0.15857 0)
(3.02966 -0.154115 0)
(3.0363 -0.143101 0)
(3.0523 -0.13809 0)
(3.06071 -0.163034 0)
(3.05665 -0.180111 0)
(3.05512 -0.203539 0)
(3.04641 -0.22734 0)
(3.0481 -0.22534 0)
(3.05925 -0.218662 0)
(3.07363 -0.229409 0)
(3.07284 -0.252515 0)
(3.06636 -0.26194 0)
(3.06616 -0.267019 0)
(3.07396 -0.290025 0)
(3.07582 -0.305121 0)
(3.07726 -0.308961 0)
(3.0825 -0.325125 0)
(3.08394 -0.335974 0)
(3.08485 -0.354913 0)
(3.08654 -0.365026 0)
(3.09048 -0.37861 0)
(3.09323 -0.392141 0)
(3.09392 -0.404517 0)
(3.09563 -0.4184 0)
(3.09829 -0.431286 0)
(3.10008 -0.440187 0)
(3.10043 -0.444355 0)
(3.10258 -0.464664 0)
(2.98583 0.0120548 0)
(2.98824 -0.0113946 0)
(2.9835 -0.0262528 0)
(2.98338 -0.0353904 0)
(2.99668 -0.0329092 0)
(3.01279 -0.0180449 0)
(3.01344 -0.0159373 0)
(3.01033 -0.038446 0)
(3.00959 -0.0752659 0)
(3.00179 -0.097129 0)
(3.01172 -0.0919714 0)
(3.03061 -0.0989503 0)
(3.03528 -0.123413 0)
(3.0313 -0.128943 0)
(3.03122 -0.135774 0)
(3.0388 -0.162326 0)
(3.0411 -0.181446 0)
(3.04369 -0.188917 0)
(3.05107 -0.204528 0)
(3.0554 -0.218514 0)
(3.05776 -0.238587 0)
(3.05995 -0.254011 0)
(3.06426 -0.267736 0)
(3.06882 -0.283841 0)
(3.07209 -0.303374 0)
(3.07491 -0.319349 0)
(3.0774 -0.331151 0)
(3.08143 -0.351056 0)
(3.08505 -0.373034 0)
(3.08927 -0.396877 0)
(2.93374 0.156689 0)
(2.9342 0.131176 0)
(2.92895 0.113406 0)
(2.92603 0.106335 0)
(2.93252 0.112547 0)
(2.94462 0.125797 0)
(2.95339 0.123508 0)
(2.96339 0.0923505 0)
(2.96131 0.0514554 0)
(2.95472 0.0357938 0)
(2.96 0.0432174 0)
(2.97425 0.0345015 0)
(2.98543 0.0046235 0)
(2.98514 -0.0034933 0)
(2.99034 -0.0143864 0)
(2.99864 -0.0365654 0)
(3.00078 -0.0558269 0)
(3.00417 -0.0710487 0)
(3.01199 -0.0872522 0)
(3.01919 -0.102879 0)
(3.02412 -0.120458 0)
(3.02807 -0.140268 0)
(3.03284 -0.158542 0)
(3.03851 -0.175203 0)
(3.04451 -0.196969 0)
(3.04763 -0.210455 0)
(3.05345 -0.233794 0)
(3.05815 -0.251427 0)
(3.06144 -0.26447 0)
(3.06774 -0.293206 0)
(2.85828 0.297488 0)
(2.85969 0.291642 0)
(2.86426 0.276738 0)
(2.86605 0.254878 0)
(2.86782 0.254885 0)
(2.87244 0.260114 0)
(2.89003 0.241506 0)
(2.89552 0.222312 0)
(2.89905 0.196187 0)
(2.90106 0.181726 0)
(2.90375 0.182655 0)
(2.92026 0.159171 0)
(2.92957 0.131348 0)
(2.93047 0.129979 0)
(2.94252 0.109124 0)
(2.95184 0.0842578 0)
(2.95472 0.0691377 0)
(2.96063 0.0508829 0)
(2.96922 0.0316637 0)
(2.97844 0.0105831 0)
(2.98519 -0.00767786 0)
(2.99091 -0.0257802 0)
(2.9987 -0.0507649 0)
(3.00509 -0.0688286 0)
(3.01207 -0.0880304 0)
(3.0193 -0.111331 0)
(3.02497 -0.130038 0)
(3.03134 -0.151626 0)
(3.03749 -0.174014 0)
(3.04612 -0.205692 0)
(2.81734 0.369035 0)
(2.81931 0.367734 0)
(2.82233 0.364738 0)
(2.82417 0.360866 0)
(2.825 0.358922 0)
(2.82729 0.356557 0)
(2.8333 0.349465 0)
(2.84007 0.3388 0)
(2.84505 0.32882 0)
(2.85066 0.314427 0)
(2.85529 0.302425 0)
(2.85896 0.296267 0)
(2.86952 0.276808 0)
(2.88041 0.252044 0)
(2.88794 0.237942 0)
(2.89692 0.219938 0)
(2.90595 0.196322 0)
(2.91346 0.175539 0)
(2.9238 0.150748 0)
(2.93195 0.132773 0)
(2.944 0.103273 0)
(2.95138 0.0844363 0)
(2.9603 0.0618614 0)
(2.96997 0.0364775 0)
(2.97863 0.0133676 0)
(2.98629 -0.00698228 0)
(2.99532 -0.033001 0)
(3.00295 -0.0552537 0)
(3.01004 -0.076777 0)
(3.02122 -0.112652 0)
(2.82061 0.365871 0)
(2.82193 0.369363 0)
(2.82114 0.375071 0)
(2.82099 0.377057 0)
(2.8197 0.37686 0)
(2.81977 0.374992 0)
(2.81919 0.370834 0)
(2.8213 0.366428 0)
(2.82312 0.36616 0)
(2.82435 0.366924 0)
(2.82547 0.367276 0)
(2.82755 0.364733 0)
(2.83177 0.356942 0)
(2.83556 0.348906 0)
(2.83939 0.343638 0)
(2.84609 0.333788 0)
(2.85508 0.316788 0)
(2.86288 0.300094 0)
(2.87282 0.279603 0)
(2.88327 0.257466 0)
(2.89441 0.232143 0)
(2.90513 0.205976 0)
(2.91707 0.178015 0)
(2.92828 0.152104 0)
(2.94001 0.123289 0)
(2.95024 0.0973346 0)
(2.96131 0.0685382 0)
(2.9712 0.0426185 0)
(2.98053 0.017694 0)
(2.99451 -0.021584 0)
(2.85179 0.307534 0)
(2.84784 0.320685 0)
(2.83999 0.337449 0)
(2.83978 0.35882 0)
(2.84427 0.367965 0)
(2.83619 0.359604 0)
(2.83132 0.343861 0)
(2.83229 0.338784 0)
(2.83289 0.345275 0)
(2.83208 0.359733 0)
(2.83464 0.368187 0)
(2.83087 0.367849 0)
(2.82961 0.363782 0)
(2.82969 0.358315 0)
(2.8307 0.358614 0)
(2.83113 0.360329 0)
(2.83317 0.359939 0)
(2.83584 0.357031 0)
(2.83871 0.352135 0)
(2.84288 0.344809 0)
(2.84948 0.333515 0)
(2.85796 0.31833 0)
(2.86869 0.297827 0)
(2.88021 0.273903 0)
(2.89375 0.244035 0)
(2.90595 0.215479 0)
(2.92008 0.181962 0)
(2.93305 0.150259 0)
(2.94519 0.120214 0)
(2.96307 0.0741293 0)
(2.93515 0.14562 0)
(2.91808 0.172257 0)
(2.91269 0.2017 0)
(2.91319 0.204512 0)
(2.91405 0.20396 0)
(2.90294 0.226068 0)
(2.89474 0.236574 0)
(2.89207 0.234547 0)
(2.87569 0.257546 0)
(2.86942 0.292201 0)
(2.8698 0.297779 0)
(2.86765 0.297712 0)
(2.85852 0.310796 0)
(2.84903 0.327628 0)
(2.84533 0.335995 0)
(2.84238 0.338885 0)
(2.84365 0.341214 0)
(2.84035 0.348337 0)
(2.84013 0.348931 0)
(2.83985 0.34873 0)
(2.84011 0.348379 0)
(2.84128 0.347296 0)
(2.84381 0.344214 0)
(2.84738 0.339731 0)
(2.85339 0.330745 0)
(2.86172 0.316651 0)
(2.87327 0.294766 0)
(2.88595 0.267687 0)
(2.89988 0.236707 0)
(2.92223 0.184166 0)
(2.98984 0.0219475 0)
(2.98801 0.0244217 0)
(2.98475 0.0320195 0)
(2.9836 0.0365123 0)
(2.98067 0.0445321 0)
(2.97779 0.0507735 0)
(2.9731 0.0601429 0)
(2.96791 0.0678546 0)
(2.95906 0.082586 0)
(2.95243 0.0987324 0)
(2.94521 0.11974 0)
(2.93747 0.138021 0)
(2.93107 0.149833 0)
(2.91516 0.183094 0)
(2.91013 0.195139 0)
(2.89294 0.230717 0)
(2.88686 0.24512 0)
(2.87773 0.266321 0)
(2.8651 0.295778 0)
(2.86372 0.298166 0)
(2.85219 0.319279 0)
(2.84987 0.326115 0)
(2.84706 0.332017 0)
(2.84674 0.336026 0)
(2.84703 0.33578 0)
(2.8478 0.335238 0)
(2.8499 0.332876 0)
(2.85377 0.327918 0)
(2.85967 0.319095 0)
(2.8766 0.28834 0)
(2.9997 0.000605975 0)
(2.99961 0.000755062 0)
(2.99946 0.00103652 0)
(2.99932 0.00135405 0)
(2.99914 0.00177716 0)
(2.99888 0.00230157 0)
(2.99847 0.00312108 0)
(2.99787 0.00413212 0)
(2.99696 0.00558842 0)
(2.99556 0.00832743 0)
(2.99422 0.0112509 0)
(2.9921 0.0159738 0)
(2.98968 0.0202569 0)
(2.9844 0.0307957 0)
(2.98013 0.0395378 0)
(2.97209 0.0563429 0)
(2.96482 0.0714066 0)
(2.95381 0.0941143 0)
(2.94018 0.12407 0)
(2.9312 0.144061 0)
(2.91024 0.188557 0)
(2.90114 0.209285 0)
(2.88744 0.23876 0)
(2.87026 0.279114 0)
(2.86917 0.283242 0)
(2.85697 0.307617 0)
(2.8525 0.321067 0)
(2.85233 0.321787 0)
(2.85306 0.322372 0)
(2.85553 0.320038 0)
(3 5.21441e-06 0)
(3 6.76421e-06 0)
(3 8.8345e-06 0)
(2.99999 1.27183e-05 0)
(2.99999 1.694e-05 0)
(2.99999 2.49337e-05 0)
(2.99998 3.44929e-05 0)
(2.99997 5.2802e-05 0)
(2.99995 7.8917e-05 0)
(2.99992 0.000129207 0)
(2.99988 0.000212297 0)
(2.99982 0.000327047 0)
(2.9997 0.000547512 0)
(2.99949 0.000900006 0)
(2.99912 0.00160644 0)
(2.99856 0.0026207 0)
(2.99758 0.00448621 0)
(2.99592 0.00757564 0)
(2.99341 0.0123229 0)
(2.98916 0.0209427 0)
(2.98339 0.0317086 0)
(2.97434 0.0504475 0)
(2.96273 0.0740116 0)
(2.94894 0.102216 0)
(2.93134 0.140843 0)
(2.9137 0.178597 0)
(2.89848 0.212681 0)
(2.88143 0.250736 0)
(2.87067 0.276071 0)
(2.86165 0.299207 0)
(3 2.80368e-08 0)
(3 3.51573e-08 0)
(3 4.77157e-08 0)
(3 6.38715e-08 0)
(3 9.12014e-08 0)
(3 1.26836e-07 0)
(3 1.89415e-07 0)
(3 2.81346e-07 0)
(3 4.48083e-07 0)
(3 7.41831e-07 0)
(3 1.25816e-06 0)
(3 2.16402e-06 0)
(3 3.73657e-06 0)
(3 7.26687e-06 0)
(2.99999 1.36882e-05 0)
(2.99998 2.77586e-05 0)
(2.99997 5.48539e-05 0)
(2.99993 0.000115852 0)
(2.99986 0.000244684 0)
(2.9997 0.000519862 0)
(2.99938 0.00111104 0)
(2.99869 0.00237073 0)
(2.99737 0.00477286 0)
(2.99471 0.00989451 0)
(2.99034 0.0181243 0)
(2.98245 0.0337356 0)
(2.97154 0.0556431 0)
(2.95508 0.089757 0)
(2.93876 0.124129 0)
(2.9079 0.191723 0)
(3 1.20848e-10 0)
(3 1.55473e-10 0)
(3 2.06041e-10 0)
(3 2.84351e-10 0)
(3 3.925e-10 0)
(3 5.64338e-10 0)
(3 8.15408e-10 0)
(3 1.24102e-09 0)
(3 1.92816e-09 0)
(3 3.16485e-09 0)
(3 5.34808e-09 0)
(3 9.13339e-09 0)
(3 1.65053e-08 0)
(3 3.13343e-08 0)
(3 6.31001e-08 0)
(3 1.2901e-07 0)
(3 2.78992e-07 0)
(3 6.31138e-07 0)
(3 1.48016e-06 0)
(3 3.66057e-06 0)
(2.99999 9.17955e-06 0)
(2.99999 2.44778e-05 0)
(2.99996 6.48245e-05 0)
(2.9999 0.000177993 0)
(2.99973 0.000471232 0)
(2.99929 0.00126774 0)
(2.9983 0.00309654 0)
(2.99585 0.00777624 0)
(2.99188 0.0153748 0)
(2.97586 0.0482947 0)
(3 4.00337e-13 0)
(3 5.17288e-13 0)
(3 7.00142e-13 0)
(3 9.6139e-13 0)
(3 1.35803e-12 0)
(3 1.93788e-12 0)
(3 2.85168e-12 0)
(3 4.28531e-12 0)
(3 6.68609e-12 0)
(3 1.07388e-11 0)
(3 1.80308e-11 0)
(3 3.05237e-11 0)
(3 5.49499e-11 0)
(3 1.03632e-10 0)
(3 2.08341e-10 0)
(3 4.27282e-10 0)
(3 9.42068e-10 0)
(3 2.1441e-09 0)
(3 5.2641e-09 0)
(3 1.32126e-08 0)
(3 3.59381e-08 0)
(3 9.9911e-08 0)
(3 3.01664e-07 0)
(3 9.1484e-07 0)
(3 3.01207e-06 0)
(2.99999 9.71376e-06 0)
(2.99997 3.3449e-05 0)
(2.99991 0.000112441 0)
(2.99974 0.000333615 0)
(2.99797 0.00249391 0)
(2.42256 -1.31979 0)
(2.53161 -1.36743 0)
(2.77513 -1.44075 0)
(2.93524 -1.62567 0)
(3.07445 -1.72241 0)
(3.08286 -1.76749 0)
(3.09055 -1.61865 0)
(3.07713 -1.60621 0)
(3.13388 -1.41198 0)
(3.15184 -1.24661 0)
(3.15228 -1.07995 0)
(3.14294 -0.900019 0)
(3.13553 -0.758659 0)
(3.11615 -0.615886 0)
(3.09055 -0.468962 0)
(3.06581 -0.310344 0)
(3.03538 -0.139918 0)
(2.97759 0.0466307 0)
(2.9067 0.197818 0)
(2.84851 0.31524 0)
(2.81537 0.373661 0)
(2.8195 0.365658 0)
(2.86583 0.288289 0)
(2.94369 0.128197 0)
(2.99267 0.0167276 0)
(2.99978 0.000466529 0)
(3 4.32278e-06 0)
(3 2.29549e-08 0)
(3 9.86954e-11 0)
(3 3.23528e-13 0)
(2.42087 -1.30346 0)
(2.54431 -1.37214 0)
(2.79201 -1.45255 0)
(2.93923 -1.63945 0)
(3.07811 -1.72227 0)
(3.09619 -1.76456 0)
(3.11148 -1.55996 0)
(3.10398 -1.54989 0)
(3.14873 -1.3401 0)
(3.14804 -1.17101 0)
(3.14413 -1.03111 0)
(3.14098 -0.90175 0)
(3.13338 -0.766994 0)
(3.12189 -0.609066 0)
(3.10857 -0.437604 0)
(3.07973 -0.245857 0)
(3.02548 -0.063815 0)
(2.95694 0.098422 0)
(2.88661 0.238011 0)
(2.83083 0.343383 0)
(2.8133 0.381158 0)
(2.8193 0.365224 0)
(2.87157 0.282244 0)
(2.95633 0.105569 0)
(2.99602 0.00955537 0)
(2.99992 0.000179686 0)
(3 1.35052e-06 0)
(3 7.58187e-09 0)
(3 3.65675e-11 0)
(3 1.26174e-13 0)
(2.4093 -1.29463 0)
(2.53948 -1.36624 0)
(2.78574 -1.45104 0)
(2.93153 -1.63249 0)
(3.07965 -1.72219 0)
(3.09269 -1.76679 0)
(3.12206 -1.55637 0)
(3.11282 -1.52457 0)
(3.14786 -1.35657 0)
(3.14618 -1.20909 0)
(3.14251 -1.07361 0)
(3.13941 -0.925555 0)
(3.14417 -0.761117 0)
(3.14284 -0.560469 0)
(3.10609 -0.341851 0)
(3.04556 -0.153622 0)
(2.99542 -0.0187733 0)
(2.94182 0.104701 0)
(2.87589 0.243973 0)
(2.82273 0.355291 0)
(2.81252 0.384925 0)
(2.82396 0.368232 0)
(2.88102 0.282716 0)
(2.96527 0.0859765 0)
(2.99754 0.00584112 0)
(2.99996 9.00184e-05 0)
(3 6.13007e-07 0)
(3 3.31425e-09 0)
(3 1.55023e-11 0)
(3 5.11717e-14 0)
(2.40605 -1.29198 0)
(2.53394 -1.36277 0)
(2.77859 -1.45721 0)
(2.92951 -1.64026 0)
(3.08421 -1.71474 0)
(3.0825 -1.76415 0)
(3.11288 -1.58524 0)
(3.11206 -1.52603 0)
(3.14747 -1.37289 0)
(3.1535 -1.21825 0)
(3.16303 -1.06503 0)
(3.17771 -0.875169 0)
(3.17477 -0.657771 0)
(3.12156 -0.439439 0)
(3.07007 -0.27051 0)
(3.03143 -0.142958 0)
(2.98779 -0.0256754 0)
(2.93421 0.104763 0)
(2.87021 0.254354 0)
(2.81854 0.364033 0)
(2.81261 0.38504 0)
(2.83024 0.373975 0)
(2.89313 0.243523 0)
(2.97399 0.0596096 0)
(2.99855 0.00321183 0)
(2.99998 4.04406e-05 0)
(3 2.64098e-07 0)
(3 1.40812e-09 0)
(3 6.4687e-12 0)
(3 1.94727e-14 0)
(2.39624 -1.29067 0)
(2.52978 -1.35869 0)
(2.77961 -1.45949 0)
(2.9311 -1.65021 0)
(3.08204 -1.71523 0)
(3.07738 -1.7628 0)
(3.10659 -1.59935 0)
(3.11958 -1.514 0)
(3.16003 -1.36699 0)
(3.19017 -1.17076 0)
(3.20314 -0.977703 0)
(3.1725 -0.757566 0)
(3.12407 -0.557416 0)
(3.0972 -0.424249 0)
(3.06522 -0.297086 0)
(3.02739 -0.157782 0)
(2.98474 0.00493917 0)
(2.92556 0.164848 0)
(2.85587 0.304622 0)
(2.81252 0.375632 0)
(2.81389 0.378629 0)
(2.83209 0.348071 0)
(2.91838 0.184088 0)
(2.98347 0.0369975 0)
(2.99929 0.00151596 0)
(2.99999 1.68704e-05 0)
(3 1.0816e-07 0)
(3 5.77e-10 0)
(3 2.64311e-12 0)
(3 6.30018e-15 0)
(2.38503 -1.28758 0)
(2.52913 -1.35427 0)
(2.77832 -1.46171 0)
(2.92928 -1.65835 0)
(3.07355 -1.72032 0)
(3.08058 -1.74934 0)
(3.11609 -1.59296 0)
(3.13919 -1.46744 0)
(3.18825 -1.29721 0)
(3.18733 -1.06186 0)
(3.16143 -0.865294 0)
(3.13948 -0.716436 0)
(3.11736 -0.585849 0)
(3.08963 -0.455071 0)
(3.06174 -0.299606 0)
(3.03212 -0.112345 0)
(2.96087 0.0937606 0)
(2.88833 0.240974 0)
(2.83207 0.344857 0)
(2.80769 0.383077 0)
(2.81297 0.375026 0)
(2.85495 0.305404 0)
(2.93117 0.157895 0)
(2.99002 0.0233223 0)
(2.99968 0.000716277 0)
(3 6.95607e-06 0)
(3 4.32264e-08 0)
(3 2.29535e-10 0)
(3 1.04878e-12 0)
(3 8.39962e-16 0)
(2.37829 -1.28526 0)
(2.52849 -1.33922 0)
(2.76945 -1.46346 0)
(2.9185 -1.64608 0)
(3.06906 -1.70877 0)
(3.0896 -1.7359 0)
(3.13078 -1.56119 0)
(3.13767 -1.44181 0)
(3.1408 -1.19419 0)
(3.14873 -1.01168 0)
(3.14834 -0.885703 0)
(3.13156 -0.758218 0)
(3.11227 -0.610239 0)
(3.09798 -0.436432 0)
(3.07106 -0.220192 0)
(3.00354 -0.0129702 0)
(2.94181 0.12498 0)
(2.87511 0.254155 0)
(2.82248 0.356264 0)
(2.80661 0.388395 0)
(2.81201 0.373789 0)
(2.86863 0.290264 0)
(2.94738 0.131363 0)
(2.99416 0.0144738 0)
(2.99985 0.000345019 0)
(3 2.87971e-06 0)
(3 1.72335e-08 0)
(3 9.0118e-11 0)
(3 4.04756e-13 0)
(3 -1.42196e-15 0)
(2.36132 -1.27923 0)
(2.51886 -1.33426 0)
(2.76367 -1.46127 0)
(2.91325 -1.64156 0)
(3.06906 -1.69455 0)
(3.09447 -1.72777 0)
(3.11392 -1.51589 0)
(3.1241 -1.37384 0)
(3.14781 -1.21078 0)
(3.14365 -1.06091 0)
(3.14156 -0.916679 0)
(3.13716 -0.758779 0)
(3.13626 -0.572308 0)
(3.10626 -0.322275 0)
(3.03402 -0.115611 0)
(2.98565 0.00524882 0)
(2.93178 0.11745 0)
(2.86767 0.256122 0)
(2.8172 0.367361 0)
(2.80629 0.393896 0)
(2.81681 0.376853 0)
(2.87376 0.300913 0)
(2.96287 0.0944516 0)
(2.99679 0.00807269 0)
(2.99994 0.000150101 0)
(3 1.16781e-06 0)
(3 6.79132e-09 0)
(3 3.49702e-11 0)
(3 1.5151e-13 0)
(3 -2.1584e-15 0)
(2.34668 -1.27427 0)
(2.50597 -1.33534 0)
(2.75654 -1.46674 0)
(2.90834 -1.6502 0)
(3.07338 -1.68292 0)
(3.09355 -1.70664 0)
(3.10563 -1.49002 0)
(3.12077 -1.38824 0)
(3.14706 -1.25541 0)
(3.15322 -1.06902 0)
(3.16598 -0.897154 0)
(3.17423 -0.673668 0)
(3.13677 -0.436886 0)
(3.0631 -0.226832 0)
(3.02222 -0.112583 0)
(2.97487 0.0042552 0)
(2.92176 0.156636 0)
(2.85515 0.300336 0)
(2.81047 0.382915 0)
(2.80663 0.395345 0)
(2.82419 0.385687 0)
(2.88569 0.265766 0)
(2.97025 0.0715884 0)
(2.99809 0.00451746 0)
(2.99997 6.6751e-05 0)
(3 4.70536e-07 0)
(3 2.66671e-09 0)
(3 1.34874e-11 0)
(3 5.42853e-14 0)
(3 -2.04811e-15 0)
(2.33804 -1.27153 0)
(2.49478 -1.33584 0)
(2.74462 -1.47404 0)
(2.90515 -1.66791 0)
(3.07691 -1.66126 0)
(3.08233 -1.70998 0)
(3.10776 -1.52072 0)
(3.12806 -1.40501 0)
(3.16513 -1.25471 0)
(3.20233 -1.0048 0)
(3.20178 -0.783327 0)
(3.13814 -0.538489 0)
(3.08891 -0.360088 0)
(3.05621 -0.249854 0)
(3.01412 -0.116968 0)
(2.96516 0.0667502 0)
(2.89238 0.237727 0)
(2.83244 0.346169 0)
(2.80508 0.388829 0)
(2.80636 0.391171 0)
(2.82616 0.362441 0)
(2.91444 0.194208 0)
(2.98021 0.04568 0)
(2.99907 0.00206059 0)
(2.99999 2.58704e-05 0)
(3 1.78733e-07 0)
(3 1.00796e-09 0)
(3 5.0651e-12 0)
(3 1.71183e-14 0)
(3 -2.0386e-15 0)
(2.33302 -1.26979 0)
(2.47949 -1.32731 0)
(2.73113 -1.474 0)
(2.91203 -1.68106 0)
(3.08081 -1.67112 0)
(3.08046 -1.71144 0)
(3.12465 -1.52575 0)
(3.17307 -1.36578 0)
(3.22078 -1.15782 0)
(3.20376 -0.88347 0)
(3.14612 -0.661637 0)
(3.11437 -0.525323 0)
(3.08286 -0.39811 0)
(3.04864 -0.257776 0)
(3.01048 -0.0504829 0)
(2.93186 0.150743 0)
(2.87182 0.273465 0)
(2.8206 0.362272 0)
(2.80176 0.38991 0)
(2.80691 0.381185 0)
(2.84945 0.309745 0)
(2.92944 0.161619 0)
(2.98974 0.0245279 0)
(2.99961 0.000886112 0)
(3 9.64228e-06 0)
(3 6.45988e-08 0)
(3 3.64781e-10 0)
(3 1.82978e-12 0)
(3 2.5039e-15 0)
(3 -2.13522e-15 0)
(2.32695 -1.26783 0)
(2.47407 -1.32388 0)
(2.71848 -1.48182 0)
(2.91791 -1.68122 0)
(3.07928 -1.68759 0)
(3.09841 -1.69494 0)
(3.1813 -1.46284 0)
(3.19559 -1.23785 0)
(3.17437 -0.999637 0)
(3.16517 -0.844586 0)
(3.13962 -0.693453 0)
(3.10732 -0.563014 0)
(3.08076 -0.401118 0)
(3.05484 -0.181766 0)
(2.9788 0.0447429 0)
(2.92393 0.162583 0)
(2.86027 0.283046 0)
(2.81232 0.376657 0)
(2.80047 0.392001 0)
(2.8078 0.374675 0)
(2.86916 0.2877 0)
(2.94675 0.134651 0)
(2.99399 0.0153283 0)
(2.99983 0.000396414 0)
(3 3.63683e-06 0)
(3 2.32849e-08 0)
(3 1.2947e-10 0)
(3 6.38029e-13 0)
(3 -3.24171e-15 0)
(3 -2.68114e-15 0)
(2.32047 -1.27044 0)
(2.47881 -1.33071 0)
(2.71118 -1.50743 0)
(2.93197 -1.6786 0)
(3.08227 -1.69293 0)
(3.1134 -1.67132 0)
(3.17211 -1.36399 0)
(3.1658 -1.20081 0)
(3.16013 -1.02647 0)
(3.1474 -0.886197 0)
(3.13408 -0.724206 0)
(3.1215 -0.542552 0)
(3.09907 -0.298854 0)
(3.01789 -0.0575883 0)
(2.96866 0.0579033 0)
(2.90964 0.180565 0)
(2.84526 0.316865 0)
(2.80542 0.392451 0)
(2.79907 0.399674 0)
(2.81451 0.376611 0)
(2.87552 0.297257 0)
(2.96498 0.0916051 0)
(2.99682 0.00838134 0)
(2.99993 0.000164419 0)
(3 1.35633e-06 0)
(3 8.35591e-09 0)
(3 4.55468e-11 0)
(3 2.12861e-13 0)
(3 -6.1906e-15 0)
(3 -2.84429e-15 0)
(2.31524 -1.2724 0)
(2.47888 -1.33477 0)
(2.71546 -1.529 0)
(2.93976 -1.69101 0)
(3.08724 -1.6841 0)
(3.12532 -1.56372 0)
(3.1365 -1.39417 0)
(3.14615 -1.23587 0)
(3.15431 -1.07254 0)
(3.15938 -0.878004 0)
(3.16348 -0.678484 0)
(3.13966 -0.398615 0)
(3.05346 -0.158855 0)
(3.00198 -0.0367829 0)
(2.95247 0.0802264 0)
(2.88577 0.246569 0)
(2.82805 0.354099 0)
(2.80134 0.400414 0)
(2.801 0.404897 0)
(2.8231 0.388852 0)
(2.89124 0.258163 0)
(2.97392 0.0658027 0)
(2.9984 0.00402132 0)
(2.99997 6.35385e-05 0)
(3 4.85401e-07 0)
(3 2.93011e-09 0)
(3 1.57512e-11 0)
(3 6.51786e-14 0)
(3 -6.96755e-15 0)
(3 -2.67682e-15 0)
(2.31223 -1.27152 0)
(2.46615 -1.34026 0)
(2.70394 -1.53834 0)
(2.94699 -1.70042 0)
(3.09686 -1.61702 0)
(3.10856 -1.55356 0)
(3.1185 -1.4026 0)
(3.15506 -1.22267 0)
(3.18474 -1.0561 0)
(3.20423 -0.764087 0)
(3.16502 -0.502216 0)
(3.08411 -0.274283 0)
(3.03746 -0.156581 0)
(2.98781 -0.034416 0)
(2.924 0.161244 0)
(2.86153 0.297695 0)
(2.81642 0.372549 0)
(2.8004 0.400626 0)
(2.80559 0.405037 0)
(2.82931 0.365508 0)
(2.92179 0.184292 0)
(2.98298 0.0415744 0)
(2.99922 0.00183404 0)
(2.99999 2.35388e-05 0)
(3 1.69444e-07 0)
(3 1.00581e-09 0)
(3 5.34109e-12 0)
(3 1.50581e-14 0)
(3 -7.84901e-15 0)
(3 -2.78537e-15 0)
(2.3055 -1.26447 0)
(2.43982 -1.33053 0)
(2.69321 -1.53632 0)
(2.9552 -1.71154 0)
(3.09165 -1.59844 0)
(3.09651 -1.58975 0)
(3.14413 -1.36571 0)
(3.18687 -1.15307 0)
(3.23567 -0.92515 0)
(3.16288 -0.603278 0)
(3.10515 -0.403441 0)
(3.06895 -0.303843 0)
(3.0242 -0.17081 0)
(2.97058 0.0394617 0)
(2.89891 0.217404 0)
(2.84822 0.318954 0)
(2.80578 0.387106 0)
(2.79992 0.397427 0)
(2.80302 0.386835 0)
(2.85703 0.301219 0)
(2.93506 0.15135 0)
(2.99152 0.0206098 0)
(2.9997 0.000710877 0)
(3 7.88445e-06 0)
(3 5.55812e-08 0)
(3 3.29864e-10 0)
(3 1.74406e-12 0)
(3 -1.71548e-15 0)
(3 -8.02587e-15 0)
(3 -2.62486e-15 0)
(2.29326 -1.24842 0)
(2.41909 -1.30913 0)
(2.66961 -1.5343 0)
(2.94606 -1.71229 0)
(3.07377 -1.62529 0)
(3.09891 -1.60737 0)
(3.16982 -1.30545 0)
(3.21088 -1.0522 0)
(3.17415 -0.778221 0)
(3.1421 -0.605844 0)
(3.09734 -0.451201 0)
(3.05739 -0.310861 0)
(3.02042 -0.0968123 0)
(2.94079 0.126654 0)