/*--------------------------------*- C++ -*----------------------------------*\
  =========                 |
  \\      /  F ield         | OpenFOAM: The Open Source CFD Toolbox
   \\    /   O peration     | Website:  https://openfoam.org
    \\  /    A nd           | Version:  7
     \\/     M anipulation  |
\*---------------------------------------------------------------------------*/
FoamFile
{
    version     2.0;
    format      ascii;
    class       volVectorField;
    location    "1.5";
    object      U;
}
// * * * * * * * * * * * * * * * * * * * * * * * * * * * * * * * * * * * * * //

dimensions      [0 1 -1 0 0 0 0];

internalField   nonuniform List<vector> 
90000
(
(3.72193 -1.68489 0)
(3.69936 -1.51544 0)
(3.69511 -1.47508 0)
(3.67507 -1.31205 0)
(3.67954 -1.12805 0)
(3.69977 -1.0986 0)
(3.71203 -1.06916 0)
(3.70961 -0.928542 0)
(3.72423 -0.863396 0)
(3.7371 -0.806281 0)
(3.75196 -0.752977 0)
(3.75914 -0.677649 0)
(3.76728 -0.630514 0)
(3.77555 -0.546869 0)
(3.78511 -0.513954 0)
(3.78627 -0.44464 0)
(3.79291 -0.388141 0)
(3.79926 -0.331038 0)
(3.80613 -0.28166 0)
(3.8096 -0.211141 0)
(3.8196 -0.173003 0)
(3.82625 -0.113383 0)
(3.83233 -0.0426006 0)
(3.84173 -0.0442498 0)
(3.83419 0.00970668 0)
(3.83354 0.0205281 0)
(3.83155 0.0149248 0)
(3.83211 0.0182777 0)
(3.8298 0.0100433 0)
(3.82947 0.00379373 0)
(3.82886 -0.00633042 0)
(3.82694 -0.00663682 0)
(3.82352 -0.00848408 0)
(3.8208 -0.00646241 0)
(3.82145 0.0032952 0)
(3.82316 0.0163621 0)
(3.82405 0.0220145 0)
(3.82607 0.0316032 0)
(3.8295 0.0278519 0)
(3.83327 0.0274383 0)
(3.83877 0.0169663 0)
(3.84288 0.0095017 0)
(3.8455 -0.00557609 0)
(3.84424 -0.0033509 0)
(3.83824 -0.00971695 0)
(3.8355 -0.010396 0)
(3.8239 -0.0180821 0)
(3.81395 -0.0225052 0)
(3.81223 -0.0330171 0)
(3.81389 -0.0253231 0)
(3.81032 -0.0391155 0)
(3.80854 -0.0313533 0)
(3.81104 -0.0265192 0)
(3.81829 -0.00567475 0)
(3.82359 0.000139391 0)
(3.82906 0.0151106 0)
(3.83473 0.015335 0)
(3.83366 0.00364415 0)
(3.83552 -0.00182401 0)
(3.83582 -0.00571669 0)
(3.83311 -0.00497951 0)
(3.83098 -0.00978943 0)
(3.8331 -0.00415133 0)
(3.83835 -0.0030977 0)
(3.843 -0.00505506 0)
(3.87184 -0.00855817 0)
(3.91592 -0.00961023 0)
(3.94768 -0.0074943 0)
(3.98985 0.00990459 0)
(4.04058 0.0208812 0)
(4.09244 0.035645 0)
(4.12235 0.0691908 0)
(4.12871 0.0814074 0)
(4.13113 0.0944881 0)
(4.13571 0.0989107 0)
(4.1404 0.100882 0)
(4.14689 0.104422 0)
(4.15528 0.110981 0)
(4.16414 0.118569 0)
(4.17224 0.103219 0)
(4.17609 0.113423 0)
(4.17706 0.133528 0)
(4.18459 0.147676 0)
(4.19048 0.154011 0)
(4.19437 0.188101 0)
(4.18224 0.199192 0)
(4.1318 0.180389 0)
(4.0738 0.114682 0)
(4.05469 0.0906315 0)
(4.04568 0.0893948 0)
(4.03284 0.0976414 0)
(3.98078 0.0738035 0)
(3.95664 0.041998 0)
(3.89846 -0.0146956 0)
(3.79141 -0.0773549 0)
(3.81081 -0.0457548 0)
(3.96454 -0.0328082 0)
(4.06611 -0.0180028 0)
(4.18775 0.0695964 0)
(4.27201 0.138468 0)
(3.75262 -1.80803 0)
(3.75264 -1.80754 0)
(3.75262 -1.80719 0)
(3.75243 -1.80712 0)
(3.75209 -1.80726 0)
(3.75186 -1.80727 0)
(3.75123 -1.80814 0)
(3.75108 -1.80838 0)
(3.75065 -1.80941 0)
(3.75074 -1.80863 0)
(3.75042 -1.80848 0)
(3.75053 -1.80692 0)
(3.75031 -1.80679 0)
(3.75097 -1.80547 0)
(3.75075 -1.80684 0)
(3.74972 -1.80175 0)
(3.7457 -1.78363 0)
(3.73772 -1.74774 0)
(3.72577 -1.69454 0)
(3.71058 -1.61172 0)
(3.69434 -1.51726 0)
(3.67533 -1.39244 0)
(3.65645 -1.23819 0)
(3.64198 -1.10979 0)
(3.61751 -0.918246 0)
(3.60163 -0.772818 0)
(3.58687 -0.653638 0)
(3.56694 -0.460549 0)
(3.5941 -0.429036 0)
(3.58021 -0.265842 0)
(3.59714 -0.218263 0)
(3.57686 -0.107402 0)
(3.58496 -0.0804237 0)
(3.56452 0.0102764 0)
(3.57186 0.0253818 0)
(3.55838 0.0824385 0)
(3.55745 0.0922759 0)
(3.5497 0.131369 0)
(3.5487 0.128335 0)
(3.54801 0.156336 0)
(3.54116 0.154301 0)
(3.55511 0.162504 0)
(3.56619 0.153497 0)
(3.58035 0.130969 0)
(3.57335 0.0883205 0)
(3.57922 0.0517461 0)
(3.56763 0.00160552 0)
(3.5671 -0.00903845 0)
(3.58005 -0.027391 0)
(3.59864 -0.0375905 0)
(3.60813 -0.0243169 0)
(3.61402 -0.00485895 0)
(3.61995 0.0249608 0)
(3.62267 0.0562511 0)
(3.61351 0.0919629 0)
(3.6093 0.0957212 0)
(3.59914 0.088426 0)
(3.59151 0.0784478 0)
(3.58455 0.0582974 0)
(3.58088 0.0288237 0)
(3.58497 0.00785092 0)
(3.60173 0.00397027 0)
(3.61097 0.00732985 0)
(3.62081 0.0132035 0)
(3.6251 0.012121 0)
(3.64191 0.000972699 0)
(3.6772 -0.00547864 0)
(3.71345 -0.00301649 0)
(3.76001 0.0102099 0)
(3.80863 0.0335315 0)
(3.87601 0.0619443 0)
(3.92537 0.0964731 0)
(3.94765 0.0984934 0)
(3.95944 0.0911932 0)
(3.97154 0.0916619 0)
(3.98615 0.100582 0)
(4.00565 0.107184 0)
(4.02885 0.114413 0)
(4.05466 0.123425 0)
(4.08044 0.130873 0)
(4.09882 0.135773 0)
(4.11312 0.140952 0)
(4.13464 0.137056 0)
(4.15924 0.150199 0)
(4.16651 0.188982 0)
(4.16463 0.201823 0)
(4.12364 0.16848 0)
(4.05434 0.101614 0)
(4.02808 0.0818099 0)
(4.02093 0.0876782 0)
(4.00565 0.0866212 0)
(3.93452 0.0728683 0)
(3.89748 0.0474364 0)
(3.80308 0.0078819 0)
(3.65605 -0.0596929 0)
(3.63658 -0.0558448 0)
(3.8072 -0.0417664 0)
(3.90594 -0.031669 0)
(4.06928 0.0577641 0)
(4.24068 0.136142 0)
(3.75182 -1.81051 0)
(3.75171 -1.8108 0)
(3.75217 -1.8098 0)
(3.75171 -1.81033 0)
(3.75162 -1.81022 0)
(3.75148 -1.81056 0)
(3.75162 -1.81071 0)
(3.7513 -1.81182 0)
(3.75133 -1.81196 0)
(3.75133 -1.8115 0)
(3.75149 -1.81008 0)
(3.75131 -1.81005 0)
(3.75193 -1.8086 0)
(3.75222 -1.80866 0)
(3.75263 -1.80884 0)
(3.75333 -1.80855 0)
(3.75354 -1.80842 0)
(3.75287 -1.80953 0)
(3.75283 -1.81026 0)
(3.75346 -1.80961 0)
(3.75386 -1.80956 0)
(3.754 -1.80976 0)
(3.75306 -1.81167 0)
(3.75353 -1.81195 0)
(3.75373 -1.8128 0)
(3.75446 -1.81277 0)
(3.75388 -1.81501 0)
(3.74844 -1.80017 0)
(3.736 -1.76646 0)
(3.71029 -1.68329 0)
(3.68516 -1.59397 0)
(3.65693 -1.46621 0)
(3.63087 -1.34847 0)
(3.59996 -1.16754 0)
(3.58251 -1.0471 0)
(3.55732 -0.874083 0)
(3.54286 -0.772014 0)
(3.51548 -0.597669 0)
(3.51551 -0.535434 0)
(3.47963 -0.361684 0)
(3.47512 -0.316824 0)
(3.44744 -0.191161 0)
(3.44277 -0.162272 0)
(3.44555 -0.11382 0)
(3.44908 -0.0950208 0)
(3.45372 -0.0790594 0)
(3.47549 -0.059475 0)
(3.47759 -0.0581268 0)
(3.47557 -0.0501134 0)
(3.47479 -0.0394741 0)
(3.47372 -0.0209046 0)
(3.46794 -0.00224815 0)
(3.46496 0.0228427 0)
(3.46116 0.0323735 0)
(3.45307 0.0356297 0)
(3.4472 0.0322686 0)
(3.44343 0.0348983 0)
(3.44207 0.0164028 0)
(3.44067 0.0224986 0)
(3.44359 0.00444348 0)
(3.44962 -0.0024813 0)
(3.46353 -0.00509815 0)
(3.47381 0.0118277 0)
(3.47005 0.000734227 0)
(3.47318 -0.0190638 0)
(3.47472 -0.0392195 0)
(3.48935 -0.0394849 0)
(3.51101 -0.0312461 0)
(3.54527 -0.00630501 0)
(3.58375 0.00153585 0)
(3.61396 0.0141892 0)
(3.65879 0.0474064 0)
(3.68983 0.0607236 0)
(3.7159 0.0727059 0)
(3.73162 0.0804649 0)
(3.7505 0.0867027 0)
(3.77677 0.0934656 0)
(3.81087 0.0964016 0)
(3.85065 0.102807 0)
(3.89397 0.104148 0)
(3.93217 0.11381 0)
(3.96836 0.129446 0)
(4.01548 0.1212 0)
(4.06842 0.121058 0)
(4.09625 0.174958 0)
(4.12176 0.201485 0)
(4.0959 0.151848 0)
(4.00375 0.109429 0)
(3.96953 0.0923357 0)
(3.95517 0.0913012 0)
(3.9295 0.0931805 0)
(3.84443 0.0821554 0)
(3.78438 0.058057 0)
(3.66773 0.0267814 0)
(3.51489 -0.0451168 0)
(3.46577 -0.0782927 0)
(3.63887 -0.0582391 0)
(3.7385 -0.052498 0)
(3.90907 0.0233974 0)
(4.17674 0.116276 0)
(3.75448 -1.80869 0)
(3.75443 -1.80899 0)
(3.75476 -1.80844 0)
(3.75492 -1.80827 0)
(3.75446 -1.80947 0)
(3.75476 -1.80961 0)
(3.75497 -1.80986 0)
(3.75502 -1.81025 0)
(3.75506 -1.8098 0)
(3.755 -1.80897 0)
(3.75472 -1.80849 0)
(3.75472 -1.80783 0)
(3.75492 -1.80759 0)
(3.75513 -1.80811 0)
(3.75538 -1.80867 0)
(3.75577 -1.80832 0)
(3.75595 -1.80764 0)
(3.75462 -1.80895 0)
(3.75452 -1.81032 0)
(3.75496 -1.81058 0)
(3.75563 -1.8102 0)
(3.75574 -1.8104 0)
(3.75412 -1.81242 0)
(3.75401 -1.81362 0)
(3.75462 -1.81351 0)
(3.75483 -1.81384 0)
(3.75416 -1.81473 0)
(3.75398 -1.81514 0)
(3.75375 -1.81484 0)
(3.75308 -1.81399 0)
(3.75216 -1.81355 0)
(3.75123 -1.81323 0)
(3.75025 -1.81201 0)
(3.74793 -1.80967 0)
(3.74669 -1.80858 0)
(3.74612 -1.8075 0)
(3.74527 -1.80613 0)
(3.73762 -1.78566 0)
(3.71942 -1.73266 0)
(3.6783 -1.59905 0)
(3.63545 -1.45008 0)
(3.57267 -1.20827 0)
(3.52018 -0.986137 0)
(3.46093 -0.743235 0)
(3.43732 -0.526878 0)
(3.4275 -0.3267 0)
(3.44569 -0.206304 0)
(3.43247 -0.0671245 0)
(3.38612 0.0916552 0)
(3.37879 0.126124 0)
(3.37429 0.187519 0)
(3.36413 0.166609 0)
(3.3613 0.126767 0)
(3.37038 0.07614 0)
(3.38621 0.0301116 0)
(3.39747 0.00764849 0)
(3.4053 0.00380096 0)
(3.41123 -0.00391366 0)
(3.41906 -0.00551013 0)
(3.41495 -0.00635563 0)
(3.4166 -0.000743651 0)
(3.41887 0.0357719 0)
(3.40757 0.0320222 0)
(3.39961 0.0239627 0)
(3.39561 -0.00332731 0)
(3.38931 -0.0298773 0)
(3.3868 -0.0449677 0)
(3.39283 -0.037185 0)
(3.40653 -0.00543084 0)
(3.41728 0.0147927 0)
(3.42549 0.0216205 0)
(3.44192 0.0248436 0)
(3.45592 0.042356 0)
(3.4665 0.062254 0)
(3.48465 0.0868658 0)
(3.50147 0.0905416 0)
(3.5191 0.0833479 0)
(3.54755 0.0811503 0)
(3.58601 0.0877656 0)
(3.63507 0.0968769 0)
(3.68488 0.102906 0)
(3.7383 0.109436 0)
(3.8064 0.119304 0)
(3.88405 0.131143 0)
(3.95402 0.168215 0)
(4.02723 0.207954 0)
(4.01736 0.1557 0)
(3.89282 0.109095 0)
(3.8437 0.0894719 0)
(3.81038 0.0905865 0)
(3.77963 0.0954939 0)
(3.6873 0.0880025 0)
(3.60637 0.0637164 0)
(3.50579 0.0480803 0)
(3.39247 -0.0158949 0)
(3.334 -0.0941588 0)
(3.47083 -0.0714306 0)
(3.58091 -0.0631553 0)
(3.732 -0.00337997 0)
(4.07428 0.0983719 0)
(3.75547 -1.81255 0)
(3.75556 -1.8129 0)
(3.75602 -1.81253 0)
(3.75614 -1.81275 0)
(3.75607 -1.81341 0)
(3.75624 -1.81361 0)
(3.75634 -1.8139 0)
(3.75647 -1.8138 0)
(3.75661 -1.81253 0)
(3.75662 -1.81148 0)
(3.75634 -1.81105 0)
(3.75632 -1.8105 0)
(3.75636 -1.81059 0)
(3.75606 -1.81168 0)
(3.75609 -1.81189 0)
(3.75639 -1.81098 0)
(3.75608 -1.81021 0)
(3.75474 -1.81123 0)
(3.75479 -1.81227 0)
(3.75512 -1.81264 0)
(3.75553 -1.81252 0)
(3.75576 -1.81238 0)
(3.75495 -1.81318 0)
(3.75444 -1.81405 0)
(3.75427 -1.81441 0)
(3.75425 -1.81439 0)
(3.75419 -1.81431 0)
(3.75409 -1.81438 0)
(3.75322 -1.81349 0)
(3.75137 -1.81231 0)
(3.75056 -1.8115 0)
(3.7497 -1.81086 0)
(3.7491 -1.81058 0)
(3.74797 -1.80861 0)
(3.74573 -1.80636 0)
(3.74465 -1.80534 0)
(3.74362 -1.80425 0)
(3.74283 -1.80273 0)
(3.74198 -1.80126 0)
(3.74049 -1.80024 0)
(3.73871 -1.79932 0)
(3.73766 -1.79811 0)
(3.73695 -1.79716 0)
(3.73574 -1.79655 0)
(3.72728 -1.77731 0)
(3.69932 -1.69588 0)
(3.66128 -1.54204 0)
(3.61694 -1.33353 0)
(3.57962 -1.0613 0)
(3.56455 -0.875975 0)
(3.53909 -0.626112 0)
(3.5204 -0.431827 0)
(3.48238 -0.283486 0)
(3.46266 -0.183137 0)
(3.44941 -0.124351 0)
(3.43763 -0.081016 0)
(3.43666 -0.07397 0)
(3.43097 -0.0517719 0)
(3.42242 -0.0216341 0)
(3.41361 0.000872401 0)
(3.4001 0.0225915 0)
(3.37941 0.0576558 0)
(3.36262 0.0494909 0)
(3.34368 0.0168133 0)
(3.34384 -0.0186181 0)
(3.33959 -0.0392597 0)
(3.34393 -0.0463925 0)
(3.35166 -0.0471419 0)
(3.35206 -0.00853154 0)
(3.3427 0.0123374 0)
(3.3359 0.0256857 0)
(3.33075 0.0323147 0)
(3.32546 0.0311384 0)
(3.32083 0.0422099 0)
(3.31702 0.0789804 0)
(3.32044 0.086558 0)
(3.32294 0.0825792 0)
(3.33159 0.0699835 0)
(3.35278 0.0743524 0)
(3.38735 0.0870342 0)
(3.42794 0.099727 0)
(3.48041 0.100499 0)
(3.55204 0.0917606 0)
(3.63567 0.0945762 0)
(3.73241 0.125583 0)
(3.84584 0.192578 0)
(3.86362 0.159325 0)
(3.69988 0.115543 0)
(3.63426 0.097088 0)
(3.58866 0.0971975 0)
(3.55754 0.106158 0)
(3.47474 0.105763 0)
(3.39848 0.0851243 0)
(3.35054 0.0622643 0)
(3.29792 -0.000647402 0)
(3.25242 -0.0969339 0)
(3.31004 -0.0946457 0)
(3.43928 -0.0836253 0)
(3.5519 -0.0431169 0)
(3.93219 0.0616968 0)
(3.75819 -1.81301 0)
(3.75844 -1.81306 0)
(3.75882 -1.81296 0)
(3.75873 -1.81351 0)
(3.7588 -1.81381 0)
(3.75885 -1.814 0)
(3.75879 -1.81438 0)
(3.75881 -1.81402 0)
(3.75877 -1.81318 0)
(3.75873 -1.81226 0)
(3.75875 -1.81137 0)
(3.75823 -1.81139 0)
(3.75762 -1.81239 0)
(3.75764 -1.81238 0)
(3.75777 -1.81142 0)
(3.75789 -1.81038 0)
(3.7576 -1.81008 0)
(3.75656 -1.81078 0)
(3.75626 -1.81165 0)
(3.75644 -1.81212 0)
(3.75679 -1.81208 0)
(3.75699 -1.81174 0)
(3.75648 -1.81243 0)
(3.75562 -1.81329 0)
(3.75481 -1.81308 0)
(3.75445 -1.81286 0)
(3.75388 -1.81279 0)
(3.75353 -1.81285 0)
(3.75278 -1.8122 0)
(3.7506 -1.81023 0)
(3.74973 -1.80941 0)
(3.7484 -1.80795 0)
(3.74767 -1.80691 0)
(3.74717 -1.80637 0)
(3.74588 -1.8048 0)
(3.74469 -1.80394 0)
(3.74391 -1.8031 0)
(3.74243 -1.80157 0)
(3.7414 -1.79965 0)
(3.74061 -1.79878 0)
(3.73915 -1.79771 0)
(3.73717 -1.79603 0)
(3.73631 -1.79494 0)
(3.73571 -1.79418 0)
(3.7341 -1.79403 0)
(3.73287 -1.79391 0)
(3.73246 -1.79358 0)
(3.7328 -1.79235 0)
(3.73334 -1.79132 0)
(3.73324 -1.79179 0)
(3.7267 -1.7609 0)
(3.69719 -1.59887 0)
(3.64095 -1.28114 0)
(3.58822 -0.922966 0)
(3.56037 -0.674424 0)
(3.5153 -0.404408 0)
(3.53416 -0.294822 0)
(3.46101 -0.0667072 0)
(3.46183 -0.00222468 0)
(3.40349 0.107652 0)
(3.38756 0.109828 0)
(3.36045 0.0831952 0)
(3.33527 0.0527444 0)
(3.3283 0.0066467 0)
(3.33496 -0.00522641 0)
(3.33642 -0.0275373 0)
(3.33197 -0.0382178 0)
(3.33216 -0.0394746 0)
(3.32538 -0.0146782 0)
(3.31248 0.00325359 0)
(3.30321 0.013435 0)
(3.29509 0.0296852 0)
(3.28584 0.044137 0)
(3.2736 0.0591837 0)
(3.25173 0.0712158 0)
(3.23665 0.074748 0)
(3.22505 0.0729069 0)
(3.21514 0.0646156 0)
(3.2203 0.0606607 0)
(3.23148 0.062975 0)
(3.24959 0.074381 0)
(3.28321 0.0771961 0)
(3.33845 0.0799249 0)
(3.39924 0.0870417 0)
(3.47964 0.100153 0)
(3.57934 0.151819 0)
(3.6063 0.170243 0)
(3.45991 0.127224 0)
(3.38244 0.116314 0)
(3.34574 0.106061 0)
(3.31724 0.111912 0)
(3.2682 0.110827 0)
(3.23133 0.0823064 0)
(3.23081 0.06111 0)
(3.22835 0.00353319 0)
(3.20091 -0.095463 0)
(3.1941 -0.1163 0)
(3.29713 -0.0860573 0)
(3.37261 -0.0616779 0)
(3.74442 0.031205 0)
(3.76063 -1.81235 0)
(3.76057 -1.81263 0)
(3.76068 -1.8128 0)
(3.76083 -1.81282 0)
(3.76083 -1.81326 0)
(3.76078 -1.81373 0)
(3.76077 -1.81351 0)
(3.76058 -1.81346 0)
(3.7604 -1.81315 0)
(3.76035 -1.81232 0)
(3.76021 -1.81163 0)
(3.75957 -1.81154 0)
(3.75867 -1.8121 0)
(3.75817 -1.81267 0)
(3.75809 -1.81239 0)
(3.75821 -1.81151 0)
(3.75848 -1.81081 0)
(3.7582 -1.81086 0)
(3.75783 -1.8113 0)
(3.75772 -1.8117 0)
(3.75775 -1.81225 0)
(3.75713 -1.81295 0)
(3.75647 -1.81331 0)
(3.75607 -1.81351 0)
(3.75549 -1.81341 0)
(3.75425 -1.81264 0)
(3.75345 -1.81221 0)
(3.75274 -1.81197 0)
(3.75166 -1.81163 0)
(3.75051 -1.80994 0)
(3.74866 -1.80786 0)
(3.7478 -1.80689 0)
(3.74722 -1.80538 0)
(3.74686 -1.80399 0)
(3.74581 -1.80293 0)
(3.74493 -1.80197 0)
(3.74422 -1.80066 0)
(3.74291 -1.79941 0)
(3.74087 -1.7975 0)
(3.74031 -1.79632 0)
(3.73961 -1.79556 0)
(3.73816 -1.7941 0)
(3.7375 -1.79263 0)
(3.73711 -1.79187 0)
(3.73633 -1.79202 0)
(3.73561 -1.7929 0)
(3.73528 -1.79344 0)
(3.73522 -1.79274 0)
(3.7355 -1.79108 0)
(3.73549 -1.79069 0)
(3.73503 -1.79114 0)
(3.735 -1.7907 0)
(3.7343 -1.78871 0)
(3.73473 -1.78702 0)
(3.73514 -1.78664 0)
(3.71594 -1.70648 0)
(3.68562 -1.52621 0)
(3.63996 -1.25326 0)
(3.604 -0.94225 0)
(3.57786 -0.674686 0)
(3.52954 -0.409881 0)
(3.46447 -0.2169 0)
(3.46093 -0.112635 0)
(3.43231 -0.0236514 0)
(3.38114 -0.00214569 0)
(3.36169 -0.00835976 0)
(3.33568 -0.0161248 0)
(3.31556 -0.0196893 0)
(3.29494 -0.0249448 0)
(3.28791 -0.0164676 0)
(3.2912 0.00142857 0)
(3.28998 0.0250146 0)
(3.2808 0.0514796 0)
(3.26365 0.0726554 0)
(3.23602 0.0733259 0)
(3.20725 0.0673792 0)
(3.19501 0.067109 0)
(3.1789 0.0652555 0)
(3.17113 0.0656925 0)
(3.16844 0.0698479 0)
(3.17239 0.0709138 0)
(3.18427 0.0616953 0)
(3.21017 0.0542141 0)
(3.23711 0.0607133 0)
(3.26855 0.0807646 0)
(3.30298 0.129329 0)
(3.30265 0.172671 0)
(3.22276 0.158308 0)
(3.17292 0.124492 0)
(3.15624 0.110153 0)
(3.14278 0.109495 0)
(3.12824 0.107574 0)
(3.13923 0.0802598 0)
(3.16139 0.0462439 0)
(3.17685 -0.000608206 0)
(3.16537 -0.0861567 0)
(3.13014 -0.126721 0)
(3.15259 -0.105717 0)
(3.21345 -0.0888998 0)
(3.5136 -0.0185627 0)
(3.76228 -1.81241 0)
(3.76216 -1.81266 0)
(3.76208 -1.81307 0)
(3.76215 -1.81319 0)
(3.76225 -1.81317 0)
(3.762 -1.81358 0)
(3.76179 -1.8137 0)
(3.7617 -1.81315 0)
(3.76134 -1.81311 0)
(3.76101 -1.81304 0)
(3.7609 -1.81218 0)
(3.76041 -1.81162 0)
(3.75941 -1.81218 0)
(3.75908 -1.81235 0)
(3.75924 -1.81213 0)
(3.75907 -1.81231 0)
(3.7588 -1.81263 0)
(3.7587 -1.81259 0)
(3.75878 -1.81219 0)
(3.7588 -1.81207 0)
(3.75856 -1.81259 0)
(3.75798 -1.81308 0)
(3.75715 -1.81314 0)
(3.75647 -1.81336 0)
(3.75572 -1.81344 0)
(3.75501 -1.81279 0)
(3.75402 -1.81103 0)
(3.75285 -1.80982 0)
(3.75177 -1.80929 0)
(3.7506 -1.80883 0)
(3.74963 -1.80717 0)
(3.74827 -1.80518 0)
(3.74747 -1.80377 0)
(3.74691 -1.80302 0)
(3.74608 -1.8022 0)
(3.7453 -1.80096 0)
(3.74437 -1.7987 0)
(3.74306 -1.79675 0)
(3.74166 -1.79492 0)
(3.74123 -1.79302 0)
(3.74095 -1.79263 0)
(3.74013 -1.79276 0)
(3.73951 -1.7924 0)
(3.73918 -1.79213 0)
(3.7384 -1.79221 0)
(3.73789 -1.79264 0)
(3.73749 -1.79273 0)
(3.73702 -1.79216 0)
(3.73682 -1.79097 0)
(3.73689 -1.79008 0)
(3.73643 -1.7902 0)
(3.73601 -1.79083 0)
(3.7357 -1.78935 0)
(3.7356 -1.78676 0)
(3.73646 -1.7852 0)
(3.73599 -1.78519 0)
(3.73515 -1.78536 0)
(3.73401 -1.78537 0)
(3.73302 -1.78463 0)
(3.72882 -1.76942 0)
(3.68701 -1.5576 0)
(3.60773 -1.07983 0)
(3.60242 -0.755159 0)
(3.53339 -0.347716 0)
(3.48219 -0.198011 0)
(3.41076 -0.0807551 0)
(3.33639 -0.0247718 0)
(3.30491 -0.0106733 0)
(3.28099 -0.00471527 0)
(3.28436 0.000191607 0)
(3.29492 0.0175054 0)
(3.30022 0.0353639 0)
(3.28843 0.0644701 0)
(3.2571 0.0763668 0)
(3.21942 0.0681406 0)
(3.19757 0.0635964 0)
(3.18123 0.0643107 0)
(3.17038 0.0653145 0)
(3.15498 0.0666552 0)
(3.14973 0.068641 0)
(3.15044 0.0682169 0)
(3.15189 0.0608151 0)
(3.1525 0.0543352 0)
(3.15242 0.0628274 0)
(3.14342 0.0762006 0)
(3.11301 0.122503 0)
(3.07848 0.179916 0)
(3.04768 0.165378 0)
(3.04367 0.12472 0)
(3.04843 0.11485 0)
(3.05486 0.11978 0)
(3.06775 0.114103 0)
(3.10401 0.0734723 0)
(3.12604 0.0375133 0)
(3.14507 -0.00560286 0)
(3.13865 -0.0797305 0)
(3.09437 -0.125015 0)
(3.05573 -0.11395 0)
(3.08097 -0.0834462 0)
(3.26547 -0.0304737 0)
(3.76345 -1.81372 0)
(3.76359 -1.81361 0)
(3.76352 -1.81377 0)
(3.76347 -1.81382 0)
(3.7635 -1.81349 0)
(3.76346 -1.81323 0)
(3.76313 -1.81337 0)
(3.76279 -1.8136 0)
(3.76249 -1.81367 0)
(3.76205 -1.81375 0)
(3.76136 -1.81389 0)
(3.76076 -1.81355 0)
(3.76028 -1.81279 0)
(3.75992 -1.81256 0)
(3.7598 -1.81256 0)
(3.75982 -1.81241 0)
(3.75987 -1.81227 0)
(3.75984 -1.81234 0)
(3.75948 -1.81269 0)
(3.75908 -1.81297 0)
(3.75893 -1.81291 0)
(3.75896 -1.81262 0)
(3.75841 -1.81255 0)
(3.75749 -1.81241 0)
(3.75659 -1.81213 0)
(3.75546 -1.81198 0)
(3.75451 -1.81134 0)
(3.75326 -1.80951 0)
(3.7525 -1.80845 0)
(3.75147 -1.80781 0)
(3.75035 -1.80736 0)
(3.74913 -1.80511 0)
(3.74842 -1.80268 0)
(3.74755 -1.80162 0)
(3.74651 -1.80155 0)
(3.74589 -1.80123 0)
(3.74468 -1.79844 0)
(3.74332 -1.79679 0)
(3.74269 -1.79529 0)
(3.74261 -1.79391 0)
(3.74235 -1.79298 0)
(3.74177 -1.79237 0)
(3.74119 -1.79199 0)
(3.74052 -1.79174 0)
(3.73986 -1.7916 0)
(3.73968 -1.79154 0)
(3.73931 -1.79144 0)
(3.7387 -1.79098 0)
(3.7384 -1.79053 0)
(3.73819 -1.79016 0)
(3.73759 -1.79016 0)
(3.73665 -1.79084 0)
(3.73628 -1.7901 0)
(3.73623 -1.78765 0)
(3.73661 -1.7855 0)
(3.73621 -1.78481 0)
(3.73574 -1.78393 0)
(3.73523 -1.78314 0)
(3.73406 -1.78279 0)
(3.73362 -1.78352 0)
(3.7338 -1.78268 0)
(3.73494 -1.78063 0)
(3.7349 -1.77642 0)
(3.70937 -1.6577 0)
(3.65166 -1.33704 0)
(3.54874 -0.89117 0)
(3.42711 -0.449376 0)
(3.31531 -0.202213 0)
(3.2902 -0.0717179 0)
(3.29705 -0.00383875 0)
(3.30359 0.0275279 0)
(3.30481 0.0499043 0)
(3.27912 0.0658836 0)
(3.24367 0.0557361 0)
(3.21046 0.0413898 0)
(3.19706 0.0542714 0)
(3.1731 0.0677715 0)
(3.16296 0.0688239 0)
(3.14583 0.0665463 0)
(3.13826 0.0672751 0)
(3.13849 0.06641 0)
(3.13872 0.0593335 0)
(3.13089 0.0492231 0)
(3.11205 0.0585033 0)
(3.0863 0.0852647 0)
(3.03256 0.131307 0)
(2.9771 0.185797 0)
(2.96457 0.163526 0)
(2.98314 0.124119 0)
(3.00747 0.10551 0)
(3.02707 0.108451 0)
(3.05185 0.103466 0)
(3.09448 0.0630474 0)
(3.11251 0.0318674 0)
(3.12755 -0.00648924 0)
(3.11852 -0.0735909 0)
(3.07114 -0.119237 0)
(3.01052 -0.118743 0)
(2.98532 -0.0944749 0)
(3.06171 -0.0712176 0)
(3.76428 -1.81508 0)
(3.76424 -1.81528 0)
(3.7643 -1.8152 0)
(3.7643 -1.81516 0)
(3.76424 -1.81519 0)
(3.76425 -1.81496 0)
(3.76424 -1.81475 0)
(3.76413 -1.81462 0)
(3.76401 -1.81408 0)
(3.76378 -1.81332 0)
(3.76271 -1.81339 0)
(3.7616 -1.81406 0)
(3.76122 -1.81363 0)
(3.76102 -1.81285 0)
(3.76077 -1.81234 0)
(3.76059 -1.81206 0)
(3.76066 -1.81182 0)
(3.76115 -1.8116 0)
(3.76088 -1.81159 0)
(3.76013 -1.81158 0)
(3.75985 -1.81167 0)
(3.75949 -1.81166 0)
(3.75902 -1.81133 0)
(3.75859 -1.81079 0)
(3.75792 -1.81051 0)
(3.75699 -1.81062 0)
(3.7562 -1.81036 0)
(3.75494 -1.80863 0)
(3.75369 -1.80696 0)
(3.75228 -1.80652 0)
(3.75124 -1.80643 0)
(3.75043 -1.80503 0)
(3.74979 -1.80273 0)
(3.74875 -1.80155 0)
(3.74756 -1.8018 0)
(3.74692 -1.80104 0)
(3.74528 -1.79799 0)
(3.74424 -1.79674 0)
(3.74349 -1.7955 0)
(3.74323 -1.79395 0)
(3.74324 -1.79324 0)
(3.74271 -1.79209 0)
(3.74237 -1.79121 0)
(3.74181 -1.79057 0)
(3.74122 -1.79054 0)
(3.74072 -1.79082 0)
(3.74045 -1.79078 0)
(3.73996 -1.79056 0)
(3.73971 -1.79007 0)
(3.73959 -1.78947 0)
(3.73883 -1.78915 0)
(3.73751 -1.79017 0)
(3.73702 -1.79049 0)
(3.73683 -1.78816 0)
(3.73682 -1.78541 0)
(3.73681 -1.78418 0)
(3.73679 -1.78257 0)
(3.7369 -1.78164 0)
(3.73684 -1.78194 0)
(3.73627 -1.78187 0)
(3.73499 -1.7803 0)
(3.73499 -1.77759 0)
(3.73557 -1.7741 0)
(3.73428 -1.77229 0)
(3.73158 -1.76915 0)
(3.72549 -1.77539 0)
(3.67949 -1.67893 0)
(3.50388 -1.11396 0)
(3.38979 -0.58189 0)
(3.36624 -0.207716 0)
(3.27962 0.0474264 0)
(3.26732 0.0699237 0)
(3.26183 0.0610156 0)
(3.25084 0.0585437 0)
(3.2275 0.0551735 0)
(3.20747 0.077353 0)
(3.17155 0.0787988 0)
(3.15602 0.072862 0)
(3.13809 0.0688048 0)
(3.13086 0.0676944 0)
(3.12814 0.0660902 0)
(3.124 0.0594026 0)
(3.1109 0.0505482 0)
(3.08451 0.0620322 0)
(3.0591 0.0966391 0)
(3.01576 0.15114 0)
(2.96585 0.193778 0)
(2.95498 0.159355 0)
(2.97241 0.112926 0)
(3.002 0.0912444 0)
(3.02624 0.099464 0)
(3.05683 0.0961612 0)
(3.09471 0.0555542 0)
(3.108 0.026009 0)
(3.1159 -0.00891625 0)
(3.10154 -0.0664008 0)
(3.05015 -0.108862 0)
(2.98255 -0.116639 0)
(2.93476 -0.0923915 0)
(2.95039 -0.0606082 0)
(3.76551 -1.81532 0)
(3.76545 -1.81549 0)
(3.76541 -1.8157 0)
(3.76546 -1.81569 0)
(3.76551 -1.81556 0)
(3.76548 -1.81545 0)
(3.76532 -1.81548 0)
(3.76516 -1.81549 0)
(3.76506 -1.815 0)
(3.76495 -1.81415 0)
(3.76484 -1.81335 0)
(3.76432 -1.81309 0)
(3.76348 -1.81286 0)
(3.7628 -1.81205 0)
(3.76268 -1.81116 0)
(3.76264 -1.81086 0)
(3.76236 -1.81109 0)
(3.76218 -1.81118 0)
(3.7619 -1.81044 0)
(3.76112 -1.80963 0)
(3.76061 -1.80926 0)
(3.7602 -1.80911 0)
(3.75987 -1.80906 0)
(3.75937 -1.80886 0)
(3.75856 -1.80874 0)
(3.75766 -1.80891 0)
(3.75689 -1.80871 0)
(3.75634 -1.80733 0)
(3.75572 -1.80609 0)
(3.7539 -1.80578 0)
(3.75257 -1.80568 0)
(3.75154 -1.80466 0)
(3.75096 -1.80287 0)
(3.74992 -1.80204 0)
(3.74844 -1.80224 0)
(3.74764 -1.80096 0)
(3.74558 -1.79781 0)
(3.74469 -1.79679 0)
(3.74387 -1.79545 0)
(3.74381 -1.79374 0)
(3.74389 -1.79324 0)
(3.74349 -1.79192 0)
(3.74295 -1.79106 0)
(3.74238 -1.79043 0)
(3.74226 -1.78988 0)
(3.74172 -1.78968 0)
(3.74154 -1.78963 0)
(3.74121 -1.78943 0)
(3.74085 -1.78904 0)
(3.74052 -1.78853 0)
(3.73956 -1.78876 0)
(3.73828 -1.79017 0)
(3.73777 -1.79039 0)
(3.73697 -1.78814 0)
(3.73758 -1.78581 0)
(3.73767 -1.78392 0)
(3.73777 -1.78166 0)
(3.73802 -1.78086 0)
(3.73817 -1.78176 0)
(3.73697 -1.78173 0)
(3.73473 -1.77977 0)
(3.73421 -1.77832 0)
(3.73339 -1.77559 0)
(3.73281 -1.77166 0)
(3.73044 -1.76931 0)
(3.72669 -1.77155 0)
(3.71989 -1.77658 0)
(3.71238 -1.77728 0)
(3.68961 -1.75214 0)
(3.53865 -1.17187 0)
(3.41059 -0.555037 0)
(3.35837 -0.223236 0)
(3.30026 -0.0457787 0)
(3.28599 0.0118716 0)
(3.25153 0.0501443 0)
(3.20526 0.0949437 0)
(3.15332 0.0843037 0)
(3.13377 0.0720388 0)
(3.12616 0.0639685 0)
(3.12437 0.0652616 0)
(3.11967 0.0638925 0)
(3.11154 0.0589819 0)
(3.09309 0.0538909 0)
(3.06349 0.0698243 0)
(3.04278 0.107101 0)
(3.02193 0.163946 0)
(3.00303 0.199494 0)
(2.994 0.155945 0)
(3.00114 0.101197 0)
(3.013 0.0846118 0)
(3.03471 0.0931608 0)
(3.07139 0.0915185 0)
(3.09684 0.0542445 0)
(3.10433 0.0194872 0)
(3.10319 -0.0122084 0)
(3.08472 -0.0574987 0)
(3.03138 -0.0948321 0)
(2.95715 -0.108984 0)
(2.90127 -0.0889672 0)
(2.90707 -0.063339 0)
(3.76713 -1.81604 0)
(3.76723 -1.81562 0)
(3.76721 -1.81548 0)
(3.76714 -1.81551 0)
(3.76709 -1.81518 0)
(3.76703 -1.81486 0)
(3.76694 -1.81461 0)
(3.76684 -1.81431 0)
(3.76672 -1.81402 0)
(3.76654 -1.81378 0)
(3.76638 -1.81333 0)
(3.76631 -1.81275 0)
(3.76634 -1.81214 0)
(3.7661 -1.81195 0)
(3.76556 -1.81163 0)
(3.76476 -1.81087 0)
(3.76402 -1.81013 0)
(3.76333 -1.80972 0)
(3.76251 -1.80972 0)
(3.76198 -1.80972 0)
(3.76178 -1.80934 0)
(3.76129 -1.80817 0)
(3.76039 -1.80741 0)
(3.75997 -1.80695 0)
(3.75928 -1.80655 0)
(3.75877 -1.80646 0)
(3.75847 -1.80646 0)
(3.75781 -1.80572 0)
(3.75721 -1.80461 0)
(3.7566 -1.80406 0)
(3.7554 -1.80433 0)
(3.7544 -1.80399 0)
(3.75306 -1.80277 0)
(3.75104 -1.80224 0)
(3.74982 -1.80169 0)
(3.74907 -1.80055 0)
(3.74765 -1.79778 0)
(3.74649 -1.79656 0)
(3.74563 -1.79498 0)
(3.74537 -1.79408 0)
(3.74498 -1.79337 0)
(3.74424 -1.79198 0)
(3.74412 -1.79111 0)
(3.74395 -1.79027 0)
(3.74398 -1.78937 0)
(3.744 -1.78892 0)
(3.74367 -1.78862 0)
(3.74257 -1.7888 0)
(3.7419 -1.78887 0)
(3.74153 -1.78856 0)
(3.74015 -1.789 0)
(3.7388 -1.79024 0)
(3.73841 -1.7904 0)
(3.73842 -1.78886 0)
(3.73934 -1.78667 0)
(3.73966 -1.78415 0)
(3.73943 -1.78085 0)
(3.73873 -1.77989 0)
(3.73823 -1.78144 0)
(3.73634 -1.78081 0)
(3.73419 -1.77951 0)
(3.73327 -1.77889 0)
(3.73194 -1.77626 0)
(3.73164 -1.77236 0)
(3.72947 -1.77005 0)
(3.72572 -1.77084 0)
(3.72001 -1.77448 0)
(3.71531 -1.77617 0)
(3.71042 -1.77563 0)
(3.70854 -1.77139 0)
(3.69048 -1.71402 0)
(3.55003 -1.12605 0)
(3.41873 -0.530715 0)
(3.40582 -0.197335 0)
(3.25884 0.0875383 0)
(3.18758 0.121882 0)
(3.15596 0.0919348 0)
(3.14011 0.0665824 0)
(3.13422 0.0629462 0)
(3.12618 0.068673 0)
(3.11767 0.0655365 0)
(3.10481 0.0596226 0)
(3.08367 0.0566094 0)
(3.05393 0.0753202 0)
(3.03976 0.113282 0)
(3.03894 0.166374 0)
(3.05108 0.187937 0)
(3.05565 0.147419 0)
(3.05339 0.0979466 0)
(3.0462 0.0832907 0)
(3.05907 0.0946434 0)
(3.09173 0.0885849 0)
(3.10311 0.0558398 0)
(3.1026 0.0193602 0)
(3.09523 -0.0114991 0)
(3.07717 -0.0528176 0)
(3.03166 -0.0880472 0)
(2.95485 -0.10557 0)
(2.88407 -0.0807318 0)
(2.88463 -0.0642819 0)
(3.76865 -1.81522 0)
(3.76861 -1.81482 0)
(3.76855 -1.81476 0)
(3.76849 -1.81449 0)
(3.76847 -1.81404 0)
(3.76838 -1.81384 0)
(3.76826 -1.8137 0)
(3.76818 -1.81332 0)
(3.76807 -1.81303 0)
(3.76788 -1.8129 0)
(3.76778 -1.8127 0)
(3.76767 -1.81254 0)
(3.76738 -1.81263 0)
(3.76712 -1.81252 0)
(3.76694 -1.81212 0)
(3.76678 -1.81176 0)
(3.76655 -1.81132 0)
(3.76602 -1.81068 0)
(3.76516 -1.81028 0)
(3.76398 -1.81016 0)
(3.76283 -1.80989 0)
(3.76195 -1.8091 0)
(3.76121 -1.80791 0)
(3.76051 -1.80724 0)
(3.76002 -1.80698 0)
(3.75959 -1.8066 0)
(3.75905 -1.80569 0)
(3.7585 -1.8047 0)
(3.7582 -1.80415 0)
(3.75763 -1.80367 0)
(3.75646 -1.80351 0)
(3.75562 -1.80381 0)
(3.75518 -1.80261 0)
(3.75448 -1.80152 0)
(3.75383 -1.79985 0)
(3.75325 -1.79911 0)
(3.75217 -1.79793 0)
(3.75117 -1.79603 0)
(3.75071 -1.79516 0)
(3.7502 -1.79506 0)
(3.75002 -1.79473 0)
(3.74986 -1.79339 0)
(3.74894 -1.79198 0)
(3.74762 -1.79098 0)
(3.74667 -1.79002 0)
(3.74589 -1.78946 0)
(3.7445 -1.78901 0)
(3.74336 -1.78872 0)
(3.74265 -1.78886 0)
(3.74173 -1.78889 0)
(3.74166 -1.7891 0)
(3.74138 -1.78967 0)
(3.74131 -1.79055 0)
(3.74143 -1.79008 0)
(3.74046 -1.78832 0)
(3.74029 -1.78527 0)
(3.73964 -1.78053 0)
(3.73814 -1.77906 0)
(3.73742 -1.77989 0)
(3.73549 -1.77966 0)
(3.73355 -1.7793 0)
(3.73262 -1.77916 0)
(3.72992 -1.77678 0)
(3.72841 -1.77374 0)
(3.7272 -1.77197 0)
(3.72514 -1.77134 0)
(3.72106 -1.77326 0)
(3.71751 -1.77397 0)
(3.71235 -1.77205 0)
(3.71417 -1.76918 0)
(3.71513 -1.75899 0)
(3.70908 -1.74802 0)
(3.69216 -1.69329 0)
(3.59083 -1.25241 0)
(3.48201 -0.694805 0)
(3.31613 -0.212953 0)
(3.25994 -0.0260597 0)
(3.18774 0.0539527 0)
(3.15649 0.0777911 0)
(3.13038 0.0849469 0)
(3.11887 0.0732533 0)
(3.10682 0.066602 0)
(3.0875 0.0663562 0)
(3.06384 0.0819575 0)
(3.05816 0.107924 0)
(3.07013 0.158381 0)
(3.0899 0.174543 0)
(3.10419 0.138126 0)
(3.10312 0.096049 0)
(3.08849 0.0880153 0)
(3.09843 0.0980409 0)
(3.11822 0.0901091 0)
(3.11485 0.0599186 0)
(3.10619 0.014526 0)
(3.10083 -0.0124941 0)
(3.09092 -0.0448206 0)
(3.06186 -0.0708757 0)
(2.99602 -0.0952941 0)
(2.91218 -0.0800315 0)
(2.89662 -0.0549905 0)
(3.76973 -1.81434 0)
(3.76972 -1.81396 0)
(3.76963 -1.81386 0)
(3.76957 -1.81374 0)
(3.76957 -1.81339 0)
(3.7695 -1.81322 0)
(3.76939 -1.81313 0)
(3.76938 -1.81284 0)
(3.76924 -1.81279 0)
(3.76901 -1.81296 0)
(3.76893 -1.81281 0)
(3.76868 -1.81286 0)
(3.76814 -1.81341 0)
(3.76788 -1.81345 0)
(3.76779 -1.81287 0)
(3.76765 -1.81238 0)
(3.7673 -1.81225 0)
(3.767 -1.81205 0)
(3.76663 -1.81179 0)
(3.76597 -1.81154 0)
(3.76515 -1.81104 0)
(3.76447 -1.81008 0)
(3.76319 -1.80876 0)
(3.76174 -1.80783 0)
(3.76078 -1.80734 0)
(3.76002 -1.80682 0)
(3.75955 -1.80591 0)
(3.75903 -1.80476 0)
(3.75897 -1.80416 0)
(3.75891 -1.80363 0)
(3.759 -1.803 0)
(3.75954 -1.80217 0)
(3.75918 -1.80191 0)
(3.75836 -1.80038 0)
(3.75823 -1.79942 0)
(3.75748 -1.79879 0)
(3.75611 -1.79798 0)
(3.75459 -1.79733 0)
(3.7536 -1.79724 0)
(3.75279 -1.79748 0)
(3.75186 -1.79787 0)
(3.75076 -1.79734 0)
(3.7497 -1.79517 0)
(3.74858 -1.7936 0)
(3.74761 -1.79204 0)
(3.74658 -1.79066 0)
(3.74443 -1.78906 0)
(3.74418 -1.78895 0)
(3.74395 -1.7893 0)
(3.74409 -1.78952 0)
(3.74435 -1.78923 0)
(3.74354 -1.79 0)
(3.74209 -1.79135 0)
(3.74172 -1.79152 0)
(3.7396 -1.78918 0)
(3.73758 -1.78527 0)
(3.73765 -1.78048 0)
(3.73691 -1.77854 0)
(3.73665 -1.7784 0)
(3.73514 -1.77842 0)
(3.73338 -1.77887 0)
(3.73128 -1.77938 0)
(3.72637 -1.77946 0)
(3.72262 -1.77525 0)
(3.72269 -1.77384 0)
(3.72445 -1.76972 0)
(3.72139 -1.77371 0)
(3.72375 -1.7649 0)
(3.72681 -1.75945 0)
(3.72373 -1.75972 0)
(3.71891 -1.75478 0)
(3.71316 -1.72989 0)
(3.7087 -1.72426 0)
(3.6996 -1.71224 0)
(3.68864 -1.67809 0)