x,y,z,p
0,0.3,5.55112e-18,1.54925
2.08556e-18,0.3,-1.38778e-18,1.45407
0.003003,0.2997,2.5016e-19,1.45407
0.00600601,0.299399,-1.58135e-18,1.45407
0.00900901,0.299099,-5.62463e-18,1.45407
0.012012,0.298799,-4.85723e-18,1.45407
0.015015,0.298498,-4.85723e-18,1.45407
0.018018,0.298198,-4.85723e-18,1.45407
0.123123,0.287688,6.10972e-18,0.818065
0.126126,0.287387,3.09208e-18,0.818065
0.129129,0.287087,5.27861e-18,0.818065
0.132132,0.286787,5.73042e-18,0.818065
0.135135,0.286486,6.18223e-18,0.818065
0.138138,0.286186,6.9593e-18,0.818065
0.141141,0.285886,4.16334e-18,0.818065
0.144144,0.285586,4.85723e-18,0.818065
0.147147,0.285285,2.08167e-18,0.818065
0.15015,0.284985,2.77556e-18,0.818065
0.153153,0.284685,3.46945e-18,0.818065
0.156156,0.284384,-2.79559e-18,0.71121
0.159159,0.284084,-3.01004e-18,0.71121
0.162162,0.283784,9.3884e-19,0.71121
0.165165,0.283483,-2.05117e-18,0.71121
0.168168,0.283183,-1.57173e-18,0.71121
0.171171,0.282883,-2.82702e-18,0.71121
0.174174,0.282583,-4.0823e-18,0.71121
0.177177,0.282282,-2.08167e-18,0.71121
0.18018,0.281982,-3.46945e-18,0.71121
0.183183,0.281682,-4.85723e-18,0.71121
0.186186,0.281381,-6.245e-18,0.71121
0.189189,0.281081,-4.16334e-18,0.71121
0.192192,0.280781,-5.55112e-18,0.71121
0.195195,0.28048,-6.27366e-18,0.627166
0.198198,0.28018,-7.15752e-18,0.627166
0.201201,0.27988,-7.3475e-18,0.627166
0.204204,0.27958,-6.49664e-18,0.627166
0.207207,0.279279,-9.11523e-18,0.627166
0.21021,0.278979,-1.26012e-17,0.627166
0.213213,0.278679,-1.3485e-17,0.627166
0.216216,0.278378,-1.72963e-17,0.627166
0.219219,0.278078,-1.52656e-17,0.627166
0.222222,0.277778,-1.249e-17,0.627166
0.225225,0.277477,-1.66533e-17,0.627166
0.228228,0.277177,-1.80411e-17,0.627166
0.231231,0.276877,-1.8735e-17,0.627166
0.234234,0.276577,-1.94289e-17,0.627166
0.237237,0.276276,-2.08167e-17,0.627166
0.24024,0.275976,-2.02138e-17,0.548291
0.243243,0.275676,-1.62187e-17,0.548291
0.246246,0.275375,-1.56932e-17,0.548291
0.249249,0.275075,-1.34328e-17,0.548291
0.252252,0.274775,-8.05001e-18,0.548291
0.255255,0.274474,-7.17747e-18,0.548291
0.258258,0.274174,-4.74368e-18,0.548291
0.261261,0.273874,-2.74356e-18,0.548291
0.264264,0.273574,-1.38778e-18,0.548291
0.267267,0.273273,-2.08167e-18,0.548291
0.27027,0.272973,-5.55112e-18,0.548291
0.273273,0.272673,-2.08167e-18,0.548291
0.276276,0.272372,-5.55112e-18,0.548291
0.279279,0.272072,-3.46945e-18,0.548291
0.282282,0.271772,-3.46945e-18,0.548291
0.285285,0.271471,-3.46945e-18,0.548291
0.288288,0.271171,-1.39498e-18,0.498778
0.291291,0.270871,-4.31962e-18,0.498778
0.294294,0.270571,-3.05369e-19,0.498778
0.297297,0.27027,3.70888e-18,0.498778
0.3003,0.26997,4.94758e-18,0.498778
0.303303,0.26967,1.00027e-17,0.498778
0.306306,0.269369,1.26291e-17,0.498778
0.378378,0.262162,3.46945e-18,0.455373
0.381381,0.261862,-6.93889e-19,0.455373
0.384384,0.261562,2.08167e-18,0.455373
0.387387,0.261261,1.38778e-18,0.455373
0.39039,0.260961,6.93889e-19,0.455373
0.393393,0.260661,4.85723e-18,0.455373
0.396396,0.26036,3.46945e-18,0.455373
0.399399,0.26006,2.77556e-18,0.455373
0.402402,0.25976,3.46945e-18,0.455373
0.405405,0.259459,2.08167e-18,0.455373
0.408408,0.259159,-7.42455e-19,0.447682
0.411411,0.258859,-2.24723e-18,0.447682
0.414414,0.258559,-3.752e-18,0.447682
0.417417,0.258258,-5.25678e-18,0.447682
0.42042,0.257958,-6.76155e-18,0.447682
0.423423,0.257658,-1.00011e-17,0.447682
0.426426,0.257357,-1.32406e-17,0.447682
0.429429,0.257057,-1.30106e-17,0.447682
0.432432,0.256757,-1.27807e-17,0.447682
0.435435,0.256456,-1.15099e-17,0.447682
0.438438,0.256156,-1.10197e-17,0.447682
0.441441,0.255856,-9.18514e-18,0.447682
0.444444,0.255556,-1.04083e-17,0.447682
0.447447,0.255255,-6.93889e-18,0.447682
0.45045,0.254955,-1.04083e-17,0.447682
0.453453,0.254655,-6.93889e-18,0.447682
0.456456,0.254354,-9.02056e-18,0.447682
0.459459,0.254054,-9.02056e-18,0.447682
0.462462,0.253754,-9.02056e-18,0.447682
0.465465,0.253453,-9.02056e-18,0.447682
0.468468,0.253153,-9.02056e-18,0.447682
0.471471,0.252853,-9.02056e-18,0.447682
0.474474,0.252553,-7.63278e-18,0.447682
0.477477,0.252252,-7.63278e-18,0.447682
0.48048,0.251952,-9.09224e-18,0.458032
0.483483,0.251652,-9.19588e-18,0.458032
0.486486,0.251351,-9.29952e-18,0.458032
0.489489,0.251051,-1.28726e-17,0.458032
0.492492,0.250751,-1.29763e-17,0.458032
0.495495,0.25045,-1.48146e-17,0.458032
0.498498,0.25015,-1.49183e-17,0.458032
0.501502,0.24985,-1.39811e-17,0.458032
0.504505,0.24955,-1.40847e-17,0.458032
0.507508,0.249249,-1.31475e-17,0.458032
0.510511,0.248949,-1.70676e-17,0.458032
0.513514,0.248649,-1.40487e-17,0.458032
0.516517,0.248348,-1.38921e-17,0.458032
1.14715,0.185285,4.14018e-18,0.62335
1.15015,0.184985,4.09009e-18,0.62335
1.15315,0.184685,6.81556e-18,0.62335
1.15616,0.184384,6.07158e-18,0.62335
1.15916,0.184084,8.79705e-18,0.62335
1.16216,0.183784,8.05307e-18,0.62335
1.16517,0.183483,1.07785e-17,0.62335
1.16817,0.183183,1.3504e-17,0.62335
1.17117,0.182883,1.276e-17,0.62335
1.17417,0.182583,1.54855e-17,0.62335
1.17718,0.182282,1.37007e-17,0.62335
1.18018,0.181982,1.19159e-17,0.62335
1.18318,0.181682,1.46413e-17,0.62335
1.18619,0.181381,1.56321e-17,0.62335
1.18919,0.181081,1.35003e-17,0.62335
1.19219,0.180781,1.31033e-17,0.62335
1.1952,0.18048,1.58288e-17,0.62335
1.1982,0.18018,1.3697e-17,0.62335
1.2012,0.17988,1.33e-17,0.62335
1.2042,0.17958,1.11682e-17,0.62335
1.20721,0.179279,9.90381e-18,0.62335
1.21021,0.178979,8.46594e-18,0.62335
1.21321,0.178679,7.20154e-18,0.62335
1.21622,0.178378,5.50346e-18,0.62335
1.21922,0.178078,4.23907e-18,0.62335
1.22222,0.177778,2.45425e-18,0.62335
1.22523,0.177477,9.73017e-19,0.62335
1.22823,0.177177,-3.45589e-19,0.62335
1.23123,0.176877,0,0.62335
1.23423,0.176577,3.46945e-18,0.62335
1.23724,0.176276,0,0.62335
1.24024,0.175976,0,0.62335
1.24324,0.175676,-3.46945e-18,0.62335
1.24625,0.175375,0,0.62335
1.24925,0.175075,-3.46945e-18,0.62335
1.25225,0.174775,-5.55112e-18,0.62335
1.25526,0.174474,-6.245e-18,0.62335
1.25826,0.174174,-6.245e-18,0.62335
1.26126,0.173874,-6.245e-18,0.62335
1.26426,0.173574,-8.32667e-18,0.62335
1.26727,0.173273,-6.245e-18,0.62335
1.27027,0.172973,-6.245e-18,0.62335
1.27327,0.172673,-6.245e-18,0.62335
1.27628,0.172372,-2.77556e-18,0.62335
1.27928,0.172072,-2.77556e-18,0.62335
1.28228,0.171772,6.93889e-19,0.62335
1.28529,0.171471,6.93889e-19,0.62335
1.28829,0.171171,3.46945e-18,0.62335
1.29129,0.170871,3.46945e-18,0.62335
1.29429,0.170571,3.46945e-18,0.62335
1.2973,0.17027,6.93889e-18,0.62335
1.3003,0.16997,9.02056e-18,0.62335
1.3033,0.16967,9.02056e-18,0.62335
1.30631,0.169369,1.249e-17,0.62335
1.30931,0.169069,1.249e-17,0.62335
1.31231,0.168769,1.17939e-17,0.608206
1.31532,0.168468,1.10556e-17,0.608206
1.31832,0.168168,1.03173e-17,0.608206
1.32132,0.167868,9.57908e-18,0.608206
1.32432,0.167568,8.84082e-18,0.608206
1.32733,0.167267,8.10256e-18,0.608206
1.33033,0.166967,7.3643e-18,0.608206
1.33333,0.166667,8.7077e-18,0.608206
1.33634,0.166366,8.66333e-18,0.608206
1.33934,0.166066,1.41701e-17,0.608206
1.34234,0.165766,1.34318e-17,0.608206
1.34535,0.165465,1.26935e-17,0.608206
1.34835,0.165165,1.369e-17,0.608206
1.35135,0.164865,1.46865e-17,0.608206
1.35435,0.164565,1.39482e-17,0.608206
1.35736,0.164264,1.32099e-17,0.608206
1.36036,0.163964,1.24717e-17,0.608206
1.36336,0.163664,1.17334e-17,0.608206
1.36637,0.163363,1.27299e-17,0.608206
1.36937,0.163063,1.19916e-17,0.608206
1.37237,0.162763,1.29881e-17,0.608206
1.37538,0.162462,1.22498e-17,0.608206
1.37838,0.162162,1.23789e-17,0.608206
1.38138,0.161862,1.2508e-17,0.608206
1.38438,0.161562,1.26371e-17,0.608206
1.38739,0.161261,1.27662e-17,0.608206
1.39039,0.160961,1.28953e-17,0.608206
1.39339,0.160661,1.25907e-17,0.608206
1.3964,0.16036,1.26331e-17,0.608206
1.3994,0.16006,1.31091e-17,0.608206
1.4024,0.15976,1.35852e-17,0.608206
1.40541,0.159459,1.38715e-17,0.608206
1.40841,0.159159,1.249e-17,0.608206
1.41141,0.158859,1.249e-17,0.608206
1.41441,0.158559,1.249e-17,0.608206
1.41742,0.158258,1.249e-17,0.608206
1.42042,0.157958,1.249e-17,0.608206
1.42342,0.157658,1.59595e-17,0.608206
1.42643,0.157357,1.59595e-17,0.608206
1.42943,0.157057,1.59595e-17,0.608206
1.43243,0.156757,1.249e-17,0.608206
1.43544,0.156456,1.59595e-17,0.608206
1.43844,0.156156,1.59595e-17,0.608206
1.44144,0.155856,1.59595e-17,0.608206
1.44444,0.155556,1.59595e-17,0.608206
1.44745,0.155255,1.59595e-17,0.608206
1.45045,0.154955,1.59595e-17,0.608206
1.45345,0.154655,1.59595e-17,0.608206
1.45646,0.154354,1.59595e-17,0.608206
1.45946,0.154054,1.59595e-17,0.608206
1.46246,0.153754,1.59595e-17,0.608206
1.46547,0.153453,1.59595e-17,0.608206
1.46847,0.153153,1.59595e-17,0.608206
1.47147,0.152853,1.59595e-17,0.608206
1.47447,0.152553,1.59595e-17,0.608206
1.47748,0.152252,1.59595e-17,0.608206
1.48048,0.151952,1.59595e-17,0.608206
1.48348,0.151652,1.59595e-17,0.608206
1.48649,0.151351,1.59595e-17,0.608206
1.48949,0.151051,1.59595e-17,0.608206
1.49249,0.150751,1.59595e-17,0.608206
1.4955,0.15045,1.59595e-17,0.608206
1.4985,0.15015,1.59595e-17,0.608206
1.5015,0.14985,1.66755e-17,0.61162
1.5045,0.14955,1.74138e-17,0.61162
1.50751,0.149249,1.81521e-17,0.61162
1.51051,0.148949,1.95842e-17,0.61162
1.51351,0.148649,2.03225e-17,0.61162
1.51652,0.148348,2.10607e-17,0.61162
1.51952,0.148048,2.1799e-17,0.61162
1.52252,0.147748,2.25373e-17,0.61162
1.52553,0.147447,2.32755e-17,0.61162
1.52853,0.147147,2.40138e-17,0.61162
1.53153,0.146847,2.4752e-17,0.61162
1.53453,0.146547,2.54903e-17,0.61162
1.53754,0.146246,2.27591e-17,0.61162
1.54054,0.145946,2.34974e-17,0.61162
1.54354,0.145646,2.25009e-17,0.61162
1.54655,0.145345,2.32392e-17,0.61162
1.54955,0.145045,2.39774e-17,0.61162
1.55255,0.144745,2.47157e-17,0.61162
1.55556,0.144444,2.37192e-17,0.61162
1.55856,0.144144,2.44575e-17,0.61162
1.56156,0.143844,2.51958e-17,0.61162
1.56456,0.143544,2.5934e-17,0.61162
1.56757,0.143243,2.40702e-17,0.61162
1.57057,0.142943,2.41146e-17,0.61162
1.57357,0.142643,2.4159e-17,0.61162
1.57658,0.142342,2.42033e-17,0.61162
1.57958,0.142042,2.07783e-17,0.61162
1.58258,0.141742,2.28176e-17,0.61162
1.58559,0.141441,2.46834e-17,0.61162
1.58859,0.141141,2.46844e-17,0.61162
1.59159,0.140841,2.30157e-17,0.61162
1.59459,0.140541,2.28884e-17,0.61162
1.5976,0.14024,2.21501e-17,0.61162
1.6006,0.13994,2.14119e-17,0.61162
1.6036,0.13964,2.27553e-17,0.61162
1.60661,0.139339,2.34048e-17,0.61162
1.60961,0.139039,2.12787e-17,0.61162
1.61261,0.138739,2.19283e-17,0.61162
1.61562,0.138438,2.32717e-17,0.61162
1.61862,0.138138,2.25334e-17,0.61162
1.62162,0.137838,2.59585e-17,0.61162
1.62462,0.137538,2.45263e-17,0.61162
1.62763,0.137237,2.37881e-17,0.61162
1.63063,0.136937,2.47845e-17,0.61162
1.63363,0.136637,2.5781e-17,0.61162
1.63664,0.136336,2.50427e-17,0.61162
1.63964,0.136036,2.43045e-17,0.61162
1.64264,0.135736,2.53009e-17,0.61162
1.64565,0.135435,2.45627e-17,0.61162
1.64865,0.135135,2.55591e-17,0.61162
1.65165,0.134835,2.48209e-17,0.61162
1.65465,0.134535,2.58173e-17,0.61162
1.65766,0.134234,2.50791e-17,0.61162
1.66066,0.133934,2.52082e-17,0.61162
1.66366,0.133634,2.53373e-17,0.61162
1.66667,0.133333,2.4599e-17,0.61162
1.66967,0.133033,2.47281e-17,0.61162
1.67267,0.132733,2.48572e-17,0.61162
1.67568,0.132432,2.49863e-17,0.61162
1.67868,0.132132,2.51154e-17,0.61162
1.68168,0.131832,2.50276e-17,0.61162
1.68468,0.131532,2.51134e-17,0.61162
1.68769,0.131231,2.53279e-17,0.61162
1.69069,0.130931,2.43337e-17,0.622186
1.69369,0.130631,2.16082e-17,0.622186
1.6967,0.13033,1.88827e-17,0.622186
1.6997,0.13003,1.82389e-17,0.622186
1.7027,0.12973,1.89829e-17,0.622186
1.70571,0.129429,1.62575e-17,0.622186
1.70871,0.129129,1.70014e-17,0.622186
1.71171,0.128829,1.4276e-17,0.622186
1.71471,0.128529,1.15505e-17,0.622186
1.71772,0.128228,1.22945e-17,0.622186
1.72072,0.127928,9.56901e-18,0.622186
1.72372,0.127628,8.57827e-18,0.622186
1.72673,0.127327,5.8528e-18,0.622186
1.72973,0.127027,6.24983e-18,0.622186
1.73273,0.126727,5.95298e-18,0.622186
1.73574,0.126426,4.61529e-18,0.622186
1.73874,0.126126,3.2776e-18,0.622186
1.74174,0.125826,4.02158e-18,0.622186
1.74474,0.125526,-1.1325e-18,0.622186
1.74775,0.125225,-2.47019e-18,0.622186
1.75075,0.124925,-3.80788e-18,0.622186
1.75375,0.124625,-5.14557e-18,0.622186
1.75676,0.124324,-6.48326e-18,0.622186
1.75976,0.124024,-5.82601e-18,0.622186
1.76276,0.123724,-7.94433e-18,0.622186
1.76577,0.123423,-7.63403e-18,0.622186
1.76877,0.123123,-9.8174e-18,0.622186
1.77177,0.122823,-1.45839e-17,0.622186
1.77477,0.122523,-1.18584e-17,0.622186
1.77778,0.122222,-9.13294e-18,0.622186
1.78078,0.121922,-9.87692e-18,0.622186
1.78378,0.121622,-7.15145e-18,0.622186
1.78679,0.121321,-6.50765e-18,0.622186
1.78979,0.121021,-3.78218e-18,0.622186
1.79279,0.120721,-1.05672e-18,0.622186
1.7958,0.12042,-1.80069e-18,0.622186
1.7988,0.12012,9.24773e-19,0.622186
1.8018,0.11982,1.80794e-19,0.622186
1.8048,0.11952,2.90626e-18,0.622186
1.80781,0.119219,3.89701e-18,0.622186
1.81081,0.118919,7.31636e-18,0.622186
1.81381,0.118619,6.57238e-18,0.622186
1.81682,0.118318,7.91007e-18,0.622186
1.81982,0.118018,5.77831e-18,0.622186
1.82282,0.117718,5.38128e-18,0.622186
1.82583,0.117417,4.6373e-18,0.622186
1.82883,0.117117,5.97499e-18,0.622186
1.83183,0.116817,3.84323e-18,0.622186
1.83483,0.116517,2.57884e-18,0.622186
1.83784,0.116216,1.31444e-18,0.622186
1.84084,0.115916,5.00426e-20,0.622186
1.84384,0.115616,-1.21435e-18,0.622186
1.84685,0.115315,-2.91243e-18,0.622186
1.84985,0.115015,-7.94985e-18,0.622186
1.85285,0.114715,-5.11596e-18,0.622186
2.48348,0.0516517,-1.04807e-17,0.647698
2.48649,0.0513514,-5.72715e-18,0.647698
2.48949,0.0510511,-9.99413e-18,0.647698
2.49249,0.0507508,-8.70999e-18,0.647698
2.4955,0.0504505,-1.08953e-17,0.647698
2.4985,0.0501502,-9.61117e-18,0.647698
2.5015,0.0498498,-1.24904e-17,0.647698
2.5045,0.0495495,-1.46757e-17,0.647698
2.50751,0.0492492,-1.30446e-17,0.647698
2.51051,0.0489489,-1.57503e-17,0.647698
2.51351,0.0486486,-1.49866e-17,0.647698
2.51652,0.0483483,-1.75189e-17,0.647698
2.51952,0.048048,-2.08317e-17,0.647698
2.52252,0.0477477,-1.86989e-17,0.645402
2.52553,0.0474474,-1.85819e-17,0.645402
2.52853,0.0471471,-1.49955e-17,0.645402
2.53153,0.0468468,-1.48785e-17,0.645402
2.53453,0.0465465,-1.12921e-17,0.645402
2.53754,0.0462462,-1.11751e-17,0.645402
2.54054,0.0459459,-1.07111e-17,0.645402
2.54354,0.0456456,-8.51245e-18,0.645402
2.54655,0.0453453,-7.18115e-18,0.645402
2.54955,0.045045,-4.98248e-18,0.645402
2.55255,0.0447447,-2.78382e-18,0.645402
2.55556,0.0444444,-3.9245e-18,0.645402
2.55856,0.0441441,-1.44004e-18,0.645402
2.56156,0.0438438,-5.02648e-18,0.645402
2.56456,0.0435435,-5.14348e-18,0.645402
2.56757,0.0432432,-5.26047e-18,0.645402
2.57057,0.0429429,-8.84691e-18,0.645402
2.57357,0.0426426,-8.96391e-18,0.645402
2.57658,0.0423423,-1.08156e-17,0.645402
2.57958,0.042042,-1.09326e-17,0.645402
2.58258,0.0417417,-1.10496e-17,0.645402
2.58559,0.0414414,-1.11666e-17,0.645402
2.58859,0.0411411,-1.09367e-17,0.645402
2.59159,0.0408408,-9.14547e-18,0.645402
2.59459,0.0405405,-1.24128e-17,0.642765
2.5976,0.0402402,-1.29746e-17,0.642765
2.6006,0.0399399,-1.0067e-17,0.642765
2.6036,0.0396396,-1.06288e-17,0.642765
2.60661,0.0393393,-1.11906e-17,0.642765
2.60961,0.039039,-1.17524e-17,0.642765
2.61261,0.0387387,-1.09265e-17,0.642765
2.61562,0.0384384,-1.28761e-17,0.642765
2.61862,0.0381381,-1.36113e-17,0.642765
2.62162,0.0378378,-1.39997e-17,0.642765
2.69369,0.0306306,9.01709e-19,0.639575
2.6967,0.0303303,-6.35155e-19,0.639575
2.6997,0.03003,1.64437e-18,0.639575
2.7027,0.0297297,4.27085e-18,0.639575
2.70571,0.0294294,6.3769e-18,0.639575
2.70871,0.0291291,8.74317e-18,0.639575
2.71171,0.0288288,9.00066e-18,0.639575
2.71471,0.0285285,4.3235e-18,0.636171
2.71772,0.0282282,3.10402e-18,0.636171
2.72072,0.0279279,1.88453e-18,0.636171
2.72372,0.0276276,2.39977e-18,0.636171
2.72673,0.0273273,2.91501e-18,0.636171
2.72973,0.027027,1.69552e-18,0.636171
2.73273,0.0267267,3.94548e-18,0.636171
2.73574,0.0264264,2.37905e-18,0.636171
2.73874,0.0261261,5.7516e-19,0.636171
2.74174,0.0258258,1.79465e-18,0.636171
2.74474,0.0255255,3.01413e-18,0.636171
2.74775,0.0252252,3.53973e-18,0.636171
2.75075,0.0249249,2.67755e-18,0.636171
2.75375,0.0246246,4.41745e-18,0.636171
2.75676,0.0243243,5.28999e-18,0.636171
2.75976,0.024024,7.02989e-18,0.636171
2.76276,0.0237237,8.41392e-18,0.632364
2.76577,0.0234234,9.99168e-18,0.632364
2.76877,0.0231231,8.09998e-18,0.632364
2.77177,0.0228228,7.94302e-18,0.632364
2.77477,0.0225225,9.52077e-18,0.632364
2.77778,0.0222222,1.02312e-17,0.632364
2.78078,0.0219219,9.64051e-18,0.632364
2.78378,0.0216216,8.29737e-18,0.632364
2.78679,0.0213213,7.41351e-18,0.632364
2.78979,0.021021,1.0693e-17,0.632364
2.79279,0.0207207,7.03356e-18,0.632364
2.7958,0.0204204,8.57831e-18,0.632364
2.7988,0.0201201,1.01231e-17,0.632364
2.8018,0.0198198,8.02488e-18,0.632364
2.8048,0.0195195,1.03719e-17,0.632364
2.80781,0.0192192,8.75996e-19,0.628994
2.81081,0.0189189,1.78434e-18,0.628994
2.81381,0.0186186,2.69268e-18,0.628994
2.81682,0.0183183,5.33574e-18,0.628994
2.81982,0.018018,6.24408e-18,0.628994
2.82282,0.0177177,7.32589e-18,0.628994
2.82583,0.0174174,4.0823e-18,0.628994
2.82883,0.0171171,3.86785e-18,0.628994
2.83183,0.0168168,7.12285e-18,0.628994
2.83483,0.0165165,6.90839e-18,0.628994
2.83784,0.0162162,6.69394e-18,0.628994
2.84084,0.0159159,3.87741e-18,0.628994
2.84384,0.0156156,4.85558e-18,0.628994
2.84685,0.0153153,5.07669e-18,0.626087
2.84985,0.015015,3.2371e-18,0.626087
2.85285,0.0147147,4.17307e-18,0.626087
2.85586,0.0144144,2.33348e-18,0.626087
2.85886,0.0141141,3.09598e-18,0.626087
2.86186,0.0138138,6.51801e-19,0.626087
2.86486,0.0135135,-9.78058e-19,0.626087
2.86787,0.0132132,-8.73194e-19,0.626087
2.87087,0.0129129,-7.44409e-20,0.626087
2.87387,0.0126126,8.97785e-19,0.626087
2.87688,0.0123123,-2.11658e-19,0.626087
2.98198,0.0018018,-2.66238e-18,0.616417
2.98498,0.0015015,-2.56559e-18,0.616417
2.98799,0.0012012,-1.42797e-18,0.616417
2.99099,0.000900901,-2.83215e-18,0.616417
2.99399,0.000600601,-5.0032e-19,0.616417
2.997,0.0003003,-1.63794e-18,0.616417
3,0,0,0.616411
3,1.58272e-18,1.31408e-18,0.63019
