/*--------------------------------*- C++ -*----------------------------------*\
  =========                 |
  \\      /  F ield         | OpenFOAM: The Open Source CFD Toolbox
   \\    /   O peration     | Website:  https://openfoam.org
    \\  /    A nd           | Version:  7
     \\/     M anipulation  |
\*---------------------------------------------------------------------------*/
FoamFile
{
    version     2.0;
    format      ascii;
    class       volScalarField;
    location    "4";
    object      T;
}
// * * * * * * * * * * * * * * * * * * * * * * * * * * * * * * * * * * * * * //

dimensions      [0 0 0 1 0 0 0];

internalField   nonuniform List<scalar> 
90000
(
0.89374
0.902992
0.912497
0.921358
0.929668
0.937335
0.944641
0.951445
0.958025
0.964181
0.970193
0.975804
0.98133
0.986422
0.99149
0.996044
1.00063
1.00461
1.00863
1.01202
1.01529
1.01818
1.02055
1.02254
1.02478
1.02534
1.02621
1.0268
1.02666
1.02606
1.02529
1.02393
1.02286
1.02165
1.01981
1.01856
1.01859
1.01888
1.01938
1.01982
1.02051
1.0211
1.02161
1.02158
1.02133
1.02079
1.01995
1.01925
1.01868
1.01827
1.01817
1.0183
1.01878
1.01951
1.02003
1.01991
1.01956
1.01901
1.01857
1.01824
1.01825
1.01837
1.01865
1.0189
1.01878
1.01844
1.01811
1.01803
1.01811
1.01833
1.01833
1.01813
1.01786
1.01762
1.01763
1.01769
1.01762
1.01752
1.01739
1.01729
1.01719
1.0171
1.01704
1.01698
1.01689
1.01664
1.01612
1.01527
1.014
1.01252
1.01112
1.01001
1.0092
1.00855
1.00779
1.00688
1.00597
1.00526
1.00478
1.00398
0.885819
0.886311
0.887254
0.888709
0.890653
0.893135
0.896064
0.899526
0.903365
0.907714
0.912358
0.917454
0.922739
0.928402
0.93412
0.940151
0.946063
0.95223
0.958115
0.964133
0.96988
0.975391
0.980937
0.985722
0.990667
0.99489
0.99898
1.00223
1.00543
1.0077
1.00992
1.01115
1.01305
1.01532
1.01805
1.01947
1.02074
1.02135
1.02165
1.02156
1.02118
1.02085
1.0204
1.01947
1.01839
1.01789
1.01767
1.01748
1.01756
1.01785
1.01823
1.01857
1.01864
1.01849
1.01829
1.01793
1.01767
1.01745
1.01746
1.01761
1.01789
1.01789
1.01781
1.01765
1.01748
1.01732
1.01741
1.01759
1.01763
1.01758
1.01743
1.01723
1.01714
1.01714
1.01715
1.01707
1.01695
1.01687
1.01684
1.0168
1.01671
1.01663
1.0166
1.01656
1.01646
1.0162
1.01569
1.01487
1.01366
1.01219
1.01071
1.00962
1.00888
1.00818
1.00737
1.00654
1.0057
1.00491
1.00449
1.00371
0.884895
0.884871
0.884843
0.884818
0.884797
0.884809
0.884852
0.884947
0.885116
0.885389
0.885791
0.886378
0.887175
0.888281
0.889694
0.891585
0.893884
0.896849
0.900319
0.904633
0.909485
0.915297
0.921554
0.928788
0.936237
0.944534
0.952839
0.961455
0.970026
0.978253
0.986476
0.993841
1.00043
1.00491
1.00855
1.01071
1.01233
1.01313
1.01386
1.01426
1.01461
1.01422
1.01321
1.01245
1.01277
1.01329
1.01407
1.01515
1.01605
1.01663
1.01655
1.01615
1.01552
1.01464
1.01417
1.0139
1.01407
1.01476
1.01557
1.01581
1.01573
1.01532
1.01492
1.01455
1.01477
1.01531
1.01575
1.01573
1.01548
1.01519
1.01504
1.01526
1.0155
1.01549
1.01536
1.01524
1.01526
1.01531
1.01529
1.01523
1.01515
1.01516
1.01517
1.01514
1.01504
1.01483
1.0144
1.01364
1.01253
1.01106
1.00962
1.00851
1.00773
1.00707
1.00638
1.00561
1.00477
1.0041
1.00358
1.00277
0.883643
0.883615
0.883581
0.883542
0.883506
0.883465
0.883421
0.883376
0.883333
0.883291
0.883251
0.88321
0.88317
0.883137
0.883106
0.883119
0.883173
0.883292
0.883498
0.88384
0.88436
0.885175
0.886324
0.888044
0.890319
0.893594
0.897628
0.903138
0.90948
0.917586
0.926236
0.936487
0.946797
0.957099
0.967002
0.975311
0.98313
0.988422
0.993847
0.996822
0.999902
1.0016
1.00352
1.00573
1.0089
1.01119
1.01304
1.01387
1.01408
1.01397
1.01345
1.01245
1.01144
1.01024
1.01018
1.01067
1.01156
1.01234
1.01275
1.01262
1.01211
1.01156
1.01131
1.01166
1.01222
1.01263
1.01279
1.01258
1.01226
1.0121
1.01234
1.01266
1.01287
1.0128
1.01262
1.01262
1.01268
1.01274
1.01272
1.01272
1.01276
1.01284
1.0129
1.01288
1.01282
1.01266
1.01227
1.01157
1.01052
1.00918
1.00774
1.0066
1.00586
1.00529
1.00462
1.00385
1.00318
1.00253
1.00199
1.00124
0.882239
0.882219
0.882197
0.882172
0.882146
0.882118
0.882088
0.882055
0.882018
0.881979
0.88194
0.881902
0.881865
0.881828
0.881795
0.881752
0.881702
0.881655
0.881609
0.881562
0.881516
0.881478
0.881439
0.881441
0.881472
0.881597
0.881852
0.882336
0.883124
0.88449
0.886495
0.889775
0.894166
0.900797
0.908698
0.919277
0.930452
0.943108
0.955429
0.967115
0.978042
0.986679
0.9951
1.00012
1.00345
1.00527
1.00711
1.00809
1.00866
1.00802
1.00645
1.00648
1.00697
1.00792
1.00893
1.0097
1.00983
1.00952
1.00905
1.00858
1.00838
1.00858
1.00917
1.0098
1.0099
1.00974
1.0095
1.00929
1.00937
1.00962
1.00991
1.00995
1.00996
1.00998
1.01004
1.01011
1.01017
1.01015
1.01016
1.01023
1.01031
1.01041
1.01043
1.01042
1.01038
1.01027
1.00994
1.00927
1.00833
1.00703
1.00555
1.00445
1.00374
1.00316
1.00251
1.00188
1.00125
1.00063
1.00011
0.999404
0.881081
0.881067
0.881051
0.881034
0.881017
0.880999
0.88098
0.88096
0.88094
0.880918
0.880896
0.880873
0.880851
0.880827
0.880802
0.880776
0.880749
0.880715
0.88068
0.880646
0.880613
0.880581
0.880554
0.880527
0.880515
0.880481
0.880441
0.880404
0.880371
0.880358
0.880378
0.880456
0.880676
0.88119
0.882139
0.884014
0.886956
0.892128
0.89897
0.909241
0.920658
0.934623
0.94851
0.961511
0.973197
0.981028
0.988504
0.992096
0.996116
0.997976
1.0009
1.00373
1.00696
1.00883
1.00959
1.00948
1.0089
1.00769
1.00596
1.00603
1.00649
1.00742
1.00843
1.00872
1.00846
1.00795
1.00727
1.00734
1.00771
1.00808
1.00836
1.00827
1.0081
1.00808
1.00822
1.00833
1.00834
1.00827
1.00828
1.00837
1.0085
1.00859
1.00859
1.00857
1.00854
1.00842
1.00808
1.00746
1.00654
1.00524
1.00376
1.00263
1.00195
1.00134
1.00068
1.00008
0.999506
0.998898
0.998418
0.997728
0.880323
0.880315
0.880307
0.880297
0.880287
0.880277
0.880265
0.880254
0.880242
0.88023
0.880217
0.880204
0.880191
0.880178
0.880165
0.880152
0.880138
0.880122
0.880106
0.880089
0.88007
0.880051
0.88003
0.880009
0.879987
0.879964
0.879943
0.879923
0.879903
0.879887
0.879873
0.879878
0.879857
0.879831
0.879816
0.879832
0.879897
0.880116
0.880636
0.881878
0.884102
0.888528
0.894908
0.905392
0.917663
0.933268
0.948576
0.963345
0.976915
0.987311
0.997078
1.0015
1.00457
1.0062
1.00735
1.00674
1.00494
1.00437
1.00492
1.00612
1.00725
1.00787
1.00785
1.00738
1.00646
1.0062
1.00633
1.00686
1.00737
1.00733
1.00721
1.00704
1.00709
1.00728
1.00746
1.00743
1.00733
1.00727
1.00734
1.00744
1.0075
1.00749
1.00749
1.0075
1.00747
1.00734
1.00698
1.00637
1.00544
1.00415
1.00266
1.00148
1.00068
1.00004
0.999416
0.998836
0.998287
0.997656
0.99715
0.996492
0.879912
0.879907
0.879902
0.879896
0.87989
0.879884
0.879878
0.879872
0.879865
0.879857
0.87985
0.879842
0.879834
0.879826
0.879818
0.879809
0.8798
0.87979
0.87978
0.87977
0.879758
0.879745
0.879733
0.879721
0.879708
0.879695
0.879681
0.879667
0.879653
0.879639
0.879625
0.87961
0.8796
0.879592
0.879584
0.879583
0.879589
0.879577
0.879559
0.879566
0.879605
0.879742
0.880144
0.88123
0.883384
0.888092
0.895185
0.907236
0.92105
0.938441
0.955092
0.969242
0.981969
0.988243
0.99504
0.997443
1.00071
1.00381
1.00707
1.00878
1.00867
1.0083
1.00672
1.00516
1.00523
1.00563
1.00658
1.00752
1.00747
1.00713
1.00643
1.00644
1.00665
1.007
1.00717
1.00707
1.00687
1.00689
1.00702
1.00713
1.00709
1.00704
1.00702
1.00703
1.00699
1.00681
1.00647
1.0059
1.00491
1.00354
1.00214
1.00093
1.00003
0.999275
0.998659
0.998151
0.997591
0.99697
0.996466
0.995766
0.879695
0.879692
0.879688
0.879685
0.879681
0.879676
0.879672
0.879668
0.879663
0.879657
0.879652
0.879646
0.87964
0.879634
0.879628
0.879622
0.879614
0.879606
0.8796
0.879593
0.879581
0.879571
0.879561
0.879551
0.879541
0.879531
0.87952
0.879509
0.879498
0.879488
0.879477
0.879467
0.879457
0.879449
0.87944
0.879433
0.879426
0.879428
0.87943
0.879435
0.879444
0.879474
0.879468
0.879477
0.87952
0.879689
0.880163
0.881552
0.884352
0.890628
0.899819
0.915082
0.932044
0.95113
0.96892
0.982897
0.996199
1.00201
1.00547
1.00727
1.00723
1.00558
1.0039
1.00441
1.00581
1.00709
1.00755
1.00748
1.00697
1.00624
1.00614
1.00645
1.00692
1.007
1.00691
1.00669
1.00671
1.0069
1.00699
1.00695
1.00688
1.00683
1.00686
1.00687
1.00681
1.00661
1.00628
1.00573
1.00474
1.00331
1.00191
1.00074
0.999756
0.998919
0.998307
0.997767
0.997216
0.996601
0.99613
0.995428
0.879573
0.87957
0.879567
0.879564
0.879561
0.879557
0.879553
0.87955
0.879546
0.87954
0.879535
0.87953
0.879525
0.879519
0.879513
0.879507
0.8795
0.879493
0.879486
0.879477
0.879467
0.879458
0.879449
0.879439
0.879429
0.879419
0.879408
0.879397
0.879387
0.879378
0.879368
0.879358
0.87935
0.879342
0.879333
0.879326
0.879322
0.879322
0.879324
0.879329
0.879336
0.879348
0.879367
0.879389
0.879426
0.879427
0.879431
0.879444
0.879505
0.879799
0.880624
0.883043
0.887757
0.897926
0.911437
0.931057
0.950813
0.968092
0.983069
0.990266
0.996695
0.999043
1.00366
1.00637
1.00848
1.00841
1.00801
1.00664
1.00547
1.00563
1.00631
1.00723
1.00722
1.00695
1.00642
1.00647
1.00678
1.0071
1.00705
1.00688
1.0067
1.00674
1.00683
1.00683
1.00675
1.00657
1.00627
1.00567
1.00462
1.00326
1.00185
1.0006
0.999501
0.998723
0.998192
0.99761
0.997002
0.996403
0.995959
0.995253
0.879484
0.879481
0.879477
0.879474
0.879471
0.879467
0.879463
0.879458
0.879453
0.879449
0.879445
0.879441
0.879436
0.879431
0.879426
0.87942
0.879413
0.879406
0.879399
0.879391
0.879383
0.879375
0.879366
0.879356
0.879346
0.879335
0.879324
0.879313
0.879302
0.879292
0.879282
0.879272
0.879263
0.879254
0.879247
0.879244
0.879244
0.879245
0.879248
0.879253
0.879262
0.879274
0.87929
0.879307
0.879327
0.879353
0.879383
0.879398
0.879411
0.879393
0.879367
0.8794
0.879583
0.88035
0.88235
0.887816
0.897042
0.913967
0.933759
0.955315
0.975419
0.990088
1.00144
1.00452
1.00713
1.00678
1.00506
1.00448
1.00526
1.00654
1.00755
1.00751
1.00696
1.00608
1.00612
1.0066
1.00711
1.0071
1.00687
1.00661
1.00664
1.00683
1.00684
1.00679
1.0067
1.00657
1.00631
1.00566
1.00452
1.00321
1.00184
1.00045
0.999316
0.998666
0.99815
0.997533
0.996878
0.9963
0.99589
0.995172
0.879377
0.879374
0.879372
0.879369
0.879367
0.879365
0.879361
0.879358
0.879354
0.879353
0.879354
0.879354
0.879353
0.879349
0.879344
0.879338
0.879331
0.879326
0.879319
0.879313
0.879306
0.8793
0.879292
0.879283
0.879273
0.879264
0.879254
0.879242
0.879231
0.879221
0.879213
0.879204
0.879195
0.879183
0.879181
0.879182
0.879184
0.879185
0.879189
0.879195
0.879204
0.879215
0.879226
0.879237
0.87925
0.879266
0.879286
0.879304
0.879312
0.87931
0.879305
0.879275
0.879218
0.879161
0.879187
0.879404
0.880178
0.882824
0.888512
0.901383
0.918801
0.941793
0.964539
0.978665
0.992325
0.99557
0.999968
1.00333
1.00742
1.0084
1.00815
1.00692
1.00541
1.00554
1.00628
1.0073
1.00726
1.00686
1.00639
1.00646
1.00676
1.00689
1.00682
1.00669
1.00665
1.00662
1.00634
1.00561
1.00443
1.00318
1.00182
1.00033
0.999213
0.998646
0.998122
0.997475
0.996829
0.996267
0.995852
0.995113
0.879267
0.879266
0.879264
0.879263
0.879261
0.879261
0.87926
0.879259
0.879257
0.879254
0.879253
0.879252
0.879251
0.879248
0.879246
0.879243
0.879241
0.87924
0.879238
0.879236
0.879234
0.879231
0.879228
0.879225
0.879221
0.879217
0.879212
0.879206
0.879199
0.879192
0.879185
0.879177
0.879166
0.879153
0.87915
0.879148
0.879144
0.879143
0.879143
0.879145
0.87915
0.879156
0.879163
0.879171
0.879179
0.87919
0.879203
0.879217
0.87923
0.879233
0.879228
0.879208
0.879173
0.879122
0.879055
0.879006
0.879006
0.879069
0.879367
0.880669
0.883958
0.893165
0.907567
0.930892
0.955127
0.975364
0.994523
1.00104
1.00588
1.00651
1.00542
1.00409
1.00487
1.00633
1.0075
1.00744
1.00673
1.00606
1.00615
1.00666
1.00693
1.00684
1.00663
1.0066
1.00675
1.00667
1.00631
1.00545
1.00437
1.00314
1.00166
1.00021
0.999276
0.998631
0.998051
0.997401
0.996827
0.996269
0.995807
0.995031
0.879124
0.879124
0.879124
0.879125
0.879126
0.879127
0.879129
0.879131
0.879134
0.879135
0.879137
0.879138
0.87914
0.879143
0.879147
0.879152
0.879158
0.879165
0.87917
0.879176
0.87918
0.879184
0.879189
0.879195
0.879199
0.879203
0.879206
0.879208
0.879207
0.879205
0.879201
0.879193
0.879181
0.879168
0.879155
0.879141
0.879128
0.879116
0.879105
0.879099
0.879098
0.879098
0.8791
0.879108
0.879118
0.87913
0.879143
0.879157
0.879165
0.879169
0.879171
0.879162
0.879136
0.879097
0.879041
0.878971
0.878931
0.878925
0.878923
0.878943
0.879087
0.879754
0.881703
0.888165
0.899726
0.922072
0.946809
0.967702
0.986558
0.992384
0.997938
1.00173
1.00698
1.00829
1.00801
1.0066
1.00531
1.00558
1.00648
1.00706
1.00684
1.00645
1.00648
1.00672
1.00685
1.00667
1.00609
1.00531
1.00437
1.00309
1.00147
1.00014
0.999313
0.998594
0.997924
0.997306
0.996835
0.996284
0.995745
0.99493
0.879006
0.879006
0.879006
0.879008
0.879011
0.879014
0.879018
0.879024
0.87903
0.879035
0.87904
0.879046
0.879051
0.879058
0.879066
0.879074
0.879083
0.879092
0.879101
0.87911
0.87912
0.879129
0.87914
0.879152
0.879163
0.879174
0.879184
0.879194
0.879199
0.8792
0.879198
0.879194
0.879187
0.879174
0.879157
0.879137
0.879116
0.879094
0.87907
0.879046
0.879027
0.879016
0.879011
0.879009
0.879009
0.879011
0.879019
0.879038
0.879072
0.879109
0.879126
0.879128
0.879117
0.879093
0.879054
0.878997
0.878926
0.878869
0.878846
0.878845
0.878856
0.878911
0.879025
0.879379
0.88052
0.885126
0.8947
0.915817
0.940728
0.965414
0.989305
0.99879
1.00507
1.00621
1.00493
1.00397
1.00508
1.00667
1.00721
1.00686
1.006
1.00606
1.00655
1.00693
1.00681
1.00639
1.00585
1.00523
1.00434
1.0029
1.0013
1.00025
0.999372
0.998556
0.997773
0.997286
0.996832
0.996257
0.995667
0.994812
0.878927
0.878929
0.87893
0.878935
0.87894
0.878943
0.878946
0.878951
0.878956
0.87896
0.878964
0.878968
0.878975
0.878983
0.87899
0.878996
0.879004
0.879013
0.87902
0.879028
0.879039
0.87905
0.879063
0.879077
0.879091
0.879104
0.879116
0.879127
0.879135
0.879143
0.879148
0.879149
0.879147
0.87914
0.879128
0.879112
0.879092
0.879068
0.879039
0.879004
0.878968
0.878936
0.878914
0.878907
0.878906
0.878907
0.878911
0.878924
0.878948
0.878987
0.879039
0.879079
0.879087
0.87908
0.879059
0.87902
0.878956
0.878867
0.878791
0.878767
0.878768
0.878785
0.878856
0.87893
0.878954
0.879103
0.879825
0.883372
0.891676
0.911957
0.937236
0.961979
0.983751
0.991071
0.997409
1.00196
1.00758
1.00823
1.00749
1.00544
1.00547
1.00611
1.00706
1.00699
1.00645
1.00605
1.00569
1.00529
1.00433
1.00268
1.00122
1.00027
0.999328
0.99842
0.997684
0.99728
0.996808
0.996218
0.995605
0.994692
0.8789
0.8789
0.8789
0.8789
0.8789
0.878899
0.878899
0.8789
0.878904
0.878904
0.878904
0.878906
0.878908
0.878914
0.878918
0.878921
0.878925
0.878929
0.878934
0.878941
0.878951
0.878962
0.878973
0.878985
0.878997
0.87901
0.879022
0.879032
0.879042
0.879051
0.879062
0.879072
0.879076
0.879075
0.879071
0.879063
0.879052
0.879037
0.879014
0.878984
0.878947
0.878906
0.878864
0.878828
0.878812
0.878811
0.878817
0.878828
0.878844
0.87887
0.878913
0.878974
0.879026
0.87904
0.879035
0.879018
0.878974
0.878888
0.878773
0.878702
0.878696
0.878703
0.878742
0.878819
0.87889
0.87889
0.878859
0.878932
0.879457
0.882501
0.890243
0.910276
0.935619
0.962809
0.988751
0.998813
1.00599
1.00601
1.00356
1.00406
1.00575
1.0072
1.00715
1.00651
1.00585
1.00585
1.00584
1.00533
1.00402
1.00257
1.00147
1.0003
0.999197
0.998232
0.997718
0.99728
0.99675
0.996154
0.995544
0.994625
0.87891
0.878904
0.878899
0.878894
0.878889
0.878885
0.87888
0.878875
0.878869
0.878865
0.878862
0.878858
0.878853
0.878849
0.878847
0.878847
0.878847
0.878846
0.878847
0.878849
0.878852
0.878854
0.878856
0.878859
0.878864
0.878869
0.878876
0.878886
0.878898
0.878913
0.878933
0.878956
0.878979
0.878992
0.878995
0.878996
0.878997
0.878995
0.878988
0.878974
0.878952
0.87892
0.878877
0.878825
0.878776
0.878749
0.878745
0.878748
0.878756
0.878767
0.878788
0.878829
0.878895
0.87896
0.878983
0.87898
0.878959
0.878898
0.878788
0.878675
0.878635
0.878641
0.87867
0.878732
0.878821
0.87887
0.878874
0.878845
0.878767
0.878813
0.879305
0.882205
0.889889
0.910138
0.93668
0.962842
0.984802
0.992495
0.99809
1.00481
1.00793
1.00775
1.00628
1.00539
1.00568
1.00627
1.00598
1.00504
1.00369
1.00273
1.00165
1.00033
0.998941
0.998154
0.99774
0.997254
0.996648
0.996047
0.995471
0.994547
0.878939
0.878929
0.878919
0.878908
0.878898
0.878888
0.878878
0.878867
0.878857
0.878847
0.878837
0.878826
0.878816
0.878806
0.878796
0.878787
0.87878
0.878776
0.878774
0.878772
0.87877
0.878767
0.878762
0.878756
0.878751
0.878747
0.878746
0.878748
0.878755
0.878766
0.87878
0.878803
0.878837
0.878876
0.878913
0.878936
0.878949
0.878958
0.878962
0.878962
0.87896
0.878948
0.878924
0.878883
0.878827
0.878765
0.878718
0.878697
0.878687
0.87868
0.878677
0.878685
0.878717
0.878783
0.878865
0.878913
0.878913
0.878885
0.878811
0.878703
0.878617
0.878608
0.878626
0.87867
0.878744
0.878835
0.87886
0.878855
0.878815
0.878725
0.878685
0.878765
0.879323
0.882312
0.890604
0.911732
0.939053
0.968137
0.992469
1.00222
1.00642
1.0051
1.00326
1.00476
1.00658
1.00645
1.00562
1.00446
1.00362
1.00294
1.00174
1.00008
0.998829
0.998321
0.997785
0.997183
0.996515
0.995942
0.995376
0.994468
0.878954
0.878946
0.878938
0.878928
0.878918
0.878907
0.878895
0.878882
0.878868
0.878855
0.878841
0.878827
0.878813
0.8788
0.878786
0.878772
0.878758
0.878745
0.878734
0.878724
0.878716
0.878708
0.8787
0.878693
0.878685
0.878678
0.878674
0.878675
0.878676
0.878678
0.878683
0.878695
0.878716
0.878749
0.878795
0.878848
0.878893
0.87892
0.878935
0.878944
0.878948
0.878947
0.87894
0.878921
0.878884
0.878832
0.878763
0.878697
0.87865
0.878612
0.878585
0.878576
0.878577
0.878603
0.878673
0.878774
0.878845
0.878852
0.878828
0.878771
0.878689
0.878629
0.878624
0.878637
0.878673
0.878748
0.878825
0.878838
0.878819
0.878751
0.878669
0.87866
0.87868
0.878819
0.879476
0.882685
0.892226
0.914897
0.945033
0.970572
0.988444
0.995497
1.0014
1.00751
1.00737
1.00631
1.00458
1.00402
1.00414
1.00334
1.00162
0.999856
0.998965
0.998383
0.997739
0.997065
0.996407
0.995843
0.995258
0.994383
0.878951
0.878949
0.878947
0.878943
0.87894
0.878935
0.878929
0.878921
0.878912
0.878902
0.878891
0.878879
0.878866
0.878852
0.878838
0.878822
0.878804
0.878786
0.878765
0.878744
0.878724
0.878705
0.878688
0.878674
0.87866
0.878646
0.878636
0.878635
0.878634
0.878633
0.878637
0.878644
0.878653
0.878666
0.878691
0.878728
0.878777
0.878829
0.878876
0.87891
0.878926
0.878927
0.878919
0.878903
0.878884
0.878857
0.878813
0.878748
0.878675
0.878598
0.878535
0.878509
0.878503
0.87851
0.878551
0.878637
0.87874
0.878811
0.878825
0.878812
0.878784
0.878732
0.878669
0.878632
0.878628
0.878651
0.878721
0.878787
0.878791
0.878761
0.878697
0.878665
0.878672
0.878713
0.878766
0.878905
0.879655
0.883457
0.895578
0.920251
0.950618
0.981592
0.998113
1.00573
1.00547
1.00293
1.00369
1.0049
1.00455
1.00321
1.00126
0.999813
0.99914
0.998364
0.997608
0.99691
0.996358
0.99576
0.995109
0.994312
0.878932
0.878935
0.878939
0.878943
0.878945
0.878946
0.878947
0.878948
0.87895
0.87895
0.87895
0.878949
0.878946
0.878942
0.878936
0.878928
0.878918
0.878905
0.878888
0.878867
0.878844
0.878817
0.878789
0.878761
0.878732
0.878702
0.878675
0.87865
0.878628
0.878613
0.878608
0.878604
0.878603
0.878604
0.87861
0.878621
0.87864
0.878667
0.878702
0.878745
0.878791
0.878834
0.878859
0.878862
0.878853
0.87884
0.878825
0.878801
0.878756
0.878679
0.878575
0.8785
0.878481
0.878484
0.878518
0.878585
0.878655
0.878734
0.878796
0.878816
0.878814
0.8788
0.878745
0.878649
0.878598
0.878595
0.878622
0.878693
0.878754
0.878761
0.878745
0.878713
0.878706
0.878718
0.878755
0.878761
0.878758
0.87888
0.880003
0.884846
0.900376
0.928071
0.959243
0.982813
0.993261
0.998858
1.00584
1.00583
1.00438
1.00205
1.00079
1.0005
0.999558
0.998408
0.997417
0.996854
0.996385
0.995688
0.994979
0.994256
0.878895
0.878901
0.878907
0.878913
0.878919
0.878925
0.878931
0.878938
0.878946
0.878953
0.878958
0.878961
0.878963
0.878965
0.878966
0.878967
0.878966
0.878964
0.878958
0.878949
0.878937
0.878922
0.878904
0.878881
0.878852
0.878818
0.878781
0.878742
0.878699
0.878656
0.878616
0.878582
0.878556
0.878543
0.878536
0.878532
0.878531
0.878533
0.878542
0.878558
0.878582
0.878614
0.878652
0.878692
0.878731
0.878774
0.878812
0.878834
0.878837
0.878814
0.878742
0.878657
0.87859
0.878555
0.878556
0.878581
0.878613
0.878643
0.878697
0.878771
0.878806
0.878805
0.878777
0.878687
0.878592
0.878571
0.87858
0.87863
0.878719
0.878778
0.878785
0.878776
0.878746
0.878723
0.878717
0.878712
0.878693
0.878654
0.878669
0.878919
0.880661
0.887755
0.90773
0.937192
0.972267
0.993221
1.00442
1.00397
1.00036
1.00083
1.00161
1.00106
0.999617
0.998063
0.997383
0.997043
0.99642
0.995494
0.994944
0.994393
0.878784
0.878801
0.878816
0.878831
0.878845
0.878858
0.878869
0.878879
0.878887
0.878895
0.878903
0.87891
0.878916
0.878923
0.87893
0.878937
0.878942
0.878941
0.878937
0.878932
0.878926
0.878918
0.878907
0.878892
0.878873
0.878853
0.878829
0.878798
0.87876
0.878715
0.878667
0.878615
0.87856
0.878516
0.878494
0.878487
0.878483
0.878481
0.878482
0.878482
0.87848
0.878481
0.878493
0.878522
0.878574
0.878654
0.878771
0.878857
0.878887
0.878889
0.878868
0.87882
0.878769
0.878727
0.878683
0.878632
0.878593
0.878582
0.878588
0.878646
0.878747
0.878782
0.878772
0.87872
0.878633
0.878585
0.878589
0.878622
0.8787
0.878781
0.878802
0.878799
0.878767
0.878709
0.878663
0.878641
0.878626
0.878618
0.878613
0.878624
0.878685
0.879185
0.881837
0.892791
0.917035
0.949029
0.979665
0.989556
0.995187
1.0025
1.00229
1.00086
0.998487
0.997859
0.99781
0.997315
0.996265
0.995297
0.995149
0.994601
0.878535
0.878541
0.878549
0.87856
0.87857
0.878581
0.878592
0.878603
0.878615
0.878628
0.878641
0.878656
0.878672
0.878689
0.878704
0.878717
0.878732
0.878751
0.878771
0.878789
0.878806
0.878821
0.878827
0.878827
0.878823
0.878817
0.878806
0.87879
0.878772
0.87875
0.87872
0.878681
0.878638
0.878603
0.878583
0.878572
0.878563
0.878554
0.878544
0.878527
0.878493
0.878456
0.878441
0.878442
0.878474
0.878554
0.878694
0.878825
0.878886
0.878901
0.878891
0.878849
0.878811
0.878794
0.878766
0.878696
0.878593
0.878543
0.878536
0.878553
0.878635
0.878733
0.878758
0.878746
0.87871
0.878669
0.878664
0.87868
0.878716
0.878772
0.878799
0.878794
0.878759
0.878692
0.878627
0.878598
0.878594
0.878599
0.878623
0.87867
0.878711
0.87872
0.878823
0.87973
0.884091
0.900509
0.928494
0.962994
0.989293
1.00019
1.00045
0.996614
0.997125
0.998104
0.998041
0.997241
0.996075
0.995487
0.995338
0.994652
0.878334
0.878314
0.878304
0.878302
0.878298
0.878293
0.87829
0.878289
0.878286
0.878285
0.878287
0.878297
0.878316
0.878335
0.878353
0.878372
0.878399
0.878439
0.878486
0.878536
0.878593
0.878651
0.878692
0.878717
0.878739
0.878756
0.878771
0.878778
0.878778
0.878775
0.878761
0.878758
0.878758
0.878759
0.878775
0.8788
0.878816
0.878821
0.878817
0.87879
0.878729
0.878626
0.878516
0.878463
0.878462
0.878499
0.878599
0.878702
0.878767
0.878817
0.878824
0.878796
0.878769
0.878762
0.878752
0.878711
0.878628
0.878549
0.878521
0.878522
0.878572
0.878665
0.878733
0.878767
0.878774
0.878761
0.878746
0.878743
0.878742
0.878742
0.878742
0.878735
0.878717
0.87867
0.87861
0.878584
0.878587
0.878613
0.878672
0.878713
0.878716
0.87871
0.878685
0.878607
0.878771
0.880435
0.888022
0.910681
0.943322
0.970262
0.985832
0.990886
0.998684
0.999434
0.998019
0.995865
0.995887
0.996067
0.995654
0.994582
0.878291
0.878262
0.878225
0.878201
0.878195
0.87819
0.878182
0.878175
0.878172
0.87817
0.878169
0.878169
0.87818
0.878198
0.878218
0.878242
0.878277
0.878322
0.878366
0.878415
0.878474
0.878546
0.878618
0.878691
0.878763
0.878786
0.878786
0.878786
0.878791
0.878796
0.878799
0.878813
0.87884
0.878845
0.878852
0.878883
0.878926
0.878946
0.878948
0.878938
0.878898
0.878802
0.878662
0.87853
0.878477
0.878491
0.878553
0.878594
0.8786
0.878617
0.878625
0.878628
0.878638
0.878666
0.878696
0.878699
0.878677
0.87864
0.878615
0.878604
0.878615
0.878641
0.878698
0.87876
0.878784
0.878779
0.878766
0.87876
0.878734
0.878679
0.878646
0.878641
0.87864
0.878636
0.878627
0.878631
0.87865
0.878686
0.878719
0.878721
0.878716
0.878676
0.878601
0.878482
0.878367
0.878186
0.878613
0.881967
0.895167
0.922134
0.956185
0.983081
0.996917
0.99738
0.993718
0.994594
0.996702
0.996442
0.995641
0.994292
0.878577
0.878547
0.878523
0.878503
0.878485
0.878466
0.878446
0.878424
0.878399
0.878381
0.878372
0.878371
0.878375
0.878386
0.878403
0.878422
0.878442
0.878462
0.878486
0.878521
0.87856
0.878605
0.878665
0.878738
0.878799
0.878834
0.87885
0.878851
0.878842
0.878819
0.878801
0.878798
0.878823
0.87885
0.878845
0.878843
0.878862
0.878895
0.878911
0.878909
0.878883
0.878803
0.878684
0.878588
0.878519
0.878511
0.87853
0.878555
0.878553
0.878532
0.878523
0.878529
0.87855
0.878585
0.878633
0.878668
0.878703
0.878765
0.878816
0.878814
0.878768
0.878698
0.878687
0.878706
0.878724
0.878731
0.878725
0.878711
0.878673
0.878622
0.878601
0.878603
0.878615
0.878643
0.87868
0.878711
0.878735
0.878734
0.87873
0.8787
0.878647
0.878571
0.878489
0.878406
0.878298
0.878141
0.877797
0.877587
0.878579
0.884907
0.903956
0.936266
0.966411
0.981028
0.987832
0.99652
0.997509
0.996302
0.994506
0.99407
0.8789
0.878891
0.878886
0.87888
0.878871
0.878857
0.878836
0.878809
0.878769
0.878724
0.878718
0.878723
0.878719
0.878716
0.878715
0.878713
0.87871
0.878689
0.878693
0.878718
0.878726
0.878716
0.878722
0.878757
0.878796
0.878798
0.87877
0.87872
0.878681
0.87864
0.87859
0.87857
0.878577
0.878595
0.878583
0.878565
0.878569
0.878613
0.87868
0.878722
0.878722
0.878696
0.878673
0.878642
0.878602
0.878589
0.878598
0.878621
0.878617
0.8786
0.87861
0.878618
0.878616
0.878614
0.878619
0.878646
0.878717
0.878838
0.878908
0.878906
0.878838
0.878716
0.878649
0.878608
0.878584
0.878575
0.87857
0.878577
0.87859
0.878598
0.878608
0.878633
0.878668
0.878706
0.878735
0.878749
0.878749
0.878737
0.878689
0.878598
0.878506
0.878471
0.878434
0.878391
0.878314
0.878193
0.877904
0.877423
0.876529
0.87664
0.878884
0.891036
0.916132
0.950753
0.980575
0.993974
0.995644
0.992119
0.993178
0.994532
0.878816
0.878809
0.878802
0.878797
0.878793
0.878784
0.878767
0.878736
0.878696
0.87865
0.878632
0.878639
0.87864
0.878635
0.878624
0.878584
0.87856
0.878571
0.878569
0.878549
0.878559
0.878563
0.878564
0.878586
0.878614
0.878604
0.878568
0.878527
0.878515
0.878507
0.878456
0.878417
0.878392
0.878321
0.878222
0.878177
0.878173
0.878191
0.878248
0.878339
0.878442
0.878534
0.878609
0.878663
0.878687
0.878701
0.878717
0.878766
0.878833
0.878884
0.878891
0.878885
0.878842
0.878715
0.878649
0.87865
0.878692
0.878815
0.878882
0.87888
0.878811
0.878674
0.878599
0.878561
0.878524
0.878495
0.878496
0.878513
0.878553
0.878623
0.878713
0.878778
0.878792
0.878778
0.878757
0.878744
0.878717
0.878657
0.878551
0.878468
0.878419
0.878422
0.878425
0.878443
0.878411
0.878256
0.877937
0.877359
0.876579
0.875606
0.875114
0.876059
0.881584
0.900666
0.932829
0.962162
0.978822
0.986536
0.995113
0.994923
0.878391
0.878427
0.87846
0.878479
0.878491
0.878504
0.878505
0.878496
0.878484
0.87848
0.878484
0.878482
0.878449
0.878384
0.878292
0.878257
0.878259
0.878241
0.878234
0.878242
0.878248
0.878268
0.878318
0.878364
0.878378
0.878379
0.878391
0.878393
0.878406
0.878452
0.87847
0.878451
0.8784
0.878293
0.878158
0.87808
0.87806
0.878066
0.878098
0.87818
0.878318
0.878507
0.878673
0.878729
0.878721
0.878722
0.878734
0.878752
0.878831
0.878945
0.878955
0.878953
0.878899
0.878727
0.878592
0.878577
0.878583
0.878588
0.878569
0.878544
0.878481
0.878458
0.878492
0.878546
0.878557
0.878544
0.878541
0.878561
0.878613
0.878695
0.878815
0.87886
0.878855
0.878818
0.878723
0.878617
0.878542
0.878487
0.878427
0.878417
0.878428
0.878468
0.878533
0.878535
0.878467
0.878275
0.877887
0.877217
0.876354
0.875529
0.875018
0.8746
0.874806
0.877122
0.888263
0.913308
0.948842
0.979229
0.992173
0.99364
0.878114
0.878156
0.878187
0.878209
0.878231
0.878274
0.878319
0.878323
0.878322
0.878323
0.878334
0.878328
0.878282
0.878226
0.878224
0.878232
0.878192
0.87814
0.878137
0.878167
0.87819
0.878187
0.878204
0.878251
0.878314
0.878402
0.878506
0.878593
0.87869
0.878849
0.878981
0.878988
0.878957
0.87887
0.878823
0.878788
0.878711
0.878618
0.878554
0.878577
0.878673
0.878719
0.878714
0.878676
0.878569
0.878521
0.878512
0.878522
0.878614
0.878726
0.878732
0.878702
0.878583
0.878441
0.878387
0.878374
0.87836
0.878335
0.878303
0.878264
0.878249
0.878266
0.878388
0.87862
0.878739
0.878749
0.878747
0.878738
0.878716
0.87874
0.878814
0.878848
0.878829
0.878737
0.878569
0.878431
0.878376
0.87837
0.878393
0.878455
0.878556
0.878649
0.87864
0.878582
0.878463
0.878192
0.877679
0.876969
0.876191
0.875547
0.875178
0.87483
0.874459
0.873851
0.874583
0.879564
0.89828
0.93114
0.961037
0.982541
0.878716
0.878757
0.878761
0.878734
0.878702
0.878711
0.87876
0.878831
0.878879
0.878899
0.878903
0.878905
0.878936
0.878934
0.878906
0.87891
0.878896
0.878832
0.878792
0.878786
0.878793
0.878883
0.878977
0.878959
0.878979
0.879094
0.87918
0.879246
0.879288
0.87933
0.87943
0.879538
0.87954
0.879483
0.879454
0.879462
0.879421
0.879347
0.879257
0.879104
0.878992
0.87892
0.878809
0.878624
0.878384
0.878172
0.878109
0.878154
0.878295
0.878428
0.878465
0.878428
0.878303
0.878225
0.878233
0.878247
0.878249
0.878238
0.878249
0.878267
0.878283
0.878348
0.878528
0.878731
0.878845
0.878866
0.878863
0.878832
0.878747
0.878615
0.87855
0.878536
0.878505
0.878445
0.878376
0.878339
0.878352
0.878377
0.878523
0.878698
0.878789
0.878763
0.878702
0.878587
0.878338
0.877953
0.877443
0.876797
0.876177
0.875742
0.875322
0.874915
0.87446
0.873891
0.873045
0.872697
0.874826
0.886591
0.912298
0.962464
0.881331
0.881244
0.881162
0.881127
0.881105
0.881075
0.881075
0.881091
0.881089
0.881037
0.880876
0.880658
0.880464
0.8803
0.880241
0.880226
0.880179
0.880075
0.879934
0.879729
0.879579
0.879555
0.87956
0.879616
0.879721
0.879794
0.879867
0.879929
0.879905
0.879725
0.879601
0.879526
0.879313
0.879034
0.878963
0.878955
0.878936
0.878906
0.878859
0.878757
0.878723
0.878716
0.878687
0.878561
0.878362
0.878205
0.878168
0.87824
0.878396
0.878523
0.878555
0.878493
0.878382
0.878364
0.878368
0.878417
0.878549
0.878708
0.878913
0.878974
0.878973
0.878931
0.87876
0.878678
0.878667
0.878707
0.878711
0.878652
0.878531
0.878341
0.878186
0.87816
0.878164
0.87821
0.878238
0.878264
0.878337
0.878536
0.878755
0.878826