/*--------------------------------*- C++ -*----------------------------------*\
  =========                 |
  \\      /  F ield         | OpenFOAM: The Open Source CFD Toolbox
   \\    /   O peration     | Website:  https://openfoam.org
    \\  /    A nd           | Version:  7
     \\/     M anipulation  |
\*---------------------------------------------------------------------------*/
FoamFile
{
    version     2.0;
    format      ascii;
    class       volScalarField;
    location    "8";
    object      p;
}
// * * * * * * * * * * * * * * * * * * * * * * * * * * * * * * * * * * * * * //

dimensions      [1 -1 -2 0 0 0 0];

internalField   nonuniform List<scalar> 
90000
(
0.302577
0.346292
0.385567
0.425321
0.456645
0.485847
0.522661
0.558723
0.594546
0.635226
0.678933
0.721987
0.765841
0.808156
0.844457
0.878271
0.903164
0.924399
0.937187
0.946376
0.949244
0.951078
0.952167
0.953295
0.954432
0.952877
0.949988
0.945003
0.936977
0.92661
0.916837
0.907285
0.90777
0.912372
0.919364
0.926855
0.933536
0.938262
0.942499
0.942438
0.940734
0.935608
0.92776
0.922736
0.921374
0.922938
0.926952
0.932835
0.93673
0.937423
0.935685
0.931967
0.927601
0.925896
0.926577
0.929678
0.934691
0.935742
0.934592
0.931142
0.927469
0.926874
0.928717
0.931459
0.93131
0.929931
0.927291
0.926985
0.928186
0.930091
0.929708
0.92799
0.926784
0.926749
0.92701
0.926495
0.925353
0.924464
0.924326
0.923933
0.923476
0.923195
0.923192
0.922629
0.921483
0.920468
0.91984
0.919415
0.918991
0.918637
0.918215
0.917882
0.917539
0.916832
0.915794
0.914315
0.912591
0.910495
0.908217
0.907036
0.261078
0.261062
0.261105
0.261323
0.261838
0.262775
0.264767
0.268141
0.273676
0.281947
0.295219
0.312938
0.338158
0.370325
0.411881
0.46013
0.515146
0.573902
0.630844
0.682716
0.729834
0.771488
0.80657
0.833626
0.86082
0.873318
0.888135
0.895107
0.902103
0.904602
0.909674
0.916524
0.925802
0.935679
0.94128
0.946317
0.948914
0.948047
0.947355
0.944661
0.934944
0.925852
0.918935
0.920047
0.922775
0.927837
0.933618
0.938559
0.939343
0.936845
0.93187
0.92627
0.923248
0.925177
0.927978
0.932837
0.938697
0.937283
0.932821
0.926394
0.924472
0.925881
0.929911
0.933808
0.932406
0.928052
0.925604
0.927102
0.929953
0.93071
0.929141
0.926721
0.926358
0.927396
0.927382
0.926299
0.925095
0.924672
0.924618
0.924046
0.923456
0.923293
0.923307
0.922663
0.921492
0.920444
0.919775
0.919296
0.918883
0.91854
0.91821
0.917917
0.917519
0.916783
0.915719
0.914233
0.912612
0.910659
0.908426
0.907212
0.261053
0.261051
0.261049
0.261043
0.261023
0.261001
0.260971
0.260937
0.260908
0.260892
0.260874
0.260861
0.260864
0.261004
0.261512
0.262807
0.266001
0.272173
0.283992
0.301734
0.328476
0.362805
0.407023
0.457624
0.515798
0.577316
0.64109
0.703155
0.76446
0.818357
0.866071
0.901839
0.92323
0.935393
0.936918
0.939904
0.943134
0.942905
0.938678
0.92944
0.914132
0.914755
0.920062
0.925952
0.933429
0.939799
0.940613
0.939039
0.935648
0.92939
0.92484
0.922597
0.923574
0.927054
0.935367
0.939882
0.938845
0.934111
0.927308
0.924073
0.92497
0.92979
0.93376
0.933288
0.930192
0.926209
0.925506
0.92761
0.930638
0.930319
0.927857
0.926301
0.926476
0.92766
0.92733
0.926082
0.924988
0.924899
0.924709
0.924049
0.923414
0.92332
0.923265
0.922606
0.921499
0.920387
0.919643
0.919107
0.918771
0.918559
0.918387
0.918137
0.917584
0.916684
0.915619
0.914209
0.912629
0.910715
0.908495
0.907313
0.260989
0.260985
0.260983
0.260981
0.260981
0.260983
0.260986
0.260993
0.261001
0.261011
0.261023
0.261035
0.261044
0.261068
0.261049
0.261008
0.26097
0.260941
0.260914
0.260901
0.260899
0.261061
0.261676
0.263464
0.267788
0.277426
0.293797
0.322735
0.362282
0.419736
0.487456
0.565751
0.640339
0.714679
0.768419
0.821361
0.849954
0.875532
0.884831
0.895502
0.908382
0.918165
0.935118
0.946352
0.952283
0.949469
0.942191
0.934445
0.925744
0.920731
0.920934
0.923645
0.930961
0.938696
0.943399
0.941326
0.933765
0.926399
0.92292
0.924303
0.930676
0.935727
0.934724
0.930826
0.926356
0.924489
0.927579
0.931561
0.931723
0.928753
0.926009
0.926191
0.927998
0.928512
0.927015
0.925369
0.925123
0.925534
0.924873
0.92393
0.923576
0.923769
0.923389
0.9225
0.921484
0.920468
0.91955
0.918967
0.918702
0.918546
0.9184
0.918158
0.917494
0.916533
0.915527
0.914172
0.91269
0.910838
0.908586
0.907427
0.260959
0.26096
0.260961
0.260962
0.260963
0.260964
0.260967
0.260968
0.26097
0.260971
0.260973
0.260973
0.260977
0.260977
0.260979
0.260984
0.260994
0.261007
0.261022
0.261039
0.261054
0.261085
0.261064
0.261037
0.261015
0.260999
0.260991
0.261003
0.261181
0.26216
0.265366
0.274896
0.294517
0.329959
0.383905
0.453202
0.537632
0.624989
0.712638
0.790546
0.861563
0.895338
0.91918
0.927624
0.932352
0.936748
0.936119
0.931889
0.916893
0.918124
0.925632
0.934863
0.94216
0.943148
0.941293
0.931972
0.923741
0.920672
0.923127
0.930915
0.937196
0.936269
0.932638
0.925764
0.923086
0.926393
0.932715
0.932663
0.930171
0.925726
0.925168
0.9273
0.929196
0.928264
0.925923
0.925248
0.925881
0.925718
0.924752
0.923827
0.923838
0.924093
0.923381
0.922367
0.921513
0.920512
0.919414
0.918803
0.918662
0.918642
0.918531
0.918205
0.91747
0.916391
0.915424
0.914156
0.912805
0.910988
0.908661
0.907502
0.26095
0.260951
0.260953
0.260955
0.260957
0.26096
0.260963
0.260967
0.260971
0.260975
0.260979
0.260985
0.260992
0.260998
0.261006
0.261013
0.261021
0.261027
0.261034
0.261038
0.261042
0.261043
0.261043
0.261048
0.261053
0.26106
0.261064
0.261064
0.261075
0.261051
0.261027
0.261008
0.26098
0.261018
0.261423
0.263499
0.271796
0.290394
0.331321
0.393817
0.483399
0.579487
0.681735
0.757124
0.820681
0.864006
0.889143
0.905133
0.910749
0.924216
0.943647
0.950396
0.949399
0.943274
0.932178
0.919173
0.918212
0.92137
0.930738
0.939507
0.940277
0.936112
0.926239
0.921689
0.924534
0.931343
0.935399
0.933284
0.927006
0.923949
0.925682
0.929312
0.929318
0.927324
0.925415
0.925606
0.926508
0.925837
0.924554
0.923923
0.924257
0.924085
0.923179
0.922246
0.92152
0.920427
0.91931
0.918749
0.91869
0.918713
0.91862
0.918247
0.917482
0.916299
0.915339
0.914131
0.912851
0.911089
0.908743
0.907619
0.260976
0.260979
0.260982
0.260986
0.26099
0.260995
0.261
0.261005
0.26101
0.261015
0.26102
0.261026
0.261032
0.261037
0.261043
0.261048
0.261054
0.261058
0.261061
0.261062
0.261064
0.261065
0.261066
0.261065
0.261062
0.26106
0.261054
0.261049
0.261037
0.261028
0.261019
0.261011
0.261004
0.260995
0.26098
0.260965
0.260957
0.260944
0.261005
0.261613
0.265533
0.280148
0.313163
0.378757
0.464735
0.575825
0.685244
0.793144
0.867312
0.912902
0.932318
0.936719
0.938028
0.936887
0.920132
0.91684
0.922006
0.93387
0.940508
0.940747
0.937038
0.92577
0.920463
0.922436
0.931088
0.935507
0.934668
0.92875
0.923746
0.924147
0.92798
0.930387
0.929038
0.925861
0.925115
0.926503
0.926778
0.925596
0.924404
0.924311
0.924769
0.924244
0.923049
0.922118
0.921615
0.920396
0.9191
0.918705
0.918817
0.918843
0.918675
0.91817
0.917312
0.916178
0.915323
0.914222
0.912948
0.911181
0.908747
0.907616
0.261026
0.26103
0.261034
0.261038
0.261042
0.261047
0.261051
0.261055
0.261059
0.261064
0.261068
0.261072
0.261076
0.261079
0.261082
0.261084
0.261086
0.261088
0.261087
0.261085
0.261082
0.261078
0.261074
0.261069
0.261064
0.261058
0.261051
0.261043
0.261034
0.261026
0.261016
0.261006
0.260995
0.260984
0.260977
0.260975
0.260978
0.260987
0.261003
0.261018
0.261035
0.261058
0.26109
0.261565
0.264754
0.279366
0.318378
0.390173
0.50494
0.627365
0.74199
0.811695
0.860324
0.893131
0.904039
0.922216
0.938206
0.95198
0.948609
0.94274
0.923923
0.916282
0.919439
0.929987
0.938646
0.937535
0.93039
0.923335
0.922417
0.926912
0.931022
0.930351
0.926411
0.924565
0.925652
0.927745
0.926937
0.925019
0.924277
0.924961
0.92486
0.92389
0.922849
0.922243
0.921559
0.920415
0.919076
0.918749
0.918882
0.9189
0.918723
0.918201
0.917155
0.916018
0.915241
0.914306
0.913088
0.911302
0.90877
0.90763
0.261062
0.261066
0.261069
0.261072
0.261075
0.261077
0.26108
0.261082
0.261084
0.261086
0.261088
0.261089
0.26109
0.261089
0.261088
0.261087
0.261085
0.261082
0.261078
0.261073
0.261067
0.261061
0.261053
0.261046
0.261038
0.261031
0.261023
0.261015
0.261005
0.260996
0.260987
0.260979
0.260972
0.260967
0.260968
0.260974
0.260988
0.261007
0.261032
0.26106
0.261089
0.261114
0.261134
0.261137
0.261137
0.261127
0.261149
0.261761
0.268546
0.292514
0.355201
0.457698
0.582727
0.720249
0.830377
0.905226
0.926105
0.939839
0.939824
0.925842
0.909332
0.917374
0.932207
0.940582
0.939168
0.932978
0.920854
0.920522
0.923951
0.9327
0.932284
0.928211
0.923695
0.924533
0.928104
0.928314
0.926642
0.924535
0.924547
0.925661
0.925137
0.923665
0.92252
0.922349
0.921663
0.920121
0.919075
0.91892
0.91896
0.918871
0.918647
0.918114
0.917086
0.915942
0.915199
0.914354
0.913183
0.911417
0.908851
0.907676
0.261074
0.261076
0.261078
0.261079
0.26108
0.26108
0.26108
0.261079
0.261078
0.261078
0.261077
0.261075
0.261072
0.261069
0.261065
0.261061
0.261057
0.26105
0.261044
0.261035
0.261028
0.261019
0.261011
0.261003
0.260995
0.260988
0.26098
0.260973
0.260965
0.260958
0.260953
0.26095
0.260951
0.260955
0.260967
0.260984
0.261007
0.261031
0.26106
0.261086
0.261107
0.261119
0.261125
0.261123
0.261119
0.261113
0.2611
0.261074
0.261052
0.261024
0.26126
0.264329
0.282799
0.335387
0.447533
0.588941
0.715895
0.819453
0.866554
0.893008
0.910336
0.935645
0.951578
0.947231
0.939759
0.921009
0.915435
0.919839
0.931343
0.935936
0.931916
0.923097
0.922408
0.926507
0.930118
0.928737
0.924898
0.924019
0.925667
0.926083
0.92482
0.922936
0.92253
0.922455
0.921472
0.920015
0.919161
0.919196
0.919036
0.918874
0.918613
0.917967
0.916864
0.915874
0.915238
0.914423
0.913256
0.911472
0.908875
0.907694
0.26107
0.261069
0.261068
0.261067
0.261065
0.261063
0.261061
0.261058
0.261055
0.261051
0.261047
0.261042
0.261038
0.261032
0.261025
0.261021
0.261015
0.261007
0.260999
0.260991
0.260983
0.260976
0.260968
0.260961
0.260955
0.26095
0.260945
0.260941
0.260938
0.260937
0.260938
0.260945
0.260956
0.260972
0.260992
0.261014
0.261035
0.261058
0.261079
0.261093
0.261104
0.261105
0.261098
0.261094
0.261089
0.261075
0.261052
0.261032
0.261019
0.261007
0.260996
0.260994
0.260998
0.261103
0.26418
0.282452
0.345655
0.458719
0.610058
0.766666
0.876154
0.923953
0.936243
0.940157
0.922411
0.91123
0.918546
0.932034
0.937982
0.934723
0.922354
0.919603
0.922946
0.930781
0.930499
0.926413
0.923639
0.924574
0.927182
0.926418
0.923764
0.922569
0.922939
0.922645
0.921081
0.919848
0.919497
0.919434
0.919061
0.91873
0.918434
0.917715
0.916717
0.915799
0.915326
0.914504
0.91331
0.911503
0.908874
0.90771
0.261052
0.26105
0.261047
0.261044
0.261041
0.261037
0.261034
0.261031
0.261025
0.26102
0.261015
0.26101
0.261008
0.261002
0.260994
0.260987
0.260981
0.260974
0.26097
0.260964
0.260956
0.26095
0.260946
0.260944
0.260944
0.260944
0.260946
0.260949
0.260954
0.260963
0.260973
0.260987
0.261004
0.261023
0.261041
0.261057
0.261072
0.261083
0.261091
0.261095
0.261092
0.261087
0.261079
0.261065
0.261047
0.261029
0.261012
0.261005
0.260998
0.260999
0.26101
0.261033
0.26107
0.26111
0.261121
0.261122
0.261295
0.264963
0.291463
0.36989
0.516137
0.677806
0.786084
0.871558
0.888417
0.915893
0.935878
0.947497
0.943516
0.92438
0.914038
0.918639
0.930718
0.933506
0.928999
0.92281
0.923248
0.927668
0.928025
0.925377
0.922718
0.922698
0.923419
0.922513
0.920633
0.919869
0.92007
0.919592
0.918866
0.918577
0.918235
0.917417
0.916475
0.915903
0.915406
0.914548
0.913316
0.911472
0.908807
0.907715
0.261022
0.26102
0.261017
0.261014
0.26101
0.261006
0.261004
0.260999
0.260993
0.260987
0.260983
0.260982
0.260977
0.26097
0.260966
0.260961
0.260956
0.260952
0.260949
0.260947
0.260947
0.260948
0.260952
0.260957
0.260965
0.260974
0.260984
0.260994
0.261007
0.261021
0.261036
0.261051
0.261064
0.261077
0.261085
0.261091
0.261093
0.261091
0.261088
0.261084
0.261074
0.261052
0.261027
0.261001
0.260988
0.260984
0.260985
0.260988
0.261
0.261025
0.261061
0.261107
0.261152
0.261171
0.261174
0.261164
0.261135
0.261092
0.261047
0.261461
0.271478
0.31581
0.42957
0.595606
0.761304
0.890549
0.922495
0.937862
0.927623
0.910214
0.915921
0.930798
0.936301
0.932799
0.921508
0.921054
0.926024
0.930315
0.928291
0.922945
0.922277
0.923728
0.923647
0.921821
0.920234
0.920274
0.920521
0.919593
0.918618
0.918401
0.917996
0.917131
0.916304
0.916046
0.915457
0.914609
0.913444
0.911513
0.908791
0.907788
0.26098
0.260978
0.260976
0.260976
0.260972
0.260967
0.260964
0.26096
0.260955
0.260952
0.26095
0.260949
0.260947
0.260944
0.260943
0.260942
0.260943
0.260946
0.260951
0.260957
0.260966
0.260978
0.260992
0.261005
0.261017
0.261032
0.261047
0.261061
0.261076
0.261089
0.261096
0.261102
0.261106
0.261105
0.261101
0.261097
0.261091
0.261082
0.261068
0.261047
0.26102
0.260993
0.260967
0.260957
0.260953
0.260958
0.260967
0.260986
0.261023
0.261075
0.261121
0.261172
0.261199
0.261198
0.261188
0.261164
0.261112
0.26105
0.261006
0.260992
0.260987
0.261023
0.263691
0.285488
0.377866
0.540389
0.699609
0.837784
0.870747
0.905488
0.926951
0.946364
0.939155
0.923709
0.915614
0.920793
0.932074
0.931406
0.925054
0.921189
0.922577
0.924904
0.923422
0.920417
0.919988
0.921564
0.920921
0.919371
0.918403
0.91828
0.917702
0.916855
0.916216
0.916196
0.915532
0.914666
0.913492
0.911505
0.908763
0.907885
0.260944
0.260942
0.260941
0.260939
0.260937
0.260935
0.260934
0.260933
0.260933
0.260933
0.260934
0.260937
0.260942
0.260947
0.260953
0.260962
0.260972
0.260986
0.261001
0.261015
0.261033
0.261052
0.26107
0.261087
0.2611
0.261112
0.261123
0.26113
0.261135
0.261135
0.261133
0.261128
0.261121
0.261111
0.261101
0.261092
0.261075
0.261052
0.26103
0.26101
0.260988
0.260961
0.260944
0.26094
0.260941
0.260949
0.260975
0.261021
0.261083
0.261134
0.261173
0.261205
0.261212
0.261205
0.261187
0.261137
0.261076
0.261026
0.26099
0.260985
0.26099
0.261012
0.261071
0.261104
0.261864
0.274012
0.343146
0.48572
0.674289
0.849249
0.909776
0.935003
0.930359
0.913121
0.918209
0.932218
0.9352
0.928591
0.920213
0.92084
0.92592
0.925497
0.921464
0.919398
0.921052
0.922566
0.920933
0.918839
0.918377
0.918234
0.917411
0.916666
0.916521
0.916299
0.915548
0.914733
0.913539
0.911479
0.908776
0.908031
0.26094
0.260939
0.26094
0.260942
0.260943
0.260945
0.260948
0.260951
0.260956
0.260962
0.26097
0.260979
0.260991
0.261005
0.261018
0.261035
0.261053
0.26107
0.261087
0.261102
0.261115
0.26113
0.261144
0.261153
0.261159
0.261164
0.261166
0.261166
0.261163
0.261156
0.261145
0.261133
0.261121
0.261105
0.261085
0.261059
0.261037
0.261021
0.261008
0.260995
0.260976
0.260949
0.260942
0.260943
0.260953
0.260984
0.261035
0.261093
0.261141
0.261175
0.2612
0.261214
0.261214
0.2612
0.261152
0.261093
0.261049
0.261016
0.260993
0.260999
0.261033
0.26109
0.261166
0.26119
0.261185
0.261162
0.261335
0.26755
0.323517
0.462199
0.644221
0.811825
0.861368
0.903072
0.928566
0.944926
0.936383
0.917991
0.917815
0.92466
0.928564
0.924769
0.918511
0.919025
0.923628
0.923046
0.919803
0.918279
0.918815
0.918259
0.917133
0.916714
0.917
0.9164
0.915479
0.914819
0.913589
0.911506
0.908812
0.908217
0.260978
0.260981
0.260986
0.260994
0.261
0.261007
0.261018
0.261028
0.261038
0.261048
0.261059
0.261071
0.261085
0.261095
0.261104
0.261115
0.261127
0.261137
0.261146
0.261154
0.261161
0.261167
0.261173
0.261178
0.26118
0.261181
0.26118
0.261174
0.261163
0.261148
0.26113
0.261109
0.261082
0.261055
0.261035
0.261021
0.261013
0.261006
0.261
0.260992
0.260978
0.260975
0.26098
0.260995
0.261027
0.26107
0.261112
0.261144
0.261168
0.261184
0.261198
0.261198
0.261182
0.261134
0.261079
0.261054
0.261042
0.261021
0.261021
0.261058
0.261116
0.261192
0.26122
0.261211
0.261191
0.261136
0.261076
0.261008
0.261072
0.265501
0.313171
0.440864
0.642316
0.835675
0.907343
0.933837
0.928605
0.910105
0.921189
0.932281
0.928922
0.918474
0.916584
0.921826
0.92577
0.922701
0.918247
0.918576
0.919288
0.918062
0.916906
0.917215
0.917375
0.916443
0.915452
0.914894
0.913646
0.911482
0.908884
0.908448
0.261078
0.261085
0.261088
0.261093
0.2611
0.261104
0.26111
0.261117
0.261124
0.261127
0.26113
0.261133
0.26114
0.261142
0.261143
0.261145
0.261151
0.261154
0.261156
0.261159
0.261162
0.261164
0.261163
0.26116
0.261151
0.26114
0.261125
0.261104
0.261083
0.261061
0.261043
0.261027
0.261014
0.261004
0.260998
0.260998
0.260999
0.261003
0.261009
0.261018
0.261033
0.26105
0.261067
0.261091
0.261117
0.261136
0.261148
0.261156
0.261161
0.26116
0.261151
0.261132
0.261097
0.261041
0.261016
0.26103
0.261038
0.261043
0.261071
0.261139
0.261205
0.261243
0.261237
0.261212
0.261139
0.261036
0.261002
0.260988
0.260994
0.261059
0.26118
0.264543
0.310381
0.445759
0.639191
0.815741
0.867873
0.902257
0.940583
0.937969
0.927975
0.912528
0.91628
0.927953
0.926956
0.918977
0.917161
0.920274
0.919892
0.917835
0.916878
0.918047
0.917648
0.916178
0.915487
0.914987
0.913579
0.911559
0.90904
0.908678
0.261155
0.261156
0.261156
0.261156
0.261158
0.261158
0.261157
0.261155
0.261153
0.261151
0.261149
0.261146
0.261143
0.26114
0.261137
0.261135
0.261133
0.261128
0.261122
0.261113
0.261103
0.261092
0.261078
0.261062
0.261045
0.261027
0.261014
0.261
0.260989
0.260985
0.260983
0.260979
0.260978
0.260978
0.260981
0.26099
0.261008
0.261037
0.261071
0.261106
0.261139
0.261152
0.261164
0.261169
0.261168
0.26116
0.261151
0.261136
0.261108
0.261078
0.261054
0.261038
0.26101
0.260984
0.260987
0.26101
0.261051
0.261096
0.26116
0.26121
0.261247
0.26125
0.261228
0.261158
0.261037
0.260962
0.260964
0.26098
0.261051
0.261214
0.261421
0.261465
0.261488
0.265022
0.312279
0.450453
0.667847
0.850758
0.923124
0.930747
0.909375
0.91117
0.927065
0.93212
0.923703
0.914694
0.918142
0.922096
0.919949
0.916714
0.917265
0.918944
0.917783
0.915683
0.915638
0.915077
0.913416
0.911566
0.909384
0.908843
0.261179
0.261175
0.261171
0.261168
0.261164
0.261159
0.261153
0.261147
0.26114
0.261131
0.26112
0.26111
0.261101
0.26109
0.261078
0.261065
0.261051
0.261041
0.261028
0.261013
0.260999
0.260982
0.26097
0.260963
0.260954
0.260948
0.260946
0.260947
0.260949
0.260954
0.260959
0.260962
0.260967
0.26098
0.261004
0.261043
0.261086
0.261132
0.261169
0.2612
0.261215
0.261214
0.26121
0.261197
0.261178
0.261146
0.261101
0.26105
0.261005
0.260976
0.260969
0.260967
0.260961
0.260963
0.260977
0.261026
0.261095
0.261195
0.261236
0.261238
0.261241
0.261228
0.261167
0.261068
0.260958
0.260935
0.260945
0.261009
0.261187
0.261379
0.261514
0.261507
0.261464
0.261292
0.261006
0.265185
0.321749
0.483059
0.689802
0.837213
0.882556
0.916064
0.942316
0.936014
0.911246
0.913028
0.923503
0.923514
0.917363
0.916262
0.919507
0.919514
0.916567
0.915091
0.915596
0.915036
0.913245
0.911828
0.909785
0.908867
0.261169
0.261162
0.261152
0.26114
0.261129
0.261116
0.261098
0.261085
0.261074
0.261064
0.26105
0.26104
0.261031
0.261018
0.261008
0.260999
0.260988
0.260978
0.260969
0.260959
0.260949
0.26094
0.260934
0.260932
0.260932
0.260933
0.260937
0.260945
0.260952
0.260966
0.260986
0.261008
0.26104
0.26107
0.261101
0.261141
0.261177
0.261203
0.261228
0.261241
0.261239
0.261232
0.261219
0.261191
0.261135
0.261068
0.261009
0.260966
0.260934
0.26093
0.260938
0.260946
0.260958
0.260989
0.261049
0.261112
0.261189
0.261262
0.261264
0.261248
0.261212
0.261152
0.261078
0.260993
0.260938
0.260938
0.260994
0.26115
0.261376
0.261512
0.26153
0.261504
0.261349
0.261027
0.260765
0.26069
0.260774
0.268819
0.336252
0.519279
0.75581
0.892408
0.928821
0.917325
0.902361
0.919385
0.928917
0.921442
0.913644
0.916268
0.92157
0.919059
0.914576
0.914892
0.91619
0.914855
0.912805
0.912052
0.910273
0.908775
0.26108
0.261073
0.261062
0.261054
0.261049
0.261042
0.261034
0.261027
0.261024
0.26102
0.261013
0.261007
0.261
0.260991
0.260983
0.260978
0.260972
0.260965
0.260958
0.26095
0.260943
0.260937
0.260937
0.260941
0.26095
0.260962
0.260984
0.261009
0.261035
0.261069
0.261103
0.261132
0.261154
0.261168
0.261177
0.261187
0.261203
0.26122
0.261233
0.261234
0.261221
0.261189
0.261143
0.261088
0.261033
0.260998
0.260966
0.260931
0.260914
0.260916
0.260936
0.260978
0.261035
0.261108
0.261174
0.261221
0.261266
0.26127
0.261257
0.261201
0.261098
0.261025
0.261003
0.260968
0.260958
0.26101
0.261142
0.261367
0.261525
0.261542
0.261524
0.261388
0.261095
0.260796
0.260677
0.260685
0.260799
0.260982
0.261281
0.274564
0.374329
0.57762
0.780259
0.863834
0.897018
0.94188
0.934861
0.912417
0.912588
0.92189
0.922938
0.916163
0.91324
0.916264
0.916343
0.913855
0.912502
0.912515
0.910742
0.908716
0.261021
0.261022
0.261024
0.261023
0.261021
0.261018
0.261016
0.261015
0.261013
0.261011
0.26101
0.261007
0.261004
0.261005
0.261007
0.261007
0.26101
0.261013
0.261016
0.261019
0.261026
0.261036
0.261048
0.261066
0.261088
0.261109
0.261136
0.261166
0.261182
0.261199
0.261218
0.261219
0.261214
0.261201
0.261194
0.261189
0.261185
0.261182
0.26117
0.261144
0.261098
0.261047
0.26102
0.260993
0.260983
0.260981
0.260966
0.260933
0.260924
0.260949
0.261026
0.26112
0.2612
0.261244
0.261277
0.261287
0.261283
0.261236
0.261157
0.261061
0.260971
0.260954
0.260972
0.260993
0.261056
0.261189
0.261359
0.261537
0.261557
0.26154
0.261408
0.261131
0.260797
0.260671
0.260673
0.260757
0.261001
0.261237
0.261312
0.261218
0.261834
0.289963
0.415367
0.658011
0.849285
0.92634
0.92409
0.903108
0.918475
0.927536
0.921552
0.911772
0.912903
0.918338
0.916257
0.912703
0.912978
0.912903
0.910827
0.908565
0.26101
0.261013
0.261018
0.261023
0.261029
0.261037
0.261051
0.261066
0.261081
0.261098
0.26112
0.261133
0.261145
0.261164
0.261172
0.26118
0.26119
0.261196
0.261203
0.261207
0.261213
0.26122
0.261223
0.261228
0.261235
0.261241
0.261249
0.261253
0.261256
0.261255
0.261248
0.261232
0.261203
0.261162
0.261114
0.261077
0.261056
0.261037
0.261017
0.260985
0.260956
0.260947
0.260953
0.260953
0.260967
0.260984
0.261002
0.261018
0.261042
0.261109
0.261185
0.261241
0.2613
0.261324
0.261323
0.261301
0.261223
0.261113
0.261019
0.260942
0.260929
0.26094
0.260991
0.261117
0.261302
0.261422
0.261531
0.261566
0.261551
0.261407
0.261134
0.260817
0.260623
0.26064
0.260719
0.260961
0.261231
0.261344
0.261304
0.261069
0.260812
0.260701
0.263325
0.316294
0.49661
0.727242
0.839081
0.887391
0.939028
0.933745
0.9137
0.908991
0.917964
0.919662
0.914111
0.911864
0.914494
0.913276
0.909963
0.908572
0.261117
0.26114
0.261181
0.261207
0.261214
0.261227
0.261253
0.261278
0.261303
0.261324
0.261333
0.261342
0.261354
0.261359
0.261355
0.261352
0.26135
0.261347
0.26134
0.261331
0.261315
0.261302
0.26129
0.26128
0.261276
0.261269
0.26126
0.261252
0.261233
0.2612
0.261158
0.261113
0.261062
0.261012
0.26097
0.260944
0.260926
0.260914
0.260905
0.260899
0.2609
0.26091
0.260941
0.260965
0.261
0.261067
0.261155
0.261211
0.261254
0.261269
0.261255
0.261273
0.261324
0.261333
0.261291
0.261193
0.261062
0.260978
0.260914
0.260909
0.260925
0.26101
0.261175
0.261413
0.261532
0.261568
0.261581
0.261554
0.261382
0.261089
0.260829
0.260612
0.260597
0.260665
0.260918
0.26125
0.261393
0.261367
0.261166
0.260834
0.260676
0.260691
0.260883
0.261081
0.272674
0.358776
0.584603
0.814108
0.914022
0.925558
0.900978
0.912847
0.924996
0.919185
0.910924
0.91329
0.915796
0.91296
0.908731
0.908731
0.261364
0.261389
0.261409
0.261418
0.261419
0.261416
0.261415
0.26142
0.261428
0.261432
0.261431
0.261425
0.261419
0.261412
0.261403
0.261397
0.26139
0.261379
0.261367
0.26135
0.26132
0.26129
0.261268
0.261223
0.26117
0.261132
0.261085
0.261052
0.261026
0.261008
0.260997
0.260979
0.26096
0.260934
0.260898
0.260887
0.26089
0.260883
0.26088
0.260898
0.260936
0.260991
0.261059
0.261131
0.261204
0.261291
0.261354
0.261353
0.261347
0.261306
0.261251
0.261235
0.261228
0.261201
0.261126
0.26103
0.260938
0.260889
0.260888
0.260908
0.261035
0.261259
0.261512
0.26165
0.261636
0.261606
0.26152
0.261322
0.261015
0.260786
0.260632
0.260579
0.260621
0.260862
0.261249
0.261444
0.261434
0.261269
0.260901
0.260654
0.260655
0.260797
0.261182
0.261327
0.261245
0.261632
0.291544
0.441775
0.669857
0.835258
0.879557
0.933442
0.931547
0.911281
0.90995
0.917413
0.916848
0.909915
0.907864
0.909741
0.261494
0.261495
0.261493
0.261487
0.261476
0.261462
0.26145
0.261435
0.261424
0.261419
0.261412
0.261398
0.261379
0.261354
0.26133
0.261313
0.261289
0.261266
0.261241
0.261195
0.261145
0.261109
0.261061
0.260998
0.260958
0.260936
0.260915
0.260902
0.260912
0.260938
0.260949
0.260952
0.260951
0.260931
0.2609
0.260906
0.260936
0.260964
0.261025
0.261099
0.261167
0.261237
0.261299
0.26135
0.261424
0.261446
0.261435
0.261399
0.261356
0.261277
0.261146
0.261057
0.26104
0.261048
0.261043
0.26098
0.260909
0.260898
0.260959
0.261118
0.261393
0.261631
0.261731
0.261716
0.261663
0.261497
0.261235
0.260952
0.260726
0.260634
0.260601
0.260636
0.26085
0.26124
0.261504
0.261502
0.261359
0.261004
0.260667
0.260607
0.260677
0.261086
0.261379
0.261363
0.261187
0.260904
0.260863
0.265685
0.329012
0.538514
0.784736
0.919345
0.918318
0.898344
0.914867
0.922353
0.914196
0.906092
0.907803
0.910749
0.261379
0.261356
0.261322
0.26129
0.26126
0.261223
0.261194
0.26117
0.261149
0.261132
0.261112
0.261088
0.261065
0.261036
0.261006
0.260987
0.260974
0.260961
0.260952
0.260936
0.260914
0.260901
0.260886
0.260865
0.260851
0.260856
0.260867
0.260866
0.260879
0.260914
0.260939
0.26096
0.260991
0.261024
0.261078
0.261185
0.261246
0.261324
0.26141
0.261388
0.261376
0.261384
0.261385
0.261406
0.261446
0.26145
0.261387
0.261248
0.261119
0.261025
0.260945
0.260919
0.260926
0.260978
0.260998
0.260959
0.260972
0.261085
0.261307
0.261548
0.261774
0.261801
0.261775
0.261659
0.261404
0.261088
0.26085
0.260704
0.260614
0.260601
0.260648
0.260881
0.261281
0.261555
0.261569
0.261426
0.261071
0.260704
0.260555
0.26059
0.260943
0.261421
0.261453
0.26134
0.260964
0.260805
0.260874
0.261106
0.261341
0.279434
0.41642
0.664081
0.813842
0.877275
0.935503
0.927812
0.905574
0.904842
0.912774
0.911825
0.261048
0.261026
0.261001
0.260974
0.260943
0.260925
0.26091
0.260883
0.260873
0.260872
0.26086
0.260838
0.260839
0.260831
0.260825
0.260823
0.26082
0.26083
0.26085
0.260856
0.260854
0.26085
0.260851
0.260857
0.260875
0.260903
0.260938
0.260972
0.261025
0.261098
0.261172
0.261266
0.261342
0.261423
0.261544
0.261575
0.261582
0.261606
0.261609
0.261559
0.261469
0.261417
0.261337
0.261216
0.261206
0.261216
0.261143
0.26097
0.260858
0.260825
0.260828
0.260861
0.260909
0.260962
0.261047
0.261195
0.261404
0.261567
0.261759
0.26188
0.261878
0.261803
0.261606
0.261292
0.260913
0.260733
0.260654
0.260628
0.260623
0.260688
0.260962
0.261381
0.261676
0.261652
0.261483
0.261072
0.260711
0.26055
0.260558
0.260866
0.26139
0.261572
0.26147
0.261045
0.260775
0.260788
0.26109
0.261392
0.261358
0.261117
0.264094
0.320808
0.532119
0.785703
0.908184
0.917094
0.895883
0.911133
0.917109
0.910838
0.260921
0.260918
0.260906
0.260888
0.260868
0.260848
0.26084
0.260827
0.260818
0.260817
0.260806
0.260805
0.260817
0.260811
0.260801
0.260817
0.260821
0.260824
0.260846
0.260905
0.26098
0.26103
0.261082
0.261158
0.261217
0.261271
0.261331
0.261406
0.261498
0.261599
0.261638
0.261652
0.261679
0.261729
0.261741
0.261726
0.261665
0.26164
0.261618
0.261534
0.261371
0.261183
0.260981
0.260854
0.260879
0.260922
0.260899
0.260811
0.260781
0.260792
0.260802
0.260857
0.26102
0.261236
0.26147
0.261824
0.261982
0.261989
0.261948
0.2619
0.261729
0.26145
0.261152
0.260821
0.260629
0.260589
0.260606
0.260645
0.260793
0.261148
0.261585
0.261839
0.261772
0.261513
0.26108
0.260671
0.260505
0.260528
0.260843
0.261442
0.261715
0.261584
0.261165
0.260763
0.260721
0.260945
0.261403
0.261486
0.261288
0.261007
0.260971
0.261119
0.279612
0.41427
0.654952
0.823538
0.878367
0.92947
0.922328
0.905983
0.261037
0.261046
0.261063
0.261079
0.261095
0.261124
0.261151
0.261155
0.261164
0.261208
0.261234
0.261256
0.261323
0.261353
0.261372
0.261391
0.261427
0.261538
0.261612
0.261648
0.261712
0.261784
0.261799
0.261774
0.261748
0.26175
0.261785
0.26182
0.261845
0.261884
0.261871
0.261817
0.2618
0.261762
0.261682
0.261582
0.261446
0.261276
0.26121
0.261217
0.261174
0.261038
0.260865
0.260774
0.260819
0.260855
0.260843
0.260877
0.260961
0.26103
0.261187
0.261545
0.261877
0.262094
0.262298
0.262386
0.262351
0.262211
0.261945
0.261625
0.26135
0.261156
0.260913
0.260711
0.260667
0.2607
0.260823
0.261128
0.261603
0.262041
0.262147
0.262036
0.261644
0.261154
0.260782
0.260548
0.260585
0.261023
0.261681
0.26206
0.261898
0.261394
0.260922
0.260723
0.260946
0.261524
0.261781
0.2616
0.261207
0.261007
0.261221
0.261486
0.261401
0.264283
0.322772
0.542199
0.795727
0.912925
0.910281
0.901275
0.262199
0.262229
0.262266
0.262302
0.262329
0.262356
0.2624
0.262423
0.262425
0.262424
0.262418
0.262422
0.262447
0.262485
0.262493
0.26249
0.262473
0.262443
0.2624
0.262349
0.262265
0.262173
0.262153
0.262128
0.262038
0.261955
0.261947
0.26193
0.261848
0.261755
0.261741
0.261746
0.261628
0.261435
0.261419
0.261432
0.261341
0.261153
0.261054
0.261075
0.261091
0.261025
0.260996
0.261019
0.261074
0.261231
0.261575
0.261985
0.262158
0.262298
0.262594
0.262872
0.262938
0.262887
0.262752
0.262467
0.262142
0.261856
0.261584
0.261393
0.261235
0.261079
0.260875
0.260859
0.260999
0.261294
0.261822
0.262335
0.262702
0.262602
0.262306
0.261822
0.261302
0.260973
0.260713
0.260884
0.261557
0.262325
0.262595
0.262373
0.261733
0.26122
0.260911
0.261247
0.261966
0.262303
0.262053
0.261564
0.261264
0.261571
0.261981
0.261879
0.261618
0.261677
0.261827
0.282466
0.431356
0.686624
0.826254
0.895438
0.263346
0.263325
0.263319
0.263327
0.263309
0.263266
0.263272
0.263244
0.263119
0.263065
0.263065
0.263063
0.262997
0.262842
0.262751
0.262743
0.262741
0.262677
0.262541
0.262421
0.262323
0.262236
0.262196
0.262218
0.262256
0.26221
0.262179
0.262182
0.262165
0.26206
0.262016
0.26204
0.262019
0.261848
0.261791
0.261845
0.261848
0.261818
0.261909
0.262173
0.262277
0.262356
0.262608
0.262919
0.263154
0.263342
0.263603
0.263853
0.263893
0.263883
0.263831
0.26364
0.263384
0.263125
0.262725
0.262225
0.261994
0.261833
0.261627
0.261526
0.261491
0.261561
0.261822
0.262343
0.2629
0.263335
0.263676
0.263624
0.263339
0.262774
0.262182
0.261704
0.261286
0.261393
0.261991
0.262784
0.263597
0.263561
0.263186
0.262449
0.261734
0.261602
0.262164
0.26294
0.263295
0.262937
0.262417
0.262051
0.262394
0.262891
0.262767
0.262454
0.262571
0.262777
0.262839
0.262794
0.267155
0.342049