/*--------------------------------*- C++ -*----------------------------------*\
  =========                 |
  \\      /  F ield         | OpenFOAM: The Open Source CFD Toolbox
   \\    /   O peration     | Website:  https://openfoam.org
    \\  /    A nd           | Version:  7
     \\/     M anipulation  |
\*---------------------------------------------------------------------------*/
FoamFile
{
    version     2.0;
    format      ascii;
    class       volVectorField;
    location    "9.2";
    object      U;
}
// * * * * * * * * * * * * * * * * * * * * * * * * * * * * * * * * * * * * * //

dimensions      [0 1 -1 0 0 0 0];

internalField   nonuniform List<vector> 
11200
(
(2.52328 -0.581851 0)
(2.48494 -0.116501 0)
(2.49608 0.0841017 0)
(2.49431 0.252276 0)
(2.49227 0.357692 0)
(2.50908 0.403565 0)
(2.52233 0.425037 0)
(2.55571 0.396472 0)
(2.58912 0.371424 0)
(2.62028 0.328027 0)
(2.65133 0.280213 0)
(2.66221 0.192752 0)
(2.68646 0.165257 0)
(2.71059 0.136305 0)
(2.7325 0.16621 0)
(2.73497 0.20229 0)
(2.73766 0.224833 0)
(2.72916 0.207991 0)
(2.72844 0.183288 0)
(2.75099 0.162771 0)
(2.77354 0.16769 0)
(2.78763 0.176239 0)
(2.79598 0.175503 0)
(2.80404 0.172834 0)
(2.81345 0.179728 0)
(2.82358 0.180983 0)
(2.82882 0.162317 0)
(2.83137 0.148172 0)
(2.83873 0.150221 0)
(2.84885 0.130042 0)
(2.65207 -1.42281 0)
(2.66169 -1.40031 0)
(2.65997 -1.24019 0)
(2.60633 -0.985653 0)
(2.5546 -0.730251 0)
(2.48236 -0.38833 0)
(2.4862 -0.26215 0)
(2.42812 -0.0110797 0)
(2.45061 0.0290928 0)
(2.46024 0.167571 0)
(2.46076 0.1284 0)
(2.5088 0.143548 0)
(2.52204 0.132721 0)
(2.53639 0.126442 0)
(2.56293 0.146252 0)
(2.56713 0.1565 0)
(2.56311 0.160291 0)
(2.56176 0.153302 0)
(2.58565 0.138977 0)
(2.6244 0.16403 0)
(2.65633 0.171314 0)
(2.67389 0.169874 0)
(2.68553 0.174157 0)
(2.69991 0.167634 0)
(2.7173 0.158513 0)
(2.73537 0.150805 0)
(2.74923 0.135283 0)
(2.75839 0.122712 0)
(2.77026 0.120797 0)
(2.79042 0.117628 0)
(2.83731 -1.5218 0)
(2.91171 -1.54457 0)
(2.93341 -1.62451 0)
(2.96625 -1.62846 0)
(2.98702 -1.65095 0)
(2.99116 -1.62334 0)
(2.94756 -1.48205 0)
(2.80685 -1.16911 0)
(2.68566 -0.845825 0)
(2.52412 -0.362979 0)
(2.49999 -0.141933 0)
(2.41295 0.111624 0)
(2.34782 0.215859 0)
(2.39704 0.269565 0)
(2.41745 0.233141 0)
(2.43677 0.178493 0)
(2.4547 0.147398 0)
(2.48005 0.117803 0)
(2.49634 0.145283 0)
(2.51737 0.180989 0)
(2.53426 0.186558 0)
(2.54713 0.168983 0)
(2.56248 0.147591 0)
(2.57997 0.144577 0)
(2.59952 0.140032 0)
(2.61886 0.139688 0)
(2.63649 0.149962 0)
(2.65076 0.146623 0)
(2.66459 0.133676 0)
(2.69528 0.112795 0)
(2.98852 -1.65458 0)
(3.00744 -1.68219 0)
(3.035 -1.68209 0)
(3.05466 -1.6879 0)
(3.07095 -1.68824 0)
(3.08428 -1.68407 0)
(3.0887 -1.67509 0)
(3.08245 -1.67596 0)
(3.07623 -1.68311 0)
(3.03507 -1.61336 0)
(2.93209 -1.37338 0)
(2.74513 -0.871807 0)
(2.65338 -0.500838 0)
(2.52064 -0.0918476 0)
(2.51862 0.014465 0)
(2.47278 0.114921 0)
(2.49156 0.142686 0)
(2.49922 0.151465 0)
(2.49065 0.158693 0)
(2.4809 0.158085 0)
(2.46848 0.162308 0)
(2.47935 0.159465 0)
(2.49277 0.144966 0)
(2.50501 0.13293 0)
(2.51393 0.140166 0)
(2.52369 0.133028 0)
(2.53706 0.121363 0)
(2.54952 0.110512 0)
(2.56091 0.109439 0)
(2.59079 0.102001 0)
(3.07562 -1.68378 0)
(3.08437 -1.68359 0)
(3.08947 -1.68267 0)
(3.09479 -1.67434 0)
(3.09864 -1.67114 0)
(3.09649 -1.66875 0)
(3.09393 -1.66907 0)
(3.08238 -1.67202 0)
(3.0756 -1.67507 0)
(3.06281 -1.67399 0)
(3.05244 -1.66494 0)
(3.05203 -1.65786 0)
(3.03793 -1.61364 0)
(2.89628 -1.25121 0)
(2.77595 -0.730851 0)
(2.55784 -0.115115 0)
(2.57372 0.0557261 0)
(2.51511 0.210339 0)
(2.48544 0.1958 0)
(2.4683 0.179563 0)
(2.46629 0.143731 0)
(2.47742 0.138394 0)
(2.48133 0.130209 0)
(2.48654 0.12446 0)
(2.4896 0.116217 0)
(2.48677 0.123013 0)
(2.48985 0.133132 0)
(2.49409 0.123796 0)
(2.49963 0.114614 0)
(2.51838 0.103792 0)
(3.1038 -1.66699 0)
(3.10024 -1.66569 0)
(3.09927 -1.66497 0)
(3.0996 -1.66412 0)
(3.09955 -1.66382 0)
(3.09786 -1.66362 0)
(3.08976 -1.66093 0)
(3.06922 -1.663 0)
(3.05674 -1.66751 0)
(3.04575 -1.66763 0)
(3.04189 -1.66064 0)
(3.04618 -1.65617 0)
(3.04845 -1.65871 0)
(3.04416 -1.65821 0)
(3.04281 -1.65555 0)
(2.94211 -1.41497 0)
(2.82388 -0.896518 0)
(2.70569 -0.37031 0)
(2.62703 -0.0859338 0)
(2.53708 0.095656 0)
(2.50831 0.112193 0)
(2.49964 0.136939 0)
(2.48578 0.118588 0)
(2.49058 0.109464 0)
(2.49261 0.100893 0)
(2.48932 0.10919 0)
(2.48554 0.115052 0)
(2.48275 0.109407 0)
(2.48411 0.103695 0)
(2.49498 0.0945799 0)
(3.09507 -1.66683 0)
(3.09446 -1.66657 0)
(3.09276 -1.66775 0)
(3.08693 -1.66908 0)
(3.08212 -1.66776 0)
(3.07859 -1.66419 0)
(3.06599 -1.66165 0)
(3.05117 -1.65994 0)
(3.0427 -1.66024 0)
(3.0306 -1.66592 0)
(3.03074 -1.6602 0)
(3.03915 -1.65375 0)
(3.04215 -1.65535 0)
(3.03832 -1.65924 0)
(3.02488 -1.65116 0)
(3.01682 -1.64592 0)
(3.01279 -1.63778 0)
(2.98501 -1.49586 0)
(2.86928 -1.0142 0)
(2.71364 -0.408964 0)
(2.63201 -0.0660032 0)
(2.55517 0.128166 0)
(2.50003 0.121488 0)
(2.52586 0.145109 0)
(2.51429 0.117244 0)
(2.50735 0.105623 0)
(2.49997 0.0982247 0)
(2.49485 0.09198 0)
(2.49355 0.086546 0)
(2.49832 0.0792472 0)
(3.0743 -1.66673 0)
(3.07166 -1.66718 0)
(3.0672 -1.66751 0)
(3.06645 -1.66787 0)
(3.06865 -1.6658 0)
(3.06817 -1.66336 0)
(3.05785 -1.65791 0)
(3.04876 -1.65221 0)
(3.03924 -1.64969 0)
(3.02669 -1.65859 0)
(3.02846 -1.65595 0)
(3.03904 -1.6432 0)
(3.04029 -1.64587 0)
(3.03131 -1.65226 0)
(3.02306 -1.6314 0)
(3.00692 -1.63052 0)
(3.0069 -1.60199 0)
(3.02316 -1.60516 0)
(3.03859 -1.57954 0)
(3.01471 -1.46741 0)
(2.91013 -1.0611 0)
(2.77879 -0.489109 0)
(2.71954 -0.132774 0)
(2.59839 0.092005 0)
(2.54956 0.120986 0)
(2.56138 0.133393 0)
(2.54857 0.0986206 0)
(2.54342 0.10053 0)
(2.53577 0.103263 0)
(2.52626 0.101511 0)
(3.05892 -1.663 0)
(3.05773 -1.66359 0)
(3.05474 -1.66518 0)
(3.05156 -1.66391 0)
(3.04939 -1.66181 0)
(3.04787 -1.65367 0)
(3.03933 -1.63682 0)
(3.02682 -1.6274 0)
(3.02376 -1.62711 0)
(3.01835 -1.62975 0)
(3.018 -1.61901 0)
(3.03349 -1.58244 0)
(3.0452 -1.57145 0)
(3.04443 -1.56882 0)
(3.03946 -1.55646 0)
(3.03345 -1.55349 0)
(3.02629 -1.56937 0)
(3.03429 -1.55636 0)
(3.0507 -1.51582 0)
(3.039 -1.52649 0)
(3.03921 -1.49657 0)
(3.03008 -1.42019 0)
(2.96603 -0.990811 0)
(2.83769 -0.480372 0)
(2.76028 -0.106724 0)
(2.64196 0.0963978 0)
(2.60554 0.116092 0)
(2.62246 0.128045 0)
(2.6039 0.0776431 0)
(2.59493 0.0666969 0)
(3.04035 -1.64483 0)
(3.03548 -1.64706 0)
(3.03262 -1.64846 0)
(3.0345 -1.63945 0)
(3.03617 -1.63422 0)
(3.03656 -1.62782 0)
(3.03444 -1.6063 0)
(3.03045 -1.57649 0)
(3.02741 -1.56648 0)
(3.0162 -1.56469 0)
(3.0168 -1.57734 0)
(3.04638 -1.5401 0)
(3.07624 -1.50894 0)
(3.07814 -1.51669 0)
(3.07096 -1.50268 0)
(3.06902 -1.49072 0)
(3.07007 -1.47751 0)
(3.07163 -1.47258 0)
(3.07318 -1.45813 0)
(3.07443 -1.42468 0)
(3.0602 -1.43491 0)
(3.04922 -1.43139 0)
(3.05916 -1.39492 0)
(3.06281 -1.2984 0)
(2.99765 -0.864778 0)
(2.87336 -0.425186 0)
(2.80859 -0.0862054 0)
(2.70605 0.104693 0)
(2.66568 0.112945 0)
(2.67219 0.113986 0)
(3.02642 -1.60707 0)
(3.02705 -1.61992 0)
(3.03141 -1.61752 0)
(3.03619 -1.60621 0)
(3.03647 -1.60239 0)
(3.03609 -1.58681 0)
(3.04137 -1.56988 0)
(3.03847 -1.56506 0)
(3.03007 -1.5578 0)
(3.01576 -1.55979 0)
(3.0149 -1.56427 0)
(3.03854 -1.51989 0)
(3.06197 -1.49002 0)
(3.06695 -1.49094 0)
(3.06795 -1.47321 0)
(3.06213 -1.44802 0)
(3.07313 -1.40487 0)
(3.09165 -1.38798 0)
(3.10156 -1.37505 0)
(3.10424 -1.34495 0)
(3.10385 -1.32326 0)
(3.0893 -1.33324 0)
(3.07528 -1.34445 0)
(3.07726 -1.31734 0)
(3.09148 -1.29033 0)
(3.08568 -1.17666 0)
(3.0249 -0.769397 0)
(2.88914 -0.331516 0)
(2.85079 -0.0504989 0)
(2.73071 0.105467 0)
(3.06615 -1.48175 0)
(3.07217 -1.46699 0)
(3.07509 -1.45024 0)
(3.08104 -1.42734 0)
(3.0867 -1.41559 0)
(3.08487 -1.41652 0)
(3.08281 -1.41543 0)
(3.07886 -1.40486 0)
(3.0768 -1.40122 0)
(3.06343 -1.41369 0)
(3.05305 -1.44597 0)
(3.06237 -1.43037 0)
(3.08654 -1.39348 0)
(3.08703 -1.39745 0)
(3.08035 -1.40904 0)
(3.07141 -1.38745 0)
(3.07009 -1.36242 0)
(3.08371 -1.3432 0)
(3.09679 -1.32242 0)
(3.10368 -1.30917 0)
(3.11225 -1.29443 0)
(3.12328 -1.25784 0)
(3.11978 -1.24232 0)
(3.09703 -1.25457 0)
(3.08764 -1.22537 0)
(3.10378 -1.21376 0)
(3.11296 -1.20944 0)
(3.08449 -1.03049 0)
(3.05398 -0.686239 0)
(2.85261 -0.109008 0)
(3.0764 -1.42215 0)
(3.07491 -1.42118 0)
(3.07067 -1.42688 0)
(3.07176 -1.43663 0)
(3.07593 -1.42933 0)
(3.0774 -1.41272 0)
(3.07386 -1.40191 0)
(3.07658 -1.36951 0)
(3.08599 -1.3441 0)
(3.08916 -1.33465 0)
(3.0854 -1.3204 0)
(3.08907 -1.30697 0)
(3.10527 -1.29145 0)
(3.11103 -1.28351 0)
(3.11412 -1.27588 0)
(3.10234 -1.28198 0)
(3.09239 -1.29079 0)
(3.09469 -1.28435 0)
(3.10064 -1.26093 0)
(3.10201 -1.24321 0)
(3.10494 -1.2324 0)
(3.11684 -1.20862 0)
(3.12661 -1.18857 0)
(3.12688 -1.16561 0)
(3.11329 -1.17488 0)
(3.10748 -1.15804 0)
(3.11854 -1.12858 0)
(3.12632 -1.1274 0)
(3.1248 -1.1342 0)
(3.01131 -0.579727 0)
(3.10191 -1.28984 0)
(3.10704 -1.28856 0)
(3.11279 -1.28169 0)
(3.11161 -1.28525 0)
(3.11003 -1.27944 0)
(3.0996 -1.2628 0)
(3.09695 -1.25436 0)
(3.10337 -1.24084 0)
(3.1052 -1.23925 0)
(3.09556 -1.25863 0)
(3.09021 -1.27332 0)
(3.09913 -1.26188 0)
(3.10268 -1.23923 0)
(3.11203 -1.21871 0)
(3.12413 -1.20449 0)
(3.12137 -1.18111 0)
(3.12099 -1.17275 0)
(3.12415 -1.16512 0)
(3.12169 -1.16663 0)
(3.11262 -1.17242 0)
(3.10543 -1.17128 0)
(3.10489 -1.16 0)
(3.11476 -1.14077 0)
(3.12553 -1.12282 0)
(3.12865 -1.10913 0)
(3.1253 -1.10246 0)
(3.1193 -1.09419 0)
(3.12473 -1.08917 0)
(3.12834 -1.06583 0)
(3.12628 -1.04871 0)
(3.1206 -1.17803 0)
(3.12482 -1.1815 0)
(3.12496 -1.18824 0)
(3.11968 -1.20637 0)
(3.11628 -1.20626 0)
(3.10693 -1.18742 0)
(3.10419 -1.18274 0)
(3.10953 -1.16118 0)
(3.12585 -1.13429 0)
(3.12941 -1.12993 0)
(3.12424 -1.13395 0)
(3.12067 -1.12792 0)
(3.12325 -1.1264 0)
(3.12384 -1.13407 0)
(3.12639 -1.13941 0)
(3.11984 -1.12568 0)
(3.11651 -1.10054 0)
(3.12674 -1.08486 0)
(3.13637 -1.07094 0)
(3.13541 -1.06675 0)
(3.13037 -1.06802 0)
(3.1211 -1.07122 0)
(3.11823 -1.06367 0)
(3.12395 -1.0513 0)
(3.12861 -1.0355 0)
(3.13179 -1.03077 0)
(3.12965 -1.02655 0)
(3.12749 -1.02154 0)
(3.12777 -1.01121 0)
(3.13148 -0.995828 0)
(3.1467 -1.04413 0)
(3.14251 -1.05032 0)
(3.14161 -1.05299 0)
(3.13606 -1.06377 0)
(3.12977 -1.07037 0)
(3.12171 -1.05652 0)
(3.11975 -1.05223 0)
(3.12802 -1.03396 0)
(3.13744 -1.01984 0)
(3.13768 -1.02051 0)
(3.13191 -1.02795 0)
(3.13085 -1.03051 0)
(3.13208 -1.02745 0)
(3.13743 -1.01033 0)
(3.14094 -1.00021 0)
(3.13225 -1.00264 0)
(3.12412 -1.01111 0)
(3.12446 -1.01442 0)
(3.13019 -1.00933 0)
(3.13744 -0.995823 0)
(3.13952 -0.980464 0)
(3.13857 -0.970549 0)
(3.13596 -0.967511 0)
(3.13034 -0.966533 0)
(3.12887 -0.960442 0)
(3.13234 -0.965253 0)
(3.13259 -0.954383 0)
(3.13303 -0.945347 0)
(3.13016 -0.948843 0)
(3.1307 -0.942371 0)
(3.15544 -0.90852 0)
(3.15261 -0.922984 0)
(3.14899 -0.927639 0)
(3.14603 -0.930292 0)
(3.13688 -0.946723 0)
(3.13062 -0.954519 0)
(3.13217 -0.937703 0)
(3.13644 -0.924118 0)
(3.13979 -0.912873 0)
(3.14087 -0.911144 0)
(3.13808 -0.9167 0)
(3.13419 -0.926442 0)
(3.13308 -0.921443 0)
(3.13646 -0.918446 0)
(3.13756 -0.918318 0)
(3.13758 -0.916505 0)
(3.1383 -0.906355 0)
(3.13766 -0.898627 0)
(3.13609 -0.899671 0)
(3.13346 -0.905043 0)
(3.13474 -0.906294 0)
(3.13654 -0.902914 0)
(3.13748 -0.894717 0)
(3.13696 -0.889177 0)
(3.13547 -0.889088 0)
(3.13432 -0.884713 0)
(3.13398 -0.886707 0)
(3.13462 -0.883153 0)
(3.13439 -0.878485 0)
(3.13263 -0.877116 0)
(3.13978 -0.761275 0)
(3.15363 -0.783312 0)
(3.14845 -0.796121 0)
(3.14668 -0.79805 0)
(3.13893 -0.806374 0)
(3.1317 -0.819357 0)
(3.13284 -0.811774 0)
(3.13874 -0.796472 0)
(3.14059 -0.782061 0)
(3.14363 -0.787727 0)
(3.13887 -0.798873 0)
(3.13533 -0.801234 0)
(3.13535 -0.798806 0)
(3.13764 -0.795818 0)
(3.14024 -0.796391 0)
(3.13863 -0.799674 0)
(3.13451 -0.802806 0)
(3.13448 -0.802269 0)
(3.13817 -0.798598 0)
(3.13851 -0.797196 0)
(3.135 -0.799791 0)
(3.13251 -0.803081 0)
(3.13175 -0.810353 0)
(3.13404 -0.812885 0)
(3.13534 -0.81191 0)
(3.13481 -0.812419 0)
(3.13385 -0.81276 0)
(3.13425 -0.812162 0)
(3.1343 -0.812597 0)
(3.13322 -0.814945 0)
(3.12169 -0.603934 0)
(3.14224 -0.625198 0)
(3.14104 -0.648834 0)
(3.13822 -0.658769 0)
(3.13403 -0.662447 0)
(3.12387 -0.674069 0)
(3.12385 -0.676198 0)
(3.12797 -0.669785 0)
(3.13639 -0.657462 0)
(3.13897 -0.659486 0)
(3.13465 -0.664829 0)
(3.12882 -0.677125 0)
(3.12562 -0.680126 0)
(3.12953 -0.682377 0)
(3.13328 -0.686003 0)
(3.13338 -0.687729 0)
(3.13169 -0.689011 0)
(3.12963 -0.694787 0)
(3.1305 -0.704398 0)
(3.1306 -0.708958 0)
(3.13233 -0.70831 0)
(3.13318 -0.710254 0)
(3.13172 -0.710565 0)
(3.13128 -0.717968 0)
(3.13128 -0.723127 0)
(3.13129 -0.725667 0)
(3.13081 -0.735739 0)
(3.13114 -0.736965 0)
(3.13168 -0.738074 0)
(3.13164 -0.74743 0)
(3.09713 -0.454292 0)
(3.12011 -0.470081 0)
(3.12913 -0.494928 0)
(3.12375 -0.512612 0)
(3.12136 -0.517573 0)
(3.10611 -0.532376 0)
(3.10242 -0.537982 0)
(3.11002 -0.532265 0)
(3.12381 -0.520505 0)
(3.12567 -0.525221 0)
(3.123 -0.534924 0)
(3.11628 -0.548761 0)
(3.11378 -0.548927 0)
(3.11889 -0.554774 0)
(3.12142 -0.565218 0)
(3.121 -0.565951 0)
(3.12157 -0.572389 0)
(3.12207 -0.581995 0)
(3.12119 -0.581489 0)
(3.12262 -0.591655 0)
(3.12351 -0.599315 0)
(3.12421 -0.608395 0)
(3.12472 -0.614295 0)
(3.1251 -0.620201 0)
(3.12504 -0.630046 0)
(3.1246 -0.629656 0)
(3.12472 -0.637686 0)
(3.12621 -0.654524 0)
(3.12544 -0.661921 0)
(3.12712 -0.67304 0)
(3.07573 -0.304983 0)
(3.08732 -0.309025 0)
(3.10262 -0.340294 0)
(3.09781 -0.36 0)
(3.09595 -0.364605 0)
(3.08182 -0.387836 0)
(3.07575 -0.400706 0)
(3.08694 -0.393239 0)
(3.10227 -0.377551 0)
(3.10464 -0.385147 0)
(3.10347 -0.398022 0)
(3.09675 -0.416381 0)
(3.09479 -0.41626 0)
(3.10122 -0.425337 0)
(3.10422 -0.439217 0)
(3.10368 -0.445689 0)
(3.10418 -0.446798 0)
(3.1074 -0.463253 0)
(3.10766 -0.475705 0)
(3.10824 -0.480583 0)
(3.11096 -0.494643 0)
(3.11191 -0.50218 0)
(3.11318 -0.517092 0)
(3.1136 -0.524322 0)
(3.11549 -0.540098 0)
(3.11606 -0.557508 0)
(3.11729 -0.561751 0)
(3.11942 -0.573961 0)
(3.11996 -0.586985 0)
(3.12102 -0.598683 0)
(3.04211 -0.156968 0)
(3.05007 -0.154283 0)
(3.06739 -0.184686 0)
(3.06325 -0.210699 0)
(3.06198 -0.215966 0)
(3.05182 -0.241721 0)
(3.04464 -0.260418 0)
(3.05651 -0.253935 0)
(3.07256 -0.235022 0)
(3.07681 -0.242057 0)
(3.07695 -0.259052 0)
(3.06902 -0.282409 0)
(3.06652 -0.280402 0)
(3.07692 -0.29817 0)
(3.07948 -0.31071 0)
(3.07986 -0.316541 0)
(3.08302 -0.327698 0)
(3.08542 -0.33839 0)
(3.087 -0.357408 0)
(3.08816 -0.366222 0)
(3.09223 -0.382338 0)
(3.09418 -0.391689 0)
(3.09663 -0.40981 0)
(3.09841 -0.424349 0)
(3.10003 -0.43153 0)
(3.10258 -0.449009 0)
(3.10407 -0.465956 0)
(3.10593 -0.474494 0)
(3.10764 -0.486558 0)
(3.10963 -0.510821 0)
(2.99883 -0.0147133 0)
(3.00706 -0.0100275 0)
(3.02174 -0.0363006 0)
(3.01798 -0.0640154 0)
(3.01696 -0.0698379 0)
(3.01202 -0.0959549 0)
(3.00621 -0.117705 0)
(3.01752 -0.112792 0)
(3.0331 -0.09423 0)
(3.04017 -0.101778 0)
(3.04111 -0.124047 0)
(3.03218 -0.14742 0)
(3.02937 -0.146673 0)
(3.042 -0.164234 0)
(3.04776 -0.185087 0)
(3.04843 -0.187938 0)
(3.05313 -0.201042 0)
(3.05638 -0.218348 0)
(3.05808 -0.237302 0)
(3.06088 -0.249466 0)
(3.06654 -0.265851 0)
(3.07059 -0.283763 0)
(3.07289 -0.297772 0)
(3.07673 -0.317698 0)
(3.08055 -0.33795 0)
(3.08314 -0.348946 0)
(3.08712 -0.371128 0)
(3.08989 -0.390058 0)
(3.09285 -0.406693 0)
(3.09724 -0.433318 0)
(2.9433 0.123575 0)
(2.95154 0.130752 0)
(2.96099 0.115711 0)
(2.96014 0.0862574 0)
(2.96376 0.073566 0)
(2.96505 0.040923 0)
(2.95944 0.0190427 0)
(2.96692 0.0223659 0)
(2.97938 0.0418087 0)
(2.99079 0.0356425 0)
(2.99456 0.0113939 0)
(2.98646 -0.0144831 0)
(2.98478 -0.0178178 0)
(2.99772 -0.036362 0)
(3.00496 -0.0560419 0)
(3.00749 -0.0617729 0)
(3.01447 -0.0773436 0)
(3.01911 -0.0982258 0)
(3.02044 -0.113666 0)
(3.02735 -0.1351 0)
(3.03341 -0.148406 0)
(3.0396 -0.169176 0)
(3.04406 -0.190716 0)
(3.04812 -0.206081 0)
(3.05432 -0.228647 0)
(3.05927 -0.249682 0)
(3.06374 -0.268331 0)
(3.06839 -0.288909 0)
(3.07251 -0.308462 0)
(3.07849 -0.338222 0)
(2.87488 0.255307 0)
(2.8799 0.259086 0)
(2.88699 0.25522 0)
(2.89538 0.231819 0)
(2.90228 0.213495 0)
(2.90554 0.188866 0)
(2.89963 0.168361 0)
(2.90456 0.165206 0)
(2.91352 0.178654 0)
(2.92586 0.171778 0)
(2.93636 0.139699 0)
(2.93248 0.118523 0)
(2.932 0.117598 0)
(2.94621 0.0924112 0)
(2.95231 0.0747146 0)
(2.95829 0.0628405 0)
(2.96785 0.0453555 0)
(2.97421 0.0256367 0)
(2.97945 0.00297127 0)
(2.98523 -0.0121387 0)
(2.9955 -0.0367147 0)
(3.00174 -0.0530225 0)
(3.00863 -0.0766967 0)
(3.0159 -0.10041 0)
(3.02259 -0.119868 0)
(3.02968 -0.143067 0)
(3.03668 -0.168568 0)
(3.04279 -0.190409 0)
(3.04876 -0.212916 0)
(3.05779 -0.250219 0)
(2.82203 0.361683 0)
(2.82657 0.355149 0)
(2.83047 0.351778 0)
(2.83264 0.351313 0)
(2.8411 0.337826 0)
(2.8426 0.325052 0)
(2.842 0.318552 0)
(2.84598 0.309287 0)
(2.84984 0.309097 0)
(2.85903 0.299204 0)
(2.87087 0.273247 0)
(2.87312 0.261921 0)
(2.87696 0.255069 0)
(2.88951 0.230279 0)
(2.89608 0.211008 0)
(2.90321 0.1957 0)
(2.9146 0.173869 0)
(2.92351 0.15291 0)
(2.93181 0.129911 0)
(2.9405 0.108131 0)
(2.95139 0.082753 0)
(2.96009 0.0608839 0)
(2.96967 0.0350301 0)
(2.9781 0.0123767 0)
(2.98819 -0.0153716 0)
(2.99678 -0.0389824 0)
(3.00568 -0.065514 0)
(3.0141 -0.091533 0)
(3.02205 -0.116834 0)
(3.03385 -0.156895 0)
(2.81251 0.380432 0)
(2.81295 0.379809 0)
(2.8142 0.379509 0)
(2.81522 0.379373 0)
(2.8159 0.37902 0)
(2.81627 0.378735 0)
(2.81687 0.377805 0)
(2.81775 0.376482 0)
(2.81916 0.374607 0)
(2.82204 0.370637 0)
(2.8248 0.365696 0)
(2.82627 0.362916 0)
(2.83113 0.355737 0)
(2.83734 0.346439 0)
(2.84403 0.335063 0)
(2.85063 0.322685 0)
(2.85949 0.304474 0)
(2.86803 0.285693 0)
(2.87838 0.263528 0)
(2.88974 0.238635 0)
(2.90101 0.212946 0)
(2.91284 0.18481 0)
(2.92497 0.155453 0)
(2.93668 0.127021 0)
(2.94922 0.0956219 0)
(2.96002 0.0680815 0)
(2.97207 0.0363117 0)
(2.9827 0.00767045 0)
(2.99272 -0.0202961 0)
(3.00775 -0.0648258 0)
(2.82725 0.355023 0)
(2.82427 0.362349 0)
(2.82491 0.371198 0)
(2.82662 0.375129 0)
(2.82495 0.373853 0)
(2.82064 0.367229 0)
(2.82042 0.363726 0)
(2.82238 0.365174 0)
(2.82497 0.36813 0)
(2.82524 0.370686 0)
(2.82394 0.374536 0)
(2.82225 0.375268 0)
(2.82249 0.372682 0)
(2.82397 0.370157 0)
(2.82468 0.369375 0)
(2.82622 0.368822 0)
(2.82914 0.365951 0)
(2.83211 0.361525 0)
(2.83626 0.354657 0)
(2.84247 0.344307 0)
(2.85139 0.328675 0)
(2.86137 0.30987 0)
(2.87401 0.283748 0)
(2.88676 0.255465 0)
(2.90163 0.221412 0)
(2.91577 0.187819 0)
(2.93121 0.150339 0)
(2.94507 0.115746 0)
(2.9584 0.081557 0)
(2.97748 0.0304547 0)
(2.89099 0.235805 0)
(2.88909 0.240275 0)
(2.89191 0.238699 0)
(2.88494 0.253424 0)
(2.87971 0.278344 0)
(2.87692 0.279843 0)
(2.86991 0.280556 0)
(2.8598 0.296091 0)
(2.86015 0.298441 0)
(2.85843 0.3072 0)
(2.85105 0.330179 0)
(2.84893 0.331231 0)
(2.84615 0.332631 0)
(2.83855 0.345936 0)
(2.83715 0.350141 0)
(2.83496 0.354161 0)
(2.83412 0.357085 0)
(2.83419 0.358209 0)
(2.83417 0.358249 0)
(2.83447 0.357799 0)
(2.83535 0.356982 0)
(2.8373 0.35478 0)
(2.84081 0.350361 0)
(2.84611 0.342349 0)
(2.8549 0.327424 0)
(2.86621 0.306032 0)
(2.88116 0.275029 0)
(2.89696 0.239776 0)
(2.9139 0.200781 0)
(2.93892 0.13931 0)
(2.97738 0.0499414 0)
(2.97182 0.0605453 0)
(2.96889 0.0714637 0)
(2.96803 0.0708451 0)
(2.96435 0.0778448 0)
(2.96012 0.0900684 0)
(2.95628 0.0987201 0)
(2.95129 0.105061 0)
(2.94201 0.121235 0)
(2.9371 0.131668 0)
(2.92718 0.156885 0)
(2.92165 0.171878 0)
(2.91515 0.183326 0)
(2.90115 0.211455 0)
(2.89649 0.223511 0)
(2.88187 0.254425 0)
(2.87751 0.264373 0)
(2.86568 0.289134 0)
(2.85763 0.308556 0)
(2.85597 0.312875 0)
(2.84606 0.334124 0)
(2.84424 0.336773 0)
(2.84286 0.340975 0)
(2.84306 0.341661 0)
(2.84351 0.34206 0)
(2.84522 0.340397 0)
(2.84895 0.335268 0)
(2.85563 0.325466 0)
(2.86633 0.307748 0)
(2.89046 0.258856 0)
(2.99887 0.00239759 0)
(2.99863 0.00275823 0)
(2.99831 0.00346355 0)
(2.99802 0.00411304 0)
(2.9976 0.00488625 0)
(2.99703 0.006206 0)
(2.99655 0.00724616 0)
(2.99555 0.00913926 0)
(2.99429 0.0111025 0)
(2.99233 0.0148433 0)
(2.99049 0.0184195 0)
(2.98758 0.0252444 0)
(2.98497 0.0299824 0)
(2.97911 0.041469 0)
(2.97404 0.0516496 0)
(2.96586 0.0684004 0)
(2.95728 0.0864486 0)
(2.94682 0.107768 0)
(2.93234 0.139631 0)
(2.92299 0.160236 0)
(2.9026 0.204078 0)
(2.89473 0.223002 0)
(2.87683 0.260128 0)
(2.8648 0.288777 0)
(2.86038 0.300246 0)
(2.8524 0.318294 0)
(2.8481 0.330037 0)
(2.85026 0.328109 0)
(2.85105 0.327193 0)
(2.85752 0.319163 0)
(2.99999 2.6974e-05 0)
(2.99998 3.23769e-05 0)
(2.99998 4.02132e-05 0)
(2.99997 5.1031e-05 0)
(2.99997 6.37874e-05 0)
(2.99996 8.51936e-05 0)
(2.99994 0.000111984 0)
(2.99992 0.000147186 0)
(2.99988 0.000208723 0)
(2.99983 0.000289608 0)
(2.99975 0.000441553 0)
(2.99965 0.000632983 0)
(2.99947 0.000966661 0)
(2.99919 0.00144632 0)
(2.99871 0.00235769 0)
(2.998 0.00364257 0)
(2.99681 0.00587494 0)
(2.99491 0.00943462 0)
(2.99196 0.0149852 0)
(2.98732 0.0241904 0)
(2.98064 0.0367722 0)
(2.97082 0.0571421 0)
(2.95812 0.0824095 0)
(2.94218 0.115461 0)
(2.92339 0.15617 0)
(2.90537 0.195529 0)
(2.88727 0.23534 0)
(2.87292 0.269616 0)
(2.86269 0.293526 0)
(2.85839 0.308317 0)
(3 1.61489e-07 0)
(3 1.90246e-07 0)
(3 2.38402e-07 0)
(3 3.01302e-07 0)
(3 3.87365e-07 0)
(3 5.15504e-07 0)
(3 6.91702e-07 0)
(3 9.56556e-07 0)
(3 1.35276e-06 0)
(3 2.03739e-06 0)
(3 3.08236e-06 0)
(3 4.97183e-06 0)
(3 7.74595e-06 0)
(2.99999 1.34937e-05 0)
(2.99999 2.3223e-05 0)
(2.99997 4.31489e-05 0)
(2.99995 7.93155e-05 0)
(2.99991 0.000157146 0)
(2.99982 0.00031128 0)
(2.99963 0.000642902 0)
(2.99925 0.00132237 0)
(2.99844 0.00279402 0)
(2.9969 0.00560625 0)
(2.99372 0.0116298 0)
(2.98839 0.0216678 0)
(2.97875 0.0407452 0)
(2.96535 0.0674093 0)
(2.94528 0.109093 0)
(2.92593 0.150204 0)
(2.8938 0.221538 0)
(3 7.35526e-10 0)
(3 8.83934e-10 0)
(3 1.10164e-09 0)
(3 1.4095e-09 0)
(3 1.82322e-09 0)
(3 2.42665e-09 0)
(3 3.29183e-09 0)
(3 4.55328e-09 0)
(3 6.56579e-09 0)
(3 9.71172e-09 0)
(3 1.51297e-08 0)
(3 2.38984e-08 0)
(3 3.93281e-08 0)
(3 6.75394e-08 0)
(3 1.23321e-07 0)
(3 2.31606e-07 0)
(3 4.60245e-07 0)
(3 9.64483e-07 0)
(3 2.1149e-06 0)
(3 4.94257e-06 0)
(2.99999 1.18992e-05 0)
(2.99998 3.08774e-05 0)
(2.99995 8.01936e-05 0)
(2.99987 0.000223201 0)
(2.99966 0.000597982 0)
(2.99907 0.00167184 0)
(2.99769 0.00419802 0)
(2.99411 0.0109967 0)
(2.98825 0.0221865 0)
(2.96559 0.0691563 0)
(3 2.5798e-12 0)
(3 3.11009e-12 0)
(3 3.93272e-12 0)
(3 5.04323e-12 0)
(3 6.62848e-12 0)
(3 8.84681e-12 0)
(3 1.21479e-11 0)
(3 1.69e-11 0)
(3 2.45609e-11 0)
(3 3.62611e-11 0)
(3 5.6624e-11 0)
(3 8.9344e-11 0)
(3 1.4815e-10 0)
(3 2.5449e-10 0)
(3 4.6928e-10 0)
(3 8.81451e-10 0)
(3 1.79879e-09 0)
(3 3.77668e-09 0)
(3 8.69044e-09 0)
(3 2.05012e-08 0)
(3 5.34947e-08 0)
(3 1.43106e-07 0)
(3 4.24948e-07 0)
(3 1.28165e-06 0)
(3 4.30069e-06 0)
(2.99999 1.42944e-05 0)
(2.99996 5.18485e-05 0)
(2.99985 0.000184111 0)
(2.99955 0.000586719 0)
(2.99616 0.0046437 0)
(2.58581 -1.40384 0)
(2.62901 -1.39388 0)
(2.78408 -1.47167 0)
(2.94568 -1.63745 0)
(3.05852 -1.67607 0)
(3.099 -1.66472 0)
(3.0964 -1.66522 0)
(3.07774 -1.66775 0)
(3.06147 -1.65938 0)
(3.04386 -1.64842 0)
(3.03034 -1.586 0)
(3.05806 -1.4951 0)
(3.07126 -1.42421 0)
(3.09827 -1.29063 0)
(3.11705 -1.17463 0)
(3.1258 -1.02268 0)
(3.12791 -0.879982 0)
(3.12613 -0.750617 0)
(3.11954 -0.612843 0)
(3.10006 -0.468469 0)
(3.07342 -0.325409 0)
(3.03764 -0.176533 0)
(2.99227 -0.0305006 0)
(2.936 0.112294 0)
(2.87032 0.253608 0)
(2.819 0.365519 0)
(2.81264 0.381562 0)
(2.83021 0.348077 0)
(2.9025 0.213482 0)
(2.98088 0.0433266 0)
(2.99912 0.00194926 0)
(2.99999 2.36659e-05 0)
(3 1.39833e-07 0)
(3 6.32383e-10 0)
(3 2.19957e-12 0)
(2.5864 -1.39421 0)
(2.64284 -1.39719 0)
(2.80148 -1.49325 0)
(2.96479 -1.6351 0)
(3.06611 -1.67055 0)
(3.08938 -1.65779 0)
(3.0825 -1.65863 0)
(3.07227 -1.66731 0)
(3.05776 -1.65876 0)
(3.0394 -1.64861 0)
(3.04307 -1.54472 0)
(3.04725 -1.50879 0)
(3.07321 -1.38153 0)
(3.09042 -1.24764 0)
(3.10828 -1.13504 0)
(3.12328 -1.00488 0)
(3.12988 -0.887338 0)
(3.12656 -0.764534 0)
(3.11711 -0.626176 0)
(3.09778 -0.480695 0)
(3.06963 -0.331405 0)
(3.03301 -0.179579 0)
(2.98651 -0.029547 0)
(2.9295 0.116753 0)
(2.86412 0.269072 0)
(2.81574 0.372435 0)
(2.81248 0.383955 0)
(2.84233 0.331786 0)
(2.91756 0.188336 0)
(2.9862 0.0327125 0)
(2.99952 0.00107555 0)
(3 1.00026e-05 0)
(3 5.9189e-08 0)
(3 2.92726e-10 0)
(3 1.06949e-12 0)
(2.57246 -1.38709 0)
(2.63954 -1.39242 0)
(2.80116 -1.49397 0)
(2.96554 -1.61966 0)
(3.06357 -1.65251 0)
(3.07668 -1.64578 0)
(3.06995 -1.64939 0)
(3.06336 -1.66038 0)
(3.05321 -1.66577 0)
(3.024 -1.66813 0)
(3.03621 -1.53542 0)
(3.02698 -1.52492 0)
(3.07127 -1.3587 0)
(3.09082 -1.26273 0)
(3.10621 -1.16293 0)
(3.11934 -1.03098 0)
(3.12492 -0.908769 0)
(3.12726 -0.771537 0)
(3.12078 -0.626735 0)
(3.10533 -0.470082 0)
(3.07944 -0.308929 0)
(3.04137 -0.151904 0)
(2.99155 0.00181578 0)
(2.92955 0.151108 0)
(2.85711 0.300887 0)
(2.81304 0.379058 0)
(2.81443 0.385011 0)
(2.84511 0.336868 0)
(2.92675 0.171938 0)
(2.98964 0.0243793 0)
(2.99971 0.000643244 0)
(3 5.49973e-06 0)
(3 3.12462e-08 0)
(3 1.51457e-10 0)
(3 5.42885e-13 0)
(2.56793 -1.38349 0)
(2.63909 -1.40642 0)
(2.80657 -1.50979 0)
(2.96852 -1.61652 0)
(3.05547 -1.6377 0)
(3.06963 -1.64133 0)
(3.06162 -1.64739 0)
(3.05231 -1.65825 0)
(3.04748 -1.67084 0)
(3.02174 -1.67388 0)
(3.04943 -1.50038 0)
(3.04938 -1.507 0)
(3.08517 -1.3674 0)
(3.0923 -1.28141 0)
(3.10962 -1.17014 0)
(3.13074 -1.02771 0)
(3.1493 -0.882501 0)
(3.15388 -0.718531 0)
(3.14416 -0.558413 0)
(3.11796 -0.390104 0)
(3.07836 -0.222729 0)
(3.03077 -0.0668129 0)
(2.97162 0.0835362 0)
(2.90109 0.225394 0)
(2.83777 0.33964 0)
(2.80923 0.385499 0)
(2.81371 0.381462 0)
(2.84858 0.335279 0)
(2.93626 0.144484 0)
(2.99277 0.0159525 0)
(2.99983 0.000362775 0)
(3 2.84222e-06 0)
(3 1.59368e-08 0)
(3 7.66007e-11 0)
(3 2.71046e-13 0)
(2.56882 -1.38728 0)
(2.63801 -1.43246 0)
(2.80678 -1.51787 0)
(2.96914 -1.61583 0)
(3.05323 -1.62946 0)
(3.06589 -1.63944 0)
(3.05856 -1.64938 0)
(3.04712 -1.65921 0)
(3.03383 -1.67695 0)
(3.03297 -1.66825 0)
(3.07551 -1.50278 0)
(3.06757 -1.50389 0)
(3.09698 -1.36916 0)
(3.11893 -1.25346 0)
(3.14352 -1.12353 0)
(3.15971 -0.971558 0)
(3.15797 -0.806216 0)
(3.13469 -0.642296 0)
(3.10836 -0.476524 0)
(3.07534 -0.316471 0)
(3.03791 -0.163043 0)
(2.99302 -0.0165806 0)
(2.94015 0.12166 0)
(2.87781 0.252094 0)
(2.82504 0.353973 0)
(2.80709 0.388748 0)
(2.81451 0.375519 0)
(2.85696 0.295066 0)
(2.95142 0.107488 0)
(2.99549 0.00997331 0)
(2.99991 0.000185608 0)
(3 1.41406e-06 0)
(3 7.89215e-09 0)
(3 3.78265e-11 0)
(3 1.32151e-13 0)
(2.5703 -1.39021 0)
(2.6359 -1.45742 0)
(2.80712 -1.53728 0)
(2.97234 -1.61722 0)
(3.05699 -1.63051 0)
(3.06703 -1.64184 0)
(3.05965 -1.65273 0)
(3.04606 -1.66124 0)
(3.02526 -1.6718 0)
(3.04321 -1.64953 0)
(3.08441 -1.52255 0)
(3.09992 -1.46225 0)
(3.12218 -1.31585 0)
(3.13597 -1.16321 0)
(3.13795 -1.03305 0)
(3.1385 -0.895359 0)
(3.1276 -0.747163 0)
(3.11934 -0.621308 0)
(3.10067 -0.469699 0)
(3.07295 -0.328816 0)
(3.03723 -0.183386 0)
(2.99224 -0.0366015 0)
(2.93838 0.10327 0)
(2.87549 0.240953 0)
(2.82075 0.357436 0)
(2.80683 0.391069 0)
(2.81534 0.371104 0)
(2.88604 0.254699 0)
(2.96505 0.08389 0)
(2.99742 0.00617569 0)
(2.99996 9.94422e-05 0)
(3 7.08772e-07 0)
(3 3.88933e-09 0)
(3 1.84657e-11 0)
(3 6.25363e-14 0)
(2.56962 -1.39751 0)
(2.6333 -1.46867 0)
(2.81123 -1.55562 0)
(2.98436 -1.62228 0)
(3.06648 -1.63557 0)
(3.07577 -1.64997 0)
(3.06518 -1.66226 0)
(3.04183 -1.67049 0)
(3.02003 -1.65512 0)
(3.04274 -1.62327 0)
(3.07721 -1.53199 0)
(3.0998 -1.39658 0)
(3.11889 -1.2574 0)
(3.12297 -1.11937 0)
(3.12739 -1.02887 0)
(3.13125 -0.907444 0)
(3.12964 -0.773986 0)
(3.1155 -0.647434 0)
(3.09743 -0.498381 0)
(3.06811 -0.347347 0)
(3.03257 -0.19467 0)
(2.98816 -0.0422802 0)
(2.93445 0.105838 0)
(2.87164 0.256048 0)
(2.81645 0.37035 0)
(2.80682 0.392897 0)
(2.8206 0.372288 0)
(2.88877 0.256439 0)
(2.97161 0.0720041 0)
(2.99832 0.00413931 0)
(2.99998 5.4643e-05 0)
(3 3.62725e-07 0)
(3 1.93231e-09 0)
(3 9.00623e-12 0)
(3 2.84292e-14 0)
(2.56311 -1.40063 0)
(2.6353 -1.46733 0)
(2.81913 -1.55922 0)
(2.9947 -1.62916 0)
(3.0817 -1.64599 0)
(3.08573 -1.67254 0)
(3.06649 -1.69122 0)
(3.03927 -1.69269 0)
(3.014 -1.64313 0)
(3.03494 -1.61414 0)
(3.06488 -1.51407 0)
(3.08818 -1.37275 0)
(3.10735 -1.28049 0)
(3.11664 -1.15497 0)
(3.12289 -1.05781 0)
(3.12998 -0.922319 0)
(3.12994 -0.78912 0)
(3.12409 -0.638345 0)
(3.10762 -0.484909 0)
(3.0822 -0.31345 0)
(3.04539 -0.145951 0)
(2.9952 0.0154736 0)
(2.93071 0.170804 0)
(2.85697 0.310111 0)
(2.81021 0.384311 0)
(2.8073 0.392944 0)
(2.82631 0.376372 0)
(2.89461 0.252736 0)
(2.97665 0.0555959 0)
(2.99889 0.0024851 0)
(2.99999 2.84315e-05 0)
(3 1.80957e-07 0)
(3 9.47254e-10 0)
(3 4.3491e-12 0)
(3 1.19018e-14 0)
(2.54958 -1.39532 0)
(2.63562 -1.45304 0)
(2.82395 -1.55628 0)
(3.00405 -1.63769 0)
(3.0911 -1.65805 0)
(3.08904 -1.69609 0)
(3.06227 -1.70871 0)
(3.03592 -1.70103 0)
(3.01084 -1.6325 0)
(3.01592 -1.60065 0)
(3.05168 -1.5052 0)
(3.07945 -1.39495 0)
(3.10034 -1.28846 0)
(3.11928 -1.16382 0)
(3.13711 -1.05257 0)
(3.15085 -0.901227 0)
(3.1549 -0.752854 0)
(3.14633 -0.564577 0)
(3.12407 -0.399266 0)
(3.07716 -0.217187 0)
(3.02247 -0.0499509 0)
(2.96042 0.103021 0)
(2.89206 0.239537 0)
(2.8353 0.343356 0)
(2.80508 0.391172 0)
(2.80723 0.389539 0)
(2.82774 0.355443 0)
(2.90981 0.194751 0)
(2.98458 0.0341105 0)
(2.9994 0.00127828 0)
(2.99999 1.34715e-05 0)
(3 8.54489e-08 0)
(3 4.47957e-10 0)
(3 2.04902e-12 0)
(3 3.94613e-15 0)
(2.53779 -1.38778 0)
(2.63176 -1.42883 0)
(2.82467 -1.55475 0)
(3.00815 -1.63941 0)
(3.09368 -1.6625 0)
(3.08974 -1.70326 0)
(3.05877 -1.71278 0)
(3.03239 -1.70225 0)
(3.02135 -1.6129 0)
(3.0121 -1.61123 0)
(3.05059 -1.49692 0)
(3.08011 -1.39228 0)
(3.11297 -1.2682 0)
(3.14382 -1.1316 0)
(3.16703 -0.996162 0)
(3.16818 -0.822878 0)
(3.15358 -0.64881 0)
(3.11383 -0.47227 0)
(3.0748 -0.304699 0)
(3.0355 -0.153083 0)
(2.98996 -0.00801477 0)
(2.93903 0.124793 0)
(2.88092 0.246129 0)
(2.82676 0.34973 0)
(2.80277 0.394228 0)
(2.80639 0.387906 0)
(2.84538 0.318653 0)