/*--------------------------------*- C++ -*----------------------------------*\
  =========                 |
  \\      /  F ield         | OpenFOAM: The Open Source CFD Toolbox
   \\    /   O peration     | Website:  https://openfoam.org
    \\  /    A nd           | Version:  7
     \\/     M anipulation  |
\*---------------------------------------------------------------------------*/
FoamFile
{
    version     2.0;
    format      ascii;
    class       volScalarField;
    location    "10.5";
    object      rho;
}
// * * * * * * * * * * * * * * * * * * * * * * * * * * * * * * * * * * * * * //

dimensions      [1 -3 0 0 0 0 0];

internalField   nonuniform List<scalar> 
90000
(
0.183868
0.230038
0.273803
0.298098
0.32758
0.368399
0.399716
0.430214
0.473446
0.516451
0.556233
0.600604
0.646708
0.688174
0.730538
0.767476
0.796626
0.822826
0.83946
0.85032
0.858152
0.85471
0.853288
0.852595
0.846541
0.841101
0.84252
0.847611
0.850962
0.855641
0.86524
0.876204
0.884816
0.890201
0.893111
0.897588
0.905646
0.913314
0.919434
0.925015
0.931388
0.938158
0.945214
0.952711
0.960901
0.969801
0.979553
0.990252
1.0026
1.01557
1.0281
1.03701
1.04464
1.04557
1.04361
1.03977
1.03761
1.03668
1.03603
1.03793
1.0408
1.04549
1.05221
1.056
1.0585
1.05902
1.05771
1.05442
1.05062
1.04793
1.04854
1.05153
1.0537
1.0544
1.05381
1.05126
1.04963
1.05062
1.05356
1.05588
1.05707
1.05886
1.0636
1.07113
1.07702
1.08248
1.08723
1.09557
1.10156
1.10769
1.11056
1.11594
1.12163
1.12772
1.13245
1.13565
1.14052
1.14429
1.14704
1.15146
0.144544
0.14457
0.1446
0.144634
0.144678
0.144726
0.144799
0.144854
0.146118
0.149636
0.156513
0.167426
0.184693
0.207217
0.237591
0.277206
0.324867
0.382385
0.446784
0.509435
0.577843
0.633395
0.68601
0.727188
0.756515
0.77444
0.785588
0.788355
0.782412
0.77862
0.773931
0.77556
0.775419
0.776613
0.775056
0.7773
0.783585
0.788394
0.793929
0.803401
0.81813
0.835226
0.852642
0.868271
0.881829
0.892733
0.901529
0.909405
0.916252
0.923372
0.929667
0.937764
0.944704
0.951618
0.957792
0.964984
0.975122
0.98622
0.997324
1.00751
1.01582
1.02365
1.03076
1.03467
1.03443
1.03467
1.03477
1.03696
1.03986
1.0441
1.04857
1.05332
1.05408
1.05225
1.04872
1.0472
1.04916
1.05357
1.05657
1.05708
1.05803
1.06141
1.06893
1.0766
1.0815
1.08577
1.09203
1.10084
1.10571
1.11078
1.11301
1.11883
1.12404
1.12988
1.13417
1.13796
1.14299
1.14692
1.14978
1.15291
0.145253
0.145339
0.145435
0.145542
0.145655
0.145777
0.145902
0.14603
0.146174
0.146266
0.146345
0.146421
0.1465
0.146599
0.146709
0.146837
0.146936
0.147231
0.151004
0.161343
0.180087
0.211856
0.252761
0.309951
0.375031
0.446832
0.511522
0.57569
0.622694
0.667185
0.699876
0.72909
0.746621
0.756579
0.759852
0.753356
0.746266
0.737679
0.72724
0.718972
0.717413
0.719943
0.729095
0.744438
0.764907
0.783678
0.798307
0.808546
0.814021
0.817764
0.822865
0.830674
0.843106
0.859062
0.875244
0.889534
0.901974
0.912322
0.922372
0.93194
0.941707
0.950876
0.960297
0.970891
0.981068
0.991404
1.00154
1.01231
1.02203
1.03147
1.03728
1.03641
1.03459
1.03523
1.03771
1.04353
1.05051
1.0549
1.0569
1.05667
1.05827
1.06508
1.07434
1.07964
1.08379
1.0889
1.09842
1.10481
1.11024
1.11302
1.11591
1.12229
1.12646
1.13206
1.13567
1.13962
1.14463
1.1496
1.1523
1.15435
0.146343
0.146437
0.146535
0.146635
0.146734
0.146838
0.146936
0.147036
0.147131
0.147228
0.147328
0.147428
0.147529
0.147626
0.147719
0.147816
0.147908
0.148015
0.148068
0.148125
0.148184
0.148251
0.148318
0.1484
0.148456
0.153588
0.167943
0.195106
0.238211
0.291287
0.364988
0.439556
0.521698
0.585074
0.652614
0.689711
0.716978
0.73317
0.727165
0.722575
0.710679
0.69969
0.694514
0.689878
0.6908
0.694231
0.70535
0.722399
0.738385
0.750044
0.758237
0.760678
0.763157
0.769282
0.77974
0.791244
0.80019
0.807536
0.816083
0.827951
0.842567
0.858874
0.875042
0.889893
0.903696
0.917457
0.932008
0.945231
0.956911
0.967159
0.978568
0.989454
1.00117
1.01323
1.02414
1.03457
1.04104
1.04169
1.0439
1.04946
1.05743
1.06838
1.07623
1.08023
1.08417
1.09167
1.10253
1.10693
1.11207
1.11546
1.12066
1.12585
1.12956
1.13391
1.13682
1.14107
1.14566
1.15052
1.15321
1.15602
0.147305
0.147365
0.147426
0.147489
0.147551
0.147614
0.147676
0.147737
0.147797
0.147861
0.147926
0.147991
0.148055
0.148119
0.148185
0.148254
0.148324
0.148394
0.148464
0.148543
0.14862
0.1487
0.148773
0.148846
0.148921
0.148954
0.148983
0.149015
0.14905
0.149106
0.149145
0.154064
0.173432
0.211662
0.270976
0.35961
0.447949
0.550713
0.614003
0.672256
0.695533
0.706635
0.70346
0.693979
0.685542
0.674133
0.668504
0.66994
0.67706
0.690901
0.707242
0.718238
0.723778
0.719255
0.71469
0.715849
0.721407
0.732392
0.745479
0.756903
0.766443
0.775374
0.78695
0.800676
0.813985
0.82727
0.840204
0.855295
0.871151
0.887341
0.906398
0.926884
0.946129
0.962227
0.974382
0.982892
0.992213
1.00529
1.02159
1.03999
1.05554
1.06604
1.06668
1.07066
1.07952
1.09332
1.10314
1.10705
1.11208
1.11649
1.12368
1.12776
1.13164
1.13512
1.13772
1.14163
1.14584
1.15011
1.15324
1.15785
0.147903
0.147944
0.147985
0.148025
0.148067
0.148109
0.148153
0.148198
0.148243
0.148291
0.148341
0.148393
0.148447
0.148504
0.148564
0.148629
0.148694
0.148757
0.148822
0.148887
0.148952
0.149013
0.14907
0.149123
0.149167
0.14921
0.14925
0.149282
0.149312
0.149348
0.149389
0.149415
0.149441
0.149464
0.149488
0.149503
0.156282
0.185742
0.24621
0.332832
0.444693
0.536452
0.614676
0.650752
0.678198
0.674821
0.671888
0.668428
0.667113
0.669599
0.677986
0.692357
0.70476
0.706136
0.700559
0.693855
0.688597
0.691261
0.698934
0.709095
0.717219
0.720477
0.723071
0.727971
0.738428
0.751222
0.763641
0.773495
0.787301
0.802232
0.817968
0.835369
0.85345
0.871062
0.88961
0.910396
0.933642
0.957976
0.979801
0.997882
1.01007
1.02142
1.0363
1.05368
1.07216
1.08703
1.08788
1.09476
1.10502
1.11608
1.12443
1.12757
1.13202
1.13538
1.13811
1.14122
1.14331
1.1463
1.15091
1.15891
0.148333
0.148363
0.148393
0.148425
0.148458
0.148494
0.148533
0.148574
0.148614
0.148659
0.148704
0.148753
0.148808
0.148861
0.148917
0.148982
0.149042
0.149093
0.149144
0.149193
0.149236
0.149276
0.149314
0.149345
0.14937
0.14939
0.149403
0.149414
0.149427
0.149445
0.149472
0.1495
0.149529
0.149555
0.14958
0.149602
0.149614
0.149625
0.149641
0.14965
0.158885
0.190286
0.258712
0.36015
0.471863
0.562115
0.618667
0.649152
0.666794
0.67224
0.67252
0.677092
0.683944
0.685596
0.689094
0.687968
0.686623
0.683668
0.682632
0.6838
0.689753
0.696674
0.699791
0.69995
0.700038
0.70476
0.714342
0.722982
0.728021
0.737497
0.749571
0.761361
0.77466
0.791228
0.80988
0.830006
0.851308
0.873226
0.894293
0.916169
0.939885
0.966452
0.992418
1.0147
1.02992
1.04053
1.05492
1.07384
1.08993
1.1005
1.1058
1.11269
1.12337
1.13151
1.13713
1.14002
1.14074
1.14286
1.14734
1.1592
0.148674
0.148702
0.148731
0.148763
0.148797
0.148832
0.148871
0.148911
0.148949
0.14899
0.149032
0.14908
0.149134
0.149183
0.149229
0.149279
0.149323
0.149358
0.149391
0.149419
0.14944
0.14946
0.149479
0.149492
0.149501
0.149505
0.149506
0.149509
0.149514
0.149527
0.149548
0.149574
0.149599
0.149622
0.149644
0.149663
0.149684
0.149707
0.149723
0.14973
0.14973
0.149735
0.149743
0.149745
0.162417
0.214991
0.298741
0.415931
0.514701
0.596147
0.628777
0.656112
0.663369
0.671769
0.684055
0.686845
0.68792
0.687779
0.683231
0.680247
0.681299
0.683647
0.68639
0.690694
0.691083
0.68903
0.690115
0.695684
0.702993
0.704288
0.707549
0.714159
0.721637
0.731347
0.745954
0.76203
0.778678
0.796549
0.815732
0.837119
0.860646
0.883682
0.906042
0.92951
0.952756
0.977653
1.00062
1.02051
1.0349
1.0502
1.06724
1.08291
1.09728
1.10869
1.12219
1.13335
1.13829
1.14239
1.14626
1.15347
0.148987
0.149015
0.149048
0.149083
0.149121
0.149158
0.149191
0.149222
0.149254
0.149288
0.149322
0.149364
0.149409
0.149446
0.149476
0.149502
0.149526
0.149547
0.149564
0.149574
0.14958
0.149587
0.149594
0.149598
0.149598
0.149591
0.149587
0.149587
0.149591
0.149603
0.149622
0.149645
0.149666
0.149686
0.149705
0.149727
0.149749
0.149767
0.149768
0.149758
0.149741
0.149713
0.149694
0.149697
0.149716
0.149718
0.149697
0.155279
0.188551
0.263133
0.377676
0.489663
0.584795
0.638881
0.679398
0.685804
0.692143
0.693994
0.686802
0.680975
0.681736
0.682867
0.685635
0.686638
0.686281
0.685084
0.684873
0.68654
0.690962
0.693835
0.692729
0.693348
0.697644
0.703943
0.711006
0.720188
0.730224
0.740973
0.755035
0.771109
0.788909
0.806697
0.827325
0.849342
0.873108
0.896509
0.917265
0.939601
0.962533
0.986951
1.00887
1.02605
1.04178
1.05713
1.07262
1.08796
1.10489
1.12179
1.13014
1.13399
0.149302
0.149324
0.14935
0.14938
0.149413
0.149445
0.149471
0.149492
0.149513
0.149534
0.149555
0.149578
0.149604
0.149626
0.149643
0.149653
0.149659
0.149667
0.149671
0.149671
0.14967
0.149669
0.149672
0.149672
0.149663
0.149645
0.149642
0.149644
0.149653
0.14967
0.149693
0.149715
0.149734
0.149752
0.149772
0.149792
0.14981
0.14981
0.149798
0.149771
0.149714
0.149661
0.149658
0.149673
0.149704
0.149724
0.149758
0.149782
0.149822
0.149904
0.151109
0.17188
0.240459
0.352564
0.494841
0.589231
0.656854
0.684814
0.688622
0.687169
0.6885
0.687428
0.687415
0.687463
0.685362
0.684095
0.684513
0.68637
0.688966
0.690298
0.689584
0.68879
0.689734
0.695189
0.7011
0.705712
0.710687
0.716133
0.722669
0.731359
0.742533
0.755557
0.769156
0.786004
0.8025
0.81808
0.837317
0.856959
0.879182
0.900524
0.920817
0.942588
0.966149
0.989515
1.00978
1.02619
1.042
1.05777
1.07209
1.09619
0.149567
0.14958
0.149594
0.149609
0.149623
0.149637
0.149649
0.14966
0.149672
0.149684
0.149694
0.149703
0.14971
0.149714
0.149719
0.149721
0.14972
0.14972
0.149719
0.149713
0.149707
0.149706
0.149707
0.149705
0.149693
0.149687
0.149688
0.149696
0.149718
0.149749
0.149777
0.149798
0.149813
0.149825
0.149838
0.149849
0.149847
0.149834
0.149793
0.149732
0.14966
0.149643
0.149648
0.149671
0.149709
0.149791
0.149924
0.149997
0.150053
0.150183
0.150312
0.150324
0.150312
0.150203
0.16963
0.248874
0.374833
0.52673
0.623102
0.666053
0.686431
0.69054
0.69141
0.690329
0.686721
0.686485
0.688478
0.689423
0.688836
0.688318
0.688511
0.688948
0.690923
0.694114
0.698031
0.700951
0.703167
0.707935
0.713245
0.718588
0.724197
0.729443
0.736593
0.744123
0.75675
0.769786
0.782463
0.796773
0.810777
0.827173
0.846262
0.865809
0.883923
0.902219
0.923874
0.945929
0.967459
0.986213
1.00305
1.03167
0.149682
0.149685
0.149688
0.149692
0.149696
0.1497
0.149706
0.149713
0.149722
0.14973
0.149735
0.149736
0.149736
0.149736
0.149736
0.149736
0.149733
0.14973
0.149726
0.149719
0.149719
0.149722
0.149729
0.149736
0.149746
0.149757
0.149772
0.149796
0.149829
0.149856
0.149874
0.14988
0.149876
0.149873
0.14987
0.149867
0.149856
0.149809
0.149753
0.149696
0.149653
0.149649
0.149656
0.149683
0.149771
0.150007
0.150166
0.150192
0.150201
0.15025
0.150325
0.150333
0.150299
0.1501
0.149969
0.149907
0.149782
0.184566
0.288854
0.439057
0.577299
0.644762
0.68412
0.685755
0.688203
0.692797
0.69655
0.694366
0.69011
0.687356
0.688353
0.69152
0.695625
0.698223
0.700744
0.702677
0.704369
0.706368
0.709911
0.713279
0.718269
0.723471
0.728905
0.734001
0.73703
0.743162
0.751965
0.760773
0.771343
0.779267
0.790796
0.804895
0.821272
0.835774
0.84909
0.863852
0.880683
0.902744
0.921954
0.950543
0.149674
0.149677
0.14968
0.149683
0.149688
0.149694
0.1497
0.149707
0.149717
0.149726
0.149731
0.149733
0.149734
0.149735
0.149736
0.149737
0.149739
0.149745
0.149755
0.149768
0.149788
0.149815
0.149841
0.149862
0.149878
0.149893
0.149907
0.14992
0.149933
0.149933
0.149928
0.149914
0.149889
0.149851
0.149818
0.149804
0.149784
0.14975
0.149722
0.14969
0.149671
0.149683
0.14972
0.149788
0.149969
0.150264
0.150332
0.150317
0.150268
0.150263
0.150235
0.150208
0.150114
0.149864
0.149782
0.14978
0.149758
0.149639
0.149504
0.16113
0.225074
0.370773
0.536789
0.62421
0.68284
0.69026
0.696596
0.695646
0.688623
0.689489
0.693897
0.698089
0.700926
0.70151
0.702795
0.704708
0.707448
0.709792
0.712797
0.715045
0.717176
0.721112
0.725417
0.729153
0.732976
0.736507
0.741851
0.746796
0.753021
0.759399
0.764158
0.769977
0.776855
0.789391
0.802634
0.814962
0.826322
0.836751
0.849438
0.875719
0.149703
0.149706
0.14971
0.149711
0.149712
0.149715
0.149723
0.149737
0.149758
0.149775
0.149783
0.149788
0.149795
0.149805
0.149819
0.149834
0.149854
0.14988
0.149901
0.149917
0.149933
0.149955
0.149974
0.149976
0.149973
0.149965
0.149961
0.149959
0.149952
0.149935
0.149901
0.149841
0.149779
0.149734
0.149731
0.149739
0.149743
0.149736
0.149722
0.149735
0.149785
0.149878
0.149944
0.150017
0.150216
0.150391
0.150397
0.150363
0.150288
0.150176
0.150079
0.149986
0.149828
0.149682
0.149678
0.149714
0.149722
0.149658
0.149639
0.149668
0.149955
0.150328
0.189374
0.311813
0.489961
0.598245
0.677892
0.679641
0.687518
0.695711
0.703941
0.703342
0.704619
0.70528
0.706361
0.708921
0.712141
0.71386
0.715684
0.717457
0.720287
0.724148
0.727522
0.729933
0.731756
0.734693
0.738277
0.741825
0.745109
0.749891
0.755375
0.759753
0.764124
0.765863
0.771739
0.780318
0.792579
0.802616
0.808542
0.823606
0.149728
0.149734
0.14974
0.149746
0.149758
0.149781
0.149817
0.149854
0.149876
0.14989
0.1499
0.149907
0.149914
0.149928
0.14994
0.149947
0.149957
0.149972
0.149981
0.149985
0.149992
0.150003
0.150005
0.150002
0.14999
0.149963
0.149933
0.149906
0.149869
0.149826
0.149778
0.149719
0.149683
0.149685
0.149701
0.149723
0.149745
0.149789
0.149852
0.149942
0.15009
0.150179
0.150194
0.150225
0.150334
0.150411
0.150409
0.150366
0.150196
0.15003
0.149926
0.149792
0.149637
0.149617
0.149649
0.149696
0.149736
0.149854
0.150138
0.150512
0.150982
0.151324
0.151439
0.151277
0.172607
0.275001
0.454144
0.589323
0.684405
0.696028
0.707398
0.704627
0.710847
0.710871
0.713245
0.715619
0.717503
0.718801
0.720011
0.722364
0.724916
0.727301
0.729418
0.73145
0.734554
0.737607
0.740356
0.742938
0.744979
0.747699
0.751669
0.755438
0.760656
0.76368
0.764329
0.767115
0.769897
0.777284
0.784864
0.792626
0.149829
0.149838
0.149851
0.149866
0.149884
0.149909
0.149947
0.149987
0.150001
0.150002
0.150001
0.150001
0.150002
0.150002
0.150001
0.149998
0.149994
0.149992
0.149991
0.149989
0.149985
0.149974
0.149949
0.149919
0.14988
0.149831
0.149792
0.149765
0.14974
0.149718
0.149696
0.149673
0.149667
0.149678
0.149719
0.149785
0.149897
0.15002
0.150113
0.150233
0.15034
0.150335
0.150307
0.150308
0.150345
0.150342
0.150314
0.150189
0.149994
0.149916
0.14984
0.149679
0.149572
0.14959
0.149676
0.149748
0.149873
0.150305
0.150991
0.151629
0.152027
0.15189
0.15172
0.151708
0.151919
0.152215
0.164333
0.257221
0.441256
0.583709
0.687956
0.700585
0.721339
0.719317
0.72632
0.724215
0.72582
0.727195
0.72852
0.731605
0.732965
0.733798
0.735484
0.737637
0.739646
0.741255
0.743303
0.745359
0.747509
0.750092
0.753199
0.756267
0.758612
0.762313
0.765307
0.768224
0.769831
0.771913
0.775506
0.783503
0.149966
0.149971
0.149978
0.149986
0.149996
0.15001
0.150026
0.150041
0.150047
0.150046
0.150041
0.150033
0.150022
0.150007
0.149986
0.149952
0.149905
0.149868
0.149842
0.149826
0.149811
0.149788
0.149756
0.149727
0.149705
0.149689
0.149674
0.149674
0.149678
0.149678
0.149683
0.149699
0.149727
0.149813
0.149938
0.150057
0.150209
0.150292
0.150332
0.150384
0.150399
0.150363
0.150302
0.150279
0.150242
0.150184
0.150086
0.149947
0.149886
0.149884
0.149822
0.149625
0.149564
0.149682
0.150183
0.150494
0.150656
0.151161
0.152046
0.152612
0.152926
0.152813
0.152765
0.153265
0.154463
0.156662
0.158658
0.159955
0.167593
0.250764
0.428167
0.596761
0.702255
0.724374
0.749457
0.740174
0.745869
0.743195
0.744538
0.747683
0.747348
0.747893
0.748313
0.748881
0.749812
0.752032
0.754509
0.75568
0.756651
0.756639
0.756538
0.758298
0.761177
0.765428
0.768935
0.771504
0.773342
0.774767
0.777393
0.781421
0.150024
0.15002
0.150017
0.150014
0.150013
0.150008
0.149997
0.149979
0.149964
0.149939
0.149898
0.149846
0.1498
0.149764
0.149724
0.149672
0.149617
0.149595
0.149595
0.149601
0.14961
0.149613
0.149614
0.149611
0.149611
0.149619
0.149634
0.149657
0.149701
0.149774
0.149884
0.149962
0.150034
0.150164
0.150286
0.150365
0.150434
0.150434
0.150412
0.150404
0.150397
0.150317
0.150191
0.150184
0.150175
0.1501
0.149969
0.149876
0.14989
0.149906
0.149837
0.149683
0.149739
0.150247
0.151314
0.152389
0.152878
0.153024
0.153413
0.153674
0.153929
0.154478
0.155435
0.156863
0.159125
0.162649
0.165276
0.16751
0.169313
0.169727
0.172075
0.248457
0.424731
0.611417
0.723024
0.750098
0.778885
0.768677
0.773921
0.770848
0.767831
0.769626
0.770228
0.770899
0.770853
0.770857
0.770788
0.770398
0.771096
0.772252
0.772115
0.772261
0.772421
0.772373
0.77307
0.77439
0.778122
0.780241
0.781391
0.784196
0.149759
0.149732
0.149705
0.149682
0.149658
0.149629
0.149603
0.149579
0.149556
0.149527
0.149488
0.14946
0.149444
0.149432
0.149428
0.149432
0.149432
0.149436
0.149451
0.149481
0.149517
0.149554
0.149587
0.149627
0.149691
0.149774
0.149861
0.149972
0.150089
0.150231
0.150344
0.150398
0.150447
0.150508
0.150568
0.150572
0.150554
0.150486
0.150386
0.150369
0.150357
0.15028
0.150172
0.150164
0.150174
0.150069
0.149994
0.150056
0.150278
0.150463
0.150649
0.15088
0.151085
0.151788
0.15287
0.154143
0.155411
0.155401
0.155311
0.155759
0.156526
0.157969
0.160389
0.16315
0.166101
0.16852
0.170621
0.172364
0.174161
0.17693
0.180408
0.184015
0.185712
0.251813
0.420083
0.624106
0.746288
0.78124
0.817841
0.805887
0.806298
0.802793
0.798609
0.799892
0.801619
0.800321
0.797725
0.795997
0.796282
0.796026
0.794516
0.792231
0.79069
0.790406
0.790887
0.791559
0.79229
0.791276
0.789155
0.789251
0.149248
0.149248
0.149249
0.149252
0.14926
0.149271
0.149275
0.149278
0.149281
0.149288
0.1493
0.149318
0.149334
0.149352
0.14938
0.14942
0.149491
0.14958
0.14968
0.149792
0.149925
0.150057
0.150162
0.150251
0.150337
0.150414
0.150491
0.150574
0.150642
0.150727
0.150784
0.150776
0.150769
0.150777
0.15078
0.150743
0.150659
0.150535
0.150474
0.150459
0.150456
0.150469
0.150529
0.150539
0.150354
0.150179
0.150257
0.150545
0.151171
0.152144
0.153199
0.154284
0.154972
0.155419
0.155747
0.156251
0.157842
0.158653
0.159003
0.159714
0.161606
0.164645
0.167539
0.170614
0.17308
0.174851
0.176903
0.178662
0.18148
0.185143
0.18826
0.190534
0.193431
0.195249
0.196245
0.255467
0.420658
0.639046
0.778938
0.813199
0.852925
0.847013
0.845414
0.83975
0.836045
0.834386
0.835545
0.834144
0.830968
0.82806
0.826481
0.825452
0.824075
0.821486
0.819146
0.817405
0.816137
0.815321
0.813905
0.810673
0.149293
0.149314
0.149339
0.149376
0.149428
0.14949
0.149547
0.149603
0.149683
0.149793
0.149926
0.150066
0.150172
0.150257
0.150341
0.150427
0.150536
0.150646
0.150729
0.150803
0.150866
0.150923
0.150981
0.151024
0.151047
0.151067
0.151092
0.1511
0.151102
0.15113
0.151131
0.151064
0.151025
0.151031
0.151011
0.150885
0.150704
0.150695
0.150678
0.150651
0.150681
0.150822
0.151017
0.151175
0.151382
0.151709
0.152152
0.152756
0.153714
0.155104
0.156567
0.158033
0.159774
0.160377
0.160387
0.160389
0.161075
0.163361
0.16577
0.167788
0.170232
0.173033
0.176168
0.17856
0.180429
0.182105
0.183732
0.18618
0.188665
0.191969
0.195332
0.197155
0.199693
0.203142
0.205782
0.207958
0.210012
0.262509
0.421946
0.648537
0.809542
0.846641
0.892985
0.890816
0.887545
0.876796
0.872316
0.871473
0.874106
0.872728
0.869396
0.865367
0.8621
0.859406
0.856778
0.85455
0.852076
0.850136
0.847764
0.841618
0.150371
0.150441
0.150528
0.150643
0.150758
0.150841
0.150897
0.15096
0.151042
0.151138
0.151242
0.151334
0.151399
0.151431
0.15142
0.151413
0.151417
0.151445
0.151473
0.151465
0.151443
0.151441
0.151455
0.151474
0.151466
0.151466
0.151464
0.151405
0.151365
0.151369
0.15129
0.151144
0.151143
0.151141
0.151087
0.15097
0.15092
0.15097
0.151137
0.151447
0.151898
0.152559
0.153397
0.154534
0.155913
0.157381
0.158699
0.15975
0.160575
0.161309
0.161852
0.162428
0.16394
0.165343
0.165898
0.166708
0.168159
0.170922
0.174476
0.178076
0.180495
0.18252
0.184385
0.18573
0.187244
0.188721
0.191004
0.194294
0.197505
0.200181
0.20353
0.206136
0.207529
0.20953
0.212576
0.216424
0.220811
0.222203
0.223009
0.269428
0.426962
0.663501
0.843862
0.88317
0.9288
0.930348
0.927176
0.916594
0.913076
0.911778
0.914329
0.913014
0.909093
0.905353
0.902829
0.900671
0.897403
0.89314
0.889318
0.883322
0.152298
0.152277
0.152249
0.152199
0.152093
0.151978
0.151951
0.151952
0.151957
0.151935
0.151893
0.15189
0.151911
0.15191
0.151838
0.151786
0.15179
0.151823
0.15183
0.151787
0.151729
0.151727
0.151742
0.151732
0.151672
0.151679
0.151685
0.15163
0.151628
0.151744
0.151894
0.152033
0.152252
0.152622
0.15317
0.153804
0.154551
0.155375
0.156336
0.157509
0.158841
0.16005
0.161071
0.16208
0.163099
0.164054
0.164969
0.165833
0.166594
0.167099
0.167356
0.168009
0.169544
0.172146
0.175179
0.177673
0.180341
0.182703
0.185266
0.187468
0.188987
0.190127
0.190969
0.192391
0.194125
0.1969
0.200164
0.203881
0.207619
0.209008
0.210319
0.212182
0.214029
0.217045
0.222037
0.225579
0.228021
0.23045
0.232762
0.234926
0.237211
0.281147
0.435298
0.678434
0.871749
0.91768
0.965854
0.971166
0.967084
0.955595
0.952177
0.952509
0.954876
0.953517
0.950521
0.947429
0.945014
0.942582
0.939576
0.932182
0.15183
0.151834
0.151848
0.151839
0.151727
0.15159
0.151578
0.151593
0.151642
0.151653
0.151659
0.151693
0.151781
0.151891
0.151897
0.151915
0.151968
0.152125
0.152365
0.152455
0.152561
0.152756
0.153071
0.153502
0.153964
0.154425
0.154919
0.155557
0.156317
0.157114
0.157937
0.158771
0.159628
0.16059
0.161555
0.162479
0.163397
0.164309
0.165232
0.1661
0.166852
0.167423
0.168025
0.16873
0.169473
0.17019
0.17111
0.172347
0.173767
0.1755
0.177383
0.179663
0.182128
0.184648
0.187314
0.189938
0.191494
0.192367
0.193416
0.194331
0.195513
0.196511
0.198263
0.200934
0.204383
0.208098
0.211088
0.212943
0.215156
0.21635
0.217348
0.21953
0.223156
0.227822
0.232233
0.233447
0.234125
0.2365
0.240332
0.244135
0.248959
0.25096
0.251746
0.292898
0.447009
0.699684
0.905018
0.953874
1.00267
1.00758
1.00358
0.993722
0.990362
0.991691
0.995184
0.994774
0.992245
0.98868
0.985501
0.97962
0.153757
0.154011
0.154273
0.154542
0.15482
0.155111
0.15543
0.155766
0.156121
0.156514
0.156939
0.157335
0.157703
0.158093
0.158558
0.159089
0.159619
0.160134
0.160641
0.161154
0.161715
0.162311
0.162923
0.163514
0.164083
0.164689
0.16533
0.165999
0.166632
0.16722
0.167795
0.168404
0.169032
0.16965
0.170257
0.170913
0.17156
0.172256
0.172965
0.17368
0.174452
0.175418
0.17659
0.177807
0.179181
0.180792
0.182698
0.184762
0.187005
0.189117
0.191169
0.193103
0.194582
0.195385
0.19639
0.198168
0.198668
0.199064
0.199731
0.201388
0.203848
0.206975
0.210149
0.213384
0.216186
0.21833
0.219969
0.220503
0.221369
0.223478
0.226755
0.230819
0.234564
0.236973
0.239195
0.240931
0.242696
0.245541
0.250424
0.254241
0.256863
0.260066
0.262904
0.264609
0.266445
0.30973
0.467633
0.727144
0.941436
0.988481
1.03704
1.04158
1.03824
1.03015
1.02849
1.03073
1.03325
1.03217
1.02871
1.02303
0.165626
0.165815
0.166024
0.166252
0.16648
0.166707
0.166943
0.167183
0.167429
0.167686
0.167943
0.168198
0.16848
0.168781
0.169091
0.169406
0.169728
0.170063
0.170423
0.170803
0.171218
0.171641
0.17207
0.172513
0.172996
0.17351
0.174033
0.174564
0.175122
0.175746
0.176437
0.177187
0.177983
0.178829
0.179783
0.180802
0.181909
0.18317
0.184458
0.185832
0.187422
0.189085
0.190563
0.192021
0.193594
0.195117
0.196412
0.197566
0.198706
0.199646
0.200679
0.202079
0.20255
0.20283
0.203473
0.205165
0.207494
0.209398
0.211462
0.214198
0.217346
0.220347
0.222622
0.223871
0.224954
0.225894
0.227192
0.228887
0.231064
0.234528
0.238374
0.242258
0.245901
0.246339
0.247242
0.250412
0.254775
0.257701
0.260711
0.264291
0.265852
0.268123
0.271972
0.275731
0.279525
0.282307
0.284181
0.329557
0.497096
0.763826
0.980412
1.02303
1.07172
1.07421
1.07192
1.06602
1.06344
1.06652
1.06673
1.06344
0.17539
0.175629
0.175886
0.176149
0.176428
0.176747
0.177104
0.177481
0.177852
0.178218
0.178599
0.179004
0.179425
0.179878
0.180385
0.180912
0.181452
0.182019
0.182591
0.183202
0.183845
0.184511
0.185225
0.185962
0.18672
0.18749
0.188278
0.189113
0.189984
0.190847
0.191757
0.192662
0.193555
0.194475
0.195393
0.19627
0.197198
0.198131
0.199042
0.199972
0.200888
0.201687
0.202471
0.203372
0.204224
0.204952
0.205655
0.206452
0.207177
0.207954
0.208967
0.210608
0.212529
0.214099
0.215803
0.217937
0.220594
0.223651
0.225971
0.227607
0.228995
0.230256
0.231322
0.231826
0.232785
0.234578
0.237554
0.241375
0.244883
0.248182
0.250486
0.251863
0.253974
0.255891
0.257768
0.260274
0.264525
0.268651
0.270916
0.274263
0.277369
0.278908
0.28168
0.286247
0.290193
0.293304
0.296856
0.299005
0.300568
0.354393
0.53851
0.809085
1.02301
1.05839
1.10723
1.10515
1.10268
1.09784
1.09435
1.09588
0.19122
0.191463
0.191744
0.192042
0.192329
0.192614
0.192897
0.193181
0.193514
0.193886
0.19426
0.194623
0.194975
0.195342
0.195727
0.19614
0.196555
0.196976
0.197406
0.197819
0.19825
0.198709
0.199166
0.199639
0.200115
0.200608
0.201115
0.201637
0.202177
0.202745
0.203319
0.203894
0.204483
0.205071
0.205666
0.206293
0.20695
0.207593
0.208279
0.209009
0.209769
0.210603
0.211589
0.212585
0.213619
0.214874
0.216322
0.217868
0.219571
0.221357
0.223281
0.225092
0.227
0.229309
0.231351
0.232692
0.233636
0.234851
0.236044
0.236918
0.23788
0.238993
0.240495
0.242585
0.245259
0.248437
0.251639
0.254822
0.25744
0.259132
0.260689
0.26162
0.263012
0.266249
0.270505
0.273702
0.276629
0.28095
0.28305
0.284196
0.286937
0.290005
0.293089
0.297356
0.301377
0.303854
0.306692
0.310373
0.314435
0.316986
0.318717
0.384376
0.592275
0.862089
1.0688
1.09389
1.13787
1.1349
1.12997
1.12406
0.204055
0.20426
0.204489
0.204712
0.204925
0.205136
0.205364
0.205622
0.205894
0.206177
0.206473
0.206771
0.207085
0.20743
0.207799
0.20817
0.208535
0.208911
0.2093
0.209707
0.210128
0.210567
0.211027
0.211491
0.21197
0.21248
0.213022
0.213601
0.214216
0.214876
0.215594
0.216374
0.217219
0.21813
0.219089
0.220105
0.221146
0.222233
0.223353
0.224483
0.225669
0.226934
0.228163
0.229408
0.230748
0.232065
0.233319
0.234558
0.235794
0.237071
0.238218
0.23903
0.239604
0.2409
0.242294
0.243032
0.243563
0.244363
0.245893
0.247873
0.249983
0.252471
0.25532
0.258505
0.261267
0.263896
0.265721
0.266843
0.268411
0.269769
0.271543
0.274105
0.277038
0.280384
0.284158
0.287873
0.289458
0.291222
0.293452
0.295054
0.297522
0.302403
0.307508
0.310302
0.31304
0.315812
0.318603
0.322092
0.32595
0.329339
0.33286
0.335411
0.337094
0.420293
0.659265
0.922766
1.11071
1.1272
1.16151
1.15819
0.219502
0.219716
0.219952
0.220216
0.220505
0.220798
0.221082
0.22135
0.221646
0.222016
0.222391
0.222717
0.223046
0.223413
0.223809
0.224234
0.224674
0.225114
0.225562
0.226033
0.226527
0.227039
0.227578
0.228138
0.228713
0.229303
0.229914
0.230538
0.231174
0.231836
0.232518
0.233211
0.233915
0.234619
0.23534
0.236063
0.236793
0.237538
0.238283
0.239036
0.239815
0.240588
0.241377
0.242215
0.243018
0.243752
0.244544
0.245412
0.246279
0.24743
0.248681
0.249364
0.250205
0.251513
0.253853
0.25602
0.257908
0.259913
0.262501
0.265303
0.267958
0.270127
0.271745
0.273412
0.274887
0.27651
0.277753
0.278464
0.279737
0.282201
0.28576
0.289227
0.292748
0.295805
0.297879
0.300492
0.302131
0.303341
0.306268
0.310756
0.314421
0.317827
0.320742
0.322155
0.324304
0.32793
0.331572
0.334968
0.338247
0.341358
0.344657
0.348131
0.35186
0.353669
0.357062
0.466724
0.733823
0.985511
1.14101
1.16941
0.235492
0.235675
0.235911
0.236166
0.236411
0.236637
0.236858
0.23711
0.237389
0.237672
0.237933
0.238239
0.238579
0.238906
0.239219
0.239543
0.239898
0.24028
0.240679
0.2411
0.241534
0.241974
0.242427
0.242903
0.243399
0.24391
0.24443
0.244955
0.245485
0.246028
0.246569
0.247133
0.247713
0.248328
0.248979
0.249672
0.250421
0.251213
0.252051
0.252935
0.253851
0.254821
0.255838
0.256918
0.258115
0.259467
0.260893
0.262311
0.263731
0.265255
0.266903
0.268911
0.271044
0.272869
0.274064
0.275449
0.277318
0.279073
0.28045
0.281558
0.282671
0.283812
0.284637
0.285434
0.286769
0.288493
0.29065
0.293689
0.29662
0.300018
0.303268
0.306481
0.308873
0.310475
0.311886
0.31337
0.315944
0.319289
0.322528
0.325648
0.328926
0.330975
0.332755
0.335722
0.339005
0.342263
0.345819
0.348692
0.351185
0.354022
0.357086
0.360075
0.363042
0.365936
0.368937
0.370128
0.382598
0.532429
0.813645
1.09817
0.253613
0.253834
0.254056
0.254277
0.254499
0.254726
0.254999
0.255309
0.255625
0.255942
0.256229
0.256511
0.256822
0.257176
0.257555
0.257928
0.258298
0.258683
0.259092
0.259515
0.259953
0.260413
0.260894
0.261391
0.26191
0.26245
0.263014
0.263609
0.264242
0.264904
0.265603
0.266326
0.267086
0.26787
0.268692
0.269544
0.270423
0.271316
0.272227
0.273156
0.274114
0.275096
0.276098
0.277144
0.2782
0.279242
0.280312
0.281438
0.282533
0.283499
0.284403
0.285307
0.286672
0.28778
0.288502
0.289368
0.290636
0.291748
0.292675
0.293914
0.295545
0.297479
0.299983
0.302435
0.305352
0.308331
0.311562
0.314471
0.317215
0.319387
0.320593
0.322095
0.323433
0.324672
0.32654
0.328941
0.331928
0.33563
0.338509
0.340996
0.343558
0.345599
0.348068
0.351161
0.354018
0.356353
0.358649
0.361096
0.363858
0.366711
0.369374
0.371923
0.374307
0.376494
0.3783
0.380849
0.383341
0.384001
0.409713
0.735801
0.27367
0.273806
0.273995
0.274243
0.274532
0.274825
0.275062
0.27528
0.275525
0.275801
0.276136
0.276498
0.276805
0.277082
0.277389
0.27776
0.278167
0.278572
0.278962
0.279361
0.279776
0.280212
0.280671
0.281151
0.281643
0.282157
0.282689
0.283236
0.283795
0.284365
0.284954
0.285564
0.286189
0.286829
0.287482
0.28815
0.28884
0.289563
0.290315
0.291101
0.291915
0.292731
0.293605
0.294482
0.295315
0.296176
0.297073
0.298049
0.299214
0.300528
0.301698
0.302816
0.303962
0.305644
0.307681
0.309631
0.311366
0.313359
0.315504
0.317892
0.320138
0.322313
0.324329
0.326454
0.32837
0.329817
0.331026
0.331786
0.332901
0.334069
0.335267
0.336499
0.338532
0.341598
0.344771
0.347875
0.35077
0.352962
0.355076
0.356985
0.358552
0.360692
0.362984
0.364985
0.36719
0.369678
0.37206
0.374582
0.376956
0.378925
0.380748
0.382419
0.383996
0.385336
0.386955
0.388466
0.389457
0.391475
0.39224
0.421215
0.296416
0.296611
0.296836
0.297055
0.297264
0.297471
0.29768
0.297942
0.29828
0.298576
0.298832
0.299073
0.299357
0.29971
0.300077
0.300406
0.300731
0.301092
0.301489
0.301895
0.302313
0.302748
0.303193
0.303653
0.30414
0.30464
0.305156
0.305689
0.306249
0.306849