/*--------------------------------*- C++ -*----------------------------------*\
  =========                 |
  \\      /  F ield         | OpenFOAM: The Open Source CFD Toolbox
   \\    /   O peration     | Website:  https://openfoam.org
    \\  /    A nd           | Version:  7
     \\/     M anipulation  |
\*---------------------------------------------------------------------------*/
FoamFile
{
    version     2.0;
    format      ascii;
    class       volVectorField;
    location    "6";
    object      U;
}
// * * * * * * * * * * * * * * * * * * * * * * * * * * * * * * * * * * * * * //

dimensions      [0 1 -1 0 0 0 0];

internalField   nonuniform List<vector> 
90000
(
(4.98691 -0.0586629 0)
(4.98783 -0.0572953 0)
(4.98854 -0.0462358 0)
(4.98951 -0.0505685 0)
(4.98849 -0.0548448 0)
(4.9897 -0.0480058 0)
(4.98836 -0.0446412 0)
(4.98912 -0.0473696 0)
(4.9876 -0.0493502 0)
(4.98703 -0.0497283 0)
(4.98638 -0.0487157 0)
(4.98504 -0.0497144 0)
(4.98407 -0.0494719 0)
(4.98325 -0.0520053 0)
(4.98257 -0.0507828 0)
(4.98145 -0.0533288 0)
(4.98054 -0.0520055 0)
(4.97956 -0.0542808 0)
(4.979 -0.0528349 0)
(4.97827 -0.0555507 0)
(4.97759 -0.0549523 0)
(4.97696 -0.0555093 0)
(4.97637 -0.0560901 0)
(4.97598 -0.0582549 0)
(4.97563 -0.0578648 0)
(4.97539 -0.0577611 0)
(4.97505 -0.0587799 0)
(4.97478 -0.0583038 0)
(4.97445 -0.0584005 0)
(4.97395 -0.0566863 0)
(4.97346 -0.0561453 0)
(4.97297 -0.054737 0)
(4.97218 -0.0533131 0)
(4.97146 -0.0513967 0)
(4.97035 -0.0486441 0)
(4.96973 -0.0468385 0)
(4.96905 -0.042762 0)
(4.96808 -0.0369608 0)
(4.967 -0.0308321 0)
(4.9661 -0.0264362 0)
(4.96479 -0.0213474 0)
(4.96449 -0.0196381 0)
(4.96394 -0.0158029 0)
(4.9637 -0.012145 0)
(4.96373 -0.00953856 0)
(4.96324 -0.00620367 0)
(4.96299 -0.00666154 0)
(4.96328 -0.0135591 0)
(4.96245 -0.0174177 0)
(4.96433 -0.0314894 0)
(4.96231 -0.0346006 0)
(4.96274 -0.0430709 0)
(4.96194 -0.0440604 0)
(4.9604 -0.0437527 0)
(4.95858 -0.0419603 0)
(4.95649 -0.0383147 0)
(4.95457 -0.0331389 0)
(4.95357 -0.0284004 0)
(4.95206 -0.0223052 0)
(4.95252 -0.0180247 0)
(4.95315 -0.0114218 0)
(4.95369 -0.010662 0)
(4.95518 -0.0145204 0)
(4.95674 -0.0188742 0)
(4.9581 -0.0247889 0)
(4.96 -0.0318585 0)
(4.95959 -0.032546 0)
(4.95851 -0.0315636 0)
(4.95713 -0.0284875 0)
(4.95541 -0.0218822 0)
(4.95474 -0.0168729 0)
(4.95471 -0.00976684 0)
(4.95508 -0.0106607 0)
(4.95628 -0.0159234 0)
(4.95696 -0.0180064 0)
(4.95743 -0.0283371 0)
(4.9596 -0.0247655 0)
(4.95862 -0.0234902 0)
(4.95772 -0.0206897 0)
(4.95691 -0.016583 0)
(4.95682 -0.0139499 0)
(4.95728 -0.016292 0)
(4.95747 -0.0199109 0)
(4.95885 -0.025626 0)
(4.95858 -0.0243164 0)
(4.95799 -0.0207237 0)
(4.95806 -0.0161653 0)
(4.95765 -0.0190466 0)
(4.95807 -0.0202767 0)
(4.95878 -0.0230402 0)
(4.95891 -0.0227925 0)
(4.95874 -0.0215723 0)
(4.95839 -0.0188483 0)
(4.95851 -0.0184095 0)
(4.95873 -0.0193915 0)
(4.95926 -0.0209043 0)
(4.95958 -0.0210843 0)
(4.95984 -0.0209412 0)
(4.96012 -0.021051 0)
(4.96038 -0.021417 0)
(4.98495 -0.0634169 0)
(4.98489 -0.0634809 0)
(4.98474 -0.0636674 0)
(4.98473 -0.0636876 0)
(4.98468 -0.063638 0)
(4.98465 -0.0636326 0)
(4.9845 -0.0634503 0)
(4.98433 -0.063236 0)
(4.98428 -0.0629505 0)
(4.98431 -0.062878 0)
(4.98423 -0.0625858 0)
(4.98377 -0.0618668 0)
(4.98376 -0.061456 0)
(4.98385 -0.0610995 0)
(4.98325 -0.0599776 0)
(4.98313 -0.0592085 0)
(4.98321 -0.0588379 0)
(4.98295 -0.0577564 0)
(4.98294 -0.0571858 0)
(4.98262 -0.0559068 0)
(4.98224 -0.053995 0)
(4.9822 -0.0527807 0)
(4.98225 -0.0522388 0)
(4.98185 -0.0506302 0)
(4.98148 -0.0488971 0)
(4.98135 -0.0481528 0)
(4.9811 -0.0473941 0)
(4.98059 -0.0462607 0)
(4.98015 -0.0458683 0)
(4.97973 -0.0447672 0)
(4.97943 -0.0446462 0)
(4.97898 -0.0437549 0)
(4.97852 -0.0433392 0)
(4.97798 -0.042393 0)
(4.97755 -0.0420013 0)
(4.97697 -0.0409283 0)
(4.97656 -0.0401208 0)
(4.97606 -0.0384945 0)
(4.97563 -0.036617 0)
(4.9752 -0.033835 0)
(4.97482 -0.0311864 0)
(4.97438 -0.0282322 0)
(4.97393 -0.0257686 0)
(4.97312 -0.0213568 0)
(4.97281 -0.0197202 0)
(4.97196 -0.0154481 0)
(4.97118 -0.0111875 0)
(4.97091 -0.0108661 0)
(4.97041 -0.00510345 0)
(4.96937 -0.00721239 0)
(4.96982 -0.00927448 0)
(4.97057 -0.0131162 0)
(4.97092 -0.0161871 0)
(4.97149 -0.0227549 0)
(4.97092 -0.0234834 0)
(4.97085 -0.0284347 0)
(4.96978 -0.0262085 0)
(4.96924 -0.0248334 0)
(4.96833 -0.0226486 0)
(4.96753 -0.02013 0)
(4.96677 -0.0173359 0)
(4.96618 -0.0142237 0)
(4.96574 -0.00928477 0)
(4.9657 -0.0096367 0)
(4.96589 -0.0122616 0)
(4.96721 -0.0196687 0)
(4.96723 -0.0222052 0)
(4.96835 -0.0311444 0)
(4.96799 -0.0290103 0)
(4.96734 -0.0269617 0)
(4.96612 -0.0222528 0)
(4.96501 -0.0176779 0)
(4.96438 -0.0106796 0)
(4.96337 -0.0079232 0)
(4.96365 -0.0115704 0)
(4.96429 -0.0177001 0)
(4.96533 -0.023437 0)
(4.96621 -0.0289502 0)
(4.96556 -0.0271754 0)
(4.96445 -0.0234261 0)
(4.96348 -0.0172786 0)
(4.96325 -0.0140394 0)
(4.96363 -0.0172112 0)
(4.96438 -0.0211269 0)
(4.96452 -0.0234052 0)
(4.96424 -0.0221479 0)
(4.96381 -0.0198585 0)
(4.96323 -0.0152285 0)
(4.96323 -0.016609 0)
(4.96347 -0.0180752 0)
(4.96385 -0.0198706 0)
(4.96379 -0.0192172 0)
(4.96343 -0.017449 0)
(4.96318 -0.0174009 0)
(4.96322 -0.0174909 0)
(4.96348 -0.0189691 0)
(4.96361 -0.0202975 0)
(4.96397 -0.0215966 0)
(4.96416 -0.0219231 0)
(4.96434 -0.0221267 0)
(4.98289 -0.0629108 0)
(4.98282 -0.0629883 0)
(4.98277 -0.0630406 0)
(4.98271 -0.0630334 0)
(4.98263 -0.0629804 0)
(4.98258 -0.0629509 0)
(4.98253 -0.0629541 0)
(4.98247 -0.0630621 0)
(4.98246 -0.0631963 0)
(4.98243 -0.0632116 0)
(4.9823 -0.0633439 0)
(4.98218 -0.0635439 0)
(4.98207 -0.0634333 0)
(4.98199 -0.0633666 0)
(4.98183 -0.0634825 0)
(4.9817 -0.0636357 0)
(4.98159 -0.0636792 0)
(4.98148 -0.0636986 0)
(4.98133 -0.0639296 0)
(4.98118 -0.0639972 0)
(4.981 -0.0639693 0)
(4.9808 -0.0640797 0)
(4.98058 -0.0641769 0)
(4.98028 -0.064001 0)
(4.97994 -0.0635565 0)
(4.97966 -0.0631874 0)
(4.9793 -0.0623202 0)
(4.97896 -0.0617522 0)
(4.97879 -0.0611086 0)
(4.97872 -0.060189 0)
(4.97871 -0.0595446 0)
(4.97859 -0.0586566 0)
(4.97843 -0.0578483 0)
(4.97821 -0.0569182 0)
(4.97812 -0.0561524 0)
(4.97792 -0.0550111 0)
(4.97772 -0.0539544 0)
(4.97748 -0.0526821 0)
(4.9773 -0.0517028 0)
(4.97697 -0.0498384 0)
(4.97679 -0.0489374 0)
(4.97637 -0.046617 0)
(4.97611 -0.0455056 0)
(4.97544 -0.0419461 0)
(4.9752 -0.0410231 0)
(4.97439 -0.0373462 0)
(4.97389 -0.0347311 0)
(4.97315 -0.031241 0)
(4.97254 -0.0287722 0)
(4.97103 -0.0230695 0)
(4.97179 -0.0225911 0)
(4.9709 -0.0194946 0)
(4.97018 -0.0168622 0)
(4.97071 -0.0172909 0)
(4.97109 -0.0176804 0)
(4.97191 -0.0191771 0)
(4.97279 -0.02035 0)
(4.97383 -0.0235688 0)
(4.97404 -0.0243228 0)
(4.97425 -0.0264337 0)
(4.9738 -0.0261488 0)
(4.97284 -0.0249159 0)
(4.97165 -0.0233301 0)
(4.97035 -0.0199508 0)
(4.97007 -0.0166285 0)
(4.96946 -0.013653 0)
(4.96956 -0.0141377 0)
(4.97041 -0.0173404 0)
(4.97136 -0.0214431 0)
(4.97288 -0.0253726 0)
(4.97251 -0.0273023 0)
(4.97179 -0.0255208 0)
(4.97036 -0.0229948 0)
(4.96938 -0.0167249 0)
(4.96851 -0.0112392 0)
(4.96845 -0.0100161 0)
(4.96897 -0.0134754 0)
(4.96965 -0.0180096 0)
(4.97036 -0.0250582 0)
(4.97009 -0.0252343 0)
(4.96914 -0.0235476 0)
(4.96843 -0.0196137 0)
(4.96802 -0.0135827 0)
(4.96803 -0.0152197 0)
(4.96823 -0.0192504 0)
(4.96865 -0.0247735 0)
(4.96831 -0.0235612 0)
(4.96764 -0.0214542 0)
(4.96715 -0.0161756 0)
(4.96735 -0.0180306 0)
(4.96769 -0.020708 0)
(4.96772 -0.0225073 0)
(4.96739 -0.0212965 0)
(4.96705 -0.0179949 0)
(4.96687 -0.0186235 0)
(4.96686 -0.0191692 0)
(4.96696 -0.0203826 0)
(4.96722 -0.0205237 0)
(4.96743 -0.0211219 0)
(4.9676 -0.0216572 0)
(4.97994 -0.0627162 0)
(4.97985 -0.0627872 0)
(4.97978 -0.0630595 0)
(4.97983 -0.0632266 0)
(4.97977 -0.0633591 0)
(4.97973 -0.0633716 0)
(4.9797 -0.0633462 0)
(4.97968 -0.063413 0)
(4.97969 -0.0637122 0)
(4.97969 -0.0638073 0)
(4.97964 -0.0639565 0)
(4.97955 -0.0642321 0)
(4.97954 -0.0643097 0)
(4.97957 -0.0642296 0)
(4.97928 -0.0645954 0)
(4.97917 -0.0649442 0)
(4.97923 -0.0649198 0)
(4.97926 -0.0650446 0)
(4.97914 -0.0654552 0)
(4.9792 -0.0656871 0)
(4.97922 -0.0655697 0)
(4.97926 -0.0654171 0)
(4.9791 -0.0657501 0)
(4.97903 -0.0661343 0)
(4.97909 -0.0664337 0)
(4.97914 -0.0663998 0)
(4.97907 -0.0663214 0)
(4.97894 -0.0663186 0)
(4.97874 -0.0661998 0)
(4.97855 -0.0658336 0)
(4.97844 -0.0654059 0)
(4.97835 -0.0649081 0)
(4.97824 -0.0643069 0)
(4.97816 -0.0637415 0)
(4.97793 -0.0629871 0)
(4.97765 -0.0622439 0)
(4.97736 -0.0614028 0)
(4.97708 -0.0606486 0)
(4.97678 -0.0601261 0)
(4.97632 -0.0587981 0)
(4.97592 -0.0583253 0)
(4.97529 -0.0567587 0)
(4.97479 -0.0556419 0)
(4.97409 -0.053607 0)
(4.97358 -0.0515898 0)
(4.97295 -0.0492997 0)
(4.97243 -0.0470961 0)
(4.97157 -0.0419336 0)
(4.97135 -0.0418274 0)
(4.97032 -0.0353789 0)
(4.97066 -0.035394 0)
(4.97005 -0.0316142 0)
(4.96989 -0.0296632 0)
(4.97085 -0.0270442 0)
(4.96993 -0.0246251 0)
(4.96902 -0.0230705 0)
(4.96991 -0.0207099 0)
(4.96999 -0.0193315 0)
(4.97028 -0.0193773 0)
(4.97071 -0.0197323 0)
(4.97111 -0.020044 0)
(4.97137 -0.0206913 0)
(4.97112 -0.0207467 0)
(4.97088 -0.0204735 0)
(4.97056 -0.0199418 0)
(4.9701 -0.0185198 0)
(4.96954 -0.0166653 0)
(4.96957 -0.014657 0)
(4.96984 -0.0147743 0)
(4.97104 -0.0176857 0)
(4.97184 -0.0198399 0)
(4.97285 -0.0247317 0)
(4.97272 -0.0251014 0)
(4.97172 -0.0242613 0)
(4.97079 -0.021326 0)
(4.97021 -0.0169775 0)
(4.96986 -0.0137411 0)
(4.96985 -0.0143553 0)
(4.97047 -0.0176738 0)
(4.97094 -0.0211396 0)
(4.97143 -0.0255788 0)
(4.97105 -0.0248019 0)
(4.96986 -0.022125 0)
(4.9694 -0.0176234 0)
(4.96949 -0.0154702 0)
(4.96992 -0.0177204 0)
(4.97039 -0.02173 0)
(4.97023 -0.021401 0)
(4.96973 -0.0204588 0)
(4.9694 -0.0160222 0)
(4.96954 -0.0171602 0)
(4.96975 -0.0191888 0)
(4.96974 -0.0207408 0)
(4.96949 -0.020015 0)
(4.96912 -0.0169477 0)
(4.96903 -0.0179005 0)
(4.96914 -0.019061 0)
(4.96942 -0.0209669 0)
(4.96965 -0.0210489 0)
(4.96985 -0.0215448 0)
(4.97781 -0.0639814 0)
(4.97775 -0.064035 0)
(4.97771 -0.0641355 0)
(4.97768 -0.0642568 0)
(4.97759 -0.0643474 0)
(4.97749 -0.0643635 0)
(4.97748 -0.0643478 0)
(4.97747 -0.0643127 0)
(4.97743 -0.0642919 0)
(4.97757 -0.0643964 0)
(4.97765 -0.0645404 0)
(4.97763 -0.064605 0)
(4.97763 -0.0645923 0)
(4.97756 -0.0646785 0)
(4.97739 -0.0648358 0)
(4.97733 -0.0648533 0)
(4.97737 -0.0650182 0)
(4.97746 -0.0653129 0)
(4.97746 -0.065468 0)
(4.97745 -0.0654851 0)
(4.9774 -0.0656145 0)
(4.97739 -0.0657436 0)
(4.97739 -0.065783 0)
(4.97748 -0.066031 0)
(4.97757 -0.0663333 0)
(4.97764 -0.0664377 0)
(4.97775 -0.0663523 0)
(4.97779 -0.0665185 0)
(4.97774 -0.0669565 0)
(4.9778 -0.0671163 0)
(4.97788 -0.0672806 0)
(4.97793 -0.0672455 0)
(4.97794 -0.0673318 0)
(4.97792 -0.0671508 0)
(4.97791 -0.0671637 0)
(4.97789 -0.0668273 0)
(4.97786 -0.0665133 0)
(4.97775 -0.0660213 0)
(4.97754 -0.065453 0)
(4.97726 -0.0647358 0)
(4.9769 -0.0638413 0)
(4.97657 -0.0630399 0)
(4.97611 -0.0616142 0)
(4.97564 -0.0601245 0)
(4.97527 -0.0587705 0)
(4.97467 -0.056357 0)
(4.97436 -0.0548925 0)
(4.97365 -0.0514623 0)
(4.97339 -0.0499705 0)
(4.9724 -0.0456654 0)
(4.97224 -0.044642 0)
(4.97083 -0.0378829 0)
(4.97103 -0.037356 0)
(4.97016 -0.030638 0)
(4.97006 -0.0293537 0)
(4.96958 -0.026266 0)
(4.96991 -0.0252546 0)
(4.96931 -0.022251 0)
(4.9698 -0.0219567 0)
(4.96942 -0.0211855 0)
(4.96926 -0.0204511 0)
(4.96915 -0.0204318 0)
(4.96945 -0.0204595 0)
(4.96959 -0.0203864 0)
(4.96972 -0.0203464 0)
(4.96983 -0.0193152 0)
(4.96965 -0.0178383 0)
(4.96975 -0.0172621 0)
(4.9697 -0.0160761 0)
(4.96977 -0.0157287 0)
(4.97 -0.0164899 0)
(4.97067 -0.0186189 0)
(4.97108 -0.0208037 0)
(4.97155 -0.0243305 0)
(4.97123 -0.0238329 0)
(4.97058 -0.0214136 0)
(4.97067 -0.0201157 0)
(4.96982 -0.0173455 0)
(4.96963 -0.0168731 0)
(4.96995 -0.017856 0)
(4.97052 -0.0201779 0)
(4.97136 -0.0238197 0)
(4.97141 -0.0237159 0)
(4.97061 -0.0219169 0)
(4.9706 -0.0199043 0)
(4.97027 -0.0178618 0)
(4.9706 -0.0187752 0)
(4.97097 -0.0212709 0)
(4.97091 -0.0212561 0)
(4.97031 -0.02044 0)
(4.97026 -0.0176276 0)
(4.97049 -0.0181327 0)
(4.97077 -0.0196987 0)
(4.97076 -0.0205487 0)
(4.97049 -0.0199806 0)
(4.97034 -0.017178 0)
(4.97054 -0.0179623 0)
(4.97078 -0.0193255 0)
(4.9711 -0.0210944 0)
(4.9713 -0.0214097 0)
(4.97741 -0.0635212 0)
(4.97735 -0.0635573 0)
(4.97731 -0.063472 0)
(4.97722 -0.0633773 0)
(4.97715 -0.0635052 0)
(4.97718 -0.0638558 0)
(4.9772 -0.0639676 0)
(4.97724 -0.0640328 0)
(4.97725 -0.0641098 0)
(4.9773 -0.0642781 0)
(4.97738 -0.0645223 0)
(4.97741 -0.0646515 0)
(4.97733 -0.0646972 0)
(4.97722 -0.0647422 0)
(4.97717 -0.0647593 0)
(4.97713 -0.0647773 0)
(4.97713 -0.0649467 0)
(4.97713 -0.0650587 0)
(4.97707 -0.0650957 0)
(4.97709 -0.0652636 0)
(4.97707 -0.0653671 0)
(4.97705 -0.0653417 0)
(4.97709 -0.0655333 0)
(4.9773 -0.066 0)
(4.97738 -0.0661055 0)
(4.97736 -0.0663038 0)
(4.97738 -0.0665805 0)
(4.97758 -0.0668833 0)
(4.97762 -0.0670644 0)
(4.97766 -0.0671079 0)
(4.97784 -0.0673409 0)
(4.97789 -0.0674078 0)
(4.97795 -0.067458 0)
(4.97799 -0.0675406 0)
(4.97808 -0.0676357 0)
(4.97816 -0.0676199 0)
(4.97822 -0.0675716 0)
(4.97821 -0.0674887 0)
(4.97817 -0.0672318 0)
(4.97812 -0.067075 0)
(4.97818 -0.066885 0)
(4.97806 -0.0664751 0)
(4.97804 -0.0659477 0)
(4.97793 -0.0653279 0)
(4.97768 -0.0644627 0)
(4.97745 -0.0636554 0)
(4.97709 -0.0619916 0)
(4.97695 -0.0606888 0)
(4.97674 -0.0588693 0)
(4.97647 -0.0574909 0)
(4.97601 -0.0553849 0)
(4.97527 -0.0519723 0)
(4.97516 -0.0504875 0)
(4.97409 -0.0441104 0)
(4.9745 -0.0441447 0)
(4.97306 -0.0359082 0)
(4.97311 -0.0357544 0)
(4.97172 -0.0285949 0)
(4.97227 -0.0290565 0)
(4.97101 -0.0238594 0)
(4.97056 -0.024058 0)
(4.97024 -0.0229395 0)
(4.97045 -0.0216271 0)
(4.97031 -0.0209464 0)
(4.96974 -0.0208369 0)
(4.96953 -0.0194015 0)
(4.96953 -0.0188684 0)
(4.96957 -0.0187709 0)
(4.96943 -0.0185047 0)
(4.96959 -0.0187108 0)
(4.96967 -0.0178956 0)
(4.96974 -0.017943 0)
(4.97006 -0.0184292 0)
(4.97033 -0.0197212 0)
(4.97092 -0.0227239 0)
(4.97094 -0.0235648 0)
(4.97062 -0.0226202 0)
(4.9705 -0.0211568 0)
(4.97021 -0.019988 0)
(4.96991 -0.0183761 0)
(4.97015 -0.0184487 0)
(4.97092 -0.0199811 0)
(4.97165 -0.0221057 0)
(4.97173 -0.0229613 0)
(4.97121 -0.0218302 0)
(4.97104 -0.0204522 0)
(4.97083 -0.018963 0)
(4.97114 -0.0193417 0)
(4.97137 -0.0205679 0)
(4.97141 -0.0205997 0)
(4.97108 -0.0197502 0)
(4.97107 -0.0184409 0)
(4.97133 -0.0186425 0)
(4.97155 -0.0197176 0)
(4.97159 -0.0197104 0)
(4.9714 -0.0192469 0)
(4.97139 -0.017858 0)
(4.97172 -0.0184291 0)
(4.97198 -0.0197783 0)
(4.9723 -0.0214111 0)
(4.97848 -0.0619926 0)
(4.97843 -0.061987 0)
(4.97834 -0.0619248 0)
(4.97824 -0.0620042 0)
(4.97833 -0.0623729 0)
(4.97831 -0.0625189 0)
(4.97827 -0.0625225 0)
(4.97827 -0.0625756 0)
(4.9783 -0.0627439 0)
(4.97826 -0.0629149 0)
(4.97826 -0.0629054 0)
(4.97828 -0.0627811 0)
(4.97826 -0.0626902 0)
(4.9782 -0.0628068 0)
(4.97825 -0.0631762 0)
(4.97818 -0.0634969 0)
(4.97804 -0.0636446 0)
(4.978 -0.0634924 0)
(4.97784 -0.0632225 0)
(4.97796 -0.0634295 0)
(4.97805 -0.0638235 0)
(4.97804 -0.0638807 0)
(4.97794 -0.0637269 0)
(4.97809 -0.0641237 0)
(4.97824 -0.0646287 0)
(4.97827 -0.0646152 0)
(4.9783 -0.0646037 0)
(4.97844 -0.0650069 0)
(4.97858 -0.0652505 0)
(4.97871 -0.0650747 0)
(4.97883 -0.0650702 0)
(4.9791 -0.0654902 0)
(4.97915 -0.0657822 0)
(4.97915 -0.0659079 0)
(4.9792 -0.0661703 0)
(4.97929 -0.0661487 0)
(4.97937 -0.0661395 0)
(4.97944 -0.0664137 0)
(4.97944 -0.066409 0)
(4.97942 -0.0664654 0)
(4.97938 -0.0666077 0)
(4.97949 -0.0662361 0)
(4.97953 -0.0660142 0)
(4.97956 -0.0657727 0)
(4.97959 -0.0654147 0)
(4.9796 -0.065387 0)
(4.9797 -0.0650754 0)
(4.97965 -0.0641277 0)
(4.97967 -0.0636341 0)
(4.97962 -0.063093 0)
(4.97947 -0.0622787 0)
(4.9793 -0.061204 0)
(4.97899 -0.0589898 0)
(4.97871 -0.0567255 0)
(4.97849 -0.0538459 0)
(4.97768 -0.0488924 0)
(4.97772 -0.0468566 0)
(4.97619 -0.0385774 0)
(4.97641 -0.0374471 0)
(4.97458 -0.0286881 0)
(4.9746 -0.0289785 0)
(4.97308 -0.022504 0)
(4.97281 -0.0223581 0)
(4.97218 -0.0198076 0)
(4.97127 -0.018857 0)
(4.97074 -0.0190647 0)
(4.97053 -0.0196943 0)
(4.97041 -0.0198584 0)
(4.97052 -0.0196928 0)
(4.97069 -0.0201563 0)
(4.97089 -0.0196705 0)
(4.97077 -0.0189244 0)
(4.971 -0.0188245 0)
(4.97107 -0.0187968 0)
(4.97144 -0.0199937 0)
(4.97164 -0.0212684 0)
(4.97165 -0.0227038 0)
(4.97153 -0.0225381 0)
(4.97135 -0.0212408 0)
(4.97113 -0.0205622 0)
(4.97121 -0.0192026 0)
(4.97129 -0.0192004 0)
(4.97189 -0.0202746 0)
(4.97213 -0.0209405 0)
(4.97215 -0.0221894 0)
(4.97188 -0.0215702 0)
(4.97187 -0.0205736 0)
(4.97192 -0.0197669 0)
(4.97212 -0.0198587 0)
(4.97249 -0.0203094 0)
(4.97242 -0.0202183 0)
(4.97218 -0.0195542 0)
(4.97212 -0.0189663 0)
(4.9724 -0.0189779 0)
(4.97263 -0.0196358 0)
(4.97261 -0.019601 0)
(4.97256 -0.0188693 0)
(4.97253 -0.0182825 0)
(4.9727 -0.0187747 0)
(4.97306 -0.0204817 0)
(4.97953 -0.0608899 0)
(4.97953 -0.0608984 0)
(4.97952 -0.0608856 0)
(4.9795 -0.060907 0)
(4.97951 -0.0610648 0)
(4.9795 -0.0611492 0)
(4.97945 -0.0611675 0)
(4.97936 -0.0611189 0)
(4.97935 -0.0611053 0)
(4.97934 -0.0611084 0)
(4.97932 -0.0611159 0)
(4.97932 -0.0610701 0)
(4.97934 -0.0609965 0)
(4.97938 -0.060959 0)
(4.97944 -0.0610945 0)
(4.9794 -0.0612873 0)
(4.9794 -0.0612183 0)
(4.97942 -0.0609539 0)
(4.97941 -0.0607658 0)
(4.97957 -0.0609995 0)
(4.97971 -0.0614892 0)
(4.9797 -0.061651 0)
(4.97969 -0.0616266 0)
(4.97976 -0.0617914 0)
(4.97985 -0.0621436 0)
(4.97986 -0.0623692 0)
(4.97987 -0.062374 0)
(4.97995 -0.0625272 0)
(4.98012 -0.0627093 0)
(4.98033 -0.0627376 0)
(4.98054 -0.0627718 0)
(4.98075 -0.063073 0)
(4.98085 -0.0634174 0)
(4.98084 -0.0634322 0)
(4.98089 -0.0637066 0)
(4.98098 -0.0640539 0)
(4.98107 -0.0640712 0)
(4.98119 -0.0642883 0)
(4.98128 -0.064532 0)
(4.98137 -0.0645854 0)
(4.98145 -0.0649372 0)
(4.9815 -0.0649156 0)
(4.98149 -0.0644853 0)
(4.98144 -0.0644944 0)
(4.98138 -0.064364 0)
(4.98133 -0.0643465 0)
(4.98135 -0.0640583 0)
(4.98145 -0.0637049 0)
(4.98147 -0.0635682 0)
(4.98148 -0.0635083 0)
(4.98185 -0.0634293 0)
(4.98191 -0.0632911 0)
(4.98202 -0.0628922 0)
(4.98211 -0.0623122 0)
(4.98206 -0.0611928 0)
(4.98193 -0.059832 0)
(4.98165 -0.0576083 0)
(4.98104 -0.0539608 0)
(4.98076 -0.0511479 0)
(4.97957 -0.0445983 0)
(4.97929 -0.0426511 0)
(4.97767 -0.0341526 0)
(4.97741 -0.0350684 0)
(4.97604 -0.0277392 0)
(4.97633 -0.0298383 0)
(4.97544 -0.0255243 0)
(4.97532 -0.025148 0)
(4.97439 -0.0230859 0)
(4.97398 -0.0218085 0)
(4.97378 -0.0209441 0)
(4.97346 -0.0205997 0)
(4.97319 -0.0195527 0)
(4.97279 -0.0196717 0)
(4.97291 -0.0196703 0)
(4.97275 -0.0199784 0)
(4.97284 -0.0203538 0)
(4.97319 -0.0210535 0)
(4.97302 -0.0222054 0)
(4.97304 -0.0217967 0)
(4.97293 -0.021358 0)
(4.97272 -0.0205597 0)
(4.97268 -0.019695 0)
(4.97283 -0.019714 0)
(4.97328 -0.0201313 0)
(4.97359 -0.0210545 0)
(4.97339 -0.021445 0)
(4.97327 -0.021208 0)
(4.97306 -0.0206513 0)
(4.97335 -0.0202017 0)
(4.97339 -0.0201773 0)
(4.97356 -0.0202244 0)
(4.97344 -0.019958 0)
(4.97315 -0.0195349 0)
(4.97339 -0.019085 0)
(4.97362 -0.019193 0)
(4.97372 -0.0194915 0)
(4.97364 -0.0192901 0)
(4.97343 -0.0187548 0)
(4.97363 -0.0185706 0)
(4.97387 -0.0196921 0)
(4.98111 -0.061062 0)
(4.98111 -0.0610566 0)
(4.9811 -0.0610503 0)
(4.9811 -0.0610453 0)
(4.98109 -0.0610519 0)
(4.98107 -0.0610654 0)
(4.98105 -0.0610815 0)
(4.98099 -0.0611185 0)
(4.9809 -0.0610132 0)
(4.98085 -0.0608908 0)
(4.98085 -0.0608653 0)
(4.98084 -0.0608709 0)
(4.98083 -0.0608587 0)
(4.98083 -0.0607758 0)
(4.98084 -0.0606448 0)
(4.98088 -0.0605133 0)
(4.9809 -0.0603784 0)
(4.98094 -0.0602111 0)
(4.98103 -0.0600632 0)
(4.98121 -0.0601999 0)
(4.98129 -0.0603416 0)
(4.9813 -0.0603818 0)
(4.98131 -0.060415 0)
(4.98131 -0.0604588 0)
(4.9813 -0.0604448 0)
(4.98133 -0.0602878 0)
(4.98135 -0.0601224 0)
(4.98139 -0.0602021 0)
(4.98142 -0.0603109 0)
(4.98147 -0.0602106 0)
(4.98156 -0.0601881 0)
(4.98172 -0.0603639 0)
(4.98182 -0.0604306 0)
(4.98188 -0.060476 0)
(4.98195 -0.0606566 0)
(4.98202 -0.0608338 0)
(4.98208 -0.060841 0)
(4.98218 -0.0609955 0)
(4.98231 -0.0612982 0)
(4.98246 -0.0614231 0)
(4.98267 -0.0617115 0)
(4.983 -0.06181 0)
(4.98326 -0.0617622 0)
(4.98339 -0.0623474 0)
(4.98339 -0.0624136 0)
(4.98336 -0.0627362 0)
(4.98338 -0.0625843 0)
(4.98335 -0.0619978 0)
(4.98317 -0.0618042 0)
(4.98298 -0.0620418 0)
(4.98297 -0.0620176 0)
(4.98293 -0.0619967 0)
(4.9833 -0.0619016 0)
(4.98356 -0.061866 0)
(4.98382 -0.0617312 0)
(4.98416 -0.0617362 0)
(4.98438 -0.0614101 0)
(4.9844 -0.0606136 0)
(4.98427 -0.0593584 0)
(4.98388 -0.0573173 0)
(4.98331 -0.0549304 0)
(4.98194 -0.0498645 0)
(4.98125 -0.0474985 0)
(4.97934 -0.038856 0)
(4.97983 -0.0384145 0)
(4.97843 -0.0277634 0)
(4.97944 -0.0288637 0)
(4.9779 -0.0217764 0)
(4.9775 -0.0213991 0)
(4.97696 -0.0180363 0)
(4.97599 -0.0199308 0)
(4.97568 -0.0203643 0)
(4.97509 -0.0209411 0)
(4.97469 -0.021157 0)
(4.97425 -0.0204909 0)
(4.97437 -0.0201423 0)
(4.9746 -0.0198682 0)
(4.97471 -0.0205278 0)
(4.97452 -0.0211213 0)
(4.97463 -0.021638 0)
(4.97466 -0.0213045 0)
(4.97474 -0.0207086 0)
(4.97457 -0.0199121 0)
(4.97472 -0.0198853 0)
(4.975 -0.020336 0)
(4.97528 -0.020986 0)
(4.97482 -0.0215095 0)
(4.97472 -0.0211649 0)
(4.97485 -0.0207918 0)
(4.97463 -0.0202369 0)
(4.97469 -0.0202124 0)
(4.97474 -0.0201289 0)
(4.97471 -0.0197692 0)
(4.97447 -0.0193624 0)
(4.97454 -0.0192305 0)
(4.9748 -0.0193601 0)
(4.97475 -0.0193651 0)
(4.97467 -0.0190487 0)
(4.97467 -0.0188279 0)
(4.97481 -0.019338 0)
(4.98365 -0.0609978 0)
(4.98365 -0.0609976 0)
(4.98364 -0.061019 0)
(4.98366 -0.0609902 0)
(4.98371 -0.0608913 0)
(4.9837 -0.0608173 0)
(4.98367 -0.0608091 0)
(4.98366 -0.060841 0)
(4.98362 -0.0607998 0)
(4.98339 -0.0605685 0)
(4.98334 -0.060499 0)
(4.98331 -0.0605122 0)
(4.98326 -0.0605055 0)
(4.98331 -0.0603376 0)
(4.98338 -0.0601641 0)
(4.98335 -0.0599369 0)
(4.98333 -0.0598339 0)
(4.98342 -0.0598137 0)
(4.9837 -0.0594842 0)
(4.98382 -0.0592676 0)
(4.98384 -0.0593068 0)
(4.9838 -0.059343 0)
(4.98377 -0.059257 0)
(4.98372 -0.0591009 0)
(4.98367 -0.0590061 0)
(4.98367 -0.0588141 0)
(4.98369 -0.0585268 0)
(4.98368 -0.0585002 0)
(4.98362 -0.0585584 0)
(4.9836 -0.058353 0)
(4.98362 -0.0581607 0)
(4.98365 -0.0580841 0)
(4.98367 -0.0579953 0)
(4.98368 -0.0579308 0)
(4.98371 -0.0580353 0)
(4.98372 -0.0581645 0)
(4.9837 -0.0582475 0)
(4.98372 -0.0584144 0)
(4.98375 -0.0585194 0)
(4.98381 -0.058747 0)
(4.98379 -0.0592187 0)
(4.98391 -0.0590695 0)
(4.98407 -0.0587617 0)
(4.98425 -0.0588339 0)
(4.9845 -0.0591684 0)
(4.98473 -0.0592703 0)
(4.98493 -0.0594216 0)
(4.98503 -0.0597824 0)
(4.98499 -0.0596956 0)
(4.98479 -0.0600565 0)
(4.98456 -0.0600007 0)
(4.98417 -0.0595927 0)
(4.98413 -0.0598845 0)
(4.9846 -0.060282 0)
(4.98487 -0.06061 0)
(4.98527 -0.0610164 0)
(4.98562 -0.0613519 0)
(4.98591 -0.0612855 0)
(4.98593 -0.0611489 0)
(4.98585 -0.0610056 0)
(4.98557 -0.060706 0)
(4.98491 -0.0599547 0)
(4.98414 -0.0583691 0)
(4.98312 -0.0553101 0)
(4.98256 -0.0519883 0)
(4.98165 -0.0451845 0)
(4.98184 -0.0425056 0)
(4.981 -0.0349544 0)
(4.98094 -0.0346697 0)
(4.98018 -0.028826 0)
(4.98094 -0.0303286 0)
(4.97943 -0.0260051 0)
(4.97932 -0.024668 0)
(4.97798 -0.02307 0)
(4.97655 -0.0218217 0)
(4.97624 -0.0197891 0)
(4.97601 -0.0196876 0)
(4.97604 -0.0202947 0)
(4.97611 -0.0207707 0)
(4.97621 -0.0211195 0)
(4.97642 -0.0212315 0)
(4.97641 -0.0211412 0)
(4.97644 -0.0207302 0)
(4.9763 -0.020173 0)
(4.97612 -0.0204093 0)
(4.97623 -0.0205753 0)
(4.97629 -0.0208476 0)
(4.97618 -0.0210489 0)
(4.97614 -0.0209049 0)
(4.97621 -0.0205948 0)
(4.97616 -0.0203806 0)
(4.97612 -0.0202764 0)
(4.97605 -0.0200809 0)
(4.97597 -0.0198181 0)
(4.9755 -0.0192993 0)
(4.97576 -0.0194025 0)
(4.97588 -0.0192852 0)
(4.97589 -0.0192058 0)
(4.97584 -0.0189365 0)
(4.97581 -0.019049 0)
(4.98557 -0.0604239 0)
(4.98556 -0.0603182 0)
(4.98558 -0.060224 0)
(4.98563 -0.0601829 0)
(4.98564 -0.0601797 0)
(4.98564 -0.0601885 0)
(4.98563 -0.060181 0)
(4.98567 -0.0600865 0)
(4.98568 -0.0600542 0)
(4.98567 -0.0600687 0)
(4.98561 -0.0599472 0)
(4.98551 -0.0598182 0)
(4.98552 -0.0597354 0)
(4.98555 -0.0595713 0)
(4.98553 -0.0594338 0)
(4.98552 -0.0594349 0)
(4.98563 -0.0592787 0)
(4.98591 -0.0590087 0)
(4.98596 -0.0589796 0)
(4.98599 -0.0588942 0)
(4.98599 -0.0588322 0)
(4.98599 -0.0587145 0)
(4.98598 -0.0585863 0)
(4.98595 -0.0585858 0)
(4.98591 -0.058577 0)
(4.98591 -0.0584842 0)
(4.98591 -0.0583133 0)
(4.98585 -0.0582143 0)
(4.98574 -0.0581833 0)
(4.98562 -0.0580868 0)
(4.9855 -0.057939 0)
(4.9855 -0.0577603 0)
(4.98549 -0.0576837 0)
(4.98547 -0.0576523 0)
(4.98544 -0.0575602 0)
(4.98541 -0.0575097 0)
(4.98539 -0.0574723 0)
(4.98541 -0.0574162 0)
(4.98545 -0.0573925 0)
(4.98558 -0.0574026 0)
(4.98564 -0.0575039 0)
(4.98567 -0.0575892 0)
(4.98572 -0.0575989 0)
(4.98576 -0.0576125 0)
(4.98586 -0.057681 0)
(4.98605 -0.0577032 0)
(4.98623 -0.0578082 0)
(4.98632 -0.0580529 0)
(4.98629 -0.0580006 0)
(4.98618 -0.0580464 0)
(4.98607 -0.0587583 0)
(4.98576 -0.0588627 0)
(4.98548 -0.0590412 0)
(4.98551 -0.0596601 0)
(4.98599 -0.0604182 0)
(4.98616 -0.0609246 0)
(4.9864 -0.0613433 0)
(4.98666 -0.0618181 0)
(4.98677 -0.0621214 0)
(4.98679 -0.0622614 0)
(4.98652 -0.0623206 0)
(4.98608 -0.0622164 0)
(4.98547 -0.0618792 0)
(4.98525 -0.0614984 0)
(4.98495 -0.0606604 0)
(4.9845 -0.0582149 0)
(4.98442 -0.0556887 0)
(4.98339 -0.0483864 0)
(4.9837 -0.0471495 0)
(4.98123 -0.0353618 0)
(4.98222 -0.0347379 0)
(4.98056 -0.0245376 0)
(4.98142 -0.0250973 0)
(4.98039 -0.0186545 0)
(4.97887 -0.0197066 0)
(4.97795 -0.0195917 0)
(4.97748 -0.0205131 0)
(4.97714 -0.0208082 0)
(4.97711 -0.0208393 0)
(4.97714 -0.0206768 0)
(4.97726 -0.020454 0)
(4.97737 -0.0207915 0)
(4.97734 -0.0210147 0)
(4.9773 -0.0209002 0)
(4.977 -0.020901 0)
(4.97692 -0.0206185 0)
(4.97698 -0.02057 0)
(4.97711 -0.0207157 0)
(4.97704 -0.0207452 0)
(4.97707 -0.0207253 0)
(4.97706 -0.020616 0)
(4.97703 -0.0205048 0)
(4.97697 -0.0203617 0)
(4.97689 -0.0200485 0)
(4.97677 -0.0196704 0)
(4.97661 -0.019427 0)
(4.97671 -0.0193613 0)
(4.97676 -0.0194403 0)
(4.97665 -0.0192151 0)
(4.97659 -0.0191877 0)
(4.98626 -0.0600365 0)
(4.98626 -0.0600566 0)
(4.98624 -0.0600064 0)
(4.9862 -0.0598746 0)
(4.98623 -0.0597781 0)
(4.98629 -0.0597116 0)
(4.98634 -0.059673 0)
(4.98637 -0.0596499 0)
(4.9864 -0.0596292 0)
(4.98641 -0.0596458 0)
(4.98643 -0.0597381 0)
(4.98647 -0.0597664 0)
(4.98632 -0.0594885 0)
(4.98628 -0.0593194 0)
(4.98625 -0.0593023 0)
(4.98633 -0.0591903 0)
(4.98659 -0.0590844 0)
(4.98662 -0.0590908 0)
(4.98667 -0.0590989 0)
(4.98668 -0.0589749 0)
(4.98664 -0.0588318 0)
(4.98666 -0.0587484 0)
(4.9867 -0.0586087 0)
(4.98667 -0.0584787 0)
(4.9866 -0.0584667 0)
(4.98665 -0.0582626 0)
(4.98667 -0.0579569 0)
(4.98657 -0.0578466 0)
(4.98644 -0.0577517 0)
(4.98634 -0.0575822 0)
(4.98626 -0.0573522 0)
(4.98624 -0.0571914 0)
(4.98625 -0.0571502 0)
(4.98617 -0.0569888 0)
(4.98615 -0.0567549 0)
(4.98607 -0.0567449 0)
(4.98602 -0.056709 0)
(4.98607 -0.0566406 0)
(4.98611 -0.0566305 0)
(4.98621 -0.0566605 0)
(4.98627 -0.0567404 0)
(4.98634 -0.0567842 0)
(4.98639 -0.0566545 0)
(4.98648 -0.0566026 0)
(4.9865 -0.0566517 0)
(4.98654 -0.0567283 0)
(4.98651 -0.0568022 0)
(4.98642 -0.0568372 0)
(4.98641 -0.0568434 0)
(4.98637 -0.0568263 0)
(4.98624 -0.0567698 0)
(4.98607 -0.056997 0)
(4.98588 -0.0571836 0)
(4.98572 -0.0573665 0)
(4.98593 -0.0579327 0)
(4.98622 -0.058821 0)
(4.98633 -0.0596426 0)
(4.9867 -0.0601774 0)
(4.98698 -0.0609878 0)
(4.98707 -0.0612693 0)
(4.98717 -0.0614674 0)
(4.98697 -0.0618587 0)
(4.98624 -0.0620235 0)
(4.98572 -0.0618923 0)
(4.98569 -0.061922 0)
(4.98575 -0.0619812 0)
(4.98595 -0.0616913 0)
(4.986 -0.0606081 0)
(4.98562 -0.057833 0)
(4.9845 -0.0530632 0)
(4.9839 -0.0494339 0)
(4.9822 -0.0398801 0)
(4.98243 -0.0392832 0)
(4.98157 -0.0303389 0)
(4.98282 -0.0327113 0)
(4.9809 -0.0263951 0)
(4.98075 -0.0251423 0)
(4.97945 -0.0224563 0)
(4.97819 -0.0214171 0)
(4.9776 -0.0200353 0)
(4.97753 -0.0201951 0)
(4.97776 -0.0204919 0)
(4.97765 -0.0214007 0)
(4.97756 -0.0215146 0)
(4.97757 -0.021131 0)
(4.97746 -0.0208299 0)
(4.97739 -0.020374 0)
(4.97749 -0.0204893 0)
(4.9776 -0.0205585 0)
(4.9776 -0.0207974 0)
(4.97741 -0.0208033 0)
(4.97735 -0.0206349 0)
(4.97732 -0.0205299 0)
(4.97728 -0.0204069 0)
(4.97724 -0.0199494 0)
(4.97726 -0.0196544 0)
(4.97727 -0.0192478 0)
(4.97736 -0.0195812 0)
(4.97729 -0.0193337 0)
(4.97723 -0.0191458 0)
(4.98592 -0.0608592 0)
(4.98591 -0.060875 0)
(4.98593 -0.0609126 0)
(4.98597 -0.0609336 0)
(4.98592 -0.0607854 0)
(4.98588 -0.060667 0)
(4.98591 -0.0605391 0)
(4.986 -0.060457 0)
(4.98606 -0.0603845 0)
(4.98607 -0.0603861 0)
(4.98609 -0.0604115 0)
(4.9861 -0.0603947 0)
(4.98603 -0.0600461 0)
(4.98603 -0.0596175 0)
(4.98605 -0.0595253 0)
(4.98626 -0.0596647 0)
(4.98638 -0.0598241 0)
(4.98643 -0.0598857 0)
(4.98645 -0.0598896 0)
(4.98642 -0.0598175 0)
(4.9864 -0.059785 0)
(4.9864 -0.0596475 0)
(4.98642 -0.0595725 0)
(4.98644 -0.0594555 0)
(4.98641 -0.0593044 0)
(4.98643 -0.0591582 0)
(4.9865 -0.059069 0)
(4.98653 -0.0589632 0)
(4.98642 -0.0588335 0)
(4.98636 -0.0587532 0)
(4.98629 -0.0586448 0)
(4.98623 -0.0585342 0)
(4.98615 -0.0583692 0)
(4.98603 -0.0580709 0)
(4.98597 -0.0578207 0)
(4.98593 -0.0578253 0)
(4.98588 -0.0577083 0)
(4.98581 -0.0575249 0)
(4.9858 -0.0572907 0)
(4.98592 -0.0571477 0)
(4.98598 -0.0572232 0)
(4.98609 -0.0573007 0)
(4.98615 -0.057081 0)
(4.98623 -0.0569539 0)
(4.98629 -0.0570453 0)
(4.98631 -0.0571498 0)
(4.98626 -0.057193 0)
(4.98621 -0.0571576 0)
(4.98613 -0.0571099 0)
(4.98608 -0.057053 0)
(4.98606 -0.0570058 0)
(4.98595 -0.0568427 0)
(4.98577 -0.056658 0)
(4.98561 -0.0567133 0)
(4.98554 -0.0570669 0)
(4.9855 -0.0574118 0)
(4.98549 -0.0577791 0)
(4.98562 -0.0584957 0)
(4.98603 -0.0595149 0)
(4.98639 -0.0603314 0)
(4.98657 -0.0606684 0)
(4.98672 -0.0610835 0)
(4.98642 -0.0617981 0)
(4.98574 -0.0625941 0)
(4.98571 -0.0627464 0)
(4.98586 -0.0626724 0)
(4.98609 -0.0624987 0)
(4.98662 -0.0627245 0)
(4.9866 -0.0622356 0)
(4.9862 -0.0610994 0)
(4.98556 -0.0590006 0)
(4.98443 -0.0547358 0)
(4.98384 -0.0510312 0)
(4.9819 -0.0406698 0)
(4.98318 -0.0391415 0)
(4.98113 -0.0257905 0)
(4.98169 -0.0264617 0)
(4.9805 -0.0182269 0)
(4.9791 -0.0196536 0)
(4.97821 -0.0200152 0)
(4.978 -0.0208151 0)
(4.978 -0.0212402 0)
(4.97798 -0.0212957 0)
(4.97789 -0.0211448 0)
(4.97783 -0.0208194 0)
(4.97776 -0.020722 0)
(4.97763 -0.0206873 0)