/*--------------------------------*- C++ -*----------------------------------*\
  =========                 |
  \\      /  F ield         | OpenFOAM: The Open Source CFD Toolbox
   \\    /   O peration     | Website:  https://openfoam.org
    \\  /    A nd           | Version:  7
     \\/     M anipulation  |
\*---------------------------------------------------------------------------*/
FoamFile
{
    version     2.0;
    format      ascii;
    class       volScalarField;
    location    "2.5";
    object      p;
}
// * * * * * * * * * * * * * * * * * * * * * * * * * * * * * * * * * * * * * //

dimensions      [1 -1 -2 0 0 0 0];

internalField   nonuniform List<scalar> 
24000
(
0.425236
0.455657
0.489488
0.525064
0.56093
0.597412
0.634117
0.670963
0.707596
0.742816
0.777409
0.808609
0.839445
0.864754
0.889788
0.908646
0.92764
0.939864
0.951833
0.959004
0.965329
0.967031
0.963484
0.950539
0.92996
0.917905
0.92338
0.932066
0.940912
0.947147
0.94924
0.945464
0.934281
0.925497
0.927278
0.934532
0.943367
0.941941
0.935849
0.932278
0.934431
0.937355
0.935757
0.933477
0.935002
0.941535
0.960393
0.993397
1.02227
1.04767
0.400909
0.401005
0.401273
0.401968
0.403341
0.406007
0.410276
0.417357
0.427255
0.44203
0.460857
0.486691
0.517033
0.555322
0.597153
0.64462
0.692115
0.739525
0.78308
0.81931
0.849484
0.870607
0.887955
0.896107
0.907415
0.92528
0.942775
0.950926
0.955147
0.954118
0.950981
0.937881
0.92696
0.926704
0.933223
0.943185
0.945354
0.940262
0.933277
0.932711
0.935961
0.937443
0.933686
0.93301
0.935127
0.942204
0.960772
0.992351
1.02186
1.04851
0.400343
0.400271
0.400212
0.40013
0.400017
0.400038
0.400054
0.399981
0.399931
0.400022
0.400385
0.401166
0.402582
0.405396
0.410292
0.41943
0.433714
0.457147
0.489129
0.534284
0.588101
0.652599
0.721643
0.793546
0.863614
0.906515
0.928108
0.937205
0.943815
0.943326
0.935165
0.920796
0.924924
0.936793
0.946711
0.946126
0.94081
0.931911
0.930644
0.936165
0.939356
0.93642
0.931775
0.933127
0.937212
0.943693
0.960464
0.991412
1.02222
1.05019
0.400307
0.40028
0.400216
0.400213
0.400247
0.400217
0.400164
0.400077
0.39998
0.399959
0.399892
0.399802
0.399751
0.399734
0.399698
0.399762
0.399987
0.400474
0.401693
0.404683
0.411146
0.425121
0.450468
0.495421
0.560842
0.641872
0.725647
0.794107
0.850187
0.88433
0.900909
0.913174
0.940352
0.955466
0.954538
0.948397
0.928607
0.92667
0.933914
0.942428
0.939796
0.932352
0.930164
0.935335
0.938955
0.943978
0.959371
0.990358
1.02263
1.05183
0.40047
0.400494
0.400535
0.400592
0.400601
0.400574
0.400531
0.400499
0.400483
0.4005
0.400524
0.400511
0.400529
0.400595
0.400676
0.400768
0.400881
0.401012
0.400905
0.400676
0.400399
0.400417
0.400747
0.402315
0.407461
0.422619
0.455112
0.516169
0.602753
0.701781
0.810508
0.888171
0.927359
0.94139
0.942918
0.928471
0.916552
0.929394
0.944258
0.943423
0.936759
0.928296
0.931521
0.938546
0.939003
0.942877
0.957973
0.989331
1.02437
1.05403
0.400724
0.400786
0.40085
0.400895
0.400913
0.400915
0.400938
0.401013
0.401132
0.40124
0.40134
0.401479
0.401546
0.401568
0.401619
0.401702
0.401774
0.401765
0.401668
0.401502
0.401301
0.401074
0.400824
0.400534
0.400209
0.399862
0.400217
0.403231
0.41354
0.446774
0.511133
0.618256
0.731115
0.809768
0.877808
0.892678
0.914997
0.951518
0.952256
0.94443
0.925445
0.926473
0.936998
0.941581
0.938867
0.942075
0.956955
0.98854
1.02586
1.05547
0.400476
0.400508
0.400581
0.400685
0.400733
0.400804
0.400967
0.401147
0.401311
0.401554
0.401768
0.401873
0.40197
0.402051
0.402079
0.40213
0.40216
0.402063
0.401898
0.401709
0.401488
0.40124
0.400888
0.400453
0.399984
0.399389
0.398638
0.398424
0.398542
0.399561
0.403438
0.420644
0.461915
0.552606
0.673748
0.805748
0.897896
0.941694
0.940744
0.9203
0.918445
0.933332
0.944409
0.940964
0.933797
0.940217
0.955826
0.988862
1.02843
1.05576
0.400514
0.400659
0.400711
0.400716
0.400816
0.40098
0.401068
0.40118
0.401352
0.401534
0.401728
0.401872
0.401898
0.401928
0.402019
0.402067
0.401979
0.401803
0.401636
0.401404
0.401159
0.400955
0.40069
0.40032
0.39987
0.399292
0.398533
0.398051
0.398048
0.398347
0.399268
0.400545
0.40248
0.409911
0.436313
0.515884
0.639994
0.769459
0.847389
0.888806
0.91928
0.952198
0.950176
0.932089
0.930505
0.941309
0.956036
0.990279
1.03279
1.05797
0.400583
0.400669
0.40073
0.40078
0.400954
0.401017
0.401046
0.401173
0.401357
0.401536
0.401707
0.401756
0.401785
0.401896
0.402067
0.402033
0.401882
0.401689
0.401485
0.401249
0.401045
0.400853
0.400584
0.40034
0.400129
0.399792
0.399072
0.39837
0.398356
0.398655
0.399455
0.400531
0.401019
0.40087
0.401185
0.405002
0.427625
0.496156
0.629454
0.806753
0.900607
0.944507
0.940467
0.918865
0.929352
0.943196
0.955482
0.992039
1.03316
1.05349
0.399947
0.399914
0.399925
0.39994
0.399926
0.399869
0.39984
0.399837
0.399826
0.399817
0.399827
0.399824
0.399831
0.399946
0.400228
0.400261
0.400144
0.400085
0.399993
0.400007
0.400122
0.400384
0.40065
0.400919
0.401084
0.401095
0.400736
0.39988
0.399433
0.399373
0.39963
0.400111
0.400204
0.399914
0.399611
0.399458
0.399735
0.402815
0.426288
0.507131
0.652647
0.814068
0.87034
0.904074
0.94491
0.946497
0.95508
0.993843
1.03098
1.05089
0.398758
0.398616
0.39843
0.398366
0.39838
0.398403
0.398394
0.39834
0.398307
0.398314
0.398376
0.398471
0.398528
0.398613
0.398857
0.39924
0.399338
0.399309
0.399312
0.399428
0.399712
0.400298
0.401075
0.401736
0.402065
0.402105
0.401978
0.401394
0.400364
0.399818
0.399773
0.39968
0.399305
0.398778
0.398687
0.399199
0.399847
0.399684
0.399937
0.404145
0.437421
0.533586
0.71277
0.863847
0.934434
0.922882
0.946718
0.993974
1.02314
1.04847
0.398644
0.398428
0.397986
0.397851
0.39789
0.397908
0.397884
0.397868
0.397916
0.398028
0.398287
0.398553
0.398578
0.398583
0.398709
0.399213
0.399551
0.399401
0.399323
0.399562
0.399817
0.400329
0.40155
0.402303
0.402454
0.402457
0.402333
0.401788
0.400592
0.399791
0.399729
0.399616
0.398706
0.398241
0.398235
0.399176
0.400665
0.400938
0.400922
0.400549
0.401054
0.408274
0.457049
0.590087
0.774174
0.851695
0.947755
0.997457
1.01279
1.04846
0.398825
0.39849
0.398495
0.398682
0.399001
0.399229
0.399406
0.399541
0.399635
0.399783
0.400072
0.400427
0.400771
0.400801
0.400671
0.400723
0.401109
0.401081
0.400653
0.400304
0.400257
0.400568
0.401001
0.401161
0.401247
0.401473
0.40199
0.401811
0.400762
0.400127
0.400235
0.400041
0.398791
0.398317
0.398376
0.399692
0.401413
0.401694
0.401609
0.401018
0.399886
0.399203
0.400499
0.419407
0.49413
0.67897
0.89524
0.975881
1.00115
1.0548
0.402401
0.402447
0.402577
0.402869
0.403118
0.403163
0.40311
0.402807
0.402437
0.402355
0.402354
0.4024
0.40253
0.402545
0.402369
0.401851
0.401427
0.400936
0.400167
0.399497
0.39944
0.399396
0.398526
0.397653
0.397611
0.398003
0.399635
0.400333
0.399677
0.399344
0.399715
0.399922
0.399191
0.398389
0.39879
0.400145
0.401631
0.401846
0.401724
0.40072
0.398694
0.397647
0.397764
0.398221
0.403142
0.449801
0.597833
0.814841
0.978987
1.0652
0.405244
0.40513
0.404798
0.404307
0.403855
0.40365
0.403229
0.402217
0.401833
0.401762
0.401765
0.401964
0.40216
0.402387
0.402454
0.402318
0.401922
0.401216
0.400159
0.399174
0.399084
0.398852
0.397009
0.394761
0.394628
0.395065
0.397243
0.398957
0.398944
0.399093
0.399334
0.399799
0.400304
0.400316
0.400421
0.400537
0.40048
0.400582
0.400334
0.399145
0.397365
0.396968
0.397281
0.398594
0.399813
0.401842
0.420737
0.576263
0.879683
1.04906
0.404318
0.404225
0.40351
0.402312
0.400387
0.39908
0.398311
0.397607
0.397283
0.397413
0.397641
0.39798
0.398669
0.399467
0.399828
0.399954
0.400026
0.399723
0.398826
0.398603
0.398882
0.399214
0.397918
0.394774
0.393407
0.393641
0.395749
0.399073
0.399803
0.399824
0.399875
0.400743
0.40272
0.403084
0.402315
0.399698
0.397653
0.397387
0.39733
0.39694
0.396181
0.396032
0.396664
0.399514
0.400861
0.399885
0.399448
0.420053
0.567706
0.912644
0.407097
0.407625
0.40761
0.406866
0.403956
0.401972
0.401655
0.401466
0.401738
0.40216
0.402556
0.403152
0.403599
0.404022
0.404924
0.40539
0.40535
0.405506
0.406226
0.40803
0.411512
0.414263
0.414262
0.412743
0.409318
0.405681
0.404347
0.404283
0.40413
0.403813
0.403638
0.404013
0.40596
0.406826
0.405686
0.401217
0.397501
0.396983
0.396956
0.397014
0.397567
0.398718
0.400764
0.401998
0.401078
0.397893
0.396959
0.39806
0.416532
0.700388
0.4382
0.44026
0.441273
0.440917
0.43687
0.432943
0.432293
0.429943
0.427633
0.427321
0.427093
0.426107
0.425003
0.425364
0.426716
0.426875
0.425619
0.424913
0.425162
0.426834
0.43037
0.43227
0.431886
0.430674
0.428787
0.425976
0.422831
0.419996
0.416371
0.413685
0.412194
0.40949
0.407931
0.4072
0.40642
0.405325
0.403243
0.401207
0.401484
0.404069
0.40712
0.407187
0.406345
0.403661
0.399518
0.396859
0.396907
0.39818
0.401362
0.504184
0.479894
0.480112
0.479666
0.480318
0.481445
0.481023
0.478333
0.471606
0.469517
0.469904
0.468453
0.466716
0.467777
0.467615
0.465031
0.46291
0.46143
0.459421
0.456526
0.453727
0.451583
0.447491
0.443159
0.442472
0.443973
0.445085
0.445745
0.447142
0.4466
0.442972
0.438592
0.43377
0.428523
0.427116
0.427702
0.429955
0.430977
0.429997
0.427162
0.424423
0.42153
0.418128
0.412411
0.406953
0.401451
0.401749
0.403744
0.40653
0.407284
0.430003
0.532996
0.53213
0.53188
0.532791
0.533966
0.533742
0.532404
0.532153
0.531766
0.529749
0.528338
0.528564
0.528054
0.526439
0.52667
0.52761
0.526697
0.523688
0.521732
0.520682
0.518516
0.513985
0.509247
0.505099
0.501573
0.49705
0.494578
0.49535
0.494886
0.491279
0.489593
0.487626
0.481809
0.476172
0.472332
0.468053
0.462059
0.4567
0.450795
0.444354
0.436958
0.431171
0.425989
0.42419
0.424901
0.425988
0.424212
0.419006
0.413732
0.423547
0.618103
0.616796
0.615269
0.613628
0.613181
0.613482
0.612807
0.609737
0.60936
0.608208
0.604356
0.602788
0.601157
0.597418
0.593505
0.591966
0.589874
0.5853
0.583323
0.582211
0.579613
0.576934
0.576816
0.575673
0.571866
0.565899
0.561331
0.557416
0.548694
0.538236
0.535925
0.532427
0.527691
0.523451
0.517428
0.509965
0.501851
0.494888
0.489417
0.485313
0.481162
0.474838
0.472734
0.46905
0.463418
0.455056
0.444573
0.435134
0.431727
0.436684
0.713079
0.710701
0.709943
0.709739
0.706726
0.703625
0.70218
0.702694
0.703188
0.701162
0.695979
0.693506
0.693464
0.692859
0.689811
0.685714
0.682734
0.67999
0.676735
0.672503
0.667916
0.66293
0.657699
0.653267
0.647608
0.640561
0.636976
0.634636
0.629586
0.62216
0.61527
0.604048
0.597132
0.593735
0.588214
0.579352
0.570321
0.562563
0.555104
0.546775
0.538466
0.527462
0.51717
0.504931
0.493225
0.48184
0.470779
0.466016
0.461687
0.466006
0.823474
0.824375
0.824478
0.821978
0.818255
0.81659
0.814207
0.811169
0.81056
0.810422
0.807334
0.801079
0.797954
0.797358
0.7959
0.791393
0.786051
0.781719
0.77755
0.773028
0.768243
0.763299
0.75777
0.752016
0.74616
0.739397
0.731985
0.72379
0.714736
0.705401
0.69842
0.69044
0.681852
0.670669
0.659046
0.64879
0.638714
0.626988
0.616158
0.603179
0.591434
0.579081
0.567031
0.555496
0.544394
0.534823
0.527283
0.519311
0.506432
0.496385
0.935308
0.934951
0.935769
0.936033
0.933803
0.930885
0.928452
0.924986
0.924301
0.92415
0.921711
0.916493
0.912341
0.911392
0.910129
0.90635
0.900579
0.895408
0.890668
0.885932
0.88102
0.875229
0.86892
0.862159
0.85465
0.846854
0.838416
0.829683
0.820326
0.810429
0.800122
0.787426
0.775856
0.765147
0.752815
0.738208
0.725458
0.711535
0.69809
0.684028
0.669634
0.656254
0.642058
0.628506
0.613105
0.599747
0.582208
0.566513
0.549752
0.5353
1.0169
1.01598
1.01607
1.01631
1.01564
1.01432
1.01284
1.01086
1.01054
1.01017
1.00888
1.00631
1.00426
1.00264
1.0007
0.998336
0.995619
0.992599
0.989232
0.985597
0.981597
0.977157
0.972007
0.966637
0.960687
0.953931
0.946387
0.937844
0.928886
0.918753
0.907919
0.896658
0.883994
0.869671
0.855623
0.840572
0.824163
0.807613
0.78976
0.772267
0.753718
0.73517
0.716123
0.697225
0.678057
0.658252
0.640131
0.622004
0.603526
0.590197
1.04543
1.04537
1.0453
1.0451
1.04488
1.04456
1.04437
1.04422
1.04405
1.04398
1.04378
1.0433
1.04268
1.0421
1.04155
1.04093
1.04014
1.03927
1.03827
1.03704
1.03562
1.03395
1.03189
1.02956
1.02707
1.02405
1.02036
1.01606
1.011
1.00517
0.998279
0.990207
0.980966
0.970408
0.957966
0.944313
0.928757
0.912028
0.89347
0.873936
0.852732
0.831682
0.808723
0.786809
0.764539
0.74154
0.72088
0.699381
0.681827
0.65444
1.04855
1.04849
1.04848
1.0485
1.04849
1.04841
1.04817
1.04794
1.0479
1.0479
1.04787
1.04774
1.04759
1.04745
1.04734
1.04724
1.04707
1.04686
1.04679
1.0467
1.04656
1.04637
1.04609
1.04574
1.0453
1.04469
1.04391
1.04297
1.04177
1.0403
1.03848
1.0362
1.03317
1.02923
1.02409
1.01746
1.00911
0.998701
0.985917
0.970746
0.952726
0.932307
0.909619
0.885175
0.858511
0.832343
0.805073
0.777737
0.75292
0.718183
1.04849
1.04844
1.0484
1.0484
1.04841
1.04837
1.04822
1.04798
1.04788
1.04787
1.04782
1.0477
1.04753
1.04738
1.04726
1.04715
1.04704
1.04693
1.04678
1.0467
1.0467
1.04669
1.04657
1.04631
1.04596
1.04569
1.04552
1.04539
1.04519
1.04486
1.04439
1.04387
1.04331
1.04274
1.04205
1.04107
1.03957
1.03718
1.03353
1.02821
1.02057
1.01003
0.99596
0.978003
0.956794
0.931165
0.903987
0.874679
0.847216
0.806609
1.04457
1.04457
1.04461
1.04469
1.04466
1.04459
1.0446
1.04469
1.04473
1.04474
1.04478
1.04479
1.04481
1.04487
1.04494
1.04501
1.04499
1.04499
1.04503
1.04503
1.045
1.04496
1.04489
1.04472
1.04451
1.04443
1.04441
1.04435
1.04427
1.04429
1.04421
1.04396
1.0436
1.04319
1.04288
1.04256
1.04212
1.04161
1.041
1.04021
1.03901
1.0372
1.03411
1.02892
1.02056
1.00816
0.99103
0.968718
0.945501
0.902481
1.03198
1.0321
1.03214
1.03227
1.03249
1.03275
1.03289
1.03286
1.03301
1.03325
1.03349
1.03377
1.03381
1.03387
1.03415
1.03457
1.03479
1.03493
1.03516
1.03548
1.03578
1.03607
1.03636
1.03669
1.03704
1.03741
1.03776
1.03808
1.03834
1.03859
1.03889
1.0392
1.03948
1.03971
1.03991
1.03994
1.03996
1.0399
1.0398
1.03957
1.03916
1.03853
1.0377
1.03656
1.03485
1.032
1.0277
1.02034
1.01037
0.983991
1.01285
1.01312
1.01332
1.01333
1.01323
1.01331
1.0136
1.01391
1.0143
1.01434
1.01437
1.01468
1.01518
1.0154
1.0156
1.01592
1.01634
1.01673
1.01711
1.01754
1.01805
1.01862
1.01917
1.01973
1.02036
1.02103
1.02172
1.02245
1.02322
1.02404
1.0249
1.02573
1.02661
1.02751
1.02842
1.02931
1.03021
1.03105
1.03185
1.03264
1.03332
1.03387
1.03415
1.03401
1.03344
1.03221
1.02997
1.02669
1.02279
1.01323
1.00188
1.00194
1.00199
1.002
1.00203
1.00207
1.00216
1.00223
1.00228
1.00233
1.00241
1.00252
1.00263
1.00272
1.00283
1.00296
1.00311
1.00327
1.00345
1.00365
1.00387
1.00412
1.0044
1.00471
1.00505
1.00543
1.00585
1.00632
1.00684
1.00742
1.00805
1.00874
1.0095
1.01033
1.01122
1.01219
1.0132
1.01431
1.01545
1.01666
1.01792
1.0192
1.02047
1.02165
1.0226
1.02339
1.02314
1.02205
1.02005
1.01388
1.00008
1.00008
1.00008
1.00008
1.00009
1.00009
1.00009
1.0001
1.0001
1.00011
1.00011
1.00012
1.00013
1.00014
1.00015
1.00016
1.00017
1.00019
1.0002
1.00022
1.00025
1.00027
1.00031
1.00034
1.00039
1.00044
1.0005
1.00057
1.00066
1.00076
1.00089
1.00103
1.0012
1.0014
1.00164
1.00192
1.00224
1.00261
1.00304
1.00353
1.00408
1.0047
1.0054
1.00616
1.007
1.00788
1.00865
1.00931
1.00925
1.00796
1
1
1
1
1
1
1
1
1
1
1
1
1
1
1
1
1
1
1
1
1
1.00001
1.00001
1.00001
1.00001
1.00001
1.00001
1.00001
1.00002
1.00002
1.00003
1.00003
1.00004
1.00005
1.00007
1.00009
1.00011
1.00014
1.00017
1.00022
1.00027
1.00034
1.00042
1.00052
1.00065
1.0008
1.00098
1.0012
1.0014
1.00154
1
1
1
1
1
1
1
1
1
1
1
1
1
1
1
1
1
1
1
1
1
1
1
1
1
1
1
1
1
1
1
1
1
1
1
1
1
1
1
1
1.00001
1.00001
1.00001
1.00001
1.00002
1.00002
1.00003
1.00004
1.00005
1.00007
1
1
1
1
1
1
1
1
1
1
1
1
1
1
1
1
1
1
1
1
1
1
1
1
1
1
1
1
1
1
1
1
1
1
1
1
1
1
1
1
1
1
1
1
1
1
1
1
1
1
1
1
1
1
1
1
1
1
1
1
1
1
1
1
1
1
1
1
1
1
1
1
1
1
1
1
1
1
1
1
1
1
1
1
1
1
1
1
1
1
1
1
1
1
1
1
1
1
1
1
1
1
1
1
1
1
1
1
1
1
1
1
1
1
1
1
1
1
1
1
1
1
1
1
1
1
1
1
1
1
1
1
1
1
1
1
1
1
1
1
1
1
1
1
1
1
1
1
1
1
1
1
1
1
1
1
1
1
1
1
1
1
1
1
1
1
1
1
1
1
1
1
1
1
1
1
1
1
1
1
1
1
1
1
1
1
1
1
1
1
1
1
1
1
1
1
1
1
1
1
1
1
1
1
1
1
1
1
1
1
1
1
1
1
1
1
1
1
1
1
1
1
1
1
1
1
1
1
1
1
1
1
1
1
1
1
1
1
1
1
1
1
1
1
1
1
1
1
1
1
0.401458
0.400924
0.400397
0.40033
0.400465
0.400654
0.40043
0.400411
0.400492
0.399995
0.398882
0.398793
0.399353
0.402371
0.405218
0.403859
0.406176
0.436532
0.479552
0.533558
0.619046
0.714246
0.823442
0.938219
1.01873
1.04561
1.04862
1.04853
1.04452
1.03183
1.01263
1.00184
1.00007
1
1
1
1
1
1
1
0.40151
0.400924
0.400422
0.400349
0.400479
0.400591
0.400372
0.40036
0.400425
0.400003
0.398988
0.398942
0.399748
0.402387
0.40487
0.403005
0.405386
0.436288
0.480747
0.536152
0.621446
0.7164
0.828092
0.943207
1.02037
1.04588
1.04871
1.04858
1.0444
1.03164
1.01238
1.00177
1.00007
1
1
1
1
1
1
1
0.401534
0.400918
0.400457
0.400357
0.400499
0.400549
0.400312
0.400305
0.400382
0.400059
0.399086
0.399037
0.399801
0.402287
0.404522
0.402621
0.404959
0.436819
0.482122
0.539186
0.623646
0.719492
0.833261
0.945833
1.02145
1.04609
1.04881
1.04865
1.04436
1.03144
1.01216
1.0017
1.00007
1
1
1
1
1
1
1
0.401561
0.400913
0.400498
0.400394
0.40054
0.400513
0.400254
0.400249
0.400359
0.400111
0.399216
0.39909
0.399735
0.401792
0.404116
0.402633
0.404968
0.437802
0.483195
0.541401
0.626168
0.723351
0.836293
0.948114
1.02258
1.0463
1.04893
1.04876
1.04433
1.03113
1.01192
1.00164
1.00006
1
1
1
1
1
1
1
0.401581
0.400951
0.400541
0.400471
0.400602
0.400476
0.400199
0.400189
0.400355
0.400177
0.399419
0.399115
0.399501
0.401031
0.403428
0.402789
0.405349
0.438467
0.485022
0.543096
0.629299
0.726112
0.838936
0.950483
1.02387
1.04651
1.04904
1.04887
1.04428
1.03086
1.01166
1.00157
1.00006
1
1
1
1
1
1
1
0.40159
0.401003
0.40059
0.400508
0.400613
0.400434
0.400146
0.40012
0.400375
0.400279
0.399726
0.399139
0.399157
0.40055
0.403106
0.4027
0.405803
0.439501
0.487409
0.545793
0.631861
0.728606
0.842128
0.953033
1.02546
1.04676
1.04914
1.04896
1.04422
1.03063
1.01137
1.00149
1.00005
1
1
1
1
1
1
1
0.401596
0.401021
0.40063
0.400533
0.400611
0.400398
0.400089
0.400067
0.4004
0.40042
0.400135
0.39924
0.399106
0.40026
0.403017
0.402657
0.406506
0.440798
0.487951
0.548485
0.634164
0.731237
0.846327
0.956614
1.02702
1.04701
1.04921
1.04901
1.0442
1.03038
1.01108
1.00142
1.00005
1
1
1
1
1
1
1
0.401599
0.401022
0.400655
0.400557
0.40062
0.400366
0.400025
0.400021
0.400437
0.400527
0.400535
0.399801
0.399316
0.399992
0.40291
0.403479
0.407634
0.441816
0.487171
0.550212
0.636648
0.735483
0.851182
0.960571
1.02839
1.04727
1.04924
1.04902
1.04417
1.03003
1.01076
1.00134
1.00005
1
1
1
1
1
1
1
0.401585
0.401003
0.400669
0.400573
0.400637
0.40033
0.399957
0.399978
0.4005
0.400636
0.400861
0.400472
0.399766
0.399704
0.402592
0.404613
0.408192
0.443028
0.485633
0.551745
0.639531
0.740718
0.855494
0.963976
1.02975
1.04753
1.04925
1.049
1.04405
1.02959
1.01043
1.00127
1.00004
1
1
1
1
1
1
1
0.401512
0.400967
0.400674
0.400594
0.400661
0.400291
0.399893
0.39994
0.400586
0.400806
0.401153
0.400843
0.40007
0.399595
0.402113
0.404815
0.408585
0.444865
0.485641
0.554444
0.643036
0.745052
0.859595
0.967215
1.03122
1.04778
1.04927
1.04901
1.0439
1.0292
1.0101
1.0012
1.00004
1
1
1
1
1
1
1
0.401453
0.400947
0.400683
0.400632
0.400694
0.400262
0.399853
0.399921
0.400697
0.401056
0.401442
0.401134
0.400204
0.399597
0.401755
0.404573
0.409552
0.447003
0.487445
0.558968
0.646976
0.749293
0.863821
0.97065
1.03273
1.04804
1.04941
1.04906
1.04379
1.02883
1.00977
1.00112
1.00004
1
1
1
1
1
1
1
0.40141
0.400937
0.400703
0.400676
0.400729
0.400254
0.399841
0.399919
0.400818
0.401333
0.401766
0.401427
0.400296
0.399614
0.401625
0.404205
0.411511
0.449328
0.493192
0.563516
0.650776
0.753645
0.868588
0.974396
1.03414
1.04829
1.04955
1.04908
1.04369
1.02845
1.00943
1.00105
1.00003
1
1
1
1
1
1
1
0.401344
0.400921
0.400724
0.400729
0.40076
0.400255
0.399841
0.399923
0.400922
0.401595
0.402144
0.401766
0.400407
0.3994
0.401588
0.404422
0.413995
0.452266
0.497852
0.567597
0.654377
0.758198
0.873977
0.978313
1.03549
1.04856
1.04964
1.04899
1.04359
1.02803
1.00905
1.00097
1.00003
1
1
1
1
1
1
1
0.401223
0.400881
0.400734
0.40079
0.40079
0.400259
0.399844
0.399925
0.401024
0.40187
0.402574
0.402174
0.40055
0.398899
0.401312
0.40505
0.416041
0.455744
0.49919
0.571281
0.65813
0.763225
0.879524
0.982164
1.03685
1.04883
1.04972
1.04895
1.04341
1.02754
1.00866
1.0009
1.00003
1
1
1
1
1
1
1
0.401044
0.400835
0.400744
0.400853
0.400823
0.400266
0.399849
0.399924
0.40116
0.402204
0.403055
0.402619
0.400713
0.398377
0.400512
0.404968
0.417333
0.458765
0.499221
0.574799
0.662219
0.768811
0.885176
0.98607
1.03821
1.04912
1.04984
1.04896
1.04314
1.02698
1.00827
1.00083
1.00002
1
1
1
1
1
1
1
0.400807
0.400768
0.400746
0.40092
0.400856
0.400273
0.399854
0.399966
0.401379
0.402597
0.40355
0.403055
0.40081
0.397901
0.39987
0.40441
0.418165
0.460877
0.497482
0.578648
0.666781
0.77482
0.891113
0.990176
1.03953
1.0494
1.04997
1.04897
1.04288
1.02641
1.00788
1.00076
1.00002
1
1
1
1
1
1
1
0.400537
0.400666
0.400716
0.401001
0.400888
0.400279
0.399872
0.400162
0.401646
0.402959
0.403971
0.403391
0.400748
0.397403
0.399224
0.403985
0.418759
0.462417
0.497291
0.583408
0.672017
0.781229
0.897331
0.994339
1.0408
1.04967
1.05011
1.049
1.04264
1.02583
1.00747
1.00069
1.00002
1
1
1
1
1
1
1
0.40029
0.400547
0.400701
0.401085
0.400924
0.400302
0.400003
0.400451
0.401829
0.403162
0.404214
0.403538
0.400453
0.39682
0.398443
0.403996
0.419267
0.463355
0.501912
0.589678
0.67808
0.787956
0.903712
0.998422
1.04202
1.04992
1.0503
1.04907
1.04239
1.02523
1.00705
1.00062
1.00002
1
1
1
1
1
1
1
0.400103
0.400476
0.400696
0.40114
0.400981
0.400397
0.40023
0.400691
0.401876
0.403207
0.404281
0.403541
0.400102
0.396166
0.398016
0.404497
0.419797
0.463533
0.511414
0.596849
0.684713
0.794853
0.91034
1.00253
1.04319
1.05017
1.05055
1.04914
1.04212
1.02457
1.00661
1.00056
1.00001
1
1
1
1
1
1
1
0.399954
0.400446
0.400735
0.401196
0.401046
0.400535
0.400421
0.400849
0.401864
0.403197
0.404276
0.403427
0.39968
0.39548
0.397974
0.405263
0.421156
0.463539
0.520604
0.603328
0.691529
0.802052
0.917364
1.00673
1.0443
1.05043
1.05082
1.04915
1.04179
1.02381
1.00616
1.00049
1.00001
1
1
1
1
1
1
1
0.399808
0.400418
0.400843
0.40128
0.401118
0.400685
0.400598
0.400945
0.401792
0.403141
0.404229
0.403312
0.399234
0.394965
0.398068
0.406637
0.424041
0.466109
0.527309
0.608393
0.698612
0.809769
0.924721
1.01093
1.04535
1.05069
1.05109
1.04916
1.04141
1.023
1.00572
1.00043
1.00001
1
1
1
1
1
1
1
0.399683
0.40035
0.400901
0.401356
0.401229
0.40092
0.400805
0.401008
0.401604
0.402994
0.404129
0.403237
0.398901
0.394798
0.398263
0.409164
0.427389
0.473213
0.532559
0.612517
0.706041
0.818031
0.932266
1.01506
1.04632
1.05092
1.05134
1.04924
1.04099
1.02217
1.00528
1.00038
1.00001
1
1
1
1
1
1
1
0.399625
0.400283
0.40091
0.401423
0.401407
0.401185
0.401023
0.401068
0.401418
0.402784
0.403954
0.403138
0.398655
0.394806
0.398413
0.412121
0.430542
0.476819
0.537405
0.616758
0.713897
0.826782
0.939986
1.01914
1.04724
1.0511
1.05155
1.04929
1.04051
1.0213
1.00483
1.00033
1.00001
1
1
1
1
1
1
1
0.399621
0.400279
0.400939
0.401505
0.401586
0.401373
0.401205
0.40113
0.401311
0.402598
0.403698
0.402887
0.398421
0.394847
0.398247
0.414629
0.432962
0.477292
0.542141
0.6221
0.722248
0.835996
0.947956
1.02314
1.0481
1.05124
1.05175
1.04922
1.03994
1.02038
1.00439
1.00028
1.00001
1
1
1
1
1
1
1
0.399665
0.40033
0.401061
0.401583
0.401695
0.401503
0.401358
0.401186
0.40122
0.402321
0.403254
0.402495
0.398232
0.394871
0.397784
0.416498
0.435059
0.475864
0.547146
0.628601
0.731137
0.845747
0.956189
1.02702
1.04891
1.05145
1.05198
1.04916
1.03928
1.01939
1.00395
1.00024
1
1
1
1
1
1
1
1
0.39982
0.400426
0.401169
0.401639
0.40175
0.401603
0.401512
0.401237
0.401074
0.401857
0.402643
0.40213
0.398167
0.395165
0.397781
0.418349
0.438485
0.475594
0.553186
0.636017
0.740691
0.856152
0.9646
1.03072
1.04968
1.0518
1.05218
1.04922
1.03856
1.01835
1.00352
1.0002
1
1
1
1
1
1
1
1
0.400018
0.40052
0.401241
0.401666
0.40178
0.401682
0.401691
0.401292
0.400894
0.401372
0.40212
0.401869
0.398378
0.396628
0.399707
0.422868
0.443657
0.48149
0.561502
0.644614
0.751055
0.867207
0.973027
1.03421
1.05044
1.05209
1.05223
1.04936
1.03779
1.01726
1.00311
1.00016
1
1
1
1
1
1
1
1
0.400199
0.400661
0.401302
0.401668
0.401804
0.40177
0.401939
0.401333
0.400767
0.400992
0.401817
0.401744
0.399177
0.398207
0.403146
0.427914
0.446767
0.493279
0.571284
0.654501
0.762183
0.878803
0.981483
1.0375
1.05115
1.05232
1.05216
1.04931
1.03691
1.01611
1.00271
1.00013
1
1
1
1
1
1
1
1
0.400399
0.400845
0.401348
0.401621
0.401829
0.401891
0.402172
0.401447
0.400693
0.400716
0.401678
0.401767
0.399968
0.398957
0.404811
0.428873
0.446418
0.503047
0.5797
0.665284
0.773982
0.890854
0.989966
1.04054
1.05179
1.05257
1.05218
1.04899
1.03588
1.01493
1.00234
1.0001
1
1
1
1
1
1
1
1
0.400717
0.401021
0.401388
0.401556
0.401834
0.402004
0.402298
0.401643
0.400645
0.400545
0.401569
0.402019
0.400756
0.399333
0.405111
0.428413
0.444498
0.509453
0.585936
0.676596
0.786506
0.903434
0.998382
1.04331
1.05235
1.05287
1.05226
1.04864
1.03471
1.0137
1.00198
1.00008
1
1
1
1
1
1
1
1
0.401116
0.4013
0.401428
0.401497
0.401763
0.402053
0.40231
0.401751
0.400633
0.400418
0.401428
0.402455
0.401824
0.399724
0.404987
0.428438
0.445176
0.516004
0.591375
0.688614
0.799983
0.916639
1.00658
1.04579
1.05283
1.05319
1.05241
1.04828
1.03341
1.01245
1.00166
1.00006
1
1
1
1
1
1
1
1
0.401626
0.401679
0.401447
0.401448
0.401673
0.402035
0.402273
0.401807
0.40068
0.400356
0.401177
0.402588
0.402701
0.399765
0.403986
0.429237
0.453566
0.528041
0.599278
0.701806
0.814597
0.930356
1.01446
1.04799
1.05324
1.05352
1.05267
1.04774
1.03198
1.01118
1.00136
1.00005
1
1
1
1
1
1
1
1
0.402323
0.40203
0.401494
0.401407
0.40162
0.402039
0.402312
0.401858
0.400752
0.400345
0.400976
0.402587
0.403315
0.399317
0.402843
0.430155
0.47033
0.54261
0.612652
0.716373
0.830331
0.944311
1.02189
1.04987
1.05364
1.05383
1.05285
1.04709
1.03041
1.00991
1.0011
1.00003
1
1
1
1
1
1
1
1
0.402961
0.402379
0.401782
0.401405
0.401632
0.402085
0.40237
0.401992
0.401307
0.40066
0.401165
0.402634
0.403874
0.39923
0.402669
0.431769
0.482251
0.552798
0.627815
0.731823
0.847141
0.958419
1.02875
1.05144
1.05405
1.05405
1.05289
1.04636
1.02868
1.00867
1.00087
1.00002
1
1
1
1
1
1
1
1
0.403404
0.402708
0.40208
0.401641
0.401797
0.402192
0.402438
0.402444
0.402613
0.401711
0.401919
0.402724
0.404562
0.401012
0.403427
0.434303
0.489453
0.559331
0.642356
0.748006
0.865073
0.972577
1.03492
1.0527
1.05447
1.05418
1.05277
1.04544
1.02679
1.00746
1.00067
1.00002
1
1
1
1
1
1
1
1
0.403723
0.403036
0.402291
0.401974
0.402024
0.402278
0.402585
0.403167
0.403828
0.402807
0.402257
0.402405
0.405216
0.404733
0.407242
0.438121
0.496853
0.565097
0.657538
0.765478
0.883961
0.986488
1.04029
1.05368
1.05486
1.05432
1.05267
1.04428
1.02477
1.0063
1.00051
1.00001
1
1
1
1
1
1
1
1
0.403879
0.403278
0.402574
0.402248
0.402261
0.402398
0.402822
0.403702
0.404592
0.40358
0.402202
0.401131
0.405575
0.407753
0.409713
0.446308
0.507871
0.574739
0.674823
0.78478
0.903677
0.999787
1.0448
1.05441
1.0552
1.05466
1.05278
1.04287
1.02261
1.00521
1.00037
1.00001
1
1
1
1
1
1
1
1
0.403925
0.403392
0.402878
0.402583
0.402572
0.4026
0.402965
0.404083
0.405049
0.404268
0.401872
0.399803
0.405601
0.409345
0.41211
0.460324
0.519791
0.591794
0.694351
0.806117
0.923961
1.01216
1.04844
1.05494
1.05546
1.05489
1.05292
1.04125
1.02032
1.00421
1.00027
1.00001
1
1
1
1
1
1
1
1
0.403812
0.403525
0.403241
0.402978
0.402918
0.402793
0.403025
0.404359
0.405368
0.404876
0.401743
0.398627
0.404315
0.409985
0.417413
0.473431
0.529151
0.611027
0.714771
0.829374
0.944546
1.02328
1.05125
1.0553
1.05564
1.05496
1.05241
1.0393
1.01796
1.00332
1.00018
1
1
1
1
1
1
1
1
1
0.403576
0.403657
0.403681
0.403554
0.403315
0.402962
0.403021
0.404457
0.405511
0.40514
0.401605
0.397571
0.40125
0.410309
0.427416
0.485345
0.538424
0.630803
0.736079
0.854305
0.965
1.03286
1.05329
1.05552
1.05579
1.05499
1.05081
1.03703
1.0156
1.00255
1.00012
1
1
1
1
1
1
1
1
1
0.403245
0.403761
0.404121
0.404089
0.403771
0.403236
0.403008
0.404293
0.405283
0.404944
0.400759
0.396564
0.398567
0.412085
0.439528
0.495872
0.554622
0.653378
0.75998
0.88052
0.984597
1.04068
1.05469
1.05566
1.05595
1.05508
1.04953
1.03471
1.01329
1.00189
1.00008
1
1
1
1
1
1
1
1
1
0.403041
0.403811
0.404348
0.404395
0.404159
0.403641
0.403222
0.403917
0.404853
0.40455
0.399773
0.395497
0.397611
0.418073
0.450809
0.504149
0.578134
0.677907
0.787354
0.907692
1.00276
1.04668
1.05556
1.05578
1.05611
1.05522
1.04847
1.03213
1.01101
1.00135
1.00005
1
1
1
1
1
1
1
1
1
0.402995
0.403745
0.404401
0.404504
0.404331
0.403909
0.403452
0.403353
0.404194
0.403911
0.399391
0.395076
0.397723
0.427739
0.461677
0.513628
0.601763
0.702475
0.817882
0.935423
1.0187
1.0509
1.05608
1.0559
1.0562
1.055
1.04705
1.02898
1.00884
1.00093
1.00003
1
1
1
1
1
1
1
1
1
0.403064
0.40361
0.404201
0.404466
0.404339
0.404006
0.403619
0.402764
0.402902
0.402891
0.400263
0.39634
0.400849
0.439038
0.470988
0.532144
0.627378
0.729594
0.850732
0.962687
1.03182
1.05362
1.05634
1.05603
1.05621
1.05393
1.04515
1.02554
1.00687
1.00061
1.00002
1
1
1
1
1
1
1
1
1
0.403561
0.403594
0.403763
0.40416
0.404348
0.404252
0.404353
0.402592
0.401834
0.401842
0.402833
0.400036
0.406114
0.445072
0.479671
0.560364
0.65529
0.762457
0.885374
0.988176
1.04174
1.05516
1.05652
1.0561
1.05609
1.05258
1.04255
1.02212
1.00514
1.00038
1.00001
1
1
1
1
1
1
1
1
1
0.404053
0.40371
0.403371
0.403821
0.404415
0.404739
0.405132
0.403473
0.401874
0.400414
0.405495
0.40507
0.409919
0.448105
0.49757
0.589591
0.684281
0.800307
0.920855
1.01054
1.04857
1.05593
1.05665
1.05612
1.05565
1.05146
1.03984
1.0187
1.00367
1.00022
1
1
1
1
1
1
1
1
1
1
0.404428
0.40376
0.403258
0.4035
0.404197
0.404937
0.405712
0.404751
0.402
0.398702
0.406048
0.409676
0.413305
0.454976
0.529429
0.618946
0.718529
0.841515
0.955823
1.02858
1.05273
1.05622
1.0567
1.05614
1.05519
1.05059
1.03664
1.01516
1.00247
1.00012
1
1
1
1
1
1
1
1
1
1
0.404479
0.403981
0.403515
0.403395
0.403966
0.404907
0.405891
0.405276
0.401624
0.396231
0.401094
0.411911
0.41985
0.480911
0.561095
0.648694
0.760953
0.885248
0.988211
1.04159
1.05495
1.05629
1.0567
1.05608
1.05488
1.04961
1.0326
1.01171
1.00155
1.00006
1
1
1
1
1
1
1
1
1
1
0.404059
0.404135
0.403956
0.40369
0.403731
0.404366
0.40584
0.405288
0.400175
0.393884
0.396165