/*--------------------------------*- C++ -*----------------------------------*\
  =========                 |
  \\      /  F ield         | OpenFOAM: The Open Source CFD Toolbox
   \\    /   O peration     | Website:  https://openfoam.org
    \\  /    A nd           | Version:  7
     \\/     M anipulation  |
\*---------------------------------------------------------------------------*/
FoamFile
{
    version     2.0;
    format      ascii;
    class       volScalarField;
    location    "5";
    object      p;
}
// * * * * * * * * * * * * * * * * * * * * * * * * * * * * * * * * * * * * * //

dimensions      [1 -1 -2 0 0 0 0];

internalField   nonuniform List<scalar> 
90000
(
0.627413
0.635886
0.645092
0.653755
0.662393
0.670607
0.678567
0.68591
0.693255
0.700163
0.707037
0.713454
0.720167
0.726911
0.734403
0.742791
0.753939
0.766863
0.781777
0.796889
0.812839
0.82817
0.843924
0.858718
0.873966
0.888186
0.902642
0.91605
0.929474
0.941678
0.953593
0.96459
0.974351
0.983149
0.991106
0.997146
1.00283
1.0055
1.00809
1.00941
1.00965
1.00878
1.00701
1.00371
0.997366
0.989037
0.980585
0.973998
0.971726
0.971729
0.974451
0.978497
0.983281
0.988761
0.989984
0.992575
0.993974
0.995223
0.995083
0.993973
0.992029
0.990643
0.987978
0.986883
0.987098
0.987895
0.990714
0.991345
0.992976
0.994329
0.994589
0.993451
0.992773
0.990303
0.987451
0.986738
0.986822
0.98666
0.987617
0.990464
0.990532
0.989415
0.987956
0.988185
0.988867
0.99092
0.993418
0.992465
0.991058
0.989729
0.98984
0.990512
0.990834
0.990233
0.989833
0.99045
0.990983
0.991335
0.99022
0.98959
0.620305
0.620644
0.621303
0.622229
0.623601
0.625465
0.627776
0.630424
0.633477
0.636966
0.640893
0.645154
0.649777
0.654679
0.659939
0.665498
0.671682
0.678312
0.686001
0.694152
0.703611
0.713586
0.724949
0.736694
0.749568
0.763217
0.777234
0.792548
0.807543
0.823885
0.839469
0.855968
0.872338
0.887271
0.903716
0.917439
0.932272
0.944201
0.956199
0.964608
0.97453
0.979942
0.984412
0.987889
0.991159
0.998623
1.00313
1.00461
1.00298
0.99933
0.994247
0.988244
0.982963
0.980199
0.978492
0.979093
0.981397
0.984655
0.988644
0.992968
0.997261
1.00046
0.999779
0.99734
0.994219
0.990959
0.987293
0.982815
0.982851
0.984532
0.989155
0.99472
0.998167
0.996018
0.991753
0.987162
0.982396
0.983136
0.986315
0.99145
0.992516
0.99073
0.98794
0.985957
0.987645
0.991156
0.993614
0.9928
0.990586
0.990049
0.990425
0.991432
0.991062
0.990341
0.989801
0.989706
0.990838
0.991261
0.990753
0.989765
0.620478
0.620363
0.620301
0.620303
0.620268
0.620274
0.620352
0.620374
0.620363
0.620375
0.620435
0.620592
0.620842
0.6212
0.621619
0.622057
0.622595
0.623498
0.624787
0.626359
0.62824
0.630443
0.633207
0.636476
0.640569
0.645378
0.65126
0.658197
0.666536
0.676228
0.68789
0.700396
0.716068
0.732321
0.750514
0.77166
0.792324
0.815536
0.839322
0.862561
0.885943
0.909252
0.929397
0.950459
0.965565
0.97549
0.982121
0.984415
0.987379
0.988526
0.989282
0.987996
0.987701
0.98752
0.986713
0.985402
0.986122
0.987551
0.990008
0.993095
0.996562
0.999378
0.999601
0.997914
0.995449
0.991754
0.986945
0.982498
0.98288
0.984965
0.987874
0.991545
0.993796
0.995794
0.994556
0.98993
0.98651
0.986135
0.986978
0.988173
0.989717
0.990694
0.990145
0.989328
0.989044
0.989407
0.990894
0.992243
0.991955
0.991219
0.990503
0.990591
0.990603
0.990455
0.989886
0.989798
0.990283
0.991264
0.991203
0.990261
0.620116
0.620078
0.620043
0.620014
0.619974
0.619939
0.61994
0.619944
0.619897
0.619794
0.619718
0.619665
0.61968
0.619749
0.619842
0.619902
0.620032
0.62007
0.620121
0.620167
0.620221
0.620271
0.620318
0.62038
0.620556
0.620827
0.621199
0.621675
0.622377
0.623319
0.625038
0.62737
0.630491
0.634672
0.640086
0.647306
0.656392
0.6685
0.68183
0.700446
0.720315
0.744914
0.771968
0.801437
0.832067
0.861101
0.888096
0.910179
0.935653
0.947548
0.961157
0.972035
0.973534
0.977324
0.979116
0.980521
0.986342
0.990113
0.991954
0.994756
0.996225
0.995958
0.994678
0.993278
0.992604
0.991016
0.990075
0.9898
0.989492
0.988857
0.987257
0.985929
0.98597
0.987359
0.989639
0.993724
0.995088
0.99303
0.989386
0.9857
0.986142
0.98811
0.991684
0.992356
0.990675
0.98826
0.988275
0.989833
0.992518
0.992567
0.991661
0.99073
0.991042
0.991004
0.990267
0.989443
0.989909
0.991018
0.991496
0.99069
0.620702
0.620708
0.620726
0.620749
0.620745
0.620723
0.620693
0.620673
0.620675
0.620654
0.620613
0.620579
0.620569
0.620588
0.620624
0.620642
0.620602
0.620567
0.620598
0.620692
0.620776
0.620813
0.620862
0.620947
0.621061
0.621215
0.621443
0.621747
0.622076
0.622676
0.622815
0.622877
0.622968
0.623151
0.623478
0.62398
0.624615
0.625491
0.626715
0.629084
0.632829
0.638508
0.647113
0.657766
0.674865
0.694139
0.720511
0.75198
0.784531
0.822424
0.856154
0.890893
0.915534
0.943693
0.95969
0.971522
0.978123
0.982366
0.984005
0.98668
0.988399
0.987842
0.981737
0.981184
0.984011
0.987632
0.991261
0.993742
0.994918
0.994173
0.991378
0.986338
0.982832
0.983233
0.985749
0.989947
0.993721
0.993881
0.992374
0.98952
0.98744
0.98788
0.989577
0.99064
0.991889
0.99078
0.988628
0.98879
0.990234
0.992103
0.992082
0.991287
0.990431
0.990333
0.990507
0.990311
0.990052
0.990495
0.991121
0.990699
0.620923
0.620921
0.620945
0.621048
0.621173
0.621238
0.621262
0.621274
0.621294
0.621331
0.621407
0.621533
0.621614
0.621619
0.621605
0.621617
0.621689
0.621817
0.622043
0.622141
0.622186
0.622234
0.622376
0.622597
0.622763
0.622897
0.623076
0.623335
0.62368
0.624025
0.624266
0.624437
0.6246
0.624826
0.625152
0.625488
0.625644
0.625788
0.626175
0.62617
0.626206
0.626292
0.626502
0.62693
0.628021
0.630199
0.634188
0.641294
0.651323
0.668627
0.689946
0.717579
0.755691
0.790565
0.830705
0.869024
0.898084
0.923563
0.939494
0.949664
0.965019
0.969939
0.968666
0.975246
0.986981
0.992062
0.992929
0.993927
0.993416
0.98981
0.98502
0.985386
0.985079
0.986233
0.988909
0.990304
0.99084
0.990539
0.989959
0.990865
0.991407
0.990915
0.989882
0.988732
0.988877
0.989198
0.989767
0.99016
0.990188
0.990835
0.991735
0.992445
0.99147
0.990392
0.989791
0.990055
0.990572
0.990924
0.991318
0.990738
0.620956
0.621012
0.621084
0.621187
0.621336
0.621465
0.621586
0.621693
0.621776
0.62183
0.621884
0.621963
0.622067
0.622118
0.622155
0.622206
0.622309
0.622511
0.622769
0.622871
0.622928
0.623003
0.623186
0.623391
0.623563
0.623763
0.624048
0.624382
0.62469
0.624936
0.625119
0.625289
0.625563
0.62597
0.62625
0.626357
0.626402
0.626426
0.626452
0.626517
0.626649
0.626734
0.62676
0.626811
0.626859
0.626942
0.627075
0.627313
0.627814
0.628867
0.63113
0.635175
0.643155
0.655157
0.675482
0.70302
0.737715
0.77934
0.825047
0.862277
0.895732
0.935131
0.960027
0.972919
0.984119
0.989803
0.990287
0.987536
0.978194
0.977619
0.980033
0.98493
0.989468
0.99185
0.992519
0.991111
0.988004
0.985988
0.987085
0.990421
0.993277
0.993093
0.992014
0.989736
0.987871
0.988271
0.989404
0.990251
0.990123
0.990015
0.990539
0.991326
0.99185
0.991399
0.990461
0.990337
0.99049
0.990671
0.990472
0.990456
0.621769
0.621863
0.622004
0.622148
0.622266
0.62236
0.622443
0.622542
0.622649
0.622676
0.62268
0.622718
0.62282
0.622838
0.622821
0.62282
0.622874
0.62307
0.623275
0.623378
0.623452
0.623538
0.623733
0.623901
0.623989
0.624092
0.624258
0.624481
0.624697
0.624841
0.624981
0.625184
0.625614
0.626025
0.626138
0.626193
0.626275
0.626333
0.626362
0.626399
0.6265
0.626572
0.626589
0.626587
0.626589
0.6266
0.626548
0.626415
0.626261
0.626023
0.625935
0.62599
0.626226
0.626864
0.628306
0.631492
0.638495
0.650222
0.669688
0.701894
0.73911
0.780385
0.831442
0.873657
0.903272
0.931184
0.945148
0.955697
0.960711
0.978986
0.987878
0.994246
0.995138
0.994435
0.990003
0.984257
0.984445
0.985653
0.989702
0.993309
0.993454
0.992382
0.990127
0.988689
0.988625
0.989214
0.989819
0.989942
0.989695
0.989584
0.989975
0.990608
0.991295
0.991171
0.99115
0.991232
0.991059
0.99059
0.989983
0.990088
0.62333
0.623459
0.623665
0.623729
0.623746
0.623746
0.623723
0.623679
0.623677
0.623679
0.623659
0.623587
0.623569
0.623578
0.623611
0.623615
0.623661
0.623906
0.624
0.624011
0.62406
0.624178
0.624274
0.624339
0.624449
0.624567
0.624608
0.624621
0.624672
0.624729
0.624815
0.625039
0.625513
0.62577
0.625818
0.625856
0.625937
0.626018
0.626025
0.626013
0.626036
0.626084
0.626066
0.625981
0.625895
0.625768
0.625547
0.625253
0.624801
0.624179
0.623903
0.623882
0.623889
0.623961
0.624084
0.624119
0.624246
0.624728
0.626226
0.629678
0.638248
0.651898
0.678758
0.715267
0.758908
0.813923
0.86151
0.910926
0.948021
0.975028
0.984053
0.991227
0.99032
0.983217
0.974614
0.97744
0.983335
0.990377
0.994296
0.993848
0.991752
0.987515
0.987695
0.988772
0.990925
0.990941
0.990357
0.989285
0.988972
0.98921
0.989784
0.99008
0.990621
0.990898
0.99177
0.991804
0.991477
0.990826
0.989908
0.990006
0.624596
0.62463
0.624641
0.624646
0.624648
0.624644
0.624602
0.624483
0.624456
0.624465
0.624455
0.624355
0.624283
0.624285
0.624279
0.624283
0.624372
0.624433
0.624433
0.624434
0.624476
0.624502
0.62448
0.624418
0.624426
0.624439
0.624415
0.624342
0.624315
0.624301
0.624321
0.624487
0.624798
0.625018
0.625109
0.625138
0.625191
0.625247
0.625225
0.625166
0.625122
0.625049
0.624902
0.624752
0.624598
0.624432
0.624261
0.623975
0.623358
0.622709
0.62256
0.622539
0.622524
0.622557
0.622674
0.622704
0.622668
0.622609
0.622568
0.622597
0.622816
0.623502
0.625967
0.631384
0.645103
0.665393
0.703748
0.749211
0.803472
0.858186
0.893822
0.933746
0.944616
0.956907
0.971376
0.988202
0.995831
0.995651
0.994478
0.988407
0.984588
0.984935
0.98774
0.992307
0.992833
0.991978
0.989511
0.988537
0.988718
0.989491
0.989824
0.989595
0.989717
0.990766
0.99244
0.99238
0.9919
0.990421
0.989756
0.990111
0.625218
0.625146
0.625108
0.625105
0.625108
0.62511
0.625092
0.624914
0.624765
0.62473
0.624661
0.624525
0.624482
0.624488
0.624479
0.624496
0.624642
0.624753
0.624756
0.624748
0.624717
0.624635
0.624457
0.624311
0.62428
0.624268
0.624244
0.624188
0.624065
0.62391
0.623865
0.623856
0.623865
0.623916
0.6239
0.62374
0.623636
0.623625
0.623659
0.623695
0.623661
0.623522
0.623373
0.623265
0.623202
0.623157
0.623067
0.622747
0.62212
0.621718
0.621657
0.621665
0.62165
0.621628
0.621663
0.621703
0.621702
0.621746
0.621886
0.622035
0.62206
0.622
0.621972
0.622141
0.622941
0.624965
0.630843
0.641065
0.665834
0.698823
0.754843
0.813873
0.870038
0.934426
0.965689
0.98343
0.991064
0.990331
0.979401
0.976191
0.979683
0.98722
0.992881
0.993891
0.992568
0.989089
0.988155
0.988691
0.989912
0.989831
0.98943
0.988936
0.989434
0.991158
0.992452
0.992262
0.991113
0.990217
0.990025
0.990525
0.62535
0.625246
0.625187
0.625178
0.625187
0.625178
0.625006
0.624706
0.624668
0.624682
0.624672
0.624643
0.624622
0.624627
0.624671
0.624786
0.624836
0.624833
0.624827
0.624816
0.624774
0.624615
0.624293
0.62412
0.624066
0.623989
0.623838
0.623659
0.623513
0.623363
0.623156
0.62293
0.622778
0.622647
0.6224
0.622062
0.621964
0.621951
0.621993
0.622036
0.621992
0.621916
0.621892
0.621956
0.622074
0.622096
0.622032
0.621688
0.621183
0.620979
0.620945
0.620959
0.620975
0.62095
0.62086
0.620814
0.620829
0.620929
0.621153
0.621424
0.621519
0.621475
0.621317
0.621345
0.621527
0.621855
0.622402
0.62334
0.62556
0.630369
0.644385
0.667079
0.713291
0.767418
0.830157
0.886568
0.919476
0.947179
0.955579
0.98026
0.988565
0.99522
0.994878
0.990888
0.98608
0.986724
0.988779
0.991953
0.991714
0.990284
0.988144
0.988425
0.99036
0.992155
0.992116
0.9909
0.99019
0.990417
0.990996
0.991097
0.625506
0.625547
0.625574
0.62556
0.625519
0.625431
0.625164
0.62494
0.624924
0.62494
0.62502
0.625051
0.625054
0.625042
0.62501
0.624942
0.624797
0.624637
0.624527
0.624455
0.624333
0.624091
0.623843
0.623727
0.623636
0.623509
0.623345
0.623132
0.622963
0.622848
0.622711
0.622522
0.62228
0.621971
0.621618
0.621372
0.621289
0.621258
0.621239
0.621225
0.621261
0.621283
0.621267
0.621317
0.621465
0.621521
0.621478
0.621277
0.620957
0.620731
0.620641
0.620637
0.620655
0.62062
0.620464
0.620403
0.620426
0.620561
0.620938
0.621592
0.622008
0.621985
0.621732
0.621244
0.621172
0.621381
0.621722
0.622023
0.622145
0.622291
0.62296
0.625128
0.632379
0.647407
0.682882
0.732686
0.799785
0.870124
0.930336
0.973746
0.983386
0.991714
0.986914
0.974506
0.97795
0.984851
0.992301
0.992742
0.99131
0.987245
0.987464
0.989783
0.992214
0.992065
0.990368
0.988867
0.989377
0.991177
0.991649
0.991315
0.624786
0.624588
0.624338
0.624145
0.624027
0.623944
0.623913
0.623917
0.623958
0.624049
0.624111
0.624123
0.624093
0.624076
0.6241
0.624243
0.624462
0.624545
0.624529
0.624457
0.62434
0.624181
0.623984
0.623715
0.623404
0.623201
0.623091
0.622942
0.622715
0.62259
0.622514
0.622375
0.622127
0.621774
0.621425
0.621241
0.621181
0.621155
0.62113
0.621109
0.621134
0.62118
0.621166
0.621169
0.621241
0.621296
0.62128
0.621139
0.621103
0.621251
0.621336
0.621337
0.621319
0.621184
0.620734
0.620357
0.620323
0.620442
0.620903
0.621698
0.622222
0.622202
0.621965
0.621649
0.621613
0.621744
0.62181
0.621796
0.621814
0.621863
0.621993
0.622097
0.622325
0.623204
0.626783
0.636616
0.662798
0.705522
0.772369
0.840799
0.89112
0.939258
0.949993
0.970579
0.98489
0.994327
0.994156
0.990091
0.984888
0.985659
0.989799
0.99358
0.993251
0.990083
0.988026
0.988415
0.990367
0.991936
0.991775
0.991374
0.622231
0.622039
0.622026
0.622046
0.622033
0.622006
0.622007
0.622031
0.622134
0.622334
0.622517
0.622594
0.622567
0.62251
0.622498
0.622543
0.622641
0.622629
0.622588
0.622613
0.622781
0.622974
0.622993
0.622969
0.622959
0.622999
0.623082
0.6231
0.623041
0.622902
0.62287
0.62282
0.622676
0.622359
0.622
0.621787
0.621695
0.621652
0.621556
0.621466
0.62146
0.62147
0.621367
0.621293
0.621295
0.621315
0.621443
0.621618
0.621773
0.622075
0.622526
0.622687
0.622688
0.622529
0.622037
0.621358
0.620913
0.620932
0.621274
0.621993
0.622458
0.622369
0.622018
0.621775
0.62181
0.621872
0.621815
0.621549
0.621425
0.621431
0.621593
0.621779
0.621797
0.621752
0.621812
0.622274
0.624447
0.63082
0.6513
0.686746
0.75331
0.82595
0.897292
0.962353
0.98023
0.990892
0.98615
0.972463
0.977556
0.988137
0.994944
0.994501
0.990812
0.986064
0.986776
0.989921
0.991824
0.991663
0.991199
0.991383
0.620759
0.620756
0.620751
0.620746
0.620738
0.62071
0.620695
0.620762
0.620869
0.620961
0.621172
0.621407
0.621534
0.621604
0.621667
0.621793
0.621872
0.621826
0.621811
0.621856
0.621882
0.621972
0.622213
0.622346
0.622404
0.622452
0.622565
0.622917
0.623071
0.623047
0.623097
0.623154
0.623142
0.623037
0.622811
0.622637
0.622558
0.622487
0.622293
0.622123
0.622118
0.62211
0.621939
0.621822
0.621816
0.621839
0.62185
0.621885
0.622038
0.62252
0.623353
0.623688
0.623696
0.623565
0.623171
0.622465
0.621781
0.621684
0.621997
0.622631
0.622765
0.622495
0.622088
0.622065
0.622136
0.622168
0.622101
0.621643
0.621231
0.621207
0.621347
0.621565
0.621693
0.621742
0.621838
0.621894
0.622
0.622273
0.62351
0.628018
0.642976
0.674992
0.737887
0.808879
0.877984
0.926853
0.949205
0.963735
0.991492
0.995451
0.99465
0.988429
0.984393
0.985598
0.990041
0.992717
0.992044
0.990526
0.990575
0.991588
0.620451
0.620443
0.62044
0.620442
0.620444
0.620443
0.620458
0.620546
0.620706
0.620763
0.62077
0.620801
0.621052
0.621569
0.621791
0.621729
0.621628
0.621657
0.621685
0.62158
0.621501
0.621564
0.621813
0.621963
0.621992
0.622007
0.622138
0.622468
0.622715
0.622932
0.623192
0.623273
0.623254
0.623132
0.623015
0.622981
0.623008
0.62303
0.622967
0.622853
0.622851
0.622838
0.622654
0.62249
0.622398
0.622253
0.622151
0.622136
0.622257
0.622892
0.62387
0.624161
0.624209
0.624176
0.62388
0.623177
0.622782
0.622825
0.623147
0.623247
0.623159
0.622749
0.622548
0.622509
0.622539
0.622555
0.622508
0.622145
0.621428
0.621131
0.621217
0.621553
0.621945
0.622081
0.622083
0.622075
0.622071
0.622132
0.622164
0.622255
0.622966
0.62628
0.638442
0.668868
0.730478
0.803774
0.89541
0.954509
0.98475
0.990297
0.980451
0.972805
0.978715
0.989728
0.994503
0.993137
0.989536
0.989496
0.990783
0.991996
0.620657
0.620671
0.620681
0.620682
0.620678
0.620677
0.620676
0.620664
0.620602
0.620558
0.620606
0.620698
0.620793
0.621179
0.621567
0.621586
0.621607
0.621639
0.62161
0.62146
0.621275
0.621279
0.621499
0.6216
0.621613
0.621639
0.62179
0.62206
0.622301
0.622565
0.622946
0.62312
0.623103
0.62294
0.622773
0.622789
0.623044
0.623226
0.623254
0.623386
0.623466
0.623397
0.623208
0.623208
0.623187
0.622855
0.622424
0.622387
0.622543
0.623047
0.623615
0.623995
0.624102
0.624081
0.623764
0.623271
0.623202
0.623319
0.623367
0.623342
0.623212
0.622883
0.622743
0.622694
0.622715
0.622865
0.622914
0.622795
0.622346
0.621835
0.621763
0.621914
0.622307
0.622553
0.622539
0.622412
0.622168
0.622023
0.621934
0.621922
0.62193
0.622021
0.622536
0.625572
0.635456
0.668067
0.725124
0.803965
0.883625
0.921902
0.949439
0.968887
0.993188
0.995667
0.993602
0.987207
0.987709
0.990061
0.992452
0.992001
0.621493
0.621463
0.621427
0.62137
0.621317
0.62127
0.621222
0.621219
0.62125
0.621263
0.621254
0.621179
0.621087
0.621154
0.621547
0.621743
0.621749
0.621631
0.62158
0.621596
0.621481
0.62129
0.621335
0.621566
0.621747
0.62188
0.621991
0.622082
0.622177
0.62233
0.62262
0.622803
0.622819
0.62269
0.622556
0.622543
0.622729
0.622905
0.623099
0.623503
0.623693
0.623685
0.623661
0.623764
0.6238
0.623542
0.622886
0.622744
0.622857
0.62309
0.623185
0.623303
0.623557
0.623603
0.623418
0.623026
0.622991
0.623111
0.623105
0.622998
0.622771
0.622785
0.622897
0.622844
0.622733
0.622846
0.62316
0.623187
0.62298
0.622631
0.622515
0.622601
0.62285
0.623001
0.622993
0.622836
0.622538
0.622239
0.622056
0.621904
0.621845
0.6219
0.62199
0.622148
0.622642
0.625564
0.635076
0.670332
0.727739
0.808766
0.915771
0.960095
0.990126
0.988788
0.977497
0.978802
0.985702
0.993603
0.993046
0.990614
0.622032
0.622064
0.622132
0.622159
0.622146
0.622104
0.622105
0.622187
0.622236
0.622241
0.622223
0.622241
0.622248
0.622246
0.622257
0.622266
0.622232
0.622157
0.622061
0.622046
0.622089
0.622113
0.622209
0.62248
0.622613
0.622626
0.622492
0.622405
0.622411
0.622526
0.62254
0.62248
0.622465
0.622481
0.622481
0.622492
0.622546
0.622694
0.623105
0.623718
0.623854
0.623856
0.623872
0.623934
0.623906
0.623581
0.622904
0.622684
0.622708
0.622796
0.622749
0.622795
0.62316
0.623259
0.623102
0.62268
0.62262
0.622718
0.622683
0.622558
0.622597
0.623013
0.623237
0.623127
0.62288
0.622882
0.623021
0.623045
0.622924
0.622818
0.622833
0.622985
0.62307
0.623088
0.623075
0.623002
0.622879
0.62269
0.622532
0.622473
0.62238
0.622311
0.622209
0.622187
0.622273
0.622257
0.622559
0.625561
0.635527
0.673992
0.736835
0.81828
0.912277
0.931814
0.957994
0.978267
0.994289
0.994174
0.988498
0.98831
0.62156
0.621568
0.621609
0.622081
0.622612
0.62266
0.622625
0.622643
0.622675
0.622674
0.622769
0.62302
0.623088
0.623097
0.62312
0.623132
0.623036
0.622848
0.622835
0.622928
0.622961
0.62303
0.623306
0.623753
0.623883
0.623849
0.62356
0.62316
0.623071
0.623043
0.622984
0.622736
0.622317
0.622105
0.622033
0.621971
0.621893
0.621893
0.621977
0.622209
0.622639
0.623233
0.623605
0.623665
0.623566
0.623187
0.622895
0.622639
0.62221
0.621934
0.621946
0.62232
0.623237
0.623476
0.623342
0.622821
0.622601
0.622564
0.622508
0.622543
0.62291
0.623463
0.623561
0.623414
0.623136
0.622904
0.622867
0.62288
0.622784
0.622687
0.622691
0.622798
0.622784
0.622689
0.622646
0.622717
0.622923
0.623156
0.623162
0.623108
0.622999
0.622872
0.6227
0.622439
0.622194
0.622144
0.621977
0.621934
0.622321
0.626019
0.638666
0.684521
0.754322
0.847289
0.943862
0.972153
0.990557
0.980525
0.977905
0.985197
0.619782
0.620055
0.620212
0.620407
0.620525
0.620523
0.620662
0.621214
0.621589
0.62176
0.621931
0.622118
0.622299
0.622527
0.622693
0.622654
0.622191
0.621792
0.62177
0.62185
0.621826
0.621885
0.622298
0.622955
0.623093
0.623022
0.622687
0.622327
0.622218
0.622195
0.622147
0.62194
0.621528
0.620993
0.620522
0.620164
0.619645
0.619022
0.618814
0.618829
0.619053
0.619853
0.621279
0.622212
0.622295
0.622288
0.62229
0.62214
0.621544
0.621235
0.621306
0.621907
0.623593
0.62428
0.62422
0.62367
0.622853
0.622496
0.622407
0.622491
0.622883
0.623336
0.623444
0.623348
0.623162
0.622845
0.622371
0.622146
0.622124
0.622169
0.622355
0.622598
0.622625
0.622533
0.622495
0.622597
0.622979
0.623457
0.623522
0.623464
0.623304
0.623136
0.622914
0.622593
0.622333
0.622185
0.622004
0.621932
0.62198
0.622174
0.62307
0.628262
0.645094
0.700107
0.777389
0.859258
0.928751
0.945585
0.978246
0.990914
0.612209
0.612509
0.612722
0.612889
0.612987
0.613078
0.613156
0.613246
0.613512
0.613593
0.613547
0.613685
0.614868
0.616105
0.616073
0.614821
0.613179
0.612937
0.613195
0.613698
0.613663
0.613817
0.614892
0.616952
0.618379
0.61867
0.618592
0.618497
0.618533
0.618558
0.618522
0.618405
0.618212
0.617984
0.617955
0.618072
0.618054
0.617611
0.617177
0.617196
0.617394
0.617967
0.619462
0.62063
0.620765
0.620767
0.620915
0.620904
0.620627
0.62042
0.620531
0.621403
0.623434
0.624277
0.624271
0.623874
0.623073
0.622442
0.622234
0.622261
0.62241
0.622641
0.622947
0.623072
0.623009
0.622606
0.621804
0.621347
0.621333
0.621417
0.621793
0.62252
0.622969
0.622964
0.622854
0.622858
0.623063
0.62346
0.623542
0.623446
0.623222
0.622799
0.622339
0.622058
0.622054
0.622143
0.622411
0.62259
0.622611
0.6228
0.622996
0.623135
0.623997
0.630933
0.654627
0.719035
0.804749
0.903718
0.968311
0.987295
0.607776
0.607536
0.607241
0.607075
0.60707
0.607087
0.607106
0.607113
0.607044
0.606561
0.606314
0.606584
0.608071
0.608716
0.608092
0.605442
0.604263
0.60409
0.604291
0.605407
0.60575
0.606179
0.607795
0.609852
0.610923
0.612001
0.613427
0.613657
0.613654
0.613889
0.614677
0.615024
0.614816
0.614684
0.614746
0.615126
0.615386
0.615103
0.614264
0.613545
0.613176
0.613246
0.613943
0.615665
0.61744
0.618503
0.618794
0.618566
0.617558
0.616679
0.616668
0.617194
0.618868
0.621623
0.622806
0.622779
0.622526
0.62141
0.619132
0.618064
0.618033
0.61842
0.619595
0.620837
0.621402
0.62146
0.621186
0.620922
0.621107
0.621421
0.621769
0.622446
0.623078
0.623153
0.623034
0.622877
0.623033
0.623343
0.623331
0.623018
0.622443
0.621882
0.621838
0.621937
0.622194
0.62266
0.623157
0.623224
0.623248
0.623338
0.623316
0.623035
0.622605
0.62273
0.624606
0.634782
0.669697
0.746323
0.828843
0.922246
0.611121
0.610772
0.610244
0.610106
0.610277
0.610794
0.611301
0.611314
0.610978
0.610803
0.610728
0.610442
0.609975
0.609857
0.609689
0.608768
0.607194
0.606879
0.607192
0.607558
0.607568
0.608182
0.609916
0.611143
0.611599
0.611826
0.612374
0.613522
0.614532
0.615837
0.617538
0.618095
0.617892
0.617486
0.617381
0.617532
0.617913
0.617794
0.616789
0.614912
0.612856
0.611292
0.610876
0.611381
0.613944
0.616641
0.616908
0.616395
0.614684
0.612513
0.610636
0.610432
0.610625
0.611499
0.614412
0.616726
0.616827
0.616202
0.614194
0.613471
0.613609
0.614453
0.616058
0.617498
0.618385
0.618956
0.619609
0.620499
0.621147
0.621498
0.621699
0.622056
0.622691
0.622832
0.622734
0.62227
0.621804
0.621675
0.621493
0.621232
0.621175
0.621286
0.621606
0.622146
0.622792
0.623232
0.623385
0.623419
0.623458
0.623431
0.623088
0.622583
0.622371
0.622367
0.622493
0.623034
0.626581
0.644159
0.687748
0.819256
0.625811
0.625743
0.625751
0.626234
0.62787
0.628759
0.628784
0.628044
0.625055
0.623479
0.623531
0.623839
0.62364
0.623003
0.622348
0.620696
0.618259
0.617667
0.617068
0.6153
0.61381
0.613653
0.613628
0.613648
0.613666
0.613658
0.613472
0.613468
0.613557
0.61354
0.613873
0.615386
0.616942
0.617226
0.617059
0.616501
0.61643
0.616501
0.615447
0.611382
0.606299
0.604578
0.604551
0.605035
0.607331
0.612698
0.615628
0.615692
0.614845
0.612768
0.610067
0.607209
0.60623
0.606426
0.608088
0.612216
0.615012
0.61498
0.613425
0.611184
0.610933
0.611692
0.613482
0.614511
0.61453
0.614538
0.615042
0.616811
0.618221
0.618263
0.617811
0.617347
0.617519
0.618124
0.618343
0.61843
0.618614
0.618952
0.619434
0.620109
0.620833
0.621603
0.622092
0.622467
0.622983
0.623226
0.623333
0.623327
0.623171
0.622774
0.622297
0.622217
0.622356
0.622784
0.62318
0.623435
0.623447
0.624371
0.629774
0.689016
0.63495
0.634658
0.634061
0.634008
0.634008
0.634636
0.635523
0.63577
0.63577
0.635418
0.634177
0.633766
0.634248
0.63739
0.638089
0.634348
0.629857
0.629045
0.627606
0.626066
0.626496
0.626843
0.625401
0.622344
0.621349
0.621552
0.621762
0.621716
0.620989
0.619534
0.619296
0.620019
0.621494
0.621844
0.621649
0.619928
0.618693
0.618499
0.617437
0.613191
0.608353
0.607385
0.607476
0.608416
0.610928
0.61494
0.620338
0.624005
0.623973
0.622605
0.619264
0.614114
0.609396
0.60864
0.609948
0.613566
0.618291
0.62059
0.620081
0.618343
0.617685
0.618213
0.618583
0.618184
0.616288
0.6139
0.613678
0.614158
0.615132
0.615211
0.614689
0.613914
0.613702
0.613808
0.614083
0.614553
0.615237
0.616092
0.617331
0.618956
0.620407
0.62136
0.621808
0.622087
0.622418
0.622598
0.622488
0.622164
0.621471
0.621394
0.621542
0.622142
0.622798
0.623417
0.623708
0.623643
0.623526
0.623156
0.623196
0.634775
0.668442
0.667804
0.667593
0.667644
0.668026
0.669992
0.672291
0.672808
0.67265
0.671724
0.671108
0.669975
0.667646
0.665265
0.663871
0.663924
0.66383
0.663754
0.664303
0.664433
0.66337
0.65968
0.658141
0.658323
0.659628
0.659744
0.659055
0.659035
0.658684
0.656302
0.653354
0.653095
0.654244
0.655978
0.656254
0.655508
0.653275
0.650803
0.646818
0.64436
0.643864
0.642981
0.641082
0.637227
0.63368
0.63298
0.634107
0.637485
0.639188
0.639214
0.638032
0.634409
0.629027
0.624668
0.623519
0.623539
0.624331
0.625182
0.624963
0.623451
0.621164
0.61942
0.618484
0.618044
0.616553
0.613601
0.612171
0.612149
0.61257
0.61346
0.613704
0.613601
0.613095
0.612944
0.613118
0.6137
0.614643
0.615379
0.615962
0.616662
0.617599
0.617671
0.617264
0.617007
0.617158
0.617884
0.618641
0.619016
0.61941
0.620201
0.621197
0.622207
0.622976
0.623372
0.623578
0.623462
0.623019
0.622313
0.622291
0.62383
0.717288
0.716959
0.717323
0.717718
0.717893
0.718842
0.719243
0.71954
0.720634
0.720915
0.719957
0.718588
0.718666
0.718776
0.717564
0.716052
0.716211
0.715501
0.710115
0.706692
0.706192
0.704758
0.700014
0.697949
0.69808
0.697628
0.695635
0.693187
0.691763
0.689347
0.684398
0.68187
0.682326
0.683731
0.683141
0.682644
0.683902
0.68545
0.684947
0.682869
0.677805
0.672466
0.671699
0.670763
0.667788
0.66268
0.656481
0.652735
0.652476
0.65299
0.652882
0.64997
0.644914
0.643583
0.643287
0.64216
0.638851
0.636204
0.634728
0.632399
0.62732
0.623543
0.623496
0.625662
0.628521
0.627275
0.621928
0.617766
0.617404
0.61838
0.620577
0.62144
0.620844
0.619362
0.61881
0.61909
0.620191
0.620469
0.620082
0.619272
0.618587
0.617532
0.615812
0.615016
0.615107
0.615468
0.615893
0.61626
0.616864
0.617741
0.619671
0.621351
0.622639
0.622595
0.622284
0.62156
0.621386
0.621543
0.622261
0.623502
0.78022
0.777997
0.777424
0.777501
0.778512
0.778971
0.777952
0.773282
0.770576
0.770993
0.772121
0.771999
0.771337
0.771945
0.772786
0.772534
0.771034
0.766465
0.763332
0.763083
0.762651
0.761923
0.762288
0.762732
0.762041
0.759609
0.755791
0.754421
0.754699
0.754662
0.751519
0.745294
0.74442
0.744282
0.742951
0.739503
0.736857
0.735248
0.733881
0.731717
0.726943
0.724441
0.724489
0.724259
0.721582
0.718499
0.714948
0.709395
0.70751
0.707688
0.707043
0.702997
0.694599
0.688986
0.687344
0.685487
0.682087
0.679694
0.679522
0.678857
0.674162
0.664513
0.659973
0.660224
0.660731
0.659265
0.652368
0.644052
0.639767
0.638631
0.637967
0.63642
0.632963
0.628429
0.625256
0.623179
0.622365
0.621473
0.619798
0.618135
0.617363
0.616557
0.615331
0.614936
0.61506
0.615499
0.616129
0.617363
0.618646
0.619335
0.618992
0.618735
0.618588
0.618534
0.618577
0.618736
0.619524
0.620777
0.622309
0.623373
0.848074
0.848643
0.84882
0.848472
0.848478
0.848483
0.847449
0.843727
0.842064
0.842331
0.842435
0.841467
0.838604
0.837739
0.837771
0.837216
0.833724
0.830503
0.830379
0.829931
0.827015
0.825399
0.82528
0.823983
0.820611
0.817806
0.815684
0.812972
0.810254
0.808723
0.807791
0.805799
0.80118
0.799035
0.799513
0.79953
0.798524
0.794677
0.789426
0.78845
0.787477
0.784852
0.781231
0.777566
0.773748
0.770115
0.76574
0.758953
0.753332
0.752659
0.753261
0.752345
0.746866
0.73968
0.736345
0.731821
0.721711
0.716778
0.716431
0.715143
0.710247
0.704357
0.70012
0.695135
0.688957
0.68253
0.677105
0.672983
0.668778
0.662716
0.656522
0.652092
0.648068
0.643395
0.639507
0.636218
0.633456
0.63057
0.627985
0.624342
0.622693
0.622536
0.622961
0.623598
0.623572
0.622593
0.622523
0.623079
0.622622
0.621638
0.620012
0.61837
0.617509
0.617289
0.617304
0.617541
0.618334
0.619548
0.621359
0.622605
0.92028
0.918166
0.917657
0.917928
0.917893
0.916111
0.91471
0.914493
0.913361
0.909424
0.906644
0.906809
0.907468
0.907136
0.905877
0.902436
0.900446
0.900159
0.899763
0.898323
0.894623
0.893836
0.893881
0.893129
0.890404
0.887016
0.884794
0.882336
0.879514
0.879135
0.878833
0.87685
0.873722
0.868991
0.863544
0.86165
0.860708
0.859121
0.855843
0.852269
0.848982
0.843372
0.839936
0.8384
0.836831
0.834914
0.831568
0.826223
0.820553
0.817196
0.814345
0.810578
0.804331
0.797099
0.794522
0.791317
0.785411
0.780211
0.777089
0.772997
0.764085
0.75952
0.757417
0.753821
0.748621
0.7396
0.730389
0.725826
0.72418
0.721091
0.713184
0.704618
0.699147
0.694225
0.68801
0.681971
0.67586
0.669929
0.664007
0.657933
0.651161
0.645001
0.640263
0.636168
0.632587
0.628117
0.625875
0.623217
0.621412
0.619684
0.618501
0.618132
0.617418
0.617452
0.618229
0.619689
0.620866
0.620997
0.620442
0.619981
0.997059
0.996542
0.99635
0.995834
0.995275
0.994999
0.993965
0.992814
0.991961
0.989177
0.985797
0.985758
0.985474
0.98363
0.982522
0.981304
0.979267
0.975538
0.973411
0.972772
0.970454
0.968381
0.967859
0.967079
0.964536
0.960274
0.957518
0.955652
0.95318
0.951163
0.949512
0.947599
0.945565
0.942902
0.939285
0.935855
0.932807
0.929854
0.926754
0.923383
0.920427
0.917169
0.913237
0.908623
0.904335
0.900453
0.896773
0.889504
0.881154
0.880438
0.880273
0.878418
0.873411
0.865654
0.859165
0.851768
0.841412
0.837499
0.836477
0.834072
0.827153
0.817696
0.810322
0.803853
0.798145
0.791214
0.784731
0.776113
0.767201
0.762282
0.757526
0.749518
0.74022
0.732716
0.725932
0.718148
0.709122
0.701325
0.693789
0.687088
0.679967
0.672892
0.664785
0.656526
0.649473
0.643463
0.637913
0.63191
0.628469
0.625483
0.623796
0.623835
0.624814
0.625502
0.625872
0.62543
0.624385
0.622981
0.621536