/*--------------------------------*- C++ -*----------------------------------*\
  =========                 |
  \\      /  F ield         | OpenFOAM: The Open Source CFD Toolbox
   \\    /   O peration     | Website:  https://openfoam.org
    \\  /    A nd           | Version:  7
     \\/     M anipulation  |
\*---------------------------------------------------------------------------*/
FoamFile
{
    version     2.0;
    format      ascii;
    class       volScalarField;
    location    "3.3";
    object      rho;
}
// * * * * * * * * * * * * * * * * * * * * * * * * * * * * * * * * * * * * * //

dimensions      [1 -3 0 0 0 0 0];

internalField   nonuniform List<scalar> 
8400
(
0.214501
0.290988
0.370167
0.450705
0.51534
0.57644
0.623932
0.660323
0.705149
0.724186
0.737273
0.759964
0.766841
0.768866
0.783825
0.790743
0.793393
0.807248
0.813751
0.808996
0.789209
0.780629
0.783763
0.793537
0.803493
0.801687
0.805258
0.802619
0.798462
0.826977
0.154153
0.156008
0.162002
0.178119
0.210161
0.25264
0.312228
0.383498
0.451004
0.527693
0.590104
0.644157
0.700737
0.738457
0.760138
0.777513
0.783131
0.776893
0.759693
0.739046
0.712307
0.700085
0.710044
0.72779
0.74293
0.758614
0.769728
0.766066
0.760264
0.793558
0.168886
0.169947
0.17129
0.172117
0.1734
0.173198
0.172014
0.170773
0.173129
0.188636
0.222103
0.261401
0.321977
0.409011
0.483072
0.547764
0.608849
0.646424
0.675743
0.696602
0.716208
0.714091
0.718223
0.718058
0.721939
0.736754
0.751648
0.748246
0.750459
0.797157
0.168552
0.169066
0.169336
0.169151
0.167704
0.166955
0.167341
0.167395
0.166917
0.166857
0.166394
0.165196
0.165258
0.165754
0.175247
0.201764
0.2514
0.324772
0.426199
0.534632
0.643808
0.688539
0.705915
0.723019
0.735005
0.752735
0.76833
0.757275
0.76736
0.823603
0.167187
0.16701
0.16692
0.166598
0.165944
0.165326
0.165579
0.166695
0.167486
0.167823
0.166936
0.166567
0.168421
0.174137
0.18439
0.192032
0.192906
0.192809
0.193025
0.214011
0.275789
0.381696
0.49178
0.591551
0.683036
0.719095
0.754055
0.779292
0.812478
0.881028
0.16693
0.166827
0.166971
0.16758
0.16735
0.16656
0.167076
0.170006
0.176398
0.183604
0.188468
0.194233
0.200471
0.204887
0.210014
0.217303
0.221816
0.222774
0.223434
0.225071
0.226854
0.232602
0.240622
0.270092
0.34084
0.436065
0.552191
0.686643
0.760222
0.867902
0.174413
0.176365
0.180078
0.185611
0.192515
0.200838
0.20874
0.2139
0.21785
0.220448
0.222921
0.227136
0.232564
0.233486
0.231373
0.230879
0.234056
0.240126
0.247139
0.251616
0.258445
0.268435
0.277493
0.288204
0.287245
0.286545
0.287712
0.33574
0.403325
0.651031
0.217797
0.219891
0.223305
0.228017
0.234019
0.240634
0.245407
0.248205
0.249155
0.247371
0.244772
0.244912
0.250079
0.258943
0.261404
0.264346
0.270531
0.282872
0.295922
0.305789
0.312094
0.315608
0.314254
0.310242
0.307785
0.309695
0.316551
0.329032
0.334272
0.373857
0.265531
0.265194
0.264577
0.264629
0.266016
0.26986
0.276923
0.286525
0.29357
0.294709
0.294386
0.296057
0.303582
0.3163
0.326977
0.332167
0.334138
0.337081
0.341462
0.341355
0.339471
0.339095
0.337548
0.339479
0.34601
0.355409
0.364522
0.367424
0.369068
0.368823
0.329054
0.330506
0.330923
0.3301
0.329655
0.330915
0.337157
0.347806
0.357531
0.363094
0.364098
0.362856
0.362785
0.364757
0.365587
0.364817
0.362935
0.362651
0.363414
0.361148
0.36108
0.363493
0.372536
0.385128
0.394123
0.400523
0.402178
0.400708
0.397036
0.397893
0.405777
0.41058
0.412152
0.410631
0.403479
0.398673
0.398786
0.402035
0.410036
0.415287
0.415303
0.412027
0.41035
0.409008
0.406681
0.406203
0.407475
0.412331
0.420061
0.427088
0.431074
0.433767
0.437393
0.438572
0.437766
0.435981
0.434251
0.430491
0.431985
0.438861
0.487898
0.497105
0.501387
0.500769
0.494929
0.484785
0.48024
0.481446
0.487161
0.492419
0.491954
0.489994
0.490461
0.493629
0.495136
0.494333
0.493215
0.493894
0.49593
0.495753
0.493754
0.491405
0.488206
0.484
0.48021
0.476249
0.475356
0.47815
0.483324
0.488434
0.584744
0.592181
0.596476
0.597582
0.595932
0.583114
0.570938
0.570155
0.57347
0.576549
0.576475
0.573186
0.565877
0.56488
0.564475
0.560982
0.554978
0.550912
0.547987
0.545171
0.542854
0.540712
0.538898
0.539362
0.540893
0.542512
0.543704
0.543629
0.542332
0.536923
0.697976
0.703205
0.709773
0.711998
0.711309
0.701585
0.683594
0.675065
0.676272
0.677832
0.675739
0.666764
0.657886
0.657307
0.656434
0.651
0.64174
0.638327
0.636597
0.634103
0.630393
0.625404
0.620035
0.616736
0.613969
0.60982
0.604208
0.59644
0.589846
0.581685
0.835025
0.839185
0.844746
0.843728
0.838986
0.829057
0.811929
0.799317
0.799086
0.800049
0.794474
0.775782
0.76183
0.761343
0.76054
0.754753
0.743282
0.733578
0.72729
0.721595
0.715386
0.708257
0.699697
0.691378
0.683436
0.67487
0.666173
0.659095
0.654669
0.646419
0.996089
1.00145
1.00666
1.00145
0.985618
0.974071
0.957646
0.940005
0.936085
0.936894
0.929771
0.906627
0.885631
0.882524
0.880088
0.871277
0.855966
0.843027
0.833935
0.824424
0.814086
0.803154
0.791194
0.780938
0.772038
0.762705
0.753143
0.743856
0.734459
0.717244
1.17791
1.18062
1.18554
1.18082
1.16173
1.14385
1.12271
1.09847
1.09226
1.09216
1.08189
1.05268
1.02796
1.02325
1.01835
1.00444
0.984398
0.9678
0.954932
0.94187
0.927173
0.91229
0.896685
0.882341
0.868127
0.852907
0.838517
0.822892
0.808922
0.787025
1.37944
1.38026
1.38312
1.37604
1.35666
1.33565
1.30725
1.27404
1.26648
1.26532
1.25153
1.21552
1.18758
1.18137
1.17288
1.15201
1.12805
1.10739
1.08923
1.0722
1.05332
1.03279
1.01227
0.992815
0.975954
0.95757
0.937213
0.918504
0.902783
0.875004
1.62194
1.60523
1.59371
1.58339
1.5692
1.54901
1.51566
1.47278
1.4636
1.45943
1.44083
1.39715
1.36355
1.35329
1.34041
1.3133
1.28568
1.26263
1.23736
1.21379
1.19103
1.1665
1.14164
1.11655
1.09316
1.07079
1.04699
1.02239
1.0018
0.967629
1.88795
1.8698
1.84847
1.82446
1.80595
1.78703
1.75497
1.71916
1.69581
1.67523
1.64988
1.60981
1.57291
1.55058
1.52673
1.49365
1.46143
1.43313
1.40292
1.3717
1.34227
1.3126
1.28254
1.25419
1.22563
1.19575
1.16806
1.1394
1.11392
1.07228
2.04102
2.03481
2.02522
2.01203
1.99931
1.98686
1.969
1.94863
1.9272
1.90217
1.87678
1.84685
1.80968
1.77741
1.7466
1.70899
1.67172
1.63545
1.59812
1.55973
1.5218
1.48371
1.44666
1.41023
1.37559
1.3406
1.30478
1.27003
1.23983
1.18854
2.04282
2.03883
2.03351
2.03144
2.03087
2.02908
2.02449
2.0182
2.01015
2.00195
1.99397
1.98272
1.96699
1.94921
1.93126
1.90901
1.88188
1.8512
1.81608
1.77729
1.73651
1.69378
1.65042
1.60605
1.55991
1.51471
1.47095
1.42574
1.38665
1.32292
1.95078
1.94709
1.94532
1.95415
1.96934
1.98164
1.98977
1.99408
1.99414
1.9909
1.98727
1.98337
1.97707
1.97158
1.96566
1.95908
1.95073
1.93935
1.9252
1.91153
1.89431
1.87188
1.84337
1.80908
1.76923
1.72352
1.67481
1.62235
1.57371
1.49261
1.65384
1.67295
1.68646
1.70041
1.72749
1.75443
1.77516
1.80263
1.82502
1.84163
1.86887
1.89037
1.8969
1.90569
1.91999
1.92564
1.92913
1.92713
1.92354
1.91831
1.91161
1.90354
1.89395
1.88187
1.86712
1.84875
1.82595
1.79548
1.76074
1.68732
1.43327
1.44027
1.44816
1.45558
1.46459
1.4767
1.49089
1.50888
1.52994
1.55058
1.57439
1.60484
1.63576
1.66424
1.69601
1.72837
1.76028
1.78737
1.81093
1.83179
1.84708
1.85924
1.86428
1.864
1.86149
1.85503
1.84426
1.83021
1.81498
1.77939
1.40097
1.40124
1.40163
1.40212
1.40274
1.40363
1.40486
1.40666
1.40922
1.41258
1.4169
1.42321
1.43186
1.44275
1.4563
1.47431
1.49558
1.52182
1.55068
1.58366
1.61842
1.6536
1.68822
1.71903
1.74737
1.7692
1.78305
1.79241
1.79054
1.77571
1.40001
1.40002
1.40002
1.40003
1.40003
1.40004
1.40006
1.40009
1.40014
1.40021
1.40033
1.40052
1.40085
1.40138
1.40221
1.40359
1.40572
1.4091
1.4141
1.42151
1.432
1.44624
1.46495
1.48847
1.51597
1.54808
1.58093
1.61497
1.643
1.67427
1.40001
1.40001
1.40001
1.40001
1.40001
1.40001
1.40001
1.40001
1.40001
1.40001
1.40001
1.40001
1.40001
1.40002
1.40003
1.40004
1.40008
1.40014
1.40027
1.4005
1.40095
1.40176
1.40321
1.40568
1.40974
1.41613
1.42559
1.43916
1.45514
1.48777
1.40001
1.40001
1.40001
1.40001
1.40001
1.40001
1.40001
1.40001
1.40001
1.40001
1.40001
1.40001
1.40001
1.40001
1.40001
1.40001
1.40001
1.40001
1.40001
1.40001
1.40001
1.40002
1.40004
1.40008
1.40017
1.40036
1.40075
1.40153
1.40278
1.40731
1.40001
1.40001
1.40001
1.40001
1.40001
1.40001
1.40001
1.40001
1.40001
1.40001
1.40001
1.40001
1.40001
1.40001
1.40001
1.40001
1.40001
1.40001
1.40001
1.40001
1.40001
1.40001
1.40001
1.40001
1.40001
1.40001
1.40001
1.40002
1.40004
1.40014
0.149763
0.152576
0.167666
0.167168
0.166097
0.168328
0.173487
0.216469
0.266128
0.326665
0.398013
0.479623
0.579625
0.695992
0.838847
1.00589
1.19994
1.41662
1.66572
1.91861
2.04818
2.04522
1.93697
1.61573
1.42576
1.40075
1.40001
1.40001
1.40001
1.40001
0.150849
0.154368
0.168347
0.165482
0.163601
0.171024
0.18336
0.230193
0.279756
0.335527
0.404331
0.49112
0.602081
0.742851
0.905209
1.08781
1.28753
1.50606
1.74826
1.97478
2.06032
2.04361
1.87008
1.55913
1.41453
1.40029
1.40001
1.40001
1.40001
1.40001
0.152009
0.154094
0.167696
0.164086
0.1621
0.17307
0.191648
0.2362
0.28159
0.337349
0.411724
0.521778
0.649962
0.79613
0.953809
1.13273
1.33267
1.55266
1.79813
2.01069
2.06711
2.02554
1.8181
1.52201
1.40882
1.40015
1.40001
1.40001
1.40001
1.40001
0.151973
0.152754
0.167917
0.163437
0.161062
0.174382
0.196209
0.237614
0.282289
0.346355
0.454055
0.566825
0.686943
0.823147
0.979091
1.15965
1.36463
1.59164
1.84597
2.04253
2.07107
2.01096
1.77865
1.49014
1.4049
1.40007
1.40001
1.40001
1.40001
1.40001
0.151006
0.152323
0.168854
0.163365
0.16017
0.17455
0.196619
0.237381
0.291504
0.377482
0.479238
0.583313
0.699494
0.835469
0.999149
1.18907
1.40548
1.64701
1.90884
2.06788
2.07383
2.00233
1.72703
1.45812
1.40236
1.40003
1.40001
1.40001
1.40001
1.40001
0.150278
0.152467
0.169828
0.163092
0.158301
0.172751
0.194021
0.238497
0.312318
0.395715
0.483892
0.58576
0.707427
0.851007
1.03676
1.25094
1.48793
1.7385
1.97314
2.07965
2.07455
1.96502
1.64758
1.43454
1.40111
1.40002
1.40001
1.40001
1.40001
1.40001
0.14963
0.152592
0.169727
0.161368
0.156005
0.170867
0.193377
0.253107
0.329448
0.40095
0.482388
0.588356
0.733155
0.919433
1.12085
1.3338
1.56002
1.80249
2.01141
2.08494
2.062
1.89736
1.59144
1.42201
1.40056
1.40001
1.40001
1.40001
1.40001
1.40001
0.149026
0.152973
0.1668
0.159402
0.154641
0.170583
0.204349
0.273212
0.335168
0.402993
0.496684
0.642172
0.807424
0.982144
1.17047
1.37723
1.60338
1.85026
2.04328
2.08938
2.04616
1.85721
1.55166
1.41315
1.40026
1.40001
1.40001
1.40001
1.40001
1.40001
0.148877
0.154231
0.163643
0.158574
0.154902
0.175415
0.221974
0.279977
0.3387
0.41688
0.556941
0.699329
0.847304
1.01216
1.20101
1.41507
1.65476
1.9127
2.07729
2.09294
2.04121
1.8165
1.5052
1.40642
1.4001
1.40001
1.40001
1.40001
1.40001
1.40001
0.149072
0.155431
0.162513
0.159236
0.159501
0.185051
0.230233
0.280873
0.350202
0.467413
0.592555
0.72001
0.866868
1.03713
1.24372
1.48742
1.74922
1.9858
2.0976
2.09668
2.03124
1.73718
1.46294
1.40293
1.40004
1.40001
1.40001
1.40001
1.40001
1.40001
0.149657
0.156188
0.162568
0.15961
0.163366
0.189051
0.232445
0.287274
0.383747
0.494563
0.602066
0.7277
0.889351
1.09375
1.3351
1.58852
1.83189
2.03169
2.10406
2.0955
1.96215
1.65232
1.43908
1.40142
1.40002
1.40001
1.40001
1.40001
1.40001
1.40001
0.150755
0.156747
0.162776
0.157608
0.163951
0.189313
0.235244
0.310535
0.410312
0.501952
0.60438
0.755833
0.963777
1.19099
1.41691
1.65131
1.88325
2.06276
2.10589
2.07548
1.90404
1.60022
1.42429
1.40066
1.40001
1.40001
1.40001
1.40001
1.40001
1.40001
0.150972
0.156282
0.162312
0.154283
0.159884
0.189285
0.246043
0.336526
0.42005
0.504448
0.646749
0.846641
1.04613
1.24919
1.46542
1.70362
1.94139
2.09246
2.10685
2.05596
1.86218
1.55074
1.41277
1.40027
1.40001
1.40001
1.40001
1.40001
1.40001
1.40001
0.148549
0.152869
0.160059
0.152862
0.156579
0.19462
0.267195
0.345867
0.427775
0.544714
0.7311
0.906838
1.08696
1.29075
1.52426
1.78627
2.01546
2.11088
2.10869
2.04705
1.80443
1.49488
1.40583
1.4001
1.40001
1.40001
1.40001
1.40001
1.40001
1.40001
0.144267
0.150374
0.158865
0.152596
0.159834
0.211749
0.27662
0.349245
0.448797
0.617355
0.77349
0.933706
1.12428
1.36171
1.6315
1.88342
2.06808
2.11637
2.1119
2.02119
1.70542
1.45529
1.40258
1.40004
1.40001
1.40001
1.40001
1.40001
1.40001
1.40001
0.141912
0.149665
0.158692
0.154465
0.170487
0.222316
0.278599
0.365763
0.508593
0.652569
0.788924
0.958596
1.20115
1.47393
1.72502
1.94689
2.09445
2.1175
2.10056
1.93509
1.62674
1.43271
1.40111
1.40002
1.40001
1.40001
1.40001
1.40001
1.40001
1.40001
0.141535
0.149693
0.159637
0.158346
0.175632
0.224127
0.286314
0.404804
0.547554
0.665685
0.808773
1.0506
1.31499
1.55855
1.79374
2.00058
2.11172
2.11895
2.07016
1.87361
1.57078
1.41786
1.40045
1.40001
1.40001
1.40001
1.40001
1.40001
1.40001
1.40001
0.141721
0.149623
0.160439
0.159839
0.177223
0.224387
0.31813
0.450179
0.566256
0.681429
0.911244
1.16212
1.39158
1.62779
1.87321
2.05645
2.1244
2.11537
2.04337
1.8201
1.51526
1.40841
1.40017
1.40001
1.40001
1.40001
1.40001
1.40001
1.40001
1.40001
0.143916
0.148122
0.158445
0.157936
0.180584
0.249976
0.362789
0.471911
0.582504
0.779248
1.01251
1.22904
1.45875
1.72462
1.96436
2.0988
2.12992
2.11381
2.02223
1.73967
1.46679
1.40354
1.40006
1.40001
1.40001
1.40001
1.40001
1.40001
1.40001
1.40001
0.149481
0.145172
0.153478
0.15441
0.192956
0.291356
0.385172
0.487825
0.643052
0.869873
1.07091
1.28978
1.56524
1.83132
2.03262
2.12458
2.13275
2.11914
1.98097
1.64073
1.43536
1.40135
1.40002
1.40001
1.40001
1.40001
1.40001
1.40001
1.40001
1.40001
0.153158
0.140739
0.148382
0.158521
0.220516
0.309807
0.391818
0.517785
0.738015
0.925393
1.11963
1.39626
1.68551
1.91466
2.08121
2.13669
2.13486
2.09527
1.87294
1.56328
1.41757
1.40048
1.40001
1.40001
1.40001
1.40001
1.40001
1.40001
1.40001
1.40001
0.154184
0.136482
0.145393
0.176389
0.238374
0.309993
0.403255
0.597275
0.797228
0.970518
1.22905
1.52939
1.78365
1.989
2.11357
2.13883
2.12823
2.03411
1.78739
1.50659
1.40796
1.40017
1.40001
1.40001
1.40001
1.40001
1.40001
1.40001
1.40001
1.40001
0.152055
0.132192
0.14585
0.187029
0.239836
0.3047
0.45965
0.672258
0.846056
1.07232
1.36979
1.63702
1.87648
2.05504
2.12977
2.13381
2.1084
1.98797
1.71488
1.46232
1.40333
1.40006
1.40001
1.40001
1.40001
1.40001
1.40001
1.40001
1.40001
1.40001
0.150003
0.127345
0.146458
0.188285
0.234608
0.341551
0.54929
0.724544
0.9204
1.21017
1.47862
1.73813
1.97038
2.09998
2.13776
2.12873
2.08854
1.94312
1.62704
1.43146
1.40118
1.40002
1.40001
1.40001
1.40001
1.40001
1.40001
1.40001
1.40001
1.40001
0.147817
0.122355
0.144916
0.186796
0.245222
0.435172
0.602752
0.779049
1.05464
1.31888
1.58196
1.85576
2.04578
2.12739
2.14064
2.13429
2.08379
1.86437
1.53975
1.41341
1.40036
1.40001
1.40001
1.40001
1.40001
1.40001
1.40001
1.40001
1.40001
1.40001
0.144264
0.118273
0.136734
0.191766
0.322687
0.493716
0.642475
0.880412
1.16802
1.42728
1.71902
1.96141
2.09939
2.14047
2.1436
2.13721
2.04686
1.74136
1.47646
1.40493
1.4001
1.40001
1.40001
1.40001
1.40001
1.40001
1.40001
1.40001
1.40001
1.40001
0.141249
0.116277
0.131666
0.227548
0.385915
0.522987
0.709049
1.01581
1.28631
1.57919
1.85233
2.04137
2.13009
2.1456
2.14568
2.11657
1.93982
1.64026
1.43942
1.40172
1.40003
1.40001
1.40001
1.40001
1.40001
1.40001
1.40001
1.40001
1.40001
1.40001
0.139822
0.115847
0.140134
0.270644
0.416024
0.560182
0.855232
1.14663
1.43489
1.73214
1.95835
2.09519
2.14403
2.14774
2.14036
2.0701
1.85989
1.56367
1.41807
1.40056
1.40001
1.40001
1.40001
1.40001
1.40001
1.40001
1.40001
1.40001
1.40001
1.40001
0.131342
0.116475
0.176824
0.301449
0.44425
0.689217
0.993617
1.28518
1.6041
1.86068
2.04138
2.12694
2.15038
2.14628
2.1214
2.02802
1.78102
1.49426
1.40695
1.40015
1.40001
1.40001
1.40001
1.40001
1.40001
1.40001
1.40001
1.40001
1.40001
1.40001
0.113109
0.117554
0.202082
0.330966
0.514528
0.839362
1.13036
1.45712
1.75493
1.9748
2.09916
2.14382
2.15195
2.14525
2.10825
1.97661
1.66221
1.44313
1.40211
1.40004
1.40001
1.40001
1.40001
1.40001
1.40001
1.40001
1.40001
1.40001
1.40001
1.40001
0.09496
0.122826
0.214919
0.395467
0.680678
0.975406
1.29251
1.63689
1.90178
2.06118
2.12951
2.15041
2.15212
2.14872
2.10543
1.87113
1.54706
1.41596
1.40052
1.40001
1.40001
1.40001
1.40001
1.40001
1.40001
1.40001
1.40001
1.40001
1.40001
1.40001
0.0755208
0.141254
0.250987
0.496161
0.820885
1.13241
1.50829
1.81097
2.0256
2.10781
2.14129
2.15126
2.15104
2.13835
2.0241
1.72685
1.47494
1.40523
1.40012
1.40001
1.40001
1.40001
1.40001
1.40001
1.40001
1.40001
1.40001
1.40001
1.40001
1.40001
0.0515635
0.156619
0.347844
0.646871
0.982202
1.36566
1.71331
1.96017
2.10291
2.12685
2.1444
2.15006
2.14485
2.09574
1.91394
1.62121
1.435
1.40154
1.40003
1.40001
1.40001
1.40001
1.40001
1.40001
1.40001
1.40001
1.40001
1.40001
1.40001
1.40001
0.0291833
0.171142
0.477076
0.833614
1.21076
1.60195
1.8926
2.0659
2.13957
2.13201
2.14535
2.14848
2.13271
2.05113
1.82749
1.53345
1.41267
1.40037
1.40001
1.40001
1.40001
1.40001
1.40001
1.40001
1.40001
1.40001
1.40001
1.40001
1.40001
1.40001
0.0208719
0.257542
0.635145
1.05537
1.48927
1.81683
2.02973
2.12449
2.14884
2.13397
2.15031
2.14659
2.11807
2.00519
1.71043
1.45795
1.40338
1.40007
1.40001
1.40001
1.40001
1.40001
1.40001
1.40001
1.40001
1.40001
1.40001
1.40001
1.40001
1.40001
0.0598258
0.426247
0.861626
1.34192
1.74026
1.99224
2.10865
2.14705
2.15037
2.13403
2.1557
2.14917
2.10721
1.90528
1.56271
1.41849
1.40069
1.40002
1.40001
1.40001
1.40001
1.40001
1.40001
1.40001
1.40001
1.40001
1.40001
1.40001
1.40001
1.40001
0.187508
0.614046
1.18264
1.66647
1.9572
2.09659
2.13923
2.15225
2.15006
2.13287
2.15813
2.15035
2.05854
1.72599
1.4673
1.40464
1.40011
1.40001
1.40001
1.40001
1.40001
1.40001
1.40001
1.40001
1.40001
1.40001
1.40001
1.40001
1.40001
1.40001
0.400503
0.939576
1.55295
1.92712
2.0891
2.13653
2.14693
2.15314
2.1511
2.13116
2.15778
2.11697
1.90316
1.58024
1.42305
1.40086
1.40002
1.40001
1.40001
1.40001
1.40001
1.40001
1.40001
1.40001
1.40001
1.40001
1.40001
1.40001
1.40001
1.40001
0.770832
1.41024
1.89181
2.08655
2.13695
2.14495
2.14883
2.1552
2.15381
2.13051
2.14489
2.04302
1.76004
1.48285
1.40529
1.40012
1.40001
1.40001
1.40001
1.40001
1.40001
1.40001
1.40001
1.40001
1.40001
1.40001
1.40001
1.40001
1.40001
1.40001
1.40861
1.87187
2.0968
2.14472
2.14601
2.14564
2.15029
2.159
2.15516
2.13091
2.11617
1.95571
1.60712
1.42156
1.4006
1.40001
1.40001
1.40001
1.40001
1.40001
1.40001
1.40001
1.40001
1.40001
1.40001
1.40001
1.40001
1.40001
1.40001
1.40001
2.15148
2.15422
2.15375
2.15152
2.14576
2.14502
2.15354
2.16173
2.15443
2.12668
2.07858
1.79588
1.45826
1.39954
1.39994
1.4
1.40001
1.40001
1.40001
1.40001
1.40001
1.40001
1.40001
1.40001
1.40001
1.40001
1.40001
1.40001
1.40001
1.40001
2.1513
2.15371
2.15343
2.15177
2.14534
2.14365
2.15216
2.16184
2.15727
2.11704
2.04932
1.7283
1.45994
1.40258
1.40004
1.40001
1.40001
1.40001
1.40001
1.40001
1.40001
1.40001
1.40001
1.40001
1.40001
1.40001
1.40001
1.40001
1.40001
1.40001
2.1514
2.15289
2.15327
2.15197
2.14634
2.14383
2.15023
2.16076
2.15623
2.10508
1.99382
1.63732
1.42219
1.40035
1.40001
1.40001
1.40001
1.40001
1.40001
1.40001
1.40001
1.40001
1.40001
1.40001
1.40001
1.40001
1.40001
1.40001
1.40001
1.40001
2.15157
2.15131
2.15267
2.15211
2.14761
2.14375
2.14715
2.15974
2.15613
2.09715
1.93236
1.55564
1.40959
1.40013
1.40001
1.40001
1.40001
1.40001
1.40001
1.40001
1.40001
1.40001
1.40001
1.40001
1.40001
1.40001
1.40001
1.40001
1.40001
1.40001
2.15185
2.15021
2.15138
2.15269
2.15053
2.14434
2.14313
2.15628
2.15777
2.09451
1.82855
1.48703
1.40352
1.40003
1.40001
1.40001
1.40001
1.40001
1.40001
1.40001
1.40001
1.40001
1.40001
1.40001
1.40001
1.40001
1.40001
1.40001
1.40001
1.40001
2.1523
2.1499
2.14982
2.15291
2.1526
2.14813
2.13738
2.14604
2.15501
2.05643
1.72996
1.44889
1.40127
1.40001
1.40001
1.40001
1.40001
1.40001
1.40001
1.40001
1.40001
1.40001
1.40001
1.40001
1.40001
1.40001
1.40001
1.40001
1.40001
1.40001
2.15311
2.14949
2.14743
2.15103
2.15282
2.15149
2.13413
2.13613
2.13893
1.99595
1.64121
1.42247
1.40038
1.40001
1.40001
1.40001
1.40001
1.40001
1.40001
1.40001
1.40001
1.40001
1.40001
1.40001
1.40001
1.40001
1.40001
1.40001
1.40001
1.40001
2.15318
2.14923
2.1461
2.14856
2.15251
2.15548
2.13555
2.1315
2.12734
1.93201
1.55697
1.4094
1.40012
1.40001
1.40001
1.40001
1.40001
1.40001
1.40001
1.40001
1.40001
1.40001
1.40001
1.40001
1.40001
1.40001
1.40001
1.40001
1.40001
1.40001
2.15281
2.14928
2.14576
2.14628
2.15168
2.15848
2.14699
2.13208
2.12065
1.83486
1.48889
1.4035
1.40003
1.40001
1.40001
1.40001
1.40001
1.40001
1.40001
1.40001
1.40001
1.40001
1.40001
1.40001
1.40001
1.40001
1.40001
1.40001
1.40001
1.40001
2.15286
2.15093
2.14631
2.14367
2.14863
2.15962
2.1571
2.13093
2.06887
1.72119
1.44471
1.40111
1.40001
1.40001
1.40001
1.40001
1.40001
1.40001
1.40001
1.40001
1.40001
1.40001
1.40001
1.40001
1.40001
1.40001
1.40001
1.40001
1.40001
1.40001
2.15291
2.15271
2.148
2.14242
2.14395
2.16
2.16419
2.12142
1.9899
1.62846
1.42018
1.40033
1.40001
1.40001
1.40001
1.40001
1.40001
1.40001
1.40001
1.40001
1.40001
1.40001
1.40001
1.40001
1.40001
1.40001
1.40001
1.40001
1.40001
1.40001
2.15258
2.15309
2.151
2.14186
2.13828
2.15861
2.1679
2.11819
1.91501
1.54338
1.40776
1.40009
1.40001
1.40001
1.40001
1.40001
1.40001
1.40001
1.40001
1.40001
1.40001
1.40001
1.40001
1.40001
1.40001
1.40001
1.40001
1.40001
1.40001
1.40001
2.1517
2.15234
2.15187
2.14379
2.13346
2.15297
2.16907
2.1057
1.81447
1.47497
1.40255
1.40002
1.40001
1.40001
1.40001
1.40001
1.40001
1.40001
1.40001
1.40001
1.40001
1.40001
1.40001
1.40001
1.40001
1.40001
1.40001
1.40001
1.40001
1.40001
2.15063
2.15061
2.15101
2.14661
2.1321
2.15046
2.16285
2.03878
1.70277
1.43674
1.40079
1.40001
1.40001
1.40001
1.40001
1.40001
1.40001
1.40001
1.40001
1.40001
1.40001
1.40001
1.40001
1.40001
1.40001
1.40001
1.40001
1.40001
1.40001
1.40001
2.15019
2.14719
2.15006
2.14992
2.13615
2.15405
2.15853
1.97872
1.60605
1.4153
1.40021
1.40001
1.40001
1.40001
1.40001
1.40001
1.40001
1.40001
1.40001
1.40001
1.40001
1.40001
1.40001
1.40001
1.40001
1.40001
1.40001
1.40001
1.40001
1.40001
2.15108
2.14381
2.145
2.15491
2.15097
2.15962
2.1532
1.88853
1.51239
1.40505
1.40005
1.40001
1.40001
1.40001
1.40001
1.40001
1.40001
1.40001
1.40001
1.40001
1.40001
1.40001
1.40001
1.40001
1.40001
1.40001
1.40001
1.40001
1.40001
1.40001
2.15218
2.14221
2.13894
2.15688
2.1682
2.14938
2.09562
1.76096
1.45548
1.40153
1.40002
1.40001
1.40001
1.40001
1.40001
1.40001
1.40001
1.40001
1.40001
1.40001
1.40001
1.40001
1.40001
1.40001
1.40001
1.40001
1.40001
1.40001
1.40001
1.40001
2.15169
2.14039
2.13366
2.1617
2.18148
2.14056
2.02199
1.65935
1.42498
1.40042
1.40001
1.40001
1.40001
1.40001
1.40001
1.40001
1.40001
1.40001
1.40001
1.40001
1.40001
1.40001
1.40001
1.40001
1.40001
1.40001
1.40001
1.40001
1.40001
1.40001
2.1497
2.1395
2.13195
2.1709
2.18755
2.14042
1.94409
1.55381
1.4084
1.4001
1.40001
1.40001
1.40001
1.40001
1.40001
1.40001
1.40001
1.40001
1.40001
1.40001
1.40001
1.40001
1.40001
1.40001
1.40001
1.40001
1.40001
1.40001
1.40001
1.40001
2.14352
2.13942
2.13308
2.17746
2.18975
2.11666
1.82693
1.47672
1.4026
1.40002
1.40001
1.40001
1.40001
1.40001
1.40001
1.40001
1.40001
1.40001
1.40001
1.40001
1.40001
1.40001
1.40001
1.40001
1.40001
1.40001
1.40001
1.40001
1.40001
1.40001
2.13635
2.14215
2.14283
2.18117
2.18906
2.05043
1.70476
1.43531
1.40071
1.40001
1.40001
1.40001
1.40001
1.40001
1.40001
1.40001
1.40001
1.40001
1.40001
1.40001
1.40001
1.40001
1.40001
1.40001
1.40001
1.40001
1.40001
1.40001
1.40001
1.40001
2.12844
2.1471
2.15849
2.18543
2.19034
1.9836
1.58893
1.41234
1.40016
1.40001
1.40001
1.40001
1.40001
1.40001
1.40001
1.40001
1.40001
1.40001
1.40001
1.40001
1.40001
1.40001
1.40001
1.40001
1.40001
1.40001
1.40001
1.40001
1.40001
1.40001
2.12132
2.15353
2.17711
2.18422
2.16753
1.86541
1.49221
1.40351
1.40003
1.40001
1.40001
1.40001
1.40001
1.40001
1.40001
1.40001
1.40001
1.40001
1.40001
1.40001
1.40001
1.40001
1.40001
1.40001
1.40001
1.40001
1.40001
1.40001
1.40001
1.40001
2.11876
2.16247
2.20013
2.16765
2.09239
1.7321
1.44259
1.40094
1.40001
1.40001
1.40001
1.40001
1.40001
1.40001
1.40001
1.40001
1.40001
1.40001
1.40001
1.40001
1.40001
1.40001
1.40001
1.40001
1.40001
1.40001
1.40001
1.40001
1.40001
1.40001
2.11933
2.18109
2.21589
2.16376
2.01134
1.61395
1.4153
1.40021
1.40001
1.40001
1.40001
1.40001
1.40001
1.40001
1.40001
1.40001
1.40001
1.40001
1.40001
1.40001
1.40001
1.40001
1.40001
1.40001
1.40001
1.40001
1.40001
1.40001
1.40001
1.40001
2.12883
2.19676
2.22152
2.16095
1.89699
1.5028
1.40409
1.40004
1.40001
1.40001
1.40001
1.40001
1.40001
1.40001
1.40001
1.40001
1.40001
1.40001
1.40001
1.40001
1.40001
1.40001
1.40001
1.40001
1.40001
1.40001
1.40001
1.40001
1.40001
1.40001
2.14491
2.20208
2.22054
2.09335
1.74527
1.44485
1.40106
1.40001
1.40001
1.40001
1.40001
1.40001
1.40001
1.40001
1.40001
1.40001
1.40001
1.40001
1.40001
1.40001
1.40001
1.40001
1.40001
1.40001
1.40001
1.40001
1.40001
1.40001
1.40001
1.40001
2.16742
2.20827
2.21974
2.01536
1.61654
1.41594
1.40022
1.40001
1.40001
1.40001
1.40001
1.40001
1.40001
1.40001
1.40001
1.40001
1.40001
1.40001
1.40001
1.40001
1.40001
1.40001
1.40001
1.40001
1.40001
1.40001
1.40001
1.40001
1.40001
1.40001
2.20613
2.22204
2.21003
1.89729
1.50069
1.40405
1.40004
1.40001
1.40001
1.40001
1.40001
1.40001
1.40001
1.40001
1.40001
1.40001
1.40001
1.40001
1.40001
1.40001
1.40001
1.40001
1.40001
1.40001
1.40001
1.40001
1.40001
1.40001
1.40001
1.40001
2.26531
2.20225
2.12526
1.72512
1.44132
1.40099
1.40001
1.40001
1.40001
1.40001
1.40001
1.40001
1.40001
1.40001
1.40001
1.40001
1.40001
1.40001
1.40001
1.40001
1.40001
1.40001
1.40001
1.40001
1.40001
1.40001
1.40001
1.40001
1.40001
1.40001
2.32839
2.1458
2.02438
1.6019
1.41508
1.40022
1.40001
1.40001
1.40001
1.40001
1.40001
1.40001
1.40001
1.40001
1.40001
1.40001
1.40001
1.40001
1.40001
1.40001
1.40001
1.40001
1.40001
1.40001
1.40001
1.40001
1.40001
1.40001
1.40001
1.40001
2.38458
2.11506
1.87065
1.49293
1.40391
1.40005
1.40001
1.40001
1.40001
1.40001
1.40001
1.40001
1.40001
1.40001
1.40001
1.40001
1.40001
1.40001
1.40001
1.40001
1.40001
1.40001
1.40001
1.40001
1.40001
1.40001
1.40001
1.40001
1.40001
1.40001
2.40759
2.04708
1.70763
1.43871
1.40106
1.40001
1.40001
1.40001
1.40001
1.40001
1.40001
1.40001
1.40001
1.40001
1.40001
1.40001
1.40001
1.40001
1.40001
1.40001
1.40001
1.40001
1.40001
1.40001
1.40001
1.40001
1.40001
1.40001
1.40001
1.40001
2.39909
1.94232
1.58824
1.41491
1.40026
1.40001
1.40001
1.40001
1.40001
1.40001
1.40001
1.40001
1.40001
1.40001
1.40001
1.40001
1.40001
1.40001
1.40001
1.40001
1.40001
1.40001
1.40001
1.40001
1.40001
1.40001
1.40001
1.40001
1.40001
1.40001
2.36707
1.82732
1.49341
1.4043
1.40005
1.40001
1.40001
1.40001
1.40001
1.40001
1.40001
1.40001
1.40001
1.40001
1.40001
1.40001
1.40001
1.40001
1.40001
1.40001
1.40001
1.40001
1.40001
1.40001
1.40001
1.40001
1.40001
1.40001
1.40001
1.40001
2.23745
1.70027
1.44407
1.40125
1.40001
1.40001
1.40001
1.40001
1.40001
1.40001
1.40001
1.40001
1.40001
1.40001
1.40001
1.40001
1.40001
1.40001
1.40001
1.40001
1.40001
1.40001
1.40001
1.40001
1.40001
1.40001
1.40001
1.40001
1.40001
1.40001
2.09843
1.60034
1.41701
1.40029
1.40001
1.40001
1.40001
1.40001
1.40001
1.40001
1.40001
1.40001
1.40001
1.40001
1.40001
1.40001
1.40001
1.40001
1.40001
1.40001
1.40001
1.40001
1.40001
1.40001
1.40001
1.40001
1.40001
1.40001
1.40001
1.40001
1.94967
1.5037
1.40477
1.40005
1.40001
1.40001
1.40001
1.40001
1.40001
1.40001
1.40001
1.40001
1.40001
1.40001
1.40001
1.40001
1.40001
1.40001
1.40001
1.40001
1.40001
1.40001
1.40001
1.40001
1.40001
1.40001
1.40001
1.40001
1.40001
1.40001
1.75288
1.43836
1.40084
1.40001
1.40001
1.40001
1.40001
1.40001
1.40001
1.40001
1.40001
1.40001
1.40001
1.40001
1.40001
1.40001
1.40001
1.40001
1.40001
1.40001
1.40001
1.40001
1.40001
1.40001
1.40001
1.40001
1.40001
1.40001
1.40001
1.40001
1.53163
1.40865
1.40007
1.40001
1.40001
1.40001
1.40001
1.40001
1.40001
1.40001
1.40001
1.40001
1.40001
1.40001
1.40001
1.40001
1.40001
1.40001
1.40001
1.40001
1.40001
1.40001
1.40001
1.40001
1.40001
1.40001
1.40001
1.40001
1.40001
1.40001
1.40001
1.40001
1.40001
1.40001
1.40001
1.40001
1.40001
1.40001
1.40001
1.40001
1.40001
1.40001
1.40001
1.40001
1.40001
1.40001
1.40001
1.40001
1.40001
1.40001
1.40001
1.40001
1.40001
1.40001
1.40001
1.40001
1.40001
1.40001
1.40001
1.40001
1.40001
1.40001
1.40001
1.40001
1.40001
1.40001
1.40001
1.40001
1.40001
1.40001
1.40001
1.40001
1.40001
1.40001
1.40001
1.40001
1.40001
1.40001
1.40001
1.40001
1.40001
1.40001
1.40001
1.40001
1.40001
1.40001
1.40001
1.40001
1.40001
1.40001
1.40001
1.40001
1.40001
1.40001
1.40001
1.40001
1.40001
1.40001
1.40001
1.40001
1.40001
1.40001
1.40001
1.40001
1.40001
1.40001
1.40001
1.40001
1.40001
1.40001
1.40001
1.40001
1.40001
1.40001
1.40001
1.40001
1.40001
1.40001
1.40001
1.40001
1.40001
1.40001
1.40001
1.40001
1.40001
1.40001
1.40001
1.40001
1.40001
1.40001
1.40001
1.40001
1.40001
1.40001
1.40001
1.40001
1.40001
1.40001
1.40001
1.40001
1.40001
1.40001
1.40001
1.40001
1.40001
1.40001
1.40001
1.40001
1.40001
1.40001
1.40001
1.40001
1.40001
1.40001
1.40001
1.40001
1.40001
1.40001
1.40001
1.40001
1.40001
1.40001
1.40001
1.40001
1.40001
1.40001
1.40001
1.40001
1.40001
1.40001
1.40001
1.40001
1.40001
1.40001
1.40001
1.40001
1.40001
1.40001
1.40001
1.40001
1.40001
1.40001
1.40001
1.40001
1.40001
1.40001
1.40001
1.40001
1.40001
1.40001
1.40001
1.40001
1.40001
1.40001
1.40001
1.40001
1.40001
1.40001
1.40001
1.40001
1.40001
1.40001
1.40001
1.40001
1.40001
1.40001
1.40001
1.40001
1.40001
1.40001
1.40001
1.40001
1.40001
1.40001
1.40001
1.40001
1.40001
1.40001
1.40001
1.40001
1.40001
1.40001
1.40001
1.40001
1.40001
1.40001
1.40001
1.40001
1.40001
1.40001
1.40001
1.40001
1.40001
1.40001
1.40001
1.40001
1.40001
1.40001
1.40001
1.40001
1.40001
1.40001
1.40001
1.40001
1.40001
1.40001
1.40001
1.40001
1.40001
1.40001
1.40001
1.40001
1.40001
1.40001
1.40001
1.40001
1.40001
1.40001
1.40001
1.40001
1.40001
1.40001
1.40001
1.40001
1.40001
1.40001
1.40001
1.40001
1.40001
1.40001
1.40001
1.40001
1.40001
1.40001
1.40001
1.40001
1.40001
1.40001
1.40001
1.40001
1.40001
1.40001
1.40001
1.40001
1.40001
1.40001
1.40001
1.40001
1.40001
1.40001
1.40001
1.40001
1.40001
1.40001
1.40001
1.40001
1.40001
1.40001
1.40001
1.40001
1.40001
1.40001
1.40001
1.40001
1.40001
1.40001
1.40001
1.40001
1.40001
1.40001
1.40001
1.40001
1.40001