/*--------------------------------*- C++ -*----------------------------------*\
  =========                 |
  \\      /  F ield         | OpenFOAM: The Open Source CFD Toolbox
   \\    /   O peration     | Website:  https://openfoam.org
    \\  /    A nd           | Version:  7
     \\/     M anipulation  |
\*---------------------------------------------------------------------------*/
FoamFile
{
    version     2.0;
    format      ascii;
    class       volScalarField;
    location    "3.5";
    object      rho;
}
// * * * * * * * * * * * * * * * * * * * * * * * * * * * * * * * * * * * * * //

dimensions      [1 -3 0 0 0 0 0];

internalField   nonuniform List<scalar> 
14400
(
1.00597
1.02412
1.04534
1.06783
1.09136
1.11539
1.14034
1.16518
1.19104
1.21584
1.24201
1.26553
1.29091
1.31142
1.33377
1.34933
1.36388
1.37271
1.3764
1.37382
1.36291
1.34468
1.34503
1.34931
1.35836
1.36712
1.36633
1.36136
1.3542
1.34749
1.3461
1.34602
1.34037
1.33245
1.32935
1.33002
1.32847
1.32348
1.32064
1.31563
0.992384
0.993611
0.996
0.99992
1.00553
1.01338
1.02338
1.03635
1.05172
1.07098
1.0926
1.1186
1.14612
1.17717
1.20867
1.23983
1.27191
1.29569
1.32171
1.33397
1.34259
1.35176
1.36228
1.36951
1.37039
1.36975
1.36439
1.35956
1.35503
1.35287
1.35096
1.34645
1.33931
1.33365
1.33283
1.33257
1.32904
1.32498
1.32175
1.31637
0.993334
0.99337
0.993418
0.99347
0.993541
0.993728
0.994136
0.994899
0.996177
0.998432
1.00199
1.00797
1.01662
1.03051
1.04896
1.07674
1.11061
1.15509
1.2049
1.25635
1.31222
1.34446
1.36538
1.36904
1.36946
1.36737
1.36078
1.36149
1.36395
1.36229
1.35562
1.34596
1.3398
1.33941
1.33875
1.33545
1.33042
1.32807
1.32472
1.31917
0.995497
0.995408
0.995338
0.995277
0.995235
0.995218
0.995198
0.9952
0.995203
0.995227
0.995325
0.995548
0.995942
0.996641
0.998137
1.00148
1.00764
1.02057
1.04105
1.07801
1.12939
1.1926
1.26213
1.30324
1.34372
1.35006
1.35958
1.3696
1.37383
1.36993
1.35994
1.34677
1.34575
1.34797
1.34599
1.33859
1.33371
1.33245
1.3289
1.3228
0.997924
0.997825
0.997722
0.997619
0.99753
0.99745
0.997361
0.997246
0.997122
0.997022
0.996989
0.997026
0.997124
0.997341
0.997517
0.997757
0.998067
0.998668
0.99994
1.00418
1.0134
1.03723
1.07712
1.14367
1.22216
1.2882
1.34767
1.36454
1.3711
1.36648
1.35096
1.34972
1.3528
1.35307
1.34891
1.34118
1.33731
1.33576
1.33103
1.32594
0.99851
0.998527
0.998554
0.998599
0.998671
0.99877
0.998894
0.999051
0.999259
0.99954
0.999868
1.0002
1.00061
1.00089
1.00109
1.0014
1.00152
1.00163
1.00207
1.00229
1.00256
1.00353
1.00698
1.01994
1.04804
1.10898
1.18889
1.2566
1.31841
1.32918
1.34072
1.35685
1.36061
1.35657
1.34557
1.34059
1.34101
1.33832
1.33158
1.32841
0.998727
0.998908
0.999129
0.999395
0.999681
1.00001
1.00041
1.00084
1.00133
1.00181
1.00226
1.00273
1.0031
1.00336
1.00365
1.00376
1.00379
1.00381
1.00386
1.00395
1.00394
1.00391
1.00358
1.00306
1.0039
1.01119
1.03331
1.08867
1.16733
1.25081
1.32203
1.34643
1.3542
1.34774
1.33973
1.34334
1.34342
1.33843
1.33145
1.3304
1.00139
1.00158
1.00186
1.00207
1.00226
1.00252
1.00277
1.00296
1.00318
1.00333
1.00345
1.00363
1.00371
1.00368
1.00363
1.00356
1.0034
1.00321
1.00324
1.00325
1.00316
1.00287
1.00196
1.00036
0.999091
0.997976
0.998715
1.00496
1.02574
1.08186
1.16433
1.24414
1.30383
1.323
1.33737
1.34998
1.34578
1.33463
1.33124
1.33251
1.00403
1.00417
1.00425
1.00424
1.00417
1.00413
1.00411
1.00405
1.00393
1.00372
1.00363
1.00361
1.00354
1.00338
1.00313
1.00288
1.00278
1.00263
1.00229
1.00176
1.00105
1.00025
0.999098
0.997994
0.997821
0.997153
0.995894
0.995686
0.996295
1.00231
1.02444
1.08299
1.16955
1.27108
1.32361
1.34433
1.33482
1.32964
1.33401
1.33382
1.00395
1.00377
1.0036
1.00347
1.00333
1.00316
1.00296
1.00273
1.00246
1.00213
1.00181
1.00131
1.00083
1.00024
0.999407
0.999221
0.999312
0.999298
0.999094
0.99876
0.998482
0.997944
0.997773
0.997774
0.997617
0.997958
0.998068
0.997842
0.997239
0.995169
0.993247
0.997637
1.02544
1.09506
1.18901
1.28114
1.30082
1.32802
1.33919
1.33401
0.999043
0.998741
0.998402
0.998045
0.997677
0.997339
0.996908
0.996483
0.996175
0.995885
0.99562
0.995364
0.995161
0.994994
0.995091
0.995536
0.996225
0.996967
0.997334
0.997489
0.997692
0.997742
0.997757
0.998839
1.00118
1.00213
1.00162
0.999855
0.997759
0.994831
0.991278
0.984708
0.984394
0.992982
1.03759
1.12659
1.239
1.31598
1.3342
1.32705
0.992436
0.992433
0.992489
0.992458
0.99226
0.99216
0.992176
0.992225
0.992214
0.992386
0.992558
0.992773
0.992976
0.993012
0.993181
0.993645
0.993895
0.994475
0.995313
0.996042
0.996848
0.997941
0.99994
1.00236
1.00371
1.00347
1.00201
0.999599
0.995882
0.99119
0.986654
0.982881
0.979318
0.975447
0.979213
1.00201
1.07618
1.18074
1.26795
1.30622
0.996722
0.996794
0.996983
0.997265
0.997586
0.997917
0.998117
0.998475
0.999125
0.999551
1.00025
1.00141
1.00263
1.00313
1.00358
1.00481
1.00495
1.00399
1.00355
1.00337
1.0038
1.00394
1.00448
1.00449
1.00368
1.00148
0.998277
0.994993
0.991053
0.986343
0.983085
0.980925
0.978536
0.976456
0.974412
0.974675
0.984267
1.02724
1.12104
1.25914
1.02674
1.02626
1.02571
1.0253
1.02513
1.02516
1.02546
1.02608
1.02644
1.02634
1.02629
1.0265
1.02675
1.02681
1.02613
1.02423
1.0208
1.01663
1.01267
1.00929
1.00541
1.00358
1.0034
1.00263
0.999592
0.994061
0.991781
0.991276
0.989308
0.984655
0.982448
0.981728
0.982145
0.982649
0.981259
0.977397
0.970646
0.971261
0.990383
1.11064
1.06885
1.06756
1.0658
1.0644
1.06254
1.05982
1.05915
1.05821
1.05657
1.05514
1.05286
1.04865
1.0473
1.04755
1.0465
1.04308
1.03911
1.03572
1.03191
1.02756
1.02373
1.02032
1.01767
1.01483
1.01034
1.00415
1.00082
1.00011
0.99911
0.996354
0.995138
0.994983
0.993833
0.990695
0.98618
0.97897
0.970703
0.962938
0.960336
0.999119
1.17678
1.17455
1.1736
1.17266
1.17062
1.16867
1.1671
1.165
1.16233
1.1591
1.15517
1.15076
1.14622
1.14186
1.13693
1.13103
1.12648
1.12303
1.11778
1.1127
1.10931
1.1044
1.09678
1.08947
1.08187
1.07135
1.06082
1.0532
1.04592
1.03608
1.02508
1.01494
1.00397
0.994153
0.983536
0.975772
0.9696
0.964132
0.960387
0.962998
1.31409
1.31142
1.30951
1.30754
1.30482
1.30191
1.2987
1.29361
1.29008
1.28705
1.28253
1.27745
1.27206
1.26666
1.26113
1.25461
1.24741
1.23951
1.23042
1.22032
1.20973
1.1976
1.18327
1.17031
1.15921
1.14651
1.13248
1.11577
1.09783
1.08064
1.06329
1.04724
1.03126
1.01702
1.00458
0.995182
0.987072
0.984301
0.979893
0.971367
1.48953
1.48627
1.48398
1.48161
1.47797
1.47451
1.47098
1.46546
1.46042
1.45603
1.45011
1.44308
1.43586
1.42791
1.41942
1.41038
1.40025
1.39005
1.37948
1.36725
1.35474
1.34141
1.32661
1.30951
1.29049
1.27027
1.25324
1.23495
1.21405
1.19209
1.17087
1.15024
1.13107
1.10976
1.08948
1.06854
1.04653
1.02583
1.00532
0.977452
1.68175
1.67871
1.67647
1.67405
1.67032
1.6665
1.66256
1.65698
1.65156
1.64652
1.6401
1.63239
1.62433
1.61557
1.60645
1.59671
1.58614
1.57456
1.56159
1.54669
1.53013
1.51227
1.49276
1.47185
1.45
1.42716
1.40197
1.37349
1.34658
1.3196
1.29158
1.26026
1.23086
1.20046
1.17035
1.13859
1.10794
1.07598
1.04867
1.01142
1.83636
1.83511
1.83293
1.83108
1.8293
1.82655
1.82359
1.82053
1.81648
1.81253
1.80864
1.8034
1.79727
1.79054
1.78328
1.77541
1.76645
1.7571
1.74667
1.73423
1.71974
1.70385
1.68488
1.66419
1.64076
1.61393
1.584
1.55107
1.51444
1.47928
1.44459
1.40887
1.37172
1.33418
1.29792
1.26072
1.22642
1.18986
1.16012
1.10815
1.86071
1.85988
1.85951
1.85936
1.85948
1.85954
1.8594
1.8594
1.85968
1.86016
1.86106
1.86236
1.86257
1.86187
1.86105
1.86042
1.85787
1.85375
1.85005
1.84587
1.83945
1.83161
1.822
1.81189
1.80203
1.78876
1.76897
1.74136
1.7079
1.67127
1.63051
1.58822
1.54387
1.49897
1.45087
1.40378
1.35622
1.30893
1.26644
1.19585
1.82952
1.83014
1.83024
1.82997
1.83001
1.83063
1.83181
1.833
1.83441
1.83635
1.83858
1.84104
1.84369
1.84585
1.84718
1.84793
1.84845
1.84968
1.85017
1.84862
1.84745
1.84797
1.84734
1.84302
1.8404
1.83838
1.83381
1.82657
1.81671
1.80392
1.78475
1.7579
1.72458
1.68522
1.63868
1.5865
1.53073
1.47213
1.41911
1.33304
1.67642
1.67798
1.67954
1.68184
1.68512
1.68846
1.69204
1.69533
1.69917
1.70453
1.70984
1.71503
1.72066
1.72718
1.73334
1.73929
1.74578
1.75227
1.75952
1.76772
1.77646
1.78643
1.79614
1.80325
1.81093
1.81484
1.81556
1.81658
1.81574
1.81295
1.80798
1.80038
1.79009
1.77647
1.75888
1.73473
1.70067
1.65502
1.60476
1.50551
1.46682
1.46846
1.47006
1.47139
1.47306
1.47529
1.47764
1.48011
1.48292
1.48623
1.4899
1.49394
1.4985
1.50372
1.50974
1.51662
1.52451
1.53351
1.54366
1.55546
1.56877
1.58361
1.60021
1.61792
1.63713
1.65755
1.67853
1.70135
1.72199
1.73772
1.75405
1.76293
1.76845
1.76799
1.76334
1.75434
1.74364
1.72962
1.71159
1.65905
1.40377
1.40389
1.40402
1.40418
1.40439
1.4046
1.40484
1.40514
1.40546
1.40584
1.4063
1.40683
1.40745
1.40821
1.40912
1.41024
1.41162
1.41334
1.41545
1.41811
1.42141
1.42559
1.43088
1.43763
1.44613
1.45723
1.47118
1.48838
1.5096
1.53445
1.56248
1.59316
1.62382
1.65331
1.67828
1.69754
1.70864
1.71215
1.70902
1.69062
1.40006
1.40006
1.40007
1.40007
1.40007
1.40008
1.40008
1.40009
1.4001
1.4001
1.40011
1.40013
1.40014
1.40016
1.40019
1.40022
1.40026
1.40031
1.40038
1.40048
1.40061
1.40079
1.40105
1.40144
1.402
1.40286
1.40416
1.40619
1.40928
1.41409
1.42128
1.43198
1.44696
1.46716
1.4929
1.52324
1.55612
1.58872
1.61674
1.64025
1.40001
1.40001
1.40001
1.40001
1.40001
1.40001
1.40001
1.40001
1.40001
1.40001
1.40001
1.40001
1.40001
1.40001
1.40001
1.40001
1.40001
1.40001
1.40001
1.40001
1.40001
1.40001
1.40002
1.40002
1.40003
1.40004
1.40007
1.40011
1.40019
1.40034
1.40062
1.40117
1.40223
1.40419
1.40778
1.41396
1.42401
1.43935
1.45869
1.49817
1.40001
1.40001
1.40001
1.40001
1.40001
1.40001
1.40001
1.40001
1.40001
1.40001
1.40001
1.40001
1.40001
1.40001
1.40001
1.40001
1.40001
1.40001
1.40001
1.40001
1.40001
1.40001
1.40001
1.40001
1.40001
1.40001
1.40001
1.40001
1.40001
1.40001
1.40001
1.40002
1.40004
1.40007
1.40016
1.40037
1.40084
1.4019
1.40378
1.41159
1.40001
1.40001
1.40001
1.40001
1.40001
1.40001
1.40001
1.40001
1.40001
1.40001
1.40001
1.40001
1.40001
1.40001
1.40001
1.40001
1.40001
1.40001
1.40001
1.40001
1.40001
1.40001
1.40001
1.40001
1.40001
1.40001
1.40001
1.40001
1.40001
1.40001
1.40001
1.40001
1.40001
1.40001
1.40001
1.40001
1.40001
1.40003
1.40007
1.40035
1.40001
1.40001
1.40001
1.40001
1.40001
1.40001
1.40001
1.40001
1.40001
1.40001
1.40001
1.40001
1.40001
1.40001
1.40001
1.40001
1.40001
1.40001
1.40001
1.40001
1.40001
1.40001
1.40001
1.40001
1.40001
1.40001
1.40001
1.40001
1.40001
1.40001
1.40001
1.40001
1.40001
1.40001
1.40001
1.40001
1.40001
1.40001
1.40001
1.40001
0.992045
0.991888
0.993316
0.995599
0.998058
0.998494
0.998522
1.00115
1.00398
1.00419
0.999341
0.992448
0.996687
1.02752
1.07066
1.17875
1.31747
1.49344
1.68562
1.83787
1.86158
1.82857
1.67357
1.46526
1.4036
1.40006
1.40001
1.40001
1.40001
1.40001
0.991939
0.991829
0.993366
0.995791
0.998281
0.998481
0.998307
1.00086
1.00399
1.00445
0.999602
0.992399
0.996771
1.02895
1.07362
1.18147
1.32189
1.49823
1.69022
1.84032
1.86198
1.82754
1.66942
1.46295
1.40337
1.40005
1.40001
1.40001
1.40001
1.40001
0.991776
0.991731
0.993405
0.99597
0.998494
0.998469
0.998087
1.00052
1.004
1.00464
0.999865
0.992281
0.996747
1.03017
1.07624
1.18431
1.32598
1.50262
1.69441
1.84292
1.86187
1.82694
1.66516
1.46059
1.40317
1.40005
1.40001
1.40001
1.40001
1.40001
0.991614
0.99166
0.993473
0.996159
0.998709
0.998442
0.99788
1.00013
1.00388
1.00474
1.00012
0.992081
0.996656
1.03068
1.07877
1.18777
1.33025
1.50767
1.69926
1.84559
1.86171
1.82639
1.6609
1.45816
1.40296
1.40005
1.40001
1.40001
1.40001
1.40001
0.991456
0.991616
0.993565
0.996378
0.998908
0.998383
0.997704
0.999736
1.00365
1.00478
1.00039
0.991889
0.996535
1.03056
1.0814
1.19138
1.3349
1.51373
1.70495
1.84789
1.86214
1.82567
1.65661
1.45566
1.40275
1.40004
1.40001
1.40001
1.40001
1.40001
0.991291
0.991617
0.993669
0.996624
0.9991
0.998353
0.997569
0.999372
1.00352
1.0048
1.00069
0.991752
0.996513
1.03028
1.08427
1.19501
1.34023
1.52006
1.71087
1.84976
1.86339
1.82455
1.6518
1.45303
1.40254
1.40004
1.40001
1.40001
1.40001
1.40001
0.9911
0.991609
0.993778
0.996917
0.999285
0.998364
0.997499
0.998998
1.00337
1.00487
1.00104
0.991694
0.996524
1.03091
1.08746
1.19878
1.34596
1.52639
1.7167
1.85139
1.86483
1.82327
1.64636
1.45035
1.40234
1.40004
1.40001
1.40001
1.40001
1.40001
0.99082
0.991602
0.99392
0.997239
0.999542
0.998458
0.997494
0.998647
1.00308
1.00496
1.00142
0.991706
0.996556
1.03394
1.09105
1.20276
1.35202
1.53324
1.72277
1.85304
1.86562
1.82182
1.64059
1.44766
1.40214
1.40003
1.40001
1.40001
1.40001
1.40001
0.990461
0.991631
0.994078
0.997563
0.999803
0.998636
0.997523
0.998344
1.0028
1.00499
1.00179
0.991749
0.996783
1.0375
1.09479
1.20706
1.35873
1.54086
1.72932
1.8549
1.86567
1.81991
1.63468
1.44493
1.40195
1.40003
1.40001
1.40001
1.40001
1.40001
0.990025
0.991621
0.994249
0.997855
0.999997
0.998814
0.997515
0.998043
1.00254
1.00498
1.0021
0.991923
0.9974
1.04019
1.09856
1.21226
1.36598
1.54902
1.73631
1.85691
1.86521
1.81748
1.62853
1.44219
1.40177
1.40003
1.40001
1.40001
1.40001
1.40001
0.989625
0.991577
0.994456
0.998111
1.0001
0.998874
0.997481
0.997652
1.00216
1.00484
1.00235
0.992536
0.998242
1.04252
1.10249
1.21825
1.37368
1.55758
1.74374
1.85891
1.86441
1.81471
1.62203
1.43943
1.40159
1.40002
1.40001
1.40001
1.40001
1.40001
0.989288
0.991582
0.994714
0.99836
1.00016
0.998854
0.997282
0.997137
1.00165
1.00456
1.00262
0.993223
0.998967
1.04368
1.10662
1.22465
1.38186
1.5665
1.75159
1.86067
1.86193
1.81147
1.61515
1.43668
1.40141
1.40002
1.40001
1.40001
1.40001
1.40001
0.989043
0.991643
0.994985
0.998639
1.00024
0.99881
0.996925
0.996602
1.00105
1.00444
1.00305
0.993734
0.999179
1.04349
1.11098
1.23137
1.3905
1.57604
1.75985
1.86189
1.85995
1.80739
1.60784
1.43391
1.40125
1.40002
1.40001
1.40001
1.40001
1.40001
0.98883
0.991706
0.995232
0.998922
1.00047
0.998963
0.996812
0.996221
1.00039
1.00436
1.00323
0.994008
0.998881
1.04284
1.11571
1.23859
1.39982
1.58666
1.76861
1.86247
1.85984
1.80246
1.60002
1.43113
1.40109
1.40002
1.40001
1.40001
1.40001
1.40001
0.988627
0.991659
0.995401
0.999157
1.00064
0.999415
0.996825
0.99601
0.999667
1.0039
1.00319
0.994244
0.998941
1.04435
1.12101
1.24645
1.40993
1.59832
1.77802
1.8631
1.8609
1.79712
1.59159
1.42834
1.40095
1.40002
1.40001
1.40001
1.40001
1.40001
0.98848
0.991519
0.995509
0.999365
1.00066
0.999593
0.996856
0.995898
0.998908
1.00318
1.00298
0.995456
1.00072
1.05113
1.1268
1.25523
1.42085
1.61084
1.78796
1.86429
1.86129
1.79156
1.58257
1.42556
1.40081
1.40001
1.40001
1.40001
1.40001
1.40001
0.988436
0.991484
0.995639
0.999574
1.00063
0.999585
0.996816
0.995822
0.99816
1.00265
1.00291
0.997454
1.00416
1.05801
1.13242
1.26511
1.43257
1.62398
1.79802
1.8658
1.86089
1.78565
1.5731
1.42282
1.40068
1.40001
1.40001
1.40001
1.40001
1.40001
0.988469
0.99157
0.995894
0.999725
1.00069
0.99963
0.99688
0.995811
0.997472
1.00186
1.00296
0.999023
1.00652
1.06244
1.13776
1.27575
1.44528
1.63754
1.808
1.86693
1.85986
1.77921
1.56314
1.42015
1.40057
1.40001
1.40001
1.40001
1.40001
1.40001
0.988582
0.991665
0.99604
0.999781
1.00078
0.999885
0.997186
0.996008
0.996852
1.00093
1.00281
0.999833
1.00812
1.0666
1.14387
1.28741
1.45922
1.6519
1.81777
1.86733
1.85846
1.77178
1.5525
1.41758
1.40047
1.40001
1.40001
1.40001
1.40001
1.40001
0.988813
0.991712
0.996079
0.999737
1.00078
1.00002
0.997766
0.996286
0.996353
0.999838
1.00251
0.99998
1.00902
1.07181
1.15273
1.30051
1.47469
1.66717
1.8271
1.86722
1.85658
1.76283
1.54142
1.41516
1.40038
1.40001
1.40001
1.40001
1.40001
1.40001
0.989463
0.99174
0.996008
0.999536
1.00072
0.999999
0.998264
0.996456
0.996163
0.998549
1.00193
0.999803
1.00925
1.07827
1.16503
1.31517
1.49142
1.68301
1.83575
1.8674
1.85459
1.75269
1.53022
1.4129
1.40031
1.40001
1.40001
1.40001
1.40001
1.40001
0.99011
0.99218
0.995843
0.999264
1.0006
0.999906
0.998803
0.996674
0.996224
0.997087
1.00163
0.999671
1.00977
1.08618
1.17937
1.33086
1.5089
1.69946
1.84346
1.86817
1.85318
1.74188
1.51876
1.4108
1.40024
1.40001
1.40001
1.40001
1.40001
1.40001
0.990764
0.992722
0.995693
0.998745
1.00029
0.999746
0.999391
0.997037
0.99636
0.995752
1.00169
1.0002
1.01283
1.09468
1.19415
1.34724
1.52754
1.71667
1.85014
1.87054
1.85297
1.73012
1.50697
1.4089
1.40019
1.40001
1.40001
1.40001
1.40001
1.40001
0.991733
0.993192
0.995631
0.99792
0.999787
0.999676
0.999813
0.997251
0.995846
0.994621
1.0019
1.00305
1.01712
1.1015
1.20932
1.36463
1.54792
1.73466
1.85615
1.87247
1.85463
1.71685
1.49505
1.40719
1.40014
1.40001
1.40001
1.40001
1.40001
1.40001
0.993045
0.993619
0.995591
0.997026
0.999129
0.999641
1.00022
0.99764
0.995163
0.992993
1.00133
1.00911
1.02202
1.10608
1.22518
1.38389
1.5703
1.7532
1.86194
1.87246
1.85491
1.70169
1.48329
1.4057
1.40011
1.40001
1.40001
1.40001
1.40001
1.40001
0.994244
0.994048
0.995482
0.996466
0.998457
0.999353
1.00053
0.998094
0.994409
0.991185
1.00027
1.01487
1.02891
1.1112
1.24275
1.40569
1.59422
1.77219
1.86741
1.87098
1.84835
1.68437
1.47194
1.40442
1.40008
1.40001
1.40001
1.40001
1.40001
1.40001
0.995286
0.994566
0.995483
0.996032
0.997841
0.999178
1.00076
0.998608
0.993818
0.989422
0.998878
1.01982
1.03766
1.12416
1.26235
1.42986
1.62002
1.79119
1.87213
1.86922
1.83374
1.66539
1.46113
1.40335
1.40006
1.40001
1.40001
1.40001
1.40001
1.40001
0.99636
0.995087
0.995473
0.995778
0.997336
0.999015
1.00095
0.99924
0.993645
0.98825
0.997831
1.0244
1.04704
1.1437
1.2835
1.45702
1.64737
1.80993
1.87518
1.86997
1.82268
1.64597
1.45083
1.40246
1.40004
1.40001
1.40001
1.40001
1.40001
1.40001
0.997331
0.995639
0.995448
0.995684
0.996969
0.998878
1.00116
0.999993
0.994288
0.98792
0.997225
1.02862
1.05736
1.16362
1.30634
1.48683
1.67628
1.82768
1.87762
1.87366
1.81386
1.6253
1.44107
1.40175
1.40003
1.40001
1.40001
1.40001
1.40001
1.40001
0.997895
0.996203
0.99569
0.995858
0.996784
0.998633
1.00132
1.00073
0.996046
0.988011
0.996255
1.03156
1.0703
1.18533
1.33269
1.51955
1.7063
1.84329
1.87965
1.8754
1.8042
1.60187
1.43205
1.40119
1.40002
1.40001
1.40001
1.40001
1.40001
1.40001
0.998063
0.996569
0.996135
0.996438
0.997064
0.998148
1.0012
1.00117
0.997256
0.987799
0.993125
1.03383
1.08794
1.20966
1.36417
1.55502
1.73637
1.856
1.88105
1.87487
1.79094
1.57623
1.42415
1.40079
1.40001
1.40001
1.40001
1.40001
1.40001
1.40001
0.997532
0.996626
0.996763
0.997295
0.99749
0.997501
1.00065
1.0013
0.99751
0.987009
0.991226
1.03628
1.10912
1.23581
1.40008
1.59272
1.76641
1.86545
1.88158
1.87048
1.77112
1.54992
1.41757
1.4005
1.40001
1.40001
1.40001
1.40001
1.40001
1.40001
0.996125
0.99656
0.997507
0.998349
0.997824
0.997115
0.999762
1.00106
0.997576
0.986874
0.991669
1.04645
1.13212
1.26513
1.43973
1.63387
1.79548
1.87215
1.88181
1.86142
1.74685
1.5244
1.41233
1.40031
1.40001
1.40001
1.40001
1.40001
1.40001
1.40001
0.994251
0.995472
0.998143
0.999514
0.998598
0.997597
0.998071
0.999679
0.998562
0.991264
0.998558
1.06841
1.15638
1.30096
1.48426
1.67778
1.82207
1.87697
1.8816
1.85138
1.72137
1.50046
1.40828
1.40018
1.40001
1.40001
1.40001
1.40001
1.40001
1.40001
0.991266
0.994725
0.998733
1.00058
1.00045
0.998669
0.997122
0.9971
0.999636
0.998173
1.00771
1.08559
1.1831
1.34448
1.53349
1.72192
1.84541
1.87997
1.88002
1.84163
1.69305
1.47791
1.40524
1.4001
1.40001
1.40001
1.40001
1.40001
1.40001
1.40001
0.989435
0.993421
0.998497
1.00108
1.00194
1.00126
0.997264
0.992365
0.999846
1.00406
1.01536
1.10231
1.22142
1.39466
1.58719
1.76481
1.86415
1.88144
1.88013
1.83306
1.65828
1.45681
1.40308
1.40006
1.40001
1.40001
1.40001
1.40001
1.40001
1.40001
0.988654
0.991414
0.997064
1.0008
1.00291
1.00332
0.997596
0.988999
0.993965
1.0093
1.02558
1.12751
1.2729
1.45139
1.64491
1.80417
1.87751
1.8824
1.88108
1.82202
1.61668
1.43847
1.40168
1.40003
1.40001
1.40001
1.40001
1.40001
1.40001
1.40001
0.988443
0.990366
0.994413
0.999501
1.00406
1.0044
0.997251
0.985641
0.989043
1.01481
1.04758
1.16966
1.33054
1.51614
1.70471
1.83697
1.88555
1.88292
1.87595
1.78901
1.5728
1.42435
1.40085
1.40002
1.40001
1.40001
1.40001
1.40001
1.40001
1.40001
0.990504
0.990108
0.991714
0.997488
1.00458
1.00525
0.997525
0.983174
0.987629
1.02582
1.08754
1.22115
1.39385
1.58952
1.76263
1.8613
1.88901
1.88344
1.86281
1.74986
1.53257
1.41438
1.4004
1.40001
1.40001
1.40001
1.40001
1.40001
1.40001
1.40001
0.991101
0.989805
0.991164
0.99578
1.00334
1.00573
1.00022
0.983149
0.988312
1.0446
1.13617
1.2814
1.46992
1.66825
1.81396
1.87602
1.8907
1.88225
1.85169
1.71316
1.49505
1.4076
1.40017
1.40001
1.40001
1.40001
1.40001
1.40001
1.40001
1.40001
1.40001
1.40001
1.40001
1.40001
1.40001
1.40001
1.40001
1.40001
1.40001
1.40001
1.40001
1.40001
1.40053
1.42064
1.57335
1.79061
1.86479
1.89767
1.90239
1.89466
1.88674
1.88463
1.88489
1.88879
1.89251
1.8926
1.89105
1.88831
1.88006
1.80129
1.40001
1.40001
1.40001
1.40001
1.40001
1.40001
1.40001
1.40001
1.40001
1.40001
1.40001
1.40001
1.40065
1.42342
1.58115
1.79695
1.86729
1.89758
1.90184
1.89449
1.88675
1.88466
1.88514
1.88907
1.89263
1.89262
1.89088
1.88759
1.86342
1.6895
1.40001
1.40001
1.40001
1.40001
1.40001
1.40001
1.40001
1.40001
1.40001
1.40001
1.40001
1.40001
1.40078
1.42614
1.58956
1.80482
1.86745
1.89682
1.90121
1.89426
1.88676
1.88469
1.88528
1.88913
1.89273
1.89264
1.89054
1.88585
1.83572
1.57351
1.40001
1.40001
1.40001
1.40001
1.40001
1.40001
1.40001
1.40001
1.40001
1.40001
1.40001
1.40001
1.40092
1.42928
1.60198
1.81413
1.86729
1.8956
1.90058
1.89399
1.88676
1.88473
1.88531
1.88916
1.89283
1.89268
1.89026
1.88217
1.79689
1.46226
1.40001
1.40001
1.40001
1.40001
1.40001
1.40001
1.40001
1.40001
1.40001
1.40001
1.40001
1.40002
1.40112
1.43329
1.61342
1.82022
1.86839
1.89456
1.89988
1.89368
1.88675
1.88473
1.88541
1.88925
1.89294
1.89273
1.88987
1.87516
1.74718
1.35833
1.40001
1.40001
1.40001
1.40001
1.40001
1.40001
1.40001
1.40001
1.40001
1.40001
1.40001
1.40002
1.40138
1.43784
1.62425
1.82554
1.86887
1.89387
1.89886
1.89327
1.88673
1.8847
1.88555
1.8894
1.89301
1.89277
1.8889
1.86259
1.69228
1.25908
1.40001
1.40001
1.40001
1.40001
1.40001
1.40001
1.40001
1.40001
1.40001
1.40001
1.40001
1.40003
1.4017
1.44298
1.63722
1.8334
1.86862
1.89296
1.8971
1.89278
1.8867
1.88469
1.8857
1.88951
1.89309
1.89273
1.88687
1.84305
1.62832
1.16841
1.40001
1.40001
1.40001
1.40001
1.40001
1.40001
1.40001
1.40001
1.40001
1.40001
1.40001
1.40003
1.40211
1.44912
1.65147
1.84054
1.86751
1.89154
1.89622
1.89251
1.88662
1.88463
1.88585
1.88958
1.89321
1.89255
1.88285
1.81358
1.56258
1.08679
1.40001
1.40001
1.40001
1.40001
1.40001
1.40001
1.40001
1.40001
1.40001
1.40001
1.40001
1.40004
1.40265
1.45631
1.66479
1.84451
1.86709
1.89113
1.8959
1.89235
1.88647
1.88445
1.88591
1.8897
1.89336
1.89206
1.87567
1.77521
1.49816
1.00561
1.40001
1.40001
1.40001
1.40001
1.40001
1.40001
1.40001
1.40001
1.40001
1.40001
1.40001
1.40005
1.40335
1.46435
1.67842
1.84865
1.86751
1.89119
1.89528
1.89226
1.88639
1.88413
1.88602
1.88981
1.89352
1.89086
1.86275
1.72506
1.42724
0.943873
1.40001
1.40001
1.40001
1.40001
1.40001
1.40001
1.40001
1.40001
1.40001
1.40001
1.40001
1.40007
1.40424
1.4735
1.69381
1.85426
1.8688
1.89093
1.89477
1.89228
1.88639
1.88381
1.88612
1.88978
1.89351
1.88833
1.84241
1.66598
1.36361
0.888861
1.40001
1.40001
1.40001
1.40001
1.40001
1.40001
1.40001
1.40001
1.40001
1.40001
1.40001
1.40009
1.4054
1.48401
1.70884
1.86112
1.87056
1.89042
1.89477
1.89258
1.88651
1.88363
1.88594
1.88962
1.89332
1.88302
1.81125
1.59951
1.30268
0.834886
1.40001
1.40001
1.40001
1.40001
1.40001
1.40001
1.40001
1.40001
1.40001
1.40001
1.40001
1.40013
1.40689
1.4958
1.72477
1.86659
1.87248
1.89009
1.89539
1.89317
1.88681
1.88353
1.88583
1.88932
1.89274
1.87331
1.76935
1.52683
1.24027
0.804788
1.40001
1.40001
1.40001
1.40001
1.40001
1.40001
1.40001
1.40001
1.40001
1.40001
1.40001
1.40017
1.40886
1.50932
1.73836
1.87028
1.87468
1.89011
1.89687
1.89386
1.88727
1.88353
1.88576
1.88868
1.89127
1.85602
1.71444
1.45129
1.19004
0.785832
1.40001
1.40001
1.40001
1.40001
1.40001
1.40001
1.40001
1.40001
1.40001
1.40001
1.40001
1.40025
1.41138
1.52408
1.75166
1.87287
1.87563
1.89015
1.8985
1.89467
1.8879
1.88357
1.88559
1.88801
1.88725
1.8291
1.64985
1.37632
1.14207
0.766996
1.40001
1.40001
1.40001
1.40001
1.40001
1.40001
1.40001
1.40001
1.40001
1.40001
1.40001
1.40035
1.41469
1.54105
1.76589
1.8752
1.87562
1.88975
1.8991
1.89557
1.88871
1.88366
1.88516
1.88741
1.8783
1.78961
1.57748
1.30256
1.09544
0.766426
1.40001
1.40001
1.40001
1.40001
1.40001
1.40001
1.40001
1.40001
1.40001
1.40001
1.40001
1.40051
1.41893
1.55955
1.77949
1.87789
1.87501
1.88875
1.89908
1.89616
1.88963
1.8838
1.8845
1.88619
1.86235
1.73683
1.50007
1.23166
1.05812
0.774397
1.40001
1.40001
1.40001
1.40001
1.40001
1.40001
1.40001
1.40001
1.40001
1.40001
1.40001
1.40074
1.42437
1.58037
1.79528
1.88301
1.87452
1.88772
1.89887
1.89646
1.89056
1.88417
1.88448
1.88246
1.83522
1.67276
1.42249
1.16435
1.02822
0.798764
1.40001
1.40001
1.40001
1.40001
1.40001
1.40001
1.40001
1.40001
1.40001
1.40001
1.40002
1.40109
1.43141
1.603
1.80975
1.88641
1.87498
1.88651
1.8983
1.89641
1.89144
1.88468
1.88427
1.87441
1.79586
1.59774
1.34536
1.10282
1.00299
0.83309
1.40001
1.40001
1.40001
1.40001
1.40001
1.40001
1.40001
1.40001
1.40001
1.40001
1.40002
1.40161
1.44021
1.6274
1.82289
1.88601
1.87489
1.8847
1.89726
1.89616
1.89229
1.88514
1.8832
1.85846
1.74167
1.51971
1.27354
1.04279
0.979859
0.864981
1.40001
1.40001
1.40001
1.40001
1.40001
1.40001
1.40001
1.40001
1.40001
1.40001
1.40004
1.40243
1.45158
1.65228
1.83687
1.88566
1.87483
1.88386
1.89637
1.89618
1.89307
1.88571
1.87983
1.83149
1.67498
1.43669
1.20864
1.00132
0.95778
0.896587
1.40001
1.40001
1.40001
1.40001
1.40001
1.40001
1.40001
1.40001
1.40001
1.40001
1.40006
1.4036
1.46516
1.67673
1.84512
1.88807
1.87627
1.88345
1.89574
1.89655
1.89375
1.88553
1.8714
1.79026
1.59886
1.35636
1.14886
0.968535
0.938462
0.93819
1.40001
1.40001
1.40001
1.40001
1.40001
1.40001
1.40001
1.40001
1.40001
1.40001
1.4001
1.40547
1.48208
1.70152
1.85155
1.89175
1.87896
1.8831
1.89496
1.89685
1.89426
1.88417
1.85429
1.73329
1.51553
1.27939
1.10264
0.949232
0.925297
0.964929
1.40001
1.40001
1.40001
1.40001
1.40001
1.40001
1.40001
1.40001
1.40001
1.40001
1.40016
1.40811
1.50194
1.72627
1.86094
1.89424
1.88121
1.88274
1.89351
1.89675
1.89413
1.87969
1.82441
1.66455
1.4328
1.20681
1.05864
0.943202
0.924691
0.980328
1.40001
1.40001
1.40001
1.40001
1.40001
1.40001
1.40001
1.40001
1.40001
1.40001
1.40028
1.41221
1.52592
1.75066
1.86561
1.89594
1.88346
1.88223
1.89138
1.89616
1.8932
1.86884
1.77899
1.58301
1.34995
1.14405
1.03248
0.945378
0.928725
0.98475
1.40001
1.40001
1.40001
1.40001
1.40001
1.40001
1.40001
1.40001
1.40001
1.40001
1.4005
1.41796
1.55262
1.77273
1.86887
1.89757
1.88479
1.88127
1.8889
1.89481
1.8901
1.84787
1.71802
1.50045
1.27421
1.08624
1.00842
0.949098
0.940408
0.987536
1.40001
1.40001
1.40001
1.40001
1.40001
1.40001
1.40001
1.40001
1.40001
1.40001
1.40087
1.42624
1.58346
1.79521
1.87508
1.89953
1.88517
1.88044
1.88647
1.89283
1.88272
1.8124
1.64291
1.41272
1.20418
1.03969
0.99462
0.956908
0.957648
0.98832
1.40001
1.40001
1.40001
1.40001
1.40001
1.40001
1.40001
1.40001
1.40001
1.40002
1.40156
1.43798
1.61589
1.81398
1.87781
1.90058
1.88633
1.88052
1.88493
1.89079
1.8671
1.75906
1.55921
1.33337
1.14477
0.999566
0.980908
0.965585
0.975113
0.99185
1.40001
1.40001
1.40001
1.40001
1.40001
1.40001
1.40001
1.40001
1.40001
1.40004
1.40269
1.45321
1.65075
1.82971
1.87908
1.90079
1.88839
1.88137
1.88319
1.8875
1.83831
1.69147
1.47328
1.25433
1.09464
0.976215
0.966964
0.97679
0.988222
0.996778
1.40001
1.40001
1.40001
1.40001
1.40001
1.40001
1.40001
1.40001
1.40001
1.40009
1.40479
1.47431
1.68524
1.84417
1.88142
1.90076
1.89014
1.8819
1.88317
1.87733
1.79343
1.60874
1.38552
1.18804
1.05918
0.961095
0.954368
0.984375
0.995609
1.00356
1.40001
1.40001
1.40001
1.40001
1.40001
1.40001
1.40001
1.40001
1.40001
1.40017
1.40807
1.49942
1.7202
1.85557
1.88223
1.9001
1.89028
1.88167
1.88189
1.85465
1.73003
1.52581
1.3088
1.12545
1.02631
0.959525
0.955243
0.987548
0.999565
1.00767
1.40001
1.40001
1.40001
1.40001
1.40001
1.40001
1.40001
1.40001
1.40001
1.40035
1.41377
1.53213
1.75428
1.86481
1.88182
1.89836
1.89014
1.88094
1.87521
1.81568
1.65327
1.43646
1.23513
1.07791
1.00861
0.962068
0.959783
0.990856
0.998845
1.00651
1.40001
1.40001
1.40001
1.40001
1.40001
1.40001
1.40001
1.40001
1.40001
1.40073
1.4226
1.56816
1.7837
1.87575
1.88167
1.89586
1.89012
1.8793
1.85698
1.75651
1.56787
1.35523
1.17033
1.0315
0.99733
0.971984
0.96759
0.993371
0.995839
1.00143
1.40001
1.40001
1.40001
1.40001
1.40001
1.40001
1.40001
1.40001
1.40002
1.40146
1.43578
1.61103
1.81177
1.88203
1.88229
1.89451
1.89044
1.87444
1.82309
1.68107
1.47528
1.27571
1.12101
1.00194
0.988592
0.985074
0.979331
0.997643
0.994386
0.992531
1.40001
1.40001
1.40001
1.40001
1.40001
1.40001
1.40001
1.40001
1.40005
1.40302
1.45622
1.6546
1.83197
1.88327
1.88235
1.89393
1.88955
1.8617
1.77068
1.59535
1.39076
1.20641
1.07442
0.982068
0.976097
0.991054
0.99512
1.00127
0.994262
0.98699
1.40001
1.40001
1.40001
1.40001
1.40001
1.40001
1.40001
1.40001
1.40012
1.40586
1.48195
1.69725
1.85115
1.88539
1.88241
1.89284
1.88553
1.83576
1.70161
1.50427
1.30712
1.14294
1.04672
0.976481
0.97172
0.99367
1.00674
1.00369
0.993661
0.982096
1.40001
1.40001
1.40001
1.40001
1.40001
1.40001
1.40001
1.40001
1.40028
1.41125
1.51828
1.74319
1.8628
1.88799
1.88314
1.89067
1.87393
1.79064
1.62003
1.41435
1.23338
1.09377
1.02567
0.977511
0.974425
0.997006
1.00692
1.00316
0.991819
0.981867
1.40001
1.40001
1.40001
1.40001
1.40001
1.40001
1.40001
1.40001
1.40066
1.42101
1.56166
1.77632
1.87061
1.89018
1.88335
1.88668
1.84879
1.72618
1.53044
1.33555
1.17201
1.0471
1.012
0.984357
0.979505
0.997263
1.00532
1.00017
0.990904
0.983689
1.40001
1.40001
1.40001
1.40001
1.40001
1.40001
1.40001
1.40003
1.40154
1.43605
1.60833
1.80966
1.87949
1.8917
1.88377
1.87563
1.80585
1.64856
1.44358
1.25418
1.11611
1.01579
1.00287
0.99791
0.98881
0.997881
1.00143
0.995699
0.990148
0.98778
1.40001
1.40001
1.40001
1.40001
1.40001
1.40001
1.40001
1.40007
1.40352
1.46052
1.66475
1.83833
1.88121
1.8915
1.88241
1.85251
1.7438
1.5601
1.35749
1.18716
1.07792
1.00037
0.992898
1.00087
1.00192
1.00037
0.995708
0.991994
0.989855
0.990515
1.88397
1.88589
1.88851
1.89113
1.89255
1.89237
1.88864
1.88481
1.88453
1.88666
1.89473
1.90279
1.89706
1.86176
1.78443