/*--------------------------------*- C++ -*----------------------------------*\
  =========                 |
  \\      /  F ield         | OpenFOAM: The Open Source CFD Toolbox
   \\    /   O peration     | Website:  https://openfoam.org
    \\  /    A nd           | Version:  7
     \\/     M anipulation  |
\*---------------------------------------------------------------------------*/
FoamFile
{
    version     2.0;
    format      ascii;
    class       volVectorField;
    location    "3.5";
    object      U;
}
// * * * * * * * * * * * * * * * * * * * * * * * * * * * * * * * * * * * * * //

dimensions      [0 1 -1 0 0 0 0];

internalField   nonuniform List<vector> 
14400
(
(3.09078 -0.292412 0)
(3.08563 -0.269949 0)
(3.08116 -0.24933 0)
(3.0762 -0.226654 0)
(3.07247 -0.210127 0)
(3.06772 -0.189498 0)
(3.0643 -0.176808 0)
(3.05923 -0.15679 0)
(3.05602 -0.147249 0)
(3.0503 -0.12668 0)
(3.04749 -0.11989 0)
(3.04086 -0.0980052 0)
(3.03912 -0.093384 0)
(3.03127 -0.070392 0)
(3.03103 -0.0659685 0)
(3.02172 -0.0440561 0)
(3.02006 -0.0358582 0)
(3.01465 -0.0217914 0)
(3.01201 -0.00905508 0)
(3.00881 -0.00204426 0)
(3.00366 0.00620946 0)
(3.00266 0.0110061 0)
(2.99934 0.00537565 0)
(2.99739 0.00187183 0)
(2.99469 -0.00361668 0)
(2.9943 -0.00411245 0)
(2.99543 -0.00288349 0)
(2.99868 -0.000684493 0)
(3.00238 0.00105325 0)
(3.00673 5.79194e-05 0)
(3.01103 -0.000775521 0)
(3.01399 -0.000626579 0)
(3.01762 0.000549463 0)
(3.01925 0.00110852 0)
(3.02429 -0.000432616 0)
(3.02667 -0.000639273 0)
(3.02886 -6.34077e-05 0)
(3.03237 0.000518235 0)
(3.03525 -0.000617004 0)
(3.04092 -0.000295083 0)
(3.09161 -0.310119 0)
(3.09015 -0.309283 0)
(3.08778 -0.307594 0)
(3.08443 -0.304304 0)
(3.0805 -0.299849 0)
(3.07561 -0.292479 0)
(3.07068 -0.284139 0)
(3.06458 -0.270644 0)
(3.05938 -0.257764 0)
(3.05201 -0.236359 0)
(3.0471 -0.219631 0)
(3.03811 -0.188668 0)
(3.0349 -0.170136 0)
(3.02416 -0.129287 0)
(3.02402 -0.111818 0)
(3.01176 -0.0641889 0)
(3.0143 -0.0508733 0)
(3.00189 -0.00633238 0)
(3.00296 0.00335026 0)
(2.99445 0.0325426 0)
(2.9925 0.0328547 0)
(2.99132 0.023112 0)
(2.99531 0.0100974 0)
(2.99644 0.00101905 0)
(2.99722 -0.00481481 0)
(2.99736 -0.0043202 0)
(2.99882 -0.00103962 0)
(3.00091 0.00249634 0)
(3.00149 0.00332603 0)
(3.0055 -0.00022275 0)
(3.00838 -0.00394476 0)
(3.013 -0.00192561 0)
(3.01767 0.00252521 0)
(3.01993 0.00180659 0)
(3.02248 -0.0014371 0)
(3.02539 -0.00258978 0)
(3.02831 -0.000279954 0)
(3.03141 0.00063562 0)
(3.0344 -0.000384161 0)
(3.04002 -2.03592e-05 0)
(3.08569 -0.309361 0)
(3.08562 -0.309288 0)
(3.08556 -0.309195 0)
(3.08542 -0.309063 0)
(3.08524 -0.308848 0)
(3.08501 -0.308618 0)
(3.08457 -0.308112 0)
(3.08385 -0.307384 0)
(3.0828 -0.306138 0)
(3.08134 -0.304138 0)
(3.0794 -0.300782 0)
(3.07668 -0.295618 0)
(3.07324 -0.287829 0)
(3.06828 -0.27542 0)
(3.06304 -0.260044 0)
(3.05496 -0.234256 0)
(3.04881 -0.211572 0)
(3.03743 -0.167926 0)
(3.03294 -0.145825 0)
(3.02106 -0.0934013 0)
(3.02261 -0.0807671 0)
(3.00966 -0.0475463 0)
(3.00937 -0.0303526 0)
(2.99992 -0.0171341 0)
(3.00206 -0.00940425 0)
(3.00078 -0.00285451 0)
(2.99999 0.00502077 0)
(2.99849 0.00397321 0)
(2.99877 0.000463467 0)
(3.00112 -0.00421711 0)
(3.00549 -0.00507256 0)
(3.01136 -0.000985834 0)
(3.01683 0.00365823 0)
(3.01892 0.00132391 0)
(3.01991 -0.0034002 0)
(3.02246 -0.00314322 0)
(3.02533 0.000427793 0)
(3.02858 -7.2575e-05 0)
(3.032 -0.00120867 0)
(3.0379 -0.000627374 0)
(3.0794 -0.307232 0)
(3.0794 -0.307155 0)
(3.0794 -0.307157 0)
(3.07939 -0.307163 0)
(3.07937 -0.307128 0)
(3.07935 -0.307043 0)
(3.07932 -0.307036 0)
(3.07924 -0.306967 0)
(3.07915 -0.306813 0)
(3.07912 -0.306604 0)
(3.07909 -0.306437 0)
(3.07898 -0.306161 0)
(3.0788 -0.305807 0)
(3.07842 -0.304882 0)
(3.07776 -0.30362 0)
(3.07641 -0.300676 0)
(3.07432 -0.295665 0)
(3.06983 -0.283286 0)
(3.0649 -0.267934 0)
(3.05252 -0.228192 0)
(3.04705 -0.199356 0)
(3.02487 -0.115494 0)
(3.02468 -0.0954381 0)
(3.00382 -0.0224817 0)
(2.99939 -0.0179903 0)
(2.99722 0.00985059 0)
(2.99358 0.00584782 0)
(2.9927 8.78735e-05 0)
(2.99787 -0.00263412 0)
(3.00013 -0.00288581 0)
(3.00446 0.000200678 0)
(3.01017 0.00245459 0)
(3.013 0.00169644 0)
(3.01552 -0.000496184 0)
(3.01672 -0.00223348 0)
(3.01972 -0.00138741 0)
(3.02196 2.65015e-06 0)
(3.0255 -0.000120753 0)
(3.02931 -0.000149026 0)
(3.03576 3.57443e-05 0)
(3.07767 -0.304192 0)
(3.07772 -0.304158 0)
(3.07777 -0.304243 0)
(3.0778 -0.304264 0)
(3.0778 -0.304257 0)
(3.07779 -0.304231 0)
(3.07777 -0.304301 0)
(3.07778 -0.304318 0)
(3.07784 -0.304397 0)
(3.07784 -0.304492 0)
(3.07788 -0.304651 0)
(3.07791 -0.30476 0)
(3.07785 -0.304964 0)
(3.07775 -0.305162 0)
(3.07768 -0.305306 0)
(3.07756 -0.305529 0)
(3.07743 -0.30569 0)
(3.07721 -0.305562 0)
(3.07672 -0.304862 0)
(3.07528 -0.302189 0)
(3.07249 -0.294898 0)
(3.06558 -0.27518 0)
(3.05684 -0.245362 0)
(3.03861 -0.180037 0)
(3.03016 -0.145569 0)
(3.01137 -0.0689883 0)
(3.01399 -0.0642917 0)
(3.00237 -0.0355078 0)
(3.00498 -0.0169702 0)
(3.0055 -0.006658 0)
(3.00386 0.00556557 0)
(3.00597 0.00246929 0)
(3.00711 -0.00200087 0)
(3.01146 -0.00566501 0)
(3.01428 -0.00299628 0)
(3.01838 0.00128533 0)
(3.02137 -0.000569485 0)
(3.02386 -0.00289161 0)
(3.028 -0.00117253 0)
(3.03491 -0.000786257 0)
(3.07876 -0.302699 0)
(3.07874 -0.302698 0)
(3.07872 -0.302712 0)
(3.07868 -0.302735 0)
(3.07863 -0.302752 0)
(3.07856 -0.302823 0)
(3.07849 -0.30292 0)
(3.07843 -0.302992 0)
(3.07832 -0.303178 0)
(3.07826 -0.303295 0)
(3.07813 -0.303648 0)
(3.07806 -0.303925 0)
(3.0781 -0.304146 0)
(3.07784 -0.304822 0)
(3.07794 -0.305237 0)
(3.07794 -0.30583 0)
(3.07801 -0.306527 0)
(3.07809 -0.307311 0)
(3.07829 -0.307599 0)
(3.07833 -0.307969 0)
(3.07829 -0.308331 0)
(3.07797 -0.307894 0)
(3.07666 -0.304976 0)
(3.0723 -0.29304 0)
(3.06548 -0.268844 0)
(3.04582 -0.2055 0)
(3.04138 -0.15833 0)
(3.01545 -0.054238 0)
(3.01703 -0.0345768 0)
(3.01229 0.016763 0)
(3.00674 0.0124443 0)
(3.00359 -0.000296511 0)
(3.00824 -0.00481929 0)
(3.01115 -0.00500575 0)
(3.01661 0.000936622 0)
(3.02048 0.00159027 0)
(3.02294 -0.000763246 0)
(3.02523 -0.00159515 0)
(3.02857 5.00603e-05 0)
(3.03569 -0.000896609 0)
(3.0801 -0.30412 0)
(3.08001 -0.304229 0)
(3.07991 -0.304355 0)
(3.0798 -0.304519 0)
(3.07968 -0.30475 0)
(3.07959 -0.304845 0)
(3.07941 -0.305191 0)
(3.0793 -0.305275 0)
(3.07912 -0.305593 0)
(3.07895 -0.306072 0)
(3.07892 -0.306332 0)
(3.07893 -0.306548 0)
(3.07899 -0.307008 0)
(3.07926 -0.307157 0)
(3.07964 -0.307175 0)
(3.07996 -0.307667 0)
(3.08043 -0.307722 0)
(3.08068 -0.307945 0)
(3.08095 -0.308135 0)
(3.08083 -0.308501 0)
(3.08061 -0.308748 0)
(3.0803 -0.308751 0)
(3.08008 -0.308755 0)
(3.08069 -0.307323 0)
(3.08062 -0.304386 0)
(3.07914 -0.29644 0)
(3.07367 -0.272688 0)
(3.06186 -0.225651 0)
(3.05019 -0.166374 0)
(3.03527 -0.0842713 0)
(3.03767 -0.0685915 0)
(3.02802 -0.0362124 0)
(3.02329 -0.0131366 0)
(3.02151 -0.00301607 0)
(3.02082 0.00252536 0)
(3.02008 -0.000477437 0)
(3.02445 -0.00483282 0)
(3.02719 -0.00240328 0)
(3.0322 -0.00084871 0)
(3.03651 -0.00259485 0)
(3.08057 -0.307835 0)
(3.08053 -0.307927 0)
(3.08049 -0.308088 0)
(3.08033 -0.308654 0)
(3.08033 -0.308802 0)
(3.08034 -0.308863 0)
(3.0802 -0.309308 0)
(3.08021 -0.309385 0)
(3.08029 -0.309392 0)
(3.08029 -0.309747 0)
(3.08045 -0.310053 0)
(3.0806 -0.310048 0)
(3.08094 -0.309991 0)
(3.0814 -0.309995 0)
(3.08195 -0.309919 0)
(3.08228 -0.309857 0)
(3.08267 -0.309853 0)
(3.08321 -0.309815 0)
(3.08327 -0.309845 0)
(3.08325 -0.30981 0)
(3.08317 -0.309643 0)
(3.08318 -0.309013 0)
(3.08327 -0.308543 0)
(3.08396 -0.306856 0)
(3.08399 -0.30516 0)
(3.08517 -0.303351 0)
(3.08562 -0.301986 0)
(3.08522 -0.296297 0)
(3.0813 -0.276889 0)
(3.06831 -0.226588 0)
(3.05877 -0.157854 0)
(3.03971 -0.0591264 0)
(3.04065 -0.0286976 0)
(3.03216 0.0144354 0)
(3.02316 0.0046991 0)
(3.02302 -0.00329671 0)
(3.02602 -0.00449354 0)
(3.03054 0.00182515 0)
(3.03662 -0.000448714 0)
(3.03839 -0.00306649 0)
(3.08194 -0.309894 0)
(3.08186 -0.309985 0)
(3.08171 -0.310232 0)
(3.08159 -0.310382 0)
(3.08149 -0.310515 0)
(3.08146 -0.310554 0)
(3.08147 -0.310571 0)
(3.08152 -0.310591 0)
(3.08161 -0.310612 0)
(3.08183 -0.310861 0)
(3.08215 -0.311068 0)
(3.08241 -0.311058 0)
(3.08261 -0.310958 0)
(3.08307 -0.310632 0)
(3.08349 -0.310174 0)
(3.08419 -0.309806 0)
(3.08484 -0.309486 0)
(3.08521 -0.309237 0)
(3.08565 -0.308809 0)
(3.08588 -0.308641 0)
(3.08621 -0.307967 0)
(3.08646 -0.307173 0)
(3.08615 -0.307278 0)
(3.08589 -0.305569 0)
(3.08597 -0.303384 0)
(3.08571 -0.302765 0)
(3.08744 -0.304044 0)
(3.08882 -0.305252 0)
(3.08992 -0.305354 0)
(3.0897 -0.301017 0)
(3.08535 -0.274406 0)
(3.07912 -0.23493 0)
(3.05806 -0.135771 0)
(3.05462 -0.0883495 0)
(3.0478 -0.0492633 0)
(3.03812 -0.0177785 0)
(3.03741 -0.00369323 0)
(3.03474 0.00152685 0)
(3.0342 -0.00447046 0)
(3.03953 -0.00562298 0)
(3.0833 -0.311559 0)
(3.08334 -0.311806 0)
(3.08331 -0.312011 0)
(3.08326 -0.312362 0)
(3.08315 -0.3125 0)
(3.0831 -0.312604 0)
(3.08315 -0.312605 0)
(3.08333 -0.312484 0)
(3.08346 -0.312459 0)
(3.0838 -0.312048 0)
(3.08398 -0.31182 0)
(3.08423 -0.311385 0)
(3.08486 -0.310227 0)
(3.08496 -0.309501 0)
(3.08543 -0.308371 0)
(3.08597 -0.307782 0)
(3.08635 -0.307433 0)
(3.08655 -0.306959 0)
(3.08684 -0.306445 0)
(3.08713 -0.305927 0)
(3.08724 -0.306238 0)
(3.08714 -0.306416 0)
(3.08709 -0.305634 0)
(3.08638 -0.304122 0)
(3.08584 -0.304188 0)
(3.08579 -0.304898 0)
(3.08666 -0.306157 0)
(3.08808 -0.308177 0)
(3.08925 -0.30825 0)
(3.0901 -0.309294 0)
(3.09494 -0.306411 0)
(3.0954 -0.297247 0)
(3.08956 -0.26637 0)
(3.08091 -0.211973 0)
(3.05609 -0.0833649 0)
(3.05313 -0.0471637 0)
(3.04885 0.0210509 0)
(3.03209 0.00275407 0)
(3.0347 -0.00722929 0)
(3.03962 -0.00663816 0)
(3.0864 -0.309884 0)
(3.08652 -0.310006 0)
(3.0867 -0.309926 0)
(3.08684 -0.310087 0)
(3.08702 -0.309878 0)
(3.08715 -0.310013 0)
(3.08721 -0.310265 0)
(3.08749 -0.309888 0)
(3.08747 -0.309629 0)
(3.08747 -0.309161 0)
(3.08744 -0.308642 0)
(3.08734 -0.308169 0)
(3.08719 -0.307251 0)
(3.08681 -0.305559 0)
(3.08692 -0.304561 0)
(3.08673 -0.304263 0)
(3.08624 -0.304419 0)
(3.08584 -0.304424 0)
(3.08575 -0.304409 0)
(3.08589 -0.304581 0)
(3.08588 -0.305214 0)
(3.08593 -0.305954 0)
(3.08591 -0.305904 0)
(3.08522 -0.306229 0)
(3.08444 -0.306338 0)
(3.08523 -0.308868 0)
(3.08604 -0.309334 0)
(3.08735 -0.309559 0)
(3.08873 -0.308937 0)
(3.0907 -0.309151 0)
(3.09423 -0.307508 0)
(3.09935 -0.307054 0)
(3.10093 -0.302105 0)
(3.10076 -0.288481 0)
(3.09428 -0.254495 0)
(3.07493 -0.169189 0)
(3.06231 -0.0865468 0)
(3.06011 -0.0617642 0)
(3.0462 -0.0208543 0)
(3.04378 -0.00797037 0)
(3.08681 -0.309658 0)
(3.08693 -0.309801 0)
(3.08716 -0.310055 0)
(3.08725 -0.310172 0)
(3.08756 -0.31019 0)
(3.08788 -0.310208 0)
(3.08808 -0.310155 0)
(3.0881 -0.309884 0)
(3.08817 -0.309449 0)
(3.08838 -0.308989 0)
(3.08811 -0.308256 0)
(3.08806 -0.307437 0)
(3.08744 -0.306654 0)
(3.08671 -0.306521 0)
(3.0863 -0.306604 0)
(3.0852 -0.307209 0)
(3.08407 -0.308896 0)
(3.08364 -0.310132 0)
(3.08299 -0.309945 0)
(3.08273 -0.309974 0)
(3.083 -0.310118 0)
(3.08295 -0.310767 0)
(3.08248 -0.310909 0)
(3.08183 -0.311683 0)
(3.08322 -0.313243 0)
(3.08398 -0.313781 0)
(3.08559 -0.313519 0)
(3.08709 -0.312 0)
(3.08856 -0.309792 0)
(3.09115 -0.307427 0)
(3.09519 -0.305649 0)
(3.09966 -0.303004 0)
(3.10262 -0.304263 0)
(3.10574 -0.304769 0)
(3.10554 -0.301643 0)
(3.10118 -0.282684 0)
(3.08513 -0.221914 0)
(3.06836 -0.117563 0)
(3.0559 -0.0358467 0)
(3.04424 0.00745413 0)
(3.07776 -0.30155 0)
(3.07818 -0.301758 0)
(3.07863 -0.302028 0)
(3.07913 -0.302478 0)
(3.07979 -0.302649 0)
(3.08043 -0.30274 0)
(3.08078 -0.303205 0)
(3.08131 -0.303773 0)
(3.0815 -0.303218 0)
(3.08164 -0.301838 0)
(3.08177 -0.301292 0)
(3.08152 -0.301061 0)
(3.08053 -0.301795 0)
(3.07864 -0.302782 0)
(3.07781 -0.30461 0)
(3.07798 -0.308539 0)
(3.07734 -0.312785 0)
(3.07732 -0.316512 0)
(3.07872 -0.317234 0)
(3.07996 -0.317391 0)
(3.08152 -0.316423 0)
(3.08107 -0.314407 0)
(3.08072 -0.31314 0)
(3.08218 -0.312888 0)
(3.08319 -0.312864 0)
(3.08536 -0.313569 0)
(3.08869 -0.311376 0)
(3.08992 -0.309631 0)
(3.09082 -0.306192 0)
(3.09258 -0.304929 0)
(3.09573 -0.30413 0)
(3.09916 -0.303962 0)
(3.10215 -0.304538 0)
(3.1034 -0.306115 0)
(3.10668 -0.310634 0)
(3.10814 -0.312468 0)
(3.10778 -0.303155 0)
(3.09954 -0.263502 0)
(3.08185 -0.178031 0)
(3.0683 -0.0791606 0)
(3.07313 -0.319717 0)
(3.07365 -0.320121 0)
(3.07408 -0.320314 0)
(3.07468 -0.320071 0)
(3.07486 -0.319362 0)
(3.07493 -0.318765 0)
(3.07484 -0.318599 0)
(3.07434 -0.317826 0)
(3.07377 -0.317025 0)
(3.07353 -0.31651 0)
(3.07371 -0.315127 0)
(3.07363 -0.312588 0)
(3.07313 -0.311569 0)
(3.07284 -0.311637 0)
(3.07298 -0.312944 0)
(3.07458 -0.317612 0)
(3.0769 -0.321635 0)
(3.07904 -0.324735 0)
(3.08028 -0.324931 0)
(3.08073 -0.323454 0)
(3.08039 -0.320279 0)
(3.08283 -0.314377 0)
(3.08259 -0.308004 0)
(3.0808 -0.30476 0)
(3.0823 -0.306091 0)
(3.08563 -0.309098 0)
(3.09012 -0.307594 0)
(3.0911 -0.30491 0)
(3.09128 -0.303791 0)
(3.09239 -0.304692 0)
(3.09481 -0.304095 0)
(3.09793 -0.305022 0)
(3.09884 -0.307893 0)
(3.10138 -0.312757 0)
(3.10304 -0.31696 0)
(3.10645 -0.317982 0)
(3.11299 -0.317435 0)
(3.11456 -0.31001 0)
(3.11365 -0.288437 0)
(3.09015 -0.165273 0)
(3.05977 -0.219651 0)
(3.05961 -0.218321 0)
(3.05912 -0.217362 0)
(3.05988 -0.213956 0)
(3.05908 -0.210295 0)
(3.0595 -0.210825 0)
(3.05948 -0.213857 0)
(3.05732 -0.21585 0)
(3.05666 -0.222007 0)
(3.05576 -0.226931 0)
(3.05511 -0.227716 0)
(3.05668 -0.232185 0)
(3.06002 -0.236994 0)
(3.06184 -0.243307 0)
(3.06159 -0.246694 0)
(3.06277 -0.251652 0)
(3.06537 -0.252296 0)
(3.06706 -0.251266 0)
(3.06707 -0.251322 0)
(3.06599 -0.251936 0)
(3.06431 -0.24939 0)
(3.06332 -0.250014 0)
(3.06601 -0.255063 0)
(3.06846 -0.261703 0)
(3.0694 -0.265214 0)
(3.06969 -0.272037 0)
(3.07263 -0.279409 0)
(3.07696 -0.282093 0)
(3.0808 -0.28541 0)
(3.08529 -0.292088 0)
(3.08978 -0.299646 0)
(3.09517 -0.3045 0)
(3.09719 -0.309642 0)
(3.10004 -0.312838 0)
(3.10501 -0.313752 0)
(3.11021 -0.312112 0)
(3.11599 -0.312918 0)
(3.11954 -0.31264 0)
(3.12352 -0.312474 0)
(3.11695 -0.278658 0)
(3.04714 -0.167141 0)
(3.04802 -0.169473 0)
(3.04955 -0.173235 0)
(3.04973 -0.174635 0)
(3.05009 -0.176483 0)
(3.05193 -0.180702 0)
(3.05274 -0.185863 0)
(3.05304 -0.187543 0)
(3.05348 -0.188184 0)
(3.05392 -0.189658 0)
(3.05433 -0.18931 0)
(3.05526 -0.192931 0)
(3.05576 -0.194719 0)
(3.05618 -0.192755 0)
(3.05629 -0.191941 0)
(3.05507 -0.192915 0)
(3.05689 -0.201277 0)
(3.05727 -0.208413 0)
(3.05545 -0.213713 0)
(3.05926 -0.226547 0)
(3.06157 -0.239236 0)
(3.06317 -0.252389 0)
(3.06536 -0.261343 0)
(3.06779 -0.263822 0)
(3.06755 -0.260648 0)
(3.06973 -0.269859 0)
(3.07183 -0.281079 0)
(3.0748 -0.292788 0)
(3.07859 -0.29834 0)
(3.08441 -0.30253 0)
(3.08984 -0.308073 0)
(3.09424 -0.310926 0)
(3.09957 -0.310865 0)
(3.10566 -0.309451 0)
(3.11039 -0.306398 0)
(3.11295 -0.302238 0)
(3.11623 -0.306487 0)
(3.11551 -0.305305 0)
(3.12111 -0.313978 0)
(3.12327 -0.315239 0)
(3.01533 -0.0516023 0)
(3.01652 -0.0540791 0)
(3.01733 -0.0581636 0)
(3.01745 -0.0583773 0)
(3.018 -0.0598772 0)
(3.01859 -0.0625218 0)
(3.01877 -0.0612781 0)
(3.01911 -0.0623011 0)
(3.02139 -0.0691325 0)
(3.02142 -0.0718901 0)
(3.02228 -0.0754236 0)
(3.02403 -0.0808237 0)
(3.02462 -0.0842397 0)
(3.02723 -0.0925335 0)
(3.02848 -0.0975694 0)
(3.03026 -0.103125 0)
(3.03251 -0.110855 0)
(3.03397 -0.11272 0)
(3.03627 -0.118756 0)
(3.0381 -0.123972 0)
(3.03939 -0.12641 0)
(3.04067 -0.128371 0)
(3.03985 -0.130513 0)
(3.0445 -0.147001 0)
(3.04862 -0.166589 0)
(3.0521 -0.174161 0)
(3.0553 -0.172645 0)
(3.05875 -0.179092 0)
(3.06166 -0.189801 0)
(3.06427 -0.197574 0)
(3.06707 -0.203639 0)
(3.07076 -0.214958 0)
(3.07278 -0.220871 0)
(3.07882 -0.238006 0)
(3.08243 -0.24746 0)
(3.09163 -0.26449 0)
(3.09737 -0.279683 0)
(3.10517 -0.294838 0)
(3.11269 -0.311984 0)
(3.12129 -0.320613 0)
(2.9735 0.0642171 0)
(2.97497 0.0613665 0)
(2.97608 0.0571474 0)
(2.97619 0.0567611 0)
(2.97685 0.0552045 0)
(2.97827 0.0502161 0)
(2.9788 0.049411 0)
(2.97931 0.0488205 0)
(2.98204 0.04248 0)
(2.98266 0.0393877 0)
(2.98396 0.0353395 0)
(2.9856 0.0308571 0)
(2.98747 0.0256237 0)
(2.98885 0.0229041 0)
(2.9912 0.0168229 0)
(2.9928 0.0128683 0)
(2.99502 0.0069312 0)
(2.99797 -0.00187462 0)
(3.00045 -0.00919958 0)
(3.00273 -0.015574 0)
(3.00721 -0.0280801 0)
(3.01054 -0.0377469 0)
(3.01561 -0.0522391 0)
(3.02039 -0.0644783 0)
(3.02306 -0.0677548 0)
(3.02675 -0.0788032 0)
(3.03491 -0.103189 0)
(3.0409 -0.118368 0)
(3.0463 -0.128446 0)
(3.0539 -0.148848 0)
(3.05901 -0.166635 0)
(3.06502 -0.18915 0)
(3.06925 -0.209315 0)
(3.07395 -0.228401 0)
(3.07962 -0.252374 0)
(3.08564 -0.269521 0)
(3.09315 -0.287723 0)
(3.10116 -0.301465 0)
(3.1103 -0.311092 0)
(3.12398 -0.312059 0)
(2.9261 0.178441 0)
(2.92729 0.175923 0)
(2.92811 0.172553 0)
(2.92818 0.172112 0)
(2.92883 0.170835 0)
(2.93021 0.166775 0)
(2.93071 0.166508 0)
(2.9319 0.165154 0)
(2.93385 0.161212 0)
(2.9351 0.157885 0)
(2.93644 0.155426 0)
(2.93866 0.151394 0)
(2.94088 0.147369 0)
(2.94325 0.142937 0)
(2.9464 0.13622 0)
(2.94869 0.130702 0)
(2.95217 0.122328 0)
(2.955 0.114838 0)
(2.95896 0.104573 0)
(2.96219 0.0967668 0)
(2.96681 0.085278 0)
(2.9705 0.0761776 0)
(2.97572 0.0631146 0)
(2.97977 0.0539875 0)
(2.98585 0.0391978 0)
(2.9918 0.0245399 0)
(2.99833 0.00968263 0)
(3.00444 -0.00234463 0)
(3.01463 -0.0273711 0)
(3.0219 -0.0420563 0)
(3.02981 -0.0585699 0)
(3.03725 -0.0746918 0)
(3.0444 -0.0963367 0)
(3.05074 -0.114275 0)
(3.0565 -0.129052 0)
(3.06305 -0.14794 0)
(3.06826 -0.162953 0)
(3.07413 -0.183428 0)
(3.07798 -0.1954 0)
(3.09449 -0.234274 0)
(2.88943 0.265313 0)
(2.88941 0.265367 0)
(2.88959 0.264815 0)
(2.89043 0.262458 0)
(2.89059 0.261645 0)
(2.89118 0.260796 0)
(2.89235 0.2589 0)
(2.89319 0.257953 0)
(2.89408 0.256764 0)
(2.89594 0.253524 0)
(2.89728 0.250434 0)
(2.89886 0.246952 0)
(2.90114 0.241952 0)
(2.9027 0.238161 0)
(2.90464 0.232984 0)
(2.90532 0.23001 0)
(2.90652 0.224844 0)
(2.90741 0.219713 0)
(2.90909 0.214262 0)
(2.9112 0.210646 0)
(2.91621 0.202581 0)
(2.92132 0.195048 0)
(2.92773 0.18545 0)
(2.93524 0.172125 0)
(2.94216 0.157885 0)
(2.94986 0.139702 0)
(2.95784 0.119127 0)
(2.96289 0.110296 0)
(2.97234 0.0905123 0)
(2.98174 0.0689162 0)
(2.99424 0.0398487 0)
(3.0028 0.0246669 0)
(3.01595 -0.00617356 0)
(3.02306 -0.0237924 0)
(3.03592 -0.0597233 0)
(3.04372 -0.0792883 0)
(3.05671 -0.117681 0)
(3.06466 -0.14284 0)
(3.0745 -0.179281 0)
(3.08909 -0.226606 0)
(2.88279 0.271241 0)
(2.88335 0.270864 0)
(2.88372 0.270283 0)
(2.88387 0.269706 0)
(2.88416 0.269261 0)
(2.88419 0.268817 0)
(2.88416 0.268359 0)
(2.88432 0.267943 0)
(2.88439 0.267892 0)
(2.88431 0.267738 0)
(2.88421 0.267406 0)
(2.88369 0.267865 0)
(2.88348 0.268257 0)
(2.88332 0.26874 0)
(2.88421 0.270441 0)
(2.88456 0.273347 0)
(2.88461 0.275599 0)
(2.88546 0.275884 0)
(2.88595 0.274025 0)
(2.88629 0.270338 0)
(2.88724 0.264891 0)
(2.88852 0.261122 0)
(2.89021 0.259169 0)
(2.8953 0.253013 0)
(2.90046 0.245579 0)
(2.90614 0.236829 0)
(2.91179 0.231275 0)
(2.9205 0.219224 0)
(2.93009 0.20101 0)
(2.93971 0.178982 0)
(2.94765 0.16238 0)
(2.96088 0.135717 0)
(2.97342 0.111365 0)
(2.9863 0.0828865 0)
(2.99834 0.0542025 0)
(3.01006 0.0250782 0)
(3.02298 -0.00648958 0)
(3.03485 -0.0344677 0)
(3.04641 -0.0639548 0)
(3.06237 -0.102187 0)
(2.88899 0.259646 0)
(2.889 0.2604 0)
(2.88894 0.260996 0)
(2.88874 0.261645 0)
(2.88874 0.262398 0)
(2.88864 0.263187 0)
(2.88832 0.263818 0)
(2.88742 0.265196 0)
(2.88668 0.266017 0)
(2.88593 0.265578 0)
(2.88463 0.266301 0)
(2.88353 0.267703 0)
(2.88225 0.267016 0)
(2.88146 0.265623 0)
(2.88145 0.26558 0)
(2.88224 0.265734 0)
(2.88368 0.265344 0)
(2.88592 0.264066 0)
(2.88727 0.262554 0)
(2.8879 0.262242 0)
(2.88833 0.263303 0)
(2.88819 0.26662 0)
(2.88625 0.269862 0)
(2.88476 0.270576 0)
(2.88683 0.268687 0)
(2.88848 0.265371 0)
(2.89051 0.262793 0)
(2.89425 0.260596 0)
(2.89922 0.258253 0)
(2.90507 0.253171 0)
(2.91203 0.244965 0)
(2.92051 0.232533 0)
(2.93053 0.216032 0)
(2.94238 0.194914 0)
(2.95583 0.169533 0)
(2.97002 0.139713 0)
(2.98479 0.106399 0)
(3.00027 0.0700363 0)
(3.01513 0.0344276 0)
(3.03971 -0.0260581 0)
(2.92387 0.170616 0)
(2.92303 0.173486 0)
(2.92295 0.174946 0)
(2.92269 0.1745 0)
(2.92162 0.175496 0)
(2.92106 0.176411 0)
(2.92043 0.178521 0)
(2.91925 0.182992 0)
(2.91878 0.183475 0)
(2.91716 0.18549 0)
(2.91559 0.18819 0)
(2.91405 0.19142 0)
(2.91257 0.194138 0)
(2.9113 0.196766 0)
(2.90892 0.202193 0)
(2.90804 0.205842 0)
(2.90608 0.211604 0)
(2.90448 0.217485 0)
(2.90311 0.222542 0)
(2.90158 0.226717 0)
(2.8995 0.23099 0)
(2.89831 0.232218 0)
(2.89566 0.237933 0)
(2.89465 0.241236 0)
(2.89585 0.242456 0)
(2.89372 0.247536 0)
(2.89231 0.253624 0)
(2.89369 0.255353 0)
(2.89574 0.253592 0)
(2.89826 0.25178 0)
(2.90195 0.250967 0)
(2.90645 0.249394 0)
(2.91098 0.247036 0)
(2.91715 0.241837 0)
(2.92481 0.23505 0)
(2.93417 0.224316 0)
(2.94618 0.205957 0)
(2.95965 0.181516 0)
(2.97454 0.151056 0)
(3.0013 0.0948205 0)
(2.979 0.0425688 0)
(2.97884 0.0428758 0)
(2.97796 0.0448091 0)
(2.97753 0.0465068 0)
(2.97721 0.0468236 0)
(2.97638 0.0480466 0)
(2.97567 0.0494701 0)
(2.97484 0.0516829 0)
(2.97426 0.053089 0)
(2.97317 0.0554233 0)
(2.97223 0.0574146 0)
(2.97088 0.0605679 0)
(2.96985 0.0629479 0)
(2.96811 0.0670299 0)
(2.96674 0.0700333 0)
(2.96446 0.0751945 0)
(2.96265 0.0789221 0)
(2.95966 0.0854544 0)
(2.95723 0.0906381 0)
(2.95368 0.0983703 0)
(2.95034 0.105658 0)
(2.94604 0.115112 0)
(2.94162 0.12524 0)
(2.9368 0.13712 0)
(2.93272 0.147531 0)
(2.92725 0.160923 0)
(2.92218 0.17306 0)
(2.91949 0.180832 0)
(2.91226 0.198999 0)
(2.90982 0.210837 0)
(2.9106 0.214646 0)
(2.90881 0.226592 0)
(2.91063 0.228991 0)
(2.91574 0.230938 0)
(2.91898 0.229915 0)
(2.92455 0.227937 0)
(2.93111 0.22448 0)
(2.93911 0.21821 0)
(2.94716 0.211905 0)
(2.967 0.184574 0)
(2.99874 0.00235105 0)
(2.99867 0.00251308 0)
(2.99863 0.00258286 0)
(2.99859 0.00261457 0)
(2.99851 0.00275607 0)
(2.99843 0.0029333 0)
(2.99836 0.0030572 0)
(2.99825 0.00325179 0)
(2.99814 0.00346491 0)
(2.99801 0.00372302 0)
(2.99787 0.00399201 0)
(2.99769 0.00436615 0)
(2.9975 0.0047379 0)
(2.99724 0.00525896 0)
(2.99696 0.00579133 0)
(2.99656 0.00657182 0)
(2.99614 0.00733734 0)
(2.99551 0.00855696 0)
(2.99487 0.00972378 0)
(2.9939 0.0116472 0)
(2.99293 0.013497 0)
(2.99144 0.0165318 0)
(2.98993 0.0194445 0)
(2.98756 0.0244241 0)
(2.98519 0.0291119 0)
(2.98137 0.0369965 0)
(2.97765 0.0445013 0)
(2.97177 0.0574065 0)
(2.96647 0.0689024 0)
(2.9592 0.0860173 0)
(2.95257 0.102559 0)
(2.94491 0.123086 0)
(2.9392 0.141717 0)
(2.93434 0.160519 0)
(2.93062 0.178328 0)
(2.9316 0.188581 0)
(2.93106 0.199355 0)
(2.93912 0.203515 0)
(2.94302 0.201565 0)
(2.9544 0.195103 0)
(2.99998 3.46654e-05 0)
(2.99998 3.58986e-05 0)
(2.99998 3.81053e-05 0)
(2.99998 3.97844e-05 0)
(2.99998 4.21768e-05 0)
(2.99997 4.47157e-05 0)
(2.99997 4.81708e-05 0)
(2.99997 5.14563e-05 0)
(2.99997 5.64907e-05 0)
(2.99997 6.12012e-05 0)
(2.99996 6.83234e-05 0)
(2.99996 7.53114e-05 0)
(2.99995 8.59869e-05 0)
(2.99995 9.65473e-05 0)
(2.99994 0.000113288 0)
(2.99993 0.000130224 0)
(2.99991 0.00015791 0)
(2.99989 0.000186932 0)
(2.99987 0.000235707 0)
(2.99983 0.000288655 0)
(2.99979 0.000380079 0)
(2.99972 0.000482722 0)
(2.99963 0.000663478 0)
(2.9995 0.000881868 0)
(2.9993 0.00126653 0)
(2.99901 0.00176157 0)
(2.99854 0.00265094 0)
(2.99787 0.00385273 0)
(2.99679 0.00594001 0)
(2.99525 0.00887636 0)
(2.99288 0.0136781 0)
(2.98963 0.0204544 0)
(2.98521 0.0305118 0)
(2.97983 0.0435169 0)
(2.97326 0.060838 0)
(2.96687 0.080349 0)
(2.96011 0.102828 0)
(2.95652 0.123513 0)
(2.95242 0.142743 0)
(2.95644 0.160174 0)
(3 2.72178e-07 0)
(3 2.84619e-07 0)
(3 2.98266e-07 0)
(3 3.16348e-07 0)
(3 3.34267e-07 0)
(3 3.59179e-07 0)
(3 3.84784e-07 0)
(3 4.19444e-07 0)
(3 4.56243e-07 0)
(3 5.07058e-07 0)
(3 5.6122e-07 0)
(3 6.37747e-07 0)
(3 7.21241e-07 0)
(3 8.41397e-07 0)
(3 9.76584e-07 0)
(3 1.17585e-06 0)
(3 1.40861e-06 0)
(3 1.76317e-06 0)
(3 2.19659e-06 0)
(3 2.87952e-06 0)
(3 3.76372e-06 0)
(3 5.19929e-06 0)
(3 7.17869e-06 0)
(2.99999 1.05433e-05 0)
(2.99999 1.55526e-05 0)
(2.99999 2.44622e-05 0)
(2.99998 3.90315e-05 0)
(2.99996 6.63411e-05 0)
(2.99993 0.000114443 0)
(2.99988 0.000208252 0)
(2.99978 0.00038558 0)
(2.99959 0.000736811 0)
(2.99924 0.00140779 0)
(2.99861 0.0026918 0)
(2.99753 0.0050295 0)
(2.99574 0.00917247 0)
(2.99307 0.0158542 0)
(2.98932 0.0263531 0)
(2.98499 0.0392991 0)
(2.97871 0.0667464 0)
(3 1.66245e-09 0)
(3 1.7363e-09 0)
(3 1.82966e-09 0)
(3 1.93425e-09 0)
(3 2.0626e-09 0)
(3 2.20679e-09 0)
(3 2.38775e-09 0)
(3 2.59262e-09 0)
(3 2.8536e-09 0)
(3 3.15567e-09 0)
(3 3.54554e-09 0)
(3 4.00689e-09 0)
(3 4.61469e-09 0)
(3 5.3524e-09 0)
(3 6.34925e-09 0)
(3 7.59688e-09 0)
(3 9.3354e-09 0)
(3 1.16022e-08 0)
(3 1.48808e-08 0)
(3 1.93748e-08 0)
(3 2.61799e-08 0)
(3 3.60432e-08 0)
(3 5.17224e-08 0)
(3 7.60954e-08 0)
(3 1.17341e-07 0)
(3 1.86761e-07 0)
(3 3.13723e-07 0)
(3 5.4923e-07 0)
(3 1.01494e-06 0)
(3 1.9647e-06 0)
(3 4.01151e-06 0)
(3 8.55068e-06 0)
(2.99999 1.89564e-05 0)
(2.99998 4.32317e-05 0)
(2.99995 0.00010049 0)
(2.99988 0.00023529 0)
(2.99974 0.000542508 0)
(2.99944 0.00125075 0)
(2.99894 0.00250831 0)
(2.99722 0.00791545 0)
(3 8.44052e-12 0)
(3 8.83848e-12 0)
(3 9.33219e-12 0)
(3 9.89455e-12 0)
(3 1.05702e-11 0)
(3 1.13562e-11 0)
(3 1.23091e-11 0)
(3 1.34335e-11 0)
(3 1.48101e-11 0)
(3 1.64876e-11 0)
(3 1.85518e-11 0)
(3 2.11434e-11 0)
(3 2.43882e-11 0)
(3 2.85808e-11 0)
(3 3.39808e-11 0)
(3 4.11641e-11 0)
(3 5.07088e-11 0)
(3 6.39219e-11 0)
(3 8.22682e-11 0)
(3 1.08816e-10 0)
(3 1.47661e-10 0)
(3 2.07011e-10 0)
(3 2.99122e-10 0)
(3 4.49102e-10 0)
(3 6.9991e-10 0)
(3 1.1401e-09 0)
(3 1.94404e-09 0)
(3 3.49476e-09 0)
(3 6.61717e-09 0)
(3 1.32612e-08 0)
(3 2.81e-08 0)
(3 6.28264e-08 0)
(3 1.47463e-07 0)
(3 3.6132e-07 0)
(3 9.16673e-07 0)
(3 2.39694e-06 0)
(3 6.32468e-06 0)
(2.99999 1.75432e-05 0)
(2.99998 4.19561e-05 0)
(2.99992 0.000231877 0)
(3 2.88082e-14 0)
(3 3.11479e-14 0)
(3 3.24502e-14 0)
(3 3.62133e-14 0)
(3 3.65758e-14 0)
(3 4.29711e-14 0)
(3 4.37448e-14 0)
(3 5.25019e-14 0)
(3 5.8613e-14 0)
(3 6.62724e-14 0)
(3 7.18785e-14 0)
(3 9.02891e-14 0)
(3 9.31461e-14 0)
(3 1.27315e-13 0)
(3 1.36834e-13 0)
(3 1.81727e-13 0)
(3 2.39169e-13 0)
(3 2.83956e-13 0)
(3 4.0421e-13 0)
(3 5.13293e-13 0)
(3 7.37817e-13 0)
(3 1.02169e-12 0)
(3 1.5278e-12 0)
(3 2.26956e-12 0)
(3 3.61553e-12 0)
(3 5.95833e-12 0)
(3 1.03537e-11 0)
(3 1.89102e-11 0)
(3 3.66142e-11 0)
(3 7.51582e-11 0)
(3 1.63745e-10 0)
(3 3.78051e-10 0)
(3 9.21597e-10 0)
(3 2.35204e-09 0)
(3 6.25326e-09 0)
(3 1.71927e-08 0)
(3 4.80625e-08 0)
(3 1.43202e-07 0)
(3 3.65373e-07 0)
(3 2.7217e-06 0)
(3.09512 -0.310391 0)
(3.09229 -0.310458 0)
(3.08574 -0.309412 0)
(3.0794 -0.307318 0)
(3.0776 -0.304253 0)
(3.07877 -0.302699 0)
(3.0802 -0.304003 0)
(3.08074 -0.307482 0)
(3.08195 -0.309878 0)
(3.08324 -0.311298 0)
(3.08629 -0.309558 0)
(3.08676 -0.30946 0)
(3.07734 -0.301154 0)
(3.07232 -0.319033 0)
(3.05918 -0.222511 0)
(3.04749 -0.166723 0)
(3.01518 -0.0516743 0)
(2.97325 0.064735 0)
(2.92576 0.179409 0)
(2.88911 0.266542 0)
(2.88246 0.271357 0)
(2.88914 0.259214 0)
(2.92446 0.168803 0)
(2.97936 0.0422736 0)
(2.99879 0.0022499 0)
(2.99998 3.31128e-05 0)
(3 2.6027e-07 0)
(3 1.58039e-09 0)
(3 7.9942e-12 0)
(3 2.69548e-14 0)
(3.09513 -0.310226 0)
(3.0923 -0.310586 0)
(3.08558 -0.309416 0)
(3.07931 -0.307235 0)
(3.07754 -0.304173 0)
(3.07881 -0.302701 0)
(3.08036 -0.303928 0)
(3.08095 -0.307182 0)
(3.082 -0.30973 0)
(3.08323 -0.311092 0)
(3.08621 -0.309361 0)
(3.08673 -0.309243 0)
(3.07697 -0.300608 0)
(3.07127 -0.317888 0)
(3.05934 -0.223137 0)
(3.04698 -0.164269 0)
(3.01428 -0.0506053 0)
(2.97241 0.066438 0)
(2.92528 0.180694 0)
(2.88855 0.267999 0)
(2.88227 0.27154 0)
(2.88919 0.259141 0)
(2.92534 0.166617 0)
(2.98018 0.0404426 0)
(2.99886 0.00214433 0)
(2.99998 3.05594e-05 0)
(3 2.36964e-07 0)
(3 1.44292e-09 0)
(3 7.3125e-12 0)
(3 2.46372e-14 0)
(3.09525 -0.310354 0)
(3.09237 -0.310623 0)
(3.08547 -0.30942 0)
(3.07926 -0.30727 0)
(3.07745 -0.304127 0)
(3.07883 -0.302689 0)
(3.08051 -0.303856 0)
(3.08121 -0.306863 0)
(3.08216 -0.309451 0)
(3.08325 -0.310933 0)
(3.08618 -0.309301 0)
(3.08685 -0.309013 0)
(3.07636 -0.300146 0)
(3.07067 -0.317142 0)
(3.05935 -0.223794 0)
(3.04575 -0.159732 0)
(3.01347 -0.0491058 0)
(2.97149 0.0697711 0)
(2.92467 0.183136 0)
(2.88796 0.269073 0)
(2.88199 0.27255 0)
(2.88921 0.259155 0)
(2.92637 0.164697 0)
(2.98092 0.0389946 0)
(2.99892 0.0020204 0)
(2.99998 2.81606e-05 0)
(3 2.18953e-07 0)
(3 1.32713e-09 0)
(3 6.70426e-12 0)
(3 2.20041e-14 0)
(3.09539 -0.310263 0)
(3.09243 -0.31078 0)
(3.08537 -0.309392 0)
(3.07924 -0.307082 0)
(3.07738 -0.304042 0)
(3.07881 -0.302708 0)
(3.0807 -0.303761 0)
(3.08155 -0.306482 0)
(3.08248 -0.309181 0)
(3.08333 -0.310732 0)
(3.08616 -0.3092 0)
(3.08696 -0.308905 0)
(3.07605 -0.299542 0)
(3.07081 -0.316263 0)
(3.05969 -0.222738 0)
(3.04477 -0.156135 0)
(3.01261 -0.0455281 0)
(2.96987 0.0751402 0)
(2.92349 0.187263 0)
(2.8874 0.26967 0)
(2.88132 0.273652 0)
(2.88923 0.258543 0)
(2.92706 0.163574 0)
(2.98165 0.0375144 0)
(2.999 0.00187368 0)
(2.99999 2.59609e-05 0)
(3 1.99989e-07 0)
(3 1.21276e-09 0)
(3 6.12153e-12 0)
(3 1.95584e-14 0)
(3.0955 -0.310375 0)
(3.09243 -0.310865 0)
(3.08525 -0.309313 0)
(3.07922 -0.307104 0)
(3.07733 -0.30404 0)
(3.07881 -0.302772 0)
(3.08085 -0.303767 0)
(3.08182 -0.306292 0)
(3.08268 -0.308953 0)
(3.08343 -0.31059 0)
(3.08615 -0.309238 0)
(3.08708 -0.308856 0)
(3.0755 -0.299187 0)
(3.07085 -0.314037 0)
(3.05985 -0.222855 0)
(3.0438 -0.152785 0)
(3.01135 -0.0406661 0)
(2.96829 0.0795934 0)
(2.92227 0.190797 0)
(2.887 0.26992 0)
(2.88088 0.275025 0)
(2.88944 0.25753 0)
(2.92798 0.16134 0)
(2.98243 0.0358954 0)
(2.99907 0.00174175 0)
(2.99999 2.3689e-05 0)
(3 1.82441e-07 0)
(3 1.10151e-09 0)
(3 5.53301e-12 0)
(3 1.74657e-14 0)
(3.09561 -0.310314 0)
(3.09249 -0.311078 0)
(3.08516 -0.309281 0)
(3.07917 -0.306972 0)
(3.07729 -0.304028 0)
(3.07882 -0.302801 0)
(3.081 -0.303768 0)
(3.08218 -0.305977 0)
(3.08288 -0.308789 0)
(3.0835 -0.310404 0)
(3.08614 -0.30929 0)
(3.08714 -0.308862 0)
(3.07504 -0.298706 0)