/*--------------------------------*- C++ -*----------------------------------*\
  =========                 |
  \\      /  F ield         | OpenFOAM: The Open Source CFD Toolbox
   \\    /   O peration     | Website:  https://openfoam.org
    \\  /    A nd           | Version:  7
     \\/     M anipulation  |
\*---------------------------------------------------------------------------*/
FoamFile
{
    version     2.0;
    format      ascii;
    class       volScalarField;
    location    "2";
    object      T;
}
// * * * * * * * * * * * * * * * * * * * * * * * * * * * * * * * * * * * * * //

dimensions      [0 0 0 1 0 0 0];

internalField   nonuniform List<scalar> 
90000
(
0.642443
0.708917
0.757895
0.812025
0.837388
0.848588
0.873027
0.897171
0.907749
0.925539
0.948958
0.967546
0.98933
1.01639
1.04295
1.07088
1.09993
1.1292
1.15615
1.18002
1.20102
1.21667
1.23007
1.24062
1.24854
1.25483
1.25844
1.25851
1.25701
1.25403
1.24986
1.24512
1.2381
1.2309
1.22297
1.21474
1.2062
1.19817
1.19269
1.19274
1.19405
1.19765
1.2025
1.20886
1.21556
1.22036
1.22433
1.22422
1.22341
1.22194
1.2192
1.21482
1.20934
1.20578
1.2054
1.20749
1.21265
1.21751
1.21879
1.21852
1.21866
1.21822
1.2179
1.21802
1.21977
1.22418
1.22769
1.22749
1.22681
1.22745
1.23005
1.23409
1.23861
1.24352
1.24892
1.25162
1.2509
1.24839
1.24529
1.24312
1.23966
1.22638
1.22174
1.22258
1.222
1.22142
1.22206
1.22001
1.2158
1.21297
1.20895
1.2038
1.19933
1.19769
1.19684
1.19579
1.19302
1.19127
1.17847
1.13534
0.568535
0.568412
0.568266
0.568106
0.56793
0.567738
0.567532
0.567318
0.567098
0.566881
0.566656
0.566456
0.566146
0.567782
0.573606
0.58754
0.610152
0.646839
0.692185
0.74739
0.804606
0.861971
0.914151
0.959722
0.996175
1.02518
1.04789
1.06602
1.08275
1.0981
1.11191
1.12594
1.13867
1.15282
1.16669
1.18074
1.19004
1.19899
1.20207
1.20564
1.20696
1.21054
1.21495
1.22086
1.22584
1.22952
1.23284
1.23236
1.23065
1.22647
1.21877
1.21073
1.2039
1.20471
1.20853
1.21401
1.21977
1.22128
1.22046
1.21835
1.21594
1.21491
1.21559
1.21766
1.22203
1.22641
1.22901
1.22694
1.22643
1.22758
1.23147
1.23566
1.23949
1.24438
1.25059
1.25495
1.25541
1.25466
1.25344
1.25373
1.25297
1.24143
1.23626
1.23238
1.22628
1.22142
1.22121
1.21882
1.2144
1.21161
1.2077
1.20264
1.19814
1.197
1.19678
1.19474
1.19107
1.18881
1.17794
1.14189
0.566952
0.566797
0.566621
0.566431
0.566224
0.566012
0.565791
0.56556
0.56533
0.565119
0.564898
0.564672
0.564474
0.564254
0.563934
0.563532
0.563153
0.562893
0.562565
0.56217
0.561804
0.561525
0.561246
0.560982
0.560568
0.564056
0.576977
0.597242
0.629755
0.668723
0.715762
0.761635
0.813205
0.862951
0.916791
0.96887
1.02162
1.07238
1.11566
1.15409
1.18258
1.20339
1.21636
1.22255
1.22496
1.22484
1.22441
1.22215
1.21868
1.21085
1.20028
1.19672
1.19815
1.20138
1.2067
1.21116
1.21432
1.21378
1.21313
1.21309
1.2124
1.21168
1.21216
1.215
1.22017
1.22473
1.2246
1.22289
1.22357
1.22603
1.2302
1.23377
1.23728
1.24226
1.24914
1.25503
1.25611
1.25655
1.25749
1.26069
1.25928
1.24868
1.24322
1.23587
1.22401
1.21697
1.21705
1.21531
1.21092
1.20828
1.20466
1.20011
1.19584
1.19562
1.19574
1.19215
1.18756
1.18436
1.17719
1.14698
0.5643
0.564102
0.5639
0.56369
0.563468
0.563251
0.563041
0.562812
0.562596
0.562422
0.562234
0.562034
0.561874
0.561689
0.561473
0.561239
0.56104
0.560976
0.560882
0.560663
0.560423
0.560243
0.560077
0.559892
0.559684
0.559414
0.559135
0.558913
0.558736
0.558587
0.558449
0.558324
0.558192
0.558093
0.557907
0.558857
0.575629
0.614051
0.68343
0.76052
0.846983
0.915786
0.974986
1.01799
1.0529
1.08134
1.10664
1.12482
1.14389
1.15741
1.17265
1.18281
1.19363
1.2055
1.21447
1.21256
1.20864
1.20397
1.20352
1.20442
1.20521
1.20617
1.20924
1.21454
1.21899
1.21992
1.21727
1.21735
1.21874
1.22399
1.22798
1.22983
1.2325
1.23753
1.24525
1.25126
1.25404
1.25631
1.25924
1.2632
1.26168
1.25264
1.24646
1.23545
1.21895
1.20956
1.21002
1.20917
1.20531
1.20307
1.20002
1.19618
1.19276
1.1933
1.19256
1.18774
1.18267
1.17911
1.17585
1.14988
0.561617
0.561459
0.561293
0.56113
0.560952
0.560767
0.560597
0.560432
0.560288
0.560178
0.560077
0.559972
0.559867
0.55974
0.559569
0.559381
0.559321
0.559325
0.559291
0.559164
0.559016
0.558922
0.558846
0.558743
0.558597
0.558428
0.558251
0.558108
0.558019
0.557945
0.55787
0.557793
0.557685
0.557597
0.557534
0.557376
0.557139
0.557011
0.556969
0.556888
0.556768
0.556556
0.560975
0.583382
0.634463
0.701395
0.779692
0.859172
0.930918
1.0076
1.07811
1.13146
1.165
1.18551
1.19525
1.19661
1.19827
1.19788
1.19901
1.19902
1.19863
1.20128
1.20864
1.21264
1.21515
1.21276
1.20957
1.21073
1.21574
1.22136
1.22363
1.22422
1.22642
1.23113
1.2386
1.24431
1.24928
1.25406
1.2588
1.26322
1.26255
1.25517
1.24799
1.23382
1.21278
1.20165
1.20253
1.20198
1.19901
1.19723
1.19475
1.19171
1.18911
1.18946
1.18883
1.182
1.17702
1.17388
1.17276
1.15207
0.559326
0.559214
0.559099
0.558984
0.55887
0.558762
0.55865
0.558518
0.558483
0.558491
0.558469
0.558406
0.558327
0.558244
0.558128
0.558021
0.558014
0.558057
0.558067
0.558013
0.557944
0.557944
0.557942
0.557923
0.557854
0.557725
0.557568
0.557424
0.557317
0.557237
0.557171
0.557103
0.556995
0.556901
0.55691
0.556863
0.556713
0.556586
0.556578
0.556564
0.556482
0.556347
0.556221
0.556217
0.556223
0.556173
0.556113
0.556086
0.556025
0.585249
0.659112
0.772691
0.875928
0.956184
1.02102
1.07119
1.12635
1.15491
1.17614
1.18209
1.18762
1.19885
1.20968
1.21431
1.21354
1.20708
1.20361
1.20775
1.21577
1.21895
1.21986
1.21975
1.22183
1.2261
1.23211
1.23707
1.24381
1.25064
1.25704
1.2626
1.26314
1.25717
1.24908
1.23265
1.20785
1.19615
1.19631
1.19565
1.1932
1.19187
1.18985
1.1875
1.18492
1.18498
1.18398
1.17576
1.17144
1.16952
1.16891
1.15387
0.557631
0.55757
0.557508
0.557443
0.557373
0.557313
0.557245
0.55719
0.557198
0.55725
0.557262
0.557245
0.557193
0.557108
0.557009
0.556963
0.556968
0.557048
0.557132
0.557098
0.557058
0.557081
0.557109
0.557136
0.557142
0.557086
0.556975
0.556862
0.556753
0.556667
0.5566
0.556549
0.556489
0.556397
0.556338
0.55635
0.556363
0.556342
0.556289
0.556233
0.556156
0.556075
0.555985
0.555959
0.555992
0.555987
0.555941
0.555936
0.555938
0.555907
0.555835
0.555778
0.55575
0.560523
0.602642
0.695943
0.807276
0.935183
1.02797
1.10355
1.15338
1.19489
1.20717
1.20924
1.20467
1.19445
1.19893
1.20947
1.21639
1.21608
1.21439
1.2149
1.21933
1.22356
1.22745
1.23208
1.23981
1.24798
1.25462
1.26171
1.2644
1.25969
1.25062
1.23263
1.20616
1.19386
1.19328
1.19128
1.18888
1.18787
1.18623
1.18444
1.18194
1.18159
1.17919
1.17001
1.16675
1.16612
1.16586
1.15474
0.556445
0.556433
0.556406
0.556364
0.556321
0.556282
0.556243
0.556243
0.556295
0.55633
0.556341
0.55634
0.556304
0.556218
0.556162
0.556155
0.556161
0.556217
0.556328
0.556322
0.556302
0.556324
0.556359
0.556403
0.556491
0.556485
0.556429
0.556369
0.556322
0.556282
0.55623
0.556183
0.556165
0.5561
0.555975
0.555928
0.555929
0.555975
0.556054
0.556027
0.555939
0.555898
0.555861
0.555805
0.555808
0.555836
0.555815
0.555798
0.555832
0.555835
0.555799
0.555751
0.555729
0.555758
0.555798
0.555781
0.555717
0.556769
0.595615
0.719975
0.873634
0.991905
1.0702
1.13651
1.16588
1.18465
1.2014
1.21615
1.21727
1.21586
1.20919
1.21325
1.2195
1.22325
1.2255
1.23015
1.23896
1.24487
1.25264
1.2617
1.26745
1.26392
1.25309
1.23453
1.209
1.19675
1.19196
1.18838
1.18645
1.1856
1.18427
1.18257
1.18001
1.17886
1.1751
1.16531
1.16319
1.16358
1.1638
1.15512
0.555665
0.555653
0.555628
0.555598
0.555565
0.555522
0.555509
0.555521
0.555598
0.555616
0.555608
0.555616
0.555599
0.555535
0.555511
0.555513
0.555516
0.55554
0.555631
0.555677
0.55568
0.555704
0.555748
0.555793
0.555876
0.555896
0.555885
0.555884
0.55589
0.555894
0.555888
0.555884
0.555902
0.55587
0.555766
0.555687
0.555684
0.555698
0.555761
0.555812
0.555811
0.55579
0.555758
0.555704
0.555703
0.555749
0.55575
0.555731
0.555735
0.555773
0.555792
0.555782
0.555741
0.555742
0.555802
0.555824
0.555807
0.55579
0.555802
0.555785
0.55571
0.570001
0.678322
0.828075
0.982894
1.11265
1.19304
1.21743
1.2178
1.21132
1.20358
1.21555
1.22027
1.22189
1.22484
1.23089
1.23857
1.24392
1.25272
1.26309
1.27096
1.26839
1.25663
1.23919
1.21666
1.20127
1.19167
1.18667
1.1855
1.18467
1.18348
1.18186
1.17913
1.17708
1.17194
1.16198
1.16069
1.16193
1.16266
1.15573
0.55506
0.555041
0.555018
0.554994
0.554958
0.554927
0.554926
0.554934
0.55496
0.554989
0.554989
0.554985
0.554974
0.554953
0.554958
0.554972
0.554977
0.554989
0.555043
0.555097
0.555132
0.555189
0.555229
0.555273
0.555401
0.555454
0.555435
0.555433
0.555436
0.555445
0.555472
0.555501
0.555543
0.555571
0.55554
0.555483
0.555475
0.555478
0.555495
0.555544
0.55562
0.555717
0.555717
0.555673
0.555655
0.55571
0.555733
0.555723
0.555687
0.555707
0.555794
0.555799
0.555783
0.555798
0.555892
0.555927
0.555907
0.555826
0.555801
0.555799
0.555781
0.555753
0.555758
0.55579
0.576191
0.71444
0.905542
1.03888
1.14205
1.18096
1.20131
1.22563
1.22396
1.2229
1.22615
1.23429
1.2393
1.24473
1.25452
1.26595
1.27501
1.27229
1.26118
1.24619
1.22785
1.20826
1.19113
1.18584
1.18539
1.18453
1.18341
1.18178
1.17888
1.17605
1.16975
1.15972
1.15897
1.16107
1.16252
1.15621
0.554521
0.554503
0.554484
0.554483
0.554484
0.554474
0.554466
0.55447
0.55447
0.554466
0.554461
0.554459
0.55446
0.554463
0.554477
0.554519
0.554555
0.554578
0.554609
0.554637
0.554672
0.554744
0.554841
0.554903
0.554985
0.555065
0.55509
0.55511
0.555138
0.555182
0.55521
0.555217
0.555234
0.555277
0.555288
0.555265
0.555262
0.55528
0.55532
0.555379
0.555447
0.555584
0.555693
0.555677
0.555633
0.555658
0.555759
0.555762
0.555722
0.55569
0.555764
0.555812
0.555807
0.555823
0.555932
0.555989
0.555968
0.555896
0.555766
0.555782
0.555877
0.555946
0.555982
0.556015
0.556011
0.555961
0.55592
0.620745
0.800907
1.00867
1.15573
1.22303
1.22441
1.2268
1.23229
1.23945
1.24175
1.24698
1.25712
1.26995
1.2765
1.27416
1.26552
1.25495
1.23978
1.21528
1.19169
1.18599
1.18591
1.18502
1.18389
1.1822
1.17903
1.17551
1.16828
1.15829
1.15792
1.16075
1.16182
1.1568
0.554067
0.554058
0.554063
0.554088
0.554145
0.55415
0.55414
0.554116
0.554099
0.554089
0.554087
0.554092
0.554102
0.554114
0.554146
0.554225
0.554307
0.554325
0.554326
0.554335
0.554367
0.554434
0.554552
0.554663
0.554754
0.554788
0.554812
0.554845
0.554883
0.554937
0.554996
0.555057
0.555111
0.555171
0.55522
0.555222
0.555221
0.555232
0.555267
0.555335
0.555425
0.555533
0.555543
0.555525
0.555489
0.555509
0.555636
0.555762
0.555779
0.555787
0.555829
0.555891
0.555893
0.555882
0.55595
0.556079
0.556084
0.556052
0.555947
0.555946
0.556053
0.55614
0.556149
0.556116
0.556048
0.555934
0.555853
0.555804
0.555645
0.591259
0.787126
0.996338
1.13052
1.20472
1.23221
1.24405
1.24357
1.24944
1.26042
1.27325
1.27646
1.27526
1.26999
1.26375
1.25029
1.22147
1.19504
1.1892
1.18779
1.18636
1.18515
1.18321
1.17953
1.17512
1.16704
1.15724
1.15713
1.16058
1.16217
1.15739
0.553787
0.553792
0.553802
0.553822
0.553853
0.553858
0.553854
0.553846
0.553845
0.553848
0.553864
0.553887
0.553904
0.553928
0.553973
0.554027
0.554069
0.554102
0.554138
0.554177
0.554221
0.554269
0.554334
0.55441
0.554505
0.554642
0.554731
0.554756
0.554776
0.554802
0.554841
0.55492
0.55501
0.555083
0.555143
0.555172
0.555193
0.555214
0.555249
0.555285
0.555308
0.555345
0.555394
0.555409
0.55542
0.555461
0.555598
0.555854
0.555936
0.555952
0.555977
0.555987
0.555974
0.555916
0.555929
0.556026
0.556123
0.556138
0.556155
0.556178
0.556276
0.556307
0.556285
0.556197
0.556148
0.55605
0.556001
0.555839
0.555801
0.555946
0.556119
0.575568
0.785825
1.05007
1.20943
1.2399
1.23932
1.24979
1.26345
1.27348
1.27527
1.2773
1.27563
1.27057
1.25492
1.22736
1.20499
1.19588
1.19135
1.18859
1.18696
1.18446
1.18008
1.17465
1.16595
1.15632
1.15639
1.16041
1.16375
1.15783
0.553546
0.55357
0.553591
0.553608
0.553622
0.553632
0.55364
0.553647
0.55366
0.553698
0.553768
0.55381
0.55382
0.553838
0.553868
0.553879
0.553898
0.553942
0.553993
0.554043
0.554093
0.554143
0.55421
0.5543
0.554387
0.554463
0.55455
0.554613
0.554715
0.554797
0.554772
0.554758
0.55479
0.554856
0.554919
0.554967
0.555019
0.555091
0.555138
0.55518
0.555233
0.555307
0.555343
0.555362
0.555407
0.555494
0.555684
0.555919
0.555959
0.555972
0.555977
0.555967
0.555938
0.555903
0.555925
0.556005
0.556116
0.556244
0.5563
0.556332
0.556387
0.556383
0.556315
0.556201
0.556105
0.556067
0.556098
0.556193
0.556388
0.556617
0.556841
0.556883
0.556793
0.621507
0.89763
1.12727
1.2119
1.25332
1.26624
1.27098
1.27467
1.28186
1.2814
1.27449
1.25813
1.23584
1.2188
1.20554
1.19651
1.19147
1.1889
1.18561
1.18041
1.17407
1.16483
1.15532
1.15562
1.16031
1.1627
1.15705
0.553358
0.553389
0.553413
0.553433
0.553454
0.553478
0.553504
0.553538
0.553581
0.553636
0.553721
0.553796
0.553797
0.553788
0.553771
0.553771
0.553796
0.55387
0.553921
0.553946
0.553978
0.554032
0.554088
0.554134
0.554198
0.554273
0.554335
0.554464
0.554512
0.554501
0.554462
0.554472
0.554533
0.554665
0.554823
0.554937
0.555071
0.555135
0.555127
0.555147
0.555214
0.555316
0.555399
0.555441
0.55546
0.555506
0.555636
0.555834
0.555898
0.555927
0.555958
0.555991
0.556043
0.556118
0.55621
0.556352
0.556457
0.556503
0.556543
0.556562
0.556558
0.556538
0.556432
0.556276
0.556284
0.556223
0.556233
0.556409
0.556744
0.557052
0.557232
0.557294
0.557137
0.556613
0.557251
0.753041
1.06473
1.22207
1.26142
1.26782
1.27434
1.28417
1.28306
1.27648
1.26126
1.24609
1.23404
1.21705
1.20236
1.19513
1.19093
1.18648
1.18051
1.1733
1.16354
1.15401
1.15451
1.15975
1.16268
1.15565
0.553237
0.553273
0.553296
0.553315
0.553335
0.553355
0.553381
0.553426
0.55351
0.553582
0.553626
0.553662
0.553665
0.553669
0.553687
0.553723
0.553771
0.553812
0.553836
0.553855
0.553875
0.553898
0.553926
0.553972
0.554044
0.554153
0.554252
0.554293
0.554289
0.554268
0.554275
0.554325
0.554416
0.554526
0.554656
0.554797
0.554943
0.555037
0.555078
0.555141
0.555223
0.555368
0.555534
0.55554
0.555508
0.555522
0.555617
0.555818
0.556028
0.556103
0.556151
0.556228
0.556309
0.556387
0.556488
0.556644
0.556838
0.556902
0.556901
0.556873
0.556802
0.556728
0.55657
0.556525
0.556529
0.556494
0.556533
0.556715
0.557119
0.557479
0.557601
0.557477
0.557128
0.556732
0.556204
0.555912
0.64564
0.948362
1.17261
1.24216
1.27365
1.28482
1.28294
1.27649
1.26403
1.25846
1.24801
1.22664
1.20972
1.1998
1.19313
1.1871
1.18018
1.17241
1.16201
1.15238
1.15319
1.15896
1.16192
1.15259
0.553139
0.55317
0.553199
0.553229
0.553253
0.553281
0.553343
0.553394
0.553404
0.553415
0.553431
0.553469
0.553556
0.553579
0.553585
0.553589
0.553603
0.553629
0.553667
0.553703
0.553721
0.553736
0.553765
0.553831
0.553915
0.554042
0.554194
0.554202
0.554191
0.554135
0.554127
0.554171
0.554306
0.554471
0.554614
0.55476
0.554875
0.554958
0.555036
0.555118
0.555194
0.555304
0.555527
0.555644
0.555646
0.555661
0.555732
0.555885
0.556068
0.556178
0.556241
0.556312
0.556413
0.556556
0.556707
0.556859
0.557034
0.557081
0.557072
0.55699
0.556793
0.556575
0.55647
0.55651
0.556525
0.556572
0.55677
0.557189
0.557697
0.557936
0.557872
0.557453
0.557098
0.556585
0.556488
0.556573
0.556424
0.56802
0.852296
1.12866
1.24207
1.27612
1.27697
1.27282
1.27227
1.27106
1.25762
1.23565
1.21949
1.20662
1.19636
1.18842
1.1802
1.17156
1.1605
1.1506
1.15146
1.15736
1.15869
1.14746
0.553095
0.553112
0.553129
0.553129
0.553124
0.553119
0.553121
0.553126
0.553137
0.553159
0.553186
0.553211
0.553238
0.553267
0.553294
0.553321
0.55335
0.553385
0.553429
0.553473
0.553512
0.553545
0.553584
0.553659
0.553774
0.553871
0.553988
0.554093
0.554093
0.55407
0.554075
0.554126
0.554232
0.554379
0.554573
0.554787
0.554906
0.554974
0.555042
0.555123
0.555203
0.55527
0.555393
0.55558
0.555617
0.555633
0.555693
0.555835
0.556017
0.556176
0.556321
0.556463
0.55663
0.556815
0.556968
0.557076
0.557139
0.557143
0.557119
0.556933
0.556646
0.556468
0.556467
0.556511
0.556602
0.556913
0.557351
0.55784
0.558181
0.558208
0.557962
0.557453
0.557069
0.556884
0.557076
0.557206
0.55707
0.556348
0.555684
0.710598
1.00846
1.1872
1.25889
1.27023
1.28518
1.27992
1.26097
1.24271
1.23003
1.21441
1.20101
1.19098
1.18115
1.17132
1.15889
1.14827
1.14909
1.15395
1.15311
1.13954
0.552804
0.552826
0.552833
0.552834
0.552834
0.552836
0.552843
0.552856
0.552877
0.552906
0.552944
0.552994
0.553048
0.553096
0.553132
0.553164
0.553201
0.553247
0.553301
0.553353
0.553403
0.553446
0.553483
0.553541
0.553666
0.553814
0.553906
0.554013
0.554035
0.55403
0.554049
0.554109
0.554212
0.554331
0.554484
0.554652
0.55465
0.554656
0.55469
0.554767
0.554868
0.55497
0.555084
0.55527
0.555509
0.555647
0.555753
0.55591
0.556121
0.556323
0.556501
0.556667
0.556829
0.556948
0.557094
0.55713
0.557066
0.556996
0.556916
0.556761
0.556532
0.55643
0.556463
0.556659
0.557151
0.557642
0.558099
0.558361
0.558407
0.558304
0.557907
0.557549
0.557207
0.557376
0.557622
0.557582
0.557385
0.556587
0.555344
0.553747
0.591204
0.864065
1.14263
1.25705
1.28713
1.28276
1.25716
1.24953
1.24005
1.22229
1.20691
1.19523
1.18368
1.1716
1.15751
1.14602
1.14607
1.14756
1.1445
1.1289
0.552645
0.552666
0.552685
0.552699
0.552712
0.552727
0.552744
0.552762
0.552785
0.552815
0.552851
0.552898
0.552958
0.553019
0.553066
0.553105
0.553146
0.553196
0.553252
0.553308
0.553366
0.553415
0.553454
0.553511
0.55361
0.553702
0.553834
0.553957
0.553946
0.5539
0.553882
0.553896
0.553908
0.55393
0.553983
0.554079
0.554153
0.554212
0.55429
0.554394
0.554522
0.554676
0.554871
0.555088
0.555344
0.555597
0.5558
0.555978
0.556155
0.556325
0.556499
0.556671
0.556756
0.556782
0.556776
0.556732
0.556607
0.556608
0.556666
0.556643
0.556492
0.556495
0.556713
0.557304
0.557949
0.558427
0.55872
0.558671
0.558531
0.558231
0.557874
0.557603
0.557587
0.558018
0.558139
0.558005
0.557635
0.556476
0.555626
0.555965
0.555437
0.555413
0.715292
1.01948
1.19329
1.24277
1.2496
1.25967
1.24767
1.22654
1.21355
1.19992
1.18545
1.17061
1.15517
1.1427
1.13999
1.1375
1.13214
1.1154
0.552556
0.552577
0.552595
0.552612
0.552633
0.552665
0.552701
0.552733
0.552765
0.552798
0.552832
0.552873
0.552937
0.553008
0.553065
0.553112
0.553152
0.553195
0.553239
0.553292
0.553371
0.553431
0.553429
0.553409
0.553389
0.553378
0.553387
0.553452
0.55347
0.553455
0.55346
0.553496
0.553498
0.553505
0.553535
0.553602
0.553704
0.553843
0.554004
0.554157
0.554314
0.554483
0.554686
0.554931
0.555169
0.555392
0.555613
0.555821
0.555951
0.556043
0.556221
0.556382
0.556383
0.556397
0.556412
0.55637
0.556318
0.55636
0.556524
0.5566
0.556701
0.556969
0.557458
0.558083
0.558715
0.559
0.558988
0.558773
0.558471
0.558167
0.557896
0.558068
0.558679
0.559373
0.559304
0.558779
0.557699
0.55706
0.557884
0.558889
0.558874
0.55879
0.556796
0.593061
0.813039
1.06637
1.20967
1.25584
1.24554
1.22776
1.21784
1.20229
1.18476
1.16782
1.15147
1.13847
1.131
1.12376
1.11738
1.10076
0.552538
0.552569
0.552568
0.552561
0.552562
0.552573
0.552593
0.552612
0.552628
0.552642
0.552655
0.552677
0.552737
0.552788
0.552794
0.552794
0.552791
0.552801
0.552821
0.552862
0.552933
0.552959
0.552969
0.552976
0.552976
0.552978
0.55299
0.55303
0.553055
0.553074
0.55311
0.55316
0.553193
0.553223
0.553268
0.553334
0.55343
0.553571
0.553748
0.553925
0.554109
0.554313
0.554549
0.55479
0.555016
0.555211
0.555415
0.555589
0.55565
0.555702
0.555837
0.555979
0.556016
0.55611
0.556193
0.556193
0.556202
0.556284
0.556437
0.556739
0.557191
0.557683
0.558104
0.558574
0.559009
0.559087
0.558974
0.558699
0.55841
0.558296
0.559011
0.560051
0.561117
0.561151
0.560891
0.559986
0.559995
0.560861
0.56234
0.562737
0.56272
0.562609
0.563358
0.562217
0.5585
0.626752
0.881266
1.09327
1.17515
1.2072
1.21771
1.20303
1.18262
1.16416
1.14632
1.13227
1.12035
1.10846
1.10214
1.08661
0.552545
0.552542
0.552535
0.552523
0.552523
0.552525
0.552521
0.552508
0.552494
0.552479
0.552471
0.552475
0.552508
0.552523
0.552511
0.552508
0.552515
0.552534
0.552543
0.552567
0.552614
0.552644
0.552686
0.552704
0.552709
0.552731
0.552779
0.552819
0.552852
0.552893
0.552948
0.553003
0.553058
0.553111
0.553169
0.553236
0.553327
0.553463
0.553636
0.553828
0.55403
0.554252
0.554492
0.554739
0.554968
0.555137
0.555341
0.555468
0.555452
0.555451
0.555589
0.555751
0.555831
0.555945
0.556109
0.556147
0.556219
0.556381
0.556712
0.557245
0.55793
0.55859
0.558833
0.559034
0.559195
0.5593
0.55916
0.55912
0.559427
0.560579
0.562061
0.563494
0.563611
0.563322
0.562989
0.563809
0.565592
0.567133
0.567642
0.567702
0.568045
0.568965
0.569852
0.569509
0.566971
0.565936
0.567214
0.657723
0.905187
1.11453
1.1924
1.18949
1.17896
1.16043
1.14068
1.1238
1.10816
1.09456
1.08885
1.07447
0.552408
0.552394
0.552382
0.552373
0.552356
0.552331
0.552314
0.5523
0.552283
0.552273
0.552273
0.552274
0.552286
0.55231
0.552315
0.55233
0.552367
0.552385
0.552395
0.55241
0.552436
0.552468
0.552529
0.552574
0.552602
0.552644
0.552709
0.552761
0.552806
0.552864
0.552924
0.552975
0.553046
0.553138
0.553229
0.553326
0.55348
0.55367
0.553848
0.554055
0.55432
0.554598
0.554858
0.555068
0.555227
0.555358
0.55541
0.55542
0.555393
0.555393
0.555531
0.55574
0.555865
0.556026
0.556343
0.556616
0.556949
0.557483
0.55829
0.559132
0.559805
0.560483
0.561121
0.561121
0.560933
0.560965
0.561407
0.562153
0.56316
0.564237
0.565085
0.566188
0.566491
0.566915
0.568436
0.570144
0.571356
0.572589
0.573378
0.574105
0.575178
0.575996
0.576026
0.575235
0.571923
0.570902
0.573275
0.576922
0.580164
0.75175
0.987233
1.11633
1.16109
1.15118
1.13441
1.1154
1.09619
1.08327
1.07783
1.06472
0.552305
0.552305
0.552303
0.5523
0.552294
0.552271
0.552235
0.552206
0.552199
0.552202
0.55221
0.552223
0.552219
0.552222
0.552244
0.552298
0.552403
0.552454
0.552448
0.552419
0.552426
0.552482
0.552632
0.552833
0.552959
0.553034
0.553136
0.553288
0.553487
0.553675
0.553805
0.55396
0.554198
0.554436
0.554615
0.554779
0.554966
0.555128
0.555265
0.555368
0.555492
0.555654
0.555767
0.555776
0.555755
0.555638
0.555401
0.555401
0.555575
0.555633
0.555728
0.556016
0.556291
0.556631
0.557213
0.558132
0.559154
0.560096
0.561047
0.561906
0.562359
0.562593
0.56316
0.563561
0.563557
0.563766
0.564643
0.566224
0.567861
0.56913
0.569644
0.570236
0.571455
0.57354
0.575537
0.576281
0.576754
0.577768
0.579178
0.580652
0.582122
0.582673
0.582834
0.581947
0.578695
0.57741
0.579973
0.582652
0.587007
0.591246
0.630612
0.87309
1.09153
1.12026
1.11749
1.10713
1.08815
1.07544
1.06915
1.05713
0.552335
0.552363
0.552406
0.552443
0.552468
0.552489
0.552512
0.552546
0.552593
0.552659
0.552779
0.552923
0.55303
0.55312
0.55321
0.553299
0.553414
0.553576
0.553787
0.553991
0.554152
0.554325
0.554523
0.554698
0.554851
0.555019
0.555207
0.555397
0.55561
0.55574
0.555766
0.555808
0.555893
0.555925
0.555988
0.556016
0.55598
0.555956
0.555942
0.55578
0.555629
0.555673
0.555684
0.555622
0.555594
0.555566
0.555526
0.555612
0.555921
0.55639
0.557024
0.55797
0.559172
0.560555
0.561885
0.563068
0.564128
0.564685
0.564952
0.565447
0.565408
0.565155
0.565385
0.566401
0.567896
0.569585
0.571731
0.574168
0.575598
0.576747
0.578152
0.57872
0.57942
0.580449
0.581444
0.582295
0.58337
0.584774
0.586323
0.58804
0.589116
0.589563
0.589995
0.589448
0.586445
0.584534
0.586208
0.590355
0.59406
0.599
0.602744
0.611721
0.764937
0.972643
1.0861
1.08306
1.07553
1.07034
1.06253
1.04997
0.554333
0.554426
0.554586
0.554761
0.554886
0.554969
0.555045
0.555138
0.555246
0.555367
0.555557
0.555826
0.555944
0.556
0.556042
0.556077
0.556144
0.556255
0.556399
0.556491
0.55656
0.556666
0.556796
0.556822
0.556819
0.556832
0.556875
0.556936
0.556926
0.556894
0.556814
0.556711
0.556595
0.556341
0.556243
0.556204
0.555978
0.555903
0.555927
0.555912
0.555916
0.556078
0.556547
0.557064
0.557628
0.558418
0.55955
0.560914
0.562299
0.56366
0.565099
0.566317
0.567322
0.568368
0.569067
0.569323
0.569879
0.570076
0.570078
0.570472
0.571616
0.572852
0.57419
0.576171
0.578622
0.580619
0.581939
0.583249
0.583487
0.583584
0.584419
0.586201
0.587737
0.588599
0.589778
0.591474
0.59313
0.594395
0.595619
0.597034
0.597705
0.598199
0.598468
0.597358
0.592845
0.589307
0.590165
0.594267
0.598778
0.603003
0.607885
0.612163
0.616516
0.679565
0.867814
1.00883
1.05498
1.05926
1.05408
1.04252
0.557568
0.557568
0.557596
0.557626
0.557615
0.557628
0.557686
0.557688
0.557711
0.557769
0.55785
0.557894
0.557859
0.557881
0.557936
0.557918
0.557971
0.558019
0.558012
0.557991
0.557963
0.557976
0.557987
0.557924
0.55783
0.557901
0.557957
0.557961
0.55803
0.558108
0.558271
0.558543
0.558903
0.559348
0.559887
0.560526
0.561301
0.562138
0.563036
0.564031
0.565161
0.56641
0.567583
0.568764
0.569947
0.570999
0.571976
0.572942
0.573667
0.57409
0.574715
0.574946
0.575052
0.575434
0.575728
0.575735
0.575984
0.576859
0.578175
0.579756
0.581773
0.584123
0.586117
0.587634
0.588814
0.589091
0.589222
0.590006
0.591109
0.591736
0.59252
0.594167
0.596646
0.599153
0.600739
0.601759
0.60253
0.603323
0.604305
0.605174
0.605687
0.606052
0.606101
0.604723
0.600148
0.596402
0.596471
0.597936
0.602451
0.60741
0.61361
0.62006
0.625801
0.629049
0.638451
0.757304
0.935232
1.02676
1.03807
1.03466
0.56339
0.563531
0.563695
0.563869
0.564061
0.564257
0.564461
0.56469
0.564938
0.565195
0.565488
0.565789
0.566081
0.566383
0.566724
0.567071
0.567393
0.56771
0.568038
0.56839
0.568759
0.569138
0.569567
0.570065
0.570524
0.570947
0.571417
0.571941
0.572493
0.573124
0.573762
0.574364
0.574922
0.575461
0.576044
0.576651
0.577199
0.577699
0.578239
0.57872
0.579055
0.579338
0.579609
0.580021
0.580221
0.580304
0.580476
0.580893
0.580998
0.5809
0.581106
0.581736
0.582273
0.583013
0.584305
0.586132
0.588107
0.589866
0.59175
0.593465
0.594823
0.595935
0.596475
0.596956
0.597594
0.597851
0.598318
0.599363
0.60133
0.603662
0.60532
0.606395
0.607525
0.608775
0.609258
0.609486
0.610007
0.610882
0.611997
0.613158
0.613798
0.613904
0.613708
0.612325
0.608798
0.606009
0.606935
0.608955
0.612093
0.616534
0.620691
0.625955
0.631602
0.634175
0.637316
0.640902
0.693164
0.844417
0.965339
1.02037
0.578483
0.578645
0.578832
0.579014
0.579199
0.579379
0.579556
0.579749
0.579948
0.580145
0.580356
0.580566
0.580753
0.580938
0.58114
0.581356
0.581562
0.581787
0.581992
0.582169
0.582359
0.58254
0.582766
0.582972
0.58314
0.583317
0.583449
0.583589
0.583775
0.584079
0.584452
0.58448
0.584426
0.584471
0.584821
0.585029
0.585115
0.585316
0.585816
0.586207
0.586173
0.586168
0.586423
0.587002
0.587741
0.588462
0.589263
0.590277
0.591613
0.593171
0.59463
0.596097
0.597708
0.599296
0.600724
0.602054
0.603211
0.603969
0.604703
0.605008
0.604996
0.60512
0.605272
0.605728
0.606762
0.608267
0.609767
0.61127
0.612614
0.613938
0.615138
0.616378
0.616872
0.616747
0.616715
0.61716
0.618348
0.619764
0.621048
0.622051
0.622281
0.622244
0.621777
0.620321
0.616987
0.61395
0.614811
0.617537
0.620848
0.625405
0.630209
0.633036
0.636758
0.639563
0.642348
0.646648
0.649991
0.663379
0.761725
0.955363
0.591245
0.591321
0.591394
0.591481
0.591564
0.59164
0.591732
0.591829
0.591915
0.591997
0.5921
0.592213
0.592323
0.592454
0.592585
0.59274
0.592948
0.59313
0.593301
0.593491
0.593713
0.593978
0.594224
0.594633
0.595061
0.595354
0.595602
0.595902
0.59635
0.596885
0.597427
0.598011
0.598594
0.599136
0.59962
0.60012
0.600669
0.601305
0.602029
0.602788
0.603556
0.604339
0.605207
0.606002
0.60671
0.607521
0.608336
0.609051
0.609784
0.610441
0.610883
0.611294
0.61164
0.611885
0.612045
0.612277
0.612423
0.612409
0.612467
0.612964
0.613438
0.613959
0.614953
0.616579
0.618403
0.620085
0.621562
0.622843
0.623701
0.623922
0.624209
0.62489
0.625712
0.626425
0.627336
0.628429
0.629358
0.630278
0.631022
0.631091
0.631049
0.631138
0.631013
0.629342
0.624655
0.619344
0.618974
0.621741
0.625403
0.629654
0.634526
0.638208
0.642344
0.647203
0.650348
0.654831
0.659668
0.662819
0.664823
0.775997
0.607357
0.607484
0.607619
0.607757
0.607897
0.608045
0.608205
0.608372
0.608551
0.60877
0.608965
0.609133
0.609299
0.60948
0.609695
0.609928
0.610151
0.610376
0.610634
0.610885
0.611097
0.611356
0.61161
0.611826
0.612071
0.612357
0.612632
0.612834
0.613026
0.613364
0.613714
0.613981
0.614266
0.614553
0.614794
0.615124
0.615346
0.615548
0.615789
0.616132
0.616502
0.616768
0.616941
0.616939
0.616979
0.617315
0.617495
0.617479
0.617704
0.617966
0.618013
0.618265
0.618648
0.619019
0.619572
0.620465
0.621494
0.622658
0.62404
0.625689
0.627428
0.6291
0.630541
0.63161
0.632419
0.632731
0.632965
0.63355
0.634213
0.634323
0.634322
0.634679
0.635734
0.637357
0.638802
0.639695
0.640201
0.640191
0.640048
0.639921
0.640123
0.640554
0.640598
0.638892
0.633825
0.627923
0.62613
0.627257
0.629989
0.632547
0.636902
0.641828
0.64558
0.651058
0.656022
0.660248
0.665102
0.669769
0.672953
0.678634
0.621922
0.621983
0.622056
0.622141
0.622229
0.62233
0.622416
0.622514
0.62265
0.622774
0.622847
0.622936
0.623068
0.623199
0.62331
0.623418
0.623538
0.623688
0.623925
0.624065
0.624049
0.624019
0.624097
0.624299
0.62457
0.624911
0.62495
0.624941
0.625015
0.625186
0.625315
0.625503
0.625723
0.625871
0.625983
0.626248
0.626636
0.626699
0.626778
0.627035
0.627565
0.628148
0.62864
0.629155
0.629735
0.630342
0.630997
0.63176
0.632551
0.633417
0.63438
0.635326
0.636362
0.63742
0.638439
0.639377
0.640212
0.640995
0.641603
0.641806
0.641906
0.642178
0.642361
0.642448
0.642498
0.642268
0.642073
0.642385
0.643305
0.64436
0.645522
0.646777
0.647943
0.648605
0.64915
0.649141
0.649226
0.649147
0.649084
0.649467
0.65019
0.650491
0.650217
0.64821
0.643159
0.637831
0.636898
0.637937
0.640798
0.64342
0.646019
0.650707
0.653841
0.657001
0.66306
0.668226
0.671579
0.675234
0.678274
0.683981
0.637835
0.63792
0.638008
0.638095
0.638167
0.63825
0.638343
0.638464
0.638587
0.638692
0.638803
0.638922
0.639054
0.639199
0.639325
0.639451
0.63969
0.639874
0.639962
0.640107
0.64033
0.640556
0.640709
0.640908
0.641223
0.641439
0.641634
0.641875
0.642129
0.642473
0.642789
0.643034
0.643252
0.643484
0.643763
0.644064
0.644346
0.644662
0.644983
0.645298
0.645596
0.645914
0.646212
0.646483
0.646819
0.647186
0.647515
0.647844
0.648168
0.648439
0.648665
0.648849
0.649084
0.649273
0.649315
0.649253
0.649281
0.649514
0.649588
0.649285
0.649233
0.6496
0.650017
0.650658
0.651692
0.653094
0.654518
0.655779
0.657059
0.658405
0.659278
0.659999
0.660059
0.659986
0.659804
0.659696
0.659777
0.65985
0.66013
0.66079
0.661012
0.660895
0.659988
0.657121
0.651617
0.646003
0.645636
0.647394
0.650343
0.65452