/*--------------------------------*- C++ -*----------------------------------*\
  =========                 |
  \\      /  F ield         | OpenFOAM: The Open Source CFD Toolbox
   \\    /   O peration     | Website:  https://openfoam.org
    \\  /    A nd           | Version:  7
     \\/     M anipulation  |
\*---------------------------------------------------------------------------*/
FoamFile
{
    version     2.0;
    format      ascii;
    class       volVectorField;
    location    "2";
    object      U;
}
// * * * * * * * * * * * * * * * * * * * * * * * * * * * * * * * * * * * * * //

dimensions      [0 1 -1 0 0 0 0];

internalField   nonuniform List<vector> 
90000
(
(2.8682 -1.30363 0)
(2.84802 -1.23334 0)
(2.83254 -1.14854 0)
(2.82574 -1.00627 0)
(2.83656 -0.975596 0)
(2.8424 -0.947044 0)
(2.83842 -0.860277 0)
(2.84729 -0.783745 0)
(2.85802 -0.770145 0)
(2.86212 -0.70848 0)
(2.86829 -0.664179 0)
(2.87061 -0.608729 0)
(2.87576 -0.575376 0)
(2.87569 -0.507813 0)
(2.88085 -0.47695 0)
(2.87907 -0.410042 0)
(2.88461 -0.382312 0)
(2.88086 -0.307605 0)
(2.8831 -0.293069 0)
(2.87129 -0.238756 0)
(2.86277 -0.224815 0)
(2.85381 -0.192775 0)
(2.84673 -0.188662 0)
(2.8405 -0.185085 0)
(2.83527 -0.179923 0)
(2.8315 -0.178101 0)
(2.82717 -0.176412 0)
(2.82347 -0.177235 0)
(2.82085 -0.176171 0)
(2.81802 -0.171545 0)
(2.81207 -0.165169 0)
(2.81273 -0.149309 0)
(2.8088 -0.135173 0)
(2.81121 -0.113028 0)
(2.81214 -0.0967005 0)
(2.814 -0.0840961 0)
(2.81582 -0.0789211 0)
(2.81548 -0.0739461 0)
(2.81555 -0.0754926 0)
(2.79429 -0.0731773 0)
(2.78594 -0.0752976 0)
(2.77398 -0.0770632 0)
(2.76308 -0.0796398 0)
(2.75274 -0.0831733 0)
(2.74277 -0.0881135 0)
(2.73389 -0.0961452 0)
(2.72712 -0.104507 0)
(2.72478 -0.112525 0)
(2.72237 -0.115965 0)
(2.72223 -0.121591 0)
(2.72492 -0.118411 0)
(2.72955 -0.10937 0)
(2.73239 -0.0963257 0)
(2.73368 -0.077538 0)
(2.72093 -0.0782584 0)
(2.71586 -0.0813035 0)
(2.70801 -0.0841338 0)
(2.69463 -0.0993407 0)
(2.67939 -0.10066 0)
(2.67133 -0.0999279 0)
(2.66404 -0.093261 0)
(2.65484 -0.0879464 0)
(2.65116 -0.0794229 0)
(2.6423 -0.0781507 0)
(2.63964 -0.0793013 0)
(2.63235 -0.0846914 0)
(2.62295 -0.087046 0)
(2.62127 -0.0866618 0)
(2.62061 -0.0814864 0)
(2.61239 -0.079008 0)
(2.60834 -0.0803756 0)
(2.60377 -0.0858499 0)
(2.59867 -0.0944521 0)
(2.59143 -0.104818 0)
(2.58644 -0.113697 0)
(2.58708 -0.115726 0)
(2.59134 -0.108951 0)
(2.60151 -0.0956487 0)
(2.6155 -0.087087 0)
(2.64661 -0.0764392 0)
(2.68229 -0.0501846 0)
(2.7067 -0.015594 0)
(2.73337 0.00937593 0)
(2.72268 0.0221216 0)
(2.6388 0.0190115 0)
(2.56562 0.00833022 0)
(2.50523 -0.0125743 0)
(2.44356 -0.0310354 0)
(2.41469 -0.0403009 0)
(2.41179 -0.0402114 0)
(2.41447 -0.0339786 0)
(2.42451 -0.0192771 0)
(2.42468 -0.0140996 0)
(2.42129 -0.018033 0)
(2.42178 -0.0171236 0)
(2.42967 -0.0249343 0)
(2.43936 -0.0630579 0)
(2.45446 -0.120675 0)
(2.5497 -0.101807 0)
(2.71679 -0.0608111 0)
(2.89535 -1.39378 0)
(2.89508 -1.39367 0)
(2.89482 -1.39349 0)
(2.89457 -1.39322 0)
(2.89424 -1.39311 0)
(2.89394 -1.39285 0)
(2.89361 -1.39264 0)
(2.89328 -1.39228 0)
(2.8928 -1.39216 0)
(2.89238 -1.39171 0)
(2.89172 -1.39161 0)
(2.89126 -1.391 0)
(2.89044 -1.3914 0)
(2.88864 -1.38813 0)
(2.88395 -1.37918 0)
(2.87579 -1.35772 0)
(2.86496 -1.32659 0)
(2.84979 -1.27145 0)
(2.83326 -1.2116 0)
(2.81169 -1.12122 0)
(2.79022 -1.03269 0)
(2.76522 -0.920401 0)
(2.74084 -0.822014 0)
(2.71949 -0.709262 0)
(2.70757 -0.604953 0)
(2.70894 -0.537606 0)
(2.69652 -0.42176 0)
(2.70892 -0.383697 0)
(2.68944 -0.289891 0)
(2.69233 -0.244201 0)
(2.6726 -0.164561 0)
(2.67772 -0.134644 0)
(2.6565 -0.0698728 0)
(2.65312 -0.046885 0)
(2.64178 -0.00755535 0)
(2.63207 0.00291577 0)
(2.6254 0.0178579 0)
(2.61202 0.00659753 0)
(2.61301 -0.0039717 0)
(2.62134 -0.020709 0)
(2.62737 -0.0394196 0)
(2.63778 -0.0584786 0)
(2.64475 -0.0775499 0)
(2.64685 -0.0969776 0)
(2.64625 -0.10444 0)
(2.64688 -0.107295 0)
(2.6432 -0.108302 0)
(2.64931 -0.104112 0)
(2.65333 -0.103485 0)
(2.65625 -0.104464 0)
(2.66471 -0.092893 0)
(2.66538 -0.0780969 0)
(2.66049 -0.0677194 0)
(2.65628 -0.0667468 0)
(2.64688 -0.0688771 0)
(2.63611 -0.0783805 0)
(2.62864 -0.0937202 0)
(2.61403 -0.0936953 0)
(2.61075 -0.092636 0)
(2.60768 -0.0897284 0)
(2.60573 -0.0886608 0)
(2.60371 -0.0837081 0)
(2.60232 -0.0800747 0)
(2.59853 -0.0783426 0)
(2.5954 -0.0821027 0)
(2.58125 -0.0895597 0)
(2.57796 -0.0897137 0)
(2.57613 -0.0866037 0)
(2.57388 -0.0811342 0)
(2.56887 -0.0787578 0)
(2.56493 -0.0811295 0)
(2.56066 -0.0880592 0)
(2.5558 -0.0946757 0)
(2.54902 -0.104316 0)
(2.54064 -0.112942 0)
(2.53399 -0.11446 0)
(2.52697 -0.106924 0)
(2.52091 -0.0964514 0)
(2.52414 -0.0913359 0)
(2.53285 -0.0844163 0)
(2.54488 -0.0624294 0)
(2.54666 -0.0267782 0)
(2.54759 -0.00162504 0)
(2.53203 0.0271137 0)
(2.47903 0.0267244 0)
(2.4287 0.0141453 0)
(2.39963 -0.00561506 0)
(2.37091 -0.0243302 0)
(2.35125 -0.038797 0)
(2.34696 -0.0401444 0)
(2.34298 -0.0342114 0)
(2.34595 -0.0187849 0)
(2.35015 -0.0125798 0)
(2.35718 -0.0186011 0)
(2.36905 -0.0206932 0)
(2.39181 -0.0287979 0)
(2.41536 -0.0649218 0)
(2.41737 -0.125907 0)
(2.47532 -0.110287 0)
(2.62538 -0.0742681 0)
(2.8915 -1.39227 0)
(2.89103 -1.39207 0)
(2.89054 -1.39182 0)
(2.89001 -1.3916 0)
(2.88955 -1.3911 0)
(2.88894 -1.39085 0)
(2.88835 -1.39045 0)
(2.88771 -1.39011 0)
(2.8871 -1.3896 0)
(2.88617 -1.38945 0)
(2.88545 -1.38895 0)
(2.88453 -1.38878 0)
(2.88378 -1.38842 0)
(2.88238 -1.38925 0)
(2.88183 -1.3888 0)
(2.88145 -1.38771 0)
(2.88128 -1.38669 0)
(2.88087 -1.38634 0)
(2.87958 -1.38712 0)
(2.87926 -1.38757 0)
(2.87892 -1.38803 0)
(2.87861 -1.38798 0)
(2.87815 -1.38801 0)
(2.87804 -1.38695 0)
(2.87757 -1.38729 0)
(2.87436 -1.381 0)
(2.86568 -1.36068 0)
(2.8545 -1.33095 0)
(2.83776 -1.2823 0)
(2.82109 -1.22332 0)
(2.80392 -1.14285 0)
(2.78982 -1.07331 0)
(2.77259 -0.969776 0)
(2.75995 -0.889238 0)
(2.7421 -0.768345 0)
(2.73044 -0.68714 0)
(2.70462 -0.556612 0)
(2.69417 -0.489452 0)
(2.66513 -0.373395 0)
(2.66462 -0.331843 0)
(2.64606 -0.256766 0)
(2.65015 -0.24045 0)
(2.63984 -0.206265 0)
(2.64335 -0.189868 0)
(2.64009 -0.172463 0)
(2.64639 -0.160031 0)
(2.6417 -0.143904 0)
(2.63743 -0.127173 0)
(2.63227 -0.109325 0)
(2.62386 -0.0795318 0)
(2.62204 -0.07012 0)
(2.60955 -0.0534082 0)
(2.60321 -0.057565 0)
(2.59277 -0.0725797 0)
(2.58631 -0.0891916 0)
(2.57957 -0.104294 0)
(2.57694 -0.100153 0)
(2.58096 -0.0956291 0)
(2.58397 -0.0890646 0)
(2.58656 -0.0818132 0)
(2.58804 -0.0791158 0)
(2.58839 -0.0783686 0)
(2.58652 -0.0791139 0)
(2.58092 -0.0824304 0)
(2.57088 -0.0891261 0)
(2.55701 -0.0900981 0)
(2.55702 -0.0875373 0)
(2.55877 -0.0797341 0)
(2.55566 -0.076117 0)
(2.55284 -0.0783543 0)
(2.54665 -0.0836921 0)
(2.5419 -0.0895342 0)
(2.53627 -0.0945829 0)
(2.52856 -0.104716 0)
(2.51684 -0.114685 0)
(2.50494 -0.114278 0)
(2.49372 -0.105706 0)
(2.48209 -0.0977194 0)
(2.47266 -0.0899285 0)
(2.4679 -0.0776935 0)
(2.45598 -0.0613788 0)
(2.43373 -0.0184936 0)
(2.41558 0.00626633 0)
(2.38927 0.0337749 0)
(2.36309 0.0417308 0)
(2.34299 0.0239489 0)
(2.3349 -0.00250573 0)
(2.32506 -0.0207851 0)
(2.31389 -0.0358089 0)
(2.30895 -0.0377339 0)
(2.30151 -0.0322028 0)
(2.30087 -0.0181105 0)
(2.30934 -0.0121919 0)
(2.3253 -0.0164962 0)
(2.34371 -0.0212415 0)
(2.37187 -0.0318498 0)
(2.40003 -0.0673239 0)
(2.39319 -0.126386 0)
(2.40454 -0.122151 0)
(2.53525 -0.086829 0)
(2.88665 -1.38872 0)
(2.88627 -1.38831 0)
(2.88583 -1.38798 0)
(2.88529 -1.38791 0)
(2.88487 -1.38753 0)
(2.88453 -1.38702 0)
(2.88389 -1.38707 0)
(2.88341 -1.38689 0)
(2.88307 -1.38632 0)
(2.8824 -1.38621 0)
(2.88165 -1.38635 0)
(2.88126 -1.3859 0)
(2.88067 -1.38579 0)
(2.87983 -1.3862 0)
(2.87928 -1.38644 0)
(2.87886 -1.3862 0)
(2.87856 -1.38522 0)
(2.87836 -1.38434 0)
(2.87725 -1.38491 0)
(2.87668 -1.38576 0)
(2.87655 -1.38609 0)
(2.87603 -1.38688 0)
(2.87572 -1.38684 0)
(2.8756 -1.38622 0)
(2.87535 -1.38628 0)
(2.87534 -1.3859 0)
(2.87543 -1.38561 0)
(2.8754 -1.38553 0)
(2.87505 -1.38581 0)
(2.87474 -1.38593 0)
(2.87444 -1.38585 0)
(2.87412 -1.38567 0)
(2.87358 -1.38581 0)
(2.87326 -1.38533 0)
(2.87265 -1.38531 0)
(2.87146 -1.38289 0)
(2.86226 -1.35551 0)
(2.84536 -1.29564 0)
(2.81368 -1.17767 0)
(2.78459 -1.05144 0)
(2.7436 -0.861475 0)
(2.72442 -0.729927 0)
(2.69159 -0.549061 0)
(2.69249 -0.448717 0)
(2.66706 -0.309456 0)
(2.67016 -0.230858 0)
(2.64974 -0.135407 0)
(2.63176 -0.0550563 0)
(2.61829 -0.0240106 0)
(2.60411 0.0171306 0)
(2.58681 -0.00185109 0)
(2.5759 -0.0346593 0)
(2.57297 -0.0604915 0)
(2.57255 -0.078136 0)
(2.56842 -0.0952544 0)
(2.57167 -0.0977442 0)
(2.58329 -0.0950554 0)
(2.59524 -0.089229 0)
(2.59514 -0.083853 0)
(2.5949 -0.0790239 0)
(2.59117 -0.0741897 0)
(2.58636 -0.0747853 0)
(2.57911 -0.080369 0)
(2.57065 -0.0879687 0)
(2.55556 -0.0927054 0)
(2.55354 -0.0895046 0)
(2.55565 -0.082255 0)
(2.55553 -0.0712733 0)
(2.54973 -0.0747686 0)
(2.54413 -0.0796036 0)
(2.5352 -0.0867893 0)
(2.53092 -0.0890485 0)
(2.52261 -0.092606 0)
(2.51216 -0.102621 0)
(2.49742 -0.110598 0)
(2.48429 -0.108795 0)
(2.47411 -0.101583 0)
(2.45934 -0.0951434 0)
(2.44538 -0.0873823 0)
(2.43239 -0.074991 0)
(2.40688 -0.0578416 0)
(2.36836 -0.0117404 0)
(2.34211 0.00987137 0)
(2.30798 0.035879 0)
(2.29601 0.0458798 0)
(2.29579 0.0277712 0)
(2.30081 -0.00175468 0)
(2.29766 -0.0212705 0)
(2.29111 -0.0347318 0)
(2.28601 -0.0361624 0)
(2.2779 -0.0302783 0)
(2.27778 -0.0172045 0)
(2.28939 -0.0129402 0)
(2.31192 -0.0168239 0)
(2.33548 -0.024475 0)
(2.36358 -0.0371094 0)
(2.38924 -0.0705334 0)
(2.37757 -0.123782 0)
(2.34968 -0.135879 0)
(2.44536 -0.0928892 0)
(2.88222 -1.38685 0)
(2.88194 -1.3868 0)
(2.88178 -1.38644 0)
(2.88149 -1.38634 0)
(2.88118 -1.38638 0)
(2.88102 -1.38609 0)
(2.88081 -1.38591 0)
(2.88046 -1.38597 0)
(2.88019 -1.3858 0)
(2.8798 -1.38569 0)
(2.87934 -1.38575 0)
(2.87905 -1.38557 0)
(2.87875 -1.38548 0)
(2.87837 -1.38565 0)
(2.8781 -1.38581 0)
(2.87788 -1.38568 0)
(2.87763 -1.38525 0)
(2.87731 -1.38482 0)
(2.87671 -1.38516 0)
(2.87634 -1.38569 0)
(2.87616 -1.38593 0)
(2.87577 -1.3863 0)
(2.87535 -1.3867 0)
(2.87521 -1.38622 0)
(2.87524 -1.38582 0)
(2.87518 -1.38591 0)
(2.8752 -1.38573 0)
(2.87525 -1.38541 0)
(2.87498 -1.38542 0)
(2.87455 -1.38558 0)
(2.87423 -1.38525 0)
(2.87391 -1.38489 0)
(2.8734 -1.38491 0)
(2.87299 -1.38487 0)
(2.87241 -1.38396 0)
(2.87161 -1.38342 0)
(2.87108 -1.38315 0)
(2.8704 -1.38276 0)
(2.86954 -1.38175 0)
(2.86881 -1.38116 0)
(2.86834 -1.38054 0)
(2.86812 -1.37974 0)
(2.8655 -1.37234 0)
(2.85448 -1.33664 0)
(2.83227 -1.25805 0)
(2.80988 -1.14172 0)
(2.78885 -1.00888 0)
(2.77089 -0.837896 0)
(2.76601 -0.716817 0)
(2.74204 -0.522882 0)
(2.72815 -0.418893 0)
(2.69247 -0.305278 0)
(2.67134 -0.229478 0)
(2.66311 -0.177208 0)
(2.6471 -0.132561 0)
(2.63654 -0.0979553 0)
(2.63042 -0.0848444 0)
(2.62559 -0.0799006 0)
(2.61479 -0.0790974 0)
(2.60772 -0.0753562 0)
(2.60089 -0.0712613 0)
(2.593 -0.0757067 0)
(2.58104 -0.0878049 0)
(2.56362 -0.0969188 0)
(2.56071 -0.0955329 0)
(2.56116 -0.0874061 0)
(2.56586 -0.0730493 0)
(2.5551 -0.0686658 0)
(2.54863 -0.0739514 0)
(2.53478 -0.0836613 0)
(2.5292 -0.0858187 0)
(2.5206 -0.0850913 0)
(2.51028 -0.0900353 0)
(2.49748 -0.099316 0)
(2.48146 -0.104809 0)
(2.46867 -0.103085 0)
(2.45739 -0.0964599 0)
(2.44001 -0.0901073 0)
(2.42638 -0.0810341 0)
(2.41158 -0.0681191 0)
(2.38115 -0.0478887 0)
(2.33531 -0.000657044 0)
(2.30522 0.0177926 0)
(2.27071 0.0427763 0)
(2.26463 0.0497668 0)
(2.27238 0.0287626 0)
(2.28174 -0.0014764 0)
(2.28102 -0.0218111 0)
(2.27573 -0.0327123 0)
(2.27034 -0.0333026 0)
(2.26328 -0.027628 0)
(2.26589 -0.0165848 0)
(2.27851 -0.0130769 0)
(2.30398 -0.0193281 0)
(2.33207 -0.0291468 0)
(2.35861 -0.041923 0)
(2.37952 -0.0723491 0)
(2.36619 -0.118941 0)
(2.32039 -0.142816 0)
(2.36391 -0.0968823 0)
(2.88062 -1.38524 0)
(2.88052 -1.38521 0)
(2.88045 -1.3851 0)
(2.88035 -1.38506 0)
(2.8803 -1.38494 0)
(2.8802 -1.38495 0)
(2.88009 -1.38504 0)
(2.88002 -1.38488 0)
(2.87991 -1.38464 0)
(2.87947 -1.38478 0)
(2.87892 -1.38534 0)
(2.87875 -1.38532 0)
(2.87872 -1.38499 0)
(2.87864 -1.38488 0)
(2.87851 -1.38499 0)
(2.87835 -1.38511 0)
(2.8782 -1.38491 0)
(2.87794 -1.3846 0)
(2.87729 -1.38487 0)
(2.87691 -1.38525 0)
(2.87677 -1.38539 0)
(2.87637 -1.38572 0)
(2.8759 -1.38621 0)
(2.87569 -1.38611 0)
(2.87561 -1.38551 0)
(2.87555 -1.38537 0)
(2.87551 -1.38534 0)
(2.87547 -1.38513 0)
(2.87536 -1.38489 0)
(2.87498 -1.3849 0)
(2.87458 -1.38477 0)
(2.87425 -1.38433 0)
(2.87384 -1.38409 0)
(2.87338 -1.38401 0)
(2.87292 -1.38342 0)
(2.87209 -1.38242 0)
(2.87156 -1.38189 0)
(2.87113 -1.38161 0)
(2.87058 -1.38123 0)
(2.8698 -1.38019 0)
(2.86927 -1.37966 0)
(2.8691 -1.37906 0)
(2.86878 -1.3788 0)
(2.86829 -1.37835 0)
(2.86763 -1.37734 0)
(2.86712 -1.37646 0)
(2.86677 -1.37598 0)
(2.86635 -1.37529 0)
(2.86611 -1.37443 0)
(2.85597 -1.32615 0)
(2.83724 -1.2058 0)
(2.7989 -0.986433 0)
(2.76909 -0.771403 0)
(2.74649 -0.569397 0)
(2.73533 -0.410828 0)
(2.70007 -0.229963 0)
(2.70327 -0.198327 0)
(2.64668 -0.0797428 0)
(2.61738 -0.0653645 0)
(2.6101 -0.0569567 0)
(2.60427 -0.0612167 0)
(2.59863 -0.071678 0)
(2.57786 -0.0881871 0)
(2.57085 -0.0898273 0)
(2.56831 -0.0885171 0)
(2.57463 -0.0742187 0)
(2.56921 -0.0626372 0)
(2.5596 -0.0661869 0)
(2.53924 -0.0781963 0)
(2.52948 -0.0814281 0)
(2.52385 -0.080207 0)
(2.51422 -0.0788333 0)
(2.50395 -0.087087 0)
(2.48983 -0.0964134 0)
(2.47444 -0.100678 0)
(2.46097 -0.0990156 0)
(2.44515 -0.0926224 0)
(2.4271 -0.0868801 0)
(2.41458 -0.0743103 0)
(2.39945 -0.0589012 0)
(2.3674 -0.0348946 0)
(2.31991 0.0117796 0)
(2.29039 0.0298913 0)
(2.25925 0.0478294 0)
(2.25311 0.048399 0)
(2.26182 0.0277305 0)
(2.27056 -0.00352956 0)
(2.27029 -0.0223586 0)
(2.26526 -0.0301488 0)
(2.25966 -0.0301677 0)
(2.25412 -0.024846 0)
(2.25925 -0.0166912 0)
(2.27251 -0.014445 0)
(2.29755 -0.0210268 0)
(2.3245 -0.0325299 0)
(2.34998 -0.0448448 0)
(2.36994 -0.0735856 0)
(2.35694 -0.114089 0)
(2.30524 -0.141295 0)
(2.30148 -0.102027 0)
(2.88049 -1.38564 0)
(2.88043 -1.38564 0)
(2.8804 -1.3856 0)
(2.88033 -1.3857 0)
(2.88033 -1.38567 0)
(2.88036 -1.3856 0)
(2.88023 -1.38578 0)
(2.88013 -1.38578 0)
(2.88005 -1.38555 0)
(2.87972 -1.38557 0)
(2.87929 -1.38595 0)
(2.8791 -1.38607 0)
(2.87905 -1.3857 0)
(2.87916 -1.38548 0)
(2.8791 -1.38554 0)
(2.87899 -1.38568 0)
(2.87892 -1.38537 0)
(2.87882 -1.38484 0)
(2.87814 -1.38507 0)
(2.87759 -1.38569 0)
(2.87753 -1.38573 0)
(2.87728 -1.38588 0)
(2.87665 -1.38651 0)
(2.87641 -1.38681 0)
(2.87619 -1.38595 0)
(2.87595 -1.38533 0)
(2.87596 -1.38494 0)
(2.87593 -1.38475 0)
(2.87582 -1.38432 0)
(2.87565 -1.384 0)
(2.87523 -1.38397 0)
(2.87484 -1.38376 0)
(2.87449 -1.38314 0)
(2.87404 -1.38279 0)
(2.87354 -1.3827 0)
(2.87307 -1.38238 0)
(2.87259 -1.38183 0)
(2.87214 -1.38131 0)
(2.87166 -1.38068 0)
(2.871 -1.37993 0)
(2.87057 -1.37939 0)
(2.87025 -1.37882 0)
(2.87006 -1.37818 0)
(2.86973 -1.3779 0)
(2.86938 -1.37742 0)
(2.86885 -1.37627 0)
(2.86862 -1.37569 0)
(2.86843 -1.37541 0)
(2.86814 -1.37444 0)
(2.86775 -1.37396 0)
(2.86756 -1.37332 0)
(2.86749 -1.37263 0)
(2.86754 -1.37187 0)
(2.8656 -1.36391 0)
(2.84988 -1.29957 0)
(2.81988 -1.13741 0)
(2.79348 -0.947887 0)
(2.72949 -0.628488 0)
(2.73242 -0.502839 0)
(2.68377 -0.304214 0)
(2.62795 -0.160453 0)
(2.62822 -0.156327 0)
(2.59653 -0.122113 0)
(2.59437 -0.0960002 0)
(2.58716 -0.0696944 0)
(2.5745 -0.0520761 0)
(2.56201 -0.0561432 0)
(2.54404 -0.0735365 0)
(2.52235 -0.0834614 0)
(2.52303 -0.0817181 0)
(2.52226 -0.0735123 0)
(2.51132 -0.0750008 0)
(2.49789 -0.084523 0)
(2.48406 -0.092399 0)
(2.47065 -0.0954606 0)
(2.45713 -0.0948835 0)
(2.43891 -0.0900685 0)
(2.42008 -0.0820119 0)
(2.40942 -0.0671997 0)
(2.39407 -0.0498248 0)
(2.36183 -0.0234664 0)
(2.3159 0.0197759 0)
(2.2899 0.0400393 0)
(2.26267 0.0535535 0)
(2.25434 0.0469009 0)
(2.2586 0.0232054 0)
(2.26709 -0.00571073 0)
(2.2659 -0.0220555 0)
(2.26108 -0.0283034 0)
(2.25506 -0.0278059 0)
(2.25083 -0.0228457 0)
(2.25656 -0.0170588 0)
(2.26983 -0.0158464 0)
(2.29458 -0.0227178 0)
(2.31952 -0.036403 0)
(2.34401 -0.0490998 0)
(2.36187 -0.0747149 0)
(2.34886 -0.109473 0)
(2.29668 -0.135687 0)
(2.25782 -0.102892 0)
(2.88177 -1.38554 0)
(2.88166 -1.38555 0)
(2.88156 -1.38567 0)
(2.88156 -1.38569 0)
(2.88162 -1.38561 0)
(2.88155 -1.38571 0)
(2.88145 -1.38583 0)
(2.88144 -1.38564 0)
(2.88123 -1.38555 0)
(2.88065 -1.38608 0)
(2.88053 -1.38633 0)
(2.88033 -1.38589 0)
(2.88021 -1.38562 0)
(2.88034 -1.38524 0)
(2.88039 -1.38512 0)
(2.88019 -1.38535 0)
(2.88006 -1.38526 0)
(2.88 -1.38475 0)
(2.8795 -1.38474 0)
(2.87896 -1.38523 0)
(2.87888 -1.38522 0)
(2.87874 -1.38528 0)
(2.87809 -1.38583 0)
(2.87772 -1.38635 0)
(2.87766 -1.38607 0)
(2.87711 -1.38522 0)
(2.87691 -1.38458 0)
(2.87676 -1.38427 0)
(2.8766 -1.38379 0)
(2.87649 -1.38326 0)
(2.87616 -1.3831 0)
(2.87583 -1.38312 0)
(2.87551 -1.38254 0)
(2.87498 -1.38204 0)
(2.8747 -1.38158 0)
(2.87437 -1.38133 0)
(2.87383 -1.38127 0)
(2.87345 -1.38119 0)
(2.87312 -1.38016 0)
(2.87259 -1.3793 0)
(2.87225 -1.37876 0)
(2.872 -1.3785 0)
(2.87152 -1.37794 0)
(2.87123 -1.37718 0)
(2.87084 -1.37685 0)
(2.87041 -1.3762 0)
(2.87001 -1.37541 0)
(2.86983 -1.37503 0)
(2.86966 -1.37455 0)
(2.86938 -1.37385 0)
(2.86942 -1.37327 0)
(2.86947 -1.37252 0)
(2.86951 -1.37172 0)
(2.86925 -1.37138 0)
(2.86871 -1.37082 0)
(2.8681 -1.37041 0)
(2.86759 -1.36982 0)
(2.86682 -1.36787 0)
(2.85288 -1.30504 0)
(2.80281 -1.1032 0)
(2.72654 -0.77427 0)
(2.72964 -0.574408 0)
(2.63125 -0.21759 0)
(2.62208 -0.136672 0)
(2.58348 -0.0120638 0)
(2.56073 -0.0223954 0)
(2.53927 -0.0546857 0)
(2.52705 -0.0765983 0)
(2.52718 -0.078005 0)
(2.52779 -0.075653 0)
(2.52677 -0.0592915 0)
(2.51484 -0.0668484 0)
(2.48649 -0.083743 0)
(2.47354 -0.087277 0)
(2.4636 -0.0895779 0)
(2.45045 -0.0902907 0)
(2.43192 -0.0832436 0)
(2.41441 -0.075409 0)
(2.40383 -0.0581817 0)
(2.39067 -0.0407677 0)
(2.36369 -0.0163168 0)
(2.32211 0.0219523 0)
(2.29897 0.0489021 0)
(2.27627 0.0572809 0)
(2.261 0.0425127 0)
(2.25961 0.0174033 0)
(2.26941 -0.00822319 0)
(2.26816 -0.0212726 0)
(2.26257 -0.0261887 0)
(2.25591 -0.0255689 0)
(2.25294 -0.0213185 0)
(2.25805 -0.0169301 0)
(2.26994 -0.0168652 0)
(2.29304 -0.0250079 0)
(2.31591 -0.0401582 0)
(2.33859 -0.052782 0)
(2.35495 -0.0755419 0)
(2.3416 -0.104826 0)
(2.29024 -0.128819 0)
(2.23044 -0.100492 0)
(2.88301 -1.38593 0)
(2.88292 -1.38595 0)
(2.88292 -1.38593 0)
(2.88296 -1.3859 0)
(2.88298 -1.3859 0)
(2.8829 -1.38601 0)
(2.88282 -1.38604 0)
(2.88277 -1.38578 0)
(2.8826 -1.38559 0)
(2.88207 -1.38595 0)
(2.88192 -1.38621 0)
(2.88183 -1.38602 0)
(2.88157 -1.38577 0)
(2.88155 -1.38542 0)
(2.88156 -1.38518 0)
(2.88131 -1.38529 0)
(2.88114 -1.38529 0)
(2.88108 -1.38487 0)
(2.8808 -1.38467 0)
(2.88036 -1.38494 0)
(2.88021 -1.38508 0)
(2.88008 -1.38515 0)
(2.87965 -1.38548 0)
(2.87929 -1.38592 0)
(2.87917 -1.38581 0)
(2.87869 -1.3848 0)
(2.87838 -1.38414 0)
(2.87807 -1.38392 0)
(2.87778 -1.38358 0)
(2.87755 -1.3831 0)
(2.87729 -1.38282 0)
(2.87707 -1.38268 0)
(2.87688 -1.38222 0)
(2.87631 -1.38169 0)
(2.87602 -1.38131 0)
(2.8759 -1.38095 0)
(2.87564 -1.38067 0)
(2.87514 -1.38043 0)
(2.87458 -1.38005 0)
(2.8742 -1.37929 0)
(2.87399 -1.37859 0)
(2.87375 -1.37813 0)
(2.87326 -1.37763 0)
(2.87289 -1.37704 0)
(2.87262 -1.37667 0)
(2.8722 -1.37612 0)
(2.87162 -1.37555 0)
(2.87145 -1.37499 0)
(2.87124 -1.37472 0)
(2.87096 -1.37419 0)
(2.87086 -1.37341 0)
(2.87049 -1.3726 0)
(2.87033 -1.37166 0)
(2.87042 -1.37119 0)
(2.87034 -1.37079 0)
(2.86956 -1.36998 0)
(2.86895 -1.36953 0)
(2.86819 -1.36902 0)
(2.86735 -1.36843 0)
(2.8666 -1.36798 0)
(2.86583 -1.3671 0)
(2.859 -1.34513 0)
(2.81155 -1.1758 0)
(2.76111 -0.91428 0)
(2.69662 -0.563429 0)
(2.63254 -0.321379 0)
(2.60154 -0.214357 0)
(2.57048 -0.128693 0)
(2.56573 -0.0837537 0)
(2.5552 -0.053236 0)
(2.52508 -0.0445371 0)
(2.49664 -0.0647414 0)
(2.46609 -0.0834048 0)
(2.46297 -0.0831549 0)
(2.454 -0.0841506 0)
(2.43921 -0.0851075 0)
(2.4215 -0.0781632 0)
(2.40899 -0.0662323 0)
(2.40088 -0.0499119 0)
(2.38962 -0.0351851 0)
(2.37109 -0.0111347 0)
(2.33623 0.0236114 0)
(2.31319 0.0564625 0)
(2.29559 0.0593003 0)
(2.27209 0.0382498 0)
(2.26467 0.0132075 0)
(2.27348 -0.0079898 0)
(2.27274 -0.0205291 0)
(2.26702 -0.0246755 0)
(2.25979 -0.023783 0)
(2.25783 -0.0200574 0)
(2.26185 -0.0169486 0)
(2.27172 -0.0175187 0)
(2.29244 -0.0273283 0)
(2.3129 -0.0441955 0)
(2.33386 -0.0568458 0)
(2.34854 -0.0763055 0)
(2.3346 -0.100355 0)
(2.28444 -0.121121 0)
(2.21357 -0.0945922 0)
(2.88461 -1.38565 0)
(2.88459 -1.38566 0)
(2.8846 -1.38563 0)
(2.88457 -1.38566 0)
(2.88452 -1.38571 0)
(2.88446 -1.38573 0)
(2.8843 -1.38582 0)
(2.88411 -1.38583 0)
(2.88394 -1.38568 0)
(2.88375 -1.3856 0)
(2.88356 -1.3856 0)
(2.88343 -1.38558 0)
(2.88327 -1.38534 0)
(2.88315 -1.38504 0)
(2.88304 -1.38482 0)
(2.88267 -1.38495 0)
(2.88242 -1.38507 0)
(2.88233 -1.38474 0)
(2.88211 -1.38458 0)
(2.88177 -1.38483 0)
(2.88175 -1.38482 0)
(2.88162 -1.38493 0)
(2.88105 -1.38542 0)
(2.88068 -1.38576 0)
(2.8806 -1.38548 0)
(2.88005 -1.38437 0)
(2.87973 -1.38345 0)
(2.87944 -1.38308 0)
(2.87907 -1.38286 0)
(2.87877 -1.38245 0)
(2.8785 -1.38218 0)
(2.8782 -1.38217 0)
(2.878 -1.38198 0)
(2.8777 -1.38144 0)
(2.87733 -1.38107 0)
(2.87716 -1.38079 0)
(2.87694 -1.38055 0)
(2.87668 -1.38011 0)
(2.87637 -1.37956 0)
(2.87597 -1.37903 0)
(2.87562 -1.37862 0)
(2.87554 -1.37782 0)
(2.87504 -1.37686 0)
(2.87466 -1.37636 0)
(2.87445 -1.37609 0)
(2.87412 -1.37579 0)
(2.87333 -1.37515 0)
(2.87307 -1.37473 0)
(2.8728 -1.37408 0)
(2.87264 -1.37394 0)
(2.87229 -1.37323 0)
(2.87161 -1.37231 0)
(2.87142 -1.37138 0)
(2.87138 -1.37097 0)
(2.87116 -1.37051 0)
(2.87023 -1.36965 0)
(2.86971 -1.36921 0)
(2.86895 -1.36851 0)
(2.86849 -1.368 0)
(2.86779 -1.36752 0)
(2.86713 -1.36667 0)
(2.86618 -1.36593 0)
(2.86559 -1.36561 0)
(2.86487 -1.36516 0)
(2.85363 -1.33522 0)
(2.79317 -1.11909 0)
(2.70533 -0.702678 0)
(2.64062 -0.336807 0)
(2.61471 -0.163579 0)
(2.57416 -0.00322266 0)
(2.51971 -0.0186771 0)
(2.47467 -0.0652397 0)
(2.46975 -0.0748507 0)
(2.46951 -0.0738904 0)
(2.44882 -0.0802692 0)
(2.42719 -0.0825223 0)
(2.40755 -0.0750521 0)
(2.40035 -0.0592318 0)
(2.39403 -0.0435643 0)
(2.38718 -0.0294256 0)
(2.37851 -0.00265727 0)
(2.35367 0.0285832 0)
(2.33147 0.0612657 0)
(2.31632 0.0598984 0)
(2.28746 0.0368066 0)
(2.27453 0.0118399 0)
(2.27821 -0.00439916 0)
(2.27698 -0.0168902 0)
(2.27059 -0.0221587 0)
(2.26341 -0.021301 0)
(2.26237 -0.0181182 0)
(2.26573 -0.0162536 0)
(2.27362 -0.018368 0)
(2.29198 -0.0295161 0)
(2.30978 -0.0477201 0)
(2.32899 -0.0603007 0)
(2.34207 -0.0767096 0)
(2.32972 -0.0949671 0)
(2.28407 -0.11242 0)
(2.20436 -0.0872689 0)
(2.8862 -1.38565 0)
(2.88617 -1.38564 0)
(2.88613 -1.38562 0)
(2.88609 -1.38559 0)
(2.88595 -1.38567 0)
(2.88581 -1.38571 0)
(2.8857 -1.38562 0)
(2.88557 -1.38554 0)
(2.88537 -1.38563 0)
(2.88525 -1.38573 0)
(2.88512 -1.38551 0)
(2.885 -1.38524 0)
(2.88481 -1.38512 0)
(2.88464 -1.38499 0)
(2.8845 -1.3848 0)
(2.88418 -1.38476 0)
(2.88384 -1.38474 0)
(2.88368 -1.38457 0)
(2.88347 -1.38464 0)
(2.88319 -1.38503 0)
(2.88309 -1.38508 0)
(2.88306 -1.38487 0)
(2.88267 -1.38485 0)
(2.88204 -1.38511 0)
(2.88161 -1.3852 0)
(2.88117 -1.38433 0)
(2.88088 -1.38329 0)
(2.88066 -1.38289 0)
(2.88045 -1.3827 0)
(2.88025 -1.38218 0)
(2.87997 -1.38153 0)
(2.87954 -1.38129 0)
(2.8791 -1.3812 0)
(2.87888 -1.38089 0)
(2.87868 -1.38042 0)
(2.87845 -1.38011 0)
(2.8782 -1.37993 0)
(2.87783 -1.37946 0)
(2.87747 -1.37873 0)
(2.8771 -1.37822 0)
(2.87689 -1.37796 0)
(2.87705 -1.37755 0)
(2.8766 -1.37663 0)
(2.87615 -1.37625 0)
(2.87588 -1.3759 0)
(2.87561 -1.37579 0)
(2.87506 -1.37519 0)
(2.8743 -1.37462 0)
(2.87389 -1.37398 0)
(2.87365 -1.37331 0)
(2.87344 -1.37296 0)
(2.87274 -1.3721 0)
(2.87236 -1.37132 0)
(2.8722 -1.37084 0)
(2.87189 -1.37027 0)
(2.87113 -1.36926 0)
(2.87062 -1.36859 0)
(2.86992 -1.36778 0)
(2.86903 -1.367 0)
(2.86867 -1.3667 0)
(2.86782 -1.3664 0)
(2.86701 -1.36588 0)
(2.86614 -1.36529 0)
(2.86511 -1.36447 0)
(2.86437 -1.36383 0)
(2.86347 -1.36262 0)
(2.86353 -1.36143 0)
(2.83288 -1.2663 0)
(2.76209 -0.957716 0)
(2.67319 -0.512936 0)
(2.60043 -0.266009 0)
(2.55681 -0.132177 0)
(2.51618 -0.0769179 0)
(2.48006 -0.065125 0)
(2.44049 -0.0683576 0)
(2.41388 -0.0746132 0)
(2.39661 -0.0711037 0)
(2.39663 -0.0522306 0)
(2.38854 -0.0396656 0)
(2.38799 -0.027371 0)
(2.38401 -0.00301497 0)
(2.36825 0.0330627 0)
(2.34896 0.0628166 0)
(2.33547 0.0604921 0)
(2.30395 0.0380883 0)
(2.29002 0.017366 0)
(2.28469 0.00295089 0)
(2.27895 -0.0134747 0)
(2.27212 -0.0202962 0)
(2.26604 -0.0196105 0)
(2.26586 -0.0171813 0)
(2.2688 -0.0160159 0)
(2.27567 -0.0185341 0)
(2.29257 -0.0313097 0)
(2.30808 -0.0512765 0)
(2.32464 -0.0637657 0)
(2.33559 -0.0765264 0)
(2.32166 -0.0909486 0)
(2.27834 -0.104156 0)
(2.19717 -0.0797056 0)
(2.88778 -1.38546 0)
(2.88775 -1.38543 0)
(2.88764 -1.38546 0)
(2.88749 -1.38553 0)
(2.88737 -1.38552 0)
(2.88714 -1.38538 0)
(2.88706 -1.38533 0)
(2.88702 -1.38525 0)
(2.88696 -1.38519 0)
(2.88685 -1.38513 0)
(2.88672 -1.38503 0)
(2.8866 -1.38491 0)
(2.88639 -1.38494 0)
(2.88621 -1.38499 0)
(2.88602 -1.38482 0)
(2.88574 -1.38452 0)
(2.88543 -1.38441 0)
(2.88523 -1.38453 0)
(2.88503 -1.38477 0)
(2.88485 -1.38505 0)
(2.88467 -1.3851 0)
(2.88447 -1.38475 0)
(2.88409 -1.38453 0)
(2.8836 -1.38478 0)
(2.88311 -1.3845 0)
(2.88245 -1.38382 0)
(2.88214 -1.38309 0)
(2.88189 -1.38269 0)
(2.88165 -1.38272 0)
(2.88144 -1.38236 0)
(2.88114 -1.38142 0)
(2.88092 -1.38072 0)
(2.88055 -1.38043 0)
(2.88028 -1.38022 0)
(2.88016 -1.37985 0)
(2.8799 -1.37931 0)
(2.87961 -1.37902 0)
(2.87926 -1.3788 0)
(2.87895 -1.37829 0)
(2.87868 -1.37779 0)
(2.87838 -1.37772 0)
(2.87818 -1.37711 0)
(2.87756 -1.37628 0)
(2.87733 -1.37593 0)
(2.87711 -1.37539 0)
(2.87685 -1.37525 0)
(2.87644 -1.37492 0)
(2.87568 -1.37387 0)
(2.87496 -1.37327 0)
(2.87463 -1.37261 0)
(2.87431 -1.37218 0)
(2.87371 -1.37139 0)
(2.87327 -1.37081 0)
(2.87292 -1.37022 0)
(2.87262 -1.36998 0)
(2.87214 -1.36908 0)
(2.87136 -1.3681 0)
(2.8707 -1.36724 0)
(2.86983 -1.36631 0)
(2.86947 -1.36608 0)
(2.86881 -1.36575 0)
(2.86765 -1.36527 0)
(2.86636 -1.36454 0)
(2.86584 -1.36384 0)
(2.86522 -1.36266 0)
(2.86461 -1.36156 0)
(2.86445 -1.35996 0)
(2.86369 -1.35906 0)
(2.86285 -1.35695 0)
(2.84554 -1.31369 0)
(2.74586 -0.92647 0)
(2.7236 -0.574097 0)
(2.54945 -0.0891059 0)
(2.46748 -0.0169258 0)
(2.409 -0.0601134 0)
(2.401 -0.0673663 0)
(2.39833 -0.0619669 0)
(2.39255 -0.0480551 0)
(2.38351 -0.0379937 0)
(2.38629 -0.0230515 0)
(2.38483 -0.00078156 0)
(2.37773 0.0367371 0)
(2.36305 0.0613784 0)
(2.35097 0.0582241 0)
(2.32298 0.0446427 0)
(2.3076 0.0280419 0)
(2.29214 0.0100963 0)
(2.28062 -0.0118656 0)
(2.27277 -0.0191242 0)
(2.26778 -0.0181978 0)
(2.26837 -0.0162851 0)
(2.27124 -0.0158517 0)
(2.27809 -0.0186605 0)
(2.29376 -0.0325315 0)
(2.30658 -0.0538067 0)
(2.32023 -0.0666551 0)
(2.32927 -0.0763732 0)
(2.3137 -0.0867772 0)
(2.27297 -0.095535 0)
(2.19442 -0.0729212 0)
(2.88913 -1.38552 0)
(2.88903 -1.38547 0)
(2.88888 -1.38546 0)
(2.88875 -1.38545 0)
(2.88865 -1.38534 0)
(2.88855 -1.38515 0)
(2.88846 -1.38509 0)
(2.88837 -1.38507 0)
(2.88828 -1.38502 0)
(2.88819 -1.38493 0)
(2.88808 -1.38481 0)
(2.88792 -1.38476 0)
(2.88776 -1.38475 0)
(2.88758 -1.38473 0)
(2.88733 -1.3847 0)
(2.88713 -1.38464 0)
(2.88695 -1.38468 0)
(2.88674 -1.38479 0)
(2.88652 -1.38491 0)
(2.88625 -1.38508 0)
(2.88601 -1.38507 0)
(2.88579 -1.38462 0)
(2.88551 -1.38419 0)
(2.88507 -1.384 0)
(2.88463 -1.38398 0)
(2.88436 -1.3838 0)
(2.88397 -1.38291 0)
(2.8836 -1.38219 0)
(2.8833 -1.38187 0)
(2.88292 -1.38151 0)
(2.88256 -1.38094 0)
(2.88217 -1.38035 0)
(2.88165 -1.38014 0)
(2.88129 -1.38011 0)
(2.88111 -1.37974 0)
(2.88097 -1.37932 0)
(2.88082 -1.37903 0)
(2.88061 -1.37872 0)
(2.88027 -1.37828 0)
(2.87988 -1.37756 0)
(2.87945 -1.37705 0)
(2.87903 -1.37673 0)
(2.87875 -1.37607 0)
(2.87817 -1.37546 0)
(2.87797 -1.37486 0)
(2.87778 -1.37452 0)
(2.87748 -1.37417 0)
(2.87702 -1.37333 0)
(2.87619 -1.3726 0)
(2.87569 -1.37228 0)
(2.87525 -1.37183 0)
(2.87469 -1.37135 0)
(2.87417 -1.37082 0)
(2.8736 -1.36994 0)
(2.87338 -1.36967 0)
(2.87287 -1.36917 0)
(2.87222 -1.36788 0)
(2.87144 -1.36667 0)
(2.87085 -1.36619 0)
(2.87019 -1.36594 0)
(2.86938 -1.36549 0)
(2.86778 -1.3645 0)
(2.86701 -1.36402 0)
(2.86653 -1.36302 0)
(2.86604 -1.36186 0)
(2.86536 -1.3606 0)
(2.86538 -1.35852 0)
(2.86429 -1.35722 0)
(2.86419 -1.35502 0)
(2.86378 -1.35486 0)
(2.86216 -1.35473 0)
(2.85145 -1.32954 0)
(2.75294 -0.987081 0)
(2.59328 -0.464704 0)
(2.50179 -0.182839 0)
(2.43936 -0.0782476 0)
(2.39759 -0.043131 0)
(2.37591 -0.0439637 0)
(2.37641 -0.0384986 0)
(2.3845 -0.0214167 0)
(2.38638 -0.000621644 0)
(2.38424 0.0336993 0)
(2.37408 0.0530609 0)
(2.3613 0.0567133 0)
(2.34212 0.05404 0)
(2.32597 0.0413843 0)
(2.30206 0.0162291 0)
(2.28478 -0.0123019 0)
(2.27592 -0.0185262 0)
(2.27085 -0.0176098 0)
(2.27128 -0.0163268 0)
(2.27383 -0.0162119 0)
(2.28091 -0.0188647 0)
(2.29479 -0.0331966 0)
(2.30503 -0.0555899 0)
(2.31563 -0.0687641 0)
(2.32319 -0.0757901 0)
(2.30939 -0.08081 0)
(2.27165 -0.0870609 0)
(2.19703 -0.0673346 0)
(2.89017 -1.38537 0)
(2.89006 -1.38519 0)
(2.88994 -1.3851 0)
(2.88984 -1.38504 0)
(2.88974 -1.38488 0)
(2.88967 -1.38471 0)
(2.88959 -1.38462 0)
(2.88951 -1.38457 0)
(2.88942 -1.38447 0)
(2.88931 -1.38434 0)
(2.88901 -1.38442 0)
(2.88881 -1.38457 0)
(2.88878 -1.38438 0)
(2.88877 -1.38425 0)
(2.88862 -1.38438 0)
(2.88855 -1.38437 0)
(2.88852 -1.38431 0)
(2.88818 -1.38451 0)
(2.88783 -1.38473 0)
(2.88757 -1.3848 0)
(2.88733 -1.38481 0)
(2.88713 -1.38446 0)
(2.88687 -1.38408 0)
(2.8865 -1.3837 0)
(2.88609 -1.38333 0)
(2.88562 -1.38339 0)
(2.88518 -1.38302 0)
(2.88492 -1.38232 0)
(2.8847 -1.38193 0)
(2.88413 -1.38113 0)
(2.88368 -1.38057 0)
(2.88365 -1.3799 0)
(2.88343 -1.3796 0)
(2.88296 -1.37949 0)
(2.88253 -1.37917 0)
(2.88219 -1.37882 0)
(2.88207 -1.37853 0)
(2.88185 -1.37787 0)
(2.88143 -1.37716 0)
(2.88094 -1.3767 0)
(2.88042 -1.3764 0)
(2.87998 -1.37611 0)
(2.87948 -1.37552 0)
(2.87931 -1.37505 0)
(2.87912 -1.3747 0)
(2.87887 -1.37443 0)
(2.87873 -1.37401 0)
(2.87814 -1.37291 0)
(2.87738 -1.37236 0)
(2.87685 -1.37192 0)
(2.87625 -1.37145 0)
(2.87572 -1.37086 0)
(2.87504 -1.37014 0)
(2.87453 -1.36911 0)
(2.87425 -1.3688 0)
(2.87372 -1.36821 0)
(2.87306 -1.36691 0)