/*--------------------------------*- C++ -*----------------------------------*\
  =========                 |
  \\      /  F ield         | OpenFOAM: The Open Source CFD Toolbox
   \\    /   O peration     | Website:  https://openfoam.org
    \\  /    A nd           | Version:  7
     \\/     M anipulation  |
\*---------------------------------------------------------------------------*/
FoamFile
{
    version     2.0;
    format      ascii;
    class       volScalarField;
    location    "9";
    object      p;
}
// * * * * * * * * * * * * * * * * * * * * * * * * * * * * * * * * * * * * * //

dimensions      [1 -1 -2 0 0 0 0];

internalField   nonuniform List<scalar> 
24000
(
0.0971422
0.170079
0.214437
0.24392
0.306056
0.346427
0.38817
0.452366
0.525029
0.595253
0.671752
0.748533
0.811458
0.86292
0.88091
0.886299
0.869119
0.848461
0.833126
0.831871
0.832424
0.837943
0.84446
0.8391
0.829905
0.831967
0.835941
0.838675
0.842253
0.841791
0.841188
0.849359
0.865256
0.884451
0.883656
0.86959
0.852778
0.848477
0.857422
0.865475
0.865296
0.867272
0.879162
0.897336
0.906984
0.917599
0.928346
0.936087
0.943406
0.958997
0.0437595
0.0437176
0.0436912
0.0436897
0.043691
0.0436313
0.0437145
0.04627
0.0562611
0.0737595
0.108909
0.160473
0.243091
0.348665
0.479934
0.619853
0.741008
0.847227
0.889264
0.901306
0.879977
0.855964
0.855342
0.847587
0.83859
0.834099
0.829897
0.839647
0.856355
0.864196
0.86355
0.867243
0.870946
0.868568
0.858984
0.852939
0.855071
0.860968
0.867413
0.865379
0.863038
0.873191
0.89583
0.909137
0.914562
0.925051
0.934597
0.940555
0.9477
0.963856
0.0439266
0.0439198
0.0439158
0.0439037
0.0438822
0.043864
0.0438615
0.0438452
0.0437622
0.0436753
0.0436006
0.0435273
0.0434756
0.0434029
0.0532644
0.0830307
0.153379
0.261318
0.414682
0.556425
0.695894
0.795586
0.89587
0.923042
0.918637
0.892431
0.843241
0.809745
0.79992
0.816693
0.851801
0.876732
0.876232
0.860663
0.861289
0.87134
0.876628
0.871887
0.86186
0.861574
0.87528
0.899127
0.906503
0.901997
0.913416
0.932168
0.939906
0.944811
0.956323
0.972912
0.0438766
0.0438525
0.0438311
0.0438101
0.0437816
0.0437474
0.0437216
0.0436964
0.0436704
0.0436384
0.0436069
0.0435822
0.0435726
0.043581
0.0435968
0.0436197
0.0436651
0.043673
0.047375
0.07184
0.138008
0.261377
0.427232
0.620693
0.7711
0.889112
0.895014
0.857026
0.844922
0.835731
0.84243
0.855004
0.866721
0.866251
0.864173
0.867582
0.866989
0.862243
0.862687
0.875537
0.891495
0.898228
0.900335
0.914672
0.936086
0.950899
0.950713
0.955235
0.964444
0.969448
0.0436963
0.0436861
0.0436756
0.0436638
0.0436476
0.0436284
0.0436084
0.0435969
0.0435988
0.0436033
0.0436072
0.0436281
0.0436646
0.0437121
0.0437735
0.0438538
0.0439292
0.0439642
0.0439316
0.0439008
0.0438863
0.0438476
0.0481992
0.0956891
0.209684
0.41393
0.661984
0.799112
0.894899
0.88266
0.865052
0.835338
0.834679
0.857347
0.877234
0.862565
0.857561
0.863883
0.873473
0.880268
0.895348
0.907899
0.919177
0.929592
0.943012
0.945301
0.946918
0.953995
0.963298
0.976157
0.0435862
0.0435996
0.0436111
0.0436185
0.04363
0.043647
0.0436638
0.0436839
0.0437118
0.0437394
0.0437862
0.0438759
0.0439527
0.043999
0.0440363
0.0440846
0.0441037
0.0440652
0.0439939
0.0439285
0.0438749
0.0438242
0.0437291
0.0436395
0.0434475
0.0479822
0.113129
0.289563
0.547988
0.728051
0.841832
0.832033
0.835094
0.848827
0.873289
0.866212
0.856737
0.861819
0.877953
0.894712
0.900639
0.90387
0.917579
0.933183
0.942631
0.953847
0.96084
0.967554
0.975615
0.980594
0.0437216
0.0437657
0.0438149
0.0438565
0.0438903
0.0439387
0.0439948
0.0440274
0.0440368
0.0440485
0.0440881
0.0441708
0.0442027
0.0442074
0.044204
0.044194
0.0441462
0.0440177
0.0438213
0.0436619
0.0435593
0.0435024
0.0435129
0.0435013
0.0434
0.0432262
0.0432231
0.0433542
0.070756
0.21226
0.450582
0.671684
0.827366
0.856636
0.856894
0.860523
0.867098
0.872942
0.878883
0.890677
0.908674
0.914981
0.928507
0.941813
0.951891
0.945647
0.951582
0.962536
0.971005
0.978258
0.0440484
0.0440824
0.0441276
0.044164
0.0441865
0.0442077
0.0442338
0.0442311
0.0441791
0.0441478
0.0441554
0.0441914
0.0441926
0.0441584
0.0441015
0.0439948
0.0438055
0.0435714
0.0433738
0.0432381
0.0431976
0.0432323
0.0433656
0.0434082
0.0433644
0.0434012
0.0435148
0.0439163
0.0444186
0.0448016
0.0553261
0.157683
0.38758
0.632328
0.749489
0.834008
0.87139
0.896
0.895966
0.902198
0.905165
0.911937
0.929827
0.940277
0.950459
0.953858
0.962152
0.969868
0.975096
0.980958
0.0441868
0.0441767
0.0441645
0.0441667
0.0441865
0.0441822
0.0441548
0.0440997
0.0439918
0.0439127
0.0438844
0.0438532
0.0437325
0.0435871
0.0435293
0.0434573
0.0433498
0.0432133
0.0430766
0.0430005
0.0430054
0.0430958
0.0432959
0.0435218
0.0438414
0.0441323
0.0443884
0.0448026
0.0448792
0.0450448
0.0454664
0.0453327
0.04981
0.133413
0.355459
0.641771
0.810332
0.89162
0.896114
0.901238
0.909407
0.921726
0.94473
0.944309
0.940786
0.945257
0.959427
0.968928
0.97341
0.978092
0.0438838
0.0438261
0.0437617
0.0437388
0.0437132
0.0436642
0.0435722
0.0434886
0.0434036
0.0433215
0.0432986
0.0432477
0.0430918
0.043041
0.0430678
0.0431332
0.0431439
0.0430833
0.0429743
0.0429551
0.042985
0.0432467
0.0438177
0.0444814
0.0451264
0.0455708
0.045958
0.0459616
0.0454636
0.045104
0.0454027
0.0463311
0.0478356
0.0498198
0.053525
0.134581
0.378738
0.665512
0.808894
0.888489
0.922277
0.928998
0.935425
0.922266
0.93142
0.951494
0.973042
0.976139
0.9791
0.983383
0.0432424
0.043203
0.0432035
0.0432043
0.043174
0.043129
0.043125
0.0431416
0.0431678
0.043169
0.0431597
0.0430795
0.0429883
0.0429924
0.0430414
0.0431585
0.0432836
0.0433837
0.0434943
0.0436676
0.0439422
0.0445512
0.0453743
0.0461797
0.0468965
0.0473012
0.0474861
0.0475325
0.0471135
0.0463163
0.0465319
0.0485493
0.0526047
0.056898
0.0599359
0.0613362
0.0657193
0.154376
0.414093
0.675663
0.838478
0.917502
0.952641
0.949155
0.952855
0.964725
0.971931
0.969763
0.97409
0.978225
0.0431016
0.0430951
0.0431005
0.0431355
0.043145
0.0431387
0.0431478
0.0432112
0.0433565
0.0434677
0.0435493
0.0436445
0.0438268
0.0440687
0.0443213
0.0446763
0.0451249
0.0456054
0.0460543
0.0463797
0.0467567
0.0473233
0.0477982
0.0481967
0.0486693
0.0489192
0.0492539
0.0497929
0.0507322
0.0522539
0.0545444
0.0574062
0.0603626
0.0630678
0.0646296
0.0665957
0.0688054
0.0696598
0.0784486
0.184358
0.442432
0.705454
0.859791
0.947642
0.964224
0.970884
0.967049
0.970384
0.986506
0.99191
0.0446418
0.0448058
0.0449879
0.0452307
0.0455221
0.0457816
0.0460254
0.0462879
0.0466271
0.0469967
0.0472311
0.0474682
0.0479116
0.0483531
0.0486039
0.0488089
0.0490968
0.0494944
0.0497772
0.0499399
0.0502037
0.0507229
0.0507691
0.0506516
0.0508562
0.0517502
0.0533309
0.0554838
0.0585203
0.0621753
0.0656191
0.0682848
0.0697221
0.0700586
0.0700583
0.0706061
0.0731842
0.0776645
0.0824341
0.0845027
0.0936968
0.212423
0.473392
0.754115
0.87736
0.986817
0.99687
0.979933
0.975599
0.982807
0.050393
0.0505247
0.0506755
0.0508368
0.0510259
0.0511585
0.0512415
0.0513475
0.0514834
0.0516782
0.0518574
0.0520535
0.0522801
0.0525014
0.0527126
0.0529466
0.0532075
0.0535052
0.0539197
0.0545274
0.0553146
0.0564415
0.0576543
0.0589139
0.0604955
0.0627666
0.065239
0.0676996
0.069933
0.0717736
0.0732283
0.0746577
0.0757785
0.0757383
0.0759786
0.0777663
0.0817339
0.0887474
0.0934233
0.0964923
0.0975025
0.0987453
0.1126
0.261331
0.549388
0.795819
0.918586
0.991191
1.00098
0.989552
0.0559768
0.0561179
0.0563727
0.0566857
0.0568758
0.0570369
0.0573105
0.0575832
0.05783
0.0581626
0.0586769
0.0592293
0.0597865
0.0603998
0.0611911
0.0621638
0.0632143
0.064358
0.0657428
0.0673029
0.0688985
0.0704822
0.0720464
0.0735634
0.0750544
0.0762573
0.0771228
0.0780571
0.078697
0.078799
0.0788487
0.0797019
0.0816409
0.0844662
0.0889899
0.0936884
0.0983831
0.102168
0.103655
0.104491
0.106151
0.111315
0.116139
0.117713
0.145623
0.30472
0.621177
0.849148
0.956841
1.0099
0.070129
0.0704159
0.0705852
0.0706868
0.0708554
0.0712906
0.0719431
0.0723321
0.0725677
0.0729571
0.0736112
0.0742898
0.0748343
0.0753835
0.0760554
0.076785
0.0775335
0.0782994
0.0790713
0.0797856
0.0805012
0.0811506
0.0818094
0.0824578
0.0832113
0.0838496
0.0845729
0.0856671
0.0867016
0.0880278
0.0899515
0.0930435
0.0972548
0.102033
0.106858
0.109786
0.111921
0.112524
0.113869
0.115831
0.120043
0.124859
0.127569
0.13165
0.133158
0.134973
0.179729
0.393784
0.714129
0.925698
0.0845103
0.0849408
0.0851195
0.0851516
0.0853228
0.0859478
0.0861619
0.086155
0.0863347
0.0869307
0.0874477
0.0877506
0.0880844
0.0885659
0.0891297
0.0896245
0.0900791
0.0906038
0.0912439
0.0919736
0.0927992
0.0937725
0.0950096
0.0963943
0.0978445
0.0995032
0.101614
0.104247
0.107339
0.110399
0.113606
0.11632
0.118362
0.11991
0.120929
0.12209
0.122478
0.123889
0.127194
0.131555
0.135485
0.137165
0.140373
0.143701
0.146166
0.149509
0.151445
0.153672
0.223491
0.631007
0.1046
0.104932
0.105056
0.105073
0.105189
0.105756
0.106249
0.106539
0.106889
0.107433
0.107969
0.108429
0.10897
0.10966
0.11041
0.111135
0.111915
0.112864
0.11397
0.115133
0.116331
0.11764
0.118906
0.12017
0.121472
0.122886
0.12451
0.125844
0.126968
0.127967
0.129156
0.130342
0.131347
0.132415
0.133254
0.134669
0.137173
0.140862
0.144356
0.147572
0.149611
0.152083
0.154325
0.155894
0.158104
0.15984
0.160836
0.162101
0.162764
0.246284
0.129294
0.129412
0.129554
0.129848
0.130304
0.130493
0.130706
0.131054
0.131363
0.131665
0.132027
0.132441
0.13288
0.133362
0.133865
0.134399
0.134992
0.13563
0.136254
0.136877
0.137571
0.138347
0.139195
0.140139
0.141124
0.142021
0.142856
0.143476
0.144249
0.145341
0.146524
0.147977
0.149902
0.151933
0.154023
0.155744
0.157349
0.158702
0.159988
0.161072
0.162165
0.163077
0.163806
0.164782
0.165435
0.165798
0.166392
0.16715
0.16829
0.169774
0.154263
0.154377
0.15454
0.154655
0.154722
0.154956
0.155169
0.155238
0.155391
0.155623
0.155807
0.155979
0.15622
0.156542
0.156877
0.157195
0.157519
0.157859
0.158213
0.158586
0.159004
0.159475
0.160024
0.160571
0.161043
0.161433
0.16177
0.162179
0.162629
0.163167
0.163797
0.164445
0.165027
0.165509
0.165949
0.166334
0.166605
0.166765
0.16709
0.167727
0.16839
0.168833
0.16916
0.169334
0.16943
0.169515
0.169611
0.169943
0.170903
0.172025
0.168922
0.168922
0.168898
0.168917
0.168993
0.168994
0.168986
0.168989
0.16898
0.168951
0.168958
0.169022
0.169127
0.169167
0.169202
0.169227
0.16918
0.169098
0.169094
0.16915
0.169286
0.169479
0.169728
0.16981
0.169841
0.169835
0.169715
0.169655
0.169692
0.169847
0.170054
0.170095
0.170129
0.170263
0.170518
0.170726
0.170835
0.17094
0.171079
0.171334
0.171496
0.171463
0.171268
0.171005
0.170647
0.170494
0.170532
0.171302
0.172671
0.17305
0.171617
0.17161
0.171597
0.171593
0.171587
0.171555
0.171541
0.171534
0.171513
0.171484
0.17148
0.171484
0.171517
0.171588
0.171595
0.171521
0.171304
0.171074
0.17094
0.170905
0.171025
0.17122
0.171234
0.171142
0.17107
0.171043
0.171045
0.171187
0.171559
0.171654
0.171627
0.171449
0.171438
0.171646
0.172091
0.172315
0.172325
0.172335
0.172286
0.172158
0.171924
0.171558
0.171144
0.170832
0.17064
0.170771
0.172082
0.173929
0.174825
0.173947
0.171393
0.171445
0.171501
0.171506
0.171475
0.171446
0.171436
0.171431
0.171451
0.171534
0.171589
0.171624
0.171748
0.172023
0.172069
0.171936
0.171701
0.171606
0.171497
0.171401
0.171628
0.171848
0.17182
0.171502
0.171333
0.171342
0.171546
0.172309
0.173068
0.173177
0.173063
0.172631
0.172499
0.172693
0.173167
0.17326
0.173118
0.172945
0.172728
0.172229
0.171676
0.171368
0.171187
0.17151
0.172976
0.17519
0.17762
0.178184
0.177416
0.176014
0.174337
0.174765
0.174978
0.17493
0.174707
0.174346
0.174073
0.173835
0.173429
0.173226
0.17318
0.173176
0.173495
0.174289
0.174493
0.174456
0.174437
0.174604
0.174568
0.174521
0.174726
0.17498
0.174978
0.174673
0.174075
0.173868
0.17415
0.174917
0.17508
0.175079
0.175041
0.174915
0.174782
0.174736
0.174668
0.174296
0.173881
0.173499
0.173262
0.173424
0.174328
0.175904
0.178211
0.18101
0.183128
0.185186
0.184908
0.184249
0.183219
0.18587
0.180047
0.17949
0.178801
0.178726
0.178755
0.179118
0.179328
0.179156
0.178957
0.178701
0.178684
0.179278
0.179779
0.180019
0.180609
0.181132
0.181064
0.180694
0.180592
0.180586
0.180406
0.179894
0.179842
0.180205
0.180266
0.180266
0.180839
0.181036
0.180805
0.180379
0.18041
0.181377
0.18266
0.182795
0.182824
0.183394
0.185045
0.187067
0.188846
0.19069
0.192616
0.19445
0.19563
0.196477
0.19616
0.195361
0.194424
0.194641
0.196787
0.201763
0.196953
0.196886
0.196983
0.197397
0.198126
0.198556
0.198703
0.198791
0.198786
0.198756
0.198735
0.198725
0.198951
0.1993
0.199244
0.198855
0.198728
0.198773
0.198596
0.198442
0.19853
0.198836
0.199786
0.201276
0.201717
0.201938
0.202529
0.203015
0.202985
0.203153
0.204508
0.205512
0.205862
0.206549
0.207687
0.208816
0.209407
0.209854
0.210281
0.210727
0.210606
0.210107
0.209564
0.208928
0.208435
0.209092
0.211243
0.215242
0.21919
0.222743
0.22989
0.229962
0.229939
0.229917
0.229981
0.229988
0.229958
0.229904
0.229958
0.230155
0.230144
0.229944
0.229884
0.230006
0.230141
0.23021
0.230357
0.230738
0.231192
0.231652
0.23179
0.231802
0.231834
0.231869
0.23182
0.231538
0.231533
0.232201
0.232964
0.233187
0.233367
0.233324
0.233106
0.233272
0.233696
0.233676
0.233412
0.233438
0.233745
0.233932
0.234275
0.235149
0.236837
0.238938
0.241569
0.24458
0.246838
0.248901
0.24857
0.247217
0.276537
0.276576
0.276501
0.27639
0.276427
0.276508
0.276353
0.276166
0.276179
0.276391
0.276433
0.276263
0.276129
0.276228
0.276367
0.27633
0.276216
0.276219
0.276268
0.27626
0.276195
0.276112
0.276051
0.27606
0.276174
0.27639
0.276444
0.276349
0.27615
0.276044
0.276076
0.276342
0.276584
0.276573
0.276594
0.276856
0.277233
0.277478
0.277802
0.278334
0.278773
0.279189
0.279464
0.279393
0.278896
0.277938
0.276299
0.27432
0.272186
0.270796
0.335469
0.33547
0.335649
0.335587
0.335425
0.335432
0.335374
0.335114
0.334823
0.334564
0.334568
0.334521
0.334085
0.333862
0.333768
0.33364
0.33339
0.333088
0.332953
0.332853
0.332703
0.33249
0.33197
0.331316
0.331112
0.330706
0.330153
0.329649
0.329122
0.32873
0.328308
0.327711
0.327013
0.326271
0.325527
0.324701
0.323745
0.322708
0.321607
0.320396
0.31909
0.317678
0.31613
0.314375
0.312733
0.31131
0.310206
0.309736
0.310186
0.311439
0.408124
0.408345
0.40771
0.406542
0.406591
0.407283
0.407288
0.406717
0.406078
0.405991
0.40581
0.405252
0.404652
0.404404
0.404124
0.403601
0.403034
0.402619
0.402151
0.401489
0.400825
0.400323
0.399609
0.398607
0.397739
0.396872
0.395951
0.394948
0.393794
0.392541
0.391275
0.389913
0.388599
0.38725
0.385674
0.384
0.382308
0.380519
0.378654
0.376785
0.374899
0.372977
0.371034
0.369095
0.367119
0.365255
0.363355
0.361118
0.358696
0.353389
0.49884
0.498752
0.497532
0.497035
0.496535
0.495801
0.49566
0.495531
0.494835
0.494208
0.493966
0.49327
0.492349
0.491696
0.491043
0.490079
0.489102
0.488266
0.487471
0.486354
0.485018
0.483955
0.482813
0.481238
0.479635
0.478107
0.476415
0.474617
0.472788
0.470721
0.468461
0.466055
0.463579
0.461068
0.458444
0.455562
0.452585
0.449431
0.446166
0.442713
0.439185
0.435493
0.431634
0.427617
0.423349
0.418816
0.414201
0.409351
0.404688
0.397246
0.61232
0.613441
0.613464
0.612141
0.611463
0.61071
0.609773
0.609128
0.607967
0.607372
0.607328
0.606597
0.604147
0.602652
0.602296
0.601531
0.599897
0.597959
0.596003
0.594532
0.592887
0.590737
0.588343
0.586114
0.583846
0.581315
0.578435
0.575372
0.572276
0.568999
0.56541
0.561593
0.557647
0.553531
0.549209
0.544612
0.539806
0.534808
0.529624
0.524213
0.518649
0.512829
0.506941
0.500709
0.494553
0.48812
0.481791
0.475104
0.469297
0.459422
0.759656
0.758107
0.756025
0.755834
0.756074
0.755591
0.753953
0.752257
0.751938
0.7514
0.749878
0.748042
0.746389
0.744158
0.742652
0.74147
0.739638
0.737251
0.734697
0.731955
0.729327
0.726584
0.723294
0.71967
0.716136
0.712545
0.708501
0.703892
0.699102
0.694244
0.688958
0.68327
0.677295
0.67109
0.664484
0.657566
0.650242
0.642682
0.634746
0.626572
0.618049
0.609298
0.600228
0.591001
0.581468
0.571848
0.562036
0.551818
0.5427
0.526907
0.902741
0.902436
0.902806
0.902604
0.901533
0.89992
0.898777
0.898652
0.898209
0.896415
0.894701
0.893798
0.892749
0.891234
0.889333
0.887449
0.885612
0.883545
0.881165
0.878555
0.875829
0.872918
0.869684
0.866115
0.862285
0.858154
0.853656
0.848792
0.843539
0.837838
0.831697
0.825045
0.817902
0.810233
0.802034
0.793235
0.783895
0.773943
0.763458
0.752389
0.740776
0.728652
0.716043
0.703019
0.689628
0.675843
0.661963
0.647512
0.634487
0.61259
0.982977
0.982435
0.982374
0.982433
0.982257
0.981741
0.981127
0.981013
0.980885
0.980388
0.979728
0.979291
0.978841
0.978262
0.977571
0.9768
0.975982
0.975096
0.9741
0.972975
0.97173
0.970365
0.96884
0.967123
0.965197
0.963044
0.960633
0.957933
0.9549
0.951489
0.947649
0.943338
0.938482
0.933028
0.926906
0.920055
0.912387
0.903852
0.894361
0.883877
0.872348
0.859743
0.846071
0.83133
0.815587
0.798899
0.781488
0.762863
0.74585
0.716409
0.999048
0.999028
0.999012
0.998989
0.998964
0.99894
0.998904
0.998867
0.998836
0.998795
0.998745
0.998694
0.998639
0.998573
0.998499
0.998414
0.998319
0.998211
0.998089
0.997948
0.997786
0.997599
0.997383
0.99713
0.996835
0.996488
0.996079
0.995596
0.995021
0.994333
0.993508
0.992517
0.991317
0.989863
0.988096
0.985947
0.983325
0.980135
0.976242
0.971524
0.9658
0.958929
0.950688
0.940952
0.929498
0.916237
0.901145
0.883688
0.866556
0.834221
0.999983
0.999983
0.999983
0.999982
0.999981
0.999981
0.99998
0.999979
0.999978
0.999977
0.999976
0.999975
0.999973
0.999971
0.999969
0.999967
0.999964
0.999961
0.999957
0.999953
0.999947
0.999941
0.999933
0.999924
0.999913
0.999899
0.999881
0.999859
0.999831
0.999796
0.99975
0.999691
0.999612
0.999508
0.999368
0.99918
0.998923
0.998571
0.998085
0.997412
0.996476
0.995177
0.993372
0.990885
0.987469
0.982841
0.976686
0.968344
0.958979
0.937094
1
1
1
1
1
1
1
1
1
1
1
1
1
1
1
1
1
1
1
1
0.999999
0.999999
0.999999
0.999999
0.999999
0.999999
0.999999
0.999998
0.999998
0.999997
0.999996
0.999995
0.999994
0.999992
0.999989
0.999984
0.999977
0.999967
0.99995
0.999925
0.999883
0.999817
0.999707
0.999527
0.999228
0.998733
0.997924
0.99655
0.994682
0.988384
1
1
1
1
1
1
1
1
1
1
1
1
1
1
1
1
1
1
1
1
1
1
1
1
1
1
1
1
1
1
1
1
1
1
1
1
1
1
0.999999
0.999999
0.999998
0.999997
0.999995
0.999991
0.999984
0.999968
0.999938
0.999874
0.999766
0.999176
1
1
1
1
1
1
1
1
1
1
1
1
1
1
1
1
1
1
1
1
1
1
1
1
1
1
1
1
1
1
1
1
1
1
1
1
1
1
1
1
1
1
1
1
1
1
0.999999
0.999998
0.999996
0.999978
0.043371
0.0437977
0.0439331
0.0438992
0.0437101
0.0435785
0.0436774
0.0440091
0.0441839
0.043909
0.0432774
0.0431023
0.0445162
0.050298
0.0559152
0.0698572
0.0842585
0.104224
0.129199
0.154181
0.168889
0.171622
0.171346
0.173916
0.180102
0.197102
0.229826
0.27651
0.335862
0.408013
0.498168
0.612077
0.760298
0.904629
0.983351
0.99907
0.999984
1
1
1
0.0433835
0.0438168
0.0439497
0.0439065
0.0437045
0.0435686
0.0436581
0.0439842
0.0441468
0.0438877
0.0432709
0.043104
0.0446006
0.0505016
0.0563941
0.0702818
0.0848433
0.104773
0.130012
0.154898
0.169089
0.171598
0.171269
0.173789
0.180237
0.197621
0.230647
0.27753
0.337005
0.409438
0.498114
0.615285
0.762314
0.906554
0.983734
0.999109
0.999985
1
1
1
0.0433565
0.0438303
0.0439679
0.0439191
0.0437035
0.043545
0.0436339
0.0439519
0.0441306
0.0438876
0.0432867
0.0430643
0.0446026
0.0506017
0.0566407
0.0705546
0.0854209
0.10525
0.130443
0.155325
0.169221
0.171502
0.171129
0.173754
0.180293
0.197782
0.231148
0.278152
0.337569
0.410509
0.499324
0.618001
0.763997
0.90743
0.984049
0.99914
0.999985
1
1
1
0.043316
0.0438334
0.0439885
0.0439282
0.0436945
0.0435303
0.0436193
0.0439301
0.0441307
0.0438921
0.0433161
0.042995
0.0444784
0.0507042
0.0567992
0.0708401
0.0859047
0.105873
0.131071
0.155763
0.16936
0.171453
0.171074
0.173731
0.180488
0.198005
0.231578
0.278868
0.338371
0.411436
0.502387
0.619155
0.764747
0.908627
0.984411
0.999175
0.999986
1
1
1
0.0432661
0.0438244
0.044008
0.0439345
0.0436809
0.0435199
0.0436047
0.043908
0.0441359
0.0438997
0.0433809
0.0429736
0.0441882
0.0508177
0.0570112
0.0711261
0.0862021
0.106416
0.131673
0.156322
0.169492
0.171434
0.171042
0.173751
0.180666
0.198409
0.232124
0.27949
0.339365
0.412499
0.503725
0.620521
0.765693
0.909887
0.984888
0.999211
0.999987
1
1
1
0.0432255
0.04377
0.0440211
0.0439391
0.0436779
0.0435136
0.0435906
0.0438758
0.0441389
0.0439121
0.0434418
0.042969
0.0441175
0.0509765
0.0572929
0.071474
0.0865681
0.107066
0.132401
0.156828
0.169653
0.171432
0.171011
0.173836
0.180788
0.198754
0.232711
0.280237
0.340511
0.413656
0.504666
0.622237
0.769017
0.911628
0.985415
0.999246
0.999988
1
1
1
0.0432079
0.043737
0.0440292
0.0439447
0.0436765
0.0435095
0.0435767
0.0438269
0.0441355
0.0439394
0.0434838
0.0429528
0.0441235
0.0511597
0.0576653
0.0718189
0.0869779
0.107605
0.133102
0.15734
0.169815
0.171474
0.170975
0.173855
0.180932
0.199041
0.233349
0.281298
0.341438
0.414826
0.506247
0.623907
0.772014
0.913454
0.985854
0.999281
0.999988
1
1
1
0.043202
0.0437385
0.0440422
0.0439709
0.0436863
0.0435081
0.0435688
0.0437663
0.0441197
0.043947
0.043521
0.0429217
0.0441805
0.0513399
0.0581222
0.0722245
0.0874207
0.108188
0.133804
0.157875
0.169959
0.171499
0.170945
0.173816
0.181098
0.199439
0.234033
0.282112
0.342456
0.416059
0.507863
0.626244
0.774244
0.915013
0.986295
0.999316
0.999989
1
1
1
0.043203
0.0437561
0.0440557
0.0440058
0.0437674
0.0435362
0.043568
0.0437219
0.0440174
0.0439221
0.0435568
0.042916
0.0442068
0.0515318
0.0584624
0.0726571
0.087921
0.108838
0.134568
0.158436
0.1701
0.171499
0.170924
0.173691
0.181293
0.199886
0.234735
0.282995
0.343527
0.417389
0.509433
0.628697
0.776569
0.916622
0.986765
0.999351
0.99999
1
1
1
0.0431961
0.0437624
0.0440661
0.0440143
0.043837
0.043658
0.0436022
0.0437052
0.0439293
0.0438647
0.0435887
0.0429114
0.044203
0.0517418
0.0587598
0.073071
0.0884672
0.109522
0.135386
0.159016
0.17024
0.171481
0.170917
0.173637
0.181535
0.200345
0.235467
0.283988
0.344624
0.418747
0.511218
0.630862
0.778875
0.91836
0.987257
0.999387
0.99999
1
1
1
0.0431706
0.0437576
0.0440782
0.0440156
0.0438569
0.0437324
0.0437316
0.0437037
0.0439106
0.0438412
0.0436195
0.0428958
0.0441713
0.0519333
0.0591141
0.073471
0.0890498
0.110235
0.136238
0.159607
0.170373
0.17146
0.17093
0.173652
0.181829
0.200867
0.236228
0.284963
0.34579
0.420177
0.513114
0.632986
0.781104
0.920203
0.987755
0.999422
0.999991
1
1
1
0.0431548
0.0437112
0.0440903
0.0440273
0.0438662
0.0437521
0.0438018
0.0437132
0.0439001
0.0438359
0.0436597
0.0428781
0.0441011
0.0521261
0.0595187
0.0738914
0.0896436
0.111007
0.137118
0.160213
0.1705
0.171457
0.170942
0.173787
0.182167
0.201439
0.237028
0.285961
0.347025
0.421696
0.515009
0.635191
0.783631
0.922106
0.988261
0.999457
0.999992
1
1
1
0.0431523
0.0436773
0.0440974
0.0440457
0.0438779
0.0437592
0.0438141
0.0437345
0.0438855
0.0438261
0.0437154
0.0428731
0.0440437
0.052341
0.0599636
0.0743611
0.0902466
0.111845
0.138043
0.160831
0.170623
0.171459
0.170952
0.17396
0.182528
0.20206
0.237883
0.287022
0.348339
0.423351
0.516939
0.637721
0.786673
0.924081
0.988776
0.999492
0.999992
1
1
1
0.0431569
0.0436755
0.0441009
0.0440489
0.0438902
0.0437682
0.0438149
0.0437398
0.0438525
0.0438073
0.0437808
0.0428722
0.0439973
0.0525666
0.0604284
0.0748818
0.0908871
0.112738
0.139017
0.161456
0.170741
0.171505
0.170987
0.174097
0.182885
0.202712
0.238769
0.288146
0.349797
0.425115
0.518997
0.640595
0.789861
0.926141
0.989297
0.999526
0.999993
1
1
1
0.043159
0.0436814
0.0441009
0.0440433
0.0438925
0.043784
0.0438058
0.043739
0.0438252
0.043801
0.0438672
0.0428699
0.0439534
0.0528
0.0608963
0.0754205
0.0915856
0.113685
0.140039
0.162086
0.17085
0.171735
0.171117
0.174147
0.183218
0.203376
0.239683
0.28936
0.351362
0.426929
0.521272
0.643549
0.793119
0.928267
0.989823
0.99956
0.999994
1
1
1
0.0431627
0.0436764
0.0440879
0.0440369
0.0438871
0.0437946
0.0437968
0.0437089
0.0438096
0.0438416
0.043974
0.0428893
0.0439471
0.0530672
0.0613588
0.0759585
0.0923432
0.114695
0.141113
0.162719
0.170951
0.171957
0.171324
0.174136
0.183509
0.204074
0.240644
0.290683
0.352954
0.428836
0.523748
0.646634
0.796471
0.930447
0.990353
0.999593
0.999994
1
1
1
0.0431738
0.043624
0.0440732
0.0440312
0.0438863
0.0438069
0.0438031
0.0436461
0.0437649
0.0439078
0.0441024
0.0431279
0.0440572
0.0533852
0.0618299
0.0765068
0.0931571
0.115779
0.142243
0.163357
0.171048
0.172095
0.171497
0.174094
0.183741
0.20482
0.241687
0.292091
0.354623
0.430861
0.526359
0.649848
0.799902
0.932698
0.990887
0.999626
0.999995
1
1
1
0.0432045
0.0435712
0.0440637
0.0440234
0.0438879
0.0438307
0.0438465
0.0436106
0.043674
0.0439307
0.044216
0.043427
0.0443787
0.053731
0.0623351
0.0770846
0.0940225
0.116942
0.14343
0.163997
0.171137
0.17218
0.1716
0.174115
0.183891
0.20563
0.24282
0.293556
0.356405
0.433002
0.529058
0.653212
0.803504
0.935036
0.991422
0.999657
0.999995
1
1
1
0.0432418
0.0435394
0.0440515
0.0440112
0.0439166
0.0438756
0.0438972
0.0436
0.0436178
0.0439302
0.0442864
0.0436089
0.0445841
0.054061
0.0628887
0.0777033
0.0949545
0.118182
0.144679
0.164635
0.171206
0.172222
0.171651
0.174299
0.18394
0.206534
0.244027
0.295102
0.35828
0.435241
0.531858
0.656787
0.807351
0.937447
0.991957
0.999687
0.999996
1
1
1
0.0432655
0.0434968
0.0440295
0.0440001
0.0439717
0.043929
0.0439348
0.0436055
0.0435721
0.0438557
0.0443403
0.043747
0.0447521
0.0544
0.0635003
0.0783614
0.0959772
0.119498
0.14599
0.165265
0.171243
0.172232
0.17168
0.174622
0.183951
0.20753
0.245317
0.296755
0.360265
0.437586
0.534845
0.660627
0.811439
0.939918
0.992489
0.999717
0.999996
1
1
1
0.0432932
0.0434415
0.0439694
0.0439946
0.0440039
0.04398
0.0439657
0.0436149
0.0435305
0.0437461
0.0444085
0.0438793
0.0449652
0.0548026
0.0641679
0.0790669
0.0970962
0.120902
0.147357
0.165884
0.171252
0.172227
0.171717
0.174962
0.184314
0.2086
0.246706
0.298531
0.362366
0.440072
0.538073
0.664738
0.815712
0.94245
0.993018
0.999745
0.999997
1
1
1
0.0433304
0.0434023
0.043922
0.0439881
0.0440317
0.0440281
0.0439935
0.0436157
0.0435045
0.04369
0.04451
0.0440258
0.0451802
0.0552754
0.0648755
0.0798484
0.0983009
0.122406
0.148772
0.166488
0.171257
0.172225
0.171819
0.17536
0.185183
0.209726
0.248206
0.300432
0.364573
0.442713
0.541548
0.66905
0.820165
0.945044
0.99354
0.999771
0.999997
1
1
1
0.0433712
0.0433705
0.0438732
0.0439736
0.0440584
0.0440744
0.0440223
0.0436128
0.0434594
0.0436366
0.0446178
0.0442065
0.0454076
0.0557905
0.0656128
0.0807155
0.0996042
0.124013
0.15023
0.167068
0.171295
0.17224
0.171919
0.175863
0.185836
0.210895
0.24983
0.302437
0.36688
0.445548
0.545232
0.673511
0.824817
0.947693
0.994054
0.999797
0.999997
1
1
1
0.0434126
0.0433418
0.0437819
0.043951
0.0440767
0.0441189
0.0440575
0.0436054
0.0433415
0.043567
0.0446825
0.0443669
0.0456424
0.0563465
0.0663881
0.0816749
0.101017
0.12573
0.151726
0.167612
0.171373
0.172242
0.171951
0.176362
0.186503
0.212131
0.251582
0.304527
0.369302
0.448614
0.549089
0.67818
0.829684
0.950393
0.994558
0.99982
0.999998
1
1
1
0.0434401
0.043327
0.0436614
0.0438842
0.0440819
0.0441614
0.0441012
0.0435812
0.0432557
0.043478
0.0447055
0.0444612
0.0458599
0.0569817
0.0672132
0.0827326
0.102535
0.127555
0.153254
0.168118
0.1714
0.172223
0.171955
0.176851
0.187366
0.213456
0.253449
0.306709
0.371877
0.451916
0.553129
0.683187
0.834781
0.953136
0.995049
0.999842
0.999998
1
1
1
0.0434654
0.0433277
0.0435645
0.0438087
0.0440682
0.0442008
0.0441464
0.0435783
0.0432393
0.043357
0.0447069
0.0445147
0.0460697
0.057721
0.068104
0.0839093
0.104154
0.129489
0.154811
0.168585
0.171382
0.172094
0.171969
0.177426
0.188344
0.21484
0.255421
0.309005
0.374662
0.455427
0.557375
0.688592
0.8401
0.955917
0.995526
0.999863
0.999998
1
1
1
0.0435051
0.0433316
0.0434892
0.0437783
0.044055
0.0442412
0.0441951
0.043656
0.0432535
0.0431764
0.0446186
0.0445566
0.0463114
0.0585355
0.0690669
0.0852167
0.105881
0.131533
0.15639
0.169026
0.171203
0.171992
0.172046
0.177976
0.189329
0.216257
0.257494
0.31145
0.377694
0.459105
0.561867
0.69433
0.845647
0.95873
0.995985
0.999882
0.999999
1
1
1
0.0435479
0.0433495
0.0434044
0.0437573
0.0440749
0.044293
0.0442402
0.0437983
0.0432726
0.0429772
0.0443638
0.044608
0.0466566
0.0593481
0.0701141
0.0866725
0.107725
0.133692
0.157985
0.169451
0.171066
0.171967
0.172056
0.178201
0.190312
0.217742
0.259686
0.314086
0.380954
0.462943
0.566671
0.700362
0.851429
0.961565
0.996426
0.999899
0.999999
1
1
1
0.0436063
0.0433871
0.0433181
0.0437138
0.0440932
0.0443539
0.0442958
0.0438969
0.0432234
0.0428425
0.0440122
0.0448011
0.0471902
0.0601069
0.0712374
0.0882857
0.109722
0.135967
0.159586
0.169844
0.171048
0.171992
0.171975
0.178141
0.191376
0.219359
0.262015
0.316951
0.384389
0.466963
0.571849
0.706737
0.857481
0.96441
0.996844
0.999915
0.999999
1
1
1
0.0437002
0.0434513
0.0432511
0.0436758
0.0440986
0.0443917
0.0443713
0.0439706
0.0431931
0.0427692
0.043745
0.0452784
0.0479502
0.0608221
0.0724525
0.0900372
0.111888
0.138369
0.161172
0.170202
0.171055
0.172112
0.171875
0.177714
0.192561
0.221147
0.264494
0.320026
0.387972
0.471235
0.577432
0.713555
0.863805
0.967249
0.997239
0.999929
0.999999
1
1
1
0.0438016
0.0435179
0.0432176
0.0436588
0.0440999
0.044397
0.0443947
0.043989
0.0431517
0.0427484
0.043654
0.0459269
0.048912
0.0615492
0.0737914
0.0919207
0.114217
0.140894
0.162722
0.170529
0.171079
0.172326
0.171885
0.177552
0.19386
0.223113
0.267136
0.323286
0.391731
0.475863
0.583448
0.720828
0.87036
0.970066
0.997608
0.999941
0.999999
1
1
1
0.0438728
0.0435668
0.0432089
0.0436431
0.0440785
0.0443809
0.044389
0.0439744
0.0430548
0.042724
0.0436768
0.0465966
0.0499342
0.0623442
0.075284
0.0939213
0.116749
0.143518
0.164209
0.17082
0.171139
0.172626
0.172299
0.177791
0.195269
0.225234
0.269947
0.326713
0.395717
0.480903
0.589877
0.728499
0.877114
0.972843
0.99795
0.999952
0.999999
1
1
1
0.0439247
0.0436145
0.0432326
0.0436234
0.044044
0.0443759
0.0443897
0.0439739
0.0429601
0.0425906
0.0437344
0.0472665
0.0508935
0.0632645
0.0769665
0.0960285
0.119491
0.14623
0.165604
0.171074
0.171211
0.172911
0.173055
0.178713
0.196685
0.227502
0.272942
0.330313
0.399982
0.486329
0.596667
0.73658
0.884063
0.975566
0.998263
0.999961
1
1
1
1
0.0439595
0.0436848
0.0433002
0.043578
0.0439791
0.0443777
0.0444018
0.0440008
0.042919
0.0424709
0.0437344
0.0478798
0.0517692
0.0644056
0.0788375
0.0982867
0.122453
0.149003
0.166877