/*--------------------------------*- C++ -*----------------------------------*\
  =========                 |
  \\      /  F ield         | OpenFOAM: The Open Source CFD Toolbox
   \\    /   O peration     | Website:  https://openfoam.org
    \\  /    A nd           | Version:  7
     \\/     M anipulation  |
\*---------------------------------------------------------------------------*/
FoamFile
{
    version     2.0;
    format      ascii;
    class       volVectorField;
    location    "0.1";
    object      U;
}
// * * * * * * * * * * * * * * * * * * * * * * * * * * * * * * * * * * * * * //

dimensions      [0 1 -1 0 0 0 0];

internalField   nonuniform List<vector> 
1750
(
(2.70518 -0.00551054 0)
(2.95532 -0.00241838 0)
(2.99834 -0.000169766 0)
(3 -6.65687e-06 0)
(3 -3.58922e-07 0)
(3 -3.67647e-09 0)
(3 6.08246e-11 0)
(3 -3.84602e-13 0)
(3 -7.88772e-14 0)
(3 -6.98759e-16 0)
(3.02301 -0.105149 0)
(3.00189 -0.00844646 0)
(3.00036 -0.000472224 0)
(3.00007 -9.76154e-05 0)
(3 -1.59212e-06 0)
(3 -6.97062e-09 0)
(3 -8.52182e-10 0)
(3 -3.3109e-12 0)
(3 -1.14945e-13 0)
(3 -4.22031e-15 0)
(3.00494 -0.0050693 0)
(3.00088 -0.000754082 0)
(3.00005 -6.8936e-05 0)
(3 -3.18524e-07 0)
(3 -3.08185e-08 0)
(3 -4.40855e-09 0)
(3 -6.03645e-11 0)
(3 -4.03074e-13 0)
(3 -3.12664e-14 0)
(3 -5.87193e-17 0)
(3.00046 -0.000499976 0)
(3.00004 -3.44494e-05 0)
(3 -2.90789e-07 0)
(3 -2.29121e-08 0)
(3 -3.39796e-09 0)
(3 -2.62855e-11 0)
(3 -3.75684e-13 0)
(3 -1.31271e-14 0)
(3 3.68284e-16 0)
(3 6.24872e-17 0)
(3 -5.89945e-06 0)
(3 -2.33904e-07 0)
(3 -3.0815e-08 0)
(3 -3.35e-09 0)
(3 -1.2743e-11 0)
(3 2.82414e-13 0)
(3 2.88866e-14 0)
(3 -2.56434e-16 0)
(3 -3.92125e-16 0)
(3 -7.22043e-17 0)
(3 -5.87263e-08 0)
(3 -1.11021e-08 0)
(3 -5.79708e-10 0)
(3 -6.65607e-12 0)
(3 -1.89831e-13 0)
(3 1.72267e-14 0)
(3 4.20204e-17 0)
(3 1.70869e-16 0)
(3 -1.66447e-16 0)
(3 -1.04073e-16 0)
(3 -2.47156e-09 0)
(3 -1.10336e-10 0)
(3 -1.3616e-12 0)
(3 -8.38458e-14 0)
(3 5.52979e-15 0)
(3 2.67347e-16 0)
(3 1.54542e-16 0)
(3 1.84907e-16 0)
(3 4.11249e-16 0)
(3 2.59214e-16 0)
(3 -2.25543e-11 0)
(3 -2.67129e-13 0)
(3 5.56958e-16 0)
(3 1.37593e-15 0)
(3 1.60223e-16 0)
(3 8.13957e-17 0)
(3 1.61969e-16 0)
(3 -3.38731e-16 0)
(3 -1.69891e-16 0)
(3 -1.58525e-16 0)
(3 -5.2611e-14 0)
(3 -2.29942e-16 0)
(3 2.0127e-16 0)
(3 2.19559e-18 0)
(3 3.45511e-18 0)
(3 -1.04452e-16 0)
(3 5.51048e-17 0)
(3 -7.54538e-17 0)
(3 -7.50753e-17 0)
(3 -9.53461e-17 0)
(3 -2.8574e-16 0)
(3 -7.45369e-17 0)
(3 1.37675e-16 0)
(3 -5.3467e-17 0)
(3 1.85774e-16 0)
(3 5.442e-17 0)
(3 -1.60602e-16 0)
(3 -1.16637e-16 0)
(3 -3.45438e-17 0)
(3 -6.15253e-17 0)
(3 -9.71138e-17 0)
(3 -4.38432e-17 0)
(3 3.19084e-17 0)
(3 9.24416e-17 0)
(3 1.02807e-17 0)
(3 1.52333e-16 0)
(3 6.11039e-17 0)
(3 -3.3126e-17 0)
(3 -4.66574e-17 0)
(3 -5.66252e-17 0)
(3 8.19755e-17 0)
(3 -1.53224e-17 0)
(3 -2.4874e-17 0)
(3 6.33253e-17 0)
(3 -2.35573e-16 0)
(3 -1.55025e-16 0)
(3 8.75389e-18 0)
(3 -3.66489e-17 0)
(3 1.73695e-16 0)
(3 2.37954e-16 0)
(3 -5.30077e-17 0)
(3 -8.04818e-17 0)
(3 -3.4155e-17 0)
(3 -8.29445e-18 0)
(3 -3.22862e-17 0)
(3 -4.17288e-17 0)
(3 -1.7282e-17 0)
(3 6.35109e-17 0)
(3 -8.25423e-17 0)
(3 -2.21444e-17 0)
(3 1.36149e-18 0)
(3 1.45293e-16 0)
(3 5.99075e-17 0)
(3 4.03126e-17 0)
(3 9.42691e-17 0)
(3 3.70893e-17 0)
(3 2.04887e-17 0)
(3 1.39139e-16 0)
(3 1.97004e-17 0)
(3 -7.56792e-17 0)
(3 5.73253e-17 0)
(3 1.01271e-16 0)
(3 2.91627e-17 0)
(3 1.22853e-18 0)
(3 5.03421e-17 0)
(3 -7.71525e-17 0)
(3 -6.38841e-18 0)
(3 3.79233e-18 0)
(3 5.90267e-17 0)
(3 9.54079e-18 0)
(1.73361 0.0516494 0)
(3.02153 -0.340308 0)
(3.03006 -0.0459259 0)
(3.00226 -0.00219492 0)
(3.00006 -8.78386e-05 0)
(3 -8.45796e-07 0)
(3 -1.70693e-08 0)
(3 -5.00321e-10 0)
(3 -2.40133e-12 0)
(3 -5.58781e-15 0)
(3 -1.17816e-16 0)
(3 1.60267e-16 0)
(3 -9.971e-17 0)
(3 -1.03253e-16 0)
(3 -4.12016e-17 0)
(2.07509 0.0462442 0)
(3.08397 -0.267702 0)
(3.02705 -0.0322092 0)
(3.00178 -0.00165686 0)
(3.00004 -5.67803e-05 0)
(3 -5.22768e-07 0)
(3 -2.10221e-08 0)
(3 -7.24503e-10 0)
(3 -2.90041e-12 0)
(3 -3.28221e-15 0)
(3 6.04612e-18 0)
(3 1.48087e-16 0)
(3 -1.30393e-16 0)
(3 6.81026e-18 0)
(3 2.96699e-18 0)
(2.05803 0.0481741 0)
(3.07186 -0.27992 0)
(3.02764 -0.0359427 0)
(3.00181 -0.00187263 0)
(3.00004 -5.7232e-05 0)
(3 -5.8752e-07 0)
(3 -1.42798e-08 0)
(3 -4.43229e-10 0)
(3 -2.40255e-12 0)
(3 -3.29756e-15 0)
(3 -7.47695e-18 0)
(3 -1.12464e-17 0)
(3 -1.08742e-16 0)
(3 9.93573e-17 0)
(3 -3.44817e-17 0)
(2.04434 0.0498301 0)
(3.06476 -0.289074 0)
(3.02807 -0.0384176 0)
(3.0018 -0.00205755 0)
(3.00003 -5.85816e-05 0)
(3 -6.09341e-07 0)
(3 -9.0724e-09 0)
(3 -2.11678e-10 0)
(3 -1.39647e-12 0)
(3 -5.15167e-15 0)
(3 -3.03906e-17 0)
(3 1.07246e-16 0)
(3 -1.44733e-16 0)
(3 3.01182e-17 0)
(3 -2.49002e-17 0)
(2.0303 0.0515871 0)
(3.05583 -0.299077 0)
(3.02842 -0.0415712 0)
(3.0018 -0.00220938 0)
(3.00003 -6.12146e-05 0)
(3 -7.05471e-07 0)
(3 -8.97806e-09 0)
(3 -1.35553e-10 0)
(3 -7.78652e-13 0)
(3 -2.46219e-15 0)
(3 3.84928e-16 0)
(3 5.65422e-17 0)
(3 -2.41954e-17 0)
(3 -1.70598e-16 0)
(3 2.72274e-17 0)
(2.01618 0.0534155 0)
(3.04649 -0.309454 0)
(3.02876 -0.0452723 0)
(3.00172 -0.00220703 0)
(3.00003 -5.97808e-05 0)
(3 -7.8678e-07 0)
(3 -9.65832e-09 0)
(3 -1.27062e-10 0)
(3 -6.40253e-13 0)
(3 6.39535e-15 0)
(3 7.02725e-16 0)
(3 -8.70966e-17 0)
(3 1.7517e-17 0)
(3 3.05893e-17 0)
(3 -3.00171e-18 0)
(2.00254 0.0553812 0)
(3.03619 -0.320791 0)
(3.02892 -0.048846 0)
(3.00187 -0.00237694 0)
(3.00003 -6.41038e-05 0)
(3 -8.98926e-07 0)
(3 -1.20611e-08 0)
(3 -1.49818e-10 0)
(3 -7.62468e-13 0)
(3 6.19055e-15 0)
(3 7.43574e-16 0)
(3 1.23532e-16 0)
(3 -2.11035e-16 0)
(3 6.17214e-17 0)
(3 7.22493e-17 0)
(1.98962 0.0576791 0)
(3.02497 -0.333875 0)
(3.02863 -0.0522208 0)
(3.0021 -0.00247412 0)
(3.00005 -7.56903e-05 0)
(3 -9.51261e-07 0)
(3 -2.2591e-08 0)
(3 -4.95069e-10 0)
(3 -1.64136e-12 0)
(3 2.46553e-15 0)
(3 5.41957e-16 0)
(3 1.18511e-16 0)
(3 -3.90921e-17 0)
(3 7.49804e-17 0)
(3 -5.56582e-17 0)
(1.97603 0.0603327 0)
(3.01301 -0.348392 0)
(3.02779 -0.0560026 0)
(3.00227 -0.00254749 0)
(3.00007 -8.83568e-05 0)
(3 -1.111e-06 0)
(3 -3.84033e-08 0)
(3 -1.75128e-09 0)
(3 -1.12403e-11 0)
(3 -2.0184e-14 0)
(3 8.94528e-18 0)
(3 -9.67241e-17 0)
(3 1.3319e-16 0)
(3 -1.04653e-16 0)
(3 -7.3018e-17 0)
(1.96073 0.0624991 0)
(2.99847 -0.361024 0)
(3.02755 -0.0612691 0)
(3.00235 -0.00281863 0)
(3.00006 -8.75391e-05 0)
(3 -1.14997e-06 0)
(3 -3.43516e-08 0)
(3 -1.53759e-09 0)
(3 -1.13476e-11 0)
(3 -3.06034e-14 0)
(3 -4.05349e-17 0)
(3 -1.75408e-16 0)
(3 2.10178e-17 0)
(3 -5.23314e-17 0)
(3 -1.08059e-16 0)
(1.9485 0.0649273 0)
(2.98451 -0.375549 0)
(3.02672 -0.0674447 0)
(3.0023 -0.00292791 0)
(3.00006 -9.1565e-05 0)
(3 -1.30028e-06 0)
(3 -2.79572e-08 0)
(3 -1.32592e-09 0)
(3 -1.24586e-11 0)
(3 -4.10076e-14 0)
(3 1.0862e-16 0)
(3 4.44699e-17 0)
(3 -3.26936e-17 0)
(3 -2.6639e-16 0)
(3 -1.29912e-16 0)
(1.93879 0.0672657 0)
(2.98309 -0.384332 0)
(3.02805 -0.0722408 0)
(3.00236 -0.00340473 0)
(3.00005 -8.84597e-05 0)
(3 -1.36544e-06 0)
(3 -2.43971e-08 0)
(3 -7.53161e-10 0)
(3 -8.47155e-12 0)
(3 -2.95196e-14 0)
(3 1.77089e-17 0)
(3 1.22779e-16 0)
(3 -1.68269e-16 0)
(3 -9.44017e-18 0)
(3 4.26815e-17 0)
(1.94426 0.0691006 0)
(3.02012 -0.38069 0)
(3.03497 -0.0723033 0)
(3.00239 -0.00352514 0)
(3.00005 -8.81302e-05 0)
(3 -1.4189e-06 0)
(3 -2.2007e-08 0)
(3 -4.21316e-10 0)
(3 -3.99422e-12 0)
(3 -1.36053e-14 0)
(3 1.29462e-17 0)
(3 2.08776e-17 0)
(3 -8.78106e-17 0)
(3 -5.83709e-17 0)
(3 4.8086e-17 0)
(2.24949 0.0709584 0)
(3.20264 -0.264326 0)
(3.05262 -0.0514342 0)
(3.00197 -0.00237824 0)
(3.00003 -6.25911e-05 0)
(3 -1.01008e-06 0)
(3 -1.41162e-08 0)
(3 -2.86121e-10 0)
(3 -2.7977e-12 0)
(3 -7.44525e-15 0)
(3 1.17584e-16 0)
(3 -2.4172e-16 0)
(3 1.18727e-16 0)
(3 3.43855e-17 0)
(3 -1.31505e-16 0)
(2.79584 0.0407801 0)
(3.17074 -0.0824743 0)
(3.02843 -0.0159395 0)
(3.0007 -0.00061644 0)
(3.00001 -1.26365e-05 0)
(3 -1.24653e-07 0)
(3 -1.89202e-09 0)
(3 -1.71096e-10 0)
(3 -2.72773e-12 0)
(3 -8.54813e-15 0)
(3 2.50991e-16 0)
(3 -5.9877e-17 0)
(3 1.33449e-18 0)
(3 7.62977e-17 0)
(3 5.78547e-18 0)
(2.99889 0.0167999 0)
(2.99858 0.0171245 0)
(2.99998 0.000443928 0)
(3 5.897e-06 0)
(3 2.6951e-08 0)
(3 1.64053e-10 0)
(3 3.69314e-13 0)
(3 2.46334e-15 0)
(3 -1.22582e-16 0)
(3 -1.14995e-16 0)
(3 5.37082e-17 0)
(3 -6.15234e-17 0)
(3 -1.604e-16 0)
(3 5.1844e-17 0)
(3 1.14558e-16 0)
(2.99908 0.0165447 0)
(2.99924 0.0166249 0)
(3.00001 0.000376585 0)
(3 2.19727e-06 0)
(3 7.4402e-09 0)
(3 1.68931e-11 0)
(3 2.88095e-14 0)
(3 2.28358e-16 0)
(3 9.70772e-17 0)
(3 -1.77372e-16 0)
(3 -4.73327e-17 0)
(3 1.08523e-16 0)
(3 -3.00828e-17 0)
(3 -6.06489e-17 0)
(3 -8.6826e-17 0)
(2.99909 0.0165004 0)
(2.99918 0.0165336 0)
(3.00001 0.000377813 0)
(3 2.3434e-06 0)
(3 7.85891e-09 0)
(3 1.83262e-11 0)
(3 3.08483e-14 0)
(3 2.08379e-17 0)
(3 1.42322e-17 0)
(3 -7.49539e-17 0)
(3 1.44433e-16 0)
(3 7.27626e-17 0)
(3 8.66991e-17 0)
(3 2.74563e-17 0)
(3 -8.69738e-17 0)
(2.99908 0.0164366 0)
(2.99919 0.0164656 0)
(3.00001 0.000374185 0)
(3 2.30867e-06 0)
(3 7.71515e-09 0)
(3 1.79393e-11 0)
(3 2.98952e-14 0)
(3 1.2201e-16 0)
(3 1.18511e-16 0)
(3 -1.07073e-17 0)
(3 6.15289e-17 0)
(3 -2.32409e-17 0)
(3 5.22906e-17 0)
(3 -2.12248e-17 0)
(3 -8.58891e-17 0)
(2.99909 0.0163789 0)
(2.99919 0.0163954 0)
(3.00001 0.000371372 0)
(3 2.28627e-06 0)
(3 7.62861e-09 0)
(3 1.77062e-11 0)
(3 3.01959e-14 0)
(3 -5.67895e-17 0)
(3 -1.27665e-16 0)
(3 4.68251e-17 0)
(3 1.18498e-16 0)
(3 1.95402e-16 0)
(3 -1.54077e-17 0)
(3 -9.62266e-17 0)
(3 3.23414e-17 0)
(2.99909 0.0163208 0)
(2.9992 0.016326 0)
(3.00001 0.000368469 0)
(3 2.26171e-06 0)
(3 7.53104e-09 0)
(3 1.74477e-11 0)
(3 2.9977e-14 0)
(3 1.12115e-16 0)
(3 -3.10884e-16 0)
(3 -3.37702e-17 0)
(3 1.12599e-16 0)
(3 -6.43294e-17 0)
(3 1.20087e-16 0)
(3 1.34852e-16 0)
(3 3.43696e-17 0)
(2.99909 0.0162627 0)
(2.9992 0.016257 0)
(3.00001 0.00036561 0)
(3 2.23786e-06 0)
(3 7.43693e-09 0)
(3 1.71971e-11 0)
(3 2.93782e-14 0)
(3 1.8435e-16 0)
(3 -5.35441e-17 0)
(3 -3.86751e-17 0)
(3 9.13206e-17 0)
(3 -6.11974e-17 0)
(3 -8.85295e-17 0)
(3 3.94959e-17 0)
(3 6.00884e-17 0)
(2.9991 0.0162046 0)
(2.9992 0.0161882 0)
(3.00001 0.000362777 0)
(3 2.21428e-06 0)
(3 7.34399e-09 0)
(3 1.69482e-11 0)
(3 2.87969e-14 0)
(3 -1.00328e-16 0)
(3 2.50409e-16 0)
(3 3.18882e-17 0)
(3 -8.90998e-17 0)
(3 -1.1824e-17 0)
(3 -8.53686e-17 0)
(3 4.74887e-17 0)
(3 -2.02348e-19 0)
(2.9991 0.0161477 0)
(2.99921 0.01612 0)
(3.00001 0.000359967 0)
(3 2.19098e-06 0)
(3 7.25244e-09 0)
(3 1.67087e-11 0)
(3 2.82394e-14 0)
(3 -1.13872e-16 0)
(3 -9.49143e-17 0)
(3 1.58216e-16 0)
(3 1.43909e-16 0)
(3 2.24494e-17 0)
(3 -1.30789e-16 0)
(3 -2.65611e-17 0)
(3 1.96347e-17 0)
(2.99912 0.0160953 0)
(2.99921 0.0160537 0)
(3.00001 0.000357193 0)
(3 2.16795e-06 0)
(3 7.16212e-09 0)
(3 1.64646e-11 0)
(3 2.7542e-14 0)
(3 1.9919e-16 0)
(3 1.40132e-16 0)
(3 -1.19429e-16 0)
(3 6.78369e-17 0)
(3 1.66213e-16 0)
(3 -1.10614e-16 0)
(3 -6.10494e-17 0)
(3 7.6846e-18 0)
(2.99914 0.016048 0)
(2.99922 0.0159916 0)
(3.00001 0.000354511 0)
(3 2.14537e-06 0)
(3 7.07328e-09 0)
(3 1.62325e-11 0)
(3 2.67666e-14 0)
(3 -1.40469e-16 0)
(3 2.66876e-16 0)
(3 6.614e-17 0)
(3 1.35714e-16 0)
(3 -6.10906e-17 0)
(3 -1.07227e-16 0)
(3 1.83287e-16 0)
(3 -6.05295e-18 0)
(2.99911 0.0159904 0)
(2.99922 0.0159272 0)
(3.00001 0.000351927 0)
(3 2.12371e-06 0)
(3 6.98723e-09 0)
(3 1.60037e-11 0)
(3 2.59602e-14 0)
(3 6.26118e-18 0)
(3 3.54065e-16 0)
(3 2.75009e-17 0)
(3 2.10642e-16 0)
(3 -4.44372e-17 0)
(3 -4.52814e-17 0)
(3 -4.39392e-18 0)
(3 -8.07276e-17 0)
(2.99825 0.0157931 0)
(2.99906 0.015692 0)
(3.00001 0.000345286 0)
(3 2.08591e-06 0)
(3 6.87124e-09 0)
(3 1.57392e-11 0)
(3 2.59596e-14 0)
(3 -1.82949e-17 0)
(3 3.67004e-17 0)
(3 3.8303e-17 0)
(3 6.12792e-17 0)
(3 2.96086e-17 0)
(3 4.31099e-17 0)
(3 -1.49799e-16 0)
(3 -9.18246e-17 0)
(2.99134 0.0135812 0)
(2.99787 0.0130927 0)
(2.99998 0.000275945 0)
(3 1.68865e-06 0)
(3 5.7241e-09 0)
(3 1.35022e-11 0)
(3 2.35366e-14 0)
(3 -2.30862e-16 0)
(3 -3.53346e-17 0)
(3 4.13178e-17 0)
(3 -1.32582e-16 0)
(3 -1.84334e-16 0)
(3 1.3776e-16 0)
(3 2.39804e-16 0)
(3 -6.9164e-18 0)
(2.98803 0.00536714 0)
(2.99807 0.00521503 0)
(2.99998 9.13177e-05 0)
(3 5.44054e-07 0)
(3 1.89966e-09 0)
(3 4.66579e-12 0)
(3 8.21597e-15 0)
(3 -2.92293e-16 0)
(3 -1.25151e-16 0)
(3 -1.80124e-16 0)
(3 6.8618e-17 0)
(3 7.76921e-17 0)
(3 -8.98603e-17 0)
(3 -1.10691e-16 0)
(3 -3.01453e-17 0)
(3 -3.17642e-17 0)
(3 2.77377e-16 0)
(3 1.19788e-16 0)
(3 -3.442e-16 0)
(3 -3.39204e-17 0)
(3 3.99383e-16 0)
(3 -3.07064e-16 0)
(3 -1.18165e-16 0)
(3 -2.95282e-17 0)
(3 -1.57373e-16 0)
(3 6.26446e-17 0)
(3 4.0497e-16 0)
(3 -4.38924e-17 0)
(3 -1.9183e-16 0)
(3 3.72266e-17 0)
(3 -1.43411e-16 0)
(3 1.36821e-16 0)
(3 -6.28705e-17 0)
(3 -6.27058e-16 0)
(3 -1.22771e-16 0)
(3 4.11714e-16 0)
(3 2.06076e-16 0)
(3 -1.37757e-16 0)
(3 -1.65032e-16 0)
(3 6.89873e-18 0)
(3 5.43956e-17 0)
(3 1.59498e-16 0)
(3 2.32051e-16 0)
(3 -2.1493e-16 0)
(3 -5.98709e-17 0)
(3 6.73326e-16 0)
(3 4.11696e-16 0)
(3 -2.57651e-16 0)
(3 -3.52296e-16 0)
(3 -1.76387e-16 0)
(3 2.05683e-16 0)
(3 2.2449e-17 0)
(3 -9.8694e-17 0)
(3 -4.20143e-18 0)
(3 1.10592e-16 0)
(3 1.03184e-16 0)
(3 -1.41547e-16 0)
(3 2.22624e-16 0)
(3 -7.68841e-18 0)
(3 -1.07737e-16 0)
(3 -1.5269e-16 0)
(3 4.54355e-16 0)
(3 3.53721e-16 0)
(3 -2.06176e-16 0)
(3 -7.85016e-17 0)
(3 1.5158e-16 0)
(3 -2.74652e-16 0)
(3 -1.47971e-16 0)
(3 4.12015e-16 0)
(3 -1.27751e-16 0)
(3 -1.58116e-17 0)
(3 1.25938e-16 0)
(3 5.81675e-17 0)
(3 -7.76674e-18 0)
(3 -5.7538e-17 0)
(3 -1.00251e-16 0)
(3 5.18815e-16 0)
(3 -4.10822e-16 0)
(3 -3.33487e-16 0)
(3 5.14939e-16 0)
(3 -2.00943e-16 0)
(3 -4.07281e-16 0)
(3 3.00904e-16 0)
(3 2.91633e-16 0)
(3 9.29865e-17 0)
(3 -8.94093e-17 0)
(3 1.85386e-16 0)
(3 1.2486e-16 0)
(3 -2.54897e-16 0)
(3 -3.04859e-17 0)
(3 3.01265e-16 0)
(3 8.33416e-16 0)
(3 -1.83589e-16 0)
(3 -5.57577e-16 0)
(3 -5.01766e-17 0)
(3 1.21526e-16 0)
(3 -8.78838e-17 0)
(3 -3.36548e-16 0)
(3 1.45607e-16 0)
(3 2.20054e-16 0)
(3 2.28571e-17 0)
(3 3.27552e-17 0)
(3 -8.13253e-18 0)
(3 -7.88187e-17 0)
(3 -8.81564e-17 0)
(3 -1.57443e-16 0)
(3 3.56443e-16 0)
(3 6.90632e-17 0)
(3 -1.04255e-16 0)
(3 9.51676e-17 0)
(3 4.24375e-17 0)
(3 -2.04781e-16 0)
(3 1.05599e-17 0)
(3 2.40345e-16 0)
(3 -4.80189e-17 0)
(3 7.14334e-18 0)
(3 -1.08099e-16 0)
(3 -2.01081e-16 0)
(3 5.11233e-17 0)
(3 6.46985e-17 0)
(3 4.08499e-17 0)
(3 9.06317e-17 0)
(3 7.76426e-17 0)
(3 -1.99771e-17 0)
(3 2.70689e-16 0)
(3 3.25278e-16 0)
(3 -9.50723e-17 0)
(3 -1.45254e-16 0)
(3 2.35713e-17 0)
(3 -2.14366e-16 0)
(3 -5.25041e-17 0)
(3 2.48954e-16 0)
(3 9.26386e-17 0)
(3 -1.55175e-16 0)
(3 -8.59411e-17 0)
(3 -3.93634e-16 0)
(3 -1.65122e-16 0)
(3 1.82195e-16 0)
(3 -2.53081e-16 0)
(3 2.18968e-16 0)
(3 2.47991e-16 0)
(3 -8.59402e-17 0)
(3 -6.60353e-17 0)
(3 1.24229e-16 0)
(3 -6.8248e-17 0)
(3 6.44764e-17 0)
(3 8.83094e-17 0)
(3 2.66166e-17 0)
(3 -2.06847e-16 0)
(3 -2.37814e-16 0)
(3 -6.95834e-16 0)
(3 8.91557e-17 0)
(3 5.13894e-16 0)
(3 -4.66174e-16 0)
(3 -3.41002e-16 0)
(3 2.36945e-16 0)
(3 1.42929e-16 0)
(3 5.68199e-17 0)
(3 2.12175e-16 0)
(3 -1.14413e-16 0)
(3 -1.32721e-16 0)
(3 2.02666e-17 0)
(3 1.95804e-16 0)
(3 -6.09201e-17 0)
(3 -1.83444e-16 0)
(3 4.29987e-16 0)
(3 5.20381e-16 0)
(3 -2.86069e-16 0)
(3 -4.78069e-16 0)
(3 -3.16396e-16 0)
(3 -3.58585e-16 0)
(3 -3.18765e-16 0)
(3 2.93641e-16 0)
(3 1.3044e-15 0)
(3 4.94719e-16 0)
(3 2.61114e-16 0)
(3 3.005e-16 0)
(3 -5.33772e-17 0)
(3 -2.43461e-16 0)
(3 5.17614e-16 0)
(3 2.68397e-16 0)
(3 -1.36739e-16 0)
(3 -1.06317e-15 0)
(3 -6.91562e-16 0)
(3 7.32074e-17 0)
(3 -5.28081e-16 0)
(3 9.53287e-17 0)
(3 9.89607e-17 0)
(3 1.28737e-16 0)
(3 -1.36626e-16 0)
(3 3.02164e-16 0)
(3 2.78566e-16 0)
(3 -3.13135e-16 0)
(3 -4.78413e-16 0)
(3 -3.97173e-16 0)
(3 -1.74322e-16 0)
(3 -1.54633e-18 0)
(3 -1.81727e-16 0)
(3 2.47127e-16 0)
(3 -4.70272e-16 0)
(3 -5.98016e-16 0)
(3 -8.56197e-17 0)
(3 9.84694e-16 0)
(3 3.29396e-16 0)
(3 6.25518e-17 0)
(3 1.41244e-16 0)
(3 -3.50577e-16 0)
(3 2.05605e-16 0)
(3 7.33052e-17 0)
(3 -9.64734e-17 0)
(3 -1.39392e-16 0)
(3 -4.27471e-16 0)
(3 7.86637e-17 0)
(3 -2.77556e-16 0)
(3 6.71776e-16 0)
(3 2.58224e-17 0)
(3 -6.37789e-17 0)
(3 1.63825e-16 0)
(3 -4.2693e-17 0)
(3 5.24208e-16 0)
(3 4.96279e-16 0)
(3 3.97562e-16 0)
(3 -6.96033e-17 0)
(3 9.9715e-17 0)
(3 -1.0827e-16 0)
(3 -3.18024e-16 0)
(3 -1.11975e-17 0)
(3 -2.72431e-16 0)
(3 -9.91067e-17 0)
(3 2.16978e-16 0)
(3 2.13789e-17 0)
(3 1.66576e-16 0)
(3 -1.82761e-16 0)
(3 1.5265e-16 0)
(3 -2.08956e-16 0)
(3 3.17751e-16 0)
(3 -1.4874e-17 0)
(3 6.84741e-17 0)
(3 -1.66619e-17 0)
(3 -3.18755e-16 0)
(3 -2.32865e-16 0)
(3 5.82882e-17 0)
(3 1.7014e-16 0)
(3 -6.61662e-18 0)
(3 -8.34272e-20 0)
(3 2.75426e-16 0)
(3 4.00081e-17 0)
(3 5.03352e-17 0)
(3 -5.75936e-17 0)
(3 -9.96174e-17 0)
(3 1.37334e-16 0)
(3 -2.0015e-17 0)
(3 2.01899e-16 0)
(3 -2.1949e-17 0)
(3 -1.72642e-16 0)
(3 -4.14869e-16 0)
(3 -5.2278e-17 0)
(3 -3.52771e-16 0)
(3 -1.96456e-16 0)
(3 -1.43734e-16 0)
(3 -3.03983e-16 0)
(3 -1.14117e-16 0)
(3 -3.17763e-16 0)
(3 -2.37896e-17 0)
(3 6.68523e-17 0)
(3 -1.35723e-16 0)
(3 5.31564e-17 0)
(3 2.32307e-16 0)
(3 2.72384e-16 0)
(3 9.51113e-17 0)
(3 -2.57509e-16 0)
(3 -1.57095e-17 0)
(3 -1.23056e-16 0)
(3 -1.2308e-16 0)
(3 -1.15668e-16 0)
(3 -1.13854e-16 0)
(3 1.39536e-16 0)
(3 1.71389e-16 0)
(3 1.7155e-16 0)
(3 1.58542e-16 0)
(3 2.47293e-17 0)
(3 3.37944e-17 0)
(3 8.83868e-17 0)
(3 1.11637e-17 0)
(3 -3.92056e-17 0)
(3 -8.34224e-18 0)
(3 -7.61405e-17 0)
(3 2.01438e-17 0)
(3 -7.88631e-17 0)
(3 -2.00172e-16 0)
(3 3.16335e-18 0)
(3 3.41134e-17 0)
(3 -8.31904e-17 0)
(3 -3.46874e-17 0)
(3 2.24183e-16 0)
(3 8.20152e-17 0)
(3 6.54548e-17 0)
(3 9.5294e-17 0)
(3 -5.67358e-18 0)
(3 -1.77314e-16 0)
(3 3.91953e-16 0)
(3 -1.4062e-16 0)
(3 -1.06409e-16 0)
(3 -8.97935e-17 0)
(3 -6.05177e-19 0)
(3 2.44182e-17 0)
(3 1.40678e-16 0)
(3 1.36959e-16 0)
(3 -7.74433e-17 0)
(3 9.69024e-17 0)
(3 -1.30545e-16 0)
(3 -1.44345e-16 0)
(3 1.5322e-16 0)
(3 -2.06133e-16 0)
(3 -5.42439e-17 0)
(3 2.77764e-16 0)
(3 -1.19399e-16 0)
(3 -1.47104e-16 0)
(3 -7.16068e-17 0)
(3 7.48122e-17 0)
(3 -9.35734e-17 0)
(3 1.9986e-17 0)
(3 6.39348e-17 0)
(3 -4.15147e-17 0)
(3 5.86444e-17 0)
(3 2.49605e-16 0)
(3 3.31837e-17 0)
(3 -1.61727e-16 0)
(3 -6.29173e-17 0)
(3 8.77737e-18 0)
(3 1.71366e-16 0)
(3 1.25379e-16 0)
(3 3.08198e-17 0)
(3 3.94034e-16 0)
(3 -1.04934e-16 0)
(3 -1.21546e-16 0)
(3 1.67583e-17 0)
(3 -2.35609e-17 0)
(3 -9.88719e-18 0)
(3 3.94758e-17 0)
(3 -9.32695e-17 0)
(3 4.40083e-17 0)
(3 -2.81129e-16 0)
(3 -2.05545e-16 0)
(3 -5.32001e-17 0)
(3 -3.36864e-16 0)
(3 -3.89893e-16 0)
(3 -1.06094e-16 0)
(3 -4.30415e-17 0)
(3 -1.00854e-16 0)
(3 1.33405e-17 0)
(3 -1.16131e-19 0)
(3 -8.73145e-17 0)
(3 -1.14287e-16 0)
(3 1.48011e-16 0)
(3 -8.5362e-17 0)
(3 -6.46458e-17 0)
(3 -8.86646e-19 0)
(3 1.70522e-17 0)
(3 -2.7993e-17 0)
(3 1.28461e-16 0)
(3 7.11396e-17 0)
(3 1.87114e-16 0)
(3 1.0438e-16 0)
(3 4.39291e-17 0)
(2.79417 -0.0985436 0)
(3 -8.63508e-07 0)
(3 1.63125e-11 0)
(3 -1.23121e-16 0)
(3 3.60066e-16 0)
(3 -2.35429e-16 0)
(3 3.20655e-16 0)
(3 3.56529e-16 0)
(3 -2.97634e-16 0)
(3 -3.69086e-16 0)
(3 -4.92268e-17 0)
(3 -1.18927e-16 0)
(3 -1.05107e-16 0)
(3 2.14447e-16 0)
(3 1.05002e-16 0)
(3 -1.07105e-16 0)
(3 2.64724e-16 0)
(3 -2.52987e-16 0)
(3 -1.05172e-16 0)
(3 5.66333e-17 0)
(2.75509 -0.219895 0)
(3 -1.0488e-06 0)
(3 3.4749e-11 0)
(3 -1.25047e-15 0)
(3 4.95235e-17 0)
(3 -3.97476e-16 0)
(3 5.47643e-16 0)
(3 3.53508e-16 0)
(3 -3.60459e-16 0)
(3 -4.59276e-16 0)
(3 2.95939e-16 0)
(3 -7.20456e-17 0)
(3 -2.13662e-16 0)
(3 1.83972e-16 0)
(3 -9.8378e-17 0)
(3 -2.0569e-16 0)
(3 2.49813e-16 0)
(3 -8.75458e-19 0)
(3 2.41956e-17 0)
(3 5.56512e-17 0)
(2.80463 -0.261017 0)
(3 -9.99783e-07 0)
(3 4.6943e-11 0)
(3 -8.74107e-16 0)
(3 2.40364e-16 0)
(3 -1.90989e-16 0)
(3 6.48807e-17 0)
(3 1.83062e-16 0)
(3 2.37721e-16 0)
(3 -1.27403e-16 0)
(3 2.04588e-16 0)
(3 -1.40397e-16 0)
(3 -2.06575e-16 0)
(3 7.91052e-17 0)
(3 8.45625e-17 0)
(3 -1.08832e-16 0)
(3 9.15281e-17 0)
(3 -1.5995e-17 0)
(3 2.15457e-16 0)
(3 1.04193e-16 0)
(2.81738 -0.274206 0)
(3 -9.25795e-07 0)
(3 5.4448e-11 0)
(3 -3.88184e-16 0)
(3 -3.03757e-16 0)
(3 4.10507e-16 0)
(3 -4.13541e-16 0)
(3 4.59997e-16 0)
(3 3.19769e-16 0)
(3 -1.21535e-16 0)
(3 -3.2516e-16 0)
(3 4.09602e-16 0)
(3 -4.5644e-16 0)
(3 1.41317e-16 0)
(3 -3.1106e-17 0)
(3 -6.98026e-17 0)
(3 -5.46589e-17 0)
(3 1.88783e-16 0)
(3 8.41367e-17 0)
(3 -2.4083e-18 0)
(2.8141 -0.282368 0)
(3 -8.47832e-07 0)
(3 6.04728e-11 0)
(3 -5.22709e-16 0)
(3 -7.29409e-17 0)
(3 2.30503e-16 0)
(3 -4.90413e-16 0)
(3 4.46709e-16 0)
(3 3.17747e-16 0)
(3 1.12897e-17 0)
(3 -2.94802e-16 0)
(3 1.80818e-16 0)
(3 -2.56453e-16 0)
(3 1.61789e-16 0)
(3 -1.54882e-16 0)
(3 7.99348e-17 0)
(3 -1.15984e-16 0)
(3 2.43042e-16 0)
(3 -1.86044e-17 0)
(3 -9.77345e-17 0)
(2.80731 -0.289444 0)
(3 -7.58254e-07 0)
(3 6.65644e-11 0)
(3 -8.32978e-16 0)
(3 -4.89592e-16 0)
(3 6.11208e-16 0)
(3 -4.56734e-16 0)
(3 3.04547e-17 0)
(3 4.45724e-16 0)
(3 -3.14033e-16 0)
(3 -1.49754e-16 0)
(3 8.04739e-17 0)
(3 -3.00757e-16 0)
(3 1.92848e-16 0)
(3 -6.05478e-17 0)
(3 2.99913e-16 0)
(3 -1.93451e-16 0)
(3 -3.134e-17 0)
(3 -3.8491e-17 0)
(3 -5.69069e-17 0)
(2.79962 -0.297253 0)
(3 -6.38712e-07 0)
(3 7.32462e-11 0)
(3 -7.35441e-16 0)
(3 -8.00144e-16 0)
(3 5.97793e-16 0)
(3 -5.12748e-16 0)
(3 1.21918e-16 0)
(3 5.48963e-16 0)
(3 -9.72973e-17 0)
(3 -3.67833e-16 0)
(3 1.03425e-16 0)
(3 2.74014e-16 0)
(3 -1.66857e-16 0)
(3 -8.57332e-17 0)
(3 4.81194e-17 0)
(3 -1.406e-16 0)
(3 1.053e-16 0)
(3 4.33299e-17 0)
(3 -4.03245e-17 0)
(2.79285 -0.306329 0)
(3 -4.84188e-07 0)
(3 8.0666e-11 0)
(3 -1.28234e-15 0)
(3 -3.06871e-16 0)
(3 1.74433e-16 0)
(3 -1.18731e-16 0)
(3 -1.88328e-16 0)
(3 3.89513e-16 0)
(3 6.05626e-17 0)
(3 -8.75601e-17 0)
(3 2.04599e-17 0)
(3 1.2961e-16 0)
(3 -2.9418e-16 0)
(3 1.31511e-16 0)
(3 -1.17837e-16 0)
(3 -1.82996e-16 0)
(3 2.4867e-16 0)
(3 2.52542e-17 0)
(3 -4.42936e-17 0)
(2.78646 -0.316075 0)
(3 -2.94075e-07 0)
(3 8.89101e-11 0)
(3 -1.60952e-15 0)
(3 2.52846e-16 0)
(3 6.10733e-16 0)
(3 -4.38535e-17 0)
(3 -1.13813e-16 0)
(3 -2.03413e-17 0)
(3 2.40746e-16 0)
(3 -1.19993e-16 0)
(3 2.74349e-16 0)
(3 -2.16712e-16 0)
(3 4.12327e-17 0)
(3 -1.76452e-16 0)
(3 -7.40286e-17 0)
(3 1.14009e-16 0)
(3 2.00421e-16 0)
(3 6.19154e-17 0)
(3 -1.08032e-17 0)
(2.77968 -0.326233 0)
(3 -6.33591e-08 0)
(3 9.80683e-11 0)
(3 -1.08065e-15 0)
(3 1.80259e-16 0)
(3 1.40098e-16 0)
(3 -5.78958e-17 0)
(3 3.34173e-16 0)
(3 -3.0263e-16 0)
(3 1.67531e-16 0)
(3 -2.23335e-16 0)
(3 2.41801e-16 0)
(3 -1.34394e-17 0)
(3 -2.34134e-16 0)
(3 -1.8632e-16 0)
(3 1.92285e-16 0)
(3 1.83364e-16 0)
(3 -1.74501e-17 0)
(3 -2.08978e-16 0)
(3 -2.61537e-17 0)
(2.77248 -0.336889 0)
(3 2.15677e-07 0)
(3 1.08238e-10 0)
(3 -1.93779e-15 0)
(3 -4.50789e-16 0)
(3 2.99879e-16 0)
(3 -1.25502e-16 0)
(3 -1.64845e-16 0)
(3 2.80146e-16 0)
(3 -1.80425e-16 0)
(3 4.40875e-17 0)
(3 1.33012e-16 0)
(3 1.2227e-16 0)
(3 -5.51771e-16 0)
(3 2.22245e-16 0)
(3 9.85414e-17 0)
(3 -1.28477e-16 0)
(3 7.69116e-17 0)
(3 -1.0417e-16 0)
(3 -8.39848e-17 0)
(2.76488 -0.348109 0)
(3 5.52314e-07 0)
(3 1.1952e-10 0)
(3 -2.88419e-15 0)
(3 -5.19161e-16 0)
(3 5.94596e-16 0)
(3 -5.73845e-16 0)
(3 4.39486e-16 0)
(3 -8.54598e-17 0)
(3 -1.38051e-16 0)
(3 -1.57111e-16 0)
(3 5.45449e-16 0)
(3 -1.34818e-16 0)
(3 -2.41061e-16 0)
(3 -5.51099e-17 0)
(3 1.48101e-16 0)
(3 2.9493e-16 0)
(3 -1.87704e-17 0)
(3 -2.03207e-16 0)
(3 -7.45416e-17 0)
(2.75693 -0.359921 0)
(2.99987 -0.000197572 0)
(3 1.14498e-10 0)
(3 -2.48792e-15 0)
(3 -1.90426e-16 0)
(3 -1.60398e-16 0)
(3 -1.94824e-16 0)
(3 6.65207e-16 0)
(3 -6.24417e-17 0)
(3 -3.65166e-16 0)
(3 1.66379e-16 0)
(3 1.7861e-16 0)
(3 1.99498e-16 0)
(3 -1.2978e-16 0)
(3 -1.54042e-16 0)
(3 2.5563e-16 0)
(3 2.46951e-16 0)
(3 -1.87777e-16 0)
(3 -4.62443e-17 0)
(3 8.01676e-17 0)
(2.74998 -0.372563 0)
(2.99892 -0.00162782 0)
(3 2.5269e-10 0)
(3 -4.10531e-15 0)
(3 -4.03587e-16 0)
(3 -5.23169e-16 0)
(3 4.18038e-16 0)
(3 2.35135e-16 0)
(3 -3.07991e-16 0)
(3 -6.97635e-17 0)
(3 1.67571e-16 0)
(3 8.65172e-17 0)
(3 -1.65054e-16 0)
(3 2.00129e-16 0)
(3 -8.11668e-17 0)
(3 1.40799e-16 0)
(3 -1.15174e-16 0)
(3 -2.50818e-17 0)
(3 5.79247e-17 0)
(3 1.40491e-17 0)
(2.75867 -0.388719 0)
(2.99223 0.0454639 0)
(3 -3.44945e-07 0)
(3 3.35476e-08 0)
(3 -2.81126e-09 0)
(3 1.11636e-14 0)
(3 5.83373e-17 0)
(3 -1.18366e-16 0)
(3 -3.77156e-16 0)
(3 1.41096e-16 0)
(3 5.63838e-17 0)
(3 2.10963e-17 0)
(3 -1.66185e-16 0)
(3 8.51757e-17 0)
(3 -3.83857e-17 0)
(3 5.2813e-17 0)
(3 -1.47557e-16 0)
(3 5.73176e-18 0)
(3 2.26491e-16 0)
(3 9.08512e-17 0)
(3.05034 -0.242827 0)
(3.00781 -0.189956 0)
(3.00015 -0.00638738 0)
(3 -3.37049e-05 0)
(3 -3.81687e-08 0)
(3 1.01604e-08 0)
(3 6.21821e-10 0)
(3 1.04773e-12 0)
(3 8.87207e-16 0)
(3 1.99085e-16 0)
(3 -2.52666e-18 0)
(3 -7.32949e-17 0)
(3 -3.85386e-17 0)
(3 -9.79608e-17 0)
(3 -2.52232e-17 0)
(3 7.76314e-17 0)
(3 -1.26759e-16 0)
(3 -1.33897e-17 0)
(3 1.84162e-16 0)
(3 -3.8508e-17 0)
(3.09695 -0.0468117 0)
(3.02229 -0.0469071 0)
(3.0006 -0.0034861 0)
(2.99999 -9.27172e-06 0)
(3 7.37882e-07 0)
(3 1.14299e-08 0)
(3 5.56324e-11 0)
(3 1.24172e-13 0)
(3 1.60756e-16 0)
(3 1.16805e-16 0)
(3 -2.04258e-16 0)
(3 -9.44473e-17 0)
(3 7.76138e-17 0)
(3 -2.38259e-16 0)
(3 2.48422e-16 0)
(3 2.30543e-16 0)
(3 -4.39769e-17 0)
(3 2.08873e-17 0)
(3 -1.29443e-16 0)
(3 -1.36664e-16 0)
(3.00475 0.0196061 0)
(3.00144 0.030931 0)
(2.99989 0.00185183 0)
(2.99999 3.17929e-05 0)
(3 2.45594e-07 0)
(3 7.42366e-10 0)
(3 1.64617e-12 0)
(3 3.14533e-15 0)
(3 -1.5156e-16 0)
(3 -7.48583e-17 0)
(3 -1.32777e-16 0)
(3 -9.84191e-17 0)
(3 1.55306e-16 0)
(3 -3.80701e-17 0)
(3 -2.82817e-16 0)
(3 3.32247e-17 0)
(3 7.29997e-17 0)
(3 4.93459e-17 0)
(3 -7.80713e-17 0)
(3 2.86116e-17 0)
(2.99861 0.0216163 0)
(2.99843 0.0357111 0)
(2.99961 0.00232445 0)
(3 3.47722e-05 0)
(3 1.72437e-07 0)
(3 5.33733e-10 0)
(3 1.22561e-12 0)
(3 1.79674e-15 0)
(3 -2.09275e-17 0)
(3 9.98257e-17 0)
(3 -3.28408e-19 0)
(3 6.3793e-16 0)
(3 1.01542e-17 0)
(3 -3.88707e-16 0)
(3 -1.05806e-16 0)
(3 -2.26323e-16 0)
(3 3.22431e-17 0)
(3 1.2795e-16 0)
(3 8.20172e-18 0)
(3 6.50926e-17 0)
(2.99874 0.021559 0)
(2.99846 0.0356163 0)
(2.99961 0.0023109 0)
(3 3.43401e-05 0)
(3 1.68179e-07 0)
(3 5.23624e-10 0)
(3 1.20236e-12 0)
(3 2.04454e-15 0)
(3 -4.76972e-18 0)
(3 3.68568e-17 0)
(3 2.30755e-16 0)
(3 3.24835e-16 0)
(3 -1.95234e-16 0)
(3 -3.34842e-16 0)
(3 -2.21923e-16 0)
(3 -2.74091e-17 0)
(3 7.37455e-17 0)
(3 3.60984e-17 0)
(3 1.93369e-16 0)
(3 9.54745e-17 0)
(2.99889 0.0214614 0)
(2.9985 0.0354319 0)
(2.99961 0.00228812 0)
(3 3.38928e-05 0)
(3 1.65735e-07 0)
(3 5.15144e-10 0)
(3 1.17838e-12 0)
(3 2.81732e-15 0)
(3 1.33873e-16 0)
(3 -7.11907e-17 0)
(3 2.26341e-17 0)
(3 1.0611e-16 0)
(3 -1.35617e-16 0)
(3 -2.03026e-16 0)
(3 -2.65931e-16 0)
(3 -5.33003e-17 0)
(3 2.35677e-16 0)
(3 6.15548e-17 0)
(3 9.22532e-17 0)
(3 -3.51958e-18 0)
(2.9989 0.0213795 0)
(2.99851 0.0352874 0)
(2.99962 0.00227032 0)
(3 3.34834e-05 0)
(3 1.63315e-07 0)
(3 5.06708e-10 0)
(3 1.16029e-12 0)
(3 2.33331e-15 0)
(3 -2.29741e-16 0)
(3 -1.54971e-16 0)
(3 9.99456e-17 0)
(3 1.14037e-16 0)
(3 -7.09982e-17 0)
(3 -1.73833e-16 0)
(3 -2.31608e-17 0)
(3 2.04194e-17 0)
(3 1.73724e-16 0)
(3 -9.41389e-17 0)
(3 1.11432e-16 0)
(3 1.08533e-16 0)
(2.99889 0.0213094 0)
(2.99851 0.0351536 0)
(2.99962 0.00225289 0)
(3 3.30764e-05 0)
(3 1.60931e-07 0)
(3 4.98457e-10 0)
(3 1.13763e-12 0)
(3 1.83089e-15 0)
(3 -4.81955e-17 0)
(3 3.77905e-17 0)
(3 -2.22599e-16 0)
(3 1.23468e-16 0)
(3 3.66436e-16 0)
(3 -1.96584e-16 0)
(3 -7.89056e-17 0)
(3 1.89026e-16 0)
(3 -1.14348e-17 0)
(3 -2.4532e-16 0)
(3 9.45404e-17 0)
(3 9.74261e-17 0)
(2.99889 0.0212361 0)
(2.99852 0.0350167 0)
(2.99962 0.00223549 0)
(3 3.26764e-05 0)
(3 1.58596e-07 0)
(3 4.90369e-10 0)
(3 1.11883e-12 0)
(3 1.77088e-15 0)
(3 -2.5232e-16 0)
(3 -1.91456e-16 0)
(3 7.12419e-17 0)
(3 1.12449e-16 0)
(3 -8.26099e-17 0)
(3 -4.14423e-17 0)
(3 -6.53003e-18 0)
(3 4.99535e-17 0)
(3 -5.42901e-17 0)
(3 -2.30619e-17 0)
(3 1.34464e-17 0)
(3 -6.91587e-17 0)
(2.99889 0.0211604 0)
(2.99852 0.0348795 0)
(2.99963 0.00221828 0)
(3 3.22827e-05 0)
(3 1.563e-07 0)
(3 4.82428e-10 0)
(3 1.09999e-12 0)
(3 1.75014e-15 0)
(3 -8.43956e-16 0)
(3 -1.78557e-18 0)
(3 2.62883e-16 0)
(3 -1.18425e-16 0)
(3 6.90326e-17 0)
(3 -1.09945e-16 0)
(3 2.08877e-17 0)
(3 6.00196e-17 0)
(3 -1.58291e-16 0)
(3 3.34458e-16 0)
(3 8.32232e-17 0)
(3 -6.65004e-17 0)
(2.9989 0.0210854 0)
(2.99853 0.0347434 0)
(2.99963 0.00220126 0)
(3 3.18955e-05 0)
(3 1.5405e-07 0)
(3 4.74655e-10 0)
(3 1.07819e-12 0)
(3 1.93092e-15 0)
(3 -2.99991e-16 0)
(3 1.17223e-16 0)
(3 7.7857e-17 0)
(3 -8.30372e-17 0)
(3 1.40493e-16 0)
(3 -3.2138e-17 0)
(3 2.53821e-16 0)
(3 1.2317e-16 0)
(3 -2.83691e-16 0)
(3 5.26395e-17 0)
(3 1.02825e-16 0)
(3 -7.00829e-18 0)
(2.9989 0.0210112 0)
(2.99853 0.0346077 0)
(2.99963 0.00218422 0)
(3 3.15053e-05 0)
(3 1.51777e-07 0)
(3 4.66831e-10 0)
(3 1.05903e-12 0)
(3 1.95285e-15 0)
(3 4.35161e-16 0)
(3 3.64286e-16 0)
(3 -3.67683e-17 0)
(3 -2.33671e-16 0)
(3 -9.13625e-17 0)
(3 9.78724e-17 0)
(3 2.41756e-16 0)
(3 2.00506e-16 0)
(3 -1.60037e-16 0)
(3 -7.50196e-17 0)
(3 -6.48296e-17 0)
(3 -1.20797e-16 0)
(2.99891 0.0209373 0)
(2.99854 0.0344778 0)
(2.99963 0.00216867 0)
(3 3.11716e-05 0)
(3 1.4989e-07 0)
(3 4.60314e-10 0)
(3 1.04143e-12 0)
(3 2.13045e-15 0)
(3 2.94489e-16 0)
(3 1.7529e-16 0)
(3 -9.5133e-17 0)
(3 -1.86601e-16 0)
(3 9.43211e-17 0)
(3 2.74785e-16 0)
(3 5.59786e-17 0)
(3 8.39869e-17 0)
(3 -1.56067e-17 0)
(3 -2.33387e-16 0)
(3 -1.19679e-16 0)
(3 -4.3583e-17 0)
(2.99892 0.0208528 0)
(2.99855 0.0343038 0)
(2.99964 0.00214555 0)
(3 3.06191e-05 0)
(3 1.46635e-07 0)
(3 4.49211e-10 0)
(3 1.01385e-12 0)
(3 1.25932e-15 0)
(3 2.32416e-16 0)
(3 1.27544e-16 0)
(3 -2.1791e-16 0)
(3 -2.57307e-17 0)
(3 2.48138e-16 0)
(3 2.88503e-16 0)
(3 -1.11274e-16 0)
(3 -9.71317e-17 0)
(3 1.12009e-16 0)
(3 -1.02387e-16 0)
(3 -2.37045e-16 0)
(3 2.58815e-18 0)
(3.00122 0.0205038 0)
(2.99889 0.0360624 0)
(2.99957 0.00247585 0)
(2.99999 4.07263e-05 0)
(3 2.11202e-07 0)
(3 6.66768e-10 0)
(3 1.52004e-12 0)
(3 1.82135e-15 0)
(3 2.3761e-17 0)
(3 5.75023e-17 0)
(3 -2.15685e-16 0)
(3 -1.96757e-16 0)
(3 4.08039e-18 0)
(3 5.24134e-16 0)
(3 9.97049e-17 0)
(3 -1.43361e-16 0)