/*--------------------------------*- C++ -*----------------------------------*\
  =========                 |
  \\      /  F ield         | OpenFOAM: The Open Source CFD Toolbox
   \\    /   O peration     | Website:  https://openfoam.org
    \\  /    A nd           | Version:  7
     \\/     M anipulation  |
\*---------------------------------------------------------------------------*/
FoamFile
{
    version     2.0;
    format      ascii;
    class       volVectorField;
    location    "7.8";
    object      U;
}
// * * * * * * * * * * * * * * * * * * * * * * * * * * * * * * * * * * * * * //

dimensions      [0 1 -1 0 0 0 0];

internalField   nonuniform List<vector> 
1750
(
(2.26517 0.103666 0)
(2.38195 0.561187 0)
(2.37791 0.77518 0)
(2.5147 0.683994 0)
(2.61543 0.507983 0)
(2.69379 0.368612 0)
(2.71657 0.251699 0)
(2.71942 0.173544 0)
(2.69658 0.12759 0)
(2.68139 0.113253 0)
(2.39465 -1.79597 0)
(2.44792 -1.28017 0)
(2.2897 -0.30832 0)
(2.22571 0.236327 0)
(2.21862 0.294449 0)
(2.30412 0.202932 0)
(2.40661 0.280657 0)
(2.46082 0.210072 0)
(2.48057 0.131986 0)
(2.5393 0.103972 0)
(2.67423 -2.12315 0)
(2.77891 -1.98473 0)
(2.81902 -1.77101 0)
(2.50213 -0.851426 0)
(2.38034 -0.460366 0)
(2.33332 -0.119251 0)
(2.36576 0.000355849 0)
(2.40743 0.107712 0)
(2.42533 0.0911869 0)
(2.52815 0.0699158 0)
(2.97171 -1.65627 0)
(2.98049 -1.71569 0)
(3.10924 -1.46854 0)
(3.11472 -1.73697 0)
(3.06899 -1.63342 0)
(2.82376 -1.1082 0)
(2.70697 -0.677348 0)
(2.63985 -0.293446 0)
(2.67105 -0.12429 0)
(2.60865 0.0477217 0)
(3.04459 -1.62026 0)
(3.07143 -1.54472 0)
(3.06935 -1.51102 0)
(3.09736 -1.39629 0)
(3.14342 -1.28851 0)
(3.21087 -1.32831 0)
(3.18087 -1.32713 0)
(3.09447 -1.17924 0)
(2.98397 -0.828219 0)
(2.87846 -0.385348 0)
(3.1725 -1.13831 0)
(3.16261 -1.15359 0)
(3.15669 -1.19118 0)
(3.14912 -1.10729 0)
(3.1538 -1.09518 0)
(3.16282 -1.04757 0)
(3.14354 -1.06223 0)
(3.15013 -1.01068 0)
(3.15502 -1.09726 0)
(3.11309 -0.963168 0)
(3.16728 -0.836035 0)
(3.16873 -0.839066 0)
(3.15682 -0.844134 0)
(3.14434 -0.856206 0)
(3.13568 -0.871066 0)
(3.132 -0.881622 0)
(3.13321 -0.877184 0)
(3.13214 -0.876487 0)
(3.13194 -0.8639 0)
(3.14265 -0.824702 0)
(3.11046 -0.464856 0)
(3.12111 -0.503751 0)
(3.12353 -0.551576 0)
(3.12232 -0.555279 0)
(3.12046 -0.583351 0)
(3.12036 -0.59747 0)
(3.12111 -0.595705 0)
(3.12623 -0.630302 0)
(3.11764 -0.636908 0)
(3.12419 -0.675252 0)
(3.03377 -0.141549 0)
(3.03801 -0.15565 0)
(3.05839 -0.221575 0)
(3.06609 -0.257821 0)
(3.07263 -0.289565 0)
(3.081 -0.338248 0)
(3.08756 -0.389751 0)
(3.09079 -0.398302 0)
(3.10086 -0.44831 0)
(3.10681 -0.492759 0)
(2.97518 0.058353 0)
(2.98305 0.0443114 0)
(2.9926 0.0240316 0)
(3.00345 -0.00826646 0)
(3.01308 -0.0401776 0)
(3.02284 -0.0737916 0)
(3.03497 -0.120854 0)
(3.04611 -0.165431 0)
(3.05707 -0.204287 0)
(3.07169 -0.266702 0)
(2.96682 0.0845641 0)
(2.96711 0.0861283 0)
(2.97037 0.0827296 0)
(2.97229 0.0783963 0)
(2.9748 0.0730384 0)
(2.97978 0.0632762 0)
(2.98697 0.0468979 0)
(2.99534 0.0247963 0)
(3.00544 -0.00338059 0)
(3.02361 -0.0615135 0)
(2.97642 0.0630683 0)
(2.97635 0.0641708 0)
(2.9766 0.0663065 0)
(2.97355 0.0718631 0)
(2.97377 0.0721129 0)
(2.97458 0.0716732 0)
(2.97524 0.070955 0)
(2.97646 0.0692743 0)
(2.97846 0.0664105 0)
(2.98568 0.0512023 0)
(2.99425 0.0136966 0)
(2.99248 0.0189475 0)
(2.99063 0.0237577 0)
(2.98743 0.0307861 0)
(2.98425 0.0384018 0)
(2.98171 0.0456645 0)
(2.97997 0.0517626 0)
(2.97858 0.0568061 0)
(2.9781 0.0605015 0)
(2.9786 0.0601628 0)
(2.99968 0.000671962 0)
(2.99946 0.00115351 0)
(2.99907 0.00195471 0)
(2.99836 0.00333145 0)
(2.99719 0.00571096 0)
(2.9956 0.00917671 0)
(2.99351 0.0140758 0)
(2.99102 0.0202386 0)
(2.98823 0.0273036 0)
(2.98475 0.0385471 0)
(2.99999 8.52112e-06 0)
(2.99999 1.60264e-05 0)
(2.99998 3.31039e-05 0)
(2.99995 6.86693e-05 0)
(2.99988 0.00015695 0)
(2.99975 0.000325859 0)
(2.99945 0.000716285 0)
(2.99888 0.00139356 0)
(2.99792 0.0026319 0)
(2.99467 0.00640107 0)
(2.07079 -1.48466 0)
(2.28834 -1.59708 0)
(2.54234 -1.93531 0)
(2.8826 -1.7087 0)
(3.02163 -1.56706 0)
(3.14803 -1.21371 0)
(3.14937 -0.868378 0)
(3.11159 -0.481794 0)
(3.02959 -0.110973 0)
(2.97124 0.0657914 0)
(2.9673 0.0817149 0)
(2.98012 0.0499952 0)
(2.99611 0.00938456 0)
(2.99981 0.000414339 0)
(3 5.24757e-06 0)
(2.0358 -1.52053 0)
(2.25725 -1.71325 0)
(2.63079 -1.94399 0)
(2.93618 -1.65671 0)
(3.06389 -1.40502 0)
(3.14371 -1.1588 0)
(3.14568 -0.75283 0)
(3.0909 -0.322403 0)
(3.00262 -0.0070259 0)
(2.96446 0.0877035 0)
(2.96764 0.0792447 0)
(2.98721 0.0355641 0)
(2.99825 0.00470221 0)
(2.99994 0.000140952 0)
(3 1.73887e-06 0)
(1.91287 -1.49995 0)
(2.21793 -1.67425 0)
(2.6222 -1.86342 0)
(2.8051 -1.8222 0)
(3.08089 -1.28681 0)
(3.14405 -1.11478 0)
(3.1458 -0.556238 0)
(3.05422 -0.158204 0)
(2.98151 0.0500984 0)
(2.96248 0.0960864 0)
(2.96987 0.0813904 0)
(2.98926 0.0323385 0)
(2.99898 0.00277975 0)
(2.99997 6.47649e-05 0)
(3 7.03867e-07 0)
(1.8063 -1.44816 0)
(2.22482 -1.69113 0)
(2.63523 -1.77745 0)
(2.82209 -1.72396 0)
(3.06785 -1.41038 0)
(3.17846 -0.755519 0)
(3.12548 -0.393178 0)
(3.03453 -0.110012 0)
(2.97066 0.0769439 0)
(2.96196 0.101353 0)
(2.97302 0.0828471 0)
(2.99282 0.0210594 0)
(2.9995 0.00129744 0)
(2.99999 2.62498e-05 0)
(3 2.6952e-07 0)
(1.67096 -1.40578 0)
(2.26122 -1.83462 0)
(2.65602 -1.78621 0)
(2.90661 -1.5839 0)
(3.11596 -1.21497 0)
(3.15796 -0.599018 0)
(3.10054 -0.347283 0)
(3.00936 -0.032157 0)
(2.96278 0.100019 0)
(2.96154 0.103177 0)
(2.97959 0.0565378 0)
(2.99624 0.0106945 0)
(2.9998 0.000517499 0)
(3 9.43578e-06 0)
(3 9.55104e-08 0)
(1.51891 -1.38754 0)
(2.16648 -1.85268 0)
(2.62043 -1.83989 0)
(2.96653 -1.25727 0)
(3.14122 -0.823876 0)
(3.14303 -0.662325 0)
(3.06972 -0.228598 0)
(2.98569 0.0458613 0)
(2.95889 0.109214 0)
(2.96227 0.100918 0)
(2.98509 0.0413501 0)
(2.99791 0.00595828 0)
(2.99992 0.000198065 0)
(3 3.28805e-06 0)
(3 3.20042e-08 0)
(1.42869 -1.46336 0)
(2.09459 -1.83083 0)
(2.57293 -1.75796 0)
(2.99874 -1.07344 0)
(3.15759 -0.795747 0)
(3.12988 -0.442901 0)
(3.0248 -0.0484773 0)
(2.96742 0.0935376 0)
(2.9569 0.11133 0)
(2.96859 0.0782875 0)
(2.98838 0.0327727 0)
(2.99902 0.00257427 0)
(2.99997 6.93136e-05 0)
(3 1.07987e-06 0)
(3 1.02266e-08 0)
(1.27018 -1.27436 0)
(1.98814 -1.69144 0)
(2.65066 -1.50958 0)
(2.99606 -1.15998 0)
(3.1405 -0.784066 0)
(3.07348 -0.182392 0)
(2.99914 0.0244759 0)
(2.95774 0.112562 0)
(2.95675 0.10952 0)
(2.97431 0.0673235 0)
(2.9953 0.0136301 0)
(2.9997 0.00083248 0)
(2.99999 1.9873e-05 0)
(3 3.0509e-07 0)
(3 2.93053e-09 0)
(1.02571 -1.11827 0)
(2.00455 -1.56138 0)
(2.76878 -1.13532 0)
(3.08806 -0.860711 0)
(3.13544 -0.382987 0)
(3.05316 -0.105036 0)
(2.97215 0.085194 0)
(2.95372 0.119562 0)
(2.96138 0.0977478 0)
(2.98035 0.0556412 0)
(2.99758 0.00693314 0)
(2.9999 0.000293027 0)
(3 5.66256e-06 0)
(3 8.2225e-08 0)
(3 7.68449e-10 0)
(1.05347 -0.680265 0)
(2.12833 -1.22221 0)
(2.85538 -1.12328 0)
(3.13057 -0.528278 0)
(3.1013 -0.187952 0)
(3.00702 0.0243955 0)
(2.95579 0.120125 0)
(2.95241 0.121335 0)
(2.96302 0.0989641 0)
(2.99133 0.0245078 0)
(2.99909 0.00269797 0)
(2.99997 8.09186e-05 0)
(3 1.47832e-06 0)
(3 2.07782e-08 0)
(3 1.8895e-10 0)
(0.923696 -0.367731 0)
(2.23013 -1.12029 0)
(2.97885 -0.821514 0)
(3.12589 -0.37755 0)
(3.06226 -0.104356 0)
(2.97076 0.102781 0)
(2.95017 0.131921 0)
(2.95054 0.123704 0)
(2.97339 0.0676105 0)
(2.99528 0.0131744 0)
(2.99977 0.00070773 0)
(2.99999 1.86058e-05 0)
(3 3.2086e-07 0)
(3 4.44548e-09 0)
(3 4.04382e-11 0)
(0.382094 0.554227 0)
(2.51304 -0.486699 0)
(3.10166 -0.357574 0)
(3.09518 -0.0984995 0)
(3.00033 0.0602836 0)
(2.95255 0.135498 0)
(2.94895 0.135665 0)
(2.95686 0.110234 0)
(2.98787 0.0324756 0)
(2.99847 0.00452456 0)
(2.99994 0.000190036 0)
(3 4.14127e-06 0)
(3 6.68143e-08 0)
(3 8.83989e-10 0)
(3 7.63058e-12 0)
(1.08921 0.426529 0)
(2.87657 -0.186689 0)
(3.14712 -0.229263 0)
(3.03839 0.0290973 0)
(2.96225 0.121249 0)
(2.94645 0.144545 0)
(2.94785 0.140899 0)
(2.97385 0.0668482 0)
(2.99319 0.0180115 0)
(2.99957 0.00114833 0)
(2.99999 3.70661e-05 0)
(3 7.4703e-07 0)
(3 1.17425e-08 0)
(3 1.51728e-10 0)
(3 1.25756e-12 0)
(2.05802 0.282264 0)
(3.14505 -0.14692 0)
(3.08998 -0.0075683 0)
(2.97948 0.127921 0)
(2.94664 0.141877 0)
(2.94608 0.144148 0)
(2.96314 0.0951873 0)
(2.98614 0.0350931 0)
(2.99845 0.00395469 0)
(2.99992 0.000209582 0)
(3 5.51351e-06 0)
(3 1.05804e-07 0)
(3 1.62344e-09 0)
(3 2.04778e-11 0)
(3 1.64204e-13 0)
(2.6779 0.163303 0)
(3.11652 0.0516532 0)
(2.99075 0.124976 0)
(2.94867 0.162544 0)
(2.9438 0.145715 0)
(2.95294 0.125482 0)
(2.97773 0.0569026 0)
(2.99565 0.0112133 0)
(2.9997 0.000761928 0)
(2.99999 2.48512e-05 0)
(3 5.66803e-07 0)
(3 9.99915e-09 0)
(3 1.56731e-10 0)
(3 1.92394e-12 0)
(3 1.22636e-14 0)
(2.92908 0.150651 0)
(2.93791 0.151958 0)
(2.94186 0.160753 0)
(2.94187 0.16519 0)
(2.96395 0.131877 0)
(2.96676 0.0910263 0)
(2.98991 0.0235737 0)
(2.99946 0.000950722 0)
(2.99999 1.54731e-05 0)
(3 7.76993e-07 0)
(3 -3.69375e-09 0)
(3 4.43633e-11 0)
(3 6.81422e-12 0)
(3 2.29372e-14 0)
(3 -1.85196e-15 0)
(2.92555 0.151191 0)
(2.9334 0.150342 0)
(2.94197 0.155861 0)
(2.94223 0.168808 0)
(2.95168 0.135287 0)
(2.96447 0.08964 0)
(2.9913 0.020217 0)
(2.99912 0.00190172 0)
(2.99997 6.86838e-05 0)
(3 1.41265e-06 0)
(3 2.1593e-08 0)
(3 2.73244e-10 0)
(3 1.94425e-12 0)
(3 2.31643e-14 0)
(3 7.45682e-16 0)
(2.92445 0.152929 0)
(2.93416 0.153397 0)
(2.9446 0.155805 0)
(2.94355 0.16619 0)
(2.96097 0.110698 0)
(2.9812 0.0452308 0)
(2.99695 0.00612596 0)
(2.99987 0.00024081 0)
(3 4.06907e-06 0)
(3 4.77566e-08 0)
(3 4.5664e-10 0)
(3 3.74786e-12 0)
(3 2.8247e-14 0)
(3 2.64242e-16 0)
(3 -8.79769e-16 0)
(2.92357 0.154148 0)
(2.93325 0.157113 0)
(2.94517 0.153702 0)
(2.95298 0.151388 0)
(2.96251 0.105772 0)
(2.98761 0.0280538 0)
(2.99866 0.0027709 0)
(2.99996 7.38925e-05 0)
(3 1.20446e-06 0)
(3 1.34376e-08 0)
(3 1.26824e-10 0)
(3 1.0132e-12 0)
(3 8.34495e-15 0)
(3 4.80999e-16 0)
(3 3.26166e-17 0)
(2.9235 0.155263 0)
(2.92962 0.163248 0)
(2.94535 0.152262 0)
(2.95233 0.146634 0)
(2.97554 0.0668556 0)
(2.99309 0.0154861 0)
(2.9996 0.000749771 0)
(2.99999 1.9736e-05 0)
(3 2.50306e-07 0)
(3 2.7172e-09 0)
(3 2.42847e-11 0)
(3 1.83712e-13 0)
(3 1.98011e-16 0)
(3 1.06004e-15 0)
(3 9.7929e-16 0)
(2.92479 0.160102 0)
(2.92531 0.169007 0)
(2.9482 0.149085 0)
(2.9585 0.136241 0)
(2.98229 0.0449492 0)
(2.99733 0.00534682 0)
(2.99987 0.000257032 0)
(3 4.26264e-06 0)
(3 5.76643e-08 0)
(3 5.88192e-10 0)
(3 5.14292e-12 0)
(3 3.45303e-14 0)
(3 -2.36864e-15 0)
(3 1.14232e-15 0)
(3 1.29157e-15 0)
(2.92412 0.157896 0)
(2.9229 0.174127 0)
(2.96109 0.135353 0)
(2.97774 0.0874724 0)
(2.99091 0.0227283 0)
(2.999 0.00202982 0)
(2.99997 5.42055e-05 0)
(3 9.7587e-07 0)
(3 1.14765e-08 0)
(3 1.14195e-10 0)
(3 9.63476e-13 0)
(3 2.28919e-15 0)
(3 -3.26098e-15 0)
(3 5.51196e-16 0)
(3 1.0842e-15 0)
(2.92146 0.153843 0)
(2.92392 0.191881 0)
(2.97081 0.111774 0)
(2.97898 0.0681744 0)
(2.99536 0.0106213 0)
(2.99971 0.00053798 0)
(2.99999 1.43665e-05 0)
(3 1.98653e-07 0)
(3 2.30151e-09 0)
(3 2.17541e-11 0)
(3 1.77268e-13 0)
(3 -2.57604e-15 0)
(3 -3.6303e-15 0)
(3 8.50424e-16 0)
(3 1.36619e-15 0)
(2.9267 0.13565 0)
(2.93209 0.196308 0)
(2.97229 0.0957066 0)
(2.98717 0.0332686 0)
(2.99832 0.00343864 0)
(2.99992 0.000157006 0)
(3 2.71832e-06 0)
(3 3.91349e-08 0)
(3 4.08879e-10 0)
(3 3.76955e-12 0)
(3 2.99555e-14 0)
(3 -2.7427e-15 0)
(3 -2.95952e-15 0)
(3 1.21469e-15 0)
(3 1.54053e-15 0)
(2.93374 0.118073 0)
(2.94216 0.16677 0)
(2.98156 0.0586116 0)
(2.99407 0.0152025 0)
(2.99944 0.00115971 0)
(2.99998 3.01335e-05 0)
(3 5.72737e-07 0)
(3 6.55689e-09 0)
(3 7.0888e-11 0)
(3 5.78697e-13 0)
(3 5.64078e-15 0)
(3 -2.72365e-15 0)
(3 -2.23215e-15 0)
(3 1.30871e-15 0)
(3 1.25664e-15 0)
(2.93066 0.0882584 0)
(2.94824 0.141446 0)
(2.9873 0.0380373 0)
(2.99759 0.00587985 0)
(2.99987 0.000266074 0)
(3 6.4713e-06 0)
(3 8.50855e-08 0)
(3 1.07455e-09 0)
(3 9.2466e-12 0)
(3 8.07568e-14 0)
(3 1.45926e-15 0)
(3 -2.48621e-15 0)
(3 -1.45756e-15 0)
(3 6.5407e-16 0)
(3 5.17928e-16 0)
(2.9445 0.0678887 0)
(2.96377 0.0972086 0)
(2.99284 0.018828 0)
(2.9992 0.00176631 0)
(2.99997 5.87749e-05 0)
(3 1.00347e-06 0)
(3 1.37939e-08 0)
(3 1.27489e-10 0)
(3 1.265e-12 0)
(3 7.78833e-15 0)
(3 -4.55794e-16 0)
(3 -2.12089e-15 0)
(3 -1.57481e-15 0)
(3 -4.47179e-16 0)
(3 2.10523e-16 0)
(2.95395 0.0421975 0)
(2.97627 0.0579458 0)
(2.99714 0.00679274 0)
(2.99982 0.000376464 0)
(3 8.76219e-06 0)
(3 1.30832e-07 0)
(3 1.42938e-09 0)
(3 1.54805e-11 0)
(3 1.09328e-13 0)
(3 8.98565e-18 0)
(3 -1.01142e-15 0)
(3 -2.30014e-15 0)
(3 -1.42457e-15 0)
(3 -7.80221e-16 0)
(3 -1.476e-16 0)
(2.96883 0.0157188 0)
(2.98869 0.0254362 0)
(2.9992 0.00178132 0)
(2.99997 5.61387e-05 0)
(3 9.37375e-07 0)
(3 1.20689e-08 0)
(3 1.3191e-10 0)
(3 1.01e-12 0)
(3 9.95315e-15 0)
(3 4.73176e-16 0)
(3 -8.03407e-16 0)
(3 -2.95206e-15 0)
(3 -1.33068e-15 0)
(3 -5.95737e-16 0)
(3 -1.82601e-16 0)
(2.98449 0.00626071 0)
(2.99659 0.00660153 0)
(2.99988 0.000239303 0)
(3 4.67064e-06 0)
(3 6.09512e-08 0)
(3 6.38278e-10 0)
(3 5.49128e-12 0)
(3 4.97376e-14 0)
(3 9.68705e-16 0)
(3 1.3164e-15 0)
(3 1.029e-16 0)
(3 -3.12063e-15 0)
(3 -1.27469e-15 0)
(3 -7.03223e-17 0)
(3 -4.69677e-16 0)
(3 2.25437e-15 0)
(3 1.64831e-15 0)
(3 2.5307e-15 0)
(3 3.7423e-15 0)
(3 1.60183e-15 0)
(3 9.66084e-16 0)
(3 3.45598e-17 0)
(3 -1.24397e-15 0)
(3 5.54486e-16 0)
(3 1.48727e-15 0)
(3 5.05019e-16 0)
(3 -2.86138e-15 0)
(3 -1.13251e-15 0)
(3 -9.33848e-17 0)
(3 -7.33058e-16 0)
(3 1.2878e-15 0)
(3 1.92379e-15 0)
(3 3.35265e-15 0)
(3 3.16801e-15 0)
(3 2.28062e-15 0)
(3 8.20117e-16 0)
(3 -4.3733e-16 0)
(3 -1.18596e-15 0)
(3 5.38708e-16 0)
(3 1.55331e-15 0)
(3 1.12517e-17 0)
(3 -2.57771e-15 0)
(3 -4.82344e-16 0)
(3 -1.51801e-16 0)
(3 -8.46106e-16 0)
(3 1.84208e-15 0)
(3 2.06912e-15 0)
(3 2.75234e-15 0)
(3 1.41989e-15 0)
(3 1.43596e-16 0)
(3 1.44546e-16 0)
(3 -1.49833e-16 0)
(3 -1.03013e-15 0)
(3 2.50931e-16 0)
(3 2.27878e-15 0)
(3 -6.12511e-16 0)
(3 -2.73728e-15 0)
(3 7.78344e-17 0)
(3 4.99451e-16 0)
(3 -4.63143e-16 0)
(3 1.46994e-15 0)
(3 2.07405e-15 0)
(3 2.24366e-15 0)
(3 5.05461e-16 0)
(3 -9.25389e-16 0)
(3 -7.47874e-16 0)
(3 -3.27484e-16 0)
(3 -5.65635e-16 0)
(3 2.73948e-16 0)
(3 2.43909e-15 0)
(3 -1.06328e-15 0)
(3 -3.05383e-15 0)
(3 2.67553e-16 0)
(3 1.41324e-15 0)
(3 -1.06601e-17 0)
(3 8.52598e-16 0)
(3 1.75781e-15 0)
(3 2.14026e-15 0)
(3 -9.95838e-17 0)
(3 -6.88916e-16 0)
(3 6.60472e-16 0)
(3 2.07442e-16 0)
(3 -7.22063e-16 0)
(3 -3.89786e-17 0)
(3 1.84825e-15 0)
(3 -1.51394e-15 0)
(3 -2.96499e-15 0)
(3 6.8137e-16 0)
(3 1.66493e-15 0)
(3 3.93774e-16 0)
(3 -2.36291e-16 0)
(3 1.34789e-15 0)
(3 2.09436e-15 0)
(3 -1.23352e-15 0)
(3 -1.295e-15 0)
(3 1.32114e-15 0)
(3 1.47086e-15 0)
(3 2.14428e-16 0)
(3 -5.88052e-16 0)
(3 4.01975e-16 0)
(3 -1.46943e-15 0)
(3 -2.56067e-15 0)
(3 1.02958e-15 0)
(3 1.81064e-15 0)
(3 1.64024e-16 0)
(3 1.45059e-16 0)
(3 1.19229e-15 0)
(3 8.38703e-16 0)
(3 -1.60866e-15 0)
(3 -1.82394e-15 0)
(3 2.12751e-15 0)
(3 2.43652e-15 0)
(3 5.11521e-17 0)
(3 -1.33236e-15 0)
(3 -3.32305e-16 0)
(3 -1.76987e-15 0)
(3 -2.29239e-15 0)
(3 1.22507e-15 0)
(3 1.25049e-15 0)
(3 -1.71627e-16 0)
(3 3.9175e-16 0)
(3 1.90743e-16 0)
(3 4.96844e-16 0)
(3 -2.67071e-16 0)
(3 -5.52164e-16 0)
(3 1.93879e-15 0)
(3 2.17175e-15 0)
(3 -3.25316e-16 0)
(3 -1.13733e-15 0)
(3 -1.87411e-16 0)
(3 -2.03331e-15 0)
(3 -1.54334e-15 0)
(3 1.5162e-15 0)
(3 -1.3146e-16 0)
(3 -6.53405e-16 0)
(3 -4.40216e-16 0)
(3 -7.41094e-16 0)
(3 3.58278e-16 0)
(3 -3.8742e-18 0)
(3 -8.72694e-17 0)
(3 2.38201e-15 0)
(3 9.94893e-16 0)
(3 -6.8315e-16 0)
(3 -8.03603e-16 0)
(3 4.79282e-17 0)
(3 -1.48296e-15 0)
(3 -1.1706e-15 0)
(3 1.33064e-15 0)
(3 -8.2423e-16 0)
(3 -7.95081e-16 0)
(3 -1.12493e-15 0)
(3 4.35656e-16 0)
(3 9.65959e-16 0)
(3 -1.08124e-15 0)
(3 -5.07338e-16 0)
(3 1.53166e-15 0)
(3 6.2442e-17 0)
(3 -6.87674e-16 0)
(3 -5.26254e-17 0)
(3 -2.09592e-16 0)
(3 -3.7611e-16 0)
(3 7.97613e-17 0)
(3 6.18714e-17 0)
(3 -8.34567e-16 0)
(3 -2.01355e-16 0)
(3 2.83285e-15 0)
(3 1.49141e-15 0)
(3 1.57562e-15 0)
(3 1.04399e-15 0)
(3 5.87304e-16 0)
(3 8.75425e-16 0)
(3 -1.13245e-15 0)
(3 -2.49541e-15 0)
(3 -1.69956e-15 0)
(3 -7.31123e-16 0)
(3 3.10257e-15 0)
(3 2.92789e-15 0)
(3 2.13415e-15 0)
(3 2.24697e-15 0)
(3 2.1078e-15 0)
(3 1.42798e-15 0)
(3 6.08927e-16 0)
(3 3.33943e-17 0)
(3 -1.05877e-15 0)
(3 5.06613e-17 0)
(3 6.0598e-16 0)
(3 7.89058e-16 0)
(3 7.38038e-16 0)
(3 1.28282e-15 0)
(3 1.08413e-15 0)
(3 1.60653e-15 0)
(3 4.44109e-15 0)
(3 4.86111e-15 0)
(3 1.80367e-15 0)
(3 9.42472e-16 0)
(3 -1.17505e-15 0)
(3 -7.39255e-16 0)
(3 1.4551e-16 0)
(3 -2.86565e-16 0)
(3 8.31572e-16 0)
(3 3.52526e-15 0)
(3 4.5089e-15 0)
(3 5.15664e-15 0)
(3 4.81252e-15 0)
(3 2.38646e-15 0)
(3 3.99101e-16 0)
(3 9.5975e-16 0)
(3 1.08271e-15 0)
(3 1.22749e-15 0)
(3 3.08035e-15 0)
(3 3.85532e-15 0)
(3 1.84782e-15 0)
(3 1.71103e-15 0)
(3 1.9294e-15 0)
(3 -7.95559e-17 0)
(3 -3.09475e-16 0)
(3 1.33153e-16 0)
(3 1.31871e-15 0)
(3 2.05167e-15 0)
(3 1.54535e-15 0)
(3 1.04758e-15 0)
(3 -2.96662e-16 0)
(3 -1.46269e-15 0)
(3 -6.08197e-16 0)
(3 -1.06404e-15 0)
(3 -3.03727e-16 0)
(3 2.47084e-16 0)
(3 1.17706e-15 0)
(3 9.07426e-16 0)
(3 4.93596e-16 0)
(3 -6.58396e-16 0)
(3 -1.11629e-15 0)
(3 -1.85347e-15 0)
(3 -4.36349e-16 0)
(3 4.1321e-16 0)
(3 2.46847e-15 0)
(3 3.35205e-15 0)
(3 3.6526e-15 0)
(3 2.95732e-15 0)
(3 1.8942e-15 0)
(3 5.43541e-16 0)
(3 -3.40946e-16 0)
(3 -1.30285e-15 0)
(3 -2.09902e-15 0)
(3 -8.73332e-16 0)
(3 3.01514e-15 0)
(3 3.76804e-15 0)
(3 4.4264e-15 0)
(3 4.21651e-15 0)
(3 3.50428e-15 0)
(3 2.8067e-15 0)
(3 1.6785e-16 0)
(3 -2.93324e-16 0)
(3 -1.24731e-15 0)
(3 -4.80629e-16 0)
(3 8.70426e-17 0)
(3 -2.08151e-16 0)
(3 -4.17681e-16 0)
(3 -1.19573e-15 0)
(3 -2.40754e-15 0)
(3 -1.88869e-15 0)
(3 -1.95345e-15 0)
(3 -7.52579e-16 0)
(3 2.68348e-16 0)
(3 5.24683e-16 0)
(3 -2.58172e-15 0)
(3 -3.3003e-15 0)
(3 -4.37081e-15 0)
(3 -4.50014e-15 0)
(3 -6.28703e-15 0)
(3 -6.58559e-15 0)
(3 -4.32649e-15 0)
(3 -1.04783e-15 0)
(3 5.68935e-17 0)
(3 -1.84162e-16 0)
(3 -5.42231e-15 0)
(3 -6.82892e-15 0)
(3 -7.28001e-15 0)
(3 -6.69735e-15 0)
(3 -5.79451e-15 0)
(3 -3.92573e-15 0)
(3 -1.99808e-15 0)
(3 -1.1195e-15 0)
(3 2.23256e-16 0)
(3 -1.10044e-16 0)
(3 -3.84231e-15 0)
(3 -3.86219e-15 0)
(3 -3.47835e-15 0)
(3 -3.12301e-15 0)
(3 -1.14889e-15 0)
(3 9.18358e-16 0)
(3 1.39268e-15 0)
(3 -4.33381e-16 0)
(3 -7.39389e-16 0)
(3 -8.78219e-17 0)
(3 -2.40679e-17 0)
(3 1.5668e-17 0)
(3 -1.94159e-16 0)
(3 -2.34818e-16 0)
(3 5.1142e-16 0)
(3 1.22235e-15 0)
(3 1.43467e-15 0)
(3 8.14711e-16 0)
(3 -6.40731e-16 0)
(3 -2.18848e-16 0)
(3 2.09197e-15 0)
(3 1.88365e-15 0)
(3 1.16167e-15 0)
(3 9.28778e-16 0)
(3 1.61764e-15 0)
(3 2.19841e-15 0)
(3 7.14662e-16 0)
(3 7.54887e-16 0)
(3 2.11093e-16 0)
(3 2.1653e-17 0)
(3 4.60766e-15 0)
(3 4.46998e-15 0)
(3 4.26331e-15 0)
(3 4.27315e-15 0)
(3 4.50494e-15 0)
(3 3.71785e-15 0)
(3 3.06522e-15 0)
(3 2.1811e-15 0)
(3 1.7336e-15 0)
(3 5.94435e-16 0)
(3 2.35058e-15 0)
(3 2.4402e-15 0)
(3 2.99032e-15 0)
(3 2.75207e-15 0)
(3 1.02942e-15 0)
(3 1.04135e-15 0)
(3 1.71998e-15 0)
(3 1.9377e-15 0)
(3 6.19414e-16 0)
(3 4.16843e-17 0)
(3 -6.29934e-16 0)
(3 -6.6993e-16 0)
(3 -1.16618e-15 0)
(3 -1.94718e-15 0)
(3 -2.56558e-15 0)
(3 -2.37725e-15 0)
(3 -1.4339e-15 0)
(3 -8.62844e-16 0)
(3 -8.21918e-16 0)
(3 -5.12232e-16 0)
(3 1.81682e-16 0)
(3 -3.70672e-16 0)
(3 -5.91896e-16 0)
(3 -1.28773e-15 0)
(3 -1.09697e-15 0)
(3 -1.28928e-15 0)
(3 -1.36434e-15 0)
(3 -8.4554e-16 0)
(3 -1.01175e-16 0)
(3 1.04428e-16 0)
(3 9.68412e-17 0)
(3 6.79574e-17 0)
(3 6.32202e-16 0)
(3 6.55712e-16 0)
(3 6.78041e-16 0)
(3 6.06659e-16 0)
(3 1.48855e-16 0)
(3 1.78396e-16 0)
(3 3.62852e-16 0)
(3 3.45928e-16 0)
(2.35937 -0.523822 0)
(2.80977 -0.178929 0)
(3 9.71663e-07 0)
(3 -1.81176e-12 0)
(3 -2.02371e-16 0)
(3 -3.8081e-16 0)
(3 -4.20184e-17 0)
(3 3.04016e-15 0)
(3 2.58572e-15 0)
(3 -9.01523e-16 0)
(3 -3.09795e-15 0)
(3 -5.37752e-15 0)
(3 -3.02373e-15 0)
(3 4.56323e-16 0)
(3 2.58425e-15 0)
(3 4.7949e-15 0)
(3 1.21789e-15 0)
(3 -2.72308e-16 0)
(3 3.12786e-16 0)
(3 6.25594e-18 0)
(1.22436 -0.632442 0)
(1.19904 -0.864665 0)
(2.27939 -0.736593 0)
(3.00272 -0.0300111 0)
(3 6.80835e-08 0)
(3 -7.68881e-13 0)
(3 -2.61761e-16 0)
(3 9.28839e-16 0)
(3 1.80725e-15 0)
(3 -1.51956e-15 0)
(3 -2.53385e-15 0)
(3 -5.2065e-15 0)
(3 -1.66747e-15 0)
(3 1.12739e-15 0)
(3 2.59602e-15 0)
(3 3.45752e-15 0)
(3 8.19045e-16 0)
(3 1.73681e-16 0)
(3 2.6253e-16 0)
(3 -2.54722e-16 0)
(1.32134 -0.803757 0)
(1.25227 -0.928035 0)
(1.33 -0.919496 0)
(1.69371 -0.779387 0)
(2.8343 -0.149025 0)
(2.99992 4.2865e-05 0)
(3 -1.11086e-10 0)
(3 -1.45779e-15 0)
(3 8.91937e-16 0)
(3 -1.11763e-15 0)
(3 -2.53633e-15 0)
(3 -5.00528e-15 0)
(3 -2.00931e-16 0)
(3 1.59415e-15 0)
(3 3.57576e-15 0)
(3 2.04823e-15 0)
(3 6.30514e-16 0)
(3 5.24288e-16 0)
(3 1.04847e-16 0)
(3 -3.81406e-16 0)
(1.35234 -0.899064 0)
(1.30422 -0.909866 0)
(1.32821 -0.907172 0)
(1.37084 -0.89765 0)
(1.61585 -0.828121 0)
(2.70569 -0.252358 0)
(3.00038 0.000521752 0)
(3 -8.95415e-08 0)
(3 1.57319e-10 0)
(3 -7.44878e-13 0)
(3 9.40275e-17 0)
(3 -3.21286e-15 0)
(3 -2.08812e-16 0)
(3 1.95405e-15 0)
(3 3.63467e-15 0)
(3 7.82175e-16 0)
(3 -1.83797e-17 0)
(3 3.33188e-16 0)
(3 -1.01331e-16 0)
(3 -4.54568e-16 0)
(1.3475 -0.91078 0)
(1.33218 -0.903805 0)
(1.35193 -0.891329 0)
(1.36593 -0.901304 0)
(1.36281 -0.918511 0)
(1.60515 -0.852084 0)
(2.64062 -0.293785 0)
(3.00093 0.000873198 0)
(3 -1.81191e-06 0)
(3 9.30183e-09 0)
(3 -2.45157e-11 0)
(3 3.0433e-14 0)
(3 -8.54072e-16 0)
(3 2.16975e-15 0)
(3 3.37088e-15 0)
(3 1.70703e-15 0)
(3 -2.79204e-16 0)
(3 -1.22227e-16 0)
(3 -2.42171e-16 0)
(3 -4.3463e-16 0)
(1.34539 -0.906762 0)
(1.3424 -0.898716 0)
(1.35459 -0.894478 0)
(1.36787 -0.907172 0)
(1.36771 -0.920603 0)
(1.38493 -0.922047 0)
(1.61589 -0.854341 0)
(2.65848 -0.26487 0)
(3.00092 0.000681643 0)
(3 -1.57388e-07 0)
(3 3.25893e-11 0)
(3 -3.45974e-13 0)
(3 1.47231e-15 0)
(3 2.71686e-15 0)
(3 2.58418e-15 0)
(3 2.98488e-15 0)
(3 -4.27818e-16 0)
(3 -3.1948e-16 0)
(3 -5.39434e-16 0)
(3 -5.46547e-16 0)
(1.34479 -0.903539 0)
(1.34868 -0.900683 0)
(1.35712 -0.901387 0)
(1.36247 -0.912879 0)
(1.37029 -0.920658 0)
(1.3908 -0.918021 0)
(1.40866 -0.926384 0)
(1.67411 -0.832502 0)
(2.7156 -0.238533 0)
(3.00096 0.000958899 0)
(3 -2.65736e-06 0)
(3 7.51104e-09 0)
(3 -2.55799e-11 0)
(3 1.02139e-13 0)
(3 3.65095e-15 0)
(3 4.19376e-15 0)
(3 2.09371e-17 0)
(3 -8.79413e-17 0)
(3 -8.23125e-16 0)
(3 -8.41597e-16 0)
(1.34734 -0.904639 0)
(1.35168 -0.903594 0)
(1.35689 -0.908057 0)
(1.36284 -0.915764 0)
(1.37574 -0.918898 0)
(1.39305 -0.919763 0)
(1.39602 -0.93362 0)
(1.39428 -0.940043 0)
(1.66864 -0.809749 0)
(2.77006 -0.156543 0)
(3.00093 0.000677306 0)
(3 -2.06799e-06 0)
(3 3.42054e-09 0)
(3 -3.87099e-12 0)
(3 -1.24593e-13 0)
(3 3.39384e-15 0)
(3 1.75081e-15 0)
(3 -3.40807e-16 0)
(3 -1.33454e-15 0)
(3 -7.70304e-16 0)
(1.35262 -0.907119 0)
(1.35514 -0.909521 0)
(1.36075 -0.912674 0)
(1.36819 -0.917052 0)
(1.3806 -0.917824 0)
(1.39137 -0.926955 0)
(1.39503 -0.936539 0)
(1.40111 -0.943447 0)
(1.45519 -0.919804 0)
(1.92006 -0.718311 0)
(2.88824 -0.0826989 0)
(3.00053 0.000462958 0)
(3 -1.91411e-06 0)
(3 -6.4104e-10 0)
(3 3.95505e-11 0)
(3 3.04447e-14 0)
(3 2.61767e-15 0)
(3 -5.57435e-16 0)
(3 -1.87567e-15 0)
(3 -7.55151e-16 0)
(1.36077 -0.912422 0)
(1.36232 -0.915166 0)
(1.36744 -0.916684 0)
(1.37512 -0.919832 0)
(1.38648 -0.923139 0)
(1.39554 -0.933553 0)
(1.4046 -0.944476 0)
(1.42446 -0.942946 0)
(1.45084 -0.952656 0)
(1.49166 -0.950357 0)
(2.22428 -0.586312 0)
(2.97275 -0.0271523 0)
(3.00011 0.000128936 0)
(3 4.7029e-09 0)
(3 -3.60795e-11 0)
(3 -1.55203e-13 0)
(3 -2.93276e-16 0)
(3 -4.37179e-16 0)
(3 -2.13e-15 0)
(3 -7.78547e-16 0)
(1.3704 -0.919175 0)
(1.3712 -0.922369 0)
(1.37643 -0.92391 0)
(1.38394 -0.926082 0)
(1.39326 -0.931722 0)
(1.40451 -0.940591 0)
(1.41949 -0.950455 0)
(1.44093 -0.949622 0)
(1.45046 -0.960409 0)
(1.43768 -0.98047 0)
(1.58729 -0.918144 0)
(2.54172 -0.349982 0)
(2.99948 -0.00140883 0)
(3 -4.17657e-09 0)
(3 -1.63453e-11 0)
(3 -6.08434e-13 0)
(3 2.63948e-15 0)
(3 1.94933e-15 0)
(3 -1.02102e-15 0)
(3 -8.9183e-16 0)
(1.38057 -0.925857 0)
(1.38131 -0.929485 0)
(1.38677 -0.932485 0)
(1.3943 -0.934703 0)
(1.40349 -0.939516 0)
(1.41543 -0.947476 0)
(1.4322 -0.953918 0)
(1.44533 -0.956054 0)
(1.44656 -0.965841 0)
(1.44951 -0.971028 0)
(1.4989 -0.951832 0)
(1.7697 -0.813011 0)
(2.72923 -0.19243 0)
(3.00107 0.000452049 0)
(3 -1.11416e-06 0)
(3 4.84102e-10 0)
(3 -1.59888e-11 0)
(3 -8.59253e-13 0)
(3 -5.41047e-15 0)
(3 -8.13149e-16 0)
(1.38967 -0.932045 0)
(1.39057 -0.935688 0)
(1.39645 -0.938718 0)
(1.40424 -0.942476 0)
(1.41331 -0.945177 0)
(1.42354 -0.952932 0)
(1.43823 -0.956624 0)
(1.44624 -0.960266 0)
(1.44962 -0.967271 0)
(1.46643 -0.960155 0)
(1.49316 -0.964424 0)
(1.48687 -0.989204 0)
(2.07537 -0.67239 0)
(2.93898 -0.0515752 0)
(3.00038 0.000403694 0)
(3.00001 1.15272e-05 0)
(3 5.23202e-08 0)
(3 -1.65421e-10 0)
(3 -1.28271e-11 0)
(3 -7.0253e-14 0)
(1.39806 -0.936937 0)
(1.39932 -0.9405 0)
(1.40593 -0.942984 0)
(1.41423 -0.947097 0)
(1.42298 -0.948446 0)
(1.43086 -0.95604 0)
(1.44409 -0.957018 0)
(1.4513 -0.961903 0)
(1.46094 -0.966945 0)
(1.48408 -0.963974 0)
(1.49696 -0.971897 0)
(1.48287 -0.992704 0)
(1.64543 -0.908246 0)
(2.42817 -0.425629 0)
(2.99123 -0.014261 0)
(2.99999 -9.94031e-06 0)
(3 2.91246e-08 0)
(3 2.01392e-09 0)
(3 3.12554e-12 0)
(3 -3.53962e-13 0)
(1.43132 -0.943731 0)
(1.43596 -0.948861 0)
(1.44655 -0.949411 0)
(1.45544 -0.951894 0)
(1.46275 -0.953038 0)
(1.46848 -0.959399 0)
(1.48026 -0.957909 0)
(1.48574 -0.964471 0)
(1.49793 -0.963336 0)
(1.51294 -0.96589 0)
(1.5183 -0.978313 0)
(1.51268 -0.990177 0)
(1.54738 -0.992167 0)
(1.88011 -0.82667 0)
(2.90525 -0.0816281 0)
(3.00432 0.00554784 0)
(3.00021 0.00030738 0)
(3 1.96408e-06 0)
(3 8.44425e-09 0)
(3 3.40865e-11 0)
(2.03873 -0.808896 0)
(2.08101 -0.649334 0)
(1.90448 -0.78105 0)
(1.82661 -0.850172 0)
(1.75138 -0.899613 0)
(1.71108 -0.916634 0)
(1.67036 -0.933651 0)
(1.65084 -0.941834 0)
(1.63434 -0.947486 0)
(1.62469 -0.955145 0)
(1.61419 -0.967205 0)
(1.59284 -0.977513 0)
(1.58883 -0.993714 0)
(1.6346 -0.954173 0)
(2.05352 -0.715366 0)
(2.86928 -0.139216 0)
(2.99853 -0.00369764 0)
(2.99999 -1.84108e-05 0)
(3 -6.99273e-08 0)
(3 -2.00644e-10 0)
(2.66294 -0.916445 0)
(2.55044 -0.307771 0)
(2.27762 -0.542388 0)
(2.13497 -0.672544 0)
(2.06693 -0.735855 0)
(1.94143 -0.826905 0)
(1.89246 -0.857327 0)
(1.82604 -0.894539 0)
(1.78623 -0.914645 0)
(1.75951 -0.92811 0)
(1.72692 -0.946867 0)
(1.70208 -0.956466 0)
(1.66346 -0.973366 0)
(1.65455 -0.949453 0)
(1.6611 -0.961197 0)
(2.25126 -0.641633 0)
(2.92752 -0.090626 0)
(2.99926 -0.00164849 0)
(3 -9.21196e-06 0)
(3 -3.5761e-08 0)
(2.64521 -0.197233 0)
(2.71276 0.145123 0)
(2.51172 -0.269886 0)
(2.39049 -0.479329 0)
(2.27822 -0.597635 0)
(2.17515 -0.676087 0)
(2.10449 -0.729503 0)
(1.99558 -0.812131 0)
(1.95728 -0.835372 0)
(1.88749 -0.885386 0)
(1.85269 -0.900015 0)
(1.8125 -0.917725 0)
(1.75902 -0.933911 0)
(1.71816 -0.938706 0)
(1.69412 -0.964948 0)
(1.86797 -0.895756 0)
(2.55504 -0.449118 0)
(2.97749 -0.0366229 0)
(2.99983 -0.00035748 0)
(3 -1.52018e-06 0)
(2.78977 0.141693 0)
(2.7256 0.359529 0)
(2.60696 -0.0226695 0)
(2.59223 -0.118082 0)
(2.45838 -0.384179 0)
(2.38559 -0.482025 0)
(2.24966 -0.623527 0)
(2.17894 -0.682359 0)
(2.09219 -0.757397 0)
(2.02398 -0.819335 0)
(1.96405 -0.856111 0)
(1.91474 -0.876583 0)
(1.85543 -0.895617 0)
(1.82069 -0.91159 0)
(1.75526 -0.951398 0)
(1.78403 -0.958957 0)
(2.12355 -0.790766 0)
(2.83085 -0.210361 0)
(2.99659 -0.00743732 0)
(2.99998 -4.09051e-05 0)
(2.84843 0.215278 0)
(2.827 0.300078 0)
(2.65907 0.0942822 0)
(2.63821 0.00614853 0)
(2.59263 -0.158853 0)
(2.50147 -0.339751 0)
(2.38014 -0.505367 0)
(2.31666 -0.577977 0)
(2.19321 -0.701427 0)
(2.14829 -0.74306 0)
(2.05791 -0.817632 0)
(2.01055 -0.831065 0)
(1.94489 -0.858177 0)
(1.91179 -0.880621 0)
(1.84092 -0.925283 0)
(1.81371 -0.952515 0)
(1.89856 -0.939151 0)
(2.40119 -0.602741 0)
(2.95215 -0.0652781 0)
(2.99951 -0.000816713 0)
(2.84747 0.199051 0)
(2.82018 0.18691 0)
(2.71804 0.146938 0)
(2.68151 0.119046 0)
(2.65516 -0.0796232 0)
(2.56494 -0.261508 0)
(2.51233 -0.349982 0)
(2.40123 -0.494992 0)
(2.33043 -0.580297 0)
(2.24121 -0.669288 0)
(2.18124 -0.721748 0)
(2.10381 -0.76685 0)
(2.04565 -0.795729 0)
(1.99384 -0.839944 0)
(1.93733 -0.874526 0)
(1.86889 -0.930253 0)
(1.90249 -0.939075 0)
(2.15412 -0.810567 0)
(2.75168 -0.294463 0)
(2.99249 -0.0100521 0)
(2.81172 0.155981 0)
(2.80583 0.148018 0)
(2.7331 0.191842 0)
(2.71091 0.247205 0)
(2.70287 0.0902483 0)
(2.6797 -0.0465664 0)
(2.61883 -0.176809 0)
(2.50616 -0.352538 0)
(2.45114 -0.417973 0)
(2.34311 -0.557512 0)
(2.28036 -0.613201 0)
(2.19818 -0.686428 0)
(2.12704 -0.742735 0)
(2.08517 -0.790387 0)
(2.00351 -0.847067 0)
(1.93621 -0.900672 0)
(1.92239 -0.932153 0)
(2.02054 -0.907424 0)
(2.51749 -0.54853 0)
(2.94781 -0.0608789 0)
(2.79189 0.154723 0)
(2.77715 0.154212 0)
(2.76786 0.193216 0)
(2.77434 0.244378 0)
(2.74684 0.120116 0)
(2.73508 0.0972371 0)
(2.67786 -0.0671299 0)
(2.60692 -0.204494 0)
(2.51572 -0.351438 0)
(2.43083 -0.469018 0)
(2.33799 -0.582202 0)
(2.2701 -0.639695 0)
(2.19297 -0.712762 0)
(2.15782 -0.758634 0)
(2.06191 -0.826158 0)
(2.00765 -0.859433 0)
(1.96781 -0.910275 0)
(2.01151 -0.926325 0)
(2.24574 -0.805996 0)
(2.7727 -0.230206 0)
(2.7936 0.154564 0)
(2.77834 0.162157 0)
(2.77453 0.184973 0)
(2.79022 0.205968 0)
(2.76753 0.145116 0)
(2.76286 0.112669 0)
(2.71494 -0.0535912 0)
(2.66534 -0.160719 0)
(2.5527 -0.33047 0)
(2.49002 -0.416398 0)
(2.39851 -0.534805 0)
(2.3374 -0.589613 0)
(2.28478 -0.64579 0)
(2.21224 -0.728052 0)
(2.14503 -0.771732 0)
(2.08443 -0.801851 0)
(2.02711 -0.876611 0)
(2.02629 -0.926845 0)
(2.14091 -0.90141 0)
(2.55525 -0.386647 0)
(2.79194 0.154359 0)
(2.7764 0.155034 0)
(2.76611 0.165174 0)
(2.76046 0.168125 0)
(2.76182 0.157009 0)
(2.78154 0.182197 0)
(2.7542 0.0374409 0)
(2.71951 -0.0689449 0)
(2.63452 -0.216829 0)
(2.56985 -0.307621 0)
(2.49937 -0.412524 0)
(2.4178 -0.498724 0)
(2.36617 -0.547973 0)
(2.28596 -0.654312 0)
(2.21245 -0.712206 0)
(2.13555 -0.773528 0)
(2.07087 -0.85375 0)
(2.04439 -0.91903 0)
(2.13396 -0.937609 0)
(2.32977 -0.506064 0)
(2.78924 0.150018 0)