/*--------------------------------*- C++ -*----------------------------------*\
  =========                 |
  \\      /  F ield         | OpenFOAM: The Open Source CFD Toolbox
   \\    /   O peration     | Website:  https://openfoam.org
    \\  /    A nd           | Version:  7
     \\/     M anipulation  |
\*---------------------------------------------------------------------------*/
FoamFile
{
    version     2.0;
    format      ascii;
    class       volScalarField;
    location    "5.5";
    object      T;
}
// * * * * * * * * * * * * * * * * * * * * * * * * * * * * * * * * * * * * * //

dimensions      [0 0 0 1 0 0 0];

internalField   nonuniform List<scalar> 
24000
(
0.803986
0.830244
0.856115
0.879372
0.900404
0.919252
0.936634
0.952424
0.96695
0.980273
0.992058
1.00311
1.01212
1.02079
1.02722
1.03293
1.03746
1.04039
1.0422
1.0434
1.04328
1.04271
1.04103
1.03897
1.03587
1.0332
1.03416
1.03579
1.03764
1.03928
1.0391
1.038
1.03586
1.03415
1.03442
1.03569
1.03626
1.03553
1.03433
1.03379
1.03424
1.03444
1.03393
1.03324
1.03336
1.0333
1.0331
1.0329
1.03271
1.03219
0.779742
0.779788
0.780028
0.78062
0.781884
0.784011
0.78773
0.793115
0.80154
0.812377
0.827469
0.844711
0.865984
0.887912
0.911894
0.935043
0.956329
0.976118
0.992851
1.00707
1.01647
1.02573
1.02939
1.03286
1.03312
1.03577
1.0384
1.04095
1.04211
1.04174
1.04002
1.03716
1.0355
1.03528
1.03632
1.03765
1.03687
1.03486
1.0339
1.03446
1.03542
1.03498
1.03354
1.03322
1.03366
1.03363
1.03337
1.03319
1.03298
1.03229
0.777702
0.777631
0.777568
0.777486
0.777377
0.777263
0.777146
0.777034
0.776913
0.776925
0.777066
0.777466
0.778494
0.780496
0.784817
0.791917
0.804559
0.822264
0.846615
0.875722
0.906908
0.937857
0.966206
0.991978
1.01089
1.02623
1.03066
1.03377
1.03539
1.03495
1.03112
1.03155
1.03291
1.03515
1.03628
1.03585
1.03355
1.03217
1.03253
1.03488
1.03469
1.03315
1.03199
1.03243
1.03321
1.03297
1.03273
1.03271
1.03249
1.03183
0.775402
0.775378
0.775327
0.775235
0.775154
0.775081
0.774981
0.774861
0.774747
0.774634
0.774542
0.774435
0.774296
0.774181
0.774076
0.774085
0.774203
0.77459
0.775831
0.778649
0.785712
0.798576
0.823117
0.854776
0.895945
0.935148
0.965776
0.991143
1.00342
1.0124
1.01599
1.02485
1.03142
1.03547
1.03456
1.0312
1.02804
1.02847
1.0314
1.03319
1.03197
1.02929
1.02931
1.03077
1.03125
1.03082
1.03095
1.03102
1.0307
1.03027
0.773737
0.773703
0.773661
0.773623
0.773593
0.77356
0.773517
0.773472
0.773423
0.773353
0.773326
0.773309
0.773247
0.773233
0.773266
0.773336
0.773455
0.773665
0.77379
0.773864
0.773939
0.774118
0.774789
0.77676
0.783725
0.79887
0.831619
0.87256
0.918691
0.96149
0.993115
1.01461
1.02171
1.0278
1.02747
1.02318
1.02371
1.02691
1.02977
1.02949
1.02629
1.02544
1.02726
1.02841
1.02807
1.02793
1.02846
1.02853
1.02807
1.02804
0.772992
0.77299
0.772982
0.772967
0.772958
0.772951
0.772937
0.772934
0.77294
0.772948
0.77298
0.773007
0.773037
0.77312
0.773266
0.773433
0.773648
0.773816
0.773828
0.773821
0.773827
0.773877
0.773838
0.773747
0.773684
0.773831
0.774915
0.779011
0.79428
0.825061
0.878211
0.930515
0.967393
1.00082
1.00756
1.01477
1.02345
1.02905
1.02868
1.02431
1.02189
1.02413
1.02693
1.02654
1.02517
1.02548
1.02641
1.02617
1.02556
1.02572
0.772696
0.77271
0.772713
0.772718
0.772725
0.772729
0.772733
0.772748
0.772768
0.772774
0.772779
0.772791
0.772833
0.772948
0.773071
0.773183
0.773336
0.773513
0.773592
0.773614
0.773654
0.773707
0.773632
0.773484
0.77341
0.773383
0.773326
0.773
0.772926
0.773759
0.78027
0.79915
0.847074
0.905711
0.959707
1.00447
1.01911
1.02561
1.0235
1.01768
1.02031
1.02553
1.02578
1.02404
1.02347
1.02451
1.02513
1.02449
1.02397
1.02433
0.772894
0.772893
0.77289
0.772891
0.772879
0.772861
0.772848
0.772828
0.772791
0.772783
0.772782
0.772767
0.772761
0.772803
0.772836
0.772852
0.772914
0.773008
0.773008
0.773003
0.77304
0.773147
0.773128
0.773074
0.773109
0.773236
0.773272
0.773203
0.773014
0.772518
0.772259
0.772545
0.775551
0.78792
0.830563
0.892819
0.949241
0.990533
1.00479
1.01253
1.02623
1.02829
1.02573
1.02137
1.02281
1.02504
1.02464
1.02306
1.02328
1.02392
0.773252
0.773223
0.773183
0.77315
0.773123
0.773062
0.772985
0.77293
0.772871
0.772797
0.772714
0.772627
0.772546
0.772468
0.77236
0.77222
0.772149
0.772145
0.772137
0.772114
0.772117
0.772211
0.772372
0.772536
0.772771
0.773163
0.773429
0.77344
0.773414
0.773224
0.77288
0.772684
0.772553
0.772625
0.774433
0.784257
0.821735
0.883857
0.957664
1.003
1.0259
1.02534
1.01903
1.02085
1.02533
1.02551
1.02331
1.02265
1.02353
1.02393
0.772989
0.772999
0.773005
0.77299
0.772924
0.772799
0.772711
0.772601
0.772478
0.772433
0.772383
0.772279
0.772171
0.772087
0.771982
0.771806
0.771635
0.77161
0.771611
0.771578
0.771539
0.771572
0.771762
0.772071
0.772445
0.773033
0.77354
0.773616
0.773615
0.773498
0.77317
0.772825
0.772574
0.772298
0.772093
0.772184
0.773578
0.783653
0.823165
0.896261
0.969605
0.995197
1.01077
1.02428
1.0283
1.02597
1.02163
1.02267
1.02442
1.02405
0.773004
0.772948
0.772895
0.772827
0.772614
0.772424
0.77237
0.772261
0.772162
0.772175
0.772151
0.771988
0.771949
0.771946
0.771915
0.771765
0.771571
0.771546
0.771561
0.771529
0.771494
0.7715
0.771653
0.771972
0.772347
0.772967
0.773567
0.773692
0.773668
0.773454
0.772945
0.772639
0.77256
0.772308
0.771813
0.771714
0.771936
0.772666
0.77457
0.788814
0.834169
0.915428
0.9921
1.0197
1.02641
1.01907
1.02048
1.0248
1.0248
1.02377
0.77276
0.772692
0.772611
0.772452
0.772213
0.772081
0.772085
0.772162
0.772191
0.772153
0.772162
0.772344
0.772497
0.772565
0.772625
0.772604
0.772471
0.77239
0.772256
0.772092
0.772066
0.772048
0.77223
0.772381
0.772473
0.772798
0.773137
0.773271
0.773302
0.773099
0.772494
0.772407
0.772538
0.772435
0.771796
0.771611
0.771912
0.772918
0.773356
0.773588
0.775558
0.797521
0.862089
0.936837
0.996905
1.00671
1.02338
1.02673
1.02461
1.02352
0.772356
0.772357
0.772317
0.772181
0.772065
0.772076
0.772149
0.772364
0.772802
0.772917
0.772987
0.773249
0.773686
0.773805
0.773805
0.773787
0.773821
0.773852
0.773828
0.773623
0.773353
0.7733
0.773153
0.772844
0.772571
0.772348
0.772185
0.772193
0.772175
0.772198
0.77232
0.772516
0.772832
0.772831
0.772302
0.772058
0.772367
0.773102
0.773557
0.773556
0.773059
0.773093
0.778243
0.815469
0.895883
0.974966
1.02359
1.02356
1.02043
1.02344
0.771757
0.771832
0.77194
0.772033
0.772143
0.77227
0.772434
0.772693
0.773051
0.773352
0.773661
0.773937
0.773993
0.773917
0.77372
0.773635
0.77364
0.77371
0.773738
0.773685
0.773444
0.773119
0.77265
0.772054
0.771777
0.771593
0.771213
0.770987
0.770991
0.77116
0.771588
0.772111
0.77278
0.773224
0.773165
0.772989
0.772982
0.7731
0.773227
0.773143
0.772673
0.7718
0.77167
0.773097
0.787658
0.85474
0.950522
0.987339
1.01249
1.0255
0.77182
0.771811
0.771823
0.771921
0.77194
0.771844
0.771827
0.771874
0.772078
0.772525
0.772984
0.773074
0.772829
0.77217
0.771938
0.771992
0.772317
0.772753
0.773123
0.773195
0.77317
0.77293
0.772024
0.771245
0.771235
0.771081
0.77044
0.770176
0.770346
0.770742
0.771404
0.772082
0.772752
0.773409
0.773636
0.773616
0.773308
0.772336
0.771834
0.77174
0.771659
0.771413
0.771408
0.771714
0.7726
0.778868
0.814562
0.908105
0.99012
1.02294
0.771456
0.771426
0.771431
0.771573
0.771559
0.771261
0.770934
0.770802
0.770822
0.770961
0.771337
0.77145
0.770987
0.769694
0.769309
0.769373
0.769982
0.770814
0.771341
0.771523
0.7716
0.771676
0.771582
0.771355
0.771429
0.771415
0.771357
0.771041
0.770838
0.771271
0.771831
0.772087
0.772286
0.772841
0.773537
0.773521
0.772899
0.771419
0.77049
0.770432
0.77066
0.77083
0.771072
0.772284
0.773103
0.772765
0.773614
0.795723
0.861874
0.977557
0.777268
0.776995
0.776866
0.776851
0.776652
0.776117
0.775333
0.774455
0.773861
0.773734
0.773855
0.774096
0.773787
0.772282
0.771592
0.771707
0.772609
0.773413
0.773763
0.773945
0.774031
0.774008
0.77414
0.775077
0.776909
0.778596
0.778646
0.778124
0.777345
0.776383
0.775061
0.77357
0.772784
0.772654
0.773195
0.773776
0.773366
0.771551
0.770521
0.770519
0.770876
0.772021
0.773097
0.773708
0.773217
0.771946
0.77084
0.771418
0.778665
0.885728
0.791539
0.791503
0.7921
0.793791
0.794449
0.794238
0.79312
0.791653
0.791411
0.791399
0.791589
0.792502
0.792346
0.789806
0.787314
0.787139
0.787136
0.786849
0.785883
0.784933
0.783795
0.782362
0.78213
0.782786
0.784057
0.784975
0.78477
0.783988
0.783085
0.781731
0.779982
0.778784
0.776941
0.774177
0.77387
0.773932
0.774098
0.774719
0.77449
0.774426
0.77508
0.776166
0.775848
0.77483
0.772554
0.771393
0.770804
0.771595
0.772385
0.793751
0.806122
0.806578
0.806913
0.807547
0.808481
0.808119
0.806762
0.806285
0.806524
0.807231
0.807727
0.807779
0.807811
0.807578
0.806355
0.805302
0.804367
0.804103
0.804893
0.805136
0.803391
0.80061
0.799263
0.798285
0.79619
0.792477
0.790133
0.790057
0.790915
0.792374
0.793016
0.792611
0.791318
0.789325
0.787153
0.786114
0.786192
0.787058
0.786899
0.785862
0.783921
0.781827
0.779259
0.776786
0.773607
0.77358
0.774458
0.776458
0.775857
0.774992
0.837464
0.837324
0.837392
0.837455
0.836891
0.835403
0.834074
0.833681
0.834045
0.83407
0.833467
0.833389
0.833463
0.832527
0.830682
0.83028
0.829761
0.829274
0.829089
0.829488
0.829632
0.828754
0.827436
0.82605
0.824691
0.824593
0.823803
0.819858
0.816037
0.815727
0.815439
0.814159
0.813137
0.811499
0.809129
0.806698
0.804246
0.800874
0.798035
0.795147
0.792143
0.788785
0.786226
0.784809
0.785302
0.78596
0.785006
0.782802
0.778968
0.774879
0.872646
0.872497
0.871901
0.870815
0.870689
0.870739
0.870236
0.869761
0.869387
0.868325
0.867837
0.868025
0.868023
0.867186
0.8657
0.864389
0.863044
0.861586
0.860237
0.858888
0.857248
0.855564
0.853392
0.850566
0.849473
0.849994
0.849979
0.847415
0.844821
0.843791
0.840436
0.835954
0.833155
0.830933
0.828867
0.826555
0.82393
0.82075
0.816986
0.814162
0.812656
0.810672
0.808768
0.806549
0.804124
0.800377
0.795656
0.790653
0.786164
0.784288
0.908213
0.908754
0.908858
0.90808
0.907508
0.906969
0.905836
0.905545
0.904998
0.903964
0.902989
0.901973
0.90158
0.901077
0.899924
0.898251
0.897263
0.896518
0.895405
0.893976
0.892863
0.891685
0.890027
0.887795
0.885382
0.883293
0.880703
0.876357
0.874872
0.874605
0.8725
0.869337
0.865601
0.861548
0.859263
0.857003
0.853602
0.850039
0.846235
0.842536
0.83857
0.834565
0.829547
0.824507
0.818977
0.813287
0.808996
0.804395
0.803755
0.800062
0.947911
0.946866
0.945778
0.94557
0.945907
0.945856
0.945211
0.943747
0.942395
0.94242
0.94226
0.940802
0.938983
0.938522
0.938075
0.93695
0.93519
0.933632
0.932209
0.930615
0.928841
0.926863
0.924976
0.922981
0.920522
0.91836
0.916179
0.913519
0.91047
0.907469
0.903501
0.899782
0.89689
0.893832
0.889797
0.885174
0.881027
0.876394
0.871951
0.867
0.862191
0.856868
0.851739
0.846656
0.84185
0.837659
0.833632
0.82996
0.825297
0.816665
0.983767
0.983213
0.982113
0.981301
0.981304
0.981521
0.981256
0.980419
0.978792
0.978335
0.978374
0.977816
0.975987
0.974611
0.974248
0.973646
0.972234
0.970406
0.968831
0.967368
0.965751
0.963968
0.961979
0.959866
0.957493
0.954914
0.952239
0.94922
0.946033
0.942814
0.939498
0.935972
0.93128
0.926944
0.923079
0.918645
0.913544
0.908575
0.903474
0.898214
0.893026
0.887437
0.882193
0.876268
0.870763
0.86448
0.858095
0.850844
0.843729
0.833512
1.00694
1.00674
1.00655
1.0063
1.00583
1.00541
1.0054
1.00532
1.00493
1.00413
1.0038
1.00365
1.00323
1.00246
1.00172
1.00106
1.00036
0.999527
0.998541
0.997462
0.996286
0.994931
0.99345
0.991767
0.989921
0.987828
0.985581
0.983137
0.980353
0.977414
0.974018
0.970294
0.966542
0.962148
0.957315
0.952569
0.947312
0.941813
0.935905
0.929892
0.923421
0.916966
0.910156
0.903224
0.896123
0.888626
0.881505
0.873719
0.867464
0.857835
1.01482
1.01483
1.01483
1.01482
1.01476
1.01472
1.01468
1.01462
1.01452
1.01436
1.01427
1.01418
1.01404
1.01389
1.01371
1.01349
1.01327
1.01301
1.01271
1.01237
1.012
1.01154
1.01099
1.01035
1.00956
1.00869
1.00764
1.00637
1.00488
1.0031
1.0011
0.998698
0.995899
0.992687
0.988977
0.984752
0.980118
0.974931
0.969278
0.963121
0.956454
0.949521
0.942159
0.934749
0.926974
0.919252
0.911482
0.903484
0.896404
0.883906
1.01553
1.01553
1.01553
1.01553
1.01553
1.01554
1.01556
1.01559
1.01563
1.01564
1.01565
1.01567
1.01567
1.01569
1.01569
1.01569
1.01569
1.01568
1.01564
1.01558
1.01553
1.01549
1.01541
1.01532
1.0152
1.01502
1.01478
1.01449
1.01418
1.01385
1.0134
1.01273
1.0118
1.01056
1.00895
1.00689
1.00428
1.00108
0.997258
0.992672
0.987243
0.98099
0.974024
0.966453
0.958239
0.949679
0.940626
0.931336
0.922584
0.908232
1.01534
1.01529
1.01527
1.01528
1.01529
1.01529
1.0153
1.01532
1.01536
1.01539
1.01543
1.01546
1.01548
1.01549
1.01549
1.0155
1.0155
1.01546
1.01544
1.01544
1.01546
1.01549
1.01551
1.01554
1.01561
1.01565
1.01567
1.01563
1.01551
1.01538
1.01527
1.01526
1.01527
1.01523
1.01506
1.0147
1.01414
1.01329
1.01207
1.01035
1.00793
1.00457
1.00017
0.994617
0.988002
0.98025
0.971675
0.962103
0.953086
0.938048
1.01413
1.01414
1.01419
1.01425
1.01426
1.01428
1.0143
1.0143
1.01435
1.01445
1.01449
1.01455
1.01459
1.01458
1.0146
1.01466
1.01466
1.01464
1.01464
1.01463
1.01463
1.0147
1.0148
1.01491
1.01502
1.0151
1.01515
1.01523
1.01531
1.01531
1.01528
1.01529
1.0153
1.01527
1.01525
1.0153
1.01534
1.0153
1.01517
1.01499
1.01467
1.01406
1.0129
1.01099
1.00802
1.00377
0.998028
0.990561
0.982568
0.967324
1.00996
1.00999
1.01008
1.0102
1.01026
1.01024
1.01025
1.01031
1.01047
1.0106
1.01059
1.01062
1.01078
1.01093
1.01101
1.0111
1.01122
1.01138
1.01154
1.01168
1.01186
1.01205
1.01224
1.01243
1.01264
1.01281
1.01293
1.01309
1.01332
1.01356
1.01381
1.01418
1.01438
1.01438
1.01446
1.01467
1.0149
1.01494
1.01495
1.01497
1.015
1.01499
1.01494
1.01478
1.01444
1.01364
1.01202
1.00907
1.00491
0.994031
1.00387
1.00392
1.00398
1.00402
1.00411
1.00423
1.00426
1.00427
1.00432
1.00445
1.00459
1.00464
1.00469
1.00483
1.00499
1.00513
1.00529
1.00547
1.00566
1.00585
1.00606
1.00628
1.00652
1.00678
1.00707
1.00739
1.00775
1.00814
1.00855
1.00898
1.0094
1.00985
1.01032
1.01083
1.01138
1.01187
1.01231
1.01279
1.01328
1.0137
1.01401
1.0143
1.0145
1.01467
1.01467
1.01465
1.01455
1.01427
1.0136
1.00981
1.00055
1.00058
1.00059
1.00059
1.0006
1.00062
1.00064
1.00066
1.00069
1.00072
1.00074
1.00078
1.00081
1.00084
1.00088
1.00094
1.001
1.00106
1.00114
1.00122
1.00131
1.00141
1.00153
1.00167
1.00182
1.002
1.00222
1.00246
1.00273
1.00305
1.0034
1.00381
1.00428
1.00481
1.00539
1.00605
1.00678
1.00754
1.00836
1.00924
1.0101
1.01096
1.01179
1.01252
1.01319
1.01366
1.01399
1.01415
1.01414
1.01381
1.00002
1.00002
1.00002
1.00002
1.00003
1.00003
1.00003
1.00003
1.00003
1.00003
1.00003
1.00004
1.00004
1.00004
1.00004
1.00005
1.00005
1.00006
1.00007
1.00007
1.00008
1.00009
1.00011
1.00013
1.00015
1.00017
1.0002
1.00024
1.00029
1.00036
1.00044
1.00054
1.00067
1.00084
1.00105
1.00132
1.00166
1.00209
1.00263
1.00327
1.00407
1.00497
1.00603
1.0072
1.00842
1.00968
1.01086
1.01194
1.01276
1.01339
1
1
1
1
1
1
1
1
1
1
1
1
1
1
1
1
1
1
1
1
1
1
1
1
1
1
1.00001
1.00001
1.00001
1.00001
1.00002
1.00002
1.00003
1.00004
1.00006
1.00009
1.00013
1.00019
1.00028
1.00041
1.00061
1.00091
1.00133
1.00191
1.00269
1.00371
1.00496
1.00643
1.00791
1.01018
1
1
1
1
1
1
1
1
1
1
1
1
1
1
1
1
1
1
1
1
1
1
1
1
1
1
1
1
1
1
1
1
1
1
1
1
1
1
1.00001
1.00002
1.00003
1.00005
1.00009
1.00016
1.0003
1.00053
1.00091
1.00154
1.00235
1.00447
1
1
1
1
1
1
1
1
1
1
1
1
1
1
1
1
1
1
1
1
1
1
1
1
1
1
1
1
1
1
1
1
1
1
1
1
1
1
1
1
1
1
1
1
1.00001
1.00002
1.00005
1.00012
1.00024
1.00083
1
1
1
1
1
1
1
1
1
1
1
1
1
1
1
1
1
1
1
1
1
1
1
1
1
1
1
1
1
1
1
1
1
1
1
1
1
1
1
1
1
1
1
1
1
1
1
1
1.00001
1.00006
1
1
1
1
1
1
1
1
1
1
1
1
1
1
1
1
1
1
1
1
1
1
1
1
1
1
1
1
1
1
1
1
1
1
1
1
1
1
1
1
1
1
1
1
1
1
1
1
1
1
1
1
1
1
1
1
1
1
1
1
1
1
1
1
1
1
1
1
1
1
1
1
1
1
1
1
1
1
1
1
1
1
1
1
1
1
1
1
1
1
1
1
1
1
1
1
1
1
1
1
1
1
1
1
1
1
1
1
1
1
1
1
1
1
1
1
1
1
1
1
1
1
1
1
1
1
1
1
1
1
1
1
1
1
1
1
1
1
1
1
1
1
1
1
1
1
1
1
1
1
0.78075
0.779786
0.777774
0.775455
0.773771
0.772996
0.772676
0.772893
0.773306
0.773069
0.773144
0.772801
0.772305
0.771724
0.771887
0.771604
0.777355
0.79155
0.806067
0.837844
0.872908
0.908324
0.948598
0.984136
1.0071
1.01483
1.01553
1.01536
1.01411
1.0099
1.00384
1.00053
1.00002
1
1
1
1
1
1
1
0.780722
0.779746
0.777727
0.775422
0.773757
0.772984
0.772667
0.772923
0.773409
0.773288
0.773302
0.772838
0.772246
0.771686
0.772144
0.77222
0.777531
0.792469
0.806515
0.839088
0.873212
0.910411
0.949648
0.984894
1.00738
1.01496
1.01551
1.01537
1.01404
1.00982
1.00379
1.00051
1.00002
1
1
1
1
1
1
1
0.780701
0.779726
0.777716
0.775414
0.773758
0.772984
0.772663
0.772974
0.773517
0.773474
0.773441
0.772896
0.772254
0.771582
0.77232
0.772841
0.777608
0.793285
0.807322
0.840517
0.873103
0.91214
0.950597
0.985518
1.00769
1.01505
1.0155
1.01535
1.01398
1.00978
1.00372
1.00049
1.00002
1
1
1
1
1
1
1
0.780671
0.779695
0.777701
0.775402
0.773757
0.772988
0.772667
0.773058
0.773624
0.773583
0.773572
0.772988
0.772288
0.77133
0.772319
0.77299
0.777748
0.793818
0.809401
0.841891
0.874098
0.912917
0.951236
0.986072
1.00818
1.01511
1.01549
1.01532
1.01393
1.00973
1.00359
1.00047
1.00002
1
1
1
1
1
1
1
0.780629
0.779662
0.777686
0.775392
0.773794
0.772993
0.772696
0.773141
0.773731
0.773683
0.773703
0.773093
0.772333
0.771214
0.772258
0.772945
0.777864
0.794275
0.811029
0.842924
0.876462
0.91391
0.951873
0.986963
1.00863
1.01517
1.01549
1.0153
1.01387
1.00955
1.00348
1.00045
1.00002
1
1
1
1
1
1
1
0.780574
0.779628
0.777672
0.775383
0.77383
0.772998
0.772745
0.773214
0.773824
0.773789
0.773839
0.773189
0.772373
0.771127
0.772202
0.772841
0.777902
0.794818
0.811704
0.843747
0.877457
0.915068
0.95345
0.988263
1.009
1.01521
1.01549
1.01532
1.0138
1.0094
1.00339
1.00043
1.00001
1
1
1
1
1
1
1
0.780511
0.77959
0.77766
0.775378
0.773851
0.773003
0.77279
0.773272
0.773896
0.773898
0.773986
0.77328
0.772343
0.77097
0.77216
0.772811
0.778009
0.795388
0.811938
0.844686
0.878151
0.916164
0.955056
0.989275
1.00937
1.01525
1.0155
1.01536
1.01373
1.00929
1.00331
1.00041
1.00001
1
1
1
1
1
1
1
0.780451
0.779548
0.777649
0.775379
0.773879
0.773012
0.772827
0.773301
0.773943
0.774006
0.774137
0.773357
0.772174
0.770818
0.772212
0.772744
0.778092
0.795793
0.811767
0.845986
0.87918
0.917552
0.956356
0.99017
1.00975
1.01528
1.01551
1.01537
1.01367
1.00918
1.00321
1.00038
1.00001
1
1
1
1
1
1
1
0.780404
0.779508
0.777644
0.775412
0.77391
0.773025
0.772858
0.773303
0.773963
0.774096
0.774262
0.77339
0.772031
0.770689
0.772415
0.772669
0.777978
0.795895
0.81205
0.847487
0.880464
0.919062
0.957712
0.991088
1.01016
1.01532
1.01554
1.01538
1.0136
1.00905
1.0031
1.00036
1.00001
1
1
1
1
1
1
1
0.780365
0.779474
0.77764
0.77543
0.773945
0.773045
0.772883
0.7733
0.773967
0.774147
0.774334
0.773373
0.771948
0.770548
0.772453
0.772691
0.777577
0.795825
0.814323
0.849073
0.881975
0.920559
0.959133
0.992063
1.01056
1.01536
1.01556
1.01537
1.01353
1.0089
1.00298
1.00034
1.00001
1
1
1
1
1
1
1
0.78032
0.779448
0.777639
0.775466
0.773989
0.773082
0.772905
0.773294
0.773968
0.774162
0.774356
0.773301
0.77189
0.770389
0.772398
0.772898
0.777351
0.795169
0.816256
0.850631
0.883505
0.922124
0.960598
0.993143
1.01097
1.01539
1.01559
1.01538
1.01347
1.00875
1.00286
1.00031
1.00001
1
1
1
1
1
1
1
0.780258
0.779433
0.777641
0.77552
0.774041
0.773125
0.772926
0.773289
0.773967
0.774159
0.774354
0.773233
0.771823
0.770223
0.772238
0.773019
0.777298
0.79398
0.817782
0.852147
0.885113
0.923789
0.962108
0.994279
1.01136
1.01542
1.01565
1.01542
1.01339
1.00859
1.00275
1.00029
1.00001
1
1
1
1
1
1
1
0.780177
0.779425
0.777651
0.775588
0.774098
0.773182
0.772942
0.773284
0.773956
0.774138
0.77433
0.773168
0.771705
0.77003
0.772021
0.773071
0.777304
0.793591
0.819657
0.853731
0.886853
0.925501
0.9637
0.995392
1.01174
1.01544
1.01568
1.01544
1.01331
1.00841
1.00263
1.00027
1.00001
1
1
1
1
1
1
1
0.780089
0.77942
0.777692
0.775681
0.774163
0.773254
0.772947
0.773249
0.773924
0.774122
0.774302
0.773077
0.77148
0.769795
0.771952
0.773168
0.777719
0.793945
0.821613
0.855304
0.8887
0.92726
0.965414
0.996516
1.01212
1.01547
1.01569
1.01544
1.01323
1.00822
1.0025
1.00025
1.00001
1
1
1
1
1
1
1
0.780002
0.779438
0.777769
0.775781
0.774236
0.773307
0.772944
0.773141
0.773806
0.774117
0.774286
0.772933
0.77118
0.76954
0.771929
0.773527
0.778942
0.795728
0.823349
0.856643
0.890627
0.929129
0.96723
0.997688
1.01249
1.01549
1.01568
1.01543
1.01314
1.00802
1.00237
1.00023
1.00001
1
1
1
1
1
1
1
0.779925
0.779466
0.77784
0.775875
0.774317
0.773347
0.772941
0.773062
0.773633
0.77406
0.774253
0.772732
0.770924
0.769344
0.771958
0.774484
0.780109
0.798567
0.825216
0.857711
0.892624
0.931128
0.969098
0.998885
1.01285
1.01551
1.01569
1.0154
1.01304
1.00781
1.00225
1.00021
1.00001
1
1
1
1
1
1
1
0.779865
0.779482
0.777907
0.775974
0.774403
0.773389
0.772947
0.773021
0.773492
0.773789
0.773991
0.772472
0.770699
0.76923
0.772088
0.775894
0.781036
0.800795
0.827192
0.858648
0.894687
0.933251
0.97101
1.00007
1.0132
1.01553
1.01567
1.01533
1.01291
1.0076
1.00212
1.00019
1
1
1
1
1
1
1
1
0.779818
0.779489
0.777965
0.776068
0.774494
0.773432
0.772964
0.773001
0.773384
0.773526
0.773585
0.772169
0.770455
0.769163
0.772175
0.777182
0.781998
0.801763
0.82883
0.859735
0.896865
0.935479
0.972992
1.00126
1.01353
1.01554
1.01562
1.01523
1.01278
1.00738
1.00199
1.00017
1
1
1
1
1
1
1
1
0.779786
0.779487
0.778013
0.776135
0.77457
0.773471
0.772979
0.772986
0.773271
0.773334
0.773264
0.771889
0.770203
0.769131
0.772202
0.778047
0.782985
0.80204
0.830229
0.861458
0.899199
0.937805
0.975067
1.00246
1.01384
1.01557
1.01563
1.01512
1.01265
1.00715
1.00186
1.00015
1
1
1
1
1
1
1
1
0.77977
0.779493
0.778066
0.776187
0.774611
0.773498
0.772982
0.772966
0.773104
0.773143
0.773007
0.771721
0.770027
0.769188
0.772018
0.778439
0.783959
0.801804
0.831811
0.863753
0.901653
0.940249
0.977226
1.00367
1.01413
1.01559
1.01567
1.01502
1.0125
1.00692
1.00173
1.00013
1
1
1
1
1
1
1
1
0.779765
0.779528
0.778134
0.776238
0.774623
0.773505
0.772977
0.772939
0.772904
0.772925
0.772812
0.771685
0.769984
0.769526
0.771952
0.778747
0.785396
0.802066
0.833855
0.866037
0.904167
0.94285
0.979455
1.00485
1.0144
1.01561
1.01567
1.01492
1.01233
1.00667
1.0016
1.00012
1
1
1
1
1
1
1
1
0.779766
0.779572
0.778198
0.776272
0.774618
0.773499
0.772939
0.772881
0.772716
0.772727
0.77271
0.771775
0.770107
0.770005
0.772642
0.780664
0.786824
0.804909
0.836434
0.868381
0.906792
0.945643
0.981749
1.00601
1.01465
1.01562
1.01564
1.01484
1.01214
1.00641
1.00147
1.0001
1
1
1
1
1
1
1
1
0.779805
0.779618
0.778244
0.776283
0.774588
0.773484
0.77291
0.772755
0.772546
0.772575
0.772697
0.772135
0.770568
0.770484
0.77383
0.782506
0.787198
0.80836
0.839232
0.871054
0.909607
0.948577
0.984097
1.00715
1.01487
1.01562
1.01562
1.01475
1.01194
1.00613
1.00134
1.00009
1
1
1
1
1
1
1
1
0.779847
0.779645
0.778275
0.776281
0.774532
0.773469
0.772907
0.772612
0.772389
0.77248
0.772717
0.772482
0.771233
0.770972
0.774367
0.782659
0.786
0.811147
0.84185
0.87405
0.912601
0.951621
0.986488
1.00824
1.01506
1.01563
1.01561
1.01466
1.01172
1.00583
1.00121
1.00007
1
1
1
1
1
1
1
1
0.779906
0.779657
0.778301
0.776226
0.774433
0.773411
0.772931
0.772496
0.772262
0.772432
0.772844
0.772724
0.771874
0.771252
0.774413
0.782221
0.784976
0.81305
0.844037
0.877241
0.915761
0.954806
0.988919
1.00928
1.01522
1.01566
1.01563
1.01457
1.01148
1.00553
1.00109
1.00006
1
1
1
1
1
1
1
1
0.779996
0.779694
0.778313
0.776141
0.774312
0.773314
0.77292
0.77242
0.772178
0.7724
0.773102
0.773074
0.772412
0.771278
0.774162
0.781366
0.785055
0.814446
0.845605
0.880521
0.919109
0.958168
0.991383
1.01027
1.01535
1.01571
1.01565
1.01448
1.01121
1.00521
1.00097
1.00005
1
1
1
1
1
1
1
1
0.780078
0.779758
0.778313
0.776054
0.774204
0.773256
0.772896
0.772385
0.772125
0.772331
0.773301
0.773498
0.772787
0.771266
0.773216
0.780553
0.786707
0.816694
0.846647
0.883939
0.922706
0.96167
0.993847
1.01118
1.01548
1.01575
1.01565
1.0144
1.01091
1.00488
1.00085
1.00004
1
1
1
1
1
1
1
1
0.780197
0.779817
0.778272
0.775946
0.774102
0.77322
0.772899
0.772378
0.772094
0.772234
0.773347
0.77373
0.772947
0.771079
0.771978
0.779951
0.791316
0.821269
0.848005
0.88771
0.926537
0.965276
0.996288
1.01201
1.01558
1.01576
1.01562
1.01434
1.01059
1.00453
1.00074
1.00003
1
1
1
1
1
1
1
1
0.780365
0.779886
0.778203
0.775808
0.774004
0.773186
0.772906
0.772384
0.77209
0.772189
0.773342
0.773804
0.772956
0.770297
0.771119
0.779785
0.796616
0.826193
0.852323
0.892044
0.930593
0.96903
0.998699
1.01277
1.01567
1.01576
1.01558
1.0143
1.01023
1.00418
1.00064
1.00003
1
1
1
1
1
1
1
1
0.780536
0.779977
0.77813
0.775654
0.773919
0.773156
0.772939
0.772495
0.772215
0.772303
0.773428
0.773832
0.772873
0.769692
0.770707
0.780127
0.800806
0.829911
0.85854
0.896616
0.934955
0.97295
1.00105
1.01344
1.01573
1.01575
1.01553
1.01421
1.00984
1.00382
1.00054
1.00002
1
1
1
1
1
1
1
1
0.780699
0.780065
0.778061
0.77548
0.773832
0.773141
0.773062
0.772802
0.772519
0.772592
0.773553
0.773866
0.772824
0.769447
0.770598
0.781773
0.803697
0.832605
0.863355
0.900971
0.939651
0.976953
1.00329
1.01401
1.01577
1.01571
1.01538
1.01394
1.00943
1.00347
1.00046
1.00002
1
1
1
1
1
1
1
1
0.780875
0.780126
0.777998
0.775341
0.773719
0.773143
0.773177
0.773055
0.772842
0.772865
0.773558
0.773883
0.772798
0.769365
0.770601
0.783742
0.80571
0.834466
0.867514
0.905323
0.944568
0.981004
1.00541
1.0145
1.01579
1.01568
1.01518
1.01365
1.00901
1.00313
1.00038
1.00001
1
1
1
1
1
1
1
1
0.781095
0.780156
0.777922
0.775243
0.773635
0.773151
0.773255
0.77319
0.773127
0.773054
0.773518
0.773879
0.773048
0.769435
0.771074
0.785665
0.807739
0.835676
0.871884
0.910052
0.94971
0.985117
1.00739
1.01489
1.0158
1.01569
1.0151
1.01339
1.00858
1.00278
1.0003
1.00001
1
1
1
1
1
1
1
1
0.781288
0.780187
0.777855
0.775185
0.773589
0.773131
0.77329
0.7733
0.773361
0.773111
0.773329
0.773754
0.773242
0.771007
0.772845
0.788576
0.81121
0.837435
0.876962
0.915351
0.955123
0.989233
1.00919
1.0152
1.0158
1.0157
1.01512
1.01314
1.0081
1.00243
1.00024
1.00001
1
1
1
1
1
1
1
1
0.781414
0.780226
0.777811
0.775145
0.773574
0.773143
0.773303
0.773404
0.773582
0.773074
0.772738
0.77272
0.773181
0.772014
0.774371
0.794033
0.815533
0.8432
0.882975
0.921222
0.960766
0.993268
1.01077
1.01543
1.0158
1.0157
1.01522
1.01287
1.00756
1.00209
1.00019
1
1
1
1
1
1
1
1
1
0.781488
0.78024
0.777788
0.775125
0.77357
0.773165
0.773305
0.773468
0.773704
0.77312
0.77216
0.771176
0.772816
0.772545
0.776303
0.798361
0.818615
0.850773
0.889171
0.927569
0.96661
0.997154
1.01212
1.01558
1.01581
1.01568
1.01522
1.01254
1.00697
1.00177
1.00014
1
1
1
1
1
1
1
1
1
0.78152
0.780311
0.777815
0.775133
0.773619
0.773136
0.773261
0.773474
0.773717
0.773119
0.771612
0.770068
0.771888
0.773055
0.779234
0.801515
0.820685
0.856873
0.894969
0.934357
0.972594
1.0008
1.01322
1.01568
1.01582
1.01567
1.0151
1.01208
1.00634
1.00146
1.0001
1
1
1
1
1
1
1
1
1
0.781509
0.780414
0.778015
0.775311
0.773677
0.773038
0.773029
0.773355
0.773585
0.772983
0.771123
0.769335
0.770916
0.773602
0.782178
0.804621
0.823958
0.863366
0.901054
0.941487
0.978638
1.00417
1.01409
1.01573
1.01583
1.01563
1.0148
1.01155
1.00571
1.00119
1.00008
1
1
1
1
1
1
1
1
1
0.781441
0.780459
0.778173
0.775489
0.77375
0.77294
0.772777
0.773202
0.77351
0.77298
0.770748
0.768904
0.770195
0.774749
0.78472
0.807264
0.832677
0.871321
0.908248
0.948993
0.984675
1.00715
1.01473
1.01575
1.01582
1.01552
1.01449
1.01102
1.00507
1.00095
1.00005
1
1
1
1
1
1
1
1
1
0.781349
0.780495
0.778303
0.775659
0.773838
0.772886
0.772599
0.773069
0.773494
0.773029
0.770551
0.768643
0.769972
0.777136
0.787468
0.809605
0.842004
0.879036
0.916548
0.956872
0.990551
1.00968
1.01519
1.01576
1.01582
1.0154
1.01422
1.01047
1.00444
1.00073
1.00004
1
1
1
1
1
1
1
1
1
0.781118
0.78052
0.77843
0.775765
0.773869
0.772862
0.772481
0.772841
0.773483
0.773104
0.770609
0.768601
0.770043
0.780477
0.790772
0.812619
0.849421
0.885952
0.925501
0.965037
0.996102
1.01172
1.01549
1.01574
1.01578
1.01537
1.01398
1.00982
1.00379
1.00054
1.00002
1
1
1
1
1
1
1
1
1
0.781014
0.780518
0.778475
0.775795
0.77386
0.772854
0.772416
0.772499
0.77335
0.773159
0.771216
0.768945
0.770978
0.783976
0.793802
0.819762
0.857567
0.893654
0.934977
0.973346
1.00116
1.01328
1.01568
1.01572
1.01576
1.01546
1.01375
1.00905
1.00314
1.00039
1.00001
1
1
1
1
1
1
1
1
1
0.780995
0.78043
0.778416
0.77579
0.773874
0.772918
0.772389
0.772341
0.773148
0.773355
0.772065
0.769436
0.772195
0.78575
0.796428
0.830763
0.866396
0.903414
0.94504
0.981615
1.00554
1.01437
1.01578
1.01572
1.01576
1.01548
1.01331
1.00817
1.00252
1.00027
1.00001
1
1
1
1
1
1
1
1
1
0.781144
0.780393
0.778206
0.775647
0.773926
0.773084
0.772693
0.772543
0.773122
0.773648
0.77291
0.770372
0.772835
0.786248
0.801908
0.840473
0.874743
0.914623
0.955541
0.989587
1.00912
1.01508
1.01583
1.01574
1.01579
1.01528
1.0126
1.00725
1.00196
1.00017
1
1
1
1
1
1
1
1
1
1
0.781346
0.78041
0.778002
0.775492
0.773999
0.77334
0.773284
0.772959
0.773108
0.773442
0.773271
0.771463
0.773328
0.78774
0.814092
0.849895
0.884393
0.926604
0.966325
0.99691
1.01183
1.01549
1.01586
1.01575
1.01577
1.01484
1.01192
1.00633
1.00147
1.00011
1
1
1
1
1
1
1
1
1
1
0.781708
0.780507
0.777785
0.775278
0.774016
0.773556
0.773646
0.773336
0.77277
0.77125
0.772637
0.771783
0.773547
0.793536
0.825783
0.858796
0.897001
0.93935
0.977166
1.0032
1.01369
1.01569
1.01588
1.01574
1.01564
1.01446
1.01128
1.00535
1.00105
1.00006
1
1
1
1
1
1
1
1
1
1
0.782105
0.780647
0.777709
0.775024
0.773815
0.773606
0.773785
0.773458
0.77167
0.76918
0.770206
0.772019
0.776503
0.806581
0.835821
0.868887
0.911236
0.952568
0.987583
1.00819
1.01484
1.01578
1.01589
1.01574
1.01548
1.01416
1.01045
1.00433
1.00071
1.00003
1
1
1
1
1
1
1
1
1
1
0.782322
0.780899
0.777797
0.774905
0.773556
0.773485
0.773817
0.773544
0.77091
0.767882
0.76879
0.774347
0.786354
0.816884
0.844935
0.883278
0.926386
0.966154
0.996917
1.01177
1.01545
1.0158
1.0159
1.0157
1.01538
1.01387
1.00928
1.00334
1.00044
1.00002
1
1
1
1
1
1
1
1
1
1
0.782382
0.781136
0.778081
0.774951
0.773355
0.773123
0.773823
0.773649
0.770713
0.767405
0.768783
0.779993
0.7954
0.823486
0.85701
0.90062
0.942288
0.979796
1.00455
1.01402
1.01571
1.0158
1.01591
1.01569
1.01528
1.01326
1.00799
1.00246
1.00026
1.00001
1
1
1
1
1
1
1
1
1
1
0.78211
0.781295
0.77854
0.775152
0.773242
0.772735