/*--------------------------------*- C++ -*----------------------------------*\
  =========                 |
  \\      /  F ield         | OpenFOAM: The Open Source CFD Toolbox
   \\    /   O peration     | Website:  https://openfoam.org
    \\  /    A nd           | Version:  7
     \\/     M anipulation  |
\*---------------------------------------------------------------------------*/
FoamFile
{
    version     2.0;
    format      ascii;
    class       volScalarField;
    location    "1";
    object      rho;
}
// * * * * * * * * * * * * * * * * * * * * * * * * * * * * * * * * * * * * * //

dimensions      [1 -3 0 0 0 0 0];

internalField   nonuniform List<scalar> 
90000
(
0.280663
0.301822
0.32499
0.345669
0.366145
0.388221
0.40864
0.427177
0.446247
0.466546
0.486265
0.505897
0.526169
0.547529
0.569402
0.592246
0.615306
0.639279
0.663845
0.689203
0.714845
0.741341
0.768368
0.795969
0.824126
0.852656
0.880945
0.910102
0.937876
0.968141
0.994
1.02057
1.03722
1.0475
1.04878
1.0476
1.04531
1.0414
1.0384
1.03362
1.02683
1.01919
1.00916
1.00056
0.994619
0.989059
0.98241
0.975879
0.969993
0.960679
0.960314
0.963661
0.973771
0.987504
1.00272
1.01745
1.03316
1.04535
1.05753
1.05799
1.0514
1.03591
1.01751
1.00143
0.992327
0.986061
0.989531
0.999023
1.01415
1.03148
1.04639
1.04342
1.03681
1.02855
1.02948
1.03833
1.0575
1.07451
1.10219
1.1232
1.12613
1.12682
1.12534
1.13709
1.15671
1.17663
1.19544
1.20525
1.20467
1.19443
1.1801
1.18012
1.19416
1.24461
1.29376
1.30148
1.30118
1.29715
1.28104
1.27043
0.264863
0.26489
0.264926
0.264969
0.265017
0.265065
0.265122
0.265202
0.265324
0.26548
0.265645
0.265787
0.265929
0.26605
0.266268
0.266945
0.268289
0.270843
0.274427
0.279957
0.28682
0.296373
0.307756
0.322672
0.340008
0.36119
0.386027
0.414381
0.448718
0.486348
0.531825
0.582919
0.633786
0.682908
0.730373
0.770815
0.809546
0.840273
0.87036
0.893496
0.91227
0.931398
0.938791
0.950077
0.953226
0.959464
0.959187
0.960512
0.960448
0.963515
0.970578
0.982632
0.987534
0.993228
0.997593
1.00109
1.00409
1.00612
1.00282
0.991075
0.979389
0.971017
0.972775
0.97467
0.981151
0.986358
0.989268
0.990382
0.994845
1.00029
1.00325
0.997874
0.99256
0.994229
0.999555
1.01357
1.03099
1.04509
1.05717
1.07371
1.08501
1.09241
1.1077
1.13115
1.15044
1.16576
1.17404
1.17379
1.17368
1.166
1.14478
1.13385
1.14307
1.18354
1.24416
1.25951
1.25906
1.24987
1.2328
1.22215
0.266772
0.26688
0.266992
0.267103
0.267236
0.267406
0.267613
0.267848
0.268091
0.268317
0.268511
0.268691
0.268855
0.269021
0.269191
0.269355
0.269579
0.269656
0.269706
0.269758
0.269823
0.269885
0.269927
0.269965
0.270014
0.270092
0.270179
0.270272
0.27032
0.27035
0.270352
0.270824
0.274483
0.28165
0.294788
0.314778
0.339175
0.373946
0.411695
0.459308
0.51199
0.570031
0.632521
0.692162
0.747097
0.801925
0.847813
0.894608
0.929142
0.968313
0.982714
0.997615
1.00021
1.0007
0.997428
0.992392
0.982974
0.967303
0.943271
0.917003
0.919794
0.92924
0.943003
0.956009
0.969609
0.980632
0.985754
0.989881
0.989531
0.983456
0.972563
0.963866
0.965755
0.972526
0.987133
1.00462
1.01837
1.02351
1.02181
1.02823
1.04375
1.07063
1.10219
1.12735
1.14272
1.15281
1.1543
1.15489
1.15325
1.14691
1.13029
1.10854
1.10745
1.13744
1.18785
1.20234
1.20082
1.19306
1.17986
1.16681
0.269548
0.26959
0.269633
0.269686
0.269775
0.269927
0.270143
0.270349
0.27047
0.270531
0.270576
0.270631
0.270694
0.270752
0.270808
0.270854
0.270875
0.270877
0.270866
0.27084
0.270795
0.270755
0.270741
0.270734
0.270734
0.270745
0.270752
0.270753
0.270745
0.270714
0.270632
0.270563
0.270516
0.270475
0.270418
0.270381
0.270374
0.270366
0.270328
0.270203
0.270127
0.270553
0.276453
0.286381
0.309181
0.338247
0.383908
0.436248
0.505745
0.581804
0.655793
0.723771
0.7801
0.833239
0.861184
0.886536
0.908441
0.914696
0.919706
0.92502
0.943669
0.954107
0.967648
0.975129
0.983747
0.988789
0.989707
0.988954
0.98099
0.962651
0.948531
0.951574
0.957957
0.969792
0.984903
0.995363
1.00504
1.00482
1.00573
1.01314
1.03107
1.06507
1.10851
1.13262
1.14186
1.14469
1.14564
1.14954
1.14914
1.13969
1.12251
1.09932
1.08657
1.09988
1.13339
1.14498
1.14414
1.13683
1.12301
1.11162
0.270612
0.270637
0.270684
0.270766
0.27086
0.270968
0.271101
0.271153
0.271155
0.271152
0.271145
0.271152
0.271166
0.27117
0.27117
0.271161
0.271127
0.271065
0.270996
0.270933
0.27086
0.27078
0.270759
0.270758
0.270751
0.27073
0.270715
0.270718
0.270717
0.270713
0.270676
0.270576
0.270449
0.270343
0.270207
0.270158
0.270207
0.270268
0.27025
0.270092
0.270068
0.270225
0.270609
0.270766
0.270796
0.270775
0.270661
0.270709
0.270832
0.2717
0.282382
0.300941
0.340764
0.39339
0.467523
0.551186
0.646511
0.742493
0.840764
0.904706
0.935161
0.946968
0.962181
0.970176
0.979575
0.985136
0.98442
0.972588
0.944273
0.936872
0.946104
0.962523
0.978775
0.9922
0.999454
0.997786
0.991939
0.989799
0.992746
1.00472
1.02744
1.06785
1.11004
1.12798
1.13213
1.13682
1.14436
1.15092
1.15039
1.14167
1.12032
1.09622
1.07995
1.07901
1.09523
1.10559
1.10486
1.09844
1.08547
1.07368
0.270926
0.270963
0.271031
0.271177
0.271235
0.271239
0.271238
0.271236
0.271237
0.271233
0.271222
0.271219
0.27122
0.271224
0.271219
0.2712
0.271189
0.271147
0.271069
0.271008
0.270955
0.270896
0.270902
0.27094
0.270942
0.270925
0.270965
0.27109
0.271119
0.27107
0.270888
0.270682
0.270574
0.270461
0.270315
0.270333
0.270513
0.270561
0.270464
0.270262
0.27028
0.270659
0.271068
0.271104
0.271065
0.270934
0.27091
0.271048
0.271197
0.271189
0.271057
0.270868
0.270802
0.270818
0.270958
0.271135
0.278268
0.303838
0.350519
0.435569
0.531363
0.632959
0.723328
0.788747
0.847522
0.879275
0.913325
0.918612
0.934146
0.9464
0.979347
1.00482
1.01181
1.01098
1.00908
0.990906
0.982181
0.988331
0.995068
1.00579
1.02881
1.06913
1.09377
1.1071
1.12224
1.13506
1.15246
1.15841
1.15584
1.14507
1.12215
1.09831
1.07898
1.07314
1.07736
1.08013
1.07792
1.06718
1.0553
1.04577
0.271231
0.271248
0.271279
0.271325
0.27134
0.27134
0.271339
0.271337
0.271335
0.271328
0.271311
0.271302
0.271298
0.271286
0.271254
0.271176
0.271142
0.271242
0.271359
0.271384
0.271393
0.271394
0.271364
0.271287
0.271173
0.27116
0.27131
0.271517
0.27152
0.271324
0.27095
0.270816
0.270787
0.270668
0.270505
0.270539
0.270817
0.270918
0.270826
0.270543
0.270506
0.270744
0.271337
0.271475
0.271434
0.271187
0.271091
0.271195
0.271406
0.271437
0.27136
0.271187
0.270997
0.270897
0.270949
0.271374
0.271794
0.271818
0.271737
0.271722
0.27178
0.282019
0.30697
0.363618
0.432106
0.534149
0.649303
0.76198
0.883606
0.931612
0.966947
0.991672
1.00245
1.00606
0.996286
0.967457
0.981641
1.00031
1.01091
1.01353
1.02944
1.04905
1.06329
1.09275
1.11984
1.14644
1.16445
1.16343
1.15855
1.14683
1.12625
1.10208
1.08087
1.06865
1.06871
1.07157
1.06799
1.05655
1.04524
1.04348
0.271362
0.271331
0.27132
0.271328
0.271333
0.271328
0.271317
0.271306
0.2713
0.271299
0.271293
0.271281
0.271269
0.271263
0.271224
0.271084
0.271063
0.271255
0.271563
0.271621
0.271629
0.27163
0.271631
0.271568
0.271436
0.271436
0.271662
0.271839
0.271802
0.271424
0.270974
0.270872
0.270871
0.270839
0.27074
0.270766
0.270998
0.271078
0.270978
0.270711
0.27066
0.270797
0.271284
0.271603
0.271616
0.271513
0.271358
0.271371
0.271497
0.271516
0.271431
0.271288
0.271072
0.270925
0.270977
0.271284
0.271506
0.271502
0.271497
0.271546
0.27174
0.271897
0.271836
0.271733
0.271639
0.271185
0.276737
0.313165
0.377171
0.501253
0.617529
0.732724
0.821778
0.918889
0.93297
0.961343
1.01219
1.02639
1.0222
1.01304
1.0074
1.01364
1.04425
1.08912
1.13839
1.1736
1.17533
1.17023
1.16185
1.14947
1.13243
1.10984
1.08369
1.06986
1.07102
1.0704
1.06528
1.05432
1.04253
1.04231
0.271345
0.271344
0.271338
0.27134
0.271346
0.271314
0.2713
0.271322
0.271336
0.271349
0.271376
0.271397
0.271402
0.271376
0.271258
0.271239
0.271365
0.27162
0.271808
0.271847
0.271856
0.271866
0.271871
0.271742
0.271547
0.271556
0.271802
0.271955
0.271918
0.271624
0.271096
0.270874
0.270871
0.27086
0.270835
0.270899
0.271126
0.271155
0.271017
0.270754
0.270713
0.270816
0.271223
0.271637
0.271698
0.271676
0.271534
0.271473
0.271542
0.271545
0.27146
0.271326
0.271097
0.270875
0.270839
0.270895
0.271132
0.271255
0.271255
0.271268
0.271535
0.271848
0.271853
0.271792
0.271706
0.271406
0.270701
0.270102
0.2704
0.270643
0.273809
0.30644
0.392829
0.528888
0.706686
0.901099
1.00207
1.01894
1.01079
0.974002
0.964638
0.98838
1.04476
1.11733
1.17363
1.18397
1.17786
1.16238
1.16012
1.15362
1.13973
1.11392
1.08587
1.07365
1.07403
1.07235
1.06379
1.0504
1.04326
1.04724
0.271263
0.271236
0.271216
0.271218
0.271221
0.271202
0.271178
0.271216
0.271329
0.271361
0.271394
0.271433
0.271396
0.271071
0.270957
0.271072
0.271522
0.271795
0.271804
0.271799
0.271771
0.271762
0.271762
0.271707
0.271543
0.271526
0.271596
0.271624
0.271575
0.271323
0.270929
0.27075
0.270762
0.270776
0.270773
0.270856
0.271134
0.271171
0.270986
0.270678
0.270641
0.270741
0.271163
0.271625
0.271713
0.271707
0.271596
0.271518
0.271556
0.271556
0.271468
0.271125
0.270753
0.270627
0.27056
0.270555
0.270713
0.270907
0.270903
0.27091
0.271191
0.271712
0.271798
0.271788
0.271718
0.271428
0.270545
0.269505
0.269503
0.269728
0.269764
0.269538
0.269058
0.267981
0.299839
0.397903
0.597972
0.819801
0.902223
0.931853
0.956075
1.01621
1.0759
1.15153
1.19203
1.19012
1.1524
1.1497
1.16129
1.16265
1.15002
1.11704
1.08876
1.08086
1.07922
1.07496
1.06517
1.05254
1.04442
1.05242
0.271209
0.271214
0.271216
0.271217
0.271209
0.271167
0.271115
0.2711
0.271101
0.271138
0.271215
0.27123
0.27116
0.270881
0.270824
0.270976
0.271403
0.271483
0.271466
0.271395
0.271339
0.271317
0.271272
0.271138
0.271032
0.271001
0.27096
0.270951
0.270967
0.27095
0.27082
0.270636
0.270616
0.270653
0.270675
0.270714
0.270857
0.270894
0.270788
0.270667
0.27067
0.270798
0.271194
0.271467
0.271504
0.271518
0.271481
0.271311
0.271279
0.271249
0.270922
0.270454
0.270414
0.270501
0.270506
0.270446
0.270382
0.270455
0.270509
0.270581
0.27093
0.27146
0.271625
0.271706
0.271643
0.270998
0.269788
0.268935
0.268867
0.268946
0.268644
0.267651
0.26625
0.265559
0.265176
0.263733
0.271741
0.363464
0.595254
0.836806
0.936871
1.00102
1.05545
1.13268
1.17444
1.15211
1.10776
1.14492
1.18131
1.1786
1.15826
1.12001
1.0927
1.08618
1.08289
1.07678
1.06765
1.05825
1.05642
1.06969
0.27113
0.271155
0.271161
0.271158
0.271147
0.271087
0.270935
0.270866
0.270869
0.270884
0.270879
0.270779
0.270615
0.27062
0.270701
0.2707
0.270562
0.270408
0.270399
0.27042
0.270448
0.270511
0.270584
0.270597
0.270559
0.270499
0.27047
0.27049
0.270597
0.270629
0.270613
0.270532
0.270505
0.270531
0.270528
0.270541
0.270649
0.270673
0.270541
0.270239
0.270196
0.270286
0.27062
0.270673
0.270755
0.270864
0.270874
0.270733
0.27062
0.27062
0.270498
0.270395
0.270431
0.270636
0.270812
0.27076
0.27029
0.270052
0.270058
0.270117
0.269824
0.269384
0.269328
0.269309
0.269005
0.268049
0.26708
0.266936
0.266918
0.266706
0.265861
0.264399
0.263753
0.263712
0.263448
0.262611
0.261671
0.261481
0.27326
0.361789
0.556959
0.70767
0.811605
0.909873
1.02175
1.05799
1.09748
1.19674
1.20971
1.19788
1.16683
1.12476
1.09799
1.09039
1.08666
1.0824
1.07511
1.06901
1.07094
1.09118
0.270349
0.270312
0.270254
0.270188
0.270138
0.270098
0.270047
0.270005
0.26998
0.269969
0.269916
0.269714
0.269662
0.269685
0.269698
0.269613
0.269369
0.269335
0.26941
0.269585
0.269608
0.269663
0.269988
0.270364
0.270413
0.270357
0.270331
0.270372
0.270537
0.270584
0.270579
0.270513
0.270478
0.27053
0.270578
0.270636
0.270782
0.270792
0.270545
0.269745
0.269435
0.269488
0.26966
0.269693
0.269856
0.270184
0.270249
0.270149
0.269934
0.269922
0.270228
0.270314
0.270294
0.270471
0.27074
0.27071
0.270317
0.269786
0.269413
0.268488
0.266682
0.265521
0.26555
0.265639
0.265615
0.265357
0.264908
0.264887
0.264984
0.264912
0.264215
0.262703
0.262379
0.262418
0.262362
0.261916
0.261446
0.261399
0.2618
0.263693
0.26953
0.294155
0.360102
0.434241
0.557762
0.793608
1.02086
1.17285
1.19027
1.1789
1.15618
1.12774
1.1044
1.09943
1.09725
1.09438
1.08918
1.08835
1.09205
1.11438
0.269368
0.269322
0.26929
0.269288
0.269291
0.269298
0.269304
0.269315
0.269325
0.269296
0.269202
0.26918
0.269192
0.269187
0.269032
0.268755
0.268722
0.268748
0.268971
0.26922
0.269209
0.269185
0.269391
0.270087
0.270453
0.270457
0.270423
0.270437
0.270595
0.270677
0.27068
0.270621
0.270562
0.270622
0.270654
0.270668
0.270788
0.270829
0.270621
0.269703
0.268836
0.268796
0.268955
0.269042
0.269232
0.269613
0.269728
0.269654
0.269215
0.269009
0.269209
0.269295
0.268893
0.268349
0.268523
0.269234
0.269466
0.269056
0.267689
0.265753
0.263997
0.263172
0.2632
0.263429
0.263611
0.263736
0.263752
0.263899
0.264005
0.263871
0.263042
0.261699
0.261561
0.261894
0.262064
0.261797
0.262147
0.262852
0.263761
0.266711
0.272887
0.282533
0.293198
0.304656
0.315367
0.353989
0.489915
0.73949
0.97173
1.12617
1.15423
1.14079
1.12538
1.1158
1.1122
1.11022
1.11032
1.11342
1.11907
1.13791
0.269701
0.269695
0.269687
0.269676
0.269653
0.26964
0.269637
0.269644
0.269637
0.269535
0.269439
0.269424
0.269424
0.269374
0.268892
0.268398
0.268375
0.268556
0.269099
0.269277
0.269243
0.269214
0.269277
0.269754
0.27046
0.270566
0.270562
0.27047
0.270347
0.270401
0.270448
0.27038
0.270221
0.270285
0.270467
0.270406
0.270193
0.270093
0.269805
0.268895
0.267684
0.267347
0.26746
0.267984
0.26868
0.269055
0.2691
0.269054
0.268551
0.267361
0.266602
0.266167
0.26538
0.264004
0.263543
0.263827
0.264796
0.265111
0.264898
0.264069
0.262871
0.262002
0.261859
0.262055
0.262635
0.26319
0.263193
0.263173
0.263232
0.263179
0.262469
0.261472
0.261467
0.26189
0.262158
0.263587
0.266602
0.270212
0.273236
0.275044
0.280087
0.289633
0.301059
0.313345
0.325766
0.340308
0.349866
0.36104
0.507633
0.873989
1.13286
1.13423
1.15124
1.14378
1.14151
1.13614
1.13313
1.13628
1.14227
1.15662
0.269476
0.269417
0.269357
0.269302
0.269205
0.269147
0.26916
0.269163
0.269076
0.269034
0.269035
0.268979
0.268761
0.268124
0.266908
0.266453
0.266447
0.266521
0.266631
0.266767
0.267147
0.267934
0.268242
0.268154
0.267912
0.267795
0.267702
0.267522
0.267381
0.267438
0.267488
0.267386
0.267123
0.267153
0.267259
0.26721
0.266847
0.266366
0.265961
0.265537
0.265489
0.265516
0.265539
0.265559
0.265739
0.265954
0.265993
0.265963
0.265575
0.264565
0.26382
0.263428
0.262648
0.261595
0.261393
0.261614
0.26253
0.263415
0.263478
0.263307
0.26265
0.261692
0.261413
0.261614
0.262497
0.263241
0.263107
0.26283
0.262856
0.262929
0.262258
0.26196
0.263871
0.267474
0.272576
0.277091
0.278075
0.278635
0.28044
0.282934
0.287294
0.295233
0.308407
0.32675
0.336009
0.343884
0.354109
0.362685
0.368674
0.412999
0.709192
0.995739
1.15086
1.15437
1.1781
1.17638
1.17083
1.16221
1.16353
1.17397
0.26544
0.26543
0.265418
0.26536
0.265326
0.265355
0.265635
0.265786
0.265763
0.265576
0.265408
0.265084
0.264331
0.263835
0.263838
0.263853
0.263842
0.263906
0.264056
0.264151
0.264312
0.264489
0.264477
0.264427
0.264471
0.264495
0.264364
0.264341
0.264496
0.264604
0.264548
0.264296
0.264229
0.264376
0.264605
0.264606
0.26459
0.264507
0.26431
0.263963
0.263732
0.263598
0.263295
0.262454
0.261868
0.261883
0.262136
0.262664
0.262968
0.262949
0.262727
0.262206
0.261141
0.260463
0.260474
0.260821
0.26178
0.263018
0.263365
0.263302
0.26286
0.261898
0.261641
0.262217
0.263652
0.265215
0.266002
0.266346
0.267169
0.268996
0.271663
0.275771
0.280017
0.283679
0.286928
0.287438
0.286583
0.285241
0.285786
0.290342
0.298865
0.309798
0.323207
0.34066
0.3546
0.355787
0.360604
0.373723
0.383248
0.389261
0.403416
0.606486
0.961584
1.0997
1.18212
1.18247
1.19172
1.193
1.19378
1.2012
0.262496
0.262565
0.262565
0.262555
0.262534
0.262577
0.262823
0.262878
0.262849
0.262717
0.262583
0.262575
0.262611
0.26273
0.262969
0.263164
0.263151
0.262818
0.26249
0.262484
0.262627
0.262668
0.262551
0.262509
0.262506
0.262388
0.262092
0.261881
0.261793
0.261599
0.261305
0.26124
0.261261
0.261443
0.261902
0.262522
0.26306
0.263241
0.263136
0.262831
0.262495
0.26224
0.261848
0.261012
0.260579
0.260606
0.260837
0.261519
0.262319
0.262508
0.262475
0.262127
0.261127
0.260563
0.260603
0.260936
0.261908
0.263777
0.26689
0.269091
0.270014
0.270589
0.270824
0.271023
0.272106
0.274705
0.277813
0.280839
0.283837
0.286862
0.288939
0.290693
0.290892
0.291977
0.292428
0.292879
0.295103
0.298596
0.301909
0.306536
0.31485
0.323436
0.331447
0.34267
0.359062
0.37217
0.37827
0.384579
0.392693
0.401762
0.406628
0.41413
0.483381
0.737495
1.01585
1.14799
1.18349
1.19314
1.2071
1.22685
0.26562
0.265516
0.265366
0.265212
0.265124
0.265057
0.26495
0.264821
0.264818
0.265069
0.265337
0.265416
0.265549
0.265705
0.265721
0.265668
0.265214
0.26394
0.263367
0.263409
0.263478
0.263381
0.262685
0.26221
0.261988
0.261553
0.260622
0.259816
0.259775
0.259898
0.259847
0.259809
0.25991
0.2603
0.261073
0.262046
0.262842
0.263156
0.263074
0.26279
0.262427
0.262112
0.261731
0.261059
0.260734
0.26074
0.260926
0.261589
0.263144
0.264705
0.265043
0.265248
0.266066
0.267802
0.26938
0.270353
0.271422
0.27366
0.278126
0.283484
0.286514
0.287525
0.287464
0.286875
0.286463
0.286542
0.287118
0.289163
0.29228
0.296225
0.300353
0.30177
0.300711
0.299954
0.301169
0.305669
0.311677
0.316474
0.31936
0.322705
0.327931
0.335459
0.342238
0.347797
0.359036
0.375975
0.384641
0.389636
0.399082
0.407149
0.417555
0.427591
0.427995
0.439567
0.50933
0.722208
0.938685
1.11245
1.19483
1.22227
0.262822
0.262922
0.262918
0.262988
0.263115
0.263158
0.263048
0.262973
0.263142
0.264046
0.264527
0.264553
0.264567
0.264583
0.264523
0.264083
0.26288
0.261632
0.261403
0.261575
0.261737
0.261696
0.261263
0.260996
0.26075
0.260131
0.25924
0.259142
0.259439
0.260207
0.260979
0.261299
0.261453
0.26167
0.262001
0.262568
0.26371
0.265726
0.266677
0.266646
0.266207
0.266165
0.266872
0.268431
0.270237
0.271895
0.273844
0.276379
0.279786
0.28372
0.286377
0.287816
0.289112
0.290407
0.291044
0.291033
0.290842
0.290727
0.291137
0.292696
0.294261
0.29519
0.296151
0.297741
0.30019
0.3033
0.305633
0.305658
0.30524
0.30571
0.309436
0.315015
0.318825
0.320593
0.321711
0.323254
0.324874
0.327322
0.330475
0.334342
0.339751
0.349498
0.363694
0.376121
0.381079
0.38704
0.39692
0.407845
0.420275
0.428432
0.43452
0.438085
0.439901
0.439131
0.439563
0.444895
0.517023
0.697612
0.919834
1.13816
0.265357
0.266084
0.26637
0.266376
0.266114
0.265744
0.265713
0.265993
0.266822
0.267729
0.2684
0.269019
0.270016
0.270804
0.27085
0.27058
0.270394
0.27044
0.27094
0.271444
0.271899
0.273235
0.274522
0.274392
0.272876
0.271971
0.272035
0.272969
0.275953
0.280415
0.283226
0.283873
0.28403
0.284062
0.284036
0.284194
0.284975
0.287147
0.290639
0.29231
0.292632
0.292793
0.293321
0.293877
0.294142
0.294668
0.295797
0.29717
0.298468
0.299853
0.301188
0.302301
0.303166
0.303587
0.303443
0.302703
0.301588
0.301037
0.301329
0.302789
0.305314
0.308182
0.311225
0.314544
0.317689
0.321316
0.325669
0.328618
0.328823
0.327502
0.325768
0.326372
0.329627
0.334092
0.337786
0.339844
0.34062
0.342045
0.345039
0.348286
0.351997
0.358867
0.371659
0.388764
0.402346
0.4118
0.420501
0.429145
0.437909
0.446212
0.447316
0.448923
0.452543
0.453963
0.452383
0.45224
0.456598
0.466385
0.530127
0.835873
0.289257
0.29003
0.291035
0.291203
0.290909
0.290575
0.290603
0.290544
0.290299
0.290267
0.290379
0.290791
0.291409
0.291979
0.2923
0.292737
0.293196
0.2931
0.292961
0.293153
0.29394
0.296317
0.298748
0.29907
0.298568
0.298312
0.298334
0.298789
0.300085
0.300411
0.300306
0.300357
0.300798
0.30174
0.303006
0.303647
0.303821
0.304447
0.306352
0.307749
0.307896
0.307681
0.307018
0.306467
0.306001
0.305889
0.306108
0.306414
0.306784
0.307689
0.30921
0.31103
0.313158
0.315813
0.318377
0.319882
0.320838
0.322158
0.324445
0.327715
0.331582
0.335369
0.336435
0.336055
0.334752
0.334363
0.335679
0.338737
0.341295
0.342858
0.343875
0.34457
0.345977
0.348867
0.353306
0.357173
0.35884
0.359265
0.360304
0.362196
0.363616
0.366065
0.374336
0.391476
0.409507
0.42223
0.431706
0.438325
0.447096
0.458348
0.462044
0.462453
0.464791
0.47104
0.474262
0.474308
0.476905
0.485398
0.493309
0.564822
0.311637
0.311657
0.311988
0.312372
0.312965
0.313601
0.313655
0.313349
0.312316
0.312067
0.312215
0.312748
0.312884
0.312331
0.310774
0.310466
0.310508
0.309982
0.309301
0.309756
0.312167
0.312923
0.312535
0.311889
0.311945
0.312403
0.313751
0.315179
0.31545
0.314866
0.314571
0.315182
0.316914
0.319207
0.322396
0.324233
0.324303
0.324315
0.324834
0.326428
0.327724
0.32789
0.328008
0.328257
0.328572
0.328936
0.329572
0.330574
0.331645
0.332706
0.334063
0.335998
0.338367
0.340594
0.342498
0.343851
0.344612
0.345173
0.345646
0.345811
0.346314
0.347652
0.348857
0.349284
0.349278
0.348984
0.349146
0.35049
0.353938
0.358792
0.363594
0.367589
0.369501
0.369273
0.368977
0.37
0.371933
0.372901
0.373592
0.375665
0.379587
0.387169
0.398299
0.409064
0.418766
0.426795
0.436656
0.444783
0.450881
0.461243
0.472165
0.476264
0.478181
0.482585
0.489534
0.491855
0.495735
0.501842
0.509458
0.534658
0.333552
0.333379
0.333406
0.333562
0.334097
0.335097
0.335461
0.335413
0.33531
0.335611
0.336446
0.336445
0.335799
0.334765
0.333895
0.333756
0.333864
0.334568
0.336403
0.337044
0.336335
0.33452
0.334358
0.335873
0.338449
0.338999
0.339145
0.338981
0.338311
0.338205
0.338467
0.339234
0.339235
0.338949
0.33902
0.33969
0.340133
0.340367
0.340783
0.341858
0.344
0.346886
0.34926
0.35044
0.351142
0.352112
0.35345
0.353972
0.353744
0.353639
0.353684
0.353713
0.353653
0.353456
0.35359
0.354357
0.355687
0.357442
0.359773
0.361032
0.360981
0.361186
0.362755
0.36643
0.371086
0.374747
0.376747
0.37831
0.379959
0.380816
0.381526
0.383338
0.384501
0.384233
0.383449
0.383678
0.385766
0.389671
0.392852
0.395984
0.401694
0.411102
0.421999
0.432312
0.444918
0.453143
0.453734
0.457638
0.466892
0.476682
0.484666
0.493155
0.495942
0.496053
0.498635
0.503982
0.509393
0.5178
0.523016
0.543713
0.353121
0.352893
0.35283
0.352868
0.353187
0.354001
0.355185
0.356328
0.356556
0.356305
0.355983
0.356117
0.35694
0.357495
0.357465
0.357441
0.357853
0.359176
0.360196
0.360747
0.361261
0.361697
0.362411
0.364322
0.366005
0.366395
0.366736
0.366836
0.366245
0.365707
0.365857
0.367468
0.36951
0.369557
0.367702
0.364616
0.363681
0.363448
0.363056
0.36272
0.362881
0.364202
0.36679
0.369257
0.371092
0.37279
0.374839
0.377095
0.37898
0.380522
0.381933
0.382887
0.383096
0.382989
0.382891
0.383081
0.384086
0.386122
0.388691
0.391433
0.393473
0.394333
0.394357
0.394271
0.394558
0.395857
0.396921
0.39716
0.397023
0.396159
0.394629
0.394637
0.395667
0.398075
0.401509
0.404536
0.407446
0.410619
0.413733
0.415632
0.418344
0.423576
0.432387
0.443235
0.455664
0.468087
0.475019
0.48097
0.490886
0.50468
0.513457
0.516984
0.519782
0.520044
0.519533
0.522597
0.524162
0.530316
0.542468
0.56434
0.382072
0.383098
0.383602
0.383539
0.382414
0.381172
0.381072
0.381375
0.382729
0.383327
0.383424
0.383755
0.383974
0.383869
0.383318
0.383197
0.383431
0.38348
0.383427
0.383653
0.383842
0.383945
0.38463
0.385572
0.386228
0.387418
0.388672
0.389204
0.389589
0.390213
0.391189
0.392367
0.393366
0.393896
0.394266
0.394591
0.394956
0.395588
0.396327
0.396444
0.396027
0.395546
0.395515
0.395693
0.395759
0.395639
0.395631
0.396009
0.397007
0.398386
0.399896
0.40132
0.402513
0.403476
0.404201
0.404781
0.404951
0.404675
0.403902
0.403468
0.403998
0.405084
0.405815
0.40557
0.405057
0.405138
0.405942
0.407464
0.409595
0.412535
0.415911
0.418832
0.421736
0.424914
0.427736
0.430192
0.431619
0.432147
0.432862
0.433684
0.434807
0.437157
0.442401
0.450224
0.460763
0.475557
0.491985
0.505907
0.514757
0.521165
0.526635
0.528305
0.529664
0.531992
0.534628
0.539502
0.544419
0.547166
0.557935
0.589419
0.409141
0.409184
0.409353
0.409674
0.409956
0.410016
0.41003
0.409874
0.409278
0.409007
0.409042
0.409529
0.410014
0.410101
0.410107
0.410104
0.41017
0.410682
0.411765
0.412089
0.41199
0.411838
0.411824
0.411783
0.411429
0.410983
0.410921
0.410732
0.41034
0.410236
0.410017
0.409647
0.409598
0.409817
0.411504
0.412871
0.412772
0.412981
0.414571
0.416855
0.418389
0.419579
0.42097
0.422102
0.422234
0.421893
0.421049
0.419815
0.418226
0.416726
0.416291
0.41653
0.417596
0.419595
0.42243
0.426064
0.429777
0.431422
0.431325
0.430339
0.429707
0.430396
0.433156
0.437554
0.440748
0.441901
0.442612
0.443734
0.445621
0.447472
0.448381
0.448695
0.44942
0.449648
0.449185
0.448911
0.448986
0.448845
0.448883
0.449828
0.452435
0.457071
0.465355
0.478785
0.492279
0.504128
0.512657
0.519285
0.526816
0.538023
0.544038
0.545479
0.544028
0.543234
0.546166
0.551081
0.561878
0.57251
0.578285
0.605995
0.44135
0.441194
0.441365
0.442361
0.442647
0.442544
0.442377
0.442514
0.442816
0.442806
0.442646
0.442632
0.442605
0.442774
0.443162
0.443163
0.44307
0.44314
0.443294
0.443289
0.443087
0.443032
0.44345
0.444239
0.444509
0.444778
0.445269
0.445605
0.44622
0.447286
0.447488
0.447669
0.448322
0.449473
0.449892
0.449802
0.449302
0.448809
0.448944
0.449437
0.44941
0.449472
0.450196
0.451405
0.452455
0.453642
0.455256
0.456642
0.457484
0.45829
0.459264
0.459514
0.459289
0.458562
0.457781
0.457762
0.458389
0.459842
0.461712
0.463472
0.463871
0.463415
0.462957
0.463127
0.463724
0.464024
0.463895
0.463504
0.463181
0.462714
0.461621
0.460154
0.460269
0.4605
0.460779
0.461389
0.463049
0.466161
0.469744
0.473604
0.478806
0.48595
0.494895
0.506194
0.515581
0.522202
0.529239
0.531304
0.533705
0.540541
0.551991
0.564055
0.572404
0.574488
0.576467
0.579792
0.585263
0.599122
0.612041
0.633946
0.475084
0.474602
0.474597
0.47488
0.474904
0.4745
0.474387
0.474479
0.474445
0.47402
0.473793
0.473705
0.473748
0.473863
0.473872
0.473668
0.47333
0.473339
0.473718
0.473891
0.473656
0.473234
0.473255
0.473878
0.475119
0.475603
0.47558
0.475576
0.475799
0.476504
0.477161
0.477649
0.477859
0.478029
0.478368
0.478815
0.479175
0.479465
0.479517
0.479121
0.478724
0.478769
0.478586
0.477946
0.47716
0.477081
0.477737
0.478197
0.478004
0.478141
0.479668
0.481018
0.481154
0.481488
0.482286
0.482125
0.480492
0.478002
0.477335
0.477822
0.479559
0.481617
0.482185
0.481895
0.481868
0.482376
0.483421
0.484592
0.486036
0.488012
0.490553
0.493537
0.496174
0.49842
0.500674
0.502737
0.5041
0.504701
0.505218
0.506093
0.507255
0.509442
0.512789
0.519067
0.528116
0.536069
0.545022
0.558807
0.574328
0.579441
0.58141
0.584073
0.593111
0.600133
0.600862
0.60488
0.609404
0.616757
0.632435
0.663755
0.511988
0.511926
0.511981
0.512214
0.512265
0.512115
0.511809
0.511802
0.512035
0.511995
0.511379
0.511046
0.511299
0.511692
0.511773
0.511779
0.511823
0.512128
0.512471
0.512506
0.512306
0.511931
0.511873
0.512008
0.512319
0.512336
0.512149
0.512137
0.512119
0.512041
0.512079
0.51211
0.512047
0.512035
0.512119
0.512441
0.513026
0.513808
0.5148
0.51582
0.516719
0.517557
0.517974
0.517935
0.51791
0.518049
0.518091
0.51731
0.516083
0.516184
0.517466
0.518118
0.517944
0.5181
0.519425
0.52103
0.521692
0.522249
0.522885
0.522869
0.522653
0.522689
0.523312
0.524431
0.52526
0.525563
0.52579
0.526105
0.526446
0.526798
0.526843
0.526728
0.526484
0.52613
0.525636
0.525133
0.524282
0.522472
0.52102
0.520103
0.518896
0.519665
0.523791
0.532678
0.547666
0.564964
0.576985
0.584997
0.596656
0.609185
0.611878
0.611485
0.612791
0.618908
0.621573
0.624688
0.632133
0.63666
0.64313
0.676059
0.553017
0.552947
0.552779
0.552751
0.553023
0.553316
0.553223
0.552415
0.551816
0.551858
0.551957
0.551671
0.550974
0.550969
0.551149
0.551111
0.550821
0.550641
0.550656
0.55089
0.551131
0.551118
0.550867
0.550645
0.550661
0.550842
0.551071
0.551397
0.551728
0.551865
0.552075
0.552552
0.552967
0.553087
0.553111
0.553095
0.552999
0.552832
0.552603
0.552254
0.551797
0.551278
0.550839
0.550754
0.550877
0.551425
0.551959
0.552585
0.553697
0.554624
0.554564
0.553757
0.552043
0.550446
0.549488
0.54947
0.549768
0.550374
0.551182
0.55121
0.550928
0.550546
0.549508
0.548293
0.547938
0.547883
0.547833
0.547631
0.547021
0.546435
0.546021
0.545392
0.544901
0.54472
0.544877
0.545263
0.545995
0.547572
0.550232
0.553526
0.558084
0.56374
0.570662
0.579833
0.589072
0.595853
0.602262
0.608101
0.615369
0.62514
0.628055
0.628321
0.626837
0.630196
0.639692
0.644223
0.651811
0.669186
0.683992
0.711048
0.597573
0.596467
0.596383
0.597314
0.598856
0.598901
0.59813
0.596858
0.596756
0.59718
0.597363
0.597012
0.596221
0.595746
0.595668
0.595695
0.595678
0.59552
0.595289
0.595017
0.594885
0.594995
0.59545
0.595594
0.595501
0.595146
0.594847
0.594826
0.594831
0.594786
0.594763
0.594787
0.594873
0.594898
0.594923
0.594967
0.594971
0.594927
0.594884
0.594916
0.595041
0.595113
0.595105
0.595016
0.59484
0.594481
0.593856
0.593141
0.592524
0.592012
0.591728
0.591781
0.592249
0.593242
0.59399
0.5939
0.593335
0.592327
0.591032
0.590378
0.590531
0.59118
0.592008
0.592202
0.592022
0.591607
0.591199
0.591071
0.59124
0.591691
0.591715
0.591792
0.592146
0.592473
0.592476
0.592302
0.591862
0.591335
0.590653
0.589941
0.589967
0.590509
0.591022
0.593774
0.598938
0.603492
0.609635
0.61898
0.62849
0.639035
0.648973
0.65819
0.663388
0.665117
0.669649
0.679953
0.689582
0.700696
0.717083
0.751889
0.648782
0.648796
0.649026
0.648617
0.646723
0.646034
0.646122
0.646864
0.647045
0.646799
0.646524
0.646568
0.646499
0.645865
0.645577
0.645461
0.644969
0.644546
0.644551
0.644446
0.644252
0.64437
0.644602
0.644483
0.644117
0.64405
0.643936
0.643517
0.643163
0.643122
0.643172
0.643362
0.643419
0.643198
0.64261
0.642463
0.642382
0.642177
0.641843
0.64155
0.641322
0.641039
0.640621
0.640134
0.639654
0.639177
0.638763
0.638488
0.638343
0.638136
0.637695
0.637057
0.636261
0.635111
0.634014
0.633748
0.633861
0.634078
0.633963
0.633437
0.632583
0.631175
0.62959
0.628861
0.628654
0.628427
0.62777
0.626651
0.625627
0.624813
0.623858
0.622829
0.621868
0.62057
0.618941
0.617783
0.616676
0.615127
0.61378
0.613353
0.613756
0.615726
0.620024
0.626592
0.637539
0.651472
0.662188
0.670633
0.677762
0.684143
0.689514
0.69348
0.697946
0.702174
0.704686
0.710767
0.721452
0.731936
0.743346
0.776559
0.705292
0.705175
0.705053
0.704908
0.704398
0.703437
0.703223
0.703227
0.703041
0.702236
0.701719
0.701785
0.701835
0.701615
0.701372
0.701329
0.701174
0.700503
0.699889
0.699838
0.699853
0.6998
0.699394
0.698994
0.698985
0.698965
0.698678
0.697839
0.697455
0.697468
0.697608
0.69759
0.697243
0.69659
0.695826
0.695452
0.695197
0.694856
0.694271