/*--------------------------------*- C++ -*----------------------------------*\
  =========                 |
  \\      /  F ield         | OpenFOAM: The Open Source CFD Toolbox
   \\    /   O peration     | Website:  https://openfoam.org
    \\  /    A nd           | Version:  7
     \\/     M anipulation  |
\*---------------------------------------------------------------------------*/
FoamFile
{
    version     2.0;
    format      ascii;
    class       volScalarField;
    location    "7.7";
    object      T;
}
// * * * * * * * * * * * * * * * * * * * * * * * * * * * * * * * * * * * * * //

dimensions      [0 0 0 1 0 0 0];

internalField   nonuniform List<scalar> 
1750
(
1.46733
1.54964
1.50597
1.43192
1.40746
1.42971
1.45105
1.46042
1.47764
1.48277
0.410939
1.02572
1.74407
1.89313
1.87263
1.80654
1.73678
1.69181
1.66926
1.63842
0.347096
0.360594
0.578322
1.18435
1.54679
1.69442
1.75323
1.75007
1.73397
1.68569
0.387942
0.407256
0.425916
0.443103
0.525542
0.86067
1.14196
1.3326
1.44524
1.51673
0.458772
0.486314
0.5163
0.516085
0.507247
0.514953
0.524655
0.649173
0.828157
1.09939
0.561559
0.574816
0.5804
0.581966
0.588343
0.599516
0.61528
0.618048
0.622111
0.692527
0.679954
0.679731
0.683096
0.689376
0.691755
0.69416
0.69399
0.693452
0.690794
0.68302
0.814315
0.805637
0.798397
0.787701
0.778279
0.77038
0.763516
0.757004
0.751917
0.745036
0.942612
0.927616
0.913931
0.899614
0.883741
0.869294
0.855908
0.841592
0.831316
0.815641
1.01117
1.00468
0.996385
0.986953
0.974904
0.960885
0.946073
0.929969
0.914224
0.890124
1.02112
1.02044
1.01947
1.01808
1.01561
1.01147
1.00547
0.997182
0.98732
0.966657
1.01482
1.01576
1.01671
1.01705
1.01693
1.01672
1.01637
1.01559
1.01422
1.00831
1.00354
1.00473
1.00613
1.00781
1.00951
1.01102
1.01234
1.01331
1.01374
1.01349
1.00018
1.00031
1.00053
1.00091
1.0015
1.00238
1.00352
1.005
1.0066
1.00895
1
1.00001
1.00001
1.00002
1.00005
1.00012
1.00024
1.00049
1.0009
1.00232
0.466448
0.384184
0.332251
0.363863
0.446691
0.559584
0.684781
0.826978
0.954627
1.01495
1.02139
1.01358
1.00256
1.00012
1
0.484976
0.383893
0.330038
0.37395
0.490329
0.606683
0.736797
0.876007
0.984334
1.02208
1.02155
1.01062
1.00136
1.00004
1
0.513157
0.394497
0.352504
0.396298
0.521309
0.639481
0.773247
0.911549
1.00267
1.02428
1.02087
1.00806
1.00077
1.00002
1
0.513934
0.398024
0.375502
0.441844
0.549116
0.675764
0.819468
0.950705
1.01633
1.02531
1.01909
1.00559
1.00037
1.00001
1
0.515141
0.385245
0.39112
0.473284
0.577644
0.719619
0.873077
0.981501
1.02387
1.02569
1.01664
1.00336
1.00016
1
1
0.515758
0.366003
0.400818
0.491567
0.63946
0.795199
0.920933
1.00354
1.02747
1.02584
1.01258
1.00173
1.00006
1
1
0.48019
0.377716
0.402503
0.52194
0.704524
0.850373
0.959748
1.01954
1.02901
1.02376
1.00839
1.00083
1.00002
1
1
0.456939
0.384489
0.439991
0.620374
0.776372
0.902578
0.994357
1.02845
1.0294
1.02003
1.00501
1.00033
1.00001
1
1
0.416594
0.379707
0.516736
0.702813
0.845402
0.955846
1.01743
1.03167
1.02935
1.01487
1.00251
1.00012
1
1
1
0.301813
0.372737
0.601195
0.776579
0.910329
0.996796
1.02958
1.03259
1.02552
1.00946
1.00105
1.00004
1
1
1
0.172448
0.476227
0.714172
0.868381
0.970643
1.02159
1.03438
1.03282
1.02046
1.00502
1.00036
1.00001
1
1
1
0.100345
0.588276
0.802603
0.941922
1.01116
1.03396
1.03555
1.02964
1.01344
1.00214
1.00011
1
1
1
1
0.215562
0.656204
0.897319
1.00017
1.03241
1.03762
1.03578
1.02386
1.00714
1.00072
1.00003
1
1
1
1
0.47792
0.825365
0.987929
1.03106
1.03902
1.03808
1.03089
1.01487
1.00282
1.00018
1.00001
1
1
1
1
0.818458
0.980147
1.03419
1.04116
1.03994
1.03572
1.02299
1.00729
1.00081
1.00003
1
1
1
1
1
1.0487
1.04724
1.0455
1.04187
1.03745
1.02941
1.01355
1.00213
1.00005
1
1
1
1
1
1
1.04989
1.04882
1.04614
1.04101
1.03756
1.02846
1.01293
1.00227
1.00014
1
1
1
1
1
1
1.05092
1.04965
1.04647
1.04048
1.03524
1.02321
1.00688
1.00066
1.00002
1
1
1
1
1
1
1.0522
1.05019
1.04595
1.03942
1.03241
1.01789
1.00418
1.00031
1.00001
1
1
1
1
1
1
1.05331
1.05049
1.04476
1.03808
1.02882
1.01298
1.00213
1.00011
1
1
1
1
1
1
1
1.05452
1.05098
1.04345
1.03624
1.02425
1.00817
1.00094
1.00004
1
1
1
1
1
1
1
1.05572
1.05122
1.04212
1.03313
1.01833
1.0045
1.00037
1.00001
1
1
1
1
1
1
1
1.05679
1.05114
1.04059
1.02864
1.01302
1.00231
1.00013
1
1
1
1
1
1
1
1
1.05807
1.05047
1.03854
1.02318
1.00757
1.00088
1.00004
1
1
1
1
1
1
1
1
1.05942
1.04758
1.03341
1.01636
1.004
1.00032
1.00001
1
1
1
1
1
1
1
1
1.06056
1.04473
1.02848
1.0108
1.00167
1.00009
1
1
1
1
1
1
1
1
1
1.06136
1.04298
1.02129
1.00569
1.00058
1.00002
1
1
1
1
1
1
1
1
1
1.05995
1.03855
1.01369
1.00229
1.00014
1
1
1
1
1
1
1
1
1
1
1.05775
1.02875
1.00718
1.00075
1.00003
1
1
1
1
1
1
1
1
1
1
1.05569
1.01853
1.00256
1.00015
1
1
1
1
1
1
1
1
1
1
1
1.05392
1.00629
1.00048
1.00002
1
1
1
1
1
1
1
1
1
1
1
1
1
1
1
1
1
1
1
1
1
1
1
1
1
1
1
1
1
1
1
1
1
1
1
1
1
1
1
1
1
1
1
1
1
1
1
1
1
1
1
1
1
1
1
1
1
1
1
1
1
1
1
1
1
1
1
1
1
1
1
1
1
1
1
1
1
1
1
1
1
1
1
1
1
1
1
1
1
1
1
1
1
1
1
1
1
1
1
1
1
1
1
1
1
1
1
1
1
1
1
1
1
1
1
1
1
1
1
1
1
1
1
1
1
1
1
1
1
1
1
1
1
1
1
1
1
1
1
1
1
1
1
1
1
1
1.22537
1
1
1
1
1
1
1
1
1
1.04827
1
1
1
1
1
1
1
1
1
1.00556
1
1
1
1
1
1
1
1
1
1.00096
1
1
1
1
1
1
1
1
1
1.00016
1
1
1
1
1
1
1
1
1
1.00002
1
1
1
1
1
1
1
1
1
1
1
1
1
1
1
1
1
1
1
1
1
1
1
1
1
1
1
1
1
1
1
1
1
1
1
1
1
1
1
1
1
1
1
1
1
1
1
1
1
1
1
1
1
1
1
1
1
1
1
1
1
1
1
1
1
1
1
1
1
1
1
1
1
1
1
1
1
1
1
1
1
1
1
1
1
1
1
1
1
1
1
1
1
1
1
1
1
1
1
1
1
1
1
1
1
1
1
1
1
1
1
1
1
1
1
1
1
1
1
1
1
1
1
1
1
1
1
1
1
1
1
1
1
1
1
1
1
1
1
1
1
1
1
1
1
1
1
1
1
2.58826
2.09785
1.28851
1.00043
1.00008
1.00001
1
1
1
1
1
1
1
1
1
1
1
1
1
1
2.58477
2.48093
2.24811
1.72236
1.03134
1.00001
1
1
1
1
1
1
1
1
1
1
1
1
1
1
2.543
2.47212
2.40736
2.2607
1.99582
1.1885
0.999999
1
1
1
1
1
1
1
1
1
1
1
1
1
2.50563
2.45938
2.40164
2.35913
2.33185
2.11979
1.31404
0.999576
1
1
1
1
1
1
1
1
1
1
1
1
2.48313
2.45213
2.40604
2.35447
2.32875
2.2972
2.10422
1.33774
0.999358
1
1
1
1
1
1
1
1
1
1
1
2.46603
2.44197
2.40152
2.35418
2.32387
2.30575
2.27934
2.06632
1.28768
0.99928
1
1
1
1
1
1
1
1
1
1
2.45195
2.43202
2.39618
2.35019
2.32306
2.30494
2.30142
2.28627
2.00954
1.19949
0.99931
1
1
1
1
1
1
1
1
1
2.43954
2.42251
2.39117
2.34818
2.32174
2.30467
2.29277
2.27561
2.23041
1.8282
1.07914
0.99969
1
1
1
1
1
1
1
1
2.42896
2.41435
2.38709
2.34728
2.32093
2.30224
2.28824
2.2721
2.25974
2.18794
1.64397
1.01666
0.999933
1
1
1
1
1
1
1
2.42006
2.40764
2.38377
2.34656
2.31882
2.29802
2.28239
2.26621
2.25363
2.24791
2.14046
1.473
1.00082
1
1
1
1
1
1
1
2.41156
2.40113
2.37981
2.34514
2.31636
2.29278
2.27712
2.2646
2.2543
2.24714
2.22738
2.03102
1.24849
0.998932
1
1
1
1
1
1
2.40271
2.39373
2.37443
2.34234
2.31311
2.28894
2.27383
2.26222
2.25253
2.24584
2.23766
2.2168
1.77706
1.05738
0.999745
0.999999
1
1
1
1
2.39251
2.38474
2.36771
2.33812
2.30955
2.28524
2.26964
2.25691
2.24758
2.24042
2.22989
2.21282
2.1156
1.45651
1.00345
0.999985
1
1
1
1
2.38013
2.37146
2.35413
2.32527
2.29694
2.27222
2.25484
2.24165
2.23323
2.22574
2.21492
2.20106
2.20171
1.96506
1.19818
1.00073
1
1
1
1
2.3456
2.31352
2.28835
2.26072
2.23669
2.2178
2.20461
2.19637
2.19249
2.18902
2.18544
2.1803
2.18524
2.12769
1.60937
1.00287
0.999863
0.999996
1
1
1.73216
1.93091
1.99695
2.0442
2.07126
2.08302
2.0941
2.10163
2.11012
2.11887
2.12611
2.13129
2.14089
2.12746
2.02875
1.44473
1.02149
1.00013
1
1
1.33138
1.64474
1.74366
1.81947
1.89191
1.93756
1.97188
1.99525
2.01711
2.03588
2.05425
2.06959
2.08457
2.10016
2.09675
1.90395
1.28136
1.00797
1.00004
1
1.36295
1.50477
1.56692
1.64989
1.72745
1.80162
1.85135
1.89475
1.92721
1.95553
1.98311
2.00691
2.0315
2.0537
2.07546
2.04043
1.70081
1.11671
1.0016
1.00001
1.40674
1.43367
1.43809
1.52657
1.60373
1.67894
1.73813
1.79302
1.83483
1.87573
1.90726
1.94188
1.97593
2.00526
2.0303
2.02655
1.9187
1.42727
1.02612
1.00018
1.45819
1.4063
1.35958
1.41071
1.48794
1.56845
1.6399
1.69726
1.75116
1.79884
1.84151
1.87934
1.92349
1.95717
1.98225
1.99624
1.97306
1.70794
1.16199
1.00324
1.47634
1.41037
1.35969
1.37517
1.41478
1.48151
1.55733
1.62075
1.68226
1.73009
1.7861
1.82532
1.87619
1.91234
1.93248
1.95439
1.96315
1.86056
1.42539
1.0311
1.46464
1.41335
1.37039
1.35102
1.36371
1.42142
1.48993
1.551
1.61612
1.66925
1.7253
1.77573
1.81915
1.86476
1.88119
1.90722
1.93706
1.9063
1.65172
1.15567
1.45604
1.41886
1.37541
1.34027
1.32586
1.36035
1.41571
1.48381
1.54147
1.60919
1.65927
1.724
1.76502
1.81262
1.84076
1.86833
1.8999
1.89827
1.7599
1.35989
1.46443
1.43531
1.38382
1.33456
1.31044
1.3334
1.36265
1.4236
1.48361
1.55344
1.61309
1.67405
1.72662
1.76547
1.80317
1.83054
1.85918
1.88021
1.80164
1.58562
1.46375
1.43706
1.38464
1.33344
1.31463
1.32234
1.33722
1.38797
1.44463
1.50691
1.57285
1.626
1.68544
1.72387
1.76226
1.78838
1.81602
1.84743
1.82296
1.78095
1.45596
1.43048
1.38014
1.3376
1.31957
1.30967
1.31132
1.35157
1.40766
1.46172
1.52961
1.57961
1.63225
1.678
1.71966
1.75308
1.78578
1.81041
1.85024
1.93426
1.44395
1.4217
1.38079
1.34193
1.31833
1.30208
1.29447
1.31217
1.35663
1.4103
1.47585
1.53869
1.58612
1.63859
1.6828
1.72461
1.75814
1.78152
1.87166
2.06997
1.43366
1.41701
1.38501
1.34734
1.31957
1.30065
1.29181
1.30694
1.33281
1.38026
1.43469
1.50325
1.55376
1.60674
1.65001
1.69261
1.72142
1.75957
1.90603
2.18284
1.42706
1.41421
1.38475
1.35285
1.3234
1.30127
1.29328
1.30337
1.31649
1.35925
1.40576
1.46783
1.52103
1.57032
1.6177
1.65534
1.68291
1.73717
1.93702
2.26311
1.42516
1.4151
1.38445
1.35283
1.32284
1.30025
1.29497
1.2943
1.29482
1.33092
1.37516
1.42692
1.48475
1.52353
1.58442
1.62498
1.66204
1.7303
1.97247
2.30866
1.40787
1.40108
1.37769
1.34864
1.32011
1.30194
1.29584
1.28826
1.282
1.30654
1.34842
1.38927
1.45312
1.49576
1.54588
1.59729
1.64143
1.74409
2.0069
2.33897
1.35039
1.35595
1.3586
1.34175
1.32199
1.30696
1.29856
1.28749
1.28072
1.2991
1.33074
1.36629
1.41834
1.47599
1.51483
1.56608
1.61524
1.77585
2.02475
2.32681
1.27573
1.29591
1.32307
1.32805
1.32134
1.31126
1.29975
1.2871
1.27863
1.28731
1.30912
1.34832
1.38639
1.44404
1.48759
1.52893
1.59851
1.82663
2.03552
2.3054
1.21661
1.23787
1.2778
1.30392
1.31346
1.30977
1.29934
1.28729
1.28118
1.28115
1.28063
1.31613
1.35858
1.40808
1.45981
1.50776
1.61539
1.90097
2.03566
2.26453
1.19537
1.18993
1.22435
1.26624
1.29365
1.30265
1.29789
1.28986
1.28433
1.2767
1.27045
1.28982
1.33303
1.37587
1.42152
1.4833
1.66882
1.9549
2.02147
2.2023
1.18798
1.14862
1.17588
1.22372
1.26015
1.28596
1.2936
1.28931
1.2818
1.27025
1.26475
1.27759
1.30525
1.34958
1.39615
1.48973
1.75263
1.99039
1.99479
2.119
1.21036
1.15171
1.14547
1.1745
1.2178
1.25865
1.28095
1.28412
1.27631
1.26439
1.25896
1.26806
1.28413
1.31819
1.36769
1.53957
1.83241
1.97989
1.96459
2.02801
1.24666
1.16974
1.13852
1.13771
1.17545
1.22228
1.25743
1.2717
1.26963
1.2597
1.25556
1.25835
1.26257
1.28669
1.3864
1.63274
1.86154
1.95333
1.92782
1.94019
1.28277
1.19962
1.14143
1.13227
1.14032
1.1786
1.22283
1.25211
1.26187
1.25696
1.25074
1.24367
1.24108
1.29031
1.46083
1.73526
1.84625
1.91474
1.87652
1.86486
1.33977
1.26207
1.20336
1.15119
1.13398
1.13792
1.17015
1.20726
1.23438
1.24485
1.24366
1.24326
1.28031
1.42632
1.61942
1.74476
1.7818
1.82772
1.78212
1.7576
)
;

boundaryField
{
    inlet
    {
        type            fixedValue;
        value           uniform 1;
    }
    outlet
    {
        type            inletOutlet;
        inletValue      uniform 1;
        value           nonuniform List<scalar> 
35
(
1.33963
1.26195
1.20332
1.15116
1.134
1.13793
1.17015
1.20732
1.23441
1.24484
1.24357
1.24301
1.27946
1.42485
1.61817
1.74424
1.78154
1.82784
1.78216
1.75772
1.48256
1.63828
1.68597
1.51658
1.0991
0.692343
0.682973
0.745045
0.815641
0.890133
0.966654
1.0083
1.01349
1.00895
1.00232
)
;
    }
    airfoil
    {
        type            zeroGradient;
    }
    top
    {
        type            symmetryPlane;
    }
    bottom
    {
        type            symmetryPlane;
    }
    defaultFaces
    {
        type            empty;
    }
}


// ************************************************************************* //
