/*--------------------------------*- C++ -*----------------------------------*\
  =========                 |
  \\      /  F ield         | OpenFOAM: The Open Source CFD Toolbox
   \\    /   O peration     | Website:  https://openfoam.org
    \\  /    A nd           | Version:  7
     \\/     M anipulation  |
\*---------------------------------------------------------------------------*/
FoamFile
{
    version     2.0;
    format      ascii;
    class       volVectorField;
    location    "7.5";
    object      U;
}
// * * * * * * * * * * * * * * * * * * * * * * * * * * * * * * * * * * * * * //

dimensions      [0 1 -1 0 0 0 0];

internalField   nonuniform List<vector> 
1750
(
(2.60169 -0.387839 0)
(2.57745 -0.201622 0)
(2.5733 -0.0999646 0)
(2.57197 -0.073316 0)
(2.57715 -0.0798791 0)
(2.60597 0.0276197 0)
(2.64205 0.0799074 0)
(2.65681 0.088256 0)
(2.6396 0.0681745 0)
(2.64666 0.0470523 0)
(2.7653 -1.00543 0)
(2.77229 -0.905595 0)
(2.71627 -0.680779 0)
(2.76877 -0.555641 0)
(2.66099 -0.165948 0)
(2.69665 -0.0412796 0)
(2.67416 0.113877 0)
(2.65675 0.0858316 0)
(2.63517 0.0525022 0)
(2.68505 0.0257231 0)
(3.04951 -1.28953 0)
(3.09122 -1.35885 0)
(3.11792 -1.40224 0)
(3.0944 -1.31158 0)
(3.0572 -1.08991 0)
(3.02091 -0.808781 0)
(2.95573 -0.499986 0)
(2.88963 -0.255568 0)
(2.84587 -0.0762308 0)
(2.77943 0.0202815 0)
(3.08025 -1.36124 0)
(3.14055 -1.31262 0)
(3.16487 -1.27511 0)
(3.17641 -1.25883 0)
(3.16733 -1.24225 0)
(3.18008 -1.1931 0)
(3.17305 -1.16133 0)
(3.08893 -0.889489 0)
(3.04766 -0.667656 0)
(2.94671 -0.257438 0)
(3.13305 -1.00704 0)
(3.18303 -0.909955 0)
(3.18822 -0.895258 0)
(3.15397 -0.913646 0)
(3.12906 -0.961265 0)
(3.15357 -0.986871 0)
(3.17058 -0.971586 0)
(3.15214 -0.98824 0)
(3.14214 -0.972165 0)
(3.10022 -0.751051 0)
(3.13773 -0.775049 0)
(3.15346 -0.753974 0)
(3.17723 -0.806637 0)
(3.16294 -0.831367 0)
(3.13417 -0.844114 0)
(3.13151 -0.854097 0)
(3.13809 -0.856771 0)
(3.16159 -0.844616 0)
(3.16695 -0.807168 0)
(3.13951 -0.806146 0)
(3.12476 -0.580523 0)
(3.11727 -0.568411 0)
(3.12959 -0.531669 0)
(3.15941 -0.527489 0)
(3.14052 -0.556167 0)
(3.11114 -0.587257 0)
(3.1054 -0.604566 0)
(3.11498 -0.607973 0)
(3.12417 -0.627282 0)
(3.11447 -0.674681 0)
(3.01026 -0.152042 0)
(3.04538 -0.275257 0)
(3.04257 -0.362219 0)
(3.06678 -0.358877 0)
(3.09025 -0.372084 0)
(3.08068 -0.385234 0)
(3.06485 -0.449213 0)
(3.06331 -0.501245 0)
(3.06964 -0.52664 0)
(3.08618 -0.55585 0)
(2.93757 -0.0119649 0)
(2.9347 0.0156552 0)
(2.95532 -0.0671171 0)
(2.97042 -0.140225 0)
(2.98976 -0.186007 0)
(3.01199 -0.22443 0)
(3.01408 -0.228297 0)
(3.01248 -0.283316 0)
(3.01964 -0.327678 0)
(3.03701 -0.356608 0)
(2.79741 0.274449 0)
(2.81859 0.23994 0)
(2.84973 0.18151 0)
(2.87176 0.114322 0)
(2.89089 0.0624513 0)
(2.92736 -0.0177155 0)
(2.94854 -0.0681231 0)
(2.95952 -0.0977067 0)
(2.97321 -0.148832 0)
(2.99341 -0.217686 0)
(2.6923 0.50707 0)
(2.71143 0.483599 0)
(2.73816 0.441427 0)
(2.76734 0.384049 0)
(2.80117 0.306448 0)
(2.82408 0.253239 0)
(2.8655 0.166428 0)
(2.89566 0.102513 0)
(2.91876 0.0432016 0)
(2.94606 -0.0421917 0)
(2.69594 0.524019 0)
(2.70143 0.515934 0)
(2.70571 0.499023 0)
(2.71126 0.491932 0)
(2.72504 0.479084 0)
(2.74317 0.455546 0)
(2.77111 0.411177 0)
(2.80167 0.357537 0)
(2.83627 0.283617 0)
(2.88097 0.173629 0)
(2.80801 0.359401 0)
(2.80083 0.370836 0)
(2.75501 0.438964 0)
(2.74443 0.45369 0)
(2.74325 0.46224 0)
(2.74392 0.467242 0)
(2.74616 0.466196 0)
(2.75331 0.457949 0)
(2.76431 0.440879 0)
(2.80323 0.38702 0)
(2.96366 0.0717245 0)
(2.95025 0.0953966 0)
(2.91076 0.165133 0)
(2.88864 0.205523 0)
(2.84059 0.297186 0)
(2.8259 0.330867 0)
(2.80398 0.390411 0)
(2.78479 0.410636 0)
(2.80045 0.429708 0)
(2.79369 0.414154 0)
(2.99888 0.00169153 0)
(2.99769 0.00323399 0)
(2.99372 0.0084584 0)
(2.98692 0.0165729 0)
(2.97029 0.0378136 0)
(2.94677 0.0623819 0)
(2.90729 0.111359 0)
(2.86065 0.145172 0)
(2.81237 0.202014 0)
(2.74814 0.227293 0)
(2.67435 -1.07798 0)
(2.76057 -1.0655 0)
(2.95669 -1.20786 0)
(3.05601 -1.38876 0)
(3.11842 -1.06188 0)
(3.14003 -0.8257 0)
(3.13632 -0.513156 0)
(3.03268 -0.14946 0)
(2.91763 0.0432218 0)
(2.75119 0.373376 0)
(2.67961 0.513191 0)
(2.69836 0.51452 0)
(2.82697 0.315679 0)
(2.97921 0.0375625 0)
(2.99948 0.000766812 0)
(2.62109 -1.08355 0)
(2.75042 -1.08977 0)
(2.99489 -1.24379 0)
(3.0646 -1.36607 0)
(3.15656 -1.0343 0)
(3.18287 -0.749038 0)
(3.11133 -0.254795 0)
(3.02007 -0.141246 0)
(2.83692 0.231913 0)
(2.70303 0.458423 0)
(2.66698 0.52634 0)
(2.72799 0.449028 0)
(2.90903 0.170897 0)
(2.99213 0.0149278 0)
(2.99985 0.00021674 0)
(2.52004 -1.10677 0)
(2.72242 -1.15386 0)
(3.0228 -1.15955 0)
(3.10215 -1.2735 0)
(3.22127 -0.949643 0)
(3.16742 -0.438997 0)
(3.07169 -0.209715 0)
(2.96823 -0.0362104 0)
(2.78259 0.316745 0)
(2.66699 0.520788 0)
(2.65806 0.5435 0)
(2.77324 0.402556 0)
(2.93723 0.131055 0)
(2.99712 0.00607135 0)
(2.99996 7.08673e-05 0)
(2.4118 -1.15805 0)
(2.69196 -1.23148 0)
(3.07597 -1.11675 0)
(3.2048 -1.15786 0)
(3.19395 -0.708549 0)
(3.09135 -0.307798 0)
(3.03803 -0.273881 0)
(2.86948 0.151647 0)
(2.76329 0.345847 0)
(2.64308 0.567345 0)
(2.65069 0.566226 0)
(2.78429 0.418599 0)
(2.96202 0.0823885 0)
(2.99886 0.00247797 0)
(2.99999 2.44692e-05 0)
(2.3433 -1.21742 0)
(2.69826 -1.30258 0)
(3.15763 -1.02079 0)
(3.13786 -1.07018 0)
(3.11323 -0.713901 0)
(3.07874 -0.403849 0)
(3.01551 -0.147426 0)
(2.82504 0.254424 0)
(2.69949 0.471429 0)
(2.63063 0.586364 0)
(2.67459 0.575885 0)
(2.83903 0.30258 0)
(2.98394 0.032044 0)
(2.99963 0.000769021 0)
(3 7.21802e-06 0)
(2.28688 -1.23994 0)
(2.79628 -1.49678 0)
(3.06858 -1.14633 0)
(3.05189 -1.07764 0)
(3.07064 -0.660466 0)
(3.06756 -0.386092 0)
(2.90099 0.156609 0)
(2.8109 0.28936 0)
(2.6454 0.553961 0)
(2.63265 0.580407 0)
(2.70539 0.477615 0)
(2.92128 0.149132 0)
(2.99429 0.0119783 0)
(2.9999 0.000199095 0)
(3 1.82776e-06 0)
(2.26172 -1.21152 0)
(2.71068 -1.53243 0)
(2.98537 -1.22728 0)
(3.08847 -0.941402 0)
(3.09705 -0.378807 0)
(3.0371 -0.07135 0)
(2.86697 0.258102 0)
(2.72259 0.447803 0)
(2.61973 0.589509 0)
(2.63693 0.564246 0)
(2.7983 0.359274 0)
(2.95577 0.09225 0)
(2.99841 0.0032554 0)
(2.99998 4.51935e-05 0)
(3 4.05049e-07 0)
(2.27351 -1.22722 0)
(2.63248 -1.50187 0)
(2.95563 -1.20235 0)
(3.09541 -0.405145 0)
(3.11893 -0.254089 0)
(2.9015 0.19598 0)
(2.8199 0.281897 0)
(2.64226 0.555844 0)
(2.60518 0.608512 0)
(2.65858 0.533917 0)
(2.83156 0.312886 0)
(2.9839 0.0334005 0)
(2.99962 0.000807299 0)
(2.99999 1.02228e-05 0)
(3 8.63821e-08 0)
(2.19083 -1.0755 0)
(2.56908 -1.43893 0)
(3.02998 -0.786515 0)
(3.0626 -0.234141 0)
(3.03887 -0.191816 0)
(2.86789 0.225755 0)
(2.72402 0.454675 0)
(2.60186 0.610736 0)
(2.60174 0.612673 0)
(2.68652 0.538964 0)
(2.91859 0.156939 0)
(2.99565 0.00938361 0)
(2.99992 0.000185054 0)
(3 2.07996e-06 0)
(3 1.71433e-08 0)
(2.03381 -0.758346 0)
(2.55668 -1.36583 0)
(2.98737 -0.42264 0)
(3.034 -0.33542 0)
(2.93231 0.1036 0)
(2.80954 0.354086 0)
(2.63945 0.575567 0)
(2.57894 0.643827 0)
(2.60838 0.608687 0)
(2.79286 0.361302 0)
(2.97459 0.0545644 0)
(2.99909 0.0022551 0)
(2.99999 3.22317e-05 0)
(3 3.58407e-07 0)
(3 2.92067e-09 0)
(1.65598 -0.244638 0)
(2.6481 -0.792264 0)
(3.02019 -0.441681 0)
(2.98326 -0.0434183 0)
(2.81985 0.342471 0)
(2.68721 0.557857 0)
(2.59058 0.63718 0)
(2.57209 0.654216 0)
(2.66556 0.535347 0)
(2.91228 0.174441 0)
(2.99314 0.0180181 0)
(2.99984 0.000376183 0)
(3 5.07907e-06 0)
(3 5.39713e-08 0)
(3 4.3084e-10 0)
(1.40785 0.385053 0)
(2.74533 -0.419266 0)
(3.02689 -0.20303 0)
(2.83302 0.347638 0)
(2.74007 0.465929 0)
(2.61821 0.628027 0)
(2.5701 0.662808 0)
(2.57259 0.656115 0)
(2.75738 0.401919 0)
(2.95564 0.0903888 0)
(2.99852 0.00334529 0)
(2.99997 5.91529e-05 0)
(3 7.18866e-07 0)
(3 7.23222e-09 0)
(3 5.54261e-11 0)
(1.47215 0.798838 0)
(2.85481 -0.0801728 0)
(2.9048 0.277748 0)
(2.74975 0.490449 0)
(2.63093 0.612451 0)
(2.5752 0.665629 0)
(2.56295 0.669717 0)
(2.67897 0.4888 0)
(2.89604 0.184382 0)
(2.99364 0.013873 0)
(2.99982 0.000403534 0)
(3 6.51354e-06 0)
(3 7.87959e-08 0)
(3 7.89844e-10 0)
(3 5.95139e-12 0)
(2.08345 0.646238 0)
(2.94139 0.283422 0)
(2.76598 0.513144 0)
(2.6411 0.626625 0)
(2.57356 0.676876 0)
(2.56527 0.672371 0)
(2.57466 0.628265 0)
(2.77832 0.350434 0)
(2.97529 0.0474621 0)
(2.99924 0.00187332 0)
(2.99999 3.3982e-05 0)
(3 4.39843e-07 0)
(3 4.93375e-09 0)
(3 4.76585e-11 0)
(3 3.55794e-13 0)
(2.42308 0.645531 0)
(2.7715 0.572815 0)
(2.62806 0.653885 0)
(2.57034 0.69882 0)
(2.55895 0.691184 0)
(2.55955 0.666326 0)
(2.73038 0.399697 0)
(2.94225 0.103002 0)
(2.99746 0.0054673 0)
(2.99995 0.000106464 0)
(3 1.45175e-06 0)
(3 1.69022e-08 0)
(3 1.56147e-10 0)
(3 1.15611e-12 0)
(3 6.52307e-15 0)
(2.52765 0.693078 0)
(2.54383 0.697608 0)
(2.55974 0.706799 0)
(2.55423 0.708948 0)
(2.56308 0.688672 0)
(2.59319 0.64762 0)
(2.90429 0.14546 0)
(3.00554 -0.00965737 0)
(3.00052 -0.000759731 0)
(3.00001 -1.67521e-05 0)
(3 -1.19468e-07 0)
(3 -7.57834e-10 0)
(3 -5.11219e-12 0)
(3 -3.61796e-14 0)
(3 1.90946e-16 0)
(2.52286 0.682924 0)
(2.54837 0.676816 0)
(2.56103 0.704886 0)
(2.5408 0.732064 0)
(2.58579 0.664137 0)
(2.66346 0.532845 0)
(2.91872 0.13669 0)
(2.99756 0.00401316 0)
(2.99998 4.05797e-05 0)
(3 2.70334e-07 0)
(3 1.85762e-09 0)
(3 1.36168e-11 0)
(3 1.00788e-13 0)
(3 1.11611e-15 0)
(3 3.51645e-16 0)
(2.53362 0.69377 0)
(2.55151 0.664982 0)
(2.5548 0.715878 0)
(2.52433 0.773066 0)
(2.62334 0.625502 0)
(2.83485 0.278469 0)
(2.99146 0.0125063 0)
(2.99995 7.14816e-05 0)
(3 1.22289e-07 0)
(3 5.87267e-10 0)
(3 6.51345e-12 0)
(3 1.17469e-13 0)
(3 7.2137e-16 0)
(3 -2.25068e-16 0)
(3 1.81716e-16 0)
(2.53053 0.704945 0)
(2.55371 0.66867 0)
(2.55332 0.719243 0)
(2.5232 0.786556 0)
(2.61539 0.622469 0)
(2.88333 0.17163 0)
(2.99726 0.00432297 0)
(2.99999 8.52627e-06 0)
(3 2.9758e-08 0)
(3 4.78751e-11 0)
(3 2.54882e-12 0)
(3 7.53817e-14 0)
(3 1.02619e-15 0)
(3 3.38772e-16 0)
(3 7.22721e-17 0)
(2.52468 0.716916 0)
(2.52971 0.707027 0)
(2.55316 0.722455 0)
(2.561 0.738862 0)
(2.73223 0.413465 0)
(2.97208 0.034991 0)
(2.99982 0.000194839 0)
(3 8.75612e-07 0)
(3 -1.32789e-09 0)
(3 2.14613e-11 0)
(3 2.09746e-12 0)
(3 4.71885e-14 0)
(3 -1.06708e-15 0)
(3 -4.86475e-16 0)
(3 -1.48923e-16 0)
(2.5128 0.740187 0)
(2.5093 0.752591 0)
(2.54926 0.725734 0)
(2.63805 0.615235 0)
(2.87422 0.193601 0)
(2.99596 0.0059949 0)
(2.99998 2.64983e-05 0)
(3 -7.28254e-08 0)
(3 1.67074e-10 0)
(3 1.82742e-11 0)
(3 2.16601e-12 0)
(3 6.60921e-15 0)
(3 -2.59185e-15 0)
(3 -4.92729e-16 0)
(3 -2.0895e-17 0)
(2.51544 0.729683 0)
(2.4537 0.807901 0)
(2.54806 0.732877 0)
(2.66868 0.550394 0)
(2.95616 0.0642476 0)
(2.99964 0.000459412 0)
(3 -6.80404e-07 0)
(3 3.46372e-09 0)
(3 1.35191e-10 0)
(3 7.96568e-12 0)
(3 1.00319e-14 0)
(3 -2.90725e-15 0)
(3 -2.40115e-15 0)
(3 -3.04333e-16 0)
(3 2.83875e-16 0)
(2.47878 0.726162 0)
(2.41767 0.860516 0)
(2.68784 0.631102 0)
(2.87453 0.250813 0)
(2.99456 0.00758481 0)
(2.99998 2.5726e-05 0)
(3 2.47604e-07 0)
(3 8.03602e-10 0)
(3 -5.93042e-13 0)
(3 -4.69379e-14 0)
(3 -8.66368e-16 0)
(3 -2.66216e-15 0)
(3 -3.30433e-15 0)
(3 -3.47828e-16 0)
(3 4.78322e-16 0)
(2.48554 0.676475 0)
(2.44883 0.923364 0)
(2.77616 0.478029 0)
(2.96233 0.068977 0)
(2.99955 0.00066881 0)
(3 9.76128e-07 0)
(3 -4.73396e-09 0)
(3 -7.87526e-12 0)
(3 -9.14234e-13 0)
(3 -8.84167e-15 0)
(3 -3.91906e-16 0)
(3 -3.37525e-15 0)
(3 -2.80859e-15 0)
(3 -9.62042e-17 0)
(3 7.0322e-16 0)
(2.53803 0.600497 0)
(2.50047 0.835418 0)
(2.87572 0.238565 0)
(2.99392 0.010664 0)
(2.99998 2.06974e-05 0)
(3 -5.81585e-09 0)
(3 3.59118e-10 0)
(3 1.41045e-12 0)
(3 -4.22342e-14 0)
(3 -1.92973e-15 0)
(3 -5.20497e-16 0)
(3 -3.20114e-15 0)
(3 -2.83543e-15 0)
(3 8.63847e-17 0)
(3 9.58419e-16 0)
(2.57719 0.48136 0)
(2.65251 0.615966 0)
(2.95609 0.0798143 0)
(2.99934 0.00100734 0)
(3 4.23537e-06 0)
(3 2.7321e-08 0)
(3 2.11899e-12 0)
(3 -1.90587e-14 0)
(3 -3.739e-14 0)
(3 1.07269e-15 0)
(3 2.17118e-16 0)
(3 -2.30603e-15 0)
(3 -3.24099e-15 0)
(3 -6.89544e-16 0)
(3 6.89293e-16 0)
(2.63302 0.376556 0)
(2.76595 0.39211 0)
(2.98747 0.0208982 0)
(2.99991 0.000141242 0)
(3 -9.66063e-09 0)
(3 -9.99816e-10 0)
(3 1.56383e-12 0)
(3 5.54019e-14 0)
(3 3.46023e-15 0)
(3 1.62933e-15 0)
(3 2.24536e-15 0)
(3 -9.65279e-16 0)
(3 -2.59881e-15 0)
(3 -1.11082e-15 0)
(3 1.38529e-16 0)
(2.72314 0.240538 0)
(2.88074 0.192835 0)
(2.99741 0.00399604 0)
(2.99999 9.29801e-06 0)
(3 3.8072e-08 0)
(3 8.88156e-11 0)
(3 -1.21643e-12 0)
(3 -9.22668e-14 0)
(3 -1.17261e-15 0)
(3 1.47512e-15 0)
(3 1.90603e-15 0)
(3 -1.35387e-15 0)
(3 -1.68277e-15 0)
(3 -5.48024e-16 0)
(3 1.09642e-16 0)
(2.81108 0.121106 0)
(2.95774 0.0633275 0)
(2.99963 0.000524366 0)
(3 1.67567e-06 0)
(3 5.39884e-09 0)
(3 2.17531e-11 0)
(3 8.60957e-14 0)
(3 5.42393e-16 0)
(3 -6.03971e-16 0)
(3 6.19014e-16 0)
(3 1.48834e-15 0)
(3 -1.36781e-15 0)
(3 -9.23966e-16 0)
(3 -1.25228e-16 0)
(3 1.09314e-16 0)
(2.91544 0.0228729 0)
(2.99222 0.0108285 0)
(2.99997 3.22643e-05 0)
(3 -1.25849e-08 0)
(3 -1.32359e-10 0)
(3 -5.92388e-13 0)
(3 -7.43506e-15 0)
(3 1.55876e-15 0)
(3 -2.32957e-17 0)
(3 4.44435e-16 0)
(3 9.36631e-16 0)
(3 -1.49084e-15 0)
(3 -8.92491e-16 0)
(3 4.28897e-16 0)
(3 3.65618e-16 0)
(3 -1.43814e-15 0)
(3 -4.36119e-16 0)
(3 -9.3567e-16 0)
(3 1.60969e-15 0)
(3 5.61723e-15 0)
(3 3.5497e-15 0)
(3 1.24271e-15 0)
(3 6.08722e-16 0)
(3 4.37451e-16 0)
(3 1.81026e-15 0)
(3 3.09295e-16 0)
(3 -2.1711e-15 0)
(3 -1.31111e-15 0)
(3 9.15227e-16 0)
(3 9.80717e-16 0)
(3 -1.04487e-15 0)
(3 -1.17725e-15 0)
(3 1.63559e-16 0)
(3 2.79941e-15 0)
(3 5.70753e-15 0)
(3 3.48983e-15 0)
(3 5.69353e-16 0)
(3 5.1844e-16 0)
(3 5.83681e-16 0)
(3 1.40713e-15 0)
(3 -2.33825e-16 0)
(3 -3.14066e-15 0)
(3 -1.49622e-15 0)
(3 1.51302e-15 0)
(3 1.66003e-15 0)
(3 -7.98967e-16 0)
(3 -9.10385e-16 0)
(3 -3.69962e-16 0)
(3 1.94406e-15 0)
(3 3.9929e-15 0)
(3 3.87348e-15 0)
(3 6.33838e-16 0)
(3 -8.31731e-17 0)
(3 1.53903e-16 0)
(3 3.20282e-16 0)
(3 -7.28721e-16 0)
(3 -2.71266e-15 0)
(3 -1.29983e-15 0)
(3 1.59836e-15 0)
(3 1.84655e-15 0)
(3 -1.49131e-15 0)
(3 -4.71079e-16 0)
(3 9.29809e-16 0)
(3 2.82392e-15 0)
(3 4.62816e-15 0)
(3 3.22214e-15 0)
(3 2.31222e-16 0)
(3 -3.71856e-17 0)
(3 -1.89451e-16 0)
(3 -4.09587e-16 0)
(3 -1.13946e-15 0)
(3 -1.87601e-15 0)
(3 -1.12914e-15 0)
(3 7.07032e-16 0)
(3 1.4599e-15 0)
(3 -2.0868e-15 0)
(3 -2.54614e-16 0)
(3 3.24378e-15 0)
(3 4.43348e-15 0)
(3 4.20229e-15 0)
(3 1.34676e-15 0)
(3 9.42357e-16 0)
(3 6.67219e-16 0)
(3 -4.89195e-16 0)
(3 -8.78013e-16 0)
(3 -1.73433e-15 0)
(3 -1.68293e-15 0)
(3 -9.00315e-16 0)
(3 1.5573e-16 0)
(3 1.0904e-15 0)
(3 -1.38106e-15 0)
(3 5.9518e-16 0)
(3 2.75902e-15 0)
(3 4.02022e-15 0)
(3 2.40741e-15 0)
(3 8.72225e-16 0)
(3 9.63458e-16 0)
(3 1.05323e-15 0)
(3 -1.34697e-16 0)
(3 -7.64578e-16 0)
(3 -1.7044e-15 0)
(3 -2.20679e-15 0)
(3 -1.71932e-15 0)
(3 2.76957e-16 0)
(3 1.17757e-15 0)
(3 1.39423e-16 0)
(3 -2.12328e-16 0)
(3 5.94174e-16 0)
(3 1.43967e-15 0)
(3 1.6458e-15 0)
(3 4.95688e-17 0)
(3 5.34987e-16 0)
(3 1.44896e-15 0)
(3 3.05614e-17 0)
(3 -8.61766e-17 0)
(3 -9.35754e-16 0)
(3 -2.40637e-15 0)
(3 -2.12005e-15 0)
(3 -1.21754e-16 0)
(3 1.17357e-15 0)
(3 1.43822e-15 0)
(3 1.19083e-16 0)
(3 -8.87621e-16 0)
(3 -6.27326e-17 0)
(3 3.65299e-16 0)
(3 -1.15756e-16 0)
(3 7.01319e-16 0)
(3 1.7499e-15 0)
(3 -1.52129e-17 0)
(3 7.18518e-17 0)
(3 8.00464e-17 0)
(3 -1.44789e-15 0)
(3 -2.11092e-15 0)
(3 -2.39623e-16 0)
(3 8.92936e-16 0)
(3 1.07628e-15 0)
(3 6.5628e-16 0)
(3 -3.23875e-16 0)
(3 -1.0866e-15 0)
(3 -9.36368e-16 0)
(3 -4.61301e-16 0)
(3 6.1947e-16 0)
(3 2.20926e-15 0)
(3 1.88221e-16 0)
(3 -1.79769e-16 0)
(3 3.1398e-16 0)
(3 -6.67092e-16 0)
(3 -1.22189e-15 0)
(3 -1.59629e-16 0)
(3 3.50286e-16 0)
(3 4.81413e-16 0)
(3 -5.45821e-16 0)
(3 -7.28897e-16 0)
(3 -4.03831e-16 0)
(3 -3.31053e-16 0)
(3 4.47632e-17 0)
(3 3.31499e-16 0)
(3 8.15661e-16 0)
(3 3.65281e-17 0)
(3 -3.15728e-16 0)
(3 -2.03662e-17 0)
(3 1.29114e-16 0)
(3 -5.57685e-16 0)
(3 -1.80864e-16 0)
(3 1.57042e-16 0)
(3 2.01619e-15 0)
(3 1.23921e-15 0)
(3 -3.84864e-17 0)
(3 -6.0778e-16 0)
(3 -1.36098e-15 0)
(3 -5.1825e-16 0)
(3 1.43474e-15 0)
(3 1.55005e-15 0)
(3 6.81205e-17 0)
(3 1.4036e-15 0)
(3 2.71112e-15 0)
(3 1.09651e-15 0)
(3 1.79284e-16 0)
(3 -2.55674e-16 0)
(3 -7.66153e-16 0)
(3 5.18894e-16 0)
(3 1.08184e-15 0)
(3 1.82198e-15 0)
(3 1.82131e-15 0)
(3 1.96079e-15 0)
(3 1.95432e-15 0)
(3 1.96251e-15 0)
(3 9.72635e-16 0)
(3 -7.13421e-16 0)
(3 -3.20952e-16 0)
(3 4.84932e-17 0)
(3 8.17339e-16 0)
(3 1.47546e-15 0)
(3 2.79842e-15 0)
(3 6.66731e-16 0)
(3 -7.14731e-16 0)
(3 -3.52275e-16 0)
(3 2.37102e-16 0)
(3 6.07496e-16 0)
(3 -4.35738e-16 0)
(3 -1.3125e-15 0)
(3 -9.45935e-16 0)
(3 -7.62445e-16 0)
(3 -1.2605e-17 0)
(3 -1.05506e-15 0)
(3 -1.37298e-15 0)
(3 -1.03724e-15 0)
(3 6.0456e-16 0)
(3 7.32589e-16 0)
(3 -1.06127e-15 0)
(3 -1.75339e-15 0)
(3 -1.46258e-15 0)
(3 -8.4819e-16 0)
(3 -1.10482e-15 0)
(3 -1.25446e-15 0)
(3 -6.70179e-16 0)
(3 -1.63237e-16 0)
(3 -8.86537e-16 0)
(3 -5.21021e-16 0)
(3 -1.24149e-15 0)
(3 -7.85555e-16 0)
(3 4.03251e-16 0)
(3 9.64645e-16 0)
(3 -1.83904e-16 0)
(3 -1.21038e-15 0)
(3 -2.38712e-15 0)
(3 -2.83271e-15 0)
(3 -3.96177e-15 0)
(3 -3.73506e-15 0)
(3 -2.19364e-15 0)
(3 -1.18759e-15 0)
(3 -9.48067e-16 0)
(3 -1.23418e-15 0)
(3 -9.93551e-16 0)
(3 -6.05359e-16 0)
(3 -2.75929e-15 0)
(3 -3.56646e-15 0)
(3 -4.50693e-15 0)
(3 -5.283e-15 0)
(3 -3.76848e-15 0)
(3 -3.31263e-15 0)
(3 -3.46201e-15 0)
(3 -3.29765e-15 0)
(3 -1.63362e-15 0)
(3 3.43984e-16 0)
(3 -2.95996e-15 0)
(3 -2.99924e-15 0)
(3 -2.56273e-15 0)
(3 -1.71349e-15 0)
(3 -2.06212e-15 0)
(3 -1.60857e-15 0)
(3 -1.78946e-15 0)
(3 -1.60477e-15 0)
(3 1.7725e-16 0)
(3 8.64036e-16 0)
(3 -1.07958e-15 0)
(3 -2.05117e-15 0)
(3 -2.08274e-15 0)
(3 -2.82685e-16 0)
(3 -8.24593e-17 0)
(3 -3.10792e-16 0)
(3 -1.62282e-16 0)
(3 6.72705e-17 0)
(3 9.65917e-16 0)
(3 8.41679e-16 0)
(3 -8.10673e-16 0)
(3 5.34612e-16 0)
(3 1.28406e-15 0)
(3 8.66312e-16 0)
(3 8.86966e-16 0)
(3 2.21628e-16 0)
(3 7.25031e-16 0)
(3 7.00717e-16 0)
(3 6.74972e-16 0)
(3 -3.68478e-16 0)
(3 -1.56807e-16 0)
(3 8.55228e-17 0)
(3 9.553e-16 0)
(3 7.05622e-16 0)
(3 -6.67879e-16 0)
(3 -8.58714e-16 0)
(3 -4.56418e-17 0)
(3 2.48975e-16 0)
(3 -2.59932e-16 0)
(3 -1.15823e-15 0)
(3 -1.93629e-16 0)
(3 -4.34903e-17 0)
(3 2.05922e-16 0)
(3 -1.46825e-16 0)
(3 -4.67037e-16 0)
(3 -3.92278e-16 0)
(3 -6.08433e-16 0)
(3 -7.24484e-16 0)
(3 -1.00327e-15 0)
(3 2.55173e-16 0)
(3 2.97636e-16 0)
(3 6.22067e-16 0)
(3 5.45475e-16 0)
(3 4.89502e-16 0)
(3 1.24487e-15 0)
(3 1.025e-15 0)
(3 1.08054e-15 0)
(3 1.06206e-15 0)
(3 8.15224e-16 0)
(3 7.16295e-16 0)
(3 -1.25019e-16 0)
(3 -5.35184e-17 0)
(3 -1.17542e-16 0)
(3 -1.17867e-17 0)
(3 5.69911e-16 0)
(3 5.95496e-16 0)
(3 7.41012e-16 0)
(3 8.46051e-16 0)
(3 6.20432e-16 0)
(3 9.81715e-17 0)
(3 6.95038e-16 0)
(3 -2.41379e-17 0)
(3 2.90626e-17 0)
(3 9.57698e-17 0)
(3 1.48035e-16 0)
(3 -2.49922e-16 0)
(3 -1.31372e-15 0)
(3 -1.3682e-15 0)
(3 -6.409e-16 0)
(3 -1.95988e-16 0)
(3 9.1135e-16 0)
(3 4.90018e-16 0)
(3 4.13896e-16 0)
(3 2.86821e-16 0)
(3 -1.85382e-16 0)
(3 -1.31919e-15 0)
(3 -1.72797e-15 0)
(3 -2.02099e-15 0)
(3 -1.30189e-15 0)
(3 -1.16236e-15 0)
(3 1.11943e-15 0)
(3 1.64378e-15 0)
(3 2.37685e-15 0)
(3 2.73986e-15 0)
(3 2.48464e-15 0)
(3 2.56984e-15 0)
(3 2.66896e-15 0)
(3 2.04584e-15 0)
(3 8.21215e-16 0)
(3 5.11442e-16 0)
(3 4.04924e-16 0)
(3 3.77137e-16 0)
(3 1.07738e-15 0)
(3 1.82744e-15 0)
(3 2.00037e-15 0)
(3 2.53315e-15 0)
(3 3.2358e-15 0)
(3 2.56716e-15 0)
(3 2.00304e-15 0)
(3 3.44868e-16 0)
(3 -5.76301e-16 0)
(3 -7.77048e-16 0)
(3 -7.20904e-16 0)
(3 -4.40877e-16 0)
(3 -7.16547e-17 0)
(3 2.42892e-16 0)
(3 2.06449e-16 0)
(3 -4.62152e-17 0)
(3 -1.0965e-16 0)
(3 -3.10088e-16 0)
(2.84799 -0.0476988 0)
(2.99342 -0.00845733 0)
(3 2.7669e-09 0)
(3 5.42208e-15 0)
(3 -1.49649e-15 0)
(3 -8.38387e-16 0)
(3 -2.06364e-15 0)
(3 -3.27425e-16 0)
(3 -1.48548e-15 0)
(3 -3.03881e-16 0)
(3 -8.50912e-16 0)
(3 -6.34589e-16 0)
(3 -4.65483e-16 0)
(3 8.2524e-16 0)
(3 -8.47303e-16 0)
(3 1.38961e-15 0)
(3 9.8913e-16 0)
(3 9.52072e-16 0)
(3 5.24048e-16 0)
(3 -4.08647e-16 0)
(2.60694 -0.281403 0)
(2.89079 -0.135329 0)
(3.00029 0.000322606 0)
(3 -1.18144e-06 0)
(3 2.01854e-09 0)
(3 1.54201e-11 0)
(3 -2.18429e-14 0)
(3 -1.93153e-16 0)
(3 3.88572e-16 0)
(3 1.51299e-16 0)
(3 -3.3683e-15 0)
(3 -2.78201e-15 0)
(3 5.09733e-16 0)
(3 3.65214e-16 0)
(3 -3.3578e-16 0)
(3 1.54819e-15 0)
(3 1.08177e-15 0)
(3 1.61058e-15 0)
(3 4.60372e-16 0)
(3 -7.38252e-16 0)
(2.5121 -0.498806 0)
(2.71317 -0.444418 0)
(2.99529 -0.00634339 0)
(3.00002 2.81575e-05 0)
(3 -4.42728e-10 0)
(3 5.81806e-12 0)
(3 3.5757e-14 0)
(3 9.74101e-16 0)
(3 3.57633e-16 0)
(3 -1.01779e-15 0)
(3 -4.47593e-15 0)
(3 -2.8449e-15 0)
(3 5.52668e-16 0)
(3 6.3502e-16 0)
(3 2.64735e-16 0)
(3 1.86513e-15 0)
(3 1.28881e-15 0)
(3 2.27516e-15 0)
(3 5.2992e-16 0)
(3 -8.33626e-16 0)
(2.29228 -0.740332 0)
(2.25176 -0.997099 0)
(2.87374 -0.203588 0)
(2.99974 -0.000466345 0)
(3 -3.03884e-10 0)
(3 7.03455e-12 0)
(3 2.54633e-13 0)
(3 7.5719e-16 0)
(3 -8.79208e-16 0)
(3 -2.06395e-15 0)
(3 -4.89426e-15 0)
(3 -2.36099e-15 0)
(3 -1.51658e-16 0)
(3 1.80874e-15 0)
(3 1.92659e-15 0)
(3 1.56761e-15 0)
(3 1.14837e-15 0)
(3 3.28512e-15 0)
(3 1.25801e-15 0)
(3 -7.91459e-16 0)
(2.18325 -0.85593 0)
(2.10347 -1.06369 0)
(2.62053 -0.661034 0)
(2.95007 -0.106315 0)
(3.00002 0.000180531 0)
(3 2.93067e-07 0)
(3 3.71131e-10 0)
(3 4.3961e-13 0)
(3 -2.20325e-15 0)
(3 -2.37482e-15 0)
(3 -5.08283e-15 0)
(3 -3.32414e-15 0)
(3 3.53441e-16 0)
(3 3.23782e-15 0)
(3 2.44377e-15 0)
(3 1.89775e-15 0)
(3 1.00833e-15 0)
(3 2.86533e-15 0)
(3 1.5336e-15 0)
(3 -5.50238e-16 0)
(2.20405 -0.905423 0)
(2.13249 -1.02776 0)
(2.30174 -0.953718 0)
(2.52138 -0.632805 0)
(2.95621 -0.0499535 0)
(3.0001 0.000148164 0)
(3 9.1273e-07 0)
(3 -9.41308e-10 0)
(3 -2.1238e-11 0)
(3 2.8754e-14 0)
(3 -3.36447e-15 0)
(3 -2.3565e-15 0)
(3 -1.01711e-16 0)
(3 1.5635e-15 0)
(3 2.17813e-15 0)
(3 3.17881e-15 0)
(3 6.66344e-16 0)
(3 2.27846e-15 0)
(3 1.1148e-15 0)
(3 -5.95595e-16 0)
(2.22792 -0.913294 0)
(2.19477 -0.957206 0)
(2.23968 -0.922932 0)
(2.36485 -0.840268 0)
(2.72766 -0.363909 0)
(2.99212 -0.0105298 0)
(3.00002 3.05301e-05 0)
(3 9.59162e-07 0)
(3 3.13037e-09 0)
(3 -7.97438e-12 0)
(3 -2.95512e-13 0)
(3 -1.44042e-15 0)
(3 -6.32948e-16 0)
(3 -1.31821e-17 0)
(3 2.61755e-15 0)
(3 3.69033e-15 0)
(3 6.84422e-16 0)
(3 1.9077e-15 0)
(3 8.40779e-16 0)
(3 -4.28348e-16 0)
(2.24573 -0.892093 0)
(2.25374 -0.880488 0)
(2.25866 -0.906762 0)
(2.25293 -0.935477 0)
(2.41673 -0.735577 0)
(2.87005 -0.158013 0)
(2.99936 -0.000852022 0)
(3 -5.18379e-07 0)
(3 1.82764e-09 0)
(3 1.52792e-10 0)
(3 7.35876e-13 0)
(3 3.54072e-15 0)
(3 -4.91374e-16 0)
(3 -1.83281e-16 0)
(3 1.45398e-15 0)
(3 3.74043e-15 0)
(3 1.283e-15 0)
(3 4.84196e-16 0)
(3 5.03512e-16 0)
(3 -1.52646e-16 0)
(2.25484 -0.88363 0)
(2.27624 -0.861474 0)
(2.27926 -0.894579 0)
(2.26063 -0.942018 0)
(2.25207 -0.927127 0)
(2.50285 -0.576112 0)
(2.94932 -0.0555674 0)
(3.00003 3.5514e-05 0)
(3 1.15435e-06 0)
(3 -3.68808e-10 0)
(3 -8.98006e-12 0)
(3 -6.41114e-13 0)
(3 -8.05509e-15 0)
(3 3.52552e-16 0)
(3 -1.25675e-18 0)
(3 2.45772e-15 0)
(3 2.06074e-15 0)
(3 -3.94864e-16 0)
(3 1.62294e-16 0)
(3 6.87822e-17 0)
(2.25878 -0.88239 0)
(2.27616 -0.873853 0)
(2.28648 -0.890118 0)
(2.26854 -0.90998 0)
(2.25353 -0.887077 0)
(2.38647 -0.75163 0)
(2.782 -0.272363 0)
(2.99611 -0.00504805 0)
(3.00001 6.53549e-06 0)
(3 6.26742e-07 0)
(3 1.22481e-09 0)
(3 -2.72441e-12 0)
(3 -1.52384e-13 0)
(3 -1.36311e-15 0)
(3 -1.27798e-15 0)
(3 -3.04365e-17 0)
(3 2.11311e-15 0)
(3 -4.22086e-16 0)
(3 -2.66949e-16 0)
(3 1.05053e-16 0)
(2.25727 -0.883271 0)
(2.27032 -0.883483 0)
(2.28118 -0.884354 0)
(2.2823 -0.883034 0)
(2.27869 -0.876917 0)
(2.2818 -0.897058 0)
(2.47865 -0.639957 0)
(2.9189 -0.0905687 0)
(2.99984 -0.00014901 0)
(3 1.07106e-07 0)
(3 5.07835e-09 0)
(3 3.07674e-10 0)
(3 3.67723e-12 0)
(3 1.2533e-14 0)
(3 -2.68798e-15 0)
(3 -1.99389e-15 0)
(3 1.86149e-15 0)
(3 -3.04785e-16 0)
(3 -6.57051e-16 0)
(3 -1.32792e-16 0)
(2.25212 -0.881687 0)
(2.26233 -0.879769 0)
(2.27264 -0.877469 0)
(2.28233 -0.879199 0)
(2.27958 -0.886171 0)
(2.26009 -0.919595 0)
(2.34724 -0.812648 0)
(2.68411 -0.377814 0)
(2.98819 -0.0150324 0)
(3 -1.89686e-05 0)
(3 -2.02499e-07 0)
(3 -1.56373e-08 0)
(3 -1.76237e-10 0)
(3 -6.52685e-13 0)
(3 -2.96402e-15 0)
(3 -1.66014e-15 0)
(3 6.05128e-16 0)
(3 -3.13921e-16 0)
(3 -8.332e-16 0)
(3 -3.97205e-16 0)
(2.24735 -0.879729 0)
(2.25612 -0.876561 0)
(2.26904 -0.877764 0)
(2.28202 -0.885551 0)
(2.27811 -0.887994 0)
(2.25707 -0.898246 0)
(2.30218 -0.858416 0)
(2.53565 -0.630579 0)
(2.9144 -0.114074 0)
(2.99972 -0.000253033 0)
(3 3.281e-07 0)
(3 2.18049e-08 0)
(3 3.33022e-11 0)
(3 -2.2449e-13 0)
(3 -1.1938e-14 0)
(3 -1.28175e-15 0)
(3 -7.79938e-16 0)
(3 -1.06523e-15 0)
(3 1.10216e-16 0)
(3 4.94904e-16 0)
(2.24434 -0.878856 0)
(2.25159 -0.876229 0)
(2.26447 -0.881801 0)
(2.27626 -0.89002 0)
(2.27432 -0.886418 0)
(2.26684 -0.876225 0)
(2.28508 -0.860138 0)
(2.29224 -0.884585 0)
(2.6229 -0.483239 0)
(2.9702 -0.0492495 0)
(2.9998 -0.000328809 0)
(3 -1.38856e-06 0)
(3 -5.85021e-09 0)
(3 -3.09528e-11 0)
(3 -2.65074e-13 0)
(3 -2.32013e-15 0)
(3 -1.21668e-15 0)
(3 -1.52936e-15 0)
(3 1.69923e-15 0)
(3 1.17311e-15 0)
(2.24419 -0.880293 0)
(2.25037 -0.879827 0)
(2.26294 -0.888185 0)
(2.27072 -0.894995 0)
(2.26767 -0.887453 0)
(2.26626 -0.875425 0)
(2.26851 -0.871108 0)
(2.23961 -0.911544 0)
(2.60359 -0.574302 0)
(2.97604 -0.0303722 0)
(3.00406 0.00689274 0)
(3.00034 0.000512059 0)
(3 6.04394e-06 0)
(3 3.34944e-08 0)
(3 1.77026e-10 0)
(3 9.81535e-13 0)
(3 5.45028e-15 0)
(3 1.06013e-15 0)
(3 2.0309e-15 0)
(3 1.05438e-15 0)
(2.25765 -0.832252 0)
(2.58289 -0.639777 0)
(2.41201 -0.76821 0)
(2.33456 -0.842037 0)
(2.29837 -0.869222 0)
(2.27858 -0.874006 0)
(2.27111 -0.872776 0)
(2.25606 -0.882951 0)
(2.29298 -0.841463 0)
(2.54745 -0.563762 0)
(2.9128 -0.143511 0)
(2.99569 -0.010496 0)
(2.9999 -0.000238704 0)
(3 -3.73717e-06 0)
(3 -4.1807e-08 0)
(3 -4.00167e-10 0)
(3 -3.36901e-12 0)
(3 -2.48993e-14 0)
(3 2.25394e-15 0)
(3 1.62033e-15 0)
(2.00871 -1.00491 0)
(2.7652 -0.203454 0)
(2.63016 -0.509426 0)
(2.49104 -0.691877 0)
(2.41093 -0.772125 0)
(2.3347 -0.837144 0)
(2.30258 -0.852742 0)
(2.27826 -0.865886 0)
(2.27346 -0.874475 0)
(2.31404 -0.791956 0)
(2.55774 -0.568185 0)
(2.91581 -0.140075 0)
(2.99561 -0.0102518 0)
(2.9999 -0.00023832 0)
(3 -3.36492e-06 0)
(3 -3.80488e-08 0)
(3 -3.58991e-10 0)
(3 -2.9993e-12 0)
(3 -1.92856e-14 0)
(3 2.66922e-15 0)
(2.24878 -0.349826 0)
(2.80892 0.422931 0)
(2.82557 -0.0452717 0)
(2.71258 -0.381289 0)
(2.53656 -0.638871 0)
(2.47676 -0.700077 0)
(2.37174 -0.795804 0)
(2.32806 -0.830133 0)
(2.28475 -0.865259 0)
(2.27285 -0.867667 0)
(2.33892 -0.786878 0)
(2.65292 -0.480318 0)
(2.94831 -0.0960884 0)
(2.99819 -0.00459442 0)
(2.99996 -8.64602e-05 0)
(3 -1.02496e-06 0)
(3 -1.05032e-08 0)
(3 -9.20221e-11 0)
(3 -7.11875e-13 0)
(3 -1.46219e-15 0)
(2.32361 0.331341 0)
(2.81015 0.713905 0)
(2.9387 0.368967 0)
(2.85703 -0.00874663 0)
(2.74559 -0.316672 0)
(2.60432 -0.534947 0)
(2.48307 -0.683331 0)
(2.42164 -0.743001 0)
(2.34197 -0.817533 0)
(2.28405 -0.862484 0)
(2.28441 -0.852967 0)
(2.38546 -0.761774 0)
(2.76079 -0.361148 0)
(2.97303 -0.0541779 0)
(2.99925 -0.00169779 0)
(2.99999 -2.38565e-05 0)
(3 -2.43212e-07 0)
(3 -2.1854e-09 0)
(3 -1.74227e-11 0)
(3 -1.05654e-13 0)
(2.44197 0.811632 0)
(2.70653 1.20654 0)
(2.98321 0.42126 0)
(2.95116 0.0829178 0)
(2.90578 -0.00516444 0)
(2.69788 -0.390937 0)
(2.64789 -0.465415 0)
(2.49917 -0.670229 0)
(2.44523 -0.723529 0)
(2.32928 -0.827226 0)
(2.29271 -0.846963 0)
(2.30569 -0.834976 0)
(2.46599 -0.700037 0)
(2.86738 -0.218413 0)
(2.99279 -0.0167585 0)
(2.99984 -0.000366736 0)
(3 -4.0844e-06 0)
(3 -3.76555e-08 0)
(3 -3.03045e-10 0)
(3 -1.87544e-12 0)
(2.43702 0.965602 0)
(2.72097 1.17526 0)
(2.94753 0.69012 0)
(3.05457 0.464027 0)
(2.95516 0.0337866 0)
(2.87148 -0.0994162 0)
(2.74326 -0.340226 0)
(2.62398 -0.522911 0)
(2.5438 -0.624661 0)
(2.42462 -0.742544 0)
(2.3344 -0.811849 0)
(2.31124 -0.828143 0)
(2.36529 -0.783142 0)
(2.60986 -0.541794 0)
(2.93123 -0.117296 0)
(2.99807 -0.00401218 0)
(2.99997 -6.00962e-05 0)
(3 -5.55344e-07 0)
(3 -4.60558e-09 0)
(3 -2.95488e-11 0)
(2.66723 0.939727 0)
(2.79808 1.03316 0)
(2.96831 0.77716 0)
(2.99407 0.884161 0)
(2.99168 0.318771 0)
(2.98994 0.187739 0)
(2.79316 -0.261036 0)
(2.74111 -0.29338 0)
(2.62671 -0.506931 0)
(2.54376 -0.597612 0)
(2.41799 -0.727149 0)
(2.33494 -0.802542 0)
(2.3436 -0.796387 0)
(2.46194 -0.704477 0)
(2.8182 -0.292145 0)
(2.98343 -0.0345359 0)
(2.99968 -0.000645351 0)
(3 -7.41998e-06 0)
(3 -6.1867e-08 0)
(3 -3.95703e-10 0)
(2.74604 0.879949 0)
(2.85687 0.919361 0)
(3.00565 0.798448 0)
(3.00048 0.835453 0)
(3.01238 0.623786 0)
(2.99963 0.270859 0)
(2.9335 0.0102965 0)
(2.80169 -0.220384 0)
(2.73782 -0.328507 0)
(2.60141 -0.533466 0)
(2.49 -0.660731 0)
(2.3913 -0.749821 0)
(2.34993 -0.792354 0)
(2.37441 -0.780343 0)
(2.56822 -0.593229 0)
(2.91615 -0.136747 0)
(2.99704 -0.0063463 0)
(2.99996 -7.57315e-05 0)
(3 -6.97392e-07 0)
(3 -4.5822e-09 0)
(2.76358 0.833224 0)
(2.87484 0.76256 0)
(3.01922 0.805806 0)
(3.08052 0.900886 0)
(3.07651 0.645016 0)
(3.0067 0.291259 0)
(3.0295 0.267421 0)
(2.80991 -0.202739 0)
(2.80576 -0.157495 0)
(2.63845 -0.458936 0)
(2.57442 -0.564999 0)
(2.46575 -0.684894 0)
(2.38314 -0.767086 0)
(2.37479 -0.780105 0)
(2.4654 -0.707354 0)
(2.79862 -0.311558 0)
(2.98126 -0.0352036 0)
(2.99964 -0.000740889 0)
(3 -6.69405e-06 0)
(3 -4.41647e-08 0)
(2.77501 0.782307 0)
(2.86254 0.7385 0)
(2.99587 0.873738 0)
(3.07699 1.0419 0)
(3.08852 0.737844 0)
(3.06889 0.488477 0)
(3.06235 0.338787 0)
(2.94568 0.0164881 0)
(2.852 -0.105803 0)
(2.7574 -0.276847 0)
(2.66386 -0.416613 0)
(2.57419 -0.546628 0)
(2.46004 -0.676959 0)
(2.38738 -0.766959 0)
(2.40735 -0.755859 0)
(2.5757 -0.602609 0)
(2.9314 -0.113479 0)
(2.99783 -0.00436736 0)
(2.99997 -5.36571e-05 0)
(3 -3.69637e-07 0)
(2.75746 0.765295 0)
(2.79719 0.781117 0)
(2.96788 0.914024 0)
(3.08906 1.04249 0)
(3.1111 0.770332 0)
(3.09971 0.742806 0)
(3.05757 0.322126 0)
(3.02535 0.272961 0)
(2.84968 -0.122124 0)
(2.81975 -0.103839 0)
(2.7027 -0.357825 0)
(2.64315 -0.444862 0)
(2.50236 -0.629736 0)
(2.41362 -0.739568 0)
(2.40756 -0.755488 0)
(2.51455 -0.657738 0)