/*--------------------------------*- C++ -*----------------------------------*\
  =========                 |
  \\      /  F ield         | OpenFOAM: The Open Source CFD Toolbox
   \\    /   O peration     | Website:  https://openfoam.org
    \\  /    A nd           | Version:  7
     \\/     M anipulation  |
\*---------------------------------------------------------------------------*/
FoamFile
{
    version     2.0;
    format      ascii;
    class       volScalarField;
    location    "5";
    object      rho;
}
// * * * * * * * * * * * * * * * * * * * * * * * * * * * * * * * * * * * * * //

dimensions      [1 -3 0 0 0 0 0];

internalField   nonuniform List<scalar> 
90000
(
0.567428
0.60881
0.645025
0.683293
0.717702
0.74703
0.782247
0.82004
0.855668
0.894975
0.936608
0.978459
1.02047
1.06068
1.09845
1.13064
1.1591
1.17994
1.19755
1.20794
1.21456
1.21822
1.22052
1.22211
1.22265
1.22183
1.21978
1.21488
1.20841
1.19909
1.18849
1.17881
1.17569
1.17914
1.1856
1.19299
1.20035
1.20666
1.21016
1.2134
1.2129
1.21089
1.20599
1.19868
1.19421
1.19243
1.19485
1.19987
1.20641
1.21145
1.21346
1.21327
1.21294
1.21488
1.21931
1.2276
1.23792
1.24679
1.24718
1.2444
1.24216
1.24255
1.2462
1.25194
1.2543
1.25288
1.25109
1.25245
1.26014
1.26784
1.26966
1.26827
1.2671
1.26842
1.26969
1.26937
1.26867
1.26908
1.27047
1.27178
1.27222
1.27264
1.27324
1.2738
1.27485
1.27631
1.27932
1.28441
1.29292
1.30447
1.31608
1.32647
1.33738
1.35021
1.36584
1.38108
1.39839
1.4103
1.41734
1.41891
0.530392
0.53041
0.530463
0.53067
0.531198
0.53212
0.533851
0.537107
0.541996
0.549828
0.56118
0.577747
0.59944
0.628844
0.664688
0.709349
0.75952
0.816235
0.872541
0.925184
0.973638
1.01595
1.05429
1.08405
1.1114
1.12988
1.14634
1.15509
1.16362
1.1681
1.1744
1.18083
1.18974
1.19653
1.20462
1.21072
1.21504
1.21706
1.21609
1.21512
1.2127
1.20329
1.19518
1.18939
1.19154
1.19444
1.19997
1.20686
1.2124
1.2138
1.21195
1.20881
1.20844
1.2112
1.21896
1.23114
1.24558
1.24934
1.24667
1.24265
1.24241
1.24456
1.25032
1.25536
1.25412
1.25193
1.25155
1.25552
1.26732
1.27242
1.27243
1.27111
1.27175
1.2732
1.27372
1.27248
1.27202
1.27275
1.274
1.27461
1.27479
1.27511
1.27544
1.27584
1.27649
1.27765
1.28034
1.28512
1.29341
1.30451
1.31592
1.3265
1.33755
1.35065
1.36632
1.38161
1.39901
1.4106
1.41737
1.41858
0.530867
0.530906
0.530952
0.530997
0.531031
0.531058
0.531082
0.531124
0.531171
0.531221
0.531283
0.531358
0.531456
0.531622
0.53198
0.533016
0.535186
0.539979
0.548467
0.563223
0.584199
0.614327
0.65164
0.698861
0.751949
0.812632
0.875329
0.939346
1.0016
1.05846
1.11092
1.15188
1.18233
1.19657
1.20426
1.20855
1.21155
1.21453
1.21442
1.21039
1.20166
1.18701
1.18937
1.19546
1.20201
1.21085
1.21832
1.2176
1.21528
1.21137
1.20576
1.20541
1.20805
1.21426
1.22793
1.24491
1.25246
1.25054
1.24545
1.24429
1.24573
1.25193
1.2574
1.25666
1.25382
1.25193
1.25356
1.26302
1.2745
1.27493
1.27423
1.27433
1.27587
1.27735
1.27685
1.27488
1.27466
1.27564
1.27647
1.27652
1.27651
1.27682
1.27677
1.27697
1.27723
1.27831
1.28082
1.2854
1.29348
1.30424
1.3155
1.32629
1.33759
1.35093
1.36659
1.38207
1.39952
1.41087
1.41744
1.41853
0.531663
0.531717
0.531777
0.531843
0.531915
0.531992
0.532075
0.532164
0.53226
0.532363
0.53247
0.532579
0.532689
0.532799
0.532932
0.532981
0.53303
0.533085
0.533153
0.533233
0.533331
0.533476
0.533795
0.53477
0.537098
0.542823
0.553595
0.574015
0.604327
0.650894
0.709201
0.782892
0.860668
0.936938
1.00606
1.05911
1.10515
1.13387
1.15977
1.17023
1.18102
1.19013
1.20283
1.21642
1.22824
1.23388
1.23055
1.22232
1.21444
1.20675
1.20323
1.20532
1.21199
1.22632
1.24441
1.25589
1.2544
1.24911
1.24637
1.2473
1.25437
1.26041
1.26071
1.2569
1.25325
1.25315
1.25877
1.27314
1.27726
1.27576
1.2752
1.27659
1.2794
1.28013
1.27828
1.27646
1.27666
1.27773
1.27758
1.27718
1.27732
1.2777
1.2773
1.27733
1.27752
1.27853
1.28082
1.28532
1.29329
1.30406
1.31511
1.32598
1.33747
1.35101
1.36671
1.38253
1.39996
1.41099
1.41722
1.41804
0.532706
0.532766
0.532829
0.532896
0.532964
0.533036
0.533108
0.533183
0.533258
0.533335
0.533411
0.533491
0.53357
0.533652
0.533729
0.533813
0.533903
0.534001
0.534101
0.534205
0.534307
0.534404
0.534528
0.534562
0.534593
0.534635
0.534682
0.534739
0.534816
0.535114
0.536187
0.540343
0.550482
0.573665
0.610958
0.668827
0.740327
0.826745
0.91642
1.00337
1.08301
1.14513
1.18594
1.20277
1.21443
1.21852
1.22187
1.22101
1.21787
1.20509
1.20568
1.21481
1.22831
1.24358
1.25597
1.25786
1.25307
1.24755
1.2491
1.25589
1.26524
1.26513
1.26151
1.25576
1.25316
1.25676
1.26813
1.27838
1.27648
1.2754
1.27555
1.2785
1.28179
1.28116
1.27834
1.27707
1.27781
1.27882
1.27816
1.27745
1.27759
1.27801
1.2775
1.27732
1.27751
1.27866
1.28062
1.285
1.29296
1.30319
1.31434
1.32557
1.33714
1.35093
1.36673
1.38303
1.40047
1.41118
1.41706
1.41774
0.533704
0.53375
0.533799
0.53385
0.533902
0.533955
0.53401
0.534066
0.534123
0.534182
0.534242
0.534303
0.534365
0.534426
0.534489
0.534553
0.534615
0.534677
0.534736
0.534793
0.534847
0.5349
0.534947
0.534992
0.535043
0.535092
0.535143
0.535189
0.535228
0.535285
0.535285
0.535289
0.535297
0.53531
0.535362
0.535796
0.537955
0.546304
0.565651
0.607145
0.670069
0.761655
0.863086
0.958762
1.04392
1.10237
1.15243
1.18056
1.19634
1.20395
1.21482
1.23437
1.24664
1.25757
1.26151
1.25368
1.24347
1.24728
1.2567
1.26828
1.27173
1.26846
1.25892
1.2537
1.25509
1.26412
1.27818
1.27903
1.27548
1.27358
1.27605
1.28163
1.2834
1.28152
1.27851
1.27757
1.27901
1.27887
1.27808
1.27728
1.2779
1.27791
1.27745
1.2771
1.27744
1.27857
1.28023
1.28463
1.29261
1.30247
1.31369
1.32512
1.33675
1.3508
1.36677
1.38356
1.40064
1.41111
1.4167
1.41727
0.534486
0.53452
0.534555
0.534591
0.534628
0.534666
0.534705
0.534744
0.534784
0.534826
0.534867
0.534908
0.534949
0.534989
0.535028
0.535067
0.535106
0.535143
0.535179
0.535213
0.535246
0.535277
0.535307
0.535335
0.535361
0.535382
0.535403
0.535416
0.535435
0.535441
0.535451
0.535462
0.535476
0.535488
0.535499
0.535529
0.535526
0.535531
0.535542
0.535602
0.536084
0.539803
0.552227
0.586997
0.645129
0.736858
0.845526
0.961247
1.06717
1.15146
1.19771
1.22084
1.23339
1.2471
1.24653
1.23355
1.24065
1.25691
1.27295
1.27517
1.27225
1.26026
1.25396
1.25426
1.26206
1.27518
1.28009
1.2738
1.26991
1.27235
1.27971
1.28447
1.28386
1.27923
1.27767
1.27841
1.27997
1.27898
1.27722
1.27699
1.27816
1.27776
1.27684
1.27673
1.27749
1.27836
1.27978
1.28429
1.29223
1.30185
1.31319
1.32462
1.33612
1.35063
1.36685
1.38407
1.40094
1.41128
1.41663
1.41697
0.53504
0.535063
0.535087
0.535112
0.535137
0.535163
0.535189
0.535214
0.53524
0.535266
0.535292
0.535318
0.535343
0.535368
0.53539
0.535413
0.535435
0.535456
0.535475
0.535494
0.53551
0.535525
0.535535
0.535546
0.535555
0.535565
0.535571
0.535578
0.535583
0.535588
0.535594
0.535598
0.535602
0.535604
0.53561
0.535613
0.535625
0.535646
0.53568
0.535722
0.535765
0.535805
0.53586
0.535902
0.536161
0.538813
0.549817
0.585248
0.652948
0.765091
0.889417
1.00536
1.09437
1.15716
1.19838
1.22195
1.25082
1.28186
1.28568
1.28099
1.26475
1.25075
1.25203
1.2615
1.27478
1.2811
1.27501
1.26729
1.26799
1.27388
1.28492
1.2857
1.28164
1.27705
1.27777
1.28046
1.28003
1.27779
1.27631
1.27723
1.27804
1.27711
1.27622
1.27656
1.27753
1.27777
1.27908
1.28389
1.29179
1.30124
1.31277
1.32418
1.33554
1.35056
1.36704
1.38442
1.40046
1.41074
1.41594
1.41662
0.535384
0.535399
0.535415
0.535432
0.535449
0.535466
0.535483
0.535499
0.535514
0.535528
0.535543
0.535556
0.53557
0.535583
0.535595
0.535607
0.535618
0.535628
0.535636
0.535643
0.535648
0.535654
0.535659
0.535661
0.535662
0.535663
0.535663
0.535664
0.535665
0.535666
0.535669
0.535673
0.535675
0.535679
0.535687
0.535701
0.535725
0.535756
0.535796
0.535842
0.535892
0.53594
0.535983
0.536011
0.536028
0.536044
0.536055
0.536065
0.536398
0.540656
0.560631
0.613359
0.711047
0.84501
0.999827
1.13746
1.22992
1.2674
1.27524
1.26823
1.24663
1.25023
1.26215
1.27482
1.28062
1.27765
1.26615
1.26357
1.26778
1.28173
1.28698
1.2851
1.27791
1.27608
1.27929
1.28167
1.2799
1.27611
1.27599
1.27791
1.27775
1.27609
1.27542
1.27676
1.27744
1.2773
1.27856
1.28361
1.29123
1.30067
1.31247
1.32344
1.33491
1.3506
1.36724
1.38453
1.4002
1.41032
1.41553
1.41634
0.535591
0.5356
0.535609
0.535618
0.535627
0.535637
0.535646
0.535655
0.535663
0.53567
0.535677
0.535684
0.53569
0.535695
0.535699
0.535703
0.535707
0.535711
0.535713
0.535714
0.535713
0.535712
0.535713
0.535712
0.53571
0.535707
0.535706
0.535706
0.535707
0.535711
0.535719
0.535727
0.535734
0.535745
0.535761
0.535785
0.535816
0.535854
0.535896
0.53594
0.53598
0.536011
0.536029
0.536037
0.536041
0.536044
0.536041
0.53604
0.536043
0.536061
0.536099
0.536224
0.537975
0.551967
0.599392
0.722739
0.891655
1.05126
1.16494
1.215
1.23183
1.25808
1.28342
1.28797
1.28048
1.26673
1.25849
1.2625
1.27477
1.28836
1.28765
1.2788
1.27465
1.27714
1.28269
1.28211
1.27775
1.27499
1.27626
1.27846
1.2772
1.27497
1.27519
1.27731
1.27719
1.27681
1.27821
1.28334
1.29062
1.30013
1.31213
1.32281
1.33442
1.35086
1.36745
1.38475
1.39996
1.40981
1.41508
1.41609
0.535715
0.53572
0.535723
0.535727
0.53573
0.535734
0.535737
0.535739
0.535741
0.535743
0.535744
0.535746
0.535747
0.535748
0.535748
0.535748
0.535748
0.535748
0.535747
0.535746
0.535744
0.535743
0.535742
0.535744
0.535744
0.535741
0.535741
0.535742
0.535748
0.535759
0.535774
0.535789
0.535807
0.535829
0.535855
0.535886
0.535922
0.535959
0.535994
0.536025
0.536051
0.536056
0.536052
0.536042
0.536029
0.536011
0.535997
0.535997
0.536001
0.536029
0.536074
0.536169
0.536313
0.536676
0.537082
0.540284
0.561882
0.645265
0.803834
1.00253
1.15663
1.23834
1.26848
1.27272
1.27329
1.25421
1.2595
1.27261
1.28633
1.28899
1.27977
1.27117
1.27325
1.28241
1.28523
1.28192
1.27509
1.27477
1.27817
1.27862
1.27569
1.27395
1.27557
1.27766
1.27681
1.27631
1.27814
1.28318
1.28999
1.29968
1.31177
1.32217
1.33404
1.35121
1.36765
1.38479
1.39966
1.40935
1.41471
1.41588
0.535793
0.535792
0.535792
0.535791
0.53579
0.535788
0.535787
0.535787
0.535786
0.535785
0.535784
0.535783
0.535782
0.535781
0.535782
0.53578
0.535777
0.535774
0.535773
0.535772
0.535772
0.535774
0.535777
0.53578
0.535783
0.535787
0.535794
0.535805
0.53582
0.535841
0.535865
0.535892
0.535919
0.535949
0.53598
0.536009
0.536042
0.53607
0.536087
0.5361
0.536102
0.536092
0.536069
0.536047
0.536018
0.535987
0.535983
0.535985
0.535997
0.536029
0.536089
0.536219
0.536445
0.536802
0.537344
0.538144
0.539519
0.541517
0.552432
0.607404
0.750325
0.927841
1.08115
1.17016
1.22501
1.2423
1.27023
1.29353
1.29355
1.28488
1.26603
1.26831
1.27882
1.28837
1.28636
1.27719
1.27314
1.27604
1.28003
1.2781
1.27369
1.27385
1.27724
1.27777
1.27591
1.27596
1.27843
1.28297
1.28927
1.29928
1.31137
1.32155
1.3338
1.35138
1.36782
1.38447
1.3994
1.40906
1.41452
1.41573
0.535827
0.535824
0.53582
0.535819
0.535815
0.535809
0.535805
0.535804
0.535804
0.535803
0.5358
0.535798
0.535797
0.535797
0.535796
0.535796
0.535795
0.535795
0.535795
0.535796
0.535799
0.535805
0.535814
0.535824
0.535835
0.535851
0.535871
0.535895
0.535921
0.535948
0.535979
0.536006
0.536034
0.536061
0.536084
0.53611
0.536133
0.536145
0.536151
0.536149
0.536138
0.536114
0.536084
0.536045
0.536
0.535982
0.535982
0.535985
0.536
0.536043
0.536148
0.536305
0.536559
0.536881
0.537436
0.538223
0.539574
0.54165
0.544944
0.549486
0.557854
0.590158
0.680521
0.829973
1.0068
1.15806
1.24892
1.27473
1.28496
1.26755
1.25903
1.27191
1.29142
1.29108
1.28081
1.27142
1.27253
1.28041
1.28053
1.27528
1.2719
1.27441
1.27881
1.2774
1.27486
1.27582
1.27892
1.2825
1.28849
1.29905
1.31089
1.32092
1.33363
1.35127
1.36802
1.38426
1.39932
1.40892
1.41441
1.41559
0.535835
0.53583
0.535827
0.535825
0.53582
0.535811
0.535807
0.535805
0.535806
0.535803
0.5358
0.535799
0.535799
0.535799
0.535799
0.535801
0.535803
0.535805
0.535809
0.535814
0.535823
0.535838
0.535857
0.535879
0.535906
0.535933
0.535961
0.53599
0.536016
0.536046
0.536069
0.536088
0.536106
0.536123
0.536138
0.536153
0.536169
0.536173
0.536172
0.536166
0.536145
0.53611
0.53607
0.536027
0.535997
0.535989
0.53599
0.536001
0.536037
0.536114
0.536233
0.5364
0.536623
0.536943
0.537455
0.538251
0.53956
0.541696
0.545028
0.549538
0.55601
0.563918
0.568208
0.579209
0.622967
0.75085
0.926356
1.07881
1.19394
1.22746
1.26417
1.29081
1.30156
1.2946
1.27043
1.26882
1.27734
1.28344
1.27957
1.27115
1.27158
1.27792
1.27927
1.27576
1.27412
1.27641
1.27931
1.28174
1.28771
1.29905
1.31034
1.32019
1.33346
1.3507
1.36764
1.38428
1.39948
1.40897
1.41444
1.4155
0.53584
0.535836
0.535832
0.53583
0.535827
0.535821
0.535817
0.535816
0.535816
0.535816
0.535816
0.535817
0.535818
0.53582
0.535822
0.535827
0.535835
0.535846
0.535862
0.535884
0.535908
0.535934
0.535958
0.535984
0.536011
0.536037
0.53606
0.536079
0.536096
0.53611
0.536121
0.536127
0.536132
0.53614
0.536148
0.536159
0.536168
0.536172
0.536172
0.536163
0.53614
0.536107
0.53607
0.536048
0.536037
0.536036
0.536046
0.536083
0.536148
0.536228
0.536332
0.536472
0.536665
0.53697
0.537461
0.538238
0.539547
0.541754
0.54502
0.549621
0.556208
0.563762
0.569055
0.570887
0.571192
0.573735
0.59722
0.690354
0.860907
1.05966
1.21772
1.26991
1.28784
1.27529
1.26197
1.27355
1.28608
1.28382
1.27244
1.26794
1.27369
1.28154
1.27942
1.27332
1.27395
1.27772
1.27886
1.28063
1.28723
1.29931
1.30956
1.31932
1.33305
1.34991
1.36731
1.38455
1.39979
1.4091
1.41453
1.41546
0.535874
0.535875
0.535876
0.535878
0.53588
0.535882
0.535885
0.535888
0.535892
0.535898
0.535907
0.535914
0.535925
0.535936
0.535946
0.535958
0.535973
0.535988
0.536005
0.536023
0.53604
0.536059
0.536074
0.536088
0.536103
0.536114
0.536124
0.536131
0.536135
0.536137
0.536137
0.536136
0.536136
0.536136
0.53614
0.536144
0.536149
0.536157
0.53616
0.536157
0.536147
0.536128
0.536112
0.536124
0.536139
0.536159
0.536201
0.536256
0.536302
0.536347
0.536414
0.536517
0.536683
0.536946
0.537401
0.538158
0.539471
0.541748
0.545102
0.549807
0.556482
0.564047
0.569232
0.570799
0.570986
0.570868
0.570795
0.571504
0.583851
0.663436
0.829936
1.01954
1.17356
1.22824
1.26049
1.2922
1.29253
1.28399
1.26357
1.2672
1.28105
1.283
1.27555
1.27142
1.27537
1.27885
1.27797
1.27966
1.28721
1.29926
1.30835
1.31832
1.33253
1.34908
1.36704
1.38502
1.40016
1.40931
1.41473
1.41545
0.535974
0.53598
0.535989
0.535997
0.536004
0.536012
0.536022
0.536033
0.536042
0.536054
0.536066
0.536072
0.536082
0.536096
0.536101
0.536105
0.536118
0.536124
0.536125
0.53613
0.536137
0.536138
0.536138
0.536139
0.536142
0.536144
0.536143
0.53614
0.536132
0.536118
0.536097
0.536076
0.536068
0.53607
0.536078
0.536095
0.536118
0.536143
0.536163
0.53617
0.536175
0.536189
0.536226
0.536278
0.536311
0.536352
0.536394
0.53642
0.536427
0.536433
0.53646
0.53653
0.536643
0.536857
0.537297
0.538079
0.539426
0.541788
0.545319
0.550111
0.556784
0.564142
0.569312
0.57073
0.570765
0.570551
0.570462
0.57056
0.57117
0.572762
0.583702
0.652088
0.808486
1.02783
1.20196
1.26796
1.27959
1.2649
1.25882
1.27799
1.28751
1.28189
1.26961
1.2711
1.2789
1.27923
1.27633
1.2788
1.28832
1.299
1.30665
1.31702
1.33174
1.34818
1.36679
1.38562
1.40049
1.40955
1.41493
1.41544
0.536141
0.536149
0.536158
0.536169
0.536176
0.536181
0.536191
0.536197
0.5362
0.536205
0.536208
0.536207
0.536204
0.5362
0.536197
0.536193
0.536188
0.536183
0.536177
0.536173
0.536168
0.536161
0.536154
0.536144
0.536133
0.536118
0.536094
0.536071
0.536046
0.53602
0.535994
0.53599
0.535993
0.536006
0.536033
0.536071
0.536108
0.536143
0.536181
0.53623
0.536282
0.536332
0.536401
0.536455
0.536476
0.536501
0.53651
0.536506
0.536493
0.536469
0.536452
0.536477
0.536566
0.536771
0.537231
0.538042
0.539423
0.541927
0.545615
0.550451
0.557048
0.5641
0.569233
0.57059
0.570592
0.570381
0.570311
0.5704
0.570879
0.571958
0.574631
0.578434
0.588907
0.655101
0.820057
1.02044
1.1697
1.23305
1.26081
1.2967
1.29121
1.27257
1.26571
1.27533
1.28156
1.27678
1.27454
1.27889
1.28925
1.29762
1.30484
1.31596
1.33083
1.34735
1.36667
1.38629
1.4008
1.40986
1.41509
1.41542
0.536282
0.536285
0.536288
0.536289
0.536288
0.536287
0.536285
0.536281
0.536275
0.536268
0.536259
0.536248
0.536237
0.536228
0.536218
0.536206
0.536193
0.536182
0.536173
0.536158
0.536139
0.53612
0.5361
0.536083
0.536068
0.536047
0.536023
0.536001
0.535974
0.535949
0.535946
0.535949
0.535961
0.535987
0.536026
0.536072
0.536132
0.536202
0.536284
0.536362
0.536417
0.536468
0.53652
0.536551
0.536556
0.536554
0.536549
0.536533
0.536505
0.536452
0.536406
0.536423
0.536509
0.536729
0.537215
0.538041
0.539489
0.542152
0.545936
0.55081
0.557193
0.563749
0.568749
0.57044
0.570484
0.570327
0.570253
0.570322
0.57069
0.571678
0.573478
0.576416
0.580639
0.585269
0.5974
0.662803
0.829671
1.0622
1.21598
1.27958
1.27849
1.26047
1.26984
1.28472
1.28194
1.27109
1.27261
1.28173
1.29044
1.29562
1.30271
1.31476
1.32981
1.3469
1.36698
1.38705
1.40118
1.41045
1.41543
1.41559
0.536326
0.536324
0.53632
0.536315
0.53631
0.536304
0.536297
0.536286
0.536275
0.536263
0.536246
0.536228
0.536209
0.53619
0.536168
0.536144
0.536124
0.536107
0.536089
0.536078
0.536071
0.536061
0.53605
0.536039
0.536026
0.536011
0.535993
0.535971
0.535948
0.535935
0.535935
0.535944
0.535972
0.536023
0.536101
0.536192
0.536271
0.536351
0.536421
0.536465
0.536502
0.536533
0.536556
0.536567
0.536562
0.536549
0.536519
0.536474
0.536424
0.536383
0.53637
0.536396
0.536492
0.536719
0.537247
0.538177
0.539731
0.542457
0.546261
0.55108
0.557104
0.563324
0.568094
0.570221
0.570463
0.570374
0.570358
0.570422
0.570732
0.571528
0.572736
0.574725
0.577654
0.581564
0.587031
0.591261
0.603183
0.679552
0.868786
1.08112
1.18975
1.24282
1.28365
1.29232
1.28225
1.26614
1.27265
1.28517
1.2894
1.29299
1.30065
1.31387
1.3286
1.34571
1.3668
1.38774
1.40222
1.41189
1.41666
1.41626
0.536312
0.536303
0.536288
0.536276
0.536264
0.536244
0.536225
0.536208
0.536179
0.536153
0.536133
0.536106
0.536087
0.536076
0.536061
0.536049
0.536049
0.536051
0.53605
0.53605
0.53605
0.536048
0.536042
0.536033
0.536022
0.536009
0.535995
0.535986
0.535988
0.535999
0.536026
0.53608
0.536151
0.536242
0.53632
0.536377
0.536424
0.536461
0.53649
0.53651
0.536524
0.536541
0.536546
0.536521
0.536463
0.536405
0.53637
0.536324
0.536327
0.536351
0.536361
0.536418
0.536574
0.536863
0.537456
0.538446
0.540052
0.542753
0.546543
0.551233
0.556893
0.562952
0.567631
0.56998
0.570592
0.570614
0.570592
0.570619
0.570807
0.571389
0.572238
0.57342
0.575401
0.578445
0.583021
0.5888
0.593189
0.595421
0.612801
0.701462
0.913533
1.14054
1.25047
1.27815
1.26372
1.2649
1.28166
1.28863
1.28684
1.29032
1.29922
1.31255
1.32657
1.34452
1.36642
1.38634
1.40097
1.41098
1.41594
1.41611
0.536163
0.53615
0.536128
0.536095
0.536086
0.536082
0.53607
0.536061
0.536052
0.536033
0.536019
0.536016
0.536017
0.536019
0.536024
0.536029
0.536031
0.536033
0.536037
0.536042
0.536051
0.536061
0.536074
0.53609
0.536102
0.53612
0.536144
0.536171
0.536205
0.53624
0.536296
0.536356
0.53641
0.536476
0.536495
0.536495
0.536495
0.536496
0.536502
0.536514
0.536501
0.536475
0.536416
0.536306
0.536231
0.536219
0.536228
0.536248
0.536306
0.536351
0.536414
0.536583
0.536832
0.537165
0.537768
0.538762
0.540343
0.54297
0.54672
0.551298
0.556656
0.562638
0.567413
0.569858
0.570665
0.570813
0.570806
0.570794
0.570875
0.571196
0.571683
0.572456
0.573879
0.576137
0.579795
0.585135
0.590421
0.593762
0.595825
0.597796
0.622801
0.747465
0.962777
1.15553
1.2316
1.26592
1.29242
1.28694
1.28364
1.28904
1.29892
1.31094
1.3237
1.34306
1.36504
1.38493
1.40094
1.41142
1.41651
1.41642
0.536006
0.536005
0.535995
0.535992
0.535993
0.535997
0.535997
0.535996
0.535996
0.535998
0.536001
0.536004
0.536011
0.536022
0.53604
0.536061
0.536085
0.536115
0.536146
0.536185
0.536226
0.536262
0.536302
0.536332
0.536357
0.536391
0.536423
0.536457
0.536496
0.536516
0.536534
0.536562
0.536573
0.536569
0.536562
0.536546
0.536518
0.53649
0.536469
0.536423
0.536332
0.53626
0.536174
0.536108
0.536108
0.536129
0.536175
0.536247
0.536335
0.536438
0.536603
0.536846
0.537086
0.537388
0.537969
0.538985
0.540531
0.543096
0.5469
0.551242
0.556302
0.562411
0.567542
0.569803
0.570505
0.570796
0.570924
0.570898
0.570923
0.570979
0.571214
0.571783
0.572934
0.574761
0.577733
0.581806
0.586718
0.591015
0.594361
0.596312
0.59673
0.599593
0.64262
0.799654
1.05202
1.21865
1.28123
1.26767
1.2806
1.28971
1.29936
1.30844
1.31941
1.34095
1.36313
1.38402
1.40131
1.41172
1.41671
1.41636
0.535958
0.535962
0.535968
0.535978
0.535989
0.536001
0.53602
0.536044
0.536072
0.536105
0.536138
0.536171
0.536202
0.536233
0.536263
0.536293
0.536327
0.536369
0.53641
0.536448
0.536483
0.536509
0.536529
0.536546
0.536561
0.536575
0.536591
0.536609
0.536615
0.536617
0.536617
0.536614
0.536602
0.536577
0.536534
0.536478
0.536411
0.536361
0.536315
0.536242
0.53615
0.536065
0.536045
0.536047
0.536067
0.536106
0.536191
0.536319
0.536462
0.536661
0.536876
0.537033
0.537186
0.537452
0.53802
0.539055
0.540626
0.543135
0.546874
0.551204
0.556178
0.562201
0.567527
0.570076
0.570806
0.570978
0.570905
0.570801
0.570583
0.57056
0.570762
0.571381
0.572484
0.574101
0.576332
0.579238
0.583222
0.587847
0.591514
0.594206
0.595384
0.596556
0.597495
0.604558
0.681897
0.884974
1.12147
1.20864
1.28137
1.28969
1.29954
1.30409
1.31488
1.33915
1.36137
1.3833
1.40207
1.41146
1.41641
1.41567
0.536121
0.53616
0.536194
0.536242
0.536279
0.536295
0.536324
0.536365
0.536391
0.536414
0.536435
0.536454
0.536475
0.536495
0.536512
0.536524
0.536533
0.536544
0.536554
0.53656
0.536575
0.53658
0.536587
0.536601
0.5366
0.5366
0.536607
0.536607
0.536593
0.536563
0.536522
0.536471
0.536414
0.536369
0.536328
0.536289
0.536249
0.536221
0.536189
0.53615
0.536069
0.53604
0.536054
0.536113
0.536204
0.536294
0.536439
0.536578
0.536709
0.536922
0.537061
0.5371
0.537188
0.537437
0.537972
0.538982
0.54058
0.543122
0.546872
0.551238
0.556295
0.562102
0.567782
0.570645
0.570966
0.570915
0.570713
0.570293
0.570074
0.570147
0.570475
0.57124
0.572404
0.573846
0.575672
0.577711
0.580098
0.583613
0.587395
0.591063
0.593944
0.596036
0.596992
0.597758
0.599142
0.621398
0.741805
0.992984
1.21233
1.26787
1.29768
1.29538
1.31133
1.33927
1.35971
1.38262
1.40246
1.41005
1.41524
1.41413
0.536462
0.536518
0.536558
0.536565
0.536554
0.536549
0.536564
0.53659
0.536606
0.536613
0.536614
0.536609
0.536601
0.536599
0.536599
0.536596
0.536589
0.536581
0.536571
0.53656
0.536553
0.536525
0.536493
0.53647
0.536414
0.536379
0.536376
0.536346
0.536282
0.536252
0.536217
0.536196
0.536199
0.536203
0.53621
0.536213
0.536205
0.536183
0.536168
0.536141
0.536154
0.536227
0.53636
0.5365
0.536631
0.536725
0.53682
0.536853
0.53689
0.537001
0.537065
0.537041
0.537031
0.537226
0.537768
0.538833
0.540538
0.543168
0.546913
0.551475
0.556919
0.562946
0.568489
0.570639
0.570729
0.570589
0.570149
0.569659
0.569659
0.56988
0.570395
0.571284
0.572575
0.573936
0.57535
0.576634
0.577946
0.58022
0.583574
0.587527
0.59191
0.595331
0.59649
0.59725
0.598635
0.599879
0.602991
0.660046
0.847939
1.08722
1.26154
1.27797
1.31359
1.34228
1.35626
1.38227
1.4015
1.40787
1.41382
1.41234
0.536658
0.536657
0.536666
0.536673
0.536676
0.536675
0.53667
0.536664
0.536662
0.536654
0.536637
0.536612
0.536585
0.536564
0.536537
0.536502
0.536473
0.536432
0.53639
0.536352
0.536288
0.53622
0.536163
0.536095
0.536033
0.536019
0.536031
0.53603
0.536025
0.53603
0.536054
0.536099
0.536141
0.53617
0.536213
0.53624
0.536245
0.536259
0.536331
0.536438
0.536556
0.53671
0.536805
0.536883
0.536973
0.536983
0.537
0.536992
0.536915
0.536828
0.536804
0.536774
0.536816
0.537076
0.537668
0.538782
0.540651
0.543465
0.547331
0.552319
0.55789
0.563933
0.568777
0.569846
0.569843
0.569709
0.569306
0.569204
0.569334
0.569774
0.570487
0.571708
0.572936
0.574087
0.574944
0.575625
0.57648
0.57794
0.580491
0.583989
0.588433
0.592886
0.595613
0.596912
0.598654
0.59998
0.600508
0.601307
0.613973
0.74353
1.01197
1.20991
1.31407
1.33566
1.34951
1.38418
1.39775
1.40635
1.41296
1.41095
0.536512
0.536478
0.536449
0.536424
0.536402
0.536381
0.536363
0.536348
0.536332
0.536315
0.5363
0.536283
0.536263
0.536237
0.53621
0.536183
0.536155
0.536133
0.536111
0.536075
0.536026
0.535975
0.535926
0.535881
0.535854
0.535851
0.535861
0.535885
0.53592
0.535963
0.536015
0.536073
0.536146
0.536213
0.536286
0.536401
0.536511
0.536669
0.536792
0.536905
0.537078
0.537079
0.537042
0.537064
0.537059
0.536978
0.536944
0.53689
0.536682
0.53649
0.536481
0.536524
0.536701
0.537071
0.537691
0.538837
0.540993
0.544185
0.54824
0.553253
0.558746
0.564234
0.568202
0.568881
0.568875
0.568783
0.568729
0.568837
0.569145
0.56978
0.570927
0.572178
0.573147
0.573991
0.574331
0.574745
0.575475
0.576696
0.578647
0.581521
0.585061
0.588621
0.592314
0.595587
0.598094
0.599414
0.599919
0.600787
0.601973
0.605843
0.660205
0.899516
1.19478
1.27674
1.34394
1.38983
1.39164
1.40682
1.41297
1.41039
0.536014
0.53599
0.535975
0.535969
0.535966
0.535965
0.535968
0.535972
0.535973
0.535979
0.53598
0.535985
0.535998
0.536
0.536024
0.536045
0.536041
0.536046
0.536046
0.536029
0.535993
0.535953
0.535918
0.535901
0.535899
0.535914
0.535956
0.536028
0.536146
0.536254
0.536343
0.53643
0.536526
0.536643
0.536744
0.536853
0.536986
0.537027
0.53705
0.537118
0.53721
0.537194
0.537102
0.537032
0.536909
0.536639
0.536577
0.536493
0.536268
0.536229
0.536273
0.536414
0.536676
0.53717
0.538065
0.53952
0.541899
0.545141
0.54894
0.553892
0.559047
0.56379
0.567439
0.568182
0.568228
0.568256
0.568382
0.568645
0.569169
0.570202
0.57159
0.572463
0.573097
0.573346
0.573624
0.57412
0.57495
0.576158
0.577888
0.580108
0.582664
0.585335
0.588504
0.592058
0.595377
0.597662
0.598975
0.600504
0.602195
0.603296
0.604428
0.631641
0.803373
1.11394
1.33214
1.3763
1.38345
1.40866
1.41211
1.40973
0.535769
0.535762
0.535767
0.535788
0.53579
0.535785
0.535798
0.535829
0.535836
0.535834
0.535855
0.535877
0.535878
0.535898
0.535967
0.536015
0.536054
0.536098
0.536136
0.536189
0.536249
0.536292
0.536363
0.53644
0.536471
0.536521
0.536597
0.536698
0.536817
0.536865
0.536892
0.536927
0.536973
0.537027
0.537031
0.536995
0.536985
0.536984
0.536952
0.536908
0.536895
0.536806
0.536632
0.536556
0.536447
0.536268
0.536225
0.536155
0.536054
0.536037
0.536119
0.536433
0.536955
0.537922
0.539197
0.540659
0.542763
0.545619
0.549219
0.553965
0.558569
0.562817
0.566369
0.567619
0.567815
0.567973
0.568181
0.568571
0.569508
0.570867
0.571927
0.572408
0.572421
0.572549
0.572957
0.573701
0.574685
0.57595
0.577627
0.579385
0.581002
0.582691
0.585038
0.588074
0.591042
0.594086
0.596983
0.599764
0.601691
0.602555
0.603675
0.60487
0.613197
0.75374
1.11198
1.28587
1.38013
1.41501
1.40865
1.40813
0.536072
0.536028
0.536023
0.536008
0.536001
0.536064
0.536149
0.536148
0.536166
0.536263
0.536361
0.536447
0.536587
0.536741
0.536834
0.536939
0.537079
0.537209
0.53732
0.537403
0.537473
0.537567
0.537665
0.537704
0.537708
0.53769
0.537631
0.537552
0.537436
0.537281
0.537221
0.537214
0.537212
0.537164
0.537052
0.537017
0.536892
0.536643
0.536541
0.536527
0.536532
0.536531
0.536435
0.536353
0.536294
0.536266
0.536193
0.53613
0.536179
0.536325
0.536765
0.537535
0.538439
0.539683
0.540802
0.541736
0.543213
0.545641
0.549127
0.553589
0.558466
0.562566
0.565665
0.567265
0.567806
0.56811
0.568526
0.569441
0.570572
0.571559
0.571898
0.571808
0.571868
0.572149
0.572747
0.573632
0.574916
0.576653
0.578268
0.579355
0.580043
0.581024
0.582607
0.584887
0.587549
0.590338
0.593609
0.596884
0.599235
0.60071
0.602354
0.604312
0.605359
0.610581
0.717761
1.07897
1.36242
1.40837
1.3977
1.40924
0.537811
0.537806
0.53786
0.537881
0.537931
0.538043
0.538093
0.538033
0.538015
0.538084
0.53807
0.53803
0.538023
0.538045
0.538099
0.53816
0.538225
0.538291
0.538293
0.538266
0.538322
0.538351
0.538221
0.538144
0.538162
0.53809
0.537873
0.537597
0.537361
0.537169
0.537067
0.537035
0.536975
0.536945
0.536945
0.536871
0.536601
0.536507
0.536482
0.53647
0.536504
0.536563
0.536585
0.536544
0.536574
0.536733
0.537075
0.537595
0.538012
0.538218
0.538581
0.539306
0.540196
0.540981
0.541402
0.54189
0.543038
0.545305
0.548834
0.553431
0.558425
0.562844
0.565793
0.567281
0.568173
0.568965
0.57001
0.570882
0.571514
0.571459
0.571201
0.571244
0.571557
0.572075
0.572835
0.574314
0.576388
0.577795
0.578659
0.578574
0.578912
0.579933
0.581616
0.583619
0.585656
0.587784
0.59045
0.593176
0.595629
0.598016
0.600496
0.602686
0.604121
0.605446
0.608803
0.725497
1.12695
1.32788
1.39501
1.41597
0.540048
0.539986
0.539894
0.539809
0.539738
0.539769
0.539782
0.539666
0.539493
0.53948
0.539426
0.53924
0.538895
0.538656
0.538605
0.538534
0.538481
0.53851
0.538455
0.53831
0.538354
0.538366
0.538176
0.538109
0.538175
0.538088
0.537878
0.53766
0.537471
0.537427
0.53751
0.537845
0.538024
0.537973
0.537751
0.537516
0.537535
0.537572
0.537619
0.537886
0.538488
0.539007
0.539141
0.539146
0.53931
0.539702
0.540173
0.540471
0.540476
0.540409
0.540343
0.540636
0.541028
0.541087
0.541272
0.541708
0.542806
0.545107
0.549021
0.554343
0.559989
0.564517
0.567831
0.569797
0.570834
0.571402
0.572115
0.572144
0.571717
0.571222
0.571078
0.571257
0.571945
0.573434
0.575472
0.577214
0.57849
0.578702
0.578197
0.57826
0.578724
0.579829
0.581531
0.583427
0.585394
0.587619
0.590174
0.592111
0.593954
0.596336
0.599125
0.601225
0.602983
0.604938
0.606544
0.611224
0.731787
1.14062
1.39232
1.42264
0.540392
0.540318
0.540202
0.540017
0.539931
0.539971
0.539956
0.5398
0.539506
0.539449
0.539348
0.539083
0.538519
0.538358
0.538375
0.538366
0.53838
0.538506
0.538555
0.538571
0.538819
0.538941
0.539063
0.539297
0.539389
0.539307
0.539229
0.539313
0.539262
0.539155
0.539332
0.539874
0.540091
0.54045
0.541234
0.541783
0.542105
0.542427
0.542505
0.54239
0.542497
0.543119
0.5435
0.543445
0.543082
0.542792
0.542433
0.542211
0.542121
0.541718
0.541141
0.540791
0.540869
0.541013
0.541245
0.542087
0.543982
0.546812
0.551279
0.558332
0.565246
0.57041
0.573724
0.574122
0.573871
0.573369
0.572653
0.57183
0.571431
0.571696
0.572553
0.574293
0.576668
0.578399
0.579709
0.57963
0.579008
0.578142
0.578306
0.578814
0.579804
0.581168
0.582549
0.583967
0.585581
0.587785
0.589915
0.591658
0.593576
0.596217
0.598835
0.601071
0.602998
0.604796
0.60684
0.608787
0.613604
0.778808
1.21185
1.39508
0.547094
0.547177
0.5473
0.54734
0.547337
0.547499
0.547622
0.547647
0.54771
0.547653
0.547644
0.547791
0.547636
0.547625
0.54776