/*--------------------------------*- C++ -*----------------------------------*\
  =========                 |
  \\      /  F ield         | OpenFOAM: The Open Source CFD Toolbox
   \\    /   O peration     | Website:  https://openfoam.org
    \\  /    A nd           | Version:  7
     \\/     M anipulation  |
\*---------------------------------------------------------------------------*/
FoamFile
{
    version     2.0;
    format      ascii;
    class       volScalarField;
    location    "5.5";
    object      p;
}
// * * * * * * * * * * * * * * * * * * * * * * * * * * * * * * * * * * * * * //

dimensions      [1 -1 -2 0 0 0 0];

internalField   nonuniform List<scalar> 
1750
(
0.358302
0.568393
0.723089
0.83538
0.945649
0.957045
0.927863
0.909424
0.926106
0.926334
0.134149
0.201445
0.348396
0.515598
0.634417
0.746083
0.83579
0.900067
0.964403
0.94801
0.121192
0.12777
0.130995
0.145723
0.195992
0.292317
0.493122
0.711921
0.825995
0.896607
0.143116
0.137127
0.135452
0.143993
0.151038
0.153292
0.16591
0.246855
0.393879
0.674208
0.196732
0.178136
0.174416
0.181829
0.207062
0.232014
0.241413
0.252972
0.247918
0.30943
0.331865
0.33038
0.310757
0.306149
0.310956
0.312177
0.309224
0.301762
0.29234
0.290577
0.489286
0.491094
0.466734
0.433584
0.414895
0.400335
0.389507
0.375981
0.37808
0.376028
0.718715
0.67865
0.639349
0.614764
0.595331
0.570851
0.549234
0.523211
0.503371
0.475032
1.0722
0.997128
0.896442
0.834917
0.808694
0.773228
0.72252
0.675031
0.636579
0.580978
1.60965
1.47936
1.34131
1.1823
1.09397
1.03094
0.952923
0.876039
0.820226
0.739203
2.13447
2.04044
1.90862
1.7567
1.59275
1.45041
1.31887
1.1845
1.08153
0.943118
2.15277
2.13478
2.10256
2.07527
2.0321
1.95145
1.82958
1.67217
1.51574
1.28005
1.68197
1.83023
1.90199
1.95718
1.99835
2.00371
1.99391
1.95687
1.90025
1.71887
1.10459
1.17911
1.28252
1.40025
1.54235
1.67967
1.77952
1.85915
1.859
1.84963
1.00283
1.00664
1.01617
1.03522
1.07467
1.14673
1.25813
1.42244
1.60754
1.92331
0.161697
0.121658
0.107926
0.135982
0.198398
0.318093
0.473536
0.767961
1.15339
1.75962
2.17737
2.14899
1.55087
1.06121
1.00136
0.171993
0.115951
0.0954906
0.138997
0.218411
0.351101
0.57499
0.920293
1.34072
1.98915
2.23195
2.042
1.37312
1.02579
1.00043
0.165091
0.103543
0.0841765
0.145826
0.238635
0.411335
0.724725
1.05119
1.54524
2.15877
2.27717
1.91567
1.23413
1.0113
1.00016
0.157031
0.098193
0.0824925
0.184811
0.319088
0.535947
0.821337
1.18072
1.79515
2.28879
2.28973
1.77107
1.12605
1.00403
1.00005
0.149901
0.0977559
0.105666
0.236394
0.39134
0.606161
0.905969
1.38886
2.05883
2.35744
2.24353
1.51474
1.04631
1.00099
1.00001
0.136547
0.100726
0.137954
0.257344
0.418573
0.67721
1.08548
1.7199
2.2866
2.38235
2.04063
1.28622
1.01689
1.00028
1
0.123936
0.111467
0.147182
0.264233
0.449897
0.840617
1.42175
2.0173
2.42467
2.38866
1.84173
1.15884
1.0061
1.00008
1
0.109016
0.119564
0.148811
0.29642
0.687165
1.16607
1.71596
2.28016
2.5058
2.35582
1.59145
1.05968
1.00141
1.00002
1
0.0770384
0.114225
0.19068
0.514015
0.973324
1.445
2.00851
2.51293
2.53713
2.13775
1.27382
1.01497
1.00028
1
1
0.0428323
0.112408
0.333641
0.768106
1.23299
1.77765
2.38355
2.62189
2.5367
1.71587
1.10054
1.00368
1.00006
1
1
0.0265112
0.184468
0.570096
1.03827
1.59876
2.2152
2.6571
2.65518
2.21746
1.35289
1.0271
1.00063
1.00001
1
1
0.0290295
0.354163
0.860208
1.4413
2.13036
2.58373
2.75115
2.64324
1.78246
1.1192
1.00456
1.00008
1
1
1
0.0731078
0.6368
1.3625
2.04583
2.58207
2.74948
2.7754
2.21859
1.33322
1.02399
1.00063
1.00001
1
1
1
0.385832
1.22829
2.04104
2.54136
2.85165
2.77701
2.62468
1.68045
1.08613
1.00318
1.00005
1
1
1
1
1.31588
2.16839
2.60452
2.8189
2.91951
2.76651
2.04089
1.18467
1.00742
1.00013
1
1
1
1
1
2.89507
2.85353
2.82428
2.89329
2.93057
2.48722
1.30286
0.988719
0.99885
0.999977
1
1
1
1
1
2.88631
2.84774
2.80587
2.87467
2.90065
2.17824
1.16705
1.00513
1.00006
1
1
1
1
1
1
2.79819
2.86252
2.9167
2.90614
2.71315
1.68254
1.0373
1.00016
1
1
1
1
1
1
1
2.74451
2.88195
3.0292
2.9187
2.44088
1.28331
1.0055
1.00002
1
1
1
1
1
1
1
2.72282
2.89262
3.0832
2.9008
1.91045
1.06541
1.00039
1
1
1
1
1
1
1
1
2.76648
2.95563
3.11513
2.591
1.43881
1.01253
1.00004
1
1
1
1
1
1
1
1
2.95025
3.01284
3.1366
2.17552
1.11694
1.00089
1
1
1
1
1
1
1
1
1
3.26472
3.04443
2.77327
1.47593
1.0134
1.00004
1
1
1
1
1
1
1
1
1
3.60474
2.85075
2.13594
1.13591
1.00128
1
1
1
1
1
1
1
1
1
1
3.76869
2.61102
1.49336
1.0151
1.00005
1
1
1
1
1
1
1
1
1
1
3.6661
2.11053
1.16119
1.00197
1.00001
1
1
1
1
1
1
1
1
1
1
3.21524
1.6544
1.03937
1.00021
1
1
1
1
1
1
1
1
1
1
1
2.6666
1.29084
1.00685
1.00002
1
1
1
1
1
1
1
1
1
1
1
1.97589
1.10067
1.00099
1
1
1
1
1
1
1
1
1
1
1
1
1.39191
1.01666
1.00006
1
1
1
1
1
1
1
1
1
1
1
1
1
1
1
1
1
1
1
1
1
1
1
1
1
1
1
1
1
1
1
1
1
1
1
1
1
1
1
1
1
1
1
1
1
1
1
1
1
1
1
1
1
1
1
1
1
1
1
1
1
1
1
1
1
1
1
1
1
1
1
1
1
1
1
1
1
1
1
1
1
1
1
1
1
1
1
1
1
1
1
1
1
1
1
1
1
1
1
1
1
1
1
1
1
1
1
1
1
1
1
1
1
1
1
1
1
1
1
1
1
1
1
1
1
1
1
1
1
1
1
1
1
1
1
1
1
1
1
1
1
1
1
1
1
1
1
1
1
1
1
1
1
1
1
1
1
1
1
1
1
1
1
1
1
1
1
1
1
1
1
1
1
1
1
1
1
1
1
1
1
1
1
1
1
1
1
1
1
1
1
1
1
1
1
1
1
1
1
1
1
1
1
1
1
1
1
1
1
1
1
1
1
1
1
1
1
1
1
1
1
1
1
1
1
1
1
1
1
1
1
1
1
1
1
1
1
1
1
1
1
1
1
1
1
1
1
1
1
1
1
1
1
1
1
1
1
1
1
1
1
1
1
1
1
1
1
1
1
1
1
1
1
1
1
1
1
1
1
1
1
1
1
1
1
1
1
1
1
1
1
1
1
1
1
1
1
1
1
1
1
1
1
1
1
1
1
1
1
1
1
1
1
1
1
1
1
1
1
1
1
1
1
1
1
1
1
1
1
1
1
1
1
1
1
1
1
1
1
1
1
1
1
1
1
1
1
1
1
1
1
1
1
1
1
1
1
1
1
1
1
1
1.78938
1.01391
1
1
1
1
1
1
1
1
1
1
1
1
1
1
1
1
1
1
3.04683
1.22954
0.999368
1
1
1
1
1
1
1
1
1
1
1
1
1
1
1
1
1
4.70247
1.88747
1.01408
0.999957
1
1
1
1
1
1
1
1
1
1
1
1
1
1
1
1
5.5686
3.27846
1.45879
1.00082
1
1
1
1
1
1
1
1
1
1
1
1
1
1
1
1
5.26744
4.18363
3.03161
1.23146
0.999718
0.999999
1
1
1
1
1
1
1
1
1
1
1
1
1
1
4.52936
4.30757
4.23619
2.57901
1.10743
0.99977
0.999998
1
1
1
1
1
1
1
1
1
1
1
1
1
3.95713
4.14393
4.38627
3.80595
1.93674
1.02375
0.999939
0.999998
1
1
1
1
1
1
1
1
1
1
1
1
3.87511
4.01771
4.28373
4.15704
3.18301
1.35813
1.00094
1
1
1
1
1
1
1
1
1
1
1
1
1
3.9317
4.00274
4.08169
4.12474
4.07882
2.5069
1.1048
0.999894
0.999998
1
1
1
1
1
1
1
1
1
1
1
4.01524
3.98406
3.96246
4.05476
4.12129
3.45476
1.72732
1.01422
0.999978
0.999999
1
1
1
1
1
1
1
1
1
1
4.00508
3.98481
3.97146
4.01748
4.0941
4.01983
2.82765
1.19908
1.00027
1
1
1
1
1
1
1
1
1
1
1
4.00099
3.9966
4.00449
4.02848
4.07757
4.066
3.61538
1.9159
1.02881
0.999987
1
1
1
1
1
1
1
1
1
1
4.0305
4.03848
4.03658
4.03189
4.04607
4.05052
3.82886
2.86752
1.27073
1.00093
1
1
1
1
1
1
1
1
1
1
4.09283
4.07789
4.043
4.02802
4.02501
4.04947
4.00564
3.72356
2.00743
1.05782
1.00062
1
1
1
1
1
1
1
1
1
4.12436
4.09228
4.05675
4.04474
4.04528
4.07494
4.07107
3.92632
2.82576
1.15127
0.986754
0.999026
0.99999
1
1
1
1
1
1
1
1.53386
2.70337
3.38001
3.71279
3.89294
4.0099
4.05939
3.95864
3.83263
2.55012
1.30979
1.01659
1.00036
1.00001
1
1
1
1
1
1
0.25679
1.32415
2.22692
2.89577
3.3709
3.675
3.93192
3.87332
4.06119
3.78692
2.42191
1.27222
1.01521
1.00033
1
1
1
1
1
1
0.123892
0.676676
1.27
1.87678
2.54038
3.06026
3.46271
3.6754
3.99241
3.95549
3.50062
2.1345
1.17227
1.00745
1.00013
1
1
1
1
1
0.112378
0.39892
0.790951
1.22068
1.72295
2.33909
2.80787
3.27248
3.67623
3.86773
3.84208
3.26681
1.79874
1.08444
1.00256
1.00004
1
1
1
1
0.145217
0.249164
0.441848
0.843166
1.2357
1.71994
2.24398
2.74751
3.18284
3.5615
3.79408
3.72267
2.87664
1.46302
1.02948
1.00056
1.00001
1
1
1
0.252163
0.235967
0.252196
0.495368
0.871606
1.257
1.76012
2.21385
2.6943
3.09095
3.54811
3.6897
3.53054
2.33861
1.20964
1.00815
1.00011
1
1
1
0.350601
0.255748
0.242039
0.381852
0.623153
0.932806
1.33522
1.78084
2.21635
2.61812
3.12063
3.54455
3.53521
3.09309
1.71382
1.05577
1.00116
1.00001
1
1
0.385792
0.270698
0.231562
0.343627
0.50078
0.744202
1.04671
1.4528
1.82799
2.28314
2.68925
3.22744
3.47841
3.38832
2.45707
1.262
1.00956
1.00013
1
1
0.37131
0.268094
0.234568
0.289258
0.383084
0.61424
0.851174
1.19736
1.56628
1.97783
2.36681
2.86683
3.32488
3.39246
2.95545
1.71704
1.05785
1.00104
1.00001
1
0.343904
0.27501
0.256848
0.280546
0.310277
0.4539
0.680332
0.940188
1.32466
1.60882
2.04383
2.4589
3.00831
3.33773
3.25216
2.27553
1.22142
1.0077
1.00009
1
0.322605
0.294062
0.289441
0.278974
0.291563
0.401458
0.581858
0.797209
1.1091
1.39168
1.75282
2.1585
2.60251
3.13613
3.27179
2.85479
1.56431
1.03746
1.0006
1.00001
0.286531
0.29905
0.305403
0.272919
0.278344
0.374096
0.519958
0.727378
0.97392
1.25757
1.54873
1.94651
2.33957
2.86763
3.22335
3.13903
2.15624
1.14715
1.00358
1.00004
0.269701
0.293727
0.303651
0.273461
0.267486
0.338144
0.434431
0.644326
0.851689
1.12439
1.38216
1.73667
2.10807
2.57674
3.0784
3.11155
2.59867
1.42644
1.02062
1.00025
0.269305
0.290611
0.304513
0.277421
0.270123
0.320192
0.372434
0.525953
0.724516
0.96054
1.21914
1.4884
1.85159
2.25747
2.81283
3.03441
2.78604
1.75127
1.0672
1.0011
0.280695
0.286544
0.300894
0.285703
0.282083
0.319503
0.347638
0.443537
0.623726
0.822105
1.09072
1.33998
1.68222
2.04439
2.53303
2.95295
2.90165
2.13832
1.17423
1.00488
0.383622
0.291978
0.296587
0.291075
0.293268
0.319343
0.353326
0.45561
0.609594
0.788284
1.03468
1.28176
1.58131
1.9304
2.34527
2.85289
2.91583
2.47576
1.37475
1.01632
0.504938
0.331225
0.29746
0.286792
0.293148
0.307706
0.352069
0.454219
0.57721
0.746907
0.957135
1.21464
1.44547
1.75931
2.13941
2.64174
2.8923
2.62902
1.66399
1.05426
0.61152
0.396711
0.304336
0.284004
0.292167
0.291473
0.338299
0.437907
0.516413
0.688178
0.865041
1.10958
1.34414
1.58629
1.92731
2.39936
2.81124
2.72361
1.97601
1.14801
0.735634
0.513248
0.324356
0.290492
0.290406
0.288081
0.339487
0.431762
0.490774
0.641033
0.808006
1.00431
1.25202
1.48696
1.76124
2.17032
2.6698
2.71326
2.25141
1.33945
0.920401
0.674176
0.372785
0.294945
0.288578
0.286992
0.33986
0.423219
0.478895
0.606668
0.774202
0.942991
1.15131
1.39003
1.64279
1.97322
2.45777
2.66952
2.43219
1.65727
0.991824
0.829587
0.535947
0.306354
0.286371
0.286711
0.336094
0.402372
0.466375
0.580652
0.718275
0.878436
1.06253
1.28042
1.5145
1.80766
2.22258
2.57218
2.47847
2.0868
0.975189
0.956581
0.756426
0.374314
0.28458
0.290548
0.331014
0.376375
0.44654
0.560052
0.663334
0.809835
0.977344
1.18177
1.38693
1.64097
1.99721
2.42227
2.47263
2.56088
0.926541
0.952052
0.827564
0.553866
0.303369
0.290118
0.329542
0.357287
0.426681
0.535449
0.618495
0.754397
0.9006
1.07965
1.27842
1.49015
1.79388
2.22341
2.51512
2.98758
0.910925
0.923424
0.888163
0.753427
0.380159
0.286102
0.324993
0.351216
0.422207
0.507363
0.581385
0.710369
0.844775
0.995606
1.18537
1.381
1.62945
2.03358
2.56994
3.34815
0.91515
0.907606
0.919024
0.85437
0.641675
0.358321
0.313178
0.343996
0.407673
0.463501
0.530457
0.639525
0.754299
0.884979
1.0426
1.21669
1.41393
1.79104
2.5545
3.75821
)
;

boundaryField
{
    inlet
    {
        type            fixedValue;
        value           uniform 1;
    }
    outlet
    {
        type            zeroGradient;
    }
    airfoil
    {
        type            zeroGradient;
    }
    top
    {
        type            symmetryPlane;
    }
    bottom
    {
        type            symmetryPlane;
    }
    defaultFaces
    {
        type            empty;
    }
}


// ************************************************************************* //
