/*--------------------------------*- C++ -*----------------------------------*\
  =========                 |
  \\      /  F ield         | OpenFOAM: The Open Source CFD Toolbox
   \\    /   O peration     | Website:  https://openfoam.org
    \\  /    A nd           | Version:  7
     \\/     M anipulation  |
\*---------------------------------------------------------------------------*/
FoamFile
{
    version     2.0;
    format      ascii;
    class       volScalarField;
    location    "2";
    object      p;
}
// * * * * * * * * * * * * * * * * * * * * * * * * * * * * * * * * * * * * * //

dimensions      [1 -1 -2 0 0 0 0];

internalField   nonuniform List<scalar> 
90000
(
0.783222
0.7881
0.794026
0.80007
0.80647
0.812544
0.818771
0.824506
0.8303
0.835541
0.840817
0.845483
0.850279
0.854303
0.8593
0.86399
0.869892
0.875853
0.883036
0.890652
0.899033
0.907864
0.91684
0.925514
0.933819
0.940185
0.947561
0.951533
0.954654
0.957986
0.959663
0.959923
0.960508
0.960287
0.957434
0.949862
0.941676
0.934413
0.929466
0.926515
0.927194
0.928851
0.931566
0.934114
0.936554
0.938483
0.938228
0.93759
0.936375
0.934624
0.931979
0.929472
0.928123
0.928556
0.930396
0.933627
0.937068
0.9391
0.939676
0.938907
0.93705
0.934579
0.934054
0.93491
0.936965
0.939099
0.939582
0.939227
0.937574
0.936921
0.937441
0.93929
0.941267
0.941687
0.940938
0.941027
0.942347
0.946346
0.953185
0.965112
0.983449
1.00675
1.02614
1.03601
1.04323
1.04892
1.05507
1.06404
1.0705
1.07464
1.0796
1.08496
1.08731
1.0882
1.08896
1.08957
1.09003
1.09008
1.09084
1.09025
0.779468
0.780123
0.781316
0.783084
0.785428
0.788306
0.791724
0.79556
0.799885
0.804518
0.809582
0.8148
0.820302
0.82591
0.831169
0.836346
0.841353
0.846602
0.851876
0.85782
0.863918
0.870741
0.877975
0.885286
0.893883
0.901567
0.910196
0.918382
0.925625
0.932925
0.938571
0.942943
0.9482
0.950687
0.950438
0.95075
0.951919
0.951123
0.947959
0.942605
0.937456
0.932998
0.930023
0.928755
0.929109
0.930406
0.931904
0.933467
0.934967
0.936638
0.93643
0.935291
0.932976
0.930772
0.929385
0.929846
0.931569
0.934269
0.936667
0.939103
0.938827
0.937681
0.935812
0.9342
0.934739
0.935882
0.937599
0.939122
0.938927
0.937981
0.937629
0.938358
0.939859
0.941004
0.941035
0.941371
0.942558
0.945904
0.952899
0.965136
0.983388
1.00669
1.02534
1.03556
1.04303
1.04841
1.05495
1.06412
1.07036
1.07459
1.07929
1.0846
1.08748
1.08841
1.08911
1.08969
1.08993
1.09
1.09064
1.09037
0.779392
0.779408
0.779437
0.779489
0.779573
0.779707
0.779933
0.780302
0.780875
0.781679
0.782805
0.784279
0.786134
0.788512
0.791247
0.79454
0.798019
0.80204
0.806306
0.810968
0.816149
0.821499
0.827735
0.834044
0.841401
0.849249
0.857365
0.867186
0.876675
0.886454
0.898106
0.907463
0.916573
0.926564
0.934058
0.939231
0.943192
0.944582
0.945053
0.945749
0.946863
0.946176
0.943646
0.939686
0.936262
0.93357
0.932024
0.932084
0.932713
0.933884
0.935169
0.936372
0.936443
0.935638
0.933856
0.931906
0.931049
0.931743
0.933381
0.935954
0.93835
0.939736
0.938863
0.936678
0.93483
0.935198
0.936506
0.938438
0.939689
0.93939
0.938312
0.938123
0.938906
0.940485
0.941522
0.941841
0.942729
0.945685
0.952813
0.965311
0.983617
1.00672
1.02483
1.03521
1.04297
1.04779
1.05443
1.06412
1.0701
1.07462
1.07903
1.08422
1.08746
1.08847
1.0892
1.0898
1.08974
1.08981
1.09066
1.09024
0.779195
0.779153
0.779109
0.779071
0.779048
0.779041
0.779038
0.779045
0.779064
0.779091
0.779114
0.77915
0.779214
0.779329
0.779505
0.779895
0.780502
0.781335
0.782456
0.783894
0.785768
0.788119
0.790957
0.794562
0.798567
0.803705
0.809377
0.816183
0.824111
0.833088
0.842891
0.85447
0.866718
0.878487
0.892695
0.904543
0.916703
0.925463
0.932676
0.937876
0.940885
0.941585
0.941976
0.941641
0.94068
0.939589
0.937655
0.935804
0.934381
0.933511
0.93362
0.93426
0.934794
0.935091
0.934841
0.933958
0.932613
0.931452
0.931769
0.932923
0.935023
0.937148
0.939616
0.939025
0.937196
0.935419
0.935263
0.936345
0.938109
0.939903
0.939407
0.938577
0.938517
0.939426
0.940866
0.941988
0.943108
0.94569
0.952503
0.965367
0.983942
1.00674
1.0247
1.03577
1.04331
1.04739
1.05438
1.06396
1.06986
1.07422
1.07853
1.08366
1.08738
1.08861
1.08942
1.08998
1.08966
1.08971
1.09039
1.09015
0.779173
0.779138
0.779124
0.779116
0.779115
0.779115
0.779106
0.7791
0.779106
0.779084
0.779063
0.779049
0.779047
0.779058
0.7791
0.77906
0.778999
0.778937
0.77894
0.778974
0.779038
0.77918
0.779425
0.779833
0.780619
0.781778
0.783349
0.785555
0.788354
0.792296
0.797098
0.803537
0.811249
0.820938
0.832042
0.84525
0.859449
0.874482
0.890597
0.902875
0.915601
0.923196
0.930761
0.933886
0.937123
0.937475
0.937855
0.93851
0.939205
0.938929
0.938133
0.936989
0.935714
0.934771
0.934294
0.933975
0.933811
0.933507
0.933189
0.93313
0.933434
0.934379
0.935682
0.93696
0.938747
0.938425
0.937456
0.93655
0.93694
0.937997
0.939377
0.939879
0.939416
0.939221
0.939902
0.941187
0.943187
0.946249
0.953137
0.965863
0.984616
1.00715
1.02421
1.0364
1.04322
1.04708
1.05418
1.06333
1.06944
1.07395
1.07823
1.08326
1.08726
1.08868
1.08961
1.08997
1.08951
1.08957
1.09031
1.09013
0.779148
0.779123
0.779111
0.77911
0.779116
0.779122
0.779126
0.779143
0.779164
0.779149
0.779135
0.779116
0.779099
0.779106
0.77911
0.779082
0.779
0.778851
0.778783
0.778781
0.778799
0.778843
0.778918
0.779076
0.779038
0.779015
0.779038
0.779114
0.779288
0.779647
0.780235
0.781463
0.783314
0.786284
0.790246
0.796351
0.803921
0.814833
0.827288
0.842962
0.859578
0.876745
0.893758
0.90685
0.920305
0.92713
0.933616
0.93616
0.937472
0.937438
0.937295
0.936892
0.93623
0.935681
0.935282
0.935396
0.935512
0.935221
0.934484
0.933476
0.932501
0.932547
0.932956
0.934731
0.936855
0.938056
0.938664
0.938155
0.937187
0.937208
0.938116
0.93921
0.940344
0.940191
0.939828
0.940497
0.942362
0.945736
0.952655
0.96603
0.98592
1.00706
1.02406
1.03732
1.04296
1.047
1.05404
1.06268
1.06898
1.0736
1.07796
1.08282
1.08701
1.08865
1.08977
1.09004
1.08944
1.08946
1.0901
1.09003
0.779171
0.779149
0.779143
0.779145
0.779152
0.779158
0.779167
0.779191
0.779187
0.779177
0.779187
0.779192
0.779182
0.779183
0.779222
0.779221
0.779147
0.778974
0.778874
0.778855
0.778852
0.778866
0.778916
0.778899
0.7788
0.778764
0.778791
0.77884
0.778923
0.779034
0.77928
0.779243
0.779244
0.779348
0.779599
0.780146
0.781365
0.783755
0.787402
0.793685
0.802001
0.814794
0.829473
0.84775
0.866623
0.884546
0.902282
0.912931
0.9238
0.927513
0.931501
0.932475
0.933757
0.935752
0.937482
0.938034
0.937638
0.936909
0.935474
0.934066
0.932744
0.932462
0.93303
0.933939
0.93515
0.936572
0.93742
0.937876
0.93806
0.93802
0.937996
0.938394
0.939132
0.939898
0.940503
0.94098
0.942229
0.945317
0.952108
0.965441
0.985808
1.00706
1.02627
1.03911
1.04296
1.04711
1.05394
1.06192
1.06788
1.07254
1.07734
1.08242
1.08674
1.08857
1.08977
1.08998
1.08938
1.0894
1.09002
1.08989
0.779225
0.779204
0.779203
0.779209
0.779217
0.779219
0.779223
0.779257
0.779263
0.779229
0.779209
0.779213
0.779219
0.779238
0.779301
0.779286
0.779201
0.779041
0.778927
0.778896
0.778891
0.778907
0.778956
0.778951
0.778843
0.77876
0.778758
0.778794
0.778871
0.778862
0.778812
0.77884
0.77889
0.778969
0.779079
0.779307
0.779319
0.77939
0.779539
0.779953
0.781073
0.783655
0.787928
0.795831
0.806262
0.822117
0.83994
0.860528
0.881159
0.897764
0.913323
0.92237
0.930537
0.93343
0.935581
0.936242
0.93601
0.934696
0.934578
0.934873
0.93545
0.935246
0.934815
0.934275
0.933894
0.934221
0.93527
0.936684
0.937782
0.938365
0.938585
0.938395
0.938574
0.939262
0.940273
0.941149
0.942394
0.945426
0.952246
0.965254
0.984749
1.00709
1.02764
1.03841
1.04256
1.04721
1.05378
1.06111
1.06712
1.07211
1.07716
1.08235
1.08663
1.08847
1.08963
1.08987
1.08935
1.08939
1.08994
1.08975
0.779348
0.779241
0.779208
0.779214
0.779228
0.779239
0.779247
0.779254
0.779286
0.779322
0.779293
0.779267
0.779264
0.779288
0.779351
0.779328
0.779226
0.779093
0.779047
0.779045
0.779027
0.779005
0.779007
0.779002
0.778951
0.778863
0.778853
0.778895
0.778948
0.778934
0.778843
0.778759
0.778754
0.778772
0.7788
0.778851
0.778944
0.779046
0.779137
0.779326
0.779284
0.779345
0.77961
0.780451
0.782179
0.786019
0.792143
0.803355
0.817609
0.837584
0.858739
0.879156
0.899019
0.910268
0.921266
0.925765
0.9293
0.930922
0.93434
0.937152
0.938372
0.937989
0.936864
0.935021
0.933293
0.93336
0.933942
0.935155
0.936833
0.937592
0.93806
0.938328
0.938753
0.939287
0.939946
0.940676
0.941993
0.945163
0.952248
0.965232
0.984262
1.00694
1.02749
1.0374
1.04206
1.04715
1.05358
1.06043
1.06644
1.07198
1.0774
1.08236
1.08634
1.08848
1.08952
1.08976
1.08933
1.08942
1.08994
1.08972
0.77948
0.779336
0.779229
0.779221
0.779236
0.779255
0.779266
0.779272
0.779286
0.779334
0.779337
0.779322
0.779329
0.779364
0.779351
0.77929
0.779181
0.77912
0.779113
0.779114
0.779086
0.77905
0.779028
0.779011
0.778983
0.778927
0.778863
0.778855
0.778862
0.778845
0.7788
0.778732
0.778643
0.778618
0.778626
0.778643
0.778671
0.77872
0.778771
0.778816
0.778898
0.779018
0.779259
0.779338
0.77946
0.779715
0.78033
0.781951
0.785069
0.791928
0.802157
0.818971
0.838808
0.861244
0.883713
0.900826
0.916749
0.925918
0.932106
0.93458
0.936425
0.936
0.934597
0.934574
0.934713
0.934964
0.935299
0.935264
0.935394
0.936025
0.937041
0.938043
0.938838
0.939326
0.939622
0.940207
0.941622
0.944944
0.952038
0.964783
0.984111
1.00707
1.02695
1.03585
1.04108
1.0469
1.05341
1.06003
1.06593
1.07155
1.07731
1.08216
1.08603
1.08835
1.08927
1.08956
1.08929
1.0895
1.08999
1.08965
0.779476
0.779387
0.779234
0.779154
0.779146
0.779156
0.779171
0.779183
0.779202
0.779233
0.779247
0.779257
0.779301
0.779296
0.779263
0.779222
0.779151
0.779122
0.779138
0.779144
0.779104
0.779051
0.779015
0.778993
0.77897
0.778935
0.778895
0.778862
0.778843
0.778822
0.77879
0.778747
0.778679
0.778639
0.778654
0.778679
0.778701
0.77873
0.778766
0.778798
0.778831
0.778889
0.779007
0.779174
0.779328
0.779475
0.779612
0.779807
0.780133
0.780879
0.782442
0.786359
0.793025
0.806114
0.823011
0.845496
0.869141
0.889363
0.907995
0.91632
0.92549
0.928241
0.932266
0.9354
0.937823
0.937592
0.93665
0.935039
0.934552
0.934893
0.935892
0.937596
0.938257
0.938672
0.939007
0.939907
0.941633
0.945041
0.951745
0.964276
0.984142
1.00787
1.02614
1.03444
1.04046
1.0464
1.05299
1.05972
1.06563
1.07115
1.07697
1.08185
1.08587
1.08812
1.08893
1.08922
1.08918
1.08953
1.09003
1.08957
0.77942
0.779384
0.779346
0.779272
0.77916
0.779128
0.779131
0.779141
0.779156
0.779182
0.779203
0.77923
0.779276
0.779258
0.77924
0.779269
0.779266
0.779235
0.779229
0.779214
0.77915
0.779093
0.779097
0.779096
0.779077
0.779053
0.779026
0.778995
0.778979
0.778971
0.778946
0.778906
0.77886
0.778793
0.778774
0.7788
0.778823
0.778841
0.778854
0.77887
0.778877
0.778885
0.778921
0.779003
0.779096
0.779195
0.779298
0.779423
0.779575
0.779747
0.779946
0.780301
0.781118
0.783383
0.787779
0.797511
0.811307
0.832809
0.856106
0.879485
0.901303
0.915559
0.92869
0.932998
0.935987
0.935933
0.93345
0.933128
0.934385
0.935798
0.936774
0.936864
0.936982
0.937344
0.938318
0.939949
0.94174
0.944905
0.95135
0.963798
0.984232
1.0083
1.02515
1.0338
1.04013
1.04627
1.05273
1.05945
1.06537
1.07086
1.07665
1.08156
1.08581
1.08787
1.08859
1.08894
1.08901
1.08947
1.09002
1.08956
0.779426
0.779419
0.779392
0.779328
0.779216
0.779171
0.779167
0.779179
0.779195
0.779209
0.779242
0.779293
0.779268
0.779215
0.779207
0.779237
0.779298
0.779307
0.779263
0.779199
0.779104
0.779056
0.779072
0.77908
0.779061
0.779035
0.778987
0.778931
0.778934
0.778944
0.778926
0.77888
0.77883
0.778781
0.778727
0.778698
0.778707
0.778723
0.778731
0.778742
0.778747
0.778747
0.778761
0.778804
0.778854
0.778899
0.778956
0.779044
0.779163
0.779309
0.779449
0.779551
0.779636
0.779812
0.780321
0.781726
0.784756
0.791761
0.803111
0.822672
0.845225
0.870396
0.893879
0.909289
0.920273
0.926835
0.92849
0.932351
0.937329
0.937413
0.936979
0.935684
0.935923
0.936378
0.938265
0.939866
0.941335
0.944375
0.950831
0.963624
0.984298
1.00805
1.02442
1.03369
1.04022
1.04681
1.05317
1.05953
1.06526
1.07077
1.07642
1.0813
1.0858
1.08765
1.08839
1.08868
1.08883
1.08938
1.09001
1.08958
0.779416
0.779357
0.779287
0.779172
0.77911
0.7791
0.779107
0.779121
0.77913
0.779148
0.779185
0.779164
0.779094
0.779069
0.779083
0.779125
0.779175
0.779163
0.779106
0.779036
0.778942
0.778895
0.778905
0.778904
0.778885
0.778865
0.778819
0.778738
0.778737
0.778755
0.778745
0.778706
0.778658
0.778628
0.778612
0.778571
0.778547
0.778558
0.778568
0.778576
0.778582
0.778581
0.778582
0.778592
0.778596
0.778585
0.778581
0.778623
0.778718
0.778862
0.779042
0.7792
0.779297
0.779372
0.779396
0.779273
0.779293
0.779929
0.781918
0.787179
0.796677
0.814637
0.836204
0.86458
0.887482
0.910419
0.923418
0.930734
0.934752
0.935026
0.933704
0.934058
0.935519
0.937316
0.938477
0.939202
0.940221
0.943232
0.95032
0.963921
0.984387
1.00735
1.02425
1.03401
1.04028
1.04627
1.05259
1.0591
1.06525
1.07089
1.07635
1.08118
1.08572
1.08745
1.0883
1.0885
1.08865
1.08929
1.08998
1.08951
0.77934
0.779196
0.779016
0.778983
0.778983
0.778998
0.779032
0.779034
0.779034
0.779049
0.779023
0.778936
0.778888
0.778905
0.778945
0.778954
0.778914
0.778885
0.778853
0.778749
0.778614
0.778548
0.77852
0.778529
0.778558
0.778568
0.778526
0.778432
0.778422
0.778447
0.778438
0.778401
0.778363
0.778339
0.778327
0.778275
0.778245
0.778257
0.778278
0.778294
0.778304
0.778301
0.778288
0.77828
0.778275
0.778262
0.778239
0.778252
0.778326
0.778431
0.778569
0.778733
0.778875
0.778967
0.779017
0.779066
0.77914
0.779169
0.779231
0.779496
0.780625
0.784277
0.792629
0.808388
0.831282
0.858263
0.8838
0.90607
0.915988
0.923747
0.928572
0.934626
0.938669
0.938734
0.938188
0.937482
0.938727
0.942153
0.95052
0.964036
0.983778
1.00625
1.02433
1.03438
1.04095
1.04624
1.05238
1.05867
1.06463
1.07082
1.07634
1.08123
1.08569
1.0873
1.08818
1.08834
1.08852
1.08926
1.08997
1.08937
0.779066
0.779032
0.779037
0.779051
0.779063
0.77908
0.779128
0.779143
0.779132
0.779151
0.779163
0.779124
0.779074
0.779051
0.779024
0.778964
0.778882
0.778788
0.778678
0.778544
0.778505
0.778518
0.778515
0.778479
0.778431
0.778369
0.778295
0.778246
0.778244
0.778254
0.778206
0.778043
0.777847
0.777779
0.777779
0.777749
0.777704
0.777709
0.777729
0.777754
0.777794
0.777743
0.777653
0.777599
0.77758
0.777571
0.777569
0.777654
0.777796
0.777889
0.777971
0.77806
0.778155
0.7783
0.778534
0.778767
0.778993
0.778983
0.778833
0.778743
0.778752
0.778975
0.78008
0.783155
0.791454
0.80508
0.828923
0.856584
0.881832
0.907416
0.923111
0.932447
0.936336
0.93576
0.934502
0.935287
0.937747
0.942943
0.950406
0.96249
0.98243
1.00658
1.02395
1.03297
1.03984
1.04641
1.05256
1.05829
1.06408
1.07056
1.07637
1.08141
1.08569
1.08715
1.08813
1.08819
1.08845
1.08926
1.08995
1.08922
0.779008
0.779018
0.779031
0.779044
0.77906
0.779099
0.779132
0.779117
0.779095
0.779116
0.779136
0.779099
0.779023
0.77891
0.778784
0.778695
0.778601
0.778456
0.778286
0.778234
0.778267
0.778301
0.778288
0.778222
0.778136
0.778033
0.777937
0.777899
0.777906
0.777911
0.777859
0.777782
0.777777
0.777803
0.777814
0.777799
0.777739
0.777703
0.777702
0.77772
0.777761
0.777747
0.777658
0.777578
0.777529
0.777521
0.77752
0.777382
0.777275
0.777252
0.777311
0.77751
0.777751
0.777969
0.778224
0.778479
0.778707
0.778895
0.779017
0.778998
0.778975
0.779031
0.779251
0.779718
0.780971
0.783863
0.791645
0.805006
0.828283
0.856826
0.882481
0.906817
0.918573
0.925654
0.931091
0.936257
0.940248
0.943254
0.948332
0.96034
0.981556
1.00687
1.02234
1.03178
1.03977
1.04694
1.05305
1.05825
1.06369
1.07024
1.07626
1.08177
1.0858
1.08705
1.08796
1.08795
1.08835
1.08923
1.08996
1.08913
0.779019
0.779035
0.779056
0.779072
0.779091
0.779141
0.779176
0.779175
0.779166
0.779164
0.779194
0.77922
0.779179
0.779092
0.778977
0.778851
0.778686
0.77851
0.778486
0.778528
0.778584
0.778615
0.778578
0.778493
0.778394
0.778272
0.778147
0.77809
0.77807
0.778032
0.777945
0.777834
0.777748
0.77768
0.777623
0.777593
0.777535
0.777455
0.777422
0.777425
0.777447
0.777498
0.777508
0.777419
0.777334
0.777284
0.77727
0.777268
0.777272
0.777279
0.777318
0.777377
0.777466
0.777621
0.777834
0.778092
0.778366
0.778683
0.779014
0.779183
0.779214
0.779262
0.779459
0.779824
0.780322
0.781032
0.782373
0.785218
0.792921
0.806229
0.830599
0.860164
0.886763
0.913191
0.927169
0.9342
0.937513
0.938305
0.944442
0.958876
0.982986
1.00623
1.01976
1.03063
1.04005
1.04765
1.0525
1.05745
1.06334
1.06996
1.076
1.08211
1.08593
1.08704
1.08783
1.08776
1.08832
1.08926
1.09006
1.08916
0.779007
0.779023
0.779044
0.779073
0.779093
0.779109
0.779153
0.779206
0.779192
0.779185
0.779212
0.779221
0.7792
0.779162
0.779085
0.778909
0.778641
0.77858
0.778601
0.778653
0.778724
0.778739
0.778682
0.778629
0.778571
0.77845
0.778274
0.778203
0.778195
0.778169
0.778107
0.778037
0.777968
0.777868
0.777758
0.777733
0.777732
0.777698
0.77765
0.777614
0.77759
0.777587
0.777612
0.777577
0.777507
0.777465
0.777441
0.777422
0.777392
0.777361
0.777367
0.777437
0.777527
0.777624
0.777762
0.77798
0.77826
0.778575
0.778945
0.779284
0.779464
0.779581
0.779727
0.780016
0.780389
0.780851
0.781486
0.781944
0.782962
0.78559
0.793674
0.808196
0.834389
0.864529
0.890455
0.911196
0.921756
0.929768
0.942857
0.961199
0.983972
1.00252
1.01776
1.03067
1.04087
1.04723
1.05201
1.05723
1.06316
1.06966
1.07578
1.08232
1.08585
1.08717
1.08766
1.08762
1.08838
1.08929
1.09021
1.08924
0.778978
0.778994
0.779009
0.779029
0.779062
0.779083
0.7791
0.77914
0.779189
0.779187
0.779185
0.779183
0.779198
0.77921
0.779151
0.778948
0.77875
0.778737
0.778766
0.778829
0.778894
0.778872
0.778832
0.77887
0.778873
0.778754
0.778581
0.778484
0.778446
0.778409
0.778374
0.778335
0.778279
0.778174
0.77803
0.777981
0.778007
0.778056
0.778021
0.777944
0.777888
0.777852
0.777838
0.777847
0.77784
0.777798
0.77775
0.777722
0.777714
0.777693
0.777654
0.777629
0.777625
0.777645
0.777702
0.777849
0.7781
0.778411
0.778772
0.779153
0.779468
0.779711
0.779889
0.780116
0.780382
0.78072
0.781108
0.781659
0.781982
0.782162
0.783009
0.785996
0.79533
0.811468
0.838928
0.868303
0.896613
0.919005
0.939432
0.957761
0.977709
0.999185
1.01785
1.03233
1.04113
1.04623
1.05147
1.05707
1.06314
1.06934
1.07565
1.08266
1.08588
1.08679
1.08727
1.08761
1.0885
1.08927
1.09031
1.08929
0.778917
0.778933
0.778953
0.778975
0.779
0.779028
0.779052
0.779072
0.779106
0.779164
0.779177
0.779139
0.77914
0.779161
0.779115
0.778945
0.778755
0.778737
0.778766
0.778827
0.778887
0.778867
0.778834
0.778883
0.778908
0.778802
0.778632
0.778582
0.778581
0.778541
0.778499
0.778484
0.778453
0.77839
0.778286
0.778156
0.778112
0.778125
0.7781
0.778043
0.777996
0.777958
0.777929
0.777908
0.777891
0.777887
0.777889
0.777907
0.77801
0.778082
0.77797
0.777836
0.777752
0.777695
0.777668
0.777726
0.777907
0.778167
0.778482
0.778874
0.779283
0.779628
0.77984
0.780001
0.780221
0.780481
0.780737
0.78132
0.781774
0.782169
0.782294
0.7826
0.783901
0.787808
0.797678
0.816248
0.844045
0.875308
0.908288
0.934178
0.966979
0.998255
1.02153
1.0331
1.0379
1.04452
1.05123
1.0569
1.06282
1.06892
1.07576
1.08264
1.0853
1.08623
1.08702
1.08774
1.08869
1.08923
1.09037
1.08927
0.778853
0.778869
0.778885
0.778907
0.778935
0.77896
0.778978
0.779013
0.779047
0.779063
0.779085
0.779062
0.77903
0.779044
0.779022
0.778909
0.778728
0.778687
0.778715
0.778739
0.778757
0.778756
0.778749
0.778793
0.778814
0.778703
0.778559
0.778545
0.778569
0.778548
0.778461
0.778438
0.778444
0.778423
0.778382
0.778304
0.778201
0.778145
0.778082
0.777998
0.777929
0.777874
0.777832
0.777806
0.777799
0.777802
0.77782
0.777894
0.778035
0.778129
0.778097
0.777998
0.77789
0.777756
0.777637
0.777569
0.777609
0.777802
0.778075
0.778401
0.778796
0.779249
0.779596
0.779703
0.779757
0.779915
0.780284
0.780834
0.781415
0.781953
0.782427
0.782863
0.783296
0.783971
0.78561
0.790257
0.801558
0.824991
0.85757
0.900551
0.954315
0.993219
1.02042
1.02572
1.03258
1.04241
1.05033
1.05554
1.06155
1.06853
1.07622
1.08281
1.0849
1.08589
1.08698
1.08791
1.08877
1.08918
1.09047
1.08919
0.778581
0.778585
0.778593
0.778604
0.778618
0.778642
0.778658
0.77867
0.778707
0.778779
0.778758
0.778666
0.778649
0.778694
0.778698
0.778597
0.778467
0.778453
0.778488
0.778554
0.778568
0.778511
0.778484
0.778519
0.778602
0.778567
0.778448
0.778422
0.778452
0.778448
0.778353
0.778291
0.778296
0.778296
0.778275
0.778217
0.77812
0.778057
0.77802
0.777948
0.77784
0.777726
0.777655
0.777611
0.777585
0.777588
0.777652
0.777784
0.777905
0.777987
0.778046
0.778079
0.778126
0.778054
0.777875
0.777723
0.777644
0.777636
0.777698
0.777896
0.778213
0.778654
0.779141
0.779507
0.779794
0.779892
0.780003
0.780467
0.7812
0.781889
0.78252
0.783026
0.783518
0.78415
0.784691
0.785441
0.787819
0.79505
0.812067
0.847941
0.902089
0.95429
1.00078
1.01841
1.0319
1.04407
1.04881
1.05315
1.06035
1.06851
1.07732
1.08301
1.08475
1.0859
1.08705
1.08805
1.08876
1.08918
1.09078
1.08912
0.778111
0.778077
0.778069
0.778072
0.77809
0.778101
0.778087
0.778085
0.778112
0.778159
0.778127
0.778039
0.778014
0.778036
0.778084
0.778083
0.778025
0.77801
0.77804
0.778108
0.778106
0.778085
0.778094
0.778122
0.778215
0.778271
0.778217
0.778215
0.778256
0.778241
0.778174
0.778133
0.778099
0.778037
0.777963
0.777874
0.777751
0.777735
0.777757
0.777703
0.777621
0.777588
0.777538
0.777477
0.777431
0.777414
0.777427
0.777478
0.777594
0.777774
0.77793
0.778009
0.778092
0.778108
0.777929
0.777634
0.777455
0.777373
0.777339
0.777426
0.777738
0.778179
0.778729
0.779205
0.779613
0.779941
0.780164
0.780478
0.781113
0.781835
0.782576
0.783167
0.783631
0.784173
0.784784
0.785297
0.786078
0.788228
0.793872
0.810595
0.844989
0.903504
0.967027
1.00773
1.0293
1.04052
1.04322
1.05102
1.06153
1.06896
1.07726
1.08311
1.08492
1.08613
1.08719
1.08822
1.08895
1.08955
1.09135
1.08905
0.777873
0.777892
0.777949
0.778049
0.778069
0.778025
0.77792
0.777875
0.777895
0.777898
0.777822
0.777681
0.777652
0.77768
0.777709
0.77766
0.777562
0.777556
0.77762
0.77762
0.777525
0.777474
0.777472
0.77749
0.77753
0.777619
0.777681
0.777695
0.777738
0.777798
0.777784
0.777778
0.777812
0.777881
0.778022
0.778098
0.778087
0.778094
0.778067
0.777999
0.777903
0.777742
0.77747
0.777264
0.777167
0.777109
0.777104
0.77714
0.777232
0.777368
0.777531
0.77771
0.777844
0.777943
0.778073
0.778057
0.777896
0.777776
0.777673
0.77759
0.777573
0.777823
0.778425
0.779002
0.779533
0.780079
0.780439
0.780749
0.781219
0.781788
0.78248
0.783072
0.783619
0.784156
0.78475
0.78526
0.785867
0.787092
0.789964
0.798114
0.814898
0.853715
0.906763
0.96093
1.00122
1.02055
1.03512
1.05411
1.06276
1.06961
1.0778
1.08327
1.0856
1.08662
1.08731
1.08844
1.08944
1.09023
1.09174
1.08896
0.777682
0.777685
0.777695
0.777691
0.777653
0.77755
0.777462
0.777466
0.777473
0.777401
0.777318
0.777312
0.777343
0.777364
0.777353
0.777374
0.777461
0.777505
0.777478
0.777433
0.777364
0.77725
0.777097
0.777053
0.777097
0.777122
0.777062
0.777045
0.777076
0.777117
0.77716
0.777228
0.777344
0.777499
0.777702
0.777884
0.777937
0.777948
0.777899
0.777824
0.777802
0.777747
0.777639
0.77758
0.777494
0.7773
0.777109
0.777056
0.777025
0.776986
0.776984
0.777165
0.777492
0.777786
0.77797
0.778014
0.778044
0.778031
0.777994
0.777948
0.777934
0.778007
0.77832
0.778844
0.779406
0.780031
0.780521
0.780815
0.781141
0.781605
0.782181
0.782831
0.783527
0.784125
0.784564
0.784955
0.785716
0.787217
0.790043
0.796094
0.808334
0.830231
0.862605
0.909462
0.955547
0.993858
1.02807
1.04971
1.0559
1.06653
1.07795
1.08375
1.08539
1.08633
1.08744
1.08903
1.09018
1.09079
1.0916
1.08882
0.777932
0.777971
0.777974
0.777962
0.777987
0.778016
0.777982
0.777909
0.777902
0.777924
0.77793
0.777906
0.777852
0.777842
0.777842
0.777788
0.77768
0.777532
0.777392
0.777286
0.777198
0.777056
0.776769
0.776667
0.776702
0.776662
0.776513
0.77647
0.776501
0.776558
0.776625
0.776698
0.776784
0.776911
0.777056
0.777168
0.777266
0.777421
0.77745
0.777417
0.777454
0.777423
0.777346
0.777343
0.777306
0.777129
0.776768
0.776605
0.776548
0.776504
0.776504
0.7767
0.777122
0.777482
0.777707
0.777858
0.778003
0.778154
0.778344
0.778425
0.778404
0.778404
0.77856
0.778894
0.779311
0.779886
0.780439
0.780759
0.780924
0.781167
0.781719
0.782454
0.783296
0.784045
0.78467
0.785073
0.785665
0.787108
0.789855
0.795503
0.806317
0.825485
0.848439
0.876045
0.907794
0.94519
0.990714
1.02122
1.04298
1.06554
1.07889
1.08466
1.08592
1.08662
1.08813
1.08986
1.09064
1.09084
1.09131
1.08882
0.777726
0.777789
0.777807
0.777778
0.777734
0.777732
0.777746
0.777762
0.777804
0.777831
0.777842
0.777889
0.777909
0.777906
0.77786
0.777791
0.777777
0.777767
0.77773
0.777671
0.777585
0.777388
0.777215
0.777132
0.777003
0.776798
0.776728
0.776685
0.776565
0.776382
0.776328
0.776335
0.776331
0.776287
0.776251
0.776231
0.776227
0.776263
0.77633
0.776426
0.776612
0.77676
0.776734
0.776736
0.776841
0.776811
0.776738
0.776745
0.776785
0.776825
0.776855
0.77684
0.776844
0.777081
0.777414
0.777668
0.777899
0.778123
0.778398
0.778519
0.77852
0.778536
0.778644
0.778822
0.779147
0.779674
0.780249
0.780642
0.780986
0.781259
0.781469
0.782034
0.783008
0.783868
0.784521
0.784943
0.785451
0.786816
0.789576
0.794814
0.804702
0.822693
0.846275
0.867233
0.883478
0.905986
0.940043
0.980766
1.02574
1.05946
1.07698
1.08027
1.08481
1.08756
1.08917
1.09006
1.09057
1.0911
1.09147
1.08901
0.777155
0.777122
0.777078
0.777067
0.777064
0.77707
0.77709
0.777115
0.777146
0.777239
0.7774
0.777457
0.777418
0.777426
0.777446
0.777375
0.777316
0.777332
0.77735
0.777296
0.777148
0.776941
0.776856
0.776771
0.776555
0.776397
0.776397
0.776382
0.776303
0.776203
0.77608
0.775894
0.775647
0.775431
0.775332
0.775314
0.775319
0.77535
0.77541
0.775486
0.775574
0.775719
0.77597
0.776205
0.776324
0.776393
0.776459
0.776541
0.776631
0.776733
0.776868
0.777029
0.777151
0.777183
0.777204
0.777363
0.777609
0.777874
0.778269
0.778394
0.778405
0.778517
0.778801
0.779108
0.779381
0.779749
0.78021
0.780611
0.780978
0.781369
0.781712
0.78213
0.782788
0.783466
0.784071
0.784608
0.785321
0.786712
0.789385
0.794074
0.803015
0.819855
0.843718
0.866157
0.879215
0.889148
0.904161
0.934772
0.981085
1.02289
1.05525
1.07395
1.08725
1.08978
1.09045
1.09068
1.09105
1.0929
1.09188
1.08907
0.775157
0.775158
0.775147
0.775144
0.77515
0.775165
0.775186
0.775223
0.77527
0.775322
0.77543
0.775572
0.775578
0.775565
0.775597
0.775641
0.77568
0.775771
0.775798
0.77571
0.775669
0.775688
0.775754
0.77584
0.775815
0.775794
0.775804
0.775835
0.775927
0.775999
0.775989
0.775956
0.7759
0.775792
0.775663
0.775528
0.775372
0.77522
0.775128
0.775094
0.775107
0.775152
0.77525
0.77542
0.775643
0.77589
0.776084
0.776209
0.776299
0.776413
0.776581
0.776773
0.776973
0.777223
0.777341
0.777215
0.777136
0.777247
0.777754
0.778182
0.778303
0.778462
0.778785
0.77924
0.779615
0.779952
0.780341
0.780708
0.781039
0.781422
0.781725
0.782054
0.782523
0.783003
0.783559
0.784252
0.785137
0.786615
0.789126
0.79339
0.801269
0.816901
0.840219
0.864141
0.878594
0.886753
0.892862
0.906497
0.933887
0.975588
1.02597
1.06522
1.08409
1.086
1.08718
1.0898
1.09323
1.09408
1.09193
1.08922
0.773875
0.773833
0.773804
0.773813
0.773811
0.773813
0.773839
0.773929
0.773941
0.773912
0.77391
0.773943
0.774083
0.774172
0.774246
0.774347
0.774446
0.774496
0.774531
0.774539
0.774546
0.774572
0.774612
0.774675
0.774773
0.774925
0.775077
0.775183
0.775261
0.775312
0.775358
0.7755
0.775622
0.775519
0.775448
0.775478
0.775542
0.775655
0.775873
0.776074
0.776064
0.775926
0.77569
0.77542
0.775306
0.77531
0.775401
0.775518
0.775559
0.775635
0.775839
0.776141
0.776496
0.776871
0.77712
0.777192
0.777228
0.777206
0.777367
0.777825
0.778151
0.778392
0.778719
0.779295
0.779861
0.780245
0.780581
0.780888
0.781122
0.781402
0.781639
0.781896
0.782238
0.782589
0.783088
0.78394
0.785055
0.786642
0.78916
0.793087
0.800055
0.813874
0.835963
0.860726
0.877441
0.886476
0.892547
0.89913
0.910985
0.93631
0.977175
1.02245
1.05772
1.07362
1.08344
1.09251
1.09594
1.09411
1.09248
1.08996
0.774042
0.773849
0.773573
0.773264
0.773162
0.773134
0.773136
0.773183
0.773194
0.773133
0.773071
0.773077
0.773181
0.773235
0.773256
0.773353
0.773574
0.77372
0.773785
0.773836
0.773884
0.773901
0.773802
0.773713
0.773729
0.77385
0.774041
0.774088
0.774057
0.77404
0.77404
0.774062
0.774106
0.774164
0.774243
0.774358
0.774555
0.774866
0.775245
0.775564
0.775615
0.775479
0.775262
0.775052
0.77478
0.774661
0.774701
0.774644
0.774439
0.774314
0.77433
0.774505
0.774949
0.775616
0.776364
0.776906
0.777217
0.777503
0.777924
0.778434
0.778529
0.778555
0.778678
0.779157
0.779792
0.780151
0.780449
0.780767
0.78099
0.781219
0.78142
0.781666
0.782008
0.782447
0.783054
0.783956
0.785169
0.786801
0.789204
0.792783
0.798886
0.810787
0.831058
0.856208
0.876109
0.886534
0.892773
0.89882
0.906876
0.918476
0.939046
0.973848
1.01457
1.05785
1.07827
1.08966
1.09114
1.09085
1.09223
1.09088
0.775625
0.775444
0.775181
0.775104
0.775098
0.775127
0.77524
0.77527
0.77521
0.775086
0.774961
0.774943
0.775029
0.77505
0.774981
0.774987
0.775084
0.775128
0.775094
0.774964
0.774764
0.774519
0.774168
0.773696
0.773287
0.772983
0.772665
0.772387
0.772203
0.772061
0.771902
0.771677
0.771553
0.771491
0.771469
0.771497
0.771706
0.772291
0.773062
0.773848
0.774423
0.774427
0.774134
0.77393
0.773899
0.774035
0.774147
0.773986
0.773586
0.773315
0.773286
0.77341
0.773858
0.774653
0.775532
0.776324
0.776963
0.777446
0.777942
0.778489
0.778771
0.778742
0.778672
0.77875
0.779166
0.779587
0.77991
0.780237
0.780489
0.780803
0.781023
0.781328
0.781881
0.78254
0.783202
0.784067
0.78527
0.786913
0.789202
0.792455
0.797739
0.807694
0.825838
0.850807
0.873922
0.886803
0.893592
0.899435
0.906879
0.916064
0.925289
0.939623
0.96699
1.00635
1.0432
1.07103
1.08055
1.08909
1.0928
1.09163
0.774771
0.774549
0.774299
0.774198
0.774185
0.774142
0.774066
0.773977
0.773885
0.773818
0.773752
0.773771
0.773882
0.773869
0.773699
0.773531
0.773458
0.773453
0.773476
0.773584
0.773734
0.77374
0.773595
0.773125
0.772576
0.772471
0.772562
0.77251
0.772235
0.771922
0.771691
0.771397
0.770818
0.770384
0.770295
0.770293
0.770346
0.770563
0.771068
0.771735
0.772214
0.772417
0.772416
0.772427
0.772599
0.772923
0.773307
0.773834
0.774364
0.774674
0.774802
0.774812
0.774784
0.774794
0.774974
0.775436
0.775986
0.77647
0.776952
0.777596