/*--------------------------------*- C++ -*----------------------------------*\
  =========                 |
  \\      /  F ield         | OpenFOAM: The Open Source CFD Toolbox
   \\    /   O peration     | Website:  https://openfoam.org
    \\  /    A nd           | Version:  7
     \\/     M anipulation  |
\*---------------------------------------------------------------------------*/
FoamFile
{
    version     2.0;
    format      ascii;
    class       volScalarField;
    location    "7.1";
    object      p;
}
// * * * * * * * * * * * * * * * * * * * * * * * * * * * * * * * * * * * * * //

dimensions      [1 -1 -2 0 0 0 0];

internalField   nonuniform List<scalar> 
1750
(
0.359871
0.564443
0.724501
0.822718
0.928545
0.954806
0.932929
0.917379
0.940725
0.959752
0.132999
0.197255
0.345803
0.504213
0.619319
0.739209
0.834031
0.899198
0.975559
0.983333
0.119378
0.125345
0.130365
0.145451
0.193568
0.284119
0.479263
0.700395
0.829241
0.943089
0.141118
0.134765
0.135591
0.146939
0.150579
0.151057
0.160809
0.239657
0.389667
0.720481
0.19172
0.169147
0.167686
0.180994
0.212366
0.235941
0.242319
0.252392
0.246583
0.333963
0.332953
0.329645
0.309309
0.300376
0.308102
0.313119
0.311419
0.304833
0.288561
0.290544
0.484773
0.492194
0.481439
0.442585
0.412517
0.397928
0.384056
0.376731
0.382289
0.380786
0.707669
0.656339
0.644723
0.628711
0.601918
0.579709
0.54273
0.510313
0.503345
0.484273
1.09655
0.984531
0.883026
0.849872
0.812239
0.768764
0.727673
0.675036
0.632518
0.586965
1.60381
1.47342
1.32855
1.20437
1.11339
1.02063
0.945261
0.880197
0.823924
0.748468
2.13137
2.04175
1.92615
1.76913
1.59522
1.44276
1.30627
1.18423
1.09099
0.959682
2.11979
2.1166
2.11185
2.08776
2.03088
1.94461
1.824
1.67273
1.52589
1.30109
1.67982
1.80366
1.91381
1.96501
1.99022
1.99624
1.98778
1.95723
1.91106
1.7475
1.11076
1.17496
1.27822
1.40437
1.53804
1.67699
1.77315
1.86072
1.86458
1.88174
1.00306
1.0065
1.01573
1.03543
1.07537
1.14578
1.25871
1.42071
1.60448
1.95911
0.160949
0.121343
0.107408
0.140449
0.204112
0.320869
0.473181
0.790483
1.16826
1.74279
2.18988
2.12962
1.56416
1.06276
1.0014
0.172332
0.117171
0.0977506
0.145663
0.22417
0.351333
0.569762
0.913445
1.33073
1.98065
2.23606
2.08039
1.36375
1.0242
1.00041
0.16689
0.104219
0.0850174
0.148987
0.233566
0.393088
0.71993
1.04361
1.54532
2.15722
2.24873
1.9045
1.21973
1.0103
1.00014
0.158846
0.0978029
0.0819235
0.170141
0.284509
0.527621
0.836414
1.18842
1.78769
2.29482
2.25409
1.7441
1.12666
1.00388
1.00005
0.151565
0.0969274
0.101563
0.223861
0.382652
0.627862
0.931083
1.39865
2.03551
2.38775
2.24336
1.56084
1.05521
1.00119
1.00001
0.138728
0.100382
0.134461
0.258008
0.445932
0.707011
1.07485
1.70223
2.28864
2.42021
2.12945
1.30432
1.01725
1.0003
1
0.12616
0.111491
0.145796
0.272028
0.491853
0.848757
1.40605
2.01778
2.44226
2.41831
1.81095
1.13624
1.00515
1.00007
1
0.109049
0.119631
0.148485
0.308683
0.663477
1.12405
1.73256
2.30615
2.51037
2.28887
1.52868
1.05641
1.00137
1.00002
1
0.0762287
0.11349
0.191763
0.519283
0.947071
1.44605
2.03826
2.52726
2.53078
2.0856
1.2953
1.01676
1.0003
1
1
0.0417122
0.111985
0.340059
0.764006
1.23239
1.78897
2.37624
2.62142
2.51972
1.77385
1.10188
1.00337
1.00005
1
1
0.024857
0.183723
0.572315
1.03868
1.60488
2.20583
2.65139
2.64972
2.22525
1.34605
1.02531
1.00061
1.00001
1
1
0.0282845
0.357126
0.860178
1.44238
2.11563
2.59433
2.74762
2.63702
1.7908
1.12207
1.00534
1.00009
1
1
1
0.0741728
0.643339
1.36148
2.03214
2.56632
2.78039
2.77207
2.22319
1.32878
1.02332
1.00056
1.00001
1
1
1
0.383604
1.21925
2.04192
2.53005
2.84619
2.80511
2.6249
1.66564
1.08465
1.00322
1.00006
1
1
1
1
1.31625
2.16656
2.60727
2.82127
2.91886
2.73031
2.0427
1.18273
1.00722
1.00012
1
1
1
1
1
2.89326
2.85486
2.83124
2.90116
2.92665
2.42434
1.31202
0.989468
0.998904
0.999977
1
1
1
1
1
2.88419
2.85188
2.81063
2.88474
2.92425
2.21514
1.16955
1.0055
1.00006
1
1
1
1
1
1
2.79455
2.8613
2.92092
2.91525
2.72456
1.66868
1.03463
1.00014
1
1
1
1
1
1
1
2.74378
2.88432
3.03398
2.93219
2.41901
1.30049
1.00641
1.00002
1
1
1
1
1
1
1
2.7214
2.8999
3.0888
2.93107
1.92394
1.06475
1.00037
1
1
1
1
1
1
1
1
2.75131
2.94687
3.11041
2.58799
1.41781
1.01117
1.00004
1
1
1
1
1
1
1
1
2.9394
3.00558
3.11684
2.15472
1.12529
1.00099
1
1
1
1
1
1
1
1
1
3.26343
3.0511
2.78666
1.48182
1.01298
1.00004
1
1
1
1
1
1
1
1
1
3.60787
2.85035
2.13253
1.13478
1.00126
1
1
1
1
1
1
1
1
1
1
3.77236
2.61559
1.49929
1.01584
1.00005
1
1
1
1
1
1
1
1
1
1
3.67125
2.11016
1.15821
1.00187
1.00001
1
1
1
1
1
1
1
1
1
1
3.19928
1.65361
1.03999
1.00022
1
1
1
1
1
1
1
1
1
1
1
2.67228
1.29218
1.00686
1.00002
1
1
1
1
1
1
1
1
1
1
1
1.97917
1.09888
1.00096
1
1
1
1
1
1
1
1
1
1
1
1
1.39054
1.01696
1.00006
1
1
1
1
1
1
1
1
1
1
1
1
1
1
1
1
1
1
1
1
1
1
1
1
1
1
1
1
1
1
1
1
1
1
1
1
1
1
1
1
1
1
1
1
1
1
1
1
1
1
1
1
1
1
1
1
1
1
1
1
1
1
1
1
1
1
1
1
1
1
1
1
1
1
1
1
1
1
1
1
1
1
1
1
1
1
1
1
1
1
1
1
1
1
1
1
1
1
1
1
1
1
1
1
1
1
1
1
1
1
1
1
1
1
1
1
1
1
1
1
1
1
1
1
1
1
1
1
1
1
1
1
1
1
1
1
1
1
1
1
1
1
1
1
1
1
1
1
1
1
1
1
1
1
1
1
1
1
1
1
1
1
1
1
1
1
1
1
1
1
1
1
1
1
1
1
1
1
1
1
1
1
1
1
1
1
1
1
1
1
1
1
1
1
1
1
1
1
1
1
1
1
1
1
1
1
1
1
1
1
1
1
1
1
1
1
1
1
1
1
1
1
1
1
1
1
1
1
1
1
1
1
1
1
1
1
1
1
1
1
1
1
1
1
1
1
1
1
1
1
1
1
1
1
1
1
1
1
1
1
1
1
1
1
1
1
1
1
1
1
1
1
1
1
1
1
1
1
1
1
1
1
1
1
1
1
1
1
1
1
1
1
1
1
1
1
1
1
1
1
1
1
1
1
1
1
1
1
1
1
1
1
1
1
1
1
1
1
1
1
1
1
1
1
1
1
1
1
1
1
1
1
1
1
1
1
1
1
1
1
1
1
1
1
1
1
1
1
1
1
1
1
1
1
1
1
1
1
1
1
1
1
1.78923
1.01394
1
1
1
1
1
1
1
1
1
1
1
1
1
1
1
1
1
1
3.04794
1.22981
0.999368
1
1
1
1
1
1
1
1
1
1
1
1
1
1
1
1
1
4.69664
1.88429
1.01402
0.999958
1
1
1
1
1
1
1
1
1
1
1
1
1
1
1
1
5.57096
3.28328
1.45624
1.00074
1
1
1
1
1
1
1
1
1
1
1
1
1
1
1
1
5.26963
4.17625
3.02495
1.23749
0.999727
0.999999
1
1
1
1
1
1
1
1
1
1
1
1
1
1
4.5238
4.3119
4.26105
2.57062
1.10303
0.999782
0.999998
1
1
1
1
1
1
1
1
1
1
1
1
1
3.95468
4.14741
4.39591
3.87573
1.95411
1.02327
0.999938
0.999998
1
1
1
1
1
1
1
1
1
1
1
1
3.88157
4.01001
4.27259
4.10362
3.19099
1.38041
1.00115
1
1
1
1
1
1
1
1
1
1
1
1
1
3.94877
4.0006
4.04793
4.08443
4.0747
2.50713
1.09604
0.999894
0.999998
1
1
1
1
1
1
1
1
1
1
1
4.03518
4.00025
3.96903
4.03855
4.11554
3.43121
1.7301
1.01463
0.999977
0.999999
1
1
1
1
1
1
1
1
1
1
4.03375
4.01121
3.98773
4.0286
4.09391
3.9207
2.78005
1.19749
1.0003
1
1
1
1
1
1
1
1
1
1
1
4.01576
4.01435
4.02011
4.041
4.07774
4.05237
3.70288
1.91527
1.02844
0.999993
1
1
1
1
1
1
1
1
1
1
4.01274
4.03021
4.0491
4.05669
4.06605
4.04136
3.8309
2.908
1.28077
1.00097
0.999999
1
1
1
1
1
1
1
1
1
4.02904
4.04589
4.05569
4.06362
4.05444
4.03293
3.93138
3.69334
1.99962
1.06082
1.00071
1
1
1
1
1
1
1
1
1
4.06849
4.07245
4.07211
4.07345
4.06786
4.05655
4.00652
3.95318
2.83329
1.14563
0.987317
0.999039
0.99999
1
1
1
1
1
1
1
1.51635
2.67818
3.37073
3.72732
3.9101
4.01024
4.04256
3.99151
3.83754
2.58241
1.31775
1.01819
1.00041
1.00001
1
1
1
1
1
1
0.264873
1.35131
2.22205
2.87489
3.36674
3.6814
3.91343
3.91025
4.07317
3.67733
2.44007
1.26959
1.01487
1.00032
1
1
1
1
1
1
0.108344
0.682843
1.32099
1.89442
2.51618
3.05863
3.44501
3.68457
4.00561
3.95766
3.47721
2.14175
1.17147
1.00737
1.00013
1
1
1
1
1
0.0938349
0.35702
0.78026
1.27514
1.76686
2.35052
2.80488
3.26541
3.70378
3.90214
3.82041
3.22395
1.78364
1.08066
1.0025
1.00004
1
1
1
1
0.15242
0.24905
0.403983
0.814274
1.25591
1.73488
2.25362
2.71363
3.23606
3.60789
3.7779
3.70727
2.84968
1.45472
1.02828
1.00053
1.00001
1
1
1
0.278383
0.254688
0.272844
0.479854
0.854149
1.26655
1.76264
2.18467
2.72143
3.14135
3.5331
3.6812
3.45873
2.2991
1.20382
1.00789
1.00011
1
1
1
0.377797
0.268029
0.246244
0.388366
0.61714
0.929725
1.33253
1.80357
2.1973
2.6954
3.12253
3.54406
3.55137
3.05767
1.6873
1.05541
1.00115
1.00001
1
1
0.392815
0.260568
0.22012
0.33597
0.483229
0.735989
1.0372
1.48474
1.82735
2.29997
2.74288
3.24715
3.5146
3.41861
2.47935
1.26148
1.01021
1.00013
1
1
0.374031
0.262701
0.223944
0.283647
0.375273
0.599016
0.848792
1.15492
1.55616
1.86528
2.32541
2.82743
3.33171
3.406
2.99789
1.73594
1.0577
1.00112
1.00001
1
0.343147
0.276451
0.255705
0.281201
0.323476
0.477271
0.711081
0.942681
1.32763
1.60721
2.01446
2.45846
2.9988
3.33798
3.23801
2.34705
1.23482
1.00746
1.00008
1
0.309989
0.292786
0.293629
0.277977
0.297568
0.404682
0.609604
0.839365
1.11764
1.43818
1.77743
2.19132
2.6857
3.18765
3.25708
2.75814
1.5797
1.0398
1.00061
1.00001
0.275341
0.295206
0.30792
0.27366
0.277047
0.365493
0.511406
0.74181
0.938965
1.26426
1.55447
1.93807
2.32779
2.88767
3.21385
3.08483
2.0263
1.13496
1.00349
1.00003
0.270659
0.292392
0.305685
0.274718
0.266708
0.33402
0.423593
0.633047
0.83978
1.07559
1.35929
1.67511
2.0449
2.52817
3.06076
3.12831
2.58683
1.36992
1.01587
1.0002
0.275287
0.294329
0.303745
0.277433
0.270817
0.326216
0.380979
0.5368
0.758583
0.928818
1.23352
1.52348
1.88568
2.28593
2.83035
3.10656
2.89301
1.80351
1.06925
1.00116
0.293099
0.294968
0.300788
0.281038
0.275325
0.313254
0.352208
0.456313
0.672074
0.846158
1.11411
1.38749
1.70116
2.07408
2.53826
2.99816
2.91484
2.14319
1.19329
1.00559
0.390078
0.298092
0.292143
0.277705
0.279938
0.305074
0.352106
0.445921
0.624239
0.805338
0.992996
1.29475
1.53085
1.87453
2.3306
2.8243
2.90075
2.43719
1.36512
1.01561
0.507937
0.335091
0.296787
0.278033
0.285794
0.293725
0.343328
0.44976
0.565515
0.764891
0.914804
1.19833
1.46251
1.7263
2.13919
2.66075
2.88235
2.70397
1.6639
1.05218
0.61176
0.394056
0.303529
0.28749
0.288231
0.282827
0.328397
0.449811
0.529835
0.719833
0.887313
1.07767
1.38137
1.64298
1.94286
2.42887
2.82775
2.74829
2.00376
1.15543
0.733347
0.517743
0.325709
0.296302
0.287365
0.283611
0.327315
0.442054
0.50667
0.648556
0.852029
1.01686
1.24853
1.52837
1.80879
2.19249
2.68903
2.748
2.29497
1.35809
0.909332
0.668511
0.375392
0.297145
0.287076
0.284793
0.330411
0.423648
0.498378
0.60906
0.778263
0.970668
1.16134
1.39376
1.67224
2.01684
2.51237
2.73204
2.52437
1.71523
0.991522
0.82806
0.544895
0.308902
0.288052
0.287115
0.333393
0.397629
0.484901
0.601571
0.715414
0.891905
1.09718
1.31164
1.54453
1.84704
2.30731
2.67729
2.5761
2.21747
0.987627
0.972098
0.763627
0.375271
0.289122
0.297687
0.335968
0.379376
0.450726
0.581032
0.689875
0.825931
1.00737
1.22558
1.442
1.68925
2.05362
2.51812
2.61558
2.81474
0.940921
0.961894
0.835789
0.560688
0.310002
0.298044
0.337988
0.367365
0.437391
0.549262
0.653217
0.781979
0.927077
1.11935
1.33079
1.55556
1.83963
2.27847
2.72468
3.37862
0.927763
0.941043
0.906101
0.767835
0.386745
0.29817
0.336266
0.363776
0.441979
0.525047
0.616088
0.748182
0.878954
1.04205
1.23421
1.44026
1.67578
2.06807
2.77512
3.96962
0.950448
0.950675
0.967299
0.897411
0.667306
0.371956
0.334174
0.362758
0.434686
0.493443
0.569078
0.686665
0.800063
0.938773
1.09827
1.27561
1.47863
1.89388
2.86609
4.56137
)
;

boundaryField
{
    inlet
    {
        type            fixedValue;
        value           uniform 1;
    }
    outlet
    {
        type            zeroGradient;
    }
    airfoil
    {
        type            zeroGradient;
    }
    top
    {
        type            symmetryPlane;
    }
    bottom
    {
        type            symmetryPlane;
    }
    defaultFaces
    {
        type            empty;
    }
}


// ************************************************************************* //
