/*--------------------------------*- C++ -*----------------------------------*\
  =========                 |
  \\      /  F ield         | OpenFOAM: The Open Source CFD Toolbox
   \\    /   O peration     | Website:  https://openfoam.org
    \\  /    A nd           | Version:  7
     \\/     M anipulation  |
\*---------------------------------------------------------------------------*/
FoamFile
{
    version     2.0;
    format      ascii;
    class       volScalarField;
    location    "1.1";
    object      p;
}
// * * * * * * * * * * * * * * * * * * * * * * * * * * * * * * * * * * * * * //

dimensions      [1 -1 -2 0 0 0 0];

internalField   nonuniform List<scalar> 
1750
(
0.296852
0.512095
0.703425
0.728065
0.735628
0.760415
0.780169
0.813245
0.836248
0.865751
0.0468442
0.0896217
0.291942
0.610867
0.737269
0.798772
0.818006
0.82703
0.807053
0.82883
0.0521611
0.0837349
0.0873549
0.151402
0.277397
0.435927
0.567061
0.662292
0.680665
0.744725
0.0676322
0.11897
0.138925
0.139352
0.150679
0.175593
0.25149
0.369566
0.485498
0.710695
0.0985673
0.174595
0.200293
0.205768
0.213285
0.231476
0.269692
0.360556
0.492329
0.739672
0.166086
0.251316
0.275787
0.274582
0.280021
0.305336
0.356668
0.453564
0.599324
0.835661
0.298029
0.366866
0.391771
0.406811
0.428119
0.463325
0.530933
0.648634
0.79956
0.9487
0.528641
0.547646
0.564301
0.58271
0.607783
0.651915
0.734469
0.852633
0.952784
0.99484
0.789461
0.776296
0.779591
0.793939
0.818026
0.858366
0.918668
0.974247
0.996716
0.999876
0.952078
0.943887
0.944084
0.949365
0.960018
0.975885
0.991651
0.998841
0.999946
0.999999
0.995747
0.994876
0.994994
0.99575
0.997207
0.998866
0.999796
0.999987
1
1
0.999858
0.999839
0.999851
0.999888
0.999943
0.999985
0.999998
1
1
1
0.999998
0.999998
0.999998
0.999999
0.999999
1
1
1
1
1
1
1
1
1
1
1
1
1
1
1
1
1
1
1
1
1
1
1
1
1
0.0709944
0.0456365
0.0364557
0.0410306
0.0610446
0.119437
0.260906
0.51966
0.806774
0.962281
0.996785
0.999891
0.999998
1
1
0.0736147
0.036951
0.0270166
0.037334
0.0625419
0.138736
0.323584
0.628665
0.890129
0.986726
0.999514
1.00001
1
1
1
0.0583331
0.0260612
0.0173752
0.0353883
0.0712235
0.180137
0.412114
0.72151
0.937501
0.996104
1.0003
1.00004
1
1
1
0.0402793
0.0205973
0.0142818
0.0378201
0.0996944
0.248565
0.511259
0.811305
0.974177
1.00202
1.00096
1.00006
1
1
1
0.026723
0.0144076
0.0167237
0.0510215
0.139459
0.315157
0.608707
0.894998
0.999652
1.00567
1.00145
1.00005
1
1
1
0.0161795
0.00906756
0.0277544
0.0726794
0.180846
0.403458
0.736452
0.966503
1.01361
1.00854
1.0013
1.00004
1
1
1
0.0104927
0.00933318
0.0382538
0.0949543
0.237861
0.533255
0.863962
1.01174
1.02163
1.00973
1.00093
1.00002
1
1
1
0.00639867
0.0145619
0.0462997
0.132758
0.350638
0.689857
0.962232
1.03398
1.0272
1.00792
1.0005
1.00001
1
1
1
0.00496175
0.01771
0.0625348
0.216138
0.505472
0.835586
1.02701
1.04698
1.02897
1.00528
1.00021
1
1
1
1
0.00587293
0.0270563
0.117891
0.347973
0.675657
0.964491
1.06292
1.05685
1.02376
1.00253
1.00007
1
1
1
1
0.00476577
0.0506184
0.228397
0.521548
0.861017
1.0537
1.07936
1.05979
1.01629
1.00103
1.00002
1
1
1
1
0.00220905
0.0995009
0.394406
0.739441
1.01332
1.09315
1.08592
1.04587
1.00747
1.00032
1.00001
1
1
1
1
0.0292881
0.258307
0.625354
0.945122
1.09223
1.10476
1.08429
1.02856
1.00287
1.00009
1
1
1
1
1
0.140998
0.49823
0.894548
1.07549
1.11696
1.10791
1.05879
1.01168
1.00068
1.00002
1
1
1
1
1
0.52388
0.878329
1.07522
1.12171
1.12166
1.08829
1.0303
1.00344
1.00013
1
1
1
1
1
1
1.13036
1.13212
1.13182
1.12833
1.11409
1.05702
1.0099
1.00015
1
1
1
1
1
1
1
1.13048
1.13329
1.13387
1.12863
1.11493
1.06071
1.01257
1.00072
1.00001
1
1
1
1
1
1
1.13385
1.14222
1.14216
1.13137
1.10445
1.04143
1.00559
1.00022
1
1
1
1
1
1
1
1.14019
1.15065
1.14933
1.13347
1.09203
1.02778
1.00274
1.00009
1
1
1
1
1
1
1
1.1456
1.15689
1.15426
1.13033
1.0712
1.01534
1.00105
1.00003
1
1
1
1
1
1
1
1.15229
1.16073
1.15644
1.11565
1.04655
1.00692
1.00034
1.00001
1
1
1
1
1
1
1
1.16179
1.16186
1.15331
1.08882
1.02597
1.0026
1.0001
1
1
1
1
1
1
1
1
1.17674
1.15054
1.13337
1.06026
1.01181
1.00082
1.00002
1
1
1
1
1
1
1
1
1.19037
1.14027
1.10329
1.03452
1.00457
1.00022
1.00001
1
1
1
1
1
1
1
1
1.19741
1.12663
1.06962
1.01626
1.00147
1.00005
1
1
1
1
1
1
1
1
1
1.19597
1.10136
1.04198
1.00665
1.00039
1.00001
1
1
1
1
1
1
1
1
1
1.17424
1.07407
1.02016
1.00202
1.00008
1
1
1
1
1
1
1
1
1
1
1.14171
1.04604
1.008
1.00048
1.00001
1
1
1
1
1
1
1
1
1
1
1.09648
1.02184
1.00208
1.00008
1
1
1
1
1
1
1
1
1
1
1
1.04341
1.006
1.0003
1.00001
1
1
1
1
1
1
1
1
1
1
1
1
1
1
1
1
1
1
1
1
1
1
1
1
1
1
1
1
1
1
1
1
1
1
1
1
1
1
1
1
1
1
1
1
1
1
1
1
1
1
1
1
1
1
1
1
1
1
1
1
1
1
1
1
1
1
1
1
1
1
1
1
1
1
1
1
1
1
1
1
1
1
1
1
1
1
1
1
1
1
1
1
1
1
1
1
1
1
1
1
1
1
1
1
1
1
1
1
1
1
1
1
1
1
1
1
1
1
1
1
1
1
1
1
1
1
1
1
1
1
1
1
1
1
1
1
1
1
1
1
1
1
1
1
1
1
1
1
1
1
1
1
1
1
1
1
1
1
1
1
1
1
1
1
1
1
1
1
1
1
1
1
1
1
1
1
1
1
1
1
1
1
1
1
1
1
1
1
1
1
1
1
1
1
1
1
1
1
1
1
1
1
1
1
1
1
1
1
1
1
1
1
1
1
1
1
1
1
1
1
1
1
1
1
1
1
1
1
1
1
1
1
1
1
1
1
1
1
1
1
1
1
1
1
1
1
1
1
1
1
1
1
1
1
1
1
1
1
1
1
1
1
1
1
1
1
1
1
1
1
1
1
1
1
1
1
1
1
1
1
1
1
1
1
1
1
1
1
1
1
1
1
1
1
1
1
1
1
1
1
1
1
1
1
1
1
1
1
1
1
1
1
1
1
1
1
1
1
1
1
1
1
1
1
1
1
1
1
1
1
1
1
1
1
1
1
1
1
1
1
1
1
1
1
1
1
1
1
1
1
1
1
1
1
1
1
1
1
1
1
1
2.24077
0.998314
1
1
1
1
1
1
1
1
1
1
1
1
1
1
1
1
1
1
7.22712
2.43888
0.999994
1
1
1
1
1
1
1
1
1
1
1
1
1
1
1
1
1
12.3645
8.00151
4.32706
1.16118
0.999822
1
1
1
1
1
1
1
1
1
1
1
1
1
1
1
9.36538
7.65063
7.77756
4.63754
1.18496
1
1
1
1
1
1
1
1
1
1
1
1
1
1
1
7.38495
6.7503
7.05831
6.64244
2.98564
0.996721
1
1
1
1
1
1
1
1
1
1
1
1
1
1
6.76045
6.46514
6.64322
6.67153
5.217
1.50154
0.999998
1
1
1
1
1
1
1
1
1
1
1
1
1
6.58988
6.45516
6.39135
6.3427
5.92019
2.74334
0.995498
1
1
1
1
1
1
1
1
1
1
1
1
1
6.5439
6.45084
6.30227
6.22507
6.17573
4.11237
1.17086
0.999999
1
1
1
1
1
1
1
1
1
1
1
1
6.44527
6.38735
6.29671
6.2497
6.19443
5.11433
1.73898
0.999998
1
1
1
1
1
1
1
1
1
1
1
1
6.37493
6.34649
6.28242
6.24644
6.18382
5.65064
2.68033
0.996784
1
1
1
1
1
1
1
1
1
1
1
1
6.36983
6.35115
6.29991
6.26443
6.22514
6.04112
3.77121
1.1034
1
1
1
1
1
1
1
1
1
1
1
1
6.3905
6.36739
6.35892
6.29485
6.21668
6.14005
4.72194
1.47815
0.999999
1
1
1
1
1
1
1
1
1
1
1
6.47071
6.4153
6.42748
6.37941
6.27879
6.21736
5.46289
2.10547
0.997229
1
1
1
1
1
1
1
1
1
1
1
6.42807
6.40808
6.42799
6.39608
6.28227
6.19724
5.83619
3.36418
1.07222
0.999999
1
1
1
1
1
1
1
1
1
1
6.43831
6.44293
6.45703
6.44357
6.35663
6.36475
6.1586
3.51686
0.908086
1
1
1
1
1
1
1
1
1
1
1
2.22446
3.81676
4.65617
5.27568
5.6799
6.02046
6.12797
5.38451
2.69701
1.14004
1.00191
1.00001
1
1
1
1
1
1
1
1
0.46814
1.91683
2.83616
3.59882
4.2677
4.91236
5.55579
5.34494
4.48198
2.11464
1.06175
1.00057
1
1
1
1
1
1
1
1
0.279295
0.99665
1.70292
2.41335
3.06513
3.69886
4.40386
4.84989
4.76153
3.41968
1.43123
1.01041
1.00006
1
1
1
1
1
1
1
0.313727
0.627468
0.997685
1.61821
2.22344
2.72668
3.35901
4.11342
4.34517
3.89998
2.08321
1.07038
1.00068
1
1
1
1
1
1
1
0.433675
0.554022
0.677844
1.03499
1.53858
1.95156
2.48126
3.25694
3.76466
3.63478
2.63692
1.25817
1.00518
1.00002
1
1
1
1
1
1
0.600785
0.534845
0.561043
0.80185
1.09134
1.5092
1.89738
2.46802
3.14235
3.32254
2.81849
1.52082
1.02013
1.00012
1
1
1
1
1
1
0.635398
0.538029
0.498091
0.672729
0.881855
1.22501
1.58222
2.05117
2.71619
2.99446
2.70823
1.67113
1.04377
1.00037
1
1
1
1
1
1
0.672652
0.564428
0.501639
0.598233
0.733908
0.981094
1.31276
1.72718
2.40768
2.73262
2.56188
1.71593
1.06461
1.00073
1
1
1
1
1
1
0.734057
0.619301
0.535147
0.596832
0.674841
0.811881
1.07722
1.39005
2.00583
2.44771
2.34183
1.67778
1.06862
1.00085
1
1
1
1
1
1
0.786423
0.682772
0.620285
0.602587
0.645867
0.747397
0.907487
1.18559
1.7618
2.20327
2.14473
1.59177
1.06104
1.00077
1
1
1
1
1
1
0.814778
0.723725
0.656808
0.58906
0.612328
0.703484
0.793581
1.09587
1.677
2.05679
1.9862
1.46573
1.0425
1.00049
1
1
1
1
1
1
0.825255
0.743467
0.675726
0.5813
0.587958
0.667441
0.739435
1.07044
1.67149
1.94134
1.8266
1.3228
1.02175
1.0002
1
1
1
1
1
1
0.824348
0.763107
0.697324
0.596566
0.589136
0.662131
0.734261
1.11896
1.67946
1.81679
1.65136
1.18406
1.00744
1.00005
1
1
1
1
1
1
0.815534
0.778467
0.727333
0.643133
0.632207
0.710663
0.805311
1.21579
1.63898
1.68083
1.45025
1.07461
1.00147
1.00001
1
1
1
1
1
1
0.815152
0.805177
0.780309
0.718494
0.704079
0.799531
0.928738
1.30297
1.5631
1.53066
1.23604
1.01732
1.00015
1
1
1
1
1
1
1
0.784938
0.852486
0.864268
0.832806
0.817872
0.921581
1.07047
1.33597
1.4448
1.32788
1.06818
1.00154
0.999993
0.999998
1
1
1
1
1
1
0.773831
0.864276
0.939399
0.944114
0.943113
1.01027
1.12716
1.30382
1.2781
1.10961
1.00651
0.999901
0.999975
0.999999
1
1
1
1
1
1
0.712966
0.819335
0.932511
0.967487
0.980504
1.02487
1.1281
1.16581
1.08219
1.00587
0.998868
0.999826
0.99999
1
1
1
1
1
1
1
0.628146
0.747091
0.881781
0.952653
0.980708
1.01925
1.04933
1.00263
0.979331
0.991473
0.999049
0.999949
0.999999
1
1
1
1
1
1
1
0.642497
0.679593
0.774981
0.884678
0.949132
0.950461
0.933245
0.932447
0.966439
0.993567
0.999653
0.999995
1
1
1
1
1
1
1
1
0.679575
0.654538
0.672438
0.753182
0.841688
0.87424
0.886357
0.927353
0.971302
0.996162
0.999881
0.999999
1
1
1
1
1
1
1
1
0.733545
0.67279
0.660435
0.691055
0.749789
0.815768
0.870536
0.930997
0.978774
0.997824
0.999941
0.999999
1
1
1
1
1
1
1
1
0.804987
0.742566
0.697137
0.704165
0.736502
0.782089
0.859706
0.934417
0.984429
0.998747
0.99997
1
1
1
1
1
1
1
1
1
0.849057
0.827975
0.791732
0.755721
0.760811
0.781929
0.85911
0.937585
0.987721
0.999241
0.999985
1
1
1
1
1
1
1
1
1
0.882517
0.888571
0.880518
0.867493
0.846758
0.840727
0.889437
0.953699
0.992774
0.999685
0.999996
1
1
1
1
1
1
1
1
1
)
;

boundaryField
{
    inlet
    {
        type            fixedValue;
        value           uniform 1;
    }
    outlet
    {
        type            zeroGradient;
    }
    airfoil
    {
        type            zeroGradient;
    }
    top
    {
        type            symmetryPlane;
    }
    bottom
    {
        type            symmetryPlane;
    }
    defaultFaces
    {
        type            empty;
    }
}


// ************************************************************************* //
