/*--------------------------------*- C++ -*----------------------------------*\
  =========                 |
  \\      /  F ield         | OpenFOAM: The Open Source CFD Toolbox
   \\    /   O peration     | Website:  https://openfoam.org
    \\  /    A nd           | Version:  7
     \\/     M anipulation  |
\*---------------------------------------------------------------------------*/
FoamFile
{
    version     2.0;
    format      ascii;
    class       volScalarField;
    location    "5.5";
    object      T;
}
// * * * * * * * * * * * * * * * * * * * * * * * * * * * * * * * * * * * * * //

dimensions      [0 0 0 1 0 0 0];

internalField   nonuniform List<scalar> 
90000
(
0.699532
0.738311
0.775494
0.807875
0.834475
0.858035
0.879505
0.898688
0.915252
0.930374
0.944411
0.957915
0.970276
0.981881
0.992621
1.00296
1.01275
1.02218
1.03116
1.03965
1.04795
1.0556
1.06322
1.07
1.07699
1.08304
1.0894
1.09448
1.09981
1.10372
1.10792
1.11055
1.11352
1.11525
1.11745
1.11841
1.11988
1.12013
1.12008
1.11964
1.11921
1.11838
1.11725
1.11555
1.11293
1.10889
1.10296
1.09569
1.09118
1.09161
1.09288
1.09461
1.09668
1.09871
1.10081
1.10269
1.10418
1.10535
1.10598
1.10535
1.10337
1.09999
1.09635
1.09417
1.09206
1.09223
1.09243
1.09364
1.09589
1.09761
1.09856
1.09756
1.09509
1.09268
1.09005
1.0899
1.09029
1.09182
1.09339
1.09331
1.09262
1.09088
1.08848
1.08851
1.08977
1.09117
1.091
1.09036
1.08894
1.08779
1.0879
1.08865
1.08877
1.08823
1.08714
1.08638
1.08599
1.08554
1.08498
1.08414
0.662525
0.662375
0.662206
0.662027
0.661847
0.661644
0.661498
0.661617
0.661961
0.66277
0.664119
0.666448
0.669644
0.674351
0.680188
0.688158
0.6974
0.709206
0.722081
0.737735
0.754101
0.77326
0.792362
0.813953
0.834651
0.857002
0.877503
0.899177
0.918596
0.938573
0.956375
0.974344
0.990231
1.00554
1.01951
1.03242
1.04452
1.05451
1.06418
1.07099
1.07793
1.08172
1.08586
1.08746
1.08974
1.09023
1.09109
1.09316
1.09956
1.10411
1.10816
1.11038
1.11201
1.1132
1.11352
1.11309
1.11246
1.11161
1.11006
1.10641
1.10183
1.09868
1.09715
1.09727
1.09798
1.0994
1.10228
1.10479
1.10601
1.10545
1.10351
1.10009
1.09714
1.09535
1.09439
1.09494
1.09698
1.09857
1.0996
1.09866
1.09624
1.09505
1.09447
1.09476
1.09582
1.09724
1.09655
1.09495
1.09389
1.09386
1.09438
1.09479
1.09435
1.09336
1.09229
1.09199
1.09158
1.0911
1.09056
1.08993
0.658939
0.658789
0.658627
0.658462
0.658292
0.65812
0.657942
0.657754
0.657554
0.657342
0.657148
0.656912
0.656645
0.656363
0.65607
0.65577
0.655466
0.655163
0.65486
0.65456
0.654262
0.65397
0.653678
0.653421
0.65305
0.653148
0.653585
0.654985
0.657463
0.662368
0.66915
0.680198
0.693446
0.712381
0.732638
0.758899
0.784707
0.815356
0.843586
0.874822
0.902823
0.931633
0.957861
0.983218
1.00768
1.02995
1.05434
1.07367
1.08683
1.09278
1.09807
1.10101
1.10304
1.10414
1.10519
1.10505
1.10419
1.10228
1.09858
1.09256
1.09257
1.09366
1.09627
1.09976
1.10362
1.10639
1.10716
1.10668
1.10576
1.10281
1.09891
1.09584
1.09511
1.09545
1.09705
1.09998
1.10231
1.10144
1.10015
1.09743
1.09492
1.09504
1.09616
1.09918
1.09938
1.0989
1.09727
1.09535
1.09537
1.09616
1.0974
1.0972
1.09647
1.09513
1.09445
1.09436
1.09417
1.09364
1.09321
1.09276
0.654277
0.654166
0.654048
0.653924
0.653798
0.653673
0.653549
0.653423
0.653291
0.653158
0.653026
0.652892
0.65276
0.65263
0.652494
0.65236
0.652228
0.652095
0.651965
0.651837
0.651704
0.651577
0.65145
0.651326
0.651203
0.651089
0.651005
0.650909
0.650825
0.650762
0.65072
0.650677
0.650644
0.650647
0.65065
0.650642
0.650593
0.650622
0.651067
0.65319
0.657556
0.667651
0.682291
0.706945
0.735732
0.774455
0.814586
0.860636
0.899343
0.93655
0.966533
0.992208
1.0153
1.03197
1.04883
1.05791
1.06589
1.07074
1.07423
1.07767
1.08949
1.09661
1.10331
1.10623
1.1078
1.10754
1.10667
1.10473
1.09847
1.09206
1.09074
1.09136
1.09291
1.09689
1.10071
1.10305
1.10222
1.09971
1.09524
1.09308
1.09328
1.09501
1.09807
1.10053
1.09969
1.09718
1.09545
1.09472
1.09558
1.09772
1.09853
1.09757
1.09567
1.09482
1.0947
1.09471
1.09453
1.09396
1.09368
1.09348
0.651826
0.65178
0.651726
0.651671
0.651619
0.651561
0.651498
0.651434
0.651376
0.651328
0.651283
0.651233
0.651182
0.651123
0.651063
0.651009
0.650955
0.650904
0.650863
0.650827
0.650795
0.650762
0.650717
0.650666
0.650615
0.650571
0.650532
0.650523
0.650533
0.650552
0.650572
0.650595
0.650636
0.650689
0.650723
0.650741
0.650749
0.650758
0.650769
0.650765
0.650732
0.650736
0.650748
0.650776
0.650825
0.650902
0.650991
0.65284
0.657732
0.673122
0.695595
0.733854
0.775834
0.82567
0.871284
0.919163
0.960529
0.995927
1.03306
1.06169
1.07877
1.08639
1.09338
1.09658
1.09847
1.09801
1.09509
1.08786
1.08321
1.08395
1.0864
1.09126
1.09599
1.09874
1.09868
1.09826
1.09468
1.09054
1.08886
1.08929
1.09292
1.09673
1.09736
1.09733
1.09498
1.09288
1.09238
1.09364
1.09606
1.09704
1.09674
1.09491
1.09381
1.09358
1.09424
1.09425
1.09376
1.09332
1.09323
1.09341
0.650582
0.65058
0.650581
0.650588
0.650626
0.650635
0.650629
0.65062
0.650613
0.650609
0.650605
0.650596
0.650585
0.650579
0.650575
0.650564
0.650542
0.650519
0.650506
0.650499
0.650489
0.650462
0.650423
0.650391
0.650366
0.650362
0.650364
0.65037
0.650394
0.650433
0.650468
0.650502
0.650549
0.650581
0.650595
0.650613
0.650654
0.650719
0.650785
0.650839
0.650854
0.650855
0.650875
0.650921
0.651002
0.65109
0.651117
0.651108
0.65108
0.651042
0.651005
0.650978
0.650947
0.651463
0.654634
0.667744
0.692494
0.739503
0.792894
0.86098
0.912034
0.957399
0.993819
1.01719
1.04084
1.05264
1.0623
1.06404
1.07687
1.08516
1.09518
1.09831
1.09953
1.09909
1.09684
1.08908
1.08276
1.08348
1.08577
1.09093
1.09563
1.09665
1.09563
1.09146
1.08878
1.08891
1.0909
1.09423
1.09604
1.0954
1.09269
1.09133
1.09144
1.09244
1.09302
1.09246
1.09176
1.09186
1.09248
1.09263
0.650295
0.650311
0.650333
0.650379
0.650409
0.650421
0.65043
0.65044
0.65045
0.650461
0.650469
0.650474
0.650482
0.650497
0.650503
0.650497
0.650483
0.650486
0.650496
0.650503
0.6505
0.650477
0.65043
0.65041
0.650413
0.650425
0.650447
0.650469
0.650488
0.650515
0.650553
0.650561
0.650554
0.650553
0.650561
0.650594
0.650641
0.650697
0.650729
0.650736
0.65076
0.650797
0.650849
0.650916
0.650993
0.651049
0.651059
0.651049
0.65102
0.650974
0.650929
0.650891
0.65085
0.650847
0.650842
0.650825
0.650734
0.650582
0.650529
0.653428
0.662664
0.696795
0.740356
0.807664
0.868869
0.92816
0.986039
1.03184
1.06942
1.08161
1.09198
1.0961
1.09608
1.09254
1.0823
1.07606
1.07866
1.08431
1.09047
1.0937
1.0947
1.09332
1.08884
1.08454
1.08521
1.08801
1.09196
1.09358
1.09342
1.0909
1.08849
1.08881
1.09013
1.09105
1.09087
1.09005
1.08971
1.09033
1.09105
1.09091
0.650524
0.650562
0.650585
0.650598
0.650607
0.650614
0.650623
0.650634
0.650644
0.650656
0.650674
0.650685
0.650684
0.650673
0.650664
0.650667
0.650678
0.650695
0.650709
0.650708
0.650688
0.650622
0.650613
0.650618
0.650638
0.650665
0.650692
0.65071
0.650726
0.65075
0.650777
0.650795
0.650806
0.650819
0.650843
0.650892
0.650946
0.650963
0.650958
0.650921
0.65089
0.650894
0.650924
0.650984
0.651053
0.651088
0.651087
0.651056
0.650991
0.650956
0.650911
0.650876
0.65083
0.650799
0.650779
0.650746
0.650612
0.650457
0.650448
0.650547
0.650659
0.650634
0.650526
0.650726
0.654131
0.67626
0.717912
0.802696
0.873488
0.941812
0.99266
1.02053
1.05292
1.0572
1.06465
1.07187
1.08955
1.09448
1.09673
1.09621
1.09187
1.08262
1.08213
1.08257
1.08707
1.09236
1.09367
1.09286
1.08875
1.08626
1.08647
1.08833
1.09045
1.0901
1.08837
1.08776
1.08839
1.08956
1.08985
1.08924
0.650841
0.650849
0.650855
0.650867
0.65089
0.650908
0.65092
0.650931
0.650942
0.650945
0.650947
0.65096
0.650969
0.650973
0.650979
0.650994
0.651023
0.65104
0.651037
0.651015
0.650955
0.650903
0.650905
0.650918
0.650944
0.650974
0.651013
0.651048
0.651069
0.651077
0.651075
0.651062
0.651053
0.651055
0.651078
0.651092
0.651087
0.651076
0.65106
0.651008
0.650944
0.650932
0.650943
0.650991
0.651047
0.651053
0.651037
0.650964
0.650859
0.650857
0.650888
0.650876
0.650833
0.650754
0.650718
0.650673
0.65053
0.650387
0.650392
0.650556
0.650667
0.650622
0.650596
0.650636
0.650823
0.650895
0.650876
0.650847
0.654045
0.684973
0.732793
0.818331
0.895989
0.967312
1.03973
1.07278
1.09125
1.09659
1.09711
1.09223
1.07879
1.07499
1.07931
1.08786
1.09259
1.09381
1.0931
1.08866
1.08372
1.0842
1.08738
1.0895
1.08959
1.08807
1.08641
1.08688
1.08842
1.08897
1.08857
1.08798
0.651109
0.651111
0.651114
0.651123
0.651139
0.651145
0.651149
0.651153
0.651152
0.651144
0.65114
0.651151
0.651182
0.6512
0.651199
0.651201
0.651205
0.651202
0.651194
0.651155
0.651103
0.651099
0.651124
0.651178
0.651186
0.651192
0.651215
0.651256
0.651262
0.651258
0.651261
0.65126
0.651255
0.651257
0.651286
0.651294
0.651288
0.651273
0.651235
0.651161
0.651058
0.650964
0.650926
0.650931
0.650962
0.651017
0.651002
0.650877
0.650786
0.650753
0.650777
0.65085
0.650892
0.650897
0.650879
0.6508
0.650598
0.650494
0.650554
0.650779
0.650826
0.650767
0.650737
0.65076
0.650957
0.651139
0.651144
0.651083
0.65095
0.650949
0.650987
0.651852
0.659287
0.710276
0.785343
0.891265
0.960537
1.00339
1.04839
1.05417
1.06601
1.07699
1.09265
1.09739
1.09677
1.09472
1.08663
1.08312
1.08348
1.08638
1.09079
1.09048
1.08769
1.0857
1.08589
1.08774
1.08913
1.08871
1.08699
1.08721
0.651214
0.651217
0.651222
0.651224
0.651225
0.651227
0.651226
0.651224
0.65122
0.651203
0.651194
0.651209
0.651279
0.651323
0.651324
0.65132
0.651302
0.651269
0.651243
0.651221
0.651189
0.651184
0.651212
0.651273
0.651276
0.651279
0.651299
0.651307
0.651305
0.651303
0.65131
0.65132
0.651315
0.651308
0.651317
0.651349
0.651354
0.65133
0.651263
0.651172
0.651089
0.651045
0.65102
0.650995
0.650967
0.650903
0.650709
0.650496
0.65045
0.650463
0.650514
0.650622
0.650765
0.650899
0.650927
0.650871
0.650673
0.650603
0.650708
0.650933
0.650941
0.650853
0.650825
0.650839
0.651007
0.651222
0.651238
0.651187
0.651038
0.650975
0.651017
0.651053
0.651034
0.650957
0.650827
0.661125
0.691897
0.779296
0.871023
0.960626
1.04628
1.07842
1.09569
1.09748
1.09551
1.08233
1.0776
1.08063
1.08728
1.09137
1.09133
1.0888
1.08415
1.08452
1.08734
1.08939
1.08916
1.08728
1.08616
1.08749
0.651279
0.651271
0.651257
0.651246
0.651243
0.651241
0.651239
0.651231
0.651185
0.651138
0.651142
0.651217
0.651289
0.651292
0.651288
0.651258
0.651196
0.651179
0.651189
0.65119
0.651175
0.651154
0.651157
0.651197
0.651212
0.651211
0.651213
0.651221
0.651246
0.651291
0.651314
0.65131
0.651276
0.651226
0.651196
0.651178
0.651135
0.651051
0.650959
0.650872
0.650837
0.650861
0.650898
0.6509
0.650873
0.650711
0.65041
0.650268
0.65027
0.650312
0.65042
0.650568
0.650734
0.650929
0.651005
0.650928
0.650699
0.650646
0.650781
0.651007
0.651012
0.650912
0.650866
0.650875
0.651018
0.65124
0.651268
0.651224
0.651074
0.650887
0.650777
0.650754
0.650739
0.650787
0.650839
0.65087
0.651026
0.651119
0.655381
0.7055
0.793201
0.909099
0.979186
1.02324
1.05403
1.05808
1.08282
1.08785
1.09465
1.09418
1.08937
1.08371
1.08372
1.08644
1.09077
1.09049
1.08769
1.08604
1.08655
1.08897
0.651248
0.651227
0.65122
0.651219
0.651214
0.651195
0.651163
0.651122
0.651099
0.651098
0.65111
0.651122
0.651117
0.651105
0.651075
0.651007
0.650946
0.650946
0.650978
0.650986
0.65098
0.650947
0.650896
0.650885
0.650887
0.650883
0.650869
0.650849
0.650851
0.650865
0.650863
0.650851
0.650776
0.650694
0.650686
0.650673
0.650635
0.650637
0.65065
0.650666
0.650725
0.650851
0.650948
0.650955
0.65089
0.65062
0.650254
0.65011
0.650116
0.650192
0.650385
0.6506
0.650774
0.650968
0.651047
0.650945
0.65067
0.650622
0.650785
0.651027
0.651042
0.650944
0.650847
0.650848
0.650976
0.651224
0.651267
0.65122
0.651035
0.650735
0.650502
0.650477
0.650509
0.650691
0.65085
0.651095
0.651251
0.651302
0.65137
0.651493
0.651478
0.667129
0.719128
0.822847
0.927607
1.01815
1.07962
1.08709
1.09473
1.09192
1.07971
1.08012
1.08597
1.09104
1.09181
1.08939
1.08509
1.08568
1.08918
1.09078
0.651062
0.651045
0.651043
0.651049
0.65105
0.65105
0.651041
0.650996
0.650941
0.650907
0.650871
0.650808
0.650761
0.650727
0.65065
0.650602
0.650613
0.650628
0.650625
0.650607
0.650562
0.65052
0.650517
0.650523
0.650525
0.650517
0.650467
0.650366
0.650324
0.650323
0.650322
0.650304
0.650269
0.650224
0.650187
0.650187
0.650222
0.650328
0.650466
0.65057
0.650676
0.650849
0.650999
0.651011
0.65092
0.650547
0.650093
0.64994
0.649951
0.65009
0.650404
0.650658
0.650811
0.650989
0.651052
0.650924
0.650637
0.650583
0.650728
0.651011
0.651046
0.650949
0.650725
0.650667
0.650732
0.650971
0.651095
0.651054
0.650888
0.650631
0.650412
0.650377
0.650444
0.650651
0.65096
0.65126
0.651361
0.651393
0.651452
0.651416
0.651087
0.650662
0.649928
0.650879
0.674723
0.775766
0.888664
0.973924
1.04991
1.05567
1.07297
1.08118
1.09549
1.09506
1.09131
1.0857
1.08578
1.08911
1.09292
1.09201
0.650673
0.65066
0.65066
0.650671
0.650672
0.650667
0.650639
0.650571
0.650502
0.650399
0.650269
0.650217
0.650225
0.650283
0.650319
0.65033
0.650337
0.650338
0.650329
0.650314
0.650324
0.650343
0.650346
0.650326
0.650294
0.650299
0.650298
0.650246
0.650118
0.65007
0.650049
0.650013
0.649959
0.649938
0.649943
0.649972
0.650064
0.650195
0.650341
0.650478
0.650627
0.650834
0.651004
0.651025
0.650935
0.650543
0.649971
0.649776
0.649812
0.650125
0.650593
0.650704
0.650778
0.650924
0.650934
0.650747
0.650532
0.650512
0.650683
0.650975
0.651019
0.650929
0.650713
0.650582
0.650586
0.650553
0.650501
0.650442
0.650424
0.650463
0.650465
0.650504
0.650689
0.650932
0.651152
0.651391
0.651412
0.651441
0.651344
0.650918
0.650328
0.649783
0.649399
0.649542
0.649947
0.650188
0.657771
0.731463
0.844948
0.956596
1.0611
1.08306
1.0983
1.09556
1.08233
1.0826
1.08937
1.09495
1.09474
1.09085
0.650013
0.650039
0.650062
0.650068
0.650067
0.650052
0.650016
0.649974
0.649956
0.64995
0.649941
0.649941
0.649981
0.650071
0.650112
0.650134
0.650152
0.650156
0.65016
0.650188
0.650242
0.650255
0.650235
0.650178
0.650175
0.650201
0.650213
0.650154
0.650002
0.649946
0.649919
0.649851
0.649788
0.64979
0.649818
0.649897
0.650042
0.650117
0.65018
0.650275
0.650435
0.650673
0.65088
0.650925
0.650844
0.650412
0.649769
0.649614
0.649695
0.650268
0.650799
0.650883
0.650863
0.650856
0.650796
0.650567
0.650443
0.65044
0.650623
0.650836
0.650884
0.65084
0.650701
0.650525
0.65031
0.649979
0.649754
0.649774
0.650012
0.650468
0.650607
0.650723
0.650903
0.651036
0.651219
0.651456
0.651339
0.651051
0.650296
0.649586
0.649079
0.648886
0.649152
0.649386
0.649811
0.650022
0.649698
0.648821
0.650023
0.707392
0.817874
0.938085
1.03512
1.04883
1.07229
1.08209
1.09878
1.09833
1.09275
1.08988
0.650198
0.650228
0.650239
0.650244
0.650244
0.650244
0.650258
0.650277
0.65028
0.650276
0.650258
0.65027
0.650383
0.650543
0.650586
0.650584
0.650544
0.650492
0.650496
0.650537
0.650585
0.650587
0.650544
0.650451
0.650445
0.650472
0.65048
0.650398
0.650229
0.650174
0.650122
0.650003
0.64995
0.650003
0.650167
0.6502
0.650194
0.650253
0.650348
0.650416
0.650535
0.650723
0.65091
0.651007
0.650965
0.650569
0.649859
0.649691
0.649812
0.65049
0.650988
0.651
0.650894
0.650828
0.650681
0.650425
0.650371
0.65044
0.650359
0.650006
0.649857
0.64987
0.649857
0.649785
0.649549
0.649089
0.648923
0.649055
0.649807
0.650446
0.650628
0.650741
0.650922
0.650853
0.650472
0.649648
0.648902
0.648125
0.647405
0.647133
0.647198
0.647325
0.647419
0.64751
0.647515
0.647333
0.646973
0.646269
0.645603
0.645342
0.645277
0.689281
0.792398
0.926775
1.05162
1.08277
1.10079
1.09697
1.08362
1.08878
0.649997
0.65003
0.650044
0.650054
0.650057
0.650028
0.649948
0.649912
0.649853
0.649709
0.649631
0.649624
0.649636
0.649714
0.64974
0.649706
0.649686
0.64972
0.649881
0.650047
0.650056
0.649996
0.649817
0.649675
0.649649
0.649672
0.649757
0.649778
0.649761
0.649689
0.64944
0.648949
0.648628
0.648646
0.648706
0.648693
0.648679
0.648814
0.648985
0.648966
0.648784
0.648696
0.648728
0.649063
0.64932
0.649277
0.649003
0.648881
0.649053
0.649479
0.649704
0.649675
0.649342
0.648658
0.648166
0.648056
0.648046
0.647939
0.647543
0.647329
0.647341
0.647424
0.647455
0.647485
0.647454
0.64722
0.647083
0.647235
0.647668
0.647763
0.647713
0.647585
0.647349
0.647066
0.646668
0.646143
0.645765
0.645463
0.64522
0.645064
0.645077
0.645241
0.645538
0.645989
0.646045
0.645847
0.645362
0.6447
0.644291
0.644378
0.644522
0.645175
0.645389
0.681941
0.788068
0.926427
1.03277
1.04985
1.07348
1.09403
0.645631
0.645641
0.645654
0.645661
0.645709
0.64576
0.645756
0.645705
0.645689
0.645687
0.645621
0.645527
0.645539
0.645887
0.646362
0.646396
0.646447
0.646653
0.646889
0.646922
0.646886
0.646746
0.646566
0.646527
0.646552
0.646651
0.646856
0.646952
0.646931
0.646882
0.646898
0.647027
0.647106
0.64707
0.647034
0.647067
0.647385
0.647927
0.648014
0.647849
0.647273
0.646931
0.64693
0.646923
0.646853
0.646593
0.646193
0.646149
0.646276
0.646276
0.646228
0.646249
0.646172
0.645915
0.64582
0.6459
0.64591
0.645508
0.644913
0.644866
0.644957
0.645489
0.645921
0.645967
0.645852
0.645488
0.645356
0.645499
0.645984
0.646154
0.646069
0.645737
0.645409
0.64518
0.644873
0.644564
0.644344
0.644209
0.64412
0.64414
0.644276
0.644786
0.645253
0.645632
0.645508
0.64499
0.644353
0.644037
0.644043
0.644343
0.645358
0.646224
0.645905
0.645007
0.644492
0.68089
0.782507
0.931553
1.04574
1.09211
0.642438
0.642442
0.642442
0.642451
0.642606
0.642694
0.642708
0.642704
0.642681
0.642591
0.642447
0.642422
0.642498
0.642822
0.643269
0.643774
0.644311
0.644454
0.644406
0.644292
0.644302
0.644315
0.644315
0.644365
0.644487
0.64465
0.644797
0.644989
0.64529
0.645437
0.645498
0.645625
0.64572
0.645723
0.64559
0.645463
0.645447
0.645377
0.645163
0.644746
0.644144
0.643773
0.643883
0.644574
0.644874
0.644811
0.644713
0.644668
0.644646
0.644546
0.644255
0.643786
0.643576
0.643629
0.643847
0.644207
0.644384
0.644323
0.643907
0.64377
0.643849
0.644354
0.64515
0.645367
0.645275
0.645032
0.644978
0.645132
0.645458
0.645454
0.645105
0.644536
0.644257
0.644151
0.64404
0.643973
0.643915
0.643987
0.64411
0.644718
0.645561
0.646403
0.646307
0.645978
0.6452
0.64466
0.644162
0.644249
0.645324
0.646887
0.648077
0.647288
0.645992
0.645106
0.646882
0.649392
0.649826
0.689645
0.792255
0.991651
0.645415
0.645185
0.645173
0.645164
0.645094
0.644815
0.64471
0.644719
0.644671
0.644405
0.644328
0.644408
0.644556
0.644753
0.645234
0.645606
0.645688
0.645574
0.644956
0.644587
0.644586
0.64468
0.644872
0.645035
0.645222
0.645539
0.645912
0.64599
0.645986
0.646124
0.64633
0.646399
0.646395
0.646376
0.646293
0.645898
0.645113
0.644353
0.643705
0.643059
0.642714
0.642675
0.642868
0.643611
0.644812
0.645194
0.645273
0.645255
0.645107
0.644735
0.64407
0.643436
0.64321
0.643286
0.643858
0.644632
0.64549
0.645988
0.645745
0.64535
0.645335
0.645787
0.64707
0.647593
0.647468
0.647044
0.64681
0.646658
0.646271
0.645501
0.644715
0.64425
0.644089
0.644099
0.64412
0.644586
0.645648
0.646877
0.647912
0.649122
0.649199
0.648406
0.647226
0.646198
0.645677
0.64603
0.647501
0.649975
0.652761
0.653272
0.652613
0.651804
0.652133
0.65398
0.655662
0.656348
0.656021
0.655365
0.655417
0.770053
0.647989
0.647991
0.647992
0.648099
0.648335
0.648365
0.648076
0.647024
0.646469
0.646412
0.646365
0.646309
0.646254
0.646058
0.645562
0.644967
0.644535
0.643581
0.642051
0.641692
0.641739
0.641956
0.642408
0.643065
0.643938
0.64487
0.645258
0.645255
0.645256
0.645431
0.64554
0.645531
0.645587
0.645651
0.645603
0.64522
0.644205
0.642662
0.641848
0.641826
0.641927
0.642244
0.642777
0.643363
0.644357
0.645661
0.64641
0.646739
0.64688
0.647083
0.647099
0.646768
0.645922
0.645369
0.645515
0.646476
0.648529
0.650475
0.650697
0.650184
0.649504
0.649461
0.649467
0.649462
0.649426
0.649269
0.648965
0.648469
0.647265
0.646693
0.647075
0.648179
0.649655
0.651125
0.652811
0.654391
0.655323
0.655846
0.656037
0.655786
0.654948
0.653554
0.653717
0.654346
0.655724
0.657392
0.658535
0.659227
0.658701
0.65797
0.656363
0.656676
0.658258
0.660666
0.660552
0.660315
0.660491
0.661496
0.662826
0.663797
0.650449
0.650524
0.65066
0.650959
0.651218
0.651212
0.650868
0.650515
0.650433
0.650079
0.64918
0.648911
0.649008
0.649903
0.651031
0.651116
0.65041
0.649421
0.649091
0.648719
0.648449
0.64841
0.648589
0.649735
0.652475
0.654754
0.65534
0.655363
0.65529
0.654779
0.653271
0.651442
0.650958
0.651217
0.652154
0.652701
0.652948
0.65337
0.654254
0.655559
0.656601
0.656793
0.656728
0.656762
0.657138
0.657781
0.658334
0.658915
0.659605
0.659811
0.659688
0.659501
0.659434
0.659468
0.659741
0.659888
0.659757
0.659372
0.658822
0.658481
0.65848
0.658479
0.658596
0.658781
0.658758
0.658468
0.658394
0.658568
0.659126
0.660205
0.661382
0.662324
0.663144
0.663534
0.663456
0.663102
0.662297
0.661487
0.660885
0.660071
0.658961
0.659351
0.660686
0.662684
0.664193
0.66526
0.664988
0.664197
0.66284
0.6629
0.664644
0.666883
0.669136
0.669434
0.66945
0.669454
0.669657
0.670198
0.670747
0.671005
0.667161
0.667169
0.667177
0.667251
0.667604
0.667674
0.667352
0.66677
0.666625
0.666479
0.666392
0.666419
0.667006
0.668241
0.668404
0.667869
0.666839
0.666663
0.666364
0.665439
0.664634
0.664624
0.665119
0.666183
0.666855
0.66705
0.667474
0.66849
0.668882
0.668777
0.668105
0.667862
0.667844
0.667861
0.66799
0.668371
0.669125
0.669613
0.669637
0.669589
0.669293
0.668417
0.666952
0.6657
0.664878
0.66457
0.664597
0.664952
0.665933
0.667139
0.66752
0.667348
0.666713
0.66582
0.664977
0.664111
0.663171
0.662802
0.662975
0.663333
0.66336
0.663024
0.662861
0.663096
0.664235
0.666456
0.668134
0.668588
0.668708
0.668762
0.669008
0.669251
0.669163
0.668784
0.668096
0.666986
0.66618
0.66657
0.667512
0.669153
0.671491
0.673931
0.675693
0.676774
0.676519
0.675923
0.674935
0.674526
0.674986
0.676259
0.67743
0.677876
0.677323
0.676655
0.675999
0.67547
0.675651
0.676323
0.67728
0.678746
0.679419
0.680129
0.681176
0.681459
0.681383
0.680108
0.679184
0.679185
0.679385
0.680441
0.681815
0.682257
0.682206
0.681364
0.679883
0.679663
0.680519
0.682659
0.683048
0.681663
0.679153
0.678783
0.678872
0.678643
0.677463
0.677099
0.677455
0.677603
0.676866
0.675631
0.675684
0.676755
0.67809
0.678254
0.677785
0.677019
0.676878
0.676991
0.677127
0.677213
0.677686
0.679375
0.680287
0.680004
0.678793
0.677623
0.676906
0.676174
0.675705
0.675829
0.676488
0.677761
0.67956
0.681655
0.683372
0.684123
0.684268
0.684315
0.684532
0.685093
0.685904
0.686864
0.687319
0.687209
0.687032
0.687018
0.687069
0.687013
0.686823
0.686471
0.686144
0.685959
0.685826
0.685617
0.685676
0.685922
0.686539
0.687294
0.688045
0.688877
0.688775
0.688314
0.687331
0.686246
0.685179
0.684247
0.683717
0.68429
0.685384
0.686448
0.686752
0.686587
0.686602
0.686815
0.68735
0.688175
0.688843
0.689432
0.689323
0.688913
0.699675
0.698144
0.696394
0.695876
0.695705
0.695832
0.696286
0.697136
0.698431
0.699705
0.700575
0.701149
0.701458
0.701452
0.701344
0.70132
0.701477
0.701716
0.701591
0.700555
0.699753
0.699743
0.700158
0.700757
0.701221
0.701725
0.701925
0.70181
0.700792
0.699633
0.699618
0.699817
0.699705
0.699472
0.699606
0.69965
0.699746
0.700425
0.701679
0.702455
0.702774
0.702999
0.702994
0.702586
0.701828
0.701599
0.701607
0.701629
0.701889
0.702645
0.702814
0.702498
0.702005
0.701681
0.701267
0.70068
0.700505
0.700527
0.700527
0.700299
0.6997
0.698812
0.697666
0.696713
0.696346
0.696063
0.695467
0.694794
0.694582
0.694195
0.693293
0.692925
0.693217
0.693883
0.694766
0.695664
0.696484
0.696721
0.696879
0.696573
0.695923
0.695087
0.694137
0.694135
0.694553
0.695539
0.696982
0.698547
0.699106
0.698859
0.69833
0.697643
0.697148
0.69658
0.696602
0.696412
0.696097
0.695403
0.694439
0.694195
0.719391
0.719266
0.718851
0.717806
0.717626
0.717657
0.71768
0.717565
0.717041
0.716815
0.717136
0.717822
0.717828
0.716843
0.715992
0.715986
0.716273
0.717333
0.71787
0.717654
0.716459
0.715566
0.71544
0.715474
0.716076
0.717207
0.717411
0.717251
0.716924
0.716879
0.716962
0.717419
0.717698
0.717564
0.716711
0.715826
0.7157
0.71569
0.715569
0.714852
0.714121
0.714097
0.714086
0.713639
0.713038
0.713034
0.713101
0.712857
0.712724
0.712744
0.712386
0.711693
0.711719
0.711724
0.711074
0.709888
0.709534
0.709382
0.709051
0.709031
0.709353
0.71023
0.711032
0.711144
0.710906
0.710833
0.711187
0.712445
0.713584
0.714217
0.714943
0.715338
0.715346
0.715075
0.714612
0.714175
0.713533
0.712699
0.711924
0.711242
0.710692
0.710133
0.710282
0.710464
0.710381
0.710135
0.709581
0.708696
0.707346
0.705976
0.704941
0.704164
0.704407
0.705236
0.706011
0.706425
0.706737
0.706641
0.70661
0.706331
0.737026
0.737258
0.737951
0.738172
0.738107
0.737461
0.736079
0.735734
0.735922
0.736543
0.736586
0.735896
0.735371
0.735424
0.736317
0.736916
0.737012
0.737288
0.73772
0.737787
0.737618
0.737108
0.736469
0.73614
0.736084
0.736146
0.736305
0.736275
0.735947
0.735436
0.734984
0.734822
0.734858
0.735171
0.735262
0.735044
0.734457
0.734054
0.734046
0.734288
0.734825
0.73496
0.734731
0.734656
0.734715
0.734581
0.7339
0.733419
0.733103
0.732639
0.732506
0.732696
0.733186
0.733432
0.733369
0.733003
0.732482
0.732344
0.732284
0.732191
0.732114
0.731952
0.731622
0.731293
0.73083
0.730119
0.729448
0.728796
0.727963
0.727157
0.726289
0.725226
0.723959
0.722566
0.721282
0.720336
0.719488
0.719091
0.718952
0.719124
0.719433
0.720065
0.72096
0.721266
0.721082
0.720855
0.720279
0.719431
0.719441
0.719193
0.719213
0.719527
0.719675
0.719484
0.71882
0.717679
0.716413
0.71492
0.714153
0.713177
0.75719
0.757141
0.756817
0.756701
0.756771
0.756833
0.756731
0.756496
0.75648
0.756527
0.75646
0.756059
0.755921
0.755956
0.75583
0.755329
0.755263
0.755257
0.755067
0.754927
0.754864
0.754722
0.754662
0.754625
0.754348
0.754092
0.754123
0.754277
0.754268
0.754146
0.753997
0.753821
0.753616
0.753333
0.75285
0.752444
0.752408
0.752489
0.752507
0.75242
0.752144
0.751593
0.751077
0.750702
0.750104
0.749429
0.749379
0.749667
0.749856
0.749766
0.749472
0.748895
0.748002
0.747388
0.746821
0.745842
0.745185
0.745148
0.745121
0.74491
0.744507
0.743693
0.742458
0.741708
0.74118
0.740997
0.740945
0.740724
0.739894
0.739126
0.739235
0.739755
0.739841
0.739896
0.740172
0.740394
0.740642
0.740636
0.740525
0.740263
0.739608
0.738773
0.737745
0.736615
0.735527
0.734369
0.733182
0.732125
0.731279
0.730614
0.729965
0.729217
0.727987
0.727006
0.725737
0.724798
0.724235
0.724738
0.725575
0.725365
0.777353
0.777348
0.777339
0.777142
0.776816
0.776787
0.776888
0.776912
0.776795
0.776724
0.776706
0.776495
0.776104
0.776044
0.775958
0.77559
0.77543
0.775456
0.775477
0.775252
0.774863
0.774905
0.775189
0.775191
0.774644
0.774093
0.774079
0.774085
0.773887
0.773664
0.773575
0.773374
0.773001
0.772949
0.772894
0.772635
0.772115
0.771726
0.771415
0.77097
0.770588
0.770561
0.770688
0.770703
0.770493
0.770031
0.769581
0.769108
0.768676
0.768259
0.767554
0.766916
0.766845
0.766963
0.766999
0.76674
0.766137
0.765541
0.764684
0.764105
0.764055
0.763943
0.763607
0.762857
0.761924
0.761597
0.761395
0.76114
0.760609
0.759675
0.758954
0.758454
0.757878
0.756895
0.755718
0.754546
0.753281
0.751927
0.750459
0.748969
0.747348
0.74561
0.744193
0.742995
0.742206
0.742132
0.742671
0.743461
0.743714
0.743458
0.743209
0.742563
0.741665
0.740842
0.74015
0.73965
0.738793
0.737996
0.736677
0.734165
0.798366
0.798491
0.798654
0.798629
0.79818
0.797686
0.797704
0.797898
0.797917
0.797859
0.797815
0.797788
0.797686
0.797257
0.796837
0.796843
0.796843
0.796497
0.796075
0.79607
0.796056
0.795814
0.795456
0.795385
0.795408
0.795287
0.794858
0.794512
0.794356
0.794233
0.79409
0.793815
0.793201
0.792806
0.792695
0.792594
0.792397
0.792018
0.791584
0.791106
0.7906
0.790396
0.790225
0.789951
0.789445
0.788775
0.788222
0.787734
0.787398
0.787101
0.786681
0.786144
0.785552
0.784909
0.784206
0.783478
0.782855
0.782512
0.782019
0.781184
0.780305
0.779504
0.778739
0.778065
0.777309
0.776587
0.775749
0.774594
0.773443
0.772561
0.771829
0.77091
0.769763
0.768819
0.767952
0.767149
0.76651
0.765974
0.765656
0.765234
0.765091
0.764912
0.76494
0.764792
0.764136
0.763021
0.761832
0.760589
0.759072
0.757106
0.755326
0.753615
0.752103
0.750402
0.749192
0.747875
0.746845
0.745585
0.744807
0.744153
0.820811
0.820873
0.820782
0.820624
0.820641
0.820737
0.820523
0.819643
0.81934
0.819431
0.819529
0.819509
0.819455
0.819412
0.819354
0.819009
0.818595
0.818365
0.818006
0.817771
0.817742
0.817575
0.816962
0.816719
0.816735
0.816683
0.816462
0.816012
0.815402
0.815264
0.8152
0.815069
0.814587
0.813835
0.813495
0.813376
0.813222
0.812855
0.812318
0.811772
0.810921
0.8104
0.810327
0.810242
0.809948
0.809294
0.808511
0.80785
0.807263
0.806678
0.806071
0.805461
0.80496
0.804487
0.803911
0.803301
0.802634
0.801869
0.801079
0.800215
0.799497
0.798912
0.79828
0.797515
0.796351
0.79544
0.79493
0.794514
0.79358
0.792321
0.79151
0.791059
0.790306
0.789255
0.788251
0.787162
0.786212
0.785151
0.783949
0.78249
0.780972
0.779424
0.777541
0.775712
0.773935
0.771888
0.769371
0.767529
0.766204
0.764958
0.763755
0.764149
0.764622
0.764654
0.764213
0.763448
0.762057
0.760371
0.75909
0.756861
0.843791
0.844012
0.844394
0.844385
0.84376
0.843374
0.843383
0.843594
0.843674
0.843342
0.842627
0.842234
0.842161
0.842262
0.842334
0.842294
0.842104
0.841434
0.841065
0.841087
0.841021
0.840474
0.839858
0.839623
0.839451
0.839264
0.839035
0.838775
0.838272
0.837496
0.83727
0.837213
0.837157
0.836894
0.836154
0.835357
0.834803
0.834458
0.834204
0.833882
0.833374
0.832754
0.832108
0.831487
0.830913
0.830388
0.829814
0.829127
0.828432
0.827824
0.827194
0.826377
0.825547
0.82487
0.824241
0.823485
0.822625
0.821724
0.82097
0.820189
0.819135
0.817917
0.816954
0.816166
0.815204
0.814064
0.812827
0.811763
0.810746
0.80957
0.807995
0.806712
0.805584
0.804191
0.802786
0.801451
0.79994
0.798332
0.796761
0.795323
0.793929
0.792706
0.791714
0.790305
0.789323
0.78892
0.788193
0.787199
0.786743
0.786281
0.784842
0.782821
0.78085
0.778598
0.776067
0.77372
0.771148
0.7687
0.767108
0.765387
0.869197
0.869215
0.868802
0.867885
0.867669
0.867809
0.868375
0.868475
0.868099
0.867681
0.867685
0.867466
0.86653
0.865953
0.865954
0.86601
0.866
0.865871
0.865635
0.865358
0.864736
0.864453
0.864318
0.86405
0.86346
0.86275
0.862376
0.862193
0.861932
0.861644
0.861136
0.860132
0.859847
0.85992
0.859638
0.858646
0.858148
0.857528
0.856703
0.856461
0.856234
0.855752
0.854976
0.854106
0.853056
0.852304
0.851893
0.851398
0.850589
0.84969
0.848918
0.848071
0.847
0.845922