/*--------------------------------*- C++ -*----------------------------------*\
  =========                 |
  \\      /  F ield         | OpenFOAM: The Open Source CFD Toolbox
   \\    /   O peration     | Website:  https://openfoam.org
    \\  /    A nd           | Version:  7
     \\/     M anipulation  |
\*---------------------------------------------------------------------------*/
FoamFile
{
    version     2.0;
    format      ascii;
    class       volVectorField;
    location    "2.2";
    object      U;
}
// * * * * * * * * * * * * * * * * * * * * * * * * * * * * * * * * * * * * * //

dimensions      [0 1 -1 0 0 0 0];

internalField   nonuniform List<vector> 
11200
(
(2.62928 -0.765274 0)
(2.63915 -0.398571 0)
(2.65507 -0.172502 0)
(2.65237 -0.00767188 0)
(2.67295 0.0680294 0)
(2.69298 0.179043 0)
(2.72668 0.213956 0)
(2.76271 0.248506 0)
(2.78621 0.249051 0)
(2.80419 0.22834 0)
(2.81945 0.23209 0)
(2.82375 0.18261 0)
(2.84735 0.135258 0)
(2.8591 0.0736063 0)
(2.86803 0.019813 0)
(2.87902 0.0369884 0)
(2.90146 0.0768411 0)
(2.91601 0.107672 0)
(2.92319 0.115321 0)
(2.90116 0.0802879 0)
(2.82163 0.00499619 0)
(2.76572 -0.0254612 0)
(2.73984 -0.0314007 0)
(2.72925 -0.0231955 0)
(2.71641 0.0235454 0)
(2.69011 0.129 0)
(2.46343 0.162018 0)
(2.31922 0.120903 0)
(2.26062 -0.0131586 0)
(2.43121 -0.0905793 0)
(2.71094 -1.48185 0)
(2.72908 -1.48171 0)
(2.71855 -1.38964 0)
(2.71197 -1.22533 0)
(2.68624 -1.02167 0)
(2.64492 -0.741565 0)
(2.64146 -0.559616 0)
(2.6211 -0.300939 0)
(2.64691 -0.210498 0)
(2.65092 -0.0869413 0)
(2.6684 -0.0338099 0)
(2.68647 -0.0371445 0)
(2.70703 0.000350933 0)
(2.72055 -0.0180265 0)
(2.72322 -0.00292044 0)
(2.71703 0.0339481 0)
(2.71705 0.0405061 0)
(2.71419 0.0412861 0)
(2.71417 0.0645354 0)
(2.69563 0.0663574 0)
(2.64051 0.0381379 0)
(2.58734 0.0110304 0)
(2.54335 -0.0338817 0)
(2.52196 -0.0321253 0)
(2.49304 0.00544242 0)
(2.44436 0.137774 0)
(2.27642 0.198759 0)
(2.16024 0.150806 0)
(2.14784 -0.0136834 0)
(2.33542 -0.112531 0)
(2.87703 -1.53529 0)
(2.91505 -1.54841 0)
(2.96585 -1.58681 0)
(2.98688 -1.60522 0)
(3.01428 -1.60385 0)
(3.03302 -1.62225 0)
(3.04247 -1.62214 0)
(3.01306 -1.50322 0)
(2.95458 -1.32622 0)
(2.88023 -1.07387 0)
(2.81657 -0.804316 0)
(2.75751 -0.541115 0)
(2.68403 -0.223289 0)
(2.67197 -0.0470714 0)
(2.62535 0.167935 0)
(2.60732 0.169988 0)
(2.58909 0.114394 0)
(2.60107 0.0527593 0)
(2.62881 0.0301195 0)
(2.62741 0.0411004 0)
(2.56718 0.00898068 0)
(2.48935 -0.0211444 0)
(2.40981 -0.0591021 0)
(2.35612 -0.0364288 0)
(2.30458 0.0224952 0)
(2.21804 0.184263 0)
(2.10947 0.247041 0)
(2.04817 0.168149 0)
(2.0979 -0.0389957 0)
(2.27692 -0.138129 0)
(3.00835 -1.61015 0)
(3.02695 -1.61983 0)
(3.04875 -1.62293 0)
(3.06771 -1.63218 0)
(3.09004 -1.63128 0)
(3.1007 -1.64299 0)
(3.11445 -1.64902 0)
(3.11667 -1.65866 0)
(3.11993 -1.66831 0)
(3.1232 -1.67936 0)
(3.1256 -1.68383 0)
(3.12049 -1.65694 0)
(3.05318 -1.49074 0)
(2.95287 -1.17927 0)
(2.86378 -0.728091 0)
(2.79346 -0.338611 0)
(2.77061 -0.148271 0)
(2.71182 -0.0290779 0)
(2.68741 -0.0113931 0)
(2.66571 0.0191578 0)
(2.56051 0.0272099 0)
(2.43972 0.00459659 0)
(2.35206 -0.0436876 0)
(2.27382 -0.0285275 0)
(2.20105 0.0487784 0)
(2.0888 0.200434 0)
(2.0177 0.269277 0)
(2.00501 0.175226 0)
(2.10218 -0.0737779 0)
(2.25705 -0.160635 0)
(3.0866 -1.62661 0)
(3.09315 -1.62808 0)
(3.09921 -1.6354 0)
(3.1066 -1.63915 0)
(3.1143 -1.64276 0)
(3.11997 -1.6489 0)
(3.12249 -1.65468 0)
(3.12609 -1.65902 0)
(3.12883 -1.66837 0)
(3.13277 -1.68042 0)
(3.13456 -1.68149 0)
(3.134 -1.67981 0)
(3.13134 -1.67627 0)
(3.11728 -1.68318 0)
(3.10463 -1.68984 0)
(3.05026 -1.49418 0)
(2.96626 -0.967951 0)
(2.90814 -0.570714 0)
(2.83883 -0.288605 0)
(2.76151 -0.0475845 0)
(2.5703 0.0359949 0)
(2.40837 0.0293875 0)
(2.3286 -0.0161183 0)
(2.24961 -0.00487467 0)
(2.17195 0.100898 0)
(2.08302 0.247793 0)
(2.02697 0.288182 0)
(2.03843 0.168606 0)
(2.15146 -0.102708 0)
(2.25824 -0.182654 0)
(3.1124 -1.63551 0)
(3.11421 -1.63907 0)
(3.11735 -1.64475 0)
(3.11672 -1.6517 0)
(3.12032 -1.65756 0)
(3.12423 -1.66285 0)
(3.12361 -1.66833 0)
(3.12408 -1.67519 0)
(3.1254 -1.68147 0)
(3.12776 -1.69183 0)
(3.12873 -1.69822 0)
(3.13034 -1.6949 0)
(3.12957 -1.68469 0)
(3.11536 -1.68759 0)
(3.09759 -1.70279 0)
(3.09484 -1.69895 0)
(3.09897 -1.6916 0)
(3.1056 -1.6671 0)
(3.06966 -1.43625 0)
(2.96245 -0.92811 0)
(2.77091 -0.262997 0)
(2.42857 0.03665 0)
(2.33327 0.0176244 0)
(2.25777 0.0144533 0)
(2.18809 0.141063 0)
(2.14757 0.279753 0)
(2.12488 0.283783 0)
(2.15209 0.14565 0)
(2.23728 -0.0983912 0)
(2.29022 -0.182116 0)
(3.10802 -1.6686 0)
(3.10778 -1.66993 0)
(3.10937 -1.67214 0)
(3.10854 -1.67726 0)
(3.11108 -1.68349 0)
(3.11274 -1.68817 0)
(3.1139 -1.68893 0)
(3.1148 -1.69084 0)
(3.11442 -1.69653 0)
(3.11351 -1.70058 0)
(3.11259 -1.70746 0)
(3.11329 -1.70163 0)
(3.11311 -1.6977 0)
(3.10632 -1.69856 0)
(3.09983 -1.69819 0)
(3.09653 -1.69671 0)
(3.10183 -1.67683 0)
(3.12017 -1.66789 0)
(3.13672 -1.6661 0)
(3.13947 -1.65005 0)
(3.04859 -1.27537 0)
(2.74244 -0.366023 0)
(2.41392 0.0122914 0)
(2.30064 0.0321902 0)
(2.23731 0.154672 0)
(2.24046 0.287634 0)
(2.26844 0.273101 0)
(2.3107 0.131925 0)
(2.36548 -0.0926923 0)
(2.36228 -0.168288 0)
(3.09036 -1.68858 0)
(3.09428 -1.69176 0)
(3.09967 -1.69189 0)
(3.10139 -1.69341 0)
(3.101 -1.69531 0)
(3.10218 -1.69479 0)
(3.10316 -1.69389 0)
(3.10504 -1.69225 0)
(3.10603 -1.69256 0)
(3.1051 -1.69527 0)
(3.09685 -1.7045 0)
(3.09356 -1.70189 0)
(3.10433 -1.68663 0)
(3.10997 -1.67811 0)
(3.11673 -1.66148 0)
(3.11919 -1.6518 0)
(3.12074 -1.64004 0)
(3.14772 -1.59141 0)
(3.16357 -1.60091 0)
(3.16891 -1.58106 0)
(3.16649 -1.56135 0)
(3.11768 -1.40382 0)
(2.89498 -0.571458 0)
(2.40492 -0.0584624 0)
(2.29906 0.178901 0)
(2.35066 0.270024 0)
(2.42198 0.221782 0)
(2.49581 0.129238 0)
(2.52674 -0.0423304 0)
(2.46202 -0.155907 0)
(3.08514 -1.6963 0)
(3.08986 -1.69552 0)
(3.09383 -1.69282 0)
(3.09584 -1.69499 0)
(3.09442 -1.69413 0)
(3.08652 -1.6834 0)
(3.08595 -1.68121 0)
(3.09253 -1.67673 0)
(3.10443 -1.66755 0)
(3.10408 -1.66745 0)
(3.09627 -1.67702 0)
(3.09667 -1.66999 0)
(3.11646 -1.64461 0)
(3.13113 -1.61237 0)
(3.13926 -1.60452 0)
(3.14007 -1.59694 0)
(3.13905 -1.58263 0)
(3.1568 -1.57273 0)
(3.18044 -1.49492 0)
(3.19046 -1.47802 0)
(3.18826 -1.45923 0)
(3.17006 -1.48388 0)
(3.16106 -1.41662 0)
(2.85114 -0.644411 0)
(2.40902 0.036993 0)
(2.49302 0.252045 0)
(2.62747 0.232567 0)
(2.70316 0.131774 0)
(2.71727 -0.0196035 0)
(2.5629 -0.137403 0)
(3.10305 -1.65928 0)
(3.10781 -1.65187 0)
(3.10905 -1.6508 0)
(3.1104 -1.6447 0)
(3.11346 -1.63449 0)
(3.11958 -1.62083 0)
(3.1211 -1.60322 0)
(3.11892 -1.58898 0)
(3.12722 -1.56161 0)
(3.12955 -1.55426 0)
(3.12328 -1.5608 0)
(3.12596 -1.58071 0)
(3.14294 -1.56432 0)
(3.15933 -1.53635 0)
(3.16116 -1.53516 0)
(3.15797 -1.52541 0)
(3.15367 -1.51626 0)
(3.16214 -1.48914 0)
(3.1742 -1.46861 0)
(3.19078 -1.43219 0)
(3.17512 -1.44344 0)
(3.16776 -1.43868 0)
(3.18059 -1.40882 0)
(3.17334 -1.36655 0)
(2.88425 -0.610783 0)
(2.7333 0.0127901 0)
(2.79445 0.13176 0)
(2.83849 0.179374 0)
(2.8225 0.0442858 0)
(2.62802 -0.0771516 0)
(3.09208 -1.6547 0)
(3.09864 -1.64816 0)
(3.10842 -1.6408 0)
(3.11918 -1.64083 0)
(3.12738 -1.62318 0)
(3.12864 -1.60147 0)
(3.13183 -1.58191 0)
(3.12705 -1.55433 0)
(3.13431 -1.5285 0)
(3.14164 -1.51948 0)
(3.14334 -1.52168 0)
(3.14799 -1.53312 0)
(3.15849 -1.48954 0)
(3.17235 -1.45953 0)
(3.17534 -1.45218 0)
(3.16817 -1.45464 0)
(3.16894 -1.43158 0)
(3.17148 -1.42849 0)
(3.1799 -1.4157 0)
(3.17975 -1.41917 0)
(3.18527 -1.37756 0)
(3.18807 -1.36839 0)
(3.18786 -1.37126 0)
(3.19144 -1.33178 0)
(3.18758 -1.26285 0)
(3.0846 -0.7579 0)
(3.03969 -0.405697 0)
(2.97948 -0.0340108 0)
(3.00926 -0.0876063 0)
(2.73136 -0.0700586 0)
(3.13783 -1.48208 0)
(3.14312 -1.48424 0)
(3.15332 -1.48525 0)
(3.16923 -1.49594 0)
(3.15753 -1.52375 0)
(3.14248 -1.52659 0)
(3.13941 -1.52552 0)
(3.13199 -1.52158 0)
(3.13607 -1.50069 0)
(3.14521 -1.48525 0)
(3.14874 -1.48239 0)
(3.14605 -1.48538 0)
(3.15568 -1.44486 0)
(3.17597 -1.39933 0)
(3.178 -1.39803 0)
(3.1761 -1.39191 0)
(3.17701 -1.37012 0)
(3.18605 -1.3573 0)
(3.20049 -1.34156 0)
(3.20164 -1.34387 0)
(3.19949 -1.32999 0)
(3.20407 -1.27332 0)
(3.20756 -1.26142 0)
(3.2067 -1.25325 0)
(3.20939 -1.24054 0)
(3.21125 -1.23793 0)
(3.19215 -1.13592 0)
(3.12315 -0.676423 0)
(3.12441 -0.699811 0)
(2.81818 -0.292402 0)
(3.15814 -1.42304 0)
(3.16511 -1.41904 0)
(3.17172 -1.42331 0)
(3.18541 -1.41947 0)
(3.18263 -1.39606 0)
(3.18255 -1.37981 0)
(3.18383 -1.35842 0)
(3.17799 -1.33927 0)
(3.18075 -1.30134 0)
(3.18973 -1.28653 0)
(3.1919 -1.28156 0)
(3.18273 -1.29779 0)
(3.18197 -1.329 0)
(3.18777 -1.33135 0)
(3.19109 -1.32178 0)
(3.19072 -1.31137 0)
(3.18703 -1.29783 0)
(3.19821 -1.25551 0)
(3.21789 -1.25577 0)
(3.21941 -1.22491 0)
(3.21426 -1.21346 0)
(3.21088 -1.21375 0)
(3.21969 -1.17911 0)
(3.22162 -1.17447 0)
(3.22016 -1.17065 0)
(3.22137 -1.14729 0)
(3.20378 -1.18547 0)
(3.19718 -1.12075 0)
(3.11945 -1.18695 0)
(2.94354 -0.895984 0)
(3.18324 -1.27635 0)
(3.19036 -1.27076 0)
(3.19514 -1.27119 0)
(3.2002 -1.27185 0)
(3.19377 -1.28851 0)
(3.18766 -1.31131 0)
(3.17687 -1.30661 0)
(3.17011 -1.30206 0)
(3.17224 -1.28524 0)
(3.18045 -1.27071 0)
(3.18429 -1.27053 0)
(3.18991 -1.25224 0)
(3.19744 -1.22291 0)
(3.20071 -1.19972 0)
(3.20819 -1.18676 0)
(3.20491 -1.18331 0)
(3.19774 -1.18419 0)
(3.20051 -1.19114 0)
(3.21025 -1.16816 0)
(3.21332 -1.16152 0)
(3.21096 -1.15998 0)
(3.20891 -1.15335 0)
(3.21208 -1.14815 0)
(3.22132 -1.12949 0)
(3.23098 -1.11202 0)
(3.21815 -1.13031 0)
(3.20597 -1.12434 0)
(3.19248 -1.0745 0)
(3.14215 -1.06613 0)
(3.00637 -1.01358 0)
(3.19706 -1.17369 0)
(3.20444 -1.16975 0)
(3.20716 -1.17043 0)
(3.20624 -1.17454 0)
(3.20207 -1.18995 0)
(3.20156 -1.2027 0)
(3.18905 -1.18647 0)
(3.18468 -1.18227 0)
(3.18931 -1.16014 0)
(3.20383 -1.13232 0)
(3.20577 -1.12747 0)
(3.1956 -1.13971 0)
(3.19341 -1.15474 0)
(3.19646 -1.15474 0)
(3.19944 -1.14645 0)
(3.20329 -1.14116 0)
(3.20443 -1.13527 0)
(3.20498 -1.12179 0)
(3.20719 -1.11537 0)
(3.20765 -1.1053 0)
(3.20713 -1.09889 0)
(3.20951 -1.08055 0)
(3.21276 -1.07356 0)
(3.21898 -1.05952 0)
(3.22476 -1.05212 0)
(3.22924 -1.03437 0)
(3.21524 -1.04511 0)
(3.19394 -1.02219 0)
(3.14297 -1.04051 0)
(3.03649 -0.956704 0)
(3.19542 -1.02938 0)
(3.21348 -1.0338 0)
(3.22045 -1.04297 0)
(3.2153 -1.04988 0)
(3.21065 -1.06147 0)
(3.20369 -1.07427 0)
(3.19449 -1.0663 0)
(3.19285 -1.06188 0)
(3.19739 -1.05015 0)
(3.211 -1.02727 0)
(3.21442 -1.02216 0)
(3.21047 -1.02219 0)
(3.20777 -1.01936 0)
(3.20919 -1.01551 0)
(3.21338 -1.00383 0)
(3.22071 -0.99837 0)
(3.21585 -0.983275 0)
(3.21493 -0.972744 0)
(3.2169 -0.967808 0)
(3.2147 -0.976622 0)
(3.21987 -0.982462 0)
(3.22472 -0.976525 0)
(3.22499 -0.977699 0)
(3.22438 -0.975082 0)
(3.22793 -0.965522 0)
(3.22745 -0.970147 0)
(3.21944 -0.965966 0)
(3.20213 -0.931425 0)
(3.14433 -0.959745 0)
(3.04045 -0.916387 0)
(3.1861 -0.887671 0)
(3.20556 -0.897244 0)
(3.21802 -0.907748 0)
(3.21561 -0.923819 0)
(3.21552 -0.931956 0)
(3.20616 -0.946379 0)
(3.19698 -0.958549 0)
(3.19843 -0.942877 0)
(3.20734 -0.92038 0)
(3.21092 -0.907084 0)
(3.21438 -0.91027 0)
(3.21141 -0.915402 0)
(3.20534 -0.923601 0)
(3.20508 -0.920308 0)
(3.21151 -0.914593 0)
(3.21522 -0.914134 0)
(3.21066 -0.921006 0)
(3.21142 -0.921192 0)
(3.21516 -0.916625 0)
(3.21727 -0.914059 0)
(3.22241 -0.901514 0)
(3.22871 -0.892785 0)
(3.23184 -0.886217 0)
(3.2321 -0.887161 0)
(3.23298 -0.884193 0)
(3.23275 -0.877866 0)
(3.21897 -0.89247 0)
(3.20039 -0.873688 0)
(3.15144 -0.901041 0)
(3.05599 -0.858668 0)
(3.19438 -0.762073 0)
(3.19597 -0.745446 0)
(3.21056 -0.76678 0)
(3.21283 -0.784481 0)
(3.213 -0.78622 0)
(3.20388 -0.794692 0)
(3.19157 -0.806827 0)
(3.19397 -0.801253 0)
(3.20047 -0.795602 0)
(3.21396 -0.790163 0)
(3.21879 -0.791929 0)
(3.2142 -0.792313 0)
(3.20546 -0.793598 0)
(3.20401 -0.794173 0)
(3.2132 -0.793285 0)
(3.21703 -0.792734 0)
(3.21832 -0.791581 0)
(3.21862 -0.789753 0)
(3.21908 -0.789347 0)
(3.21915 -0.79123 0)
(3.21904 -0.800139 0)
(3.22267 -0.813161 0)
(3.22656 -0.81688 0)
(3.22939 -0.813491 0)
(3.22995 -0.811121 0)
(3.2269 -0.811283 0)
(3.21644 -0.822847 0)
(3.20255 -0.803672 0)
(3.16751 -0.817426 0)
(3.07759 -0.779022 0)
(3.18091 -0.618806 0)
(3.18035 -0.597708 0)
(3.18828 -0.596115 0)
(3.20034 -0.628483 0)
(3.19868 -0.646959 0)
(3.19996 -0.652483 0)
(3.18946 -0.665702 0)
(3.18603 -0.674442 0)
(3.18902 -0.672596 0)
(3.2017 -0.662666 0)
(3.21119 -0.65875 0)
(3.20766 -0.661142 0)
(3.20224 -0.672892 0)
(3.19658 -0.680453 0)
(3.20483 -0.682205 0)
(3.20979 -0.683006 0)
(3.21195 -0.685469 0)
(3.21319 -0.688224 0)
(3.2147 -0.696643 0)
(3.21813 -0.696773 0)
(3.22204 -0.696543 0)
(3.22429 -0.697206 0)
(3.22535 -0.70024 0)
(3.22542 -0.709279 0)
(3.22524 -0.715838 0)
(3.22096 -0.728235 0)
(3.21332 -0.742041 0)
(3.19809 -0.734233 0)
(3.17189 -0.730657 0)
(3.09248 -0.696883 0)
(3.15832 -0.496986 0)
(3.16379 -0.478012 0)
(3.16781 -0.455982 0)
(3.18147 -0.464616 0)
(3.18294 -0.493934 0)
(3.18394 -0.501264 0)
(3.17934 -0.510554 0)
(3.16405 -0.531656 0)
(3.16431 -0.537291 0)
(3.18035 -0.532234 0)
(3.19642 -0.524664 0)
(3.19743 -0.53226 0)
(3.19254 -0.544456 0)
(3.18719 -0.547623 0)
(3.18791 -0.552138 0)
(3.19762 -0.561003 0)
(3.20008 -0.566506 0)
(3.20359 -0.56595 0)
(3.20765 -0.575724 0)
(3.20817 -0.586359 0)
(3.21012 -0.59226 0)
(3.21468 -0.605945 0)
(3.21914 -0.610207 0)
(3.22377 -0.605317 0)
(3.22299 -0.614196 0)
(3.21215 -0.623298 0)
(3.20578 -0.627354 0)
(3.19103 -0.626021 0)
(3.16373 -0.654059 0)
(3.09958 -0.636207 0)
(3.13609 -0.353627 0)
(3.14362 -0.338298 0)
(3.14598 -0.312119 0)
(3.1508 -0.294508 0)
(3.16286 -0.329765 0)
(3.16071 -0.348975 0)
(3.161 -0.358574 0)
(3.14712 -0.391191 0)
(3.14358 -0.404325 0)
(3.15965 -0.395618 0)
(3.17527 -0.38691 0)
(3.17781 -0.39416 0)
(3.17537 -0.410415 0)
(3.17111 -0.417689 0)
(3.17193 -0.419207 0)
(3.1814 -0.439356 0)
(3.1834 -0.450715 0)
(3.18628 -0.449495 0)
(3.1923 -0.457551 0)
(3.19581 -0.478547 0)
(3.19697 -0.480395 0)
(3.20157 -0.49027 0)
(3.20588 -0.502555 0)
(3.20856 -0.50319 0)
(3.21086 -0.52051 0)
(3.20067 -0.545011 0)
(3.19676 -0.559477 0)
(3.18779 -0.561268 0)
(3.16475 -0.578341 0)
(3.10592 -0.571456 0)
(3.1007 -0.202437 0)
(3.10527 -0.195923 0)
(3.11147 -0.181541 0)
(3.11793 -0.161737 0)
(3.13297 -0.172035 0)
(3.13315 -0.20449 0)
(3.13182 -0.212595 0)
(3.12534 -0.240691 0)
(3.1197 -0.259762 0)
(3.13081 -0.254497 0)
(3.14514 -0.247489 0)
(3.15254 -0.255694 0)
(3.15073 -0.275113 0)
(3.14697 -0.280277 0)
(3.15089 -0.290696 0)
(3.15726 -0.309766 0)
(3.16026 -0.324949 0)
(3.16356 -0.332389 0)
(3.17019 -0.335008 0)
(3.17764 -0.355377 0)
(3.17973 -0.369244 0)
(3.18276 -0.377362 0)
(3.1879 -0.396337 0)
(3.19095 -0.401096 0)
(3.19352 -0.410916 0)
(3.18902 -0.434422 0)
(3.1822 -0.450847 0)
(3.17684 -0.453333 0)
(3.1583 -0.472143 0)
(3.11085 -0.46948 0)
(3.0596 -0.0552048 0)
(3.05931 -0.0548502 0)
(3.06452 -0.0471001 0)
(3.07086 -0.0333421 0)
(3.08115 -0.0250823 0)
(3.09093 -0.0449062 0)
(3.08872 -0.0671577 0)
(3.09143 -0.0914323 0)
(3.08559 -0.116646 0)
(3.0911 -0.115564 0)
(3.09996 -0.107218 0)
(3.11346 -0.121629 0)
(3.11486 -0.144081 0)
(3.11338 -0.148076 0)
(3.11803 -0.156522 0)
(3.12589 -0.178952 0)
(3.12988 -0.194954 0)
(3.1353 -0.210533 0)
(3.1414 -0.218059 0)
(3.14859 -0.230364 0)
(3.15502 -0.255012 0)
(3.15822 -0.263175 0)
(3.16337 -0.276353 0)
(3.16883 -0.2948 0)
(3.17165 -0.308889 0)
(3.17327 -0.340772 0)
(3.16929 -0.359083 0)
(3.16567 -0.368763 0)
(3.15123 -0.393351 0)
(3.1143 -0.39098 0)
(3.00307 0.107124 0)
(3.0047 0.108985 0)
(3.00634 0.120914 0)
(3.00869 0.125904 0)
(3.02485 0.101895 0)
(3.02825 0.0935679 0)
(3.03305 0.080852 0)
(3.04026 0.0544524 0)
(3.03885 0.0452034 0)
(3.0408 0.0420583 0)
(3.04948 0.0319248 0)
(3.05746 0.0179284 0)
(3.06549 -0.00326907 0)
(3.07049 -0.0201885 0)
(3.07452 -0.0220901 0)
(3.0853 -0.0465173 0)
(3.0916 -0.0660905 0)
(3.09392 -0.066808 0)
(3.10639 -0.0975563 0)
(3.11331 -0.108266 0)
(3.12044 -0.122679 0)
(3.13086 -0.155782 0)
(3.13554 -0.164344 0)
(3.14408 -0.186186 0)
(3.15031 -0.206631 0)
(3.15183 -0.229579 0)
(3.15342 -0.254242 0)
(3.15378 -0.266402 0)
(3.13752 -0.286922 0)
(3.11349 -0.302015 0)
(2.94505 0.268346 0)
(2.94611 0.26324 0)
(2.94693 0.267776 0)
(2.95176 0.265306 0)
(2.96157 0.247157 0)
(2.96457 0.242163 0)
(2.97001 0.235903 0)
(2.97734 0.222264 0)
(2.98217 0.205697 0)
(2.98663 0.190818 0)
(2.98959 0.1896 0)
(3.00121 0.171711 0)
(3.01153 0.148886 0)
(3.01616 0.141904 0)
(3.0273 0.119441 0)
(3.03426 0.107677 0)
(3.04442 0.0844954 0)
(3.05432 0.0610031 0)
(3.06178 0.0510897 0)
(3.07592 0.0207387 0)
(3.08489 0.00400555 0)
(3.09432 -0.0156406 0)
(3.1067 -0.0477883 0)
(3.11001 -0.0563941 0)
(3.12603 -0.0932363 0)
(3.12732 -0.110588 0)
(3.13535 -0.135113 0)
(3.13953 -0.157922 0)
(3.13066 -0.171301 0)
(3.10812 -0.190794 0)
(2.91362 0.336979 0)
(2.91478 0.336826 0)
(2.91687 0.335299 0)
(2.91979 0.331799 0)
(2.92243 0.330773 0)
(2.92526 0.330656 0)
(2.92914 0.32712 0)
(2.93259 0.321127 0)
(2.93639 0.313061 0)
(2.94042 0.308085 0)
(2.94489 0.306347 0)
(2.95324 0.297093 0)
(2.96095 0.284631 0)
(2.96701 0.276197 0)
(2.97528 0.264984 0)
(2.98504 0.249369 0)
(2.99388 0.235183 0)
(3.00498 0.216585 0)
(3.01694 0.197773 0)
(3.0288 0.180129 0)
(3.04291 0.154596 0)
(3.05455 0.133557 0)
(3.0686 0.106646 0)
(3.07977 0.0836579 0)
(3.09382 0.0552651 0)
(3.10125 0.0332019 0)
(3.11401 0.00225892 0)
(3.1149 -0.0146463 0)
(3.11847 -0.0404773 0)
(3.10137 -0.0669577 0)
(2.91244 0.326991 0)
(2.91296 0.326392 0)
(2.91424 0.326301 0)
(2.91642 0.32632 0)
(2.9187 0.326989 0)
(2.91995 0.327878 0)
(2.92128 0.326386 0)
(2.92434 0.323373 0)
(2.92575 0.319228 0)
(2.92824 0.3191 0)
(2.93152 0.320312 0)
(2.93766 0.316901 0)
(2.94164 0.313271 0)
(2.94546 0.311854 0)
(2.9512 0.30786 0)
(2.95762 0.302496 0)
(2.96434 0.298542 0)
(2.97335 0.291555 0)
(2.98274 0.283231 0)
(2.99237 0.274282 0)
(3.004 0.261256 0)
(3.01612 0.246682 0)
(3.0297 0.229245 0)
(3.04316 0.21037 0)
(3.05813 0.186415 0)
(3.06964 0.164484 0)
(3.0826 0.136408 0)
(3.08822 0.113944 0)
(3.09353 0.0856376 0)
(3.08571 0.0502511 0)
(2.92868 0.25796 0)
(2.92836 0.257335 0)
(2.92836 0.255961 0)
(2.92894 0.25967 0)
(2.92896 0.267379 0)
(2.92709 0.275671 0)
(2.92944 0.284294 0)
(2.92938 0.283506 0)
(2.92893 0.277698 0)
(2.93054 0.27893 0)
(2.93256 0.284176 0)
(2.93667 0.287104 0)
(2.94054 0.287073 0)
(2.94209 0.286645 0)
(2.94529 0.286223 0)
(2.95084 0.283541 0)
(2.95623 0.281308 0)
(2.96244 0.279096 0)
(2.97006 0.273256 0)
(2.97764 0.26712 0)
(2.98601 0.261063 0)
(2.99637 0.252155 0)
(3.00742 0.241736 0)
(3.01919 0.229349 0)
(3.03182 0.213572 0)
(3.0434 0.196058 0)
(3.05518 0.172721 0)
(3.06214 0.151263 0)
(3.06748 0.124745 0)
(3.06445 0.0855541 0)
(2.97351 0.0946027 0)
(2.97251 0.0977525 0)
(2.96872 0.106098 0)
(2.96609 0.114942 0)
(2.96571 0.118448 0)
(2.96421 0.125423 0)
(2.96371 0.133152 0)
(2.96382 0.134931 0)
(2.96312 0.137628 0)
(2.95818 0.150187 0)
(2.95719 0.160341 0)
(2.95833 0.16405 0)
(2.95677 0.173529 0)
(2.95731 0.179047 0)
(2.95573 0.18992 0)
(2.95741 0.193412 0)
(2.95749 0.202019 0)
(2.961 0.207674 0)
(2.96309 0.209946 0)
(2.97117 0.214915 0)
(2.97615 0.21321 0)
(2.98289 0.21096 0)
(2.99121 0.206219 0)
(3.00041 0.198633 0)
(3.01023 0.187661 0)
(3.01975 0.17368 0)
(3.02832 0.156526 0)
(3.03433 0.136536 0)
(3.03819 0.11397 0)
(3.03694 0.0778062 0)
(2.99723 0.00935644 0)
(2.99695 0.0100767 0)
(2.99654 0.0110521 0)
(2.99612 0.0121635 0)
(2.99565 0.0135986 0)
(2.99523 0.0151318 0)
(2.99479 0.0170353 0)
(2.99436 0.0190092 0)
(2.99375 0.0209102 0)
(2.99273 0.0236838 0)
(2.99168 0.0274248 0)
(2.99089 0.0310558 0)
(2.98985 0.0351975 0)
(2.98866 0.0401846 0)
(2.98734 0.0460597 0)
(2.98627 0.0521216 0)
(2.98505 0.0591535 0)
(2.9842 0.0666632 0)
(2.98363 0.0737473 0)
(2.98326 0.0824732 0)
(2.98466 0.0881616 0)
(2.9857 0.0946281 0)
(2.98787 0.100264 0)
(2.99306 0.0995706 0)
(2.99528 0.0981354 0)
(2.99919 0.094075 0)
(3.00361 0.086289 0)
(3.00719 0.0752284 0)
(3.00961 0.0622928 0)
(3.01085 0.0398501 0)
(2.99994 0.000180412 0)
(2.99994 0.000199271 0)
(2.99993 0.000226119 0)
(2.99991 0.000260999 0)
(2.9999 0.000305198 0)
(2.99988 0.000359674 0)
(2.99986 0.000427804 0)
(2.99983 0.000509072 0)
(2.9998 0.000603127 0)
(2.99975 0.000735556 0)
(2.99969 0.000920868 0)
(2.99963 0.00114221 0)
(2.99955 0.00142059 0)
(2.99943 0.00180025 0)
(2.9993 0.00229745 0)
(2.99914 0.00292786 0)
(2.99894 0.00372952 0)
(2.99871 0.00475257 0)
(2.99847 0.00601787 0)
(2.9982 0.00752106 0)
(2.99799 0.00928529 0)
(2.99783 0.0112113 0)
(2.99789 0.0130654 0)
(2.99806 0.0148369 0)
(2.99864 0.0158747 0)
(2.99905 0.0158037 0)
(2.99956 0.0152596 0)
(3.00026 0.0137144 0)
(3.00086 0.0113742 0)
(3.00139 0.00680987 0)
(3 1.24642e-06 0)
(3 1.39442e-06 0)
(3 1.60057e-06 0)
(3 1.86919e-06 0)
(3 2.21925e-06 0)
(3 2.66616e-06 0)
(3 3.2428e-06 0)
(3 3.98368e-06 0)
(3 4.91448e-06 0)
(3 6.20947e-06 0)
(3 8.07025e-06 0)
(3 1.05449e-05 0)
(3 1.38988e-05 0)
(2.99999 1.87167e-05 0)
(2.99999 2.56033e-05 0)
(2.99999 3.52669e-05 0)
(2.99999 4.9044e-05 0)
(2.99998 6.87632e-05 0)
(2.99997 9.63939e-05 0)
(2.99997 0.000134863 0)
(2.99996 0.000185891 0)
(2.99995 0.000252329 0)
(2.99994 0.000331938 0)
(2.99994 0.000418035 0)
(2.99994 0.000503302 0)
(2.99996 0.000555459 0)
(2.99998 0.000558548 0)
(3 0.000533381 0)
(3.00002 0.000461073 0)
(3.00005 0.000273522 0)
(3 5.78304e-09 0)
(3 6.53934e-09 0)
(3 7.58455e-09 0)
(3 8.92313e-09 0)
(3 1.06407e-08 0)
(3 1.2845e-08 0)
(3 1.57058e-08 0)
(3 1.94476e-08 0)
(3 2.43274e-08 0)
(3 3.10469e-08 0)
(3 4.06005e-08 0)
(3 5.37701e-08 0)
(3 7.21108e-08 0)
(3 9.86817e-08 0)
(3 1.37374e-07 0)
(3 1.93764e-07 0)
(3 2.77121e-07 0)
(3 4.01126e-07 0)
(3 5.84119e-07 0)
(3 8.51044e-07 0)
(3 1.23176e-06 0)
(3 1.76238e-06 0)
(3 2.4561e-06 0)
(3 3.30191e-06 0)
(3 4.24251e-06 0)
(3 5.12228e-06 0)
(3 5.4828e-06 0)
(3 5.41492e-06 0)
(3 4.92728e-06 0)
(3 3.05321e-06 0)
(3 2.22561e-11 0)
(3 2.53853e-11 0)
(3 2.97419e-11 0)
(3 3.53442e-11 0)
(3 4.25116e-11 0)
(3 5.17444e-11 0)
(3 6.37428e-11 0)
(3 7.95331e-11 0)
(3 1.00448e-10 0)
(3 1.29069e-10 0)
(3 1.6926e-10 0)
(3 2.25299e-10 0)
(3 3.04232e-10 0)
(3 4.18451e-10 0)
(3 5.85614e-10 0)
(3 8.31954e-10 0)
(3 1.19967e-09 0)
(3 1.75102e-09 0)
(3 2.57372e-09 0)
(3 3.79117e-09 0)
(3 5.56058e-09 0)
(3 8.08207e-09 0)
(3 1.14948e-08 0)
(3 1.57947e-08 0)
(3 2.09265e-08 0)
(3 2.64726e-08 0)
(3 2.98873e-08 0)
(3 2.99134e-08 0)
(3 2.80607e-08 0)
(3 1.82617e-08 0)
(3 6.30034e-14 0)
(3 7.39089e-14 0)
(3 8.6873e-14 0)
(3 1.04538e-13 0)
(3 1.31274e-13 0)
(3 1.601e-13 0)
(3 1.96056e-13 0)
(3 2.53607e-13 0)
(3 3.27663e-13 0)
(3 4.20718e-13 0)
(3 5.53648e-13 0)
(3 7.49359e-13 0)
(3 1.02114e-12 0)
(3 1.40623e-12 0)
(3 1.98222e-12 0)
(3 2.83825e-12 0)
(3 4.11148e-12 0)
(3 6.03331e-12 0)
(3 8.91423e-12 0)
(3 1.31969e-11 0)
(3 1.949e-11 0)
(3 2.8572e-11 0)
(3 4.11085e-11 0)
(3 5.72175e-11 0)
(3 7.72853e-11 0)
(3 1.0095e-10 0)
(3 1.18613e-10 0)
(3 1.20429e-10 0)
(3 1.14589e-10 0)
(3 7.65512e-11 0)
(2.62653 -1.42524 0)
(2.67756 -1.47182 0)
(2.83458 -1.50824 0)
(2.98202 -1.60234 0)
(3.08224 -1.62359 0)
(3.10934 -1.63207 0)
(3.1046 -1.66449 0)
(3.08602 -1.68203 0)
(3.07884 -1.69347 0)
(3.09705 -1.6593 0)
(3.08739 -1.65641 0)
(3.13205 -1.48601 0)
(3.15266 -1.42656 0)
(3.17757 -1.28187 0)
(3.17848 -1.17591 0)
(3.17672 -1.04238 0)
(3.18935 -0.904426 0)
(3.18561 -0.789631 0)
(3.17154 -0.644884 0)
(3.14564 -0.505818 0)
(3.1247 -0.360509 0)
(3.10015 -0.205813 0)
(3.06357 -0.0459932 0)
(3.00514 0.125077 0)
(2.93911 0.285025 0)
(2.91085 0.339666 0)
(2.90995 0.328601 0)
(2.92866 0.257513 0)
(2.97368 0.0931898 0)
(2.99752 0.00833634 0)
(2.99995 0.000166447 0)
(3 1.13674e-06 0)
(3 5.22491e-09 0)
(3 1.99643e-11 0)
(3 5.58925e-14 0)
(2.62314 -1.42168 0)
(2.68777 -1.46608 0)
(2.86056 -1.52066 0)
(3.00647 -1.61345 0)
(3.09218 -1.61961 0)
(3.10634 -1.64035 0)
(3.09084 -1.67146 0)
(3.07378 -1.68649 0)
(3.07375 -1.68752 0)
(3.09169 -1.65353 0)
(3.0784 -1.63495 0)
(3.1279 -1.463 0)
(3.14174 -1.40816 0)
(3.16515 -1.27291 0)
(3.17543 -1.17657 0)
(3.18421 -1.04749 0)
(3.1877 -0.91875 0)
(3.18513 -0.788782 0)
(3.17612 -0.641759 0)
(3.16367 -0.482681 0)
(3.14748 -0.330238 0)
(3.11194 -0.156379 0)
(3.05741 0.0156666 0)
(2.98882 0.177365 0)
(2.92757 0.308339 0)
(2.90576 0.344482 0)
(2.90724 0.329418 0)
(2.93031 0.242947 0)
(2.97694 0.0778687 0)
(2.99828 0.00553929 0)
(2.99997 8.57507e-05 0)
(3 5.82715e-07 0)
(3 2.89079e-09 0)
(3 1.14488e-11 0)
(3 3.17581e-14 0)
(2.61619 -1.41809 0)
(2.68799 -1.45177 0)
(2.86333 -1.52037 0)
(3.00585 -1.62539 0)
(3.09304 -1.62162 0)
(3.10546 -1.64579 0)
(3.0896 -1.67256 0)
(3.07107 -1.68558 0)
(3.06911 -1.67758 0)
(3.08113 -1.65989 0)
(3.0881 -1.61187 0)
(3.11767 -1.50386 0)
(3.13713 -1.41767 0)
(3.15589 -1.29257 0)
(3.16902 -1.19253 0)
(3.18744 -1.05167 0)
(3.19278 -0.918123 0)
(3.20142 -0.760169 0)
(3.19295 -0.606201 0)
(3.1732 -0.406794 0)
(3.14736 -0.246713 0)
(3.08753 -0.0768607 0)
(3.02741 0.0764845 0)
(2.96793 0.214803 0)
(2.91666 0.324348 0)
(2.90161 0.346302 0)
(2.90556 0.329607 0)
(2.93456 0.22162 0)
(2.98109 0.0620763 0)
(2.99878 0.00384875 0)
(2.99998 5.31824e-05 0)
(3 3.46613e-07 0)
(3 1.69722e-09 0)
(3 6.67562e-12 0)
(3 1.78903e-14 0)
(2.61217 -1.41351 0)
(2.68637 -1.44864 0)
(2.85998 -1.535 0)
(3.00507 -1.63176 0)
(3.09131 -1.62825 0)
(3.10464 -1.65109 0)
(3.0901 -1.67266 0)
(3.07256 -1.68695 0)
(3.0702 -1.66763 0)
(3.0658 -1.68524 0)
(3.09398 -1.58812 0)
(3.11328 -1.51651 0)
(3.14362 -1.41464 0)
(3.17224 -1.27875 0)
(3.19569 -1.16728 0)
(3.21721 -1.00503 0)
(3.2189 -0.853705 0)
(3.2029 -0.667956 0)
(3.17884 -0.503075 0)
(3.13699 -0.324618 0)
(3.09663 -0.164506 0)
(3.0631 -0.0418096 0)
(3.01604 0.087741 0)
(2.95659 0.229412 0)
(2.90894 0.33388 0)
(2.89867 0.346779 0)
(2.90346 0.317256 0)
(2.94025 0.200314 0)
(2.98548 0.0485209 0)
(2.99921 0.00255057 0)
(2.99999 3.17652e-05 0)
(3 2.01892e-07 0)
(3 9.81107e-10 0)
(3 3.84058e-12 0)
(3 9.85926e-15 0)
(2.60447 -1.41108 0)
(2.6841 -1.44351 0)
(2.85332 -1.54197 0)
(3.00256 -1.63405 0)
(3.08935 -1.63154 0)
(3.10476 -1.65251 0)
(3.09265 -1.67111 0)
(3.07819 -1.68418 0)
(3.07594 -1.66466 0)
(3.0513 -1.69845 0)
(3.09994 -1.57353 0)
(3.13291 -1.50585 0)
(3.17555 -1.35845 0)
(3.19677 -1.21205 0)
(3.20689 -1.08271 0)
(3.20087 -0.93092 0)
(3.18496 -0.771772 0)
(3.16786 -0.608417 0)
(3.15156 -0.46915 0)
(3.13367 -0.332194 0)
(3.09762 -0.175237 0)
(3.05758 -0.0584279 0)
(3.0092 0.0836519 0)
(2.94797 0.245532 0)
(2.90323 0.342423 0)
(2.8966 0.348324 0)
(2.90816 0.30867 0)
(2.945 0.186334 0)
(2.98829 0.0393323 0)
(2.99947 0.00171184 0)
(2.99999 1.9005e-05 0)
(3 1.16953e-07 0)
(3 5.61535e-10 0)
(3 2.1836e-12 0)
(3 5.38053e-15 0)
(2.58728 -1.40051 0)
(2.67845 -1.4259 0)
(2.84755 -1.54504 0)
(2.99834 -1.63236 0)
(3.08361 -1.63832 0)
(3.10583 -1.65412 0)
(3.10249 -1.66931 0)
(3.09129 -1.67797 0)
(3.08807 -1.67189 0)
(3.07313 -1.67486 0)
(3.1322 -1.54367 0)
(3.16337 -1.44906 0)
(3.1857 -1.30259 0)
(3.19378 -1.17027 0)
(3.19425 -1.04377 0)
(3.18966 -0.919253 0)
(3.18166 -0.782426 0)
(3.17222 -0.640702 0)
(3.14878 -0.503426 0)
(3.12513 -0.361537 0)
(3.09315 -0.204823 0)
(3.05205 -0.0471057 0)
(3.00054 0.124765 0)
(2.93628 0.277099 0)
(2.89782 0.351213 0)
(2.89421 0.351299 0)
(2.90549 0.313399 0)
(2.94843 0.172694 0)
(2.99065 0.0305262 0)
(2.99964 0.00110794 0)
(3 1.11422e-05 0)
(3 6.68112e-08 0)
(3 3.17642e-10 0)
(3 1.22652e-12 0)
(3 3.08286e-15 0)
(2.57472 -1.39007 0)
(2.67098 -1.41581 0)
(2.83274 -1.55067 0)
(2.98966 -1.62403 0)
(3.07601 -1.6382 0)
(3.10732 -1.65902 0)
(3.10783 -1.67376 0)
(3.10256 -1.67223 0)
(3.09243 -1.68718 0)
(3.10155 -1.62015 0)
(3.13708 -1.54119 0)
(3.16203 -1.42342 0)
(3.17913 -1.32048 0)
(3.18385 -1.19045 0)
(3.18782 -1.07022 0)
(3.18374 -0.942128 0)
(3.17601 -0.801772 0)
(3.16661 -0.662922 0)
(3.14744 -0.502772 0)
(3.12789 -0.348935 0)
(3.09663 -0.189873 0)
(3.0446 0.0144147 0)
(2.97947 0.181493 0)
(2.92135 0.305977 0)
(2.89266 0.357565 0)
(2.89179 0.352175 0)
(2.90484 0.307332 0)
(2.95365 0.149756 0)
(2.99297 0.0222423 0)
(2.99977 0.000686211 0)
(3 6.36211e-06 0)
(3 3.74751e-08 0)
(3 1.77105e-10 0)
(3 6.79684e-13 0)
(3 2.08181e-15 0)
(2.5692 -1.38228 0)
(2.66247 -1.41076 0)
(2.82261 -1.55067 0)
(2.98574 -1.61951 0)
(3.07127 -1.6341 0)
(3.10197 -1.66132 0)
(3.10769 -1.68204 0)
(3.10359 -1.68464 0)
(3.0815 -1.71226 0)
(3.1034 -1.56161 0)
(3.11494 -1.56224 0)
(3.15327 -1.42194 0)
(3.17141 -1.33043 0)
(3.18318 -1.19323 0)
(3.18947 -1.07767 0)
(3.19199 -0.939908 0)
(3.19296 -0.777817 0)
(3.18458 -0.634188 0)
(3.16448 -0.432325 0)
(3.13893 -0.271486 0)
(3.0945 -0.0984604 0)
(3.02702 0.0649376 0)
(2.96861 0.200328 0)
(2.9118 0.320374 0)
(2.88914 0.360245 0)
(2.88967 0.351135 0)
(2.91291 0.278242 0)
(2.96144 0.124688 0)
(2.995 0.0159113 0)
(2.99986 0.000413447 0)
(3 3.57296e-06 0)
(3 2.06982e-08 0)
(3 9.72627e-11 0)
(3 3.71447e-13 0)
(3 2.37356e-15 0)
(2.5668 -1.37788 0)
(2.65695 -1.40693 0)
(2.81565 -1.54896 0)
(2.98281 -1.616 0)
(3.06838 -1.63215 0)
(3.09516 -1.66236 0)
(3.10181 -1.69253 0)
(3.09936 -1.69481 0)
(3.06957 -1.72469 0)
(3.10311 -1.5432 0)
(3.10298 -1.56634 0)
(3.15584 -1.40891 0)
(3.1802 -1.32063 0)
(3.20384 -1.17472 0)
(3.2127 -1.05528 0)
(3.22108 -0.878756 0)
(3.20491 -0.695816 0)
(3.18614 -0.52971 0)
(3.13104 -0.336259 0)
(3.09313 -0.172291 0)
(3.04449 -0.015185 0)
(3.01356 0.0802776 0)
(2.95682 0.218935 0)
(2.90259 0.335989 0)
(2.88587 0.362448 0)
(2.88839 0.346441 0)
(2.91614 0.267174 0)
(2.96712 0.107348 0)
(2.99649 0.0112229 0)
(2.99992 0.000247026 0)
(3 1.98545e-06 0)
(3 1.12897e-08 0)
(3 5.26521e-11 0)
(3 2.0062e-13 0)
(3 3.00521e-15 0)
(2.56476 -1.37486 0)
(2.65164 -1.40372 0)
(2.80567 -1.54408 0)
(2.98424 -1.60857 0)
(3.05893 -1.63151 0)
(3.09099 -1.66354 0)
(3.09521 -1.69753 0)
(3.0905 -1.69969 0)
(3.06729 -1.72451 0)
(3.10801 -1.5335 0)
(3.11104 -1.55017 0)
(3.16568 -1.37134 0)
(3.19521 -1.27329 0)
(3.22095 -1.11347 0)
(3.22529 -0.973696 0)
(3.19564 -0.782943 0)
(3.16562 -0.616429 0)
(3.13448 -0.442968 0)
(3.12222 -0.327053 0)
(3.08272 -0.153829 0)
(3.04188 -0.0224324 0)
(2.99517 0.11374 0)
(2.93745 0.260299 0)
(2.89283 0.351555 0)
(2.88253 0.364544 0)
(2.88682 0.344633 0)
(2.91569 0.266067 0)
(2.97162 0.0908155 0)
(2.99753 0.00771992 0)