/*--------------------------------*- C++ -*----------------------------------*\
  =========                 |
  \\      /  F ield         | OpenFOAM: The Open Source CFD Toolbox
   \\    /   O peration     | Website:  https://openfoam.org
    \\  /    A nd           | Version:  7
     \\/     M anipulation  |
\*---------------------------------------------------------------------------*/
FoamFile
{
    version     2.0;
    format      ascii;
    class       volVectorField;
    location    "6";
    object      U;
}
// * * * * * * * * * * * * * * * * * * * * * * * * * * * * * * * * * * * * * //

dimensions      [0 1 -1 0 0 0 0];

internalField   nonuniform List<vector> 
90000
(
(2.24486 -1.34341 0)
(2.09853 -0.802495 0)
(2.17415 -0.528203 0)
(2.2281 -0.338974 0)
(2.21667 -0.0517195 0)
(2.27538 0.101714 0)
(2.33214 0.229002 0)
(2.2009 0.322253 0)
(1.84693 0.283505 0)
(1.5453 0.31127 0)
(1.66372 0.308495 0)
(1.79238 0.331225 0)
(1.92327 0.352256 0)
(2.04203 0.375718 0)
(2.1426 0.394823 0)
(2.22757 0.411805 0)
(2.30405 0.424286 0)
(2.37314 0.436842 0)
(2.43205 0.448741 0)
(2.48854 0.455116 0)
(2.53246 0.459583 0)
(2.57198 0.461003 0)
(2.60687 0.462246 0)
(2.63923 0.46387 0)
(2.66864 0.467121 0)
(2.6952 0.469526 0)
(2.71925 0.473891 0)
(2.74223 0.475253 0)
(2.76417 0.476541 0)
(2.78577 0.473863 0)
(2.80748 0.470819 0)
(2.82821 0.46445 0)
(2.84779 0.456434 0)
(2.8649 0.446981 0)
(2.87622 0.437233 0)
(2.88254 0.429905 0)
(2.88699 0.424973 0)
(2.89026 0.417668 0)
(2.89232 0.416676 0)
(2.89422 0.416655 0)
(2.89638 0.417938 0)
(2.89894 0.418157 0)
(2.90164 0.418883 0)
(2.90423 0.419584 0)
(2.90571 0.421249 0)
(2.90543 0.424483 0)
(2.90541 0.426863 0)
(2.90372 0.430464 0)
(2.90289 0.432024 0)
(2.90124 0.434404 0)
(2.9005 0.434962 0)
(2.89984 0.435158 0)
(2.89875 0.43539 0)
(2.89803 0.435145 0)
(2.89672 0.433591 0)
(2.89521 0.428367 0)
(2.89379 0.420003 0)
(2.89249 0.412627 0)
(2.89121 0.404726 0)
(2.89159 0.396935 0)
(2.8914 0.387666 0)
(2.89111 0.377729 0)
(2.8925 0.376266 0)
(2.89378 0.370611 0)
(2.89609 0.368307 0)
(2.89688 0.365584 0)
(2.89843 0.364079 0)
(2.89898 0.360446 0)
(2.8991 0.355677 0)
(2.89928 0.349858 0)
(2.89914 0.34428 0)
(2.8986 0.336956 0)
(2.89759 0.326958 0)
(2.89677 0.324605 0)
(2.896 0.317193 0)
(2.8955 0.316373 0)
(2.89355 0.308684 0)
(2.89277 0.302444 0)
(2.89102 0.291099 0)
(2.88975 0.280019 0)
(2.88655 0.267996 0)
(2.88603 0.260896 0)
(2.88283 0.250055 0)
(2.88088 0.238071 0)
(2.88042 0.228579 0)
(2.87829 0.21618 0)
(2.878 0.208863 0)
(2.87655 0.201465 0)
(2.8745 0.188145 0)
(2.87392 0.182988 0)
(2.87107 0.168499 0)
(2.87119 0.160183 0)
(2.87148 0.154291 0)
(2.87327 0.142655 0)
(2.87584 0.136855 0)
(2.8772 0.133606 0)
(2.87612 0.122517 0)
(2.877 0.113829 0)
(2.87697 0.10604 0)
(2.8805 0.0934372 0)
(2.61791 -1.87654 0)
(2.61796 -1.8764 0)
(2.61803 -1.87618 0)
(2.61818 -1.87584 0)
(2.6181 -1.8759 0)
(2.61047 -1.86414 0)
(2.63789 -1.82141 0)
(1.42251 -1.80611 0)
(0.445102 -0.799412 0)
(0.431502 -0.19964 0)
(0.495055 0.113749 0)
(0.688327 0.221827 0)
(0.832357 0.353634 0)
(0.980319 0.380102 0)
(1.11382 0.412527 0)
(1.25823 0.426587 0)
(1.39435 0.442602 0)
(1.51296 0.445757 0)
(1.60737 0.448149 0)
(1.68915 0.452226 0)
(1.76892 0.445987 0)
(1.84458 0.447267 0)
(1.91621 0.437258 0)
(1.98418 0.425969 0)
(2.0487 0.412366 0)
(2.11077 0.399878 0)
(2.17113 0.395455 0)
(2.22921 0.398326 0)
(2.28404 0.406923 0)
(2.33608 0.418203 0)
(2.3858 0.430733 0)
(2.43498 0.440989 0)
(2.48334 0.450984 0)
(2.52884 0.456988 0)
(2.57734 0.466152 0)
(2.62692 0.468249 0)
(2.67122 0.471863 0)
(2.70759 0.469463 0)
(2.73737 0.469644 0)
(2.76344 0.470571 0)
(2.78589 0.474044 0)
(2.80516 0.475273 0)
(2.82127 0.477259 0)
(2.83507 0.476856 0)
(2.8474 0.476596 0)
(2.85759 0.477131 0)
(2.86557 0.4762 0)
(2.87107 0.474532 0)
(2.87496 0.471255 0)
(2.8767 0.46738 0)
(2.87771 0.460608 0)
(2.87832 0.451314 0)
(2.87882 0.441689 0)
(2.88038 0.429476 0)
(2.88084 0.416987 0)
(2.88085 0.405432 0)
(2.88073 0.395528 0)
(2.88027 0.387592 0)
(2.87995 0.38171 0)
(2.87972 0.378387 0)
(2.88013 0.374193 0)
(2.88091 0.369168 0)
(2.88257 0.368402 0)
(2.88503 0.366234 0)
(2.8876 0.365707 0)
(2.88912 0.362419 0)
(2.89058 0.360516 0)
(2.89193 0.356513 0)
(2.8933 0.351375 0)
(2.89404 0.344108 0)
(2.89459 0.335523 0)
(2.89462 0.328626 0)
(2.89617 0.324185 0)
(2.89576 0.320362 0)
(2.89579 0.316058 0)
(2.89566 0.313579 0)
(2.89342 0.304579 0)
(2.8915 0.295523 0)
(2.88954 0.282544 0)
(2.8895 0.274244 0)
(2.88657 0.261672 0)
(2.8856 0.257116 0)
(2.88191 0.243889 0)
(2.87882 0.229528 0)
(2.87966 0.223037 0)
(2.87748 0.208991 0)
(2.87735 0.205591 0)
(2.87277 0.193296 0)
(2.87121 0.181666 0)
(2.8719 0.178232 0)
(2.86999 0.165091 0)
(2.86987 0.159924 0)
(2.86938 0.151868 0)
(2.87153 0.138565 0)
(2.87431 0.133974 0)
(2.87485 0.130228 0)
(2.87454 0.120606 0)
(2.87499 0.113816 0)
(2.87456 0.105522 0)
(2.8784 0.0924033 0)
(2.61739 -1.87367 0)
(2.61697 -1.87388 0)
(2.61717 -1.8732 0)
(2.6166 -1.87366 0)
(2.61676 -1.87285 0)
(2.61669 -1.87411 0)
(2.61695 -1.87366 0)
(2.61684 -1.87374 0)
(2.58659 -1.84905 0)
(2.08248 -1.75159 0)
(0.744344 -0.931781 0)
(0.560772 -0.481643 0)
(0.483932 -0.102902 0)
(0.505963 0.00309715 0)
(0.605152 0.0154942 0)
(0.704298 0.0898708 0)
(0.750875 0.183663 0)
(0.816688 0.225289 0)
(0.887402 0.227493 0)
(0.965357 0.231207 0)
(1.04135 0.23687 0)
(1.10651 0.247021 0)
(1.15355 0.271997 0)
(1.20965 0.285094 0)
(1.26633 0.299302 0)
(1.33514 0.299602 0)
(1.41397 0.291936 0)
(1.4882 0.282109 0)
(1.5588 0.273338 0)
(1.62762 0.267901 0)
(1.69472 0.269548 0)
(1.76263 0.275049 0)
(1.83197 0.284524 0)
(1.90288 0.293176 0)
(1.97941 0.304908 0)
(2.06094 0.320713 0)
(2.14323 0.341342 0)
(2.22192 0.359519 0)
(2.29493 0.37437 0)
(2.36198 0.382721 0)
(2.42379 0.386894 0)
(2.48121 0.386343 0)
(2.53402 0.385719 0)
(2.58291 0.382628 0)
(2.62864 0.376623 0)
(2.67022 0.372946 0)
(2.70708 0.366542 0)
(2.73956 0.362631 0)
(2.76759 0.359732 0)
(2.7909 0.357283 0)
(2.81007 0.355077 0)
(2.82579 0.35158 0)
(2.83858 0.34951 0)
(2.84661 0.345362 0)
(2.85378 0.343491 0)
(2.85986 0.341808 0)
(2.86457 0.342854 0)
(2.86758 0.344046 0)
(2.86952 0.345578 0)
(2.87046 0.351088 0)
(2.87172 0.353479 0)
(2.87361 0.354865 0)
(2.87525 0.356428 0)
(2.8777 0.357906 0)
(2.88025 0.357489 0)
(2.88074 0.354961 0)
(2.8813 0.353371 0)
(2.88198 0.348234 0)
(2.88278 0.343838 0)
(2.88296 0.334989 0)
(2.88525 0.327973 0)
(2.88677 0.321119 0)
(2.88999 0.319515 0)
(2.89081 0.315885 0)
(2.89197 0.313429 0)
(2.89189 0.308703 0)
(2.8894 0.296113 0)
(2.88727 0.285453 0)
(2.88561 0.269738 0)
(2.88655 0.266711 0)
(2.88421 0.255553 0)
(2.88184 0.248499 0)
(2.87999 0.238199 0)
(2.87758 0.221388 0)
(2.87808 0.217357 0)
(2.87679 0.204155 0)
(2.87589 0.20066 0)
(2.87193 0.187758 0)
(2.87075 0.176837 0)
(2.8709 0.173133 0)
(2.86922 0.162821 0)
(2.8688 0.159028 0)
(2.86713 0.147929 0)
(2.86953 0.133665 0)
(2.87272 0.130024 0)
(2.87225 0.125261 0)
(2.87286 0.11855 0)
(2.873 0.114853 0)
(2.87283 0.106213 0)
(2.8769 0.0934839 0)
(2.61532 -1.87358 0)
(2.61505 -1.87402 0)
(2.61545 -1.87367 0)
(2.61516 -1.87443 0)
(2.61589 -1.87404 0)
(2.61565 -1.8751 0)
(2.61673 -1.87483 0)
(2.61644 -1.87601 0)
(2.61869 -1.87667 0)
(2.61923 -1.87806 0)
(2.62089 -1.87717 0)
(2.42487 -1.77713 0)
(2.16486 -1.4042 0)
(1.17485 -0.890571 0)
(0.818528 -0.491823 0)
(0.750391 -0.212623 0)
(0.693724 -0.0555019 0)
(0.722501 -0.0148704 0)
(0.767196 -0.00971962 0)
(0.825717 0.0330676 0)
(0.850406 0.0830331 0)
(0.878299 0.108634 0)
(0.902778 0.110467 0)
(0.927697 0.110825 0)
(0.955366 0.112903 0)
(0.975908 0.137935 0)
(1.00951 0.162707 0)
(1.04466 0.181751 0)
(1.08361 0.19554 0)
(1.12346 0.205437 0)
(1.16402 0.213783 0)
(1.203 0.226319 0)
(1.24358 0.240099 0)
(1.28737 0.256349 0)
(1.34618 0.263548 0)
(1.42036 0.257316 0)
(1.49722 0.254584 0)
(1.57633 0.248733 0)
(1.65272 0.254493 0)
(1.72981 0.260196 0)
(1.80749 0.27115 0)
(1.88999 0.276951 0)
(1.97633 0.287229 0)
(2.06161 0.309433 0)
(2.14228 0.334113 0)
(2.22082 0.351326 0)
(2.29653 0.365436 0)
(2.37012 0.375369 0)
(2.43918 0.384006 0)
(2.50124 0.395967 0)
(2.55881 0.40005 0)
(2.61116 0.406415 0)
(2.65831 0.407816 0)
(2.6968 0.411958 0)
(2.7294 0.41376 0)
(2.7567 0.414171 0)
(2.77957 0.414633 0)
(2.79768 0.413778 0)
(2.81143 0.412704 0)
(2.82143 0.410371 0)
(2.82887 0.406539 0)
(2.83551 0.399758 0)
(2.84174 0.390392 0)
(2.84723 0.380451 0)
(2.85252 0.370658 0)
(2.85742 0.360329 0)
(2.86302 0.349858 0)
(2.86632 0.337154 0)
(2.86818 0.328729 0)
(2.86981 0.318401 0)
(2.87253 0.316685 0)
(2.8772 0.312292 0)
(2.88205 0.313481 0)
(2.88398 0.311039 0)
(2.88408 0.307978 0)
(2.88205 0.299833 0)
(2.88019 0.287876 0)
(2.87933 0.277066 0)
(2.88032 0.264516 0)
(2.88169 0.261984 0)
(2.88009 0.251824 0)
(2.87858 0.242156 0)
(2.87496 0.228818 0)
(2.87478 0.212216 0)
(2.87554 0.211269 0)
(2.87469 0.199612 0)
(2.87388 0.195446 0)
(2.86845 0.180265 0)
(2.86966 0.173973 0)
(2.86882 0.168855 0)
(2.86843 0.159983 0)
(2.86785 0.156195 0)
(2.86537 0.141745 0)
(2.86746 0.129326 0)
(2.87009 0.126376 0)
(2.87084 0.120169 0)
(2.87207 0.116072 0)
(2.8717 0.113412 0)
(2.87182 0.10652 0)
(2.87559 0.0952382 0)
(2.61853 -1.87469 0)
(2.61896 -1.87558 0)
(2.61987 -1.87603 0)
(2.62048 -1.87712 0)
(2.62168 -1.87766 0)
(2.62259 -1.87893 0)
(2.62412 -1.87969 0)
(2.62537 -1.88128 0)
(2.62724 -1.88238 0)
(2.6289 -1.88413 0)
(2.63134 -1.88568 0)
(2.63268 -1.8871 0)
(2.63472 -1.88762 0)
(2.63623 -1.88842 0)
(2.48771 -1.78194 0)
(2.21736 -1.54343 0)
(1.88905 -1.17792 0)
(1.55812 -0.726318 0)
(1.12246 -0.361421 0)
(0.988609 -0.134913 0)
(0.921453 -0.0229045 0)
(0.92146 -0.0156694 0)
(0.942521 0.00643836 0)
(0.969429 0.0269806 0)
(0.994137 0.0526976 0)
(1.00768 0.0703991 0)
(1.0133 0.0834437 0)
(1.0187 0.0875272 0)
(1.02828 0.0936968 0)
(1.03692 0.10091 0)
(1.04874 0.110022 0)
(1.06145 0.117242 0)
(1.07414 0.125644 0)
(1.08675 0.133243 0)
(1.09691 0.156952 0)
(1.12325 0.176385 0)
(1.15683 0.192633 0)
(1.19405 0.201022 0)
(1.23126 0.204483 0)
(1.26907 0.210399 0)
(1.3109 0.21991 0)
(1.35882 0.239346 0)
(1.42361 0.239148 0)
(1.4989 0.228844 0)
(1.56871 0.225786 0)
(1.64271 0.231722 0)
(1.72513 0.23556 0)
(1.80855 0.249853 0)
(1.89747 0.250226 0)
(1.98778 0.256757 0)
(2.07409 0.283839 0)
(2.15994 0.302713 0)
(2.24156 0.319253 0)
(2.32312 0.316684 0)
(2.39868 0.323989 0)
(2.4683 0.322475 0)
(2.53176 0.32029 0)
(2.58839 0.309219 0)
(2.63824 0.302419 0)
(2.68057 0.298356 0)
(2.71614 0.294593 0)
(2.74679 0.292891 0)
(2.77326 0.294895 0)
(2.79461 0.295526 0)
(2.81105 0.299713 0)
(2.82361 0.300112 0)
(2.83297 0.301309 0)
(2.83994 0.301402 0)
(2.84715 0.306339 0)
(2.85441 0.309663 0)
(2.85957 0.315671 0)
(2.86458 0.316562 0)
(2.86913 0.318052 0)
(2.87128 0.311927 0)
(2.87155 0.299488 0)
(2.8715 0.285292 0)
(2.87166 0.275796 0)
(2.87117 0.263302 0)
(2.87349 0.256453 0)
(2.8756 0.254127 0)
(2.87489 0.244346 0)
(2.87326 0.23603 0)
(2.86964 0.219315 0)
(2.87112 0.208268 0)
(2.87364 0.205398 0)
(2.8733 0.196538 0)
(2.87169 0.192371 0)
(2.86736 0.176439 0)
(2.86871 0.172622 0)
(2.86814 0.164536 0)
(2.86769 0.155098 0)
(2.86568 0.149603 0)
(2.86366 0.13539 0)
(2.86525 0.128086 0)
(2.86764 0.123242 0)
(2.87066 0.11631 0)
(2.87251 0.114157 0)
(2.87117 0.110822 0)
(2.8711 0.1048 0)
(2.87418 0.0947765 0)
(2.62509 -1.88547 0)
(2.62605 -1.88694 0)
(2.62806 -1.88723 0)
(2.62908 -1.88921 0)
(2.63154 -1.88942 0)
(2.63276 -1.89176 0)
(2.63569 -1.89199 0)
(2.63727 -1.89461 0)
(2.6407 -1.89482 0)
(2.6425 -1.8979 0)
(2.64653 -1.89789 0)
(2.64861 -1.90127 0)
(2.65294 -1.90147 0)
(2.65588 -1.90503 0)
(2.65883 -1.90561 0)
(2.66215 -1.9053 0)
(2.66459 -1.90753 0)
(2.66605 -1.90378 0)
(2.53167 -1.77296 0)
(2.26193 -1.49791 0)
(1.94123 -1.07603 0)
(1.69485 -0.669845 0)
(1.44467 -0.324812 0)
(1.24764 -0.0734993 0)
(1.12498 0.0575821 0)
(1.1005 0.0673258 0)
(1.0911 0.0714775 0)
(1.10712 0.077245 0)
(1.10379 0.0896131 0)
(1.09791 0.0939162 0)
(1.09456 0.0873556 0)
(1.1022 0.0800583 0)
(1.11282 0.0846785 0)
(1.11554 0.0976675 0)
(1.12402 0.107316 0)
(1.1304 0.112963 0)
(1.14005 0.117826 0)
(1.14683 0.124053 0)
(1.15424 0.129961 0)
(1.16578 0.130776 0)
(1.18165 0.132879 0)
(1.19893 0.138909 0)
(1.20843 0.16657 0)
(1.23592 0.175805 0)
(1.26515 0.181782 0)
(1.2988 0.190371 0)
(1.33832 0.20336 0)
(1.3798 0.213443 0)
(1.42672 0.235679 0)
(1.49309 0.227408 0)
(1.56805 0.212116 0)
(1.63864 0.217994 0)
(1.71379 0.223296 0)
(1.79693 0.244942 0)
(1.89211 0.239956 0)
(1.98443 0.260647 0)
(2.07556 0.287891 0)
(2.16449 0.314751 0)
(2.25505 0.324201 0)
(2.33842 0.338451 0)
(2.41564 0.345549 0)
(2.48771 0.351196 0)
(2.55409 0.349206 0)
(2.61053 0.355739 0)
(2.65853 0.35821 0)
(2.69739 0.358568 0)
(2.72899 0.35623 0)
(2.7529 0.357618 0)
(2.77348 0.351652 0)
(2.79146 0.343838 0)
(2.80598 0.334587 0)
(2.8189 0.316449 0)
(2.83218 0.298293 0)
(2.84407 0.277185 0)
(2.85218 0.261669 0)
(2.85633 0.252692 0)
(2.85839 0.250463 0)
(2.86042 0.245411 0)
(2.86378 0.245931 0)
(2.86612 0.24134 0)
(2.86605 0.230685 0)
(2.8643 0.22421 0)
(2.86251 0.204243 0)
(2.86565 0.200164 0)
(2.86953 0.195303 0)
(2.87081 0.189939 0)
(2.86877 0.185408 0)
(2.86555 0.170642 0)
(2.86716 0.168103 0)
(2.86731 0.158631 0)
(2.86635 0.151098 0)
(2.8645 0.143779 0)
(2.86241 0.130524 0)
(2.86376 0.125804 0)
(2.86701 0.119483 0)
(2.87034 0.11384 0)
(2.87213 0.111982 0)
(2.87067 0.107206 0)
(2.86975 0.100096 0)
(2.87217 0.089774 0)
(2.6447 -1.89068 0)
(2.64675 -1.89165 0)
(2.64864 -1.89318 0)
(2.65082 -1.89453 0)
(2.65295 -1.89617 0)
(2.65539 -1.89762 0)
(2.65786 -1.89931 0)
(2.66062 -1.90087 0)
(2.66343 -1.9026 0)
(2.66631 -1.90457 0)
(2.66971 -1.906 0)
(2.67271 -1.90831 0)
(2.67646 -1.90977 0)
(2.67966 -1.91239 0)
(2.68409 -1.91343 0)
(2.68753 -1.91636 0)
(2.69162 -1.91849 0)
(2.69665 -1.92083 0)
(2.69883 -1.92325 0)
(2.70242 -1.92328 0)
(2.70406 -1.92698 0)
(2.70351 -1.91877 0)
(2.62473 -1.80135 0)
(2.39111 -1.51368 0)
(2.08921 -1.07026 0)
(1.87316 -0.665821 0)
(1.65616 -0.330535 0)
(1.49782 -0.0745026 0)
(1.28678 0.0801312 0)
(1.22395 0.0777396 0)
(1.2177 0.0865796 0)
(1.24029 0.101257 0)
(1.24767 0.130379 0)
(1.22938 0.134487 0)
(1.20927 0.119972 0)
(1.20788 0.0967517 0)
(1.22131 0.0937542 0)
(1.21678 0.0989293 0)
(1.20265 0.0960452 0)
(1.20026 0.0905456 0)
(1.21154 0.0947865 0)
(1.22324 0.108268 0)
(1.22718 0.123519 0)
(1.2221 0.132696 0)
(1.22799 0.133348 0)
(1.23932 0.134532 0)
(1.25128 0.140509 0)
(1.26215 0.144641 0)
(1.27825 0.144878 0)
(1.29163 0.172039 0)
(1.32293 0.181608 0)
(1.35319 0.184793 0)
(1.38518 0.191166 0)
(1.42477 0.204246 0)
(1.4753 0.232384 0)
(1.54196 0.21486 0)
(1.61503 0.205283 0)
(1.69345 0.203118 0)
(1.77734 0.218293 0)
(1.87008 0.210954 0)
(1.96206 0.225262 0)
(2.05456 0.250091 0)
(2.14534 0.274458 0)
(2.23734 0.271493 0)
(2.32239 0.281933 0)
(2.40202 0.277182 0)
(2.47589 0.273042 0)
(2.54096 0.263946 0)
(2.59644 0.262579 0)
(2.64337 0.255282 0)
(2.684 0.252824 0)
(2.71791 0.254916 0)
(2.74517 0.263247 0)
(2.76795 0.274624 0)
(2.78701 0.284018 0)
(2.80168 0.286599 0)
(2.81134 0.285904 0)
(2.82007 0.273185 0)
(2.82789 0.259084 0)
(2.83437 0.242457 0)
(2.83999 0.227929 0)
(2.8453 0.215608 0)
(2.84892 0.194186 0)
(2.8553 0.193748 0)
(2.85902 0.191614 0)
(2.86134 0.181186 0)
(2.86115 0.175495 0)
(2.86048 0.168213 0)
(2.86158 0.164529 0)
(2.86216 0.149775 0)
(2.86279 0.143181 0)
(2.86099 0.133882 0)
(2.85982 0.123825 0)
(2.86208 0.122537 0)
(2.86592 0.120837 0)
(2.86927 0.117833 0)
(2.87068 0.112633 0)
(2.86956 0.101709 0)
(2.86798 0.0943465 0)
(2.8713 0.0832063 0)
(2.663 -1.90708 0)
(2.66528 -1.90804 0)
(2.66735 -1.90972 0)
(2.67001 -1.91084 0)
(2.67214 -1.91291 0)
(2.67498 -1.91408 0)
(2.67748 -1.91592 0)
(2.68045 -1.91723 0)
(2.6833 -1.91891 0)
(2.68629 -1.9207 0)
(2.68977 -1.92189 0)
(2.6927 -1.92418 0)
(2.69649 -1.92536 0)
(2.69945 -1.92813 0)
(2.70378 -1.92904 0)
(2.7066 -1.9325 0)
(2.71143 -1.93313 0)
(2.71408 -1.93721 0)
(2.71941 -1.93732 0)
(2.72228 -1.9412 0)
(2.72723 -1.94203 0)
(2.731 -1.94652 0)
(2.73411 -1.94739 0)
(2.73783 -1.94719 0)
(2.73953 -1.95103 0)
(2.73903 -1.9422 0)
(2.67374 -1.81909 0)
(2.49954 -1.53468 0)
(2.19736 -1.08635 0)
(1.9738 -0.673657 0)
(1.77009 -0.327665 0)
(1.65785 -0.0853102 0)
(1.50203 0.0884804 0)
(1.37119 0.116311 0)
(1.33533 0.118595 0)
(1.35987 0.12222 0)
(1.38356 0.143748 0)
(1.38025 0.167977 0)
(1.33425 0.155256 0)
(1.32588 0.129205 0)
(1.34039 0.127557 0)
(1.34352 0.141256 0)
(1.30701 0.141295 0)
(1.2803 0.126479 0)
(1.28116 0.112547 0)
(1.28989 0.11522 0)
(1.2894 0.11562 0)
(1.28561 0.115651 0)
(1.29039 0.120785 0)
(1.30579 0.129521 0)
(1.30537 0.137423 0)
(1.30846 0.141465 0)
(1.31657 0.14261 0)
(1.33154 0.147419 0)
(1.34983 0.151 0)
(1.36398 0.175282 0)
(1.3961 0.182671 0)
(1.43434 0.191866 0)
(1.47469 0.200475 0)
(1.5229 0.219516 0)
(1.58528 0.203295 0)
(1.65392 0.195964 0)
(1.72342 0.198531 0)
(1.79982 0.21843 0)
(1.88783 0.210445 0)
(1.97678 0.230919 0)
(2.06906 0.258961 0)
(2.1597 0.282876 0)
(2.25075 0.279627 0)
(2.33256 0.2953 0)
(2.41086 0.297063 0)
(2.47971 0.288755 0)
(2.5368 0.277228 0)
(2.58473 0.26364 0)
(2.62699 0.245322 0)
(2.66568 0.229541 0)
(2.69964 0.214505 0)
(2.72923 0.201005 0)
(2.75303 0.193151 0)
(2.77193 0.188612 0)
(2.78572 0.188422 0)
(2.79593 0.194075 0)
(2.80766 0.204559 0)
(2.81776 0.204699 0)
(2.82561 0.184492 0)
(2.8335 0.173617 0)
(2.83762 0.182186 0)
(2.84042 0.18079 0)
(2.84258 0.172717 0)
(2.84531 0.152855 0)
(2.8501 0.139464 0)
(2.85049 0.130774 0)
(2.85132 0.128629 0)
(2.85404 0.129032 0)
(2.85875 0.127381 0)
(2.86201 0.125004 0)
(2.86382 0.117168 0)
(2.8629 0.0978254 0)
(2.86213 0.0849964 0)
(2.86683 0.0719146 0)
(2.68978 -1.91542 0)
(2.69214 -1.91628 0)
(2.69408 -1.91806 0)
(2.69686 -1.91876 0)
(2.69886 -1.92078 0)
(2.70178 -1.92159 0)
(2.70388 -1.92378 0)
(2.70701 -1.92457 0)
(2.70914 -1.92704 0)
(2.71257 -1.92767 0)
(2.71486 -1.93027 0)
(2.71858 -1.93087 0)
(2.72099 -1.93368 0)
(2.72482 -1.93452 0)
(2.72754 -1.93718 0)
(2.73132 -1.93845 0)
(2.73426 -1.94116 0)
(2.73769 -1.94339 0)
(2.74127 -1.94552 0)
(2.74416 -1.94858 0)
(2.74857 -1.94948 0)
(2.75059 -1.95371 0)
(2.75557 -1.9541 0)
(2.75714 -1.9594 0)
(2.76184 -1.96044 0)
(2.76493 -1.96552 0)
(2.76737 -1.96725 0)
(2.77023 -1.96814 0)
(2.77187 -1.97199 0)
(2.77181 -1.96562 0)
(2.70618 -1.82615 0)
(2.56025 -1.54354 0)
(2.33182 -1.11929 0)
(2.11248 -0.703959 0)
(1.8916 -0.334466 0)
(1.78443 -0.076425 0)
(1.6433 0.102685 0)
(1.55755 0.137326 0)
(1.45939 0.147451 0)
(1.47148 0.152936 0)
(1.50994 0.16354 0)
(1.53756 0.183108 0)
(1.47769 0.169276 0)
(1.44035 0.140056 0)
(1.44259 0.116043 0)
(1.45793 0.129118 0)
(1.43382 0.144234 0)
(1.39818 0.152916 0)
(1.38118 0.144811 0)
(1.38117 0.137383 0)
(1.3637 0.132995 0)
(1.35266 0.124572 0)
(1.35075 0.114419 0)
(1.35965 0.117689 0)
(1.36338 0.130143 0)
(1.37132 0.140938 0)
(1.37737 0.143795 0)
(1.39346 0.146922 0)
(1.40763 0.152683 0)
(1.42791 0.152008 0)
(1.44657 0.172923 0)
(1.47532 0.180366 0)
(1.50257 0.184256 0)
(1.53488 0.188311 0)
(1.57566 0.209127 0)
(1.63389 0.192012 0)
(1.70006 0.184081 0)
(1.77087 0.182975 0)
(1.8505 0.199345 0)
(1.94074 0.185182 0)
(2.02372 0.20864 0)
(2.10643 0.223448 0)
(2.18755 0.224667 0)
(2.26297 0.228331 0)
(2.33302 0.227523 0)
(2.40091 0.227154 0)
(2.46308 0.225688 0)
(2.5186 0.223832 0)
(2.56744 0.229162 0)
(2.61072 0.223443 0)
(2.64446 0.225664 0)
(2.67148 0.216814 0)
(2.69733 0.190934 0)
(2.72117 0.174706 0)
(2.74323 0.171007 0)
(2.761 0.183824 0)
(2.77392 0.170893 0)
(2.78674 0.146697 0)
(2.79967 0.132083 0)
(2.80607 0.143552 0)
(2.81322 0.156084 0)
(2.81751 0.153337 0)
(2.82021 0.141032 0)
(2.82493 0.122508 0)
(2.83367 0.114199 0)
(2.83985 0.112342 0)
(2.84408 0.110963 0)
(2.84572 0.106512 0)
(2.84624 0.0927959 0)
(2.85133 0.0786634 0)
(2.7104 -1.93371 0)
(2.7123 -1.93493 0)
(2.71442 -1.93606 0)
(2.71653 -1.93735 0)
(2.71883 -1.93851 0)
(2.7211 -1.93983 0)
(2.72349 -1.94111 0)
(2.72599 -1.9423 0)
(2.72836 -1.94382 0)
(2.73101 -1.94504 0)
(2.73345 -1.94676 0)
(2.73625 -1.94814 0)
(2.73868 -1.95033 0)
(2.74194 -1.95144 0)
(2.74419 -1.9541 0)
(2.74786 -1.95479 0)
(2.74979 -1.95809 0)
(2.75372 -1.95873 0)
(2.75566 -1.96227 0)
(2.75965 -1.96293 0)
(2.76171 -1.96622 0)
(2.7653 -1.96755 0)
(2.76832 -1.9697 0)
(2.77116 -1.97248 0)
(2.7752 -1.97365 0)
(2.77757 -1.97751 0)
(2.7828 -1.97723 0)
(2.78448 -1.9822 0)
(2.78973 -1.98165 0)
(2.79207 -1.98824 0)
(2.79673 -1.98536 0)
(2.79936 -1.98712 0)
(2.80447 -1.98562 0)
(2.80552 -1.98875 0)
(2.7457 -1.84265 0)
(2.60257 -1.5275 0)
(2.39425 -1.08115 0)
(2.22183 -0.701091 0)
(2.00611 -0.326373 0)
(1.88098 -0.0566486 0)
(1.74847 0.121058 0)
(1.69314 0.14503 0)
(1.61436 0.151001 0)
(1.57321 0.176589 0)
(1.5963 0.191614 0)
(1.6403 0.192038 0)
(1.62068 0.171174 0)
(1.57479 0.146235 0)
(1.55488 0.127327 0)
(1.55738 0.125774 0)
(1.52472 0.130554 0)
(1.49244 0.140827 0)
(1.47519 0.14464 0)
(1.47022 0.158468 0)
(1.4469 0.159073 0)
(1.42795 0.143251 0)
(1.42443 0.126859 0)
(1.43375 0.126121 0)
(1.43537 0.12485 0)
(1.44223 0.129203 0)
(1.45727 0.141051 0)
(1.46159 0.147787 0)
(1.46586 0.149575 0)
(1.47397 0.15301 0)
(1.48957 0.152788 0)
(1.5059 0.174226 0)
(1.53237 0.179639 0)
(1.5633 0.179677 0)
(1.60319 0.183595 0)
(1.65175 0.203294 0)
(1.70535 0.176913 0)
(1.76182 0.169004 0)
(1.82583 0.171631 0)
(1.89648 0.163798 0)
(1.96748 0.174332 0)
(2.04147 0.200841 0)
(2.11565 0.203147 0)
(2.18635 0.193482 0)
(2.25451 0.184141 0)
(2.31983 0.182116 0)
(2.3812 0.172032 0)
(2.43718 0.163261 0)
(2.48566 0.161786 0)
(2.52867 0.154491 0)
(2.56899 0.148557 0)
(2.60653 0.145586 0)
(2.63897 0.140848 0)
(2.66686 0.147816 0)
(2.69084 0.155816 0)
(2.709 0.149223 0)
(2.72538 0.13792 0)
(2.73907 0.120899 0)
(2.7504 0.108823 0)
(2.76238 0.0974183 0)
(2.77665 0.0882419 0)
(2.7889 0.0838712 0)
(2.79845 0.0878835 0)
(2.80297 0.0999276 0)
(2.8067 0.108356 0)
(2.81018 0.0971929 0)
(2.73687 -1.94096 0)
(2.73851 -1.94221 0)
(2.74057 -1.94301 0)
(2.74224 -1.94449 0)
(2.74445 -1.94524 0)
(2.74619 -1.9468 0)
(2.74848 -1.94762 0)
(2.75033 -1.94922 0)
(2.75286 -1.94988 0)
(2.75461 -1.95182 0)
(2.75747 -1.95225 0)
(2.75914 -1.95455 0)
(2.76197 -1.9554 0)
(2.76401 -1.95755 0)
(2.76673 -1.9588 0)
(2.769 -1.96073 0)
(2.77165 -1.96215 0)
(2.77414 -1.96394 0)
(2.77655 -1.96605 0)
(2.77956 -1.96747 0)
(2.78163 -1.97032 0)
(2.78518 -1.97106 0)
(2.7869 -1.97442 0)
(2.79063 -1.97505 0)
(2.79227 -1.97902 0)
(2.79665 -1.97898 0)
(2.79849 -1.98269 0)
(2.803 -1.98226 0)
(2.80448 -1.98639 0)
(2.8084 -1.98719 0)
(2.81222 -1.98882 0)
(2.81586 -1.99098 0)
(2.82082 -1.99106 0)
(2.82307 -1.99552 0)
(2.82599 -1.99525 0)
(2.82724 -1.9972 0)
(2.83024 -1.99683 0)
(2.83028 -1.99853 0)
(2.77129 -1.83971 0)
(2.62175 -1.47829 0)
(2.41133 -1.00189 0)
(2.23763 -0.619205 0)
(2.09435 -0.29296 0)
(1.924 -0.0144296 0)
(1.81226 0.132661 0)
(1.75953 0.179937 0)
(1.72947 0.17356 0)
(1.69534 0.188122 0)
(1.69639 0.206312 0)
(1.71568 0.199714 0)
(1.69789 0.177391 0)
(1.67023 0.146787 0)
(1.65469 0.137641 0)
(1.64538 0.141482 0)
(1.61442 0.139149 0)
(1.57746 0.137562 0)
(1.56449 0.143675 0)
(1.55985 0.152672 0)
(1.54028 0.158825 0)
(1.52016 0.159656 0)
(1.51205 0.146556 0)
(1.50338 0.137092 0)
(1.49844 0.131185 0)
(1.49687 0.128646 0)
(1.50061 0.132026 0)
(1.51353 0.144216 0)
(1.51676 0.148575 0)
(1.52586 0.145435 0)
(1.54308 0.148511 0)
(1.56418 0.14611 0)
(1.57639 0.15732 0)
(1.59652 0.155512 0)
(1.62373 0.160065 0)
(1.65799 0.1725 0)
(1.70199 0.162724 0)
(1.75396 0.147666 0)
(1.8059 0.134926 0)
(1.86036 0.131938 0)
(1.91857 0.127945 0)
(1.98045 0.144993 0)
(2.04517 0.177538 0)
(2.11435 0.176606 0)
(2.17768 0.16636 0)
(2.23488 0.16104 0)
(2.29107 0.156741 0)
(2.34823 0.159675 0)
(2.40154 0.154296 0)
(2.44891 0.145454 0)
(2.49004 0.121663 0)
(2.52843 0.117622 0)
(2.56206 0.122314 0)
(2.58915 0.120782 0)
(2.61208 0.119974 0)
(2.63465 0.117049 0)
(2.6583 0.118166 0)
(2.67947 0.117653 0)
(2.69686 0.109706 0)
(2.71147 0.0970068 0)
(2.71868 0.0833361 0)
(2.72739 0.0712175 0)
(2.75451 -1.95819 0)
(2.75611 -1.95905 0)
(2.75775 -1.95999 0)
(2.75941 -1.96095 0)
(2.76117 -1.96181 0)
(2.76276 -1.96299 0)
(2.76476 -1.96364 0)
(2.76625 -1.96512 0)
(2.76853 -1.96555 0)
(2.76996 -1.96737 0)
(2.77239 -1.96793 0)
(2.77404 -1.96975 0)
(2.77638 -1.97071 0)
(2.77832 -1.9723 0)
(2.78062 -1.97345 0)
(2.78245 -1.97537 0)
(2.78507 -1.97619 0)
(2.78697 -1.97812 0)
(2.78981 -1.97884 0)
(2.79162 -1.98127 0)
(2.7947 -1.98206 0)
(2.79652 -1.98466 0)
(2.79987 -1.98497 0)
(2.80193 -1.98708 0)
(2.80455 -1.98876 0)
(2.80733 -1.9903 0)
(2.81019 -1.9918 0)
(2.81322 -1.99275 0)
(2.81583 -1.99453 0)
(2.81883 -1.99605 0)
(2.82233 -1.99714 0)
(2.82605 -1.99775 0)
(2.82902 -1.99936 0)
(2.83257 -1.99973 0)
(2.83477 -2.00197 0)
(2.83819 -2.00193 0)
(2.83966 -2.00424 0)
(2.84188 -2.00568 0)
(2.84361 -2.00563 0)
(2.84648 -2.00389 0)
(2.84639 -2.00892 0)
(2.83973 -1.97667 0)
(2.7679 -1.78554 0)
(2.59227 -1.34351 0)
(2.41115 -0.888933 0)
(2.19854 -0.459857 0)
(2.08386 -0.160147 0)
(1.94168 0.0535786 0)
(1.85557 0.158195 0)
(1.8113 0.189576 0)
(1.79713 0.18662 0)
(1.7889 0.193811 0)
(1.79736 0.204731 0)
(1.79722 0.190878 0)
(1.77982 0.170207 0)
(1.75043 0.159341 0)
(1.73847 0.155876 0)
(1.72817 0.155524 0)
(1.70029 0.157363 0)
(1.67534 0.154619 0)
(1.65463 0.148378 0)
(1.63241 0.145373 0)
(1.61174 0.146478 0)
(1.59274 0.154783 0)
(1.57219 0.155448 0)
(1.56252 0.14368 0)
(1.55382 0.132043 0)
(1.55484 0.124945 0)
(1.56135 0.124992 0)
(1.56846 0.127829 0)
(1.57226 0.135364 0)
(1.57245 0.132838 0)
(1.58245 0.133472 0)
(1.59806 0.13075 0)
(1.61208 0.149159 0)
(1.63279 0.153041 0)
(1.65291 0.146619 0)
(1.67884 0.143805 0)
(1.70912 0.150325 0)
(1.74545 0.130984 0)
(1.79106 0.119202 0)
(1.83849 0.116455 0)
(1.8887 0.106222 0)
(1.93995 0.0967607 0)
(1.99263 0.105902 0)
(2.04973 0.115367 0)
(2.10584 0.122653 0)
(2.16245 0.129309 0)
(2.21562 0.137607 0)
(2.26845 0.137076 0)
(2.31786 0.131034 0)
(2.35779 0.12948 0)
(2.39304 0.113644 0)
(2.42653 0.0906869 0)
(2.46171 0.0829679 0)
(2.49508 0.0862656 0)
(2.52523 0.0933714 0)
(2.55392 0.102071 0)
(2.56768 0.0961977 0)
(2.58391 0.0842935 0)
(2.77666 -1.96398 0)
(2.77805 -1.96464 0)
(2.77926 -1.96569 0)
(2.78077 -1.96641 0)
(2.78211 -1.96744 0)
(2.78362 -1.9683 0)
(2.78521 -1.96913 0)
(2.7867 -1.9702 0)
(2.78846 -1.97096 0)
(2.79015 -1.97198 0)
(2.79192 -1.9731 0)
(2.79391 -1.97409 0)
(2.7955 -1.97575 0)
(2.79779 -1.97637 0)
(2.79932 -1.97806 0)
(2.80147 -1.97888 0)
(2.80326 -1.98032 0)
(2.80548 -1.98115 0)
(2.80744 -1.98249 0)
(2.8094 -1.98404 0)
(2.81177 -1.98511 0)
(2.81364 -1.98693 0)
(2.81602 -1.98796 0)
(2.81842 -1.98888 0)
(2.82078 -1.98994 0)
(2.82292 -1.99154 0)
(2.82578 -1.99204 0)
(2.82785 -1.99371 0)
(2.83067 -1.99416 0)
(2.83247 -1.99676 0)
(2.83608 -1.99628 0)
(2.83842 -1.99778 0)
(2.84155 -1.99784 0)
(2.84318 -1.9998 0)
(2.84577 -2.00014 0)
(2.84698 -2.00217 0)
(2.84932 -2.00239 0)
(2.84954 -2.00536 0)
(2.85296 -2.0038 0)
(2.85239 -2.00797 0)
(2.85632 -2.00523 0)
(2.85623 -2.01315 0)
(2.85771 -2.01123 0)
(2.86058 -2.00789 0)
(2.86072 -2.01002 0)
(2.82729 -1.91554 0)
(2.70095 -1.59198 0)
(2.49122 -1.05827 0)
(2.33772 -0.61724 0)
(2.16774 -0.24865 0)
(2.05948 -0.0185368 0)
(1.95619 0.111463 0)
(1.89473 0.18775 0)
(1.87287 0.190722 0)
(1.85846 0.206165 0)
(1.86677 0.204125 0)
(1.87253 0.190603 0)
(1.87062 0.176424 0)
(1.8489 0.15828 0)
(1.83499 0.160992 0)
(1.81587 0.1649 0)
(1.78741 0.167678 0)
(1.76385 0.165896 0)
(1.74178 0.161402 0)
(1.71769 0.145926 0)
(1.69423 0.130393 0)
(1.6725 0.133993 0)
(1.65662 0.142468 0)
(1.63887 0.153667 0)
(1.62266 0.146217 0)
(1.6081 0.130933 0)
(1.60143 0.115951 0)
(1.603 0.112612 0)
(1.60795 0.112017 0)
(1.61984 0.124149 0)
(1.624 0.125122 0)
(1.62747 0.118418 0)
(1.63858 0.117292 0)
(1.65418 0.111969 0)
(1.66286 0.130847 0)
(1.68543 0.132962 0)
(1.70723 0.134091 0)
(1.73145 0.13168 0)
(1.7621 0.12656 0)
(1.79434 0.108325 0)
(1.83184 0.0937014 0)
(1.87285 0.0847697 0)
(1.9184 0.0831153 0)
(1.96492 0.0898631 0)
(2.0102 0.0973255 0)
(2.05781 0.0915836 0)
(2.10247 0.0869347 0)
(2.14039 0.104805 0)
(2.17927 0.111716 0)
(2.22065 0.112707 0)
(2.26183 0.101304 0)
(2.30095 0.0842722 0)
(2.33927 0.080603 0)
(2.36018 0.0816939 0)
(2.38617 0.0703326 0)
(2.78887 -1.98053 0)
(2.78984 -1.98131 0)
(2.79115 -1.98175 0)
(2.79224 -1.98263 0)
(2.79359 -1.98321 0)
(2.79501 -1.9838 0)
(2.7965 -1.9844 0)
(2.79787 -1.98531 0)
(2.79928 -1.98642 0)
(2.8012 -1.98688 0)
(2.80301 -1.98766 0)
(2.80528 -1.98778 0)
(2.80694 -1.98893 0)
(2.80913 -1.98922 0)
(2.81053 -1.99068 0)
(2.81266 -1.99099 0)
(2.81415 -1.99237 0)
(2.81648 -1.99243 0)
(2.81819 -1.99347 0)
(2.82019 -1.99413 0)
(2.82196 -1.99522 0)
(2.82417 -1.99572 0)
(2.82566 -1.99739 0)
(2.82826 -1.99731 0)
(2.82991 -1.99876 0)
(2.83224 -1.99922 0)
(2.834 -2.00064 0)
(2.8369 -2.00027 0)
(2.83815 -2.00226 0)
(2.84068 -2.00243 0)
(2.84213 -2.00433 0)
(2.84514 -2.00353 0)
(2.84634 -2.00505 0)
(2.84854 -2.0048 0)
(2.84925 -2.00679 0)
(2.85258 -2.00473 0)
(2.85241 -2.00773 0)
(2.85511 -2.00637 0)
(2.85577 -2.00836 0)
(2.85876 -2.00655 0)
(2.86066 -2.00657 0)
(2.86265 -2.00615 0)
(2.86473 -2.00564 0)
(2.86635 -2.00521 0)
(2.86828 -2.00446 0)
(2.86839 -2.0065 0)
(2.87077 -2.00416 0)
(2.87148 -2.00605 0)
(2.86695 -1.97705 0)
(2.76898 -1.73774 0)
(2.58679 -1.23964 0)
(2.42522 -0.768451 0)
(2.20222 -0.3034 0)
(2.12683 -0.0541267 0)
(1.99525 0.119206 0)
(1.96459 0.158917 0)
(1.94171 0.180204 0)
(1.92625 0.206037 0)
(1.93177 0.200256 0)
(1.94022 0.197227 0)
(1.93459 0.186443 0)
(1.9145 0.16199 0)
(1.89562 0.149782 0)
(1.88002 0.154203 0)
(1.86067 0.164442 0)
(1.83906 0.168285 0)
(1.81656 0.163979 0)
(1.7982 0.151816 0)
(1.77234 0.13796 0)
(1.74473 0.123241 0)
(1.71731 0.123991 0)
(1.69747 0.134835 0)
(1.67778 0.142371 0)
(1.66486 0.137054 0)
(1.65785 0.121461 0)
(1.65108 0.104851 0)
(1.6486 0.0926581 0)
(1.65212 0.0923795 0)
(1.65918 0.0938804 0)
(1.6675 0.105299 0)
(1.67453 0.107682 0)
(1.6847 0.104789 0)
(1.69588 0.101411 0)
(1.71288 0.0950899 0)
(1.7247 0.109125 0)
(1.74366 0.117851 0)
(1.76728 0.11715 0)
(1.79408 0.10748 0)
(1.82334 0.0963557 0)
(1.85072 0.101753 0)
(1.88141 0.10301 0)
(1.91779 0.0881083 0)
(1.95062 0.0597082 0)
(1.98507 0.0617285 0)
(2.02002 0.0717225 0)
(2.05373 0.0903449 0)
(2.08872 0.0992347 0)
(2.12574 0.0932695 0)
(2.14968 0.0769189 0)
(2.18438 0.0703656 0)
(2.80688 -1.98526 0)