/*--------------------------------*- C++ -*----------------------------------*\
  =========                 |
  \\      /  F ield         | OpenFOAM: The Open Source CFD Toolbox
   \\    /   O peration     | Website:  https://openfoam.org
    \\  /    A nd           | Version:  7
     \\/     M anipulation  |
\*---------------------------------------------------------------------------*/
FoamFile
{
    version     2.0;
    format      ascii;
    class       volScalarField;
    location    "8.5";
    object      rho;
}
// * * * * * * * * * * * * * * * * * * * * * * * * * * * * * * * * * * * * * //

dimensions      [1 -3 0 0 0 0 0];

internalField   nonuniform List<scalar> 
90000
(
0.750807
0.782125
0.81639
0.851309
0.885538
0.919763
0.953863
0.987739
1.02081
1.05312
1.08448
1.114
1.14238
1.1684
1.1933
1.21513
1.23598
1.25348
1.27051
1.28425
1.29799
1.30791
1.31832
1.32528
1.3321
1.33715
1.3414
1.34417
1.34737
1.34849
1.34917
1.34866
1.34742
1.34496
1.34106
1.33602
1.3294
1.32856
1.3303
1.33349
1.33736
1.3411
1.34469
1.34776
1.35017
1.35195
1.35282
1.35122
1.34729
1.34379
1.34124
1.34127
1.34181
1.34346
1.34714
1.35081
1.3542
1.35394
1.35225
1.34876
1.34638
1.34666
1.34732
1.34984
1.35234
1.3541
1.35346
1.35129
1.35033
1.35082
1.3513
1.35237
1.35328
1.35249
1.35145
1.35126
1.35193
1.35298
1.35324
1.35316
1.35326
1.35377
1.35429
1.35435
1.35431
1.35435
1.35467
1.35494
1.35489
1.3545
1.35444
1.35455
1.35488
1.35552
1.35619
1.35661
1.35678
1.35675
1.35657
1.35625
0.726286
0.726389
0.726676
0.727352
0.728521
0.730503
0.73345
0.737939
0.743933
0.752309
0.762796
0.776552
0.792747
0.812862
0.835467
0.862272
0.891184
0.923878
0.957945
0.994535
1.03131
1.06873
1.105
1.13959
1.17293
1.20124
1.22906
1.25009
1.27056
1.28425
1.29802
1.30555
1.31276
1.31613
1.31941
1.32134
1.32749
1.33429
1.34078
1.34627
1.35026
1.35244
1.35359
1.35312
1.35278
1.35159
1.34694
1.34221
1.33848
1.33876
1.33997
1.34217
1.34645
1.35082
1.35566
1.35512
1.35364
1.35027
1.3461
1.34391
1.34449
1.34658
1.35075
1.35514
1.35468
1.35342
1.35061
1.34905
1.34945
1.351
1.35337
1.35367
1.35281
1.35077
1.3505
1.35096
1.35216
1.35309
1.35286
1.35282
1.35301
1.3537
1.35418
1.35387
1.3539
1.3541
1.35448
1.35464
1.35436
1.35406
1.35414
1.35435
1.35477
1.35544
1.35607
1.35635
1.35646
1.35636
1.35612
1.35587
0.72708
0.727121
0.727163
0.727205
0.727249
0.727294
0.727346
0.72741
0.727487
0.727592
0.727739
0.727963
0.728349
0.729003
0.729986
0.731509
0.733692
0.737108
0.741872
0.74913
0.758747
0.772607
0.789821
0.81307
0.840131
0.874364
0.911791
0.955706
1.00106
1.04968
1.09795
1.14401
1.18891
1.22686
1.26454
1.2932
1.31864
1.33044
1.33988
1.34308
1.34703
1.34916
1.35097
1.3506
1.3482
1.34171
1.33499
1.33648
1.34054
1.34555
1.35153
1.35626
1.36011
1.35984
1.35867
1.35381
1.34741
1.34474
1.3442
1.34516
1.35017
1.35557
1.35839
1.35763
1.35489
1.35147
1.34971
1.35008
1.35265
1.35554
1.3563
1.35499
1.35236
1.35101
1.35131
1.35302
1.35442
1.35404
1.35329
1.35336
1.35417
1.3549
1.35462
1.35422
1.35432
1.35487
1.35516
1.35497
1.35459
1.3544
1.35452
1.35488
1.35542
1.35607
1.3565
1.35663
1.35671
1.35657
1.35624
1.35606
0.728518
0.728565
0.728617
0.728661
0.728706
0.728754
0.728807
0.728864
0.728924
0.72899
0.729062
0.729155
0.729209
0.729264
0.72932
0.729379
0.729445
0.729522
0.729615
0.729736
0.729905
0.730165
0.73058
0.731406
0.732722
0.735015
0.738574
0.744796
0.753861
0.768723
0.788523
0.817945
0.853232
0.900019
0.95162
1.01143
1.07183
1.12893
1.18328
1.22368
1.26092
1.28317
1.30321
1.31388
1.32249
1.32592
1.33732
1.34793
1.35982
1.36753
1.37139
1.37075
1.3693
1.36593
1.35471
1.34677
1.34478
1.34558
1.34976
1.35694
1.36418
1.36474
1.36315
1.35754
1.35345
1.35156
1.35264
1.35679
1.36103
1.36048
1.35853
1.35557
1.35307
1.35384
1.35587
1.3573
1.35653
1.35515
1.35514
1.35625
1.35733
1.35691
1.35574
1.35577
1.35643
1.35698
1.35672
1.35602
1.35565
1.35584
1.35611
1.35637
1.35685
1.35734
1.35755
1.35769
1.35764
1.35732
1.35691
1.35684
0.729976
0.730014
0.730053
0.730094
0.730135
0.730179
0.730223
0.730268
0.730314
0.73036
0.730405
0.730449
0.730495
0.730537
0.730574
0.730613
0.730656
0.730705
0.730758
0.730817
0.730886
0.730962
0.731076
0.731115
0.731148
0.731182
0.731226
0.731295
0.731412
0.731635
0.732049
0.732997
0.734771
0.73853
0.744935
0.757495
0.77631
0.80819
0.849106
0.906259
0.969522
1.04115
1.11235
1.17694
1.23846
1.28511
1.32519
1.34051
1.35267
1.35938
1.36461
1.36411
1.36104
1.35173
1.34558
1.34799
1.35275
1.36113
1.36757
1.37146
1.36906
1.36595
1.35897
1.35564
1.35378
1.35619
1.3622
1.36586
1.3646
1.36285
1.3596
1.35711
1.35808
1.36056
1.3615
1.36069
1.35889
1.35839
1.35944
1.36067
1.36052
1.35947
1.35875
1.35919
1.35977
1.35974
1.3592
1.35848
1.35847
1.35856
1.35867
1.35895
1.35956
1.35995
1.35997
1.35983
1.35954
1.35917
1.35887
1.35864
0.731091
0.731113
0.731135
0.731157
0.73118
0.731205
0.73123
0.731256
0.731281
0.731306
0.731329
0.731353
0.731378
0.731405
0.731432
0.731457
0.731481
0.731505
0.731527
0.731552
0.731576
0.731599
0.731617
0.731631
0.731648
0.73167
0.731695
0.731724
0.731757
0.7318
0.731897
0.731897
0.731905
0.73192
0.731956
0.732068
0.732348
0.733152
0.734972
0.739521
0.748259
0.766622
0.795353
0.842234
0.901926
0.979212
1.06071
1.13604
1.20375
1.24937
1.28905
1.3088
1.32601
1.33362
1.34895
1.36316
1.37703
1.38248
1.38149
1.37931
1.37042
1.35825
1.35431
1.35525
1.3603
1.36735
1.37256
1.37125
1.36684
1.36087
1.35958
1.3611
1.36452
1.36626
1.36471
1.36218
1.36137
1.3621
1.3642
1.36469
1.36358
1.36178
1.36175
1.36266
1.36307
1.36273
1.36173
1.36121
1.36126
1.36138
1.36156
1.36202
1.36264
1.36263
1.36247
1.36216
1.36184
1.36138
1.36098
1.36081
0.731763
0.731771
0.731779
0.731787
0.731797
0.731808
0.731819
0.731829
0.731838
0.731845
0.731852
0.73186
0.731868
0.731879
0.731888
0.731896
0.731904
0.731909
0.731914
0.731922
0.731932
0.731942
0.731951
0.73196
0.731969
0.73198
0.731988
0.731994
0.731997
0.732005
0.732012
0.732027
0.732043
0.732061
0.73208
0.732107
0.732165
0.732183
0.732206
0.732246
0.732326
0.732562
0.733213
0.735143
0.739653
0.751476
0.772678
0.816016
0.873709
0.955466
1.04519
1.13396
1.21755
1.28649
1.33508
1.35281
1.36731
1.3735
1.37325
1.36527
1.34772
1.35087
1.3575
1.36592
1.37353
1.37406
1.37242
1.36584
1.35966
1.35982
1.36244
1.36739
1.3691
1.36842
1.36603
1.36289
1.36346
1.36593
1.36673
1.36571
1.36419
1.36368
1.36463
1.36536
1.36497
1.36404
1.36355
1.36343
1.36353
1.36369
1.36392
1.3644
1.3648
1.36484
1.3647
1.36425
1.36373
1.36338
1.3631
1.36296
0.73203
0.732032
0.732033
0.732035
0.732037
0.732041
0.732044
0.732047
0.732049
0.732051
0.732053
0.732055
0.732056
0.732056
0.732057
0.732057
0.732056
0.732056
0.732055
0.732052
0.732049
0.732048
0.732048
0.732049
0.732052
0.732054
0.732056
0.732057
0.73206
0.732066
0.732075
0.732084
0.732094
0.732104
0.732115
0.732128
0.732142
0.732164
0.732194
0.73223
0.73227
0.732291
0.732314
0.732346
0.732389
0.732485
0.732792
0.734
0.737324
0.747543
0.768246
0.812519
0.8776
0.970787
1.07109
1.15962
1.23904
1.27745
1.31586
1.32504
1.33929
1.3675
1.37739
1.38196
1.38139
1.37747
1.36377
1.35569
1.35671
1.36277
1.37014
1.37216
1.37101
1.36624
1.36373
1.36426
1.3671
1.36956
1.36855
1.3658
1.36408
1.36495
1.36696
1.36679
1.36593
1.36437
1.3644
1.36472
1.36481
1.36492
1.3653
1.36614
1.36616
1.36603
1.36576
1.36537
1.36488
1.36444
1.36425
1.36426
0.732123
0.732125
0.732128
0.732132
0.732133
0.732134
0.732134
0.732135
0.732135
0.732135
0.732134
0.732138
0.732137
0.732131
0.732128
0.732125
0.732121
0.732122
0.732118
0.732104
0.732092
0.732083
0.732078
0.732073
0.732067
0.732061
0.732057
0.732055
0.732054
0.732056
0.732063
0.732071
0.732082
0.732098
0.732113
0.732127
0.732144
0.732168
0.732196
0.732224
0.73225
0.732276
0.732301
0.732324
0.732345
0.732379
0.732386
0.732379
0.732365
0.732412
0.732675
0.733904
0.737842
0.750393
0.779233
0.837953
0.921673
1.0325
1.14302
1.23908
1.31422
1.35721
1.36787
1.37304
1.37137
1.35692
1.35076
1.35543
1.36486
1.37358
1.37292
1.37091
1.36557
1.36133
1.3626
1.36803
1.37079
1.36992
1.36611
1.36349
1.36423
1.36731
1.36784
1.36688
1.36494
1.36431
1.36484
1.36515
1.36527
1.36544
1.36597
1.36649
1.36666
1.36652
1.36618
1.36567
1.36519
1.36502
1.36487
1.36492
0.732244
0.732245
0.732246
0.732246
0.732246
0.732246
0.732246
0.732245
0.732245
0.732245
0.732242
0.732242
0.732243
0.732235
0.732227
0.732224
0.732221
0.732214
0.732206
0.732198
0.732187
0.732175
0.73217
0.732167
0.732163
0.732156
0.732144
0.732138
0.732135
0.732132
0.732131
0.73213
0.732135
0.732148
0.732161
0.732171
0.732186
0.732207
0.73223
0.73225
0.732264
0.732273
0.732283
0.732297
0.732312
0.732329
0.732347
0.732356
0.732357
0.732332
0.732276
0.732212
0.732212
0.732306
0.732822
0.735113
0.742689
0.767237
0.81436
0.905653
1.01799
1.13581
1.22631
1.27764
1.31335
1.32759
1.35534
1.3716
1.38256
1.38103
1.37403
1.35951
1.35874
1.36065
1.3676
1.37362
1.37227
1.366
1.36229
1.36304
1.36705
1.36944
1.36823
1.36475
1.36396
1.36458
1.36541
1.36523
1.36525
1.36568
1.36657
1.36664
1.36658
1.36637
1.36618
1.36576
1.36508
1.365
1.36501
1.36508
0.732323
0.732325
0.732326
0.732328
0.732329
0.73233
0.73233
0.732331
0.732332
0.732335
0.732335
0.732333
0.732333
0.732336
0.732336
0.732333
0.732333
0.732331
0.732328
0.732323
0.732317
0.732314
0.732312
0.732311
0.732309
0.732306
0.732303
0.732298
0.732293
0.732286
0.732278
0.732273
0.732273
0.732274
0.732277
0.732281
0.732289
0.7323
0.732315
0.732325
0.732326
0.732325
0.732326
0.732331
0.73234
0.732354
0.732372
0.732385
0.732387
0.73238
0.732354
0.732306
0.732255
0.732228
0.732236
0.732266
0.732344
0.73271
0.734242
0.741193
0.763018
0.814836
0.914498
1.03622
1.16192
1.26903
1.34165
1.36017
1.37292
1.37081
1.34968
1.3498
1.35724
1.36917
1.37511
1.37349
1.36599
1.35918
1.36028
1.36677
1.37
1.36899
1.36463
1.36276
1.36377
1.36522
1.36527
1.36501
1.36516
1.36604
1.36665
1.36657
1.36637
1.36615
1.36586
1.36542
1.36493
1.36496
1.365
1.36511
0.732314
0.732316
0.732317
0.732322
0.732327
0.732328
0.73233
0.732332
0.732336
0.732341
0.732345
0.732349
0.732353
0.732358
0.732361
0.732364
0.73237
0.732377
0.732383
0.732388
0.732393
0.732401
0.73241
0.732419
0.732426
0.732427
0.732426
0.732426
0.732425
0.732419
0.73241
0.732398
0.732387
0.732377
0.73237
0.732369
0.732373
0.73238
0.732386
0.732386
0.732385
0.732385
0.732386
0.73239
0.7324
0.732416
0.73244
0.732479
0.732504
0.732506
0.732497
0.732469
0.732426
0.732384
0.732372
0.732379
0.732387
0.732397
0.732424
0.732501
0.732821
0.734549
0.74204
0.769699
0.830661
0.946655
1.08174
1.19088
1.27696
1.31119
1.32884
1.35577
1.37654
1.38087
1.37847
1.36265
1.35668
1.35835
1.36596
1.37296
1.37137
1.36433
1.36133
1.36247
1.36557
1.36563
1.36473
1.36452
1.36531
1.3665
1.36655
1.36616
1.36588
1.36577
1.36548
1.3651
1.36487
1.36488
1.36491
1.36507
0.732291
0.732295
0.7323
0.732305
0.732311
0.732318
0.732325
0.732331
0.732338
0.732347
0.732357
0.732364
0.732372
0.732383
0.732396
0.732408
0.732418
0.732428
0.732439
0.732451
0.732464
0.732482
0.732499
0.732506
0.732507
0.732505
0.732502
0.732499
0.732494
0.732484
0.732471
0.732455
0.732435
0.73241
0.732386
0.732372
0.732366
0.732361
0.732353
0.732335
0.732324
0.73232
0.732319
0.73232
0.732335
0.732378
0.732438
0.732498
0.732552
0.732576
0.732575
0.732568
0.732552
0.732531
0.73251
0.732486
0.732463
0.732446
0.732433
0.73244
0.732492
0.732538
0.732613
0.733041
0.735251
0.747887
0.786312
0.878575
1.00836
1.15655
1.28105
1.34417
1.36399
1.37238
1.36014
1.34416
1.35337
1.36841
1.37517
1.37327
1.36458
1.3582
1.35993
1.36595
1.36658
1.3655
1.36368
1.36423
1.36621
1.36662
1.36614
1.36566
1.36552
1.36546
1.36496
1.3647
1.36477
1.36478
1.36475
1.36501
0.732308
0.732318
0.732325
0.732331
0.73234
0.732349
0.732358
0.732367
0.732377
0.732387
0.732396
0.732405
0.732415
0.732427
0.732439
0.732451
0.732465
0.732478
0.732491
0.732505
0.732521
0.732534
0.732543
0.73255
0.73255
0.732546
0.732541
0.732534
0.732522
0.732506
0.732489
0.73247
0.732446
0.732417
0.732391
0.732369
0.732348
0.732329
0.732311
0.732289
0.732276
0.732273
0.732271
0.732272
0.73229
0.732339
0.732412
0.732486
0.732545
0.732582
0.732587
0.73258
0.732577
0.732576
0.732565
0.732527
0.732466
0.732428
0.73241
0.732407
0.732434
0.732496
0.732528
0.732527
0.732535
0.732635
0.733485
0.738833
0.762459
0.829131
0.956745
1.10517
1.21698
1.2943
1.31807
1.34462
1.37575
1.38323
1.37984
1.36214
1.35548
1.3582
1.36656
1.36932
1.36687
1.363
1.3633
1.36594
1.36706
1.36647
1.36532
1.36547
1.36541
1.36504
1.36437
1.36452
1.36471
1.36465
1.36461
1.365
0.7324
0.732405
0.73241
0.732414
0.73242
0.732426
0.73243
0.732435
0.73244
0.732447
0.732453
0.73246
0.732468
0.732477
0.732487
0.7325
0.732514
0.732527
0.732538
0.732551
0.732562
0.732568
0.732571
0.732576
0.732575
0.732569
0.732561
0.732551
0.732538
0.732523
0.732506
0.732484
0.732456
0.732428
0.732406
0.732387
0.732369
0.732349
0.732325
0.732295
0.732275
0.732269
0.732267
0.732269
0.732284
0.732325
0.732389
0.732463
0.73253
0.732578
0.732587
0.732577
0.73257
0.732569
0.732563
0.732532
0.732465
0.732406
0.732389
0.732387
0.732408
0.732476
0.732508
0.732528
0.732546
0.732559
0.732566
0.732603
0.732949
0.735377
0.750529
0.801019
0.914875
1.06738
1.22482
1.32757
1.36391
1.37341
1.36083
1.3433
1.35256
1.3695
1.37335
1.36916
1.36133
1.36148
1.36527
1.36801
1.36719
1.36497
1.36479
1.36539
1.36534
1.36445
1.36404
1.36444
1.36469
1.36453
1.36452
1.365
0.732481
0.732481
0.732481
0.732481
0.73248
0.732479
0.732478
0.732478
0.732478
0.732477
0.732477
0.732478
0.732481
0.732484
0.732486
0.73249
0.732497
0.732505
0.732512
0.73252
0.732531
0.732543
0.732553
0.732567
0.732584
0.732588
0.732581
0.732573
0.732566
0.732555
0.732536
0.732521
0.73251
0.732501
0.732499
0.7325
0.732499
0.732492
0.732476
0.732449
0.732415
0.732383
0.732358
0.732352
0.73236
0.732392
0.732445
0.732496
0.732538
0.732577
0.732584
0.732568
0.732552
0.732547
0.732545
0.73253
0.732495
0.732448
0.732437
0.73243
0.732433
0.732481
0.732519
0.732539
0.732552
0.732555
0.732559
0.73256
0.732556
0.73255
0.732684
0.734123
0.743492
0.784033
0.888954
1.04565
1.19087
1.27747
1.31797
1.34131
1.37669
1.38261
1.37587
1.3583
1.35833
1.36286
1.36989
1.36898
1.36478
1.36411
1.36507
1.36578
1.36484
1.36373
1.36406
1.3646
1.36458
1.36434
1.36445
1.3653
0.732433
0.732423
0.732414
0.732405
0.732396
0.732386
0.732377
0.73237
0.732363
0.732355
0.732346
0.732343
0.732343
0.732343
0.732343
0.732348
0.732359
0.732367
0.732374
0.732384
0.732395
0.732406
0.732414
0.732423
0.732436
0.732451
0.732466
0.732477
0.732483
0.732485
0.732492
0.73251
0.732528
0.732546
0.732573
0.732613
0.732629
0.732631
0.732629
0.732612
0.732576
0.732532
0.732489
0.732452
0.732445
0.732457
0.732481
0.732509
0.732534
0.732545
0.73252
0.732507
0.732521
0.732559
0.732572
0.73257
0.732554
0.732557
0.732562
0.732556
0.732543
0.732549
0.732551
0.732543
0.732546
0.732552
0.73256
0.732574
0.732575
0.732558
0.732553
0.732598
0.732755
0.733795
0.740769
0.777774
0.873852
1.03063
1.21621
1.31747
1.36998
1.36937
1.34962
1.35007
1.36107
1.37191
1.37144
1.36492
1.36179
1.36378
1.36666
1.36605
1.36319
1.36322
1.36418
1.3647
1.36421
1.36413
1.36474
1.36555
0.732343
0.732333
0.732324
0.732316
0.732309
0.732301
0.732295
0.732292
0.732288
0.732283
0.732279
0.732275
0.732274
0.732277
0.732283
0.732297
0.732308
0.732318
0.732333
0.732351
0.732358
0.732361
0.732364
0.732371
0.732384
0.732399
0.732411
0.732426
0.732446
0.732465
0.732482
0.732502
0.732528
0.73256
0.732602
0.732653
0.732682
0.732685
0.732683
0.732668
0.732635
0.732592
0.732544
0.732497
0.732464
0.73246
0.732471
0.732484
0.732495
0.732486
0.732451
0.732441
0.732453
0.732504
0.732544
0.732561
0.732592
0.732638
0.732666
0.732651
0.732625
0.732612
0.732597
0.732556
0.732528
0.732527
0.732546
0.732605
0.732689
0.732725
0.732756
0.732839
0.73295
0.733019
0.733123
0.733915
0.73936
0.774224
0.870646
1.0356
1.2107
1.27399
1.31912
1.35082
1.38076
1.37905
1.36715
1.35827
1.36166
1.36776
1.36745
1.36368
1.36205
1.36324
1.3653
1.36469
1.36374
1.36404
1.36538
1.36582
0.732322
0.732315
0.732308
0.732302
0.732297
0.732292
0.732289
0.732287
0.732285
0.732285
0.732286
0.732287
0.732284
0.732282
0.732289
0.73231
0.732327
0.732334
0.732349
0.73237
0.732388
0.732393
0.732391
0.73239
0.732397
0.732404
0.732414
0.732443
0.73248
0.732489
0.732493
0.732503
0.732525
0.732557
0.732601
0.732655
0.732687
0.732691
0.732688
0.732664
0.732626
0.732587
0.732546
0.732507
0.732471
0.732445
0.732447
0.732464
0.732469
0.732456
0.732435
0.732433
0.732446
0.732495
0.732539
0.732575
0.732623
0.732675
0.732694
0.732668
0.732634
0.732626
0.732605
0.732545
0.732503
0.732504
0.732531
0.732656
0.732858
0.732947
0.73301
0.733062
0.733098
0.733107
0.733097
0.73302
0.732929
0.733486
0.738754
0.778699
0.879564
1.05716
1.25072
1.3295
1.37038
1.36688
1.3487
1.35679
1.37037
1.36993
1.36499
1.35986
1.36138
1.36589
1.3657
1.36329
1.36333
1.36484
1.36605
1.36577
0.732445
0.73245
0.732454
0.732455
0.732456
0.732455
0.732452
0.732454
0.732458
0.732459
0.732461
0.732464
0.732464
0.732459
0.732465
0.732489
0.732502
0.732506
0.732517
0.732524
0.732524
0.732517
0.732501
0.732494
0.732492
0.732483
0.732474
0.732476
0.732499
0.732508
0.732499
0.732495
0.732499
0.732513
0.732534
0.732567
0.732599
0.73261
0.732598
0.732554
0.732523
0.732508
0.732494
0.732482
0.73246
0.732442
0.732453
0.732469
0.732497
0.732535
0.732576
0.732596
0.732583
0.732556
0.732557
0.732595
0.73264
0.732693
0.732691
0.732641
0.732609
0.732621
0.732619
0.732564
0.732504
0.732508
0.732582
0.732815
0.733018
0.733102
0.733159
0.73317
0.733158
0.733101
0.732949
0.732749
0.732584
0.732427
0.732459
0.733293
0.739923
0.786961
0.906569
1.07881
1.25115
1.2929
1.33088
1.37336
1.37837
1.37083
1.35699
1.35875
1.3661
1.36798
1.36435
1.36218
1.36376
1.36632
1.36627
1.36565
0.732658
0.732669
0.732674
0.732677
0.732685
0.732693
0.732694
0.732693
0.732687
0.732677
0.732676
0.73268
0.732683
0.732682
0.732675
0.732679
0.732684
0.732683
0.73267
0.732656
0.73265
0.732635
0.732603
0.73257
0.732544
0.732515
0.732492
0.732489
0.732494
0.732493
0.732474
0.732444
0.732419
0.732399
0.732383
0.732377
0.732378
0.732391
0.732389
0.732384
0.732389
0.73242
0.732452
0.732464
0.732466
0.732465
0.732486
0.732544
0.732621
0.732712
0.732779
0.732773
0.732731
0.732669
0.7326
0.732587
0.732617
0.732629
0.732596
0.732542
0.732535
0.732586
0.732627
0.732626
0.732619
0.73266
0.732818
0.733087
0.733145
0.733157
0.733186
0.733191
0.733138
0.732961
0.732647
0.732478
0.732396
0.732376
0.732411
0.73253
0.732704
0.734016
0.743587
0.803268
0.938569
1.13335
1.29631
1.35592
1.36774
1.34652
1.35244
1.36645
1.37098
1.36707
1.3602
1.36136
1.36653
1.3672
1.36643
1.36523
0.732758
0.732756
0.732753
0.732752
0.732752
0.732758
0.732765
0.732765
0.732756
0.73274
0.732734
0.732736
0.732747
0.732751
0.73275
0.732749
0.732744
0.732726
0.732696
0.732689
0.732683
0.732658
0.732601
0.732527
0.732488
0.732477
0.732469
0.732453
0.732447
0.732451
0.732443
0.732413
0.732385
0.73236
0.732326
0.732289
0.732275
0.732273
0.732276
0.7323
0.732346
0.732397
0.732445
0.732492
0.732545
0.732579
0.732624
0.732673
0.732723
0.73281
0.732838
0.732795
0.732722
0.732687
0.732624
0.732533
0.732515
0.732516
0.732489
0.732487
0.732512
0.732581
0.732732
0.732854
0.732903
0.732974
0.73315
0.733266
0.733234
0.733177
0.733157
0.733103
0.732964
0.732687
0.73242
0.732321
0.732338
0.732427
0.732653
0.732862
0.733028
0.73309
0.733194
0.734848
0.74906
0.828753
0.989312
1.16183
1.28553
1.31849
1.365
1.37934
1.37397
1.35769
1.35843
1.36601
1.36897
1.3673
1.36526
1.3653
0.732711
0.732709
0.732706
0.732699
0.732694
0.732693
0.732696
0.732692
0.732669
0.732652
0.732652
0.732652
0.73263
0.732604
0.732601
0.732587
0.732534
0.732477
0.732473
0.732479
0.732471
0.732448
0.73243
0.732419
0.732425
0.732446
0.732453
0.73245
0.732438
0.732442
0.732448
0.732429
0.732415
0.732428
0.732425
0.732393
0.732385
0.732383
0.732381
0.73239
0.732439
0.732489
0.732531
0.732634
0.732713
0.732714
0.732723
0.732739
0.732777
0.732828
0.732815
0.732691
0.732603
0.732608
0.732575
0.732502
0.732488
0.732485
0.732457
0.732495
0.732607
0.73273
0.732937
0.733078
0.733125
0.733215
0.733352
0.73335
0.733274
0.73308
0.732888
0.732777
0.732648
0.732466
0.732336
0.7323
0.732368
0.732654
0.73295
0.73308
0.733129
0.733096
0.732921
0.732578
0.732672
0.735927
0.761557
0.862266
1.04898
1.2466
1.34735
1.37018
1.3508
1.35085
1.36363
1.37234
1.36958
1.36349
1.36409
1.36522
0.732332
0.73233
0.732333
0.732335
0.732326
0.732318
0.732315
0.732312
0.732307
0.732305
0.732307
0.732304
0.732277
0.732262
0.732266
0.732271
0.732271
0.732275
0.732289
0.732326
0.732351
0.73237
0.7324
0.732409
0.732417
0.73245
0.732496
0.732514
0.732542
0.732599
0.732612
0.732612
0.732678
0.732786
0.73279
0.732784
0.732796
0.732778
0.732735
0.732725
0.732756
0.732773
0.732722
0.732734
0.732775
0.732761
0.732689
0.732649
0.732673
0.732702
0.732645
0.732471
0.732417
0.73247
0.732515
0.732516
0.73258
0.732645
0.732653
0.732745
0.732907
0.733007
0.73315
0.733193
0.733189
0.73328
0.733391
0.733366
0.733157
0.732737
0.732423
0.732383
0.73237
0.732368
0.732344
0.73243
0.732672
0.733023
0.733149
0.733167
0.733145
0.732896
0.732527
0.732226
0.732148
0.732217
0.732816
0.738964
0.781443
0.923508
1.11455
1.25647
1.31288
1.35185
1.38058
1.37655
1.36207
1.36219
1.3656
1.36555
0.732134
0.73214
0.73215
0.732151
0.732143
0.732117
0.732098
0.73209
0.732089
0.73209
0.732092
0.732093
0.7321
0.732124
0.73216
0.732189
0.732211
0.732236
0.732285
0.732379
0.732442
0.732476
0.732547
0.732593
0.732622
0.732679
0.732739
0.732795
0.732858
0.732881
0.732867
0.732867
0.732947
0.732983
0.732941
0.732947
0.732956
0.732897
0.732799
0.732783
0.732825
0.732826
0.732731
0.732721
0.732739
0.732661
0.732524
0.732514
0.732495
0.732441
0.732347
0.732351
0.732374
0.732423
0.732538
0.732748
0.733066
0.733186
0.733168
0.733239
0.733269
0.7332
0.733168
0.733188
0.733236
0.733337
0.733333
0.733205
0.73287
0.732398
0.732184
0.732194
0.732264
0.732378
0.732583
0.732854
0.733118
0.733255
0.733237
0.733178
0.732928
0.732461
0.732147
0.732079
0.732136
0.732458
0.733117
0.733257
0.734289
0.748082
0.817718
0.992371
1.22042
1.32824
1.3711
1.35657
1.35387
1.36422
1.36769
1.36449
0.732374
0.732418
0.732468
0.73249
0.732505
0.732531
0.732556
0.732553
0.732534
0.73253
0.73255
0.732596
0.732676
0.732726
0.73274
0.732756
0.732758
0.732733
0.732728
0.732752
0.73274
0.732741
0.732786
0.732793
0.732762
0.732769
0.732826
0.732881
0.732894
0.732898
0.732868
0.73282
0.73283
0.732819
0.732785
0.732805
0.732793
0.732737
0.73272
0.732736
0.732743
0.732655
0.732523
0.732564
0.732665
0.732616
0.732482
0.732465
0.732427
0.732301
0.732269
0.732358
0.732595
0.732845
0.733034
0.733182
0.733367
0.733538
0.733561
0.73356
0.733504
0.733289
0.733121
0.73301
0.732949
0.732939
0.732912
0.732799
0.732569
0.732285
0.732191
0.732225
0.732376
0.73271
0.733076
0.733304
0.733382
0.733351
0.733204
0.732885
0.732339
0.732077
0.732025
0.732082
0.732437
0.732961
0.733329
0.733303
0.732945
0.732755
0.735285
0.765372
0.882483
1.07616
1.26323
1.30421
1.35545
1.37353
1.36885
1.36016
0.733173
0.733212
0.733215
0.733197
0.733191
0.733207
0.733232
0.733231
0.733206
0.733175
0.733164
0.733159
0.733149
0.733125
0.733092
0.733048
0.732958
0.732803
0.732768
0.732778
0.73275
0.732681
0.73268
0.732726
0.732734
0.732645
0.732488
0.732404
0.732348
0.732283
0.732212
0.732135
0.732063
0.732031
0.732038
0.732032
0.732005
0.732006
0.73205
0.732192
0.732246
0.732256
0.732302
0.732413
0.732549
0.73261
0.732619
0.73264
0.732614
0.732493
0.7325
0.732703
0.733082
0.733291
0.733329
0.733336
0.733388
0.733539
0.733602
0.733612
0.73356
0.733314
0.732841
0.73245
0.732367
0.732383
0.732401
0.7324
0.73238
0.732317
0.732348
0.732536
0.732861
0.733239
0.73347
0.733489
0.733464
0.733227
0.7328
0.732265
0.731922
0.73196
0.732069
0.732491
0.733078
0.733402
0.73339
0.733112
0.732417
0.73203
0.732082
0.732831
0.741383
0.805567
0.969517
1.18868
1.33181
1.36379
1.34902
1.35551
0.732996
0.732992
0.732978
0.732936
0.732914
0.732906
0.732891
0.732866
0.732808
0.732776
0.732778
0.732768
0.732708
0.732598
0.732462
0.732276
0.732152
0.732159
0.732172
0.732126
0.731948
0.731801
0.731789
0.731819
0.731796
0.731672
0.731593
0.731578
0.731558
0.731518
0.731475
0.731432
0.731388
0.731377
0.731386
0.73134
0.731292
0.731294
0.73135
0.731556
0.731765
0.731906
0.732092
0.732456
0.73287
0.733077
0.733135
0.733118
0.733033
0.732881
0.732843
0.733001
0.733262
0.733301
0.733275
0.733266
0.733117
0.732916
0.732865
0.732848
0.732785
0.73255
0.732138
0.731909
0.731906
0.731956
0.732012
0.732118
0.732232
0.732482
0.732844
0.733183
0.73336
0.733427
0.73352
0.733453
0.733124
0.732606
0.732069
0.731801
0.731819
0.731998
0.732614
0.733274
0.73354
0.733509
0.733213
0.732525
0.732015
0.731954
0.732303
0.733186
0.733365
0.735398
0.758087
0.875075
1.07485
1.24189
1.31347
1.35994
0.73222
0.732217
0.732206
0.732183
0.732156
0.732153
0.732159
0.732171
0.732176
0.732178
0.732188
0.732187
0.732142
0.732041
0.731912
0.731764
0.731723
0.7317
0.731678
0.73169
0.731714
0.731682
0.731522
0.73135
0.731262
0.73125
0.731274
0.731318
0.731388
0.731438
0.731444
0.731468
0.731538
0.731599
0.731607
0.731574
0.73155
0.731561
0.731642
0.731844
0.732194
0.732751
0.733159
0.733348
0.733446
0.733479
0.733488
0.733456
0.733366
0.73318
0.733138
0.733221
0.733223
0.73317
0.733052
0.732706
0.732116
0.73184
0.731838
0.731912
0.731944
0.73188
0.731744
0.731659
0.731647
0.73168
0.731745
0.731922
0.732402
0.733008
0.733451
0.733498
0.73347
0.733284
0.732932
0.732488
0.732049
0.731771
0.731563
0.731639
0.731825
0.732559
0.733399
0.733662
0.733584
0.733199
0.732444
0.731872
0.731878
0.732203
0.733051
0.733557
0.733484
0.733033
0.733169
0.741311
0.797214
0.972201
1.21127
1.3429
0.731652
0.731648
0.731656
0.731682
0.731707
0.731733
0.731767
0.731815
0.731916
0.732036
0.732102
0.732141
0.732147
0.732126
0.73206
0.731977
0.731921
0.731897
0.731912
0.731987
0.732031
0.732018
0.732074
0.732171
0.73226
0.73241
0.732554
0.732758
0.733101
0.733482
0.733571
0.733624
0.733776
0.733988
0.734131
0.73414
0.734115
0.734052
0.733992
0.734103
0.734136
0.734077
0.734102
0.734041
0.733599
0.733231
0.733145
0.733143
0.733088
0.732842
0.732796
0.732844
0.732851
0.732845
0.732703
0.732238
0.731688
0.731485
0.731495
0.731598
0.731691
0.731704
0.731689
0.731702
0.731761
0.73193
0.732335
0.732892
0.733338
0.733585
0.733616
0.733486
0.732987
0.73229
0.731677
0.731313
0.731257
0.731239
0.731288
0.731521
0.732365
0.733428
0.733568
0.733445
0.732888
0.732052
0.731508
0.731528
0.731869
0.732971
0.733663
0.733587
0.733116
0.732234
0.731935
0.732164
0.734447
0.762114
0.871405
1.1443
0.734153
0.734264
0.734361
0.734404
0.73442
0.734431
0.734481
0.734595
0.734752
0.73491
0.73503
0.735142
0.735285
0.735412
0.735531
0.73558
0.735572
0.735588
0.735771
0.736346
0.736587
0.736663
0.736793
0.736988
0.737065
0.736848
0.736441
0.736333
0.736507
0.737046
0.737491
0.737595
0.737613
0.737621
0.737631
0.737595
0.737452
0.737245
0.736956
0.736576
0.736124
0.735408
0.734979
0.734728
0.734299
0.733836
0.733665
0.733699
0.733795
0.733896
0.733855
0.733671
0.73345
0.733138
0.732768
0.732462
0.732243
0.732086
0.73207
0.732149
0.732274
0.732493
0.732965
0.733397
0.733719
0.734059
0.734457
0.73442
0.734166
0.733825
0.733335
0.732666
0.732037
0.731543
0.73122
0.731162
0.731213
0.731473
0.732339
0.733169
0.73385
0.733842
0.73349
0.732515
0.731584
0.731155
0.731177
0.731547
0.732729
0.73381
0.733714
0.733128
0.732099
0.731633
0.731713
0.732585
0.733029
0.733711
0.740581
0.898019
0.744476
0.744214
0.743738
0.743105
0.742721
0.742507
0.742436
0.742506
0.742677
0.742811
0.742833
0.742768
0.742701
0.742601
0.74225
0.741511
0.741177
0.741184
0.741172
0.741156
0.741248
0.741299
0.741232
0.740755
0.739865
0.739725
0.739677
0.739177
0.73854
0.738478
0.738401
0.738001
0.737812
0.737844
0.737849
0.737443
0.736839
0.736608
0.736348
0.735879
0.735412
0.735024
0.734805
0.734616
0.734383
0.734101
0.733947
0.733991
0.734151
0.734409
0.73448
0.734456
0.73445
0.734365
0.734161
0.734196
0.734565
0.735409
0.735858
0.736031
0.736253
0.736232
0.736061
0.735923
0.736042
0.736219
0.736069
0.735443
0.734298
0.733106
0.732306
0.731872
0.731679
0.731423
0.731338
0.731537
0.732312
0.733671
0.735068
0.734947
0.734398
0.733437
0.732312
0.731395
0.730983
0.731022
0.731503
0.732897
0.734139
0.734012
0.73312
0.731899
0.731279
0.731339
0.732003
0.733179
0.733131
0.732533
0.732065
0.756161
0.757132
0.756877
0.756191
0.755732
0.755469
0.755219
0.755224
0.755514
0.75569
0.755537
0.755212
0.755183
0.755265
0.755168
0.754312
0.753105
0.752864
0.752959
0.753394
0.753646
0.753692
0.753534
0.75301
0.752396
0.751194
0.74978
0.749672
0.74958
0.748961
0.747886
0.747493
0.747333
0.746894
0.746557
0.746528
0.746587
0.746748
0.746882
0.747078
0.747481
0.748099
0.748246
0.747941
0.747919
0.748147
0.748001
0.74748
0.747158
0.746963
0.746466
0.74559
0.745095
0.745094
0.745365
0.745114
0.74485
0.744931
0.745004
0.744798
0.744233
0.743381
0.742162
0.740796
0.739743
0.73895
0.738108
0.737188
0.736244
0.734997
0.73402
0.733454
0.733453
0.733701
0.734718
0.735986
0.736879
0.737565
0.737527
0.737025
0.735964
0.734168
0.732599
0.731856
0.731398
0.731506
0.732534
0.734031
0.735338
0.734967
0.733673
0.732054
0.731257
0.731286
0.732029
0.733268
0.733579
0.732918
0.731749
0.731467
0.732945
0.788482
0.78933
0.789879
0.789869
0.78942
0.788048
0.787255
0.787142
0.786901
0.786785
0.786862
0.786896
0.786899
0.786951
0.786715
0.785743
0.785139
0.785208
0.786025
0.786759
0.786727
0.786408
0.786512
0.786467
0.785602
0.784688
0.784503
0.784502
0.784394
0.783856
0.78286
0.781439
0.779209
0.777919
0.777937
0.777751
0.776776
0.775384
0.77446
0.773948
0.773503
0.773036
0.772655
0.772265
0.771615
0.770566
0.768972
0.767741
0.766661
0.765031
0.763189
0.761662
0.760516
0.759525
0.758415
0.756911
0.755204
0.753508
0.752181
0.750999
0.750062
0.748965
0.747378
0.745836
0.744793
0.74473
0.744499
0.743947
0.744007
0.745037
0.746272
0.746053
0.745679
0.745432
0.744924
0.743807
0.741911
0.73954
0.736928
0.735254
0.7342
0.733359
0.733695
0.73517
0.736727
0.73807
0.737631
0.736669
0.734464
0.732676
0.731827
0.731428
0.732541
0.73466
0.73472
0.733917
0.732182
0.731472
0.731486
0.732388
0.824766
0.824227