/*--------------------------------*- C++ -*----------------------------------*\
  =========                 |
  \\      /  F ield         | OpenFOAM: The Open Source CFD Toolbox
   \\    /   O peration     | Website:  https://openfoam.org
    \\  /    A nd           | Version:  7
     \\/     M anipulation  |
\*---------------------------------------------------------------------------*/
FoamFile
{
    version     2.0;
    format      ascii;
    class       volVectorField;
    location    "9";
    object      U;
}
// * * * * * * * * * * * * * * * * * * * * * * * * * * * * * * * * * * * * * //

dimensions      [0 1 -1 0 0 0 0];

internalField   nonuniform List<vector> 
90000
(
(4.07319 -0.386991 0)
(4.0696 -0.363969 0)
(4.06593 -0.339647 0)
(4.06305 -0.319571 0)
(4.06002 -0.298987 0)
(4.05768 -0.283335 0)
(4.05494 -0.265615 0)
(4.05286 -0.253252 0)
(4.05019 -0.237297 0)
(4.04823 -0.227393 0)
(4.04554 -0.21241 0)
(4.04369 -0.204585 0)
(4.04091 -0.189949 0)
(4.03918 -0.183681 0)
(4.03634 -0.16943 0)
(4.03471 -0.164187 0)
(4.03182 -0.150042 0)
(4.03039 -0.145872 0)
(4.0274 -0.131469 0)
(4.02627 -0.128469 0)
(4.02308 -0.113492 0)
(4.02232 -0.111613 0)
(4.01889 -0.0962715 0)
(4.01852 -0.0949628 0)
(4.01479 -0.0794354 0)
(4.01477 -0.0780465 0)
(4.01087 -0.0637622 0)
(4.0104 -0.0602367 0)
(4.00748 -0.0494749 0)
(4.00606 -0.0426766 0)
(4.00347 -0.0331426 0)
(4.00536 -0.0279146 0)
(3.99973 -0.0196952 0)
(3.9995 -0.0147409 0)
(3.99835 -0.0101241 0)
(3.99752 -0.00487749 0)
(3.99513 -0.00210472 0)
(3.99111 0.00115241 0)
(3.98854 0.00767738 0)
(3.98845 0.00993056 0)
(3.98671 0.00686012 0)
(3.98557 0.00580472 0)
(3.98442 0.00414615 0)
(3.98332 0.00262665 0)
(3.98193 -0.000869376 0)
(3.98094 -0.00429468 0)
(3.97991 -0.0031547 0)
(3.97885 -0.00616768 0)
(3.97868 -0.00572061 0)
(3.97884 -0.00335093 0)
(3.97954 -0.00184541 0)
(3.98033 0.000280968 0)
(3.98107 0.00164945 0)
(3.98189 0.0026644 0)
(3.98208 0.00222228 0)
(3.98233 0.00281775 0)
(3.98306 0.00195828 0)
(3.98298 0.000964591 0)
(3.98281 0.00021014 0)
(3.9822 -0.00160608 0)
(3.98139 -0.00249328 0)
(3.98079 -0.00211086 0)
(3.98075 -0.000517998 0)
(3.98113 0.00028673 0)
(3.98199 0.00136681 0)
(3.98269 0.00140183 0)
(3.98314 0.00194481 0)
(3.98298 0.000579116 0)
(3.98265 -1.78629e-06 0)
(3.98206 -0.00107491 0)
(3.98169 -0.00159283 0)
(3.98232 -0.000624134 0)
(3.98251 -0.000111768 0)
(3.98268 0.000558625 0)
(3.98288 0.000560077 0)
(3.98278 0.000244109 0)
(3.98256 -0.000751501 0)
(3.98239 -0.000255699 0)
(3.98222 -4.44913e-05 0)
(3.98236 -0.000107291 0)
(3.98252 6.0354e-05 0)
(3.9825 -5.97405e-05 0)
(3.98243 -0.000215571 0)
(3.98236 -0.000145958 0)
(3.98248 0.00021672 0)
(3.98253 0.000350663 0)
(3.9827 6.94891e-06 0)
(3.98268 -0.000126403 0)
(3.98265 -6.86046e-05 0)
(3.98265 9.60157e-05 0)
(3.98268 7.96017e-05 0)
(3.98274 -0.000348267 0)
(3.98268 -0.000135186 0)
(3.98263 3.95432e-05 0)
(3.9825 -0.000191817 0)
(3.98252 -0.000358043 0)
(3.98236 7.74897e-06 0)
(3.98239 7.06382e-05 0)
(3.98245 0.000128005 0)
(3.98256 8.9581e-05 0)
(4.07501 -0.40744 0)
(4.07413 -0.406867 0)
(4.07261 -0.405713 0)
(4.07065 -0.40393 0)
(4.06832 -0.401155 0)
(4.0658 -0.397797 0)
(4.06299 -0.393011 0)
(4.06019 -0.387912 0)
(4.05708 -0.380863 0)
(4.05414 -0.374009 0)
(4.05082 -0.364437 0)
(4.04788 -0.35592 0)
(4.04438 -0.343733 0)
(4.04157 -0.333552 0)
(4.03804 -0.318762 0)
(4.03538 -0.307088 0)
(4.03165 -0.289562 0)
(4.02925 -0.277146 0)
(4.0252 -0.256329 0)
(4.02336 -0.244157 0)
(4.01887 -0.219895 0)
(4.01775 -0.208606 0)
(4.0128 -0.181538 0)
(4.01236 -0.170866 0)
(4.00715 -0.142376 0)
(4.00726 -0.131993 0)
(4.00203 -0.103185 0)
(4.003 -0.0948329 0)
(3.9973 -0.0641595 0)
(3.99927 -0.0595933 0)
(3.99293 -0.0302816 0)
(3.99444 -0.0251144 0)
(3.98883 -0.0016486 0)
(3.98958 0.00309089 0)
(3.98468 0.021377 0)
(3.98409 0.0262342 0)
(3.98052 0.0364273 0)
(3.97953 0.0392513 0)
(3.97789 0.0349392 0)
(3.97894 0.0296105 0)
(3.97656 0.0148378 0)
(3.97833 0.00800749 0)
(3.97934 0.00275744 0)
(3.98167 0.000645301 0)
(3.98038 -0.00380008 0)
(3.9806 -0.00654158 0)
(3.98107 -0.00631817 0)
(3.98174 -0.00546295 0)
(3.98268 -0.00479098 0)
(3.98338 -0.0017223 0)
(3.9835 0.000514667 0)
(3.98446 0.00401344 0)
(3.9837 0.00568769 0)
(3.98325 0.00761922 0)
(3.98307 0.00734492 0)
(3.98289 0.0060409 0)
(3.98287 0.00361964 0)
(3.98217 -0.000935474 0)
(3.98269 -0.00314092 0)
(3.98199 -0.00665515 0)
(3.98173 -0.0068039 0)
(3.98269 -0.00450911 0)
(3.9827 -0.00123146 0)
(3.98299 0.00176014 0)
(3.98321 0.00448039 0)
(3.98318 0.00514514 0)
(3.98295 0.00337543 0)
(3.98257 0.000585028 0)
(3.98209 -0.00216117 0)
(3.98236 -0.00343293 0)
(3.98276 -0.00230365 0)
(3.98278 -0.0003103 0)
(3.98305 0.00162805 0)
(3.98307 0.00296671 0)
(3.98279 0.00158529 0)
(3.98254 -0.000199596 0)
(3.98245 -0.00238705 0)
(3.98249 -0.0019671 0)
(3.98278 -0.000481073 0)
(3.98255 0.000937374 0)
(3.98254 0.00063044 0)
(3.98246 -9.39745e-05 0)
(3.98244 -0.000667629 0)
(3.9825 -0.000304767 0)
(3.98256 0.000554812 0)
(3.98255 0.000505465 0)
(3.98252 4.33185e-05 0)
(3.98263 -0.000366517 0)
(3.98266 -0.000315229 0)
(3.98265 -0.000171178 0)
(3.98267 -8.23838e-05 0)
(3.98269 0.000115395 0)
(3.98266 -8.75384e-06 0)
(3.98258 -0.000299424 0)
(3.98256 -0.000250156 0)
(3.98247 0.000220632 0)
(3.98236 0.000240931 0)
(3.9824 0.000263591 0)
(3.98246 0.000343144 0)
(3.98256 0.000201015 0)
(4.07219 -0.406977 0)
(4.07213 -0.407012 0)
(4.07206 -0.406978 0)
(4.07198 -0.406911 0)
(4.0719 -0.406849 0)
(4.07181 -0.406798 0)
(4.0717 -0.40667 0)
(4.07156 -0.406543 0)
(4.0714 -0.406327 0)
(4.0712 -0.406095 0)
(4.07095 -0.405672 0)
(4.07066 -0.40522 0)
(4.07029 -0.404463 0)
(4.06975 -0.403636 0)
(4.069 -0.402495 0)
(4.06812 -0.400871 0)
(4.0671 -0.398853 0)
(4.06595 -0.396215 0)
(4.06459 -0.392751 0)
(4.06308 -0.388466 0)
(4.0613 -0.383057 0)
(4.05936 -0.376615 0)
(4.05704 -0.368455 0)
(4.05468 -0.359471 0)
(4.05171 -0.347255 0)
(4.04909 -0.336272 0)
(4.04531 -0.318566 0)
(4.04258 -0.306125 0)
(4.03807 -0.282966 0)
(4.03546 -0.269281 0)
(4.03034 -0.240843 0)
(4.02841 -0.228887 0)
(4.02272 -0.195151 0)
(4.0215 -0.185987 0)
(4.01622 -0.151891 0)
(4.01591 -0.145971 0)
(4.01192 -0.116038 0)
(4.01402 -0.111612 0)
(4.00865 -0.0874055 0)
(4.0136 -0.0798226 0)
(4.0017 -0.0539631 0)
(4.00252 -0.0464592 0)
(3.9966 -0.0327161 0)
(3.99619 -0.0235219 0)
(3.99327 -0.0170543 0)
(3.99334 -0.0122095 0)
(3.99078 -0.00768519 0)
(3.99165 -0.0019874 0)
(3.99026 0.00265622 0)
(3.98707 0.0049823 0)
(3.98751 0.00989494 0)
(3.98641 0.00997075 0)
(3.98487 0.00814557 0)
(3.98365 0.00632415 0)
(3.9824 0.000886514 0)
(3.98241 -0.00084106 0)
(3.98175 -0.00571204 0)
(3.98193 -0.00698018 0)
(3.98268 -0.00670139 0)
(3.98354 -0.00575135 0)
(3.98498 -0.00205274 0)
(3.98474 9.60292e-05 0)
(3.98507 0.00314499 0)
(3.98508 0.00469456 0)
(3.98433 0.00428476 0)
(3.98326 0.00256429 0)
(3.98201 -0.00187455 0)
(3.98196 -0.00291377 0)
(3.98235 -0.00259375 0)
(3.98341 -0.00139089 0)
(3.98375 0.000770412 0)
(3.98386 0.00327167 0)
(3.98349 0.0026193 0)
(3.98334 0.00141744 0)
(3.98244 -0.00257525 0)
(3.9825 -0.00303344 0)
(3.98269 -0.00276045 0)
(3.98313 -3.24164e-05 0)
(3.98318 0.000733582 0)
(3.9831 0.000517325 0)
(3.9826 -0.000907809 0)
(3.98259 -0.00102273 0)
(3.98268 -0.000689921 0)
(3.98282 0.000403578 0)
(3.98278 0.000469789 0)
(3.98268 0.000121433 0)
(3.98268 -0.000148307 0)
(3.9827 -0.000229974 0)
(3.98282 -9.9536e-05 0)
(3.98281 -3.34635e-05 0)
(3.98288 0.000185532 0)
(3.98279 -0.000212025 0)
(3.98283 -0.000578424 0)
(3.98276 -0.000384706 0)
(3.98272 -0.000187205 0)
(3.98261 -0.000516071 0)
(3.98256 -0.000343544 0)
(3.98255 -5.33852e-05 0)
(3.98257 0.000313509 0)
(3.98267 0.000180169 0)
(4.0683 -0.406929 0)
(4.06825 -0.406941 0)
(4.06821 -0.407001 0)
(4.06818 -0.406958 0)
(4.06815 -0.406948 0)
(4.0681 -0.406997 0)
(4.06806 -0.40702 0)
(4.06801 -0.407042 0)
(4.06797 -0.407078 0)
(4.06791 -0.407115 0)
(4.06785 -0.407204 0)
(4.0678 -0.40713 0)
(4.06771 -0.407289 0)
(4.06764 -0.407265 0)
(4.06754 -0.407095 0)
(4.06749 -0.406936 0)
(4.06747 -0.406878 0)
(4.06744 -0.406825 0)
(4.06738 -0.406694 0)
(4.0673 -0.406523 0)
(4.06721 -0.406308 0)
(4.06711 -0.406038 0)
(4.06699 -0.405637 0)
(4.06683 -0.405076 0)
(4.06659 -0.40422 0)
(4.06621 -0.403153 0)
(4.06566 -0.401445 0)
(4.06497 -0.399023 0)
(4.064 -0.395435 0)
(4.06283 -0.390845 0)
(4.0611 -0.383577 0)
(4.05927 -0.375548 0)
(4.05623 -0.361797 0)
(4.05357 -0.349363 0)
(4.04865 -0.325094 0)
(4.04589 -0.309031 0)
(4.03866 -0.270479 0)
(4.0373 -0.252973 0)
(4.02762 -0.198042 0)
(4.02933 -0.183731 0)
(4.01841 -0.122539 0)
(4.02126 -0.117392 0)
(4.00975 -0.0629081 0)
(4.01218 -0.0623627 0)
(4.00299 -0.0214836 0)
(4.00469 -0.0224103 0)
(3.99743 0.00199456 0)
(3.99671 0.00290293 0)
(3.99095 0.0166226 0)
(3.98877 0.0167893 0)
(3.9866 0.0110877 0)
(3.98641 0.00578726 0)
(3.98534 -0.000506155 0)
(3.98499 -0.000286222 0)
(3.98469 -0.00501753 0)
(3.98338 -0.0042033 0)
(3.98338 -0.00342964 0)
(3.98356 -0.00199106 0)
(3.98412 0.0023297 0)
(3.98444 0.00527855 0)
(3.98505 0.00870726 0)
(3.9853 0.00627724 0)
(3.98472 0.00391556 0)
(3.98397 0.000823179 0)
(3.98315 -0.00230984 0)
(3.98261 -0.00324166 0)
(3.98276 -0.00200778 0)
(3.98327 0.000321628 0)
(3.98418 0.000662024 0)
(3.98418 0.00508246 0)
(3.98483 0.00256321 0)
(3.98438 0.000598592 0)
(3.98361 -0.00170036 0)
(3.98391 -0.00250866 0)
(3.98339 -2.1002e-05 0)
(3.98357 0.000574979 0)
(3.98328 0.001834 0)
(3.98385 -0.000216171 0)
(3.98365 -0.000928351 0)
(3.98385 -0.00185575 0)
(3.98311 -0.000208117 0)
(3.98322 0.000364429 0)
(3.98336 0.000771899 0)
(3.98336 0.000416185 0)
(3.98341 0.000208008 0)
(3.98332 0.000476131 0)
(3.98336 0.00058439 0)
(3.9834 0.000408887 0)
(3.98345 -6.93898e-05 0)
(3.98352 -0.0003846 0)
(3.98359 -0.000346471 0)
(3.98349 -9.819e-05 0)
(3.98351 -0.000121292 0)
(3.98343 -0.000232789 0)
(3.98331 -0.000285803 0)
(3.98325 -7.12607e-05 0)
(3.98317 0.000347183 0)
(3.98312 0.00063737 0)
(3.98308 0.000779457 0)
(3.98317 0.000489153 0)
(4.06637 -0.406629 0)
(4.06637 -0.406653 0)
(4.06636 -0.406735 0)
(4.06636 -0.406756 0)
(4.06635 -0.406791 0)
(4.06635 -0.40682 0)
(4.06635 -0.406793 0)
(4.06635 -0.406819 0)
(4.06637 -0.40679 0)
(4.06638 -0.406794 0)
(4.06639 -0.406849 0)
(4.06639 -0.406828 0)
(4.06641 -0.406818 0)
(4.0664 -0.406896 0)
(4.06643 -0.406928 0)
(4.06648 -0.406928 0)
(4.06653 -0.406991 0)
(4.06659 -0.407032 0)
(4.06664 -0.407006 0)
(4.06667 -0.407026 0)
(4.0667 -0.407064 0)
(4.06674 -0.407119 0)
(4.06678 -0.407121 0)
(4.06681 -0.407053 0)
(4.06677 -0.407156 0)
(4.0668 -0.407087 0)
(4.06682 -0.406998 0)
(4.06685 -0.406925 0)
(4.06689 -0.406843 0)
(4.06693 -0.406744 0)
(4.06695 -0.406545 0)
(4.06693 -0.406263 0)
(4.06694 -0.405692 0)
(4.06695 -0.40476 0)
(4.0668 -0.403309 0)
(4.0664 -0.400571 0)
(4.06558 -0.396618 0)
(4.06432 -0.390078 0)
(4.06212 -0.380167 0)
(4.05941 -0.367259 0)
(4.05482 -0.344956 0)
(4.05127 -0.325089 0)
(4.04376 -0.284435 0)
(4.04092 -0.263909 0)
(4.03114 -0.20654 0)
(4.03067 -0.194664 0)
(4.02038 -0.133847 0)
(4.02035 -0.132358 0)
(4.01239 -0.084466 0)
(4.01493 -0.0894089 0)
(4.00456 -0.0613098 0)
(4.00707 -0.0552284 0)
(3.99954 -0.0373442 0)
(3.99959 -0.0317977 0)
(3.99569 -0.0222728 0)
(3.99444 -0.0118794 0)
(3.992 -0.00453862 0)
(3.98702 0.00394322 0)
(3.98467 0.0107988 0)
(3.98362 0.00998279 0)
(3.98308 0.00874472 0)
(3.98174 0.00151348 0)
(3.98239 -0.00119706 0)
(3.98199 -0.007296 0)
(3.98195 -0.00842807 0)
(3.98307 -0.00533509 0)
(3.98356 -0.00228973 0)
(3.98516 0.00233981 0)
(3.98523 0.00545782 0)
(3.98494 0.00510909 0)
(3.98408 0.00190824 0)
(3.98406 -0.0028416 0)
(3.98397 -0.00471611 0)
(3.98445 -0.00448287 0)
(3.98468 -0.00250686 0)
(3.98488 0.000712586 0)
(3.98478 0.00112509 0)
(3.98446 0.000443829 0)
(3.9845 -0.00176793 0)
(3.9844 -0.00219407 0)
(3.9845 -0.00142047 0)
(3.98464 8.66752e-08 0)
(3.98477 0.000345064 0)
(3.98465 -8.1163e-05 0)
(3.98466 -0.000573105 0)
(3.98459 -0.000806375 0)
(3.98474 -0.000401217 0)
(3.98484 -1.96542e-05 0)
(3.98487 8.14848e-05 0)
(3.98492 -8.87872e-05 0)
(3.98491 -0.000360302 0)
(3.98485 -0.000336941 0)
(3.98483 -0.000525882 0)
(3.98463 -0.000675461 0)
(3.98453 -0.000573587 0)
(3.98442 -0.000322044 0)
(3.98436 -0.000119746 0)
(3.98434 0.000154437 0)
(3.9843 0.000373231 0)
(3.98436 0.000202573 0)
(4.06704 -0.406673 0)
(4.06708 -0.406684 0)
(4.06712 -0.406671 0)
(4.06715 -0.406699 0)
(4.06719 -0.406701 0)
(4.06723 -0.406717 0)
(4.06728 -0.406727 0)
(4.06733 -0.406713 0)
(4.06738 -0.406735 0)
(4.06744 -0.406746 0)
(4.06749 -0.406751 0)
(4.06753 -0.406801 0)
(4.06757 -0.406814 0)
(4.06763 -0.406781 0)
(4.06769 -0.406813 0)
(4.06776 -0.406885 0)
(4.06784 -0.406904 0)
(4.06791 -0.406926 0)
(4.06798 -0.40695 0)
(4.06809 -0.40696 0)
(4.06818 -0.407011 0)
(4.06823 -0.407085 0)
(4.06832 -0.407136 0)
(4.06841 -0.407119 0)
(4.06851 -0.407026 0)
(4.0686 -0.407014 0)
(4.06871 -0.407032 0)
(4.06877 -0.407096 0)
(4.06884 -0.407158 0)
(4.06892 -0.407203 0)
(4.06902 -0.407222 0)
(4.0691 -0.407321 0)
(4.06918 -0.407413 0)
(4.06948 -0.407438 0)
(4.06961 -0.407426 0)
(4.06976 -0.407393 0)
(4.06987 -0.407309 0)
(4.06997 -0.407156 0)
(4.07007 -0.40685 0)
(4.07015 -0.406187 0)
(4.07006 -0.404948 0)
(4.06964 -0.40245 0)
(4.06862 -0.397989 0)
(4.06698 -0.390329 0)
(4.06377 -0.376377 0)
(4.0603 -0.35887 0)
(4.05326 -0.324742 0)
(4.04923 -0.298892 0)
(4.03731 -0.237075 0)
(4.03723 -0.21295 0)
(4.02149 -0.13132 0)
(4.02563 -0.119633 0)
(4.01069 -0.0507098 0)
(4.01524 -0.0471299 0)
(4.00316 -0.00140714 0)
(4.00393 0.00205562 0)
(3.99605 0.0270339 0)
(3.99153 0.0272624 0)
(3.98793 0.0191508 0)
(3.98571 0.00600539 0)
(3.9851 0.00269168 0)
(3.98258 -0.00492419 0)
(3.98276 -0.00521884 0)
(3.98339 -0.00531827 0)
(3.9844 -0.00246052 0)
(3.98661 0.00373877 0)
(3.98695 0.00515253 0)
(3.98662 0.00470149 0)
(3.98583 0.00331706 0)
(3.98477 8.50435e-05 0)
(3.98464 -0.00125051 0)
(3.98465 -0.00157616 0)
(3.9851 -0.00128613 0)
(3.98573 0.000222707 0)
(3.98592 0.000764102 0)
(3.98591 0.000560598 0)
(3.98562 -0.000468388 0)
(3.98566 -0.00162279 0)
(3.98561 -0.000612203 0)
(3.98618 -0.000272569 0)
(3.98657 7.8061e-05 0)
(3.98656 0.000168447 0)
(3.98647 0.000135326 0)
(3.9865 -5.00331e-05 0)
(3.98659 0.00078586 0)
(3.98662 0.000846107 0)
(3.98654 0.000640677 0)
(3.98674 -0.000195907 0)
(3.98676 -0.00035778 0)
(3.98664 -0.000110441 0)
(3.98658 -9.71634e-05 0)
(3.98655 -0.000318126 0)
(3.98644 -0.000407292 0)
(3.98626 -0.000360716 0)
(3.9862 -0.000251799 0)
(3.98616 -2.49025e-05 0)
(3.98621 0.000524882 0)
(3.9862 0.000647178 0)
(3.98617 0.000848767 0)
(3.98622 0.000659071 0)
(4.06928 -0.406964 0)
(4.06933 -0.407005 0)
(4.06938 -0.407008 0)
(4.06942 -0.406946 0)
(4.06946 -0.406943 0)
(4.06952 -0.406941 0)
(4.06957 -0.40692 0)
(4.06964 -0.406929 0)
(4.06971 -0.406943 0)
(4.06978 -0.406914 0)
(4.06985 -0.406889 0)
(4.06992 -0.40689 0)
(4.06998 -0.406898 0)
(4.07005 -0.406899 0)
(4.07012 -0.406896 0)
(4.0702 -0.406894 0)
(4.07028 -0.406882 0)
(4.07036 -0.406858 0)
(4.07043 -0.406846 0)
(4.07053 -0.406845 0)
(4.07065 -0.406844 0)
(4.0707 -0.406839 0)
(4.07078 -0.406838 0)
(4.07087 -0.406839 0)
(4.07094 -0.406854 0)
(4.07104 -0.40689 0)
(4.07114 -0.406908 0)
(4.07125 -0.406911 0)
(4.07136 -0.406919 0)
(4.07141 -0.406923 0)
(4.0715 -0.406948 0)
(4.07162 -0.407 0)
(4.07171 -0.407021 0)
(4.07178 -0.407028 0)
(4.07184 -0.407029 0)
(4.07188 -0.40703 0)
(4.07199 -0.407031 0)
(4.07214 -0.407035 0)
(4.07224 -0.407022 0)
(4.0724 -0.406967 0)
(4.07256 -0.406927 0)
(4.07272 -0.406857 0)
(4.07288 -0.406751 0)
(4.07302 -0.406508 0)
(4.07309 -0.406026 0)
(4.073 -0.40487 0)
(4.07261 -0.40289 0)
(4.07164 -0.398145 0)
(4.06963 -0.390142 0)
(4.06656 -0.374638 0)
(4.06142 -0.350776 0)
(4.0559 -0.319474 0)
(4.04675 -0.270852 0)
(4.04192 -0.236242 0)
(4.03127 -0.171776 0)
(4.02954 -0.153694 0)
(4.02145 -0.0990868 0)
(4.02329 -0.0942905 0)
(4.01675 -0.0680223 0)
(4.01069 -0.0499534 0)
(4.00707 -0.0354545 0)
(4.00092 -0.0229829 0)
(3.99971 -0.0116571 0)
(3.99422 -0.00192823 0)
(3.98859 0.00849185 0)
(3.9886 0.00853968 0)
(3.98839 0.00571361 0)
(3.98719 -0.00048499 0)
(3.98675 -0.00437184 0)
(3.98669 -0.00768787 0)
(3.98696 -0.00650474 0)
(3.98748 -0.00269062 0)
(3.98844 0.00170049 0)
(3.98826 0.00287134 0)
(3.98804 0.00180592 0)
(3.9875 -0.000176489 0)
(3.98716 -0.00306162 0)
(3.98745 -0.00325923 0)
(3.98764 -0.00174795 0)
(3.98836 0.000437767 0)
(3.98833 0.000556983 0)
(3.98825 -6.11318e-05 0)
(3.98806 -0.001108 0)
(3.98827 -0.00120918 0)
(3.98835 -0.000635987 0)
(3.98835 0.000144302 0)
(3.9883 0.000736543 0)
(3.9883 0.000327376 0)
(3.98829 -8.15805e-05 0)
(3.98815 -0.000486038 0)
(3.98815 -0.000521832 0)
(3.98823 -0.000465154 0)
(3.98797 -0.00071434 0)
(3.988 -0.000725145 0)
(3.9882 -0.000390254 0)
(3.98828 -0.000169985 0)
(3.98827 -2.43161e-05 0)
(3.98827 0.000201847 0)
(3.98825 0.000345559 0)
(3.98829 0.000301303 0)
(4.07161 -0.407637 0)
(4.07165 -0.407631 0)
(4.07168 -0.407629 0)
(4.07172 -0.407631 0)
(4.07176 -0.407618 0)
(4.07179 -0.407588 0)
(4.07184 -0.407574 0)
(4.07189 -0.407575 0)
(4.07198 -0.407579 0)
(4.07203 -0.407575 0)
(4.07205 -0.407573 0)
(4.07213 -0.407577 0)
(4.07218 -0.407575 0)
(4.07222 -0.407563 0)
(4.07227 -0.407554 0)
(4.07234 -0.407549 0)
(4.0724 -0.407546 0)
(4.07243 -0.407548 0)
(4.07248 -0.407554 0)
(4.07254 -0.407554 0)
(4.0726 -0.407556 0)
(4.07267 -0.407563 0)
(4.07269 -0.407567 0)
(4.07275 -0.407562 0)
(4.07285 -0.407557 0)
(4.07293 -0.407551 0)
(4.07301 -0.407536 0)
(4.07309 -0.407506 0)
(4.07314 -0.407476 0)
(4.07318 -0.407469 0)
(4.07327 -0.40743 0)
(4.07336 -0.407397 0)
(4.07343 -0.407328 0)
(4.07346 -0.407232 0)
(4.07347 -0.407205 0)
(4.07348 -0.407179 0)
(4.07358 -0.407097 0)
(4.0737 -0.407015 0)
(4.07378 -0.40698 0)
(4.07386 -0.40693 0)
(4.07406 -0.406898 0)
(4.07419 -0.406893 0)
(4.07432 -0.406808 0)
(4.07441 -0.40678 0)
(4.07454 -0.406766 0)
(4.07475 -0.406732 0)
(4.07481 -0.406665 0)
(4.07486 -0.406505 0)
(4.07493 -0.4062 0)
(4.07496 -0.405584 0)
(4.07476 -0.404089 0)
(4.07403 -0.400801 0)
(4.07217 -0.39325 0)
(4.0691 -0.379807 0)
(4.06309 -0.352585 0)
(4.05724 -0.320592 0)
(4.04538 -0.259708 0)
(4.04154 -0.216275 0)
(4.02843 -0.131733 0)
(4.02547 -0.0938727 0)
(4.018 -0.038606 0)
(4.01219 -0.00778051 0)
(4.00999 0.0157893 0)
(4.00268 0.0380238 0)
(3.99659 0.0306135 0)
(3.99395 0.0116016 0)
(3.99162 0.000576005 0)
(3.99003 -0.0058616 0)
(3.99001 -0.00632892 0)
(3.99036 -0.0056711 0)
(3.99128 -0.000938183 0)
(3.99211 0.00606929 0)
(3.99173 0.00573346 0)
(3.99046 0.00357826 0)
(3.98924 -7.37593e-05 0)
(3.98878 -0.00250091 0)
(3.98883 -0.00275188 0)
(3.98926 -0.00137174 0)
(3.99007 0.000681741 0)
(3.98985 0.000932452 0)
(3.98946 0.000371094 0)
(3.98967 -0.0002774 0)
(3.98911 -0.000781147 0)
(3.98928 -0.000577999 0)
(3.98959 -0.000132486 0)
(3.98947 -4.3415e-05 0)
(3.98927 -0.000151481 0)
(3.9893 3.23369e-05 0)
(3.98936 9.43572e-05 0)
(3.9893 0.000173238 0)
(3.98949 -0.000386793 0)
(3.98954 -0.00075329 0)
(3.98958 -0.00048677 0)
(3.98984 -0.000397458 0)
(3.9901 -0.000159471 0)
(3.99017 0.000131527 0)
(3.99013 0.000443072 0)
(3.99013 0.000589016 0)
(3.99008 0.000607185 0)
(3.99009 0.000573549 0)
(4.07352 -0.407553 0)
(4.07356 -0.407544 0)
(4.0736 -0.407539 0)
(4.07362 -0.407532 0)
(4.07365 -0.407523 0)
(4.07367 -0.407507 0)
(4.07369 -0.407495 0)
(4.07373 -0.407487 0)
(4.07377 -0.407475 0)
(4.07379 -0.407474 0)
(4.07384 -0.407468 0)
(4.0739 -0.407464 0)
(4.07392 -0.407464 0)
(4.07393 -0.407455 0)
(4.07394 -0.407446 0)
(4.07395 -0.407434 0)
(4.074 -0.407426 0)
(4.07403 -0.407416 0)
(4.07405 -0.407395 0)
(4.07407 -0.407385 0)
(4.07413 -0.407382 0)
(4.07417 -0.407382 0)
(4.07422 -0.407374 0)
(4.07423 -0.40737 0)
(4.07427 -0.407371 0)
(4.07431 -0.407351 0)
(4.07436 -0.407327 0)
(4.07439 -0.407289 0)
(4.0744 -0.40727 0)
(4.07442 -0.407221 0)
(4.07444 -0.407176 0)
(4.07447 -0.407165 0)
(4.07452 -0.407135 0)
(4.07454 -0.407093 0)
(4.07456 -0.407076 0)
(4.07465 -0.406995 0)
(4.07477 -0.406899 0)
(4.07482 -0.40686 0)
(4.07485 -0.406833 0)
(4.07488 -0.406789 0)
(4.07497 -0.406737 0)
(4.07504 -0.406725 0)
(4.07511 -0.406709 0)
(4.07522 -0.406703 0)
(4.07531 -0.406707 0)
(4.07539 -0.406676 0)
(4.07545 -0.406611 0)
(4.07551 -0.406623 0)
(4.07567 -0.406603 0)
(4.0758 -0.406536 0)
(4.07575 -0.406365 0)
(4.07571 -0.406181 0)
(4.07566 -0.405998 0)
(4.07554 -0.405566 0)
(4.07519 -0.404193 0)
(4.07439 -0.400814 0)
(4.07229 -0.392253 0)
(4.06913 -0.377688 0)
(4.06208 -0.343037 0)
(4.05708 -0.313037 0)
(4.04406 -0.235691 0)
(4.04221 -0.210657 0)
(4.02916 -0.129429 0)
(4.03245 -0.11769 0)
(4.02171 -0.0767948 0)
(4.02472 -0.0603357 0)
(4.01203 -0.0350554 0)
(4.00582 -0.0191436 0)
(4.00351 -0.0111536 0)
(3.99513 0.00173095 0)
(3.9929 0.00678571 0)
(3.99176 0.00521558 0)
(3.98985 -0.000551442 0)
(3.98872 -0.00449031 0)
(3.98967 -0.00633845 0)
(3.98997 -0.00530837 0)
(3.99067 -0.00178185 0)
(3.99133 0.00163165 0)
(3.99129 0.00161475 0)
(3.99085 0.000692567 0)
(3.99008 -0.00210648 0)
(3.99048 -0.00192857 0)
(3.99052 -0.00106869 0)
(3.99074 7.80355e-05 0)
(3.99045 0.000201856 0)
(3.99045 7.98601e-06 0)
(3.99055 -0.000659754 0)
(3.99036 -0.000281227 0)
(3.99047 -3.17921e-05 0)
(3.99052 -4.6488e-05 0)
(3.99064 -0.000322543 0)
(3.99077 -0.00085176 0)
(3.991 -0.000866419 0)
(3.99124 -0.000451878 0)
(3.99141 -0.000118718 0)
(3.99143 8.29084e-05 0)
(3.99141 0.000156495 0)
(3.99138 0.000274512 0)
(3.99136 0.000425747 0)
(3.99134 0.000432807 0)
(4.07455 -0.407572 0)
(4.07456 -0.407558 0)
(4.07457 -0.407533 0)
(4.07458 -0.407517 0)
(4.07459 -0.407498 0)
(4.07459 -0.407488 0)
(4.0746 -0.407486 0)
(4.07461 -0.407478 0)
(4.07463 -0.407468 0)
(4.07466 -0.407464 0)
(4.07469 -0.40746 0)
(4.07472 -0.407444 0)
(4.07475 -0.407429 0)
(4.07478 -0.407428 0)
(4.0748 -0.407427 0)
(4.07481 -0.40742 0)
(4.07482 -0.407414 0)
(4.07483 -0.407404 0)
(4.07484 -0.407375 0)
(4.07484 -0.407348 0)
(4.07483 -0.407352 0)
(4.0748 -0.40735 0)
(4.07481 -0.40732 0)
(4.07484 -0.407284 0)
(4.07484 -0.407265 0)
(4.07486 -0.407231 0)
(4.07488 -0.407221 0)
(4.0749 -0.40721 0)
(4.07494 -0.407135 0)
(4.07497 -0.407066 0)
(4.07501 -0.407049 0)
(4.07507 -0.407023 0)
(4.07513 -0.406986 0)
(4.07521 -0.407004 0)
(4.07526 -0.407069 0)
(4.07543 -0.406891 0)
(4.07558 -0.406693 0)
(4.07562 -0.406636 0)
(4.07565 -0.406557 0)
(4.07568 -0.406464 0)
(4.07568 -0.406388 0)
(4.07564 -0.406364 0)
(4.07559 -0.40639 0)
(4.07562 -0.406464 0)
(4.07566 -0.406493 0)
(4.07571 -0.406497 0)
(4.07575 -0.406501 0)
(4.07585 -0.406545 0)
(4.07603 -0.40649 0)
(4.07606 -0.406457 0)
(4.07606 -0.406412 0)
(4.07599 -0.406376 0)
(4.07593 -0.406363 0)
(4.07589 -0.406368 0)
(4.07588 -0.406302 0)
(4.07587 -0.406211 0)
(4.07583 -0.406032 0)
(4.07567 -0.405539 0)
(4.07511 -0.40378 0)
(4.07383 -0.398778 0)
(4.0704 -0.385159 0)
(4.06629 -0.363281 0)
(4.05458 -0.30636 0)
(4.05239 -0.270222 0)
(4.03062 -0.149977 0)
(4.04021 -0.131134 0)
(4.01784 -0.0246781 0)
(4.02166 -0.0202501 0)
(4.00769 0.0313313 0)
(4.00042 0.030744 0)
(3.99441 0.015261 0)
(3.99304 0.00217627 0)
(3.99073 -0.00699411 0)
(3.99088 -0.00707038 0)
(3.99145 -0.00492875 0)
(3.99268 -0.000329235 0)
(3.99379 0.00603205 0)
(3.99351 0.00526763 0)
(3.99231 0.00198444 0)
(3.99146 -0.00213616 0)
(3.99131 -0.00245128 0)
(3.99157 -0.00156185 0)
(3.99237 0.000342569 0)
(3.99229 0.000711776 0)
(3.99195 0.000176857 0)
(3.99197 -0.000389133 0)
(3.99179 -0.000759215 0)
(3.99169 -0.000372865 0)
(3.99196 6.56119e-05 0)
(3.99194 -1.81278e-05 0)
(3.99189 -0.000620044 0)
(3.99198 -0.000786555 0)
(3.99213 -0.000604795 0)
(3.99218 -0.000174444 0)
(3.99208 -1.50968e-05 0)
(3.99211 4.82992e-05 0)
(3.99209 0.000192427 0)
(3.99204 0.000298105 0)
(3.99202 0.000334163 0)
(3.99195 0.000455021 0)
(4.07522 -0.407419 0)
(4.07525 -0.407393 0)
(4.07527 -0.407385 0)
(4.07529 -0.407377 0)
(4.07531 -0.407349 0)
(4.07531 -0.407328 0)
(4.07533 -0.407333 0)
(4.07534 -0.407347 0)
(4.07539 -0.4073 0)
(4.07542 -0.407248 0)
(4.07544 -0.407234 0)
(4.07545 -0.407243 0)
(4.07546 -0.407281 0)
(4.07548 -0.407296 0)
(4.07549 -0.407262 0)
(4.0755 -0.407236 0)
(4.07551 -0.40723 0)
(4.07553 -0.407197 0)
(4.07555 -0.407157 0)
(4.07558 -0.407102 0)
(4.07558 -0.407074 0)
(4.07559 -0.407072 0)
(4.07563 -0.407017 0)
(4.07565 -0.406967 0)
(4.07564 -0.406947 0)
(4.07564 -0.40693 0)
(4.07562 -0.406951 0)
(4.07563 -0.406938 0)
(4.07568 -0.406847 0)
(4.0757 -0.406814 0)
(4.07571 -0.406841 0)
(4.07576 -0.406784 0)
(4.07583 -0.406695 0)
(4.0759 -0.406689 0)
(4.07595 -0.406704 0)
(4.07598 -0.406675 0)
(4.07602 -0.406573 0)
(4.07604 -0.406459 0)
(4.07601 -0.406363 0)
(4.07594 -0.40628 0)
(4.07591 -0.406204 0)
(4.07591 -0.406164 0)
(4.07586 -0.40617 0)
(4.07585 -0.406227 0)
(4.07585 -0.406275 0)
(4.07588 -0.406287 0)
(4.07594 -0.406283 0)
(4.07607 -0.406353 0)
(4.0761 -0.406381 0)
(4.07612 -0.40641 0)
(4.07608 -0.406451 0)
(4.07599 -0.406554 0)
(4.07597 -0.406654 0)
(4.07597 -0.406685 0)
(4.07598 -0.406676 0)
(4.07601 -0.406643 0)
(4.07598 -0.406538 0)
(4.07589 -0.406449 0)
(4.07579 -0.40643 0)
(4.07557 -0.406552 0)
(4.07529 -0.406482 0)
(4.07492 -0.405209 0)
(4.07396 -0.401429 0)
(4.07167 -0.38965 0)
(4.06616 -0.365777 0)
(4.05921 -0.324043 0)
(4.04627 -0.251496 0)
(4.04264 -0.208749 0)
(4.02803 -0.115057 0)
(4.03551 -0.111448 0)
(4.01902 -0.0637403 0)
(4.01599 -0.0455948 0)
(4.00769 -0.0245619 0)
(4.0045 -0.0110615 0)
(3.99354 0.00296457 0)
(3.99502 0.00586841 0)
(3.99402 0.00358222 0)
(3.99219 -0.000890101 0)
(3.99178 -0.00509649 0)
(3.99192 -0.00476444 0)
(3.99257 -0.0026093 0)
(3.99357 0.000777709 0)
(3.99357 0.00094897 0)
(3.99333 0.000350287 0)
(3.99296 -0.00200032 0)
(3.993 -0.00154857 0)
(3.993 -0.000951732 0)
(3.99312 -0.00011199 0)
(3.99304 -9.48251e-05 0)
(3.99294 -0.000946585 0)
(3.99263 -0.000888106 0)
(3.99276 -0.000658587 0)
(3.99288 -0.000106017 0)
(3.99279 3.25967e-05 0)
(3.9926 -8.71562e-06 0)
(3.99261 2.2755e-05 0)
(3.99251 0.000122796 0)
(3.99244 0.00016177 0)
(3.99234 0.000166696 0)
(3.99222 0.000387591 0)
(4.07578 -0.40724 0)
(4.07578 -0.407222 0)
(4.07578 -0.407196 0)
(4.07578 -0.407184 0)
(4.07578 -0.407198 0)
(4.0758 -0.407185 0)
(4.07585 -0.407139 0)
(4.07586 -0.407119 0)
(4.07587 -0.40709 0)
(4.0759 -0.407054 0)
(4.0759 -0.407024 0)
(4.0759 -0.407023 0)
(4.07591 -0.407012 0)
(4.07593 -0.406972 0)
(4.07593 -0.406933 0)
(4.07592 -0.40693 0)
(4.07593 -0.406908 0)
(4.07595 -0.40687 0)
(4.07595 -0.406817 0)
(4.07596 -0.406775 0)
(4.07597 -0.406763 0)
(4.07597 -0.406765 0)
(4.07598 -0.406765 0)
(4.07598 -0.406775 0)
(4.07598 -0.40681 0)
(4.07598 -0.406828 0)
(4.07599 -0.406832 0)
(4.07599 -0.406835 0)
(4.07599 -0.40683 0)
(4.07599 -0.406792 0)
(4.07598 -0.406781 0)
(4.07596 -0.406826 0)
(4.07601 -0.406764 0)
(4.0761 -0.406616 0)
(4.07611 -0.406579 0)
(4.07613 -0.406525 0)
(4.07614 -0.406488 0)
(4.07614 -0.406398 0)
(4.07608 -0.406315 0)
(4.07601 -0.406253 0)
(4.07598 -0.406221 0)
(4.07595 -0.406201 0)
(4.07592 -0.406165 0)
(4.07592 -0.406122 0)
(4.07593 -0.406095 0)
(4.07593 -0.406086 0)
(4.07596 -0.406113 0)
(4.07599 -0.40621 0)
(4.07598 -0.406259 0)
(4.07592 -0.406322 0)
(4.07579 -0.406451 0)
(4.07564 -0.406649 0)
(4.07563 -0.406812 0)
(4.07576 -0.40691 0)
(4.07586 -0.406923 0)
(4.07594 -0.406886 0)
(4.07598 -0.406751 0)
(4.07583 -0.406628 0)
(4.07568 -0.406593 0)
(4.07531 -0.406703 0)
(4.07507 -0.406896 0)
(4.07511 -0.407038 0)
(4.07524 -0.407007 0)
(4.07532 -0.406706 0)
(4.07506 -0.405428 0)
(4.07398 -0.40123 0)
(4.07072 -0.388502 0)
(4.06495 -0.359805 0)
(4.05234 -0.301937 0)
(4.04615 -0.234662 0)
(4.02816 -0.123956 0)
(4.02582 -0.0751507 0)
(4.01507 -0.0110765 0)
(4.00837 0.0208256 0)
(4.00341 0.0341328 0)
(3.99667 0.0111971 0)
(3.99379 -0.00179834 0)
(3.99283 -0.00580741 0)
(3.99321 -0.00571099 0)
(3.99503 -0.00174087 0)
(3.99612 0.00529332 0)
(3.99587 0.00456663 0)
(3.99482 0.00190901 0)
(3.99364 -0.0014316 0)
(3.99351 -0.00187773 0)
(3.99368 -0.00120428 0)
(3.99391 0.000296148 0)
(3.99378 0.00013733 0)
(3.99337 -0.000674847 0)
(3.99302 -0.00143235 0)
(3.99303 -0.00102218 0)
(3.99324 1.20575e-05 0)
(3.99312 0.000432336 0)
(3.99298 0.000233895 0)
(3.99283 2.75859e-05 0)
(3.99281 9.55137e-05 0)
(3.99267 0.000229018 0)
(3.99266 0.00016873 0)
(3.99255 0.000144033 0)
(3.99239 0.000344683 0)
(4.07575 -0.40718 0)
(4.07572 -0.407171 0)
(4.07571 -0.407135 0)
(4.07571 -0.407105 0)
(4.07573 -0.407145 0)
(4.07572 -0.407206 0)
(4.0758 -0.407146 0)
(4.07585 -0.407018 0)
(4.07583 -0.406988 0)
(4.07582 -0.406955 0)
(4.07582 -0.406906 0)
(4.07583 -0.4069 0)
(4.07582 -0.406898 0)
(4.07585 -0.406853 0)
(4.07587 -0.406822 0)
(4.07588 -0.406814 0)
(4.07587 -0.406788 0)
(4.07587 -0.406767 0)
(4.07587 -0.406765 0)
(4.07586 -0.406751 0)
(4.07586 -0.406711 0)
(4.07586 -0.406683 0)
(4.07585 -0.406688 0)
(4.07584 -0.406707 0)
(4.07584 -0.406712 0)
(4.07585 -0.406728 0)
(4.07586 -0.406752 0)
(4.07585 -0.406759 0)
(4.07584 -0.406759 0)
(4.07585 -0.406778 0)
(4.07585 -0.406793 0)
(4.07587 -0.406828 0)
(4.07591 -0.406835 0)
(4.07594 -0.406835 0)
(4.07596 -0.406813 0)
(4.07599 -0.406781 0)
(4.07602 -0.406737 0)
(4.07602 -0.406664 0)
(4.07601 -0.406616 0)
(4.07594 -0.406554 0)
(4.07589 -0.406531 0)
(4.07587 -0.4065 0)
(4.07584 -0.406472 0)
(4.07583 -0.406424 0)
(4.07585 -0.406363 0)
(4.07586 -0.406325 0)
(4.07585 -0.40632 0)
(4.07581 -0.406338 0)
(4.07575 -0.40635 0)
(4.07563 -0.406378 0)
(4.0754 -0.40651 0)
(4.07519 -0.406764 0)
(4.07519 -0.406973 0)
(4.07538 -0.407097 0)
(4.07561 -0.407133 0)
(4.0757 -0.407119 0)
(4.07577 -0.406919 0)
(4.07577 -0.406765 0)
(4.07553 -0.406749 0)
(4.07503 -0.406743 0)
(4.07481 -0.406915 0)
(4.07486 -0.407135 0)
(4.07501 -0.407185 0)
(4.07526 -0.407048 0)
(4.07526 -0.4069 0)
(4.07518 -0.40679 0)
(4.07499 -0.406414 0)
(4.0745 -0.404867 0)
(4.07291 -0.398954 0)
(4.06936 -0.382942 0)
(4.06088 -0.342504 0)
(4.05201 -0.289004 0)
(4.03686 -0.197394 0)
(4.03152 -0.149936 0)
(4.02346 -0.0906117 0)
(4.03124 -0.0694208 0)
(4.01126 -0.0347218 0)
(4.0042 -0.0177563 0)
(4.00184 -0.00660277 0)
(3.99804 0.00272356 0)
(3.99668 0.00257681 0)
(3.99361 -0.000624143 0)
(3.99266 -0.00537008 0)
(3.99279 -0.00410401 0)
(3.99323 -0.00232092 0)
(3.99369 0.000424339 0)
(3.99362 0.000412453 0)
(3.99316 -0.00111914 0)
(3.99251 -0.00250307 0)
(3.99261 -0.00179404 0)
(3.99296 -0.000601956 0)
(3.99301 0.000513373 0)