/*--------------------------------*- C++ -*----------------------------------*\
  =========                 |
  \\      /  F ield         | OpenFOAM: The Open Source CFD Toolbox
   \\    /   O peration     | Website:  https://openfoam.org
    \\  /    A nd           | Version:  7
     \\/     M anipulation  |
\*---------------------------------------------------------------------------*/
FoamFile
{
    version     2.0;
    format      ascii;
    class       volScalarField;
    location    "7";
    object      rho;
}
// * * * * * * * * * * * * * * * * * * * * * * * * * * * * * * * * * * * * * //

dimensions      [1 -3 0 0 0 0 0];

internalField   nonuniform List<scalar> 
90000
(
1.13295
1.13179
1.13211
1.1331
1.13344
1.13447
1.13762
1.14078
1.14249
1.14464
1.1473
1.15053
1.15325
1.15618
1.15913
1.16238
1.16567
1.16913
1.17287
1.17636
1.18024
1.18392
1.18821
1.19242
1.19687
1.20161
1.20666
1.21274
1.21911
1.22665
1.23489
1.24374
1.25234
1.2608
1.26898
1.27623
1.2833
1.28867
1.29421
1.29853
1.30122
1.30444
1.30806
1.31254
1.31215
1.30829
1.29665
1.28362
1.27214
1.26362
1.25967
1.26141
1.26592
1.27201
1.27755
1.28284
1.28711
1.29041
1.29179
1.29273
1.29205
1.28921
1.28386
1.27767
1.2722
1.27114
1.27242
1.27615
1.28191
1.28789
1.29284
1.2926
1.29056
1.28519
1.27987
1.27708
1.27838
1.28139
1.28496
1.28838
1.28936
1.28791
1.28574
1.28346
1.28502
1.28846
1.2916
1.29128
1.28929
1.28815
1.28843
1.29038
1.29148
1.2908
1.28887
1.28896
1.28962
1.29198
1.29268
1.29197
1.13599
1.13623
1.13653
1.13685
1.13717
1.13741
1.13762
1.13835
1.13945
1.14114
1.1433
1.14577
1.14822
1.15081
1.15359
1.15666
1.15975
1.16286
1.16607
1.16943
1.17266
1.17612
1.17974
1.18359
1.18748
1.19144
1.1958
1.20051
1.20566
1.2113
1.21757
1.22469
1.23208
1.24014
1.24862
1.25708
1.2664
1.27476
1.28337
1.29128
1.29857
1.30385
1.3091
1.31288
1.31433
1.31511
1.31502
1.31707
1.31647
1.31278
1.30547
1.29789
1.29208
1.28843
1.28546
1.28573
1.2868
1.28957
1.2924
1.29621
1.30033
1.30387
1.30668
1.30508
1.30083
1.29488
1.29011
1.28667
1.287
1.28849
1.29245
1.29696
1.30292
1.3026
1.29982
1.29419
1.28991
1.28819
1.29
1.29483
1.3002
1.30066
1.29855
1.29585
1.29567
1.29665
1.29898
1.30043
1.2997
1.29828
1.29828
1.2991
1.29968
1.29962
1.29839
1.2978
1.29823
1.29973
1.30051
1.30001
1.14047
1.14051
1.14059
1.14062
1.14066
1.14066
1.14064
1.14066
1.14075
1.14084
1.14097
1.14119
1.14151
1.14195
1.14248
1.14312
1.14388
1.14484
1.14602
1.14733
1.14915
1.15127
1.15371
1.15654
1.15949
1.16256
1.16571
1.16937
1.17311
1.17728
1.18145
1.18635
1.19155
1.19752
1.20387
1.21142
1.21936
1.22836
1.23836
1.24807
1.25961
1.26976
1.28109
1.2903
1.29998
1.30754
1.31459
1.31841
1.32101
1.32221
1.32441
1.32771
1.32835
1.32695
1.3227
1.31646
1.3105
1.30624
1.30354
1.30369
1.30522
1.30824
1.31172
1.31548
1.31992
1.3195
1.31658
1.30944
1.302
1.29717
1.29756
1.30075
1.3063
1.31153
1.31612
1.31471
1.30881
1.30314
1.30113
1.3026
1.30621
1.30993
1.31251
1.31084
1.30774
1.3058
1.30693
1.30929
1.31118
1.3099
1.30809
1.30821
1.30922
1.30966
1.30899
1.30727
1.30704
1.30779
1.3092
1.30895
1.14594
1.14589
1.14587
1.14586
1.14588
1.14595
1.14599
1.146
1.14602
1.14602
1.14601
1.14602
1.14606
1.1462
1.14635
1.14647
1.14665
1.14702
1.14758
1.14833
1.14845
1.14858
1.14887
1.14933
1.14985
1.15041
1.15105
1.15187
1.15291
1.15414
1.15553
1.15772
1.16041
1.16368
1.16735
1.17181
1.17675
1.18282
1.18938
1.19747
1.20627
1.217
1.22808
1.24127
1.25456
1.26847
1.28418
1.29619
1.30839
1.31841
1.32356
1.32685
1.32878
1.32852
1.32813
1.32729
1.32595
1.32324
1.31963
1.31566
1.31452
1.31505
1.31639
1.31844
1.32038
1.32079
1.32018
1.31952
1.31757
1.31397
1.31055
1.30892
1.3098
1.31185
1.31562
1.31809
1.32126
1.32039
1.31677
1.31267
1.31141
1.31328
1.31656
1.32058
1.31998
1.31721
1.31445
1.31491
1.31669
1.3188
1.31776
1.31619
1.3164
1.31716
1.31721
1.31603
1.31479
1.31507
1.31612
1.31634
1.1521
1.15213
1.15214
1.15216
1.15225
1.15233
1.15232
1.15228
1.15229
1.15238
1.15252
1.1526
1.15269
1.15277
1.15277
1.15277
1.15284
1.15308
1.15316
1.15319
1.15322
1.15335
1.15351
1.1536
1.15372
1.15389
1.15413
1.15445
1.15488
1.15536
1.15602
1.1562
1.1564
1.15667
1.15703
1.15753
1.15828
1.15966
1.1615
1.16413
1.16732
1.17188
1.17722
1.1845
1.19288
1.20377
1.21593
1.23056
1.24565
1.26192
1.27811
1.28973
1.30274
1.30956
1.31686
1.32047
1.32329
1.32442
1.3253
1.3276
1.32812
1.32724
1.32544
1.324
1.32213
1.32045
1.31971
1.32042
1.32212
1.32393
1.32342
1.32077
1.31707
1.31431
1.31485
1.31777
1.32148
1.32333
1.32463
1.32304
1.31994
1.31753
1.31831
1.32056
1.32241
1.32381
1.32225
1.32018
1.32002
1.32109
1.32314
1.32251
1.32141
1.32092
1.32132
1.32119
1.32027
1.31954
1.31983
1.32053
1.15718
1.15718
1.15721
1.15729
1.15741
1.15749
1.1575
1.1575
1.15753
1.1576
1.1577
1.15775
1.15776
1.15776
1.15779
1.15783
1.15793
1.15802
1.15802
1.15793
1.15791
1.15791
1.15786
1.15768
1.15745
1.15743
1.15746
1.15749
1.1575
1.15744
1.15739
1.15741
1.15755
1.15775
1.1579
1.15807
1.15845
1.15844
1.15845
1.15852
1.15875
1.15918
1.15995
1.16122
1.16305
1.1659
1.16972
1.17574
1.18335
1.19441
1.20744
1.224
1.24098
1.25967
1.27734
1.29248
1.3056
1.31753
1.32348
1.32675
1.32713
1.32641
1.3251
1.32202
1.31822
1.31842
1.32028
1.32236
1.32401
1.32451
1.32425
1.32374
1.32246
1.32023
1.31824
1.31912
1.32037
1.32303
1.32461
1.32486
1.32472
1.32324
1.32096
1.3211
1.32211
1.3237
1.3244
1.32419
1.32329
1.32266
1.32334
1.32431
1.32489
1.32416
1.32343
1.32337
1.32315
1.32242
1.32205
1.32257
1.16132
1.16143
1.16152
1.16164
1.16173
1.16174
1.16169
1.16154
1.16147
1.16148
1.16155
1.16156
1.16151
1.16149
1.16148
1.16147
1.16148
1.16157
1.16167
1.16167
1.16166
1.16161
1.16148
1.16131
1.16104
1.16074
1.16056
1.16045
1.16042
1.16037
1.16017
1.15991
1.1598
1.15973
1.15951
1.15928
1.1592
1.15913
1.15898
1.1588
1.15881
1.15891
1.15905
1.1591
1.15905
1.15885
1.15888
1.15908
1.1598
1.16153
1.16452
1.16994
1.17774
1.19026
1.2043
1.22287
1.24193
1.2606
1.27807
1.29159
1.30271
1.30823
1.31206
1.3137
1.31762
1.32143
1.32491
1.32531
1.32507
1.32397
1.32186
1.32155
1.32173
1.32318
1.32309
1.32232
1.32154
1.3216
1.3222
1.3237
1.32454
1.32511
1.32427
1.32267
1.32236
1.32283
1.32408
1.32474
1.32474
1.32419
1.32375
1.32416
1.3248
1.32518
1.32481
1.32448
1.32424
1.32373
1.32306
1.32334
1.16134
1.16134
1.16136
1.16158
1.16178
1.16183
1.16186
1.16187
1.16192
1.16207
1.16222
1.16228
1.16231
1.16233
1.16235
1.16236
1.16242
1.16247
1.16247
1.16246
1.16244
1.16238
1.1623
1.16222
1.16212
1.162
1.1619
1.16184
1.16178
1.16174
1.16166
1.16155
1.16148
1.16142
1.1613
1.16106
1.16085
1.16071
1.16053
1.1601
1.1594
1.159
1.15885
1.15873
1.15855
1.15834
1.15806
1.15779
1.15754
1.15702
1.15648
1.15654
1.15703
1.15861
1.16194
1.16809
1.17776
1.19147
1.20927
1.22951
1.24949
1.27134
1.2889
1.303
1.31508
1.31941
1.32281
1.32322
1.32187
1.31723
1.31745
1.31879
1.32174
1.32473
1.32505
1.32465
1.32333
1.32098
1.32096
1.32151
1.32349
1.32482
1.32471
1.3241
1.3229
1.32269
1.32318
1.32432
1.32456
1.32449
1.32414
1.32417
1.32443
1.32496
1.32514
1.32504
1.32479
1.32435
1.32361
1.32348
1.16092
1.16094
1.161
1.1611
1.1612
1.16127
1.16132
1.16138
1.16148
1.16163
1.16177
1.16187
1.16193
1.16196
1.16198
1.16199
1.16203
1.16207
1.16208
1.16207
1.16203
1.16196
1.16189
1.16182
1.16174
1.16163
1.16153
1.16146
1.1614
1.16135
1.16125
1.16109
1.16097
1.16086
1.16065
1.1603
1.15999
1.15973
1.15944
1.1594
1.15948
1.1595
1.15945
1.15934
1.15914
1.15883
1.15844
1.15791
1.15715
1.15642
1.15603
1.15589
1.15577
1.15547
1.15492
1.15498
1.15577
1.15804
1.16275
1.17112
1.1842
1.20079
1.22203
1.2443
1.26659
1.28145
1.295
1.3032
1.30894
1.31221
1.31899
1.32237
1.32472
1.32519
1.32455
1.3228
1.3216
1.32065
1.32096
1.3219
1.32266
1.32344
1.3235
1.3233
1.3234
1.32329
1.3234
1.3235
1.32388
1.32412
1.32418
1.32415
1.32419
1.32446
1.3249
1.32517
1.32506
1.32471
1.32409
1.32357
1.16001
1.16007
1.16012
1.16017
1.16021
1.16026
1.16033
1.16042
1.16052
1.1606
1.16066
1.16072
1.16079
1.16084
1.16085
1.16083
1.16082
1.16079
1.16072
1.1606
1.1605
1.16049
1.16049
1.16047
1.16041
1.16031
1.16021
1.16013
1.16004
1.15984
1.15943
1.15925
1.15919
1.15907
1.15876
1.15842
1.15823
1.15806
1.1578
1.15751
1.15742
1.15741
1.15739
1.15734
1.15733
1.15729
1.15713
1.15677
1.15643
1.15637
1.15621
1.15602
1.15572
1.15522
1.15465
1.1543
1.15424
1.15429
1.15457
1.15554
1.15763
1.16181
1.16933
1.18215
1.19965
1.22271
1.24803
1.26856
1.29234
1.30784
1.31713
1.31993
1.32305
1.32204
1.31819
1.31836
1.3198
1.32158
1.3226
1.32265
1.32191
1.32091
1.32144
1.32224
1.32346
1.32374
1.32358
1.32313
1.32321
1.32357
1.32398
1.324
1.32395
1.32401
1.32447
1.32498
1.32494
1.32482
1.32446
1.32378
1.15794
1.15801
1.15805
1.15809
1.1581
1.15808
1.15809
1.15817
1.15828
1.15835
1.15841
1.15846
1.15846
1.15845
1.15845
1.15845
1.15843
1.15834
1.15814
1.15808
1.1581
1.15809
1.15802
1.15795
1.15796
1.15801
1.15803
1.15803
1.15795
1.15767
1.15752
1.15755
1.15755
1.15739
1.15703
1.15674
1.15658
1.15641
1.15606
1.15568
1.15553
1.15553
1.15556
1.15565
1.15586
1.15608
1.15608
1.15597
1.1559
1.15591
1.15604
1.15607
1.156
1.15575
1.15518
1.15441
1.15412
1.15415
1.15437
1.15483
1.1554
1.15591
1.15645
1.15828
1.16196
1.17096
1.18391
1.20525
1.2286
1.25306
1.27692
1.2887
1.30279
1.30697
1.31367
1.31908
1.32309
1.32351
1.32325
1.32123
1.31988
1.32009
1.3211
1.32274
1.3235
1.32338
1.323
1.32295
1.32314
1.32359
1.32379
1.32374
1.32373
1.32388
1.32416
1.3247
1.3248
1.32487
1.32485
1.32433
1.15595
1.15595
1.15596
1.156
1.156
1.15594
1.15583
1.15581
1.1558
1.1558
1.15583
1.15587
1.15591
1.15594
1.15594
1.15591
1.15585
1.15583
1.15582
1.15578
1.15575
1.15576
1.15577
1.15576
1.15578
1.15588
1.15596
1.15598
1.15596
1.15588
1.15587
1.15591
1.15588
1.1556
1.15543
1.15538
1.15533
1.15518
1.15486
1.15457
1.15437
1.1543
1.15431
1.15439
1.15456
1.15476
1.15494
1.15503
1.15516
1.15543
1.15586
1.1563
1.15641
1.15636
1.15605
1.15539
1.15487
1.15482
1.15495
1.15539
1.15613
1.1568
1.15726
1.15715
1.15714
1.15755
1.15931
1.16487
1.17406
1.19236
1.21338
1.2407
1.26636
1.28788
1.30924
1.31735
1.32098
1.32182
1.31878
1.31645
1.3184
1.32135
1.32316
1.32312
1.32284
1.32208
1.32234
1.32309
1.32371
1.32366
1.32356
1.32354
1.32362
1.32397
1.32425
1.32443
1.32474
1.32511
1.32524
1.3249
1.15483
1.15474
1.15465
1.15456
1.15444
1.15429
1.15419
1.15412
1.15406
1.15402
1.154
1.15398
1.15397
1.15397
1.15396
1.15396
1.15396
1.15399
1.15401
1.15397
1.15393
1.15393
1.15395
1.15396
1.15398
1.15408
1.1542
1.1543
1.15438
1.15442
1.15442
1.1544
1.15425
1.15406
1.15406
1.15414
1.15414
1.15405
1.15384
1.15358
1.15326
1.15305
1.153
1.15301
1.15309
1.1533
1.15361
1.15387
1.15416
1.15469
1.15561
1.15642
1.1567
1.15666
1.15641
1.15593
1.15541
1.15531
1.15548
1.15601
1.15687
1.15774
1.15822
1.15817
1.15799
1.158
1.15794
1.15809
1.159
1.16223
1.16879
1.18301
1.20144
1.22805
1.25347
1.27646
1.29292
1.30389
1.30896
1.3163
1.32341
1.32416
1.32382
1.32155
1.32105
1.32164
1.32323
1.3244
1.32431
1.32391
1.32353
1.32364
1.32403
1.32443
1.32442
1.32452
1.32497
1.32573
1.32575
1.32554
1.15478
1.15469
1.15459
1.15448
1.15438
1.15428
1.15421
1.15415
1.15409
1.154
1.15393
1.15389
1.15387
1.15387
1.15386
1.15385
1.15385
1.15386
1.15387
1.15384
1.15376
1.15374
1.15374
1.15375
1.15376
1.1538
1.15385
1.15393
1.15404
1.15409
1.15414
1.15416
1.15411
1.15405
1.15408
1.15414
1.15413
1.15406
1.15387
1.15359
1.15321
1.15287
1.15268
1.15262
1.15264
1.15286
1.15309
1.15321
1.1534
1.15388
1.15483
1.15594
1.1565
1.1565
1.15642
1.15621
1.15576
1.15553
1.15574
1.15637
1.15718
1.15793
1.15836
1.15836
1.15835
1.15837
1.15836
1.15827
1.15824
1.15842
1.1592
1.16135
1.16602
1.17673
1.19346
1.21925
1.24797
1.27492
1.29988
1.3146
1.32101
1.32273
1.31976
1.31726
1.31949
1.3231
1.32474
1.32456
1.32405
1.32376
1.32408
1.3246
1.32478
1.32464
1.32468
1.32509
1.32572
1.32613
1.32624
1.32625
1.15547
1.15538
1.15529
1.15519
1.1551
1.15503
1.15495
1.15487
1.15478
1.15467
1.15454
1.15439
1.15428
1.15424
1.15423
1.15422
1.15421
1.15421
1.15419
1.15416
1.15412
1.15406
1.15401
1.154
1.15401
1.15403
1.15406
1.15415
1.1542
1.1542
1.15425
1.15436
1.15441
1.15451
1.15474
1.15494
1.15498
1.15499
1.155
1.15493
1.15475
1.15444
1.15394
1.15349
1.1534
1.15345
1.1535
1.15354
1.15368
1.15416
1.15523
1.15646
1.15722
1.15738
1.15732
1.15714
1.15684
1.15648
1.15647
1.15677
1.15726
1.15781
1.15826
1.15831
1.1583
1.15836
1.15838
1.15832
1.15825
1.15832
1.15861
1.15888
1.15924
1.16048
1.16409
1.17281
1.18901
1.21307
1.2424
1.26928
1.28944
1.3028
1.30954
1.31719
1.32489
1.32517
1.32472
1.32302
1.32329
1.32449
1.32584
1.32587
1.32547
1.32488
1.32515
1.32599
1.32678
1.32673
1.32683
1.32715
1.15731
1.15725
1.15718
1.15711
1.15703
1.15695
1.15687
1.15677
1.15666
1.15653
1.15637
1.15619
1.15601
1.15585
1.15573
1.15564
1.15559
1.15552
1.15546
1.15542
1.15538
1.15532
1.1553
1.1553
1.1553
1.15535
1.15539
1.15535
1.15529
1.15529
1.15539
1.15554
1.15565
1.1558
1.15604
1.15632
1.15658
1.15683
1.15702
1.1571
1.1571
1.15701
1.15677
1.15637
1.15597
1.15564
1.15537
1.15529
1.15529
1.15546
1.15611
1.157
1.15757
1.15767
1.15758
1.15728
1.15701
1.1568
1.1567
1.15682
1.15711
1.15745
1.15771
1.15765
1.15766
1.15799
1.15829
1.15832
1.15831
1.15837
1.15862
1.15896
1.15946
1.15967
1.15987
1.1607
1.16365
1.17109
1.18633
1.21033
1.24051
1.27003
1.29913
1.3149
1.32286
1.32335
1.31863
1.31981
1.32259
1.3259
1.32629
1.32599
1.3252
1.32555
1.32667
1.32724
1.32723
1.32725
1.32749
1.32808
1.15878
1.15872
1.15867
1.15862
1.15857
1.15852
1.15848
1.15843
1.15838
1.15832
1.15824
1.15815
1.15805
1.15794
1.15783
1.15772
1.15758
1.1574
1.15721
1.15709
1.157
1.15692
1.15691
1.15692
1.15696
1.15705
1.15708
1.15705
1.15703
1.15704
1.15708
1.1571
1.15714
1.15721
1.15737
1.15767
1.15811
1.15866
1.15913
1.15936
1.15942
1.15943
1.15936
1.15909
1.15868
1.15817
1.1576
1.15719
1.15711
1.15722
1.15775
1.15811
1.15825
1.15827
1.15816
1.1578
1.15749
1.15728
1.15702
1.15699
1.15736
1.15766
1.15747
1.15718
1.15716
1.15746
1.15792
1.15814
1.15825
1.15837
1.15862
1.15905
1.15952
1.15994
1.1603
1.16036
1.16054
1.16134
1.16386
1.17103
1.1853
1.20984
1.23942
1.26887
1.29003
1.30467
1.311
1.32176
1.32663
1.32669
1.32602
1.32474
1.32518
1.32702
1.32837
1.3282
1.32766
1.32774
1.32828
1.32906
1.15945
1.15944
1.15944
1.15944
1.15944
1.15944
1.15945
1.1595
1.15953
1.15953
1.15953
1.15953
1.15951
1.15948
1.15943
1.15937
1.15927
1.15916
1.15906
1.15897
1.1589
1.15882
1.15873
1.15872
1.15876
1.15876
1.15875
1.15874
1.15875
1.15874
1.15868
1.15864
1.15864
1.15871
1.15895
1.15933
1.1598
1.16046
1.16095
1.16103
1.16104
1.16103
1.16094
1.16075
1.16042
1.15984
1.15918
1.15891
1.15888
1.15896
1.15934
1.15948
1.15948
1.15946
1.1593
1.15895
1.15845
1.15781
1.15735
1.15742
1.15808
1.1584
1.15818
1.15753
1.15738
1.15753
1.15798
1.15846
1.15884
1.15918
1.15947
1.15959
1.15968
1.15993
1.1603
1.16043
1.16043
1.16045
1.16069
1.16155
1.16429
1.17128
1.18629
1.21128
1.24213
1.27518
1.30435
1.31892
1.32508
1.32395
1.32021
1.32239
1.32643
1.32856
1.32844
1.32787
1.32808
1.32887
1.32925
1.3296
1.15974
1.15981
1.15986
1.1599
1.15992
1.15993
1.15995
1.15999
1.1601
1.16024
1.16028
1.1603
1.16032
1.16041
1.16045
1.16047
1.16049
1.16057
1.16071
1.16077
1.16078
1.16078
1.16074
1.16064
1.16045
1.16027
1.16025
1.16025
1.1602
1.16002
1.15988
1.15983
1.15982
1.15986
1.16005
1.1603
1.1605
1.16074
1.16111
1.1613
1.16132
1.16131
1.16128
1.16119
1.16091
1.16025
1.15976
1.1597
1.1597
1.15978
1.16016
1.16059
1.16075
1.16076
1.16069
1.16037
1.1595
1.15847
1.15822
1.1585
1.15926
1.1595
1.15931
1.15894
1.15889
1.15891
1.15899
1.15913
1.15941
1.15978
1.16
1.15999
1.15995
1.15998
1.16016
1.16033
1.16031
1.16027
1.16033
1.16061
1.16116
1.16232
1.16538
1.17274
1.18891
1.21484
1.24676
1.27714
1.29614
1.30973
1.31597
1.32691
1.32859
1.32827
1.32672
1.32724
1.32902
1.33032
1.33003
1.32996
1.16042
1.1605
1.16056
1.16063
1.16068
1.16071
1.16073
1.16076
1.16085
1.161
1.16116
1.16123
1.16127
1.16132
1.16138
1.16148
1.16171
1.16183
1.16186
1.1619
1.16193
1.16187
1.16177
1.16162
1.16129
1.16108
1.16111
1.1611
1.16088
1.1605
1.16037
1.16029
1.16023
1.16022
1.16026
1.16043
1.16058
1.1608
1.1611
1.16115
1.16115
1.1611
1.16089
1.16051
1.16018
1.15974
1.15957
1.15957
1.15957
1.15967
1.16005
1.16078
1.1615
1.16176
1.16172
1.16131
1.16024
1.15963
1.1597
1.16035
1.16088
1.16093
1.16106
1.16121
1.16118
1.16108
1.16085
1.16051
1.16038
1.16041
1.16044
1.16035
1.16014
1.16
1.15997
1.15999
1.16002
1.16002
1.16009
1.16029
1.16059
1.16101
1.16145
1.16244
1.16586
1.17369
1.19275
1.2208
1.25247
1.29196
1.31144
1.32498
1.32519
1.32241
1.32337
1.32654
1.32985
1.33024
1.33013
1.33039
1.16123
1.1613
1.16139
1.16149
1.16156
1.16162
1.16167
1.16176
1.1619
1.16198
1.16205
1.16216
1.16219
1.16219
1.16221
1.16237
1.16262
1.16267
1.16267
1.1627
1.1627
1.16261
1.16252
1.16227
1.16177
1.16168
1.16172
1.16167
1.16121
1.16073
1.16065
1.16058
1.16049
1.16044
1.16046
1.16058
1.16086
1.16112
1.1612
1.16124
1.16124
1.16116
1.16093
1.16033
1.1596
1.15943
1.15944
1.15949
1.15953
1.15965
1.16007
1.16096
1.16201
1.16272
1.16279
1.16249
1.16188
1.16149
1.1615
1.16173
1.16174
1.16166
1.16179
1.16242
1.16287
1.16288
1.16266
1.162
1.16149
1.16138
1.16122
1.16103
1.16074
1.16026
1.15992
1.15992
1.16
1.16022
1.16044
1.16069
1.16102
1.16141
1.16173
1.16197
1.16234
1.1634
1.16755
1.17622
1.1985
1.22675
1.25916
1.29214
1.30276
1.31401
1.32373
1.33013
1.32979
1.32908
1.32966
1.33074
1.16072
1.1608
1.16078
1.16079
1.16084
1.16084
1.16078
1.16061
1.16041
1.16023
1.16007
1.1599
1.15979
1.15985
1.16016
1.16051
1.16065
1.16075
1.1608
1.16079
1.16079
1.16087
1.16099
1.16094
1.16076
1.16072
1.16083
1.16083
1.16057
1.16032
1.16022
1.1601
1.16007
1.16014
1.16025
1.16037
1.16064
1.16107
1.1617
1.16203
1.16209
1.16209
1.16194
1.16121
1.16027
1.16006
1.16007
1.16021
1.16038
1.16058
1.16106
1.16175
1.16233
1.16284
1.16322
1.16323
1.16313
1.16301
1.16272
1.16219
1.16167
1.16143
1.16143
1.16203
1.16299
1.16312
1.16304
1.16249
1.1616
1.1613
1.16139
1.16161
1.16173
1.16159
1.16112
1.16086
1.16087
1.16093
1.16098
1.16104
1.16121
1.16135
1.16158
1.16174
1.16184
1.16193
1.16231
1.16364
1.16876
1.17964
1.206
1.23701
1.27243
1.30844
1.32071
1.32854
1.32396
1.32508
1.32784
1.33075
1.15756
1.15757
1.15789
1.15848
1.15859
1.15858
1.15855
1.15854
1.15855
1.15855
1.15846
1.15843
1.15855
1.15924
1.15996
1.16002
1.15998
1.15991
1.15976
1.15962
1.15962
1.15988
1.16026
1.16026
1.15984
1.15965
1.15968
1.15959
1.15949
1.15952
1.15951
1.1594
1.15938
1.15954
1.15995
1.16053
1.16116
1.16176
1.16235
1.16288
1.16337
1.1637
1.16365
1.1632
1.16256
1.16217
1.16198
1.16203
1.16213
1.16209
1.16224
1.16247
1.16249
1.16259
1.16312
1.16362
1.16367
1.16368
1.16357
1.16279
1.16137
1.16078
1.16074
1.16108
1.16228
1.16325
1.16327
1.1628
1.16184
1.16135
1.16138
1.16173
1.16242
1.16273
1.16265
1.16236
1.16211
1.16197
1.16183
1.16168
1.16158
1.16149
1.16151
1.16155
1.1616
1.16177
1.16184
1.16187
1.16232
1.16421
1.17099
1.18529
1.21562
1.24992
1.27935
1.30468
1.31263
1.32613
1.32899
1.33059
1.15368
1.15385
1.15405
1.15429
1.15459
1.15507
1.15574
1.15617
1.15622
1.15622
1.15621
1.15635
1.15718
1.15846
1.15869
1.15867
1.15825
1.15788
1.15786
1.15789
1.15789
1.15808
1.15817
1.15806
1.15792
1.15805
1.15871
1.1592
1.15913
1.159
1.15905
1.15936
1.15944
1.15934
1.15952
1.16054
1.1613
1.16141
1.1616
1.16205
1.16271
1.16318
1.1632
1.16294
1.16253
1.1623
1.16214
1.1621
1.1621
1.1621
1.16178
1.16105
1.16088
1.16103
1.16179
1.16294
1.16339
1.16352
1.16348
1.16264
1.161
1.16026
1.16025
1.16053
1.16138
1.16253
1.16312
1.16309
1.16272
1.16215
1.16192
1.162
1.16247
1.16305
1.16317
1.16309
1.16284
1.16264
1.16254
1.1624
1.16219
1.16192
1.1616
1.16148
1.16153
1.16163
1.16174
1.16195
1.16196
1.16202
1.16266
1.16536
1.17476
1.19405
1.22843
1.26462
1.29927
1.32272
1.32699
1.32496
1.15253
1.15252
1.15255
1.15262
1.15257
1.15254
1.15255
1.15251
1.15272
1.15335
1.15416
1.15617
1.1573
1.15739
1.15746
1.15782
1.15804
1.15781
1.15628
1.1549
1.15486
1.15495
1.15486
1.1544
1.15432
1.15475
1.15563
1.15649
1.15703
1.15728
1.15724
1.15696
1.15637
1.15599
1.15591
1.15561
1.15415
1.15323
1.15318
1.15337
1.15401
1.15517
1.15698
1.15917
1.16049
1.16068
1.16066
1.16045
1.15967
1.15868
1.15837
1.15845
1.15897
1.15968
1.15991
1.16011
1.16076
1.1616
1.16188
1.16181
1.1617
1.16169
1.16165
1.16164
1.16183
1.16247
1.16306
1.16325
1.16332
1.16325
1.16298
1.16267
1.16271
1.16304
1.16327
1.16324
1.16307
1.16293
1.16287
1.1628
1.16268
1.16248
1.16219
1.16186
1.16165
1.16168
1.1618
1.16207
1.16224
1.16234
1.16237
1.16255
1.16361
1.16808
1.18091
1.20572
1.24256
1.27632
1.29888
1.31651
1.1505
1.15034
1.15019
1.15004
1.14934
1.14883
1.14883
1.14862
1.14816
1.14813
1.14834
1.14986
1.15139
1.15161
1.15175
1.15227
1.15229
1.15133
1.14919
1.14853
1.14858
1.14925
1.14976
1.14974
1.14986
1.15058
1.15165
1.15267
1.15348
1.1537
1.15343
1.15324
1.15375
1.15428
1.15427
1.15374
1.15067
1.14492
1.1434
1.14352
1.14408
1.14531
1.14758
1.15088
1.15348
1.15402
1.15398
1.1542
1.15445
1.15417
1.15399
1.15426
1.15527
1.15664
1.15706
1.15711
1.1572
1.15753
1.15817
1.15953
1.16124
1.16161
1.16169
1.16175
1.16196
1.16224
1.16243
1.16282
1.16314
1.16316
1.163
1.16274
1.16271
1.16282
1.16303
1.16303
1.16286
1.1626
1.16246
1.1624
1.1624
1.16243
1.16237
1.16225
1.16215
1.1622
1.16237
1.16256
1.16261
1.16261
1.1625
1.16237
1.16242
1.16283
1.1649
1.17174
1.19037
1.21969
1.25889
1.30618
1.15133
1.15118
1.15083
1.14914
1.14849
1.1485
1.14823
1.14731
1.14691
1.14696
1.14798
1.14856
1.1484
1.14863
1.15019
1.15144
1.15141
1.15066
1.14983
1.14983
1.15027
1.15103
1.15131
1.15136
1.15151
1.15215
1.15315
1.15401
1.15445
1.15529
1.15809
1.15993
1.15989
1.15957
1.15939
1.15905
1.15709
1.15143
1.14586
1.14463
1.14498
1.14612
1.14809
1.14981
1.15131
1.15241
1.1532
1.15402
1.15467
1.15465
1.15449
1.15496
1.15658
1.15706
1.15694
1.15604
1.15429
1.15298
1.15287
1.15323
1.15456
1.1565
1.15807
1.15881
1.15891
1.15868
1.1585
1.15871
1.15968
1.16117
1.16187
1.16188
1.16153
1.16144
1.16161
1.16187
1.16199
1.16201
1.16206
1.16218
1.16241
1.16278
1.16287
1.16283
1.16288
1.16306
1.16313
1.16315
1.16314
1.16305
1.16277
1.16253
1.16253
1.16259
1.16273
1.16351
1.16692
1.17798
1.2002
1.2519
1.1754
1.17448
1.17225
1.17169
1.17165
1.17166
1.17201
1.17231
1.1722
1.1708
1.1699
1.1694
1.16802
1.16594
1.16481
1.16433
1.16408
1.16401
1.16343
1.16175
1.16157
1.16266
1.16296
1.16166
1.16055
1.16108
1.16133
1.16122
1.16101
1.16131
1.16457
1.1682
1.16992
1.17055
1.17065
1.17027
1.16848
1.16444
1.16006
1.15909
1.15921
1.15907
1.15764
1.15496
1.15398
1.15434
1.15536
1.15565
1.15514
1.15463
1.15461
1.15496
1.15546
1.15518
1.15491
1.15527
1.1554
1.15441
1.15144
1.15041
1.1504
1.15068
1.15163
1.15341
1.15466
1.15467
1.15435
1.15403
1.15434
1.15545
1.15696
1.15827
1.15897
1.15928
1.15958
1.1602
1.16098
1.16142
1.16168
1.16191
1.16231
1.16296
1.16311
1.16308
1.16314
1.16335
1.16339
1.16326
1.16316
1.16304
1.16301
1.16281
1.16272
1.16275
1.16284
1.16287
1.16304
1.1644
1.16944
1.20143
1.20783
1.20671
1.20646
1.20692
1.21026
1.21265
1.21266
1.21208
1.21183
1.21184
1.21228
1.21226
1.21042
1.20825
1.20819
1.20914
1.20933
1.20728
1.20276
1.19794
1.19515
1.19348
1.19211
1.19007
1.18668
1.18185
1.17628
1.17265
1.17189
1.17195
1.17256
1.17385
1.17601
1.17783
1.17798
1.17537
1.17004
1.16889
1.17043
1.17178
1.17187
1.17299
1.17364
1.17217
1.16845
1.16561
1.16468
1.16455
1.1636
1.159
1.15542
1.15512
1.15536
1.1555
1.1559
1.15728
1.16001
1.16079
1.15932
1.1558
1.15251
1.15191
1.15274
1.15407
1.15552
1.15611
1.15562
1.15469
1.15392
1.15356
1.1537
1.15468
1.15575
1.15585
1.15572
1.15583
1.15649
1.15745
1.1582
1.15883
1.15967
1.16094
1.16228
1.16258
1.16278
1.16314
1.16329
1.16325
1.16318
1.16299
1.16293
1.16297
1.16311
1.1631
1.163
1.16287
1.16268
1.16253
1.16294
1.17276
1.2628
1.26175
1.26119
1.2614
1.26183
1.26193
1.26193
1.26182
1.26085
1.2596
1.25816
1.2529
1.24848
1.2489
1.24992
1.2484
1.24603
1.24552
1.24434
1.24298
1.24293
1.2441
1.24508
1.24478
1.24279
1.23759
1.23365
1.23376
1.2352
1.23469
1.22983
1.22688
1.2273
1.22759
1.22606
1.21985
1.21324
1.20704
1.19962
1.19609
1.19612
1.19726
1.19682
1.19407
1.19406
1.19722
1.1975
1.19705
1.19541
1.1906
1.18477
1.18004
1.17377
1.16849
1.16754
1.16872
1.17202
1.17309
1.17247
1.1701
1.16624
1.1622
1.15983
1.1593
1.15946
1.16002
1.15992
1.15917
1.15658
1.15419
1.15401
1.15434
1.15491
1.15491
1.15464
1.15446
1.15463
1.15497
1.15542
1.15615
1.15702
1.1579
1.15934
1.16049
1.16098
1.16145
1.16233
1.16282
1.16273
1.16274
1.16284
1.16312
1.16334
1.16325
1.16312
1.16294
1.16254
1.16238
1.16247
1.16469
1.33467
1.33722
1.33774
1.33747
1.33726
1.33715
1.33587
1.33334
1.3329
1.33366
1.33374
1.33031
1.326
1.32361
1.32039
1.31954
1.31852
1.31331
1.30729
1.30575
1.30429
1.30325
1.30275
1.30066
1.29525
1.29286
1.29146
1.28722
1.28417
1.28327
1.28162
1.27717
1.27592
1.27561
1.27314
1.2716
1.27243
1.27184
1.26774
1.2619
1.25754
1.25418
1.25051
1.24398
1.23696
1.23344
1.23071
1.22385
1.21862
1.21881
1.222
1.22205
1.21491
1.2056
1.20423
1.20253
1.19475
1.1841
1.18274
1.18204
1.17951
1.17884
1.17868
1.17664
1.16972
1.16382
1.16364
1.16531
1.16548
1.16375
1.15963
1.15721
1.1569
1.15622
1.15614
1.15672
1.15714
1.15754
1.15844
1.15934
1.15889
1.15841
1.15788
1.15769
1.15778
1.15799
1.15897
1.16047
1.16136
1.16221
1.16254
1.1627
1.16277
1.16287
1.16297
1.16283
1.16273
1.16281
1.16309
1.16363
1.41098
1.4096
1.4057
1.40259
1.40126
1.40137
1.4029
1.40356
1.40328
1.40235
1.39996
1.39514
1.39267
1.39265
1.39234
1.39155
1.3888
1.38299
1.38094
1.38157
1.382
1.38035
1.37826
1.37613
1.37224
1.37071
1.37002
1.3685
1.36257
1.358
1.35767
1.356
1.35185
1.34786
1.34465
1.34185
1.33762
1.33247
1.3284
1.32312
1.31588
1.31446
1.31413
1.31236
1.30533
1.30219
1.29971
1.29465
1.28892
1.28285
1.27769
1.27362
1.26485
1.25499
1.25419
1.25555
1.25321
1.24511
1.23794
1.22936
1.21751
1.21358
1.21422
1.21421
1.21127
1.20257
1.19027
1.18348
1.18373
1.18414
1.18168
1.17687
1.17358
1.17059
1.1678
1.16614
1.16447
1.16275
1.16148
1.15962
1.15772
1.1564
1.15556
1.15531
1.15541
1.15596
1.15737
1.15873
1.15941
1.15985
1.16037
1.1607
1.16083
1.16139
1.16227
1.16301
1.16333
1.16362
1.1639
1.16401
1.49249
1.49176
1.49084
1.48859
1.48542
1.48464
1.48511
1.48583
1.48585
1.48524
1.48405
1.48052
1.47739
1.47583
1.47472
1.47342
1.47112
1.46742
1.4625
1.46089
1.45994
1.45635
1.45426
1.45369
1.45264
1.44837
1.4439
1.44245
1.44096
1.43775
1.43306
1.42921
1.42595
1.42275
1.42048
1.41814
1.41523
1.41176
1.40806
1.40352
1.39816
1.39313
1.38848
1.38305
1.37639
1.37135
1.36487
1.35608
1.35364
1.35168
1.34801
1.34343
1.33764
1.33017
1.32152
1.31201
1.30201
1.29799
1.29528
1.28843
1.27909
1.2729
1.26271
1.25174
1.24823
1.24491
1.23934
1.22782
1.21602
1.21227
1.21038
1.20488
1.19549
1.18842
1.18288
1.17812
1.17423
1.16929
1.16541
1.16237
1.16042
1.15807
1.15731
1.15741
1.15855
1.16074
1.16169
1.16125
1.16042
1.15936
1.15838
1.1584
1.15865
1.1595
1.16098
1.16284
1.16322
1.16338
1.16366
1.16365
1.57745
1.57628
1.57478
1.57443
1.57397
1.57126
1.56644
1.56401
1.56421
1.56603
1.56657
1.56592
1.56348
1.55796
1.55391
1.55388
1.55387
1.55291
1.54808
1.54532
1.54463
1.54347
1.54068
1.53686
1.53387
1.53201
1.52986
1.52661
1.52255
1.51793
1.51369
1.51078
1.50797
1.50446
1.50093
1.49778
1.49331
1.48783
1.48346
1.47947
1.47442
1.46942
1.46513
1.46083
1.45566
1.45013
1.44459
1.43856
1.43238
1.42656
1.42062
1.41322
1.40574
1.39985
1.3936
1.38615
1.3786
1.37184
1.36509
1.35294
1.34227
1.33875
1.33266
1.32358
1.31382
1.30175
1.29347
1.28715
1.2789
1.26691
1.25804
1.25163
1.24368
1.2351
1.22733
1.21899
1.213
1.20592
1.1979
1.19199
1.188
1.18296
1.17726
1.17158
1.16784
1.16521
1.16178
1.15916
1.15819
1.15716
1.15709
1.15728
1.15861
1.1608
1.16201
1.16232
1.16192
1.16123
1.16135
1.16231
1.66658
1.66589
1.66582
1.66555
1.6634
1.66185
1.66086
1.65822
1.65381
1.65191
1.65234
1.65287
1.65254
1.65011
1.64429
1.64205
1.64129
1.64062
1.6373
1.63293
1.63123
1.63011
1.62778
1.62411
1.62005
1.61747
1.61581
1.61356
1.60954
1.60465
1.59996
1.59672
1.5942
1.59084
1.5865
1.58229
1.57818
1.57304
1.56746
1.56269
1.55817
1.55314
1.54755
1.54146
1.53665
1.53197
1.52619
1.518
1.51099
1.50587
1.50055
1.49377
1.48633
1.47887
1.47083
1.46202
1.45274
1.44495
1.43883
1.43193
1.42231
1.41167
1.40103
1.39113
1.38325
1.37499
1.3636
1.34968
1.34116
1.3333
1.32146
1.30958
1.29983
1.28854
1.27778
1.26533
1.25388
1.24453
1.23433
1.22406
1.21381
1.20514
1.19631
1.18699
1.17815
1.17156
1.16617
1.16228
1.16139
1.16053
1.1613
1.16305
1.16424
1.16377
1.16274
1.16105
1.15904
1.15906
1.15947
1.16116
1.76458
1.76133
1.75856
1.75852
1.75885
1.75799
1.75565
1.7544
1.75187
1.74699
1.74383
1.74391
1.7448
1.74464
1.74264
1.73599
1.73235
1.73217
1.73181
1.72913
1.72378
1.72081
1.71911
1.71689
1.7135
1.70931
1.70596
1.70325
1.69992
1.69564
1.69088
1.68642
1.68294
1.67956
1.67553
1.67045
1.6651
1.66039
1.65541
1.64934
1.64379
1.63911
1.63444
1.62883
1.62161
1.61523
1.61019
1.60382
1.59505
1.58789
1.58229
1.57483
1.56592
1.55888
1.5515
1.5426
1.53325
1.52457
1.51647
1.50733
1.49728
1.48716
1.4779
1.46812
1.45726
1.44553
1.43569
1.42527
1.41232
1.40067
1.39048
1.37822
1.36571
1.35286
1.34055
1.32895
1.31577
1.30269
1.29065
1.27994
1.2674
1.25382
1.2427
1.23414
1.22513
1.21553
1.20582
1.19633
1.18943
1.18271
1.17697
1.17172
1.16602
1.16233
1.16006
1.15894
1.15851
1.15907
1.1609
1.16236
1.8665
1.86496
1.86262
1.85869
1.85665
1.85701
1.85749
1.85608
1.85291
1.85018
1.84643
1.84254
1.84079
1.84113
1.84115
1.83963
1.83317
1.82864
1.82752
1.82647
1.82273
1.8188
1.81662
1.81421
1.81048
1.80668
1.80332
1.8001
1.79601
1.7915
1.78739
1.7833
1.77881
1.77362
1.76839
1.76353
1.75781
1.75209
1.74728
1.74207
1.73602
1.72989
1.72402
1.71822
1.71193
1.70466
1.69782
1.69184
1.68418
1.67547
1.66862
1.66149
1.65125
1.64226
1.63545
1.62727
1.61704
1.60684
1.59788
1.58866
1.5781
1.56726
1.55661
1.54558
1.53508
1.52427
1.51135
1.49946
1.48846
1.47538
1.46295
1.45076
1.43744
1.42467
1.41107
1.39671
1.38252
1.36933
1.35459
1.33939
1.32651
1.31187
1.29685
1.2831
1.26908
1.25422
1.24068
1.22792
1.21509
1.20329
1.19146
1.18038
1.1713
1.16659
1.1636
1.16294
1.1638
1.16637
1.16601
1.16398
1.97306
1.9722
1.97116
1.97003
1.9671
1.96154
1.95983
1.96067
1.96099
1.9597
1.95532
1.94944
1.9457
1.94408
1.9443
1.94432
1.94237
1.93503