/*--------------------------------*- C++ -*----------------------------------*\
  =========                 |
  \\      /  F ield         | OpenFOAM: The Open Source CFD Toolbox
   \\    /   O peration     | Website:  https://openfoam.org
    \\  /    A nd           | Version:  7
     \\/     M anipulation  |
\*---------------------------------------------------------------------------*/
FoamFile
{
    version     2.0;
    format      ascii;
    class       volVectorField;
    location    "1";
    object      U;
}
// * * * * * * * * * * * * * * * * * * * * * * * * * * * * * * * * * * * * * //

dimensions      [0 1 -1 0 0 0 0];

internalField   nonuniform List<vector> 
90000
(
(1.92641 -0.334744 0)
(1.91501 -0.302179 0)
(1.90001 -0.257745 0)
(1.89239 -0.228085 0)
(1.87984 -0.187326 0)
(1.87491 -0.16226 0)
(1.86538 -0.129296 0)
(1.86094 -0.106846 0)
(1.85557 -0.0850282 0)
(1.8497 -0.0618992 0)
(1.84857 -0.051374 0)
(1.84236 -0.0301016 0)
(1.84271 -0.0249904 0)
(1.83871 -0.0105855 0)
(1.83935 -0.00665455 0)
(1.83822 0.00123322 0)
(1.83876 0.00455155 0)
(1.84005 0.0076948 0)
(1.84037 0.0105172 0)
(1.84345 0.0112574 0)
(1.84624 0.0121685 0)
(1.84871 0.0117896 0)
(1.84983 0.0105907 0)
(1.84957 0.0078064 0)
(1.84928 0.00422968 0)
(1.84838 -0.000254738 0)
(1.84836 -0.00458623 0)
(1.84821 -0.00835414 0)
(1.8485 -0.011735 0)
(1.84787 -0.0124622 0)
(1.84765 -0.0124598 0)
(1.84751 -0.0109482 0)
(1.84672 -0.00914445 0)
(1.84607 -0.00744751 0)
(1.84448 -0.00654198 0)
(1.84311 -0.00747293 0)
(1.84184 -0.00863212 0)
(1.84157 -0.00976992 0)
(1.84147 -0.0107837 0)
(1.84146 -0.0114785 0)
(1.84161 -0.0113828 0)
(1.84166 -0.0111701 0)
(1.84102 -0.0107806 0)
(1.8405 -0.0109764 0)
(1.83964 -0.0115669 0)
(1.83934 -0.0120517 0)
(1.83882 -0.0124054 0)
(1.83881 -0.0122258 0)
(1.83893 -0.0118434 0)
(1.83869 -0.0110874 0)
(1.83803 -0.0111605 0)
(1.83724 -0.0116236 0)
(1.8368 -0.0122103 0)
(1.83637 -0.0127123 0)
(1.83607 -0.0126966 0)
(1.83586 -0.0123228 0)
(1.83515 -0.0120295 0)
(1.83445 -0.0122599 0)
(1.83394 -0.0126753 0)
(1.8335 -0.0127842 0)
(1.83318 -0.0125061 0)
(1.83264 -0.0121679 0)
(1.83202 -0.0122455 0)
(1.83156 -0.012471 0)
(1.83118 -0.0126978 0)
(1.83092 -0.0126106 0)
(1.83103 -0.0121404 0)
(1.8317 -0.0118199 0)
(1.83389 -0.0104679 0)
(1.83751 -0.00903469 0)
(1.84222 -0.00841626 0)
(1.8484 -0.00623953 0)
(1.85459 -0.00472657 0)
(1.86028 -0.00520204 0)
(1.86626 -0.00376591 0)
(1.87112 -0.00282286 0)
(1.87608 -0.00207902 0)
(1.88082 -0.000886806 0)
(1.88603 0.000910822 0)
(1.89151 0.00297176 0)
(1.89718 0.00540034 0)
(1.90332 0.00808085 0)
(1.91095 0.0104898 0)
(1.92118 0.0131558 0)
(1.9339 0.018971 0)
(1.9507 0.0323514 0)
(1.96439 0.0519325 0)
(1.97337 0.0661823 0)
(1.97317 0.0660464 0)
(1.96528 0.0591409 0)
(1.96137 0.0471114 0)
(1.96175 0.0343858 0)
(1.96446 0.0241546 0)
(1.96784 0.0166241 0)
(1.97149 0.0113324 0)
(1.9752 0.00749889 0)
(1.97917 0.00461932 0)
(1.98381 0.0024905 0)
(1.98913 0.00102375 0)
(1.99615 0.000228711 0)
(1.93858 -0.366625 0)
(1.93807 -0.366163 0)
(1.93675 -0.364804 0)
(1.93426 -0.361882 0)
(1.93017 -0.356815 0)
(1.92433 -0.348586 0)
(1.91676 -0.337649 0)
(1.90686 -0.321097 0)
(1.89661 -0.304213 0)
(1.88261 -0.277567 0)
(1.87184 -0.256771 0)
(1.85484 -0.221832 0)
(1.8453 -0.199534 0)
(1.82788 -0.162336 0)
(1.81984 -0.140861 0)
(1.80478 -0.10786 0)
(1.79801 -0.0899917 0)
(1.78726 -0.0652654 0)
(1.78216 -0.0533688 0)
(1.77652 -0.0381853 0)
(1.77443 -0.0331036 0)
(1.77357 -0.0270431 0)
(1.77416 -0.0259783 0)
(1.77558 -0.0244495 0)
(1.77689 -0.0237918 0)
(1.77887 -0.0232837 0)
(1.77927 -0.0227011 0)
(1.77902 -0.021446 0)
(1.77889 -0.0194491 0)
(1.77967 -0.0160101 0)
(1.7797 -0.0139063 0)
(1.78065 -0.0118126 0)
(1.78088 -0.0115012 0)
(1.78109 -0.0113858 0)
(1.78052 -0.0115741 0)
(1.77965 -0.0117629 0)
(1.78011 -0.0119515 0)
(1.78232 -0.0118314 0)
(1.78353 -0.0116899 0)
(1.78507 -0.0112206 0)
(1.78598 -0.0111519 0)
(1.78666 -0.0112383 0)
(1.78674 -0.0116158 0)
(1.78649 -0.0118903 0)
(1.78604 -0.0123493 0)
(1.7868 -0.0125637 0)
(1.7871 -0.0123709 0)
(1.78792 -0.0118618 0)
(1.7886 -0.0115563 0)
(1.78875 -0.0115118 0)
(1.78855 -0.0117474 0)
(1.78816 -0.0117321 0)
(1.78838 -0.0121871 0)
(1.78861 -0.0121301 0)
(1.78905 -0.0120685 0)
(1.78933 -0.0120375 0)
(1.78922 -0.0120826 0)
(1.78916 -0.0121208 0)
(1.78939 -0.0122896 0)
(1.78955 -0.0123298 0)
(1.78984 -0.0122201 0)
(1.78993 -0.0122008 0)
(1.78992 -0.0121976 0)
(1.79022 -0.0123077 0)
(1.79039 -0.0123574 0)
(1.79072 -0.0123466 0)
(1.7914 -0.0122382 0)
(1.79283 -0.0122778 0)
(1.79592 -0.0112055 0)
(1.80029 -0.00959677 0)
(1.80549 -0.00903545 0)
(1.81198 -0.00697364 0)
(1.81852 -0.00537697 0)
(1.82454 -0.00535478 0)
(1.8302 -0.00439902 0)
(1.83541 -0.0033014 0)
(1.84076 -0.00255889 0)
(1.84588 -0.00124899 0)
(1.85126 0.000501838 0)
(1.85669 0.00234498 0)
(1.86215 0.00468251 0)
(1.86826 0.00756245 0)
(1.87577 0.00988568 0)
(1.88502 0.0119668 0)
(1.8957 0.0173544 0)
(1.91053 0.0301449 0)
(1.92963 0.049094 0)
(1.94752 0.0638435 0)
(1.95666 0.0668079 0)
(1.95492 0.0593688 0)
(1.95507 0.0471205 0)
(1.95839 0.0342353 0)
(1.96282 0.0237595 0)
(1.967 0.0161704 0)
(1.97093 0.0109281 0)
(1.97477 0.00715943 0)
(1.97884 0.00433607 0)
(1.9836 0.00226564 0)
(1.98902 0.00087446 0)
(1.99612 0.000176832 0)
(1.93721 -0.366464 0)
(1.93714 -0.36644 0)
(1.93704 -0.366404 0)
(1.93694 -0.366352 0)
(1.93679 -0.366278 0)
(1.93657 -0.366125 0)
(1.93616 -0.365879 0)
(1.93551 -0.365323 0)
(1.93448 -0.364299 0)
(1.93277 -0.362307 0)
(1.93025 -0.359203 0)
(1.92613 -0.353605 0)
(1.92081 -0.346103 0)
(1.91241 -0.333439 0)
(1.90293 -0.31873 0)
(1.88884 -0.295656 0)
(1.87517 -0.27245 0)
(1.85564 -0.23801 0)
(1.84046 -0.210111 0)
(1.81699 -0.167499 0)
(1.80332 -0.140731 0)
(1.78051 -0.101616 0)
(1.76818 -0.0759674 0)
(1.75744 -0.053796 0)
(1.74596 -0.0284906 0)
(1.74372 -0.0181951 0)
(1.73822 -0.0023495 0)
(1.73604 0.00266132 0)
(1.73941 0.00613149 0)
(1.74162 0.00537699 0)
(1.74308 0.000968095 0)
(1.74596 -0.00397391 0)
(1.74821 -0.0090913 0)
(1.75064 -0.0124069 0)
(1.75179 -0.0156492 0)
(1.75319 -0.0160539 0)
(1.75454 -0.0149183 0)
(1.75547 -0.0134217 0)
(1.7558 -0.0117623 0)
(1.75599 -0.0103081 0)
(1.7564 -0.00998496 0)
(1.75635 -0.0108454 0)
(1.75678 -0.0115015 0)
(1.75671 -0.0128288 0)
(1.75738 -0.0130765 0)
(1.75794 -0.0127965 0)
(1.75875 -0.012216 0)
(1.76006 -0.0112123 0)
(1.76036 -0.0109766 0)
(1.76052 -0.0112742 0)
(1.76029 -0.0123669 0)
(1.76055 -0.0128064 0)
(1.76083 -0.0125179 0)
(1.76138 -0.0121572 0)
(1.76223 -0.0116815 0)
(1.76247 -0.011818 0)
(1.76274 -0.0123188 0)
(1.76317 -0.0128484 0)
(1.76363 -0.0126405 0)
(1.76412 -0.0122963 0)
(1.76478 -0.0122334 0)
(1.76513 -0.0123878 0)
(1.76536 -0.0125646 0)
(1.76585 -0.0125815 0)
(1.76613 -0.0125117 0)
(1.76672 -0.0124265 0)
(1.7676 -0.0122504 0)
(1.7694 -0.0121138 0)
(1.77281 -0.0110744 0)
(1.7774 -0.00994612 0)
(1.78284 -0.0094795 0)
(1.78928 -0.00769972 0)
(1.79583 -0.00639034 0)
(1.80202 -0.00624882 0)
(1.80749 -0.00553486 0)
(1.81295 -0.00472017 0)
(1.81829 -0.00381604 0)
(1.82313 -0.00267755 0)
(1.82829 -0.00119494 0)
(1.83336 0.000539797 0)
(1.83838 0.002846 0)
(1.84392 0.00532281 0)
(1.85038 0.00719017 0)
(1.85771 0.00953761 0)
(1.86555 0.0149648 0)
(1.87727 0.0264584 0)
(1.89624 0.0446081 0)
(1.91851 0.0608204 0)
(1.9361 0.0662735 0)
(1.94339 0.0592474 0)
(1.94858 0.0461665 0)
(1.95511 0.0332191 0)
(1.96121 0.0229365 0)
(1.96613 0.0155805 0)
(1.97033 0.0104867 0)
(1.97431 0.00679675 0)
(1.97851 0.00402947 0)
(1.98339 0.002022 0)
(1.98892 0.000703129 0)
(1.99611 0.000109208 0)
(1.93491 -0.365886 0)
(1.93485 -0.365876 0)
(1.93478 -0.36587 0)
(1.93469 -0.365859 0)
(1.9346 -0.365852 0)
(1.9345 -0.365834 0)
(1.93437 -0.365796 0)
(1.93424 -0.365745 0)
(1.9341 -0.365685 0)
(1.93394 -0.365613 0)
(1.93376 -0.365519 0)
(1.93351 -0.365374 0)
(1.93313 -0.365138 0)
(1.93259 -0.364692 0)
(1.93176 -0.363755 0)
(1.93039 -0.362073 0)
(1.92817 -0.358954 0)
(1.92445 -0.353601 0)
(1.91882 -0.344827 0)
(1.91011 -0.331418 0)
(1.89825 -0.311417 0)
(1.88268 -0.285983 0)
(1.86337 -0.250926 0)
(1.84534 -0.21851 0)
(1.82093 -0.170403 0)
(1.80914 -0.145569 0)
(1.78581 -0.0982953 0)
(1.77838 -0.0820205 0)
(1.76633 -0.0551881 0)
(1.76075 -0.042078 0)
(1.75869 -0.0360084 0)
(1.75247 -0.0272806 0)
(1.7511 -0.0235202 0)
(1.74955 -0.020242 0)
(1.7492 -0.0182925 0)
(1.74843 -0.0161549 0)
(1.74855 -0.0126896 0)
(1.74847 -0.0102613 0)
(1.74762 -0.0102797 0)
(1.74655 -0.010769 0)
(1.74575 -0.0120581 0)
(1.74504 -0.0139737 0)
(1.74605 -0.0150496 0)
(1.74684 -0.0146842 0)
(1.74839 -0.0137228 0)
(1.74893 -0.0124901 0)
(1.75047 -0.0111841 0)
(1.75076 -0.0112308 0)
(1.75053 -0.0122299 0)
(1.74993 -0.0133312 0)
(1.75014 -0.0137753 0)
(1.7506 -0.0134398 0)
(1.75139 -0.0125494 0)
(1.75217 -0.0116127 0)
(1.75269 -0.0116796 0)
(1.75274 -0.0123682 0)
(1.75276 -0.0131894 0)
(1.75303 -0.0131107 0)
(1.75366 -0.0126067 0)
(1.75416 -0.0122817 0)
(1.75457 -0.0123905 0)
(1.75465 -0.0128632 0)
(1.75488 -0.0128225 0)
(1.75513 -0.0126265 0)
(1.75551 -0.012425 0)
(1.75602 -0.0124388 0)
(1.75682 -0.012446 0)
(1.75875 -0.012392 0)
(1.76239 -0.0112864 0)
(1.76709 -0.0102563 0)
(1.77241 -0.00998031 0)
(1.77841 -0.00816872 0)
(1.78473 -0.00660523 0)
(1.79101 -0.00642483 0)
(1.79649 -0.00619377 0)
(1.80194 -0.00542303 0)
(1.80737 -0.00443931 0)
(1.81173 -0.00299721 0)
(1.81661 -0.00160246 0)
(1.82135 -0.000106314 0)
(1.82597 0.00208921 0)
(1.83066 0.00478673 0)
(1.83625 0.00665006 0)
(1.84225 0.0088028 0)
(1.84763 0.0138372 0)
(1.85582 0.0242254 0)
(1.87137 0.0404211 0)
(1.89334 0.0561353 0)
(1.91568 0.0632417 0)
(1.9313 0.0574243 0)
(1.94222 0.0448174 0)
(1.95194 0.0322238 0)
(1.95957 0.0221171 0)
(1.96518 0.0149581 0)
(1.96968 0.0100042 0)
(1.97383 0.0063955 0)
(1.97818 0.00368955 0)
(1.98319 0.00175581 0)
(1.98882 0.000538052 0)
(1.99609 5.29918e-05 0)
(1.93242 -0.365484 0)
(1.93236 -0.365473 0)
(1.93229 -0.365464 0)
(1.93222 -0.365452 0)
(1.93215 -0.365444 0)
(1.93207 -0.365433 0)
(1.93203 -0.365432 0)
(1.93197 -0.365431 0)
(1.93191 -0.365432 0)
(1.93185 -0.365428 0)
(1.93177 -0.365426 0)
(1.93169 -0.365411 0)
(1.93159 -0.365374 0)
(1.93148 -0.365326 0)
(1.93137 -0.365272 0)
(1.93124 -0.365208 0)
(1.93108 -0.365112 0)
(1.93085 -0.364978 0)
(1.9305 -0.364689 0)
(1.92995 -0.364083 0)
(1.92896 -0.362755 0)
(1.92719 -0.360198 0)
(1.92383 -0.354803 0)
(1.91853 -0.346384 0)
(1.90873 -0.329297 0)
(1.89747 -0.30943 0)
(1.87689 -0.27159 0)
(1.86103 -0.239115 0)
(1.83262 -0.185485 0)
(1.8128 -0.143248 0)
(1.79454 -0.10329 0)
(1.77283 -0.0565748 0)
(1.76914 -0.043547 0)
(1.75549 -0.0191324 0)
(1.75139 -0.0109822 0)
(1.74899 -0.00366361 0)
(1.74811 -0.00203564 0)
(1.7458 -0.00564716 0)
(1.7461 -0.0107422 0)
(1.74637 -0.0131584 0)
(1.74579 -0.0141463 0)
(1.74585 -0.0147752 0)
(1.74617 -0.0147236 0)
(1.74773 -0.0132895 0)
(1.74965 -0.0115136 0)
(1.74904 -0.0108584 0)
(1.74863 -0.011626 0)
(1.74793 -0.0129164 0)
(1.74703 -0.0145863 0)
(1.7476 -0.0143977 0)
(1.74837 -0.013807 0)
(1.74912 -0.0128474 0)
(1.75017 -0.0118221 0)
(1.75012 -0.012031 0)
(1.74958 -0.0127878 0)
(1.74934 -0.0133641 0)
(1.74964 -0.0131759 0)
(1.75023 -0.012699 0)
(1.75095 -0.0124183 0)
(1.75091 -0.0126288 0)
(1.75069 -0.0130719 0)
(1.75069 -0.0130937 0)
(1.75101 -0.0128688 0)
(1.75142 -0.0125496 0)
(1.75169 -0.0125911 0)
(1.75199 -0.0127547 0)
(1.75276 -0.0127399 0)
(1.75483 -0.0125447 0)
(1.75862 -0.0112944 0)
(1.76329 -0.0106048 0)
(1.76855 -0.0104425 0)
(1.77468 -0.00890943 0)
(1.78109 -0.0075642 0)
(1.78737 -0.00773278 0)
(1.79278 -0.00782724 0)
(1.79829 -0.00702237 0)
(1.80345 -0.00538919 0)
(1.80804 -0.00408207 0)
(1.81294 -0.00332815 0)
(1.81748 -0.00215069 0)
(1.8219 0.000115435 0)
(1.82621 0.00300944 0)
(1.8312 0.00529151 0)
(1.83613 0.00768481 0)
(1.83972 0.0129605 0)
(1.84503 0.022675 0)
(1.85629 0.0374019 0)
(1.87509 0.0525207 0)
(1.89811 0.060029 0)
(1.91912 0.0548287 0)
(1.93635 0.0425407 0)
(1.94932 0.0303265 0)
(1.95813 0.0208225 0)
(1.9642 0.0141888 0)
(1.96895 0.00947858 0)
(1.97331 0.00596225 0)
(1.97784 0.00332174 0)
(1.983 0.00146762 0)
(1.98877 0.000320817 0)
(1.9961 -4.91058e-06 0)
(1.93053 -0.365187 0)
(1.93049 -0.36518 0)
(1.93045 -0.365175 0)
(1.93041 -0.365169 0)
(1.93036 -0.365162 0)
(1.93031 -0.365155 0)
(1.93027 -0.36515 0)
(1.93022 -0.365145 0)
(1.93017 -0.365142 0)
(1.93013 -0.365141 0)
(1.93008 -0.365141 0)
(1.93003 -0.365143 0)
(1.93001 -0.365154 0)
(1.92998 -0.365161 0)
(1.92995 -0.365174 0)
(1.9299 -0.365175 0)
(1.92986 -0.365181 0)
(1.92981 -0.365166 0)
(1.92976 -0.365138 0)
(1.9297 -0.3651 0)
(1.92966 -0.365058 0)
(1.92959 -0.364979 0)
(1.92947 -0.364868 0)
(1.92922 -0.364602 0)
(1.92871 -0.363926 0)
(1.92765 -0.362267 0)
(1.9253 -0.358689 0)
(1.92098 -0.351101 0)
(1.91266 -0.337607 0)
(1.89947 -0.313097 0)
(1.8823 -0.282044 0)
(1.85606 -0.228935 0)
(1.84053 -0.193905 0)
(1.80874 -0.128052 0)
(1.79871 -0.10414 0)
(1.7804 -0.0652688 0)
(1.77371 -0.0514081 0)
(1.76622 -0.0385078 0)
(1.76143 -0.0296953 0)
(1.7564 -0.0235794 0)
(1.7543 -0.0197937 0)
(1.75276 -0.0155136 0)
(1.75103 -0.0106272 0)
(1.75029 -0.00747336 0)
(1.74933 -0.00809693 0)
(1.74761 -0.0102766 0)
(1.74593 -0.0132952 0)
(1.74616 -0.0162854 0)
(1.74696 -0.0161449 0)
(1.74853 -0.0146792 0)
(1.74989 -0.0129368 0)
(1.74993 -0.0115872 0)
(1.74963 -0.0118764 0)
(1.74851 -0.0131777 0)
(1.7481 -0.0140105 0)
(1.74854 -0.0135296 0)
(1.74914 -0.0128054 0)
(1.74968 -0.0121878 0)
(1.74958 -0.0124811 0)
(1.74919 -0.0130516 0)
(1.74914 -0.0133945 0)
(1.74945 -0.0131437 0)
(1.74987 -0.0126912 0)
(1.75002 -0.0126859 0)
(1.75012 -0.0128814 0)
(1.75031 -0.0130736 0)
(1.75127 -0.0129424 0)
(1.75357 -0.0127395 0)
(1.7572 -0.0117296 0)
(1.76182 -0.0114112 0)
(1.76715 -0.0113187 0)
(1.77376 -0.0098997 0)
(1.78034 -0.00866803 0)
(1.78647 -0.00894222 0)
(1.79188 -0.00896368 0)
(1.79756 -0.00808597 0)
(1.80246 -0.00663147 0)
(1.80752 -0.00522201 0)
(1.81214 -0.00468023 0)
(1.81658 -0.00354509 0)
(1.82106 -0.00122534 0)
(1.82569 0.00177041 0)
(1.83058 0.00381826 0)
(1.83423 0.00673165 0)
(1.83738 0.0119637 0)
(1.84163 0.0208935 0)
(1.85089 0.0336833 0)
(1.86764 0.0472163 0)
(1.88985 0.0541488 0)
(1.91286 0.0495717 0)
(1.93255 0.0394357 0)
(1.94704 0.0285025 0)
(1.95658 0.0197025 0)
(1.96308 0.0134319 0)
(1.96815 0.00888652 0)
(1.97277 0.00546344 0)
(1.97751 0.00290623 0)
(1.98281 0.0011633 0)
(1.98866 0.000142267 0)
(1.99609 -7.44991e-05 0)
(1.92942 -0.365016 0)
(1.9294 -0.365013 0)
(1.92938 -0.36501 0)
(1.92935 -0.365006 0)
(1.92933 -0.365002 0)
(1.92931 -0.364999 0)
(1.92929 -0.364994 0)
(1.92927 -0.364991 0)
(1.92925 -0.364985 0)
(1.92923 -0.364982 0)
(1.92921 -0.364976 0)
(1.92919 -0.364972 0)
(1.92918 -0.364968 0)
(1.92917 -0.364966 0)
(1.92916 -0.364966 0)
(1.92915 -0.364969 0)
(1.92915 -0.364974 0)
(1.92915 -0.364982 0)
(1.92917 -0.365001 0)
(1.92918 -0.365017 0)
(1.92918 -0.365039 0)
(1.92918 -0.36506 0)
(1.92919 -0.365063 0)
(1.92919 -0.365052 0)
(1.92919 -0.365039 0)
(1.92919 -0.365012 0)
(1.92916 -0.364946 0)
(1.92907 -0.364772 0)
(1.92879 -0.364274 0)
(1.92794 -0.362794 0)
(1.92583 -0.35939 0)
(1.92062 -0.350498 0)
(1.91222 -0.33572 0)
(1.89411 -0.302819 0)
(1.87795 -0.269013 0)
(1.84459 -0.204112 0)
(1.8282 -0.162977 0)
(1.79608 -0.0961321 0)
(1.78714 -0.0690802 0)
(1.76761 -0.0333476 0)
(1.76404 -0.0216013 0)
(1.75593 -0.00648217 0)
(1.75352 -0.00318103 0)
(1.75071 -0.00575591 0)
(1.74975 -0.00993412 0)
(1.74849 -0.0123751 0)
(1.7479 -0.0148035 0)
(1.74817 -0.0151487 0)
(1.7497 -0.0139494 0)
(1.75224 -0.0110062 0)
(1.7515 -0.0109925 0)
(1.75064 -0.011427 0)
(1.74918 -0.0130611 0)
(1.7487 -0.0140177 0)
(1.74919 -0.0137743 0)
(1.75027 -0.0130214 0)
(1.75055 -0.0120414 0)
(1.75015 -0.0123473 0)
(1.74945 -0.0132039 0)
(1.74934 -0.0133404 0)
(1.7497 -0.0130707 0)
(1.75014 -0.0125213 0)
(1.75017 -0.0124429 0)
(1.74998 -0.0126791 0)
(1.74996 -0.0130586 0)
(1.75023 -0.0130795 0)
(1.75129 -0.0128194 0)
(1.75349 -0.012737 0)
(1.75692 -0.0122228 0)
(1.76167 -0.0120786 0)
(1.76736 -0.011745 0)
(1.77358 -0.0107712 0)
(1.77953 -0.00995342 0)
(1.7852 -0.0101484 0)
(1.79082 -0.0099475 0)
(1.79668 -0.0086442 0)
(1.80184 -0.00721799 0)
(1.80654 -0.00643199 0)
(1.8108 -0.00581004 0)
(1.81544 -0.00446078 0)
(1.82004 -0.00194959 0)
(1.82491 0.000906363 0)
(1.82982 0.00297298 0)
(1.83347 0.00584235 0)
(1.83688 0.0104418 0)
(1.8416 0.018793 0)
(1.85117 0.0305022 0)
(1.8679 0.0428835 0)
(1.89045 0.0493026 0)
(1.91382 0.0452676 0)
(1.93318 0.0354392 0)
(1.94649 0.0257236 0)
(1.95539 0.018111 0)
(1.96194 0.012504 0)
(1.96731 0.00822573 0)
(1.97222 0.00492103 0)
(1.97717 0.00246725 0)
(1.98264 0.000803878 0)
(1.98865 -9.89476e-05 0)
(1.99613 -0.000138911 0)
(1.92909 -0.36494 0)
(1.9291 -0.364941 0)
(1.9291 -0.364939 0)
(1.9291 -0.36494 0)
(1.92911 -0.364939 0)
(1.92911 -0.364941 0)
(1.92912 -0.364939 0)
(1.92913 -0.364942 0)
(1.92914 -0.36494 0)
(1.92915 -0.364943 0)
(1.92916 -0.364942 0)
(1.92918 -0.364946 0)
(1.92919 -0.364944 0)
(1.92921 -0.36495 0)
(1.92923 -0.364948 0)
(1.92926 -0.364955 0)
(1.92928 -0.364955 0)
(1.92931 -0.364962 0)
(1.92934 -0.364965 0)
(1.92937 -0.364975 0)
(1.9294 -0.364981 0)
(1.92944 -0.364991 0)
(1.92948 -0.364998 0)
(1.92952 -0.36502 0)
(1.92957 -0.365038 0)
(1.92961 -0.365059 0)
(1.92964 -0.365069 0)
(1.92966 -0.36508 0)
(1.92972 -0.365062 0)
(1.92977 -0.365041 0)
(1.92978 -0.365005 0)
(1.92971 -0.364824 0)
(1.92939 -0.364187 0)
(1.92816 -0.362188 0)
(1.92516 -0.356901 0)
(1.9174 -0.344238 0)
(1.90508 -0.321204 0)
(1.88243 -0.27867 0)
(1.86072 -0.232089 0)
(1.82815 -0.164824 0)
(1.81271 -0.126998 0)
(1.78781 -0.0716345 0)
(1.78122 -0.0588836 0)
(1.76982 -0.0418612 0)
(1.76613 -0.0311814 0)
(1.75993 -0.0224602 0)
(1.75662 -0.0170074 0)
(1.75479 -0.0119038 0)
(1.75314 -0.00718201 0)
(1.75219 -0.00762408 0)
(1.75029 -0.00960473 0)
(1.74872 -0.0127908 0)
(1.74878 -0.0162349 0)
(1.7498 -0.0156989 0)
(1.75194 -0.0135674 0)
(1.75247 -0.0117362 0)
(1.75209 -0.0118198 0)
(1.75084 -0.012707 0)
(1.75039 -0.0138808 0)
(1.75085 -0.0136983 0)
(1.75158 -0.013036 0)
(1.75165 -0.0123978 0)
(1.75139 -0.0125805 0)
(1.75098 -0.0130625 0)
(1.75102 -0.0131967 0)
(1.75147 -0.012999 0)
(1.75251 -0.0127356 0)
(1.7545 -0.0128694 0)
(1.75778 -0.0128039 0)
(1.76276 -0.0125432 0)
(1.76846 -0.01235 0)
(1.77436 -0.0115259 0)
(1.78009 -0.0110709 0)
(1.78579 -0.0109857 0)
(1.79142 -0.0105793 0)
(1.79705 -0.00935147 0)
(1.80221 -0.00801016 0)
(1.80684 -0.00742097 0)
(1.81124 -0.00665202 0)
(1.81604 -0.0051476 0)
(1.82035 -0.00257441 0)
(1.8254 -6.4591e-05 0)
(1.83026 0.0019448 0)
(1.83403 0.00452703 0)
(1.8379 0.0090538 0)
(1.84312 0.01685 0)
(1.85209 0.0272704 0)
(1.86734 0.0380358 0)
(1.88974 0.0437397 0)
(1.91323 0.040409 0)
(1.93182 0.0323827 0)
(1.94482 0.024018 0)
(1.95388 0.0169493 0)
(1.96077 0.0115514 0)
(1.96649 0.00743339 0)
(1.97169 0.00427772 0)
(1.97685 0.00196728 0)
(1.98244 0.000474695 0)
(1.98855 -0.00029079 0)
(1.99613 -0.000223695 0)
(1.92951 -0.364945 0)
(1.92953 -0.364945 0)
(1.92954 -0.364948 0)
(1.92956 -0.364949 0)
(1.92958 -0.364951 0)
(1.92961 -0.364953 0)
(1.92963 -0.364955 0)
(1.92965 -0.364956 0)
(1.92968 -0.364959 0)
(1.9297 -0.36496 0)
(1.92973 -0.364963 0)
(1.92976 -0.364965 0)
(1.92978 -0.364968 0)
(1.92981 -0.364969 0)
(1.92984 -0.364974 0)
(1.92988 -0.364974 0)
(1.92991 -0.364979 0)
(1.92994 -0.364979 0)
(1.92998 -0.364984 0)
(1.93001 -0.364983 0)
(1.93005 -0.364988 0)
(1.93009 -0.364989 0)
(1.93013 -0.364995 0)
(1.93017 -0.364995 0)
(1.93021 -0.365002 0)
(1.93025 -0.365004 0)
(1.9303 -0.365019 0)
(1.93034 -0.365024 0)
(1.93037 -0.365039 0)
(1.9304 -0.365049 0)
(1.93042 -0.365058 0)
(1.93043 -0.365052 0)
(1.93048 -0.365054 0)
(1.93051 -0.365051 0)
(1.9305 -0.364979 0)
(1.93031 -0.364612 0)
(1.92954 -0.363314 0)
(1.9269 -0.359035 0)
(1.9211 -0.349064 0)
(1.90693 -0.323623 0)
(1.88933 -0.289067 0)
(1.85558 -0.222509 0)
(1.83733 -0.17512 0)
(1.79809 -0.0961928 0)
(1.78889 -0.0664738 0)
(1.7697 -0.0263496 0)
(1.76232 -0.0150732 0)
(1.75945 -0.0015271 0)
(1.75476 -0.00372823 0)
(1.75126 -0.00960568 0)
(1.74981 -0.01199 0)
(1.74978 -0.0143305 0)
(1.75045 -0.0146647 0)
(1.75285 -0.0130497 0)
(1.75442 -0.0114715 0)
(1.75377 -0.0112931 0)
(1.75207 -0.0124574 0)
(1.75093 -0.0137211 0)
(1.75125 -0.0137891 0)
(1.75236 -0.013082 0)
(1.75303 -0.0121876 0)
(1.75282 -0.0121826 0)
(1.75219 -0.0126503 0)
(1.75205 -0.0131975 0)
(1.75235 -0.0131314 0)
(1.75286 -0.0129293 0)
(1.75378 -0.012693 0)
(1.75561 -0.0130492 0)
(1.75888 -0.0132673 0)
(1.76404 -0.0128893 0)
(1.76972 -0.012763 0)
(1.77526 -0.0126043 0)
(1.78101 -0.0122616 0)
(1.78685 -0.0121151 0)
(1.79273 -0.0112553 0)
(1.79759 -0.0102293 0)
(1.80269 -0.00953519 0)
(1.80729 -0.00890962 0)
(1.81213 -0.00784496 0)
(1.817 -0.00589851 0)
(1.82141 -0.00325485 0)
(1.82647 -0.00124963 0)
(1.83141 0.000630966 0)
(1.83551 0.0032974 0)
(1.84027 0.00758322 0)
(1.84609 0.0148075 0)
(1.85526 0.0245675 0)
(1.87032 0.0340239 0)
(1.89076 0.0383585 0)
(1.91213 0.0360246 0)
(1.93043 0.0291068 0)
(1.94359 0.0214179 0)
(1.95272 0.0151269 0)
(1.95973 0.0103553 0)
(1.9657 0.00657763 0)
(1.97115 0.00361663 0)
(1.97651 0.00143603 0)
(1.98232 2.82558e-05 0)
(1.98859 -0.000531411 0)
(1.99619 -0.000285578 0)
(1.93021 -0.365031 0)
(1.93023 -0.365033 0)
(1.93024 -0.365035 0)
(1.93026 -0.365038 0)
(1.93028 -0.36504 0)
(1.9303 -0.365042 0)
(1.93032 -0.365046 0)
(1.93034 -0.365047 0)
(1.93036 -0.365052 0)
(1.93038 -0.365053 0)
(1.9304 -0.365058 0)
(1.93042 -0.36506 0)
(1.93044 -0.365065 0)
(1.93046 -0.365068 0)
(1.93048 -0.365074 0)
(1.9305 -0.365077 0)
(1.93053 -0.365083 0)
(1.93055 -0.365087 0)
(1.93057 -0.365094 0)
(1.9306 -0.3651 0)
(1.93062 -0.365107 0)
(1.93064 -0.365114 0)
(1.93067 -0.365123 0)
(1.93069 -0.365132 0)
(1.93072 -0.365142 0)
(1.93074 -0.36515 0)
(1.93077 -0.365163 0)
(1.93079 -0.365174 0)
(1.93082 -0.365183 0)
(1.93084 -0.365196 0)
(1.93087 -0.365203 0)
(1.93089 -0.365209 0)
(1.9309 -0.365209 0)
(1.9309 -0.365211 0)
(1.93091 -0.365206 0)
(1.93094 -0.365212 0)
(1.93095 -0.365209 0)
(1.93092 -0.365167 0)
(1.93075 -0.364888 0)
(1.92999 -0.363736 0)
(1.92765 -0.359714 0)
(1.92085 -0.348542 0)
(1.90823 -0.324485 0)
(1.88351 -0.278081 0)
(1.85961 -0.225594 0)
(1.8229 -0.147764 0)
(1.80748 -0.110175 0)
(1.78322 -0.0580244 0)
(1.78084 -0.0480666 0)
(1.76594 -0.0316131 0)
(1.7617 -0.023408 0)
(1.75812 -0.0159061 0)
(1.75528 -0.00925081 0)
(1.75455 -0.00744002 0)
(1.75302 -0.00878471 0)
(1.75092 -0.0118613 0)
(1.75003 -0.0157151 0)
(1.75091 -0.0152484 0)
(1.75302 -0.0135537 0)
(1.75399 -0.0117874 0)
(1.75388 -0.0118295 0)
(1.75287 -0.0129662 0)
(1.75247 -0.0136106 0)
(1.75268 -0.0133891 0)
(1.7532 -0.0127891 0)
(1.75349 -0.0124488 0)
(1.75444 -0.012847 0)
(1.75618 -0.013491 0)
(1.75963 -0.0136883 0)
(1.76482 -0.013271 0)
(1.7705 -0.0135175 0)
(1.7759 -0.0138105 0)
(1.78165 -0.0136074 0)
(1.78766 -0.0131201 0)
(1.79365 -0.0122221 0)
(1.79854 -0.0112428 0)
(1.8036 -0.0109485 0)
(1.80814 -0.0103333 0)
(1.81311 -0.00892864 0)
(1.81811 -0.00653375 0)
(1.82312 -0.00433509 0)
(1.82812 -0.00270996 0)
(1.83285 -0.000828427 0)
(1.83755 0.00200749 0)
(1.84316 0.00610541 0)
(1.84969 0.0126554 0)
(1.85927 0.0214989 0)
(1.87418 0.0298337 0)
(1.89342 0.0334527 0)
(1.91325 0.0312212 0)
(1.92975 0.0255145 0)
(1.94199 0.0193376 0)
(1.9512 0.0138248 0)
(1.95862 0.00925426 0)
(1.96497 0.0055974 0)
(1.97067 0.0028114 0)
(1.97619 0.000852919 0)
(1.9821 -0.00031983 0)
(1.9885 -0.000769469 0)
(1.99624 -0.000369231 0)
(1.93075 -0.365134 0)
(1.93076 -0.365137 0)
(1.93077 -0.365139 0)
(1.93078 -0.365143 0)
(1.93079 -0.365146 0)
(1.9308 -0.365149 0)
(1.93081 -0.365153 0)
(1.93082 -0.365157 0)
(1.93083 -0.36516 0)
(1.93084 -0.365165 0)
(1.93086 -0.365168 0)
(1.93087 -0.365174 0)
(1.93088 -0.365177 0)
(1.93089 -0.365183 0)
(1.9309 -0.365187 0)
(1.93092 -0.365193 0)
(1.93093 -0.365197 0)
(1.93094 -0.365204 0)
(1.93095 -0.365208 0)
(1.93097 -0.365214 0)
(1.93098 -0.365219 0)
(1.93099 -0.365226 0)
(1.93101 -0.365229 0)
(1.93102 -0.365236 0)
(1.93103 -0.365239 0)
(1.93104 -0.365245 0)
(1.93106 -0.365247 0)
(1.93106 -0.365256 0)
(1.93108 -0.365259 0)
(1.93108 -0.365269 0)
(1.9311 -0.365277 0)
(1.9311 -0.365292 0)
(1.93111 -0.365299 0)
(1.93111 -0.365308 0)
(1.93112 -0.36531 0)
(1.93112 -0.365307 0)
(1.93111 -0.365308 0)
(1.93111 -0.3653 0)
(1.93111 -0.365293 0)
(1.93111 -0.365277 0)
(1.93107 -0.365223 0)
(1.93086 -0.364901 0)
(1.93002 -0.36356 0)
(1.92701 -0.358623 0)
(1.91962 -0.345348 0)
(1.90157 -0.312508 0)
(1.88016 -0.267355 0)
(1.8376 -0.18395 0)
(1.82125 -0.133379 0)
(1.78293 -0.0564025 0)
(1.77676 -0.0352445 0)
(1.76187 -0.00790649 0)
(1.75896 -0.000610858 0)
(1.75384 -0.00682428 0)
(1.75218 -0.0114592 0)
(1.75078 -0.0140844 0)
(1.75113 -0.0143938 0)
(1.75327 -0.0128311 0)
(1.75505 -0.0113506 0)
(1.75459 -0.0115556 0)
(1.75323 -0.0130902 0)
(1.75232 -0.0142634 0)
(1.75277 -0.0139476 0)
(1.75375 -0.0126123 0)
(1.7538 -0.0120872 0)
(1.75384 -0.0124893 0)
(1.75438 -0.0133321 0)
(1.75623 -0.0136981 0)
(1.76001 -0.0137008 0)
(1.76506 -0.0136371 0)
(1.77055 -0.0148119 0)
(1.77617 -0.0150769 0)
(1.78212 -0.0146985 0)
(1.78848 -0.0139793 0)
(1.79367 -0.0136565 0)
(1.79902 -0.013146 0)
(1.80402 -0.0127171 0)
(1.80882 -0.0118324 0)
(1.81432 -0.00995498 0)
(1.81912 -0.00795527 0)
(1.82393 -0.00648021 0)
(1.82902 -0.00491747 0)
(1.83406 -0.00273469 0)
(1.83946 0.000317062 0)
(1.84563 0.0045279 0)
(1.85297 0.0106951 0)
(1.86294 0.0184725 0)
(1.8772 0.0252781 0)
(1.89492 0.0284098 0)
(1.913 0.0269135 0)
(1.92855 0.0223527 0)
(1.94081 0.0167714 0)
(1.95024 0.0117623 0)
(1.9578 0.00773584 0)
(1.96428 0.00452999 0)
(1.97015 0.00203185 0)
(1.97589 0.000199748 0)
(1.98206 -0.000838864 0)
(1.98861 -0.00101202 0)
(1.99632 -0.000437097 0)
(1.93104 -0.365268 0)
(1.93104 -0.365271 0)
(1.93105 -0.365273 0)
(1.93105 -0.365276 0)
(1.93106 -0.365278 0)
(1.93106 -0.36528 0)
(1.93106 -0.365284 0)
(1.93107 -0.365286 0)
(1.93107 -0.36529 0)
(1.93108 -0.365293 0)
(1.93108 -0.365296 0)
(1.93109 -0.365299 0)
(1.93109 -0.365303 0)
(1.9311 -0.365306 0)
(1.9311 -0.365311 0)
(1.9311 -0.365315 0)
(1.93111 -0.365318 0)
(1.93111 -0.365322 0)
(1.93112 -0.365326 0)
(1.93112 -0.365329 0)
(1.93112 -0.365333 0)
(1.93113 -0.365337 0)
(1.93113 -0.36534 0)
(1.93113 -0.365342 0)
(1.93114 -0.365345 0)
(1.93114 -0.365346 0)
(1.93114 -0.365348 0)
(1.93114 -0.365347 0)
(1.93115 -0.365347 0)
(1.93115 -0.365344 0)
(1.93115 -0.365344 0)
(1.93115 -0.365341 0)
(1.93115 -0.36534 0)
(1.93116 -0.365338 0)
(1.93116 -0.36534 0)
(1.93116 -0.365338 0)
(1.93116 -0.365336 0)
(1.93116 -0.365329 0)
(1.93116 -0.365322 0)
(1.93116 -0.365313 0)
(1.93115 -0.365299 0)
(1.93115 -0.365277 0)
(1.93113 -0.36524 0)
(1.93108 -0.365135 0)
(1.9308 -0.364666 0)
(1.9295 -0.362589 0)
(1.92546 -0.355431 0)
(1.91354 -0.334992 0)
(1.89401 -0.29601 0)
(1.85734 -0.222798 0)
(1.83532 -0.167573 0)
(1.79869 -0.0904555 0)
(1.78497 -0.0629463 0)
(1.77353 -0.0430312 0)
(1.76472 -0.0294203 0)
(1.76024 -0.0191739 0)
(1.75696 -0.0104516 0)
(1.75523 -0.00563472 0)
(1.75344 -0.00729772 0)
(1.75118 -0.011962 0)
(1.7509 -0.0163832 0)
(1.75166 -0.0157783 0)
(1.75409 -0.0132595 0)
(1.75439 -0.0117619 0)
(1.75388 -0.0120443 0)
(1.75335 -0.0133322 0)
(1.75409 -0.0135954 0)
(1.75623 -0.0136207 0)
(1.76003 -0.0134166 0)
(1.76504 -0.0145179 0)
(1.77052 -0.0156903 0)
(1.77631 -0.0160755 0)
(1.78252 -0.0154257 0)
(1.78851 -0.014912 0)
(1.79386 -0.0153193 0)
(1.79918 -0.0152078 0)
(1.80454 -0.0145181 0)
(1.80994 -0.0131742 0)
(1.81516 -0.0112867 0)
(1.81997 -0.0100414 0)
(1.82523 -0.00870244 0)
(1.83046 -0.00696864 0)
(1.83562 -0.00459059 0)
(1.84123 -0.00140691 0)
(1.84756 0.00282139 0)
(1.8553 0.00843398 0)
(1.86531 0.0150925 0)
(1.87887 0.0208861 0)
(1.89555 0.0236575 0)
(1.91277 0.0225996 0)
(1.92775 0.0188725 0)
(1.93956 0.0144154 0)
(1.94893 0.0102149 0)
(1.95676 0.00649831 0)
(1.96358 0.00341217 0)
(1.96971 0.00108493 0)
(1.97558 -0.000448491 0)
(1.98184 -0.00124208 0)
(1.98858 -0.00131942 0)
(1.99641 -0.00051588 0)
(1.93114 -0.365344 0)
(1.93115 -0.365344 0)
(1.93115 -0.365344 0)
(1.93115 -0.365344 0)
(1.93115 -0.365345 0)
(1.93115 -0.365345 0)
(1.93115 -0.365345 0)
(1.93115 -0.365345 0)
(1.93115 -0.365344 0)
(1.93115 -0.365344 0)
(1.93115 -0.365343 0)
(1.93115 -0.365342 0)
(1.93115 -0.365341 0)
(1.93115 -0.365341 0)
(1.93115 -0.36534 0)
(1.93116 -0.365338 0)
(1.93116 -0.365336 0)
(1.93116 -0.365334 0)
(1.93116 -0.365332 0)
(1.93116 -0.365329 0)
(1.93116 -0.365327 0)
(1.93116 -0.365324 0)
(1.93116 -0.365321 0)
(1.93116 -0.365319 0)
(1.93116 -0.365316 0)
(1.93116 -0.365313 0)
(1.93116 -0.36531 0)
(1.93116 -0.365307 0)
(1.93116 -0.365304 0)
(1.93116 -0.3653 0)
(1.93116 -0.365296 0)
(1.93117 -0.365294 0)
(1.93117 -0.36529 0)
(1.93116 -0.365284 0)
(1.93117 -0.36528 0)
(1.93117 -0.365278 0)
(1.93117 -0.365278 0)
(1.93117 -0.365278 0)
(1.93117 -0.365274 0)
(1.93117 -0.365271 0)
(1.93117 -0.365268 0)
(1.93117 -0.365264 0)
(1.93117 -0.365261 0)
(1.93118 -0.365261 0)
(1.93118 -0.365255 0)
(1.93116 -0.365221 0)
(1.93105 -0.365054 0)
(1.93046 -0.364106 0)
(1.92824 -0.360347 0)
(1.92016 -0.346462 0)
(1.90479 -0.316195 0)
(1.87035 -0.25027 0)
(1.84217 -0.185979 0)
(1.7987 -0.0952782 0)
(1.78054 -0.0508406 0)
(1.76597 -0.0169667 0)
(1.76089 -0.000489223 0)
(1.75613 -0.00224662 0)
(1.75323 -0.00905522 0)
(1.75124 -0.0142635 0)
(1.75172 -0.0149402 0)
(1.75438 -0.0123677 0)
(1.75526 -0.0108438 0)
(1.7542 -0.0112415 0)
(1.75263 -0.0129617 0)
(1.753 -0.0139866 0)
(1.75413 -0.0136772 0)
(1.75649 -0.0127915 0)
(1.75975 -0.0132711 0)
(1.76438 -0.0155242 0)
(1.77013 -0.0164021 0)
(1.7764 -0.0163793 0)
(1.7825 -0.0155745 0)
(1.78818 -0.01614 0)
(1.79366 -0.0170318 0)
(1.79921 -0.0170823 0)
(1.80506 -0.0160504 0)
(1.81067 -0.0140318 0)
(1.81604 -0.0131986 0)
(1.82106 -0.0124388 0)
(1.82643 -0.0111923 0)
(1.83175 -0.00901707 0)
(1.83743 -0.00635829 0)
(1.84345 -0.00318156 0)
(1.84987 0.000912906 0)
(1.85769 0.00605031 0)
(1.86774 0.0118065 0)
(1.88123 0.0166239 0)
(1.89719 0.0188868 0)
(1.91305 0.0182173 0)
(1.92697 0.015484 0)
(1.93857 0.0117738 0)
(1.94813 0.00799151 0)
(1.95613 0.00471864 0)
(1.96301 0.00213474 0)
(1.96925 0.00014862 0)
(1.97537 -0.00126212 0)
(1.98191 -0.00179644 0)
(1.98876 -0.00156202 0)
(1.99653 -0.000582581 0)
(1.93117 -0.365307 0)
(1.93117 -0.365305 0)