/*--------------------------------*- C++ -*----------------------------------*\
  =========                 |
  \\      /  F ield         | OpenFOAM: The Open Source CFD Toolbox
   \\    /   O peration     | Website:  https://openfoam.org
    \\  /    A nd           | Version:  7
     \\/     M anipulation  |
\*---------------------------------------------------------------------------*/
FoamFile
{
    version     2.0;
    format      ascii;
    class       volVectorField;
    location    "3.2";
    object      U;
}
// * * * * * * * * * * * * * * * * * * * * * * * * * * * * * * * * * * * * * //

dimensions      [0 1 -1 0 0 0 0];

internalField   nonuniform List<vector> 
1750
(
(2.66674 -0.620236 0)
(2.63893 -0.221422 0)
(2.66696 -0.0683443 0)
(2.67976 -0.188182 0)
(2.68101 -0.158506 0)
(2.68521 0.0220003 0)
(2.73918 0.0602867 0)
(2.7853 0.0404391 0)
(2.80804 0.0271471 0)
(2.77266 -0.00211598 0)
(2.80205 -1.07887 0)
(2.79811 -0.938579 0)
(2.79403 -0.609326 0)
(2.89454 -0.677348 0)
(2.80006 -0.438422 0)
(2.72407 -0.0873898 0)
(2.82111 -0.0541702 0)
(2.85485 0.0371887 0)
(2.84514 0.00699861 0)
(2.80001 -0.0123961 0)
(3.00379 -1.31922 0)
(3.07126 -1.35974 0)
(3.13724 -1.35776 0)
(3.18476 -1.37573 0)
(3.17378 -1.23946 0)
(3.09261 -0.937229 0)
(3.09255 -0.706197 0)
(3.02777 -0.349536 0)
(3.08402 -0.320237 0)
(2.969 -0.0882387 0)
(3.08374 -1.40631 0)
(3.11124 -1.32096 0)
(3.13875 -1.29756 0)
(3.22393 -1.16289 0)
(3.22873 -1.17691 0)
(3.23395 -1.18891 0)
(3.243 -1.17023 0)
(3.21955 -1.0621 0)
(3.21953 -0.931272 0)
(3.11595 -0.473095 0)
(3.21305 -1.04239 0)
(3.18126 -1.00335 0)
(3.18763 -0.960752 0)
(3.21575 -0.918058 0)
(3.21732 -0.915749 0)
(3.2016 -0.943522 0)
(3.21603 -0.965949 0)
(3.23579 -0.969424 0)
(3.24769 -0.965921 0)
(3.22947 -0.892257 0)
(3.21861 -0.778702 0)
(3.18772 -0.802158 0)
(3.18253 -0.808151 0)
(3.19345 -0.808181 0)
(3.20445 -0.819314 0)
(3.20889 -0.825339 0)
(3.2141 -0.827356 0)
(3.22013 -0.828962 0)
(3.23701 -0.817895 0)
(3.2709 -0.796452 0)
(3.20181 -0.467425 0)
(3.17363 -0.567636 0)
(3.16727 -0.570898 0)
(3.1745 -0.54071 0)
(3.18844 -0.575022 0)
(3.19463 -0.5917 0)
(3.19845 -0.567002 0)
(3.20543 -0.619517 0)
(3.21216 -0.627326 0)
(3.23427 -0.658998 0)
(3.09076 -0.154795 0)
(3.12486 -0.24446 0)
(3.11567 -0.323569 0)
(3.1122 -0.316754 0)
(3.13182 -0.361723 0)
(3.14641 -0.424433 0)
(3.15833 -0.424289 0)
(3.17165 -0.470437 0)
(3.18489 -0.478175 0)
(3.21137 -0.523545 0)
(2.97947 0.0496902 0)
(3.0093 0.00845738 0)
(3.033 -0.0840733 0)
(3.03983 -0.108206 0)
(3.0588 -0.137953 0)
(3.08231 -0.210398 0)
(3.09443 -0.214265 0)
(3.12396 -0.288404 0)
(3.14662 -0.324716 0)
(3.1783 -0.333818 0)
(2.85357 0.323979 0)
(2.87944 0.28573 0)
(2.9112 0.227939 0)
(2.95195 0.127175 0)
(2.9693 0.11492 0)
(3.01203 0.0271979 0)
(3.04062 -0.028716 0)
(3.07013 -0.0631936 0)
(3.09836 -0.105277 0)
(3.13815 -0.196738 0)
(2.7719 0.503274 0)
(2.79493 0.485814 0)
(2.82303 0.453465 0)
(2.85863 0.397506 0)
(2.88278 0.369889 0)
(2.92666 0.305177 0)
(2.96281 0.248002 0)
(3.00415 0.183264 0)
(3.04189 0.125954 0)
(3.08448 0.0464534 0)
(2.77937 0.485758 0)
(2.79453 0.481 0)
(2.81345 0.464917 0)
(2.8293 0.451996 0)
(2.84668 0.450892 0)
(2.87599 0.431008 0)
(2.905 0.40357 0)
(2.93783 0.373281 0)
(2.97067 0.34453 0)
(3.02587 0.275776 0)
(2.86487 0.293412 0)
(2.85513 0.33186 0)
(2.85654 0.351905 0)
(2.84755 0.373092 0)
(2.86816 0.390514 0)
(2.87919 0.389252 0)
(2.89682 0.378887 0)
(2.91944 0.36328 0)
(2.94263 0.355207 0)
(2.99529 0.318966 0)
(2.97875 0.0444674 0)
(2.96931 0.0660097 0)
(2.95649 0.0977169 0)
(2.94222 0.13251 0)
(2.93372 0.165692 0)
(2.92107 0.218839 0)
(2.93277 0.227675 0)
(2.92253 0.258976 0)
(2.95467 0.268282 0)
(2.98524 0.256257 0)
(2.99946 0.000877775 0)
(2.99891 0.00176157 0)
(2.99777 0.00354165 0)
(2.99571 0.00680956 0)
(2.99203 0.0126331 0)
(2.98672 0.0216505 0)
(2.98083 0.0344305 0)
(2.97364 0.0464991 0)
(2.96615 0.0645733 0)
(2.97644 0.0775294 0)
(2.64548 -1.06333 0)
(2.74211 -1.03758 0)
(2.99456 -1.1903 0)
(3.1237 -1.44293 0)
(3.23981 -1.04718 0)
(3.2266 -0.747597 0)
(3.1426 -0.370834 0)
(3.06426 -0.182297 0)
(2.94448 0.0963949 0)
(2.80076 0.410253 0)
(2.74912 0.512581 0)
(2.77256 0.48092 0)
(2.88443 0.240076 0)
(2.987 0.026706 0)
(2.99972 0.000472195 0)
(2.55677 -1.08209 0)
(2.73643 -1.08369 0)
(3.09767 -1.16987 0)
(3.20625 -1.33004 0)
(3.21778 -0.814509 0)
(3.1581 -0.5853 0)
(3.09642 -0.364172 0)
(3.01906 -0.136366 0)
(2.88789 0.206878 0)
(2.76016 0.466346 0)
(2.72809 0.528247 0)
(2.77656 0.433311 0)
(2.91205 0.175858 0)
(2.99417 0.0118279 0)
(2.9999 0.000160094 0)
(2.50396 -1.10038 0)
(2.73057 -1.11704 0)
(3.11252 -1.16558 0)
(3.16891 -1.20681 0)
(3.14565 -0.859956 0)
(3.10393 -0.604678 0)
(3.07288 -0.371601 0)
(2.98644 0.00214932 0)
(2.84435 0.302999 0)
(2.72177 0.512982 0)
(2.71262 0.537568 0)
(2.79115 0.401098 0)
(2.94522 0.110712 0)
(2.99753 0.00518249 0)
(2.99997 5.82008e-05 0)
(2.46494 -1.18742 0)
(2.74539 -1.30992 0)
(3.08586 -1.17213 0)
(3.06647 -1.19436 0)
(3.09083 -0.918624 0)
(3.09505 -0.56613 0)
(3.07985 -0.18709 0)
(2.92682 0.187599 0)
(2.79135 0.392408 0)
(2.68697 0.55246 0)
(2.69488 0.543893 0)
(2.80616 0.371267 0)
(2.96748 0.0661336 0)
(2.99907 0.00195151 0)
(2.99999 1.95501e-05 0)
(2.43831 -1.23297 0)
(2.75347 -1.44605 0)
(3.00876 -1.2436 0)
(3.04917 -1.18756 0)
(3.14488 -0.802987 0)
(3.10856 -0.264608 0)
(3.00695 0.0468507 0)
(2.89036 0.222162 0)
(2.71735 0.499762 0)
(2.66284 0.575549 0)
(2.68719 0.539891 0)
(2.86495 0.257872 0)
(2.98599 0.029434 0)
(2.9997 0.000628842 0)
(3 5.87881e-06 0)
(2.40294 -1.23257 0)
(2.71166 -1.46491 0)
(2.99718 -1.24448 0)
(3.1224 -0.978741 0)
(3.16677 -0.433902 0)
(3.05904 -0.111676 0)
(2.96045 0.0520733 0)
(2.81426 0.315729 0)
(2.66972 0.552935 0)
(2.64696 0.589495 0)
(2.74226 0.461678 0)
(2.91627 0.168277 0)
(2.99504 0.0108516 0)
(2.99992 0.00017971 0)
(3 1.59539e-06 0)
(2.29052 -1.21481 0)
(2.64613 -1.48826 0)
(2.9765 -1.13389 0)
(3.16172 -0.582445 0)
(3.14036 -0.379476 0)
(3.00736 -0.124619 0)
(2.89763 0.130399 0)
(2.71305 0.472841 0)
(2.63209 0.590646 0)
(2.63864 0.594805 0)
(2.77345 0.395959 0)
(2.95249 0.095581 0)
(2.99829 0.00366377 0)
(2.99998 4.86962e-05 0)
(3 4.13878e-07 0)
(2.20934 -1.2327 0)
(2.56373 -1.50704 0)
(3.01469 -0.741955 0)
(3.10454 -0.467076 0)
(3.07432 -0.391817 0)
(2.95592 0.0130465 0)
(2.7921 0.354714 0)
(2.65488 0.549808 0)
(2.61242 0.60564 0)
(2.6384 0.563829 0)
(2.81792 0.324311 0)
(2.98341 0.0326641 0)
(2.99959 0.000877203 0)
(2.99999 1.09841e-05 0)
(3 9.22284e-08 0)
(2.09566 -1.03706 0)
(2.55642 -1.49733 0)
(3.01452 -0.621229 0)
(3.05375 -0.570808 0)
(3.02866 -0.153436 0)
(2.85608 0.282887 0)
(2.7194 0.476755 0)
(2.60262 0.614105 0)
(2.60532 0.610182 0)
(2.72927 0.450064 0)
(2.93498 0.131406 0)
(2.99549 0.00995906 0)
(2.99991 0.000181136 0)
(3 2.1391e-06 0)
(3 1.79662e-08 0)
(1.91344 -0.717462 0)
(2.61641 -1.1223 0)
(2.99996 -0.785257 0)
(3.04848 -0.353542 0)
(2.88433 0.212003 0)
(2.79271 0.392882 0)
(2.65222 0.565178 0)
(2.58002 0.642028 0)
(2.59183 0.608999 0)
(2.77918 0.373859 0)
(2.97108 0.0611357 0)
(2.99919 0.00199838 0)
(2.99999 3.04447e-05 0)
(3 3.37501e-07 0)
(3 2.77266e-09 0)
(1.78207 -0.417639 0)
(2.67053 -0.851181 0)
(3.02808 -0.592541 0)
(2.9323 0.140944 0)
(2.83466 0.322432 0)
(2.70585 0.504347 0)
(2.59076 0.639763 0)
(2.57314 0.651666 0)
(2.63876 0.569047 0)
(2.87508 0.223984 0)
(2.9906 0.0203143 0)
(2.99979 0.000468899 0)
(3 5.98862e-06 0)
(3 6.10044e-08 0)
(3 4.6927e-10 0)
(1.59151 0.332526 0)
(2.74052 -0.630699 0)
(2.98234 -0.00613427 0)
(2.86347 0.316582 0)
(2.74156 0.460663 0)
(2.61212 0.621327 0)
(2.57186 0.65714 0)
(2.56874 0.655154 0)
(2.76401 0.381204 0)
(2.96963 0.0620982 0)
(2.99895 0.00274155 0)
(2.99998 5.38802e-05 0)
(3 7.09009e-07 0)
(3 7.54235e-09 0)
(3 5.97778e-11 0)
(1.47089 0.803645 0)
(2.86624 -0.0415859 0)
(2.89785 0.284933 0)
(2.76147 0.465654 0)
(2.63272 0.613136 0)
(2.5684 0.670466 0)
(2.56773 0.655935 0)
(2.68609 0.487724 0)
(2.91492 0.162756 0)
(2.99347 0.0162574 0)
(2.99983 0.000413594 0)
(3 6.08956e-06 0)
(3 7.25213e-08 0)
(3 7.32743e-10 0)
(3 5.64295e-12 0)
(2.05692 0.626373 0)
(2.92169 0.323701 0)
(2.78669 0.477355 0)
(2.63376 0.635214 0)
(2.57767 0.673641 0)
(2.54824 0.702065 0)
(2.59808 0.583948 0)
(2.78961 0.340508 0)
(2.97311 0.0566178 0)
(2.99922 0.00186686 0)
(2.99999 3.37998e-05 0)
(3 4.52725e-07 0)
(3 5.09447e-09 0)
(3 4.93031e-11 0)
(3 3.70915e-13 0)
(2.42619 0.650077 0)
(2.77243 0.562093 0)
(2.62356 0.658346 0)
(2.5713 0.698501 0)
(2.56734 0.685377 0)
(2.53401 0.742594 0)
(2.70082 0.452866 0)
(2.93531 0.113946 0)
(2.99798 0.00485835 0)
(2.99997 9.42575e-05 0)
(3 1.19148e-06 0)
(3 1.21421e-08 0)
(3 1.02471e-10 0)
(3 7.33305e-13 0)
(3 7.00655e-15 0)
(2.52768 0.693449 0)
(2.5438 0.698639 0)
(2.56078 0.707223 0)
(2.55808 0.713272 0)
(2.56851 0.685494 0)
(2.59894 0.621881 0)
(2.89441 0.147147 0)
(3.00578 -0.010686 0)
(3.00044 -0.000702674 0)
(3.00001 -1.27305e-05 0)
(3 -9.96141e-08 0)
(3 -7.53066e-10 0)
(3 -5.5489e-12 0)
(3 -3.49399e-14 0)
(3 2.46987e-15 0)
(2.52465 0.683389 0)
(2.55077 0.679526 0)
(2.56559 0.710315 0)
(2.54496 0.737551 0)
(2.5713 0.67586 0)
(2.73149 0.456956 0)
(2.93435 0.101372 0)
(2.99788 0.00304293 0)
(2.99998 3.83161e-05 0)
(3 3.06569e-07 0)
(3 2.1689e-09 0)
(3 1.4918e-11 0)
(3 1.07079e-13 0)
(3 5.05336e-15 0)
(3 2.7454e-15 0)
(2.53105 0.690078 0)
(2.55395 0.662952 0)
(2.56143 0.712013 0)
(2.53461 0.763566 0)
(2.57908 0.667287 0)
(2.77217 0.334028 0)
(2.98791 0.0159915 0)
(2.99994 8.83257e-05 0)
(3 1.41274e-07 0)
(3 6.9431e-10 0)
(3 6.64838e-12 0)
(3 1.14731e-13 0)
(3 2.9003e-15 0)
(3 4.25038e-15 0)
(3 3.47486e-15 0)
(2.52832 0.702629 0)
(2.54721 0.659959 0)
(2.55061 0.708966 0)
(2.5436 0.763742 0)
(2.61437 0.614535 0)
(2.89256 0.149003 0)
(2.99719 0.00403943 0)
(2.99999 8.67909e-06 0)
(3 3.30599e-08 0)
(3 4.05032e-11 0)
(3 2.026e-12 0)
(3 7.67682e-14 0)
(3 1.77726e-15 0)
(3 4.52e-15 0)
(3 4.59918e-15 0)
(2.52289 0.715547 0)
(2.53037 0.706714 0)
(2.5459 0.72066 0)
(2.55796 0.719424 0)
(2.77185 0.369764 0)
(2.97562 0.0345374 0)
(2.99985 0.000166901 0)
(3 6.56232e-07 0)
(3 -8.81415e-10 0)
(3 8.96826e-12 0)
(3 1.235e-12 0)
(3 5.23198e-14 0)
(3 5.7381e-16 0)
(3 3.88289e-15 0)
(3 3.40884e-15 0)
(2.51347 0.739621 0)
(2.50153 0.756323 0)
(2.54316 0.731272 0)
(2.59099 0.670703 0)
(2.85219 0.22406 0)
(2.9954 0.00660343 0)
(2.99998 2.89867e-05 0)
(3 -6.51766e-08 0)
(3 1.41145e-10 0)
(3 8.29896e-12 0)
(3 8.55823e-13 0)
(3 2.4184e-15 0)
(3 1.82473e-16 0)
(3 3.46322e-15 0)
(3 2.25306e-15 0)
(2.51613 0.728245 0)
(2.45697 0.80611 0)
(2.55128 0.728736 0)
(2.67548 0.539933 0)
(2.95831 0.0586954 0)
(2.99961 0.000496398 0)
(3 -4.74803e-07 0)
(3 3.21711e-09 0)
(3 1.09602e-10 0)
(3 7.14771e-12 0)
(3 1.42571e-14 0)
(3 -2.00576e-15 0)
(3 1.03656e-17 0)
(3 2.97708e-15 0)
(3 1.3758e-15 0)
(2.47969 0.724665 0)
(2.41679 0.856519 0)
(2.70614 0.626573 0)
(2.89651 0.232965 0)
(2.99489 0.00809271 0)
(2.99998 2.65834e-05 0)
(3 2.65278e-07 0)
(3 9.56209e-10 0)
(3 -4.23574e-13 0)
(3 -2.79714e-14 0)
(3 -1.12814e-15 0)
(3 -4.48865e-16 0)
(3 2.45848e-16 0)
(3 2.53459e-15 0)
(3 9.12275e-16 0)
(2.4868 0.6768 0)
(2.45071 0.932772 0)
(2.75408 0.499291 0)
(2.95395 0.0787744 0)
(2.99952 0.000630236 0)
(3 1.59081e-07 0)
(3 -3.17928e-09 0)
(3 -1.93541e-11 0)
(3 -7.63136e-13 0)
(3 -7.19035e-15 0)
(3 -2.26277e-16 0)
(3 -3.96114e-16 0)
(3 7.03998e-16 0)
(3 1.67234e-15 0)
(3 6.91189e-16 0)
(2.53689 0.599828 0)
(2.50988 0.824296 0)
(2.88574 0.225357 0)
(2.99473 0.00918657 0)
(2.99998 2.67235e-05 0)
(3 1.56952e-07 0)
(3 4.6266e-10 0)
(3 2.16573e-12 0)
(3 -2.26515e-16 0)
(3 -2.25506e-15 0)
(3 -8.12793e-16 0)
(3 -3.10764e-16 0)
(3 1.51014e-15 0)
(3 9.70457e-16 0)
(3 4.10601e-16 0)
(2.57616 0.482056 0)
(2.64661 0.619392 0)
(2.95462 0.082644 0)
(2.99929 0.00114763 0)
(3 3.95997e-06 0)
(3 -7.47626e-09 0)
(3 -4.63302e-11 0)
(3 -7.2458e-13 0)
(3 -5.08112e-15 0)
(3 -1.40519e-15 0)
(3 -1.12188e-15 0)
(3 -4.28108e-16 0)
(3 3.794e-16 0)
(3 7.69106e-16 0)
(3 7.93041e-16 0)
(2.63142 0.379605 0)
(2.76549 0.392067 0)
(2.98733 0.0208409 0)
(2.99991 0.000125565 0)
(3 -1.12148e-07 0)
(3 2.24024e-10 0)
(3 -1.62379e-11 0)
(3 -1.44554e-13 0)
(3 -1.47738e-15 0)
(3 -1.25465e-15 0)
(3 -1.97335e-15 0)
(3 -3.52323e-16 0)
(3 5.21046e-16 0)
(3 1.57029e-15 0)
(3 1.13769e-15 0)
(2.72827 0.23218 0)
(2.8827 0.191235 0)
(2.99751 0.00386245 0)
(2.99999 1.10218e-05 0)
(3 1.03367e-07 0)
(3 2.77593e-10 0)
(3 9.79769e-13 0)
(3 -1.92194e-15 0)
(3 -2.30259e-15 0)
(3 -2.37281e-15 0)
(3 -2.76276e-15 0)
(3 -5.50655e-16 0)
(3 1.03545e-15 0)
(3 2.55553e-15 0)
(3 1.46419e-15 0)
(2.80812 0.126975 0)
(2.95708 0.0642664 0)
(2.99963 0.000539003 0)
(3 1.56389e-06 0)
(3 -4.42475e-09 0)
(3 -1.07286e-11 0)
(3 -5.34904e-13 0)
(3 7.48428e-16 0)
(3 -9.11856e-16 0)
(3 -2.49245e-15 0)
(3 -3.21769e-15 0)
(3 -9.43982e-16 0)
(3 2.62302e-15 0)
(3 2.80392e-15 0)
(3 1.30188e-15 0)
(2.91578 0.0231803 0)
(2.99215 0.0108965 0)
(2.99997 3.30778e-05 0)
(3 -2.36412e-08 0)
(3 7.97e-11 0)
(3 -4.86967e-13 0)
(3 -5.20534e-15 0)
(3 1.05519e-15 0)
(3 -1.03627e-15 0)
(3 -2.53015e-15 0)
(3 -3.49152e-15 0)
(3 -1.23181e-15 0)
(3 2.79378e-15 0)
(3 2.99581e-15 0)
(3 1.19757e-15 0)
(3 8.50684e-16 0)
(3 6.94729e-16 0)
(3 -6.39715e-16 0)
(3 6.54618e-16 0)
(3 9.81391e-17 0)
(3 -2.62659e-15 0)
(3 -1.20827e-15 0)
(3 1.72161e-16 0)
(3 -6.65737e-16 0)
(3 -2.57441e-15 0)
(3 -4.41139e-15 0)
(3 -1.24693e-15 0)
(3 2.95595e-15 0)
(3 2.85123e-15 0)
(3 1.15542e-15 0)
(3 1.86257e-15 0)
(3 8.26351e-16 0)
(3 -6.94394e-16 0)
(3 1.5872e-15 0)
(3 1.58499e-15 0)
(3 -9.06848e-16 0)
(3 -8.91072e-16 0)
(3 -6.33027e-17 0)
(3 -7.2584e-16 0)
(3 -3.13881e-15 0)
(3 -4.77054e-15 0)
(3 -9.08293e-16 0)
(3 2.1107e-15 0)
(3 3.83838e-15 0)
(3 1.43481e-15 0)
(3 7.31832e-16 0)
(3 9.57044e-16 0)
(3 3.57753e-16 0)
(3 1.66209e-15 0)
(3 1.99658e-15 0)
(3 2.40545e-17 0)
(3 -7.51173e-16 0)
(3 -4.5525e-16 0)
(3 -6.57993e-16 0)
(3 -2.59403e-15 0)
(3 -4.01088e-15 0)
(3 -1.23449e-15 0)
(3 2.05115e-15 0)
(3 3.20868e-15 0)
(3 1.36977e-15 0)
(3 1.62968e-16 0)
(3 9.62552e-16 0)
(3 3.5139e-16 0)
(3 1.45716e-15 0)
(3 2.41165e-15 0)
(3 4.06941e-16 0)
(3 -1.4047e-16 0)
(3 -3.16307e-16 0)
(3 -1.01198e-15 0)
(3 -2.24059e-15 0)
(3 -2.14122e-15 0)
(3 1.15529e-16 0)
(3 2.02825e-15 0)
(3 2.45268e-15 0)
(3 6.63039e-16 0)
(3 -4.65759e-16 0)
(3 -8.53356e-16 0)
(3 -1.08722e-16 0)
(3 2.47479e-15 0)
(3 1.36004e-15 0)
(3 -5.61078e-16 0)
(3 7.7821e-16 0)
(3 4.75548e-16 0)
(3 -8.69203e-16 0)
(3 -2.51163e-15 0)
(3 -1.86959e-15 0)
(3 9.45718e-16 0)
(3 1.90962e-15 0)
(3 1.26611e-15 0)
(3 1.86846e-16 0)
(3 -8.35625e-16 0)
(3 -2.6491e-16 0)
(3 3.14284e-16 0)
(3 1.89959e-15 0)
(3 9.50014e-16 0)
(3 -4.41537e-16 0)
(3 1.23736e-15 0)
(3 2.98286e-16 0)
(3 -8.92085e-16 0)
(3 -1.01593e-15 0)
(3 -1.33139e-15 0)
(3 2.02124e-16 0)
(3 1.13953e-15 0)
(3 6.72757e-16 0)
(3 1.30341e-16 0)
(3 2.29975e-16 0)
(3 1.62415e-16 0)
(3 -2.81213e-16 0)
(3 3.0476e-16 0)
(3 4.94083e-16 0)
(3 -4.45362e-16 0)
(3 1.45339e-15 0)
(3 1.83145e-16 0)
(3 -5.24574e-16 0)
(3 -2.26634e-16 0)
(3 -1.01303e-15 0)
(3 -9.7306e-17 0)
(3 4.2436e-16 0)
(3 4.35826e-16 0)
(3 6.60482e-17 0)
(3 -1.4829e-16 0)
(3 -3.60387e-16 0)
(3 -1.17972e-15 0)
(3 -1.17782e-15 0)
(3 8.92812e-16 0)
(3 7.9648e-16 0)
(3 1.36351e-15 0)
(3 3.99854e-16 0)
(3 1.09961e-16 0)
(3 -3.05595e-16 0)
(3 -8.11696e-16 0)
(3 -2.86896e-16 0)
(3 -3.46236e-16 0)
(3 3.35922e-16 0)
(3 2.8741e-17 0)
(3 -8.64347e-16 0)
(3 -8.95442e-17 0)
(3 2.1182e-16 0)
(3 -1.61214e-15 0)
(3 -4.11889e-16 0)
(3 1.06711e-15 0)
(3 2.68078e-15 0)
(3 1.17267e-15 0)
(3 -4.04795e-16 0)
(3 -7.40115e-16 0)
(3 -2.59031e-16 0)
(3 -7.46598e-16 0)
(3 -4.45756e-16 0)
(3 5.17506e-16 0)
(3 1.46072e-16 0)
(3 -8.89668e-16 0)
(3 -3.63479e-16 0)
(3 1.89234e-16 0)
(3 -1.02307e-16 0)
(3 -1.00475e-15 0)
(3 1.72337e-16 0)
(3 2.58926e-15 0)
(3 4.64574e-16 0)
(3 -9.4643e-16 0)
(3 -3.78595e-16 0)
(3 4.1044e-16 0)
(3 -1.33145e-16 0)
(3 -1.79188e-16 0)
(3 5.1625e-16 0)
(3 -3.53518e-17 0)
(3 1.10625e-15 0)
(3 8.32738e-16 0)
(3 2.48251e-16 0)
(3 -8.23453e-17 0)
(3 -4.90425e-16 0)
(3 3.96826e-16 0)
(3 8.55274e-16 0)
(3 1.47689e-15 0)
(3 6.55179e-16 0)
(3 4.21044e-16 0)
(3 1.39023e-15 0)
(3 -5.63312e-16 0)
(3 -8.58047e-16 0)
(3 -1.3584e-15 0)
(3 1.32502e-16 0)
(3 1.24639e-15 0)
(3 9.76971e-16 0)
(3 2.05351e-15 0)
(3 2.17398e-15 0)
(3 9.68401e-16 0)
(3 1.56069e-16 0)
(3 -5.64652e-16 0)
(3 -5.85575e-16 0)
(3 -1.85829e-16 0)
(3 9.6294e-16 0)
(3 2.24583e-15 0)
(3 2.63316e-15 0)
(3 2.5734e-15 0)
(3 1.98517e-15 0)
(3 -7.21543e-16 0)
(3 -2.23332e-15 0)
(3 -2.98944e-15 0)
(3 -5.55172e-16 0)
(3 1.68422e-15 0)
(3 2.40805e-15 0)
(3 1.8868e-15 0)
(3 4.56832e-16 0)
(3 -7.75054e-16 0)
(3 -9.58271e-16 0)
(3 -1.92522e-15 0)
(3 5.24146e-16 0)
(3 7.78845e-16 0)
(3 1.23458e-15 0)
(3 1.51692e-15 0)
(3 1.35814e-15 0)
(3 -1.28713e-15 0)
(3 -2.38229e-15 0)
(3 -2.5107e-15 0)
(3 -1.74842e-15 0)
(3 -2.31509e-16 0)
(3 2.40248e-15 0)
(3 2.60788e-15 0)
(3 4.58896e-16 0)
(3 -1.04579e-16 0)
(3 -1.16102e-15 0)
(3 -2.58914e-15 0)
(3 -2.49391e-15 0)
(3 -1.29731e-15 0)
(3 -7.11172e-16 0)
(3 -6.52062e-17 0)
(3 1.8323e-16 0)
(3 5.55563e-16 0)
(3 -1.95798e-16 0)
(3 -2.19128e-15 0)
(3 -3.10239e-15 0)
(3 -2.94452e-15 0)
(3 -2.69623e-15 0)
(3 -1.86499e-15 0)
(3 -2.36539e-15 0)
(3 -1.43955e-15 0)
(3 -9.37047e-16 0)
(3 -8.13546e-16 0)
(3 -6.44024e-16 0)
(3 -1.737e-15 0)
(3 -4.35718e-15 0)
(3 -4.54427e-15 0)
(3 -3.71434e-15 0)
(3 -1.96778e-15 0)
(3 -9.97168e-16 0)
(3 9.36402e-17 0)
(3 -2.22116e-15 0)
(3 -2.56349e-15 0)
(3 -3.64871e-15 0)
(3 -3.20486e-15 0)
(3 -3.09189e-15 0)
(3 -3.06521e-15 0)
(3 -1.81175e-15 0)
(3 -1.31169e-15 0)
(3 1.81072e-16 0)
(3 6.02177e-16 0)
(3 -1.62867e-15 0)
(3 -2.18964e-15 0)
(3 -2.93002e-15 0)
(3 -2.77287e-15 0)
(3 -8.99573e-16 0)
(3 2.51087e-16 0)
(3 5.01318e-16 0)
(3 -3.27166e-16 0)
(3 -7.12591e-16 0)
(3 1.13404e-16 0)
(3 7.13462e-16 0)
(3 8.69268e-16 0)
(3 3.41709e-16 0)
(3 4.72739e-16 0)
(3 1.78479e-15 0)
(3 2.49188e-15 0)
(3 2.65576e-15 0)
(3 1.64156e-15 0)
(3 1.21054e-15 0)
(3 9.57826e-16 0)
(3 9.25897e-17 0)
(3 8.65645e-16 0)
(3 1.5976e-15 0)
(3 2.28929e-15 0)
(3 2.15374e-15 0)
(3 1.55394e-15 0)
(3 1.50697e-15 0)
(3 8.989e-16 0)
(3 1.19553e-15 0)
(3 1.2897e-16 0)
(3 1.08529e-15 0)
(3 1.51844e-15 0)
(3 2.62915e-15 0)
(3 2.48506e-15 0)
(3 1.94196e-15 0)
(3 1.26339e-15 0)
(3 1.33594e-15 0)
(3 1.44051e-15 0)
(3 1.20007e-15 0)
(3 4.77078e-16 0)
(3 2.32303e-16 0)
(3 2.7027e-16 0)
(3 2.55505e-16 0)
(3 6.97295e-16 0)
(3 5.46814e-16 0)
(3 7.44409e-16 0)
(3 5.1717e-16 0)
(3 7.75581e-16 0)
(3 6.02526e-16 0)
(3 1.1855e-16 0)
(3 -2.98855e-15 0)
(3 -3.69965e-15 0)
(3 -4.02259e-15 0)
(3 -2.93636e-15 0)
(3 -2.06279e-15 0)
(3 -1.37424e-15 0)
(3 -1.67007e-15 0)
(3 -1.30933e-15 0)
(3 -1.53382e-15 0)
(3 -1.01725e-15 0)
(3 -1.53745e-15 0)
(3 -1.94722e-15 0)
(3 -1.60896e-15 0)
(3 -2.00295e-15 0)
(3 -1.04344e-15 0)
(3 1.38643e-16 0)
(3 7.93113e-16 0)
(3 4.5242e-16 0)
(3 -4.8881e-16 0)
(3 1.05202e-16 0)
(3 2.48648e-15 0)
(3 2.72941e-15 0)
(3 2.04827e-15 0)
(3 1.00707e-15 0)
(3 7.82551e-16 0)
(3 5.79549e-16 0)
(3 6.28474e-17 0)
(3 2.95286e-16 0)
(3 5.08871e-16 0)
(3 1.38622e-16 0)
(3 3.73977e-15 0)
(3 3.66614e-15 0)
(3 4.19835e-15 0)
(3 4.07646e-15 0)
(3 2.28688e-15 0)
(3 1.02976e-15 0)
(3 2.45627e-16 0)
(3 3.08655e-16 0)
(3 5.28776e-16 0)
(3 1.00345e-16 0)
(3 1.23097e-15 0)
(3 1.47823e-15 0)
(3 1.27114e-15 0)
(3 9.83459e-16 0)
(3 6.98377e-16 0)
(3 6.20689e-16 0)
(3 5.63982e-16 0)
(3 2.75651e-16 0)
(3 5.25259e-16 0)
(3 5.70885e-16 0)
(3 -1.32473e-17 0)
(3 8.36422e-17 0)
(3 -2.54956e-16 0)
(3 -6.73175e-16 0)
(3 -6.42125e-16 0)
(3 -6.03909e-16 0)
(3 -6.18848e-16 0)
(3 -4.83553e-16 0)
(3 -9.15863e-17 0)
(3 1.42864e-16 0)
(2.84814 -0.0481219 0)
(2.99343 -0.00843856 0)
(3 2.55381e-09 0)
(3 6.79063e-15 0)
(3 8.62294e-16 0)
(3 7.86741e-18 0)
(3 -8.49226e-16 0)
(3 -2.69449e-16 0)
(3 -8.40854e-16 0)
(3 -2.23011e-15 0)
(3 -1.65717e-16 0)
(3 8.69228e-16 0)
(3 8.94872e-16 0)
(3 6.23548e-17 0)
(3 -2.45936e-15 0)
(3 -1.28457e-15 0)
(3 2.71871e-15 0)
(3 3.5149e-15 0)
(3 1.01817e-15 0)
(3 4.47339e-17 0)
(2.60604 -0.280328 0)
(2.89029 -0.135825 0)
(3.00029 0.000321933 0)
(3 -1.13679e-06 0)
(3 1.57142e-09 0)
(3 1.18486e-11 0)
(3 8.38769e-15 0)
(3 -2.12265e-15 0)
(3 -1.01938e-15 0)
(3 -2.82919e-15 0)
(3 -8.30996e-16 0)
(3 8.84113e-16 0)
(3 9.80857e-16 0)
(3 1.52355e-16 0)
(3 -1.07833e-15 0)
(3 -8.34215e-16 0)
(3 2.7276e-15 0)
(3 3.12256e-15 0)
(3 9.24195e-16 0)
(3 1.54563e-16 0)
(2.51764 -0.502583 0)
(2.71776 -0.444152 0)
(2.99529 -0.006397 0)
(3.00002 2.60358e-05 0)
(3 -2.74826e-10 0)
(3 1.31607e-11 0)
(3 5.94186e-15 0)
(3 -2.67859e-15 0)
(3 -2.46972e-15 0)
(3 -4.07608e-15 0)
(3 -2.02538e-16 0)
(3 6.74907e-16 0)
(3 1.20774e-15 0)
(3 1.27608e-15 0)
(3 -1.27735e-16 0)
(3 2.42053e-16 0)
(3 3.03156e-15 0)
(3 2.87357e-15 0)
(3 6.71173e-16 0)
(3 2.63751e-16 0)
(2.29299 -0.740886 0)
(2.24932 -0.999819 0)
(2.87326 -0.206528 0)
(2.9997 -0.000469974 0)
(3 -2.50549e-10 0)
(3 1.49656e-11 0)
(3 2.37903e-13 0)
(3 -1.33274e-15 0)
(3 -4.41304e-15 0)
(3 -5.25965e-15 0)
(3 -6.24935e-16 0)
(3 8.96603e-16 0)
(3 1.24916e-15 0)
(3 2.69255e-15 0)
(3 1.27906e-16 0)
(3 3.99741e-16 0)
(3 3.37677e-15 0)
(3 2.8759e-15 0)
(3 3.42307e-16 0)
(3 4.72719e-16 0)
(2.17897 -0.856843 0)
(2.09594 -1.06841 0)
(2.60125 -0.666315 0)
(2.93774 -0.114425 0)
(3.00003 0.000131878 0)
(3 3.7425e-07 0)
(3 3.35841e-10 0)
(3 5.2767e-13 0)
(3 -3.2388e-15 0)
(3 -5.7192e-15 0)
(3 -2.62906e-15 0)
(3 2.10399e-16 0)
(3 8.99562e-16 0)
(3 3.55705e-15 0)
(3 9.11086e-16 0)
(3 6.37135e-16 0)
(3 3.4333e-15 0)
(3 2.86656e-15 0)
(3 -2.57449e-16 0)
(3 -3.86415e-16 0)
(2.19848 -0.899133 0)
(2.14264 -1.02159 0)
(2.3273 -0.953673 0)
(2.59696 -0.58371 0)
(2.96354 -0.0438987 0)
(3.00008 0.000125971 0)
(3 6.82034e-07 0)
(3 -3.93205e-10 0)
(3 -2.94164e-11 0)
(3 4.78356e-14 0)
(3 -1.95363e-16 0)
(3 6.6932e-16 0)
(3 1.26198e-15 0)
(3 4.19578e-15 0)
(3 1.17462e-15 0)
(3 1.35931e-15 0)
(3 3.81439e-15 0)
(3 2.43416e-15 0)
(3 -1.66974e-15 0)
(3 -1.07153e-15 0)
(2.23145 -0.915305 0)
(2.20122 -0.954633 0)
(2.24163 -0.929517 0)
(2.28269 -0.908359 0)
(2.68857 -0.381784 0)
(2.99025 -0.0116169 0)
(3.00003 4.27825e-05 0)
(3 1.12277e-06 0)
(3 3.59522e-09 0)
(3 -7.68306e-12 0)
(3 -4.27744e-13 0)
(3 -3.13515e-15 0)
(3 1.27237e-15 0)
(3 3.98028e-15 0)
(3 1.20902e-15 0)
(3 1.78534e-15 0)
(3 3.83585e-15 0)
(3 1.38268e-15 0)
(3 -2.84195e-15 0)
(3 -1.43325e-15 0)
(2.25097 -0.889757 0)
(2.25246 -0.885541 0)
(2.25484 -0.906073 0)
(2.24196 -0.938854 0)
(2.41576 -0.71967 0)
(2.87476 -0.148143 0)
(2.99955 -0.000643643 0)
(3 1.59375e-07 0)
(3 4.32238e-09 0)
(3 9.62494e-11 0)
(3 9.60978e-14 0)
(3 -2.14674e-15 0)
(3 2.0342e-15 0)
(3 1.37896e-15 0)
(3 8.70929e-16 0)
(3 3.19914e-15 0)
(3 3.32637e-15 0)
(3 7.44362e-17 0)
(3 -2.82295e-15 0)
(3 -1.24942e-15 0)
(2.24897 -0.879186 0)
(2.26534 -0.854496 0)
(2.27965 -0.881441 0)
(2.26174 -0.921026 0)
(2.32787 -0.861958 0)
(2.56488 -0.54022 0)
(2.9593 -0.0437642 0)
(3.00003 5.30681e-05 0)
(3 1.48737e-06 0)
(3 -1.16633e-09 0)
(3 -3.8633e-11 0)
(3 -2.12775e-13 0)
(3 2.20641e-15 0)
(3 9.0593e-16 0)
(3 1.71939e-15 0)
(3 4.09717e-15 0)
(3 2.14897e-15 0)
(3 -5.45247e-16 0)
(3 -2.48429e-15 0)
(3 -9.59324e-16 0)
(2.24614 -0.875595 0)
(2.26942 -0.869907 0)
(2.29135 -0.884517 0)
(2.285 -0.900823 0)
(2.2774 -0.892418 0)
(2.28947 -0.858613 0)
(2.72825 -0.312278 0)
(2.99422 -0.00681904 0)
(3.00001 6.71728e-06 0)
(3 6.5945e-07 0)
(3 -6.63302e-11 0)
(3 -3.11259e-13 0)
(3 -1.18095e-14 0)
(3 5.76215e-16 0)
(3 1.97573e-15 0)
(3 4.37618e-15 0)
(3 1.43422e-15 0)
(3 -8.48196e-16 0)
(3 -2.61042e-15 0)
(3 -7.92276e-16 0)
(2.25015 -0.879021 0)
(2.26347 -0.883268 0)
(2.28398 -0.885704 0)
(2.28092 -0.885755 0)
(2.2688 -0.889131 0)
(2.28936 -0.841931 0)
(2.52675 -0.595023 0)
(2.92119 -0.0980372 0)
(2.99988 -9.73988e-05 0)
(3 3.48246e-07 0)
(3 1.92718e-08 0)
(3 1.59021e-10 0)
(3 1.22442e-12 0)
(3 9.75602e-15 0)
(3 1.92795e-15 0)
(3 2.85277e-15 0)
(3 2.56918e-15 0)
(3 -6.95446e-16 0)
(3 -1.93602e-15 0)
(3 -6.27754e-16 0)
(2.25151 -0.883021 0)
(2.26081 -0.887428 0)
(2.27369 -0.885439 0)
(2.27643 -0.882706 0)
(2.27427 -0.883616 0)
(2.28867 -0.874728 0)
(2.31508 -0.841476 0)
(2.71963 -0.351542 0)
(2.9874 -0.0168681 0)
(3 -3.67665e-05 0)
(3 -1.24356e-08 0)
(3 -2.07131e-08 0)
(3 -3.86311e-10 0)
(3 -1.44732e-12 0)
(3 -3.46335e-15 0)
(3 1.98793e-17 0)
(3 4.00368e-15 0)
(3 7.44483e-16 0)
(3 -8.95993e-16 0)
(3 9.46722e-17 0)
(2.24935 -0.884301 0)
(2.25514 -0.885377 0)
(2.26333 -0.887811 0)
(2.27124 -0.886916 0)
(2.27799 -0.886771 0)
(2.28139 -0.884861 0)
(2.26022 -0.91921 0)
(2.43772 -0.681368 0)
(2.89971 -0.115963 0)
(2.99981 -0.000222031 0)
(3 3.31721e-07 0)
(3 -1.65093e-08 0)
(3 -1.18064e-09 0)
(3 -9.50667e-13 0)
(3 1.22803e-13 0)
(3 3.19226e-15 0)
(3 4.0682e-15 0)
(3 3.48492e-15 0)
(3 1.0479e-15 0)
(3 4.4778e-16 0)
(2.24734 -0.882875 0)
(2.25106 -0.886102 0)
(2.26029 -0.891894 0)
(2.26874 -0.896567 0)
(2.27423 -0.889994 0)
(2.27215 -0.886123 0)
(2.25598 -0.880348 0)
(2.36735 -0.787039 0)
(2.66041 -0.422732 0)
(2.97568 -0.0465572 0)
(2.99981 -0.000306821 0)
(3 -1.64127e-06 0)
(3 -8.24488e-09 0)
(3 -3.56048e-11 0)
(3 1.58808e-15 0)
(3 -5.78036e-16 0)
(3 4.4495e-15 0)
(3 4.7485e-15 0)
(3 2.14765e-15 0)
(3 5.56582e-16 0)
(2.25027 -0.8817 0)
(2.25389 -0.887968 0)
(2.26364 -0.891857 0)
(2.26848 -0.895419 0)
(2.2701 -0.888288 0)
(2.26897 -0.881334 0)
(2.27004 -0.875602 0)
(2.2842 -0.884695 0)
(2.47123 -0.686615 0)
(2.9759 -0.0154455 0)
(3.00461 0.00761437 0)
(3.0004 0.000607511 0)
(3 6.70787e-06 0)
(3 3.44124e-08 0)
(3 1.67724e-10 0)
(3 8.67686e-13 0)
(3 1.04675e-14 0)
(3 5.52148e-15 0)
(3 2.15795e-15 0)
(3 2.21571e-16 0)
(2.27138 -0.834009 0)
(2.58542 -0.62652 0)
(2.40897 -0.775849 0)
(2.33613 -0.843149 0)
(2.30057 -0.866375 0)
(2.28008 -0.873929 0)
(2.27468 -0.872985 0)
(2.27766 -0.898136 0)
(2.32823 -0.815115 0)
(2.49172 -0.607733 0)
(2.91284 -0.135467 0)
(2.99571 -0.0118872 0)
(2.99989 -0.000290279 0)
(3 -3.97798e-06 0)
(3 -4.45865e-08 0)
(3 -4.07976e-10 0)
(3 -3.21944e-12 0)
(3 -1.59867e-14 0)
(3 1.78479e-15 0)
(3 2.42217e-17 0)
(1.90288 -1.02181 0)
(2.74516 -0.283845 0)
(2.65867 -0.451984 0)
(2.51042 -0.65745 0)
(2.40364 -0.777347 0)
(2.34943 -0.821245 0)
(2.29963 -0.858858 0)
(2.28979 -0.898302 0)
(2.28853 -0.846424 0)
(2.32347 -0.7807 0)
(2.523 -0.609894 0)
(2.92541 -0.128549 0)
(2.99686 -0.00904486 0)
(2.99993 -0.000198142 0)
(3 -2.66808e-06 0)
(3 -2.87928e-08 0)
(3 -2.74692e-10 0)
(3 -2.31517e-12 0)
(3 -1.54848e-14 0)
(3 3.62583e-16 0)
(2.34341 -0.187816 0)
(2.83153 0.29501 0)
(2.82184 -0.167827 0)
(2.69155 -0.412941 0)
(2.58511 -0.569724 0)
(2.46753 -0.710407 0)
(2.39658 -0.788805 0)
(2.33465 -0.870615 0)
(2.29913 -0.839932 0)
(2.29406 -0.858606 0)
(2.37475 -0.76611 0)
(2.63674 -0.505724 0)
(2.95024 -0.0897418 0)
(2.99805 -0.00472537 0)
(2.99997 -7.82257e-05 0)
(3 -9.36774e-07 0)
(3 -8.93944e-09 0)
(3 -7.53317e-11 0)
(3 -5.60514e-13 0)
(3 -2.88214e-15 0)
(2.47838 0.368093 0)
(2.76453 0.931004 0)
(2.91388 0.241855 0)
(2.84227 -0.186466 0)
(2.73563 -0.394421 0)
(2.60737 -0.568159 0)
(2.53878 -0.663483 0)
(2.40977 -0.802394 0)
(2.35793 -0.805948 0)
(2.31113 -0.85478 0)
(2.32383 -0.840578 0)
(2.4412 -0.722985 0)
(2.75719 -0.371378 0)
(2.98064 -0.0392938 0)
(2.9995 -0.00130041 0)
(2.99999 -1.60373e-05 0)
(3 -1.61571e-07 0)
(3 -1.39529e-09 0)
(3 -1.07444e-11 0)
(3 -6.51121e-14 0)
(2.54367 0.864664 0)
(2.7292 1.24191 0)
(2.90607 0.712082 0)
(2.95557 0.333077 0)
(2.83341 -0.16602 0)
(2.77333 -0.323287 0)
(2.65188 -0.540329 0)
(2.5236 -0.681124 0)
(2.45413 -0.741798 0)
(2.36323 -0.826523 0)
(2.33757 -0.84 0)
(2.36069 -0.821658 0)
(2.58476 -0.599561 0)
(2.87942 -0.213486 0)
(2.99469 -0.011619 0)
(2.99991 -0.000231228 0)
(3 -2.49258e-06 0)
(3 -2.2319e-08 0)
(3 -1.74088e-10 0)
(3 -1.04983e-12 0)
(2.58356 0.961708 0)
(2.85001 1.3262 0)
(3.01039 0.72708 0)
(2.99326 0.549761 0)
(2.944 0.268536 0)
(2.85847 -0.0806791 0)
(2.77907 -0.299928 0)
(2.65758 -0.477497 0)
(2.5638 -0.626113 0)
(2.46582 -0.741649 0)
(2.38196 -0.817798 0)
(2.37115 -0.824834 0)
(2.41345 -0.774576 0)
(2.71939 -0.4428 0)
(2.95517 -0.0903645 0)
(2.99864 -0.00303434 0)
(2.99998 -3.68559e-05 0)
(3 -3.2093e-07 0)
(3 -2.38511e-09 0)
(3 -1.38286e-11 0)
(2.56667 0.981679 0)
(2.80307 1.00719 0)
(3.05626 0.670997 0)
(3.07908 0.516136 0)
(3.0522 0.395163 0)
(2.92637 0.0191273 0)
(2.87859 -0.0942263 0)
(2.73817 -0.368213 0)
(2.67243 -0.475536 0)
(2.57185 -0.622576 0)
(2.45774 -0.759994 0)
(2.39897 -0.821376 0)
(2.41451 -0.824943 0)
(2.53468 -0.69316 0)
(2.86467 -0.244482 0)
(2.99319 -0.0171153 0)
(2.99988 -0.000319919 0)
(3 -2.98303e-06 0)
(3 -2.30487e-08 0)
(3 -1.37521e-10 0)
(2.57548 0.906672 0)
(2.7618 0.894605 0)
(3.03016 0.731546 0)
(3.18478 0.844083 0)
(3.10482 0.34062 0)
(3.03551 0.151112 0)
(2.94215 -0.0916846 0)
(2.82079 -0.3016 0)
(2.75676 -0.408748 0)
(2.63947 -0.579507 0)
(2.55807 -0.666051 0)
(2.45726 -0.782776 0)
(2.43117 -0.817115 0)
(2.48215 -0.756422 0)
(2.71807 -0.466072 0)
(2.95392 -0.093978 0)
(2.99887 -0.00253976 0)
(2.99999 -2.75761e-05 0)
(3 -2.1175e-07 0)
(3 -1.24839e-09 0)
(2.76141 0.802114 0)
(2.78132 0.808252 0)
(2.98521 0.85199 0)
(3.06545 1.06929 0)
(3.09984 0.624539 0)
(3.10542 0.482267 0)
(2.99101 0.0416433 0)
(2.95704 -0.0614193 0)
(2.81428 -0.339531 0)
(2.75564 -0.46134 0)
(2.63728 -0.606155 0)
(2.52056 -0.730264 0)
(2.46481 -0.790416 0)
(2.49084 -0.774888 0)
(2.60204 -0.653222 0)
(2.90229 -0.192659 0)
(2.99478 -0.0129953 0)
(2.99993 -0.000178006 0)
(3 -1.48979e-06 0)
(3 -9.11823e-09 0)
(2.8269 0.759789 0)
(2.88671 0.724661 0)
(3.02596 0.897634 0)
(3.04961 1.07359 0)
(3.06559 0.750461 0)
(3.07687 0.61981 0)
(3.04064 0.358555 0)
(2.98276 0.1661 0)
(2.90769 -0.103378 0)
(2.8576 -0.239825 0)
(2.7116 -0.490222 0)
(2.60722 -0.627065 0)
(2.51403 -0.741976 0)
(2.5043 -0.767868 0)
(2.57265 -0.682909 0)
(2.78085 -0.385933 0)
(2.97571 -0.0488336 0)
(2.99951 -0.00109185 0)
(3 -1.00854e-05 0)
(3 -6.30285e-08 0)
(2.89349 0.75617 0)
(2.93393 0.721037 0)
(3.05652 0.875858 0)
(3.10511 1.01182 0)
(3.10161 0.715328 0)
(3.09278 0.579465 0)
(3.07613 0.484613 0)
(3.00169 0.162427 0)
(2.95123 0.0652811 0)
(2.88094 -0.16204 0)
(2.78225 -0.33984 0)
(2.69174 -0.480212 0)
(2.581 -0.661648 0)
(2.53116 -0.751118 0)
(2.55888 -0.72971 0)
(2.68215 -0.556238 0)
(2.93381 -0.126495 0)
(2.99752 -0.00536124 0)