/*--------------------------------*- C++ -*----------------------------------*\
  =========                 |
  \\      /  F ield         | OpenFOAM: The Open Source CFD Toolbox
   \\    /   O peration     | Website:  https://openfoam.org
    \\  /    A nd           | Version:  7
     \\/     M anipulation  |
\*---------------------------------------------------------------------------*/
FoamFile
{
    version     2.0;
    format      ascii;
    class       volScalarField;
    location    "6";
    object      p;
}
// * * * * * * * * * * * * * * * * * * * * * * * * * * * * * * * * * * * * * //

dimensions      [0 2 -2 0 0 0 0];

internalField   nonuniform List<scalar> 
8400
(
-0.187724
-0.178816
-0.170807
-0.163431
-0.156276
-0.14913
-0.141877
-0.134434
-0.126739
-0.118754
-0.110462
-0.101861
-0.092968
-0.0838119
-0.0744385
-0.0649103
-0.0553073
-0.0457281
-0.0362906
-0.0271312
-0.018404
-0.0102779
-0.00293452
0.0034515
0.00862745
0.012696
0.0144154
0.0170735
0.0103313
0.0209792
-0.187008
-0.180725
-0.174089
-0.167422
-0.160613
-0.153593
-0.146334
-0.138813
-0.131006
-0.122897
-0.114476
-0.105746
-0.0967199
-0.0874241
-0.0779013
-0.0682113
-0.0584322
-0.0486617
-0.0390181
-0.0296393
-0.0206818
-0.0123181
-0.0047329
0.00189067
0.00731447
0.0115727
0.013622
0.0162164
0.0102947
0.0200268
-0.189616
-0.183716
-0.177977
-0.171854
-0.16534
-0.158499
-0.15134
-0.143855
-0.136036
-0.127879
-0.119382
-0.110553
-0.101408
-0.0919728
-0.0822912
-0.0724219
-0.0624428
-0.0524519
-0.0425686
-0.0329327
-0.0237036
-0.0150574
-0.00718244
-0.00026878
0.00545573
0.00996895
0.0124017
0.0150175
0.00998785
0.0187755
-0.193608
-0.187573
-0.182503
-0.176855
-0.17064
-0.164022
-0.157028
-0.149645
-0.141873
-0.133715
-0.125178
-0.116271
-0.107016
-0.0974416
-0.0875919
-0.0775271
-0.0673261
-0.0570882
-0.0469342
-0.0370066
-0.0274678
-0.0184973
-0.0102873
-0.00303351
0.00304345
0.00787514
0.0107479
0.0134611
0.00943442
0.0172229
-0.19844
-0.192496
-0.188034
-0.182742
-0.176754
-0.170324
-0.163481
-0.156205
-0.148492
-0.140348
-0.131782
-0.122808
-0.113447
-0.103732
-0.0937073
-0.0834358
-0.0729974
-0.0624932
-0.0520461
-0.041801
-0.0319231
-0.0225954
-0.0140132
-0.00637681
9.81048e-05
0.00530742
0.00866942
0.0115666
0.00862265
0.0154121
-0.206041
-0.199177
-0.194753
-0.189636
-0.183752
-0.177406
-0.170644
-0.163431
-0.155754
-0.147614
-0.139018
-0.129977
-0.120513
-0.110659
-0.10046
-0.0899805
-0.079301
-0.0685245
-0.0577759
-0.0472022
-0.0369709
-0.0272675
-0.01829
-0.0102413
-0.00333387
0.00230265
0.00619321
0.00936555
0.00754434
0.0134064
-0.213533
-0.2062
-0.201923
-0.196973
-0.191179
-0.184899
-0.178196
-0.17103
-0.163377
-0.155234
-0.146606
-0.137502
-0.127943
-0.117959
-0.107598
-0.0969223
-0.0860143
-0.0749776
-0.0639384
-0.0530448
-0.0424659
-0.0323883
-0.0230112
-0.0145385
-0.00717988
-0.00108163
0.00336501
0.00689777
0.00620743
0.0112751
-0.221365
-0.213647
-0.209412
-0.204533
-0.19876
-0.192492
-0.185808
-0.178658
-0.17101
-0.162857
-0.154197
-0.145039
-0.135399
-0.125307
-0.114808
-0.103965
-0.0928593
-0.0815954
-0.0702987
-0.0591174
-0.0482205
-0.0377939
-0.0280361
-0.0191501
-0.0113414
-0.00476661
0.000249042
0.00421237
0.004636
0.0090877
-0.228512
-0.220605
-0.216441
-0.21166
-0.205934
-0.199688
-0.193022
-0.185886
-0.178242
-0.17008
-0.161398
-0.1522
-0.142503
-0.132334
-0.121737
-0.110772
-0.09952
-0.0880833
-0.0765858
-0.0651739
-0.0540139
-0.0432892
-0.033195
-0.0239306
-0.0156963
-0.00865291
-0.00307302
0.00136927
0.00286988
0.00690855
-0.235645
-0.227296
-0.223047
-0.218251
-0.21248
-0.206184
-0.199483
-0.192325
-0.184666
-0.176491
-0.167795
-0.158581
-0.148861
-0.138659
-0.128017
-0.116993
-0.105664
-0.0941301
-0.0825113
-0.0709495
-0.0596063
-0.0486596
-0.0382983
-0.0287157
-0.0201039
-0.012624
-0.0065045
-0.00156067
0.000963359
0.00479433
-0.240647
-0.232371
-0.228096
-0.223327
-0.217576
-0.211285
-0.20459
-0.197443
-0.189799
-0.181642
-0.172967
-0.163777
-0.154083
-0.143908
-0.133291
-0.122287
-0.11097
-0.0994337
-0.0877931
-0.0761835
-0.0647588
-0.0536883
-0.0431519
-0.0333334
-0.0244146
-0.0165532
-0.0099389
-0.00449758
-0.00101815
0.00279345
-0.24412
-0.236012
-0.231618
-0.226795
-0.221028
-0.214724
-0.208026
-0.200891
-0.193275
-0.185162
-0.176547
-0.167432
-0.157827
-0.147754
-0.137247
-0.126358
-0.115156
-0.103729
-0.0921826
-0.0806438
-0.0692559
-0.0581768
-0.0475744
-0.0376201
-0.0284827
-0.0203135
-0.0132676
-0.00735732
-0.00300349
0.000946972
-0.245205
-0.23745
-0.232933
-0.228047
-0.222287
-0.216007
-0.209343
-0.202264
-0.194726
-0.186714
-0.178223
-0.169257
-0.159824
-0.149943
-0.139647
-0.128983
-0.118013
-0.106816
-0.0954908
-0.0841511
-0.0729277
-0.0619646
-0.0514147
-0.041435
-0.0321789
-0.0237891
-0.0163886
-0.0100581
-0.00492204
-0.000711166
-0.24348
-0.236283
-0.23167
-0.226729
-0.221017
-0.214818
-0.208251
-0.201292
-0.193904
-0.186072
-0.177793
-0.169068
-0.159907
-0.150327
-0.140356
-0.130035
-0.119421
-0.108583
-0.0976079
-0.0865968
-0.075666
-0.0649433
-0.0545652
-0.0446722
-0.0354011
-0.026884
-0.0192146
-0.0125268
-0.00670929
-0.00215617
-0.238721
-0.232257
-0.227611
-0.222658
-0.21706
-0.211024
-0.20464
-0.197891
-0.190745
-0.183191
-0.175225
-0.166849
-0.15807
-0.148903
-0.139373
-0.129515
-0.119377
-0.109019
-0.0985147
-0.0879523
-0.0774318
-0.0670643
-0.0569685
-0.0472676
-0.0380807
-0.0295289
-0.0216788
-0.0147046
-0.00831024
-0.00337575
-0.230937
-0.225326
-0.220747
-0.215865
-0.210473
-0.204701
-0.198605
-0.19217
-0.185373
-0.178204
-0.17066
-0.162742
-0.154454
-0.14581
-0.13683
-0.127542
-0.117985
-0.108211
-0.0982803
-0.0882666
-0.0782544
-0.0683375
-0.0586171
-0.049199
-0.0401846
-0.0316835
-0.0237379
-0.0165513
-0.00968723
-0.00436548
-0.220528
-0.2158
-0.211408
-0.206707
-0.20162
-0.196214
-0.190508
-0.184489
-0.178141
-0.171457
-0.164431
-0.157064
-0.149359
-0.141326
-0.132979
-0.124342
-0.115446
-0.106331
-0.0970467
-0.087653
-0.078219
-0.0688224
-0.0595471
-0.0504824
-0.0417127
-0.0333359
-0.025373
-0.0180467
-0.0108199
-0.00513058
-0.208199
-0.204297
-0.200201
-0.195791
-0.191098
-0.186139
-0.180904
-0.175381
-0.169558
-0.16343
-0.156991
-0.150239
-0.143177
-0.13581
-0.128148
-0.120209
-0.112017
-0.103602
-0.0950028
-0.0862672
-0.0774501
-0.0686142
-0.0598277
-0.0511643
-0.0426929
-0.0344996
-0.0265878
-0.0191905
-0.0117038
-0.00568702
-0.194832
-0.191633
-0.187908
-0.183873
-0.17963
-0.175163
-0.170444
-0.165459
-0.1602
-0.154663
-0.148841
-0.142731
-0.136332
-0.129648
-0.122685
-0.115453
-0.107972
-0.100262
-0.0923528
-0.0842812
-0.0760896
-0.0678272
-0.0595482
-0.0513122
-0.043174
-0.0352088
-0.0274049
-0.0199991
-0.0123483
-0.00605943
-0.181278
-0.178632
-0.175309
-0.171692
-0.167915
-0.163946
-0.159746
-0.155301
-0.150606
-0.145655
-0.140442
-0.134962
-0.129212
-0.123192
-0.116906
-0.110359
-0.103563
-0.096533
-0.0892907
-0.0818622
-0.0742795
-0.0665804
-0.0588066
-0.0510053
-0.0432188
-0.0355123
-0.0278619
-0.0205024
-0.0127738
-0.00627729
-0.168199
-0.165966
-0.163037
-0.159839
-0.156509
-0.153009
-0.149299
-0.145364
-0.1412
-0.136801
-0.132159
-0.127268
-0.122123
-0.116723
-0.111066
-0.105156
-0.0989985
-0.0926029
-0.0859833
-0.079158
-0.0721501
-0.0649872
-0.0577007
-0.050327
-0.0428977
-0.0354684
-0.028006
-0.0207395
-0.0130078
-0.00637107
-0.156016
-0.154084
-0.151514
-0.148707
-0.145783
-0.142704
-0.139434
-0.135959
-0.132273
-0.128371
-0.124243
-0.119883
-0.115284
-0.110442
-0.105354
-0.10002
-0.0944396
-0.0886194
-0.0825669
-0.0762939
-0.0698156
-0.0631515
-0.0563242
-0.0493608
-0.0422837
-0.0351403
-0.0278904
-0.0207544
-0.0130819
-0.00636931
-0.144941
-0.14323
-0.140974
-0.138512
-0.135941
-0.133229
-0.130341
-0.127267
-0.123999
-0.120531
-0.116854
-0.112959
-0.108839
-0.104488
-0.0999015
-0.0950748
-0.0900068
-0.0846982
-0.0791523
-0.0733752
-0.0673762
-0.0611677
-0.054765
-0.0481876
-0.0414502
-0.0345929
-0.0275704
-0.020593
-0.0130287
-0.00629725
-0.135056
-0.13351
-0.131522
-0.129356
-0.127085
-0.124682
-0.12212
-0.119387
-0.116476
-0.113379
-0.110087
-0.106592
-0.102885
-0.0989576
-0.094804
-0.0904182
-0.0857959
-0.0809346
-0.0758338
-0.0704951
-0.0649228
-0.0591239
-0.0531073
-0.0468866
-0.0404701
-0.0338916
-0.0271023
-0.0203015
-0.0128804
-0.0061766
-0.126385
-0.124965
-0.1232
-0.121281
-0.119261
-0.117116
-0.114825
-0.112377
-0.109765
-0.10698
-0.104013
-0.100854
-0.0974954
-0.0939274
-0.0901422
-0.0861324
-0.0818916
-0.0774149
-0.0726986
-0.067741
-0.0625422
-0.0571049
-0.0514333
-0.0455357
-0.0394155
-0.0331012
-0.0265416
-0.0199251
-0.0126684
-0.00602621
-0.118943
-0.117622
-0.116038
-0.114322
-0.112505
-0.110572
-0.108503
-0.106289
-0.103922
-0.101393
-0.0986935
-0.0958133
-0.0927429
-0.089473
-0.0859944
-0.0822986
-0.0783776
-0.0742245
-0.0698334
-0.0651998
-0.0603209
-0.0551957
-0.0498248
-0.0442124
-0.0383581
-0.0322858
-0.0259433
-0.019508
-0.0124227
-0.0058629
-0.112763
-0.111518
-0.110078
-0.108523
-0.106868
-0.105102
-0.10321
-0.101182
-0.0990105
-0.0966869
-0.0942014
-0.0915442
-0.0887056
-0.0856757
-0.0824447
-0.0790032
-0.075342
-0.0714528
-0.0673281
-0.0629612
-0.0583472
-0.0534823
-0.0483643
-0.0429944
-0.0373692
-0.031509
-0.0253613
-0.0190931
-0.0121725
-0.00570216
-0.107912
-0.106724
-0.105393
-0.103958
-0.102427
-0.100787
-0.099028
-0.0971412
-0.0951182
-0.0929501
-0.0906272
-0.08814
-0.0854782
-0.0826317
-0.0795904
-0.0763442
-0.0728831
-0.0691978
-0.0652796
-0.0611206
-0.0567138
-0.0520539
-0.0471366
-0.0419606
-0.0365207
-0.0308342
-0.0248487
-0.0187224
-0.011946
-0.00555857
-0.104495
-0.103345
-0.102088
-0.100737
-0.0992887
-0.0977354
-0.0960678
-0.0942775
-0.0923562
-0.0902947
-0.0880837
-0.0857132
-0.0831732
-0.0804534
-0.0775431
-0.0744321
-0.0711099
-0.0675665
-0.0637925
-0.0597789
-0.0555179
-0.0510028
-0.0462279
-0.0411905
-0.0358841
-0.0303237
-0.0244577
-0.0184364
-0.0117696
-0.00544384
-0.102677
-0.101547
-0.100328
-0.0990199
-0.0976154
-0.0961071
-0.0944871
-0.0927472
-0.0908789
-0.0888732
-0.0867207
-0.0844114
-0.0819352
-0.0792818
-0.0764405
-0.0734006
-0.0701517
-0.0666833
-0.0629855
-0.0590491
-0.0548656
-0.0504278
-0.0457292
-0.0407665
-0.0355324
-0.0300407
-0.0242416
-0.0182763
-0.0116774
-0.00536287
-0.200437
-0.194315
-0.199482
-0.206923
-0.216403
-0.225248
-0.234592
-0.243764
-0.251353
-0.259382
-0.263497
-0.265532
-0.26462
-0.260383
-0.252782
-0.242089
-0.228984
-0.2144
-0.199325
-0.184597
-0.17078
-0.158167
-0.146852
-0.136833
-0.128083
-0.120591
-0.114379
-0.109507
-0.106077
-0.104252
-0.20207
-0.204466
-0.21067
-0.218073
-0.225928
-0.235557
-0.244393
-0.253457
-0.260906
-0.267559
-0.27156
-0.27333
-0.272165
-0.267635
-0.259672
-0.24854
-0.234936
-0.219825
-0.204231
-0.189014
-0.174751
-0.16174
-0.150077
-0.139759
-0.130757
-0.123057
-0.116679
-0.111682
-0.108166
-0.106296
-0.208976
-0.215302
-0.221628
-0.22891
-0.236365
-0.245407
-0.253407
-0.261443
-0.268504
-0.274536
-0.278495
-0.280208
-0.279013
-0.274402
-0.266241
-0.254779
-0.240734
-0.225124
-0.209022
-0.193325
-0.178627
-0.165228
-0.153227
-0.142618
-0.133371
-0.12547
-0.118931
-0.113811
-0.110211
-0.108297
-0.219079
-0.226664
-0.232711
-0.240157
-0.247615
-0.255312
-0.262883
-0.270318
-0.276984
-0.282585
-0.286331
-0.287806
-0.28636
-0.281448
-0.272901
-0.260974
-0.246413
-0.230273
-0.213663
-0.197497
-0.182377
-0.168606
-0.156281
-0.145394
-0.135913
-0.127819
-0.121125
-0.115889
-0.112209
-0.110254
-0.230365
-0.23814
-0.243853
-0.250621
-0.257609
-0.264827
-0.272022
-0.279005
-0.285311
-0.290545
-0.29405
-0.295274
-0.293551
-0.288309
-0.279356
-0.266959
-0.251888
-0.235236
-0.218139
-0.201526
-0.186006
-0.171881
-0.159247
-0.148093
-0.138387
-0.130107
-0.123265
-0.117915
-0.114159
-0.112162
-0.24178
-0.249314
-0.254438
-0.26073
-0.267267
-0.274017
-0.280801
-0.287364
-0.29333
-0.298255
-0.301533
-0.302525
-0.300532
-0.294959
-0.285597
-0.272729
-0.257158
-0.240009
-0.222445
-0.205408
-0.189509
-0.175048
-0.162119
-0.150712
-0.140789
-0.132331
-0.125345
-0.119888
-0.116057
-0.114021
-0.252979
-0.259986
-0.264673
-0.27056
-0.276678
-0.282984
-0.289359
-0.295537
-0.301179
-0.305823
-0.30887
-0.309622
-0.307344
-0.301421
-0.291635
-0.27829
-0.262221
-0.244589
-0.226578
-0.209139
-0.192881
-0.178102
-0.164894
-0.153245
-0.143117
-0.134487
-0.127365
-0.121803
-0.117901
-0.115828
-0.263802
-0.270239
-0.274622
-0.280126
-0.285853
-0.291763
-0.297758
-0.303585
-0.308919
-0.313294
-0.316097
-0.31659
-0.314002
-0.307702
-0.297471
-0.283638
-0.267075
-0.248972
-0.230533
-0.212712
-0.196116
-0.181039
-0.167567
-0.155688
-0.145365
-0.136573
-0.12932
-0.123659
-0.119688
-0.11758
-0.274185
-0.280172
-0.284303
-0.28946
-0.294834
-0.300389
-0.306036
-0.311538
-0.316578
-0.320685
-0.323229
-0.323438
-0.320511
-0.313806
-0.303107
-0.288775
-0.271716
-0.253155
-0.234306
-0.216125
-0.199212
-0.183853
-0.170134
-0.158039
-0.147531
-0.138585
-0.131208
-0.125452
-0.121417
-0.119275
-0.284187
-0.289833
-0.293746
-0.298595
-0.303664
-0.308898
-0.314225
-0.319423
-0.324177
-0.328012
-0.330279
-0.330178
-0.326879
-0.319735
-0.308542
-0.293696
-0.276143
-0.257133
-0.237893
-0.219372
-0.202161
-0.186541
-0.17259
-0.160292
-0.149611
-0.14052
-0.133026
-0.127181
-0.123084
-0.12091
-0.293884
-0.299268
-0.302989
-0.307563
-0.312375
-0.317323
-0.322355
-0.327264
-0.331737
-0.335292
-0.337261
-0.336817
-0.33311
-0.325491
-0.313776
-0.2984
-0.28035
-0.260903
-0.241288
-0.222449
-0.204962
-0.189097
-0.174931
-0.162445
-0.151601
-0.142374
-0.134771
-0.128842
-0.124688
-0.122483
-0.303346
-0.308527
-0.31208
-0.316462
-0.321002
-0.325693
-0.330451
-0.335082
-0.339274
-0.342537
-0.344184
-0.343363
-0.339208
-0.331073
-0.318805
-0.302882
-0.284334
-0.26446
-0.244489
-0.22535
-0.207607
-0.191518
-0.177153
-0.164493
-0.153498
-0.144146
-0.13644
-0.130433
-0.126225
-0.123992
-0.312634
-0.317657
-0.321074
-0.325312
-0.329584
-0.334034
-0.338534
-0.342895
-0.346804
-0.34976
-0.351056
-0.349821
-0.345173
-0.336479
-0.323624
-0.307137
-0.288089
-0.267798
-0.247488
-0.228073
-0.210094
-0.193799
-0.179252
-0.166432
-0.1553
-0.145831
-0.138032
-0.131952
-0.127695
-0.125435
-0.321796
-0.326697
-0.329996
-0.334037
-0.338138
-0.342369
-0.346625
-0.350721
-0.35434
-0.356971
-0.357886
-0.356192
-0.351003
-0.341706
-0.32823
-0.311159
-0.29161
-0.270913
-0.250283
-0.23061
-0.212417
-0.195936
-0.181224
-0.16826
-0.157002
-0.147427
-0.139542
-0.133396
-0.129093
-0.126809
-0.330879
-0.335684
-0.338883
-0.342766
-0.346701
-0.350725
-0.354745
-0.358576
-0.361896
-0.36418
-0.364677
-0.362478
-0.356695
-0.346745
-0.332612
-0.314941
-0.294889
-0.273797
-0.252867
-0.232959
-0.214573
-0.197925
-0.183066
-0.169972
-0.158602
-0.148932
-0.140969
-0.134764
-0.130419
-0.128113
-0.339926
-0.344658
-0.347766
-0.35152
-0.355298
-0.359125
-0.362913
-0.366477
-0.369485
-0.371393
-0.371432
-0.368675
-0.362242
-0.351589
-0.336762
-0.318473
-0.297918
-0.276446
-0.255234
-0.235113
-0.216555
-0.199762
-0.184774
-0.171565
-0.160096
-0.150342
-0.14231
-0.136052
-0.13167
-0.129345
-0.348981
-0.353655
-0.356696
-0.360325
-0.363956
-0.367592
-0.371151
-0.37444
-0.377116
-0.378617
-0.37815
-0.374778
-0.367634
-0.356224
-0.340667
-0.321744
-0.30069
-0.278851
-0.257378
-0.237067
-0.218361
-0.201441
-0.186343
-0.173037
-0.161483
-0.151655
-0.143564
-0.137258
-0.132845
-0.130502
-0.358087
-0.362718
-0.365722
-0.369216
-0.372703
-0.376152
-0.379477
-0.382479
-0.3848
-0.385855
-0.38483
-0.380778
-0.372858
-0.360635
-0.344313
-0.324742
-0.303193
-0.281005
-0.259294
-0.238816
-0.219984
-0.202961
-0.187772
-0.174385
-0.162758
-0.152869
-0.144727
-0.138382
-0.133941
-0.131584
-0.367277
-0.371877
-0.374817
-0.378218
-0.381568
-0.384828
-0.387912
-0.390609
-0.392544
-0.393109
-0.391464
-0.386662
-0.377895
-0.364803
-0.347681
-0.327453
-0.305417
-0.282899
-0.260974
-0.240356
-0.221422
-0.204316
-0.189055
-0.175604
-0.16392
-0.153982
-0.145798
-0.139421
-0.134957
-0.132587
-0.376584
-0.381165
-0.384065
-0.387372
-0.390581
-0.393647
-0.396476
-0.398845
-0.400356
-0.400375
-0.398041
-0.39241
-0.382723
-0.368706
-0.350753
-0.32986
-0.30735
-0.284524
-0.262412
-0.24168
-0.222669
-0.205504
-0.190191
-0.176693
-0.164967
-0.154991
-0.146775
-0.140373
-0.135891
-0.133511
-0.386048
-0.390627
-0.393496
-0.396712
-0.399775
-0.402635
-0.405189
-0.407198
-0.408239
-0.407647
-0.404544
-0.397999
-0.387314
-0.372316
-0.353504
-0.331946
-0.308979
-0.285872
-0.263602
-0.242783
-0.223722
-0.20652
-0.191177
-0.177649
-0.165896
-0.155894
-0.147656
-0.141236
-0.136741
-0.134355
-0.395757
-0.400446
-0.403159
-0.406273
-0.409181
-0.411819
-0.414071
-0.415679
-0.416191
-0.414913
-0.41095
-0.403397
-0.391633
-0.375601
-0.355909
-0.333692
-0.31029
-0.286932
-0.264536
-0.243661
-0.224576
-0.207363
-0.192009
-0.17847
-0.166704
-0.15669
-0.14844
-0.142009
-0.137507
-0.135116
-0.405717
-0.410371
-0.413076
-0.416091
-0.418833
-0.421225
-0.423138
-0.424294
-0.424207
-0.422152
-0.417226
-0.408564
-0.39564
-0.378524
-0.35794
-0.335076
-0.311269
-0.287696
-0.265208
-0.244309
-0.225229
-0.208028
-0.192686
-0.179154
-0.167391
-0.157377
-0.149125
-0.142691
-0.138186
-0.135794
-0.415987
-0.420648
-0.423319
-0.426216
-0.428769
-0.43088
-0.432408
-0.433044
-0.432272
-0.429334
-0.42333
-0.41345
-0.399284
-0.381044
-0.359563
-0.336078
-0.311903
-0.288154
-0.265613
-0.244723
-0.225677
-0.208514
-0.193205
-0.179699
-0.167955
-0.157953
-0.149709
-0.143281
-0.138778
-0.136387
-0.426633
-0.431312
-0.433934
-0.436694
-0.439027
-0.440812
-0.44189
-0.441925
-0.440361
-0.436416
-0.429203
-0.417993
-0.40251
-0.383115
-0.360748
-0.336675
-0.312177
-0.288299
-0.265745
-0.2449
-0.225918
-0.208819
-0.193565
-0.180104
-0.168394
-0.158418
-0.150192
-0.143776
-0.139282
-0.136895
-0.437707
-0.442419
-0.444979
-0.447576
-0.449645
-0.451043
-0.45159
-0.450918
-0.448434
-0.443337
-0.434774
-0.422119
-0.405253
-0.384688
-0.361458
-0.336845
-0.312079
-0.288122
-0.2656
-0.244837
-0.22595
-0.208942
-0.193765
-0.180367
-0.168707
-0.158769
-0.150572
-0.144177
-0.139696
-0.137316
-0.449302
-0.454046
-0.456522
-0.458917
-0.460662
-0.46159
-0.461499
-0.459989
-0.456431
-0.450018
-0.439953
-0.425743
-0.407441
-0.38571
-0.361661
-0.336569
-0.311597
-0.287618
-0.265174
-0.244532
-0.225773
-0.208881
-0.193804
-0.180488
-0.168893
-0.159007
-0.150849
-0.144482
-0.14002
-0.137649
-0.461519
-0.466281
-0.468642
-0.470776
-0.472111
-0.472458
-0.471593
-0.469081
-0.464266
-0.456351
-0.444629
-0.428765
-0.408997
-0.386127
-0.361322
-0.335827
-0.310722
-0.286781
-0.264467
-0.243985
-0.225384
-0.208636
-0.193681
-0.180465
-0.168952
-0.15913
-0.151021
-0.144691
-0.140253
-0.137895
-0.474458
-0.479225
-0.481423
-0.483211
-0.484018
-0.483636
-0.481819
-0.478104
-0.471817
-0.462202
-0.44867
-0.431074
-0.409839
-0.385888
-0.360413
-0.334605
-0.309447
-0.285612
-0.263477
-0.243195
-0.224787
-0.208207
-0.193396
-0.1803
-0.168883
-0.159138
-0.151089
-0.144803
-0.140394
-0.138051
-0.488257
-0.493002
-0.494961
-0.496276
-0.49639
-0.495078
-0.492086
-0.486925
-0.478924
-0.467399
-0.451922
-0.432551
-0.409887
-0.384944
-0.358909
-0.332893
-0.30777
-0.284109
-0.262206
-0.242166
-0.223981
-0.207597
-0.192951
-0.179991
-0.168686
-0.15903
-0.151051
-0.144817
-0.140444
-0.138119
-0.503088
-0.507761
-0.509355
-0.51001
-0.509196
-0.506694
-0.502245
-0.495351
-0.485373
-0.471739
-0.454216
-0.433073
-0.409063
-0.383255
-0.356791
-0.330685
-0.305691
-0.282275
-0.260659
-0.240899
-0.222969
-0.206805
-0.192346
-0.179541
-0.168362
-0.158808
-0.150909
-0.144733
-0.140401
-0.138096
-0.519172
-0.523675
-0.524702
-0.524415
-0.522349
-0.518316
-0.512067
-0.503116
-0.490892
-0.474981
-0.455368
-0.432517
-0.407297
-0.380784
-0.354045
-0.327978
-0.303213
-0.280115
-0.258837
-0.239398
-0.221753
-0.205834
-0.191581
-0.178948
-0.16791
-0.15847
-0.15066
-0.144552
-0.140265
-0.137984
-0.536808
-0.54095
-0.54107
-0.539419
-0.535662
-0.52967
-0.521221
-0.509871
-0.495158
-0.476865
-0.455193
-0.430773
-0.404533
-0.377509
-0.350668
-0.324776
-0.300341
-0.277634
-0.256747
-0.237667
-0.220335
-0.204686
-0.190659
-0.178214
-0.167331
-0.158017
-0.150306
-0.144273
-0.140036
-0.137782
-0.556427
-0.559802
-0.558458
-0.554828
-0.548804
-0.540339
-0.529258
-0.515186
-0.497813
-0.477132
-0.453539
-0.427769
-0.400751
-0.373443
-0.346685
-0.321107
-0.297103
-0.274855
-0.254406
-0.235719
-0.218728
-0.203368
-0.189585
-0.177344
-0.166629
-0.157451
-0.149848
-0.143896
-0.139715
-0.137489
-0.578702
-0.580413
-0.576692
-0.57021
-0.561192
-0.549686
-0.535557
-0.51853
-0.498466
-0.475548
-0.450301
-0.423493
-0.395994
-0.368651
-0.342166
-0.317038
-0.293554
-0.271825
-0.251853
-0.233585
-0.216955
-0.2019
-0.188373
-0.176346
-0.165809
-0.156776
-0.149289
-0.143423
-0.139302
-0.137107
-0.604465
-0.602577
-0.595073
-0.584583
-0.571742
-0.556668
-0.539221
-0.519217
-0.496663
-0.471861
-0.445374
-0.417924
-0.390285
-0.363169
-0.337147
-0.312598
-0.289716
-0.268557
-0.249094
-0.231268
-0.215014
-0.200278
-0.187021
-0.175219
-0.16487
-0.155991
-0.148626
-0.142854
-0.138796
-0.136635
-0.63421
-0.624989
-0.611808
-0.596199
-0.578889
-0.560022
-0.53934
-0.516662
-0.492063
-0.465869
-0.438606
-0.410915
-0.383453
-0.356811
-0.331433
-0.307592
-0.285407
-0.264888
-0.245989
-0.228648
-0.212809
-0.198426
-0.185468
-0.173918
-0.16378
-0.155074
-0.147848
-0.142182
-0.138196
-0.136073
-0.669711
-0.646521
-0.625208
-0.604022
-0.582205
-0.55975
-0.536211
-0.511297
-0.485065
-0.45783
-0.430075
-0.402368
-0.375278
-0.349281
-0.324704
-0.301713
-0.280347
-0.260573
-0.24233
-0.225558
-0.210206
-0.196238
-0.183634
-0.172384
-0.162497
-0.153998
-0.146938
-0.141398
-0.137499
-0.135421
-0.715694
-0.669243
-0.635613
-0.608413
-0.582364
-0.556618
-0.53059
-0.503849
-0.476382
-0.448462
-0.420523
-0.393069
-0.366577
-0.341407
-0.317762
-0.295706
-0.275208
-0.256205
-0.238627
-0.222422
-0.207553
-0.193996
-0.18174
-0.170784
-0.161143
-0.152846
-0.145948
-0.140531
-0.136717
-0.134683
-0.726864
-0.662475
-0.621955
-0.592365
-0.565619
-0.539883
-0.514446
-0.488817
-0.462847
-0.436661
-0.410552
-0.384896
-0.360051
-0.336293
-0.313784
-0.292592
-0.272724
-0.254169
-0.236909
-0.220931
-0.206228
-0.192796
-0.180636
-0.169756
-0.160175
-0.151928
-0.145069
-0.139682
-0.135888
-0.133865
-0.503274
-0.514913
-0.513972
-0.507736
-0.498035
-0.485683
-0.471279
-0.455105
-0.437338
-0.418198
-0.397975
-0.377013
-0.355685
-0.33436
-0.313374
-0.293012
-0.273499
-0.255002
-0.237633
-0.221465
-0.206539
-0.192879
-0.180501
-0.169423
-0.159668
-0.151273
-0.144295
-0.138817
-0.134962
-0.132908
-0.480693
-0.496404
-0.500986
-0.498363
-0.491251
-0.480686
-0.467383
-0.451823
-0.434351
-0.415304
-0.395068
-0.374071
-0.352749
-0.331499
-0.310657
-0.290484
-0.271177
-0.252877
-0.235685
-0.219668
-0.204869
-0.191315
-0.179029
-0.16803
-0.158343
-0.150006
-0.143076
-0.137636
-0.133808
-0.131768
-0.467859
-0.479265
-0.483473
-0.482643
-0.477831
-0.46946
-0.458032
-0.443998
-0.42774
-0.409651
-0.390166
-0.369762
-0.348914
-0.328055
-0.307547
-0.287665
-0.268611
-0.25053
-0.233526
-0.217668
-0.203004
-0.189568
-0.177384
-0.166474
-0.156866
-0.148599
-0.141727
-0.136333
-0.132538
-0.130516
-0.451664
-0.460356
-0.464557
-0.465376
-0.462787
-0.456716
-0.447392
-0.435135
-0.420304
-0.403322
-0.384681
-0.364922
-0.344584
-0.324147
-0.304002
-0.284443
-0.265677
-0.24785
-0.231066
-0.215398
-0.200899
-0.187606
-0.175547
-0.164748
-0.155236
-0.147051
-0.140249
-0.13491
-0.131154
-0.129153
-0.437138
-0.444195
-0.448109
-0.449629
-0.448352
-0.443911
-0.436274
-0.425586
-0.412116
-0.396262
-0.37853
-0.359497
-0.339745
-0.319793
-0.300063
-0.280864
-0.262415
-0.244867
-0.228328
-0.212874
-0.198562
-0.185433
-0.17352
-0.162849
-0.15345
-0.145363
-0.138642
-0.133368
-0.129658
-0.127681
-0.424007
-0.429932
-0.433413
-0.435147
-0.434623
-0.431319
-0.425006
-0.415661
-0.403439
-0.388674
-0.37186
-0.353584
-0.334459
-0.315031
-0.295749
-0.276942
-0.258836
-0.241591
-0.22532
-0.210102
-0.195999
-0.183056
-0.171308
-0.160783
-0.151513
-0.143537
-0.13691
-0.13171
-0.128052
-0.126103
-0.411816
-0.416927
-0.420007
-0.421763
-0.421671
-0.419149
-0.413847
-0.405606
-0.394475
-0.380714
-0.364782
-0.347261
-0.328777
-0.309897
-0.291089
-0.272696
-0.254956
-0.238034
-0.222052
-0.207091
-0.193217
-0.180478
-0.168914
-0.158553
-0.149427
-0.141576
-0.135054
-0.129937
-0.126338
-0.124421
-0.400451
-0.404949
-0.407681
-0.409365
-0.409503
-0.407503
-0.402951
-0.395593
-0.385387
-0.372518
-0.357401
-0.340604
-0.322756
-0.304429
-0.286108
-0.268146
-0.250789
-0.23421
-0.218534
-0.203849
-0.190222
-0.177707
-0.166344
-0.156163
-0.147197
-0.139485
-0.133078
-0.128053
-0.124519
-0.122637
-0.389834
-0.393842
-0.396268
-0.397835
-0.398073
-0.396411
-0.392405
-0.385736
-0.376293
-0.364192
-0.349801
-0.333679
-0.316448
-0.298666
-0.280834
-0.263312
-0.246352
-0.230129
-0.214777
-0.200384
-0.187022
-0.174748
-0.163604
-0.153618
-0.144826
-0.137265
-0.130985
-0.126061
-0.122598
-0.120754
-0.379889
-0.383488
-0.385641
-0.387069
-0.387327
-0.385873
-0.382251
-0.376102
-0.36727
-0.35581
-0.34205
-0.326546
-0.309901
-0.292649
-0.2753
-0.25822
-0.241661
-0.225804
-0.21079
-0.196706
-0.183625
-0.171608
-0.160698
-0.150924
-0.14232
-0.134922
-0.128779
-0.123963
-0.120578
-0.118775
-0.370554
-0.3738
-0.375706
-0.376984
-0.377209
-0.375866
-0.372495
-0.366717
-0.358349
-0.3474
-0.334232
-0.319263
-0.303148
-0.286413
-0.269546
-0.252898
-0.236739
-0.22125
-0.206584
-0.192823
-0.180037
-0.168293
-0.157633
-0.148084
-0.139681
-0.132459
-0.126463
-0.121764
-0.118462
-0.116703
-0.361779
-0.364713
-0.366388
-0.367513
-0.367667
-0.366352
-0.363113
-0.357595
-0.349572
-0.338999
-0.326439
-0.311876
-0.2962
-0.279971
-0.263588
-0.247349
-0.231611
-0.216488
-0.202174
-0.188744
-0.176265
-0.164809
-0.154414
-0.145105
-0.136916
-0.12988
-0.124042
-0.119467
-0.116253
-0.114541
-0.353522
-0.356174
-0.357632
-0.358595
-0.358636
-0.357269
-0.354121
-0.348821
-0.341094
-0.33083
-0.318515
-0.304391
-0.289141
-0.273325
-0.257351
-0.241539
-0.226279
-0.211529
-0.197575
-0.184485
-0.172317
-0.161163
-0.151048
-0.141992
-0.134029
-0.12719
-0.121519
-0.117076
-0.113955
-0.112293
-0.345749
-0.348144
-0.349385
-0.350167
-0.350074
-0.348614
-0.345694
-0.340362
-0.332729
-0.322703
-0.31061
-0.296832
-0.281955
-0.266524
-0.250953
-0.235564
-0.22066
-0.206354
-0.192783
-0.18006
-0.168207
-0.157362
-0.147539
-0.13875
-0.131025
-0.124395
-0.118898
-0.114594
-0.111572
-0.109963
-0.338434
-0.340587
-0.341588
-0.34221
-0.342062
-0.340576
-0.337435
-0.332139
-0.324551
-0.314653
-0.302729
-0.289213
-0.274654
-0.259576
-0.244388
-0.229403
-0.214881
-0.200961
-0.187761
-0.175462
-0.163952
-0.15342
-0.143896
-0.135384
-0.127909
-0.121497
-0.116184
-0.112026
-0.109108
-0.107553
-0.331566
-0.333455
-0.334226
-0.334871
-0.334449
-0.332809
-0.329521
-0.324168
-0.316549
-0.306688
-0.294867
-0.281542
-0.267249
-0.252489
-0.237659
-0.223061
-0.208925
-0.195397
-0.182591
-0.170626
-0.159544
-0.149344
-0.140128
-0.131901
-0.124686
-0.118502
-0.113381
-0.109376
-0.106566
-0.105069
-0.325152
-0.326735
-0.327502
-0.327788
-0.327196
-0.325387
-0.321927
-0.316433
-0.308708
-0.298802
-0.287015
-0.273818
-0.259741
-0.245265
-0.230772
-0.216545
-0.202794
-0.189661
-0.177253
-0.165663
-0.154942
-0.145126
-0.136242
-0.128311
-0.121362
-0.115415
-0.110495
-0.106647
-0.10395
-0.102513
-0.319163
-0.320533
-0.321054
-0.321106
-0.320323
-0.318302
-0.31462
-0.308915
-0.301009
-0.290981
-0.279161
-0.266035
-0.252128
-0.237905
-0.223727
-0.209859
-0.19649
-0.183754
-0.171749
-0.160551
-0.150212
-0.140755
-0.132227
-0.124618
-0.117946
-0.112241
-0.107528
-0.103846
-0.101265
-0.0998897
-0.313585
-0.314712
-0.314998
-0.314825
-0.313809
-0.311533
-0.307575
-0.30159
-0.293428
-0.283207
-0.271289
-0.258181
-0.244403
-0.230404
-0.216524
-0.203004
-0.190017
-0.177682
-0.166086
-0.155293
-0.145348
-0.136269
-0.128088
-0.120812
-0.114442
-0.108988
-0.104487
-0.100975
-0.0985145
-0.0972038
-0.308462
-0.30925
-0.309339
-0.308922
-0.307637
-0.305059
-0.300767
-0.294431
-0.285938
-0.275452
-0.263377
-0.250238
-0.236554
-0.222755
-0.209157
-0.19598
-0.183376
-0.171447
-0.160269
-0.149892
-0.140354
-0.131666
-0.123849
-0.116906
-0.110842
-0.10566
-0.101379
-0.0980401
-0.0957034
-0.0944592
-0.303743
-0.304195
-0.304067
-0.303382
-0.301791
-0.298861
-0.294169
-0.287407
-0.278507
-0.267688
-0.255398
-0.242186
-0.228566
-0.214947
-0.201622
-0.188785
-0.176566
-0.165052
-0.154302
-0.144354
-0.135235
-0.12695
-0.119511
-0.112913
-0.107159
-0.102252
-0.0982061
-0.0950477
-0.0928363
-0.0916603
-0.299438
-0.299557
-0.29918
-0.2982
-0.296258
-0.292917
-0.287751
-0.280482
-0.271096
-0.259875
-0.247319
-0.233997
-0.220417
-0.206966
-0.193909
-0.181413
-0.169587
-0.158497
-0.148187
-0.138683
-0.129996
-0.122128
-0.115077
-0.108837
-0.103404
-0.0987758
-0.0949652
-0.0919999
-0.0899197
-0.0888121
-0.295568
-0.295344
-0.294681
-0.293369
-0.291025
-0.287202
-0.28148
-0.273615
-0.26366
-0.251972
-0.239102
-0.22564
-0.212084
-0.198795
-0.186007
-0.17386
-0.162436
-0.151785
-0.14193
-0.132882
-0.124643
-0.117204
-0.110554
-0.104683
-0.0995796
-0.09524
-0.0916714
-0.0888925
-0.086958
-0.0859193
-0.292158
-0.291573
-0.290581
-0.288887
-0.286077
-0.281689
-0.275314
-0.266756
-0.256147
-0.243927
-0.230703
-0.217079
-0.20354
-0.190414
-0.177903
-0.166117
-0.155113
-0.144915
-0.135532
-0.126958
-0.119181
-0.112184
-0.105948
-0.100456
-0.0956918
-0.091648
-0.0883275
-0.0857446
-0.0839478
-0.0829848
-0.289241
-0.288269
-0.286891
-0.284755
-0.281398
-0.276346
-0.269206
-0.259846
-0.248495
-0.235682
-0.22207
-0.208273
-0.194752
-0.181801
-0.169584
-0.158177
-0.147612
-0.137889
-0.128996
-0.120913
-0.113615
-0.107075
-0.101265
-0.0961616
-0.0917459
-0.088005
-0.0849381
-0.0825558
-0.0808994
-0.0800132
-0.28686
-0.285465
-0.283631
-0.280973
-0.276969
-0.271129
-0.263094
-0.252813
-0.240628
-0.227168
-0.213146
-0.199176
-0.185687
-0.172932
-0.161033
-0.150032
-0.139931
-0.130706
-0.122326
-0.114754
-0.107952
-0.101882
-0.0965098
-0.0918064
-0.0877473
-0.0843163
-0.0815084
-0.0793306
-0.0778175
-0.0770093
-0.285079
-0.283199
-0.280823
-0.27754
-0.27276
-0.265984
-0.256901
-0.245569
-0.23246
-0.218306
-0.203865
-0.189736
-0.176306
-0.16378
-0.152233
-0.141673
-0.132067
-0.123369
-0.115526
-0.108485
-0.102196
-0.0966114
-0.0916899