/*--------------------------------*- C++ -*----------------------------------*\
  =========                 |
  \\      /  F ield         | OpenFOAM: The Open Source CFD Toolbox
   \\    /   O peration     | Website:  https://openfoam.org
    \\  /    A nd           | Version:  7
     \\/     M anipulation  |
\*---------------------------------------------------------------------------*/
FoamFile
{
    version     2.0;
    format      ascii;
    class       volScalarField;
    location    "3.2001";
    object      rho;
}
// * * * * * * * * * * * * * * * * * * * * * * * * * * * * * * * * * * * * * //

dimensions      [1 -3 0 0 0 0 0];

internalField   nonuniform List<scalar> 
324000
(
0.371223
0.51856
0.728042
0.889254
0.954271
0.995912
0.977087
0.970879
0.964518
0.945099
0.945384
0.958134
0.97933
0.993507
0.985574
0.970981
0.964652
0.969082
0.978143
0.986294
0.984744
0.980805
0.979951
0.982034
0.985307
0.986193
0.98485
0.98375
0.984114
0.986928
0.987572
0.987029
0.986097
0.986651
0.988424
0.988585
0.987561
0.986581
0.986869
0.988143
0.988208
0.987587
0.987189
0.986882
0.986583
0.986348
0.986309
0.985818
0.985129
0.984857
0.98465
0.985348
0.987773
0.990563
0.99439
0.998115
0.998919
0.999712
0.999217
1.00065
1.00183
1.00921
1.02328
1.03809
1.05582
1.06996
1.07471
1.08063
1.08977
1.09289
1.09471
1.09848
1.10427
1.11048
1.11991
1.13074
1.14059
1.15068
1.16033
1.17614
0.24864
0.248889
0.282348
0.397899
0.599274
0.771627
0.850005
0.920932
0.921358
0.920598
0.940443
0.954661
0.952362
0.941897
0.92905
0.931207
0.937422
0.950685
0.951176
0.949347
0.943859
0.94232
0.945086
0.950914
0.956488
0.955112
0.951969
0.950806
0.952525
0.956851
0.957989
0.956963
0.955679
0.956437
0.95862
0.958573
0.957912
0.958196
0.959127
0.959677
0.959557
0.959252
0.959202
0.95949
0.960155
0.960951
0.961052
0.960219
0.958123
0.956038
0.955806
0.957329
0.961302
0.965539
0.970533
0.974688
0.976602
0.977254
0.977426
0.979673
0.981167
0.988608
1.00312
1.02056
1.04125
1.05904
1.07031
1.0808
1.09125
1.09404
1.09545
1.09901
1.10445
1.11031
1.11913
1.12967
1.14005
1.15095
1.16105
1.17672
0.249145
0.249678
0.250241
0.250718
0.263837
0.323617
0.466631
0.642501
0.783717
0.896599
0.952412
0.960768
0.944334
0.909362
0.897622
0.908887
0.924795
0.940543
0.938499
0.930835
0.926524
0.928827
0.936355
0.936843
0.937263
0.93485
0.934519
0.937053
0.940196
0.939466
0.937133
0.936241
0.936602
0.939156
0.940326
0.939818
0.939806
0.940757
0.942503
0.942761
0.942051
0.941788
0.9423
0.942562
0.942535
0.942078
0.941456
0.940664
0.939968
0.940728
0.942625
0.944505
0.945728
0.949972
0.955921
0.961007
0.965163
0.967497
0.968823
0.971015
0.971466
0.976372
0.989072
1.00676
1.02893
1.04921
1.06561
1.07997
1.09172
1.095
1.09674
1.09999
1.1044
1.10962
1.1185
1.12876
1.13974
1.15141
1.16207
1.1775
0.249904
0.250562
0.251304
0.25199
0.252531
0.253484
0.254111
0.268733
0.354941
0.518462
0.68609
0.827202
0.870476
0.898488
0.90821
0.927581
0.939952
0.938642
0.926295
0.916022
0.918398
0.926508
0.934366
0.935869
0.931122
0.92623
0.927952
0.930644
0.936168
0.935131
0.931259
0.930104
0.931601
0.934691
0.935046
0.933546
0.932887
0.934039
0.933305
0.932562
0.932169
0.932499
0.932853
0.933
0.932523
0.932711
0.932869
0.932986
0.933648
0.93515
0.935889
0.937637
0.940524
0.943896
0.945902
0.949048
0.953887
0.958879
0.964311
0.968769
0.970026
0.973516
0.985204
0.999865
1.01981
1.04069
1.06057
1.07849
1.09121
1.0953
1.09757
1.10062
1.10413
1.10919
1.11829
1.1285
1.13976
1.15205
1.16331
1.17832
0.250881
0.251632
0.252277
0.252745
0.253288
0.25415
0.255112
0.25544
0.255447
0.255348
0.291749
0.397693
0.595881
0.795911
0.889664
0.930229
0.93201
0.929725
0.908683
0.915422
0.928652
0.939974
0.939197
0.934899
0.925875
0.924333
0.927109
0.933905
0.935239
0.93178
0.928771
0.929223
0.931964
0.933753
0.93209
0.930129
0.930445
0.932
0.932437
0.931047
0.930378
0.931092
0.93188
0.932759
0.933419
0.933884
0.933531
0.932382
0.931119
0.93013
0.930107
0.931967
0.936314
0.94114
0.944295
0.947632
0.951419
0.955722
0.960308
0.964848
0.966648
0.969085
0.980638
0.994945
1.01286
1.03384
1.05544
1.07598
1.09008
1.09497
1.09752
1.10056
1.10389
1.10904
1.11835
1.1287
1.14031
1.15276
1.16451
1.17913
0.25202
0.252526
0.253034
0.253437
0.253854
0.254553
0.255433
0.2558
0.255815
0.255728
0.255595
0.255586
0.26461
0.341795
0.523358
0.718088
0.811106
0.891742
0.902323
0.932817
0.951852
0.950313
0.94188
0.928341
0.923485
0.926027
0.935882
0.938681
0.935708
0.929605
0.929196
0.933233
0.9359
0.93417
0.930914
0.930372
0.932247
0.933311
0.932234
0.93125
0.931081
0.93152
0.93213
0.932756
0.933778
0.934279
0.933319
0.931407
0.9298
0.929489
0.930174
0.932094
0.934963
0.939281
0.944419
0.948861
0.952952
0.95676
0.960294
0.96356
0.96482
0.965065
0.974759
0.989323
1.00717
1.02846
1.05043
1.0726
1.08835
1.0944
1.09742
1.10053
1.10392
1.10948
1.1188
1.12896
1.14099
1.15326
1.16547
1.17984
0.253169
0.253418
0.253707
0.254022
0.254355
0.254911
0.255621
0.255996
0.256014
0.255886
0.255786
0.255813
0.256063
0.256432
0.256453
0.295601
0.430488
0.632614
0.806861
0.916369
0.941055
0.948502
0.943064
0.925447
0.929543
0.940587
0.945668
0.941187
0.93273
0.929748
0.935771
0.941379
0.938512
0.933834
0.931302
0.933846
0.936407
0.93495
0.932624
0.932239
0.933248
0.933478
0.933494
0.934095
0.935007
0.934278
0.932784
0.931284
0.930654
0.930726
0.931735
0.933405
0.935669
0.93944
0.944758
0.949986
0.954552
0.958221
0.961393
0.964037
0.965148
0.964724
0.9733
0.987326
1.00378
1.0237
1.04532
1.06861
1.08627
1.09392
1.09768
1.10096
1.10431
1.11003
1.11894
1.12893
1.14137
1.15348
1.16603
1.18039
0.254116
0.254262
0.254353
0.254485
0.254756
0.255208
0.255778
0.256164
0.256186
0.256008
0.255844
0.255872
0.256138
0.256584
0.256678
0.256598
0.256342
0.265578
0.370023
0.559045
0.73349
0.882328
0.902056
0.92952
0.943559
0.957185
0.950572
0.935898
0.931289
0.938139
0.949182
0.94767
0.941258
0.934842
0.936823
0.941971
0.94114
0.937362
0.93512
0.936168
0.937241
0.936472
0.93611
0.936859
0.936768
0.935396
0.933772
0.933482
0.933539
0.933728
0.93455
0.935636
0.937335
0.940757
0.945795
0.951445
0.956443
0.960289
0.963304
0.96521
0.966132
0.965518
0.97357
0.987081
1.00197
1.02119
1.04054
1.06437
1.08421
1.0938
1.09828
1.10157
1.10487
1.11053
1.1191
1.129
1.14162
1.15317
1.16624
1.18082
0.254778
0.254891
0.25489
0.254923
0.255104
0.255469
0.255942
0.25627
0.256276
0.256033
0.255852
0.25588
0.256172
0.256646
0.25675
0.256708
0.256519
0.256316
0.25629
0.256312
0.324312
0.490054
0.708413
0.888639
0.933987
0.95218
0.947287
0.929939
0.938436
0.953021
0.956138
0.948879
0.938632
0.93886
0.944822
0.946904
0.944158
0.939638
0.939547
0.941054
0.940697
0.939552
0.939881
0.940313
0.9392
0.937045
0.936361
0.936602
0.936836
0.937204
0.937788
0.938428
0.940015
0.943413
0.948622
0.954157
0.958165
0.962493
0.965248
0.966649
0.967678
0.966552
0.974222
0.98749
1.00273
1.01795
1.03538
1.06014
1.08232
1.09361
1.09862
1.10188
1.10526
1.11104
1.11953
1.12939
1.14181
1.15289
1.16627
1.18118
0.255272
0.255336
0.255311
0.25531
0.255384
0.255656
0.256118
0.256337
0.256313
0.255967
0.255777
0.255837
0.256181
0.256685
0.256784
0.256747
0.256581
0.256395
0.256364
0.256376
0.256479
0.2565
0.306323
0.457807
0.671832
0.853557
0.894396
0.929893
0.9546
0.966337
0.961501
0.938777
0.937408
0.945196
0.952787
0.950382
0.942313
0.940876
0.943896
0.943984
0.942225
0.941639
0.942951
0.942612
0.940618
0.938984
0.939127
0.939764
0.939863
0.939631
0.939609
0.940335
0.942435
0.946309
0.95188
0.956527
0.959809
0.964031
0.96681
0.968251
0.967169
0.967019
0.974686
0.988253
1.00313
1.01554
1.03054
1.05639
1.08075
1.09319
1.09843
1.10173
1.10547
1.11164
1.12029
1.13008
1.14214
1.15274
1.16644
1.18146
0.255623
0.255648
0.255614
0.255603
0.25563
0.25587
0.256287
0.256373
0.256293
0.255827
0.255656
0.25573
0.256157
0.256697
0.256786
0.256756
0.256621
0.256448
0.256408
0.256411
0.25648
0.25651
0.256467
0.256324
0.294278
0.430285
0.66793
0.874434
0.936951
0.958383
0.945282
0.929313
0.941216
0.954808
0.954165
0.946032
0.939695
0.943269
0.947611
0.945696
0.942221
0.942972
0.944903
0.944006
0.941738
0.940719
0.941805
0.941701
0.940838
0.940097
0.939981
0.940851
0.943512
0.948253
0.954244
0.958541
0.961444
0.964601
0.965873
0.96609
0.964626
0.967136
0.975369
0.988542
1.00255
1.01284
1.02622
1.05352
1.07943
1.0926
1.09802
1.10137
1.10567
1.11252
1.12135
1.1311
1.14231
1.15252
1.16593
1.18173
0.255879
0.255885
0.255839
0.255811
0.255827
0.256065
0.256381
0.25641
0.25627
0.255718
0.255568
0.255653
0.25608
0.25664
0.256745
0.256723
0.256626
0.256488
0.256446
0.256445
0.256485
0.256491
0.25643
0.256304
0.256276
0.256281
0.288224
0.42834
0.653073
0.853675
0.892343
0.929868
0.959068
0.959488
0.953521
0.936455
0.938321
0.949632
0.949493
0.943515
0.941893
0.944966
0.945445
0.942435
0.940674
0.941769
0.942768
0.942067
0.940548
0.939897
0.939997
0.9411
0.944087
0.94958
0.956187
0.95976
0.963112
0.965073
0.964352
0.96426
0.962117
0.966983
0.976147
0.98863
1.00087
1.00888
1.02265
1.05152
1.07814
1.09117
1.09673
1.10086
1.10581
1.1134
1.12237
1.132
1.14245
1.15231
1.16563
1.18158
0.256057
0.256053
0.255997
0.255965
0.255998
0.256259
0.256464
0.256466
0.256261
0.255654
0.2555
0.255591
0.255996
0.256543
0.256695
0.25668
0.256608
0.256501
0.256462
0.256462
0.256499
0.25651
0.256431
0.256301
0.256275
0.256291
0.256476
0.256615
0.287581
0.427093
0.679752
0.887202
0.940923
0.952572
0.933523
0.930457
0.944961
0.953124
0.946652
0.938399
0.942687
0.946546
0.944759
0.939117
0.93976
0.9429
0.942719
0.941262
0.939901
0.939827
0.940299
0.941679
0.944922
0.950283
0.956459
0.960526
0.963263
0.963431
0.963124
0.963575
0.961587
0.966584
0.975875
0.988362
0.998381
1.00411
1.02082
1.05069
1.07723
1.08897
1.09485
1.0997
1.10578
1.11418
1.12331
1.1328
1.1426
1.15227
1.16554
1.18151
0.256174
0.256162
0.256097
0.256083
0.256176
0.256451
0.25655
0.25653
0.256258
0.255619
0.255462
0.255559
0.255946
0.256459
0.256644
0.256636
0.256571
0.256487
0.256462
0.25647
0.256514
0.256542
0.256487
0.256328
0.256281
0.256303
0.256493
0.256691
0.256703
0.256662
0.297222
0.462329
0.695667
0.873722
0.904308
0.934713
0.961364
0.957107
0.932573
0.9357
0.947725
0.947332
0.93978
0.936735
0.940068
0.943224
0.941968
0.939733
0.939434
0.93994
0.940656
0.942077
0.945564
0.950723
0.955899
0.959432
0.961524
0.962278
0.962587
0.963172
0.962062
0.966894
0.976108
0.986693
0.994815
1.0018
1.0207
1.05085
1.07466
1.08652
1.09316
1.09883
1.10578
1.11477
1.12411
1.13371
1.14298
1.15258
1.16569
1.18129
0.256252
0.256212
0.256154
0.256169
0.256354
0.256612
0.256655
0.256605
0.256262
0.255608
0.255435
0.255531
0.255902
0.256388
0.2566
0.256596
0.256536
0.25644
0.256428
0.256473
0.256541
0.256576
0.256532
0.256364
0.256297
0.256309
0.256474
0.256694
0.256717
0.256692
0.256626
0.256571
0.30927
0.502604
0.764335
0.913923
0.953508
0.940595
0.921482
0.944227
0.951991
0.943574
0.933977
0.935794
0.9434
0.943063
0.93927
0.938567
0.939432
0.9398
0.940285
0.942017
0.945649
0.950987
0.955234
0.957696
0.959346
0.961159
0.963087
0.962866
0.960532
0.964842
0.973987
0.984063
0.9909
1.00079
1.02242
1.05159
1.0726
1.08397
1.09169
1.09818
1.10588
1.11526
1.12471
1.13484
1.14396
1.15355
1.16635
1.18115
0.256277
0.25618
0.25617
0.25624
0.256506
0.256753
0.256775
0.256696
0.256295
0.255628
0.255419
0.2555
0.255846
0.256327
0.256565
0.256565
0.256501
0.256396
0.256377
0.256444
0.25657
0.256624
0.256588
0.256413
0.256321
0.256324
0.256437
0.256655
0.256704
0.256685
0.256617
0.256602
0.256648
0.256676
0.339359
0.570028
0.809311
0.88235
0.922024
0.964958
0.9553
0.931835
0.931988
0.941158
0.946464
0.941275
0.936771
0.937994
0.939942
0.93943
0.939687
0.941855
0.945889
0.95048
0.953816
0.955517
0.95776
0.960434
0.963388
0.96291
0.960197
0.963325
0.972156
0.981637
0.99
1.00217
1.02536
1.05266
1.07053
1.08139
1.09032
1.09793
1.10617
1.11569
1.12511
1.13601
1.14564
1.15539
1.16751
1.18113
0.256203
0.256126
0.256159
0.2563
0.2566
0.256867
0.256893
0.256804
0.256384
0.255675
0.255414
0.255483
0.25581
0.256289
0.256538
0.256538
0.256471
0.25636
0.256333
0.256404
0.256593
0.256676
0.256652
0.256474
0.256339
0.256337
0.256407
0.256597
0.256668
0.256652
0.256613
0.256614
0.256676
0.256718
0.256687
0.261355
0.37193
0.652
0.875306
0.947368
0.945129
0.92216
0.937257
0.949922
0.946234
0.935526
0.935759
0.940457
0.939991
0.938593
0.939264
0.941866
0.945812
0.949692
0.952741
0.954409
0.957216
0.960087
0.963309
0.962969
0.959628
0.961863
0.970613
0.979772
0.990708
1.00507
1.02811
1.0539
1.06868
1.07935
1.08911
1.09798
1.10651
1.11583
1.12533
1.13675
1.14735
1.15757
1.16889
1.18124
0.256129
0.256102
0.256187
0.256355
0.256609
0.256919
0.256999
0.256924
0.256524
0.255782
0.25542
0.255465
0.255769
0.256267
0.256545
0.256538
0.25645
0.256329
0.256305
0.256373
0.256599
0.25671
0.256702
0.256553
0.256349
0.256334
0.25638
0.256542
0.256631
0.256616
0.256587
0.256596
0.256677
0.25673
0.256724
0.256631
0.256529
0.282585
0.459191
0.722792
0.868429
0.911815
0.960179
0.958321
0.944011
0.931586
0.937919
0.943731
0.940235
0.937454
0.939223
0.942141
0.945452
0.94864
0.952415
0.954414
0.957526
0.960194
0.962317
0.962395
0.958983
0.961066
0.969654
0.98152
0.99441
1.00796
1.02954
1.05377
1.06709
1.07769
1.08814
1.09781
1.10665
1.11588
1.1252
1.13709
1.14847
1.15942
1.16995
1.18176
0.256098
0.256144
0.256284
0.256376
0.256512
0.256867
0.25707
0.257029
0.25671
0.255977
0.255445
0.255452
0.255734
0.256271
0.256583
0.256563
0.256426
0.256284
0.256281
0.25636
0.256584
0.25672
0.256726
0.256637
0.256399
0.256349
0.256376
0.2565
0.256591
0.256575
0.256558
0.256572
0.256675
0.256736
0.256732
0.256667
0.256527
0.256473
0.256467
0.312911
0.566978
0.830993
0.943321
0.946691
0.922448
0.930706
0.946768
0.944352
0.93653
0.936788
0.939889
0.942405
0.944968
0.948815
0.952002
0.954728
0.957832
0.960126
0.960944
0.961427
0.958284
0.960786
0.970655
0.98562
0.998572
1.00928
1.03026
1.05364
1.06599
1.07634
1.08718
1.0973
1.10677
1.11504
1.12422
1.13669
1.14894
1.1605
1.1707
1.18253
0.256138
0.256233
0.256325
0.256327
0.25642
0.25681
0.257106
0.257093
0.25683
0.256063
0.255448
0.255429
0.255712
0.256318
0.256634
0.256595
0.256399
0.256231
0.25623
0.256325
0.256575
0.256726
0.256744
0.256705
0.256482
0.256358
0.256377
0.256467
0.256549
0.256537
0.256527
0.256544
0.256659
0.256739
0.256734
0.256696
0.256549
0.256458
0.256454
0.256478
0.256544
0.393044
0.666624
0.848833
0.905366
0.943335
0.955345
0.94478
0.932808
0.937739
0.940701
0.941257
0.944972
0.949793
0.951959
0.955182
0.957862
0.959786
0.959455
0.959703
0.95697
0.960876
0.973272
0.990292
1.00007
1.00775
1.03097
1.05401
1.06574
1.07612
1.08624
1.09651
1.10616
1.11417
1.1232
1.13553
1.14857
1.16093
1.17126
1.18308
0.256222
0.256283
0.256285
0.256276
0.256361
0.25678
0.257146
0.257152
0.256912
0.256057
0.25539
0.255388
0.255712
0.256422
0.256686
0.256638
0.256409
0.256207
0.256192
0.256248
0.256508
0.256739
0.256769
0.256752
0.256561
0.25636
0.256357
0.256428
0.25652
0.256516
0.256493
0.256506
0.25659
0.256733
0.256742
0.256727
0.256631
0.256463
0.256443
0.256454
0.256508
0.256518
0.290014
0.511978
0.806296
0.925498
0.949763
0.925829
0.931287
0.942443
0.938731
0.939815
0.946244
0.950535
0.952368
0.955517
0.957701
0.958924
0.957905
0.956674
0.955006
0.96042
0.975274
0.992605
0.997814
1.00555
1.03192
1.05528
1.06706
1.07611
1.08514
1.09464
1.10487
1.11301
1.12209
1.134
1.14695
1.16039
1.17176
1.18338
0.256363
0.256326
0.256232
0.256197
0.256265
0.25671
0.257194
0.257226
0.256983
0.255997
0.255304
0.255321
0.255765
0.256536
0.25671
0.256666
0.256453
0.256216
0.256174
0.256198
0.25639
0.256708
0.25677
0.256769
0.256646
0.256403
0.256361
0.256401
0.256507
0.256525
0.256468
0.256458
0.256501
0.256696
0.256779
0.25677
0.256708
0.256488
0.256436
0.256446
0.256494
0.256494
0.256466
0.256397
0.372325
0.646556
0.875871
0.901781
0.94086
0.947022
0.934054
0.940577
0.949782
0.951096
0.952848
0.955964
0.957708
0.957908
0.956457
0.95206
0.952113
0.959088
0.976211
0.991284
0.993934
1.00446
1.03445
1.05867
1.06826
1.07557
1.08282
1.09191
1.10235
1.11124
1.12076
1.13242
1.14498
1.15847
1.17106
1.18308
0.256558
0.256377
0.256128
0.256068
0.256125
0.256597
0.257216
0.257286
0.257042
0.255964
0.255239
0.255242
0.255714
0.256547
0.256709
0.256677
0.256474
0.256222
0.256159
0.256157
0.256266
0.256589
0.256727
0.256754
0.256699
0.256475
0.256393
0.256398
0.256489
0.256541
0.256489
0.256418
0.256433
0.256587
0.256796
0.256807
0.256758
0.256549
0.256439
0.256443
0.256484
0.256486
0.256454
0.256398
0.256373
0.289148
0.504515
0.791566
0.936229
0.935275
0.924113
0.945304
0.952249
0.949878
0.952534
0.956108
0.957146
0.956772
0.955056
0.948497
0.949467
0.957538
0.976406
0.988208
0.989646
1.00538
1.04103
1.06211
1.0681
1.07334
1.08003
1.08882
1.09928
1.10895
1.11917
1.13091
1.14315
1.15673
1.17032
1.18263
0.256706
0.256435
0.256046
0.255978
0.256022
0.256483
0.257206
0.257317
0.257101
0.256034
0.255226
0.255212
0.255548
0.256415
0.256685
0.256676
0.256522
0.256175
0.256064
0.256063
0.256155
0.256487
0.256674
0.256707
0.256699
0.256534
0.256423
0.256414
0.256446
0.256536
0.25653
0.256427
0.256396
0.256459
0.256745
0.256802
0.256769
0.256627
0.256475
0.256467
0.256487
0.256486
0.256452
0.256398
0.256381
0.256415
0.256491
0.38095
0.690645
0.845559
0.914724
0.96262
0.954174
0.947674
0.952212
0.955041
0.955524
0.955255
0.953352
0.947273
0.948077
0.956348
0.975868
0.982091
0.986872
1.01202
1.04775
1.0632
1.06725
1.07169
1.07797
1.08634
1.09641
1.10644
1.11746
1.12951
1.14158
1.15539
1.16953
1.18206
0.25681
0.256447
0.256
0.255945
0.255982
0.256409
0.257179
0.257336
0.257144
0.256132
0.25526
0.25522
0.255453
0.256259
0.256663
0.256672
0.256584
0.256217
0.255975
0.255962
0.25604
0.256402
0.256642
0.256675
0.256675
0.256561
0.256448
0.256438
0.256439
0.256504
0.25655
0.256501
0.256395
0.256395
0.256584
0.256745
0.256736
0.25668
0.256579
0.256547
0.256527
0.2565
0.256458
0.256406
0.256371
0.256404
0.256513
0.256617
0.292164
0.552275
0.837063
0.944291
0.928959
0.944874
0.952326
0.951928
0.953095
0.953533
0.950629
0.947125
0.948053
0.956135
0.971952
0.976567
0.990731
1.0228
1.05329
1.06346
1.06718
1.07088
1.07706
1.085
1.09441
1.10444
1.11601
1.12844
1.14048
1.15438
1.16883
1.18152
0.256837
0.256482
0.255999
0.255943
0.255979
0.25637
0.25715
0.257351
0.257185
0.256263
0.255342
0.255261
0.255415
0.256109
0.256644
0.256678
0.256631
0.256308
0.255958
0.255918
0.255966
0.256304
0.256621
0.256664
0.256667
0.256569
0.256459
0.256449
0.256456
0.256487
0.256551
0.25653
0.256441
0.256383
0.256445
0.256654
0.256714
0.256704
0.256686
0.256647
0.2566
0.256544
0.256489
0.256408
0.256329
0.256357
0.256467
0.256623
0.256813
0.256893
0.404543
0.729579
0.870875
0.952038
0.952919
0.949269
0.951921
0.951693
0.947602
0.949364
0.949674
0.955672
0.968159
0.97708
1.00179
1.03256
1.05546
1.06121
1.06642
1.07085
1.07711
1.08469
1.09362
1.10351
1.11544
1.12848
1.1404
1.15397
1.16848
1.18122
0.256864
0.256585
0.256061
0.255969
0.255999
0.256351
0.257123
0.257368
0.257243
0.256474
0.255477
0.255326
0.255404
0.255926
0.256596
0.256689
0.256665
0.256399
0.255976
0.255897
0.255922
0.25621
0.256601
0.256663
0.256665
0.256573
0.256453
0.256444
0.256462
0.256504
0.25655
0.25653
0.256453
0.256385
0.256413
0.256552
0.256681
0.256721
0.256753
0.256741
0.256683
0.2566
0.256511
0.256404
0.256306
0.256328
0.25644
0.256603
0.256813
0.256966
0.256993
0.321756
0.644917
0.918211
0.936517
0.945318
0.952178
0.94872
0.947494
0.951681
0.949619
0.954129
0.964995
0.985128
1.01323
1.037
1.05147
1.05937
1.06645
1.07247
1.07981
1.08679
1.0943
1.10367
1.11608
1.13013
1.14252
1.15509
1.16888
1.1815
0.256818
0.256668
0.256166
0.255978
0.256005
0.256343
0.25711
0.257399
0.257318
0.256706
0.255662
0.255418
0.255442
0.255759
0.256484
0.256694
0.256687
0.256495
0.256029
0.255892
0.2559
0.256135
0.256577
0.256666
0.256669
0.256569
0.256437
0.256424
0.256456
0.256533
0.256562
0.256523
0.256442
0.256376
0.256401
0.25652
0.256661
0.256762
0.256806
0.256805
0.256751
0.256655
0.256537
0.256409
0.256311
0.256329
0.256438
0.256598
0.256803
0.256904
0.257047
0.257126
0.280977
0.571711
0.808853
0.937495
0.953261
0.945682
0.950685
0.954358
0.948927
0.951793
0.968807
0.998047
1.01828
1.03994
1.04982
1.05933
1.06857
1.07765
1.08461
1.09055
1.09711
1.10587
1.11782
1.13219
1.14561
1.15847
1.17048
1.18236
0.256797
0.256717
0.256281
0.255965
0.255984
0.256334
0.257134
0.257456
0.257404
0.25691
0.255863
0.255495
0.255494
0.255667
0.256346
0.256719
0.256731
0.256601
0.25612
0.2559
0.255895
0.25608
0.25655
0.256673
0.256679
0.256579
0.256433
0.256413
0.256445
0.256554
0.256597
0.256544
0.256426
0.256353
0.256383
0.256515
0.256709
0.256817
0.256855
0.256854
0.2568
0.256709
0.256587
0.256427
0.256329
0.256346
0.256451
0.256605
0.256778
0.25686
0.257006
0.25727
0.257252
0.257786
0.500739
0.851117
0.936739
0.941382
0.956595
0.954391
0.945454
0.950549
0.973362
1.00134
1.02044
1.03683
1.04971
1.06124
1.07543
1.08241
1.08747
1.09266
1.099
1.10806
1.11972
1.13372
1.14784
1.16173
1.17346
1.18444
0.256815
0.256739
0.256346
0.255969
0.255966
0.256307
0.257181
0.257536
0.257508
0.257126
0.256088
0.255558
0.255539
0.255643
0.256236
0.256727
0.256761
0.256671
0.256207
0.255913
0.255901
0.256039
0.256517
0.256678
0.256685
0.256597
0.25644
0.256412
0.256445
0.256575
0.256621
0.256559
0.256419
0.256337
0.256373
0.256522
0.256754
0.256865
0.256905
0.256897
0.256843
0.256767
0.25665
0.256453
0.256353
0.256365
0.256474
0.256628
0.256784
0.256858
0.256982
0.257219
0.257493
0.257734
0.258182
0.429805
0.785171
0.926963
0.965469
0.952371
0.943248
0.952903
0.979963
0.998195
1.01464
1.03633
1.0539
1.07103
1.0831
1.08586
1.08848
1.09327
1.10069
1.11118
1.12282
1.1356
1.14903
1.16411
1.17676
1.18733
0.256756
0.25667
0.256321
0.255984
0.25598
0.256308
0.257222
0.257634
0.257625
0.257336
0.25632
0.255621
0.25558
0.25566
0.256193
0.25672
0.256768
0.256701
0.256257
0.255918
0.255897
0.25601
0.256483
0.256693
0.256698
0.256611
0.256449
0.256423
0.256469
0.256612
0.256643
0.256564
0.256399
0.256332
0.256375
0.256553
0.256794
0.256917
0.256954
0.25694
0.256887
0.256818
0.256715
0.256497
0.256395
0.256392
0.256517
0.256762
0.256927
0.257045
0.257037
0.25718
0.257492
0.258044
0.258729
0.259283
0.413629
0.786588
0.954792
0.928669
0.940342
0.955001
0.977421
0.990802
1.01333
1.04578
1.06816
1.08174
1.08566
1.08753
1.08953
1.09531
1.10496
1.11646
1.12742
1.13861
1.1504
1.16643
1.17928
1.18975
0.256694
0.25662
0.256294
0.255988
0.255982
0.256277
0.25722
0.257682
0.25769
0.257487
0.256544
0.255694
0.255622
0.255698
0.256218
0.256735
0.256784
0.256725
0.256288
0.255894
0.255872
0.25598
0.256448
0.256725
0.256735
0.256652
0.256467
0.256439
0.256507
0.256651
0.25666
0.256549
0.25636
0.256349
0.256428
0.256615
0.256855
0.256984
0.256995
0.256975
0.256926
0.256869
0.256792
0.256634
0.256563
0.256517
0.256584
0.256958
0.257165
0.257327
0.257431
0.257437
0.257563
0.258161
0.258552
0.259632
0.260149
0.37356
0.756795
0.889953
0.955478
0.95511
0.966058
0.985623
1.0223
1.0718
1.08283
1.0874
1.08726
1.08925
1.09302
1.10126
1.11234
1.12316
1.13276
1.14259
1.1535
1.16948
1.18151
1.19161
0.25665
0.256598
0.256244
0.255902
0.255893
0.256146
0.257066
0.257671
0.257705
0.257571
0.256749
0.255802
0.255691
0.255754
0.25624
0.25677
0.256829
0.256777
0.256337
0.255877
0.25584
0.255936
0.256396
0.256738
0.256756
0.25669
0.256515
0.25648
0.256551
0.256675
0.256669
0.256522
0.256338
0.25634
0.256459
0.256684
0.256905
0.257004
0.257014
0.257004
0.256977
0.256909
0.256834
0.256765
0.256803
0.256745
0.256727
0.257087
0.257443
0.257518
0.257657
0.258044
0.258322
0.258382
0.258606
0.259506
0.261626
0.261969
0.353253
0.736191
0.932644
0.95003
0.955877
0.98807
1.05351
1.09016
1.08589
1.08728
1.08918
1.09309
1.09955
1.10984
1.12105
1.13024
1.13868
1.14731
1.15833
1.17372
1.18478
1.19364
0.256608
0.256581
0.256202
0.255799
0.255782
0.256003
0.256884
0.257645
0.257713
0.257612
0.25692
0.255936
0.25578
0.255822
0.256238
0.256804
0.256884
0.256839
0.256414
0.255882
0.255819
0.255903
0.256339
0.256733
0.256762
0.256701
0.256539
0.25651
0.256588
0.256689
0.256674
0.256497
0.256332
0.256343
0.256515
0.256769
0.25692
0.256962
0.257013
0.25704
0.257031
0.256941
0.256805
0.256814
0.256961
0.257074
0.257007
0.257206
0.257916
0.257947
0.257774
0.258125
0.259068
0.259355
0.259357
0.259629
0.261753
0.264639
0.265837
0.349011
0.684152
0.897344
0.95568
1.02324
1.09079
1.0986
1.08443
1.08902
1.09329
1.10156
1.11092
1.12123
1.13055
1.13743
1.14573
1.15352
1.16488
1.1793
1.18904
1.19671
0.256595
0.256587
0.256246
0.255716
0.255646
0.255805
0.256611
0.257628
0.257801
0.257711
0.25709
0.256068
0.255844
0.255869
0.256229
0.25684
0.256945
0.256898
0.256484
0.255905
0.255817
0.255891
0.256294
0.256722
0.256767
0.256709
0.256545
0.256513
0.256597
0.256706
0.256684
0.256483
0.256346
0.256393
0.25663
0.256896
0.256947
0.256961
0.257041
0.257103
0.257094
0.256966
0.256846
0.256852
0.257006
0.25743
0.257517
0.257558
0.258276
0.258742
0.258562
0.258377
0.259214
0.260733
0.262148
0.261889
0.262045
0.26496
0.269394
0.271132
0.315119
0.607555
0.869993
1.00872
1.0781
1.10295
1.09228
1.10655
1.1067
1.12103
1.12704
1.13499
1.13931
1.14425
1.15283
1.1611
1.17253
1.1853
1.19354
1.20126
0.256656
0.256641
0.256306
0.255634
0.255481
0.255599
0.256322
0.25753
0.257894
0.257822
0.257265
0.256223
0.255912
0.255927
0.256238
0.25686
0.256994
0.256945
0.256545
0.255935
0.255818
0.255888
0.256267
0.256719
0.256786
0.256748
0.256618
0.256589
0.256652
0.25673
0.256695
0.256489
0.256432
0.256482
0.256767
0.25699
0.25699
0.256983
0.25707
0.257211
0.257218
0.25716
0.257076
0.256976
0.257002
0.257567
0.258193
0.258211
0.258569
0.259274
0.259967
0.260055
0.260033
0.261488
0.264395
0.266717
0.266337
0.266256
0.269416
0.27454
0.277995
0.284875
0.415504
0.661447
0.868551
1.03901
1.07362
1.12942
1.12512
1.1449
1.14383
1.15025
1.14952
1.15164
1.16102
1.16978
1.18098
1.19196
1.19853
1.20649
0.256611
0.25661
0.256318
0.255555
0.255322
0.255417
0.25609
0.257435
0.257986
0.257926
0.257403
0.256361
0.255965
0.255979
0.256262
0.25688
0.257051
0.257001
0.256614
0.255977
0.255827
0.255893
0.256255
0.25673
0.256827
0.256801
0.256697
0.256652
0.256696
0.256737
0.256698
0.256562
0.25653
0.25657
0.256843
0.257033
0.257032
0.25703
0.257144
0.257379
0.257379
0.257354
0.257392
0.257312
0.257276
0.257665
0.258846
0.259013
0.259082
0.259644
0.260952
0.262463
0.262789
0.262931
0.265412
0.269693
0.272125
0.272118
0.271764
0.274976
0.280837
0.288813
0.299322
0.313545
0.415963
0.632742
0.924971
1.0909
1.11954
1.15932
1.15765
1.16431
1.15637
1.1606
1.17006
1.17809
1.18891
1.19833
1.20422
1.2123
0.256544
0.256549
0.256314
0.255519
0.255195
0.255269
0.255894
0.257297
0.25801
0.257963
0.25745
0.256442
0.256007
0.256027
0.25632
0.256942
0.257146
0.257096
0.256715
0.256065
0.255887
0.255937
0.256263
0.256754
0.25688
0.256856
0.256744
0.256662
0.256699
0.256747
0.256742
0.256709
0.256669
0.256663
0.256832
0.257076
0.257089
0.257152
0.257388
0.257655
0.257593
0.25753
0.257683
0.257979
0.258006
0.258113
0.259055
0.260085
0.261011
0.261067
0.261828
0.263837
0.266124
0.266776
0.267189
0.270797
0.275097
0.277807
0.278994
0.280092
0.283537
0.291332
0.303569
0.320996
0.337212
0.346089
0.442214
0.672468
0.955554
1.13064
1.14764
1.17377
1.16225
1.17188
1.17927
1.18487
1.1958
1.20452
1.21063
1.2185
0.256538
0.256562
0.256407
0.255575
0.255106
0.255155
0.255719
0.25711
0.257928
0.257905
0.257429
0.256484
0.256079
0.256122
0.256461
0.257058
0.25726
0.257208
0.256826
0.256196
0.256036
0.256075
0.256342
0.256797
0.256933
0.256899
0.256795
0.25672
0.256738
0.256801
0.256918
0.256929
0.256881
0.256764
0.256812
0.257046
0.257349
0.257672
0.257907
0.258082
0.258133
0.258161
0.258391
0.259028
0.259362
0.259067
0.259129
0.260448
0.262582
0.26409
0.26388
0.26466
0.267596
0.271053
0.271925
0.27257
0.276267
0.280636
0.283781
0.286377
0.289419
0.294214
0.304875
0.323173
0.34023
0.352531
0.358955
0.361382
0.488865
0.779763
1.03888
1.16095
1.14891
1.18646
1.18954
1.19023
1.20213
1.21096
1.21685
1.2242
0.256742
0.256766
0.256624
0.255704
0.255064
0.255087
0.25561
0.256986
0.257797
0.25777
0.257326
0.256492
0.256141
0.256202
0.256585
0.257164
0.25735
0.257298
0.25692
0.256299
0.256144
0.256183
0.256429
0.256851
0.25696
0.256899
0.256809
0.2568
0.25685
0.257028
0.257159
0.257145
0.257075
0.256879
0.256866
0.257128
0.25782
0.258392
0.258529
0.258586
0.258803
0.259193
0.259577
0.260251
0.261263
0.26158
0.260882
0.260734
0.262537
0.26623
0.267798
0.267041
0.268185
0.272978
0.277129
0.278134
0.279272
0.28245
0.286413
0.289785
0.293712
0.29959
0.308698
0.32347
0.342504
0.356085
0.363733
0.368311
0.37053
0.389948
0.599277
0.967885
1.11795
1.20089
1.19556
1.19203
1.20872
1.21786
1.22175
1.22884
0.256889
0.25691
0.256737
0.255682
0.255019
0.25505
0.255572
0.256956
0.25775
0.257719
0.25727
0.256505
0.256237
0.256303
0.256664
0.257205
0.257406
0.257363
0.25703
0.256419
0.256231
0.256263
0.256477
0.256874
0.256943
0.25683
0.256778
0.256833
0.257034
0.257326
0.257452
0.257381
0.257255
0.257231
0.257354
0.257739
0.258421
0.258965
0.259335
0.259411
0.259604
0.260154
0.260522
0.260971
0.262044
0.26374
0.264817
0.264146
0.263601
0.266752
0.271876
0.273404
0.273404
0.275496
0.281141
0.285243
0.286648
0.288404
0.29058
0.293468
0.297487
0.304142
0.315532
0.328707
0.347624
0.360409
0.367905
0.372558
0.376542
0.38066
0.382574
0.495031
0.896296
1.15872
1.18597
1.19027
1.21777
1.22323
1.22426
1.23284
0.256972
0.256982
0.256767
0.255584
0.254994
0.255039
0.255606
0.256991
0.257755
0.257731
0.257303
0.256557
0.256345
0.256414
0.256768
0.257256
0.257454
0.257431
0.257191
0.256634
0.256341
0.256341
0.256483
0.256826
0.256896
0.256808
0.256805
0.257106
0.257466
0.257682
0.257796
0.257738
0.257763
0.257976
0.258459
0.258758
0.259002
0.259436
0.260435
0.260704
0.260638
0.261053
0.261584
0.261419
0.261944
0.264144
0.267339
0.269641
0.270143
0.270613
0.274347
0.279161
0.281717
0.282983
0.286052
0.290222
0.292699
0.294712
0.296866
0.29919
0.302019
0.307254
0.318524
0.334726
0.352828
0.364191
0.370645
0.375366
0.37996
0.383311
0.388496
0.391386
0.451043
0.802616
1.12279
1.18871
1.22769
1.22341
1.22351
1.23708
0.257047
0.257052
0.256787
0.255533
0.255078
0.255145
0.255727
0.257046
0.257785