/*--------------------------------*- C++ -*----------------------------------*\
  =========                 |
  \\      /  F ield         | OpenFOAM: The Open Source CFD Toolbox
   \\    /   O peration     | Website:  https://openfoam.org
    \\  /    A nd           | Version:  7
     \\/     M anipulation  |
\*---------------------------------------------------------------------------*/
FoamFile
{
    version     2.0;
    format      ascii;
    class       volScalarField;
    location    "9.5";
    object      T;
}
// * * * * * * * * * * * * * * * * * * * * * * * * * * * * * * * * * * * * * //

dimensions      [0 0 0 1 0 0 0];

internalField   nonuniform List<scalar> 
90000
(
2.36591
2.33671
2.30941
2.31359
2.31332
2.29814
2.2607
2.21548
2.16918
2.11803
2.06516
2.0105
1.95743
1.90588
1.85727
1.81061
1.76613
1.72424
1.68582
1.65143
1.61845
1.58741
1.55799
1.53073
1.50546
1.48217
1.46018
1.43918
1.4192
1.40037
1.38243
1.36563
1.34959
1.33461
1.32093
1.30865
1.29814
1.28871
1.28015
1.27182
1.2639
1.25624
1.24859
1.24145
1.23497
1.2296
1.2247
1.22008
1.21589
1.21153
1.20794
1.20561
1.20663
1.2084
1.21147
1.21539
1.21964
1.2234
1.22617
1.22774
1.22841
1.22949
1.22932
1.22846
1.22769
1.22746
1.22762
1.22896
1.23203
1.23545
1.23807
1.23918
1.23791
1.23728
1.23672
1.23797
1.24207
1.24684
1.24976
1.25262
1.25193
1.25322
1.25786
1.26244
1.26701
1.26842
1.27051
1.27135
1.27543
1.27506
1.27732
1.27869
1.2797
1.28335
1.28342
1.28522
1.28784
1.28807
1.28848
1.289
2.60004
2.5942
2.58313
2.56772
2.5569
2.55037
2.54674
2.53982
2.53006
2.51325
2.49041
2.46108
2.42717
2.39069
2.3523
2.31208
2.27149
2.23064
2.19124
2.15107
2.11202
2.07315
2.03533
1.99817
1.9617
1.92509
1.88828
1.85092
1.81327
1.77492
1.73581
1.69571
1.65462
1.61278
1.57149
1.53152
1.49422
1.45968
1.42832
1.39959
1.37383
1.35048
1.32949
1.31039
1.2937
1.27892
1.26657
1.25575
1.24684
1.23863
1.23195
1.22653
1.2266
1.22708
1.22727
1.22779
1.22865
1.22962
1.23013
1.22986
1.22906
1.22795
1.22611
1.22602
1.22643
1.22809
1.23129
1.23479
1.23903
1.24198
1.2428
1.24226
1.24106
1.24112
1.2423
1.24587
1.25225
1.2547
1.25729
1.25814
1.2582
1.26151
1.26598
1.27125
1.27176
1.27354
1.27553
1.27789
1.28108
1.27995
1.28193
1.28238
1.28401
1.28709
1.28703
1.28954
1.291
1.291
1.29104
1.29154
2.45642
2.53379
2.55171
2.55187
2.5609
2.57168
2.57611
2.5747
2.57642
2.57814
2.58128
2.58247
2.58068
2.57673
2.56931
2.55905
2.54531
2.52874
2.50956
2.48822
2.46509
2.4404
2.41502
2.38851
2.36151
2.33321
2.30376
2.27247
2.23982
2.20566
2.17056
2.13242
2.09114
2.04515
1.99562
1.94251
1.8891
1.83618
1.78455
1.73335
1.68404
1.63649
1.59195
1.54998
1.51136
1.47568
1.44354
1.41433
1.3884
1.36505
1.34433
1.32488
1.30783
1.29353
1.28121
1.27009
1.2604
1.25187
1.24405
1.23681
1.23118
1.2262
1.22629
1.22726
1.23016
1.23425
1.23835
1.24126
1.24249
1.24312
1.24321
1.24297
1.24347
1.24616
1.25014
1.25586
1.25927
1.26079
1.26293
1.26332
1.26497
1.27133
1.27402
1.27835
1.2772
1.27894
1.28119
1.28491
1.28594
1.28504
1.28658
1.28698
1.28936
1.29075
1.29123
1.29426
1.29436
1.29412
1.29373
1.29388
1.11746
1.67456
2.05423
2.22645
2.38333
2.49528
2.56073
2.57412
2.5775
2.58523
2.59337
2.59557
2.59237
2.58952
2.58819
2.58882
2.58842
2.58771
2.58644
2.58545
2.58392
2.58098
2.57638
2.56986
2.56172
2.55194
2.54034
2.52619
2.50875
2.48851
2.46641
2.44222
2.41617
2.38657
2.35313
2.31543
2.27398
2.23215
2.18959
2.14368
2.09375
2.04042
1.98397
1.9264
1.86948
1.81117
1.75332
1.69602
1.64121
1.58835
1.53856
1.49119
1.44768
1.40899
1.37533
1.34618
1.3215
1.30101
1.2847
1.27148
1.26085
1.25268
1.24832
1.2476
1.24717
1.24743
1.24797
1.24792
1.24712
1.24537
1.24396
1.24457
1.24783
1.25312
1.2584
1.26321
1.26374
1.26505
1.26657
1.26889
1.27362
1.27934
1.28141
1.28341
1.28272
1.28542
1.28772
1.29083
1.2902
1.29037
1.29229
1.29266
1.29472
1.29483
1.29599
1.29895
1.2983
1.29794
1.29743
1.29669
0.526468
0.524353
0.572506
0.740993
1.04174
1.43036
1.94285
2.15936
2.313
2.44094
2.53696
2.57904
2.5872
2.58968
2.5949
2.60045
2.60198
2.60057
2.60016
2.59947
2.59797
2.59578
2.59416
2.59307
2.59162
2.59018
2.58862
2.58736
2.58737
2.58685
2.58456
2.57936
2.57146
2.56108
2.54797
2.53242
2.51354
2.48934
2.462
2.43397
2.4032
2.36922
2.33122
2.28808
2.24606
2.20011
2.14925
2.09322
2.03179
1.96904
1.90438
1.8367
1.76751
1.70039
1.63707
1.57898
1.52656
1.48031
1.44004
1.40574
1.37626
1.35129
1.32913
1.3112
1.2956
1.28285
1.27122
1.26208
1.25453
1.24934
1.2495
1.25244
1.25795
1.26135
1.26482
1.26681
1.26688
1.26841
1.2714
1.27537
1.28263
1.28447
1.28611
1.28691
1.28799
1.29183
1.29425
1.29551
1.29425
1.29638
1.29776
1.29824
1.29986
1.2995
1.30143
1.30341
1.30293
1.30319
1.30197
1.30049
0.518604
0.5181
0.517383
0.516571
0.515824
0.514642
0.5181
0.626726
0.900123
1.26336
1.6722
2.06395
2.22572
2.36519
2.47351
2.54993
2.58353
2.58475
2.58711
2.5918
2.5963
2.59834
2.60029
2.60225
2.60357
2.60438
2.60467
2.60411
2.60272
2.60059
2.59847
2.59664
2.59378
2.59025
2.58609
2.58198
2.57902
2.57792
2.573
2.56518
2.55467
2.542
2.52679
2.5084
2.48334
2.45472
2.42473
2.39091
2.35108
2.30543
2.25908
2.20573
2.14386
2.07396
2.00209
1.92778
1.85154
1.77603
1.70439
1.63746
1.57535
1.51916
1.4676
1.42189
1.38404
1.35293
1.32868
1.31048
1.29679
1.28556
1.28121
1.27916
1.27857
1.27652
1.27554
1.27327
1.27275
1.2744
1.2791
1.28386
1.28886
1.28845
1.28954
1.29037
1.29434
1.2979
1.29948
1.29906
1.29892
1.30201
1.30267
1.30342
1.30457
1.30416
1.30687
1.30738
1.30762
1.30857
1.30764
1.3054
0.513584
0.513058
0.512499
0.511938
0.511357
0.510786
0.510129
0.509304
0.508419
0.507604
0.506343
0.571223
0.779806
1.12307
1.47868
1.82366
2.12312
2.2771
2.4023
2.49399
2.54844
2.57149
2.57343
2.5761
2.58221
2.58605
2.58633
2.58783
2.59076
2.59359
2.59663
2.59831
2.59868
2.59831
2.59756
2.59625
2.594
2.59085
2.5888
2.58622
2.58276
2.57887
2.5743
2.57037
2.56866
2.56323
2.55482
2.54355
2.52864
2.50991
2.48277
2.45124
2.41619
2.37403
2.32473
2.27474
2.21687
2.15123
2.07811
2.0049
1.92708
1.84644
1.76678
1.69047
1.62085
1.55975
1.50672
1.46227
1.42563
1.39369
1.36667
1.34264
1.32226
1.30641
1.29623
1.28897
1.28953
1.29222
1.2955
1.29697
1.29701
1.29449
1.29426
1.29625
1.30233
1.30423
1.30367
1.30215
1.30353
1.30717
1.30706
1.30808
1.30836
1.30999
1.31176
1.31075
1.3119
1.31374
1.3129
1.31035
0.508649
0.508144
0.507599
0.507039
0.506443
0.505839
0.505201
0.504559
0.503893
0.503213
0.502559
0.501657
0.50065
0.499765
0.49837
0.50331
0.654035
0.969548
1.34449
1.66458
1.92882
2.16913
2.31807
2.42345
2.48918
2.52708
2.54347
2.548
2.55976
2.56862
2.56994
2.5708
2.57265
2.57575
2.57914
2.58175
2.5838
2.5867
2.58844
2.58929
2.58901
2.58851
2.58704
2.58422
2.5802
2.57987
2.57734
2.57371
2.56883
2.56481
2.56337
2.55691
2.54653
2.53133
2.51162
2.48421
2.45046
2.41275
2.3675
2.31491
2.26076
2.1951
2.11929
2.03956
1.95519
1.86856
1.78611
1.70924
1.64093
1.57868
1.52216
1.47404
1.43306
1.40049
1.37562
1.3576
1.34827
1.34026
1.33225
1.32258
1.31061
1.3039
1.30654
1.31143
1.31471
1.31311
1.30821
1.30685
1.31042
1.31241
1.31175
1.31321
1.31473
1.31629
1.3156
1.31452
1.3166
1.31909
1.3184
1.31641
0.503743
0.503246
0.502726
0.502174
0.501606
0.501011
0.500406
0.499781
0.49914
0.49848
0.497808
0.497118
0.496429
0.495716
0.495016
0.49418
0.493115
0.491957
0.490901
0.48926
0.545501
0.811221
1.21054
1.57213
1.83152
2.02162
2.21845
2.36074
2.44224
2.48166
2.50173
2.51312
2.52795
2.54002
2.54142
2.5435
2.54908
2.55547
2.56034
2.56402
2.56656
2.56929
2.57098
2.57213
2.57489
2.57752
2.57862
2.57857
2.57759
2.57534
2.57205
2.57159
2.56833
2.56357
2.55906
2.55677
2.54936
2.53784
2.52178
2.50082
2.46852
2.43187
2.38872
2.33649
2.28248
2.21613
2.14224
2.06686
1.9871
1.9046
1.82423
1.74697
1.67513
1.61231
1.55583
1.50719
1.46324
1.42575
1.39613
1.37712
1.36281
1.35145
1.34953
1.34593
1.33682
1.32592
1.3211
1.32177
1.32308
1.31887
1.31818
1.32117
1.32297
1.32281
1.32036
1.31988
1.32289
1.32439
1.32352
1.32181
0.498776
0.498285
0.497774
0.49723
0.496667
0.496086
0.495498
0.494901
0.494287
0.49364
0.492998
0.492307
0.491614
0.490876
0.490124
0.489295
0.488475
0.487589
0.486658
0.485728
0.484444
0.483012
0.481733
0.479731
0.510279
0.682866
1.06337
1.49134
1.79501
1.99644
2.15059
2.31106
2.40592
2.44869
2.46839
2.47893
2.49121
2.50281
2.5026
2.50591
2.51555
2.52657
2.53424
2.53946
2.54475
2.54916
2.55244
2.55456
2.55781
2.56128
2.56551
2.56827
2.56954
2.5691
2.5675
2.56487
2.56461
2.56192
2.55738
2.5525
2.54912
2.5391
2.52486
2.50492
2.47522
2.43953
2.39818
2.3489
2.29766
2.233
2.15871
2.0803
1.99563
1.91108
1.83093
1.75722
1.69147
1.63318
1.58066
1.53811
1.5019
1.46952
1.43588
1.40262
1.38441
1.37407
1.36795
1.36085
1.34669
1.33641
1.33748
1.33766
1.33626
1.33248
1.33016
1.33143
1.33208
1.33044
1.32699
1.32558
0.493556
0.493106
0.492639
0.492134
0.491587
0.491032
0.490454
0.4899
0.4893
0.488692
0.488049
0.487378
0.486663
0.485938
0.485163
0.484361
0.483521
0.482647
0.481699
0.480688
0.479656
0.478625
0.477541
0.476421
0.475129
0.473527
0.472147
0.470178
0.49413
0.670445
1.01808
1.46006
1.78613
2.00132
2.14981
2.29011
2.38238
2.41395
2.43312
2.44025
2.45662
2.46812
2.46817
2.47064
2.48099
2.49109
2.50069
2.50906
2.51968
2.52917
2.53201
2.53604
2.54074
2.54457
2.54856
2.55626
2.56164
2.56423
2.5643
2.56265
2.55878
2.5571
2.55248
2.548
2.54607
2.5377
2.52514
2.50756
2.48045
2.4495
2.40899
2.35611
2.30161
2.23881
2.16792
2.09621
2.01918
1.94061
1.86381
1.79083
1.72447
1.66351
1.60836
1.56173
1.5262
1.49802
1.46859
1.43631
1.41222
1.39642
1.38579
1.36983
1.3593
1.35607
1.35412
1.35251
1.34656
1.34026
1.33404
1.33033
0.488376
0.487938
0.487487
0.487001
0.486487
0.485944
0.485381
0.484812
0.484227
0.483627
0.483003
0.482334
0.481621
0.480886
0.480112
0.479308
0.478475
0.477612
0.476665
0.475703
0.474681
0.473658
0.472554
0.471419
0.47022
0.469071
0.46804
0.467097
0.466143
0.464857
0.463752
0.462116
0.492102
0.705556
1.08381
1.49645
1.8279
2.03467
2.18127
2.28454
2.36104
2.38649
2.40265
2.40395
2.42097
2.42637
2.42997
2.43847
2.4536
2.46542
2.47079
2.47915
2.49023
2.49874
2.50765
2.51816
2.52597
2.53316
2.54076
2.54738
2.55158
2.5541
2.55458
2.55419
2.55434
2.55541
2.55363
2.54992
2.54719
2.53985
2.52833
2.5098
2.47946
2.44369
2.40259
2.35613
2.3095
2.25203
2.18459
2.11616
2.04086
1.96291
1.89092
1.82219
1.75872
1.70446
1.65349
1.60836
1.56373
1.5211
1.47973
1.45104
1.43337
1.41855
1.40228
1.38538
1.37695
1.37233
1.36292
1.35027
0.483193
0.482758
0.482312
0.481852
0.481375
0.480857
0.480305
0.479734
0.479147
0.478542
0.477914
0.477239
0.476539
0.475813
0.475069
0.474275
0.473477
0.472625
0.471728
0.470816
0.469879
0.468914
0.467917
0.466908
0.465859
0.464916
0.464058
0.463306
0.462434
0.461598
0.460776
0.45996
0.459078
0.457768
0.456463
0.454546
0.522032
0.815164
1.24672
1.60725
1.89471
2.08741
2.21002
2.29116
2.34085
2.36615
2.36844
2.37735
2.38954
2.40051
2.39888
2.41084
2.42433
2.43274
2.44196
2.45429
2.46364
2.47549
2.49184
2.50531
2.51371
2.52138
2.52755
2.53448
2.54593
2.55304
2.55771
2.55747
2.55572
2.55514
2.55128
2.54762
2.54521
2.53555
2.52047
2.50399
2.47716
2.44602
2.4071
2.36078
2.31206
2.25211
2.18886
2.12674
2.06106
1.99766
1.93508
1.86753
1.79465
1.72675
1.66802
1.62003
1.57851
1.54052
1.50693
1.47943
1.46138
1.44713
1.42925
1.4
0.477856
0.477441
0.476984
0.476517
0.47603
0.475529
0.475011
0.474468
0.473906
0.47332
0.472701
0.472058
0.471385
0.470702
0.47
0.469258
0.468507
0.467729
0.46692
0.466114
0.465306
0.464467
0.463648
0.462813
0.461941
0.461108
0.460435
0.459776
0.459004
0.45827
0.457478
0.456642
0.455663
0.454587
0.453443
0.452332
0.450792
0.449142
0.447647
0.445613
0.6112
1.02475
1.45005
1.77768
2.00792
2.17139
2.24742
2.29868
2.32088
2.34471
2.34026
2.34825
2.35932
2.36156
2.37155
2.38734
2.39578
2.4063
2.42264
2.43076
2.44234
2.45702
2.475
2.49328
2.5078
2.51849
2.52997
2.53834
2.54652
2.55124
2.55237
2.55278
2.55297
2.55244
2.54858
2.54592
2.54382
2.53487
2.51956
2.49985
2.4703
2.43947
2.40577
2.36634
2.32597
2.27899
2.22321
2.15861
2.08186
2.00498
1.93026
1.86184
1.80299
1.75161
1.70356
1.65691
1.61914
1.5859
1.54926
1.49209
0.472533
0.472122
0.471687
0.471234
0.470757
0.470268
0.469759
0.469228
0.468688
0.468136
0.467576
0.467003
0.466409
0.465808
0.465194
0.464548
0.463895
0.46325
0.462578
0.461928
0.461278
0.460603
0.459958
0.459293
0.458544
0.457796
0.457147
0.456445
0.45566
0.454885
0.454103
0.453222
0.452169
0.451017
0.449795
0.448528
0.447233
0.445929
0.44464
0.44349
0.442005
0.440723
0.438992
0.519685
0.865239
1.35369
1.69596
1.94685
2.11214
2.21796
2.25642
2.28182
2.31024
2.30766
2.31337
2.3234
2.32638
2.33583
2.35357
2.36017
2.37088
2.38397
2.39934
2.41876
2.43753
2.45524
2.47779
2.49483
2.50656
2.51694
2.52397
2.53132
2.54435
2.55137
2.55129
2.55327
2.55142
2.54836
2.54264
2.5374
2.53252
2.52103
2.50687
2.49028
2.46207
2.43033
2.39347
2.35679
2.31491
2.26001
2.19331
2.13101
2.07236
2.01428
1.95517
1.89826
1.84938
1.80827
1.75766
1.66004
0.467029
0.466667
0.466289
0.465898
0.465486
0.465066
0.464635
0.464187
0.463747
0.463304
0.462854
0.462395
0.46192
0.461435
0.460946
0.460425
0.459908
0.459386
0.458831
0.458295
0.457744
0.457169
0.456631
0.456014
0.455275
0.454497
0.45373
0.45289
0.451975
0.451079
0.450226
0.449231
0.448097
0.446881
0.445627
0.444417
0.443259
0.442148
0.441091
0.440092
0.439217
0.43832
0.437384
0.436043
0.434788
0.432891
0.476107
0.784241
1.26511
1.64567
1.90403
2.07361
2.19057
2.23195
2.25594
2.27465
2.27634
2.27853
2.2897
2.29366
2.30116
2.31369
2.32757
2.34735
2.36492
2.38141
2.40234
2.41778
2.43444
2.45566
2.47293
2.48744
2.50338
2.51436
2.5222
2.53432
2.54411
2.54484
2.54467
2.54344
2.53721
2.53212
2.5252
2.51867
2.51188
2.50164
2.48454
2.4612
2.42984
2.40538
2.37823
2.34004
2.29417
2.24482
2.19371
2.14223
2.09867
2.05509
1.99984
1.88273
0.462137
0.461856
0.461556
0.461249
0.46093
0.460606
0.460283
0.459951
0.459609
0.459283
0.458953
0.458596
0.458213
0.457797
0.457346
0.456884
0.456428
0.45595
0.455437
0.454908
0.454324
0.453726
0.45313
0.452442
0.451642
0.450767
0.449827
0.448822
0.447791
0.44681
0.445884
0.444888
0.443828
0.442704
0.441618
0.440626
0.439748
0.438965
0.438205
0.437475
0.436723
0.435833
0.434806
0.433715
0.432452
0.431225
0.429267
0.427195
0.424441
0.451424
0.760309
1.23084
1.64348
1.89561
2.0706
2.16117
2.20261
2.21835
2.23973
2.24408
2.24334
2.24953
2.26078
2.28097
2.29717
2.31319
2.33044
2.33952
2.35541
2.37749
2.39484
2.41173
2.43321
2.45028
2.46896
2.48761
2.49998
2.50606
2.51546
2.52435
2.52841
2.52845
2.5261
2.5222
2.51747
2.51347
2.50562
2.49558
2.4842
2.47369
2.45983
2.44382
2.42455
2.39231
2.35343
2.31461
2.28179
2.25004
2.20186
2.09893
0.45805
0.457836
0.457609
0.457378
0.457145
0.456892
0.456646
0.456388
0.456086
0.455787
0.45547
0.455115
0.454724
0.454264
0.453742
0.453213
0.452689
0.45215
0.451578
0.45094
0.450255
0.449567
0.448834
0.448028
0.447161
0.446247
0.445278
0.444272
0.443302
0.442428
0.441587
0.440784
0.439996
0.43917
0.438353
0.437574
0.436934
0.436328
0.435649
0.434911
0.434046
0.433028
0.431837
0.430536
0.429062
0.427568
0.425969
0.424274
0.422728
0.421408
0.420533
0.419468
0.45773
0.793187
1.27999
1.65652
1.90111
2.05969
2.13105
2.17317
2.18907
2.19896
2.20505
2.21607
2.22975
2.2494
2.26587
2.2713
2.28428
2.30173
2.31531
2.33433
2.35678
2.37026
2.38635
2.40699
2.42412
2.43967
2.4602
2.47397
2.48131
2.4892
2.49531
2.49993
2.50592
2.5065
2.50225
2.49805
2.49273
2.48237
2.47042
2.46071
2.45661
2.44813
2.43154
2.41175
2.38965
2.366
2.33169
2.25847
0.454412
0.454184
0.453937
0.45371
0.453483
0.453231
0.452995
0.452711
0.452362
0.451997
0.451605
0.451186
0.450709
0.450155
0.449536
0.448888
0.448248
0.447621
0.446976
0.446274
0.445573
0.444854
0.444096
0.44331
0.442531
0.441757
0.441007
0.440257
0.439551
0.438941
0.438338
0.437777
0.437229
0.436626
0.435921
0.435206
0.434498
0.433757
0.432974
0.432068
0.431016
0.429785
0.428456
0.427095
0.425649
0.424267
0.422999
0.421865
0.420901
0.420114
0.41943
0.419029
0.41863
0.41751
0.415332
0.490825
0.871189
1.36451
1.68563
1.92268
2.048
2.10754
2.13511
2.15883
2.17387
2.18643
2.19473
2.19973
2.21633
2.23058
2.2433
2.26102
2.27775
2.28553
2.29949
2.32102
2.33815
2.35236
2.37179
2.38617
2.39979
2.41942
2.43521
2.44503
2.4526
2.4577
2.46141
2.47061
2.47761
2.47288
2.46564
2.46063
2.45161
2.44492
2.43489
2.42178
2.40614
2.39589
2.3818
2.34521
0.450499
0.450246
0.44998
0.449696
0.44938
0.449046
0.448694
0.448304
0.44788
0.447434
0.446974
0.446477
0.445931
0.445335
0.444685
0.444012
0.44336
0.442727
0.442114
0.441533
0.440999
0.440479
0.439942
0.439395
0.438846
0.438338
0.43791
0.437446
0.436978
0.436537
0.43606
0.43554
0.434977
0.434291
0.433506
0.432628
0.431663
0.430666
0.429625
0.428525
0.427309
0.426029
0.424836
0.423712
0.4227
0.421797
0.420952
0.420269
0.419755
0.419265
0.418703
0.418217
0.417262
0.415861
0.414334
0.412376
0.410184
0.407858
0.552258
1.00653
1.44813
1.73311
1.9198
2.01541
2.07897
2.1088
2.12028
2.1313
2.14069
2.14758
2.16147
2.18097
2.19492
2.20384
2.21742
2.23137
2.24221
2.25513
2.27542
2.29066
2.30323
2.32041
2.33487
2.34627
2.35922
2.37316
2.3874
2.40194
2.41459
2.41904
2.42181
2.42712
2.4268
2.428
2.42417
2.41554
2.40265
2.38632
2.37743
2.35584
0.446402
0.44605
0.445663
0.445238
0.444809
0.444367
0.443905
0.443428
0.44294
0.442446
0.441947
0.441443
0.440937
0.44043
0.439948
0.439491
0.439018
0.438567
0.438183
0.437846
0.437542
0.437285
0.437021
0.436705
0.436316
0.435929
0.435553
0.435142
0.434666
0.434163
0.433593
0.432931
0.432142
0.431243
0.43026
0.429214
0.428154
0.427036
0.425929
0.424829
0.423767
0.422842
0.422111
0.421535
0.421049
0.420531
0.419907
0.419437
0.419025
0.418464
0.417716
0.416578
0.415178
0.413412
0.411715
0.410079
0.408069
0.406928
0.406291
0.406415
0.407628
0.646357
1.11011
1.46889
1.72831
1.87739
1.96321
2.02358
2.06125
2.05875
2.07012
2.07967
2.08793
2.10319
2.12121
2.13373
2.14373
2.15815
2.17125
2.17884
2.18927
2.2052
2.22018
2.23354
2.24704
2.25811
2.26882
2.28494
2.30496
2.32503
2.34387
2.35718
2.36445
2.36922
2.37261
2.3725
2.36955
2.36162
2.36042
2.34792
0.440403
0.440084
0.439735
0.439368
0.439024
0.438713
0.438433
0.43817
0.437923
0.437705
0.43749
0.437269
0.437048
0.436807
0.436635
0.436494
0.43628
0.436007
0.435796
0.435582
0.435333
0.435102
0.43483
0.434447
0.434006
0.433515
0.432965
0.432362
0.431709
0.431
0.430224
0.429366
0.428411
0.427444
0.426488
0.425564
0.424654
0.423779
0.422935
0.422167
0.421535
0.421079
0.420804
0.420574
0.420272
0.419755
0.419104
0.418512
0.417828
0.416894
0.415599
0.414197
0.412533
0.410747
0.409278
0.408502
0.407037
0.406927
0.407578
0.409324
0.411282
0.412505
0.412781
0.442474
0.747963
1.17448
1.48503
1.6919
1.81193
1.89098
1.94814
1.96996
1.97882
1.99155
2.00004
2.00735
2.02318
2.04288
2.05407
2.0608
2.071
2.08212
2.09144
2.10238
2.11563
2.12743
2.13986
2.1555
2.17275
2.19102
2.21135
2.22845
2.24354
2.25907
2.27176
2.27943
2.28368
2.28809
2.29611
2.30235
0.436296
0.436261
0.436224
0.436193
0.436156
0.436087
0.435987
0.435896
0.43581
0.435692
0.435542
0.435401
0.435236
0.435058
0.43492
0.434762
0.434539
0.434263
0.433975
0.433622
0.433209
0.432813
0.432347
0.43178
0.431157
0.430465
0.429697
0.428859
0.428005
0.427153
0.426306
0.425445
0.424623
0.423874
0.423251
0.422696
0.422207
0.421794
0.421402
0.421036
0.420652
0.420401
0.420169
0.419839
0.419288
0.418474
0.417771
0.416977
0.416054
0.414833
0.413581
0.41224
0.410841
0.409541
0.408539
0.408754
0.410287
0.412412
0.414554
0.416225
0.417028
0.417559
0.418415
0.418597
0.419136
0.419656
0.499519
0.825513
1.18084
1.45188
1.61614
1.72069
1.8005
1.85572
1.87688
1.8841
1.898
1.90334
1.90868
1.92047
1.93812
1.949
1.95723
1.96829
1.97917
1.98778
1.99789
2.01052
2.02462
2.04223
2.062
2.07828
2.09384
2.1101
2.12478
2.13581
2.14299
2.15336
2.17031
2.19953
0.436093
0.43595
0.435816
0.435724
0.435644
0.435548
0.435427
0.435271
0.435022
0.43466
0.434258
0.433879
0.433535
0.433229
0.43292
0.432543
0.432107
0.431602
0.431018
0.430357
0.42966
0.429075
0.428397
0.427647
0.426892
0.426087
0.425254
0.424471
0.423774
0.423206
0.422748
0.422351
0.422041
0.421785
0.42163
0.421491
0.421399
0.421249
0.421063
0.420751
0.420404
0.419966
0.419414
0.418686
0.41769
0.416859
0.416032
0.415186
0.414331
0.413503
0.412567
0.411381
0.411417
0.412115
0.413616
0.415894
0.418143
0.420028
0.421453
0.42192
0.421857
0.422125
0.42287
0.424193
0.425515
0.428056
0.430819
0.430833
0.430934
0.551391
0.859488
1.18076
1.39999
1.53885
1.63457
1.70496
1.76574
1.76986
1.7793
1.78559
1.79287
1.79806
1.81071
1.82662
1.83841
1.84605
1.85446
1.8638
1.87483
1.89086
1.90713
1.91922
1.93138
1.9461
1.96135
1.9747
1.9852
1.99697
2.01271
2.04266
0.435743
0.435468
0.435139
0.434789
0.43441
0.433974
0.433507
0.433005
0.432394
0.431769
0.431158
0.430481
0.429793
0.429098
0.428474
0.42788
0.427335
0.426842
0.426262
0.425563
0.424924
0.424473
0.424081
0.42356
0.422994
0.422524
0.422147
0.421889
0.421612
0.421489
0.421455
0.421478
0.42143
0.421406
0.421365
0.421348
0.421268
0.42113
0.420911
0.420557
0.420047
0.419311
0.418476
0.417478
0.416506
0.415741
0.414789
0.414283
0.413816
0.414142
0.41527
0.417167
0.419625
0.421873
0.423984
0.425338
0.426059
0.426527
0.426883
0.426932
0.427197
0.427721
0.428905
0.430655
0.433059
0.435474
0.435912
0.436811
0.438463
0.439722
0.441001
0.44163
0.58507
0.876989
1.14995
1.3492
1.46852
1.54807
1.61232
1.65254
1.67963
1.6766
1.68048
1.68295
1.68851
1.69903
1.71451
1.72477
1.73516
1.74735
1.75709
1.76589
1.77718
1.79009
1.80152
1.81213
1.81966
1.82775
1.84192
1.87222
0.428003
0.42761
0.427172
0.426756
0.426408
0.426149
0.425871
0.425557
0.42523
0.424935
0.424721
0.424451
0.424145
0.423978
0.423885
0.423772
0.423653
0.423491
0.423266
0.423011
0.422838
0.422729
0.422631
0.422464
0.422279
0.422069
0.421964
0.421922
0.421933
0.421902
0.421883
0.421882
0.421856
0.421761
0.421567
0.421382
0.421155
0.42094
0.420625
0.420213
0.419593
0.418866
0.41811
0.417395
0.41758
0.418154
0.419329
0.420947
0.422915
0.425127
0.427011
0.428738
0.429929
0.43058
0.431144
0.431105
0.431057
0.43109
0.431307
0.431851
0.432915
0.434447
0.436377
0.438587
0.440945
0.441621
0.44248
0.443665
0.445273
0.447021
0.448315
0.450212
0.45237
0.454158
0.460506
0.624848
0.883709
1.14227
1.30262
1.41253
1.48302
1.52726
1.57156
1.57614
1.57783
1.57839
1.58536
1.59149
1.60326
1.61745
1.62795
1.63556
1.64244
1.64918
1.65604
1.66436
1.67261
1.6801
1.68993
1.71048
0.422598
0.422721
0.422807
0.422921
0.423082
0.423249
0.423392
0.423503
0.423642
0.423783
0.42384
0.423888
0.423929
0.42401
0.424207
0.424279
0.424248
0.424204
0.424207
0.424256
0.42426
0.424182
0.424022
0.42395
0.423922
0.423851
0.423725
0.423534
0.423368
0.42317
0.422976
0.422687
0.422385
0.422022
0.421759
0.421366
0.421261
0.421365
0.421698
0.422221
0.423018
0.424117
0.42571
0.427557
0.429515
0.431115
0.432647
0.433787
0.434854
0.435356
0.435751
0.435797
0.435613
0.435497
0.435281
0.435401
0.435685
0.436365
0.437602
0.439473
0.441682
0.443462
0.445174
0.446699
0.447622
0.44849
0.449335
0.450353
0.451784
0.453566
0.45564
0.458458
0.461624
0.463626
0.464014
0.46499
0.466472
0.494043
0.653478
0.921078
1.12714
1.27573
1.35803
1.40917
1.45259
1.48265
1.49922
1.49321
1.49842
1.50352
1.51095
1.5203
1.52954
1.53634
1.54082
1.54533
1.55066
1.55631
1.56385
1.57832
0.427049
0.427063
0.427084
0.427086
0.427076
0.427069
0.427064
0.427064
0.427075
0.427115
0.427147
0.427159
0.427153
0.427132
0.427101
0.427078
0.427055
0.427055
0.427046
0.427021
0.426974
0.426957
0.426939
0.426952
0.426976
0.42704
0.427138
0.427325
0.427538
0.427802
0.428125
0.428575
0.429158
0.429901
0.430776
0.431763
0.432884
0.434012
0.43502
0.436031
0.436893
0.437878
0.43868
0.43944
0.43989
0.440181
0.440415
0.440503
0.440481
0.44031
0.440241
0.440058
0.440168
0.440415
0.440955
0.442105
0.443634
0.445596
0.447475
0.44933
0.450572
0.451666
0.45252
0.453075
0.453789
0.454813
0.45624
0.457955
0.460087
0.462389
0.465399
0.467783
0.468903
0.470014
0.471919
0.474638
0.477752
0.47893
0.480847
0.482336
0.522811
0.712022
0.92313
1.1155
1.25076
1.3267
1.36962
1.39383
1.43185
1.429
1.42923
1.43125
1.43464
1.4391
1.44596
1.45343
1.45839
1.46195
1.46557
1.4748
0.431921
0.431967
0.432
0.432029
0.432079
0.432192
0.43235
0.432476
0.432566
0.432671
0.432829
0.433021
0.433245
0.433498
0.433723
0.433974
0.434274
0.434612
0.434988
0.435393
0.435811
0.436267
0.436771
0.437304
0.437842
0.438387
0.438943
0.439508
0.440038
0.440574
0.441093
0.441619
0.442067
0.442481
0.442858
0.443248
0.443613
0.443876
0.444156
0.44434
0.444504
0.444683
0.44467
0.444645
0.444516
0.444523
0.444476
0.44457
0.444719
0.445135
0.445879
0.447015
0.448543
0.450026
0.45175
0.453087
0.454473
0.45564
0.456645
0.457421
0.457971
0.458613
0.458971
0.459836
0.46119
0.463221
0.465295
0.467836
0.470201
0.472597
0.474439
0.475384
0.476254
0.47836
0.481527
0.484132
0.485703
0.487793
0.490247
0.493092
0.4951
0.496333
0.497675
0.565791
0.760584
0.978229
1.12932
1.24709
1.30836
1.33661
1.36447
1.38301
1.37901
1.37417
1.37752
1.38199
1.38684
1.3915
1.39576
1.40202
0.443127
0.44327
0.443419
0.443549
0.443666
0.443789
0.443944
0.444119
0.444293
0.444445
0.444588
0.444749
0.444931
0.445107
0.445294
0.445471
0.445658
0.445861
0.446067
0.44627
0.446465
0.446651
0.446836
0.44701
0.447177
0.447332
0.447482
0.447611
0.447745
0.447863
0.447957
0.448043
0.448136
0.448247
0.44836
0.448472
0.448586
0.448749
0.448947
0.449196
0.449531
0.449945
0.450495
0.451141
0.451954
0.45282
0.453701
0.454673
0.455667
0.456845
0.458009
0.459288
0.460302
0.461246
0.461914
0.462374
0.462789
0.463055
0.463524
0.464019
0.464862
0.465922
0.467544
0.469547
0.472113
0.474393
0.476702
0.478467
0.47997
0.481387
0.482408
0.483774
0.48595
0.488258
0.490276
0.492111
0.494292
0.496926
0.498953
0.500882
0.502516
0.504819
0.507462
0.508806
0.509896
0.512286
0.612172
0.851211
1.02945
1.17432
1.26311
1.29507
1.31834
1.33267
1.3413
1.33854
1.33873
1.33963
1.3435
1.35033
0.451606
0.451651
0.451697
0.451736
0.451769
0.451821
0.451893
0.451955
0.452005
0.452061
0.45213
0.452209
0.452299
0.452407
0.452524
0.452645
0.452774
0.452916
0.453074
0.453242
0.453421
0.453613
0.45382
0.454037
0.454274
0.45452
0.45479
0.455076
0.455389
0.455723
0.456099
0.456488
0.456902
0.457328
0.457783
0.458212
0.458718
0.45923
0.459845
0.460494
0.461277
0.462094
0.46293
0.463726
0.464504
0.465158
0.465711
0.466126
0.466492
0.466853
0.467193
0.467606
0.467941
0.46835
0.468702
0.469192
0.469736
0.470606
0.471879
0.473609
0.475718
0.477813
0.479811
0.481892
0.48387
0.485755
0.487181
0.487946
0.488903
0.490004
0.49171
0.493802
0.495886
0.497699
0.499501
0.501566
0.503804
0.505147
0.506352
0.507924
0.510089
0.51202
0.5134
0.514625
0.515822
0.517096
0.517817
0.518305
0.54276
0.739849
0.947634
1.0986
1.22229
1.27161
1.29684
1.3032
1.31309
1.31269
1.31344
1.31728
0.461687
0.461768
0.461882
0.462001
0.462091
0.462152
0.46222
0.462335
0.46249
0.462637
0.462764
0.462888
0.463033
0.463211
0.463409
0.463603
0.463795
0.464004
0.46423
0.464473
0.464718
0.464974
0.465233
0.465503
0.465776
0.466063
0.466359
0.466672
0.466979
0.467305
0.467622
0.467958
0.468285
0.468607
0.468882
0.469151
0.469396
0.469672
0.469958
0.470302
0.470709
0.471137
0.471542
0.47191
0.472351
0.472813
0.473247
0.47355
0.47391
0.474364
0.475033
0.475867
0.476929
0.478139
0.479466
0.480923
0.482447
0.484134
0.485818
0.487627
0.489247
0.490589
0.491684
0.492584
0.49357
0.494712
0.495734
0.496929
0.498104
0.499664
0.501504
0.50325
0.504881
0.506521
0.508049
0.509358
0.510429
0.511357
0.512754
0.514319
0.51562
0.516756
0.517682
0.518575
0.519504
0.520407
0.521014
0.521679
0.522172
0.522343
0.522375
0.639712
0.86061
1.05229
1.19221
1.25467
1.27959
1.2868
1.29728
1.30391
0.472066
0.472136
0.472211
0.472262
0.472288
0.472346
0.47246
0.472553
0.47261
0.47268
0.472768
0.472865
0.472968
0.473073
0.473178
0.473284
0.473409
0.473557
0.473715
0.473877
0.474047
0.474233
0.474439
0.474652
0.474881
0.475119
0.475374
0.475658
0.475972
0.476297
0.476639
0.476979
0.47734
0.477709
0.478081
0.478406
0.478716
0.47905
0.479457
0.47996
0.480597
0.481363
0.482138
0.482944
0.483866
0.484832
0.485739
0.486584
0.487441
0.488348
0.489389
0.490539
0.491809
0.492997
0.494062
0.494944
0.495695
0.496405
0.497126
0.497997
0.498856
0.499805
0.500619
0.501485
0.502533
0.503748
0.505275
0.506729
0.508201
0.509653
0.510868
0.512022
0.513069
0.514025
0.514845
0.515706
0.516476
0.517476
0.518435
0.519205
0.519934
0.520618
0.521209
0.521671
0.522223
0.522723
0.523125
0.523505
0.523936
0.524004
0.523984
0.523993
0.524216
0.584438
0.783805
1.01647
1.17154
1.24693
1.27317
1.2875
0.483782
0.48388
0.483968
0.484046
0.484155
0.484343
0.484505
0.484582
0.484658
0.484781
0.484941
0.485109
0.48526
0.485394
0.485536
0.485708
0.485915
0.486146
0.486382
0.486628
0.486898
0.487195
0.487512
0.487841
0.488189
0.488561
0.488933
0.489335
0.489747
0.490165
0.490561
0.490947
0.49134
0.491771
0.492215
0.492644
0.493047
0.493464
0.493927
0.494456
0.495083
0.495766
0.496422
0.497076
0.497802
0.498547
0.49916
0.499673
0.500127
0.500563
0.50103
0.501588
0.502277
0.503021
0.503752
0.504341
0.504894
0.505388
0.506029
0.50688
0.508069
0.509269
0.510452
0.511663
0.512911
0.514028
0.514844
0.515559
0.516256
0.516798
0.517377
0.517993
0.518533
0.519025
0.519646
0.52026
0.520901
0.521347
0.521707
0.522192
0.522664
0.523115
0.523309
0.523446
0.523785
0.524425
0.524803
0.52479
0.524758
0.524766
0.524798
0.52503
0.525869
0.526317
0.526303
0.55472
0.734102
0.992384
1.14329
1.25729
0.497365
0.497458
0.497541
0.497616
0.497705
0.49783
0.49798
0.498092
0.498166
0.498251
0.498368
0.498509
0.498644
0.498749
0.498853
0.498977
0.499129
0.499306
0.499504
0.499719
0.499954
0.500214
0.5005
0.500781
0.501093
0.501418
0.501736
0.502065
0.502429
0.502787
0.503112
0.5034
0.503724
0.504118
0.504522
0.504911
0.505264
0.505525
0.505738
0.505988
0.50633
0.506788
0.507323
0.507927
0.508625
0.509275
0.509729
0.510127
0.510537
0.510969
0.511436
0.512037
0.5128
0.513662
0.514413
0.515034
0.515538
0.515964
0.516415
0.517121
0.518015
0.518662
0.519068
0.51945
0.519904
0.520238
0.520481
0.520699
0.520902
0.521143
0.521474
0.521971
0.522475
0.522893
0.523234
0.523571
0.523776
0.523828
0.523938
0.524162
0.52432
0.524486
0.524593
0.524764
0.525097
0.525652
0.525873
0.52567
0.525407
0.525562
0.526161