/*--------------------------------*- C++ -*----------------------------------*\
  =========                 |
  \\      /  F ield         | OpenFOAM: The Open Source CFD Toolbox
   \\    /   O peration     | Website:  https://openfoam.org
    \\  /    A nd           | Version:  7
     \\/     M anipulation  |
\*---------------------------------------------------------------------------*/
FoamFile
{
    version     2.0;
    format      ascii;
    class       volScalarField;
    location    "9.5";
    object      T;
}
// * * * * * * * * * * * * * * * * * * * * * * * * * * * * * * * * * * * * * //

dimensions      [0 0 0 1 0 0 0];

internalField   nonuniform List<scalar> 
90000
(
2.36601
2.33732
2.30961
2.31325
2.31295
2.29795
2.26075
2.21549
2.16905
2.11789
2.06533
2.01069
1.95769
1.90619
1.85762
1.81092
1.7664
1.7244
1.68588
1.65141
1.61833
1.58717
1.55762
1.53025
1.50488
1.48149
1.45942
1.43834
1.41831
1.39944
1.38153
1.36475
1.34876
1.33384
1.32022
1.30805
1.29765
1.28839
1.28003
1.27187
1.26409
1.25667
1.24921
1.24226
1.23583
1.23055
1.22562
1.22096
1.21667
1.21222
1.20857
1.20605
1.20701
1.20866
1.21163
1.21544
1.21959
1.22325
1.22592
1.22746
1.22815
1.22926
1.2291
1.22844
1.22788
1.22776
1.22801
1.22946
1.23249
1.2357
1.23815
1.23915
1.23792
1.23713
1.23656
1.23783
1.24191
1.24659
1.24955
1.25246
1.25197
1.25331
1.25803
1.26261
1.2671
1.26845
1.27048
1.2713
1.27539
1.27511
1.27723
1.27878
1.27973
1.28323
1.28358
1.28532
1.2879
1.2881
1.28856
1.28902
2.59738
2.59147
2.58055
2.56525
2.55463
2.54845
2.5451
2.53834
2.52867
2.51197
2.48919
2.45997
2.42618
2.38984
2.35155
2.31141
2.27087
2.22999
2.19059
2.15031
2.11125
2.07229
2.0344
1.99711
1.96053
1.92376
1.88684
1.84937
1.81164
1.77324
1.73414
1.69407
1.65305
1.6113
1.5701
1.53028
1.49318
1.45891
1.42788
1.39945
1.37397
1.35093
1.33022
1.31137
1.29488
1.28027
1.26797
1.25719
1.2482
1.23988
1.23302
1.22766
1.22701
1.2274
1.22751
1.22791
1.22863
1.22944
1.22983
1.22956
1.22882
1.22774
1.22593
1.22598
1.22659
1.22846
1.23176
1.23528
1.23936
1.24226
1.24284
1.24228
1.24109
1.24105
1.24223
1.24581
1.25212
1.25456
1.25711
1.25795
1.25816
1.26165
1.26616
1.27142
1.2719
1.2736
1.27551
1.27783
1.28104
1.28001
1.28205
1.28212
1.28395
1.28697
1.28698
1.28955
1.29106
1.29108
1.29119
1.29163
2.45091
2.52919
2.54753
2.54838
2.55812
2.56948
2.57438
2.57311
2.57483
2.57659
2.5798
2.5811
2.57932
2.57537
2.56796
2.55766
2.54386
2.52724
2.508
2.48664
2.46353
2.43885
2.41352
2.38701
2.36006
2.33176
2.3023
2.27097
2.23821
2.20387
2.16866
2.13043
2.08912
2.04314
1.99362
1.94066
1.88753
1.83497
1.78382
1.73311
1.68431
1.6373
1.59328
1.55182
1.51361
1.47829
1.44635
1.41726
1.39125
1.36772
1.34665
1.32705
1.30962
1.29489
1.28219
1.27077
1.26073
1.25182
1.24376
1.23643
1.23076
1.22593
1.22613
1.22726
1.2304
1.23468
1.23885
1.24168
1.24269
1.24328
1.24325
1.24296
1.24344
1.24607
1.25002
1.25574
1.25909
1.26067
1.26276
1.26326
1.26498
1.27145
1.2742
1.27849
1.27731
1.27899
1.28116
1.28483
1.28594
1.28505
1.28701
1.28726
1.28936
1.29071
1.29114
1.29424
1.29436
1.29419
1.29388
1.29402
1.11015
1.66194
2.04976
2.22337
2.38028
2.49269
2.55907
2.57257
2.57589
2.58351
2.59157
2.5938
2.59066
2.58795
2.58672
2.58734
2.58684
2.58611
2.58481
2.5838
2.58223
2.57925
2.57469
2.56834
2.56038
2.55076
2.53929
2.52525
2.50782
2.48744
2.46508
2.44062
2.41436
2.38459
2.35113
2.31352
2.27244
2.23093
2.18899
2.14369
2.09447
2.04183
1.98613
1.92922
1.87291
1.81512
1.75763
1.70054
1.64577
1.59284
1.54278
1.49515
1.45128
1.41194
1.37769
1.34783
1.32247
1.3014
1.28458
1.27104
1.26023
1.25223
1.24775
1.24747
1.24743
1.24779
1.24839
1.24829
1.2473
1.24547
1.24399
1.24455
1.24773
1.25298
1.25829
1.26301
1.26355
1.2649
1.26644
1.26881
1.27362
1.27943
1.28157
1.28356
1.28283
1.28547
1.28769
1.29079
1.29025
1.29011
1.29167
1.29252
1.29475
1.29481
1.29591
1.29889
1.29829
1.29809
1.29753
1.2968
0.526953
0.524958
0.570802
0.736587
1.03647
1.42536
1.94218
2.1598
2.31323
2.44109
2.53697
2.5788
2.58652
2.58898
2.59405
2.59923
2.60028
2.59879
2.59826
2.59743
2.59585
2.59381
2.59242
2.59172
2.59051
2.58933
2.58796
2.58681
2.5868
2.58625
2.58379
2.57835
2.57022
2.55968
2.54654
2.53112
2.5125
2.48869
2.46192
2.43441
2.40428
2.37093
2.33366
2.29123
2.24967
2.20425
2.15388
2.09819
2.03706
1.97459
1.91002
1.84234
1.773
1.70546
1.64144
1.58236
1.52885
1.48149
1.44026
1.4052
1.37522
1.35021
1.32791
1.31036
1.29524
1.28292
1.27147
1.26242
1.25486
1.24946
1.24952
1.25235
1.25784
1.26125
1.26476
1.2666
1.26671
1.26826
1.27126
1.27528
1.28261
1.28454
1.28624
1.28706
1.28812
1.29186
1.2942
1.29547
1.2942
1.29644
1.29801
1.29837
1.29985
1.29948
1.30134
1.30333
1.30297
1.30321
1.30211
1.30057
0.519658
0.519167
0.518478
0.517708
0.517004
0.51589
0.518851
0.627017
0.900596
1.26471
1.67629
2.06886
2.23003
2.36877
2.4764
2.55211
2.58505
2.58526
2.58693
2.59112
2.59523
2.59714
2.599
2.60096
2.60241
2.60351
2.60405
2.6036
2.60232
2.60018
2.59806
2.59617
2.59312
2.58941
2.5851
2.58098
2.57811
2.57727
2.57282
2.56546
2.55549
2.54333
2.52864
2.51079
2.48629
2.45799
2.42835
2.39483
2.35541
2.31012
2.26402
2.21069
2.14884
2.07884
2.00657
1.93147
1.85419
1.77746
1.70458
1.63637
1.57329
1.5166
1.4648
1.41949
1.38234
1.35202
1.32853
1.31076
1.29733
1.28607
1.28149
1.27924
1.27857
1.27647
1.27547
1.27307
1.27262
1.27427
1.27898
1.28376
1.28884
1.2885
1.28965
1.29054
1.29448
1.29794
1.29946
1.29902
1.29888
1.30213
1.30275
1.30342
1.30458
1.30414
1.30677
1.30732
1.30757
1.30859
1.30768
1.30543
0.514894
0.514395
0.513866
0.513323
0.512759
0.51221
0.511593
0.510811
0.509967
0.50919
0.507982
0.574003
0.783954
1.12881
1.48482
1.83305
2.1309
2.28419
2.40814
2.49891
2.55209
2.57408
2.57494
2.57686
2.58221
2.58598
2.5865
2.58808
2.59108
2.59371
2.59649
2.59807
2.59815
2.59766
2.59675
2.59537
2.59315
2.59012
2.58797
2.58558
2.58237
2.57885
2.57467
2.5711
2.5697
2.56484
2.55686
2.54586
2.53122
2.51265
2.48572
2.45419
2.41916
2.37695
2.32735
2.27684
2.21785
2.15106
2.07667
2.00212
1.92319
1.84178
1.76167
1.68586
1.61721
1.55759
1.50617
1.46289
1.4269
1.39511
1.36772
1.34322
1.32251
1.30644
1.29609
1.28878
1.28938
1.29208
1.29536
1.29689
1.29693
1.29452
1.29439
1.29642
1.30246
1.30428
1.30368
1.30211
1.30351
1.30719
1.30702
1.30808
1.30838
1.30999
1.3117
1.31069
1.3118
1.31355
1.31272
1.31035
0.509961
0.50947
0.508938
0.508394
0.507824
0.507254
0.506658
0.506063
0.505441
0.504804
0.504192
0.50331
0.502309
0.501421
0.500013
0.505946
0.659943
0.977884
1.35362
1.67337
1.93905
2.17815
2.32584
2.43007
2.49434
2.53105
2.5464
2.55032
2.56155
2.56985
2.5711
2.57157
2.57328
2.57599
2.57897
2.5813
2.58326
2.58607
2.58765
2.58864
2.58834
2.58803
2.58685
2.58427
2.58065
2.58046
2.5782
2.57489
2.57018
2.56606
2.56439
2.55783
2.54734
2.53196
2.512
2.48405
2.44984
2.41139
2.3651
2.31136
2.25625
2.18991
2.11377
2.03461
1.9513
1.8665
1.78626
1.71118
1.6439
1.58193
1.52479
1.47559
1.43361
1.40045
1.37528
1.35721
1.34793
1.33993
1.33197
1.32241
1.31051
1.3039
1.30663
1.3116
1.31484
1.3132
1.30826
1.30684
1.3104
1.3124
1.31178
1.31323
1.31476
1.31631
1.31562
1.31454
1.31654
1.31908
1.31839
1.31641
0.504811
0.504331
0.503828
0.503299
0.502757
0.502194
0.501621
0.501032
0.500436
0.49982
0.499179
0.498517
0.497846
0.497136
0.49644
0.495588
0.494484
0.493288
0.492205
0.490516
0.549502
0.819328
1.22014
1.58167
1.84094
2.03256
2.22682
2.36765
2.4476
2.48578
2.50564
2.51655
2.52995
2.54146
2.54285
2.54434
2.54962
2.55551
2.55979
2.5629
2.56517
2.56802
2.56998
2.57147
2.57446
2.57749
2.57883
2.57935
2.57844
2.57615
2.57287
2.57235
2.56888
2.56384
2.55897
2.55612
2.5482
2.53627
2.51961
2.49806
2.46534
2.42859
2.38567
2.33404
2.28133
2.21665
2.14445
2.07036
1.9914
1.90885
1.82751
1.7488
1.67564
1.61207
1.55519
1.50646
1.46248
1.42493
1.39535
1.37653
1.36256
1.35143
1.34968
1.34618
1.33706
1.32609
1.32115
1.32179
1.32307
1.31885
1.31819
1.32119
1.32301
1.32285
1.32042
1.31996
1.3231
1.32453
1.32359
1.32182
0.499374
0.498915
0.498436
0.497936
0.497424
0.496891
0.496339
0.495766
0.495185
0.494571
0.49395
0.493283
0.492588
0.491829
0.491072
0.490234
0.489396
0.4885
0.487592
0.486666
0.48532
0.483792
0.482438
0.480408
0.512975
0.690974
1.07354
1.50033
1.80302
2.00473
2.15717
2.31562
2.40972
2.45241
2.47133
2.48087
2.49338
2.5045
2.50338
2.50576
2.51423
2.52503
2.53276
2.53824
2.54361
2.54827
2.55173
2.55445
2.55787
2.56158
2.56596
2.56878
2.56982
2.56927
2.5674
2.56467
2.56406
2.56094
2.5561
2.55101
2.54761
2.53777
2.52404
2.50483
2.47598
2.44133
2.40101
2.35237
2.30094
2.23582
2.16079
2.08139
1.99572
1.91045
1.82987
1.75587
1.68993
1.63144
1.57904
1.53711
1.50166
1.46975
1.43631
1.40299
1.3846
1.37414
1.36793
1.3608
1.34665
1.3364
1.33749
1.33764
1.33629
1.33253
1.3302
1.33152
1.33238
1.33078
1.32726
1.32577
0.493708
0.493273
0.492808
0.492315
0.491802
0.491295
0.490758
0.490222
0.489647
0.48906
0.48844
0.487805
0.487093
0.486349
0.485578
0.484783
0.483938
0.483061
0.48214
0.48116
0.480107
0.478992
0.477845
0.476736
0.475512
0.473957
0.472593
0.470628
0.496371
0.676315
1.02625
1.46296
1.78791
2.00598
2.15305
2.29164
2.3853
2.41736
2.43613
2.44112
2.45587
2.46789
2.4677
2.47006
2.48002
2.48971
2.499
2.50751
2.51834
2.5286
2.53211
2.53672
2.5416
2.54522
2.54891
2.5563
2.5611
2.56319
2.5632
2.56164
2.55794
2.55658
2.55249
2.54863
2.54719
2.5394
2.52731
2.50987
2.48256
2.45089
2.40975
2.35631
2.3016
2.23851
2.1671
2.09467
2.01702
1.9381
1.86159
1.7896
1.72442
1.66433
1.60932
1.56236
1.52642
1.49797
1.4684
1.43616
1.41215
1.39641
1.38579
1.36989
1.35926
1.356
1.354
1.35258
1.3468
1.34039
1.33417
1.33046
0.487997
0.487579
0.487142
0.486664
0.486172
0.485665
0.485134
0.484598
0.48405
0.483476
0.482877
0.482246
0.481544
0.480808
0.480064
0.479285
0.478447
0.477589
0.476689
0.47577
0.474747
0.473679
0.472549
0.471458
0.470349
0.469271
0.468264
0.467347
0.466438
0.465184
0.464104
0.462462
0.492719
0.707949
1.08438
1.49512
1.82631
2.03435
2.18205
2.28457
2.36216
2.38677
2.40484
2.40503
2.42091
2.42603
2.4294
2.43758
2.45221
2.46449
2.47027
2.47926
2.49067
2.49914
2.5082
2.51857
2.52598
2.53291
2.54029
2.54694
2.55102
2.55406
2.55473
2.55481
2.55533
2.55659
2.55486
2.55104
2.54812
2.54017
2.52812
2.5093
2.4789
2.44321
2.40191
2.35491
2.30766
2.24986
2.18291
2.11558
2.04132
1.96403
1.89201
1.82286
1.75896
1.70443
1.65335
1.60822
1.56361
1.52102
1.47969
1.45107
1.43336
1.41855
1.40221
1.38521
1.37651
1.37199
1.36286
1.35029
0.482452
0.482039
0.481619
0.481162
0.480694
0.480198
0.479664
0.479124
0.478578
0.478002
0.477417
0.476802
0.476135
0.475418
0.474711
0.473952
0.47315
0.472321
0.471486
0.470615
0.469692
0.468713
0.467701
0.466758
0.465837
0.464982
0.464133
0.463404
0.462588
0.461795
0.461027
0.460255
0.459334
0.457933
0.456523
0.454497
0.519919
0.809754
1.24013
1.60247
1.89165
2.08573
2.21036
2.2921
2.34217
2.36723
2.36964
2.37791
2.38931
2.40012
2.39861
2.41066
2.42454
2.43306
2.44251
2.45487
2.46407
2.4759
2.49213
2.50545
2.51381
2.52147
2.52774
2.53491
2.54672
2.554
2.55855
2.55815
2.55598
2.55515
2.55096
2.54726
2.54464
2.53485
2.51971
2.50309
2.47632
2.44526
2.40657
2.36082
2.31278
2.25294
2.18944
2.12699
2.06112
1.99768
1.93498
1.86734
1.79443
1.72658
1.66795
1.6201
1.57863
1.54064
1.50691
1.47914
1.46114
1.44711
1.42941
1.40013
0.476978
0.476561
0.476119
0.475673
0.475224
0.474758
0.474264
0.473749
0.473216
0.47265
0.472052
0.471447
0.470805
0.470133
0.469455
0.468747
0.468018
0.467283
0.466536
0.465783
0.465016
0.464177
0.463328
0.462562
0.461825
0.461096
0.460449
0.459798
0.459036
0.458316
0.457577
0.456803
0.455835
0.454688
0.453428
0.452245
0.450662
0.448971
0.44742
0.445226
0.605183
1.01515
1.44252
1.77241
2.00538
2.17065
2.24816
2.29994
2.32189
2.3455
2.34117
2.34887
2.35977
2.36206
2.37192
2.38779
2.3961
2.40667
2.42294
2.43123
2.44289
2.45776
2.47547
2.49366
2.50833
2.5192
2.53062
2.53887
2.54646
2.55091
2.55197
2.55255
2.55297
2.55235
2.54845
2.54565
2.54356
2.53466
2.5193
2.49956
2.46994
2.43935
2.40588
2.36656
2.32632
2.27931
2.22333
2.15843
2.08152
2.00472
1.93027
1.86218
1.80342
1.75182
1.70336
1.65659
1.61887
1.58575
1.54942
1.49253
0.471704
0.471289
0.47085
0.470408
0.469958
0.469495
0.469018
0.468525
0.46803
0.467516
0.466971
0.466412
0.465832
0.465232
0.464636
0.464033
0.463412
0.462805
0.462175
0.461554
0.460964
0.460309
0.459629
0.45902
0.458385
0.457712
0.457109
0.456446
0.455666
0.454851
0.454073
0.453244
0.452211
0.451028
0.449731
0.448388
0.447042
0.445736
0.444429
0.443178
0.441553
0.440138
0.438321
0.514705
0.856107
1.346
1.68996
1.94425
2.11106
2.21901
2.25777
2.28335
2.31141
2.30901
2.31427
2.32414
2.3268
2.33597
2.35363
2.36051
2.37154
2.38481
2.4
2.41933
2.43784
2.45544
2.47783
2.49506
2.50655
2.51668
2.52365
2.53108
2.5444
2.55148
2.55144
2.55337
2.55136
2.54826
2.5425
2.53702
2.53192
2.52057
2.50667
2.49042
2.46253
2.43063
2.39364
2.35677
2.31478
2.25983
2.19329
2.13125
2.07272
2.0145
1.95504
1.89769
1.84868
1.80784
1.75776
1.66058
0.46632
0.465953
0.465572
0.465191
0.464804
0.46441
0.46401
0.463593
0.463168
0.462736
0.462298
0.461864
0.461405
0.460921
0.460457
0.459978
0.459484
0.459
0.458481
0.45797
0.457496
0.456958
0.456403
0.455826
0.455153
0.454403
0.453673
0.452886
0.451984
0.451021
0.450121
0.449144
0.448038
0.446825
0.445532
0.444281
0.443107
0.441988
0.440889
0.439822
0.438838
0.4378
0.436783
0.435406
0.434135
0.432229
0.472018
0.776714
1.25801
1.64283
1.90361
2.07501
2.19264
2.2337
2.25784
2.27639
2.2773
2.27882
2.28991
2.2936
2.30153
2.3144
2.32829
2.34808
2.36515
2.38135
2.40211
2.41756
2.43435
2.45555
2.47272
2.48718
2.50328
2.51442
2.52237
2.53456
2.54439
2.54511
2.54477
2.54321
2.53669
2.53163
2.52476
2.51839
2.51205
2.50166
2.48451
2.46132
2.43
2.40555
2.37848
2.34032
2.29434
2.2447
2.19326
2.14161
2.09827
2.05493
1.99995
1.88322
0.461543
0.461241
0.460934
0.460636
0.46035
0.460066
0.459774
0.459468
0.459154
0.458833
0.458504
0.45818
0.457813
0.457403
0.456999
0.456572
0.456128
0.455681
0.455184
0.454674
0.454167
0.453637
0.45308
0.452419
0.451633
0.450755
0.449839
0.448874
0.447846
0.446802
0.445823
0.4448
0.443728
0.442602
0.441525
0.440523
0.439646
0.438846
0.438028
0.437221
0.436388
0.43542
0.434323
0.433138
0.431809
0.430553
0.42862
0.426589
0.423923
0.449615
0.758153
1.2301
1.64456
1.89679
2.07486
2.1645
2.20515
2.21948
2.24098
2.24395
2.24322
2.24954
2.26123
2.28184
2.29777
2.31319
2.33002
2.33909
2.35513
2.3775
2.39478
2.41158
2.43306
2.45022
2.46895
2.48766
2.50028
2.50649
2.5158
2.52441
2.52806
2.52787
2.52547
2.52166
2.51686
2.51351
2.50576
2.49561
2.48418
2.47369
2.45996
2.4441
2.42471
2.39232
2.35333
2.31444
2.28166
2.25008
2.20203
2.09934
0.45758
0.457355
0.457129
0.4569
0.456677
0.456458
0.456232
0.455993
0.455723
0.455437
0.455153
0.454842
0.454473
0.454052
0.453599
0.453109
0.452596
0.452072
0.451505
0.450882
0.450248
0.449625
0.448956
0.448206
0.447357
0.446439
0.445465
0.444461
0.443481
0.442546
0.441634
0.440759
0.439913
0.439082
0.438308
0.437531
0.436869
0.43623
0.435472
0.434653
0.433756
0.432708
0.431437
0.430047
0.428498
0.426955
0.425371
0.423738
0.422251
0.421161
0.420389
0.419438
0.458405
0.794367
1.28585
1.66227
1.90799
2.06329
2.13472
2.17445
2.18869
2.19807
2.20505
2.21694
2.23068
2.24995
2.26563
2.27079
2.28384
2.30158
2.31535
2.33419
2.35659
2.36999
2.38601
2.40674
2.42425
2.43995
2.46053
2.47425
2.48123
2.48868
2.49479
2.49946
2.50568
2.50656
2.50237
2.49809
2.49267
2.48227
2.47035
2.46068
2.4568
2.44824
2.43155
2.41176
2.38964
2.36616
2.332
2.25871
0.454061
0.453861
0.453647
0.453416
0.453183
0.452943
0.452714
0.452478
0.452167
0.451816
0.451462
0.451069
0.450625
0.450125
0.449582
0.448999
0.448387
0.447752
0.447081
0.446362
0.445694
0.445024
0.444335
0.443634
0.442907
0.442148
0.441382
0.440632
0.439914
0.439223
0.438524
0.437852
0.437212
0.436595
0.435934
0.435212
0.434453
0.43366
0.432791
0.43182
0.430762
0.429501
0.428108
0.426681
0.425193
0.423803
0.422555
0.421455
0.420579
0.419881
0.419331
0.419006
0.418649
0.417543
0.415342
0.494785
0.881324
1.3727
1.69296
1.92839
2.04994
2.10763
2.13503
2.16034
2.17487
2.18751
2.19487
2.19919
2.2157
2.22997
2.24316
2.26087
2.27757
2.2852
2.29914
2.32055
2.33797
2.35242
2.37202
2.38633
2.3997
2.41894
2.43469
2.44477
2.45269
2.45788
2.46161
2.4707
2.47758
2.47281
2.46548
2.46042
2.45145
2.44485
2.43481
2.42171
2.40611
2.3959
2.38166
2.3451
0.450452
0.450226
0.44994
0.449632
0.449318
0.448993
0.448678
0.448329
0.447924
0.447483
0.447027
0.446535
0.446012
0.445445
0.444861
0.444276
0.44367
0.443045
0.442413
0.441787
0.441238
0.44074
0.440252
0.43979
0.439343
0.43887
0.438417
0.437953
0.437471
0.436941
0.436348
0.435717
0.435075
0.434376
0.433601
0.432693
0.431672
0.430588
0.429453
0.428319
0.427106
0.425796
0.424543
0.42337
0.422368
0.421498
0.420689
0.420029
0.419565
0.419164
0.418693
0.418254
0.417321
0.415907
0.414327
0.412281
0.410057
0.407683
0.557082
1.01691
1.45353
1.73656
1.92067
2.01751
2.08021
2.1106
2.12097
2.13053
2.14019
2.14686
2.1609
2.18058
2.19479
2.20376
2.21738
2.23108
2.24203
2.25506
2.27538
2.29059
2.30309
2.32002
2.33436
2.34597
2.35919
2.37329
2.38763
2.40218
2.41475
2.41914
2.42178
2.42699
2.42662
2.4279
2.4241
2.41547
2.40255
2.38623
2.37725
2.35568
0.446317
0.446004
0.44566
0.445292
0.444903
0.444499
0.444087
0.443658
0.443212
0.442741
0.442241
0.441726
0.441222
0.440728
0.440278
0.439874
0.439432
0.43897
0.43857
0.438223
0.437912
0.437673
0.437434
0.437177
0.43687
0.436506
0.436101
0.43569
0.435232
0.434691
0.434004
0.433218
0.432366
0.43144
0.430423
0.429315
0.428175
0.427009
0.425883
0.424764
0.423656
0.422651
0.42185
0.421267
0.420822
0.420364
0.419787
0.419341
0.418967
0.418458
0.417767
0.416657
0.415223
0.413426
0.411661
0.409973
0.407941
0.406793
0.406022
0.406098
0.408305
0.650301
1.11339
1.47283
1.73253
1.87995
1.96551
2.02342
2.06072
2.05753
2.06906
2.07924
2.08775
2.10322
2.12149
2.13369
2.14374
2.15806
2.17118
2.17876
2.18916
2.20491
2.21973
2.23316
2.24683
2.25815
2.26896
2.2851
2.3051
2.32509
2.3439
2.3572
2.36442
2.36919
2.37268
2.37253
2.3695
2.3613
2.36024
2.34776
0.4405
0.440171
0.439851
0.43958
0.439343
0.439082
0.438817
0.438587
0.438385
0.43818
0.437956
0.437723
0.437522
0.437316
0.437153
0.436981
0.436717
0.436384
0.436176
0.436017
0.435823
0.435605
0.435353
0.435007
0.434571
0.434056
0.43349
0.432897
0.432252
0.431512
0.430666
0.429742
0.428758
0.427757
0.426731
0.425731
0.424746
0.423844
0.423003
0.422231
0.421554
0.420989
0.420646
0.42042
0.420151
0.419685
0.419072
0.418513
0.417852
0.41694
0.415653
0.414246
0.412562
0.410763
0.409278
0.408392
0.406887
0.406775
0.407434
0.409144
0.411024
0.412223
0.412469
0.443801
0.754496
1.17939
1.48845
1.69439
1.81053
1.88957
1.94691
1.96974
1.9782
1.99138
2.00016
2.00751
2.02341
2.04289
2.05411
2.06086
2.07113
2.08206
2.09108
2.10191
2.11527
2.1274
2.13997
2.15567
2.17285
2.19106
2.21137
2.22848
2.24348
2.259
2.2719
2.2797
2.28392
2.28816
2.29598
2.30215
0.436502
0.436512
0.436511
0.436503
0.436471
0.436379
0.436271
0.436226
0.43618
0.436115
0.436035
0.435948
0.435816
0.435655
0.435477
0.435249
0.43494
0.43458
0.434286
0.43402
0.433716
0.43335
0.432879
0.432275
0.431596
0.430877
0.430112
0.429306
0.428458
0.427574
0.426691
0.425816
0.425006
0.424245
0.423559
0.422981
0.422499
0.422063
0.421617
0.421199
0.420791
0.420465
0.420158
0.419819
0.419311
0.418528
0.417836
0.417039
0.416104
0.414868
0.413608
0.41228
0.41087
0.409567
0.40854
0.408744
0.410231
0.412303
0.414404
0.415996
0.416823
0.417325
0.418159
0.418348
0.41887
0.419378
0.50104
0.82985
1.17906
1.45072
1.61616
1.72057
1.80103
1.85544
1.87692
1.88359
1.89794
1.90357
1.90884
1.92069
1.93845
1.94911
1.95697
1.96772
1.97877
1.98777
1.99812
2.01076
2.0247
2.04218
2.06199
2.07837
2.09387
2.11018
2.12499
2.13616
2.1433
2.15349
2.17036
2.19944
0.436239
0.43619
0.436126
0.436054
0.435945
0.435767
0.435525
0.435251
0.434974
0.434744
0.434579
0.434389
0.434132
0.433803
0.433378
0.432896
0.43235
0.43179
0.431239
0.430651
0.430063
0.429413
0.428707
0.42797
0.427213
0.426464
0.425648
0.424855
0.424133
0.423538
0.423086
0.42275
0.422512
0.422268
0.422092
0.421952
0.421844
0.421647
0.421392
0.421028
0.420666
0.420193
0.419585
0.418845
0.417838
0.417009
0.416162
0.415275
0.41439
0.413536
0.412617
0.411419
0.411476
0.41221
0.413716
0.41597
0.418195
0.420017
0.421361
0.421768
0.421721
0.42201
0.422771
0.424064
0.42534
0.427846
0.430568
0.430828
0.431018
0.551085
0.860728
1.1798
1.40328
1.53969
1.63382
1.7041
1.76586
1.7699
1.77916
1.78588
1.79322
1.79822
1.81052
1.82608
1.83803
1.8461
1.85482
1.86415
1.87494
1.89076
1.90707
1.91923
1.93147
1.94625
1.96151
1.9749
1.98543
1.99712
2.01262
2.04241
0.435693
0.435452
0.435166
0.434788
0.434338
0.43388
0.433328
0.432664
0.43207
0.431519
0.430978
0.430446
0.429949
0.429375
0.428679
0.428035
0.427441
0.426869
0.42633
0.425743
0.42515
0.424639
0.424257
0.423787
0.423256
0.422815
0.422454
0.422203
0.421929
0.421843
0.421842
0.421907
0.42193
0.421963
0.421924
0.421866
0.42175
0.421576
0.421323
0.42094
0.420394
0.41961
0.418735
0.417715
0.416702
0.415884
0.414879
0.414344
0.413872
0.414213
0.415349
0.417246
0.419675
0.421938
0.424027
0.425362
0.426103
0.426564
0.426876
0.426954
0.427211
0.42772
0.428855
0.430541
0.432871
0.435276
0.435784
0.43674
0.438469
0.43974
0.440998
0.441606
0.589074
0.878902
1.1472
1.34826
1.46861
1.54821
1.61244
1.65273
1.6799
1.67663
1.68042
1.68266
1.68818
1.69907
1.71491
1.72517
1.7353
1.74731
1.75703
1.76587
1.77721
1.7902
1.80151
1.81217
1.81984
1.82795
1.84193
1.87197
0.427869
0.427528
0.427228
0.426872
0.426402
0.426021
0.425647
0.425279
0.424986
0.424756
0.42455
0.42438
0.424237
0.424128
0.424011
0.423837
0.423656
0.423454
0.423259
0.423077
0.422934
0.422798
0.422705
0.422591
0.422491
0.422389
0.422296
0.422198
0.422213
0.422227
0.422246
0.422297
0.422291
0.422219
0.422034
0.421806
0.421508
0.421268
0.420934
0.420493
0.419835
0.419058
0.418264
0.417521
0.417682
0.418211
0.419347
0.420941
0.422936
0.425179
0.427066
0.428777
0.42999
0.430641
0.431205
0.43117
0.431131
0.431179
0.431416
0.431963
0.432982
0.434458
0.436324
0.438394
0.440661
0.441424
0.442337
0.443564
0.445251
0.447063
0.44836
0.450174
0.452281
0.454154
0.459277
0.623996
0.883508
1.14308
1.30381
1.41183
1.48267
1.52726
1.57169
1.57567
1.57778
1.57857
1.58575
1.59184
1.60341
1.61749
1.62788
1.63549
1.64245
1.64926
1.65593
1.66425
1.67266
1.68025
1.68997
1.71025
0.422353
0.422561
0.422724
0.422842
0.422917
0.422996
0.423101
0.423218
0.423372
0.423573
0.423717
0.423835
0.423928
0.424036
0.4242
0.424224
0.424192
0.424204
0.424292
0.424392
0.424405
0.424369
0.424248
0.424118
0.424096
0.424076
0.424039
0.423933
0.423774
0.423535
0.423299
0.422974
0.42261
0.422139
0.421797
0.421418
0.421323
0.421401
0.421682
0.422149
0.422928
0.424029
0.425642
0.427522
0.42951
0.431142
0.43269
0.433847
0.434943
0.435446
0.435818
0.435873
0.435697
0.435592
0.435415
0.435535
0.435817
0.436497
0.437743
0.439554
0.441722
0.443471
0.445101
0.446538
0.447395
0.448255
0.44915
0.450254
0.451793
0.453676
0.455752
0.458483
0.461599
0.463608
0.464184
0.465142
0.466562
0.494526
0.65509
0.919613
1.1256
1.2759
1.35824
1.40908
1.45248
1.48282
1.49956
1.49345
1.49854
1.50353
1.51091
1.52012
1.52957
1.53645
1.54072
1.54506
1.55056
1.55638
1.56388
1.57813
0.426847
0.426871
0.426912
0.426965
0.427019
0.427067
0.427089
0.427106
0.427128
0.427171
0.427188
0.427202
0.427211
0.427207
0.427197
0.427209
0.427219
0.42722
0.427223
0.427234
0.427226
0.42723
0.427239
0.427282
0.427333
0.427403
0.42747
0.427608
0.427785
0.428035
0.428348
0.428781
0.429352
0.430096
0.430969
0.431948
0.433048
0.434164
0.435166
0.436168
0.43703
0.438033
0.438832
0.43957
0.440007
0.440282
0.440501
0.440595
0.440574
0.440397
0.440316
0.440127
0.44024
0.440513
0.441085
0.44226
0.443775
0.445724
0.447574
0.449398
0.450607
0.45163
0.452453
0.453003
0.453663
0.454628
0.456087
0.457933
0.460158
0.462498
0.465462
0.467832
0.468921
0.470044
0.471942
0.474655
0.477756
0.478971
0.480909
0.482363
0.522067
0.712091
0.923191
1.11558
1.25047
1.32701
1.36999
1.39416
1.43192
1.42901
1.42942
1.43116
1.4348
1.43918
1.44597
1.45324
1.45826
1.46206
1.46561
1.47455
0.431903
0.431954
0.43199
0.432023
0.432077
0.432197
0.432368
0.432509
0.432622
0.432748
0.432922
0.433132
0.433352
0.433593
0.43382
0.434078
0.434398
0.434771
0.435159
0.435555
0.435976
0.436442
0.436962
0.437507
0.438049
0.43861
0.43917
0.439727
0.440279
0.440841
0.441357
0.441869
0.442314
0.442714
0.443058
0.443423
0.44376
0.443972
0.444211
0.444376
0.444531
0.444705
0.444685
0.444656
0.444529
0.444542
0.444504
0.444607
0.44477
0.445206
0.44596
0.447096
0.448624
0.450124
0.451874
0.453211
0.454601
0.455771
0.456743
0.457501
0.458023
0.458647
0.458999
0.459841
0.461151
0.463108
0.465183
0.467797
0.470286
0.472678
0.47451
0.475432
0.476245
0.478258
0.481431
0.484029
0.485676
0.487801
0.490296
0.493129
0.495001
0.496253
0.497661
0.565906
0.760146
0.978358
1.13005
1.24744
1.30827
1.33659
1.36492
1.38275
1.37905
1.37407
1.37752
1.38194
1.3868
1.39172
1.39581
1.40179
0.443163
0.44331
0.443466
0.443608
0.443742
0.443878
0.444035
0.444206
0.444365
0.444511
0.44466
0.44483
0.44502
0.445203
0.445395
0.445578
0.445769
0.445975
0.446188
0.446395
0.446596
0.446791
0.446979
0.447154
0.447319
0.447469
0.447619
0.447752
0.447882
0.447989
0.44808
0.448155
0.448223
0.448303
0.448379
0.448459
0.448545
0.448689
0.448893
0.449145
0.449475
0.449878
0.450427
0.451093
0.451943
0.452844
0.453748
0.454736
0.45574
0.456921
0.458077
0.459354
0.460379
0.461348
0.462046
0.462527
0.462946
0.463191
0.463647
0.464135
0.464977
0.466008
0.467559
0.469515
0.472011
0.474263
0.476571
0.478376
0.479984
0.481445
0.482484
0.483797
0.485875
0.488137
0.490141
0.491999
0.494274
0.496986
0.499021
0.500929
0.502461
0.504689
0.507439
0.508895
0.509935
0.512294
0.613462
0.851718
1.02925
1.17373
1.26311
1.29456
1.31781
1.33249
1.34169
1.33895
1.33909
1.3399
1.34352
1.35006
0.451722
0.45177
0.451817
0.451853
0.451881
0.451926
0.451994
0.452062
0.452124
0.45219
0.452257
0.452326
0.452412
0.452523
0.452642
0.452766
0.452896
0.453038
0.453197
0.453362
0.45354
0.453729
0.453933
0.454148
0.454379
0.45462
0.454883
0.45516
0.455466
0.455787
0.456149
0.456516
0.456912
0.457318
0.45774
0.45816
0.458673
0.459178
0.4598
0.460465
0.461242
0.462059
0.462893
0.463688
0.464484
0.465171
0.46575
0.466167
0.466523
0.466869
0.467206
0.467629
0.467998
0.468455
0.468861
0.469374
0.469891
0.470726
0.471979
0.473697
0.475785
0.477841
0.479823
0.481848
0.483778
0.485647
0.487029
0.487863
0.488902
0.490098
0.491823
0.493892
0.495867
0.497615
0.499349
0.501429
0.503759
0.505184
0.506455
0.50799
0.510046
0.511856
0.513346
0.51476
0.515935
0.517068
0.517763
0.518202
0.542665
0.738715
0.947596
1.09871
1.22122
1.27151
1.29743
1.3037
1.31351
1.31277
1.31337
1.31704
0.461804
0.461887
0.461997
0.462112
0.462201
0.462266
0.462344
0.46247
0.46263
0.462772
0.462894
0.463021
0.463172
0.463357
0.463557
0.463751
0.463944
0.464152
0.464381
0.464623
0.464866
0.465118
0.465363
0.465625
0.465887
0.466163
0.466452
0.466751
0.467042
0.467357
0.467666
0.46798
0.468285
0.468575
0.468794
0.469028
0.469276
0.469556
0.469858
0.470223
0.470617
0.471018
0.471415
0.4718
0.472279
0.472786
0.473262
0.473564
0.473903
0.474338
0.475009
0.475872
0.476982
0.478246
0.479604
0.48106
0.482557
0.484205
0.485873
0.487701
0.489343
0.490676
0.491703
0.492551
0.493512
0.494668
0.495672
0.49687
0.49809
0.499735
0.50165
0.503378
0.504894
0.506419
0.507906
0.509228
0.510402
0.511454
0.512909
0.514422
0.515598
0.516583
0.517573
0.518678
0.519607
0.520384
0.521003
0.521632
0.522118
0.522533
0.522574
0.640624
0.859527
1.05198
1.19276
1.25514
1.27988
1.28683
1.29718
1.30388
0.472199
0.472268
0.472342
0.472392
0.472418
0.472478
0.472597
0.472692
0.472746
0.472811
0.472899
0.473
0.47311
0.473221
0.473326
0.473433
0.473559
0.473704
0.473864
0.474021
0.474183
0.474362
0.474558
0.474772
0.475002
0.475234
0.475488
0.475766
0.476063
0.476376
0.476707
0.477028
0.477363
0.477681
0.477972
0.47825
0.478566
0.478925
0.479364
0.479901
0.480554
0.48131
0.48207
0.482864
0.483801
0.484815
0.485781
0.486672
0.487512
0.488356
0.489338
0.490475
0.491792
0.493059
0.494176
0.495055
0.495771
0.496454
0.49719
0.498102
0.498986
0.499929
0.500661
0.501476
0.502506
0.503745
0.505295
0.50673
0.508197
0.509669
0.510934
0.512088
0.513067
0.513942
0.514718
0.515594
0.516464
0.517603
0.518595
0.519283
0.519898
0.520487
0.521083
0.521703
0.522291
0.522671
0.523145
0.523586
0.523819
0.524062
0.524232
0.524176
0.524253
0.584452
0.784378
1.01705
1.1716
1.24694
1.2728
1.2874
0.483909
0.484008
0.484093
0.484164
0.484265
0.484443
0.484605
0.484682
0.484753
0.484866
0.485018
0.485188
0.485345
0.48549
0.48564
0.48582
0.486038
0.486275
0.48652
0.486771
0.487039
0.487339
0.487648
0.487974
0.488321
0.488669
0.489031
0.489419
0.489793
0.490182
0.490575
0.490961
0.491349
0.491742
0.49211
0.492482
0.492886
0.493331
0.493841
0.494452
0.495145
0.495846
0.496487
0.497111
0.497835
0.498618
0.499252
0.499794
0.500238
0.500583
0.500955
0.501474
0.502204
0.503036
0.503831
0.504421
0.504939
0.505413
0.506072
0.506976
0.508181
0.509343
0.510489
0.511665
0.512904
0.514015
0.514862
0.515598
0.516268
0.516789
0.517394
0.518024
0.518516
0.518963
0.519542
0.520172
0.520904
0.521485
0.521881
0.522273
0.522648
0.523012
0.523209
0.523414
0.52382
0.5243
0.5248
0.524947
0.524782
0.524677
0.524843
0.525214
0.52581
0.526274
0.526301
0.554879
0.733977
0.991921
1.14317
1.25714
0.497475
0.497563
0.497637
0.4977
0.497776
0.497887
0.498027
0.498133
0.498204
0.498283
0.498392
0.498532
0.498668
0.49878
0.498896
0.499037
0.499215
0.499411
0.499611
0.499821
0.500058
0.500327
0.500608
0.500894
0.501203
0.501492
0.501784
0.502104
0.502431
0.502743
0.503063
0.503385
0.503736
0.504075
0.50439
0.504697
0.504983
0.505262
0.505568
0.505948
0.506423
0.506966
0.507528
0.508108
0.508754
0.509402
0.509847
0.510256
0.510699
0.511062
0.511402
0.511913
0.51268
0.513612
0.514432
0.515088
0.515577
0.515976
0.51644
0.51721
0.518103
0.518699
0.519115
0.519506
0.519935
0.520238
0.520488
0.520708
0.520899
0.52113
0.521475
0.521963
0.522431
0.522846
0.523194
0.523552
0.523818
0.523985
0.524129
0.524279
0.524362
0.524425
0.524524
0.524702
0.525128
0.525559
0.525674
0.525699