/*--------------------------------*- C++ -*----------------------------------*\
  =========                 |
  \\      /  F ield         | OpenFOAM: The Open Source CFD Toolbox
   \\    /   O peration     | Website:  https://openfoam.org
    \\  /    A nd           | Version:  7
     \\/     M anipulation  |
\*---------------------------------------------------------------------------*/
FoamFile
{
    version     2.0;
    format      ascii;
    class       volScalarField;
    location    "1";
    object      p;
}
// * * * * * * * * * * * * * * * * * * * * * * * * * * * * * * * * * * * * * //

dimensions      [1 -1 -2 0 0 0 0];

internalField   nonuniform List<scalar> 
90000
(
0.861815
0.860705
0.860453
0.859221
0.860016
0.861841
0.864038
0.865723
0.868143
0.870714
0.874331
0.87743
0.880647
0.883459
0.886922
0.890218
0.893938
0.896933
0.89998
0.902603
0.905524
0.908015
0.910764
0.912935
0.914714
0.916251
0.918226
0.920448
0.922799
0.925628
0.92858
0.93199
0.935448
0.93909
0.942877
0.946829
0.950702
0.954391
0.957486
0.960887
0.961949
0.961325
0.958499
0.953716
0.945925
0.937203
0.930338
0.928068
0.9289
0.930873
0.934252
0.938706
0.943158
0.946269
0.949767
0.955309
0.957704
0.956485
0.95324
0.949646
0.946438
0.947063
0.948313
0.951651
0.953835
0.954215
0.954202
0.954092
0.951918
0.947611
0.942248
0.936762
0.937377
0.94072
0.949012
0.961708
0.978406
0.99699
1.02092
1.04651
1.05654
1.05867
1.05879
1.06423
1.06611
1.06636
1.06746
1.07023
1.07386
1.07248
1.07315
1.0677
1.05979
1.05497
1.05218
1.04348
1.03137
1.01866
1.00266
0.981635
0.863318
0.863703
0.864186
0.864671
0.865244
0.865855
0.866579
0.867353
0.868167
0.869102
0.870156
0.871276
0.872277
0.87324
0.874387
0.875813
0.877435
0.879158
0.880752
0.882241
0.883751
0.885242
0.88684
0.888599
0.890362
0.891933
0.893581
0.895355
0.897283
0.899292
0.901691
0.904355
0.907305
0.910467
0.913949
0.917881
0.921941
0.926178
0.93033
0.93482
0.938719
0.942825
0.946687
0.950593
0.95387
0.954952
0.953536
0.951117
0.948344
0.946686
0.945269
0.943305
0.942948
0.943793
0.945584
0.949052
0.951969
0.954087
0.954819
0.954343
0.952692
0.951058
0.949754
0.95013
0.950839
0.951885
0.952482
0.953378
0.954852
0.954237
0.950681
0.945013
0.93995
0.940475
0.945017
0.956568
0.974345
0.990218
1.01218
1.04231
1.05255
1.05605
1.05707
1.06392
1.06697
1.06761
1.06806
1.06923
1.07272
1.07317
1.07297
1.06582
1.05814
1.05488
1.05063
1.04414
1.03435
1.01985
1.0027
0.983801
0.863653
0.863905
0.864171
0.8645
0.864734
0.864966
0.865355
0.865736
0.86607
0.86635
0.866675
0.867198
0.867653
0.868029
0.868497
0.869088
0.869631
0.870068
0.870627
0.871337
0.872155
0.873053
0.874091
0.875217
0.876386
0.877537
0.878784
0.880155
0.881639
0.883155
0.884912
0.886896
0.889098
0.89147
0.894039
0.897035
0.900299
0.903972
0.908037
0.912179
0.916921
0.921499
0.925895
0.929968
0.933697
0.935892
0.936602
0.937148
0.938173
0.940201
0.943037
0.944769
0.946263
0.947081
0.947992
0.949102
0.950445
0.951864
0.953364
0.955031
0.955512
0.954981
0.953795
0.951988
0.950212
0.948474
0.947757
0.948092
0.949813
0.952315
0.954168
0.953118
0.948968
0.94328
0.943427
0.950335
0.96618
0.979933
0.998909
1.03087
1.04367
1.04751
1.05184
1.05905
1.06836
1.06914
1.06844
1.06814
1.0703
1.07414
1.07557
1.06799
1.06082
1.05701
1.05103
1.0454
1.03608
1.02222
1.00531
0.984238
0.863828
0.864089
0.864352
0.864649
0.864938
0.865285
0.865602
0.865884
0.86622
0.866419
0.866595
0.866945
0.867441
0.867911
0.868357
0.868716
0.868833
0.868943
0.86912
0.869356
0.869654
0.869993
0.870187
0.870371
0.870575
0.870826
0.87118
0.871645
0.872089
0.872605
0.873256
0.874124
0.875201
0.876401
0.877655
0.879129
0.88097
0.883314
0.88606
0.888833
0.892423
0.89618
0.900713
0.905167
0.909847
0.915162
0.919675
0.92412
0.927308
0.929669
0.932597
0.934742
0.937034
0.938679
0.940631
0.942972
0.945735
0.948301
0.949758
0.951867
0.953959
0.954499
0.955184
0.955022
0.954628
0.953295
0.951529
0.949788
0.948407
0.948657
0.948885
0.949014
0.949501
0.949336
0.950146
0.955324
0.966608
0.977462
0.994477
1.02455
1.03661
1.03951
1.04335
1.05022
1.06061
1.06959
1.07161
1.06966
1.06769
1.07079
1.0728
1.06638
1.05879
1.05323
1.04737
1.04285
1.03511
1.02179
1.00496
0.984526
0.862177
0.862387
0.862601
0.862859
0.863167
0.863462
0.863737
0.864044
0.864383
0.864696
0.865026
0.86544
0.865894
0.866311
0.8667
0.86706
0.867408
0.867789
0.868193
0.868507
0.868717
0.868843
0.868917
0.868996
0.869098
0.869248
0.869489
0.869741
0.869933
0.869948
0.86995
0.870024
0.870171
0.870364
0.87061
0.870934
0.871461
0.872317
0.873471
0.874602
0.875881
0.877392
0.879742
0.882518
0.886262
0.890755
0.896242
0.901744
0.90813
0.913287
0.918823
0.923669
0.928369
0.932133
0.935168
0.93786
0.94059
0.943266
0.944607
0.946452
0.948599
0.949406
0.950152
0.951003
0.95216
0.952769
0.952898
0.952418
0.951276
0.949391
0.946936
0.946736
0.947544
0.949862
0.953048
0.960292
0.971086
0.981892
1.00074
1.02742
1.0373
1.04014
1.04235
1.04641
1.05356
1.06248
1.06943
1.074
1.07128
1.0694
1.06837
1.06192
1.05545
1.05115
1.04633
1.04208
1.03597
1.023
1.00441
0.9849
0.860391
0.860596
0.860818
0.861055
0.861333
0.861623
0.8619
0.862208
0.86253
0.86285
0.863202
0.863593
0.863993
0.864369
0.864742
0.865148
0.865573
0.865973
0.866373
0.866727
0.866964
0.867126
0.867221
0.867321
0.867466
0.867627
0.867813
0.867992
0.868138
0.868135
0.86807
0.868045
0.868079
0.868064
0.868002
0.868002
0.86807
0.868172
0.86834
0.868587
0.868721
0.868748
0.868869
0.869393
0.870409
0.871958
0.874521
0.877782
0.882149
0.887779
0.893744
0.90104
0.907547
0.914266
0.920132
0.925078
0.928805
0.933793
0.936454
0.938738
0.941898
0.944715
0.946743
0.94927
0.950866
0.951245
0.951224
0.950669
0.949476
0.947696
0.945995
0.945958
0.94678
0.9487
0.952343
0.959765
0.971256
0.985648
1.00952
1.03637
1.04452
1.04846
1.04941
1.04916
1.05309
1.05878
1.06479
1.07152
1.07514
1.07359
1.07081
1.06406
1.05838
1.05431
1.04951
1.04441
1.0386
1.0262
1.00595
0.984052
0.858693
0.858828
0.858956
0.859081
0.859228
0.85946
0.859715
0.859984
0.860243
0.860513
0.860825
0.861131
0.861472
0.861937
0.862481
0.862903
0.86323
0.863583
0.864087
0.864679
0.865153
0.865487
0.865713
0.865887
0.866068
0.866201
0.866304
0.866432
0.866586
0.866749
0.866801
0.866784
0.86678
0.866758
0.866659
0.866406
0.866212
0.866208
0.866288
0.866511
0.866971
0.86765
0.867865
0.867696
0.867629
0.867748
0.868193
0.868906
0.869792
0.871537
0.874113
0.878235
0.883264
0.88952
0.896182
0.90374
0.910887
0.918084
0.925361
0.930074
0.934736
0.939813
0.943131
0.94705
0.94872
0.9488
0.948404
0.946486
0.94571
0.945121
0.944747
0.945192
0.94627
0.947952
0.951631
0.959187
0.970814
0.985186
1.00777
1.03849
1.04852
1.05058
1.05234
1.0544
1.05704
1.05951
1.06291
1.0681
1.07338
1.0763
1.07447
1.06714
1.06089
1.05554
1.05156
1.04683
1.03956
1.02706
1.00775
0.983669
0.855859
0.856035
0.85608
0.856063
0.856146
0.856413
0.85673
0.857046
0.857374
0.857717
0.858074
0.85844
0.858911
0.859467
0.860053
0.860702
0.860979
0.861166
0.861516
0.862199
0.86305
0.863648
0.864062
0.864253
0.864259
0.864302
0.864457
0.864733
0.865115
0.865514
0.865793
0.865823
0.865743
0.865645
0.865627
0.865661
0.865818
0.865978
0.866148
0.866374
0.866701
0.867106
0.867371
0.867477
0.867536
0.867693
0.868138
0.86879
0.869528
0.869898
0.870297
0.870822
0.871918
0.873989
0.877115
0.881277
0.887281
0.893468
0.90167
0.909188
0.915493
0.922432
0.927205
0.932512
0.935677
0.938731
0.94169
0.941763
0.942936
0.94406
0.944568
0.944762
0.945256
0.946697
0.950564
0.959022
0.971268
0.985184
1.00563
1.03596
1.0465
1.04792
1.05041
1.05478
1.05982
1.06134
1.0633
1.0664
1.07079
1.07482
1.07312
1.06642
1.06072
1.05546
1.0511
1.04613
1.03851
1.02597
1.00746
0.983364
0.851827
0.852229
0.852475
0.852755
0.853191
0.853564
0.853816
0.853986
0.854182
0.854457
0.854734
0.855092
0.855675
0.856285
0.856623
0.857015
0.857636
0.858311
0.858994
0.859697
0.860576
0.861354
0.861767
0.862025
0.862297
0.862661
0.863072
0.86343
0.863752
0.864001
0.864215
0.864501
0.864851
0.86512
0.865331
0.865532
0.865734
0.866023
0.86644
0.866891
0.867223
0.867508
0.867891
0.86822
0.868497
0.868789
0.869186
0.869715
0.870268
0.870531
0.870727
0.870908
0.870873
0.870919
0.871224
0.872166
0.873896
0.876729
0.880812
0.886154
0.892227
0.898884
0.906716
0.913491
0.9212
0.927482
0.934332
0.93914
0.940941
0.941901
0.942717
0.942535
0.942583
0.944489
0.949149
0.958624
0.972851
0.987407
1.00352
1.02982
1.04319
1.04498
1.0477
1.05361
1.05904
1.06174
1.06404
1.06639
1.06946
1.07306
1.07138
1.06554
1.06031
1.05508
1.05051
1.0452
1.03699
1.02428
1.00676
0.982983
0.850426
0.850749
0.851098
0.851466
0.851882
0.852157
0.852466
0.852762
0.853025
0.853342
0.853665
0.854123
0.854621
0.855161
0.855776
0.856452
0.857219
0.858071
0.858776
0.85931
0.859959
0.860783
0.861386
0.861713
0.862073
0.862637
0.863082
0.863329
0.863523
0.863725
0.863963
0.864268
0.864633
0.865075
0.865558
0.866031
0.866533
0.867132
0.867865
0.868665
0.869359
0.869894
0.870368
0.87084
0.871202
0.871497
0.871755
0.871965
0.872109
0.872164
0.872168
0.872035
0.871577
0.871184
0.871125
0.871181
0.871352
0.871864
0.87292
0.874508
0.876618
0.879333
0.88389
0.889224
0.896754
0.904564
0.912445
0.920938
0.925699
0.928947
0.932366
0.934613
0.938178
0.944417
0.949563
0.95849
0.973908
0.9909
1.00398
1.02214
1.03935
1.04357
1.04674
1.05201
1.0573
1.0606
1.06415
1.06772
1.07063
1.07285
1.07093
1.06436
1.05871
1.05401
1.04961
1.04444
1.03624
1.02352
1.00629
0.982881
0.851291
0.851565
0.851919
0.852172
0.852531
0.852786
0.853098
0.853491
0.853876
0.854291
0.854766
0.855232
0.855768
0.856365
0.857087
0.857905
0.858708
0.859454
0.860137
0.860854
0.861735
0.862898
0.863957
0.864406
0.864518
0.86464
0.86492
0.865341
0.865724
0.866029
0.866371
0.866825
0.867316
0.867813
0.868372
0.868997
0.869643
0.870294
0.870966
0.871635
0.872169
0.872539
0.872856
0.87311
0.87317
0.873203
0.873306
0.873353
0.873306
0.873222
0.873117
0.872881
0.872364
0.871725
0.871129
0.870771
0.870755
0.870878
0.871174
0.87152
0.871787
0.872048
0.872594
0.87408
0.877065
0.882308
0.888861
0.897734
0.905921
0.913721
0.921247
0.927774
0.935137
0.942771
0.948276
0.95635
0.972193
0.988491
1.00354
1.01932
1.03577
1.04405
1.04746
1.05198
1.05574
1.05933
1.06403
1.06875
1.07213
1.07379
1.07038
1.06467
1.05886
1.05395
1.04975
1.04424
1.0359
1.02346
1.00633
0.982928
0.852643
0.852945
0.853269
0.853671
0.854122
0.854522
0.854911
0.85542
0.856009
0.856586
0.857195
0.857864
0.858497
0.859089
0.859745
0.860531
0.861357
0.862141
0.862969
0.86397
0.865128
0.866163
0.867136
0.867593
0.867755
0.867945
0.868314
0.868788
0.869182
0.869523
0.869929
0.87044
0.870984
0.871439
0.871813
0.872201
0.872568
0.872847
0.873074
0.873288
0.87346
0.873523
0.873508
0.873473
0.873469
0.873553
0.873682
0.873702
0.873633
0.873489
0.873348
0.873112
0.872642
0.871878
0.871038
0.870338
0.870027
0.869949
0.869972
0.870043
0.869981
0.869797
0.869659
0.869732
0.870239
0.871673
0.874199
0.877956
0.883459
0.889937
0.897323
0.906059
0.913965
0.92402
0.934775
0.9479
0.964423
0.984067
1.00313
1.01861
1.03521
1.04433
1.04882
1.053
1.05615
1.06029
1.0648
1.06893
1.07269
1.07443
1.07046
1.06513
1.05936
1.0545
1.05011
1.04412
1.03568
1.02369
1.00691
0.983268
0.85792
0.858236
0.858563
0.858891
0.859235
0.859624
0.860061
0.860573
0.861155
0.861761
0.862385
0.863033
0.863652
0.864234
0.864866
0.865592
0.866357
0.867119
0.867929
0.868895
0.869952
0.870642
0.870975
0.871218
0.871525
0.87199
0.872473
0.872818
0.873005
0.873078
0.873159
0.87334
0.873595
0.873753
0.873786
0.87381
0.873866
0.873894
0.873884
0.873791
0.873611
0.873381
0.872996
0.87286
0.872864
0.872968
0.873111
0.873144
0.873106
0.872992
0.872855
0.872614
0.872147
0.87135
0.870406
0.869463
0.868662
0.868327
0.868302
0.868435
0.868838
0.869021
0.868977
0.868994
0.869373
0.87004
0.870479
0.87076
0.871611
0.873254
0.876382
0.882381
0.89048
0.900842
0.91772
0.938478
0.956549
0.98218
1.0031
1.0164
1.03261
1.04293
1.0483
1.05293
1.05643
1.0604
1.0636
1.06684
1.07143
1.07407
1.07013
1.06529
1.05971
1.05462
1.0497
1.04378
1.03565
1.02369
1.00713
0.983429
0.862677
0.862885
0.863119
0.863343
0.863569
0.863841
0.864161
0.86451
0.864878
0.865256
0.865628
0.865984
0.866343
0.86672
0.867113
0.86752
0.867992
0.868586
0.869266
0.869907
0.870498
0.8711
0.871674
0.872067
0.872262
0.872462
0.872736
0.873055
0.873327
0.873305
0.873229
0.873216
0.873262
0.873365
0.873379
0.873334
0.873268
0.87319
0.873085
0.87292
0.872701
0.872457
0.872012
0.871491
0.871418
0.8714
0.871332
0.871203
0.871091
0.87096
0.870801
0.870615
0.870224
0.869584
0.868709
0.86776
0.867036
0.866902
0.866945
0.867237
0.867877
0.86866
0.869378
0.869906
0.870198
0.870274
0.870067
0.869575
0.868824
0.86761
0.867529
0.868523
0.871673
0.87838
0.89143
0.909181
0.932432
0.967716
0.996958
1.0067
1.02376
1.03956
1.04753
1.05235
1.05642
1.0604
1.06333
1.06643
1.07131
1.07377
1.06971
1.06529
1.05983
1.05442
1.04944
1.0436
1.03549
1.02341
1.00682
0.983322
0.864626
0.864705
0.864833
0.864972
0.865104
0.865234
0.865377
0.865531
0.865692
0.865855
0.86603
0.866228
0.866459
0.866721
0.866988
0.867248
0.867635
0.86821
0.868702
0.86903
0.869319
0.869669
0.870141
0.870703
0.871209
0.871594
0.87188
0.872148
0.872385
0.872394
0.872287
0.872215
0.872211
0.872283
0.872293
0.872238
0.872123
0.871899
0.871534
0.871068
0.870555
0.870013
0.869333
0.868484
0.867735
0.867232
0.867054
0.867093
0.867163
0.867209
0.867455
0.867826
0.867887
0.867868
0.867806
0.867452
0.866746
0.866261
0.866242
0.866553
0.86735
0.868552
0.869978
0.871045
0.871287
0.871126
0.870331
0.869077
0.867949
0.866777
0.866102
0.865817
0.866019
0.867741
0.873837
0.886271
0.909541
0.938374
0.970472
0.994152
1.01372
1.03561
1.04486
1.04978
1.05704
1.06414
1.06877
1.07123
1.07387
1.07388
1.06919
1.06495
1.05972
1.05401
1.04914
1.04369
1.03545
1.02268
1.00588
0.983069
0.864688
0.864804
0.864852
0.864914
0.86502
0.865048
0.865058
0.865096
0.865175
0.865269
0.865431
0.865489
0.865529
0.865749
0.865829
0.866031
0.866842
0.867122
0.867205
0.867374
0.86753
0.86775
0.8681
0.868425
0.86868
0.868925
0.86917
0.869378
0.869617
0.869975
0.870162
0.870075
0.869918
0.869852
0.869791
0.869669
0.86941
0.869007
0.868579
0.86813
0.867614
0.867041
0.866376
0.865552
0.864703
0.864203
0.86413
0.864199
0.864428
0.864868
0.865479
0.866183
0.867207
0.868035
0.868205
0.868214
0.868212
0.868104
0.867939
0.868053
0.868763
0.870085
0.871716
0.872607
0.872517
0.871854
0.870429
0.868665
0.867343
0.866428
0.86528
0.864973
0.865054
0.865461
0.868047
0.8749
0.88978
0.913702
0.943944
0.972768
0.990084
1.00996
1.03186
1.04443
1.05523
1.0667
1.07507
1.0771
1.07665
1.07387
1.06938
1.06534
1.05979
1.05401
1.04908
1.04371
1.03517
1.02186
1.00492
0.982894
0.863904
0.864042
0.864202
0.864322
0.864428
0.864525
0.864612
0.864749
0.864962
0.865157
0.865165
0.865089
0.865082
0.8652
0.865325
0.865504
0.865663
0.865647
0.865557
0.865556
0.865605
0.865878
0.866116
0.86614
0.866136
0.866147
0.866251
0.866483
0.866783
0.867136
0.867393
0.867502
0.867595
0.867789
0.868084
0.868267
0.868325
0.868338
0.868234
0.867996
0.867687
0.867363
0.866973
0.866381
0.865599
0.864949
0.864659
0.864642
0.864772
0.865136
0.865613
0.866274
0.867405
0.86877
0.869987
0.87098
0.871567
0.871684
0.871462
0.871093
0.871125
0.871308
0.871638
0.871837
0.871652
0.870949
0.869558
0.867713
0.86637
0.865583
0.864745
0.864317
0.864371
0.864874
0.866828
0.872146
0.882847
0.900881
0.925068
0.947216
0.966088
0.987721
1.01732
1.03831
1.04927
1.06086
1.06913
1.07398
1.07564
1.07382
1.07005
1.06615
1.06052
1.05439
1.04919
1.04325
1.03427
1.02115
1.00461
0.982877
0.863287
0.86344
0.863633
0.863823
0.863954
0.864119
0.86431
0.864434
0.864521
0.864715
0.865004
0.865061
0.865107
0.865275
0.86559
0.865806
0.865784
0.865592
0.865494
0.865541
0.865746
0.865935
0.86592
0.865769
0.865624
0.865587
0.865649
0.865878
0.866214
0.866535
0.86672
0.866908
0.867242
0.867682
0.868055
0.868354
0.868623
0.868752
0.868739
0.86869
0.868638
0.86857
0.868419
0.86812
0.867782
0.867602
0.867489
0.867414
0.867456
0.867697
0.868242
0.869122
0.870293
0.871624
0.872972
0.873933
0.874194
0.874122
0.873601
0.872417
0.870966
0.870374
0.87031
0.870384
0.870253
0.869682
0.868452
0.866564
0.865423
0.864995
0.86466
0.864266
0.864305
0.864884
0.866763
0.871308
0.880365
0.896498
0.91898
0.937842
0.950529
0.965082
0.987748
1.01186
1.03144
1.04937
1.06087
1.07009
1.07712
1.07395
1.0701
1.066
1.06005
1.05416
1.04878
1.04232
1.03324
1.02068
1.0046
0.982792
0.86365
0.863877
0.86411
0.864361
0.864623
0.864869
0.865077
0.865265
0.86555
0.866075
0.8666
0.866873
0.8671
0.867421
0.867745
0.867892
0.86786
0.867729
0.867676
0.86774
0.868014
0.868106
0.868038
0.867786
0.867684
0.867684
0.867834
0.868078
0.868081
0.868074
0.868232
0.868736
0.869418
0.870053
0.870582
0.871053
0.871537
0.871887
0.87197
0.872007
0.872085
0.872313
0.872628
0.87267
0.87258
0.872468
0.872374
0.87216
0.871749
0.871519
0.871557
0.871884
0.872531
0.873254
0.873681
0.873772
0.87375
0.873524
0.872942
0.871967
0.870694
0.869299
0.868182
0.867873
0.867658
0.867311
0.86686
0.8664
0.865922
0.865707
0.865559
0.865106
0.86499
0.865495
0.866882
0.870615
0.878607
0.893852
0.91637
0.936253
0.945684
0.952675
0.963979
0.983804
1.00701
1.0262
1.04593
1.06394
1.07402
1.07174
1.06783
1.06293
1.05815
1.05314
1.04737
1.0409
1.0327
1.02076
1.0045
0.982499
0.865926
0.866247
0.866611
0.866998
0.867364
0.867725
0.868078
0.868404
0.86877
0.869306
0.869934
0.870441
0.870823
0.871091
0.871265
0.871368
0.871353
0.871257
0.871201
0.871197
0.871202
0.871219
0.871202
0.871184
0.871203
0.871349
0.871605
0.871668
0.871666
0.871741
0.872064
0.872437
0.872761
0.873196
0.873694
0.874083
0.874357
0.874625
0.874739
0.874622
0.874497
0.874538
0.874567
0.874426
0.874063
0.873647
0.873373
0.873197
0.873003
0.872573
0.872174
0.872053
0.872094
0.872182
0.872125
0.871913
0.871675
0.87161
0.871475
0.87105
0.86982
0.867555
0.86572
0.865326
0.865235
0.865358
0.865923
0.866589
0.866859
0.866728
0.866179
0.865424
0.865195
0.865682
0.866909
0.870098
0.877356
0.891974
0.914491
0.934538
0.944139
0.949623
0.954842
0.961662
0.974298
0.992385
1.01515
1.03717
1.05315
1.05977
1.06217
1.06147
1.05937
1.05487
1.04817
1.04077
1.03263
1.02061
1.00393
0.982193
0.867467
0.867825
0.868185
0.868529
0.868906
0.869329
0.869815
0.870405
0.870972
0.871565
0.872249
0.872883
0.873391
0.873761
0.873835
0.873778
0.873741
0.873741
0.873684
0.873516
0.873455
0.873428
0.873388
0.873381
0.873434
0.873686
0.873981
0.874046
0.87409
0.874235
0.874281
0.874283
0.874457
0.875137
0.875449
0.875463
0.875343
0.875
0.874691
0.874292
0.873848
0.873584
0.873323
0.872944
0.872699
0.872611
0.872536
0.872519
0.872676
0.872796
0.87278
0.87233
0.871554
0.871143
0.870828
0.870348
0.869689
0.869275
0.869223
0.869463
0.869371
0.868445
0.866341
0.864811
0.864663
0.864925
0.866128
0.86762
0.867797
0.86714
0.866138
0.865487
0.865332
0.865566
0.866423
0.869042
0.875831
0.889898
0.911857
0.932626
0.942585
0.948429
0.953575
0.95866
0.961497
0.966005
0.978588
1.00018
1.0216
1.04309
1.05725
1.06027
1.0587
1.05458
1.04838
1.04106
1.03269
1.01897
1.00245
0.981969
0.865793
0.865919
0.866065
0.866321
0.866871
0.867931
0.868339
0.868212
0.868193
0.86878
0.87007
0.871227
0.872212
0.872818
0.872884
0.872854
0.872826
0.872836
0.872916
0.872982
0.872964
0.872902
0.872844
0.872829
0.872865
0.873082
0.873402
0.873546
0.873543
0.873443
0.873351
0.873318
0.873336
0.873436
0.873742
0.874235
0.874413
0.874472
0.874496
0.874377
0.873848
0.873065
0.872388
0.87203
0.871869
0.871772
0.871748
0.871893
0.872373
0.872881
0.873287
0.873593
0.873545
0.873139
0.872236
0.870839
0.869365
0.86857
0.868526
0.868823
0.868997
0.8684
0.866978
0.86613
0.865924
0.866098
0.866791
0.867444
0.867311
0.866569
0.865697
0.864897
0.864199
0.864072
0.864954
0.867789
0.87456
0.887816
0.908958
0.930318
0.941246
0.94817
0.952836
0.956365
0.95924
0.961236
0.963742
0.971923
0.987788
1.00711
1.02547
1.0376
1.04368
1.0432
1.04172
1.03821
1.02997
1.01654
1.00127
0.981942
0.861621
0.862086
0.862199
0.862293
0.862547
0.863264
0.864763
0.866212
0.866383
0.866219
0.86644
0.867712
0.869557
0.870441
0.870386
0.870048
0.869899
0.86998
0.870107
0.870095
0.870087
0.870145
0.870056
0.869934
0.869897
0.869997
0.87043
0.870756
0.870806
0.870767
0.870762
0.870913
0.871192
0.871564
0.872182
0.873231
0.874814
0.876244
0.876748
0.876761
0.876549
0.875884
0.874817
0.873649
0.872576
0.871866
0.871634
0.871664
0.871955
0.872667
0.87365
0.87475
0.87586
0.875916
0.875233
0.873829
0.872136
0.870759
0.870324
0.870417
0.870197
0.869318
0.868593
0.868649
0.868697
0.868204
0.867277
0.866589
0.86624
0.865923
0.865345
0.864265
0.862919
0.862512
0.863512
0.866724
0.873594
0.886109
0.905902
0.927401
0.94073
0.948964
0.953234
0.955783
0.957855
0.960534
0.963403
0.966326
0.972077
0.981603
0.995085
1.00937
1.01919
1.02777
1.03004
1.02829
1.02412
1.01596
1.00217
0.982332
0.857217
0.857542
0.857814
0.858175
0.858622
0.858965
0.859833
0.86192
0.862677
0.862587
0.862789
0.864061
0.865581
0.866108
0.866009
0.86564
0.865513
0.865577
0.865801
0.866024
0.866108
0.866165
0.866577
0.866996
0.866992
0.867107
0.867608
0.868039
0.868155
0.868113
0.868028
0.868021
0.86815
0.868758
0.870069
0.871949
0.874131
0.875893
0.876484
0.876646
0.876734
0.876585
0.875971
0.875032
0.874094
0.873286
0.872484
0.87167
0.871486
0.871707
0.872432
0.87381
0.875391
0.875888
0.875516
0.874811
0.874381
0.873825
0.872497
0.870359
0.868709
0.868495
0.868907
0.869779
0.869945
0.869311
0.867813
0.866208
0.865369
0.865064
0.864669
0.863872
0.86287
0.862542
0.863435
0.866353
0.872553
0.883921
0.902307
0.924068
0.939552
0.949064
0.953674
0.956142
0.958466
0.961447
0.963813
0.966192
0.971137
0.976098
0.98074
0.98727
0.993271
1.00118
1.0115
1.01641
1.01707
1.01438
1.00166
0.980744
0.860796
0.861158
0.861456
0.861691
0.862325
0.862891
0.863397
0.864354
0.865298
0.865341
0.864986
0.864514
0.864368
0.864422
0.864464
0.864477
0.864693
0.864793
0.864776
0.864666
0.864276
0.863915
0.863857
0.863701
0.863451
0.86367
0.864318
0.864414
0.864174
0.863287
0.862331
0.862224
0.862298
0.862617
0.863426
0.864861
0.866717
0.86843
0.87002
0.871986
0.873926
0.874552
0.874373
0.873769
0.872983
0.872358
0.871846
0.871142
0.870076
0.869519
0.869539
0.870219
0.871928
0.873786
0.874293
0.874139
0.874096
0.873734
0.872519
0.870368
0.869103
0.869151
0.869711
0.87061
0.870755
0.87012
0.868584
0.866805
0.865724
0.86519
0.864747
0.864318
0.863741
0.863455
0.864101
0.866378
0.871334
0.881079
0.898058
0.920102
0.937327
0.948047
0.953727
0.956979
0.959846
0.962739
0.965035
0.966809
0.971191
0.975956
0.978887
0.980813
0.983113
0.985853
0.99197
1.00033
1.00238
1.00043
0.989446
0.975947
0.858558
0.858954
0.85912
0.859187
0.859281
0.859445
0.859957
0.860824
0.86115
0.860853
0.858643
0.856447
0.856226
0.856388
0.856891
0.857072
0.857234
0.857707
0.858755
0.859838
0.86031
0.860483
0.860868
0.862413
0.86419
0.864393
0.863982
0.863799
0.86389
0.863629
0.862436
0.860603
0.858742
0.857389
0.857118
0.857082
0.856796
0.856639
0.856818
0.858398
0.862563
0.866761
0.867788
0.867583
0.86718
0.867124
0.867441
0.86757
0.867019
0.86591
0.865011
0.865142
0.866103
0.866993
0.86738
0.867813
0.86855
0.869021
0.869218
0.869253
0.869341
0.869859
0.870442
0.870661
0.870119
0.869344
0.868546
0.867649
0.866563
0.865163
0.863768
0.863664
0.86439
0.864537
0.864729
0.866171
0.87004
0.877929
0.892789
0.91487
0.93406
0.946719
0.953978
0.958558
0.961794
0.964125
0.966001
0.967885
0.971916
0.976612
0.978795
0.980395
0.981828
0.982818
0.983685
0.986647
0.988306
0.986515
0.977063
0.971537
0.8579
0.858989
0.859581
0.859865
0.859964
0.859912
0.859419
0.859215
0.859261
0.859122
0.85781
0.855836
0.85527
0.854948
0.854703
0.854689
0.854906
0.856129
0.85854
0.861108
0.862933
0.864444
0.866728
0.869546
0.870777
0.870879
0.870847
0.870433
0.869588
0.868881
0.868216
0.867221
0.865517
0.863376
0.860442
0.856665
0.855039
0.854814
0.855019
0.857062
0.862041
0.864265
0.864275
0.863714
0.863522
0.864026
0.866179
0.868514
0.868637
0.8678
0.86704
0.866368
0.865442
0.864798
0.864784
0.864391
0.863083
0.862837
0.863145
0.864452
0.86701
0.868658
0.868674
0.867496
0.865266
0.864527
0.864954
0.865683
0.865722
0.864676
0.863157
0.863027
0.863794
0.864538
0.864932
0.866402
0.870051
0.876085
0.887268
0.90746
0.929349
0.945154
0.954387
0.959838
0.963561
0.966324
0.967789
0.96943
0.973417
0.978815
0.98037
0.980572
0.981685
0.982772
0.98348
0.982926
0.979258
0.971257
0.958781
0.95649
0.884066
0.884127
0.884261
0.884359
0.884477
0.884271
0.882993
0.881146
0.880158
0.879687
0.878767
0.878295
0.877089
0.871955
0.869151
0.868875
0.869128
0.870468
0.873659
0.877001
0.879137
0.881046
0.883718
0.885938
0.886365
0.885709
0.885613
0.885842
0.885315
0.883222
0.882406
0.882594
0.882641
0.882298
0.881024
0.876438
0.872998
0.872982
0.873227
0.872056
0.868189
0.865548
0.864941
0.864779
0.864551
0.864917
0.866976
0.868275
0.869
0.869949
0.870382
0.870073
0.869723
0.869152
0.867928
0.865102
0.862416
0.861851
0.861826
0.862194
0.863637
0.865333
0.865116
0.863442
0.861162
0.860181
0.86066
0.861824
0.862126
0.861731
0.861158
0.860808
0.861189
0.862113
0.863412
0.865898
0.869887
0.875429
0.88422
0.899935
0.923066
0.941963
0.954782
0.961662
0.965569
0.968142
0.969501
0.971713
0.976141
0.981017
0.982491
0.982563
0.98349
0.98437
0.984698
0.983391
0.9763
0.961495
0.944007
0.941733
0.92873
0.929131
0.930006
0.93075
0.930903
0.930873
0.93051
0.929786
0.92853
0.927124
0.926593
0.925484
0.919441
0.912553
0.911957
0.911325
0.908223
0.904025
0.903574
0.904002
0.904116
0.90374
0.902854
0.902359
0.901136
0.896
0.890396
0.890092
0.889911
0.888149
0.887704
0.888319
0.887661
0.887777
0.890023
0.891041
0.891416
0.892602
0.894797
0.894495
0.890354
0.883149
0.878483
0.877659
0.877781
0.877566
0.87568
0.872158
0.870442
0.870115
0.870182
0.869875
0.870049
0.871648
0.873266
0.874024
0.873481
0.869588
0.864111
0.862672
0.862524
0.862869
0.863452
0.863154
0.862042
0.860676
0.860365
0.860653
0.86112
0.861133
0.860559
0.85895
0.857727
0.857827
0.859791
0.863276
0.867107
0.871625
0.880123
0.894054
0.91443
0.936112
0.952148
0.962592
0.967758
0.969834
0.970634
0.973213
0.978203
0.983126
0.984624
0.984573
0.984743
0.985123
0.985356
0.983848
0.975349
0.956905
0.934291
0.927967
0.969027
0.968696
0.967799
0.967582
0.968682
0.969894
0.969859
0.970247
0.973186
0.975518
0.976367
0.975304
0.97294
0.972888
0.975019
0.976113
0.974615
0.968374
0.966749
0.967378
0.966347
0.961269
0.95899
0.959185
0.959072
0.956638
0.950797
0.94769
0.944796
0.940483
0.938555
0.93718
0.935225
0.930789
0.923209
0.916598
0.912924
0.912629
0.913853
0.913462
0.909084
0.906848
0.909087
0.911916
0.911922
0.910286
0.906342
0.900674
0.894871
0.88927
0.883433
0.878481
0.876284
0.876255
0.879168
0.883448
0.883204
0.880205
0.874487
0.867917
0.865621
0.86614
0.867518
0.867549
0.865805
0.862517
0.860967
0.860669
0.860941
0.861032
0.860226
0.858263
0.856239
0.855665
0.857127
0.859942
0.863225
0.8669
0.874432
0.88661
0.903832
0.926528
0.947008
0.960515
0.968406
0.971797
0.97376
0.975946
0.979967
0.985616
0.988022
0.988273
0.988273
0.98835
0.988206
0.985561
0.974877
0.953298
0.928995
0.919646
1.04855
1.04663
1.04601
1.04597
1.04647
1.04809
1.0494
1.04949
1.04859
1.04643
1.04457
1.04375
1.04308
1.04244
1.04203
1.04052
1.03466
1.03203
1.03256
1.03121
1.02447
1.01961
1.01755
1.0156
1.01472
1.01471
1.01418
1.01038
1.00913
1.00877
1.00459
1.00002
1.00023
0.999324
0.994925
0.987361
0.980978
0.976663
0.972623
0.966427
0.961407
0.958791
0.953145
0.946533
0.945808
0.944407
0.939376
0.938292
0.940305
0.939896
0.934267
0.921368
0.910351
0.907844
0.90617
0.900164
0.893737
0.893341
0.893094
0.889128
0.885969
0.886695
0.886454
0.884345
0.879609
0.873734
0.868109
0.86367
0.862585
0.862367
0.860549
0.858056
0.857141
0.859423
0.86148
0.861026
0.860224
0.861613
0.867467
0.877969
0.893648
0.915196
0.938742
0.95577
0.965694
0.972008
0.977668
0.981891
0.983084
0.985851
0.989812
0.992365
0.993232
0.993654
0.993435
0.989635
0.975841
0.950537
0.926282
0.917884
1.1332
1.13313
1.13316
1.1339
1.13441
1.13377
1.12894
1.12629
1.12614
1.12843
1.13249
1.13268
1.13019
1.12817
1.12725
1.12468
1.11962
1.11587
1.11358
1.10903
1.10448
1.1042
1.10541
1.10458
1.09821
1.09292
1.0916
1.09018
1.09038
1.09135
1.08841
1.07759
1.06731
1.06195
1.05848
1.05454
1.05096
1.04785
1.04058
1.03149
1.03101
1.03177
1.03064
1.02369
1.01598
1.01064
1.00655
1.00226
0.996456
0.990401
0.983122
0.969457
0.960892
0.960876
0.962073
0.960094
0.951052
0.937473
0.933089
0.931016
0.925451
0.915669
0.907229
0.900788
0.898721
0.897816
0.895023
0.890308
0.884117
0.876538
0.871555
0.868981
0.868262
0.869433
0.867913
0.865278
0.864081
0.865567
0.867605
0.872329
0.882936
0.899748
0.921386
0.942557
0.959506
0.970278
0.978589
0.985414
0.989609
0.990547
0.992936
0.995297
0.996085
0.996601
0.996524
0.992092
0.975117
0.946831
0.924604
0.91872
1.23375
1.23361
1.23362
1.23403
1.23414
1.23356
1.23129
1.22766
1.22262
1.22016
1.2203
1.22112
1.22099
1.21863
1.21374
1.20844
1.20421
1.20235
1.20127
1.20027
1.1999
1.19909
1.19644
1.19012
1.17984
1.17388
1.17285
1.17109
1.1687
1.16902
1.16918
1.16578
1.15899
1.15068
1.13992
1.13724
1.13746
1.13636
1.13071
1.12225
1.11822
1.11494
1.11025
1.10392
1.09427
1.08284
1.07754
1.07393
1.06899
1.06075
1.0542
1.04665
1.03518
1.02816
1.02606
1.02461
1.02063
1.00619
0.989104
0.982583
0.979688
0.975907
0.969063
0.958749
0.94862
0.937885
0.926718
0.919301
0.913863
0.907989
0.90036
0.893672
0.88767
0.881213
0.876367
0.873773
0.875995
0.878057
0.876363
0.876327
0.882852
0.894174
0.909187
0.927468
0.948889
0.966414
0.976176
0.984274
0.992557
0.999044
1.0041
1.00621
1.0066
1.00572
1.00174
0.99111
0.968724
0.940479
0.9238
0.920788
1.33223
1.33308
1.33325
1.33327
1.33331
1.33107
1.32202
1.31778
1.31753
1.31833
1.32088
1.32136
1.31976
1.31722
1.31357
1.30672
1.30125
1.30058
1.30199
1.30218
1.29826
1.29541
1.2932
1.28463
1.27744
1.27761
1.27664
1.27155
1.2675
1.2625
1.25488
1.25095
1.24817
1.24484
1.23813
1.23
1.225
1.22239
1.21701
1.20329
1.19863
1.19856
1.19685
1.19096
1.18211
1.17474
1.1687
1.16355
1.15604
1.14534
1.1347
1.12643
1.11435
1.09934
1.09606
1.09645
1.09476
1.08702
1.07493
1.05794
1.03838
1.03201
1.02807
1.02026
1.00656
0.996846
0.990039
0.981929
0.968849