/*--------------------------------*- C++ -*----------------------------------*\
  =========                 |
  \\      /  F ield         | OpenFOAM: The Open Source CFD Toolbox
   \\    /   O peration     | Website:  https://openfoam.org
    \\  /    A nd           | Version:  7
     \\/     M anipulation  |
\*---------------------------------------------------------------------------*/
FoamFile
{
    version     2.0;
    format      ascii;
    class       volScalarField;
    location    "1";
    object      T;
}
// * * * * * * * * * * * * * * * * * * * * * * * * * * * * * * * * * * * * * //

dimensions      [0 0 0 1 0 0 0];

internalField   nonuniform List<scalar> 
90000
(
1.02263
1.02444
1.02675
1.02883
1.0314
1.0342
1.03712
1.03965
1.04223
1.04462
1.04729
1.04958
1.05177
1.05358
1.05551
1.0572
1.05889
1.06017
1.06138
1.06235
1.06334
1.06408
1.06485
1.06536
1.06559
1.06586
1.0664
1.06716
1.06809
1.06929
1.07058
1.07211
1.07366
1.07529
1.07691
1.07853
1.08005
1.08143
1.08254
1.08373
1.08404
1.08383
1.0829
1.08136
1.07879
1.07575
1.07315
1.07188
1.07211
1.07275
1.07389
1.07538
1.07675
1.07768
1.07871
1.08062
1.08122
1.08085
1.07971
1.07844
1.07718
1.07727
1.07749
1.0784
1.07893
1.07893
1.07882
1.0786
1.07765
1.07604
1.07407
1.07187
1.07188
1.07263
1.07513
1.07923
1.08443
1.08938
1.09502
1.1014
1.10446
1.10571
1.10628
1.10812
1.10763
1.1062
1.10388
1.09983
1.09297
1.08401
1.07871
1.07407
1.06857
1.06248
1.05575
1.04772
1.04
1.035
1.03102
1.02564
1.02069
1.02082
1.02102
1.02124
1.02152
1.02186
1.02229
1.02276
1.02328
1.02388
1.02457
1.02532
1.02607
1.02681
1.02764
1.0286
1.02963
1.03068
1.03171
1.03272
1.03375
1.03477
1.03582
1.0369
1.03798
1.03885
1.03962
1.04034
1.04106
1.04177
1.04262
1.04357
1.04464
1.04579
1.04706
1.04851
1.05004
1.05169
1.05338
1.05524
1.05696
1.05873
1.06039
1.06199
1.06316
1.06386
1.06366
1.06318
1.06257
1.06228
1.06198
1.06141
1.06127
1.06152
1.06208
1.06328
1.0644
1.06521
1.06577
1.06567
1.06521
1.06471
1.06431
1.06443
1.06464
1.06492
1.06512
1.06541
1.06588
1.06567
1.0645
1.06258
1.06096
1.06118
1.06261
1.06627
1.07182
1.07588
1.08085
1.0883
1.09197
1.09449
1.09631
1.10039
1.10139
1.10069
1.09829
1.09303
1.08414
1.07221
1.06343
1.05679
1.05083
1.04563
1.03938
1.03319
1.02723
1.02205
1.01777
1.0131
1.01857
1.01863
1.01868
1.01876
1.0188
1.01884
1.01893
1.01902
1.0191
1.01916
1.01925
1.0194
1.01952
1.01962
1.01976
1.01994
1.0201
1.02023
1.02042
1.02067
1.02096
1.02127
1.02164
1.02204
1.02248
1.02293
1.02341
1.02394
1.0245
1.02507
1.02571
1.02643
1.0272
1.02802
1.02888
1.02988
1.03097
1.0322
1.03357
1.03497
1.0366
1.0382
1.03982
1.04138
1.04287
1.0439
1.04463
1.04523
1.04592
1.04687
1.04796
1.04858
1.04912
1.0495
1.04991
1.05038
1.05094
1.05152
1.05219
1.05286
1.05322
1.05309
1.05276
1.05223
1.05174
1.05119
1.0512
1.05138
1.05207
1.05301
1.05377
1.05349
1.05227
1.05059
1.05069
1.05301
1.05807
1.06197
1.06687
1.07535
1.07969
1.08225
1.08516
1.08957
1.0942
1.0937
1.09117
1.08533
1.07489
1.06114
1.04962
1.04157
1.03605
1.032
1.02715
1.02299
1.01855
1.01406
1.00967
1.00416
1.01576
1.01584
1.01592
1.01601
1.0161
1.0162
1.0163
1.01638
1.01648
1.01653
1.01657
1.01667
1.01682
1.01696
1.01711
1.0172
1.01719
1.01719
1.01723
1.01728
1.01734
1.0174
1.01741
1.01742
1.01744
1.01748
1.01755
1.01766
1.01776
1.01789
1.01805
1.01828
1.01858
1.01892
1.01927
1.0197
1.02024
1.02095
1.02177
1.02261
1.0237
1.02485
1.02625
1.02764
1.02911
1.03081
1.03227
1.03375
1.03489
1.03579
1.03689
1.03778
1.03872
1.03947
1.04028
1.04118
1.04219
1.0431
1.04365
1.04439
1.04511
1.04529
1.04551
1.04546
1.04536
1.04501
1.04458
1.04412
1.04391
1.04409
1.04435
1.04454
1.04478
1.04478
1.04515
1.04697
1.05068
1.05424
1.05956
1.06813
1.07193
1.07373
1.07607
1.0798
1.08513
1.08764
1.086
1.0798
1.06755
1.05172
1.03823
1.02974
1.02463
1.02163
1.01866
1.01629
1.01338
1.00941
1.0048
0.999207
1.01282
1.01289
1.01297
1.01306
1.01317
1.01327
1.01336
1.01347
1.01359
1.01369
1.0138
1.01394
1.0141
1.01424
1.01437
1.01449
1.0146
1.01472
1.01485
1.01493
1.01498
1.015
1.01501
1.01502
1.01503
1.01507
1.01514
1.01521
1.01525
1.01524
1.01521
1.01521
1.01523
1.01526
1.01531
1.01539
1.01553
1.01576
1.0161
1.01642
1.0168
1.01725
1.01798
1.01884
1.02
1.02139
1.02309
1.02476
1.02671
1.02828
1.03
1.03154
1.03305
1.03431
1.03535
1.03628
1.03722
1.03815
1.03862
1.03923
1.03993
1.04018
1.04041
1.0407
1.04114
1.04137
1.04159
1.04156
1.0414
1.041
1.0404
1.04039
1.04067
1.04145
1.04254
1.04496
1.04854
1.05224
1.05835
1.06622
1.06933
1.07073
1.07236
1.07502
1.07889
1.08193
1.0816
1.07728
1.06422
1.04582
1.03076
1.02217
1.01796
1.01638
1.01487
1.01342
1.01148
1.00779
1.00255
0.997032
1.01085
1.01092
1.01099
1.01108
1.01117
1.01127
1.01137
1.01148
1.01159
1.0117
1.01183
1.01197
1.01211
1.01225
1.01238
1.01253
1.01268
1.01283
1.01297
1.01311
1.0132
1.01327
1.0133
1.01334
1.01339
1.01345
1.01352
1.01357
1.01363
1.01363
1.01362
1.01362
1.01363
1.01363
1.0136
1.01359
1.0136
1.01362
1.01367
1.01373
1.01375
1.01374
1.01377
1.01393
1.01425
1.01475
1.01559
1.01666
1.01809
1.01991
1.02183
1.02417
1.02621
1.02832
1.03014
1.03167
1.0328
1.03435
1.03518
1.03588
1.03684
1.03771
1.03834
1.03916
1.03968
1.03993
1.04011
1.04006
1.03985
1.03947
1.03917
1.03924
1.03957
1.04025
1.04148
1.04393
1.04769
1.05238
1.05977
1.06762
1.07026
1.07173
1.07292
1.07435
1.07715
1.07915
1.07867
1.07459
1.06237
1.04334
1.02799
1.01981
1.01629
1.01534
1.01435
1.01306
1.01141
1.00793
1.00217
0.995884
1.00994
1.00998
1.01003
1.01007
1.01013
1.01021
1.0103
1.01039
1.01049
1.01059
1.0107
1.01081
1.01094
1.01111
1.01131
1.01147
1.01159
1.01172
1.0119
1.01212
1.01231
1.01246
1.01256
1.01263
1.0127
1.01275
1.01279
1.01284
1.0129
1.01298
1.01303
1.01304
1.01305
1.01305
1.01302
1.01292
1.01283
1.01282
1.01284
1.0129
1.01304
1.01324
1.01329
1.01323
1.0132
1.01324
1.0134
1.01367
1.01402
1.01467
1.0156
1.01703
1.01872
1.0208
1.023
1.02546
1.02777
1.03006
1.03238
1.03386
1.03529
1.03686
1.03785
1.03909
1.03951
1.03965
1.03957
1.03898
1.03891
1.03891
1.03896
1.03919
1.03963
1.04023
1.04146
1.0439
1.04763
1.05227
1.05931
1.06824
1.07124
1.0722
1.07339
1.07558
1.07813
1.07883
1.07772
1.07245
1.05973
1.04143
1.02693
1.01924
1.01596
1.01494
1.01437
1.01331
1.01134
1.00783
1.00236
0.99544
1.00925
1.00932
1.00934
1.00934
1.00938
1.00948
1.00959
1.0097
1.00982
1.00995
1.01007
1.0102
1.01037
1.01056
1.01077
1.011
1.01111
1.01119
1.01133
1.01158
1.01187
1.01209
1.01225
1.01233
1.01235
1.01239
1.01246
1.01257
1.01271
1.01284
1.01295
1.01297
1.01294
1.01292
1.01292
1.01293
1.01297
1.01301
1.01305
1.01311
1.0132
1.01331
1.01339
1.01343
1.01345
1.01352
1.01369
1.01393
1.01421
1.01439
1.01458
1.01483
1.0153
1.0161
1.01722
1.01867
1.02072
1.02282
1.02557
1.02804
1.03007
1.03228
1.03378
1.03544
1.03641
1.03737
1.03828
1.03834
1.03882
1.03932
1.03962
1.03975
1.03996
1.04047
1.04172
1.04439
1.04827
1.05272
1.05918
1.06796
1.07092
1.07179
1.07329
1.07641
1.07973
1.07968
1.07781
1.07114
1.05705
1.03884
1.02519
1.01836
1.01564
1.01475
1.01412
1.01302
1.01093
1.00737
1.00215
0.995261
1.00836
1.0085
1.00859
1.00869
1.00885
1.00898
1.00908
1.00914
1.00922
1.00931
1.00941
1.00953
1.00972
1.00993
1.01004
1.01018
1.01039
1.01063
1.01088
1.01114
1.01146
1.01173
1.01188
1.01198
1.01208
1.01222
1.01238
1.01253
1.01265
1.01275
1.01283
1.01293
1.01305
1.01316
1.01325
1.01335
1.01345
1.01357
1.01372
1.01387
1.01398
1.01406
1.01417
1.01427
1.01437
1.01448
1.01463
1.01482
1.01501
1.0151
1.01517
1.01528
1.01535
1.01544
1.01563
1.01604
1.01672
1.01777
1.01922
1.02104
1.02307
1.02526
1.02783
1.03003
1.03251
1.03454
1.03673
1.03834
1.03901
1.03947
1.03989
1.03993
1.03999
1.04059
1.04202
1.04496
1.04946
1.05408
1.05918
1.06686
1.07035
1.07147
1.0733
1.0772
1.0805
1.08047
1.07813
1.0702
1.05452
1.03619
1.02371
1.01782
1.01555
1.01473
1.01403
1.0128
1.01054
1.00692
1.00194
0.995151
1.0083
1.00841
1.00853
1.00866
1.0088
1.0089
1.009
1.00911
1.0092
1.00931
1.00943
1.00959
1.00977
1.00996
1.01018
1.01042
1.0107
1.011
1.01125
1.01145
1.01169
1.01198
1.01222
1.01235
1.01249
1.01268
1.01283
1.01294
1.01305
1.01315
1.01326
1.01339
1.01353
1.01368
1.01386
1.01404
1.01424
1.01447
1.01473
1.015
1.01522
1.01538
1.01552
1.01565
1.01576
1.01586
1.01595
1.01603
1.01608
1.0161
1.0161
1.01606
1.01593
1.01586
1.01589
1.01598
1.01612
1.01639
1.01684
1.01742
1.01814
1.01907
1.02062
1.02241
1.02491
1.02749
1.0301
1.03294
1.0346
1.03579
1.03704
1.03787
1.03908
1.04104
1.04261
1.04537
1.05018
1.05554
1.05965
1.06503
1.06947
1.07139
1.07386
1.07788
1.08079
1.08061
1.07792
1.06905
1.05214
1.03384
1.02291
1.01738
1.01524
1.01458
1.01388
1.01266
1.01037
1.00675
1.00185
0.995152
1.0088
1.0089
1.00902
1.00911
1.00923
1.00932
1.00943
1.00956
1.0097
1.00984
1.01001
1.01017
1.01036
1.01057
1.01083
1.01112
1.0114
1.01167
1.01191
1.01218
1.0125
1.0129
1.01328
1.01346
1.01351
1.01357
1.01367
1.01383
1.01398
1.01412
1.01426
1.01444
1.01462
1.0148
1.01499
1.0152
1.01542
1.01563
1.01586
1.01608
1.01625
1.01636
1.01646
1.01655
1.01656
1.01657
1.0166
1.01662
1.01661
1.01658
1.01654
1.01646
1.01631
1.01615
1.01602
1.01598
1.016
1.01609
1.01625
1.0164
1.01651
1.01661
1.0168
1.0173
1.01832
1.02009
1.0223
1.02528
1.02804
1.03068
1.03323
1.03543
1.03785
1.04029
1.04203
1.04457
1.04948
1.05454
1.05929
1.06405
1.06843
1.07156
1.07486
1.07873
1.08057
1.08019
1.07692
1.06691
1.04924
1.03176
1.02211
1.01749
1.01543
1.01469
1.01398
1.01263
1.01029
1.00675
1.0019
0.995205
1.00916
1.00926
1.00937
1.00951
1.00967
1.0098
1.00994
1.01011
1.01031
1.0105
1.01071
1.01094
1.01115
1.01135
1.01157
1.01183
1.01209
1.01235
1.01263
1.01297
1.01338
1.01375
1.01409
1.01425
1.01431
1.01438
1.01451
1.01469
1.01484
1.01498
1.01513
1.01532
1.01551
1.01568
1.01583
1.01598
1.01612
1.01623
1.01632
1.01641
1.01648
1.01651
1.0165
1.01649
1.01649
1.01652
1.01656
1.01657
1.01655
1.01651
1.01645
1.01637
1.01621
1.01598
1.01575
1.01556
1.0155
1.01549
1.01551
1.01555
1.01553
1.01547
1.01539
1.01541
1.01557
1.01605
1.01692
1.01822
1.02009
1.02229
1.02479
1.0277
1.03029
1.0335
1.03695
1.04111
1.04623
1.0523
1.05834
1.06321
1.06787
1.07174
1.07577
1.07933
1.08029
1.07955
1.07505
1.06347
1.04566
1.0298
1.02159
1.01764
1.01576
1.01497
1.01414
1.01261
1.01023
1.00682
1.00208
0.995325
1.01047
1.01057
1.01068
1.01079
1.01091
1.01103
1.01118
1.01135
1.01154
1.01174
1.01195
1.01217
1.01239
1.01259
1.01281
1.01306
1.01333
1.01359
1.01387
1.01421
1.01458
1.01481
1.01491
1.015
1.01511
1.01528
1.01546
1.01559
1.01566
1.0157
1.01573
1.0158
1.0159
1.01597
1.016
1.01602
1.01604
1.01606
1.01605
1.01603
1.01597
1.01589
1.01575
1.01569
1.01569
1.01572
1.01577
1.01579
1.01578
1.01575
1.0157
1.01561
1.01544
1.01516
1.01484
1.01453
1.01427
1.01417
1.01417
1.01423
1.01441
1.01452
1.01452
1.01452
1.01463
1.0148
1.01489
1.01494
1.0152
1.01573
1.01676
1.01875
1.02143
1.02481
1.03026
1.03685
1.04248
1.05038
1.05709
1.06153
1.06656
1.07138
1.07593
1.07908
1.07923
1.07755
1.0713
1.0585
1.04154
1.02799
1.02114
1.01773
1.01598
1.01505
1.01404
1.0125
1.0102
1.00682
1.00214
0.995372
1.01138
1.01146
1.01154
1.01162
1.0117
1.01179
1.0119
1.01202
1.01215
1.01228
1.01241
1.01254
1.01267
1.0128
1.01294
1.01309
1.01327
1.01348
1.01371
1.01394
1.01415
1.01435
1.01454
1.01468
1.01474
1.01482
1.01491
1.01501
1.0151
1.01509
1.01505
1.01504
1.01506
1.01508
1.01508
1.01505
1.015
1.01494
1.01487
1.01478
1.01468
1.01458
1.01441
1.01424
1.01422
1.01422
1.01421
1.01417
1.01413
1.01409
1.01403
1.01396
1.0138
1.01356
1.01326
1.01295
1.01272
1.01269
1.01272
1.01285
1.01311
1.01341
1.01367
1.01382
1.01385
1.01384
1.01371
1.01345
1.01312
1.0126
1.01243
1.01273
1.01377
1.01601
1.02033
1.02611
1.03361
1.04467
1.05388
1.05763
1.0636
1.07047
1.07596
1.07788
1.07736
1.07453
1.067
1.05376
1.03813
1.02671
1.02082
1.01782
1.01612
1.01504
1.01396
1.01242
1.01013
1.00673
1.00205
0.995336
1.01124
1.01127
1.01131
1.01136
1.0114
1.01144
1.01149
1.01154
1.01159
1.01165
1.0117
1.01177
1.01184
1.01192
1.012
1.01208
1.0122
1.01239
1.01254
1.01265
1.01276
1.01289
1.01306
1.01325
1.01341
1.01352
1.01361
1.01368
1.01375
1.01375
1.01371
1.01365
1.01363
1.01363
1.01362
1.01357
1.01351
1.01341
1.01327
1.01309
1.01289
1.01269
1.01244
1.01215
1.0119
1.01173
1.01167
1.01168
1.0117
1.01171
1.01178
1.01188
1.01191
1.01191
1.0119
1.01179
1.01159
1.01146
1.01146
1.01158
1.01184
1.01219
1.01258
1.01283
1.01285
1.01276
1.01244
1.01198
1.01152
1.01098
1.01062
1.01046
1.01053
1.01114
1.01327
1.01755
1.02539
1.03477
1.04511
1.05327
1.06043
1.0696
1.07485
1.0754
1.07493
1.07187
1.06384
1.05049
1.03598
1.02597
1.0206
1.01782
1.0162
1.01497
1.01386
1.01241
1.0101
1.00652
1.00178
0.995256
1.01035
1.01038
1.01038
1.01039
1.01041
1.0104
1.0104
1.0104
1.0104
1.01041
1.01045
1.01045
1.01045
1.0105
1.01051
1.01055
1.01078
1.01086
1.01089
1.01094
1.011
1.01107
1.01118
1.01129
1.01137
1.01145
1.01152
1.01158
1.01165
1.01176
1.01182
1.01179
1.01172
1.01168
1.01165
1.01161
1.01154
1.01143
1.01132
1.01119
1.01104
1.01084
1.01062
1.01034
1.01002
1.00978
1.00973
1.00974
1.0098
1.00991
1.01008
1.01029
1.0106
1.01089
1.01096
1.01097
1.01096
1.01091
1.01084
1.01087
1.01108
1.01147
1.01193
1.01213
1.01205
1.01174
1.01118
1.01052
1.00998
1.00954
1.00909
1.00907
1.00913
1.00936
1.01045
1.01308
1.01841
1.02659
1.03675
1.0467
1.05331
1.06146
1.07023
1.07191
1.07132
1.06854
1.06103
1.04814
1.03451
1.02534
1.02066
1.01811
1.01636
1.01502
1.01384
1.0124
1.01001
1.00629
1.00151
0.995204
1.00906
1.00911
1.00916
1.00919
1.00921
1.00923
1.00925
1.00928
1.00932
1.00935
1.00935
1.00931
1.0093
1.00933
1.00935
1.00939
1.0094
1.00938
1.00932
1.0093
1.00931
1.00937
1.0094
1.00939
1.00936
1.00936
1.00938
1.00944
1.00953
1.00964
1.00973
1.00977
1.0098
1.00987
1.01
1.01012
1.0102
1.01024
1.01024
1.01021
1.01014
1.01004
1.00992
1.00972
1.00945
1.0092
1.00906
1.00904
1.00906
1.00914
1.00924
1.00939
1.0097
1.01011
1.01049
1.01077
1.01088
1.01088
1.01077
1.0106
1.01061
1.01066
1.01075
1.01079
1.0107
1.01041
1.00986
1.00913
1.00859
1.00827
1.00802
1.00803
1.00815
1.00853
1.00954
1.01179
1.01589
1.0224
1.03099
1.03911
1.04603
1.05366
1.06438
1.06782
1.06623
1.0626
1.05485
1.04364
1.03228
1.02472
1.02093
1.0186
1.01674
1.01518
1.01386
1.01225
1.00976
1.0061
1.00143
0.995201
1.00779
1.00785
1.00792
1.00799
1.00805
1.00811
1.00818
1.00823
1.00827
1.00834
1.00844
1.00845
1.00847
1.00853
1.00863
1.00869
1.00868
1.00861
1.00855
1.00856
1.00862
1.00863
1.00861
1.00852
1.00843
1.0084
1.00841
1.00846
1.00854
1.00863
1.00868
1.00873
1.00883
1.00896
1.00909
1.00922
1.00935
1.0094
1.0094
1.00938
1.00936
1.00932
1.00926
1.00914
1.00903
1.00898
1.00896
1.00894
1.00895
1.00901
1.00915
1.0094
1.00976
1.01018
1.01061
1.01085
1.01087
1.01079
1.01049
1.00995
1.00939
1.00918
1.00917
1.00921
1.00919
1.00904
1.00867
1.00804
1.00769
1.00759
1.00754
1.00756
1.00775
1.00824
1.00932
1.01139
1.01504
1.02114
1.02954
1.03667
1.04111
1.04563
1.05273
1.05772
1.05747
1.05482
1.0479
1.03907
1.0309
1.02448
1.02098
1.01871
1.01674
1.01516
1.01374
1.01198
1.00947
1.00597
1.00143
0.995179
1.00698
1.00706
1.00715
1.00724
1.00734
1.00743
1.00751
1.00759
1.0077
1.00789
1.00806
1.00814
1.00822
1.00833
1.00844
1.00848
1.00847
1.00843
1.00841
1.00843
1.00852
1.00854
1.00852
1.00842
1.00835
1.00835
1.0084
1.00844
1.00843
1.00841
1.00845
1.0086
1.0088
1.00898
1.00913
1.00927
1.00943
1.00949
1.00948
1.00948
1.00949
1.00956
1.00968
1.00971
1.00969
1.00967
1.00965
1.00958
1.00944
1.00936
1.00936
1.00945
1.00965
1.00988
1.00999
1.01
1.00996
1.00981
1.00949
1.00903
1.00847
1.00791
1.00758
1.00756
1.00754
1.0075
1.00749
1.00752
1.0075
1.00754
1.00762
1.00768
1.00795
1.00847
1.00943
1.01129
1.01466
1.0206
1.02929
1.03675
1.03928
1.04053
1.04266
1.0463
1.04713
1.04438
1.0396
1.03431
1.02869
1.02363
1.02039
1.01796
1.01634
1.01493
1.01336
1.01158
1.00932
1.006
1.00141
0.995097
1.00701
1.00711
1.00722
1.00734
1.00746
1.00757
1.00768
1.00777
1.00788
1.00803
1.00823
1.0084
1.00852
1.0086
1.00864
1.00867
1.00866
1.00863
1.00861
1.00861
1.0086
1.00861
1.0086
1.00859
1.0086
1.00865
1.00874
1.00876
1.00876
1.00879
1.00889
1.00902
1.00912
1.00926
1.00942
1.00956
1.00966
1.00974
1.00976
1.00971
1.00967
1.00969
1.00971
1.00967
1.00958
1.00944
1.00932
1.00922
1.00913
1.00897
1.00879
1.00869
1.00868
1.00869
1.00866
1.00858
1.00849
1.00844
1.00836
1.00818
1.00773
1.00694
1.00638
1.00633
1.00634
1.00644
1.00677
1.00724
1.00761
1.00778
1.00781
1.00789
1.00827
1.00887
1.00981
1.01148
1.01459
1.02036
1.02926
1.03649
1.03822
1.03823
1.03772
1.03622
1.03409
1.03048
1.02702
1.02456
1.0223
1.01991
1.01857
1.01773
1.0168
1.01544
1.01358
1.01155
1.00931
1.00597
1.00126
0.995009
1.00699
1.00709
1.0072
1.00731
1.00743
1.00756
1.00772
1.00791
1.00808
1.00827
1.00851
1.00873
1.00889
1.00897
1.00899
1.00897
1.00895
1.00895
1.00893
1.00888
1.00885
1.00883
1.00881
1.00881
1.00883
1.00893
1.00903
1.00905
1.00907
1.00911
1.00912
1.00911
1.00917
1.00938
1.00945
1.00945
1.0094
1.00929
1.00919
1.00907
1.00893
1.00883
1.00873
1.0086
1.00852
1.00848
1.00843
1.00838
1.00839
1.0084
1.00838
1.00824
1.00801
1.00788
1.00776
1.00756
1.00729
1.00718
1.00718
1.00731
1.00731
1.00706
1.00642
1.00603
1.00603
1.00619
1.00678
1.00767
1.00803
1.00807
1.0081
1.00828
1.00875
1.00939
1.01016
1.01159
1.01447
1.01997
1.02869
1.03578
1.03674
1.03643
1.03521
1.03226
1.02664
1.01898
1.01278
1.01233
1.01302
1.01516
1.0172
1.01719
1.01664
1.0154
1.01366
1.01165
1.00935
1.00553
1.00084
0.994941
1.00587
1.00591
1.00595
1.00603
1.00621
1.00656
1.00671
1.00667
1.00667
1.00687
1.00731
1.00771
1.00805
1.00826
1.00828
1.00826
1.00823
1.00823
1.00825
1.00826
1.00825
1.00822
1.00818
1.00818
1.00819
1.00826
1.00836
1.00841
1.00841
1.00838
1.00834
1.0083
1.0083
1.00832
1.0084
1.00855
1.00862
1.00865
1.00866
1.00863
1.00848
1.00822
1.00796
1.0078
1.0077
1.00764
1.00762
1.00765
1.00779
1.00796
1.00814
1.00831
1.00831
1.00819
1.0079
1.00743
1.00696
1.00675
1.00676
1.00697
1.00714
1.00699
1.00659
1.00654
1.00658
1.00677
1.0073
1.00795
1.00816
1.0083
1.00852
1.00878
1.00912
1.00954
1.01026
1.01171
1.01445
1.01942
1.0276
1.03454
1.03506
1.03445
1.0324
1.02847
1.02248
1.01468
1.00625
1.00172
1.00245
1.00502
1.00842
1.01102
1.01239
1.01222
1.01182
1.01088
1.00861
1.00486
1.00051
0.994928
1.00406
1.00421
1.00424
1.00427
1.00435
1.00458
1.00508
1.00557
1.00563
1.00558
1.00565
1.00606
1.00668
1.007
1.00699
1.00687
1.00681
1.00683
1.00685
1.00683
1.00681
1.00682
1.00679
1.00674
1.00672
1.00675
1.00688
1.00699
1.00701
1.00701
1.00701
1.00707
1.00718
1.00732
1.00755
1.00795
1.00853
1.00904
1.0092
1.0092
1.00912
1.00889
1.0085
1.00805
1.00762
1.00734
1.00725
1.00726
1.00736
1.00763
1.00803
1.00848
1.00892
1.00896
1.00877
1.00838
1.0079
1.00753
1.00748
1.00766
1.00771
1.00755
1.00754
1.00774
1.00799
1.00805
1.00806
1.00816
1.00841
1.00878
1.00914
1.00935
1.00947
1.00965
1.01033
1.01184
1.01444
1.01881
1.02602
1.03267
1.03329
1.03239
1.02964
1.02498
1.01866
1.01153
1.00445
0.998761
0.996859
0.997545
0.999894
1.00318
1.00565
1.00786
1.00857
1.00812
1.00698
1.0047
1.00077
0.99504
1.00252
1.00262
1.00271
1.00283
1.00297
1.00308
1.00337
1.00405
1.0043
1.00427
1.00434
1.00476
1.00524
1.0054
1.00536
1.00524
1.00519
1.00521
1.00527
1.00532
1.00534
1.00534
1.00546
1.00557
1.00556
1.0056
1.00575
1.00588
1.00593
1.00593
1.00593
1.00595
1.00604
1.00631
1.00682
1.0075
1.00827
1.00885
1.00901
1.00904
1.00907
1.00902
1.00879
1.00844
1.00808
1.00777
1.0075
1.00728
1.00726
1.00738
1.00773
1.00831
1.00893
1.00915
1.00906
1.00893
1.00893
1.00891
1.00866
1.00813
1.00784
1.0079
1.00823
1.00889
1.0092
1.00919
1.00902
1.0089
1.00899
1.00931
1.00971
1.00997
1.01012
1.01024
1.01076
1.01198
1.01414
1.01776
1.02388
1.03017
1.03095
1.02989
1.02677
1.02177
1.01559
1.00905
1.00272
0.997893
0.99613
0.995597
0.9958
0.996922
0.998326
1.00042
1.0033
1.00477
1.00502
1.00427
1.00064
0.994583
1.00364
1.00376
1.00386
1.00393
1.00414
1.00432
1.00449
1.0048
1.0051
1.00511
1.00498
1.00483
1.00476
1.00476
1.00477
1.00476
1.00483
1.00487
1.00487
1.00484
1.00471
1.00458
1.00452
1.00442
1.00433
1.0044
1.00462
1.00466
1.00458
1.00428
1.00406
1.00409
1.00417
1.00438
1.00476
1.00529
1.00589
1.0064
1.00688
1.00751
1.0082
1.00845
1.0084
1.0082
1.00792
1.0077
1.00758
1.00745
1.00728
1.00727
1.00733
1.00764
1.00824
1.0089
1.00913
1.00915
1.00931
1.00939
1.00931
1.009
1.00883
1.00893
1.00936
1.0101
1.01037
1.01034
1.01018
1.01005
1.01006
1.01023
1.01049
1.01076
1.01095
1.01099
1.01126
1.01203
1.01347
1.01613
1.0211
1.02703
1.02795
1.02684
1.02369
1.01879
1.01299
1.00702
1.00153
0.997274
0.995797
0.995404
0.99513
0.995124
0.995423
0.996062
0.997759
1.00021
1.00087
1.00032
0.997136
0.993174
1.00281
1.00294
1.00299
1.00301
1.00304
1.00309
1.00327
1.00357
1.00368
1.00358
1.00282
1.00211
1.00206
1.00211
1.0023
1.00237
1.00244
1.0026
1.00296
1.00331
1.00344
1.00348
1.00359
1.00409
1.00471
1.0048
1.00468
1.00464
1.00468
1.00459
1.00422
1.00367
1.00318
1.00289
1.00287
1.00288
1.00278
1.0027
1.00275
1.00328
1.00472
1.00624
1.00667
1.00661
1.00651
1.00651
1.00666
1.00679
1.00673
1.00659
1.00648
1.00656
1.00696
1.00741
1.00767
1.00791
1.00827
1.00865
1.00901
1.00936
1.00961
1.00998
1.0105
1.01094
1.01091
1.01088
1.01094
1.01104
1.01104
1.01094
1.01085
1.01096
1.0114
1.01144
1.01144
1.01169
1.0124
1.01396
1.01752
1.02306
1.02443
1.02346
1.02059
1.01615
1.01085
1.00536
1.00049
0.996964
0.995668
0.995428
0.995065
0.995
0.995071
0.995196
0.995422
0.996312
0.996842
0.996344
0.993563
0.991893
1.00267
1.00303
1.00326
1.00339
1.00343
1.00341
1.00325
1.00321
1.00323
1.00317
1.00268
1.00202
1.00192
1.00186
1.00183
1.00183
1.00192
1.00235
1.00316
1.00403
1.00463
1.00508
1.00576
1.00679
1.00745
1.00756
1.00759
1.00751
1.00729
1.00709
1.00686
1.00651
1.00594
1.00523
1.00425
1.00295
1.0024
1.00234
1.00242
1.00314
1.00493
1.00599
1.00605
1.00591
1.00588
1.0061
1.00696
1.00798
1.0081
1.00789
1.00771
1.0076
1.00744
1.00742
1.0076
1.00761
1.00743
1.00751
1.0078
1.00853
1.00966
1.01061
1.01075
1.01054
1.01018
1.01019
1.0105
1.01115
1.01139
1.01128
1.01104
1.01106
1.01134
1.01138
1.01112
1.01105
1.01127
1.01178
1.01345
1.01785
1.02049
1.01988
1.01747
1.01357
1.00896
1.00429
0.999896
0.996828
0.995858
0.995898
0.995578
0.995036
0.995071
0.995207
0.995396
0.995258
0.994242
0.991942
0.988207
0.987475
1.0118
1.01182
1.01188
1.01193
1.01198
1.01192
1.01153
1.011
1.01076
1.01063
1.01031
1.01015
1.00976
1.00812
1.00708
1.00694
1.00701
1.00743
1.00845
1.00956
1.01026
1.01078
1.0115
1.01246
1.0129
1.01288
1.01302
1.01321
1.01308
1.01245
1.01216
1.01221
1.01221
1.01208
1.01156
1.00981
1.00882
1.00893
1.00918
1.00899
1.00807
1.00729
1.00705
1.00701
1.007
1.00723
1.00819
1.00888
1.00922
1.00956
1.00972
1.00966
1.00965
1.00963
1.00945
1.00874
1.00811
1.00809
1.00822
1.00861
1.00952
1.01034
1.01031
1.00985
1.00941
1.00936
1.00967
1.01039
1.01068
1.01062
1.01047
1.01028
1.0103
1.01025
1.01005
1.00989
1.00963
1.00953
1.00998
1.01215
1.01588
1.01591
1.01447
1.01135
1.00741
1.00335
0.999484
0.997038
0.996466
0.996455
0.99615
0.995589
0.995584
0.995686
0.995777
0.995419
0.993408
0.989099
0.983832
0.983087
1.02652
1.02678
1.02721
1.02754
1.02761
1.0276
1.02751
1.02738
1.02716
1.02682
1.02665
1.02628
1.0243
1.02214
1.02201
1.02184
1.02087
1.01943
1.01923
1.01932
1.01933
1.01917
1.01889
1.01877
1.01842
1.01679
1.01524
1.01526
1.01524
1.01471
1.01457
1.01476
1.01454
1.01455
1.01519
1.01544
1.01558
1.01612
1.0172
1.01726
1.01627
1.01423
1.01275
1.0125
1.01258
1.01256
1.01208
1.01111
1.01063
1.01051
1.01054
1.01049
1.01064
1.0114
1.01226
1.01272
1.0126
1.01147
1.00992
1.00971
1.00976
1.00999
1.01032
1.01031
1.01018
1.00998
1.01
1.01027
1.01057
1.01056
1.01026
1.00939
1.00834
1.00776
1.00767
1.00757
1.00694
1.00576
1.00585
1.00698
1.00978
1.01151
1.01087
1.00908
1.0061
1.00253
0.999013
0.997105
0.996922
0.996966
0.996706
0.99616
0.995923
0.995932
0.995992
0.995582
0.993158
0.987755
0.980932
0.978936
1.04022
1.04018
1.03993
1.03985
1.04018
1.04056
1.04055
1.04067
1.04157
1.04231
1.04256
1.04224
1.04149
1.04146
1.04209
1.04241
1.04195
1.04004
1.03955
1.03974
1.0394
1.03785
1.03732
1.03744
1.03744
1.03677
1.03508
1.03427
1.03347
1.0322
1.03178
1.03153
1.03109
1.02982
1.02736
1.02509
1.02394
1.02389
1.02435
1.02428
1.02305
1.02247
1.02324
1.02423
1.02426
1.02381
1.02274
1.02124
1.01966
1.01798
1.01601
1.01431
1.01371
1.01375
1.01486
1.01645
1.01643
1.01562
1.01403
1.01213
1.01148
1.01168
1.01226
1.01237
1.01194
1.01103
1.01054
1.01042
1.01046
1.0104
1.00992
1.00871
1.00695
1.00578
1.00522
1.00456
1.00338
1.0013
1.00077
1.00129
1.00284
1.00583
1.00691
1.0062
1.00451
1.00193
0.999352
0.997589
0.997313
0.997642
0.997584
0.997217
0.996947
0.99691
0.996863
0.996117
0.993043
0.986686
0.979324
0.976404
1.06464
1.06427
1.06413
1.06413
1.06428
1.06481
1.06528
1.06532
1.06507
1.06452
1.06412
1.06394
1.06377
1.06359
1.06347
1.06303
1.0613
1.06053
1.06068
1.06024
1.05815
1.05682
1.05641
1.05599
1.05572
1.0557
1.05554
1.0544
1.05401
1.05387
1.05257
1.05124
1.05133
1.05107
1.04976
1.04756
1.04583
1.0447
1.04357
1.04169
1.04027
1.03964
1.03809
1.03621
1.03607
1.03568
1.03415
1.03387
1.03456
1.03445
1.03271
1.0286
1.02516
1.02459
1.02422
1.02249
1.02059
1.02053
1.0205
1.01934
1.01852
1.0188
1.01872
1.01803
1.01652
1.0147
1.01286
1.01116
1.01049
1.01024
1.00938
1.00762
1.00599
1.00558
1.00477
1.00273
0.999779
0.996648
0.995033
0.995208
0.996465
0.999119
1.00239
1.00286
1.00219
1.00094
0.999951
0.999119
0.997951
0.9978
0.998057
0.99831
0.998382
0.998471
0.998415
0.997338
0.993346
0.98586
0.97848
0.975861
1.08988
1.08986
1.08987
1.09007
1.09021
1.09003
1.08869
1.08793
1.08789
1.08852
1.08962
1.08966
1.08893
1.08844
1.08827
1.08764
1.0863
1.08531
1.0847
1.08344
1.08213
1.08204
1.08236
1.08211
1.08022
1.07876
1.0785
1.07822
1.07835
1.07875
1.07801
1.07512
1.07223
1.07059
1.06951
1.0684
1.06756
1.06687
1.06499
1.06233
1.06213
1.06231
1.06197
1.05993
1.0577
1.05619
1.05506
1.05389
1.05225
1.05054
1.04844
1.04436
1.04181
1.04184
1.04226
1.0417
1.03895
1.03465
1.03339
1.03291
1.03141
1.02851
1.02573
1.02344
1.02258
1.02213
1.021
1.01918
1.01694
1.01422
1.01172
1.0094
1.00783
1.00674
1.00469
1.00143
0.998155
0.995361
0.99222
0.990265
0.990358
0.991623
0.994488
0.997402
0.999277
0.999564
0.999758
0.999795
0.999645
0.999005
0.99901
0.999205
0.999252
0.999346
0.999331
0.998076
0.993159
0.984749
0.977948
0.976112
1.11748
1.11746
1.11746
1.11757
1.1176
1.11746
1.11688
1.11597
1.11471
1.11415
1.1142
1.11444
1.1144
1.11379
1.11251
1.11109
1.10996
1.10954
1.10933
1.10911
1.10903
1.10884
1.10816
1.10648
1.10374
1.10217
1.10192
1.10145
1.1008
1.10088
1.10092
1.10001
1.09821
1.09603
1.09315
1.09241
1.09246
1.09215
1.09054
1.08825
1.08741
1.08674
1.08562
1.08392
1.08119
1.07792
1.07645
1.07545
1.07407
1.0717
1.06981
1.06757
1.06404
1.06207
1.06171
1.06147
1.06052
1.05636
1.05115
1.04897
1.048
1.04682
1.04472
1.0415
1.03825
1.03464
1.03065
1.02769
1.02535
1.02274
1.01922
1.01563
1.01212
1.0083
1.00424
1.00072
0.998831
0.996488
0.992316
0.988414
0.98768
0.98796
0.989049
0.991338
0.994955
0.997746
0.998545
0.99927
1.00039
1.00131
1.00209
1.00234
1.00235
1.00203
1.00085
0.997805
0.991286
0.982819
0.977679
0.976733
1.14306
1.14328
1.14332
1.14333
1.14334
1.14278
1.14053
1.13954
1.13949
1.1397
1.14035
1.14047
1.14008
1.13948
1.1386
1.13692
1.13552
1.13533
1.13567
1.1357
1.13467
1.13398
1.13349
1.13143
1.12963
1.12966
1.1294
1.12808
1.12708
1.12589
1.12403
1.12307
1.12238
1.12154
1.11986
1.11781
1.11657
1.11593
1.11453
1.11092
1.10973
1.10974
1.1093
1.10774
1.10539
1.10347
1.10192
1.10062
1.09865
1.09577
1.09288
1.09064
1.08733
1.08315
1.08217
1.08225
1.08173
1.07947
1.07608
1.07134
1.06557
1.06337
1.06197
1.05949
1.05529
1.05194
1.04916
1.04584
1.04091
1.03538
1.03118
1.02732
1.0236
1.01948
1.01422
1.00812
1.00244
0.997337
0.993496
0.991841
0.990306
0.987763
0.987764
0.989523
0.992913
0.995972
0.997633
0.999045
1.00036
1.00162
1.00319
1.00393
1.00412
1.00405
1.00265
0.99805
0.989231
0.980416
0.976863
0.976413
1.16944
1.1694
1.16937
1.16943
1.16948
1.1691
1.16821
1.16734
1.16631
1.16533
1.16488
1.16494
1.16508
1.16488
1.16414
1.16242
1.16121
1.16126
1.16129
1.16095
1.15933
1.15731
1.15708
1.15691
1.15622
1.15469
1.15327
1.15242
1.15153
1.15061
1.14962
1.14878
1.14731
1.14582
1.14493
1.14402
1.14206
1.14077
1.13967
1.13812
1.1361
1.13431
1.13295
1.13138
1.1289
1.12599
1.1248
1.12413
1.12275
1.1202
1.11693
1.1148
1.11268
1.10948
1.10698
1.10526
1.10249
1.09873
1.09622
1.0932
1.08919
1.08578
1.08342
1.08043
1.07443
1.06882
1.0662
1.06402
1.06034
1.05359
1.04789
1.0434
1.03738
1.03112
1.02647
1.0209
1.01441
1.00894
1.00466
1.0009
0.996353
0.992264
0.992327
0.993878
0.994644
0.995686
0.998495
1.00257
1.00647
1.0067
1.00602
1.00519
1.00515
1.00514
1.00393
0.998765
0.989299
0.980609
0.977172
0.976771
1.19633
1.19612
1.19587
1.19529
1.19455
1.19435
1.19443
1.19447
1.19406
1.19248
1.19189
1.19198
1.19171
1.19059
1.18986
1.189
1.18779
1.18747
1.18729
1.18708
1.18603
1.1839
1.18281
1.18271
1.18226
1.18062
1.17923
1.17835
1.17738
1.17627
1.17518
1.17431
1.17315
1.1717
1.17032
1.16902
1.1673
1.16521
1.16382
1.16272
1.16108
1.15945
1.15789
1.15623
1.15367
1.15005
1.14908
1.14885
1.14804
1.14545
1.14136
1.13822
1.13598
1.13272
1.12955
1.12776
1.12576
1.12273
1.11944
1.11569
1.11011
1.10644
1.10418
1.10144
1.09556
1.08886
1.08518
1.0825
1.07915
1.07305
1.06536
1.06015
1.05493
1.04815
1.04234
1.03664
1.02938
1.02317
1.01859
1.0144
1.00997
1.00532
1.00203
1.00036
1.00013
1.00065
1.00308
1.00685
1.01016
1.01232
1.0129
1.01287
1.01262
1.01174
1.00837
0.999557
0.988634
0.982292
0.980767
0.980756
1.22535
1.22434
1.22335
1.22234
1.22087
1.2203
1.2204
1.22053
1.22018
1.21946
1.21952
1.21973
1.21915
1.21736
1.21547
1.21508
1.21507
1.21485
1.21444
1.21403
1.21308
1.21119
1.20881
1.20803
1.20811
1.20801
1.20719
1.20483
1.20187
1.20143
1.20137
1.20079
1.19936
1.19733
1.19571
1.19467
1.19372
1.19152
1.18933
1.18797
1.18669
1.18522
1.18344
1.18156
1.17898
1.17467
1.17259
1.17273
1.17245
1.17046
1.16496
1.16044
1.15912
1.15776
1.15497
1.15136
1.14776
1.14382
1.14078
1.13803
1.13417
1.12885
1.12484
1.12165
1.11651
1.1091
1.10485
1.10152
1.09768
1.09244
1.08468
1.07816
1.073
1.06639
1.05998
1.0544
1.04744
1.04087
1.03579
1.03063
1.02504
1.02056
1.01824
1.01578
1.01255
1.00993
1.00993
1.01068