/*--------------------------------*- C++ -*----------------------------------*\
  =========                 |
  \\      /  F ield         | OpenFOAM: The Open Source CFD Toolbox
   \\    /   O peration     | Website:  https://openfoam.org
    \\  /    A nd           | Version:  7
     \\/     M anipulation  |
\*---------------------------------------------------------------------------*/
FoamFile
{
    version     2.0;
    format      ascii;
    class       volScalarField;
    location    "1.5";
    object      rho;
}
// * * * * * * * * * * * * * * * * * * * * * * * * * * * * * * * * * * * * * //

dimensions      [1 -3 0 0 0 0 0];

internalField   nonuniform List<scalar> 
90000
(
0.55777
0.58703
0.618679
0.64997
0.678372
0.707362
0.737147
0.765406
0.793797
0.823374
0.853373
0.883458
0.913852
0.945272
0.976886
1.00831
1.04013
1.0721
1.10282
1.13409
1.16389
1.19433
1.22122
1.24597
1.26878
1.28171
1.28752
1.29267
1.29482
1.29324
1.29121
1.28654
1.27973
1.27135
1.26213
1.25261
1.2424
1.23438
1.22843
1.23013
1.23733
1.24851
1.26171
1.27502
1.28435
1.29122
1.29597
1.29908
1.30125
1.2984
1.29504
1.29726
1.30445
1.3142
1.32836
1.3398
1.35118
1.35809
1.35719
1.35468
1.35252
1.35386
1.3591
1.36703
1.37492
1.37575
1.37421
1.36997
1.36791
1.37007
1.37563
1.37987
1.38025
1.37803
1.37798
1.37995
1.38337
1.38694
1.3891
1.39103
1.39322
1.39389
1.3932
1.3924
1.39134
1.38887
1.38383
1.3766
1.36495
1.35304
1.3476
1.3494
1.35662
1.35646
1.34846
1.33468
1.32012
1.30532
1.27979
1.27156
0.534026
0.534
0.534008
0.534054
0.534148
0.534378
0.534884
0.535797
0.537243
0.539591
0.542969
0.547892
0.554558
0.563857
0.575638
0.591309
0.610437
0.634364
0.663186
0.697114
0.73757
0.781957
0.833637
0.886476
0.941756
0.990829
1.03813
1.08116
1.11939
1.14985
1.18027
1.19875
1.21628
1.2268
1.23428
1.23701
1.23894
1.24147
1.24513
1.25575
1.26513
1.27366
1.27983
1.28646
1.29131
1.29688
1.29637
1.28897
1.28161
1.28005
1.28383
1.29395
1.31081
1.32533
1.33641
1.34217
1.34664
1.35021
1.34974
1.34995
1.35259
1.35978
1.3691
1.37767
1.3793
1.37715
1.37118
1.36717
1.36945
1.37483
1.38047
1.38212
1.37969
1.37749
1.37907
1.38277
1.38598
1.38804
1.38937
1.39138
1.39318
1.39322
1.39238
1.39194
1.39098
1.38813
1.38296
1.37584
1.36568
1.35384
1.34466
1.34382
1.34998
1.34944
1.34051
1.32619
1.31129
1.29631
1.27087
1.262
0.534891
0.534875
0.534913
0.534989
0.535065
0.535138
0.535197
0.535246
0.535292
0.535341
0.535401
0.535467
0.535533
0.535606
0.535686
0.535778
0.53587
0.535996
0.536213
0.536663
0.537794
0.539927
0.544173
0.551524
0.563133
0.582024
0.605974
0.641075
0.682527
0.735163
0.793366
0.860148
0.928669
0.99869
1.06421
1.12651
1.17738
1.22593
1.25433
1.2739
1.28283
1.2884
1.28881
1.29021
1.28863
1.28275
1.27034
1.24979
1.25274
1.26458
1.2814
1.30123
1.32179
1.33766
1.3447
1.34329
1.34084
1.33913
1.34232
1.35013
1.35932
1.37179
1.38256
1.38401
1.38044
1.37338
1.3691
1.3702
1.37533
1.38166
1.38521
1.38318
1.37965
1.38015
1.38319
1.38722
1.38893
1.38979
1.39086
1.39325
1.39416
1.39362
1.39264
1.39226
1.39119
1.38837
1.38331
1.3764
1.36696
1.35543
1.34574
1.34307
1.34807
1.34529
1.33615
1.32159
1.30652
1.2898
1.26618
1.25697
0.536245
0.536225
0.536259
0.536332
0.536404
0.536467
0.536532
0.536603
0.536682
0.536763
0.536848
0.536933
0.53702
0.537109
0.537202
0.537296
0.53739
0.537482
0.537575
0.537704
0.537741
0.537778
0.537827
0.537883
0.537941
0.538002
0.538067
0.538182
0.538502
0.53967
0.542498
0.549525
0.56266
0.586455
0.622454
0.673277
0.741297
0.819089
0.90412
0.981497
1.05047
1.11108
1.14751
1.18764
1.20621
1.2213
1.22821
1.24603
1.26657
1.29039
1.30642
1.32626
1.3418
1.35056
1.34517
1.33359
1.33093
1.33646
1.34642
1.36263
1.38254
1.3953
1.3948
1.38758
1.37657
1.37293
1.37331
1.37962
1.39022
1.39208
1.38957
1.38344
1.38298
1.38545
1.39059
1.39303
1.39266
1.39299
1.39458
1.39663
1.39648
1.39501
1.39428
1.39365
1.39232
1.38986
1.3852
1.37824
1.36897
1.35758
1.34755
1.34555
1.34956
1.34556
1.3356
1.32143
1.30508
1.28654
1.26479
1.25453
0.537562
0.537528
0.53753
0.537569
0.537623
0.537669
0.537713
0.53776
0.537812
0.537865
0.537919
0.537969
0.538019
0.538069
0.53812
0.538171
0.538223
0.538274
0.538327
0.538377
0.53843
0.538489
0.538549
0.538614
0.538679
0.538746
0.538812
0.538874
0.538956
0.538996
0.539032
0.539074
0.539114
0.539165
0.539208
0.539447
0.540853
0.545028
0.558297
0.581382
0.624038
0.681928
0.760192
0.848825
0.946357
1.04214
1.12745
1.20515
1.24633
1.2759
1.29154
1.31189
1.33657
1.33725
1.32293
1.32066
1.33056
1.34541
1.36849
1.38998
1.40254
1.40114
1.39386
1.3783
1.37448
1.37451
1.38118
1.39484
1.39864
1.39673
1.3884
1.3848
1.38713
1.39362
1.39645
1.39581
1.39543
1.3958
1.39917
1.40042
1.3995
1.39771
1.39724
1.39636
1.39479
1.39249
1.38819
1.38121
1.37212
1.36009
1.34988
1.35041
1.35158
1.34731
1.33674
1.32238
1.30438
1.28432
1.2644
1.25297
0.538499
0.538468
0.538427
0.538421
0.538436
0.538459
0.53848
0.538502
0.538528
0.538555
0.538583
0.53861
0.538636
0.538662
0.538689
0.538718
0.538748
0.53878
0.538812
0.538846
0.538882
0.538919
0.538958
0.538998
0.539037
0.539078
0.539116
0.539158
0.539196
0.539239
0.539284
0.539328
0.539373
0.539413
0.539447
0.539486
0.539502
0.539515
0.539523
0.539533
0.539556
0.539853
0.542118
0.549157
0.570432
0.607514
0.676706
0.767252
0.875085
0.989474
1.08365
1.16871
1.24832
1.28616
1.30031
1.32453
1.35123
1.37573
1.4014
1.41223
1.41438
1.40535
1.38178
1.37395
1.37553
1.38397
1.39817
1.40692
1.40421
1.39232
1.38609
1.3874
1.39419
1.40039
1.39909
1.39668
1.39703
1.39971
1.4043
1.40401
1.40221
1.40114
1.40115
1.39964
1.39764
1.39599
1.39187
1.38462
1.37546
1.36312
1.35416
1.35543
1.35484
1.34977
1.33907
1.3238
1.3039
1.28322
1.26473
1.25199
0.539023
0.538982
0.538937
0.538893
0.538875
0.538874
0.538877
0.538883
0.538893
0.538906
0.538922
0.538938
0.538954
0.53897
0.538987
0.539006
0.539027
0.53905
0.539076
0.539102
0.53913
0.539158
0.539189
0.539221
0.539255
0.53929
0.539322
0.539355
0.539389
0.539423
0.539458
0.539489
0.539519
0.539542
0.539561
0.539576
0.539589
0.539601
0.539608
0.539612
0.539619
0.539633
0.539656
0.539683
0.539734
0.539797
0.540215
0.542724
0.555278
0.585268
0.654039
0.75073
0.890835
1.05814
1.19594
1.29751
1.33126
1.36142
1.38548
1.40346
1.39575
1.37447
1.36996
1.37826
1.39296
1.40459
1.40819
1.40554
1.39338
1.38478
1.38635
1.39515
1.40276
1.40183
1.39947
1.39658
1.39815
1.40487
1.40717
1.40571
1.4037
1.40434
1.40438
1.40239
1.40006
1.39854
1.39461
1.38744
1.37824
1.36613
1.35933
1.3605
1.35881
1.35347
1.34212
1.32576
1.30446
1.2834
1.26553
1.25173
0.539282
0.539239
0.539195
0.539146
0.539097
0.53907
0.539065
0.539065
0.539065
0.539071
0.539085
0.539101
0.539117
0.539133
0.53915
0.539167
0.539189
0.539214
0.539241
0.539266
0.539292
0.539318
0.539345
0.539373
0.539401
0.539429
0.539455
0.539481
0.539507
0.539531
0.539555
0.539577
0.539593
0.539607
0.539615
0.539621
0.539625
0.539632
0.539634
0.539629
0.53963
0.539635
0.539655
0.539685
0.539718
0.539767
0.539854
0.539979
0.54016
0.540444
0.540985
0.543501
0.560339
0.609715
0.73063
0.889116
1.04578
1.17664
1.25174
1.32032
1.33759
1.35949
1.37824
1.40826
1.42139
1.41924
1.41268
1.38894
1.37797
1.38226
1.39381
1.40818
1.40815
1.40221
1.39468
1.39595
1.40258
1.40937
1.40933
1.4074
1.40543
1.40665
1.4063
1.404
1.40161
1.40014
1.39595
1.38922
1.38019
1.36919
1.36523
1.36529
1.36312
1.35739
1.34527
1.32713
1.3048
1.28346
1.26576
1.25204
0.539471
0.539426
0.539383
0.539336
0.539281
0.53923
0.53921
0.539209
0.53921
0.539217
0.539232
0.539252
0.539271
0.539286
0.539301
0.539319
0.539341
0.539369
0.539397
0.539421
0.539441
0.539459
0.539478
0.539501
0.539525
0.539544
0.539561
0.539577
0.539591
0.539605
0.539621
0.539634
0.539642
0.539652
0.539659
0.539658
0.539656
0.539659
0.539658
0.539656
0.539658
0.539662
0.539674
0.539703
0.539749
0.539801
0.539883
0.540002
0.540148
0.540397
0.540766
0.541373
0.542515
0.544295
0.549105
0.566474
0.626103
0.723922
0.867976
1.01604
1.15418
1.28681
1.35694
1.39208
1.40639
1.40601
1.38448
1.36723
1.37717
1.39561
1.40838
1.41029
1.40224
1.39078
1.39212
1.39924
1.40875
1.41092
1.40666
1.40598
1.40811
1.40933
1.40739
1.40424
1.40194
1.39989
1.3971
1.39208
1.38172
1.37216
1.3696
1.36837
1.36673
1.361
1.34784
1.32806
1.30492
1.28351
1.2649
1.25197
0.53971
0.53966
0.539611
0.539558
0.539492
0.539425
0.539398
0.539398
0.539401
0.539408
0.539419
0.539435
0.539454
0.539466
0.539474
0.539483
0.539497
0.539518
0.539537
0.53955
0.539559
0.539571
0.539586
0.539599
0.539608
0.539618
0.539628
0.539637
0.539643
0.53965
0.539658
0.539667
0.539677
0.539688
0.539694
0.539697
0.5397
0.539703
0.539708
0.539717
0.53973
0.539745
0.539763
0.539784
0.539815
0.539848
0.539893
0.539975
0.540082
0.540257
0.540573
0.541068
0.541915
0.543489
0.546255
0.550968
0.560941
0.578463
0.605098
0.642361
0.715714
0.826211
0.980233
1.13351
1.2331
1.31769
1.33564
1.37102
1.3978
1.42167
1.42043
1.4072
1.38682
1.38732
1.39579
1.4089
1.41285
1.40735
1.4028
1.4059
1.41153
1.41186
1.40858
1.40533
1.40294
1.40011
1.39676
1.39195
1.38289
1.37588
1.37286
1.37096
1.36969
1.36375
1.3495
1.32849
1.30536
1.28336
1.26293
1.25295
0.53999
0.539926
0.53986
0.539788
0.539701
0.539615
0.539574
0.539571
0.539572
0.539576
0.539583
0.539592
0.539605
0.53961
0.539608
0.539607
0.539609
0.53962
0.539627
0.539627
0.539627
0.539632
0.539642
0.539648
0.539651
0.539655
0.539661
0.539665
0.539668
0.539669
0.539672
0.539681
0.539695
0.539709
0.539721
0.539732
0.539742
0.539753
0.539767
0.539784
0.539799
0.539816
0.539833
0.539845
0.539861
0.53988
0.539904
0.539944
0.540004
0.540111
0.540347
0.540754
0.541439
0.542738
0.545063
0.548964
0.556603
0.570837
0.592318
0.612876
0.620954
0.62572
0.648058
0.706959
0.840341
1.01803
1.19402
1.33734
1.38018
1.409
1.40592
1.38008
1.37907
1.39214
1.40927
1.41368
1.40831
1.39897
1.40112
1.41075
1.41424
1.41148
1.40574
1.40478
1.40272
1.39986
1.3969
1.39257
1.38537
1.37914
1.37515
1.37323
1.37227
1.36581
1.35049
1.32889
1.30551
1.28258
1.26123
1.25379
0.540277
0.540195
0.540109
0.540018
0.539919
0.539811
0.539733
0.539709
0.539705
0.539702
0.539701
0.539702
0.539701
0.539698
0.539697
0.539695
0.53969
0.539681
0.539675
0.539672
0.539671
0.539671
0.539672
0.539669
0.539667
0.539668
0.539673
0.539678
0.53968
0.539682
0.53969
0.539704
0.539722
0.539742
0.539762
0.539787
0.539813
0.539836
0.539855
0.539873
0.539886
0.539898
0.539914
0.539915
0.539913
0.539907
0.539887
0.539872
0.539888
0.539955
0.54012
0.540451
0.541027
0.542055
0.543947
0.54725
0.553179
0.564817
0.584535
0.606558
0.619578
0.622207
0.622517
0.623058
0.628566
0.655179
0.756104
0.920193
1.09526
1.2617
1.31062
1.35168
1.38154
1.41864
1.42234
1.4163
1.39242
1.39416
1.40444
1.41655
1.41591
1.40736
1.40575
1.40543
1.40328
1.39982
1.39787
1.39445
1.38883
1.3817
1.37704
1.37548
1.37467
1.36743
1.35143
1.32965
1.30512
1.28118
1.26103
1.25473
0.540515
0.540422
0.540325
0.540225
0.54012
0.540007
0.5399
0.539831
0.539801
0.539789
0.539781
0.539772
0.539761
0.539754
0.539752
0.539749
0.539748
0.539746
0.539747
0.539746
0.539742
0.539737
0.53973
0.539718
0.539702
0.539696
0.539693
0.539691
0.53969
0.539691
0.5397
0.539716
0.539736
0.53976
0.539793
0.539838
0.539876
0.539905
0.539938
0.539959
0.539969
0.539975
0.539977
0.539971
0.539953
0.539926
0.539882
0.539838
0.539834
0.53986
0.53996
0.540214
0.540685
0.541527
0.54308
0.545757
0.550478
0.559646
0.576434
0.598707
0.616002
0.621636
0.622473
0.622966
0.623634
0.624554
0.626765
0.638853
0.704321
0.840717
1.04564
1.25344
1.35612
1.40173
1.40795
1.38813
1.37941
1.39764
1.41887
1.41831
1.40842
1.40287
1.40652
1.40861
1.40469
1.40026
1.39925
1.39727
1.39124
1.38313
1.37871
1.37804
1.37669
1.36826
1.35197
1.33021
1.3043
1.27846
1.26047
1.25614
0.540712
0.540616
0.540517
0.540412
0.540306
0.540201
0.540098
0.540002
0.539926
0.539872
0.539834
0.539811
0.539795
0.539782
0.539771
0.539762
0.539756
0.539747
0.539725
0.539708
0.539706
0.539703
0.539691
0.539684
0.539683
0.539682
0.539681
0.539684
0.539693
0.539708
0.539725
0.539748
0.539772
0.539803
0.539845
0.539889
0.539925
0.539959
0.539994
0.540021
0.540035
0.540036
0.54003
0.540011
0.539984
0.539945
0.539878
0.539816
0.539806
0.539819
0.539877
0.540057
0.54044
0.54112
0.542383
0.54457
0.548253
0.555246
0.568866
0.589586
0.609311
0.619898
0.622866
0.623387
0.623758
0.624518
0.625708
0.627066
0.628682
0.634676
0.678964
0.799199
0.999024
1.1874
1.29935
1.34534
1.38112
1.43066
1.43115
1.41998
1.39922
1.4018
1.413
1.41283
1.40671
1.40212
1.40142
1.39942
1.39346
1.38417
1.3807
1.38112
1.37812
1.3686
1.3526
1.33028
1.30253
1.27509
1.25997
1.25702
0.54084
0.540753
0.540662
0.540563
0.540461
0.540364
0.540273
0.540182
0.540093
0.540011
0.539944
0.539893
0.539852
0.539816
0.53979
0.539779
0.539776
0.539778
0.539781
0.539782
0.539779
0.539772
0.539761
0.53975
0.539746
0.539744
0.539744
0.53975
0.539762
0.539777
0.539794
0.53981
0.539829
0.539852
0.53988
0.539909
0.539946
0.53998
0.54001
0.54004
0.540058
0.540059
0.54005
0.54003
0.540001
0.539956
0.539889
0.539828
0.539793
0.539798
0.539834
0.539959
0.540267
0.540832
0.541843
0.543577
0.546454
0.551741
0.562094
0.579821
0.600694
0.615906
0.622616
0.624093
0.624434
0.624868
0.625681
0.626924
0.628481
0.630458
0.632427
0.636228
0.668414
0.770748
0.966515
1.20224
1.34893
1.40919
1.41841
1.39524
1.39545
1.41304
1.42035
1.4132
1.40317
1.40322
1.40296
1.39913
1.39181
1.38534
1.38448
1.38351
1.37878
1.36895
1.35393
1.32978
1.29997
1.27224
1.25973
1.25694
0.540934
0.540859
0.540781
0.540701
0.540623
0.540548
0.540471
0.54039
0.540315
0.540247
0.540183
0.540123
0.540076
0.540042
0.540019
0.54
0.539987
0.539978
0.539969
0.539956
0.539939
0.539922
0.539907
0.53989
0.539873
0.539862
0.539857
0.539854
0.539854
0.539856
0.53986
0.539866
0.539877
0.53989
0.539905
0.539922
0.539928
0.539938
0.539959
0.539996
0.540045
0.540071
0.540069
0.540055
0.540022
0.53997
0.539922
0.539895
0.539886
0.539893
0.539916
0.539989
0.540187
0.54063
0.541432
0.542759
0.544981
0.548958
0.556484
0.57035
0.590586
0.610715
0.622187
0.624607
0.624959
0.625315
0.626019
0.627097
0.628562
0.630255
0.632419
0.634
0.634942
0.637229
0.660366
0.760183
0.962913
1.16963
1.30714
1.35942
1.40287
1.43344
1.42819
1.40292
1.4031
1.40644
1.4053
1.39925
1.39206
1.38836
1.38801
1.38594
1.37795
1.36953
1.35521
1.3276
1.29677
1.27018
1.25988
1.25661
0.541019
0.540953
0.540887
0.540823
0.540764
0.540704
0.54064
0.540575
0.540514
0.540457
0.540401
0.540349
0.540307
0.540273
0.540244
0.540218
0.540194
0.540169
0.540139
0.540104
0.540068
0.540036
0.540007
0.539977
0.53995
0.539932
0.539919
0.539904
0.539887
0.539882
0.539883
0.539882
0.539863
0.539826
0.539815
0.539816
0.539822
0.539844
0.539893
0.539968
0.540038
0.540078
0.540082
0.540069
0.540038
0.540026
0.540033
0.540025
0.539992
0.539984
0.539986
0.540017
0.540146
0.540482
0.541078
0.542031
0.543714
0.546777
0.552223
0.562457
0.580308
0.603227
0.621061
0.625181
0.625331
0.625371
0.625828
0.626837
0.628319
0.630043
0.632099
0.634061
0.635005
0.636155
0.637234
0.639496
0.663653
0.760082
0.972064
1.23263
1.37272
1.42038
1.40619
1.39318
1.40972
1.41295
1.40639
1.39897
1.39552
1.39318
1.39076
1.38408
1.37815
1.37211
1.35589
1.32437
1.29333
1.26886
1.25987
1.25576
0.541063
0.541003
0.540945
0.540887
0.54083
0.54077
0.540712
0.540658
0.540607
0.540556
0.540507
0.540461
0.54042
0.540383
0.540344
0.540305
0.540269
0.540233
0.540186
0.54014
0.540105
0.540078
0.540049
0.540015
0.539984
0.539961
0.539938
0.539907
0.53987
0.539846
0.539829
0.539797
0.539745
0.539725
0.539727
0.539735
0.539755
0.539793
0.539861
0.53995
0.540041
0.540121
0.540157
0.54016
0.540158
0.540146
0.540141
0.540121
0.540047
0.540004
0.540001
0.539995
0.540029
0.540231
0.540692
0.541431
0.54271
0.545074
0.549188
0.556742
0.571026
0.592598
0.614989
0.625128
0.625726
0.625708
0.625878
0.626707
0.628235
0.630101
0.6321
0.633735
0.63522
0.636532
0.637631
0.638847
0.640188
0.642761
0.667741
0.792244
1.0221
1.26248
1.33908
1.39285
1.42829
1.4221
1.40489
1.4022
1.40271
1.39827
1.39196
1.3836
1.38137
1.37651
1.35559
1.32204
1.29045
1.26831
1.26021
1.25524
0.541046
0.540981
0.540916
0.540856
0.540802
0.540746
0.540691
0.540642
0.540596
0.54055
0.540503
0.540456
0.540413
0.54037
0.540318
0.540263
0.540214
0.540169
0.540118
0.540072
0.540049
0.540035
0.540018
0.539996
0.539968
0.539945
0.539916
0.53988
0.539846
0.539812
0.539764
0.539703
0.53968
0.539681
0.539689
0.539709
0.539749
0.539816
0.539903
0.540007
0.540126
0.540244
0.540297
0.540293
0.540266
0.540217
0.540186
0.540148
0.540045
0.539977
0.539969
0.539947
0.539948
0.540059
0.540408
0.541022
0.542048
0.543886
0.547084
0.552795
0.563246
0.580653
0.603643
0.621931
0.625822
0.625819
0.62604
0.626797
0.628196
0.629914
0.63189
0.633775
0.635322
0.636685
0.637903
0.638865
0.640063
0.641962
0.643231
0.646672
0.689717
0.84362
1.11889
1.33864
1.41675
1.39948
1.40021
1.41447
1.41047
1.40179
1.39034
1.38725
1.38971
1.38126
1.35448
1.32077
1.29008
1.26769
1.26004
1.25571
0.540869
0.540799
0.540732
0.54067
0.540611
0.540551
0.54049
0.540426
0.54037
0.54032
0.540268
0.540218
0.540181
0.540148
0.540105
0.540075
0.540052
0.540032
0.540012
0.539992
0.539987
0.540001
0.540012
0.540015
0.540006
0.539985
0.539957
0.539918
0.539879
0.539835
0.539795
0.539794
0.539811
0.53984
0.539881
0.53993
0.539989
0.540062
0.540126
0.540193
0.540292
0.540384
0.540413
0.540395
0.540337
0.540192
0.540098
0.540076
0.539981
0.539885
0.539883
0.539891
0.539911
0.540022
0.540312
0.540845
0.541711
0.543158
0.545642
0.549986
0.557651
0.570505
0.590424
0.612604
0.623368
0.625621
0.626245
0.627111
0.628511
0.630072
0.632203
0.634275
0.63595
0.637378
0.638553
0.639754
0.64105
0.642212
0.643243
0.644352
0.645432
0.652538
0.727353
0.941132
1.22353
1.31821
1.40025
1.42815
1.41593
1.39699
1.39107
1.39875
1.39833
1.38391
1.35385
1.32057
1.28787
1.26789
1.2603
1.25813
0.540486
0.54043
0.540381
0.540334
0.540283
0.540231
0.540178
0.540122
0.540072
0.540031
0.540002
0.539988
0.539979
0.539977
0.539981
0.539985
0.539988
0.539992
0.539992
0.539987
0.539987
0.540005
0.540024
0.540034
0.540036
0.540039
0.540037
0.54
0.539994
0.540027
0.540036
0.540017
0.540005
0.540014
0.540036
0.540058
0.540089
0.540136
0.5402
0.540251
0.540339
0.540429
0.540411
0.540332
0.540229
0.540035
0.539877
0.539869
0.539836
0.539788
0.539788
0.539824
0.539901
0.540063
0.540353
0.540812
0.541536
0.542748
0.544743
0.547903
0.553342
0.562823
0.578176
0.59876
0.616551
0.624822
0.627635
0.628772
0.629731
0.63077
0.632044
0.633981
0.63583
0.637271
0.638517
0.63976
0.641036
0.642684
0.644394
0.645487
0.645952
0.647016
0.648791
0.672703
0.802102
1.08033
1.34399
1.40908
1.38816
1.39382
1.4047
1.40688
1.40102
1.37512
1.35107
1.31919
1.28456
1.26734
1.26152
1.26361
0.540315
0.54028
0.540248
0.540218
0.540186
0.540138
0.540092
0.540047
0.539994
0.53998
0.539977
0.539969
0.539969
0.53998
0.540005
0.540038
0.540082
0.540116
0.540123
0.540128
0.540133
0.540147
0.54016
0.540163
0.54015
0.540182
0.540238
0.540248
0.540223
0.540194
0.540183
0.540158
0.540108
0.54006
0.540037
0.54003
0.540031
0.540051
0.540158
0.540218
0.540221
0.540285
0.540293
0.540265
0.540205
0.540056
0.539899
0.53979
0.539739
0.539747
0.539802
0.539915
0.540076
0.540295
0.540564
0.540935
0.541524
0.542501
0.544042
0.546423
0.550268
0.556941
0.568095
0.584945
0.605433
0.62146
0.628342
0.629437
0.629864
0.630519
0.631601
0.633441
0.635795
0.637458
0.639105
0.641122
0.642691
0.643421
0.644441
0.645558
0.646935
0.64758
0.648513
0.649444
0.653921
0.725345
0.942198
1.20844
1.32296
1.39847
1.42226
1.41612
1.3879
1.36865
1.35137
1.31769
1.28162
1.26683
1.26466
1.26951
0.540654
0.540651
0.540646
0.540626
0.54058
0.540543
0.540505
0.540462
0.540419
0.540371
0.540353
0.540342
0.540312
0.54028
0.540278
0.540294
0.5403
0.54029
0.540276
0.540274
0.540263
0.540248
0.540244
0.540224
0.540221
0.540275
0.540318
0.54032
0.540293
0.540239
0.5402
0.540157
0.540079
0.539994
0.53994
0.539901
0.539895
0.53995
0.540019
0.539961
0.539901
0.539941
0.540167
0.540283
0.540286
0.540257
0.540161
0.540002
0.539915
0.539902
0.539956
0.540084
0.540264
0.540475
0.540697
0.540984
0.541457
0.54218
0.543336
0.545144
0.547988
0.552851
0.560889
0.57355
0.591891
0.611837
0.626008
0.630029
0.630305
0.63056
0.631394
0.633091
0.635545
0.637984
0.639452
0.640972
0.64324
0.645282
0.646099
0.646757
0.647844
0.648817
0.649148
0.649745
0.650834
0.652705
0.673405
0.823742
1.12537
1.35601
1.40924
1.39509
1.37629
1.36964
1.35069
1.31309
1.27844
1.27007
1.27104
1.27385
0.541399
0.541369
0.541334
0.541289
0.54124
0.541191
0.541142
0.541092
0.541033
0.540965
0.540894
0.540811
0.54072
0.540641
0.54058
0.540526
0.540465
0.540412
0.540373
0.540339
0.540306
0.540275
0.54024
0.5402
0.540149
0.54009
0.540021
0.539936
0.539835
0.539727
0.539658
0.539612
0.539564
0.539549
0.539566
0.539584
0.539633
0.539743
0.53979
0.539739
0.539739
0.539907
0.540272
0.540438
0.540501
0.54057
0.540599
0.540478
0.540199
0.540085
0.540087
0.540159
0.540327
0.540538
0.54075
0.540957
0.54121
0.541656
0.542479
0.543923
0.546315
0.550315
0.556324
0.565211
0.578934
0.597074
0.615705
0.62822
0.630486
0.630684
0.631429
0.633082
0.635362
0.637694
0.639731
0.641713
0.64384
0.646495
0.647555
0.648267
0.649689
0.650756
0.651136
0.651956
0.65272
0.652911
0.65361
0.660354
0.741717
0.989887
1.26505
1.35293
1.383
1.38431
1.36068
1.31089
1.27961
1.27741
1.27742
1.27492
0.541485
0.541461
0.541431
0.541387
0.541333
0.541264
0.5412
0.541144
0.541074
0.540976
0.540867
0.540745
0.540626
0.54052
0.540403
0.540263
0.540122
0.539983
0.539855
0.539734
0.539614
0.539491
0.539391
0.539337
0.539291
0.539214
0.539102
0.538939
0.538881
0.538881
0.538904
0.538943
0.539004
0.53911
0.53922
0.53933
0.539436
0.539538
0.539666
0.539762
0.539876
0.540114
0.540375
0.540493
0.540595
0.540661
0.540671
0.540522
0.540209
0.540083
0.539985
0.539967
0.54005
0.540226
0.540317
0.540341
0.540433
0.540748
0.541474
0.542824
0.545002
0.548421
0.553312
0.559823
0.569065
0.582269
0.599223
0.618082
0.629762
0.63184
0.632801
0.634166
0.635539
0.637719
0.640128
0.642286
0.645127
0.648024
0.648586
0.649118
0.650518
0.652244
0.652955
0.653741
0.654981
0.655232
0.655093
0.655259
0.656959
0.695402
0.896026
1.20807
1.35091
1.37534
1.35043
1.301
1.29246
1.28714
1.27905
1.27174
0.540795
0.540769
0.540737
0.540669
0.540585
0.540522
0.540454
0.54036
0.54025
0.540138
0.540001
0.539818
0.539633
0.539467
0.539294
0.539102
0.53893
0.53878
0.538624
0.538525
0.538494
0.538465
0.538445
0.538469
0.538488
0.538434
0.538278
0.538253
0.538262
0.538303
0.538388
0.538497
0.538649
0.538862
0.539095
0.539237
0.539337
0.539491
0.53963
0.539861
0.540202
0.540234
0.5402
0.540298
0.540374
0.540358
0.540279
0.540035
0.539783
0.539708
0.539513
0.539208
0.539185
0.539251
0.539385
0.539499
0.5397
0.540071
0.540759
0.54204
0.54408
0.547041
0.551044
0.555916
0.562105
0.571015
0.583643
0.60031
0.616764
0.627064
0.633074
0.636285
0.63752
0.639136
0.641562
0.64336
0.645165
0.64761
0.649667
0.651085
0.652691
0.65484
0.656548
0.658118
0.659303
0.659768
0.659984
0.659813
0.65936
0.657145
0.671079
0.787423
1.03254
1.23985
1.27321
1.28994
1.30905
1.29594
1.27818
1.2675
0.540304
0.540306
0.540302
0.540252
0.540209
0.540183
0.540134
0.540043
0.539906
0.53977
0.53959
0.539259
0.539125
0.539123
0.539088
0.538939
0.538697
0.53845
0.538249
0.538216
0.538233
0.538212
0.538231
0.538344
0.53838
0.538372
0.538421
0.538618
0.538969
0.539028
0.539042
0.539164
0.539464
0.53973
0.539924
0.540263
0.540456
0.540581
0.540679
0.540678
0.540564
0.540287
0.540217
0.540149
0.539812
0.539496
0.539463
0.539518
0.539573
0.539593
0.539474
0.539038
0.538922
0.538952
0.539053
0.539241
0.539533
0.539942
0.54064
0.541851
0.543721
0.546231
0.549456
0.553387
0.558109
0.564517
0.573384
0.584989
0.600197
0.615284
0.627295
0.635473
0.638143
0.639418
0.641733
0.644501
0.646455
0.648173
0.649916
0.651382
0.653044
0.655359
0.657721
0.659978
0.661187
0.661851
0.662576
0.66365
0.664171
0.663399
0.65882
0.649353
0.690048
0.839259
1.07667
1.24841
1.29299
1.28221
1.27188
1.26889
0.540525
0.540555
0.540584
0.540558
0.540503
0.540501
0.540498
0.540451
0.540333
0.540171
0.539996
0.539811
0.539684
0.539605
0.539504
0.539398
0.539421
0.539565
0.539818
0.53992
0.539878
0.539794
0.539874
0.540226
0.540397
0.540287
0.540062
0.540104
0.540523
0.540658
0.540674
0.540846
0.541166
0.541296
0.541346
0.541405
0.541503
0.541527
0.541496
0.541307
0.540733
0.540335
0.5403
0.540176
0.539689
0.539385
0.539369
0.539461
0.539899
0.540148
0.540066
0.539516
0.539232
0.539226
0.539327
0.539641
0.54022
0.540904
0.541678
0.542645
0.544013
0.546059
0.54871
0.552099
0.556053
0.56104
0.567831
0.57659
0.587882
0.601294
0.613236
0.624219
0.633249
0.638711
0.642311
0.644421
0.646478
0.649152
0.652035
0.654166
0.655834
0.65712
0.659383
0.66105
0.662014
0.663341
0.66517
0.666473
0.667416
0.666728
0.661839
0.649551
0.631775
0.633803
0.709213
0.905977
1.1254
1.21163
1.26369
1.27915
0.544327
0.544307
0.54432
0.544347
0.544326
0.544185
0.543995
0.543839
0.543606
0.543362
0.543307
0.543298
0.543239
0.543078
0.542874
0.542896
0.542965
0.54294
0.542807
0.54263
0.542443
0.542128
0.541991
0.542002
0.541958
0.541679
0.541514
0.541622
0.542032
0.542399
0.542398
0.542308
0.542409
0.542632
0.542596
0.542578
0.54263
0.542643
0.542565
0.542357
0.542074
0.54181
0.541623
0.541462
0.5412
0.541079
0.541123
0.541383
0.541925
0.542458
0.542724
0.542708
0.54251
0.542185
0.541868
0.541936
0.542347
0.542975
0.543755
0.544679
0.545805
0.547276
0.549062
0.551264
0.554472
0.559106
0.565322
0.572934
0.582377
0.593704
0.604103
0.613536
0.623332
0.631187
0.637556
0.642812
0.647016
0.650715
0.654854
0.658464
0.660976
0.66228
0.66362
0.665049
0.666248
0.667671
0.669024
0.669387
0.669175
0.667129
0.660648
0.650625
0.635535
0.628295
0.629422
0.6554
0.777874
1.01126
1.20702
1.26927
0.548209
0.548124
0.548044
0.547874
0.54754
0.547121
0.546689
0.54636
0.546038
0.545518
0.545092
0.545075
0.545078
0.544881
0.544598
0.544285
0.543582
0.542683
0.542175
0.541847
0.541394
0.540904
0.540799
0.540842
0.540907
0.540954
0.54111
0.541475
0.542049
0.542541
0.542632
0.542543
0.542235
0.54192
0.541783
0.541807
0.541918
0.541976
0.54198
0.542118
0.542327
0.542385
0.542354
0.542555
0.542696
0.542698
0.542653
0.542735
0.543009
0.543778
0.545191
0.545866
0.5458
0.545435
0.544761
0.544205
0.54403
0.544099
0.544646
0.545165
0.545625
0.546447
0.547762
0.549848
0.553198
0.557982
0.564136
0.571079
0.57917
0.589128
0.599142
0.608307
0.618028
0.626658
0.63363
0.640278
0.646114
0.651942
0.657768
0.662989
0.666327
0.669193
0.671355
0.672198
0.672313
0.671964
0.671912
0.671302
0.670115
0.667934
0.661847
0.653195
0.647189
0.644526
0.644083
0.648323
0.658667
0.721035
0.881267
1.12906
0.554487
0.554396
0.554261
0.554088
0.553949
0.553868
0.553738
0.553435
0.553286
0.55326
0.553202
0.552975
0.552867
0.552929
0.552926
0.552898
0.553001
0.553362
0.553802
0.554382
0.554624
0.554661
0.554831
0.555246
0.555403
0.555448
0.555632
0.556294
0.556839
0.557009
0.557171
0.557563
0.558386
0.559235
0.559311
0.559314
0.55941
0.559392
0.559358
0.559443
0.560132
0.560907
0.560803
0.56076
0.56104
0.561333
0.561535
0.561743
0.561916
0.561783
0.561253
0.56068
0.56048
0.560438
0.560286
0.5601
0.560111
0.560384
0.560728
0.561026
0.561585
0.562758
0.564552
0.56664
0.569037
0.571874
0.575404
0.579632
0.584616
0.591991
0.601749
0.611268
0.619806
0.627057
0.634516
0.643885
0.651344
0.656515
0.661946
0.667378
0.671793
0.675734
0.679788
0.682246
0.683353
0.683995
0.683876
0.682406
0.678254
0.674882
0.670976
0.663839
0.659109
0.660507
0.662687
0.665304
0.670927
0.683909
0.709923
0.895957
0.580688
0.580684
0.580704
0.580668
0.58057
0.58059
0.580686
0.580819
0.580858
0.580853
0.580802
0.580793
0.580928
0.581091
0.581046
0.581004
0.581148
0.581421
0.581445
0.581324
0.58129
0.581356
0.581282
0.580994
0.58057
0.580136
0.579755
0.579362
0.579
0.578954
0.578985
0.578934
0.578803
0.578708
0.578485
0.578042
0.577902
0.578021
0.578054
0.577853
0.577176
0.575798
0.574631
0.574358
0.574294
0.574307
0.574181
0.573726
0.573088
0.572304
0.571244
0.570419
0.569781
0.569164
0.569056
0.56912
0.569422
0.570092
0.570596
0.571124
0.572043
0.573312
0.574793
0.577013
0.580831
0.585078
0.587949
0.591799
0.595045
0.597875
0.602728
0.610532
0.619712
0.629795
0.639322
0.649219
0.657129
0.660719
0.66443
0.669321
0.674145
0.678888
0.684466
0.688893
0.690331
0.691516
0.692421
0.693103
0.69333
0.692079
0.688327
0.681206
0.677573
0.677359
0.680539
0.685472
0.694195
0.702382
0.713702
0.766095
0.606128
0.605707
0.605564
0.60552
0.605261
0.604579
0.60406
0.604108
0.604163
0.603936
0.603417
0.602673
0.602242
0.602124
0.601988
0.601731
0.601331
0.600944
0.600744
0.600684
0.60068
0.600662
0.600717
0.600834
0.600531
0.600374
0.600553
0.600568
0.600681
0.600699
0.600417
0.600224
0.600289
0.600234
0.5998
0.599225
0.598901
0.598712
0.598506
0.598212
0.598064
0.598223
0.598563
0.598837
0.599103
0.599245
0.599296
0.599529
0.599718
0.599556
0.5993
0.599473
0.600116
0.601283
0.601792
0.601835
0.601988
0.602263
0.602683
0.603387
0.604219
0.605023
0.605963
0.606991
0.608636
0.610915
0.612284
0.614298
0.617764
0.622313
0.627202
0.632175
0.63851
0.645442
0.649247
0.652817
0.66016
0.668102
0.673605
0.679491
0.683636
0.686398
0.689381
0.693635
0.696305
0.697108
0.69843
0.701344
0.704216
0.70408
0.700861
0.694692
0.695383
0.698187
0.701718
0.707296
0.715362
0.726856
0.737688
0.769513
0.642344
0.642118
0.641832
0.641547
0.641146
0.641043
0.641367
0.641617
0.641589
0.641318
0.640806
0.640664
0.640744
0.6407
0.640527
0.640508
0.640444
0.640226
0.639818
0.639518
0.639582
0.639642
0.639385
0.639113
0.638875
0.638444
0.638313
0.638399
0.638369
0.638071
0.637986
0.638248
0.638424
0.63846
0.638619
0.639017
0.639328
0.639282
0.638682
0.638139
0.638103
0.638081
0.637729
0.63696
0.636113
0.635452
0.635114
0.634906
0.634551
0.633784
0.632544
0.631529
0.630759
0.629957
0.629033
0.628116
0.627279
0.626458
0.625479
0.624528
0.624324
0.624492
0.624501
0.624765
0.626001
0.628782
0.632269
0.635404
0.637863
0.640516
0.644452
0.648442
0.652649
0.658338
0.665272
0.671668
0.677662
0.684009
0.690728
0.698572
0.704388
0.707093
0.710204
0.714405
0.716258
0.716538
0.716386
0.717339
0.716551
0.713932
0.711533
0.713075
0.713858
0.715947
0.720287