/*--------------------------------*- C++ -*----------------------------------*\
  =========                 |
  \\      /  F ield         | OpenFOAM: The Open Source CFD Toolbox
   \\    /   O peration     | Website:  https://openfoam.org
    \\  /    A nd           | Version:  7
     \\/     M anipulation  |
\*---------------------------------------------------------------------------*/
FoamFile
{
    version     2.0;
    format      ascii;
    class       volScalarField;
    location    "1.5";
    object      rho;
}
// * * * * * * * * * * * * * * * * * * * * * * * * * * * * * * * * * * * * * //

dimensions      [1 -3 0 0 0 0 0];

internalField   nonuniform List<scalar> 
90000
(
0.271244
0.293377
0.318381
0.339688
0.360071
0.382882
0.405009
0.423579
0.442625
0.463012
0.482992
0.502802
0.523509
0.54486
0.566965
0.589426
0.6129
0.636749
0.661354
0.68621
0.712223
0.737973
0.765113
0.79212
0.820267
0.847956
0.876873
0.904957
0.93467
0.962352
0.988427
1.00973
1.01806
1.02081
1.02368
1.02261
1.02066
1.01639
1.0128
1.00903
1.00436
0.997056
0.992052
0.986923
0.983037
0.978749
0.975302
0.970868
0.964252
0.95718
0.951233
0.955233
0.963267
0.975132
0.98729
1.00073
1.01657
1.03097
1.03935
1.04699
1.04355
1.03427
1.01833
1.00213
0.992563
0.985017
0.986552
0.995631
1.01101
1.02863
1.039
1.0442
1.03907
1.03144
1.02207
1.01355
1.01419
1.01821
1.0248
1.03238
1.03417
1.03169
1.02382
1.01842
1.01898
1.02421
1.03006
1.03054
1.02798
1.02307
1.02322
1.0267
1.03232
1.03255
1.03308
1.03746
1.04438
1.054
1.06329
1.07987
0.254737
0.254786
0.254843
0.254908
0.254986
0.255078
0.255193
0.255316
0.255439
0.255553
0.255675
0.255812
0.255989
0.256152
0.256493
0.257406
0.259009
0.261869
0.265852
0.271746
0.279107
0.289131
0.300917
0.31644
0.333883
0.356028
0.380745
0.410846
0.444236
0.484879
0.529408
0.580408
0.631111
0.678349
0.72363
0.762784
0.799836
0.82829
0.856641
0.875728
0.896452
0.907554
0.920024
0.925993
0.934901
0.936967
0.940381
0.941774
0.942568
0.944952
0.952382
0.964434
0.972472
0.97666
0.980419
0.986055
0.993169
1.00223
1.00306
1.00007
0.987757
0.973145
0.967948
0.970008
0.976646
0.983666
0.98939
0.990328
0.995297
1.00254
1.01283
1.01007
1.00238
0.993789
0.985782
0.986667
0.992595
1.00372
1.01507
1.01527
1.01301
1.00552
0.99348
0.993422
0.997214
1.00585
1.01342
1.01068
1.00365
1.00141
1.00437
1.00757
1.00903
1.00811
1.00826
1.01145
1.01696
1.02709
1.03377
1.05051
0.256879
0.257019
0.25717
0.257349
0.257534
0.257714
0.257886
0.258057
0.258229
0.258398
0.258562
0.258741
0.25893
0.259124
0.259313
0.259494
0.259714
0.25981
0.259884
0.259954
0.260034
0.260133
0.260239
0.260344
0.260446
0.260563
0.260681
0.260772
0.26082
0.260872
0.260897
0.26225
0.265925
0.275142
0.288157
0.309391
0.334527
0.369391
0.4071
0.454446
0.503694
0.561381
0.61762
0.673625
0.72774
0.775825
0.821752
0.861177
0.898868
0.935821
0.953491
0.969402
0.975452
0.977097
0.977591
0.979625
0.97803
0.971885
0.961474
0.940169
0.926961
0.929676
0.94024
0.954471
0.968459
0.981444
0.990611
0.997077
1.00039
0.999302
0.993825
0.981468
0.969673
0.96965
0.973208
0.976899
0.987573
0.996613
1.00689
1.00496
0.997696
0.987253
0.9833
0.987871
0.998616
0.999501
0.99907
0.9933
0.988079
0.988522
0.9934
0.997294
0.99585
0.993098
0.990791
0.991467
0.995395
1.00466
1.00997
1.02711
0.259634
0.259728
0.259815
0.259911
0.260007
0.260092
0.260164
0.26024
0.260317
0.260376
0.260429
0.260486
0.260544
0.260613
0.260681
0.260748
0.26081
0.260856
0.260881
0.2609
0.260914
0.260936
0.260978
0.261043
0.261128
0.261216
0.261251
0.261248
0.261236
0.261209
0.261159
0.261145
0.261129
0.261095
0.261009
0.260859
0.260697
0.260683
0.26077
0.260984
0.261099
0.262284
0.266209
0.27839
0.296244
0.327154
0.364627
0.415443
0.473987
0.544484
0.617324
0.685653
0.743325
0.795688
0.831821
0.860535
0.889155
0.901723
0.918556
0.918797
0.931671
0.946933
0.972405
0.983711
0.996058
0.997985
1.00111
1.00394
1.0008
0.990701
0.970638
0.956521
0.958069
0.962605
0.970036
0.986098
1.00424
1.00446
1.00245
0.992247
0.979748
0.976138
0.978856
0.987511
0.999152
0.999176
0.994002
0.984201
0.981418
0.984855
0.992452
0.99208
0.990302
0.985307
0.98233
0.98039
0.981726
0.989586
0.995289
1.01275
0.26071
0.260735
0.260756
0.260775
0.260797
0.260826
0.260854
0.260885
0.260913
0.260932
0.260948
0.260964
0.260966
0.260961
0.260959
0.260968
0.260989
0.260988
0.260979
0.260978
0.260972
0.260953
0.260955
0.261005
0.261095
0.261135
0.261152
0.261152
0.261136
0.261093
0.261026
0.260952
0.26089
0.260831
0.260758
0.260655
0.260515
0.260494
0.260619
0.260921
0.261124
0.261229
0.261338
0.2614
0.261421
0.261403
0.261383
0.261451
0.26164
0.261764
0.268065
0.281382
0.31349
0.357049
0.418528
0.489187
0.572582
0.662333
0.758663
0.839585
0.906563
0.934132
0.962326
0.975247
0.988923
0.991819
0.995755
0.995265
0.985243
0.957604
0.947496
0.956319
0.971551
0.984269
0.995354
1.00348
1.0081
1.00576
0.988185
0.970386
0.970318
0.975064
0.989577
1.0014
1.00407
0.9993
0.984237
0.979954
0.981355
0.990911
0.994239
0.992238
0.986124
0.983043
0.982299
0.977682
0.977417
0.981004
0.98756
1.00572
0.26107
0.261081
0.261091
0.261102
0.261116
0.261129
0.261137
0.261151
0.261173
0.261181
0.261182
0.261181
0.261157
0.261101
0.261086
0.261093
0.261096
0.261088
0.261085
0.26109
0.261083
0.261058
0.261078
0.261156
0.2612
0.261203
0.261197
0.261167
0.261114
0.261076
0.261033
0.260956
0.260869
0.260817
0.26077
0.260675
0.260564
0.260574
0.260808
0.261361
0.261504
0.26151
0.261531
0.261623
0.261691
0.261699
0.261654
0.261687
0.261859
0.262111
0.262305
0.262527
0.262811
0.263246
0.263911
0.265275
0.266567
0.278508
0.300928
0.35752
0.424311
0.520901
0.615776
0.702415
0.783961
0.836659
0.886139
0.925861
0.937248
0.946025
0.9583
0.989532
1.01799
1.01788
1.01801
1.01685
1.01266
0.986242
0.963904
0.964176
0.970601
0.990104
1.01183
1.01204
1.00751
0.990427
0.979421
0.980295
0.98924
0.998975
0.997503
0.992414
0.986673
0.984264
0.982798
0.97812
0.977626
0.981155
0.98743
1.00589
0.261425
0.261382
0.261365
0.261359
0.261354
0.261351
0.261352
0.261355
0.261355
0.261353
0.261349
0.261339
0.261263
0.261194
0.261184
0.261184
0.261184
0.261181
0.261185
0.2612
0.261205
0.261208
0.26122
0.261223
0.261228
0.261238
0.261244
0.261212
0.261185
0.261184
0.261172
0.261109
0.261031
0.261011
0.260971
0.260825
0.260695
0.260707
0.260858
0.261326
0.261656
0.261685
0.261671
0.261632
0.261647
0.261661
0.261641
0.261629
0.26178
0.262208
0.262495
0.262634
0.262786
0.26308
0.263659
0.264767
0.266778
0.269001
0.270468
0.271158
0.271727
0.272004
0.274888
0.298144
0.338276
0.416742
0.513488
0.634984
0.762385
0.885642
0.942602
0.97584
1.00373
1.00685
1.00915
1.00625
0.989842
0.960945
0.961284
0.972904
0.994567
1.0116
1.01698
1.01275
0.9939
0.978469
0.979653
0.991568
1.00265
1.00235
0.995928
0.992358
0.989539
0.989615
0.987015
0.980067
0.9786
0.98212
0.991207
1.00775
0.261375
0.261353
0.26131
0.261273
0.261244
0.261226
0.261223
0.261221
0.261222
0.261219
0.261206
0.261163
0.261066
0.261018
0.261037
0.261092
0.26112
0.261136
0.261123
0.261075
0.261107
0.261287
0.261385
0.261399
0.261404
0.261408
0.261409
0.261382
0.261319
0.261278
0.261275
0.26128
0.261248
0.261173
0.261049
0.260864
0.260807
0.260845
0.261005
0.261331
0.26149
0.261486
0.261466
0.261485
0.261526
0.261521
0.261445
0.261465
0.261752
0.262359
0.26261
0.262624
0.262674
0.262899
0.263456
0.264545
0.266583
0.268921
0.270362
0.271058
0.271551
0.271938
0.272237
0.272687
0.273425
0.274244
0.274711
0.280112
0.310208
0.375636
0.489273
0.60591
0.717997
0.806186
0.875019
0.937908
0.942511
0.963002
0.976798
1.00981
1.02123
1.02241
1.01913
0.991997
0.972744
0.974852
0.990701
1.01054
1.00991
1.00106
0.99394
0.995526
0.998181
0.996381
0.990248
0.981571
0.98272
0.98823
0.994025
1.00849
0.261202
0.261195
0.261192
0.261195
0.261199
0.2612
0.261201
0.2612
0.261197
0.261191
0.261167
0.261103
0.261013
0.260996
0.261039
0.261131
0.26116
0.261161
0.261176
0.26125
0.261424
0.261555
0.261574
0.26158
0.26157
0.261542
0.261529
0.261512
0.261461
0.261373
0.261346
0.261351
0.261345
0.261252
0.260986
0.260859
0.260867
0.26092
0.261166
0.261263
0.261237
0.26111
0.260974
0.260974
0.261076
0.261175
0.261205
0.261299
0.261775
0.262481
0.262644
0.26263
0.26264
0.2628
0.263271
0.264422
0.266664
0.268707
0.26959
0.270204
0.271015
0.271892
0.272349
0.272631
0.273081
0.273397
0.273626
0.274023
0.274578
0.275076
0.275231
0.277229
0.298334
0.365301
0.468257
0.614556
0.762679
0.919399
0.965866
1.00188
1.0134
1.01152
0.988626
0.956533
0.965195
0.986145
1.00982
1.01377
1.00614
0.991974
0.993212
1.00206
1.0029
0.999355
0.990072
0.985391
0.986853
0.992948
0.995808
1.00846
0.261016
0.261017
0.261006
0.261011
0.261039
0.261057
0.261064
0.261067
0.261065
0.261054
0.261024
0.260975
0.260925
0.260908
0.260908
0.26091
0.260919
0.26096
0.2611
0.261351
0.261578
0.261609
0.261612
0.261615
0.261614
0.261585
0.261503
0.26141
0.261322
0.261269
0.26127
0.261269
0.261221
0.26107
0.260917
0.260878
0.260888
0.26098
0.261028
0.261017
0.260858
0.260552
0.260465
0.260539
0.260759
0.260898
0.260963
0.261123
0.261692
0.262502
0.262859
0.26292
0.262988
0.26322
0.263705
0.264683
0.26641
0.26804
0.269002
0.26974
0.270694
0.271749
0.27237
0.272635
0.272701
0.272523
0.272334
0.272245
0.272287
0.272588
0.272789
0.272868
0.273055
0.273008
0.272484
0.273545
0.313684
0.401905
0.570258
0.726364
0.820643
0.91464
0.924866
0.959145
0.984658
1.01528
1.02041
1.01384
0.986991
0.987522
0.998168
1.00999
1.00766
0.998803
0.989711
0.989968
0.991562
0.995501
0.996014
1.00916
0.261046
0.261031
0.261021
0.261018
0.261021
0.261042
0.26105
0.261049
0.261037
0.260997
0.260965
0.260959
0.260953
0.260934
0.260916
0.260915
0.260933
0.261055
0.26139
0.261519
0.26152
0.261504
0.261482
0.261464
0.261438
0.261377
0.261316
0.261261
0.261195
0.261176
0.261212
0.261263
0.261244
0.261142
0.26099
0.260835
0.260722
0.260706
0.260723
0.26069
0.260363
0.260058
0.26006
0.260291
0.260648
0.260754
0.260799
0.260949
0.261601
0.262461
0.262839
0.263057
0.263289
0.263628
0.264203
0.265023
0.266326
0.267681
0.268635
0.269481
0.270633
0.271737
0.272183
0.272085
0.271558
0.270839
0.270285
0.269885
0.26965
0.269688
0.269917
0.270107
0.270311
0.270472
0.270462
0.270477
0.270539
0.27059
0.273606
0.298145
0.394391
0.543817
0.736815
0.918989
0.972795
1.00541
1.01235
0.986129
0.972061
0.988504
1.0095
1.01083
1.00582
0.998078
0.994499
0.995045
0.995924
0.995707
0.996041
1.01273
0.261123
0.261088
0.261084
0.261083
0.26108
0.26107
0.261047
0.26101
0.260959
0.26094
0.260942
0.260963
0.26096
0.260931
0.260908
0.260875
0.26086
0.260882
0.2609
0.260894
0.260849
0.260855
0.260939
0.260975
0.26097
0.260954
0.260965
0.260969
0.260948
0.260945
0.261
0.261009
0.260935
0.260732
0.260569
0.260538
0.260549
0.260573
0.260579
0.260451
0.259949
0.259738
0.259779
0.260158
0.260451
0.260485
0.260533
0.260756
0.261553
0.262366
0.262734
0.263077
0.263468
0.263856
0.264418
0.26518
0.266317
0.267342
0.268014
0.268763
0.26918
0.269021
0.268759
0.268417
0.267937
0.267246
0.266922
0.266908
0.266883
0.267006
0.267273
0.267433
0.267876
0.268932
0.26976
0.269835
0.269891
0.270095
0.270732
0.272074
0.273818
0.273869
0.311993
0.416862
0.608802
0.775062
0.915125
0.932051
0.978336
1.01574
1.01732
1.00977
1.00301
1.00061
1.00134
1.00136
0.998652
0.994907
0.999444
1.02264
0.260914
0.260813
0.260712
0.260621
0.260553
0.260502
0.260435
0.26038
0.260349
0.260316
0.260311
0.260304
0.260212
0.26004
0.260008
0.260013
0.260028
0.260073
0.260139
0.260126
0.260075
0.260107
0.26033
0.260567
0.260688
0.260784
0.260819
0.260814
0.260794
0.260813
0.260895
0.260906
0.260844
0.26066
0.260592
0.260615
0.260643
0.260644
0.260622
0.26038
0.259884
0.259737
0.259755
0.259925
0.259995
0.260014
0.260128
0.260575
0.261519
0.262273
0.262569
0.262956
0.263507
0.263969
0.264504
0.265015
0.265207
0.265729
0.266195
0.266079
0.265433
0.26464
0.264202
0.263914
0.263773
0.263806
0.264026
0.264409
0.264708
0.265094
0.265824
0.266486
0.26713
0.268277
0.269675
0.269699
0.269769
0.270059
0.271153
0.274031
0.277546
0.277467
0.276068
0.275978
0.286127
0.353335
0.509583
0.752659
0.945345
0.994718
1.023
1.01685
1.01679
1.01284
1.01063
1.00736
1.00125
1.00211
1.01191
1.03528
0.259516
0.259516
0.259521
0.259525
0.259516
0.259493
0.259487
0.259489
0.25953
0.259582
0.259586
0.259572
0.259552
0.25955
0.259566
0.259612
0.25967
0.259769
0.259913
0.259915
0.259841
0.259848
0.259975
0.260241
0.260548
0.260736
0.260759
0.260745
0.260735
0.260801
0.260928
0.260944
0.2609
0.260736
0.260633
0.260647
0.260656
0.26063
0.260483
0.260103
0.259655
0.259512
0.259466
0.259324
0.259077
0.259067
0.259284
0.259865
0.260151
0.260091
0.260109
0.261056
0.262622
0.262751
0.262415
0.2615
0.26139
0.262065
0.263264
0.263439
0.26328
0.262752
0.262271
0.261973
0.261907
0.261996
0.26235
0.263026
0.263753
0.264458
0.265456
0.266846
0.267263
0.267938
0.269347
0.269827
0.27098
0.273439
0.27551
0.277283
0.280481
0.281829
0.282732
0.284928
0.286873
0.289964
0.293841
0.344314
0.479794
0.69297
0.93229
0.984246
1.03314
1.03221
1.02914
1.02019
1.01408
1.01904
1.03079
1.05283
0.259845
0.259834
0.259832
0.259825
0.259805
0.259767
0.259755
0.259754
0.259736
0.25969
0.259682
0.259689
0.259737
0.259797
0.259857
0.259913
0.259991
0.260111
0.260131
0.260058
0.259879
0.259847
0.259897
0.260104
0.260218
0.260189
0.260018
0.259763
0.259744
0.259936
0.260048
0.260019
0.259811
0.259715
0.259836
0.259913
0.25981
0.259356
0.2585
0.257528
0.256769
0.256236
0.255872
0.255837
0.255985
0.256397
0.256625
0.256577
0.256448
0.25637
0.256535
0.257511
0.258469
0.25856
0.258504
0.258524
0.258781
0.259883
0.261619
0.262183
0.262109
0.261737
0.261326
0.261137
0.261145
0.261333
0.261815
0.262616
0.263608
0.264663
0.266401
0.269339
0.269918
0.269005
0.269431
0.272008
0.276724
0.282496
0.285425
0.284393
0.284426
0.286637
0.29188
0.298649
0.303083
0.303469
0.305631
0.309674
0.311464
0.341927
0.465208
0.724596
0.992468
1.02742
1.0454
1.03991
1.04438
1.0483
1.05652
1.07485
0.259531
0.25941
0.25934
0.259257
0.259075
0.259003
0.259003
0.259008
0.258911
0.258616
0.258548
0.258532
0.258496
0.25838
0.258036
0.257364
0.256971
0.256973
0.257079
0.257127
0.257089
0.256825
0.256333
0.255889
0.255572
0.255342
0.254951
0.254734
0.254785
0.255306
0.255662
0.255636
0.255429
0.255393
0.255577
0.255631
0.255518
0.255141
0.25479
0.254568
0.254457
0.254328
0.254123
0.253972
0.254062
0.254283
0.254288
0.254232
0.254252
0.254462
0.25522
0.256509
0.256877
0.256903
0.25699
0.257165
0.257595
0.258948
0.260923
0.261721
0.261703
0.261415
0.260996
0.260891
0.261003
0.261526
0.2626
0.264
0.26675
0.269761
0.270679
0.272763
0.276034
0.278351
0.280664
0.283803
0.285879
0.288728
0.29117
0.292875
0.295065
0.298404
0.30181
0.306606
0.313471
0.315548
0.315147
0.316441
0.320667
0.324572
0.326969
0.360267
0.510329
0.772049
1.01899
1.036
1.06634
1.07813
1.08979
1.09873
0.254117
0.253945
0.253755
0.253572
0.253409
0.253243
0.252939
0.252704
0.25269
0.252761
0.252943
0.252992
0.252945
0.252739
0.252429
0.25219
0.252031
0.251942
0.251952
0.252002
0.252027
0.251965
0.251554
0.251339
0.251524
0.251861
0.252063
0.252133
0.252327
0.25319
0.253818
0.253811
0.253726
0.253788
0.254181
0.254305
0.254238
0.254039
0.254001
0.254088
0.254181
0.254113
0.253899
0.253582
0.253337
0.253287
0.25323
0.25316
0.253216
0.253632
0.254722
0.255831
0.25609
0.25615
0.256299
0.256653
0.257243
0.25862
0.260796
0.261782
0.261964
0.261942
0.262075
0.262921
0.264909
0.268537
0.272798
0.276579
0.278721
0.280184
0.281107
0.281863
0.283932
0.287826
0.291916
0.296953
0.298677
0.298011
0.29874
0.302909
0.308876
0.314646
0.31661
0.316963
0.319048
0.323225
0.326196
0.328342
0.333067
0.340145
0.345581
0.345559
0.346575
0.399518
0.585808
0.835858
1.04232
1.07513
1.11337
1.13406
0.249547
0.249528
0.2495
0.249489
0.249478
0.249463
0.249474
0.249572
0.249581
0.249597
0.249836
0.250361
0.250798
0.251069
0.251154
0.251142
0.251024
0.250713
0.250586
0.250624
0.250653
0.250586
0.25032
0.250355
0.250874
0.2514
0.251564
0.25151
0.251551
0.252142
0.253094
0.253196
0.253169
0.253278
0.253825
0.254053
0.253994
0.25393
0.253966
0.254078
0.254045
0.253612
0.252705
0.252544
0.252735
0.25295
0.252935
0.252867
0.25293
0.253385
0.25451
0.255738
0.256033
0.256099
0.25637
0.257213
0.25863
0.261005
0.265027
0.270403
0.27496
0.277495
0.278878
0.279503
0.280719
0.283202
0.286018
0.288127
0.288097
0.288166
0.289662
0.293069
0.297396
0.301021
0.303105
0.305951
0.310658
0.314934
0.31631
0.316609
0.317934
0.321618
0.325097
0.327616
0.329435
0.333882
0.3396
0.343194
0.346553
0.351935
0.356356
0.356416
0.357081
0.358875
0.360697
0.436867
0.607553
0.84192
1.08083
1.13484
0.254329
0.254381
0.254369
0.254308
0.254289
0.254331
0.254352
0.254167
0.253865
0.253919
0.254245
0.25496
0.255732
0.25589
0.255954
0.255954
0.25558
0.254245
0.253027
0.252864
0.252927
0.253016
0.253035
0.253416
0.254009
0.253943
0.253305
0.252664
0.252632
0.252883
0.253741
0.253936
0.253937
0.254221
0.254939
0.255059
0.254797
0.254303
0.254294
0.254374
0.254339
0.253817
0.252693
0.252442
0.253138
0.254626
0.254763
0.254676
0.254987
0.256343
0.259295
0.262419
0.264634
0.266601
0.268694
0.270916
0.273811
0.277333
0.281566
0.286878
0.291668
0.293297
0.293249
0.292596
0.29196
0.292054
0.293164
0.294889
0.29697
0.299922
0.303826
0.308743
0.314542
0.319272
0.319564
0.318928
0.319768
0.323496
0.328057
0.330136
0.331366
0.33294
0.337029
0.34349
0.349361
0.35171
0.353069
0.355209
0.357577
0.359963
0.363229
0.365283
0.364845
0.366243
0.371916
0.373342
0.373628
0.441067
0.642983
0.992615
0.25616
0.256162
0.256322
0.25665
0.256875
0.257008
0.256921
0.256007
0.254344
0.254141
0.254879
0.256947
0.258421
0.258549
0.258542
0.258524
0.257978
0.256331
0.255513
0.25552
0.255705
0.256118
0.256602
0.256652
0.256225
0.254678
0.253216
0.252901
0.25306
0.25356
0.254572
0.255014
0.255244
0.255527
0.255992
0.256802
0.257392
0.257457
0.257554
0.258088
0.25979
0.262506
0.263537
0.264092
0.265359
0.267818
0.270991
0.274115
0.276816
0.278951
0.281235
0.283928
0.286406
0.288219
0.289486
0.290228
0.290904
0.291663
0.292701
0.294681
0.297298
0.298786
0.299279
0.299842
0.300437
0.30208
0.306176
0.312527
0.318916
0.323829
0.326619
0.32711
0.328262
0.330761
0.332233
0.332205
0.331555
0.332379
0.336822
0.343582
0.349702
0.353199
0.354944
0.355957
0.358048
0.360352
0.362887
0.366648
0.369798
0.370876
0.372862
0.376566
0.379162
0.381359
0.383017
0.384759
0.386668
0.387218
0.387434
0.642666
0.259891
0.260091
0.260816
0.260998
0.260877
0.26044
0.259591
0.258882
0.258989
0.260781
0.265064
0.265901
0.265894
0.265645
0.264095
0.262984
0.262915
0.263044
0.263911
0.265397
0.266747
0.268005
0.269535
0.27083
0.271082
0.271143
0.271341
0.272145
0.274095
0.277459
0.280319
0.280829
0.280683
0.280633
0.280783
0.281738
0.283495
0.284323
0.284486
0.28466
0.285264
0.286729
0.28861
0.290697
0.292446
0.292627
0.292414
0.292359
0.292562
0.293397
0.294488
0.295358
0.29608
0.296943
0.298336
0.299718
0.300582
0.300797
0.300816
0.301414
0.304745
0.311575
0.318646
0.323744
0.327657
0.331026
0.333693
0.33595
0.338514
0.34021
0.3401
0.338547
0.337109
0.337688
0.340672
0.345749
0.350248
0.354002
0.356854
0.360218
0.363088
0.365549
0.365921
0.364941
0.365216
0.369254
0.376238
0.381792
0.38165
0.381299
0.381489
0.384172
0.390089
0.394825
0.397514
0.399664
0.400273
0.400776
0.40106
0.416823
0.285317
0.285601
0.285991
0.286283
0.286485
0.28674
0.287446
0.288216
0.288789
0.290082
0.291598
0.291879
0.291041
0.289642
0.289462
0.289641
0.29025
0.291988
0.294106
0.294328
0.293991
0.293588
0.293677
0.294339
0.294688
0.294519
0.293734
0.29324
0.293386
0.294881
0.296757
0.29675
0.295843
0.295533
0.295648
0.296588
0.298459
0.299022
0.298823
0.298458
0.298391
0.298628
0.299482
0.299653
0.299586
0.299324
0.298996
0.299178
0.300001
0.301648
0.303648
0.305664
0.308036
0.310721
0.313724
0.317594
0.322227
0.326836
0.33055
0.333958
0.337675
0.341399
0.344731
0.346768
0.348066
0.348364
0.347794
0.346916
0.346884
0.347449
0.34774
0.348696
0.350657
0.353714
0.358487
0.365336
0.371239
0.374643
0.374498
0.374469
0.374014
0.374544
0.377012
0.381557
0.387219
0.389528
0.391814
0.393207
0.393438
0.394914
0.397833
0.40257
0.40784
0.409223
0.411026
0.411301
0.411381
0.410901
0.411073
0.411642
0.303265
0.302496
0.302378
0.302374
0.30247
0.302974
0.303764
0.304543
0.305086
0.305236
0.30535
0.305477
0.305582
0.30563
0.306066
0.307129
0.308091
0.309818
0.310862
0.310788
0.30929
0.308286
0.308413
0.309401
0.312606
0.31441
0.314112
0.312024
0.311172
0.311533
0.311936
0.311757
0.310641
0.309727
0.309889
0.311234
0.314018
0.316511
0.317364
0.317829
0.319129
0.321705
0.32247
0.322374
0.322574
0.324027
0.327046
0.329687
0.331318
0.332715
0.33458
0.33712
0.340007
0.342857
0.34575
0.348636
0.350831
0.35216
0.353161
0.354334
0.355683
0.35573
0.355577
0.355684
0.355858
0.356022
0.355469
0.355756
0.357133
0.360506
0.365908
0.372515
0.378462
0.382538
0.384103
0.384749
0.385411
0.385329
0.384762
0.385349
0.387496
0.391223
0.396568
0.401829
0.405866
0.405445
0.404166
0.404557
0.407203
0.411451
0.416255
0.41914
0.42203
0.422176
0.42144
0.421322
0.421876
0.423168
0.423923
0.426252
0.327646
0.32763
0.32771
0.328085
0.328677
0.329424
0.330425
0.331037
0.331032
0.330433
0.328855
0.327169
0.32663
0.326834
0.327716
0.329085
0.329706
0.32953
0.32914
0.329193
0.329752
0.33126
0.333764
0.336238
0.337301
0.337352
0.336927
0.336098
0.335916
0.335937
0.336305
0.33774
0.339253
0.340026
0.340907
0.342615
0.343707
0.34372
0.343401
0.343048
0.343217
0.344576
0.346121
0.346925
0.348194
0.350731
0.352455
0.352546
0.352337
0.351873
0.351619
0.351741
0.352628
0.354351
0.356746
0.3594
0.360083
0.360265
0.360925
0.362472
0.365219
0.367249
0.368259
0.369645
0.372219
0.375592
0.380084
0.385481
0.390489
0.393651
0.394927
0.395299
0.396448
0.397552
0.397476
0.396193
0.395793
0.396685
0.399857
0.404629
0.409736
0.41342
0.415882
0.416003
0.415211
0.41513
0.416564
0.419715
0.424341
0.42808
0.431297
0.431389
0.432209
0.433572
0.434964
0.437137
0.438452
0.438051
0.43723
0.438341
0.350813
0.351689
0.352496
0.353066
0.353689
0.354277
0.35435
0.353823
0.352484
0.352336
0.352517
0.352734
0.353241
0.354004
0.354066
0.353659
0.35365
0.354328
0.355226
0.35543
0.355462
0.356058
0.356915
0.356875
0.356031
0.355143
0.35532
0.355758
0.35576
0.355793
0.356238
0.357499
0.358326
0.3583
0.358224
0.358422
0.36033
0.361884
0.362338
0.362969
0.363128
0.362808
0.36251
0.362674
0.363326
0.364251
0.365993
0.36856
0.371026
0.373069
0.37478
0.375925
0.376507
0.377108
0.378411
0.381152
0.384963
0.388457
0.391125
0.393491
0.396242
0.399552
0.402836
0.405066
0.405826
0.406023
0.406163
0.406741
0.408593
0.409629
0.40948
0.407993
0.406926
0.407285
0.409048
0.412169
0.416693
0.421354
0.425868
0.428433
0.430384
0.430941
0.430268
0.42973
0.430485
0.433475
0.437044
0.441631
0.445702
0.448984
0.449217
0.449487
0.450376
0.452076
0.453542
0.453494
0.453223
0.452207
0.451361
0.451845
0.376753
0.377214
0.377107
0.375699
0.374549
0.374452
0.374642
0.375248
0.376452
0.377835
0.379133
0.380259
0.380472
0.380254
0.380013
0.38004
0.380277
0.380297
0.380009
0.379867
0.379941
0.380787
0.383223
0.383969
0.384013
0.384445
0.385883
0.386654
0.386408
0.386145
0.386371
0.387665
0.388577
0.388337
0.388208
0.388655
0.390267
0.390737
0.390546
0.390598
0.391446
0.392067
0.392321
0.392596
0.393409
0.39595
0.399143
0.399651
0.399373
0.399433
0.400453
0.402245
0.40386
0.405354
0.407045
0.409439
0.412878
0.414575
0.414642
0.414592
0.414397
0.414445
0.415144
0.41635
0.417327
0.417602
0.417075
0.416192
0.416479
0.418207
0.421698
0.426102
0.430275
0.434301
0.438336
0.441966
0.444463
0.446879
0.446972
0.44632
0.444804
0.445063
0.446231
0.449185
0.453232
0.456977
0.459795
0.461806
0.463688
0.464132
0.46367
0.46369
0.464525
0.466418
0.467689
0.467935
0.467777
0.466653
0.466538
0.467769
0.409198
0.409262
0.408935
0.407903
0.407494
0.407473
0.407472
0.407564
0.407627
0.408079
0.409184
0.409307
0.408517
0.407503
0.40741
0.407816
0.409221
0.409462
0.408553
0.407697
0.407676
0.408526
0.410954
0.411426
0.411394
0.411623
0.412047
0.412053
0.41195
0.412211
0.413451
0.414518
0.414957
0.415247
0.415538
0.415656
0.415351
0.414282
0.4137
0.413807
0.414716
0.416615
0.417272
0.417697
0.418622
0.419046
0.418702
0.417361
0.416666
0.416955
0.41777
0.418926
0.420357
0.421985
0.423168
0.424569
0.427224
0.429927
0.431989
0.434257
0.436284
0.437247
0.438088
0.439554
0.442053
0.445693
0.45037
0.454703
0.45685
0.458338
0.459983
0.461834
0.462814
0.464014
0.464135
0.464008
0.46339
0.462654
0.461479
0.461839
0.463586
0.466598
0.470592
0.474116
0.476956
0.478042
0.479399
0.478871
0.478872
0.478585
0.478595
0.479195
0.480929
0.482991
0.483683
0.483742
0.483449
0.482412
0.480776
0.480875
0.437151
0.437218
0.437269
0.437354
0.437454
0.43753
0.43757
0.437614
0.437716
0.437709
0.437445
0.437214
0.43732
0.437917
0.43866
0.438943
0.439121
0.439288
0.439239
0.439009
0.438982
0.439064
0.439023
0.438788
0.438727
0.438889
0.439158
0.43929
0.439381
0.43945
0.439383
0.438937
0.438475
0.438461
0.438637
0.439203
0.440341
0.441859
0.443169
0.444048
0.444197
0.443857
0.442989
0.442662
0.44283
0.44347
0.444857
0.446948
0.449331
0.451491
0.453259
0.45462
0.455737
0.456783
0.458216
0.460249
0.463068
0.466521
0.469172
0.471262
0.47337
0.475199
0.476866
0.477601
0.477414
0.477003
0.477004
0.47768
0.478734
0.478887
0.478336
0.4767
0.47481
0.474066
0.474098
0.474767
0.476476
0.479245
0.48341
0.488067
0.492656
0.496086
0.498419
0.499045
0.499256
0.498847
0.49793
0.497792
0.498158
0.498261
0.499138
0.50108
0.503492
0.505332
0.505193
0.504554
0.503755
0.503753
0.503718
0.502794
0.469775
0.469897
0.469987
0.470048
0.470173
0.470294
0.4703
0.470294
0.470461
0.470854
0.470854
0.470597
0.470662
0.470982
0.470967
0.470741
0.470691
0.470936
0.471227
0.471159
0.47113
0.471362
0.471816
0.471912
0.471986
0.472395
0.473037
0.473259
0.473378
0.473584
0.474305
0.475328
0.475751
0.476096
0.476541
0.476611
0.476433
0.476351
0.47657
0.476975
0.477285
0.477659
0.478728
0.480478
0.481609
0.48253
0.482784
0.482641
0.48261
0.483078
0.484339
0.485887
0.487365
0.489257
0.491128
0.492727
0.495148
0.496225
0.496006
0.495846
0.49627
0.496407
0.496158
0.495667
0.495694
0.49595
0.495845
0.495924
0.496586
0.498265
0.500518
0.503235
0.506603
0.509978
0.513523
0.516869
0.519644
0.521545
0.522339
0.522162
0.521621
0.520903
0.519831
0.51862
0.517578
0.516203
0.515587
0.516565
0.518915
0.522468
0.525841
0.528847
0.52875
0.527262
0.526031
0.52577
0.525281
0.523741
0.520692
0.517867
0.508267
0.508472
0.508968
0.509026
0.50878
0.508468
0.508439
0.508505
0.509117
0.51002
0.510147
0.510017
0.509692
0.509726
0.509788
0.509686
0.509776
0.510536
0.510807
0.510762
0.510753
0.510721
0.510594
0.510566
0.510796
0.511204
0.511215
0.511106
0.511049
0.511088
0.51137
0.511737
0.511763
0.511769
0.512021
0.512427
0.512581
0.512821
0.513306
0.51345
0.513431
0.513516
0.513912
0.514086
0.514016
0.513772
0.513747
0.513983
0.514639
0.515537
0.516219
0.516831
0.517503
0.518731
0.519748
0.520306
0.521127
0.522652
0.52516
0.527948
0.529461
0.529787
0.530005
0.530539
0.531675
0.533421
0.535625
0.537579
0.538985
0.53999
0.540893
0.541951
0.542859
0.543005
0.542837
0.54226
0.541175
0.539265
0.536764
0.533798
0.531214
0.529342
0.528898
0.530009
0.532521
0.536633
0.541952
0.54588
0.548916
0.550832
0.550186
0.548424
0.546224
0.544051
0.543778
0.543661
0.542468
0.53933
0.534065
0.532202
0.549438
0.549494
0.549534
0.549544
0.549347
0.549234
0.54924
0.549235
0.549204
0.54925
0.549432
0.549466
0.54926
0.549144
0.549192
0.549201
0.549054
0.548991
0.548997
0.548886
0.548698
0.548734
0.548954
0.54901
0.548906
0.548883
0.54899
0.549074
0.548996
0.548798
0.548777
0.548839
0.548879
0.548827
0.548615
0.548471
0.548375
0.548264
0.54823
0.548379
0.548441
0.548313
0.548158
0.5482
0.548453
0.548892
0.549223
0.549459
0.549739
0.550227
0.550988
0.551845
0.552574
0.553432
0.554959
0.557144
0.559539
0.561408
0.562673
0.5639
0.565021
0.566023
0.567234
0.568012
0.567978
0.567496
0.567022
0.567171
0.567526
0.56741
0.566966
0.566151
0.564921
0.563627
0.562424
0.56179
0.562271
0.563365
0.56505
0.567499
0.571008
0.574644
0.577513
0.579649
0.580686
0.580525
0.579941
0.578469
0.576789
0.574798
0.571808
0.56782
0.567996
0.569481
0.56962
0.568625
0.566196
0.562069
0.558466
0.557525
0.595131
0.595098
0.595202
0.595408
0.595377
0.595241
0.595265
0.595403
0.595366
0.595318
0.595331
0.595318
0.595236
0.595177
0.595132
0.595139
0.595186
0.595166
0.594955
0.59489
0.594917
0.594821
0.594475
0.594415
0.594616
0.594759
0.59468
0.594472
0.59444
0.594425
0.594363
0.594313
0.594295
0.594254
0.594214
0.594252
0.594351
0.594336
0.594171
0.594118
0.594219
0.594476
0.594556
0.594544
0.59451
0.594576
0.594863
0.595079
0.595254
0.595573
0.596221
0.597163
0.598068
0.598977
0.600108
0.601323
0.602637
0.604358
0.606043
0.606368
0.606277
0.605987
0.605693
0.605464
0.605254
0.605128
0.604925
0.604525
0.604145
0.604079
0.604236
0.604753
0.60575
0.60662
0.607145
0.607751
0.608722
0.609127
0.608974
0.608481
0.607437
0.605896
0.603965
0.601413
0.597782
0.593944
0.589852
0.586531
0.585775
0.586864
0.58998
0.595477
0.597148
0.596143
0.594078
0.591175
0.587519
0.583772
0.580134
0.577858
0.64724
0.646432
0.646121
0.646249
0.646432
0.646297
0.646242
0.646293
0.646288
0.645945
0.645653
0.645595
0.645489
0.645404
0.645392
0.645254
0.645159
0.645169
0.645
0.644526
0.644446
0.6445
0.64447
0.644066
0.643633
0.643651
0.643759
0.643702
0.64322
0.642431
0.642208
0.642204
0.642174
0.641821
0.641502
0.64146
0.641337
0.640986
0.640489
0.639762
0.639284
0.639189
0.639152
0.639061
0.638828
0.638401
0.637968
0.637818
0.637725
0.63762
0.637662
0.637839
0.638157
0.638908
0.64015
0.641117
0.64208
0.642893
0.643198
0.643301
0.64327
0.64329
0.643543
0.643679
0.643781
0.643555
0.642582
0.642179
0.642388
0.642695
0.642692
0.642517
0.642313
0.642175
0.641835
0.641013
0.639372
0.637477
0.635791
0.633715
0.631796
0.629669
0.628615
0.628895
0.630081
0.631788
0.633315
0.635952
0.636266
0.636006
0.63486
0.632334
0.628518
0.624836
0.621091
0.618089
0.615714
0.613518
0.610522
0.605991
0.705624
0.705237
0.705133
0.705299
0.705181
0.703851
0.703132
0.703345
0.703614
0.703478
0.703322
0.703454
0.703719
0.703394
0.70192
0.701291
0.701346
0.701745
0.701952
0.701868
0.701429