/*--------------------------------*- C++ -*----------------------------------*\
  =========                 |
  \\      /  F ield         | OpenFOAM: The Open Source CFD Toolbox
   \\    /   O peration     | Website:  https://openfoam.org
    \\  /    A nd           | Version:  7
     \\/     M anipulation  |
\*---------------------------------------------------------------------------*/
FoamFile
{
    version     2.0;
    format      ascii;
    class       volScalarField;
    location    "14.5";
    object      rho;
}
// * * * * * * * * * * * * * * * * * * * * * * * * * * * * * * * * * * * * * //

dimensions      [1 -3 0 0 0 0 0];

internalField   nonuniform List<scalar> 
90000
(
0.542797
0.579455
0.617769
0.650796
0.684602
0.720366
0.751447
0.781309
0.814638
0.848026
0.879659
0.912676
0.947316
0.98129
1.01549
1.0499
1.08441
1.11734
1.15157
1.18268
1.21361
1.23872
1.26152
1.27327
1.28069
1.28337
1.28718
1.28695
1.2863
1.28508
1.28478
1.2828
1.28012
1.27712
1.27359
1.2701
1.26585
1.26123
1.25567
1.25545
1.25827
1.2632
1.26883
1.27451
1.27963
1.28431
1.28743
1.29156
1.29102
1.28742
1.28075
1.27463
1.27158
1.27251
1.27586
1.28134
1.28682
1.29128
1.29128
1.28915
1.28462
1.28026
1.2775
1.27913
1.28391
1.2887
1.2911
1.29037
1.28789
1.28406
1.284
1.28553
1.28915
1.2915
1.29074
1.28819
1.28709
1.28793
1.29034
1.29239
1.29191
1.29063
1.29061
1.29123
1.29215
1.2927
1.29298
1.29327
1.29345
1.29344
1.29354
1.29399
1.29466
1.29499
1.29527
1.29576
1.29635
1.29673
1.29672
1.29735
0.513571
0.513587
0.513606
0.513647
0.51376
0.514093
0.514757
0.515925
0.517884
0.521134
0.525586
0.532215
0.541008
0.553268
0.568426
0.588647
0.612482
0.643011
0.677706
0.720258
0.766443
0.819496
0.87521
0.931977
0.986535
1.03484
1.08086
1.11761
1.15226
1.17656
1.20011
1.2132
1.22656
1.23195
1.23861
1.24107
1.24455
1.24606
1.25221
1.2608
1.27095
1.27774
1.28281
1.2864
1.28729
1.28718
1.28659
1.28333
1.27402
1.26567
1.26224
1.26384
1.26533
1.26844
1.27341
1.27782
1.28333
1.28407
1.28175
1.27639
1.27091
1.27084
1.27339
1.27568
1.27903
1.28392
1.28313
1.28041
1.2764
1.27603
1.27836
1.28292
1.28409
1.28354
1.28057
1.27888
1.27957
1.2823
1.28443
1.28446
1.28269
1.28211
1.28267
1.28441
1.2854
1.28517
1.28536
1.2858
1.28596
1.28588
1.28617
1.28681
1.28722
1.2876
1.28804
1.28864
1.2891
1.28939
1.28956
1.29005
0.51448
0.514536
0.514598
0.514668
0.514741
0.514834
0.514903
0.514949
0.514987
0.515034
0.515098
0.515174
0.515248
0.515323
0.515407
0.515508
0.515607
0.515759
0.516065
0.5169
0.518698
0.52266
0.529291
0.541476
0.558802
0.585283
0.617991
0.661957
0.711454
0.771033
0.833086
0.899399
0.964472
1.0255
1.08398
1.1321
1.17968
1.21446
1.2464
1.26237
1.27286
1.27775
1.28207
1.28481
1.28585
1.28385
1.27542
1.26029
1.2498
1.25259
1.25933
1.26617
1.27475
1.28079
1.28423
1.2838
1.2817
1.27536
1.26804
1.26437
1.26467
1.26673
1.27276
1.28179
1.28359
1.28202
1.277
1.27164
1.27014
1.27175
1.27642
1.28205
1.28196
1.27959
1.27513
1.27529
1.27649
1.27956
1.28193
1.28097
1.27931
1.27938
1.28017
1.28076
1.28131
1.28174
1.282
1.28206
1.28202
1.28213
1.28236
1.28301
1.28325
1.2832
1.28356
1.28425
1.28459
1.28453
1.28452
1.28526
0.515837
0.515902
0.515973
0.516045
0.516121
0.516197
0.516277
0.516361
0.516448
0.516536
0.516629
0.516724
0.516822
0.516922
0.517026
0.517129
0.51723
0.517328
0.517426
0.517552
0.517597
0.517636
0.517678
0.517729
0.517781
0.517844
0.517892
0.518091
0.518799
0.521265
0.526481
0.538281
0.556686
0.588277
0.629011
0.68698
0.752722
0.832154
0.912545
0.989005
1.05928
1.11261
1.16103
1.18882
1.21474
1.2257
1.23414
1.23928
1.25653
1.26959
1.2833
1.28994
1.29552
1.29444
1.29213
1.28745
1.27328
1.26214
1.26082
1.26269
1.26748
1.27662
1.28563
1.28795
1.28586
1.27747
1.27012
1.26903
1.27058
1.27703
1.28306
1.28343
1.28097
1.27507
1.27383
1.27508
1.27949
1.28174
1.28073
1.27788
1.2775
1.27842
1.28015
1.2806
1.28007
1.28033
1.28098
1.28097
1.2806
1.28075
1.28133
1.28168
1.28168
1.28175
1.28198
1.28253
1.28261
1.28254
1.28259
1.28302
0.51721
0.517259
0.51731
0.517362
0.517414
0.517466
0.51752
0.517574
0.51763
0.517686
0.517742
0.517797
0.517852
0.517907
0.517963
0.518016
0.518071
0.518122
0.518175
0.518221
0.518268
0.518315
0.518363
0.518412
0.518457
0.518501
0.518539
0.518588
0.518605
0.518622
0.518641
0.518663
0.518688
0.518718
0.518739
0.519177
0.520938
0.527552
0.541147
0.570251
0.612558
0.67773
0.755109
0.848153
0.944033
1.03402
1.12207
1.18983
1.24034
1.25867
1.27392
1.27996
1.28644
1.28627
1.28304
1.2712
1.26048
1.26295
1.26882
1.27936
1.28775
1.29308
1.29067
1.28749
1.27769
1.27106
1.26988
1.2722
1.28084
1.28772
1.2861
1.2822
1.27589
1.27374
1.27534
1.28108
1.28453
1.28305
1.2789
1.2774
1.27806
1.28049
1.28159
1.28079
1.28031
1.28055
1.2811
1.28105
1.28059
1.28071
1.28132
1.28169
1.28139
1.28138
1.2816
1.28202
1.282
1.28172
1.28186
1.28265
0.518062
0.518089
0.518117
0.518144
0.518171
0.5182
0.518229
0.518258
0.518287
0.518317
0.518346
0.518374
0.518402
0.51843
0.518458
0.518486
0.518512
0.518538
0.518565
0.51859
0.518615
0.518639
0.518663
0.518686
0.518707
0.518726
0.518745
0.518764
0.518781
0.5188
0.518819
0.518842
0.518868
0.518897
0.518928
0.518939
0.518948
0.51896
0.51897
0.518984
0.518989
0.519322
0.521339
0.530169
0.549852
0.592329
0.655652
0.750869
0.857351
0.964252
1.06337
1.12899
1.19175
1.21843
1.24377
1.24922
1.26403
1.28078
1.29999
1.30772
1.30658
1.30389
1.29267
1.27624
1.27043
1.27128
1.27685
1.28728
1.29684
1.29473
1.28708
1.27741
1.27455
1.27707
1.28446
1.28927
1.28769
1.28149
1.27854
1.27917
1.28223
1.2839
1.28295
1.28133
1.28134
1.28195
1.28217
1.28151
1.28095
1.28161
1.28243
1.28221
1.28155
1.2816
1.28214
1.28233
1.28214
1.28185
1.28197
1.28275
0.518509
0.518522
0.518534
0.518547
0.518559
0.518572
0.518585
0.518598
0.518611
0.518624
0.518638
0.518651
0.518666
0.51868
0.518693
0.518706
0.518719
0.518732
0.518747
0.518761
0.518775
0.518789
0.518804
0.51882
0.518835
0.518851
0.518867
0.518885
0.518903
0.518923
0.518943
0.518966
0.518992
0.51902
0.519043
0.519067
0.519088
0.519103
0.519108
0.519113
0.519111
0.519097
0.519077
0.519061
0.519057
0.519056
0.519151
0.521644
0.530847
0.562313
0.615352
0.707904
0.818394
0.944514
1.06581
1.16353
1.24287
1.27134
1.29048
1.29839
1.29847
1.29109
1.26512
1.26756
1.27518
1.28542
1.29644
1.30164
1.29972
1.28838
1.276
1.2749
1.27796
1.2878
1.29371
1.29251
1.28531
1.28068
1.28093
1.28423
1.28678
1.28593
1.28419
1.28346
1.28434
1.28463
1.28392
1.28283
1.28317
1.28416
1.28402
1.28323
1.2828
1.28321
1.28346
1.28323
1.28259
1.28251
1.28277
1.28374
0.518738
0.518742
0.518746
0.518751
0.518755
0.51876
0.518765
0.518772
0.518779
0.518785
0.518792
0.518798
0.518805
0.518813
0.518822
0.518831
0.518841
0.518851
0.518862
0.518873
0.518885
0.518899
0.518915
0.518933
0.518951
0.518971
0.518997
0.519024
0.519051
0.519075
0.519098
0.519124
0.519154
0.51918
0.519201
0.519217
0.519227
0.519226
0.51922
0.519208
0.519191
0.519168
0.519131
0.519109
0.519108
0.519107
0.519109
0.519122
0.519149
0.519197
0.51923
0.520356
0.526664
0.553819
0.608352
0.711869
0.842382
0.974418
1.09401
1.16329
1.22434
1.24058
1.25089
1.28281
1.30001
1.31222
1.31318
1.30985
1.28965
1.27353
1.27351
1.27888
1.2911
1.30099
1.29902
1.28921
1.28196
1.28209
1.28617
1.29058
1.28978
1.28677
1.28547
1.28638
1.28755
1.28689
1.2853
1.28498
1.28605
1.28669
1.28617
1.285
1.2849
1.28534
1.28531
1.28483
1.28415
1.28419
1.28447
1.28529
0.518852
0.518853
0.518855
0.518856
0.518859
0.518861
0.518864
0.518869
0.518876
0.518883
0.51889
0.518897
0.518906
0.518916
0.518926
0.518938
0.51895
0.518964
0.518978
0.518993
0.519008
0.519025
0.519046
0.519067
0.519088
0.519112
0.51914
0.519169
0.519196
0.519218
0.519238
0.51926
0.519283
0.519299
0.519312
0.519323
0.519325
0.519322
0.519312
0.519294
0.519272
0.519245
0.519207
0.519183
0.51918
0.519181
0.519187
0.519205
0.519233
0.519273
0.519314
0.519355
0.519399
0.519467
0.519509
0.52078
0.530081
0.568197
0.642293
0.77084
0.919758
1.06758
1.18849
1.2672
1.28908
1.30262
1.3023
1.29119
1.26312
1.26915
1.28258
1.29727
1.30359
1.3015
1.29103
1.27988
1.2807
1.28733
1.29312
1.29227
1.28984
1.2871
1.28732
1.28928
1.28935
1.28825
1.28636
1.28686
1.28868
1.28858
1.28722
1.28666
1.2871
1.28737
1.28696
1.28612
1.28565
1.28581
1.28623
1.28714
0.518907
0.518908
0.518911
0.518914
0.518919
0.518923
0.518928
0.518937
0.518947
0.518957
0.518967
0.518978
0.518994
0.519008
0.519021
0.519035
0.519052
0.519069
0.519085
0.519099
0.519113
0.519132
0.51915
0.519164
0.519179
0.519199
0.519227
0.519251
0.519267
0.519282
0.519299
0.519318
0.519333
0.519344
0.519354
0.519365
0.519367
0.519361
0.519347
0.519328
0.519304
0.519275
0.519244
0.519225
0.519224
0.519229
0.519241
0.519264
0.51929
0.519315
0.519342
0.519367
0.519398
0.51945
0.519518
0.51957
0.519579
0.519542
0.519555
0.523678
0.544999
0.613062
0.742499
0.902057
1.04666
1.1509
1.21433
1.24308
1.25825
1.2916
1.31007
1.31289
1.30952
1.28837
1.27585
1.27742
1.28634
1.29748
1.29699
1.29282
1.28631
1.2865
1.28947
1.29137
1.29041
1.28703
1.28686
1.28889
1.29005
1.28938
1.28776
1.28744
1.28843
1.28842
1.28788
1.28701
1.28672
1.28701
1.28768
1.28853
0.519009
0.519015
0.519023
0.51903
0.519037
0.519045
0.519051
0.519059
0.519075
0.519093
0.519104
0.519114
0.519128
0.519141
0.519148
0.519157
0.519169
0.519182
0.519193
0.519204
0.519213
0.519221
0.519228
0.519234
0.519243
0.519258
0.519273
0.519285
0.519296
0.519309
0.519323
0.519336
0.519348
0.519358
0.519368
0.519381
0.519387
0.519381
0.519363
0.519342
0.519323
0.519306
0.519296
0.519294
0.5193
0.519311
0.519329
0.51934
0.519346
0.519354
0.519362
0.519374
0.519393
0.519425
0.519477
0.519546
0.519582
0.519569
0.519541
0.519509
0.519493
0.519464
0.522157
0.541552
0.615173
0.744063
0.909113
1.08961
1.21866
1.2791
1.29414
1.30227
1.28924
1.26472
1.27042
1.28679
1.29908
1.29902
1.29445
1.28466
1.28399
1.28799
1.29246
1.29187
1.28778
1.28577
1.28745
1.29094
1.29054
1.28792
1.28702
1.28805
1.28918
1.28882
1.28749
1.28698
1.28715
1.28763
1.28839
1.2892
0.519217
0.519221
0.519225
0.519229
0.519235
0.519242
0.519247
0.519255
0.519264
0.519271
0.51928
0.519285
0.519284
0.519281
0.51928
0.51928
0.519282
0.519282
0.519283
0.519287
0.519287
0.519286
0.519286
0.519284
0.519284
0.519287
0.519289
0.51929
0.519294
0.519303
0.519317
0.519334
0.519349
0.519362
0.519374
0.519389
0.519408
0.519411
0.519398
0.519387
0.519389
0.519401
0.519415
0.51943
0.519444
0.51945
0.519446
0.519429
0.519404
0.519392
0.519387
0.519388
0.519386
0.519397
0.519441
0.519516
0.519565
0.519558
0.519563
0.519582
0.519601
0.519598
0.519559
0.519493
0.519467
0.521919
0.547224
0.624845
0.792071
0.978319
1.10282
1.21826
1.23304
1.26592
1.28509
1.30862
1.30772
1.29984
1.28066
1.28012
1.28474
1.29389
1.29356
1.28843
1.28394
1.28532
1.2911
1.29166
1.28875
1.28571
1.28652
1.28937
1.2894
1.28798
1.28681
1.28698
1.28742
1.28794
1.28878
1.28941
0.519416
0.519415
0.519415
0.519416
0.519418
0.519418
0.519417
0.519417
0.519417
0.519416
0.519413
0.519409
0.519403
0.519396
0.519386
0.519376
0.519363
0.519348
0.51934
0.519334
0.519331
0.519331
0.519331
0.519333
0.519338
0.519335
0.519327
0.519325
0.519324
0.519323
0.519323
0.519329
0.519346
0.519369
0.519394
0.519419
0.519448
0.519471
0.519476
0.519476
0.519482
0.519503
0.519548
0.519581
0.519582
0.519576
0.519555
0.519514
0.519455
0.519419
0.519412
0.519405
0.51939
0.519392
0.519432
0.519515
0.519567
0.519589
0.519606
0.519634
0.519659
0.519658
0.519628
0.519554
0.51949
0.519488
0.5195
0.519528
0.527956
0.567812
0.691769
0.875747
1.06405
1.23178
1.27243
1.30023
1.29751
1.27257
1.2686
1.28002
1.29703
1.29635
1.28967
1.28045
1.28145
1.28935
1.29308
1.29066
1.28441
1.28457
1.28789
1.28968
1.28868
1.28626
1.28634
1.2869
1.28758
1.28804
1.28894
1.28944
0.519542
0.519539
0.519536
0.519533
0.519531
0.519526
0.519518
0.51951
0.519502
0.519497
0.519494
0.519489
0.51948
0.519469
0.519457
0.51944
0.519418
0.519398
0.519381
0.519364
0.519353
0.519345
0.519334
0.519322
0.519319
0.51932
0.519325
0.519334
0.519344
0.519357
0.519374
0.519398
0.519424
0.519451
0.519473
0.519492
0.519511
0.519537
0.519558
0.519564
0.519568
0.519588
0.519635
0.519651
0.519651
0.519645
0.519622
0.519576
0.519504
0.519443
0.519431
0.519421
0.519403
0.519399
0.519431
0.519522
0.519592
0.519608
0.519619
0.519644
0.519669
0.519668
0.519639
0.519567
0.5195
0.519488
0.519499
0.519547
0.519695
0.519812
0.521009
0.536359
0.625206
0.793791
0.985182
1.16284
1.2039
1.2454
1.27132
1.30542
1.30734
1.29744
1.27636
1.27702
1.28551
1.29567
1.2937
1.28492
1.28152
1.2852
1.28986
1.2894
1.28634
1.28518
1.28598
1.28716
1.28755
1.28803
1.28893
1.28916
0.51955
0.519552
0.519553
0.519555
0.519555
0.519551
0.519544
0.519535
0.519524
0.519522
0.519521
0.519518
0.519511
0.519503
0.519493
0.519471
0.519438
0.519421
0.519412
0.519402
0.519387
0.519369
0.51935
0.519336
0.519325
0.519321
0.519323
0.519335
0.519369
0.519408
0.519442
0.51948
0.519505
0.519517
0.519525
0.519528
0.51953
0.519543
0.51957
0.519582
0.519591
0.519615
0.519651
0.519658
0.519658
0.519654
0.519639
0.519604
0.51953
0.519457
0.519451
0.519465
0.519473
0.51947
0.519499
0.519604
0.519645
0.51963
0.519617
0.519637
0.519659
0.519652
0.519628
0.519567
0.519496
0.519494
0.519539
0.519665
0.519924
0.520071
0.520166
0.52028
0.520295
0.526413
0.587893
0.731689
0.947866
1.16551
1.24946
1.29419
1.29274
1.26741
1.26833
1.28367
1.29751
1.29674
1.28569
1.27908
1.28146
1.29069
1.29055
1.28703
1.28402
1.28474
1.28695
1.28724
1.28739
1.28797
1.28889
1.2888
0.519538
0.519535
0.519533
0.519533
0.519535
0.519539
0.519539
0.519538
0.519533
0.51952
0.519509
0.519502
0.519489
0.519479
0.519473
0.519466
0.519454
0.519441
0.519426
0.519409
0.519392
0.519383
0.519383
0.519382
0.519378
0.519383
0.519403
0.51945
0.519523
0.519546
0.519556
0.519571
0.519574
0.519562
0.519545
0.519534
0.519526
0.519526
0.519547
0.519564
0.51957
0.519578
0.519591
0.519607
0.519622
0.519626
0.519625
0.519611
0.519565
0.519513
0.519512
0.519537
0.519573
0.519597
0.51964
0.519696
0.519697
0.519679
0.51965
0.519623
0.51962
0.519618
0.519617
0.519583
0.519563
0.51961
0.519717
0.519948
0.520154
0.520208
0.520251
0.520299
0.520294
0.520225
0.519977
0.522147
0.566757
0.696073
0.907831
1.11826
1.19318
1.24062
1.27126
1.30949
1.30745
1.29045
1.27404
1.27719
1.29
1.29538
1.29079
1.28284
1.28326
1.28642
1.28794
1.28732
1.28753
1.28883
1.28924
1.28832
0.519517
0.519516
0.519516
0.519517
0.519519
0.519523
0.519529
0.519533
0.519532
0.519522
0.519515
0.519515
0.519523
0.519535
0.519536
0.51954
0.519547
0.519547
0.519542
0.519538
0.519536
0.519533
0.519531
0.519523
0.519513
0.519523
0.519559
0.519628
0.519666
0.519666
0.519654
0.519632
0.519613
0.519583
0.519547
0.519528
0.519512
0.519507
0.519504
0.51949
0.51948
0.519483
0.519508
0.519553
0.51959
0.519612
0.519627
0.519644
0.519649
0.519612
0.519583
0.519589
0.51962
0.519645
0.519683
0.519721
0.519708
0.519651
0.519558
0.519519
0.519525
0.519568
0.519593
0.519637
0.519742
0.519855
0.519974
0.520195
0.5203
0.52029
0.520272
0.520241
0.520161
0.520018
0.519808
0.519653
0.519599
0.520655
0.556549
0.672511
0.896583
1.14139
1.24753
1.29709
1.29338
1.26574
1.27253
1.28934
1.29932
1.29526
1.28113
1.28082
1.28525
1.28871
1.28785
1.2871
1.28829
1.28981
1.28944
1.28775
0.519546
0.51956
0.519575
0.51959
0.519607
0.519628
0.519645
0.519658
0.519672
0.51969
0.519704
0.519723
0.519736
0.519735
0.519732
0.519732
0.519739
0.51974
0.519733
0.519719
0.5197
0.519693
0.519692
0.519695
0.519695
0.51969
0.519715
0.519732
0.519732
0.519724
0.519696
0.519641
0.51959
0.519541
0.519483
0.519459
0.519453
0.519453
0.519428
0.519406
0.519399
0.519412
0.51946
0.519541
0.519586
0.5196
0.519635
0.519713
0.519751
0.519729
0.519626
0.519601
0.51961
0.519628
0.519659
0.519698
0.519697
0.519648
0.519529
0.519455
0.519456
0.519526
0.519617
0.519755
0.520002
0.520082
0.520137
0.5203
0.520349
0.52033
0.520243
0.520085
0.519926
0.519798
0.519675
0.519626
0.519654
0.519802
0.519962
0.520587
0.550369
0.672816
0.89227
1.12257
1.1925
1.24271
1.2861
1.30976
1.30589
1.28253
1.27471
1.28166
1.29165
1.29045
1.28647
1.28696
1.29033
1.29052
1.28873
1.28746
0.519724
0.519739
0.519753
0.519766
0.519778
0.519791
0.519804
0.519817
0.519831
0.519839
0.519844
0.519848
0.519844
0.519835
0.519831
0.519835
0.519831
0.519811
0.519795
0.519775
0.519741
0.519725
0.519729
0.519736
0.519753
0.519769
0.519774
0.519771
0.519745
0.519702
0.519668
0.519611
0.519551
0.519511
0.519451
0.519419
0.519414
0.519405
0.519384
0.519381
0.519397
0.519441
0.519534
0.519603
0.519622
0.519675
0.519815
0.519877
0.519876
0.519839
0.519673
0.519587
0.519583
0.519574
0.519579
0.519645
0.5197
0.519685
0.519562
0.519453
0.519471
0.519613
0.519803
0.520066
0.520283
0.520271
0.520254
0.520311
0.520347
0.520279
0.520089
0.519829
0.519683
0.519634
0.519635
0.519703
0.519818
0.520043
0.52022
0.520244
0.520153
0.520457
0.5531
0.675691
0.920029
1.16873
1.26208
1.29757
1.28768
1.2641
1.27591
1.29461
1.29363
1.28696
1.28556
1.28924
1.29204
1.2907
1.28764
1.28748
0.519836
0.51984
0.519835
0.519823
0.519819
0.519818
0.519815
0.519813
0.519819
0.519816
0.519808
0.519809
0.519812
0.51981
0.519811
0.519833
0.519844
0.519823
0.519795
0.519759
0.519698
0.519663
0.519671
0.519691
0.519686
0.519652
0.519625
0.519628
0.519633
0.519632
0.519626
0.519607
0.519544
0.51952
0.519497
0.519475
0.519478
0.519501
0.519541
0.519574
0.519603
0.519637
0.519728
0.519806
0.519815
0.519867
0.51997
0.519993
0.519976
0.519905
0.519674
0.519445
0.519426
0.51943
0.519442
0.519565
0.519777
0.519833
0.519765
0.519636
0.519646
0.519807
0.520109
0.520382
0.520435
0.52042
0.520353
0.52032
0.520264
0.520122
0.519882
0.51967
0.519591
0.519604
0.519687
0.519852
0.520024
0.520215
0.52027
0.520184
0.519933
0.519426
0.518988
0.519621
0.559061
0.709223
0.94142
1.16
1.22433
1.25591
1.30459
1.30675
1.29505
1.28014
1.28506
1.29383
1.29304
1.28764
1.28684
1.28783
0.519813
0.519812
0.519811
0.519808
0.519811
0.519816
0.519809
0.519801
0.51979
0.519759
0.519732
0.519727
0.519727
0.519739
0.51974
0.519728
0.519725
0.519712
0.519667
0.519579
0.519482
0.519439
0.519436
0.51946
0.519468
0.519469
0.51949
0.519547
0.519599
0.519614
0.51962
0.519609
0.519602
0.519635
0.519635
0.519642
0.519713
0.519738
0.519741
0.519748
0.519758
0.519767
0.519828
0.519895
0.519892
0.519924
0.519987
0.519964
0.519868
0.519715
0.519506
0.519302
0.519278
0.519281
0.519311
0.519485
0.519877
0.520142
0.520179
0.520087
0.51997
0.520046
0.520346
0.520517
0.520521
0.520495
0.520373
0.520174
0.520028
0.519906
0.519761
0.519657
0.519627
0.519671
0.519854
0.520031
0.520208
0.5203
0.520226
0.519929
0.519515
0.519022
0.518916
0.519127
0.519487
0.521602
0.572746
0.741726
1.01919
1.21154
1.29722
1.29205
1.26957
1.27892
1.29524
1.29578
1.28884
1.28474
1.28678
1.28876
0.519655
0.519649
0.519648
0.519651
0.519666
0.519687
0.519698
0.519709
0.519721
0.519714
0.519676
0.519656
0.519652
0.51965
0.519653
0.519643
0.519618
0.519617
0.519608
0.519554
0.519483
0.519461
0.519469
0.519495
0.519491
0.519478
0.51949
0.519562
0.519728
0.519798
0.5198
0.519809
0.519877
0.519909
0.519886
0.519895
0.519955
0.519949
0.519877
0.51985
0.519837
0.519823
0.519847
0.519895
0.519872
0.51988
0.519881
0.519851
0.519804
0.519668
0.519495
0.51933
0.51927
0.5193
0.519416
0.519701
0.52011
0.520399
0.520483
0.520488
0.520363
0.520336
0.520429
0.520547
0.520515
0.520357
0.520104
0.519825
0.519743
0.519762
0.519771
0.519759
0.519795
0.519923
0.520079
0.520202
0.52032
0.520273
0.51995
0.519474
0.519051
0.518877
0.519029
0.519689
0.520303
0.520464
0.52023
0.523993
0.594855
0.808452
1.08882
1.18099
1.24699
1.29594
1.3062
1.29742
1.28069
1.28327
1.29047
1.28941
0.519473
0.519498
0.51954
0.51959
0.519636
0.519667
0.519686
0.519705
0.519732
0.519759
0.519785
0.519808
0.519813
0.519819
0.519844
0.51988
0.519881
0.51985
0.519822
0.519823
0.519816
0.519784
0.519777
0.519779
0.519754
0.519717
0.519711
0.519749
0.519875
0.519946
0.519953
0.519972
0.520023
0.520035
0.520005
0.519997
0.520016
0.519999
0.519942
0.519879
0.519808
0.519778
0.519777
0.519751
0.519624
0.519551
0.519649
0.519827
0.519844
0.519722
0.519611
0.519608
0.51965
0.519729
0.519863
0.520085
0.52037
0.520564
0.520571
0.520598
0.520625
0.520553
0.520483
0.520436
0.520287
0.520003
0.519652
0.519494
0.519535
0.519687
0.519852
0.519955
0.52005
0.520146
0.520195
0.520284
0.520228
0.519891
0.519356
0.518921
0.51868
0.518767
0.519386
0.520175
0.520476
0.520401
0.519833
0.519134
0.518733
0.533727
0.63609
0.900132
1.17183
1.26703
1.29493
1.27236
1.27635
1.29096
1.29205
1.2868
0.519652
0.519673
0.519724
0.519811
0.519955
0.520062
0.520118
0.520173
0.520219
0.520251
0.520296
0.52036
0.520381
0.52038
0.520387
0.520387
0.520362
0.520296
0.520247
0.520202
0.520103
0.520064
0.520049
0.519956
0.519848
0.519846
0.519823
0.519822
0.519839
0.519836
0.519817
0.519758
0.519645
0.51956
0.519552
0.519568
0.519583
0.51955
0.519531
0.519587
0.519633
0.519581
0.519455
0.519305
0.519224
0.519247
0.519444
0.519688
0.519731
0.519761
0.519942
0.520109
0.520177
0.520264
0.520291
0.520301
0.520449
0.520616
0.520605
0.5205
0.520388
0.520252
0.520052
0.519915
0.51978
0.519544
0.519291
0.519273
0.519405
0.519631
0.519872
0.520043
0.520123
0.520228
0.520161
0.51988
0.519478
0.518918
0.518584
0.518384
0.518422
0.518883
0.519824
0.520261
0.52028
0.519743
0.518768
0.518272
0.518339
0.51909
0.519465
0.555686
0.714796
0.966552
1.19604
1.23276
1.28438
1.30198
1.29372
1.28133
0.519814
0.519798
0.519813
0.519883
0.520004
0.520152
0.520292
0.520358
0.520368
0.520363
0.52035
0.520354
0.520372
0.520369
0.520343
0.520323
0.52028
0.520218
0.520178
0.520118
0.520007
0.519948
0.519895
0.519792
0.519661
0.519534
0.519393
0.519178
0.518961
0.518824
0.518717
0.518651
0.51864
0.518645
0.518689
0.51883
0.519027
0.519091
0.519086
0.519107
0.519178
0.519156
0.519004
0.518869
0.518848
0.518917
0.519157
0.519296
0.519385
0.519762
0.520189
0.520257
0.520289
0.520308
0.520305
0.520321
0.520258
0.520021
0.519693
0.519461
0.519301
0.519153
0.519147
0.519197
0.519172
0.519032
0.518942
0.518996
0.519177
0.519356
0.519639
0.519807
0.519788
0.519658
0.519294
0.518823
0.518355
0.518051
0.518006
0.518079
0.518506
0.519432
0.520104
0.520017
0.519431
0.518449
0.517916
0.517947
0.518558
0.519685
0.519914
0.519278
0.521176
0.589769
0.810046
1.09443
1.26244
1.29109
1.26952
1.27771
0.519648
0.519617
0.519535
0.519507
0.519509
0.519537
0.519579
0.519581
0.519556
0.519529
0.519528
0.519526
0.519492
0.519414
0.519326
0.519245
0.519138
0.51906
0.519024
0.518961
0.518833
0.518779
0.518733
0.518574
0.518499
0.518472
0.518352
0.518129
0.518036
0.517992
0.517985
0.518004
0.518057
0.51814
0.518282
0.51852
0.518764
0.518875
0.518871
0.518846
0.518902
0.518918
0.518813
0.518676
0.51863
0.518733
0.51903
0.519405
0.519755
0.519966
0.520085
0.520117
0.520036
0.519916
0.519875
0.51985
0.519723
0.519327
0.518925
0.518798
0.518715
0.518673
0.5187
0.518797
0.518857
0.518851
0.518868
0.519003
0.519257
0.519522
0.519777
0.519719
0.519588
0.51923
0.518703
0.518147
0.517852
0.517807
0.51795
0.518588
0.519617
0.520379
0.520241
0.519458
0.518558
0.517784
0.51779
0.518321
0.519661
0.520359
0.519988
0.518942
0.518462
0.518644
0.531049
0.667337
0.931858
1.14989
1.235
1.2846
0.518688
0.518683
0.518689
0.518707
0.51871
0.518704
0.518699
0.518714
0.518731
0.518752
0.518759
0.518758
0.518764
0.518758
0.518717
0.518668
0.518666
0.518684
0.518699
0.518703
0.518669
0.518644
0.518624
0.518567
0.518565
0.518564
0.518496
0.518376
0.518275
0.518234
0.518244
0.518273
0.518325
0.518469
0.518856
0.519247
0.519541
0.520093
0.520537
0.520538
0.520602
0.520732
0.520702
0.520474
0.520262
0.520338
0.520503
0.52047
0.520326
0.520212
0.52012
0.520087
0.520056
0.519992
0.519992
0.519873
0.51961
0.519221
0.518879
0.518836
0.518912
0.518967
0.518992
0.519091
0.51933
0.51975
0.520236
0.520773
0.520811
0.520639
0.520352
0.520067
0.519444
0.518797
0.518349
0.517988
0.517798
0.518162
0.519398
0.520761
0.521584
0.521297
0.520423
0.519095
0.518367
0.517921
0.518707
0.520393
0.521584
0.521201
0.520085
0.51886
0.519373
0.520919
0.521058
0.521528
0.563947
0.773237
1.09175
1.2637
0.518566
0.518573
0.51858
0.518587
0.518583
0.518572
0.518599
0.518674
0.518751
0.518809
0.518838
0.518848
0.518857
0.518855
0.518831
0.518797
0.51881
0.518873
0.518915
0.518963
0.519053
0.519142
0.51922
0.519332
0.519493
0.5197
0.520044
0.52036
0.520513
0.520634
0.520777
0.520984
0.521148
0.521362
0.521675
0.52196
0.522301
0.522728
0.522786
0.522776
0.522766
0.522624
0.522265
0.52173
0.521342
0.521211
0.52102
0.520655
0.520265
0.520178
0.520192
0.520191
0.520232
0.520312
0.520284
0.520036
0.519746
0.519702
0.519828
0.520108
0.520458
0.520727
0.520908
0.521116
0.521416
0.521858
0.522385
0.522429
0.522006
0.521224
0.52047
0.519821
0.519175
0.518744
0.518986
0.519678
0.521001
0.522248
0.523383
0.523352
0.522975
0.521877
0.520619
0.519157
0.519303
0.520899
0.522924
0.523722
0.523214
0.522016
0.520292
0.521397
0.522954
0.523702
0.523187
0.521526
0.521976
0.53181
0.635064
0.996845
0.521926
0.521953
0.522034
0.522216
0.522403
0.522551
0.522718
0.522857
0.522959
0.523071
0.523332
0.523529
0.523531
0.523455
0.52344
0.523495
0.523667
0.523813
0.523979
0.524269
0.524375
0.524372
0.524366
0.524427
0.524584
0.524814
0.525086
0.525396
0.525607
0.525575
0.52545
0.525425
0.525419
0.525482
0.52553
0.525381
0.525226
0.525115
0.524996
0.524831
0.524637
0.524421
0.524009
0.523541
0.523538
0.523601
0.523469
0.523278
0.523277
0.523422
0.52367
0.523786
0.523835
0.523779
0.523608
0.523592
0.523695
0.524028
0.524531
0.524946
0.525065
0.525037
0.524953
0.524805
0.524681
0.524628
0.524602
0.524377
0.523789
0.523335
0.522696
0.522415
0.522685
0.523452
0.524549
0.52567
0.526692
0.526577
0.526045
0.525113
0.523863
0.522288
0.522095
0.523509
0.525539
0.527577
0.527298
0.526187
0.524155
0.522889
0.5244
0.527204
0.527073
0.526233
0.524689
0.525925
0.527861
0.527869
0.527847
0.67696
0.531723
0.531575
0.531436
0.531324
0.53125
0.531199
0.531117
0.530947
0.530849
0.530892
0.530949
0.530911
0.530731
0.530485
0.530253
0.530019
0.529802
0.52976
0.52986
0.529872
0.529695
0.529394
0.52911
0.528885
0.528697
0.528388
0.527946
0.527848
0.527826
0.5277
0.527131
0.526338
0.52619
0.526071
0.525725
0.525337
0.525057
0.524629
0.524247
0.524237
0.5244
0.524473
0.524273
0.523934
0.523941
0.524111
0.524351
0.524397
0.524494
0.524846
0.525248
0.525639
0.526177
0.526458
0.526583
0.526765
0.527059
0.527809
0.5287
0.528963
0.52884
0.528546
0.528124
0.527439
0.526992
0.526672
0.525868
0.525331
0.525637
0.526578
0.528058
0.529502
0.530504
0.531161
0.531766
0.53163
0.530757
0.529412
0.527821
0.527128
0.527825
0.530065
0.532815
0.535382
0.535233
0.53383
0.53185
0.530292
0.531635
0.534233
0.536581
0.535865
0.534383
0.534577
0.535847
0.537435
0.536963
0.536321
0.536422
0.539417
0.542596
0.542573
0.54253
0.542397
0.542337
0.54236
0.542378
0.542369
0.542397
0.542498
0.542588
0.542714
0.542894
0.543056
0.543221
0.543385
0.543514
0.543601
0.54362
0.543634
0.543807
0.543909
0.543983
0.544199
0.544393
0.544388
0.54441
0.544605
0.544893
0.545221
0.545645
0.545816
0.545764
0.545757
0.545851
0.546183
0.54642
0.546608
0.546994
0.547641
0.548459
0.549448
0.550385
0.551187
0.551911
0.552568
0.55314
0.553212
0.553017
0.552959
0.553058
0.553469
0.553858
0.553806
0.553569
0.55324
0.552833
0.552487
0.552278
0.552088
0.55182
0.551401
0.550797
0.550538
0.550705
0.550947
0.551134
0.551395
0.551684
0.552049
0.552621
0.552901
0.552789
0.552369
0.551621
0.551014
0.550417
0.55055
0.551001
0.551886
0.552701
0.553115
0.55273
0.551726
0.550545
0.549602
0.550171
0.551635
0.553329
0.55305
0.552064
0.550648
0.550968
0.551649
0.551666
0.551312
0.55127
0.551527
0.55184
0.5521
0.574028
0.574039
0.57403
0.573898
0.573917
0.574227
0.574361
0.574315
0.574263
0.574279
0.574509
0.574699
0.574716
0.574769
0.574928
0.575185
0.575414
0.575472
0.575474
0.575512
0.575653
0.575628
0.575591
0.575756
0.576026
0.576061
0.575994
0.575946
0.575972
0.576075
0.576166
0.576149
0.576013
0.575748
0.575442
0.575092
0.57462
0.574031
0.573521
0.573104
0.572697
0.572287
0.571993
0.571875
0.571726
0.571367
0.570905
0.570362
0.569571
0.568737
0.567861
0.566705
0.565882
0.565643
0.565475
0.565122
0.564395
0.563458
0.562608
0.561863
0.56173
0.562018
0.562795
0.564112
0.564916
0.565204
0.565721
0.566324
0.56636
0.566135
0.565894
0.565568
0.565161
0.564837
0.564463
0.564357
0.564532
0.564868
0.565339
0.565615
0.565458
0.564902
0.564161
0.563423
0.563618
0.564285
0.565499
0.565447
0.564752
0.563664
0.56313
0.563582
0.564309
0.564261
0.563845
0.563887
0.563789
0.563497
0.563015
0.562519
0.603389
0.603186
0.602688
0.602486
0.602533
0.602539
0.602307
0.601997
0.601792
0.601548
0.601338
0.601117
0.600793
0.600694
0.600663
0.600525
0.600276
0.600041
0.599763
0.599442
0.59925
0.599081
0.598746
0.598207
0.597952
0.597634
0.597106
0.596809
0.596614
0.596446
0.596181
0.59598
0.595797
0.595531
0.5954
0.595379
0.595286
0.59496
0.594851
0.594982
0.595171
0.594914
0.59408
0.593891
0.594054
0.594071
0.593831
0.593435
0.593282
0.59339
0.593701
0.594098
0.594567
0.595264
0.596595
0.597454
0.597578
0.597786
0.598143
0.59827
0.598353
0.598463
0.598488
0.598396
0.597819
0.596778
0.595969
0.595354
0.594534
0.593438
0.592327
0.591356
0.590479
0.590067
0.589788
0.589685
0.589553
0.589193
0.58855
0.587786
0.587108
0.586531
0.585936
0.585546
0.585437
0.585002
0.583923
0.582764
0.581194
0.581272
0.58141
0.581057
0.58038
0.579536
0.57894
0.578422
0.577656
0.576696
0.576751
0.576701
0.638858
0.638793
0.638481
0.638364
0.638303
0.638187
0.63832
0.638669
0.638708
0.638474
0.638214
0.638245
0.638247
0.638077
0.637914
0.637833
0.637743
0.637697
0.637779
0.63789
0.637795
0.637308
0.636976
0.637013
0.637168
0.637124
0.636786
0.636382
0.63623
0.636219
0.636266
0.636279
0.636171
0.635809
0.635731
0.63574
0.635587
0.635268
0.635289
0.635441
0.635343
0.6349
0.634237
0.633915
0.633938
0.633983
0.633912
0.633487
0.63236
0.631671
0.631405
0.630973
0.63015
0.629025
0.628004
0.627244
0.626469
0.625468
0.624175
0.62277
0.621379
0.620234
0.619315
0.618115
0.616293
0.614279
0.613008
0.612588
0.612214
0.611919
0.611967
0.612058
0.612204
0.612402
0.612678
0.612581
0.612154
0.611335
0.610195
0.608984
0.607437
0.6065
0.606121
0.605599
0.60516
0.60467
0.604065