/*--------------------------------*- C++ -*----------------------------------*\
  =========                 |
  \\      /  F ield         | OpenFOAM: The Open Source CFD Toolbox
   \\    /   O peration     | Website:  https://openfoam.org
    \\  /    A nd           | Version:  7
     \\/     M anipulation  |
\*---------------------------------------------------------------------------*/
FoamFile
{
    version     2.0;
    format      ascii;
    class       volVectorField;
    location    "0.5";
    object      U;
}
// * * * * * * * * * * * * * * * * * * * * * * * * * * * * * * * * * * * * * //

dimensions      [0 1 -1 0 0 0 0];

internalField   nonuniform List<vector> 
90000
(
(5.00722 -0.144688 0)
(5.00512 -0.136105 0)
(4.99994 -0.131914 0)
(4.99518 -0.122766 0)
(4.99484 -0.119211 0)
(4.99005 -0.113399 0)
(4.98379 -0.108797 0)
(4.98034 -0.103595 0)
(4.97857 -0.101519 0)
(4.9741 -0.0972136 0)
(4.9699 -0.0943886 0)
(4.9663 -0.0928944 0)
(4.96305 -0.0900967 0)
(4.96038 -0.0882391 0)
(4.95773 -0.0852615 0)
(4.95529 -0.0840305 0)
(4.95269 -0.0809186 0)
(4.95058 -0.0793277 0)
(4.94812 -0.0752227 0)
(4.94626 -0.0731363 0)
(4.94397 -0.0683206 0)
(4.9424 -0.0657252 0)
(4.9404 -0.0607142 0)
(4.93888 -0.0570299 0)
(4.9374 -0.0525157 0)
(4.9358 -0.0469451 0)
(4.93509 -0.0438389 0)
(4.93337 -0.0363487 0)
(4.93316 -0.0344253 0)
(4.93136 -0.0259647 0)
(4.93126 -0.0242399 0)
(4.92951 -0.0158418 0)
(4.92926 -0.0141303 0)
(4.92745 -0.00638126 0)
(4.9267 -0.00406096 0)
(4.92485 0.00222101 0)
(4.92353 0.00425475 0)
(4.92152 0.00925787 0)
(4.91991 0.011122 0)
(4.91818 0.0140003 0)
(4.91683 0.0161919 0)
(4.91688 0.0160313 0)
(4.91803 0.0153292 0)
(4.92013 0.0130238 0)
(4.92367 0.00646164 0)
(4.92781 -5.85296e-05 0)
(4.93138 -0.0153482 0)
(4.92681 -0.0224116 0)
(4.92273 -0.0368701 0)
(4.91711 -0.0412668 0)
(4.91316 -0.0487132 0)
(4.90998 -0.0495484 0)
(4.90525 -0.0481987 0)
(4.90215 -0.0463068 0)
(4.90028 -0.0407795 0)
(4.8994 -0.0369049 0)
(4.89641 -0.0266388 0)
(4.89713 -0.0210337 0)
(4.89664 -0.0122424 0)
(4.89796 -0.00308288 0)
(4.89831 0.000674491 0)
(4.90031 -0.00178994 0)
(4.90438 -0.00745145 0)
(4.90563 -0.0170297 0)
(4.90479 -0.0238959 0)
(4.90515 -0.0322126 0)
(4.90631 -0.0335417 0)
(4.90503 -0.0309064 0)
(4.90351 -0.0265521 0)
(4.89927 -0.0197088 0)
(4.90072 -0.0103146 0)
(4.90044 -0.00886867 0)
(4.90203 -0.0119333 0)
(4.90437 -0.0187185 0)
(4.91028 -0.0264149 0)
(4.91143 -0.0282494 0)
(4.90849 -0.0244343 0)
(4.90669 -0.0202964 0)
(4.9044 -0.0132325 0)
(4.90479 -0.0137415 0)
(4.90668 -0.0167986 0)
(4.90918 -0.0223695 0)
(4.91037 -0.0216504 0)
(4.90939 -0.0190039 0)
(4.90794 -0.0157661 0)
(4.90694 -0.0109146 0)
(4.90712 -0.0106144 0)
(4.90779 -0.0103047 0)
(4.90886 -0.0105682 0)
(4.90999 -0.0109131 0)
(4.91718 -0.0188159 0)
(4.92433 -0.0280747 0)
(4.92968 -0.0354925 0)
(4.93577 -0.0378672 0)
(4.94106 -0.0380351 0)
(4.94756 -0.0292851 0)
(4.95752 -0.017996 0)
(4.9693 -0.00903716 0)
(4.98112 -0.0026286 0)
(4.99391 -0.000204636 0)
(5.00964 -0.149359 0)
(5.00891 -0.149163 0)
(5.00812 -0.14933 0)
(5.00732 -0.149162 0)
(5.00651 -0.14862 0)
(5.00547 -0.148246 0)
(5.00446 -0.148624 0)
(5.003 -0.148845 0)
(5.00022 -0.145548 0)
(4.99922 -0.143999 0)
(4.998 -0.142507 0)
(4.99672 -0.141226 0)
(4.99545 -0.1389 0)
(4.99464 -0.136958 0)
(4.99374 -0.134128 0)
(4.99288 -0.132284 0)
(4.99176 -0.129224 0)
(4.99085 -0.127503 0)
(4.9897 -0.124418 0)
(4.9887 -0.122717 0)
(4.98745 -0.119517 0)
(4.98636 -0.117558 0)
(4.98506 -0.114467 0)
(4.9838 -0.111707 0)
(4.98251 -0.109058 0)
(4.98102 -0.104827 0)
(4.97989 -0.102944 0)
(4.97816 -0.0971408 0)
(4.97717 -0.09565 0)
(4.97517 -0.088538 0)
(4.97426 -0.0868698 0)
(4.97203 -0.0785391 0)
(4.97126 -0.0766531 0)
(4.96869 -0.0669267 0)
(4.96809 -0.0646047 0)
(4.96507 -0.0535454 0)
(4.96472 -0.0511649 0)
(4.96101 -0.0390964 0)
(4.96076 -0.0364252 0)
(4.95676 -0.0253178 0)
(4.95654 -0.0219073 0)
(4.9532 -0.0135737 0)
(4.95265 -0.00850918 0)
(4.952 -0.00378339 0)
(4.95089 0.00154936 0)
(4.95043 0.0023395 0)
(4.95013 0.00421658 0)
(4.95098 0.0035791 0)
(4.952 0.00254729 0)
(4.95352 9.68825e-05 0)
(4.95507 -0.00517786 0)
(4.95527 -0.00810901 0)
(4.95532 -0.0151886 0)
(4.95359 -0.0174731 0)
(4.95275 -0.0223423 0)
(4.95179 -0.022981 0)
(4.95155 -0.0227225 0)
(4.95104 -0.0201466 0)
(4.9503 -0.0175078 0)
(4.94943 -0.0141041 0)
(4.94814 -0.00969817 0)
(4.9475 -0.00513729 0)
(4.94708 -0.000160661 0)
(4.94775 0.00126984 0)
(4.94861 -0.00106395 0)
(4.94979 -0.00556634 0)
(4.95024 -0.00857376 0)
(4.95083 -0.01588 0)
(4.95063 -0.015036 0)
(4.95004 -0.0133617 0)
(4.94908 -0.0119937 0)
(4.94794 -0.00965935 0)
(4.94761 -0.00792502 0)
(4.94792 -0.00922178 0)
(4.94943 -0.0113751 0)
(4.9515 -0.0154334 0)
(4.95146 -0.0162498 0)
(4.95089 -0.0150668 0)
(4.94949 -0.0133462 0)
(4.94822 -0.00989857 0)
(4.94804 -0.00824503 0)
(4.94895 -0.0104687 0)
(4.94988 -0.0127656 0)
(4.94948 -0.017837 0)
(4.94847 -0.0176385 0)
(4.94688 -0.016705 0)
(4.94642 -0.0120955 0)
(4.94722 -0.0101397 0)
(4.94843 -0.00926829 0)
(4.95026 -0.00925522 0)
(4.95532 -0.0139233 0)
(4.96175 -0.0238921 0)
(4.96396 -0.0344221 0)
(4.9641 -0.0385459 0)
(4.96099 -0.0390846 0)
(4.9572 -0.0304863 0)
(4.96039 -0.0189255 0)
(4.96905 -0.00990229 0)
(4.98013 -0.00324327 0)
(4.99343 -0.000424528 0)
(5.00813 -0.148933 0)
(5.00739 -0.148976 0)
(5.00662 -0.148999 0)
(5.00584 -0.149019 0)
(5.00504 -0.149057 0)
(5.00422 -0.14908 0)
(5.0034 -0.149085 0)
(5.00245 -0.149143 0)
(5.00122 -0.149229 0)
(4.99971 -0.149198 0)
(4.99881 -0.14905 0)
(4.99873 -0.148985 0)
(4.99866 -0.148846 0)
(4.99865 -0.148502 0)
(4.99867 -0.14811 0)
(4.99869 -0.147529 0)
(4.99873 -0.146917 0)
(4.99875 -0.146022 0)
(4.99878 -0.145131 0)
(4.99876 -0.143874 0)
(4.99875 -0.142664 0)
(4.99867 -0.140981 0)
(4.9986 -0.139375 0)
(4.99845 -0.137271 0)
(4.99827 -0.1351 0)
(4.99803 -0.132561 0)
(4.99774 -0.129763 0)
(4.99736 -0.126627 0)
(4.99698 -0.123383 0)
(4.99635 -0.119153 0)
(4.99594 -0.115843 0)
(4.99498 -0.109999 0)
(4.9946 -0.106855 0)
(4.99327 -0.0991463 0)
(4.99293 -0.0963648 0)
(4.99121 -0.0866798 0)
(4.99091 -0.0842939 0)
(4.98881 -0.0730646 0)
(4.98848 -0.0714677 0)
(4.98608 -0.0588863 0)
(4.98538 -0.0584039 0)
(4.98284 -0.0473855 0)
(4.98074 -0.0454299 0)
(4.97829 -0.04052 0)
(4.9753 -0.0329016 0)
(4.97574 -0.0313156 0)
(4.97073 -0.0212764 0)
(4.97081 -0.0181054 0)
(4.96931 -0.0133675 0)
(4.96984 -0.010921 0)
(4.96856 -0.00740624 0)
(4.96793 -0.00589461 0)
(4.96832 -0.00658189 0)
(4.9693 -0.00717252 0)
(4.971 -0.00922909 0)
(4.97305 -0.0119214 0)
(4.97557 -0.0170301 0)
(4.97699 -0.019314 0)
(4.97896 -0.0255784 0)
(4.9785 -0.0267155 0)
(4.97693 -0.0267135 0)
(4.97498 -0.0251049 0)
(4.97336 -0.0221435 0)
(4.9716 -0.0169477 0)
(4.9715 -0.0127553 0)
(4.97003 -0.00716449 0)
(4.96931 -0.00457572 0)
(4.97016 -0.00560832 0)
(4.97174 -0.00830111 0)
(4.97368 -0.0128547 0)
(4.97365 -0.0180826 0)
(4.97283 -0.0186409 0)
(4.97182 -0.0184081 0)
(4.97001 -0.0160355 0)
(4.96956 -0.0146456 0)
(4.96992 -0.0154134 0)
(4.97066 -0.0164644 0)
(4.97152 -0.0208336 0)
(4.97108 -0.0209936 0)
(4.9699 -0.0196253 0)
(4.96857 -0.0159582 0)
(4.96853 -0.0132839 0)
(4.96855 -0.0137635 0)
(4.96871 -0.0158846 0)
(4.96872 -0.0185939 0)
(4.9683 -0.0181223 0)
(4.96758 -0.0163627 0)
(4.96759 -0.0119488 0)
(4.96821 -0.010291 0)
(4.96977 -0.0102108 0)
(4.97476 -0.0172828 0)
(4.98167 -0.0279502 0)
(4.98125 -0.0348653 0)
(4.97938 -0.0374325 0)
(4.97314 -0.0370311 0)
(4.96485 -0.0296799 0)
(4.96347 -0.0189252 0)
(4.96946 -0.0103561 0)
(4.9795 -0.0038915 0)
(4.99299 -0.000705686 0)
(5.00584 -0.148435 0)
(5.00512 -0.148475 0)
(5.00437 -0.148526 0)
(5.0036 -0.148568 0)
(5.00281 -0.148607 0)
(5.00198 -0.14866 0)
(5.00113 -0.148737 0)
(5.00017 -0.148856 0)
(4.9989 -0.149032 0)
(4.99753 -0.149209 0)
(4.99694 -0.14927 0)
(4.99688 -0.149274 0)
(4.99687 -0.149271 0)
(4.99684 -0.149263 0)
(4.99681 -0.149257 0)
(4.99678 -0.149247 0)
(4.99676 -0.149229 0)
(4.99673 -0.149201 0)
(4.9967 -0.149156 0)
(4.99668 -0.14909 0)
(4.99666 -0.148993 0)
(4.99664 -0.148856 0)
(4.99662 -0.148663 0)
(4.99659 -0.148404 0)
(4.99656 -0.148053 0)
(4.99653 -0.147596 0)
(4.99648 -0.146993 0)
(4.99642 -0.146253 0)
(4.99634 -0.145252 0)
(4.99624 -0.144126 0)
(4.99609 -0.142558 0)
(4.99592 -0.140828 0)
(4.99571 -0.138627 0)
(4.9954 -0.135863 0)
(4.99514 -0.133069 0)
(4.99461 -0.12872 0)
(4.99434 -0.125391 0)
(4.99352 -0.11895 0)
(4.99324 -0.114974 0)
(4.99211 -0.106096 0)
(4.9919 -0.101496 0)
(4.99045 -0.0899253 0)
(4.9902 -0.0841286 0)
(4.98885 -0.0731211 0)
(4.98737 -0.061519 0)
(4.98789 -0.0589459 0)
(4.98502 -0.0407783 0)
(4.98548 -0.0438857 0)
(4.98164 -0.0298057 0)
(4.97976 -0.028754 0)
(4.97785 -0.0242019 0)
(4.97639 -0.0218845 0)
(4.97658 -0.019896 0)
(4.97563 -0.0168943 0)
(4.97532 -0.0149593 0)
(4.97506 -0.0137042 0)
(4.97453 -0.0134994 0)
(4.97525 -0.0140605 0)
(4.97631 -0.0149983 0)
(4.97737 -0.016539 0)
(4.97833 -0.0186865 0)
(4.97867 -0.0195876 0)
(4.97898 -0.0205255 0)
(4.97889 -0.0204482 0)
(4.97762 -0.0189661 0)
(4.97593 -0.0162187 0)
(4.97557 -0.0143602 0)
(4.97464 -0.0116117 0)
(4.97393 -0.00957611 0)
(4.9743 -0.00950068 0)
(4.97467 -0.0100018 0)
(4.97517 -0.0106643 0)
(4.97557 -0.0115299 0)
(4.9755 -0.0120873 0)
(4.9754 -0.0138719 0)
(4.97503 -0.0146484 0)
(4.97495 -0.0160627 0)
(4.97527 -0.0181243 0)
(4.97555 -0.0205324 0)
(4.97543 -0.0193914 0)
(4.975 -0.0186556 0)
(4.97436 -0.017056 0)
(4.97304 -0.0128857 0)
(4.97262 -0.0103272 0)
(4.97284 -0.0111793 0)
(4.97321 -0.0120975 0)
(4.9734 -0.0127556 0)
(4.97353 -0.0128819 0)
(4.97411 -0.0120465 0)
(4.97569 -0.012974 0)
(4.98094 -0.0210017 0)
(4.98845 -0.0316293 0)
(4.98777 -0.0367626 0)
(4.98329 -0.0379189 0)
(4.97825 -0.0365928 0)
(4.96958 -0.0292911 0)
(4.9662 -0.0190135 0)
(4.97042 -0.0107126 0)
(4.9795 -0.004594 0)
(4.99274 -0.00102402 0)
(5.00398 -0.148144 0)
(5.00328 -0.148204 0)
(5.00255 -0.148269 0)
(5.0018 -0.148341 0)
(5.001 -0.148423 0)
(5.00016 -0.148515 0)
(4.99924 -0.148634 0)
(4.99804 -0.148816 0)
(4.99661 -0.149055 0)
(4.99577 -0.149196 0)
(4.99565 -0.149217 0)
(4.99565 -0.149217 0)
(4.99564 -0.149217 0)
(4.99563 -0.149217 0)
(4.99562 -0.149217 0)
(4.99561 -0.149216 0)
(4.99559 -0.149215 0)
(4.99558 -0.149214 0)
(4.99556 -0.149212 0)
(4.99554 -0.149209 0)
(4.99552 -0.149207 0)
(4.9955 -0.149203 0)
(4.99548 -0.149197 0)
(4.99546 -0.14919 0)
(4.99544 -0.149177 0)
(4.99541 -0.14916 0)
(4.99539 -0.149132 0)
(4.99536 -0.149093 0)
(4.99533 -0.14903 0)
(4.9953 -0.148945 0)
(4.99526 -0.148808 0)
(4.99521 -0.148626 0)
(4.99514 -0.14833 0)
(4.99507 -0.147974 0)
(4.99495 -0.147365 0)
(4.99482 -0.146685 0)
(4.99461 -0.145523 0)
(4.99439 -0.144252 0)
(4.99405 -0.142195 0)
(4.99366 -0.139941 0)
(4.99311 -0.136374 0)
(4.99258 -0.132925 0)
(4.99168 -0.126684 0)
(4.99115 -0.122308 0)
(4.98967 -0.111813 0)
(4.98947 -0.107685 0)
(4.98719 -0.0917085 0)
(4.98773 -0.0893384 0)
(4.98471 -0.0689355 0)
(4.98499 -0.0682395 0)
(4.98169 -0.0492275 0)
(4.98044 -0.0429454 0)
(4.98038 -0.0379972 0)
(4.97803 -0.0243026 0)
(4.97795 -0.0274168 0)
(4.97618 -0.0194307 0)
(4.97558 -0.0206276 0)
(4.97495 -0.0183053 0)
(4.9748 -0.0177807 0)
(4.97473 -0.0176228 0)
(4.97483 -0.0177158 0)
(4.97514 -0.0175543 0)
(4.97582 -0.0178599 0)
(4.9768 -0.0189259 0)
(4.97659 -0.0196834 0)
(4.97622 -0.0193244 0)
(4.97594 -0.0182446 0)
(4.97562 -0.017398 0)
(4.97491 -0.0157688 0)
(4.97439 -0.0136806 0)
(4.97399 -0.0127077 0)
(4.97373 -0.0115472 0)
(4.97366 -0.0112016 0)
(4.97362 -0.0117448 0)
(4.97371 -0.0129786 0)
(4.97366 -0.0150032 0)
(4.97376 -0.0163301 0)
(4.97397 -0.0182574 0)
(4.9742 -0.0207308 0)
(4.9743 -0.0205603 0)
(4.97425 -0.0202295 0)
(4.97371 -0.0189892 0)
(4.97285 -0.0163675 0)
(4.97243 -0.0140572 0)
(4.97215 -0.0122619 0)
(4.97195 -0.0117832 0)
(4.97218 -0.0121873 0)
(4.97285 -0.0134014 0)
(4.97376 -0.0144702 0)
(4.97571 -0.0153271 0)
(4.98145 -0.0218254 0)
(4.98816 -0.0301179 0)
(4.98877 -0.0343108 0)
(4.9827 -0.0351785 0)
(4.97903 -0.0342055 0)
(4.97187 -0.0281078 0)
(4.9683 -0.0188577 0)
(4.97152 -0.011216 0)
(4.97972 -0.00511526 0)
(4.99263 -0.00131153 0)
(5.00277 -0.147968 0)
(5.00207 -0.148059 0)
(5.00135 -0.148158 0)
(5.00058 -0.148264 0)
(4.99977 -0.14838 0)
(4.99888 -0.148519 0)
(4.99775 -0.148713 0)
(4.99631 -0.148973 0)
(4.99527 -0.149153 0)
(4.99506 -0.149187 0)
(4.99505 -0.149188 0)
(4.99505 -0.149188 0)
(4.99505 -0.149188 0)
(4.99505 -0.149188 0)
(4.99505 -0.149188 0)
(4.99505 -0.149189 0)
(4.99505 -0.14919 0)
(4.99504 -0.149191 0)
(4.99504 -0.149192 0)
(4.99504 -0.149193 0)
(4.99504 -0.149193 0)
(4.99503 -0.149195 0)
(4.99503 -0.149195 0)
(4.99503 -0.149195 0)
(4.99502 -0.149196 0)
(4.99501 -0.149196 0)
(4.99501 -0.149197 0)
(4.995 -0.149196 0)
(4.995 -0.149195 0)
(4.99499 -0.149193 0)
(4.99498 -0.14919 0)
(4.99498 -0.149184 0)
(4.99497 -0.149175 0)
(4.99496 -0.14916 0)
(4.99495 -0.149137 0)
(4.99494 -0.149099 0)
(4.99492 -0.149037 0)
(4.99489 -0.148942 0)
(4.99485 -0.148776 0)
(4.99479 -0.148538 0)
(4.99469 -0.148117 0)
(4.99455 -0.147526 0)
(4.99434 -0.146558 0)
(4.99405 -0.145153 0)
(4.99363 -0.143136 0)
(4.99304 -0.140029 0)
(4.99223 -0.136054 0)
(4.9913 -0.130529 0)
(4.98978 -0.12228 0)
(4.98897 -0.116035 0)
(4.98633 -0.100244 0)
(4.9857 -0.0945628 0)
(4.98292 -0.0779972 0)
(4.98037 -0.0616907 0)
(4.98202 -0.0630966 0)
(4.97737 -0.0355642 0)
(4.97703 -0.0387569 0)
(4.97532 -0.0303257 0)
(4.97361 -0.020008 0)
(4.97345 -0.0205953 0)
(4.97318 -0.0193525 0)
(4.97317 -0.016031 0)
(4.97279 -0.0159837 0)
(4.97292 -0.0175373 0)
(4.97319 -0.0177653 0)
(4.97399 -0.0185735 0)
(4.97387 -0.018801 0)
(4.97402 -0.0197192 0)
(4.97349 -0.0180811 0)
(4.97269 -0.0150468 0)
(4.97234 -0.0134755 0)
(4.97226 -0.013511 0)
(4.9718 -0.0120579 0)
(4.97157 -0.0125283 0)
(4.97143 -0.012829 0)
(4.97135 -0.0131574 0)
(4.97124 -0.0138178 0)
(4.97125 -0.015081 0)
(4.97116 -0.0158136 0)
(4.97124 -0.0165729 0)
(4.97169 -0.0176843 0)
(4.97166 -0.0178852 0)
(4.97146 -0.0175143 0)
(4.97118 -0.0155748 0)
(4.97137 -0.0153519 0)
(4.97088 -0.0141473 0)
(4.971 -0.01391 0)
(4.97138 -0.0147762 0)
(4.97236 -0.0146556 0)
(4.97445 -0.0145691 0)
(4.9802 -0.0195844 0)
(4.98642 -0.0271552 0)
(4.98732 -0.031738 0)
(4.98167 -0.0334199 0)
(4.97865 -0.0328009 0)
(4.97275 -0.0276985 0)
(4.96978 -0.0189906 0)
(4.97276 -0.011641 0)
(4.98034 -0.00576105 0)
(4.9927 -0.00166036 0)
(5.00202 -0.147875 0)
(5.0013 -0.147999 0)
(5.00054 -0.148134 0)
(4.99973 -0.148281 0)
(4.99885 -0.148446 0)
(4.99778 -0.148652 0)
(4.99639 -0.148915 0)
(4.99526 -0.149116 0)
(4.99498 -0.149161 0)
(4.99497 -0.149163 0)
(4.99497 -0.149163 0)
(4.99497 -0.149163 0)
(4.99497 -0.149163 0)
(4.99497 -0.149164 0)
(4.99497 -0.149164 0)
(4.99497 -0.149164 0)
(4.99497 -0.149165 0)
(4.99497 -0.149166 0)
(4.99497 -0.149166 0)
(4.99497 -0.149167 0)
(4.99497 -0.149168 0)
(4.99497 -0.149168 0)
(4.99497 -0.149169 0)
(4.99497 -0.14917 0)
(4.99498 -0.149171 0)
(4.99498 -0.149171 0)
(4.99498 -0.149172 0)
(4.99498 -0.149172 0)
(4.99499 -0.149173 0)
(4.99499 -0.149173 0)
(4.995 -0.149173 0)
(4.995 -0.149174 0)
(4.995 -0.149174 0)
(4.99501 -0.149174 0)
(4.99502 -0.149173 0)
(4.99502 -0.149173 0)
(4.99503 -0.149173 0)
(4.99503 -0.149171 0)
(4.99504 -0.149168 0)
(4.99505 -0.149158 0)
(4.99505 -0.149143 0)
(4.99506 -0.149118 0)
(4.99506 -0.149076 0)
(4.99505 -0.148984 0)
(4.99502 -0.148852 0)
(4.99496 -0.148555 0)
(4.99486 -0.148119 0)
(4.99467 -0.147216 0)
(4.99438 -0.145952 0)
(4.99385 -0.143459 0)
(4.99316 -0.140441 0)
(4.99205 -0.134531 0)
(4.99079 -0.128441 0)
(4.98869 -0.117476 0)
(4.98721 -0.10776 0)
(4.98383 -0.0896907 0)
(4.98401 -0.0850656 0)
(4.97927 -0.0559795 0)
(4.97892 -0.0575247 0)
(4.97554 -0.0401398 0)
(4.97444 -0.0353508 0)
(4.97282 -0.0231737 0)
(4.97281 -0.0271295 0)
(4.97229 -0.0242624 0)
(4.97173 -0.0199928 0)
(4.97226 -0.0181195 0)
(4.9717 -0.0191714 0)
(4.97125 -0.0196356 0)
(4.9705 -0.0193667 0)
(4.97051 -0.0174689 0)
(4.97025 -0.0169889 0)
(4.97014 -0.0172899 0)
(4.96935 -0.013628 0)
(4.96992 -0.015001 0)
(4.9694 -0.0134438 0)
(4.96964 -0.0131398 0)
(4.96916 -0.0123179 0)
(4.96898 -0.0126947 0)
(4.96906 -0.0136095 0)
(4.96937 -0.0147186 0)
(4.96997 -0.0163443 0)
(4.97054 -0.0173064 0)
(4.97027 -0.0177578 0)
(4.97007 -0.0174149 0)
(4.96995 -0.0163801 0)
(4.96984 -0.0158164 0)
(4.97038 -0.0143269 0)
(4.97073 -0.0143574 0)
(4.97149 -0.0142286 0)
(4.97356 -0.0140708 0)
(4.97922 -0.0185488 0)
(4.98548 -0.0267079 0)
(4.98594 -0.0309394 0)
(4.98095 -0.0319424 0)
(4.97836 -0.031272 0)
(4.97332 -0.0266696 0)
(4.971 -0.0187652 0)
(4.97409 -0.0117842 0)
(4.98129 -0.0061883 0)
(4.99292 -0.00190104 0)
(5.00138 -0.147863 0)
(5.00061 -0.148019 0)
(4.99979 -0.148189 0)
(4.99891 -0.148377 0)
(4.99789 -0.148599 0)
(4.99662 -0.148867 0)
(4.99547 -0.149078 0)
(4.99509 -0.149133 0)
(4.99506 -0.149135 0)
(4.99506 -0.149134 0)
(4.99506 -0.149135 0)
(4.99506 -0.149136 0)
(4.99507 -0.149137 0)
(4.99507 -0.149138 0)
(4.99507 -0.149138 0)
(4.99507 -0.149139 0)
(4.99507 -0.14914 0)
(4.99507 -0.149141 0)
(4.99507 -0.149142 0)
(4.99508 -0.149143 0)
(4.99508 -0.149143 0)
(4.99508 -0.149144 0)
(4.99509 -0.149145 0)
(4.99509 -0.149146 0)
(4.99509 -0.149147 0)
(4.9951 -0.149148 0)
(4.99511 -0.149148 0)
(4.99511 -0.149149 0)
(4.99511 -0.149149 0)
(4.99512 -0.149149 0)
(4.99513 -0.14915 0)
(4.99513 -0.149151 0)
(4.99514 -0.149152 0)
(4.99515 -0.149153 0)
(4.99516 -0.149155 0)
(4.99517 -0.149156 0)
(4.99518 -0.149158 0)
(4.99519 -0.14916 0)
(4.9952 -0.149163 0)
(4.99521 -0.149165 0)
(4.99522 -0.149168 0)
(4.99523 -0.149174 0)
(4.99524 -0.149172 0)
(4.99525 -0.149169 0)
(4.99526 -0.149168 0)
(4.99527 -0.149165 0)
(4.99528 -0.149148 0)
(4.99528 -0.149124 0)
(4.99528 -0.14906 0)
(4.99527 -0.148924 0)
(4.99524 -0.148626 0)
(4.99515 -0.148069 0)
(4.99491 -0.146854 0)
(4.99452 -0.144962 0)
(4.99379 -0.141418 0)
(4.99248 -0.135471 0)
(4.99137 -0.1292 0)
(4.98839 -0.113409 0)
(4.98817 -0.108714 0)
(4.98326 -0.0801113 0)
(4.98316 -0.0794047 0)
(4.97796 -0.0531084 0)
(4.97774 -0.0492975 0)
(4.97391 -0.02814 0)
(4.97251 -0.0299734 0)
(4.97378 -0.027666 0)
(4.97145 -0.0225926 0)
(4.97051 -0.0170682 0)
(4.96888 -0.0185504 0)
(4.96951 -0.0180347 0)
(4.97012 -0.0191808 0)
(4.96974 -0.0183253 0)
(4.96988 -0.0185759 0)
(4.96868 -0.0164654 0)
(4.9684 -0.0139814 0)
(4.96839 -0.0115952 0)
(4.96835 -0.0103962 0)
(4.96781 -0.011439 0)
(4.96808 -0.012665 0)
(4.9684 -0.01317 0)
(4.96907 -0.0144831 0)
(4.96961 -0.0163632 0)
(4.96956 -0.0172867 0)
(4.96952 -0.0169409 0)
(4.96955 -0.016636 0)
(4.96964 -0.0161095 0)
(4.9698 -0.0149979 0)
(4.9707 -0.0137812 0)
(4.9712 -0.0133504 0)
(4.97313 -0.0134145 0)
(4.97847 -0.0177785 0)
(4.98486 -0.0264287 0)
(4.98521 -0.0307101 0)
(4.98072 -0.0312671 0)
(4.97854 -0.0305576 0)
(4.97416 -0.0262726 0)
(4.97221 -0.018814 0)
(4.97534 -0.0121006 0)
(4.98222 -0.00661505 0)
(4.99324 -0.00213058 0)
(5.00059 -0.147957 0)
(4.99976 -0.148131 0)
(4.99887 -0.148347 0)
(4.99787 -0.148608 0)
(4.99671 -0.14889 0)
(4.99572 -0.149094 0)
(4.99541 -0.149149 0)
(4.99538 -0.149154 0)
(4.99538 -0.149154 0)
(4.99539 -0.149154 0)
(4.99539 -0.149155 0)
(4.99539 -0.149158 0)
(4.99539 -0.149161 0)
(4.9954 -0.149163 0)
(4.9954 -0.149165 0)
(4.99541 -0.149166 0)
(4.99541 -0.149167 0)
(4.99541 -0.149169 0)
(4.99542 -0.149172 0)
(4.99542 -0.149174 0)
(4.99542 -0.149175 0)
(4.99543 -0.149177 0)
(4.99543 -0.14918 0)
(4.99544 -0.149182 0)
(4.99544 -0.149184 0)
(4.99545 -0.149187 0)
(4.99545 -0.149189 0)
(4.99546 -0.149192 0)
(4.99546 -0.149195 0)
(4.99547 -0.149196 0)
(4.99548 -0.149199 0)
(4.99548 -0.149201 0)
(4.99549 -0.149204 0)
(4.99549 -0.149206 0)
(4.9955 -0.149209 0)
(4.99551 -0.149212 0)
(4.99552 -0.149214 0)
(4.99552 -0.149215 0)
(4.99553 -0.149217 0)
(4.99554 -0.14922 0)
(4.99554 -0.149223 0)
(4.99555 -0.149226 0)
(4.99555 -0.149227 0)
(4.99556 -0.149227 0)
(4.99557 -0.149227 0)
(4.99557 -0.149224 0)
(4.99558 -0.149223 0)
(4.99559 -0.149217 0)
(4.99558 -0.149206 0)
(4.99562 -0.149199 0)
(4.99565 -0.149197 0)
(4.99566 -0.149187 0)
(4.99567 -0.149158 0)
(4.99567 -0.149079 0)
(4.99562 -0.148841 0)
(4.99551 -0.148327 0)
(4.99523 -0.146935 0)
(4.99477 -0.14498 0)
(4.99388 -0.140127 0)
(4.99241 -0.133174 0)
(4.9909 -0.123943 0)
(4.98791 -0.108367 0)
(4.98542 -0.0932534 0)
(4.98234 -0.0764032 0)
(4.9803 -0.0637381 0)
(4.97751 -0.0468503 0)
(4.97508 -0.0237622 0)
(4.97453 -0.0345844 0)
(4.97531 -0.0338844 0)
(4.97335 -0.0261408 0)
(4.97335 -0.0250801 0)
(4.97171 -0.0220419 0)
(4.97031 -0.0202822 0)
(4.96916 -0.0162043 0)
(4.96904 -0.0153589 0)
(4.96868 -0.0149432 0)
(4.96831 -0.0144387 0)
(4.96771 -0.0137985 0)
(4.96795 -0.0132939 0)
(4.96824 -0.0130333 0)
(4.96879 -0.0135328 0)
(4.96922 -0.0158097 0)
(4.96916 -0.0172123 0)
(4.96958 -0.016535 0)
(4.96986 -0.0159525 0)
(4.97002 -0.0154365 0)
(4.97011 -0.0143389 0)
(4.97067 -0.0130981 0)
(4.97118 -0.0126712 0)
(4.97288 -0.0127486 0)
(4.97795 -0.0171303 0)
(4.98418 -0.0257125 0)
(4.98447 -0.0301683 0)
(4.98009 -0.030046 0)
(4.97824 -0.0292501 0)
(4.97483 -0.0253874 0)
(4.97342 -0.0185621 0)
(4.97653 -0.0121557 0)
(4.9831 -0.00687266 0)
(4.99356 -0.00228133 0)
(4.99939 -0.148221 0)
(4.99847 -0.148491 0)
(4.99744 -0.148805 0)
(4.99639 -0.14909 0)
(4.99584 -0.149225 0)
(4.99577 -0.149247 0)
(4.99577 -0.149249 0)
(4.99577 -0.149249 0)
(4.99577 -0.14925 0)
(4.99578 -0.149252 0)
(4.99578 -0.149252 0)
(4.99578 -0.149253 0)
(4.99578 -0.149255 0)
(4.99579 -0.149256 0)
(4.99579 -0.149257 0)
(4.99579 -0.149259 0)
(4.9958 -0.14926 0)
(4.9958 -0.149261 0)
(4.9958 -0.149261 0)
(4.9958 -0.149262 0)
(4.99581 -0.149263 0)
(4.99581 -0.149265 0)
(4.99581 -0.149265 0)
(4.99582 -0.149265 0)
(4.99582 -0.149266 0)
(4.99582 -0.149265 0)
(4.99583 -0.149265 0)
(4.99583 -0.149265 0)
(4.99584 -0.149266 0)
(4.99584 -0.149267 0)
(4.99585 -0.149266 0)
(4.99585 -0.149266 0)
(4.99585 -0.149266 0)
(4.99586 -0.149264 0)
(4.99586 -0.149264 0)
(4.99586 -0.149263 0)
(4.99587 -0.149262 0)
(4.99587 -0.149262 0)
(4.99587 -0.14926 0)
(4.99588 -0.149261 0)
(4.99588 -0.149263 0)
(4.99588 -0.149263 0)
(4.99589 -0.149263 0)
(4.99589 -0.149263 0)
(4.99589 -0.149264 0)
(4.9959 -0.149266 0)
(4.9959 -0.149267 0)
(4.99591 -0.149269 0)
(4.99591 -0.14927 0)
(4.99591 -0.149267 0)
(4.9959 -0.149264 0)
(4.99589 -0.14926 0)
(4.99588 -0.149257 0)
(4.99587 -0.14924 0)
(4.99588 -0.149223 0)
(4.99589 -0.149207 0)
(4.99591 -0.149176 0)
(4.99591 -0.149067 0)
(4.99584 -0.148769 0)
(4.99565 -0.147989 0)
(4.99525 -0.146161 0)
(4.99441 -0.142421 0)
(4.99315 -0.136121 0)
(4.99156 -0.127716 0)
(4.988 -0.105905 0)
(4.9876 -0.103266 0)
(4.98239 -0.0771033 0)
(4.98007 -0.0548576 0)
(4.9803 -0.0472021 0)
(4.97611 -0.0230822 0)
(4.97615 -0.0263838 0)
(4.974 -0.0146049 0)
(4.97277 -0.0141755 0)
(4.9715 -0.0168642 0)
(4.97062 -0.0180118 0)
(4.97013 -0.0176172 0)
(4.96977 -0.0174831 0)
(4.96931 -0.0145784 0)
(4.96947 -0.0130144 0)
(4.9693 -0.0113251 0)
(4.96896 -0.0121039 0)
(4.96891 -0.014357 0)
(4.9692 -0.0167239 0)
(4.96986 -0.0175966 0)
(4.97081 -0.0174252 0)
(4.97109 -0.0159221 0)
(4.97081 -0.0143253 0)
(4.97084 -0.0129712 0)
(4.97141 -0.0120698 0)
(4.9728 -0.0123233 0)
(4.97725 -0.0163148 0)
(4.98303 -0.0245093 0)
(4.98365 -0.0292344 0)
(4.98004 -0.0296439 0)
(4.97863 -0.0289642 0)
(4.97587 -0.0253756 0)
(4.97473 -0.0188185 0)
(4.97769 -0.0125017 0)
(4.98391 -0.00723277 0)
(4.99386 -0.00245083 0)
(4.99757 -0.148792 0)
(4.99666 -0.149059 0)
(4.99607 -0.149217 0)
(4.99595 -0.149252 0)
(4.99594 -0.149253 0)
(4.99594 -0.149252 0)
(4.99595 -0.149251 0)
(4.99595 -0.149253 0)
(4.99595 -0.149256 0)
(4.99595 -0.149257 0)
(4.99595 -0.149257 0)
(4.99595 -0.14926 0)
(4.99596 -0.149263 0)
(4.99596 -0.149264 0)
(4.99596 -0.149265 0)
(4.99596 -0.149268 0)
(4.99596 -0.149269 0)
(4.99596 -0.14927 0)
(4.99597 -0.149272 0)
(4.99597 -0.149272 0)
(4.99597 -0.149274 0)
(4.99597 -0.149274 0)
(4.99597 -0.149274 0)
(4.99598 -0.149275 0)
(4.99598 -0.149275 0)
(4.99598 -0.149274 0)
(4.99598 -0.149275 0)
(4.99599 -0.149275 0)
(4.99599 -0.149274 0)
(4.99599 -0.149274 0)
(4.99599 -0.149273 0)
(4.996 -0.149272 0)
(4.996 -0.149271 0)
(4.996 -0.149269 0)
(4.996 -0.149268 0)
(4.996 -0.149268 0)
(4.996 -0.149267 0)
(4.996 -0.149265 0)
(4.99601 -0.149264 0)
(4.99601 -0.149263 0)
(4.99601 -0.149263 0)
(4.99601 -0.149261 0)
(4.99601 -0.14926 0)
(4.99601 -0.149259 0)
(4.99601 -0.149259 0)
(4.99601 -0.149258 0)
(4.99602 -0.149257 0)
(4.99602 -0.149256 0)
(4.99602 -0.149254 0)
(4.99602 -0.149252 0)
(4.99602 -0.149248 0)
(4.99602 -0.149246 0)
(4.99602 -0.149245 0)
(4.99601 -0.149242 0)
(4.99602 -0.149241 0)
(4.99602 -0.149241 0)
(4.99602 -0.149245 0)
(4.99602 -0.149252 0)
(4.99602 -0.149253 0)
(4.99601 -0.149238 0)
(4.99598 -0.14917 0)
(4.99591 -0.148961 0)
(4.99573 -0.148249 0)
(4.99536 -0.146617 0)
(4.99474 -0.143873 0)
(4.99323 -0.135157 0)
(4.99137 -0.126915 0)
(4.98826 -0.107895 0)
(4.98717 -0.0982264 0)
(4.9817 -0.0671321 0)
(4.98147 -0.0643312 0)
(4.97825 -0.0385146 0)
(4.98043 -0.0459122 0)
(4.97815 -0.0350361 0)
(4.97525 -0.0289766 0)
(4.97388 -0.0249637 0)
(4.9735 -0.0202307 0)
(4.971 -0.0161299 0)
(4.97097 -0.0154277 0)
(4.97047 -0.0148381 0)
(4.96886 -0.0143893 0)
(4.96825 -0.0148239 0)
(4.96978 -0.0162287 0)
(4.97098 -0.0174081 0)
(4.97191 -0.01818 0)
(4.97222 -0.0179068 0)
(4.97155 -0.0159757 0)
(4.97124 -0.0143866 0)
(4.97157 -0.0135141 0)
(4.97277 -0.0133595 0)
(4.97665 -0.0165217 0)
(4.98163 -0.0244215 0)
(4.98271 -0.0288024 0)
(4.98008 -0.0286679 0)
(4.97898 -0.027909 0)
(4.97688 -0.0246961 0)
(4.9761 -0.0187019 0)
(4.97889 -0.012665 0)
(4.98475 -0.0074959 0)
(4.99419 -0.00257309 0)
(4.99607 -0.149155 0)
(4.996 -0.149177 0)
(4.996 -0.149178 0)
(4.996 -0.149177 0)
(4.996 -0.149176 0)
(4.996 -0.149176 0)
(4.996 -0.149176 0)
(4.996 -0.149177 0)
(4.996 -0.149179 0)
(4.996 -0.149181 0)
(4.996 -0.149184 0)
(4.996 -0.149186 0)
(4.996 -0.149189 0)
(4.996 -0.149192 0)
(4.99601 -0.149193 0)
(4.99601 -0.149193 0)
(4.99601 -0.149194 0)
(4.99601 -0.149195 0)
(4.99601 -0.149195 0)
(4.99601 -0.149195 0)
(4.99602 -0.149196 0)
(4.99602 -0.149197 0)
(4.99602 -0.149196 0)
(4.99602 -0.149195 0)
(4.99602 -0.149195 0)
(4.99602 -0.149193 0)
(4.99603 -0.149191 0)
(4.99603 -0.14919 0)
(4.99603 -0.149189 0)
(4.99603 -0.149187 0)
(4.99603 -0.149184 0)
(4.99604 -0.149183 0)
(4.99604 -0.149182 0)
(4.99604 -0.149179 0)
(4.99604 -0.149177 0)
(4.99604 -0.149175 0)
(4.99604 -0.149173 0)
(4.99604 -0.14917 0)
(4.99604 -0.149169 0)
(4.99604 -0.149168 0)
(4.99603 -0.149166 0)
(4.99603 -0.149164 0)
(4.99603 -0.149163 0)
(4.99603 -0.149161 0)
(4.99603 -0.14916 0)
(4.99603 -0.14916 0)
(4.99603 -0.149158 0)
(4.99604 -0.149155 0)
(4.99603 -0.149155 0)
(4.99604 -0.149152 0)
(4.99604 -0.14915 0)
(4.99604 -0.149149 0)
(4.99604 -0.14915 0)
(4.99604 -0.149154 0)
(4.99604 -0.149158 0)
(4.99604 -0.149163 0)
(4.99603 -0.149168 0)
(4.99603 -0.149174 0)
(4.99602 -0.149186 0)
(4.99602 -0.149174 0)
(4.99601 -0.149185 0)
(4.99599 -0.149169 0)
(4.99597 -0.149154 0)
(4.99594 -0.149098 0)
(4.99587 -0.148845 0)
(4.99574 -0.148285 0)
(4.99531 -0.146194 0)
(4.99459 -0.142785 0)
(4.9929 -0.133734 0)
(4.99052 -0.122706 0)
(4.98791 -0.106029 0)
(4.98322 -0.0812652 0)
(4.98185 -0.0634388 0)
(4.98114 -0.0474731 0)
(4.97631 -0.0222202 0)
(4.97771 -0.0242347 0)
(4.97571 -0.00843899 0)
(4.97297 -0.011778 0)
(4.97277 -0.0175192 0)
(4.97073 -0.0169076 0)
(4.96884 -0.0161192 0)
(4.96874 -0.0148408 0)
(4.97012 -0.0149094 0)
(4.97222 -0.0168237 0)
(4.97277 -0.0180178 0)
(4.97264 -0.0186096 0)
(4.97167 -0.0180079 0)
(4.97134 -0.0162395 0)
(4.97148 -0.0153464 0)
(4.97257 -0.0147258 0)
(4.97593 -0.0172585 0)
(4.98011 -0.0243762 0)
(4.9816 -0.0280758 0)
(4.98001 -0.0277542 0)
(4.97928 -0.0270746 0)
(4.97788 -0.0242784 0)
(4.97746 -0.018853 0)
(4.9801 -0.0130488 0)
(4.98562 -0.00784309 0)
(4.99456 -0.0026902 0)
(4.99598 -0.149049 0)
(4.99598 -0.149048 0)
(4.99599 -0.149049 0)
(4.99599 -0.149048 0)
(4.99599 -0.149048 0)
(4.99599 -0.149052 0)
(4.99599 -0.149056 0)
(4.99599 -0.149061 0)
(4.99599 -0.149065 0)
(4.99599 -0.149069 0)
(4.99599 -0.149071 0)
(4.99599 -0.149072 0)
(4.99599 -0.149077 0)
(4.99599 -0.149085 0)
(4.996 -0.149088 0)
(4.996 -0.149088 0)
(4.996 -0.14909 0)
(4.996 -0.149095 0)
(4.996 -0.149097 0)
(4.99601 -0.149099 0)
(4.99601 -0.149102 0)
(4.99601 -0.149104 0)
(4.99602 -0.149107 0)
(4.99602 -0.149107 0)
(4.99602 -0.149108 0)
(4.99602 -0.149109 0)
(4.99602 -0.14911 0)
(4.99603 -0.14911 0)
(4.99603 -0.149109 0)
(4.99603 -0.149108 0)
(4.99603 -0.149107 0)
(4.99603 -0.149107 0)
(4.99603 -0.149107 0)
(4.99603 -0.149106 0)
(4.99603 -0.149106 0)
(4.99603 -0.149106 0)
(4.99603 -0.149106 0)
(4.99603 -0.149106 0)
(4.99603 -0.149107 0)
(4.99603 -0.149107 0)
(4.99603 -0.149107 0)
(4.99603 -0.149107 0)
(4.99603 -0.149108 0)
(4.99603 -0.149107 0)
(4.99603 -0.149106 0)
(4.99603 -0.149107 0)
(4.99603 -0.149107 0)
(4.99603 -0.149107 0)
(4.99603 -0.149107 0)
(4.99603 -0.149108 0)
(4.99603 -0.149108 0)
(4.99602 -0.149111 0)
(4.99602 -0.149113 0)
(4.99602 -0.149123 0)
(4.99601 -0.149127 0)
(4.99601 -0.149141 0)
(4.99601 -0.149154 0)
(4.99601 -0.149166 0)
(4.996 -0.149185 0)
(4.996 -0.149194 0)
(4.996 -0.149191 0)
(4.99597 -0.149187 0)
(4.99596 -0.149178 0)
(4.99595 -0.149181 0)
(4.99593 -0.149175 0)
(4.99593 -0.149082 0)
(4.99592 -0.148995 0)
(4.99586 -0.148628 0)
(4.99569 -0.147759 0)
(4.99517 -0.145255 0)
(4.99412 -0.13996 0)
(4.99191 -0.129763 0)
(4.99 -0.118207 0)
(4.98549 -0.0904841 0)
(4.98438 -0.0834472 0)
(4.98035 -0.0578815 0)
(4.97932 -0.0425545 0)
(4.98014 -0.0461422 0)
(4.98228 -0.0367219 0)
(4.97467 -0.0240408 0)
(4.97064 -0.019629 0)
(4.97053 -0.0132987 0)
(4.97193 -0.0124083 0)
(4.97341 -0.0143612 0)
(4.97356 -0.0169596 0)
(4.97252 -0.0176917 0)
(4.97167 -0.0172887 0)
(4.97126 -0.0163934 0)
(4.97146 -0.0155587 0)
(4.97255 -0.0150728 0)
(4.97523 -0.0173187 0)
(4.9787 -0.0237435 0)
(4.98041 -0.026932 0)
(4.97991 -0.0264304 0)
(4.97957 -0.0258218 0)
(4.97882 -0.023309 0)
(4.97882 -0.0184449 0)
(4.98134 -0.0130457 0)
(4.98655 -0.00795801 0)
(4.99498 -0.00270848 0)
(4.99595 -0.149067 0)
(4.99595 -0.149068 0)
(4.99595 -0.149072 0)
(4.99595 -0.149078 0)
(4.99595 -0.14908 0)
(4.99595 -0.149082 0)
(4.99595 -0.149088 0)
(4.99595 -0.149091 0)
(4.99595 -0.149095 0)
(4.99595 -0.1491 0)
(4.99596 -0.149102 0)
(4.99596 -0.149105 0)
(4.99596 -0.149111 0)
(4.99596 -0.149115 0)