/*--------------------------------*- C++ -*----------------------------------*\
  =========                 |
  \\      /  F ield         | OpenFOAM: The Open Source CFD Toolbox
   \\    /   O peration     | Website:  https://openfoam.org
    \\  /    A nd           | Version:  7
     \\/     M anipulation  |
\*---------------------------------------------------------------------------*/
FoamFile
{
    version     2.0;
    format      ascii;
    class       volScalarField;
    location    "7.5";
    object      p;
}
// * * * * * * * * * * * * * * * * * * * * * * * * * * * * * * * * * * * * * //

dimensions      [1 -1 -2 0 0 0 0];

internalField   nonuniform List<scalar> 
90000
(
0.643798
0.661819
0.681471
0.70102
0.720284
0.739017
0.757527
0.775466
0.793314
0.810492
0.827679
0.844065
0.860505
0.876
0.891542
0.905938
0.920408
0.933389
0.946587
0.957729
0.969393
0.978527
0.987221
0.995543
1.00045
1.0049
1.01013
1.01036
1.01043
1.00972
1.0081
1.00497
0.997505
0.992751
0.989196
0.988021
0.988364
0.989828
0.992395
0.994763
0.996667
0.998415
1.00057
1.00223
1.00141
0.99978
0.996931
0.994696
0.993033
0.9919
0.992035
0.992908
0.995153
0.997972
1.00016
0.999908
0.99896
0.997477
0.9962
0.995634
0.995911
0.996692
0.997888
0.999285
0.999084
0.998311
0.997539
0.997552
0.998066
0.998934
0.999408
0.998947
0.998214
0.997884
0.998143
0.998585
0.998691
0.998703
0.99856
0.998498
0.998463
0.998432
0.998455
0.998621
0.998846
0.998694
0.998535
0.998478
0.998498
0.998639
0.999057
0.999374
0.999604
0.99952
0.999305
0.999185
0.99918
0.999284
0.999209
0.999021
0.62972
0.630797
0.632833
0.635959
0.640163
0.645559
0.652016
0.659732
0.668428
0.678487
0.689411
0.701739
0.714746
0.72909
0.74393
0.759858
0.776137
0.793087
0.810124
0.827519
0.844455
0.861532
0.877938
0.893252
0.909073
0.921861
0.93535
0.945802
0.956026
0.963103
0.970092
0.973786
0.979183
0.985757
0.993953
0.998771
1.00184
1.00436
1.00535
1.00481
1.00314
1.00212
1.00101
0.99845
0.995309
0.994407
0.993955
0.993587
0.993947
0.995207
0.996961
0.998297
0.99881
0.99844
0.997937
0.997062
0.996537
0.996064
0.996158
0.996893
0.998022
0.998402
0.998315
0.998095
0.997778
0.997442
0.997901
0.998644
0.999028
0.998976
0.998709
0.998218
0.998106
0.998288
0.998624
0.998488
0.998292
0.998472
0.998613
0.998636
0.998489
0.998439
0.998519
0.998717
0.998708
0.998558
0.998518
0.998528
0.998557
0.998753
0.998987
0.999383
0.999619
0.999543
0.999363
0.999242
0.999213
0.99921
0.999163
0.999003
0.629304
0.629306
0.629312
0.62933
0.629369
0.629477
0.629668
0.629995
0.630507
0.631265
0.632316
0.6338
0.635774
0.638464
0.641909
0.64647
0.652055
0.659269
0.667765
0.678545
0.690774
0.705739
0.72219
0.741502
0.762133
0.785317
0.809268
0.834699
0.860697
0.88563
0.911321
0.934399
0.955963
0.969485
0.980735
0.986904
0.991835
0.994078
0.995298
0.99542
0.995284
0.993657
0.990549
0.987902
0.988987
0.990868
0.993828
0.997708
1.00085
1.0026
1.00218
1.00044
0.997998
0.994896
0.993439
0.993011
0.993569
0.995988
0.998757
0.999838
0.999472
0.997982
0.996644
0.995484
0.996267
0.998209
0.999734
0.999646
0.998723
0.99773
0.997217
0.997989
0.998888
0.998916
0.99857
0.998216
0.998354
0.998656
0.998704
0.998552
0.998399
0.99848
0.998598
0.998597
0.998616
0.99863
0.998625
0.998585
0.998578
0.99871
0.999046
0.999333
0.999527
0.999479
0.999336
0.999221
0.99919
0.999229
0.999197
0.999056
0.62924
0.629224
0.629207
0.629192
0.629187
0.629167
0.629146
0.629136
0.629141
0.629151
0.629162
0.629176
0.629198
0.629241
0.629307
0.629437
0.629704
0.630167
0.630845
0.631845
0.633268
0.635394
0.638323
0.642638
0.64832
0.656435
0.666554
0.680506
0.696866
0.718074
0.741529
0.769931
0.799841
0.830448
0.860907
0.887045
0.912999
0.929877
0.946626
0.955957
0.966107
0.970811
0.976137
0.982367
0.991422
0.997809
1.00305
1.00571
1.00577
1.00511
1.00321
0.999508
0.996541
0.992962
0.992274
0.993884
0.996743
0.999454
1.00057
1.00007
0.998293
0.99639
0.995417
0.996483
0.998184
0.999686
0.99985
0.999055
0.997842
0.997078
0.997764
0.998737
0.999324
0.999008
0.998381
0.998238
0.99838
0.998503
0.998474
0.998417
0.998504
0.998672
0.998688
0.998627
0.998557
0.998563
0.998567
0.998575
0.998666
0.998894
0.999144
0.999222
0.999319
0.999248
0.999245
0.999237
0.999255
0.999284
0.999189
0.999022
0.6292
0.629197
0.629194
0.629191
0.629187
0.629182
0.629174
0.629162
0.629134
0.629109
0.629087
0.629069
0.629057
0.629052
0.629055
0.629078
0.629051
0.629036
0.629027
0.629023
0.629031
0.629061
0.629114
0.629232
0.629431
0.629879
0.630636
0.631942
0.633982
0.637424
0.642422
0.650544
0.661498
0.678206
0.69862
0.726482
0.757411
0.793589
0.830201
0.865826
0.90062
0.928504
0.956127
0.972643
0.983396
0.988694
0.994031
0.996962
0.998062
0.99571
0.990468
0.990015
0.991739
0.995223
0.998539
1.00105
1.00108
0.999596
0.997704
0.99614
0.995373
0.995944
0.997788
0.999733
0.999709
0.998952
0.997898
0.997061
0.997285
0.99795
0.998707
0.998661
0.998481
0.998375
0.998517
0.998626
0.998639
0.99845
0.998374
0.998492
0.998672
0.998725
0.998634
0.998433
0.99842
0.998542
0.99866
0.99871
0.99882
0.998997
0.99909
0.999133
0.999258
0.999311
0.999364
0.999349
0.999287
0.999239
0.99912
0.999015
0.629187
0.629185
0.629182
0.629179
0.629176
0.629172
0.629167
0.629163
0.629157
0.62915
0.629142
0.629133
0.629124
0.629114
0.629103
0.629093
0.629077
0.629044
0.629007
0.628978
0.628958
0.628945
0.628946
0.628956
0.629016
0.629
0.628979
0.628966
0.628972
0.629026
0.629154
0.629433
0.630049
0.631369
0.633739
0.63834
0.645557
0.658281
0.675407
0.701577
0.732121
0.770657
0.810931
0.850366
0.887827
0.913295
0.938077
0.95032
0.963997
0.969983
0.979178
0.988233
0.998011
1.00404
1.00597
1.00542
1.00322
0.998832
0.993222
0.992948
0.994356
0.997424
1.0011
1.00131
1.00037
0.998588
0.996272
0.99639
0.997549
0.998779
0.99936
0.998864
0.998213
0.998042
0.998445
0.998738
0.998682
0.998318
0.99818
0.998444
0.998812
0.99887
0.998684
0.998435
0.998421
0.998527
0.998607
0.998741
0.999005
0.999115
0.999118
0.999015
0.999049
0.999175
0.999305
0.999343
0.999299
0.999222
0.999121
0.999039
0.629158
0.629156
0.629154
0.629151
0.629147
0.629143
0.629138
0.629133
0.629129
0.629124
0.62912
0.629116
0.629112
0.629108
0.629104
0.629099
0.629094
0.629086
0.629074
0.629061
0.629044
0.629026
0.629007
0.628987
0.628967
0.628941
0.628918
0.628902
0.628893
0.628894
0.628907
0.628985
0.628956
0.628934
0.628932
0.629001
0.629197
0.629767
0.631067
0.634104
0.63953
0.650328
0.666106
0.692504
0.724885
0.767663
0.812211
0.856829
0.899797
0.93341
0.965437
0.980479
0.990733
0.996208
0.999773
0.997584
0.99134
0.989778
0.99172
0.995669
0.999378
1.00157
1.0014
0.999585
0.996351
0.995485
0.995827
0.997633
0.999257
0.999049
0.998472
0.997757
0.997894
0.998506
0.998983
0.998823
0.998436
0.998224
0.998396
0.998671
0.998731
0.998644
0.998492
0.998448
0.998464
0.998568
0.998712
0.998851
0.999119
0.999163
0.999106
0.998918
0.998972
0.999146
0.999362
0.999369
0.999289
0.999122
0.999038
0.999022
0.629138
0.629135
0.629133
0.629131
0.629128
0.629124
0.62912
0.629116
0.629111
0.629106
0.629101
0.629096
0.629091
0.629086
0.62908
0.629074
0.629068
0.629061
0.629053
0.629044
0.629032
0.629019
0.629006
0.628992
0.62898
0.628967
0.628951
0.628934
0.628918
0.628898
0.628884
0.628862
0.628856
0.628851
0.628847
0.628852
0.628897
0.628873
0.628861
0.628895
0.629009
0.629354
0.630343
0.63299
0.638242
0.649698
0.66724
0.697614
0.734218
0.782133
0.831149
0.874517
0.915567
0.936373
0.959227
0.967386
0.978284
0.988773
0.999688
1.00589
1.00548
1.00408
0.998444
0.993123
0.993249
0.994445
0.997556
1.00088
1.00064
0.999401
0.997057
0.996908
0.997534
0.998667
0.999141
0.998825
0.998167
0.998219
0.998617
0.998972
0.9988
0.998475
0.998395
0.998475
0.998515
0.998541
0.998685
0.999049
0.999245
0.999194
0.999003
0.998792
0.998843
0.999049
0.999324
0.999443
0.999355
0.999145
0.99902
0.999022
0.629115
0.629113
0.62911
0.629107
0.629103
0.629099
0.629095
0.62909
0.629084
0.629079
0.629074
0.629068
0.629063
0.629057
0.62905
0.629042
0.629035
0.629027
0.629019
0.629009
0.628997
0.628985
0.628971
0.628959
0.628949
0.628938
0.628921
0.628907
0.628893
0.628877
0.628861
0.628848
0.628833
0.628818
0.628802
0.62879
0.628781
0.628784
0.628793
0.628814
0.628842
0.628915
0.628923
0.62896
0.629081
0.629524
0.630718
0.634119
0.640939
0.656231
0.679213
0.718491
0.764864
0.819635
0.874003
0.918208
0.961613
0.98108
0.993112
0.999409
0.999737
0.994198
0.98865
0.990405
0.995134
0.999391
1.00103
1.00078
0.998919
0.996454
0.996147
0.997183
0.998713
0.998901
0.998614
0.99794
0.99803
0.998673
0.998984
0.998798
0.998554
0.998359
0.998426
0.998561
0.998642
0.998648
0.998803
0.999137
0.999259
0.999173
0.998964
0.998778
0.998802
0.998974
0.999235
0.999381
0.99933
0.999137
0.999064
0.999036
0.629114
0.629111
0.629108
0.629104
0.629099
0.629095
0.62909
0.629084
0.629078
0.629072
0.629066
0.629059
0.629057
0.629054
0.629042
0.629031
0.629024
0.629017
0.629006
0.62899
0.628974
0.628962
0.62895
0.628939
0.628926
0.628909
0.628891
0.628877
0.628863
0.628842
0.628822
0.62881
0.628799
0.628784
0.628772
0.628761
0.628751
0.628744
0.62874
0.628747
0.628762
0.62879
0.628838
0.628896
0.628994
0.629019
0.629055
0.629139
0.629354
0.630118
0.632169
0.638052
0.649568
0.674642
0.70942
0.762017
0.818957
0.871092
0.918969
0.942679
0.96434
0.972392
0.98781
0.997037
1.00416
1.00386
1.0024
0.997557
0.993539
0.994188
0.996651
0.999922
0.999833
0.998842
0.997033
0.997217
0.998312
0.999525
0.99938
0.998767
0.998163
0.998258
0.99855
0.99857
0.998605
0.99873
0.999082
0.999294
0.999243
0.999036
0.998836
0.998757
0.998803
0.998968
0.999176
0.999361
0.999267
0.999121
0.999111
0.999105
0.629116
0.629113
0.629108
0.629103
0.629099
0.629095
0.62909
0.629083
0.629076
0.629071
0.629066
0.629063
0.629059
0.629052
0.629043
0.629035
0.629029
0.629022
0.629011
0.628996
0.628988
0.628981
0.628971
0.628957
0.628942
0.628927
0.628913
0.628895
0.628873
0.628852
0.628834
0.628818
0.628804
0.628792
0.628782
0.628776
0.62877
0.628764
0.628762
0.628769
0.628786
0.628812
0.628848
0.628891
0.628943
0.62901
0.629085
0.629157
0.629289
0.629291
0.629297
0.629425
0.629928
0.63183
0.636693
0.649978
0.672925
0.716302
0.770437
0.832834
0.894982
0.941984
0.979511
0.990002
0.999105
0.997947
0.992018
0.990077
0.992837
0.997396
1.001
1.00091
0.998947
0.995928
0.996026
0.997653
0.999504
0.999534
0.998765
0.997944
0.998065
0.998549
0.998745
0.99862
0.998631
0.998894
0.999327
0.999296
0.999154
0.998927
0.998782
0.998769
0.998837
0.998971
0.999075
0.999198
0.99917
0.999089
0.999112
0.999146
0.629065
0.629064
0.629063
0.629061
0.62906
0.62906
0.629058
0.629055
0.629052
0.62905
0.629049
0.629047
0.629044
0.629045
0.629048
0.62905
0.629047
0.62904
0.629033
0.629028
0.629026
0.629024
0.629018
0.629009
0.629002
0.628995
0.628984
0.62897
0.628954
0.628938
0.628923
0.62891
0.628897
0.628885
0.628879
0.628872
0.628861
0.628853
0.628857
0.628868
0.628884
0.628903
0.628926
0.628954
0.628986
0.629028
0.629075
0.629127
0.62919
0.629253
0.629292
0.629278
0.62924
0.629189
0.62927
0.6298
0.631675
0.638098
0.652021
0.684014
0.729745
0.793128
0.861267
0.905764
0.950574
0.961249
0.97569
0.986852
1.00073
1.00405
1.00324
0.99894
0.993829
0.994252
0.996798
1.00033
1.00017
0.998771
0.99723
0.997536
0.998666
0.998892
0.998688
0.998496
0.998717
0.99934
0.999509
0.999306
0.998872
0.998742
0.998768
0.998824
0.998943
0.998999
0.998995
0.999006
0.999059
0.999067
0.999156
0.99917
0.629027
0.629028
0.629029
0.629029
0.629029
0.62903
0.62903
0.62903
0.62903
0.629031
0.62903
0.629029
0.629029
0.62903
0.629031
0.629032
0.629033
0.629034
0.629039
0.629048
0.629058
0.629067
0.629076
0.629087
0.629099
0.629108
0.629114
0.629121
0.629127
0.629127
0.629125
0.629123
0.629116
0.629105
0.62909
0.629074
0.629056
0.629035
0.629021
0.629018
0.629014
0.629013
0.629018
0.629028
0.629044
0.629064
0.629089
0.629122
0.629166
0.629222
0.629273
0.629289
0.629283
0.629266
0.629184
0.629063
0.629032
0.629187
0.629909
0.633054
0.641058
0.663669
0.700466
0.763007
0.833597
0.895695
0.957144
0.978669
0.994871
0.997681
0.993794
0.98957
0.992405
0.997485
1.00145
1.00113
0.998477
0.996315
0.996689
0.998544
0.999382
0.998981
0.998226
0.998395
0.999245
0.999639
0.999451
0.998915
0.99869
0.9987
0.998773
0.998885
0.999006
0.998989
0.998904
0.998837
0.99893
0.999073
0.999216
0.999187
0.628921
0.628923
0.628923
0.628922
0.628922
0.628924
0.628926
0.628928
0.628931
0.628937
0.628947
0.628957
0.628965
0.628973
0.628983
0.628993
0.629006
0.629026
0.629052
0.629076
0.629099
0.629124
0.62915
0.629177
0.629206
0.629237
0.629268
0.629299
0.629328
0.629357
0.629382
0.629391
0.629391
0.629386
0.629371
0.629346
0.629314
0.62928
0.629245
0.629205
0.629161
0.62912
0.629097
0.629083
0.629073
0.62907
0.629075
0.629097
0.629138
0.629192
0.629266
0.629337
0.629361
0.629354
0.629314
0.629221
0.629082
0.628995
0.628994
0.629044
0.629347
0.630924
0.635725
0.651616
0.68073
0.738881
0.808807
0.871644
0.931457
0.951233
0.969582
0.982593
1.00038
1.00467
1.00353
0.998184
0.993983
0.994996
0.998266
1.00013
0.999303
0.997928
0.998035
0.999083
1.00004
0.999787
0.998926
0.998625
0.998646
0.998743
0.998837
0.998991
0.999034
0.998964
0.998772
0.998714
0.998837
0.999086
0.999242
0.999201
0.628862
0.628862
0.628862
0.628864
0.628868
0.628872
0.628879
0.628886
0.628891
0.6289
0.628914
0.628928
0.628942
0.628959
0.628976
0.628993
0.629016
0.629046
0.629072
0.629093
0.629119
0.62915
0.629181
0.629212
0.629247
0.629284
0.629325
0.629368
0.62941
0.629452
0.629492
0.629527
0.629552
0.629561
0.629558
0.629545
0.629516
0.629475
0.629425
0.629366
0.629296
0.629219
0.629147
0.629101
0.629075
0.629053
0.629044
0.629047
0.629084
0.629173
0.62928
0.629385
0.62946
0.629486
0.629475
0.629425
0.629311
0.629141
0.628991
0.628967
0.628975
0.629022
0.62926
0.630217
0.633156
0.644465
0.668267
0.722391
0.791531
0.864952
0.940148
0.972229
0.992984
0.9977
0.992476
0.989506
0.993684
0.999377
1.00109
0.999794
0.996717
0.996907
0.99873
1.00026
1.00006
0.998979
0.998463
0.998589
0.998751
0.998788
0.998852
0.999029
0.99904
0.998886
0.998659
0.99868
0.998812
0.999056
0.999238
0.999197
0.628889
0.628892
0.628892
0.628895
0.628899
0.628904
0.628913
0.628924
0.628932
0.628942
0.628953
0.628961
0.628972
0.628985
0.628996
0.629009
0.629034
0.629059
0.629075
0.629091
0.629112
0.629136
0.62916
0.629187
0.629218
0.629254
0.629296
0.629339
0.629383
0.629427
0.62947
0.62951
0.629549
0.629584
0.629605
0.629606
0.629596
0.629571
0.629531
0.629477
0.62941
0.629324
0.629223
0.62912
0.629039
0.628997
0.628988
0.62899
0.629005
0.62905
0.629141
0.629285
0.629454
0.629561
0.629583
0.629572
0.629516
0.629381
0.629166
0.62897
0.628922
0.628923
0.628968
0.629142
0.629357
0.629851
0.631712
0.640338
0.660826
0.712037
0.781387
0.854682
0.921956
0.948626
0.968207
0.984044
1.00336
1.00497
1.0022
0.995048
0.995189
0.997559
1.0011
1.00084
0.998945
0.998109
0.99837
0.998926
0.998895
0.99881
0.998911
0.999078
0.998993
0.998802
0.998607
0.998664
0.998821
0.999022
0.9992
0.999158
0.629101
0.629093
0.629085
0.629078
0.629071
0.629065
0.629054
0.62905
0.629053
0.629053
0.629049
0.629049
0.629051
0.629049
0.629044
0.629045
0.629053
0.629064
0.62907
0.629075
0.629084
0.629096
0.629111
0.62913
0.629151
0.629177
0.629209
0.629245
0.629285
0.629327
0.629371
0.629416
0.629463
0.62951
0.629554
0.629585
0.629598
0.629595
0.629581
0.629555
0.629513
0.629446
0.629352
0.629233
0.6291
0.628989
0.628939
0.628937
0.62895
0.628978
0.629032
0.629132
0.62929
0.629478
0.629595
0.629616
0.629608
0.629546
0.629376
0.629107
0.628924
0.628895
0.628911
0.628986
0.629203
0.629357
0.62937
0.629605
0.630931
0.638197
0.657295
0.707841
0.777243
0.857713
0.938365
0.973703
0.996319
0.997777
0.988442
0.990527
0.996756
1.00188
1.00163
0.999094
0.996951
0.997652
0.999032
0.999018
0.998811
0.998801
0.999085
0.999105
0.998895
0.998586
0.998592
0.998722
0.998852
0.998965
0.999133
0.99909
0.62941
0.629394
0.629378
0.62936
0.629339
0.629317
0.629293
0.629268
0.629244
0.62922
0.629197
0.629177
0.629158
0.629139
0.629117
0.629097
0.629082
0.629068
0.629056
0.629047
0.629042
0.629039
0.629037
0.629036
0.629037
0.629038
0.629042
0.62905
0.629065
0.629088
0.629123
0.629172
0.629237
0.629315
0.629404
0.629488
0.629547
0.629582
0.629604
0.629608
0.6296
0.629572
0.629518
0.629432
0.629306
0.62915
0.629003
0.62892
0.628902
0.628906
0.62892
0.628958
0.629044
0.629205
0.62942
0.629573
0.629607
0.629598
0.629517
0.629305
0.629028
0.628902
0.628905
0.628961
0.6291
0.629322
0.629437
0.629418
0.629292
0.629399
0.63055
0.637448
0.656698
0.707132
0.780212
0.85905
0.924493
0.954011
0.971202
0.994693
1.00499
1.00414
0.998297
0.995123
0.996652
0.999632
0.999649
0.998932
0.998497
0.998883
0.999339
0.999122
0.99848
0.998482
0.998696
0.99886
0.99889
0.998929
0.999022
0.998982
0.629629
0.629616
0.629601
0.629581
0.629559
0.629537
0.62951
0.629481
0.62945
0.629416
0.62938
0.629344
0.629309
0.629272
0.62923
0.629188
0.62915
0.629115
0.629083
0.629053
0.629025
0.629002
0.628987
0.628977
0.628966
0.628954
0.628942
0.628933
0.628929
0.628929
0.628939
0.628963
0.629004
0.629067
0.62916
0.629279
0.629414
0.629534
0.62961
0.629653
0.629673
0.629673
0.629661
0.629623
0.629545
0.629416
0.629241
0.629057
0.628923
0.628849
0.628808
0.628797
0.628805
0.628866
0.62903
0.629296
0.629527
0.629597
0.629583
0.629481
0.629255
0.629013
0.628947
0.628971
0.629059
0.629238
0.629447
0.629474
0.629437
0.629273
0.629115
0.629281
0.630648
0.637748
0.658727
0.71181
0.786966
0.875379
0.950652
0.985565
0.999141
0.994201
0.987938
0.993468
1.00034
1.00071
0.999476
0.99751
0.998236
0.999542
0.999407
0.998435
0.998228
0.998594
0.998903
0.998874
0.998883
0.998907
0.998914
0.998826
0.629713
0.629706
0.629697
0.629686
0.629674
0.629661
0.629644
0.629623
0.629601
0.629578
0.629552
0.629522
0.629489
0.629452
0.629412
0.629369
0.629322
0.62927
0.629218
0.629168
0.629117
0.629068
0.629022
0.628984
0.628954
0.628932
0.628914
0.628898
0.628889
0.62889
0.628895
0.628904
0.62892
0.628948
0.628996
0.629075
0.629199
0.629359
0.629517
0.62963
0.629696
0.629725
0.629723
0.629706
0.629667
0.629594
0.629473
0.629298
0.629091
0.628895
0.628744
0.628674
0.628656
0.628657
0.628716
0.628918
0.629251
0.629537
0.629628
0.62961
0.629513
0.629313
0.629108
0.629038
0.629049
0.629126
0.629306
0.629467
0.629463
0.629373
0.62919
0.629103
0.629144
0.62947
0.631178
0.638819
0.663183
0.719435
0.80362
0.883717
0.938066
0.963827
0.982606
1.00409
1.00392
1.00082
0.995786
0.996982
1.00008
1.00002
0.998588
0.997781
0.998241
0.999068
0.99903
0.998847
0.998892
0.998896
0.998709
0.998678
0.62973
0.629732
0.629731
0.629727
0.629725
0.629725
0.629726
0.629724
0.629722
0.62972
0.629717
0.629708
0.629695
0.629677
0.629655
0.629629
0.629597
0.629559
0.629516
0.629469
0.629416
0.629356
0.62929
0.629218
0.629147
0.629082
0.629026
0.628973
0.628931
0.628908
0.628901
0.628904
0.628915
0.628927
0.62894
0.628966
0.629019
0.629109
0.629234
0.629379
0.62953
0.629659
0.629719
0.629713
0.629683
0.629632
0.629561
0.629468
0.629318
0.629104
0.628841
0.628652
0.628602
0.628594
0.628618
0.628749
0.629019
0.629364
0.629617
0.629679
0.629659
0.62958
0.629403
0.629174
0.629068
0.629063
0.629126
0.629288
0.629399
0.629388
0.629304
0.629205
0.629203
0.629283
0.629439
0.629833
0.631814
0.64068
0.671498
0.734355
0.821043
0.918429
0.970236
0.997652
0.996958
0.988826
0.993059
1.00051
1.0014
0.999541
0.996694
0.997426
0.999298
0.999233
0.998861
0.998782
0.998979
0.998875
0.998498
0.998558
0.629677
0.629695
0.62971
0.629721
0.629732
0.629742
0.629754
0.629766
0.62978
0.629796
0.629811
0.629822
0.629829
0.629834
0.629838
0.62984
0.62984
0.629837
0.629828
0.629812
0.629788
0.629755
0.629709
0.62965
0.629582
0.629507
0.62942
0.629325
0.629232
0.629142
0.629052
0.628983
0.628942
0.628914
0.628895
0.628885
0.628887
0.628902
0.628941
0.629006
0.629095
0.629206
0.62933
0.629441
0.629509
0.629536
0.62954
0.629524
0.629488
0.629387
0.629188
0.628907
0.628698
0.628635
0.628645
0.628752
0.628977
0.62922
0.629482
0.629659
0.629679
0.629658
0.629582
0.629372
0.629118
0.62904
0.629045
0.629126
0.629291
0.629389
0.629392
0.629362
0.629348
0.629381
0.62947
0.629527
0.629585
0.629924
0.632713
0.644223
0.683462
0.756168
0.845893
0.923636
0.955083
0.97534
1.00217
1.00454
1.00113
0.994871
0.996023
0.999501
1.00008
0.9991
0.998528
0.998921
0.999172
0.998801
0.998315
0.998579
0.629473
0.629512
0.629553
0.629593
0.629631
0.629669
0.629706
0.629738
0.629763
0.629783
0.629802
0.629819
0.629836
0.629854
0.629872
0.629886
0.629896
0.629905
0.629912
0.629916
0.629918
0.629916
0.629909
0.629891
0.629864
0.629825
0.629767
0.62969
0.629596
0.629486
0.629358
0.629222
0.629084
0.628955
0.62886
0.628814
0.628792
0.62878
0.628774
0.628773
0.62878
0.628804
0.628857
0.628946
0.629064
0.629193
0.629338
0.629496
0.629586
0.629611
0.629583
0.629443
0.629236
0.629052
0.628953
0.628967
0.629052
0.629161
0.62927
0.629439
0.629596
0.629633
0.629602
0.629485
0.629255
0.629076
0.629053
0.629088
0.629227
0.629406
0.629475
0.62948
0.629467
0.629445
0.629451
0.629447
0.629439
0.6294
0.629448
0.63004
0.634303
0.65132
0.702425
0.783507
0.885019
0.957702
0.994386
0.997101
0.986943
0.991094
0.999573
1.00151
0.999863
0.997506
0.998272
0.999397
0.999138
0.99811
0.998137
0.998828
0.629162
0.629186
0.629214
0.629242
0.629274
0.629314
0.62936
0.629408
0.629458
0.62951
0.62956
0.629606
0.629646
0.62968
0.62971
0.629736
0.629757
0.629777
0.629798
0.629825
0.629848
0.629862
0.629865
0.629862
0.629855
0.629837
0.629801
0.629755
0.629706
0.629635
0.629535
0.629418
0.629286
0.62914
0.628996
0.628872
0.628791
0.628748
0.628726
0.62871
0.628695
0.628682
0.628674
0.628693
0.62876
0.628876
0.62906
0.629348
0.629642
0.629762
0.629784
0.629757
0.62965
0.62951
0.629405
0.629325
0.629241
0.629167
0.629137
0.62915
0.62928
0.629472
0.629542
0.629527
0.629434
0.629284
0.6292
0.629203
0.629272
0.629429
0.629522
0.629529
0.629508
0.629456
0.629374
0.629312
0.629297
0.629315
0.629324
0.629348
0.629466
0.630611
0.637279
0.6636
0.727177
0.820407
0.903787
0.950056
0.970651
0.999952
1.00455
1.00128
0.995673
0.997046
0.999995
0.999858
0.998189
0.997727
0.998361
0.999285
0.628877
0.628864
0.628853
0.628838
0.628827
0.628823
0.628819
0.628815
0.628813
0.628818
0.628841
0.628876
0.628913
0.628948
0.628985
0.629023
0.629066
0.629115
0.62917
0.629232
0.629301
0.629376
0.62945
0.629519
0.629583
0.629638
0.629677
0.629686
0.629672
0.629624
0.629559
0.629491
0.62942
0.629343
0.629267
0.629205
0.62916
0.629119
0.629072
0.629025
0.62897
0.628887
0.628779
0.628706
0.628689
0.628729
0.62888
0.629152
0.629499
0.629743
0.629823
0.629813
0.62972
0.629601
0.62958
0.629554
0.629439
0.629195
0.629058
0.629036
0.629078
0.629252
0.629464
0.629579
0.629604
0.62958
0.629509
0.629472
0.629473
0.629497
0.629538
0.629533
0.629499
0.629413
0.6293
0.629241
0.629245
0.62928
0.629375
0.629475
0.629559
0.629558
0.629789
0.631939
0.64328
0.683356
0.759125
0.864642
0.947434
0.992471
0.997208
0.987247
0.992112
1.00024
1.00098
0.998965
0.996634
0.997504
0.999416
0.999524
0.628762
0.628733
0.628704
0.628669
0.628629
0.628582
0.628528
0.628477
0.62843
0.628375
0.628342
0.628335
0.628332
0.628331
0.628335
0.628356
0.6284
0.628463
0.628538
0.62862
0.628711
0.628818
0.628944
0.62909
0.62924
0.62936
0.629446
0.629517
0.629574
0.629587
0.629566
0.629504
0.629491
0.629503
0.629514
0.629547
0.629611
0.629684
0.629719
0.629726
0.629704
0.629612
0.629422
0.629162
0.62892
0.628829
0.628851
0.628995
0.629239
0.629418
0.629549
0.6296
0.62955
0.629509
0.629532
0.629573
0.629548
0.629323
0.629064
0.629017
0.629038
0.629175
0.629413
0.629632
0.629728
0.629734
0.629712
0.629684
0.629638
0.629568
0.629466
0.629398
0.629358
0.629312
0.629267
0.629229
0.629244
0.629335
0.629504
0.629585
0.62958
0.629555
0.629463
0.629455
0.630012
0.634307
0.65472
0.709922
0.804613
0.897501
0.94614
0.970182
1.00101
1.00362
1.00048
0.995127
0.996416
0.999689
1.00013
0.999511
0.628927
0.628877
0.628826
0.628771
0.628711
0.628649
0.62859
0.62853
0.628463
0.628383
0.628294
0.62823
0.628211
0.628209
0.628215
0.628243
0.628304
0.628376
0.628442
0.62851
0.628591
0.628689
0.628808
0.628953
0.629119
0.629279
0.629409
0.629506
0.629582
0.629579
0.62953
0.629509
0.629521
0.629606
0.629642
0.629658
0.62972
0.629852
0.62999
0.630038
0.630038
0.630006
0.629868
0.62958
0.629217
0.628929
0.628882
0.628981
0.62916
0.629214
0.629208
0.6292
0.629204
0.62924
0.62937
0.629544
0.629587
0.629529
0.629352
0.629265
0.629259
0.62931
0.629483
0.629659
0.629731
0.629735
0.629729
0.629723
0.629671
0.629511
0.629326
0.629258
0.629258
0.629273
0.629288
0.629327
0.629398
0.629526
0.62962
0.629622
0.629592
0.62948
0.629296
0.629112
0.629131
0.629336
0.630945
0.639592
0.675806
0.748688
0.856522
0.946315
0.992806
0.996167
0.987186
0.991659
0.999619
1.00128
1.00013
0.998836
0.629744
0.629705
0.629667
0.629626
0.629582
0.62953
0.629472
0.629405
0.629328
0.629267
0.62923
0.629203
0.62917
0.629117
0.629069
0.629081
0.629136
0.629208
0.629233
0.629255
0.629282
0.629299
0.629325
0.629368
0.629418
0.629453
0.629485
0.629527
0.629595
0.629608
0.629524
0.629438
0.629435
0.629522
0.629594
0.629605
0.629648
0.629753
0.629887
0.629987
0.630016
0.629998
0.629887
0.629594
0.629281
0.629076
0.629014
0.629067
0.629166
0.62922
0.629209
0.629125
0.629095
0.629138
0.629266
0.629423
0.629568
0.62969
0.629754
0.629718
0.629605
0.629567
0.629622
0.629659
0.629617
0.629574
0.62957
0.629565
0.629502
0.629374
0.629276
0.629244
0.629261
0.629322
0.629447
0.629531
0.629626
0.629671
0.629663
0.629607
0.629464
0.629236
0.6291
0.629041
0.629078
0.629197
0.629342
0.629864
0.633497
0.651343
0.705993
0.801943
0.894376
0.947353
0.972056
1.00046
1.00352
1.00089
0.997693
0.998762
0.630127
0.630074
0.630017
0.629995
0.629984
0.629965
0.629917
0.629887
0.629861
0.62983
0.629828
0.629837
0.62987
0.629908
0.629915
0.629894
0.62992
0.629967
0.629978
0.629975
0.629954
0.629893
0.629829
0.629801
0.629724
0.629618
0.629593
0.629534
0.62942
0.62933
0.629223
0.629052
0.628951
0.628956
0.628944
0.62892
0.628945
0.629049
0.629192
0.629328
0.629459
0.629544
0.629527
0.62939
0.629355
0.629358
0.629353
0.62938
0.629472
0.629647
0.629716
0.629676
0.629579
0.629468
0.629377
0.629376
0.629492
0.629768
0.629929
0.629912
0.629759
0.62967
0.629651
0.629589
0.629422
0.629257
0.629235
0.629245
0.629253
0.629265
0.6293
0.629369
0.629464
0.629573
0.629642
0.629683
0.629711
0.629698
0.629579
0.629377
0.629159
0.629022
0.629036
0.629086
0.629245
0.629447
0.629556
0.629579
0.629692
0.630842
0.639006
0.67393
0.749185
0.86397
0.947451
0.996101
0.995169
0.990676
0.995391
1.00004
0.62981
0.62979
0.629726
0.62968
0.629658
0.629625
0.629591
0.62958
0.62959
0.629606
0.629594
0.629579
0.629582
0.6296
0.629605
0.629545
0.629533
0.629572
0.629572
0.629591
0.629584
0.629494
0.629479
0.629467
0.629337
0.6292
0.629207
0.629206
0.629109
0.629019
0.628961
0.628871
0.628713
0.628516
0.628338
0.628231
0.628236
0.628308
0.628418
0.628582
0.628785
0.628985
0.629134
0.629265
0.629467
0.629587
0.629628
0.629676
0.629837
0.630196
0.630347
0.630345
0.63028
0.630052
0.62963
0.629449
0.62946
0.629632
0.629765
0.629754
0.629677
0.629583
0.62952
0.629427
0.629256
0.629155
0.629163
0.629189
0.629217
0.629299
0.629499
0.629708
0.629809
0.629809
0.629755
0.62973
0.629669
0.629517
0.629293
0.629055
0.628946
0.628964
0.629058
0.629324
0.629596
0.629659
0.629652
0.62958
0.629351
0.629275
0.629684
0.633208
0.652781
0.70962
0.806421
0.915193
0.947274
0.978881
1.00131
1.00053
0.628003
0.628022
0.628056
0.628114
0.628191
0.628266
0.628367
0.628469
0.628524
0.62859
0.628662
0.628738
0.628851
0.628874
0.628803
0.628785
0.628796
0.628699
0.628654
0.6287
0.628814
0.628866
0.628888
0.628876
0.628894
0.628911
0.628889
0.628796
0.628754
0.628759
0.628829
0.628859
0.628778
0.628607
0.628368
0.628078
0.628016
0.628126
0.628242
0.628368
0.628636
0.628924
0.629058
0.629224
0.62952
0.629689
0.629699
0.629709
0.629834
0.630195
0.630344
0.630333
0.630266
0.630076
0.629624
0.629308
0.629269
0.629233
0.629163
0.629075
0.629002
0.629013
0.629096
0.629232
0.629284
0.62932
0.629415
0.629491
0.629525
0.629603
0.629787
0.62995
0.62996
0.629926
0.629788
0.629568
0.629325
0.629138
0.629043
0.628963
0.628986
0.629125
0.629414
0.629731
0.629777
0.62974
0.629603
0.629352
0.629152
0.629077
0.629116
0.629322
0.63095
0.640014
0.680498
0.762719
0.875498
0.961455
0.993237
0.99272
0.627516
0.627518
0.627555
0.627665
0.627827
0.627989
0.628018
0.628008
0.628115
0.628291
0.628294
0.62829
0.628382
0.628654
0.628691
0.628702
0.628771
0.628716
0.628671
0.628709
0.628809
0.628846
0.628848
0.628825
0.628926
0.629034
0.62909
0.629192
0.62932
0.629456
0.629657
0.629687
0.629669
0.6298
0.629857
0.629815
0.629831
0.629917
0.629948
0.629888
0.630022
0.630023
0.629874
0.629724
0.629683
0.629517
0.629186
0.629091
0.629166
0.629321
0.62934
0.629352
0.629375
0.629339
0.629117
0.628916
0.628927
0.628917
0.628822
0.628644
0.628583
0.628601
0.628707
0.629037
0.629478
0.629815
0.630021
0.630029
0.62995
0.62982
0.629862
0.629897
0.629863
0.629727
0.629471
0.629168
0.628949
0.628912
0.628957
0.629086
0.629334
0.629604
0.629806
0.629865
0.629829
0.629612
0.629255
0.629012
0.629033
0.629092
0.6293
0.629633
0.629695
0.630099
0.63438
0.656285
0.727603
0.82647
0.913479
0.969804
0.629646
0.629556
0.629571
0.629673
0.629799
0.629826
0.629752
0.629577
0.629467
0.629526
0.62974
0.629874
0.629959
0.630135
0.630324
0.630421
0.63051
0.63066
0.63072
0.630622
0.630477
0.630384
0.630276
0.630154
0.630167
0.630398
0.63083
0.630892
0.630666
0.630584
0.630539
0.630456
0.630381
0.63042
0.630546
0.63065
0.630776
0.631051
0.631292
0.631509
0.631585
0.631388
0.630806
0.630235
0.629628
0.628854
0.628267
0.628093
0.62813
0.628243
0.628404
0.628596
0.628775
0.628791
0.628685
0.628697
0.628791
0.628885
0.62892
0.628816
0.628695
0.628702
0.628878
0.629277
0.629705
0.630065
0.630205
0.63016
0.629995
0.629702
0.629342
0.629121
0.629018
0.628967
0.62891
0.628878
0.628918
0.62897
0.629234
0.629666
0.629949
0.629989
0.629962
0.629835
0.629551
0.629172
0.628929
0.628939
0.629047
0.629406
0.629718
0.629856
0.629778
0.629432
0.629481
0.63123
0.644636
0.691076
0.785229
0.926098
0.637313
0.636637
0.63618
0.636172
0.636297
0.636272
0.636046
0.635543
0.635054
0.63478
0.634672