/*--------------------------------*- C++ -*----------------------------------*\
  =========                 |
  \\      /  F ield         | OpenFOAM: The Open Source CFD Toolbox
   \\    /   O peration     | Website:  https://openfoam.org
    \\  /    A nd           | Version:  7
     \\/     M anipulation  |
\*---------------------------------------------------------------------------*/
FoamFile
{
    version     2.0;
    format      ascii;
    class       volScalarField;
    location    "7.9";
    object      T;
}
// * * * * * * * * * * * * * * * * * * * * * * * * * * * * * * * * * * * * * //

dimensions      [0 0 0 1 0 0 0];

internalField   nonuniform List<scalar> 
1750
(
1.39683
1.52325
1.48867
1.42826
1.37749
1.39749
1.41575
1.41764
1.43162
1.4329
0.459691
0.943432
1.56142
1.82273
1.80786
1.76721
1.70637
1.63776
1.61094
1.58492
0.367004
0.359216
0.483668
1.01239
1.44479
1.63805
1.70915
1.70429
1.6889
1.63769
0.39143
0.402092
0.426577
0.451914
0.51414
0.784028
1.09187
1.3191
1.42319
1.48141
0.490954
0.500697
0.513628
0.526864
0.526429
0.530578
0.539418
0.648064
0.804494
1.07955
0.576412
0.582597
0.58373
0.590332
0.60489
0.615416
0.627152
0.626286
0.632408
0.690228
0.691687
0.69141
0.690399
0.69094
0.693317
0.698543
0.697871
0.698734
0.696157
0.684256
0.826451
0.813668
0.802731
0.796057
0.788873
0.778618
0.77
0.761502
0.75552
0.752094
0.958561
0.943294
0.924841
0.908721
0.894458
0.878028
0.863333
0.849151
0.837127
0.819928
1.02969
1.02263
1.01365
1.00268
0.99018
0.975287
0.95745
0.939533
0.922955
0.896959
1.03801
1.03776
1.0365
1.03477
1.03268
1.0287
1.02195
1.01238
1.00136
0.978464
1.02606
1.02823
1.02995
1.03187
1.03188
1.03159
1.0312
1.03048
1.02912
1.02287
1.0059
1.00825
1.01075
1.01388
1.01723
1.02026
1.02294
1.02497
1.02673
1.02651
1.00029
1.00052
1.0009
1.00153
1.00258
1.00416
1.00631
1.00905
1.01211
1.017
1
1.00001
1.00002
1.00004
1.00009
1.00019
1.00041
1.00085
1.00157
1.0042
0.542832
0.442907
0.389976
0.388949
0.471743
0.570236
0.688765
0.836335
0.972622
1.03453
1.03798
1.02291
1.00412
1.00018
1
0.544262
0.443134
0.385411
0.423989
0.496388
0.603952
0.737461
0.888425
1.00581
1.04133
1.0377
1.01784
1.00226
1.00007
1
0.521471
0.420976
0.381751
0.441214
0.511881
0.6328
0.783954
0.930153
1.02375
1.04319
1.03606
1.01387
1.00127
1.00003
1
0.502903
0.39348
0.358771
0.442468
0.555126
0.693798
0.837288
0.966659
1.03663
1.0443
1.03319
1.00899
1.00055
1.00001
1
0.49575
0.373273
0.35241
0.439681
0.604213
0.744682
0.88258
0.998713
1.04543
1.04479
1.02696
1.00492
1.00023
1
1
0.490693
0.356347
0.379444
0.507849
0.65646
0.792148
0.931542
1.02689
1.04924
1.04448
1.01923
1.00251
1.00009
1
1
0.477951
0.349359
0.426335
0.571247
0.702201
0.84764
0.981968
1.04371
1.05035
1.03808
1.01233
1.00106
1.00003
1
1
0.436793
0.354669
0.462061
0.61429
0.771322
0.920338
1.01873
1.05118
1.04989
1.03044
1.00684
1.00039
1.00001
1
1
0.43088
0.400706
0.513676
0.678001
0.849254
0.974348
1.04232
1.05402
1.04615
1.02165
1.00309
1.00013
1
1
1
0.416236
0.454606
0.608056
0.791655
0.926213
1.01696
1.0552
1.05481
1.04017
1.01275
1.00112
1.00003
1
1
1
0.389676
0.491646
0.700897
0.876178
0.987953
1.0474
1.0594
1.05442
1.03016
1.00564
1.00034
1.00001
1
1
1
0.0911546
0.561761
0.816231
0.953745
1.03388
1.0616
1.06056
1.04642
1.01639
1.00194
1.00008
1
1
1
1
0.236376
0.708745
0.918045
1.01733
1.05911
1.06489
1.05846
1.03171
1.00672
1.00049
1.00002
1
1
1
1
0.490017
0.833755
0.999859
1.05327
1.06799
1.06533
1.04629
1.01529
1.00184
1.00008
1
1
1
1
1
0.834589
0.997563
1.05439
1.06614
1.06903
1.05588
1.02701
1.00525
1.00035
1.00001
1
1
1
1
1
1.06656
1.06809
1.06906
1.06786
1.06426
1.03822
1.01014
1.00049
1
1
1
1
1
1
1
1.06631
1.0685
1.06956
1.06683
1.06137
1.03589
1.0091
1.00083
1.00003
1
1
1
1
1
1
1.06602
1.06919
1.07015
1.06655
1.05406
1.02174
1.0028
1.00011
1
1
1
1
1
1
1
1.0659
1.06983
1.07029
1.06286
1.04349
1.01334
1.00123
1.00004
1
1
1
1
1
1
1
1.06643
1.07148
1.0708
1.05934
1.03286
1.00629
1.00037
1.00001
1
1
1
1
1
1
1
1.06898
1.07234
1.07101
1.05203
1.01998
1.00258
1.00011
1
1
1
1
1
1
1
1
1.07196
1.071
1.06772
1.03945
1.01024
1.00087
1.00003
1
1
1
1
1
1
1
1
1.07763
1.06551
1.0583
1.02642
1.00478
1.00026
1.00001
1
1
1
1
1
1
1
1
1.08357
1.06148
1.04593
1.01465
1.0016
1.00006
1
1
1
1
1
1
1
1
1
1.08627
1.05563
1.03033
1.00651
1.0005
1.00001
1
1
1
1
1
1
1
1
1
1.08492
1.04495
1.01836
1.00263
1.00013
1
1
1
1
1
1
1
1
1
1
1.07582
1.03338
1.00863
1.00076
1.00003
1
1
1
1
1
1
1
1
1
1
1.063
1.02044
1.00322
1.00017
1
1
1
1
1
1
1
1
1
1
1
1.04297
1.00965
1.00083
1.00003
1
1
1
1
1
1
1
1
1
1
1
1.01962
1.00267
1.00012
1
1
1
1
1
1
1
1
1
1
1
1
1
1
1
1
1
1
1
1
1
1
1
1
1
1
1
1
1
1
1
1
1
1
1
1
1
1
1
1
1
1
1
1
1
1
1
1
1
1
1
1
1
1
1
1
1
1
1
1
1
1
1
1
1
1
1
1
1
1
1
1
1
1
1
1
1
1
1
1
1
1
1
1
1
1
1
1
1
1
1
1
1
1
1
1
1
1
1
1
1
1
1
1
1
1
1
1
1
1
1
1
1
1
1
1
1
1
1
1
1
1
1
1
1
1
1
1
1
1
1
1
1
1
1
1
1
1
1
1
1
1
1
1
1
1
1
1
1
1
1
1
1
1
1
1
1
1
1
1
1
1
1
1
1
1
1
1
1
1
1
1
1
1
1
1
1
1
1
1
1
1
1
1
1
1
1
1
1
1
1
1
1
1
1
1
1
1
1
1
1
1
1
1
1
1
1
1
1
1
1
1
1
1
1
1
1
1
1
1
1
1
1
1
1
1
1
1
1
1
1
1
1
1
1
1
1
1
1
1
1
1
1
1
1
1
1
1
1
1
1
1
1
1
1
1
1
1
1
1
1
1
1
1
1
1
1
1
1
1
1
1
1
1
1
1
1
1
1
1
1
1
1
1
1
1
1
1
1
1
1
1
1
1
1
1
1
1
1
1
1
1
1
1
1
1
1
1
1
1
1
1
1
1
1
1
1
1
1
1
1
1
1
1
1
1
1
1
1
1
1
1
1
1
1
1
1
1
1
1
1
1
1
1
1
1
1
1
1
1
1
1
1
1
1
1
1
1
1
1
1
1
1.79775
1.22705
0.999998
1
1
1
1
1
1
1
1
1
1
1
1
1
1
1
1
1
2.51749
2.22733
1.70061
1.03901
1
1
1
1
1
1
1
1
1
1
1
1
1
1
1
1
2.40736
2.30424
2.2345
2.03153
1.2424
0.999929
1
1
1
1
1
1
1
1
1
1
1
1
1
1
2.33727
2.29883
2.30928
2.30356
2.10015
1.34854
0.999606
1
1
1
1
1
1
1
1
1
1
1
1
1
2.30929
2.301
2.30471
2.3027
2.28044
2.10378
1.39505
0.999317
1
1
1
1
1
1
1
1
1
1
1
1
2.30951
2.30634
2.30612
2.29683
2.27995
2.25097
2.07853
1.36982
0.999343
1
1
1
1
1
1
1
1
1
1
1
2.31001
2.30997
2.30531
2.29552
2.28219
2.26889
2.24648
2.08675
1.33717
0.999198
1
1
1
1
1
1
1
1
1
1
2.31008
2.30889
2.30382
2.29506
2.28528
2.26805
2.25269
2.2222
2.01023
1.26006
0.999171
1
1
1
1
1
1
1
1
1
2.30768
2.30525
2.30121
2.29471
2.285
2.26824
2.24915
2.23055
2.19744
1.86589
1.12059
0.999525
1
1
1
1
1
1
1
1
2.30249
2.29994
2.29762
2.29309
2.28263
2.26495
2.24387
2.22748
2.22592
2.18498
1.70249
1.03472
0.999847
1
1
1
1
1
1
1
2.29514
2.29299
2.29201
2.28831
2.27872
2.26147
2.24272
2.22757
2.22017
2.20246
2.10012
1.46671
1.00238
1
1
1
1
1
1
1
2.28625
2.28459
2.28455
2.28194
2.27382
2.25983
2.24391
2.22772
2.21383
2.19928
2.19992
2.02726
1.27321
0.999226
0.999999
1
1
1
1
1
2.27723
2.27593
2.27641
2.27547
2.27026
2.25984
2.24608
2.22801
2.21099
2.19747
2.19777
2.17359
1.78267
1.07577
0.999684
0.999992
1
1
1
1
2.27008
2.26888
2.26936
2.26909
2.26557
2.25762
2.24486
2.2265
2.2079
2.19371
2.1873
2.16911
2.11181
1.51891
1.00969
1.00001
1
1
1
1
2.25416
2.24704
2.24643
2.24469
2.24096
2.23334
2.22169
2.20458
2.1882
2.17493
2.16653
2.15427
2.15873
1.95178
1.19169
0.993443
0.999777
0.999999
1
1
1.66386
1.88137
1.95497
2.01226
2.05945
2.09381
2.11456
2.11985
2.1189
2.11501
2.11523
2.1145
2.12611
2.11977
1.8302
1.16865
1.00273
1.00001
1
1
1.25306
1.60334
1.71646
1.80842
1.87363
1.93575
1.98032
2.01462
2.03057
2.03972
2.04774
2.05533
2.07796
2.10544
2.07268
1.66876
1.09257
1.00119
1.00001
1
1.25963
1.42388
1.50363
1.6147
1.71722
1.79415
1.85715
1.90585
1.93655
1.96188
1.97946
1.9963
2.02359
2.06345
2.05158
1.96092
1.44472
1.02878
1.00023
1
1.32687
1.36033
1.37303
1.45578
1.56593
1.66346
1.74735
1.80604
1.85495
1.88454
1.91724
1.94249
1.97228
2.00344
2.01651
2.00707
1.79382
1.21811
1.00527
1.00003
1.38018
1.32045
1.29821
1.37433
1.45947
1.54889
1.64157
1.7135
1.77464
1.81246
1.85226
1.88742
1.91778
1.9482
1.96537
1.9878
1.92203
1.54383
1.06208
1.00063
1.39885
1.32236
1.2771
1.30378
1.36699
1.45688
1.54339
1.62413
1.68474
1.74238
1.78208
1.82842
1.86147
1.89244
1.91563
1.95256
1.93819
1.7504
1.24386
1.00813
1.39603
1.33602
1.29189
1.28257
1.29487
1.36748
1.45437
1.5431
1.61129
1.67662
1.72802
1.77428
1.81467
1.84068
1.87261
1.90934
1.92946
1.85747
1.49439
1.05741
1.39698
1.35877
1.30761
1.27135
1.26658
1.32459
1.39411
1.4771
1.55401
1.6167
1.67886
1.72513
1.76745
1.79729
1.82626
1.86078
1.90075
1.87792
1.68966
1.22124
1.39004
1.35766
1.30592
1.25854
1.24532
1.28423
1.34535
1.4181
1.49782
1.55926
1.62299
1.67332
1.70886
1.74989
1.78025
1.81807
1.8619
1.86713
1.76928
1.43775
1.37737
1.35075
1.30086
1.25802
1.24415
1.2557
1.29248
1.35583
1.43408
1.50138
1.56031
1.62245
1.66094
1.70201
1.74181
1.78342
1.82359
1.84712
1.77993
1.63932
1.36917
1.34461
1.30062
1.26351
1.25182
1.25617
1.27057
1.32176
1.38798
1.46166
1.51717
1.58088
1.62707
1.66187
1.70547
1.74862
1.78129
1.81308
1.79765
1.81042
1.3616
1.34026
1.30336
1.272
1.25676
1.25069
1.2561
1.30356
1.35736
1.4279
1.4829
1.53756
1.5906
1.623
1.66851
1.71011
1.74552
1.78326
1.83346
1.94753
1.35328
1.33565
1.30624
1.27577
1.25282
1.23887
1.24149
1.27677
1.32178
1.38816
1.44852
1.48781
1.54254
1.57901
1.63024
1.67623
1.71832
1.75166
1.86154
2.07413
1.34594
1.33222
1.30548
1.27534
1.25155
1.23861
1.24087
1.25957
1.28915
1.33988
1.40854
1.45252
1.50498
1.54947
1.59535
1.64746
1.68996
1.72899
1.88908
2.17978
1.34588
1.33311
1.30562
1.27653
1.25357
1.2422
1.24486
1.26095
1.2822
1.3205
1.3765
1.42555
1.4753
1.5278
1.56723
1.61718
1.65228
1.71514
1.92251
2.25046
1.34232
1.32497
1.3012
1.27695
1.25724
1.24893
1.24756
1.25804
1.27396
1.30739
1.35034
1.39955
1.4419
1.5001
1.54216
1.58467
1.62048
1.70728
1.96158
2.29873
1.31438
1.29567
1.29083
1.27688
1.26046
1.2524
1.24684
1.24852
1.25825
1.28857
1.31753
1.37082
1.41313
1.45476
1.51141
1.55419
1.60282
1.72124
1.99093
2.30683
1.26342
1.25271
1.26682
1.27136
1.26262
1.25408
1.24796
1.2457
1.25294
1.27669
1.29493
1.33159
1.38903
1.42902
1.47472
1.52224
1.57856
1.76603
2.00072
2.28601
1.20474
1.20262
1.22916
1.2533
1.26031
1.25433
1.24943
1.24545
1.25
1.2655
1.28246
1.30975
1.35354
1.4056
1.44479
1.49213
1.57352
1.82347
2.00242
2.25666
1.16948
1.15784
1.18309
1.22259
1.2497
1.25313
1.2504
1.24611
1.2467
1.25151
1.26421
1.29444
1.32544
1.36985
1.41006
1.46027
1.60133
1.89168
1.99751
2.20525
1.15347
1.11376
1.14009
1.18785
1.22822
1.24746
1.2498
1.24807
1.24534
1.24378
1.24533
1.26894
1.29591
1.335
1.38084
1.45172
1.67706
1.94344
1.97884
2.13477
1.17166
1.11349
1.10686
1.14771
1.19696
1.23224
1.2467
1.2469
1.24301
1.23762
1.23525
1.25004
1.27171
1.30204
1.34647
1.48462
1.76887
1.96033
1.9529
2.04492
1.20421
1.13215
1.11015
1.12072
1.15683
1.20556
1.23494
1.24318
1.23823
1.23214
1.22902
1.23705
1.24731
1.27546
1.3521
1.56278
1.82544
1.94028
1.91911
1.95392
1.24343
1.16508
1.11743
1.10908
1.12219
1.16706
1.20852
1.23207
1.23454
1.22905
1.22497
1.22559
1.22757
1.26792
1.39772
1.66723
1.82157
1.9063
1.87397
1.87345
1.2954
1.22208
1.1742
1.12963
1.11749
1.13014
1.16109
1.198
1.21837
1.22265
1.22206
1.22203
1.24475
1.37081
1.56999
1.72373
1.77722
1.82911
1.78269
1.76071
)
;

boundaryField
{
    inlet
    {
        type            fixedValue;
        value           uniform 1;
    }
    outlet
    {
        type            inletOutlet;
        inletValue      uniform 1;
        value           nonuniform List<scalar> 
35
(
1.29533
1.22193
1.174
1.12944
1.11738
1.13002
1.16099
1.1979
1.2183
1.22263
1.22204
1.22189
1.24422
1.36969
1.56875
1.72318
1.77714
1.8291
1.78278
1.76085
1.43285
1.58487
1.63755
1.4811
1.07911
0.690016
0.684167
0.752165
0.819934
0.896958
0.978469
1.02287
1.02651
1.017
1.0042
)
;
    }
    airfoil
    {
        type            zeroGradient;
    }
    top
    {
        type            symmetryPlane;
    }
    bottom
    {
        type            symmetryPlane;
    }
    defaultFaces
    {
        type            empty;
    }
}


// ************************************************************************* //
