/*--------------------------------*- C++ -*----------------------------------*\
  =========                 |
  \\      /  F ield         | OpenFOAM: The Open Source CFD Toolbox
   \\    /   O peration     | Website:  https://openfoam.org
    \\  /    A nd           | Version:  7
     \\/     M anipulation  |
\*---------------------------------------------------------------------------*/
FoamFile
{
    version     2.0;
    format      ascii;
    class       volVectorField;
    location    "9.5";
    object      U;
}
// * * * * * * * * * * * * * * * * * * * * * * * * * * * * * * * * * * * * * //

dimensions      [0 1 -1 0 0 0 0];

internalField   nonuniform List<vector> 
90000
(
(2.16577 -0.571647 0)
(2.1319 -0.518899 0)
(2.10066 -0.439477 0)
(2.09045 -0.412646 0)
(2.07115 -0.359018 0)
(2.06009 -0.303691 0)
(2.053 -0.258278 0)
(2.05202 -0.23443 0)
(2.03884 -0.181092 0)
(2.03851 -0.157494 0)
(2.02932 -0.117505 0)
(2.02864 -0.0992983 0)
(2.01963 -0.0631836 0)
(2.01764 -0.0538787 0)
(2.00936 -0.02874 0)
(2.00535 -0.0266127 0)
(2.00091 -0.0135964 0)
(1.99836 -0.0164296 0)
(1.99519 -0.0128757 0)
(1.99408 -0.00997641 0)
(1.99239 -0.00878514 0)
(1.99159 -0.0083381 0)
(1.99112 -0.00770568 0)
(1.99069 -0.00780696 0)
(1.98986 -0.00712399 0)
(1.98923 -0.00615584 0)
(1.98901 -0.00468843 0)
(1.98805 -0.00224885 0)
(1.9864 0.00125789 0)
(1.98499 0.00459223 0)
(1.98454 0.00750748 0)
(1.98378 0.00587523 0)
(1.98282 0.00461756 0)
(1.98042 0.00210695 0)
(1.97802 -0.00121846 0)
(1.97681 -0.00393569 0)
(1.97629 -0.00648413 0)
(1.97537 -0.00833116 0)
(1.97613 -0.00862074 0)
(1.97709 -0.00740071 0)
(1.979 -0.00553671 0)
(1.98089 -0.00258439 0)
(1.98043 -0.00198292 0)
(1.97994 -0.00260943 0)
(1.97914 -0.00337625 0)
(1.97807 -0.00461007 0)
(1.97704 -0.00572595 0)
(1.97649 -0.00706411 0)
(1.97681 -0.0066541 0)
(1.97757 -0.0056453 0)
(1.9789 -0.00357289 0)
(1.97902 -0.00249403 0)
(1.97849 -0.00282 0)
(1.97732 -0.0040189 0)
(1.97652 -0.00520244 0)
(1.97613 -0.00720482 0)
(1.97647 -0.00719441 0)
(1.97713 -0.00628513 0)
(1.97855 -0.00446711 0)
(1.97777 -0.00424079 0)
(1.97713 -0.00504651 0)
(1.97691 -0.00645744 0)
(1.97716 -0.00790192 0)
(1.97773 -0.00768725 0)
(1.97834 -0.0063065 0)
(1.97854 -0.00660094 0)
(1.97836 -0.00735909 0)
(1.97835 -0.00850374 0)
(1.97861 -0.00837552 0)
(1.97907 -0.00779523 0)
(1.97932 -0.00811379 0)
(1.97958 -0.0089863 0)
(1.97967 -0.00989776 0)
(1.97996 -0.00976149 0)
(1.98026 -0.00963179 0)
(1.9805 -0.0101051 0)
(1.98083 -0.0109652 0)
(1.98116 -0.0112197 0)
(1.98165 -0.0111523 0)
(1.9821 -0.0114493 0)
(1.98241 -0.0120081 0)
(1.98277 -0.0125906 0)
(1.98313 -0.0132045 0)
(1.9837 -0.0138463 0)
(1.98402 -0.0143596 0)
(1.98445 -0.0147838 0)
(1.98499 -0.0152411 0)
(1.98563 -0.0153035 0)
(1.98621 -0.0152409 0)
(1.98672 -0.0157069 0)
(1.98725 -0.0161679 0)
(1.98774 -0.0167025 0)
(1.98837 -0.0174058 0)
(1.98893 -0.0180139 0)
(1.98949 -0.018414 0)
(1.99021 -0.0189896 0)
(1.99093 -0.0193884 0)
(1.99159 -0.019928 0)
(1.9923 -0.0206069 0)
(1.99345 -0.0214641 0)
(2.20273 -0.61961 0)
(2.20249 -0.619348 0)
(2.20185 -0.61858 0)
(2.20078 -0.617114 0)
(2.19876 -0.614384 0)
(2.1958 -0.609513 0)
(2.1918 -0.602042 0)
(2.18631 -0.592205 0)
(2.17824 -0.575755 0)
(2.16946 -0.557248 0)
(2.15691 -0.527924 0)
(2.14459 -0.499481 0)
(2.12657 -0.452866 0)
(2.11267 -0.416732 0)
(2.0892 -0.35461 0)
(2.07559 -0.315102 0)
(2.04935 -0.246584 0)
(2.03894 -0.210369 0)
(2.01581 -0.147223 0)
(2.01252 -0.121174 0)
(1.99509 -0.0731674 0)
(1.99437 -0.0580817 0)
(1.98203 -0.0269814 0)
(1.98181 -0.0174462 0)
(1.97579 -0.000902531 0)
(1.97547 0.00601927 0)
(1.97454 0.014098 0)
(1.97349 0.0180348 0)
(1.97436 0.0201176 0)
(1.97414 0.0187634 0)
(1.97359 0.015583 0)
(1.97266 0.00855075 0)
(1.97251 0.00226459 0)
(1.97302 -0.00244842 0)
(1.97308 -0.00491665 0)
(1.97423 -0.00662991 0)
(1.97467 -0.00732448 0)
(1.97486 -0.00755645 0)
(1.9777 -0.00487608 0)
(1.97874 -0.00126597 0)
(1.97874 0.000994768 0)
(1.97726 0.000926879 0)
(1.97609 7.94512e-05 0)
(1.9746 -0.00132474 0)
(1.97308 -0.00409027 0)
(1.97124 -0.00618584 0)
(1.97118 -0.00707099 0)
(1.97167 -0.0066243 0)
(1.97268 -0.00516165 0)
(1.97377 -0.00321402 0)
(1.97446 -0.00259609 0)
(1.97422 -0.00247011 0)
(1.97364 -0.00336977 0)
(1.97242 -0.00547931 0)
(1.97137 -0.00715126 0)
(1.97166 -0.00721363 0)
(1.97269 -0.00596538 0)
(1.9734 -0.00508335 0)
(1.97432 -0.00470303 0)
(1.97418 -0.00504287 0)
(1.97341 -0.0064267 0)
(1.97292 -0.0073912 0)
(1.97337 -0.00711575 0)
(1.97397 -0.00672103 0)
(1.97478 -0.00649984 0)
(1.97474 -0.00659638 0)
(1.97432 -0.00730212 0)
(1.97446 -0.00762741 0)
(1.97495 -0.00777328 0)
(1.97581 -0.0079414 0)
(1.976 -0.00804188 0)
(1.97609 -0.00862123 0)
(1.97639 -0.00893661 0)
(1.97682 -0.00902851 0)
(1.9774 -0.00941088 0)
(1.97765 -0.00966579 0)
(1.97791 -0.0102226 0)
(1.97845 -0.0105253 0)
(1.97915 -0.010831 0)
(1.97963 -0.0111364 0)
(1.97999 -0.0114981 0)
(1.98042 -0.0120713 0)
(1.98094 -0.0127497 0)
(1.98151 -0.0134843 0)
(1.98185 -0.0139307 0)
(1.98238 -0.0143607 0)
(1.98305 -0.0148849 0)
(1.98381 -0.0152365 0)
(1.98447 -0.0153158 0)
(1.98507 -0.0156087 0)
(1.98568 -0.0160914 0)
(1.98622 -0.0167154 0)
(1.98691 -0.017509 0)
(1.98755 -0.0181492 0)
(1.98821 -0.0185587 0)
(1.98901 -0.0191076 0)
(1.98979 -0.0194327 0)
(1.99059 -0.0200303 0)
(1.99137 -0.020708 0)
(1.99264 -0.0214909 0)
(2.20148 -0.619385 0)
(2.20141 -0.619358 0)
(2.20135 -0.61932 0)
(2.20129 -0.619269 0)
(2.20122 -0.619211 0)
(2.20115 -0.619132 0)
(2.20107 -0.619049 0)
(2.20096 -0.618923 0)
(2.20081 -0.618754 0)
(2.20053 -0.618447 0)
(2.19996 -0.617976 0)
(2.19915 -0.617002 0)
(2.19789 -0.615288 0)
(2.196 -0.612107 0)
(2.19274 -0.6066 0)
(2.18786 -0.597367 0)
(2.17961 -0.581731 0)
(2.16882 -0.560194 0)
(2.15242 -0.524595 0)
(2.13613 -0.488089 0)
(2.1124 -0.429603 0)
(2.0951 -0.382828 0)
(2.06864 -0.311391 0)
(2.05572 -0.267235 0)
(2.03063 -0.19558 0)
(2.02394 -0.165636 0)
(2.00455 -0.109988 0)
(1.99945 -0.0913612 0)
(1.98959 -0.0604673 0)
(1.98692 -0.0519297 0)
(1.98097 -0.040899 0)
(1.98086 -0.0340383 0)
(1.97479 -0.025513 0)
(1.97529 -0.0206482 0)
(1.97262 -0.0161886 0)
(1.97274 -0.0114964 0)
(1.97067 -0.00749015 0)
(1.96931 -0.000502422 0)
(1.97026 0.00505456 0)
(1.9698 0.00551911 0)
(1.96704 0.00445757 0)
(1.96446 0.000899507 0)
(1.96404 -0.00316984 0)
(1.96333 -0.00689796 0)
(1.96408 -0.00875024 0)
(1.96483 -0.00837612 0)
(1.96635 -0.00755861 0)
(1.96865 -0.00462005 0)
(1.96945 -0.00267204 0)
(1.97084 -0.00100526 0)
(1.97056 -0.00153944 0)
(1.96943 -0.00399321 0)
(1.96821 -0.00656898 0)
(1.96778 -0.00899589 0)
(1.96817 -0.00849038 0)
(1.96931 -0.0065432 0)
(1.96997 -0.00486872 0)
(1.97131 -0.00331806 0)
(1.97113 -0.00430694 0)
(1.9704 -0.00672312 0)
(1.9701 -0.00861283 0)
(1.9705 -0.00810532 0)
(1.97108 -0.006916 0)
(1.97183 -0.00560388 0)
(1.97255 -0.00608583 0)
(1.97244 -0.00729608 0)
(1.97234 -0.00802876 0)
(1.97272 -0.00785691 0)
(1.9733 -0.00735243 0)
(1.97419 -0.00777643 0)
(1.97429 -0.00830354 0)
(1.97449 -0.00899366 0)
(1.97492 -0.00900054 0)
(1.97548 -0.00896018 0)
(1.97601 -0.00944253 0)
(1.97629 -0.00991537 0)
(1.97655 -0.0104217 0)
(1.97719 -0.0104774 0)
(1.97797 -0.0108044 0)
(1.97844 -0.0112043 0)
(1.97884 -0.0116712 0)
(1.97923 -0.0123226 0)
(1.97966 -0.0130452 0)
(1.98019 -0.0137024 0)
(1.98063 -0.0140449 0)
(1.98128 -0.0144624 0)
(1.98205 -0.0149276 0)
(1.98286 -0.0150992 0)
(1.98352 -0.0151983 0)
(1.9842 -0.0156358 0)
(1.98471 -0.0161391 0)
(1.9852 -0.0167799 0)
(1.98588 -0.0175283 0)
(1.98659 -0.018083 0)
(1.98727 -0.0184994 0)
(1.98809 -0.0190486 0)
(1.98885 -0.0193865 0)
(1.9896 -0.020029 0)
(1.99033 -0.0206913 0)
(1.99162 -0.021463 0)
(2.1994 -0.618823 0)
(2.19931 -0.618793 0)
(2.19921 -0.618773 0)
(2.19911 -0.618746 0)
(2.19901 -0.61873 0)
(2.1989 -0.618705 0)
(2.19878 -0.618694 0)
(2.19867 -0.618663 0)
(2.19854 -0.618653 0)
(2.19841 -0.618609 0)
(2.19832 -0.618545 0)
(2.19824 -0.618471 0)
(2.19815 -0.61839 0)
(2.19807 -0.618301 0)
(2.19797 -0.6182 0)
(2.19786 -0.618059 0)
(2.1977 -0.617882 0)
(2.19747 -0.617495 0)
(2.19688 -0.616888 0)
(2.19591 -0.615476 0)
(2.19409 -0.612488 0)
(2.19103 -0.606767 0)
(2.18514 -0.595293 0)
(2.17651 -0.577765 0)
(2.1617 -0.545045 0)
(2.14555 -0.508334 0)
(2.11941 -0.443866 0)
(2.10056 -0.392756 0)
(2.06665 -0.30396 0)
(2.05295 -0.253405 0)
(2.01735 -0.163593 0)
(2.01327 -0.126954 0)
(1.98694 -0.0625694 0)
(1.98593 -0.0415294 0)
(1.97015 -0.0078735 0)
(1.96872 0.00526064 0)
(1.96154 0.0201545 0)
(1.96073 0.0228374 0)
(1.9584 0.0189979 0)
(1.95948 0.00832715 0)
(1.9598 -0.000639328 0)
(1.96107 -0.00260805 0)
(1.9597 -0.00621601 0)
(1.96064 -0.00685394 0)
(1.9628 -0.00654752 0)
(1.96522 -0.00519179 0)
(1.96681 -0.00261507 0)
(1.96832 0.000708838 0)
(1.96803 0.00039858 0)
(1.96709 -0.00146244 0)
(1.96514 -0.00492606 0)
(1.96397 -0.00759292 0)
(1.96389 -0.00956678 0)
(1.96483 -0.0084015 0)
(1.96703 -0.00615757 0)
(1.96823 -0.00383892 0)
(1.96924 -0.00216082 0)
(1.96874 -0.00361348 0)
(1.96784 -0.00600362 0)
(1.96677 -0.0087558 0)
(1.96763 -0.00818442 0)
(1.96905 -0.00669438 0)
(1.97018 -0.0047939 0)
(1.9706 -0.00510426 0)
(1.97043 -0.0063626 0)
(1.96999 -0.00848521 0)
(1.97052 -0.00846175 0)
(1.9716 -0.00747578 0)
(1.97224 -0.00694143 0)
(1.9723 -0.00771318 0)
(1.97243 -0.00894003 0)
(1.97289 -0.00910649 0)
(1.97364 -0.00860393 0)
(1.97412 -0.00871341 0)
(1.97429 -0.00934589 0)
(1.97464 -0.0102255 0)
(1.97511 -0.0102433 0)
(1.97572 -0.0101858 0)
(1.97639 -0.0106153 0)
(1.97682 -0.011165 0)
(1.9773 -0.011752 0)
(1.9777 -0.0124922 0)
(1.97818 -0.0132315 0)
(1.97858 -0.0137319 0)
(1.97914 -0.0140142 0)
(1.97988 -0.014452 0)
(1.98065 -0.0148128 0)
(1.98152 -0.0148744 0)
(1.98207 -0.0151185 0)
(1.98283 -0.0156737 0)
(1.98331 -0.0161813 0)
(1.98387 -0.0168604 0)
(1.98456 -0.0175845 0)
(1.98529 -0.0180227 0)
(1.98598 -0.0184491 0)
(1.98681 -0.0189836 0)
(1.9875 -0.0193349 0)
(1.98831 -0.0200571 0)
(1.98901 -0.0206874 0)
(1.99027 -0.0214386 0)
(2.19734 -0.618193 0)
(2.19727 -0.618173 0)
(2.19719 -0.618147 0)
(2.19712 -0.618128 0)
(2.19705 -0.618099 0)
(2.19697 -0.61808 0)
(2.19689 -0.618052 0)
(2.19682 -0.618031 0)
(2.19674 -0.618 0)
(2.19667 -0.617981 0)
(2.19661 -0.617958 0)
(2.19656 -0.617956 0)
(2.19651 -0.617942 0)
(2.19645 -0.617957 0)
(2.1964 -0.617946 0)
(2.19633 -0.617975 0)
(2.19629 -0.617958 0)
(2.1962 -0.618017 0)
(2.19618 -0.617952 0)
(2.19616 -0.617882 0)
(2.19616 -0.617822 0)
(2.19615 -0.617743 0)
(2.19611 -0.617652 0)
(2.19602 -0.617441 0)
(2.19575 -0.616943 0)
(2.19519 -0.615762 0)
(2.19375 -0.613 0)
(2.1908 -0.6066 0)
(2.1842 -0.593568 0)
(2.17361 -0.570076 0)
(2.15474 -0.528411 0)
(2.13414 -0.477148 0)
(2.10372 -0.397372 0)
(2.08325 -0.333599 0)
(2.05114 -0.241251 0)
(2.03737 -0.190543 0)
(2.01479 -0.122717 0)
(2.00708 -0.0943172 0)
(1.99177 -0.0658352 0)
(1.98939 -0.0469291 0)
(1.97826 -0.0305735 0)
(1.97768 -0.0212268 0)
(1.97192 -0.012799 0)
(1.97094 -0.00599797 0)
(1.96891 -0.00168047 0)
(1.96823 0.00483347 0)
(1.96723 0.00605537 0)
(1.96483 0.00370659 0)
(1.96212 -0.00166677 0)
(1.96043 -0.00685081 0)
(1.95994 -0.0122467 0)
(1.96096 -0.0120747 0)
(1.96306 -0.00952921 0)
(1.96625 -0.00579338 0)
(1.96752 -0.0022825 0)
(1.968 -0.00172771 0)
(1.96698 -0.00358773 0)
(1.96475 -0.00711668 0)
(1.96453 -0.0103408 0)
(1.96587 -0.00916401 0)
(1.96786 -0.00682347 0)
(1.96926 -0.00432184 0)
(1.96932 -0.00469767 0)
(1.96872 -0.00623206 0)
(1.96825 -0.00838461 0)
(1.96869 -0.0083661 0)
(1.96975 -0.00748067 0)
(1.9707 -0.00669246 0)
(1.97064 -0.00735766 0)
(1.97055 -0.0087788 0)
(1.97086 -0.00903906 0)
(1.97172 -0.00862826 0)
(1.97245 -0.0083612 0)
(1.97254 -0.0088621 0)
(1.97269 -0.00981283 0)
(1.97305 -0.0100483 0)
(1.97372 -0.0099281 0)
(1.97415 -0.0101355 0)
(1.97473 -0.010774 0)
(1.97512 -0.011296 0)
(1.97561 -0.0118444 0)
(1.97602 -0.0125756 0)
(1.97659 -0.013284 0)
(1.97699 -0.0135696 0)
(1.97759 -0.0139539 0)
(1.97834 -0.0144018 0)
(1.9791 -0.0147499 0)
(1.97994 -0.0147693 0)
(1.98041 -0.0151637 0)
(1.98127 -0.0157266 0)
(1.9818 -0.0162248 0)
(1.98252 -0.0169078 0)
(1.98324 -0.0175665 0)
(1.984 -0.0180417 0)
(1.98475 -0.0184582 0)
(1.98564 -0.0189632 0)
(1.98628 -0.0193428 0)
(1.98722 -0.0200748 0)
(1.98797 -0.0206728 0)
(1.98929 -0.0214108 0)
(2.1961 -0.617836 0)
(2.19608 -0.617825 0)
(2.19606 -0.617826 0)
(2.19605 -0.617813 0)
(2.19603 -0.617814 0)
(2.19601 -0.617801 0)
(2.196 -0.617803 0)
(2.19599 -0.617788 0)
(2.19598 -0.617794 0)
(2.19598 -0.61778 0)
(2.19598 -0.617792 0)
(2.19599 -0.61778 0)
(2.196 -0.617792 0)
(2.19601 -0.617776 0)
(2.19603 -0.617789 0)
(2.19606 -0.617772 0)
(2.19609 -0.617791 0)
(2.19612 -0.617778 0)
(2.19617 -0.617796 0)
(2.19622 -0.617805 0)
(2.19627 -0.617841 0)
(2.19633 -0.617861 0)
(2.19638 -0.617915 0)
(2.19644 -0.617932 0)
(2.19645 -0.617996 0)
(2.19654 -0.617966 0)
(2.19662 -0.617933 0)
(2.19667 -0.617915 0)
(2.1967 -0.617834 0)
(2.19662 -0.617591 0)
(2.19636 -0.61676 0)
(2.19544 -0.614529 0)
(2.19253 -0.608199 0)
(2.18655 -0.595176 0)
(2.17271 -0.563559 0)
(2.15528 -0.521983 0)
(2.12235 -0.436204 0)
(2.10161 -0.370309 0)
(2.05506 -0.245309 0)
(2.04594 -0.188997 0)
(2.00674 -0.0893123 0)
(2.00505 -0.0634695 0)
(1.98323 -0.0141199 0)
(1.97845 -0.00243622 0)
(1.97077 0.0164064 0)
(1.96679 0.0166253 0)
(1.9632 0.00896279 0)
(1.96267 9.46989e-05 0)
(1.9615 -0.00447005 0)
(1.96183 -0.00828506 0)
(1.9636 -0.00851116 0)
(1.96467 -0.00768941 0)
(1.9691 -0.00223221 0)
(1.96961 -0.00017276 0)
(1.96878 -0.000507226 0)
(1.9664 -0.00318644 0)
(1.96405 -0.00767296 0)
(1.96358 -0.00952011 0)
(1.96458 -0.00878367 0)
(1.96766 -0.00606407 0)
(1.96872 -0.00356269 0)
(1.96939 -0.00423089 0)
(1.96847 -0.0060908 0)
(1.96781 -0.00786665 0)
(1.9682 -0.00788831 0)
(1.9694 -0.0071635 0)
(1.97045 -0.00626825 0)
(1.97054 -0.00703068 0)
(1.97013 -0.00804911 0)
(1.97035 -0.00871497 0)
(1.97096 -0.00851216 0)
(1.97173 -0.00787015 0)
(1.97225 -0.00852302 0)
(1.97222 -0.00916382 0)
(1.9723 -0.0099152 0)
(1.97273 -0.00996221 0)
(1.97333 -0.00967173 0)
(1.97376 -0.0100546 0)
(1.97423 -0.0106313 0)
(1.97456 -0.0110794 0)
(1.97491 -0.0117141 0)
(1.97534 -0.0125266 0)
(1.97582 -0.013298 0)
(1.97631 -0.0135109 0)
(1.97697 -0.0138686 0)
(1.97771 -0.0143348 0)
(1.9785 -0.0146006 0)
(1.97923 -0.0147103 0)
(1.97972 -0.0151765 0)
(1.98057 -0.0157382 0)
(1.98111 -0.0162145 0)
(1.98193 -0.0168814 0)
(1.9827 -0.0175164 0)
(1.98351 -0.0179715 0)
(1.98432 -0.01844 0)
(1.98526 -0.0189377 0)
(1.98587 -0.019328 0)
(1.98687 -0.0200946 0)
(1.98768 -0.0206474 0)
(1.98908 -0.0214167 0)
(2.19604 -0.617775 0)
(2.19606 -0.617781 0)
(2.19608 -0.617776 0)
(2.19611 -0.617786 0)
(2.19614 -0.617784 0)
(2.19617 -0.617798 0)
(2.19621 -0.617799 0)
(2.19624 -0.617814 0)
(2.19628 -0.617816 0)
(2.19632 -0.617832 0)
(2.19637 -0.617833 0)
(2.19642 -0.617851 0)
(2.19647 -0.617859 0)
(2.19653 -0.617883 0)
(2.19659 -0.617893 0)
(2.19665 -0.617914 0)
(2.19672 -0.617923 0)
(2.19678 -0.617948 0)
(2.19686 -0.61796 0)
(2.19693 -0.617991 0)
(2.19701 -0.617999 0)
(2.19709 -0.61803 0)
(2.19718 -0.618047 0)
(2.19726 -0.618093 0)
(2.19737 -0.618112 0)
(2.19745 -0.618148 0)
(2.19754 -0.618175 0)
(2.19762 -0.618222 0)
(2.19771 -0.618254 0)
(2.19777 -0.618304 0)
(2.19787 -0.618302 0)
(2.19795 -0.618306 0)
(2.19801 -0.618304 0)
(2.19804 -0.618246 0)
(2.19801 -0.617888 0)
(2.19761 -0.616676 0)
(2.19581 -0.612956 0)
(2.19129 -0.602471 0)
(2.17919 -0.576614 0)
(2.16102 -0.531654 0)
(2.12772 -0.446176 0)
(2.10413 -0.370592 0)
(2.06151 -0.248005 0)
(2.04892 -0.193984 0)
(2.01625 -0.102184 0)
(2.01055 -0.0838237 0)
(1.9905 -0.0518753 0)
(1.98929 -0.0357748 0)
(1.97944 -0.0209519 0)
(1.97624 -0.0121298 0)
(1.97401 -0.00417021 0)
(1.9713 0.00574199 0)
(1.97008 0.00572336 0)
(1.96732 0.00297686 0)
(1.96452 -0.00390568 0)
(1.96214 -0.0102808 0)
(1.9631 -0.0147412 0)
(1.96449 -0.0125977 0)
(1.96849 -0.00703543 0)
(1.9705 -0.00211084 0)
(1.97035 -0.00250175 0)
(1.96915 -0.00491877 0)
(1.96792 -0.00892891 0)
(1.96813 -0.00935698 0)
(1.96932 -0.0081832 0)
(1.97079 -0.00593615 0)
(1.97158 -0.0065632 0)
(1.97106 -0.00755348 0)
(1.97039 -0.00909565 0)
(1.97103 -0.00908985 0)
(1.97226 -0.00808789 0)
(1.97272 -0.00784747 0)
(1.97268 -0.00862072 0)
(1.97269 -0.00964768 0)
(1.97294 -0.00969604 0)
(1.97351 -0.00957863 0)
(1.97395 -0.00979033 0)
(1.97442 -0.0103113 0)
(1.97475 -0.0108351 0)
(1.97505 -0.0113239 0)
(1.97532 -0.0121105 0)
(1.97581 -0.0128511 0)
(1.97618 -0.0133697 0)
(1.97674 -0.0134877 0)
(1.97746 -0.0139008 0)
(1.97819 -0.0142715 0)
(1.97903 -0.0144321 0)
(1.97962 -0.0145617 0)
(1.98021 -0.0151992 0)
(1.98098 -0.0158957 0)
(1.98149 -0.0164232 0)
(1.98231 -0.0171349 0)
(1.98309 -0.0176012 0)
(1.98392 -0.0179298 0)
(1.98474 -0.0183851 0)
(1.98567 -0.018867 0)
(1.98627 -0.0193453 0)
(1.98725 -0.0201877 0)
(1.98806 -0.0206582 0)
(1.98949 -0.0213592 0)
(2.19679 -0.617981 0)
(2.19683 -0.617987 0)
(2.19687 -0.618 0)
(2.19691 -0.618006 0)
(2.19696 -0.618021 0)
(2.19701 -0.618027 0)
(2.19705 -0.618043 0)
(2.19711 -0.618051 0)
(2.19716 -0.618072 0)
(2.19721 -0.618081 0)
(2.19727 -0.618099 0)
(2.19733 -0.618106 0)
(2.19739 -0.618124 0)
(2.19745 -0.618133 0)
(2.19751 -0.618159 0)
(2.19758 -0.618169 0)
(2.19765 -0.618191 0)
(2.19771 -0.618203 0)
(2.19778 -0.618232 0)
(2.19785 -0.61825 0)
(2.19792 -0.618287 0)
(2.198 -0.618296 0)
(2.19807 -0.618328 0)
(2.19814 -0.618344 0)
(2.19821 -0.618384 0)
(2.19829 -0.618398 0)
(2.19836 -0.61844 0)
(2.19844 -0.618444 0)
(2.19851 -0.61848 0)
(2.1986 -0.618492 0)
(2.19867 -0.618527 0)
(2.19874 -0.618531 0)
(2.1988 -0.618568 0)
(2.19887 -0.618568 0)
(2.19894 -0.618588 0)
(2.199 -0.618569 0)
(2.19904 -0.618556 0)
(2.19907 -0.618504 0)
(2.19904 -0.61824 0)
(2.19865 -0.617186 0)
(2.19678 -0.613137 0)
(2.19174 -0.601567 0)
(2.17697 -0.568229 0)
(2.15695 -0.515785 0)
(2.11445 -0.405106 0)
(2.09352 -0.322395 0)
(2.03703 -0.173369 0)
(2.0327 -0.120807 0)
(1.99614 -0.0334278 0)
(1.99107 -0.0128396 0)
(1.97783 0.0192761 0)
(1.97309 0.0208496 0)
(1.96664 0.0092607 0)
(1.96689 3.72007e-05 0)
(1.96478 -0.00906658 0)
(1.96544 -0.00970274 0)
(1.96625 -0.0106264 0)
(1.97287 -0.00339784 0)
(1.9739 -0.00128568 0)
(1.97279 -0.00157427 0)
(1.97023 -0.00451268 0)
(1.96841 -0.00831297 0)
(1.96829 -0.0089317 0)
(1.96949 -0.00816906 0)
(1.97184 -0.00599203 0)
(1.97214 -0.00495073 0)
(1.97164 -0.0063778 0)
(1.97069 -0.00893004 0)
(1.97112 -0.0090683 0)
(1.97209 -0.00796746 0)
(1.97333 -0.00727948 0)
(1.97329 -0.00790754 0)
(1.97317 -0.00898196 0)
(1.97328 -0.00987023 0)
(1.97396 -0.0096758 0)
(1.97444 -0.0089316 0)
(1.97487 -0.00939959 0)
(1.9753 -0.0101316 0)
(1.97561 -0.010636 0)
(1.97589 -0.011001 0)
(1.97624 -0.0119219 0)
(1.97674 -0.0128352 0)
(1.97719 -0.0130916 0)
(1.97778 -0.0132308 0)
(1.97851 -0.0137153 0)
(1.97923 -0.0141237 0)
(1.98013 -0.0143532 0)
(1.98057 -0.0146055 0)
(1.98126 -0.015234 0)
(1.98192 -0.0157947 0)
(1.98244 -0.0163052 0)
(1.98318 -0.0170006 0)
(1.98394 -0.0175059 0)
(1.98475 -0.0179482 0)
(1.98555 -0.0184221 0)
(1.98643 -0.018857 0)
(1.98703 -0.019347 0)
(1.98792 -0.0201886 0)
(1.98869 -0.0206269 0)
(1.99009 -0.0214062 0)
(2.19781 -0.618247 0)
(2.19784 -0.618257 0)
(2.19788 -0.618263 0)
(2.19792 -0.618273 0)
(2.19796 -0.618279 0)
(2.198 -0.618293 0)
(2.19804 -0.6183 0)
(2.19808 -0.618317 0)
(2.19813 -0.618325 0)
(2.19817 -0.618344 0)
(2.19822 -0.618353 0)
(2.19826 -0.618371 0)
(2.19831 -0.618382 0)
(2.19835 -0.618402 0)
(2.1984 -0.618413 0)
(2.19845 -0.618437 0)
(2.1985 -0.618445 0)
(2.19855 -0.618463 0)
(2.1986 -0.618473 0)
(2.19865 -0.618494 0)
(2.1987 -0.618507 0)
(2.19875 -0.618534 0)
(2.1988 -0.618543 0)
(2.19885 -0.618571 0)
(2.1989 -0.61858 0)
(2.19895 -0.6186 0)
(2.199 -0.61861 0)
(2.19905 -0.618638 0)
(2.19911 -0.61864 0)
(2.19916 -0.618665 0)
(2.19921 -0.618666 0)
(2.19926 -0.618685 0)
(2.19932 -0.618688 0)
(2.19937 -0.618703 0)
(2.19942 -0.618694 0)
(2.19947 -0.618693 0)
(2.1995 -0.618681 0)
(2.19956 -0.61867 0)
(2.19959 -0.618664 0)
(2.19963 -0.618653 0)
(2.19966 -0.618632 0)
(2.19968 -0.61855 0)
(2.19955 -0.618179 0)
(2.19886 -0.616485 0)
(2.19565 -0.610012 0)
(2.18744 -0.590184 0)
(2.1651 -0.538718 0)
(2.13797 -0.461373 0)
(2.09136 -0.330117 0)
(2.07129 -0.248282 0)
(2.02905 -0.126718 0)
(2.02101 -0.096493 0)
(1.99647 -0.0563781 0)
(1.9935 -0.0371513 0)
(1.98305 -0.0216329 0)
(1.97881 -0.00981279 0)
(1.97532 0.002476 0)
(1.97513 0.00498433 0)
(1.9719 0.00252483 0)
(1.96773 -0.0048119 0)
(1.96618 -0.0133513 0)
(1.96723 -0.0127641 0)
(1.96971 -0.00963801 0)
(1.9725 -0.0048824 0)
(1.97314 -0.00468343 0)
(1.97247 -0.00557758 0)
(1.97051 -0.00924656 0)
(1.9707 -0.0096157 0)
(1.97202 -0.00868005 0)
(1.97334 -0.00645524 0)
(1.97389 -0.00671894 0)
(1.97341 -0.00797173 0)
(1.97321 -0.0098656 0)
(1.97371 -0.00971025 0)
(1.97467 -0.0089589 0)
(1.97539 -0.00935773 0)
(1.97561 -0.00976442 0)
(1.97596 -0.0103438 0)
(1.97637 -0.0107378 0)
(1.97674 -0.0113978 0)
(1.97726 -0.012218 0)
(1.9776 -0.0130373 0)
(1.97824 -0.0130611 0)
(1.97883 -0.0131867 0)
(1.97953 -0.0137132 0)
(1.98028 -0.0139206 0)
(1.98112 -0.0141083 0)
(1.98145 -0.0145753 0)
(1.9822 -0.0153598 0)
(1.98277 -0.0159637 0)
(1.98331 -0.0164858 0)
(1.98398 -0.0171813 0)
(1.98473 -0.0174802 0)
(1.9855 -0.0178282 0)
(1.98627 -0.0183491 0)
(1.98707 -0.0187891 0)
(1.98769 -0.0193845 0)
(1.98852 -0.0202619 0)
(1.98924 -0.0205873 0)
(1.9906 -0.0213349 0)
(2.19867 -0.618518 0)
(2.19869 -0.618522 0)
(2.19872 -0.618532 0)
(2.19874 -0.618537 0)
(2.19877 -0.618547 0)
(2.19879 -0.618554 0)
(2.19882 -0.618566 0)
(2.19885 -0.618572 0)
(2.19888 -0.618586 0)
(2.19891 -0.618593 0)
(2.19893 -0.618606 0)
(2.19896 -0.618611 0)
(2.19899 -0.618627 0)
(2.19902 -0.618635 0)
(2.19905 -0.618651 0)
(2.19908 -0.618656 0)
(2.19911 -0.618674 0)
(2.19914 -0.618681 0)
(2.19917 -0.618701 0)
(2.1992 -0.618711 0)
(2.19923 -0.618726 0)
(2.19926 -0.618727 0)
(2.19929 -0.618743 0)
(2.19933 -0.61875 0)
(2.19936 -0.618765 0)
(2.19939 -0.618772 0)
(2.19942 -0.618779 0)
(2.19946 -0.61878 0)
(2.19949 -0.618787 0)
(2.19953 -0.618784 0)
(2.19956 -0.61879 0)
(2.1996 -0.618799 0)
(2.19964 -0.618791 0)
(2.19966 -0.618776 0)
(2.1997 -0.618777 0)
(2.19974 -0.618771 0)
(2.19976 -0.618764 0)
(2.1998 -0.618762 0)
(2.19983 -0.618754 0)
(2.19986 -0.618743 0)
(2.19989 -0.61874 0)
(2.19991 -0.618738 0)
(2.19993 -0.61873 0)
(2.19994 -0.618726 0)
(2.19994 -0.618707 0)
(2.19988 -0.618575 0)
(2.19942 -0.617589 0)
(2.19751 -0.613277 0)
(2.18946 -0.595703 0)
(2.17312 -0.554156 0)
(2.13252 -0.451786 0)
(2.10413 -0.350277 0)
(2.042 -0.181756 0)
(2.03051 -0.111863 0)
(1.99749 -0.022964 0)
(1.98177 0.00380417 0)
(1.9819 0.0259023 0)
(1.97285 0.0139883 0)
(1.96954 0.000617197 0)
(1.9676 -0.0089885 0)
(1.96816 -0.0104644 0)
(1.97002 -0.00991066 0)
(1.97604 -0.00212301 0)
(1.97431 -0.00215992 0)
(1.97241 -0.00419405 0)
(1.97105 -0.00839092 0)
(1.96966 -0.0109974 0)
(1.9713 -0.00992277 0)
(1.97397 -0.0060051 0)
(1.97466 -0.00531765 0)
(1.97386 -0.00698302 0)
(1.97312 -0.00956774 0)
(1.97342 -0.00990501 0)
(1.97485 -0.00873933 0)
(1.97522 -0.00847773 0)
(1.97592 -0.00907686 0)
(1.97623 -0.0099568 0)
(1.97665 -0.0101814 0)
(1.97706 -0.0104035 0)
(1.97755 -0.011223 0)
(1.97796 -0.0122818 0)
(1.97831 -0.0127653 0)
(1.97897 -0.0127933 0)
(1.97953 -0.0130335 0)
(1.9802 -0.013599 0)
(1.98101 -0.0138335 0)
(1.98169 -0.0140365 0)
(1.98203 -0.0146139 0)
(1.98275 -0.0153379 0)
(1.98325 -0.01582 0)
(1.98383 -0.016428 0)
(1.98448 -0.0171024 0)
(1.98523 -0.0174641 0)
(1.98595 -0.017837 0)
(1.9867 -0.0183217 0)
(1.98743 -0.0187456 0)
(1.9881 -0.0193729 0)
(1.98889 -0.0202591 0)
(1.98961 -0.0205757 0)
(1.99094 -0.0213808 0)
(2.19926 -0.618653 0)
(2.19927 -0.618658 0)
(2.19928 -0.618664 0)
(2.1993 -0.618669 0)
(2.19931 -0.618675 0)
(2.19932 -0.618684 0)
(2.19934 -0.618689 0)
(2.19935 -0.618702 0)
(2.19937 -0.618708 0)
(2.19938 -0.61872 0)
(2.1994 -0.618727 0)
(2.19941 -0.618738 0)
(2.19943 -0.618745 0)
(2.19944 -0.618754 0)
(2.19946 -0.618764 0)
(2.19948 -0.618772 0)
(2.19949 -0.618779 0)
(2.19951 -0.618786 0)
(2.19953 -0.618788 0)
(2.19955 -0.6188 0)
(2.19957 -0.618807 0)
(2.19959 -0.618812 0)
(2.19961 -0.618815 0)
(2.19963 -0.618824 0)
(2.19965 -0.618821 0)
(2.19968 -0.618825 0)
(2.1997 -0.618828 0)
(2.19972 -0.618832 0)
(2.19975 -0.618836 0)
(2.19977 -0.618832 0)
(2.19979 -0.618828 0)
(2.19982 -0.618826 0)
(2.19984 -0.61882 0)
(2.19987 -0.618815 0)
(2.1999 -0.618812 0)
(2.19993 -0.618803 0)
(2.19995 -0.618792 0)
(2.19999 -0.618788 0)
(2.20001 -0.618779 0)
(2.20004 -0.618778 0)
(2.20006 -0.618775 0)
(2.20007 -0.61878 0)
(2.20008 -0.618784 0)
(2.20008 -0.618812 0)
(2.20008 -0.618818 0)
(2.20007 -0.618844 0)
(2.20006 -0.618854 0)
(2.20004 -0.618872 0)
(2.19998 -0.618776 0)
(2.19962 -0.617998 0)
(2.19752 -0.61372 0)
(2.19049 -0.596687 0)
(2.16754 -0.543485 0)
(2.13588 -0.453104 0)
(2.08427 -0.303177 0)
(2.06093 -0.212502 0)
(2.02029 -0.0971302 0)
(2.01727 -0.0706103 0)
(1.99182 -0.0370499 0)
(1.98467 -0.022966 0)
(1.98178 -0.0102996 0)
(1.97558 0.00550595 0)
(1.97462 0.0029399 0)
(1.97011 -0.00158669 0)
(1.96574 -0.0101016 0)
(1.96758 -0.0148616 0)
(1.97007 -0.0123661 0)
(1.97483 -0.00609332 0)
(1.97558 -0.00446309 0)
(1.97481 -0.00563985 0)
(1.97268 -0.00965236 0)
(1.97308 -0.0108418 0)
(1.97431 -0.00949335 0)
(1.97611 -0.00802388 0)
(1.9762 -0.00842635 0)
(1.97639 -0.00978962 0)
(1.97662 -0.010407 0)
(1.9772 -0.0101486 0)
(1.97768 -0.0106131 0)
(1.97797 -0.0114597 0)
(1.97813 -0.0125287 0)
(1.97866 -0.0125354 0)
(1.97926 -0.012403 0)
(1.97991 -0.0129712 0)
(1.98048 -0.0134678 0)
(1.98127 -0.0135754 0)
(1.98176 -0.0138388 0)
(1.98236 -0.0146718 0)
(1.98297 -0.0154942 0)
(1.9834 -0.0158685 0)
(1.98402 -0.0164484 0)
(1.98467 -0.0170957 0)
(1.9854 -0.0173309 0)
(1.98612 -0.0177434 0)
(1.98688 -0.0182656 0)
(1.98753 -0.0186853 0)
(1.98829 -0.0194103 0)
(1.98909 -0.0202504 0)
(1.98981 -0.0205052 0)
(1.99112 -0.0213501 0)
(2.19958 -0.61875 0)
(2.19959 -0.618754 0)
(2.1996 -0.618758 0)
(2.1996 -0.618761 0)
(2.19961 -0.618765 0)
(2.19962 -0.618769 0)
(2.19962 -0.618775 0)
(2.19963 -0.618778 0)
(2.19964 -0.618786 0)
(2.19965 -0.618788 0)
(2.19965 -0.618794 0)
(2.19966 -0.6188 0)
(2.19967 -0.618805 0)
(2.19968 -0.618811 0)
(2.19969 -0.618815 0)
(2.1997 -0.61882 0)
(2.19971 -0.618823 0)
(2.19973 -0.618827 0)
(2.19974 -0.618831 0)
(2.19976 -0.618829 0)
(2.19977 -0.618831 0)
(2.19979 -0.618835 0)
(2.1998 -0.618836 0)
(2.19982 -0.61884 0)
(2.19984 -0.61884 0)
(2.19985 -0.618834 0)
(2.19988 -0.618831 0)
(2.1999 -0.618832 0)
(2.19991 -0.618828 0)
(2.19993 -0.61882 0)
(2.19994 -0.618816 0)
(2.19997 -0.618814 0)
(2.19999 -0.61881 0)
(2.20001 -0.618808 0)
(2.20003 -0.61881 0)
(2.20005 -0.618808 0)
(2.20006 -0.618813 0)
(2.20008 -0.618817 0)
(2.2001 -0.618822 0)
(2.20011 -0.618834 0)
(2.20012 -0.618848 0)
(2.20012 -0.618866 0)
(2.20012 -0.618878 0)
(2.20011 -0.618904 0)
(2.2001 -0.618911 0)
(2.20009 -0.618928 0)
(2.20009 -0.618945 0)
(2.20008 -0.618958 0)
(2.20008 -0.618952 0)
(2.20007 -0.618961 0)
(2.20007 -0.618948 0)
(2.20004 -0.618816 0)
(2.19959 -0.617753 0)
(2.19724 -0.612178 0)
(2.18592 -0.586589 0)
(2.16343 -0.525317 0)
(2.10708 -0.382347 0)
(2.08202 -0.261324 0)
(2.01721 -0.0930841 0)
(2.01278 -0.0451083 0)
(1.98506 0.0172112 0)
(1.97827 0.021832 0)
(1.97004 0.00510731 0)
(1.96806 -0.0055123 0)
(1.96846 -0.0117676 0)
(1.96967 -0.012134 0)
(1.97808 -0.00304138 0)
(1.97818 -0.00181431 0)
(1.97589 -0.00383376 0)
(1.97339 -0.00896049 0)
(1.97204 -0.0119061 0)
(1.97394 -0.0106598 0)
(1.97616 -0.00725165 0)
(1.97718 -0.00755801 0)
(1.97674 -0.00896051 0)
(1.97646 -0.0104199 0)
(1.97703 -0.0101781 0)
(1.97768 -0.00988165 0)
(1.97776 -0.0105652 0)
(1.97784 -0.0119188 0)
(1.97815 -0.0122777 0)
(1.97894 -0.0118817 0)
(1.97937 -0.0121201 0)
(1.97997 -0.0128616 0)
(1.98065 -0.0132016 0)
(1.98123 -0.0133218 0)
(1.98169 -0.0138754 0)
(1.98244 -0.0147117 0)
(1.98295 -0.0154362 0)
(1.98339 -0.0158545 0)
(1.984 -0.0164944 0)
(1.98469 -0.0170153 0)
(1.98543 -0.0171633 0)
(1.98613 -0.0176813 0)
(1.98689 -0.0182092 0)
(1.98753 -0.0186861 0)
(1.98835 -0.0194629 0)
(1.98918 -0.0202403 0)
(1.9899 -0.0204641 0)
(1.99122 -0.0213878 0)
(2.19976 -0.618795 0)
(2.19977 -0.618797 0)
(2.19977 -0.618799 0)
(2.19977 -0.618803 0)
(2.19978 -0.618806 0)
(2.19978 -0.618808 0)
(2.19979 -0.61881 0)
(2.19979 -0.618811 0)
(2.1998 -0.618811 0)
(2.1998 -0.618812 0)
(2.19981 -0.618813 0)
(2.19982 -0.618812 0)
(2.19983 -0.61881 0)
(2.19984 -0.618812 0)
(2.19985 -0.618819 0)
(2.19986 -0.618823 0)
(2.19987 -0.618822 0)
(2.19988 -0.618822 0)
(2.19989 -0.618819 0)
(2.1999 -0.618816 0)
(2.19992 -0.618816 0)
(2.19993 -0.618816 0)
(2.19995 -0.618814 0)
(2.19996 -0.618808 0)
(2.19997 -0.618804 0)
(2.19999 -0.618804 0)
(2.2 -0.618802 0)
(2.20001 -0.618798 0)
(2.20002 -0.618792 0)
(2.20004 -0.618788 0)
(2.20006 -0.618788 0)
(2.20007 -0.618783 0)
(2.20009 -0.618781 0)
(2.2001 -0.618781 0)
(2.20011 -0.618783 0)
(2.20012 -0.618791 0)
(2.20013 -0.618805 0)
(2.20014 -0.618823 0)
(2.20014 -0.618845 0)
(2.20015 -0.618861 0)
(2.20015 -0.618885 0)
(2.20015 -0.618903 0)
(2.20015 -0.618918 0)
(2.20014 -0.61894 0)
(2.20013 -0.618947 0)
(2.20013 -0.618951 0)
(2.20013 -0.618959 0)
(2.20014 -0.618954 0)
(2.20013 -0.61895 0)
(2.20013 -0.618948 0)
(2.20014 -0.618942 0)
(2.20016 -0.618936 0)
(2.20019 -0.618921 0)
(2.20021 -0.618878 0)
(2.20013 -0.618625 0)
(2.19941 -0.616828 0)
(2.19441 -0.606437 0)
(2.17849 -0.565708 0)
(2.13812 -0.463003 0)
(2.09969 -0.332916 0)
(2.04578 -0.172559 0)
(2.02937 -0.113056 0)
(2.0021 -0.0598448 0)
(1.99289 -0.0341151 0)
(1.98665 -0.0147999 0)
(1.97998 0.00141818 0)
(1.9788 0.00438799 0)
(1.97365 -0.000247226 0)
(1.96862 -0.0108633 0)
(1.96966 -0.0165205 0)
(1.97261 -0.0133293 0)
(1.97691 -0.00748545 0)
(1.97737 -0.00653805 0)
(1.97643 -0.00851949 0)
(1.97555 -0.0107865 0)
(1.9762 -0.01057 0)
(1.97721 -0.00931738 0)
(1.97774 -0.00968683 0)
(1.97739 -0.0110951 0)
(1.97731 -0.012236 0)
(1.9781 -0.0119241 0)
(1.97878 -0.0116109 0)
(1.97935 -0.0120693 0)
(1.97983 -0.012734 0)
(1.98053 -0.0129863 0)
(1.98104 -0.0130956 0)
(1.98169 -0.0139882 0)
(1.98228 -0.0149898 0)
(1.98277 -0.0153369 0)
(1.98329 -0.0157983 0)
(1.98392 -0.0164703 0)
(1.98467 -0.0168534 0)
(1.9853 -0.0170665 0)
(1.98607 -0.017656 0)
(1.98684 -0.018166 0)
(1.98747 -0.0187346 0)
(1.98833 -0.0195553 0)
(1.98921 -0.0201934 0)