/*--------------------------------*- C++ -*----------------------------------*\
  =========                 |
  \\      /  F ield         | OpenFOAM: The Open Source CFD Toolbox
   \\    /   O peration     | Website:  https://openfoam.org
    \\  /    A nd           | Version:  7
     \\/     M anipulation  |
\*---------------------------------------------------------------------------*/
FoamFile
{
    version     2.0;
    format      ascii;
    class       volScalarField;
    location    "7";
    object      rho;
}
// * * * * * * * * * * * * * * * * * * * * * * * * * * * * * * * * * * * * * //

dimensions      [1 -3 0 0 0 0 0];

internalField   nonuniform List<scalar> 
90000
(
0.114753
0.350677
0.455767
0.488806
0.511353
0.525571
0.528451
0.527596
0.5193
0.513868
0.5139
0.514282
0.512212
0.51025
0.508471
0.507662
0.507254
0.507667
0.50894
0.512116
0.516466
0.521863
0.528557
0.536685
0.545948
0.556749
0.567886
0.57972
0.591342
0.603992
0.616487
0.629321
0.641718
0.653867
0.664918
0.674063
0.6835
0.69367
0.702916
0.711324
0.718199
0.723949
0.72864
0.732605
0.736136
0.739252
0.741838
0.744235
0.745666
0.745604
0.744846
0.743678
0.742888
0.743489
0.745292
0.748749
0.753961
0.760105
0.766282
0.770574
0.773047
0.774833
0.776297
0.775699
0.775134
0.775118
0.774954
0.775339
0.777598
0.782965
0.789411
0.796496
0.800849
0.805587
0.805921
0.808866
0.81236
0.818521
0.828609
0.837851
0.846778
0.850317
0.860456
0.868189
0.878104
0.89048
0.89438
0.902875
0.909128
0.917388
0.92853
0.92989
0.934967
0.944182
0.947563
0.955289
0.959599
0.95979
0.963823
0.969738
0.0656325
0.115455
0.230818
0.261036
0.29032
0.323019
0.333719
0.341391
0.348789
0.355638
0.361319
0.363801
0.36537
0.368624
0.3752
0.380021
0.38358
0.386228
0.389663
0.393426
0.397536
0.402739
0.409004
0.417111
0.426787
0.438139
0.450433
0.463836
0.477547
0.491805
0.506201
0.520611
0.535329
0.548977
0.560138
0.570245
0.580525
0.591589
0.603234
0.61521
0.627097
0.638495
0.649294
0.659436
0.669417
0.679436
0.689466
0.699653
0.709226
0.717833
0.724915
0.730498
0.736086
0.743488
0.75223
0.759728
0.765357
0.770328
0.77427
0.777616
0.77811
0.778632
0.778735
0.777975
0.77631
0.775738
0.777051
0.780686
0.786071
0.792696
0.798361
0.803445
0.805579
0.805964
0.806513
0.809819
0.815901
0.825759
0.835617
0.842272
0.848751
0.854302
0.864174
0.873071
0.883869
0.892493
0.895486
0.903637
0.910808
0.920127
0.928788
0.929913
0.936221
0.942861
0.946934
0.955263
0.956988
0.958693
0.963855
0.969524
0.0660919
0.0661373
0.0661722
0.0678673
0.109303
0.231327
0.266759
0.276026
0.30053
0.315338
0.317044
0.319763
0.323017
0.326615
0.329595
0.333518
0.336349
0.338724
0.341987
0.345515
0.348386
0.35027
0.351286
0.352717
0.354739
0.358028
0.362956
0.369299
0.377028
0.385734
0.39522
0.40495
0.415853
0.427995
0.440333
0.453044
0.465797
0.479282
0.493454
0.508456
0.524445
0.54085
0.557313
0.57392
0.590879
0.608516
0.626715
0.645303
0.664184
0.68278
0.700685
0.717154
0.731535
0.742647
0.751009
0.757997
0.763083
0.767761
0.770894
0.774265
0.775765
0.776031
0.775631
0.775505
0.775908
0.778619
0.784649
0.79174
0.798982
0.802606
0.804927
0.80645
0.807488
0.807237
0.809121
0.81566
0.823962
0.835047
0.840345
0.846703
0.851873
0.858605
0.869518
0.878191
0.889772
0.892671
0.896421
0.904922
0.911519
0.921073
0.927886
0.929206
0.937848
0.94177
0.946572
0.954377
0.955733
0.95817
0.964324
0.969455
0.0667772
0.0668509
0.0669423
0.0669829
0.0670225
0.0670597
0.0724758
0.0886403
0.148392
0.240437
0.268989
0.286502
0.306331
0.319779
0.321921
0.320297
0.320585
0.321399
0.321386
0.32199
0.324229
0.327304
0.329848
0.332172
0.33444
0.33656
0.338911
0.341578
0.344947
0.348687
0.352772
0.35591
0.358054
0.360562
0.364693
0.370609
0.378052
0.386454
0.396169
0.405526
0.416659
0.429988
0.44541
0.461118
0.477345
0.493172
0.509983
0.527905
0.546347
0.56554
0.585335
0.605862
0.625776
0.644136
0.661083
0.676966
0.691842
0.705806
0.718908
0.731584
0.742706
0.752229
0.760775
0.768443
0.776163
0.784094
0.79191
0.798264
0.804616
0.806918
0.80831
0.807787
0.807238
0.809272
0.816146
0.826944
0.835046
0.842444
0.845139
0.850833
0.855007
0.864024
0.874693
0.883349
0.892345
0.892687
0.897588
0.907153
0.912715
0.921672
0.925271
0.931299
0.939423
0.941114
0.946372
0.95368
0.954295
0.960169
0.964652
0.968813
0.0675205
0.0675933
0.0676678
0.067748
0.0678329
0.067942
0.0680025
0.0680551
0.0681047
0.0704721
0.0807748
0.10221
0.144042
0.225193
0.260421
0.286018
0.304036
0.318344
0.324383
0.325252
0.324713
0.325001
0.325213
0.324864
0.325806
0.326964
0.327854
0.328947
0.330406
0.332282
0.334627
0.337507
0.340707
0.343236
0.345623
0.348196
0.351245
0.354931
0.359427
0.36434
0.367315
0.370494
0.376992
0.385326
0.394858
0.405255
0.414907
0.4281
0.444543
0.46257
0.481728
0.500634
0.520973
0.542424
0.563553
0.584411
0.606323
0.628926
0.651721
0.674237
0.695865
0.716204
0.734799
0.751249
0.765497
0.775783
0.78276
0.787858
0.791566
0.794123
0.797029
0.799839
0.804435
0.814188
0.826122
0.835125
0.841269
0.84583
0.848778
0.854303
0.860058
0.871828
0.880054
0.88775
0.892821
0.893943
0.90165
0.909822
0.914231
0.921597
0.925981
0.933936
0.940062
0.940289
0.946801
0.951721
0.956067
0.96192
0.964362
0.967284
0.0682754
0.0683502
0.068427
0.06851
0.0685984
0.068691
0.0687843
0.0688795
0.0690135
0.069054
0.0690941
0.0691499
0.0692032
0.0718323
0.0826557
0.10578
0.142886
0.2051
0.257885
0.286155
0.303095
0.315267
0.324764
0.328963
0.329215
0.330008
0.33083
0.332123
0.333011
0.334105
0.334845
0.334981
0.335458
0.336609
0.337932
0.339249
0.340638
0.342137
0.343932
0.347039
0.35146
0.35443
0.357713
0.361405
0.365902
0.371137
0.376818
0.380046
0.385149
0.393341
0.403283
0.414637
0.425797
0.44057
0.457946
0.476455
0.495193
0.515048
0.536284
0.557088
0.57862
0.602183
0.626306
0.65025
0.672818
0.693982
0.712158
0.729265
0.745696
0.760614
0.775057
0.788262
0.803589
0.818635
0.83047
0.836668
0.842308
0.845592
0.850098
0.856016
0.865046
0.876614
0.882495
0.889251
0.891801
0.895805
0.907369
0.912035
0.915023
0.920964
0.926473
0.935236
0.939009
0.940319
0.947264
0.952889
0.957178
0.961938
0.962034
0.963628
0.0691272
0.0692105
0.0692976
0.0693912
0.0694823
0.0695815
0.0696772
0.069789
0.0698945
0.0700111
0.0701279
0.0702555
0.0703954
0.0705261
0.070609
0.0707161
0.0707953
0.0726233
0.084099
0.108378
0.143773
0.187626
0.241163
0.288999
0.311997
0.324642
0.331901
0.336791
0.337851
0.337356
0.338147
0.33771
0.338243
0.34017
0.341876
0.34353
0.344451
0.34534
0.346358
0.347201
0.347511
0.349528
0.351178
0.353003
0.354809
0.356864
0.360417
0.365648
0.369308
0.373558
0.378116
0.383816
0.390391
0.394154
0.399472
0.40876
0.420435
0.431494
0.44578
0.464719
0.485618
0.506957
0.529404
0.553947
0.578742
0.60332
0.628538
0.653854
0.678045
0.702928
0.726145
0.748357
0.767827
0.781986
0.794321
0.804816
0.818447
0.830978
0.843928
0.856612
0.868362
0.876594
0.879434
0.882267
0.887139
0.898978
0.910691
0.912349
0.914471
0.919726
0.927028
0.935298
0.936221
0.939697
0.947485
0.952762
0.957058
0.958651
0.956679
0.95841
0.0701562
0.0702344
0.0703223
0.0704114
0.0705073
0.0706041
0.0707045
0.0708141
0.0709346
0.0710585
0.0711812
0.0713068
0.0714365
0.0715867
0.0717512
0.0719465
0.0721568
0.0723816
0.0725101
0.0726775
0.0728215
0.0738541
0.0828518
0.107643
0.147457
0.193265
0.236547
0.27789
0.317663
0.338411
0.34598
0.348337
0.348775
0.349134
0.352409
0.351257
0.347689
0.34717
0.348569
0.350396
0.351869
0.353785
0.355431
0.357691
0.358829
0.359571
0.360713
0.362123
0.364739
0.366608
0.368627
0.371306
0.37486
0.379788
0.383264
0.387523
0.392741
0.398581
0.402986
0.408871
0.419641
0.432169
0.444875
0.459969
0.479661
0.50107
0.521093
0.544225
0.566704
0.590649
0.617845
0.64655
0.674488
0.700767
0.726848
0.752121
0.778679
0.802069
0.823306
0.83997
0.844999
0.846199
0.853421
0.866758
0.883758
0.901777
0.907588
0.904839
0.909498
0.917911
0.925603
0.928318
0.930346
0.936969
0.946427
0.950798
0.95246
0.951114
0.951649
0.955596
0.0712819
0.0713647
0.0714592
0.0715522
0.071651
0.0717492
0.0718526
0.071968
0.0721034
0.07224
0.0723859
0.07253
0.0726907
0.0728667
0.0730673
0.0732802
0.0735121
0.0737727
0.0740409
0.0743561
0.0746577
0.0750376
0.0752134
0.0754343
0.0755919
0.0764841
0.0840011
0.104477
0.144174
0.198346
0.245155
0.279411
0.311959
0.348887
0.365052
0.36628
0.362706
0.358473
0.365124
0.367441
0.363057
0.360035
0.360977
0.363389
0.363101
0.362516
0.363406
0.36753
0.370176
0.3709
0.372003
0.374225
0.375627
0.375494
0.37757
0.379755
0.382161
0.384959
0.390378
0.394772
0.399703
0.405527
0.412798
0.419071
0.42609
0.437734
0.450294
0.462862
0.482723
0.505168
0.528358
0.554272
0.580818
0.606136
0.630739
0.656855
0.682582
0.706912
0.731267
0.751773
0.775396
0.798964
0.8212
0.843732
0.865554
0.869743
0.87346
0.882388
0.897343
0.907431
0.910641
0.917738
0.924766
0.931496
0.935011
0.936782
0.939056
0.944069
0.949823
0.955952
0.0724727
0.072564
0.0726678
0.0727785
0.072896
0.0730165
0.0731363
0.0732672
0.0734107
0.0735562
0.0737164
0.0738857
0.0740744
0.0742699
0.0744925
0.0747126
0.0749618
0.0752187
0.0754985
0.0757796
0.0760881
0.0763807
0.0766717
0.0769599
0.0772501
0.0776153
0.0777343
0.0778508
0.0779546
0.0783041
0.0855341
0.104675
0.139471
0.196532
0.256256
0.29808
0.323191
0.349519
0.379189
0.386224
0.382125
0.370882
0.375291
0.381364
0.377513
0.372801
0.374029
0.379663
0.379765
0.376906
0.376405
0.378363
0.379468
0.380482
0.381799
0.383822
0.385625
0.38622
0.387107
0.390629
0.393743
0.396552
0.399948
0.40659
0.411888
0.416831
0.422156
0.429546
0.435193
0.447202
0.462467
0.477393
0.494676
0.515506
0.535985
0.558663
0.583025
0.606302
0.630598
0.658827
0.687522
0.713931
0.738124
0.761902
0.780793
0.801548
0.820568
0.837365
0.85066
0.861777
0.881222
0.896375
0.903084
0.906786
0.912975
0.920646
0.92899
0.93765
0.945924
0.951749
0.0738114
0.0739128
0.0740266
0.0741519
0.0742849
0.0744334
0.0745762
0.0747328
0.074894
0.075062
0.0752335
0.0754205
0.075617
0.0758226
0.0760435
0.0762693
0.0765036
0.0767625
0.077025
0.0772866
0.0775687
0.0778281
0.0780915
0.0783185
0.0785978
0.0788335
0.0790733
0.0792876
0.0794996
0.0797374
0.0798733
0.0800194
0.0802343
0.0804273
0.0875655
0.109506
0.148066
0.202379
0.267466
0.31766
0.346381
0.367266
0.386627
0.404104
0.400991
0.388475
0.388837
0.395966
0.393916
0.386677
0.387294
0.394276
0.395673
0.392966
0.391143
0.391013
0.389647
0.388148
0.391414
0.39561
0.398235
0.400537
0.401993
0.402496
0.405823
0.408646
0.41126
0.416048
0.424266
0.43055
0.438711
0.447033
0.455271
0.465515
0.478108
0.491215
0.506534
0.526028
0.544625
0.564956
0.58949
0.610071
0.633004
0.658365
0.686239
0.71156
0.729633
0.746034
0.767823
0.794715
0.817057
0.827538
0.837271
0.853104
0.870421
0.888134
0.899139
0.903895
0.904968
0.913678
0.0753825
0.0755022
0.0756362
0.0757714
0.0759123
0.0760656
0.0762201
0.0763795
0.076543
0.0767189
0.0769031
0.0770927
0.0772801
0.077472
0.0776726
0.0778778
0.0780735
0.0782989
0.0785129
0.078742
0.0789672
0.0791906
0.0793924
0.0795918
0.0798013
0.0800126
0.0802246
0.0804063
0.0805919
0.0807655
0.0809996
0.0812506
0.0815811
0.0819786
0.082247
0.0825066
0.0828543
0.0830757
0.0907585
0.11623
0.162642
0.228365
0.290044
0.342265
0.370802
0.391743
0.402679
0.417205
0.415123
0.406993
0.404393
0.410823
0.409745
0.403944
0.404632
0.407142
0.406083
0.404403
0.405738
0.405449
0.404506
0.404705
0.405343
0.407488
0.410606
0.412689
0.414675
0.417783
0.420721
0.425835
0.430406
0.43492
0.443319
0.450635
0.456828
0.464713
0.472423
0.477285
0.485723
0.499185
0.514813
0.53745
0.557719
0.576276
0.594912
0.612912
0.628009
0.646132
0.669782
0.695082
0.715818
0.734234
0.753132
0.772595
0.791196
0.808057
0.818377
0.828076
0.838358
0.857544
0.0771358
0.0772523
0.0773783
0.0775071
0.0776441
0.0777855
0.0779334
0.0780849
0.0782346
0.0783859
0.0785497
0.0787141
0.0788885
0.0790582
0.0792321
0.0794055
0.0795709
0.0797418
0.0799154
0.080086
0.0802604
0.0804363
0.0806016
0.0807807
0.0809599
0.081148
0.0813445
0.0815458
0.0817357
0.0819575
0.0822269
0.0825052
0.0828407
0.0832111
0.0836471
0.084111
0.0845724
0.0849428
0.0850401
0.0852344
0.0854442
0.0864011
0.0985686
0.131459
0.188809
0.264008
0.328858
0.37387
0.400507
0.419103
0.423421
0.430664
0.427954
0.422609
0.42303
0.422795
0.419719
0.4178
0.420809
0.421349
0.420613
0.421078
0.421964
0.420999
0.420145
0.419198
0.419476
0.422398
0.426716
0.431478
0.434825
0.437244
0.439547
0.44497
0.449101
0.454487
0.459736
0.466969
0.473109
0.480938
0.488144
0.495
0.509025
0.520987
0.532233
0.545242
0.561328
0.577507
0.594005
0.612635
0.630035
0.644469
0.659758
0.677402
0.695981
0.711116
0.726687
0.74513
0.760866
0.785847
0.0788929
0.0789923
0.0790886
0.0791871
0.0792942
0.0794069
0.0795272
0.0796577
0.0797839
0.0799065
0.0800304
0.0801546
0.0802928
0.0804356
0.0805769
0.0807255
0.0808733
0.0810126
0.0811567
0.0812975
0.0814491
0.0816047
0.0817608
0.0819363
0.082119
0.0823017
0.0825183
0.0827738
0.0830201
0.0832922
0.0835875
0.0838962
0.084191
0.0845369
0.0849388
0.0853489
0.0857037
0.0859583
0.0862159
0.0864956
0.0868333
0.087257
0.0874618
0.0876916
0.0878911
0.0924755
0.116102
0.164287
0.239552
0.317811
0.378959
0.408728
0.432789
0.437792
0.444127
0.440854
0.437416
0.435515
0.436127
0.436402
0.436965
0.438884
0.439489
0.438065
0.436474
0.434961
0.436457
0.438978
0.439753
0.440928
0.440901
0.44119
0.445233
0.450028
0.453345
0.457746
0.462087
0.465202
0.470171
0.475195
0.481848
0.487735
0.495413
0.501198
0.507667
0.514254
0.517772
0.525387
0.537124
0.551442
0.562653
0.576199
0.591169
0.608751
0.624111
0.6358
0.643264
0.655177
0.672511
0.699608
0.080531
0.0805892
0.080641
0.0806943
0.0807586
0.080836
0.0809237
0.0810216
0.0811251
0.0812331
0.0813367
0.0814404
0.0815547
0.0816792
0.081805
0.0819411
0.0820841
0.0822236
0.0823676
0.0825166
0.0826833
0.0828604
0.0830437
0.083253
0.0834717
0.0836746
0.0839133
0.0842065
0.0845175
0.0848318
0.0851493
0.0854197
0.0856398
0.0858996
0.0862212
0.0865519
0.0868215
0.087056
0.0873161
0.087591
0.0879157
0.0882709
0.0886662
0.0891592
0.0897343
0.0900486
0.0902911
0.0906347
0.0910593
0.106066
0.152075
0.223105
0.315601
0.381507
0.423534
0.441458
0.449783
0.45631
0.455484
0.455245
0.45281
0.453469
0.45363
0.455127
0.4565
0.455721
0.456397
0.456347
0.456314
0.458391
0.459612
0.459354
0.460576
0.460308
0.460202
0.462617
0.467147
0.471262
0.475529
0.479123
0.48017
0.485074
0.491119
0.494158
0.497984
0.502791
0.509215
0.513682
0.52044
0.529018
0.538323
0.540792
0.543645
0.552785
0.567621
0.580665
0.59265
0.599404
0.607259
0.629006
0.081843
0.0819056
0.0819553
0.0819882
0.0820147
0.0820482
0.0820969
0.0821672
0.0822622
0.0823805
0.0825072
0.0826321
0.0827586
0.0828908
0.0830266
0.083176
0.0833467
0.0835283
0.0837113
0.0839158
0.0841348
0.0843517
0.0845742
0.0848207
0.0850631
0.0852835
0.0855172
0.0858084
0.0861263
0.0864337
0.0866944
0.0868736
0.0870121
0.0871674
0.0873847
0.0876303
0.087843
0.0880682
0.0883567
0.0886779
0.0890464
0.0894792
0.089984
0.0905564
0.0911638
0.0917141
0.0922174
0.0926493
0.0931006
0.093235
0.0934045
0.0935442
0.10513
0.148695
0.224809
0.323202
0.389429
0.440886
0.456404
0.466214
0.469542
0.472231
0.469852
0.470958
0.470253
0.470167
0.474123
0.476595
0.478735
0.480862
0.479831
0.477342
0.47812
0.478762
0.479879
0.482262
0.482461
0.481016
0.481937
0.483224
0.485924
0.491798
0.496387
0.497921
0.50042
0.505268
0.509523
0.51425
0.517693
0.5219
0.530224
0.534495
0.53832
0.542257
0.547197
0.55317
0.563723
0.575662
0.579654
0.585322
0.0832058
0.083263
0.083298
0.0833168
0.0833339
0.0833584
0.0833981
0.0834633
0.0835617
0.0836973
0.0838529
0.0840108
0.084175
0.0843403
0.0845064
0.0846848
0.0849073
0.0851437
0.0853666
0.0856137
0.0858698
0.0860981
0.0863169
0.0865294
0.0867266
0.0869179
0.0871202
0.0873518
0.0876215
0.0878668
0.088051
0.0881698
0.0882699
0.0883785
0.0885294
0.088721
0.0889409
0.0892175
0.0895657
0.0900015
0.0904758
0.0909857
0.091554
0.0921792
0.0927638
0.0932533
0.0937035
0.0940486
0.0943543
0.0946041
0.0948587
0.0952036
0.0954472
0.0958832
0.0963642
0.11011
0.154885
0.242038
0.340024
0.414082
0.459924
0.479804
0.483204
0.489818
0.489673
0.4869
0.491032
0.490673
0.49574
0.499135
0.499767
0.499848
0.500882
0.500624
0.501463
0.503233
0.501835
0.500179
0.501081
0.501759
0.501247
0.503023
0.503897
0.504159
0.505583
0.510638
0.516361
0.520561
0.522692
0.525387
0.526008
0.530599
0.536472
0.541384
0.544373
0.547618
0.55127
0.560705
0.568084
0.574025
0.0844576
0.0845266
0.0845926
0.0846608
0.084729
0.084801
0.0848935
0.0850097
0.0851375
0.0852897
0.0854547
0.0856247
0.0858164
0.0860196
0.0862166
0.0864329
0.0866826
0.0869141
0.087122
0.0873601
0.087585
0.08777
0.0879277
0.0880457
0.088154
0.0883007
0.0884715
0.0886511
0.0888533
0.0890561
0.0892228
0.0893698
0.0895144
0.0896562
0.0898265
0.0900542
0.0903587
0.0907322
0.0912151
0.0917509
0.0922642
0.0927553
0.0932603
0.0938048
0.0942394
0.0946277
0.0949896
0.0953469
0.0956061
0.0958569
0.0961224
0.0964579
0.0969472
0.0976216
0.0986559
0.0993055
0.100091
0.100702
0.117315
0.169489
0.268774
0.372219
0.4403
0.480705
0.502191
0.504856
0.510405
0.509012
0.5141
0.513212
0.515246
0.520915
0.522977
0.523087
0.525819
0.527548
0.525882
0.524708
0.525134
0.524131
0.522533
0.524182
0.525643
0.525602
0.525844
0.526503
0.527362
0.528771
0.529399
0.530882
0.533012
0.537807
0.543169
0.547544
0.549898
0.551873
0.553589
0.555025
0.55933
0.566545
0.0859882
0.0861021
0.0862236
0.0863634
0.0865257
0.0866963
0.0868741
0.0870425
0.0871858
0.0873235
0.0874627
0.0876039
0.0877726
0.0879353
0.0880828
0.0882587
0.0884485
0.0886083
0.0887648
0.0889378
0.0890903
0.0892023
0.0892754
0.0893282
0.0893867
0.0895095
0.0896878
0.0898761
0.0900758
0.0902988
0.0905209
0.0907737
0.0910456
0.0913235
0.091602
0.0919241
0.0922895
0.0927344
0.0932661
0.0937977
0.0942253
0.0945892
0.0950258
0.0954182
0.0957099
0.0959921
0.096304
0.0966636
0.096948
0.0972432
0.097534
0.0979643
0.0985133
0.0992714
0.100203
0.101223
0.102352
0.10353
0.103897
0.104274
0.104573
0.127122
0.195712
0.303592
0.412957
0.478627
0.510939
0.525826
0.540541
0.533546
0.537645
0.544044
0.54164
0.543677
0.55229
0.553095
0.552323
0.552469
0.551982
0.551102
0.551935
0.553524
0.553459
0.552344
0.5508
0.550121
0.550755
0.55189
0.551823
0.552075
0.552333
0.552722
0.554465
0.557038
0.558632
0.559275
0.559469
0.558231
0.561713
0.569018
0.0882385
0.0883622
0.0885009
0.0886571
0.0888292
0.0889949
0.0891202
0.0892088
0.0892823
0.0893539
0.0894211
0.0894838
0.0895443
0.0895951
0.0896505
0.0897281
0.0898223
0.0899222
0.0900398
0.0901746
0.090282
0.0903419
0.0903913
0.0904512
0.0905428
0.0907266
0.0909928
0.0912571
0.0915513
0.091901
0.0922837
0.0926727
0.0930737
0.0934443
0.0937829
0.094122
0.0944798
0.0948767
0.0953346
0.0957405
0.0960406
0.0963323
0.0966498
0.0969037
0.0971021
0.0972929
0.0975646
0.0979293
0.0983457
0.0987314
0.0991834
0.0997802
0.100409
0.101325
0.102213
0.103247
0.104214
0.105117
0.106046
0.107062
0.108196
0.108827
0.109724
0.112922
0.149897
0.240201
0.362007
0.46233
0.517239
0.545827
0.566004
0.579001
0.572384
0.573216
0.579709
0.574882
0.578805
0.584469
0.58474
0.584644
0.586311
0.585307
0.583664
0.584674
0.585705
0.5849
0.584411
0.584026
0.582637
0.581435
0.581554
0.580978
0.580508
0.58148
0.583241
0.583808
0.583182
0.580979
0.579535
0.581909
0.090233
0.0902962
0.0903716
0.090443
0.090515
0.0905765
0.0906171
0.0906419
0.0906629
0.0906903
0.0907172
0.0907482
0.0907612
0.0907728
0.0907921
0.0908168
0.0908645
0.0909584
0.0911046
0.0913001
0.091476
0.0916025
0.0917395
0.0919356
0.0921995
0.0925531
0.0929481
0.093327
0.093729
0.0941873
0.0946389
0.0950503
0.0954161
0.0957171
0.095974
0.0962378
0.0965057
0.0967951
0.0971032
0.0973747
0.0975985
0.097802
0.0979928
0.0981275
0.0982458
0.0984398
0.0988088
0.0993374
0.0999826
0.100722
0.101647
0.102512
0.103587
0.104487
0.105292
0.106107
0.106732
0.107493
0.108628
0.110124
0.111744
0.113914
0.116754
0.120238
0.122095
0.123264
0.134853
0.190223
0.293467
0.426833
0.512968
0.561803
0.601614
0.614552
0.618787
0.611894
0.618515
0.617678
0.612875
0.616955
0.626021
0.625251
0.623927
0.625364
0.624041
0.62132
0.621044
0.622737
0.62399
0.62464
0.625181
0.623572
0.620789
0.619039
0.61897
0.61896
0.618716
0.617766
0.615284
0.612204
0.0911457
0.0911665
0.0911977
0.0912366
0.0912701
0.0912949
0.0913184
0.0913503
0.0914006
0.0914753
0.0915815
0.0916984
0.0918097
0.0919401
0.0920729
0.0922042
0.0923823
0.0926496
0.0930358
0.0935191
0.0939115
0.0941781
0.0944454
0.0947887
0.0951896
0.0955741
0.0959206
0.0962206
0.0964849
0.0967575
0.097011
0.0972347
0.0974279
0.0975783
0.0976971
0.0978201
0.097964
0.0981529
0.0983372
0.0985186
0.0986948
0.0988374
0.0989327
0.099036
0.0992657
0.0997227
0.10049
0.101434
0.102505
0.103764
0.105003
0.106282
0.107436
0.108206
0.108969
0.109502
0.11009
0.110972
0.112602
0.114725
0.117435
0.120922
0.12423
0.127218
0.129213
0.131741
0.13293
0.134119
0.135802
0.160453
0.232004
0.355334
0.498138
0.570391
0.616446
0.651338
0.678072
0.664605
0.659638
0.663463
0.665352
0.66038
0.664344
0.670478
0.669732
0.667893
0.66844
0.669189
0.669967
0.670656
0.670842
0.670117
0.66913
0.668761
0.66823
0.66771
0.66674
0.664827
0.661413
0.654491
0.0921218
0.0921919
0.0922824
0.0924014
0.0925571
0.0927429
0.0929491
0.0931951
0.0934746
0.0937716
0.0940974
0.0944057
0.0946899
0.0950133
0.0953482
0.0956521
0.0959761
0.0963413
0.0967444
0.0971126
0.0973425
0.0974933
0.0976396
0.0978287
0.0980343
0.0981882
0.0983216
0.0984131
0.0984661
0.0985297
0.0985813
0.0986188
0.0986727
0.0987063
0.0987554
0.098842
0.0989782
0.0991649
0.0993573
0.0995954
0.0998497
0.100142
0.100458
0.100918
0.101695
0.102756
0.103967
0.105166
0.106549
0.107819
0.109086
0.110302
0.111209
0.112157
0.113017
0.114001
0.115505
0.117453
0.120077
0.122956
0.126331
0.129116
0.131501
0.133357
0.135426
0.137626
0.139179
0.141671
0.146175
0.149227
0.151623
0.153075
0.186983
0.279191
0.419754
0.562876
0.638806
0.670417
0.70079
0.72858
0.724376
0.709993
0.716694
0.713765
0.711727
0.714452
0.721146
0.721602
0.722657
0.722599
0.721015
0.7202
0.721295
0.72294
0.722896
0.721589
0.718691
0.715956
0.715189
0.711978
0.0959578
0.0961718
0.0963969
0.0966255
0.0968609
0.0970835
0.097299
0.0975231
0.0977363
0.0979498
0.0981613
0.0983299
0.0984662
0.0985735
0.0986425
0.098706
0.0987854
0.0988854
0.0990025
0.0991011
0.0991484
0.0991773
0.099193
0.0992118
0.0992429
0.0992463
0.0992384
0.0992334
0.0992199
0.0992151
0.0992117
0.0992228
0.0992651
0.0993809
0.0996207
0.0999901
0.100453
0.100977
0.101606
0.102347
0.103202
0.104208
0.105277
0.106509
0.107677
0.108824
0.109759
0.110784
0.111665
0.112472
0.113382
0.1143
0.115467
0.116887
0.118622
0.121034
0.123722
0.1269
0.129715
0.132561
0.134757
0.136409
0.137881
0.139556
0.141863
0.14408
0.147213
0.151175
0.15474
0.157223
0.159518
0.162378
0.164039
0.165822
0.169189
0.219854
0.330414
0.495808
0.62667
0.696529
0.741834
0.759747
0.787814
0.769341
0.769381
0.7671
0.767191
0.76627
0.772446
0.776667
0.775979
0.774893
0.774367
0.774061
0.775196
0.776012
0.775526
0.773409
0.771318
0.768174
0.0998594
0.0998449
0.0998316
0.0998136
0.0997782
0.0997479
0.0997479
0.099758
0.0997369
0.0996842
0.0996814
0.099671
0.0996703
0.0996639
0.099611
0.0995959
0.0995986
0.0996096
0.0996409
0.0997065
0.0997599
0.0997546
0.0997067
0.099702
0.0997557
0.0997627
0.0997461
0.0998098
0.0998915
0.0999817
0.100151
0.100524
0.101142
0.101954
0.102891
0.103963
0.105112
0.10623
0.107415
0.108553
0.109769
0.11092
0.112103
0.113101
0.113972
0.11474
0.11549
0.116312
0.116994
0.117959
0.119088
0.120794
0.122966
0.125481
0.128443
0.131323
0.134024
0.136466
0.138553
0.14042
0.141717
0.143122
0.14474
0.146877
0.149337
0.15257
0.156591
0.160226
0.162042
0.163698
0.166494
0.169492
0.172656
0.175911
0.180101
0.183065
0.184811
0.200779
0.265904
0.399064
0.571388
0.704961
0.763675
0.793324
0.826999
0.836575
0.831205
0.81853
0.822478
0.819687
0.82222
0.827344
0.830753
0.830811
0.830806
0.828905
0.827067
0.825633
0.824469
0.823075
0.0995781
0.0995631
0.0995734
0.0996198
0.0995923
0.099512
0.0995115
0.0995173
0.0994668
0.0994409
0.0994528
0.0995008
0.0995949
0.0996607
0.0997223
0.0997972
0.0999271
0.100113
0.100356
0.100656
0.101016
0.101406
0.101852
0.102321
0.102833
0.10339
0.104027
0.104711
0.105514
0.106422
0.107396
0.108389
0.109393
0.110382
0.111256
0.11209
0.112872
0.113713
0.114576
0.11545
0.116337
0.117177
0.11805
0.118845
0.11979
0.120787
0.122074
0.123516
0.12534
0.127437
0.12985
0.132432
0.134966
0.137445
0.13957
0.141254
0.142775
0.143983
0.145373
0.146628
0.148337
0.150497
0.152921
0.155846
0.159038
0.162838
0.166062
0.168243
0.170004
0.172422
0.175045
0.177557
0.180939
0.185208
0.190141
0.192773
0.195782
0.197436
0.199672
0.201922
0.226927
0.323523
0.477944
0.658791
0.781785
0.823155
0.857392
0.871132
0.888745
0.872405
0.874581
0.872609
0.869726
0.872804
0.878346
0.879302
0.87779
0.875182
0.872542
0.871365
0.100896
0.101154
0.101414
0.101681
0.101963
0.102263
0.102579
0.102913
0.10327
0.103671
0.10411
0.10459
0.105063
0.105541
0.106067
0.106636
0.10722
0.107832
0.108429
0.109022
0.109628
0.110261
0.110883
0.111507
0.112138
0.112786
0.113448
0.114129
0.114833
0.11555
0.116261
0.116903
0.117497
0.118046
0.118627
0.11926
0.119959
0.120755
0.121571
0.122521
0.123535
0.124706
0.126001
0.127515
0.129278
0.131279
0.133456
0.135608
0.137808
0.139829
0.141792
0.143557
0.145122
0.146583
0.147774
0.148935
0.149967
0.151169
0.152776
0.154928
0.157772
0.16068
0.164045
0.167254
0.170203
0.172653
0.174089
0.175925
0.178655
0.18134
0.183578
0.186856
0.191141
0.196066
0.19949
0.201214
0.203599
0.206502
0.210432
0.215639
0.218285
0.220767
0.222752
0.270787
0.390091
0.581291
0.755627
0.848591
0.896256
0.901715
0.93259
0.927003
0.919242
0.915463
0.913068
0.913027
0.915224
0.91681
0.915866
0.914424
0.111749
0.111987
0.112243
0.112503
0.11276
0.113051
0.113357
0.113638
0.11391
0.114201
0.11451
0.114826
0.11515
0.115487
0.115835
0.11619
0.116547
0.116907
0.117276
0.117669
0.118077
0.11851
0.118965
0.119457
0.119976
0.120553
0.121183
0.121875
0.122583
0.123329
0.124086
0.124909
0.125797
0.126804
0.127907
0.129107
0.130378
0.131738
0.133157
0.134638
0.136152
0.137782
0.139438
0.14118
0.142817
0.144436
0.145837
0.147117
0.148253
0.149306
0.150375
0.151391
0.152569
0.153843
0.155323
0.157074
0.159046
0.161563
0.16423
0.167392
0.170187
0.172943
0.175401
0.177337
0.179454
0.180551
0.182269
0.184972
0.18812
0.19169
0.195763
0.199926
0.203305
0.205693
0.207702
0.210772
0.214364
0.217924
0.221888
0.225416
0.228433
0.231788
0.235965
0.238664
0.240111
0.255216
0.326152
0.496364
0.693561
0.834971
0.923274
0.929492
0.949326
0.961326
0.955064
0.946496
0.944748
0.943581
0.945495
0.949728
0.12069
0.120964
0.121244
0.121506
0.121764
0.122072
0.122439
0.122822
0.123193
0.123573
0.123975
0.124386
0.12482
0.125298
0.125806
0.126326
0.126863
0.127421
0.128012
0.128629
0.12927
0.129952
0.130671
0.131421
0.132216
0.133046
0.133909
0.134817
0.135771
0.136751
0.137756
0.138808
0.139911
0.141014
0.142128
0.143184
0.144239
0.145254
0.14625
0.147272
0.148311
0.149356
0.150399
0.151451
0.152468
0.153524
0.154501
0.155559
0.156568
0.157731
0.159023
0.160583
0.162507
0.164646
0.167296
0.169885
0.172755
0.175344
0.177941
0.180126
0.181916
0.183599
0.18473
0.186402
0.188244
0.190789
0.194003
0.197023
0.200676
0.204824
0.208799
0.211584
0.213451
0.215179
0.218104
0.222052
0.225741
0.228932
0.231965
0.235028
0.238488
0.241628
0.244422
0.246825
0.249948
0.251351
0.253397
0.254829
0.286379
0.415267
0.61769
0.79365
0.922567
0.952656
0.969572
0.974691
0.975897
0.969453
0.969305
0.970412
0.134428
0.134708
0.135011
0.135339
0.135684
0.136037
0.136394
0.136758
0.137136
0.137533
0.13794
0.138358
0.138785
0.139219
0.139674
0.140139
0.14062
0.141128
0.141647
0.14218
0.142741
0.143323
0.143932
0.14456
0.145201
0.145863
0.146553
0.147252
0.147972
0.148709
0.149471
0.150241
0.151012
0.151771
0.152537
0.153298
0.154084
0.154889
0.155758
0.156643
0.157613
0.158656
0.159831
0.161075
0.162467
0.164034
0.165788
0.167656
0.169534
0.17152
0.173544
0.175743
0.177858
0.180142
0.182098
0.183937
0.185613
0.187142
0.188767
0.190173
0.191826
0.193192
0.195119
0.197512
0.200628
0.204668
0.20844
0.211943
0.215085
0.217515
0.219724
0.221736
0.224167
0.227105
0.230242
0.233262
0.23633
0.239503
0.242273
0.245049
0.247617
0.249927
0.25195
0.254231
0.256537
0.258261
0.259895
0.261728
0.262939
0.263709
0.269438
0.356738
0.529503
0.731471
0.897419
0.964897
0.984533
0.983345
0.991963
0.989546
0.147141
0.147364
0.147578
0.147809
0.148099
0.148458
0.148815
0.149128
0.149442
0.14979
0.150164
0.150555
0.150967
0.151389
0.151813
0.152255
0.152727
0.153215
0.153719
0.154242
0.154786
0.155355
0.15594
0.156548
0.157186
0.157855
0.158553
0.159284
0.160052
0.160863
0.161714
0.162606
0.16355
0.164528
0.16558
0.166654
0.167805
0.168989
0.170241
0.171539
0.172913
0.174352
0.175849
0.177382
0.178994
0.180618
0.18229
0.183857
0.185363
0.186784
0.188136
0.189461
0.190797
0.192219
0.193561
0.195007
0.196324
0.197936
0.199733
0.20207
0.204736
0.20777
0.210956
0.214046
0.21732
0.220111
0.222786
0.225515
0.227388
0.229094
0.230948
0.233435
0.236267
0.239243
0.241969
0.244442
0.246894
0.249022
0.250985
0.252835
0.25493
0.257254
0.259274
0.260833
0.261882
0.263114
0.264211
0.265328
0.266408
0.267234
0.268106
0.268188
0.268263
0.31709
0.45835
0.682178
0.868682
0.962066
0.988333
0.994427
0.162349
0.162648
0.162978
0.163308
0.163628
0.163938
0.164275
0.164668
0.165074
0.165457
0.165831
0.166221
0.16664
0.167079
0.167529
0.16799
0.168467
0.168965
0.169486
0.170037
0.170617
0.171226
0.171865
0.17254
0.173244
0.173986
0.174761
0.175576
0.176423
0.17731
0.178194
0.179113
0.180022
0.180963
0.181901
0.182868
0.18381
0.184785
0.185776
0.186794
0.187856
0.188971
0.190155
0.191355
0.192571
0.193832
0.195154
0.196446
0.197726
0.198893
0.200128
0.201452
0.203098
0.205047
0.207285
0.20962
0.212052
0.214587
0.217209
0.219968
0.222633
0.225233
0.227513
0.229643
0.231448
0.23298
0.234648
0.236449
0.238472
0.240779
0.243263
0.24559
0.247759
0.249981
0.252054
0.253939
0.255418
0.256909
0.25846
0.260257
0.26195
0.263158
0.264006
0.264596
0.265312
0.266029
0.26674
0.267633
0.26847
0.268848
0.269221
0.269527
0.269913
0.270211
0.270366
0.29683
0.413967
0.642596
0.843708
0.963587
0.17874
0.178933