/*--------------------------------*- C++ -*----------------------------------*\
  =========                 |
  \\      /  F ield         | OpenFOAM: The Open Source CFD Toolbox
   \\    /   O peration     | Website:  https://openfoam.org
    \\  /    A nd           | Version:  7
     \\/     M anipulation  |
\*---------------------------------------------------------------------------*/
FoamFile
{
    version     2.0;
    format      ascii;
    class       volVectorField;
    location    "7";
    object      U;
}
// * * * * * * * * * * * * * * * * * * * * * * * * * * * * * * * * * * * * * //

dimensions      [0 1 -1 0 0 0 0];

internalField   nonuniform List<vector> 
90000
(
(2.31659 -1.08155 0)
(1.00718 -0.625378 0)
(0.863621 -0.341123 0)
(0.999581 -0.138479 0)
(1.11291 0.0173523 0)
(1.18378 0.150655 0)
(1.31539 0.236871 0)
(1.43727 0.32717 0)
(1.57692 0.383153 0)
(1.69157 0.43806 0)
(1.78651 0.47808 0)
(1.87891 0.503429 0)
(1.9671 0.523687 0)
(2.05155 0.538303 0)
(2.12892 0.545309 0)
(2.20025 0.549607 0)
(2.26412 0.543732 0)
(2.32304 0.540809 0)
(2.37922 0.540834 0)
(2.43085 0.534637 0)
(2.47799 0.530723 0)
(2.51994 0.528366 0)
(2.55753 0.524881 0)
(2.59153 0.523673 0)
(2.62384 0.517761 0)
(2.65376 0.517172 0)
(2.68255 0.509237 0)
(2.70844 0.506215 0)
(2.73273 0.499799 0)
(2.75593 0.492302 0)
(2.77855 0.484182 0)
(2.79989 0.473869 0)
(2.81934 0.463765 0)
(2.83357 0.449642 0)
(2.84279 0.439359 0)
(2.84949 0.430623 0)
(2.85417 0.423773 0)
(2.85844 0.421499 0)
(2.86297 0.4221 0)
(2.86748 0.422958 0)
(2.87158 0.425363 0)
(2.87626 0.425818 0)
(2.87984 0.429391 0)
(2.88261 0.431021 0)
(2.88348 0.435028 0)
(2.88371 0.438577 0)
(2.8825 0.443548 0)
(2.88156 0.447771 0)
(2.88025 0.451618 0)
(2.8801 0.45524 0)
(2.87944 0.457226 0)
(2.87847 0.457486 0)
(2.87864 0.460512 0)
(2.87876 0.461016 0)
(2.87812 0.459246 0)
(2.87684 0.453656 0)
(2.87538 0.445722 0)
(2.87377 0.43824 0)
(2.87162 0.430367 0)
(2.87282 0.423144 0)
(2.8702 0.412382 0)
(2.87029 0.40803 0)
(2.87004 0.404852 0)
(2.87223 0.400482 0)
(2.87374 0.397713 0)
(2.87432 0.397874 0)
(2.87548 0.397338 0)
(2.87622 0.394786 0)
(2.87641 0.389563 0)
(2.87579 0.382155 0)
(2.87445 0.37235 0)
(2.87261 0.361064 0)
(2.87219 0.351217 0)
(2.87151 0.347736 0)
(2.87075 0.342536 0)
(2.86857 0.341581 0)
(2.86674 0.334736 0)
(2.86537 0.325107 0)
(2.86273 0.311525 0)
(2.86048 0.298061 0)
(2.85817 0.287032 0)
(2.8582 0.277767 0)
(2.85639 0.274953 0)
(2.85274 0.259922 0)
(2.84834 0.245494 0)
(2.84468 0.233939 0)
(2.84411 0.222514 0)
(2.84415 0.218745 0)
(2.84367 0.205062 0)
(2.84137 0.197595 0)
(2.83927 0.19268 0)
(2.83818 0.18123 0)
(2.83863 0.176437 0)
(2.83774 0.168629 0)
(2.83665 0.156733 0)
(2.83618 0.151796 0)
(2.8372 0.145639 0)
(2.83923 0.137834 0)
(2.84057 0.134781 0)
(2.84147 0.125723 0)
(2.62283 -1.88068 0)
(1.93108 -2.12585 0)
(0.486039 -1.36656 0)
(0.315377 -0.78031 0)
(0.300445 -0.370752 0)
(0.307992 -0.332274 0)
(0.379197 -0.236189 0)
(0.4363 -0.0735921 0)
(0.500612 0.0568537 0)
(0.591412 0.134907 0)
(0.692954 0.196311 0)
(0.808074 0.231434 0)
(0.918811 0.277362 0)
(1.02432 0.309019 0)
(1.11243 0.349712 0)
(1.21001 0.369727 0)
(1.31148 0.384209 0)
(1.41504 0.389689 0)
(1.51349 0.395619 0)
(1.60598 0.390255 0)
(1.69457 0.385933 0)
(1.77749 0.378471 0)
(1.85611 0.377072 0)
(1.92941 0.378798 0)
(1.99773 0.384663 0)
(2.06158 0.393734 0)
(2.12155 0.403698 0)
(2.17888 0.412662 0)
(2.23516 0.423804 0)
(2.29106 0.430384 0)
(2.34615 0.441814 0)
(2.40066 0.448604 0)
(2.45249 0.458473 0)
(2.50472 0.465556 0)
(2.56039 0.472322 0)
(2.6124 0.4751 0)
(2.65512 0.477812 0)
(2.68991 0.479272 0)
(2.71859 0.484323 0)
(2.74356 0.488499 0)
(2.76521 0.494523 0)
(2.78465 0.497883 0)
(2.80173 0.503458 0)
(2.81768 0.505684 0)
(2.83035 0.509526 0)
(2.84032 0.510927 0)
(2.84681 0.512234 0)
(2.85076 0.510591 0)
(2.8524 0.509088 0)
(2.85294 0.50353 0)
(2.85327 0.496933 0)
(2.8527 0.484801 0)
(2.85279 0.470607 0)
(2.85409 0.455302 0)
(2.85548 0.442502 0)
(2.85768 0.431067 0)
(2.8593 0.421106 0)
(2.86025 0.415486 0)
(2.85986 0.409348 0)
(2.85997 0.407295 0)
(2.85976 0.402975 0)
(2.86061 0.401569 0)
(2.86208 0.400261 0)
(2.86369 0.399321 0)
(2.86686 0.398553 0)
(2.86978 0.397694 0)
(2.87106 0.395121 0)
(2.87118 0.388318 0)
(2.87146 0.37882 0)
(2.87074 0.365425 0)
(2.87133 0.358812 0)
(2.87107 0.353853 0)
(2.87125 0.348776 0)
(2.87127 0.344467 0)
(2.87126 0.341959 0)
(2.86979 0.338074 0)
(2.86703 0.328176 0)
(2.86418 0.31633 0)
(2.8617 0.301799 0)
(2.86069 0.292393 0)
(2.85851 0.281209 0)
(2.85782 0.27559 0)
(2.85379 0.26513 0)
(2.84933 0.248618 0)
(2.84638 0.238118 0)
(2.84316 0.227064 0)
(2.84362 0.220957 0)
(2.84252 0.214088 0)
(2.84119 0.20031 0)
(2.84024 0.19582 0)
(2.83781 0.18869 0)
(2.83671 0.178011 0)
(2.83673 0.17356 0)
(2.83534 0.163477 0)
(2.83482 0.154842 0)
(2.83479 0.150952 0)
(2.83558 0.143788 0)
(2.83705 0.136999 0)
(2.83803 0.132545 0)
(2.83953 0.123206 0)
(2.6213 -1.87669 0)
(2.62115 -1.87607 0)
(2.62087 -1.87597 0)
(2.58582 -1.85042 0)
(2.02837 -1.84212 0)
(0.670451 -1.12108 0)
(0.500887 -0.694587 0)
(0.420966 -0.337865 0)
(0.385311 -0.234898 0)
(0.416654 -0.241436 0)
(0.477155 -0.192408 0)
(0.494907 -0.0981349 0)
(0.510854 -0.00916762 0)
(0.537043 0.0521859 0)
(0.584588 0.0808375 0)
(0.634954 0.112603 0)
(0.696652 0.138023 0)
(0.75989 0.16658 0)
(0.81819 0.203349 0)
(0.878841 0.234956 0)
(0.945429 0.258084 0)
(1.01735 0.265654 0)
(1.09203 0.265199 0)
(1.16443 0.258294 0)
(1.23516 0.248478 0)
(1.30376 0.240052 0)
(1.3703 0.236159 0)
(1.43712 0.23647 0)
(1.50475 0.243046 0)
(1.57438 0.251406 0)
(1.64688 0.264614 0)
(1.72425 0.279073 0)
(1.80398 0.299757 0)
(1.88494 0.326825 0)
(1.96958 0.352599 0)
(2.05457 0.374871 0)
(2.13821 0.389125 0)
(2.21652 0.399315 0)
(2.28995 0.404224 0)
(2.35841 0.407373 0)
(2.4216 0.409463 0)
(2.47973 0.408631 0)
(2.53369 0.405611 0)
(2.5834 0.399277 0)
(2.62863 0.393871 0)
(2.66925 0.387786 0)
(2.70491 0.384458 0)
(2.73571 0.379792 0)
(2.76207 0.378011 0)
(2.78434 0.375298 0)
(2.80327 0.373875 0)
(2.81843 0.371132 0)
(2.82922 0.368046 0)
(2.83595 0.365476 0)
(2.84106 0.367108 0)
(2.84559 0.368626 0)
(2.84868 0.372775 0)
(2.85116 0.375876 0)
(2.85191 0.380607 0)
(2.85207 0.38525 0)
(2.85271 0.38819 0)
(2.85472 0.392143 0)
(2.85515 0.394572 0)
(2.85679 0.396192 0)
(2.85935 0.395982 0)
(2.86005 0.392523 0)
(2.85948 0.385533 0)
(2.85928 0.376421 0)
(2.86058 0.368096 0)
(2.86122 0.356155 0)
(2.86349 0.351477 0)
(2.86413 0.346207 0)
(2.86489 0.345981 0)
(2.86639 0.343158 0)
(2.8677 0.339038 0)
(2.86722 0.330524 0)
(2.86413 0.314783 0)
(2.86078 0.303444 0)
(2.85861 0.288869 0)
(2.85882 0.286632 0)
(2.85742 0.276378 0)
(2.85581 0.26951 0)
(2.85317 0.2574 0)
(2.8484 0.239741 0)
(2.84575 0.234123 0)
(2.84303 0.222349 0)
(2.842 0.2186 0)
(2.84091 0.20948 0)
(2.83985 0.196326 0)
(2.83942 0.192861 0)
(2.8365 0.18373 0)
(2.83515 0.174868 0)
(2.83365 0.169512 0)
(2.83374 0.159012 0)
(2.83368 0.153789 0)
(2.8333 0.150318 0)
(2.83364 0.141933 0)
(2.83526 0.134987 0)
(2.83606 0.129756 0)
(2.83787 0.120383 0)
(2.61751 -1.87573 0)
(2.61787 -1.87494 0)
(2.61737 -1.87583 0)
(2.61786 -1.87471 0)
(2.61792 -1.87478 0)
(2.61883 -1.87392 0)
(2.49496 -1.82329 0)
(2.26986 -1.55976 0)
(1.51923 -1.30141 0)
(0.804881 -0.760846 0)
(0.710886 -0.444006 0)
(0.592971 -0.199098 0)
(0.572959 -0.116214 0)
(0.584482 -0.137872 0)
(0.638279 -0.128264 0)
(0.666682 -0.0828673 0)
(0.682236 -0.037609 0)
(0.685695 -0.00349915 0)
(0.706026 0.0164476 0)
(0.731132 0.0304186 0)
(0.752473 0.045256 0)
(0.77212 0.0668059 0)
(0.79221 0.0975179 0)
(0.820115 0.12341 0)
(0.851705 0.144317 0)
(0.886084 0.16017 0)
(0.92101 0.174579 0)
(0.956296 0.186778 0)
(0.99106 0.200279 0)
(1.02841 0.211618 0)
(1.06974 0.225632 0)
(1.121 0.232661 0)
(1.18154 0.232393 0)
(1.24793 0.22722 0)
(1.31737 0.228083 0)
(1.39057 0.229895 0)
(1.46749 0.241172 0)
(1.54969 0.24851 0)
(1.63368 0.263436 0)
(1.72389 0.270451 0)
(1.81368 0.285108 0)
(1.90159 0.306988 0)
(1.98582 0.333302 0)
(2.07036 0.350594 0)
(2.15274 0.36902 0)
(2.23508 0.378473 0)
(2.31349 0.392365 0)
(2.38666 0.403826 0)
(2.45525 0.411257 0)
(2.51837 0.416724 0)
(2.57604 0.421604 0)
(2.62775 0.427576 0)
(2.67352 0.43521 0)
(2.71233 0.439094 0)
(2.74352 0.442634 0)
(2.76803 0.444755 0)
(2.78607 0.448246 0)
(2.79955 0.449034 0)
(2.80876 0.447872 0)
(2.8143 0.445056 0)
(2.8185 0.439243 0)
(2.82284 0.431972 0)
(2.82571 0.419904 0)
(2.82852 0.407018 0)
(2.83243 0.390499 0)
(2.83765 0.376492 0)
(2.84085 0.362754 0)
(2.84252 0.354591 0)
(2.84356 0.348703 0)
(2.8463 0.344441 0)
(2.85037 0.344203 0)
(2.85489 0.341745 0)
(2.85906 0.343302 0)
(2.85968 0.340091 0)
(2.85907 0.330841 0)
(2.85735 0.317221 0)
(2.85691 0.306518 0)
(2.85414 0.295236 0)
(2.85463 0.28657 0)
(2.85487 0.28243 0)
(2.8533 0.269598 0)
(2.85231 0.26186 0)
(2.84766 0.242759 0)
(2.84622 0.23249 0)
(2.84336 0.227444 0)
(2.84199 0.219706 0)
(2.84029 0.215125 0)
(2.83793 0.203236 0)
(2.83812 0.193108 0)
(2.83774 0.190279 0)
(2.83468 0.178491 0)
(2.83314 0.170189 0)
(2.83284 0.164997 0)
(2.83311 0.156084 0)
(2.83276 0.15352 0)
(2.83187 0.147671 0)
(2.8326 0.137797 0)
(2.83355 0.131933 0)
(2.83551 0.126581 0)
(2.83699 0.117802 0)
(2.62009 -1.87391 0)
(2.62049 -1.87438 0)
(2.62136 -1.87439 0)
(2.6219 -1.87515 0)
(2.62296 -1.87537 0)
(2.62383 -1.87637 0)
(2.6247 -1.87665 0)
(2.6257 -1.8769 0)
(2.62669 -1.87696 0)
(2.583 -1.84948 0)
(2.40697 -1.71138 0)
(2.08853 -1.4496 0)
(1.74547 -1.08205 0)
(1.10034 -0.636864 0)
(0.94389 -0.35319 0)
(0.840041 -0.134944 0)
(0.769671 -0.0427527 0)
(0.754715 -0.0517753 0)
(0.772875 -0.0583436 0)
(0.800187 -0.0452847 0)
(0.807556 -0.0190053 0)
(0.815167 0.00414096 0)
(0.821828 0.0204491 0)
(0.838537 0.0292115 0)
(0.849463 0.0420328 0)
(0.857402 0.0562258 0)
(0.868795 0.0681515 0)
(0.878216 0.0813045 0)
(0.889639 0.0903947 0)
(0.90141 0.0985987 0)
(0.915179 0.103599 0)
(0.927343 0.11916 0)
(0.942807 0.140922 0)
(0.967466 0.158117 0)
(0.996375 0.171622 0)
(1.02807 0.181589 0)
(1.06262 0.190468 0)
(1.10054 0.201573 0)
(1.14291 0.21284 0)
(1.19232 0.229895 0)
(1.25425 0.225492 0)
(1.32347 0.216586 0)
(1.39138 0.213427 0)
(1.46398 0.220461 0)
(1.54384 0.226098 0)
(1.62934 0.24076 0)
(1.72434 0.242746 0)
(1.81756 0.256197 0)
(1.90823 0.282453 0)
(2.00007 0.300873 0)
(2.09144 0.319706 0)
(2.18509 0.32737 0)
(2.27615 0.339223 0)
(2.36198 0.34648 0)
(2.44221 0.346999 0)
(2.51484 0.34215 0)
(2.57804 0.339992 0)
(2.63141 0.33618 0)
(2.67543 0.332752 0)
(2.71183 0.3304 0)
(2.74188 0.329997 0)
(2.76631 0.329695 0)
(2.78499 0.326938 0)
(2.79895 0.324968 0)
(2.80605 0.321128 0)
(2.81377 0.320672 0)
(2.82117 0.322223 0)
(2.82662 0.327407 0)
(2.83109 0.334215 0)
(2.83536 0.339459 0)
(2.83954 0.344614 0)
(2.8432 0.34528 0)
(2.8462 0.345104 0)
(2.84522 0.330518 0)
(2.84538 0.315993 0)
(2.8454 0.300275 0)
(2.84699 0.295688 0)
(2.84688 0.286021 0)
(2.84864 0.280984 0)
(2.84938 0.274992 0)
(2.84896 0.264156 0)
(2.84616 0.253946 0)
(2.84299 0.237165 0)
(2.84282 0.230324 0)
(2.84124 0.223625 0)
(2.84035 0.215814 0)
(2.83777 0.209672 0)
(2.83481 0.195916 0)
(2.83615 0.191452 0)
(2.83617 0.187196 0)
(2.83369 0.173836 0)
(2.83119 0.167822 0)
(2.83088 0.160593 0)
(2.83217 0.154565 0)
(2.83239 0.152793 0)
(2.83019 0.142731 0)
(2.83096 0.133083 0)
(2.83237 0.129022 0)
(2.83417 0.124053 0)
(2.83577 0.11695 0)
(2.62534 -1.88179 0)
(2.62684 -1.88211 0)
(2.62783 -1.88352 0)
(2.62977 -1.88378 0)
(2.6309 -1.8855 0)
(2.63321 -1.88574 0)
(2.63458 -1.88778 0)
(2.63755 -1.88789 0)
(2.63871 -1.89057 0)
(2.64205 -1.89052 0)
(2.64404 -1.89153 0)
(2.64686 -1.89145 0)
(2.64826 -1.89281 0)
(2.61136 -1.85186 0)
(2.44377 -1.71183 0)
(2.1554 -1.41341 0)
(1.82946 -1.04093 0)
(1.43757 -0.610179 0)
(1.13017 -0.300945 0)
(1.02693 -0.0954351 0)
(0.943423 0.00202012 0)
(0.926281 0.0205298 0)
(0.924096 0.0162237 0)
(0.932651 0.025166 0)
(0.934905 0.0409334 0)
(0.927689 0.0511898 0)
(0.927964 0.0529607 0)
(0.928397 0.0491415 0)
(0.934634 0.0490003 0)
(0.938343 0.0559131 0)
(0.942787 0.0667858 0)
(0.952962 0.0756154 0)
(0.961765 0.0852168 0)
(0.96717 0.095017 0)
(0.972758 0.103865 0)
(0.980959 0.109852 0)
(0.991167 0.115786 0)
(1.00403 0.119446 0)
(1.01797 0.12432 0)
(1.03293 0.12728 0)
(1.04397 0.148335 0)
(1.06841 0.159988 0)
(1.09502 0.169396 0)
(1.12494 0.177601 0)
(1.15869 0.190457 0)
(1.19949 0.203673 0)
(1.25024 0.224764 0)
(1.31281 0.213045 0)
(1.38057 0.203079 0)
(1.45096 0.204796 0)
(1.5303 0.21085 0)
(1.61737 0.228988 0)
(1.71572 0.23436 0)
(1.81599 0.255445 0)
(1.91896 0.290701 0)
(2.02442 0.321219 0)
(2.13079 0.339595 0)
(2.23232 0.356398 0)
(2.32575 0.371989 0)
(2.41227 0.37721 0)
(2.48919 0.377617 0)
(2.55489 0.381052 0)
(2.61115 0.38468 0)
(2.65899 0.387699 0)
(2.69666 0.389667 0)
(2.72476 0.393368 0)
(2.74754 0.391139 0)
(2.7645 0.390248 0)
(2.77804 0.380084 0)
(2.78967 0.371829 0)
(2.79962 0.357108 0)
(2.80872 0.3413 0)
(2.81945 0.314817 0)
(2.82416 0.295067 0)
(2.82631 0.285079 0)
(2.83071 0.276142 0)
(2.83475 0.277646 0)
(2.83791 0.271412 0)
(2.84007 0.269311 0)
(2.84201 0.26214 0)
(2.84071 0.252382 0)
(2.83929 0.241265 0)
(2.83753 0.229646 0)
(2.83814 0.226321 0)
(2.83824 0.218557 0)
(2.83678 0.211711 0)
(2.83327 0.203237 0)
(2.83348 0.189704 0)
(2.83489 0.188994 0)
(2.83447 0.183287 0)
(2.83108 0.171433 0)
(2.82976 0.165554 0)
(2.83087 0.156322 0)
(2.83261 0.153248 0)
(2.83112 0.150038 0)
(2.82934 0.137901 0)
(2.83016 0.130226 0)
(2.83183 0.125135 0)
(2.8337 0.123606 0)
(2.83532 0.118487 0)
(2.64209 -1.88745 0)
(2.64344 -1.88912 0)
(2.64585 -1.88951 0)
(2.64736 -1.89154 0)
(2.6501 -1.89195 0)
(2.65191 -1.89408 0)
(2.65486 -1.8947 0)
(2.65705 -1.8967 0)
(2.65994 -1.89795 0)
(2.66276 -1.89964 0)
(2.66578 -1.90133 0)
(2.66912 -1.90302 0)
(2.67211 -1.90485 0)
(2.6768 -1.90728 0)
(2.67852 -1.90968 0)
(2.68202 -1.90907 0)
(2.68286 -1.91245 0)
(2.66588 -1.87759 0)
(2.50373 -1.72201 0)
(2.24391 -1.4188 0)
(1.95497 -1.00702 0)
(1.72646 -0.634236 0)
(1.43915 -0.301858 0)
(1.20657 -0.0770879 0)
(1.09457 0.0364127 0)
(1.07391 0.0442237 0)
(1.06927 0.0585232 0)
(1.0799 0.0756154 0)
(1.07456 0.0947711 0)
(1.0646 0.105669 0)
(1.05472 0.100278 0)
(1.05621 0.0926951 0)
(1.05358 0.0856816 0)
(1.04323 0.08419 0)
(1.03592 0.0819859 0)
(1.03311 0.0798618 0)
(1.03518 0.0812851 0)
(1.03812 0.0859865 0)
(1.04171 0.0920225 0)
(1.04744 0.101859 0)
(1.05714 0.109719 0)
(1.05694 0.116526 0)
(1.06159 0.120412 0)
(1.06813 0.124954 0)
(1.07902 0.126258 0)
(1.09306 0.129126 0)
(1.10942 0.132272 0)
(1.12116 0.152427 0)
(1.14632 0.161005 0)
(1.17412 0.169977 0)
(1.20719 0.182277 0)
(1.24586 0.193675 0)
(1.29352 0.214985 0)
(1.35754 0.207534 0)
(1.43265 0.201703 0)
(1.51381 0.204441 0)
(1.60504 0.218879 0)
(1.70995 0.221977 0)
(1.81795 0.233983 0)
(1.92168 0.264681 0)
(2.02431 0.287254 0)
(2.12686 0.294177 0)
(2.22652 0.299548 0)
(2.32047 0.303655 0)
(2.40754 0.303204 0)
(2.48504 0.290953 0)
(2.55096 0.287677 0)
(2.60591 0.28061 0)
(2.65196 0.276695 0)
(2.69071 0.277597 0)
(2.72084 0.28053 0)
(2.7438 0.277873 0)
(2.75869 0.280362 0)
(2.77685 0.285508 0)
(2.79122 0.290944 0)
(2.80012 0.293911 0)
(2.80562 0.295849 0)
(2.80959 0.284104 0)
(2.81389 0.27198 0)
(2.81861 0.250053 0)
(2.82305 0.23225 0)
(2.82807 0.219533 0)
(2.83096 0.221413 0)
(2.83268 0.226106 0)
(2.83124 0.217904 0)
(2.82745 0.203615 0)
(2.82718 0.190695 0)
(2.83112 0.181429 0)
(2.83258 0.185274 0)
(2.83091 0.179362 0)
(2.8281 0.168551 0)
(2.82833 0.161249 0)
(2.83051 0.153768 0)
(2.83197 0.15116 0)
(2.83132 0.145442 0)
(2.82862 0.133379 0)
(2.82966 0.127122 0)
(2.83215 0.124677 0)
(2.8348 0.125839 0)
(2.83568 0.121624 0)
(2.65906 -1.90274 0)
(2.66096 -1.90416 0)
(2.66348 -1.90487 0)
(2.66549 -1.90666 0)
(2.66842 -1.90718 0)
(2.67051 -1.9093 0)
(2.67375 -1.90974 0)
(2.676 -1.91185 0)
(2.67928 -1.91249 0)
(2.6816 -1.91487 0)
(2.68524 -1.91544 0)
(2.68783 -1.91796 0)
(2.69183 -1.91853 0)
(2.69449 -1.92119 0)
(2.69854 -1.92177 0)
(2.70139 -1.92461 0)
(2.70505 -1.92504 0)
(2.71102 -1.92973 0)
(2.71284 -1.93236 0)
(2.71658 -1.93094 0)
(2.71717 -1.93507 0)
(2.7134 -1.91712 0)
(2.61893 -1.77207 0)
(2.36092 -1.47369 0)
(2.05739 -1.04221 0)
(1.84943 -0.654017 0)
(1.64659 -0.33346 0)
(1.49177 -0.0800363 0)
(1.27229 0.0638166 0)
(1.20949 0.0804288 0)
(1.20878 0.0858588 0)
(1.22338 0.103705 0)
(1.23014 0.130244 0)
(1.21349 0.143762 0)
(1.19149 0.132069 0)
(1.18853 0.114788 0)
(1.19218 0.111531 0)
(1.18185 0.118244 0)
(1.15977 0.126464 0)
(1.14009 0.121794 0)
(1.13227 0.113761 0)
(1.1254 0.110189 0)
(1.11874 0.1078 0)
(1.11245 0.10166 0)
(1.11404 0.0973068 0)
(1.12018 0.0984875 0)
(1.12639 0.107994 0)
(1.13092 0.118857 0)
(1.13181 0.123707 0)
(1.13866 0.125663 0)
(1.14824 0.130007 0)
(1.15875 0.135031 0)
(1.17494 0.137201 0)
(1.18929 0.160214 0)
(1.21806 0.171557 0)
(1.25082 0.180627 0)
(1.29119 0.191075 0)
(1.34243 0.212124 0)
(1.40846 0.211836 0)
(1.48217 0.198259 0)
(1.55697 0.200649 0)
(1.64158 0.213458 0)
(1.73785 0.220952 0)
(1.84069 0.229628 0)
(1.94419 0.256962 0)
(2.04878 0.289367 0)
(2.15751 0.298266 0)
(2.25565 0.322605 0)
(2.34767 0.327086 0)
(2.43024 0.319864 0)
(2.50014 0.318396 0)
(2.55802 0.313288 0)
(2.60327 0.304254 0)
(2.64297 0.296812 0)
(2.67736 0.287512 0)
(2.70571 0.272085 0)
(2.72923 0.250053 0)
(2.74973 0.227442 0)
(2.76657 0.212693 0)
(2.77868 0.198253 0)
(2.79135 0.213971 0)
(2.79812 0.232461 0)
(2.80554 0.242582 0)
(2.80782 0.237496 0)
(2.80636 0.212748 0)
(2.80644 0.18179 0)
(2.81781 0.174697 0)
(2.82286 0.180941 0)
(2.82368 0.184534 0)
(2.82138 0.17453 0)
(2.82178 0.163091 0)
(2.82459 0.161997 0)
(2.82645 0.155781 0)
(2.82744 0.151283 0)
(2.82676 0.140018 0)
(2.8259 0.130213 0)
(2.82966 0.128447 0)
(2.83266 0.128499 0)
(2.83422 0.127089 0)
(2.8345 0.121358 0)
(2.68434 -1.90999 0)
(2.68671 -1.91061 0)
(2.68862 -1.91217 0)
(2.69099 -1.91325 0)
(2.69332 -1.91462 0)
(2.69577 -1.916 0)
(2.69835 -1.91732 0)
(2.7011 -1.91839 0)
(2.70352 -1.91998 0)
(2.70615 -1.92137 0)
(2.70898 -1.92264 0)
(2.71161 -1.92448 0)
(2.71495 -1.92547 0)
(2.7174 -1.9279 0)
(2.72075 -1.92923 0)
(2.7229 -1.93235 0)
(2.72662 -1.93331 0)
(2.72867 -1.93642 0)
(2.73228 -1.93732 0)
(2.73477 -1.94013 0)
(2.73769 -1.94231 0)
(2.7416 -1.94563 0)
(2.74287 -1.94862 0)
(2.74641 -1.94814 0)
(2.74707 -1.95284 0)
(2.74524 -1.94011 0)
(2.68204 -1.82355 0)
(2.51099 -1.54601 0)
(2.22282 -1.12792 0)
(1.96984 -0.701254 0)
(1.78963 -0.359924 0)
(1.66755 -0.114299 0)
(1.52855 0.0693647 0)
(1.37441 0.114092 0)
(1.32505 0.123677 0)
(1.34646 0.129956 0)
(1.36934 0.151583 0)
(1.37394 0.1724 0)
(1.33597 0.159976 0)
(1.31517 0.132276 0)
(1.31876 0.10554 0)
(1.31434 0.11017 0)
(1.29106 0.122042 0)
(1.26181 0.120164 0)
(1.24971 0.125634 0)
(1.24049 0.134265 0)
(1.22308 0.139974 0)
(1.19877 0.128609 0)
(1.18909 0.114233 0)
(1.18944 0.106224 0)
(1.18933 0.105717 0)
(1.18522 0.108158 0)
(1.18892 0.114655 0)
(1.20052 0.124626 0)
(1.20353 0.132504 0)
(1.21186 0.136223 0)
(1.22584 0.14109 0)
(1.24744 0.145034 0)
(1.26553 0.164618 0)
(1.29149 0.171898 0)
(1.31985 0.176956 0)
(1.35489 0.186043 0)
(1.39903 0.203658 0)
(1.45733 0.202588 0)
(1.53127 0.19255 0)
(1.61273 0.190963 0)
(1.70582 0.2079 0)
(1.80927 0.194933 0)
(1.90681 0.218853 0)
(2.00534 0.237648 0)
(2.1053 0.237668 0)
(2.19914 0.239458 0)
(2.28584 0.248015 0)
(2.36504 0.240665 0)
(2.43554 0.227299 0)
(2.49533 0.226407 0)
(2.54706 0.22904 0)
(2.59307 0.236821 0)
(2.63414 0.248995 0)
(2.66948 0.263141 0)
(2.69531 0.256685 0)
(2.71454 0.236259 0)
(2.73414 0.209256 0)
(2.75076 0.189534 0)
(2.76113 0.160677 0)
(2.76956 0.177481 0)
(2.78239 0.188086 0)
(2.79194 0.184887 0)
(2.79832 0.168022 0)
(2.8026 0.15536 0)
(2.80494 0.168204 0)
(2.80765 0.163954 0)
(2.81143 0.149715 0)
(2.81566 0.144012 0)
(2.8165 0.142746 0)
(2.81854 0.138393 0)
(2.82339 0.1372 0)
(2.82609 0.129383 0)
(2.82754 0.123292 0)
(2.8296 0.114555 0)
(2.70433 -1.92618 0)
(2.70646 -1.92678 0)
(2.70821 -1.92811 0)
(2.71035 -1.92901 0)
(2.71225 -1.93045 0)
(2.71442 -1.93174 0)
(2.71647 -1.93338 0)
(2.71903 -1.93445 0)
(2.72085 -1.93661 0)
(2.72339 -1.9378 0)
(2.72564 -1.93945 0)
(2.72822 -1.9407 0)
(2.73063 -1.94229 0)
(2.73325 -1.9438 0)
(2.73578 -1.94558 0)
(2.73776 -1.94834 0)
(2.74095 -1.94941 0)
(2.74236 -1.953 0)
(2.74602 -1.95342 0)
(2.7476 -1.95695 0)
(2.75183 -1.95677 0)
(2.75309 -1.96106 0)
(2.75807 -1.96022 0)
(2.75938 -1.96513 0)
(2.76512 -1.96341 0)
(2.76627 -1.97052 0)
(2.77027 -1.9685 0)
(2.77291 -1.9698 0)
(2.77653 -1.96984 0)
(2.77806 -1.9677 0)
(2.7266 -1.84711 0)
(2.5921 -1.59338 0)
(2.38075 -1.19307 0)
(2.13909 -0.780226 0)
(1.89242 -0.387999 0)
(1.77902 -0.117123 0)
(1.64425 0.070906 0)
(1.56368 0.134222 0)
(1.45452 0.154199 0)
(1.45099 0.157196 0)
(1.47584 0.171385 0)
(1.50877 0.191813 0)
(1.47889 0.184681 0)
(1.44233 0.158026 0)
(1.44621 0.125541 0)
(1.44445 0.125155 0)
(1.4169 0.126313 0)
(1.37044 0.122914 0)
(1.34995 0.119408 0)
(1.34383 0.130804 0)
(1.32521 0.144878 0)
(1.29294 0.149505 0)
(1.27185 0.140579 0)
(1.26466 0.125761 0)
(1.25634 0.119861 0)
(1.25189 0.115617 0)
(1.25424 0.113827 0)
(1.26518 0.121519 0)
(1.27535 0.134783 0)
(1.27687 0.142033 0)
(1.28291 0.143612 0)
(1.29399 0.146879 0)
(1.30996 0.148041 0)
(1.32422 0.167923 0)
(1.35228 0.177098 0)
(1.38697 0.181834 0)
(1.43016 0.188712 0)
(1.48258 0.206518 0)
(1.54449 0.180635 0)
(1.61176 0.178167 0)
(1.68772 0.188185 0)
(1.77463 0.186496 0)
(1.86655 0.191294 0)
(1.9564 0.210852 0)
(2.04746 0.227023 0)
(2.13499 0.235209 0)
(2.21541 0.232981 0)
(2.29157 0.217717 0)
(2.36379 0.195183 0)
(2.43242 0.189084 0)
(2.49053 0.176513 0)
(2.54284 0.169269 0)
(2.58547 0.181927 0)
(2.62091 0.186478 0)
(2.64836 0.214749 0)
(2.67074 0.211793 0)
(2.69126 0.183251 0)
(2.71565 0.15866 0)
(2.73455 0.160502 0)
(2.74696 0.17414 0)
(2.75429 0.158635 0)
(2.76575 0.132044 0)
(2.77878 0.126652 0)
(2.7851 0.141106 0)
(2.78936 0.14441 0)
(2.79356 0.142489 0)
(2.799 0.132453 0)
(2.80497 0.115235 0)
(2.81198 0.102184 0)
(2.81854 0.0995684 0)
(2.72854 -1.93367 0)
(2.73021 -1.93468 0)
(2.73198 -1.93568 0)
(2.73363 -1.93692 0)
(2.73561 -1.93771 0)
(2.73734 -1.93894 0)
(2.73898 -1.94051 0)
(2.74135 -1.94123 0)
(2.74264 -1.94357 0)
(2.74513 -1.94437 0)
(2.74655 -1.94683 0)
(2.74946 -1.94719 0)
(2.75081 -1.94984 0)
(2.75402 -1.94989 0)
(2.75545 -1.9525 0)
(2.75829 -1.95337 0)
(2.75999 -1.95587 0)
(2.76296 -1.95666 0)
(2.76388 -1.96045 0)
(2.76769 -1.96015 0)
(2.76855 -1.96415 0)
(2.7724 -1.96397 0)
(2.7741 -1.96735 0)
(2.77794 -1.96751 0)
(2.78099 -1.96888 0)
(2.78329 -1.9717 0)
(2.78762 -1.97181 0)
(2.79002 -1.97565 0)
(2.79509 -1.97511 0)
(2.79785 -1.97965 0)
(2.80172 -1.97755 0)
(2.80298 -1.97969 0)
(2.80731 -1.97762 0)
(2.80713 -1.98305 0)
(2.76004 -1.8692 0)
(2.61826 -1.5837 0)
(2.41679 -1.15504 0)
(2.24086 -0.77505 0)
(2.01659 -0.389702 0)
(1.86931 -0.0983732 0)
(1.73084 0.0881068 0)
(1.66475 0.15694 0)
(1.60089 0.168947 0)
(1.56709 0.171169 0)
(1.57854 0.186055 0)
(1.61796 0.199987 0)
(1.60101 0.193673 0)
(1.55174 0.175537 0)
(1.54052 0.147395 0)
(1.54582 0.141205 0)
(1.52364 0.148932 0)
(1.4736 0.147519 0)
(1.44749 0.133441 0)
(1.43281 0.133163 0)
(1.4127 0.142027 0)
(1.38543 0.145725 0)
(1.36777 0.146932 0)
(1.35467 0.154613 0)
(1.33701 0.144202 0)
(1.32474 0.132607 0)
(1.32134 0.126115 0)
(1.32116 0.12261 0)
(1.32611 0.126011 0)
(1.33585 0.135825 0)
(1.33763 0.140573 0)
(1.34747 0.141923 0)
(1.36518 0.146551 0)
(1.38662 0.145551 0)
(1.4002 0.164251 0)
(1.42517 0.161793 0)
(1.4539 0.164131 0)
(1.49353 0.172481 0)
(1.54413 0.170774 0)
(1.60612 0.160473 0)
(1.67708 0.159914 0)
(1.75386 0.155212 0)
(1.83118 0.153481 0)
(1.90744 0.18128 0)
(1.98927 0.198975 0)
(2.07508 0.200107 0)
(2.15524 0.214174 0)
(2.23824 0.211285 0)
(2.31136 0.193156 0)
(2.37147 0.180052 0)
(2.42314 0.154718 0)
(2.47263 0.143264 0)
(2.51769 0.142652 0)
(2.55836 0.157059 0)
(2.59221 0.164427 0)
(2.61943 0.151086 0)
(2.64355 0.136719 0)
(2.66923 0.143145 0)
(2.69287 0.152598 0)
(2.70967 0.143941 0)
(2.72223 0.125976 0)
(2.73507 0.106894 0)
(2.74843 0.0973461 0)
(2.7599 0.0997545 0)
(2.77097 0.114104 0)
(2.78593 0.116098 0)
(2.74507 -1.94954 0)
(2.74623 -1.95091 0)
(2.74808 -1.95143 0)
(2.74902 -1.95331 0)
(2.75123 -1.95338 0)
(2.7522 -1.95519 0)
(2.75427 -1.95557 0)
(2.75547 -1.9573 0)
(2.75757 -1.9579 0)
(2.75882 -1.95976 0)
(2.76089 -1.96061 0)
(2.76226 -1.96264 0)
(2.76465 -1.96338 0)
(2.76625 -1.96533 0)
(2.76916 -1.96545 0)
(2.77044 -1.96806 0)
(2.77355 -1.96801 0)
(2.77543 -1.96973 0)
(2.77746 -1.97145 0)
(2.78039 -1.97186 0)
(2.78216 -1.97412 0)
(2.785 -1.97491 0)
(2.78729 -1.97687 0)
(2.79038 -1.97757 0)
(2.79301 -1.97897 0)
(2.79611 -1.97975 0)
(2.7985 -1.98184 0)
(2.80202 -1.98256 0)
(2.80515 -1.98401 0)
(2.80879 -1.98449 0)
(2.81198 -1.98547 0)
(2.8147 -1.9871 0)
(2.81867 -1.98633 0)
(2.81968 -1.99056 0)
(2.8228 -1.98766 0)
(2.82362 -1.98904 0)
(2.82715 -1.98723 0)
(2.82708 -1.99331 0)
(2.78476 -1.87388 0)
(2.63824 -1.54687 0)
(2.42537 -1.08321 0)
(2.24095 -0.66777 0)
(2.06076 -0.310699 0)
(1.94791 -0.0518376 0)
(1.78683 0.134616 0)
(1.74395 0.15693 0)
(1.69911 0.183348 0)
(1.66468 0.197668 0)
(1.66723 0.205195 0)
(1.69607 0.19373 0)
(1.69442 0.183053 0)
(1.6551 0.163271 0)
(1.63621 0.155514 0)
(1.63144 0.153119 0)
(1.60482 0.158525 0)
(1.56975 0.160006 0)
(1.54823 0.157973 0)
(1.52914 0.152102 0)
(1.49838 0.143054 0)
(1.47394 0.141793 0)
(1.4529 0.14473 0)
(1.42943 0.149918 0)
(1.40802 0.153877 0)
(1.39358 0.141057 0)
(1.38237 0.130208 0)
(1.38129 0.124467 0)
(1.3868 0.121829 0)
(1.39335 0.126058 0)
(1.39845 0.136103 0)
(1.39637 0.134983 0)
(1.40283 0.132511 0)
(1.41764 0.129717 0)
(1.4317 0.145509 0)
(1.455 0.148362 0)
(1.48553 0.15108 0)
(1.52001 0.157978 0)
(1.56431 0.159605 0)
(1.61419 0.127815 0)
(1.67221 0.112005 0)
(1.73462 0.116842 0)
(1.80845 0.110502 0)
(1.87903 0.143485 0)
(1.95525 0.157564 0)
(2.02935 0.155791 0)
(2.09804 0.166903 0)
(2.16642 0.172861 0)
(2.23268 0.159268 0)
(2.29195 0.138508 0)
(2.34646 0.12711 0)
(2.39551 0.130495 0)
(2.4407 0.138777 0)
(2.4823 0.131121 0)
(2.52283 0.121943 0)
(2.55811 0.123222 0)
(2.58607 0.127666 0)
(2.61108 0.128624 0)
(2.63773 0.13326 0)
(2.6616 0.131023 0)
(2.68182 0.127511 0)
(2.71024 0.121391 0)
(2.76581 -1.95537 0)
(2.76725 -1.95596 0)
(2.76847 -1.95701 0)
(2.76993 -1.95778 0)
(2.77125 -1.95879 0)
(2.77276 -1.95951 0)
(2.7742 -1.96033 0)
(2.7758 -1.96102 0)
(2.77716 -1.96229 0)
(2.77899 -1.96305 0)
(2.78032 -1.9646 0)
(2.78196 -1.96581 0)
(2.78376 -1.96687 0)
(2.78529 -1.96849 0)
(2.78768 -1.96879 0)
(2.78922 -1.97039 0)
(2.79133 -1.97127 0)
(2.79361 -1.97198 0)
(2.79534 -1.97365 0)
(2.79761 -1.97461 0)
(2.8 -1.97535 0)
(2.80195 -1.97688 0)
(2.80466 -1.97724 0)
(2.80699 -1.97831 0)
(2.80922 -1.97966 0)
(2.81212 -1.98 0)
(2.81411 -1.98179 0)
(2.81661 -1.983 0)
(2.81896 -1.98453 0)
(2.82268 -1.98386 0)
(2.82369 -1.98691 0)
(2.82651 -1.98709 0)
(2.8283 -1.98852 0)
(2.83021 -1.98918 0)
(2.83099 -1.99131 0)
(2.83353 -1.9908 0)
(2.83468 -1.99263 0)
(2.83636 -1.99656 0)
(2.83957 -1.99463 0)
(2.84347 -1.99299 0)
(2.84369 -1.99656 0)
(2.84175 -1.98551 0)
(2.77135 -1.81446 0)
(2.61992 -1.42674 0)
(2.40174 -0.916636 0)
(2.23277 -0.525916 0)
(2.03912 -0.18149 0)
(1.94285 0.032151 0)
(1.82363 0.169822 0)
(1.7871 0.177005 0)
(1.77394 0.189091 0)
(1.7507 0.206351 0)
(1.76542 0.205428 0)
(1.77581 0.199326 0)
(1.75886 0.17624 0)
(1.73616 0.165641 0)
(1.7233 0.15587 0)
(1.70709 0.157904 0)
(1.67804 0.168632 0)
(1.65425 0.176124 0)
(1.63021 0.175443 0)
(1.59781 0.166507 0)
(1.5693 0.14297 0)
(1.54279 0.128657 0)
(1.51756 0.131859 0)
(1.4983 0.140663 0)
(1.47837 0.151729 0)
(1.45666 0.145898 0)
(1.44145 0.131014 0)
(1.42797 0.116409 0)
(1.42589 0.107753 0)
(1.43005 0.110203 0)
(1.43711 0.11914 0)
(1.43744 0.120224 0)
(1.44737 0.121416 0)
(1.46209 0.119428 0)
(1.47985 0.11734 0)
(1.49555 0.126477 0)
(1.52184 0.130845 0)
(1.55016 0.132946 0)
(1.58906 0.130758 0)
(1.63277 0.109464 0)
(1.67618 0.117115 0)
(1.73292 0.121537 0)
(1.79265 0.11611 0)
(1.85277 0.116258 0)
(1.91287 0.136915 0)
(1.97513 0.15385 0)
(2.03757 0.157035 0)
(2.09739 0.154242 0)
(2.15512 0.141375 0)
(2.21065 0.124589 0)
(2.26618 0.120266 0)
(2.3173 0.113087 0)
(2.3632 0.107006 0)
(2.40401 0.0951603 0)
(2.4454 0.102345 0)
(2.48452 0.108346 0)
(2.51893 0.109532 0)
(2.56972 0.103563 0)
(2.77834 -1.96991 0)
(2.77972 -1.97035 0)
(2.78098 -1.97123 0)
(2.78258 -1.97162 0)
(2.78383 -1.97254 0)
(2.7853 -1.97304 0)
(2.78685 -1.97334 0)
(2.78847 -1.97362 0)
(2.7899 -1.97441 0)
(2.7917 -1.97486 0)
(2.79315 -1.97597 0)
(2.79473 -1.97693 0)
(2.79646 -1.9776 0)
(2.79785 -1.97882 0)
(2.79973 -1.9792 0)
(2.80165 -1.97954 0)
(2.80312 -1.98073 0)
(2.80529 -1.981 0)
(2.80715 -1.98196 0)
(2.80894 -1.98316 0)
(2.81132 -1.98336 0)
(2.81285 -1.98495 0)
(2.81533 -1.985 0)
(2.81738 -1.98589 0)
(2.81925 -1.98723 0)
(2.82181 -1.98738 0)
(2.82429 -1.98759 0)
(2.82553 -1.98934 0)
(2.8271 -1.99072 0)
(2.82947 -1.99074 0)
(2.83078 -1.9922 0)
(2.83242 -1.99321 0)
(2.83408 -1.99419 0)
(2.83639 -1.99392 0)
(2.83647 -1.99636 0)
(2.838 -1.99659 0)
(2.84012 -1.99676 0)
(2.84277 -1.9971 0)
(2.84565 -1.99706 0)
(2.84822 -1.99738 0)
(2.8522 -1.99488 0)
(2.8525 -1.99942 0)
(2.85412 -1.99918 0)
(2.85673 -1.99534 0)
(2.85791 -1.99565 0)
(2.84072 -1.92752 0)
(2.70703 -1.64213 0)
(2.52238 -1.15187 0)
(2.327 -0.665092 0)
(2.17955 -0.305744 0)
(2.02367 -0.0389205 0)
(1.91128 0.12152 0)
(1.87873 0.157097 0)
(1.84364 0.19821 0)
(1.8307 0.210358 0)
(1.83848 0.216625 0)
(1.84049 0.206641 0)
(1.83375 0.184739 0)
(1.81823 0.166426 0)
(1.80311 0.163188 0)
(1.78636 0.169353 0)
(1.75871 0.170815 0)
(1.73166 0.173736 0)
(1.70755 0.174457 0)
(1.6838 0.168314 0)
(1.6622 0.158944 0)
(1.63249 0.146397 0)
(1.59931 0.12982 0)
(1.56862 0.12718 0)
(1.53775 0.130411 0)
(1.51549 0.135803 0)
(1.49683 0.136614 0)
(1.48147 0.122304 0)
(1.4709 0.10771 0)
(1.47106 0.101881 0)
(1.47433 0.0964475 0)
(1.48049 0.0998474 0)
(1.4913 0.108184 0)
(1.49917 0.109304 0)
(1.50951 0.106603 0)
(1.52408 0.111948 0)
(1.54236 0.11661 0)
(1.55871 0.113984 0)
(1.58624 0.118796 0)
(1.62021 0.124959 0)
(1.65751 0.122908 0)
(1.69568 0.0894689 0)
(1.73982 0.0792334 0)
(1.78404 0.0831483 0)
(1.83203 0.0926651 0)
(1.8838 0.0871243 0)
(1.93396 0.101505 0)
(1.98764 0.118699 0)
(2.03925 0.136284 0)
(2.09243 0.137598 0)
(2.14328 0.129832 0)
(2.19352 0.102307 0)
(2.244 0.0869441 0)
(2.28808 0.0964974 0)