/*--------------------------------*- C++ -*----------------------------------*\
  =========                 |
  \\      /  F ield         | OpenFOAM: The Open Source CFD Toolbox
   \\    /   O peration     | Website:  https://openfoam.org
    \\  /    A nd           | Version:  7
     \\/     M anipulation  |
\*---------------------------------------------------------------------------*/
FoamFile
{
    version     2.0;
    format      ascii;
    class       volVectorField;
    location    "7";
    object      U;
}
// * * * * * * * * * * * * * * * * * * * * * * * * * * * * * * * * * * * * * //

dimensions      [0 1 -1 0 0 0 0];

internalField   nonuniform List<vector> 
90000
(
(2.30342 -1.0821 0)
(1.00651 -0.620909 0)
(0.863524 -0.340119 0)
(0.996144 -0.136021 0)
(1.11582 0.0181152 0)
(1.18229 0.1537 0)
(1.31528 0.237044 0)
(1.4374 0.329221 0)
(1.57757 0.382682 0)
(1.69118 0.43842 0)
(1.78561 0.479384 0)
(1.87823 0.500852 0)
(1.96712 0.526091 0)
(2.05185 0.5355 0)
(2.12846 0.548173 0)
(2.20089 0.546332 0)
(2.26393 0.544429 0)
(2.3225 0.542185 0)
(2.37916 0.53961 0)
(2.43067 0.532324 0)
(2.47737 0.530678 0)
(2.51965 0.526816 0)
(2.5571 0.525867 0)
(2.59168 0.519724 0)
(2.62349 0.518938 0)
(2.65342 0.513955 0)
(2.6814 0.509834 0)
(2.70744 0.504147 0)
(2.73218 0.497187 0)
(2.75567 0.491498 0)
(2.77818 0.483463 0)
(2.79914 0.472148 0)
(2.81879 0.463721 0)
(2.83316 0.44838 0)
(2.84254 0.438444 0)
(2.84926 0.430075 0)
(2.85397 0.42322 0)
(2.8581 0.421455 0)
(2.86271 0.421825 0)
(2.86762 0.421835 0)
(2.87199 0.424744 0)
(2.8772 0.42547 0)
(2.8809 0.428939 0)
(2.88326 0.431006 0)
(2.88366 0.43521 0)
(2.88335 0.438894 0)
(2.88238 0.443374 0)
(2.88104 0.447742 0)
(2.87999 0.45186 0)
(2.87988 0.455452 0)
(2.87953 0.457697 0)
(2.8789 0.458117 0)
(2.87907 0.461088 0)
(2.87913 0.461681 0)
(2.87822 0.460152 0)
(2.87652 0.454341 0)
(2.87476 0.446284 0)
(2.87309 0.437905 0)
(2.87156 0.431189 0)
(2.87138 0.42275 0)
(2.87099 0.413947 0)
(2.86965 0.407706 0)
(2.87148 0.403557 0)
(2.87201 0.400717 0)
(2.87304 0.399013 0)
(2.87451 0.39839 0)
(2.87586 0.397116 0)
(2.87645 0.394127 0)
(2.87652 0.389529 0)
(2.87581 0.382861 0)
(2.87407 0.372418 0)
(2.87317 0.360916 0)
(2.8709 0.34954 0)
(2.87065 0.347359 0)
(2.86939 0.342057 0)
(2.86881 0.341519 0)
(2.86699 0.33402 0)
(2.86527 0.324955 0)
(2.86274 0.312183 0)
(2.86037 0.298387 0)
(2.859 0.28744 0)
(2.85684 0.279745 0)
(2.85511 0.271145 0)
(2.85218 0.259252 0)
(2.8483 0.245098 0)
(2.84553 0.234479 0)
(2.84527 0.223857 0)
(2.84524 0.221119 0)
(2.84373 0.207472 0)
(2.84131 0.196863 0)
(2.83954 0.192136 0)
(2.83839 0.179966 0)
(2.8381 0.175993 0)
(2.83704 0.167869 0)
(2.8359 0.157119 0)
(2.83595 0.151392 0)
(2.83704 0.143921 0)
(2.83942 0.138197 0)
(2.84079 0.135967 0)
(2.84165 0.127803 0)
(2.6232 -1.88019 0)
(1.93039 -2.12591 0)
(0.485749 -1.36658 0)
(0.316468 -0.780904 0)
(0.300015 -0.372607 0)
(0.308315 -0.333427 0)
(0.379698 -0.236316 0)
(0.43624 -0.0735426 0)
(0.501711 0.055354 0)
(0.591123 0.137068 0)
(0.693944 0.195118 0)
(0.808528 0.231372 0)
(0.919496 0.276998 0)
(1.02424 0.308214 0)
(1.11211 0.349034 0)
(1.20938 0.372223 0)
(1.3104 0.381353 0)
(1.41424 0.392828 0)
(1.51241 0.393639 0)
(1.60525 0.390686 0)
(1.69316 0.386317 0)
(1.77625 0.377973 0)
(1.85479 0.377056 0)
(1.92834 0.377188 0)
(1.9967 0.384365 0)
(2.06054 0.391781 0)
(2.12016 0.402514 0)
(2.1778 0.411295 0)
(2.23404 0.422961 0)
(2.28998 0.430109 0)
(2.34511 0.441295 0)
(2.3993 0.447219 0)
(2.45093 0.457194 0)
(2.50375 0.46434 0)
(2.5599 0.471875 0)
(2.61224 0.474121 0)
(2.6549 0.477542 0)
(2.68955 0.479188 0)
(2.71834 0.484158 0)
(2.74361 0.488048 0)
(2.76557 0.494462 0)
(2.78546 0.498213 0)
(2.80301 0.503751 0)
(2.81864 0.506169 0)
(2.83064 0.51018 0)
(2.84007 0.510974 0)
(2.84642 0.511901 0)
(2.85035 0.510698 0)
(2.85202 0.50941 0)
(2.85278 0.503864 0)
(2.85317 0.49683 0)
(2.85312 0.485148 0)
(2.85339 0.471173 0)
(2.85465 0.455935 0)
(2.85583 0.44307 0)
(2.85777 0.4319 0)
(2.85895 0.421369 0)
(2.85984 0.414889 0)
(2.85957 0.409944 0)
(2.85946 0.407326 0)
(2.85989 0.403725 0)
(2.86025 0.401037 0)
(2.8621 0.400013 0)
(2.86327 0.399622 0)
(2.8665 0.398939 0)
(2.8694 0.397736 0)
(2.87056 0.395127 0)
(2.87095 0.388654 0)
(2.87104 0.377594 0)
(2.8711 0.367395 0)
(2.87028 0.357363 0)
(2.87195 0.353804 0)
(2.8701 0.34765 0)
(2.87019 0.345999 0)
(2.86991 0.341831 0)
(2.86963 0.338597 0)
(2.86743 0.328195 0)
(2.86461 0.31579 0)
(2.86282 0.303751 0)
(2.85995 0.290363 0)
(2.85921 0.284142 0)
(2.85664 0.273543 0)
(2.85449 0.262896 0)
(2.84988 0.249261 0)
(2.84705 0.235939 0)
(2.84378 0.226437 0)
(2.84429 0.221471 0)
(2.84325 0.216557 0)
(2.84056 0.201969 0)
(2.83906 0.194769 0)
(2.8381 0.188475 0)
(2.83677 0.177417 0)
(2.8363 0.173468 0)
(2.83523 0.163413 0)
(2.83511 0.155468 0)
(2.83489 0.149973 0)
(2.83588 0.143882 0)
(2.83796 0.136865 0)
(2.8386 0.134006 0)
(2.8397 0.125277 0)
(2.62081 -1.87686 0)
(2.62069 -1.87627 0)
(2.62039 -1.87625 0)
(2.5856 -1.85065 0)
(2.02163 -1.84458 0)
(0.668323 -1.11956 0)
(0.500298 -0.693352 0)
(0.420466 -0.337115 0)
(0.385054 -0.236157 0)
(0.417272 -0.242244 0)
(0.477856 -0.1924 0)
(0.494703 -0.097677 0)
(0.511141 -0.00886565 0)
(0.537176 0.0525562 0)
(0.584472 0.0815637 0)
(0.634672 0.113339 0)
(0.696206 0.138022 0)
(0.759028 0.167333 0)
(0.817858 0.202384 0)
(0.877609 0.235699 0)
(0.944551 0.256964 0)
(1.01619 0.266078 0)
(1.09106 0.265185 0)
(1.1634 0.258093 0)
(1.2342 0.249146 0)
(1.30277 0.239911 0)
(1.3691 0.235784 0)
(1.43578 0.2365 0)
(1.50332 0.242392 0)
(1.57292 0.250848 0)
(1.64546 0.264016 0)
(1.72273 0.277876 0)
(1.8025 0.298314 0)
(1.88363 0.325993 0)
(1.96862 0.35097 0)
(2.05376 0.37325 0)
(2.13735 0.388256 0)
(2.21594 0.397771 0)
(2.28967 0.403104 0)
(2.35834 0.406261 0)
(2.42176 0.408777 0)
(2.48013 0.408125 0)
(2.53428 0.405096 0)
(2.58384 0.399607 0)
(2.62877 0.394409 0)
(2.66914 0.388426 0)
(2.70457 0.384851 0)
(2.73538 0.380198 0)
(2.76206 0.378126 0)
(2.78474 0.375852 0)
(2.80389 0.37394 0)
(2.81932 0.371723 0)
(2.83027 0.368794 0)
(2.83668 0.366513 0)
(2.84135 0.368004 0)
(2.84535 0.370161 0)
(2.84854 0.372605 0)
(2.8506 0.376642 0)
(2.8515 0.380556 0)
(2.8519 0.385271 0)
(2.85249 0.388603 0)
(2.8545 0.392095 0)
(2.85494 0.394644 0)
(2.85645 0.396402 0)
(2.85921 0.395931 0)
(2.85982 0.39256 0)
(2.85901 0.386189 0)
(2.85866 0.376582 0)
(2.86002 0.367186 0)
(2.86187 0.358158 0)
(2.86217 0.349259 0)
(2.86379 0.347421 0)
(2.86479 0.345498 0)
(2.86637 0.343812 0)
(2.86725 0.338843 0)
(2.86674 0.33017 0)
(2.8642 0.315763 0)
(2.86184 0.302538 0)
(2.85836 0.289137 0)
(2.85801 0.283481 0)
(2.85789 0.280147 0)
(2.85555 0.267122 0)
(2.85331 0.257371 0)
(2.84854 0.240439 0)
(2.84661 0.232595 0)
(2.84354 0.221241 0)
(2.84281 0.218227 0)
(2.84211 0.2111 0)
(2.84001 0.196276 0)
(2.83807 0.191955 0)
(2.83639 0.184974 0)
(2.83501 0.175069 0)
(2.83423 0.170008 0)
(2.83366 0.159965 0)
(2.83383 0.154678 0)
(2.83368 0.150841 0)
(2.83461 0.143121 0)
(2.83567 0.135979 0)
(2.83659 0.130526 0)
(2.83857 0.121881 0)
(2.61716 -1.87533 0)
(2.61751 -1.87456 0)
(2.61701 -1.87537 0)
(2.61752 -1.87429 0)
(2.61757 -1.87445 0)
(2.61848 -1.87366 0)
(2.49419 -1.82291 0)
(2.26984 -1.55916 0)
(1.51037 -1.29905 0)
(0.801743 -0.759442 0)
(0.709985 -0.441834 0)
(0.591899 -0.197679 0)
(0.572667 -0.116354 0)
(0.584897 -0.137344 0)
(0.638606 -0.126764 0)
(0.666963 -0.0812868 0)
(0.682227 -0.0364126 0)
(0.686111 -0.00279792 0)
(0.706572 0.0167201 0)
(0.731174 0.0311573 0)
(0.752962 0.0452127 0)
(0.771875 0.0674601 0)
(0.792253 0.0979772 0)
(0.819871 0.124152 0)
(0.851494 0.144737 0)
(0.885694 0.160209 0)
(0.920413 0.174325 0)
(0.955621 0.186362 0)
(0.99051 0.199604 0)
(1.02785 0.211342 0)
(1.06931 0.225275 0)
(1.12051 0.232152 0)
(1.18092 0.232006 0)
(1.24727 0.226587 0)
(1.31663 0.227254 0)
(1.38964 0.229974 0)
(1.46681 0.241245 0)
(1.54914 0.248421 0)
(1.63324 0.263738 0)
(1.72366 0.270273 0)
(1.81354 0.284773 0)
(1.90141 0.306298 0)
(1.98556 0.333054 0)
(2.07028 0.350538 0)
(2.15295 0.369157 0)
(2.23548 0.378672 0)
(2.31396 0.392121 0)
(2.3873 0.403551 0)
(2.45628 0.411207 0)
(2.51984 0.417137 0)
(2.57781 0.42157 0)
(2.62968 0.428073 0)
(2.67527 0.435605 0)
(2.71353 0.440062 0)
(2.74404 0.444372 0)
(2.76789 0.445938 0)
(2.78609 0.448089 0)
(2.79916 0.450077 0)
(2.80836 0.447479 0)
(2.81419 0.445292 0)
(2.81841 0.440026 0)
(2.82273 0.432394 0)
(2.82534 0.420256 0)
(2.82826 0.407576 0)
(2.83235 0.390716 0)
(2.8375 0.376129 0)
(2.84077 0.364211 0)
(2.8422 0.353463 0)
(2.84343 0.349504 0)
(2.84562 0.345176 0)
(2.8497 0.342873 0)
(2.8549 0.34195 0)
(2.85883 0.34248 0)
(2.85931 0.339783 0)
(2.85872 0.329977 0)
(2.85775 0.317691 0)
(2.85601 0.304673 0)
(2.8558 0.296968 0)
(2.85439 0.284651 0)
(2.85499 0.281515 0)
(2.85327 0.273093 0)
(2.85153 0.258436 0)
(2.84858 0.248562 0)
(2.84501 0.230102 0)
(2.84382 0.228013 0)
(2.84217 0.218155 0)
(2.84119 0.213872 0)
(2.83849 0.204063 0)
(2.83743 0.192046 0)
(2.83692 0.189734 0)
(2.83428 0.180513 0)
(2.83335 0.171174 0)
(2.83289 0.165339 0)
(2.83305 0.15723 0)
(2.83289 0.155655 0)
(2.83248 0.148919 0)
(2.83289 0.141254 0)
(2.83376 0.133199 0)
(2.83446 0.126835 0)
(2.83593 0.118069 0)
(2.61949 -1.87353 0)
(2.61981 -1.87412 0)
(2.62067 -1.87412 0)
(2.62113 -1.87497 0)
(2.62231 -1.87506 0)
(2.62321 -1.87619 0)
(2.62428 -1.87623 0)
(2.62527 -1.87659 0)
(2.62622 -1.87681 0)
(2.58159 -1.84889 0)
(2.40446 -1.70986 0)
(2.08528 -1.44679 0)
(1.7382 -1.07709 0)
(1.09799 -0.633523 0)
(0.94368 -0.349957 0)
(0.839963 -0.132728 0)
(0.770098 -0.0414814 0)
(0.755284 -0.0507035 0)
(0.773257 -0.0569655 0)
(0.800498 -0.0440967 0)
(0.807829 -0.0180119 0)
(0.815488 0.00512874 0)
(0.822195 0.0213284 0)
(0.838578 0.0299714 0)
(0.849293 0.0423847 0)
(0.85712 0.0562894 0)
(0.86853 0.0678874 0)
(0.87813 0.0808637 0)
(0.88974 0.0898549 0)
(0.90166 0.0982172 0)
(0.91554 0.103112 0)
(0.927722 0.118597 0)
(0.943153 0.140187 0)
(0.96776 0.157122 0)
(0.996585 0.170634 0)
(1.0283 0.180527 0)
(1.06297 0.189113 0)
(1.10082 0.200111 0)
(1.14325 0.211071 0)
(1.19255 0.227811 0)
(1.25414 0.224026 0)
(1.32317 0.215225 0)
(1.39108 0.212184 0)
(1.46387 0.219634 0)
(1.5441 0.225361 0)
(1.62996 0.24035 0)
(1.72539 0.242213 0)
(1.81903 0.25556 0)
(1.90995 0.281605 0)
(2.00201 0.300749 0)
(2.09364 0.319096 0)
(2.18724 0.328207 0)
(2.278 0.340221 0)
(2.36373 0.347802 0)
(2.44373 0.348354 0)
(2.51595 0.343475 0)
(2.57891 0.339733 0)
(2.63194 0.337282 0)
(2.67572 0.332653 0)
(2.71213 0.330649 0)
(2.74213 0.330772 0)
(2.76632 0.330387 0)
(2.7847 0.327201 0)
(2.79869 0.325158 0)
(2.80584 0.321641 0)
(2.81364 0.320258 0)
(2.82109 0.323409 0)
(2.82666 0.327356 0)
(2.83075 0.333238 0)
(2.83484 0.340503 0)
(2.83904 0.344091 0)
(2.84251 0.345015 0)
(2.84599 0.344649 0)
(2.84547 0.330156 0)
(2.84533 0.314361 0)
(2.84569 0.301845 0)
(2.84662 0.292397 0)
(2.84809 0.288655 0)
(2.8481 0.278628 0)
(2.8498 0.275456 0)
(2.84886 0.264907 0)
(2.84675 0.253462 0)
(2.84317 0.240443 0)
(2.84137 0.227554 0)
(2.84153 0.225295 0)
(2.84032 0.21561 0)
(2.83906 0.209003 0)
(2.83549 0.196537 0)
(2.83562 0.190693 0)
(2.83584 0.187686 0)
(2.83325 0.175329 0)
(2.8315 0.168668 0)
(2.8309 0.161275 0)
(2.83276 0.156337 0)
(2.83242 0.155024 0)
(2.83052 0.144579 0)
(2.83096 0.136235 0)
(2.83183 0.128849 0)
(2.83416 0.12326 0)
(2.83611 0.114352 0)
(2.62482 -1.88116 0)
(2.62631 -1.88147 0)
(2.62721 -1.88294 0)
(2.62918 -1.88311 0)
(2.6302 -1.88501 0)
(2.63271 -1.88509 0)
(2.63404 -1.88734 0)
(2.63717 -1.88741 0)
(2.63823 -1.8904 0)
(2.64147 -1.89048 0)
(2.64358 -1.89122 0)
(2.64639 -1.89108 0)
(2.64796 -1.89216 0)
(2.61022 -1.85017 0)
(2.44161 -1.70904 0)
(2.15269 -1.40985 0)
(1.82724 -1.03666 0)
(1.43538 -0.606685 0)
(1.12956 -0.298317 0)
(1.02676 -0.0938673 0)
(0.943957 0.00302275 0)
(0.927054 0.0214715 0)
(0.924561 0.0175994 0)
(0.932803 0.0260826 0)
(0.934853 0.041454 0)
(0.927761 0.051638 0)
(0.928025 0.0532869 0)
(0.928384 0.0491671 0)
(0.934761 0.0486921 0)
(0.938719 0.0554581 0)
(0.943386 0.0662459 0)
(0.953563 0.0748723 0)
(0.962424 0.0841669 0)
(0.967636 0.0937952 0)
(0.973182 0.102484 0)
(0.98132 0.108215 0)
(0.991497 0.114043 0)
(1.00439 0.11759 0)
(1.01833 0.122333 0)
(1.03325 0.125322 0)
(1.04424 0.146148 0)
(1.06853 0.157908 0)
(1.095 0.167806 0)
(1.12503 0.176224 0)
(1.15886 0.189661 0)
(1.20004 0.203091 0)
(1.25115 0.224037 0)
(1.31394 0.212632 0)
(1.38188 0.20347 0)
(1.45236 0.205685 0)
(1.53184 0.211698 0)
(1.61887 0.230336 0)
(1.71745 0.234939 0)
(1.81792 0.256967 0)
(1.9212 0.292724 0)
(2.02684 0.321543 0)
(2.13265 0.339393 0)
(2.23387 0.355477 0)
(2.32709 0.371098 0)
(2.41328 0.377327 0)
(2.48993 0.37861 0)
(2.55518 0.38187 0)
(2.61109 0.385039 0)
(2.65889 0.387937 0)
(2.69664 0.389916 0)
(2.72488 0.394094 0)
(2.74757 0.39152 0)
(2.76469 0.388987 0)
(2.77771 0.38166 0)
(2.78911 0.371191 0)
(2.79915 0.357389 0)
(2.8078 0.34078 0)
(2.81895 0.314594 0)
(2.82404 0.293892 0)
(2.82617 0.284659 0)
(2.83022 0.276953 0)
(2.83518 0.274756 0)
(2.83839 0.273403 0)
(2.83943 0.267613 0)
(2.84185 0.262974 0)
(2.84068 0.250611 0)
(2.83955 0.243282 0)
(2.83762 0.228649 0)
(2.83715 0.225045 0)
(2.83858 0.221274 0)
(2.83728 0.211298 0)
(2.83507 0.202945 0)
(2.83401 0.190371 0)
(2.8346 0.189143 0)
(2.83448 0.184876 0)
(2.83125 0.17274 0)
(2.83007 0.166682 0)
(2.83109 0.157705 0)
(2.83284 0.155888 0)
(2.83179 0.151397 0)
(2.82903 0.138423 0)
(2.82963 0.130844 0)
(2.83059 0.124836 0)
(2.83321 0.119654 0)
(2.83536 0.112916 0)
(2.64122 -1.88727 0)
(2.64246 -1.88911 0)
(2.64491 -1.88938 0)
(2.64643 -1.89126 0)
(2.64904 -1.8918 0)
(2.65091 -1.89382 0)
(2.65383 -1.89462 0)
(2.65608 -1.89668 0)
(2.65908 -1.89789 0)
(2.66169 -1.9 0)
(2.66496 -1.9014 0)
(2.66826 -1.90319 0)
(2.67164 -1.90456 0)
(2.67626 -1.90688 0)
(2.67793 -1.90933 0)
(2.6814 -1.90874 0)
(2.68219 -1.91221 0)
(2.66479 -1.87634 0)
(2.50164 -1.71986 0)
(2.24181 -1.41585 0)
(1.95374 -1.00411 0)
(1.72563 -0.631513 0)
(1.4405 -0.300091 0)
(1.20737 -0.0753846 0)
(1.09491 0.0372614 0)
(1.0739 0.0448522 0)
(1.06933 0.0590942 0)
(1.07999 0.0757792 0)
(1.07473 0.094658 0)
(1.06488 0.105136 0)
(1.05545 0.0998725 0)
(1.05669 0.0921191 0)
(1.05441 0.0849743 0)
(1.04377 0.0833617 0)
(1.03645 0.0809855 0)
(1.03348 0.0786361 0)
(1.03547 0.0797756 0)
(1.0385 0.084071 0)
(1.04188 0.0901336 0)
(1.04763 0.0997089 0)
(1.05724 0.108205 0)
(1.05714 0.115416 0)
(1.06189 0.119481 0)
(1.0686 0.124147 0)
(1.0797 0.125606 0)
(1.09396 0.128365 0)
(1.11042 0.131328 0)
(1.12199 0.151812 0)
(1.14739 0.159998 0)
(1.17481 0.169362 0)
(1.20768 0.181376 0)
(1.2459 0.19335 0)
(1.29391 0.21461 0)
(1.35838 0.206733 0)
(1.43389 0.201283 0)
(1.51487 0.204877 0)
(1.6061 0.218788 0)
(1.7108 0.224409 0)
(1.82006 0.231277 0)
(1.9231 0.261515 0)
(2.02551 0.286622 0)
(2.128 0.294344 0)
(2.22739 0.299368 0)
(2.3211 0.303614 0)
(2.40816 0.303211 0)
(2.48575 0.290656 0)
(2.55148 0.287926 0)
(2.60609 0.280079 0)
(2.65183 0.276886 0)
(2.69022 0.277445 0)
(2.72038 0.27998 0)
(2.74327 0.276566 0)
(2.75826 0.279905 0)
(2.77654 0.286892 0)
(2.79065 0.291867 0)
(2.80017 0.293687 0)
(2.80603 0.295207 0)
(2.8093 0.286237 0)
(2.81374 0.270643 0)
(2.81897 0.248369 0)
(2.823 0.227933 0)
(2.82654 0.222989 0)
(2.83082 0.220967 0)
(2.83192 0.225198 0)
(2.83111 0.219724 0)
(2.8281 0.203193 0)
(2.82866 0.190986 0)
(2.83145 0.18217 0)
(2.8329 0.185841 0)
(2.83136 0.180706 0)
(2.8287 0.169423 0)
(2.8287 0.16223 0)
(2.831 0.156041 0)
(2.83173 0.153695 0)
(2.83046 0.146279 0)
(2.82835 0.133018 0)
(2.82942 0.127017 0)
(2.83064 0.120542 0)
(2.83311 0.11924 0)
(2.83518 0.116651 0)
(2.6583 -1.9023 0)
(2.66014 -1.90372 0)
(2.66255 -1.90452 0)
(2.66468 -1.90604 0)
(2.66743 -1.90678 0)
(2.66957 -1.90882 0)
(2.67283 -1.90929 0)
(2.67514 -1.91141 0)
(2.67852 -1.912 0)
(2.68076 -1.91467 0)
(2.68454 -1.9151 0)
(2.68721 -1.9176 0)
(2.69131 -1.91806 0)
(2.69394 -1.92081 0)
(2.69798 -1.92153 0)
(2.70066 -1.92459 0)
(2.70423 -1.92513 0)
(2.7098 -1.93007 0)
(2.71185 -1.93238 0)
(2.7157 -1.93081 0)
(2.7166 -1.9347 0)
(2.7129 -1.916 0)
(2.61865 -1.77096 0)
(2.36093 -1.47163 0)
(2.05858 -1.04109 0)
(1.85009 -0.653461 0)
(1.64745 -0.333357 0)
(1.49423 -0.0803106 0)
(1.27321 0.064874 0)
(1.21027 0.078846 0)
(1.20853 0.0859786 0)
(1.22412 0.102814 0)
(1.23033 0.129684 0)
(1.21344 0.143179 0)
(1.19175 0.131297 0)
(1.18892 0.113918 0)
(1.19247 0.110572 0)
(1.18203 0.117272 0)
(1.15964 0.125298 0)
(1.14006 0.120756 0)
(1.13236 0.112905 0)
(1.12567 0.109399 0)
(1.11914 0.106844 0)
(1.11288 0.100564 0)
(1.11488 0.0964227 0)
(1.12119 0.0976998 0)
(1.12726 0.107318 0)
(1.13177 0.117564 0)
(1.13218 0.122591 0)
(1.13883 0.124785 0)
(1.148 0.12945 0)
(1.15815 0.134452 0)
(1.17449 0.136727 0)
(1.18906 0.159849 0)
(1.2182 0.171864 0)
(1.25083 0.181765 0)
(1.29138 0.192931 0)
(1.34286 0.211599 0)
(1.40894 0.219548 0)
(1.4826 0.204077 0)
(1.55796 0.203418 0)
(1.64237 0.214043 0)
(1.73846 0.220156 0)
(1.84126 0.228478 0)
(1.94475 0.256096 0)
(2.04948 0.289667 0)
(2.15819 0.298832 0)
(2.25605 0.322963 0)
(2.3478 0.328176 0)
(2.4301 0.320913 0)
(2.4997 0.318568 0)
(2.55742 0.313205 0)
(2.6024 0.304212 0)
(2.64232 0.294337 0)
(2.67687 0.288538 0)
(2.70551 0.271207 0)
(2.72948 0.250906 0)
(2.74928 0.228121 0)
(2.76623 0.213607 0)
(2.77733 0.201183 0)
(2.79052 0.209611 0)
(2.79848 0.229252 0)
(2.80532 0.240114 0)
(2.80806 0.238116 0)
(2.80627 0.214681 0)
(2.80725 0.180407 0)
(2.81878 0.174796 0)
(2.82325 0.18096 0)
(2.82424 0.184144 0)
(2.82199 0.173182 0)
(2.82216 0.159928 0)
(2.8251 0.161565 0)
(2.82628 0.155074 0)
(2.82781 0.147837 0)
(2.82681 0.137157 0)
(2.826 0.126278 0)
(2.82837 0.123361 0)
(2.83105 0.123359 0)
(2.83401 0.125133 0)
(2.83513 0.122552 0)
(2.68365 -1.90953 0)
(2.68591 -1.91018 0)
(2.68775 -1.91175 0)
(2.69026 -1.9125 0)
(2.69224 -1.9143 0)
(2.69487 -1.91533 0)
(2.69738 -1.91671 0)
(2.7 -1.91809 0)
(2.70283 -1.91931 0)
(2.70542 -1.92112 0)
(2.70857 -1.92217 0)
(2.71146 -1.92364 0)
(2.71455 -1.92495 0)
(2.71717 -1.92709 0)
(2.72037 -1.92864 0)
(2.72238 -1.93194 0)
(2.72598 -1.93306 0)
(2.72799 -1.93617 0)
(2.7315 -1.93727 0)
(2.73374 -1.94056 0)
(2.73697 -1.94247 0)
(2.74093 -1.94584 0)
(2.74244 -1.94858 0)
(2.74604 -1.94797 0)
(2.74693 -1.95225 0)
(2.74516 -1.93934 0)
(2.68219 -1.82298 0)
(2.51277 -1.54689 0)
(2.22414 -1.12814 0)
(1.974 -0.704989 0)
(1.78805 -0.361683 0)
(1.67033 -0.116202 0)
(1.52811 0.0702599 0)
(1.37475 0.114682 0)
(1.32498 0.122312 0)
(1.34675 0.128801 0)
(1.36953 0.150636 0)
(1.37338 0.1721 0)
(1.33516 0.159578 0)
(1.3152 0.131411 0)
(1.31912 0.10457 0)
(1.31523 0.109337 0)
(1.29165 0.122231 0)
(1.26171 0.11952 0)
(1.25034 0.125327 0)
(1.2416 0.133935 0)
(1.22415 0.139712 0)
(1.19935 0.127832 0)
(1.18888 0.112818 0)
(1.18956 0.1048 0)
(1.18923 0.104867 0)
(1.18464 0.107593 0)
(1.18839 0.114329 0)
(1.20013 0.125009 0)
(1.20373 0.133343 0)
(1.21199 0.137128 0)
(1.22594 0.14158 0)
(1.24684 0.14605 0)
(1.26718 0.160347 0)
(1.29147 0.169937 0)
(1.31921 0.176088 0)
(1.35422 0.185902 0)
(1.39881 0.203859 0)
(1.45748 0.2035 0)
(1.53163 0.194329 0)
(1.61331 0.193076 0)
(1.70645 0.209511 0)
(1.80967 0.196418 0)
(1.90724 0.219665 0)
(2.00549 0.237581 0)
(2.10461 0.238304 0)
(2.19866 0.238017 0)
(2.28456 0.246203 0)
(2.36319 0.240354 0)
(2.43428 0.229309 0)
(2.49526 0.225526 0)
(2.5469 0.228828 0)
(2.59295 0.237818 0)
(2.63367 0.249772 0)
(2.66808 0.26316 0)
(2.69522 0.261067 0)
(2.71455 0.239214 0)
(2.73406 0.206773 0)
(2.75121 0.187947 0)
(2.76053 0.162508 0)
(2.76944 0.174558 0)
(2.78256 0.187305 0)
(2.79233 0.184477 0)
(2.79843 0.167113 0)
(2.80344 0.151155 0)
(2.80589 0.164212 0)
(2.80782 0.15934 0)
(2.81142 0.142301 0)
(2.81529 0.134898 0)
(2.81704 0.132193 0)
(2.8199 0.130905 0)
(2.82307 0.133587 0)
(2.82615 0.132288 0)
(2.82879 0.130014 0)
(2.83051 0.122993 0)
(2.70374 -1.92562 0)
(2.70581 -1.92619 0)
(2.70744 -1.92759 0)
(2.70964 -1.92833 0)
(2.71137 -1.92995 0)
(2.71368 -1.93092 0)
(2.71565 -1.93253 0)
(2.718 -1.9339 0)
(2.7201 -1.93597 0)
(2.72292 -1.93727 0)
(2.72522 -1.93935 0)
(2.7282 -1.94028 0)
(2.73054 -1.94192 0)
(2.73292 -1.94353 0)
(2.7359 -1.94451 0)
(2.73735 -1.94779 0)
(2.7406 -1.94878 0)
(2.74215 -1.95221 0)
(2.74556 -1.95307 0)
(2.74714 -1.95668 0)
(2.75122 -1.95684 0)
(2.75246 -1.96127 0)
(2.75738 -1.96056 0)
(2.75857 -1.96582 0)
(2.76447 -1.96377 0)
(2.76594 -1.97056 0)
(2.76988 -1.96799 0)
(2.77255 -1.96899 0)
(2.77642 -1.96872 0)
(2.77798 -1.96763 0)
(2.72666 -1.8484 0)
(2.59314 -1.59604 0)
(2.38193 -1.19402 0)
(2.14165 -0.782538 0)
(1.89403 -0.39102 0)
(1.78006 -0.119531 0)
(1.64578 0.068924 0)
(1.56309 0.136402 0)
(1.45395 0.154065 0)
(1.45113 0.155965 0)
(1.47607 0.169603 0)
(1.5101 0.190706 0)
(1.47947 0.185433 0)
(1.44141 0.158411 0)
(1.44624 0.123866 0)
(1.44461 0.121869 0)
(1.41857 0.125834 0)
(1.37174 0.122529 0)
(1.34996 0.118891 0)
(1.3429 0.130808 0)
(1.32501 0.145427 0)
(1.29254 0.149552 0)
(1.27125 0.140369 0)
(1.26426 0.125472 0)
(1.25662 0.120366 0)
(1.25222 0.116469 0)
(1.25426 0.114617 0)
(1.26401 0.121963 0)
(1.27354 0.132531 0)
(1.27612 0.140723 0)
(1.2823 0.143378 0)
(1.29382 0.146932 0)
(1.30986 0.148659 0)
(1.32404 0.169065 0)
(1.3524 0.177759 0)
(1.38693 0.182129 0)
(1.42989 0.189167 0)
(1.48243 0.206913 0)
(1.54441 0.180352 0)
(1.61139 0.179156 0)
(1.68756 0.186404 0)
(1.77379 0.187036 0)
(1.86493 0.193457 0)
(1.95532 0.211291 0)
(2.04684 0.224809 0)
(2.13461 0.231843 0)
(2.21507 0.235105 0)
(2.29178 0.214789 0)
(2.36361 0.19296 0)
(2.43192 0.183752 0)
(2.49103 0.174865 0)
(2.54258 0.170235 0)
(2.58483 0.183261 0)
(2.61996 0.187801 0)
(2.64723 0.211158 0)
(2.66965 0.210738 0)
(2.6916 0.185238 0)
(2.71617 0.158871 0)
(2.73474 0.157204 0)
(2.74814 0.175092 0)
(2.75612 0.162481 0)
(2.76493 0.136572 0)
(2.77621 0.131201 0)
(2.78375 0.145176 0)
(2.79037 0.150586 0)
(2.79634 0.150524 0)
(2.80133 0.145023 0)
(2.80525 0.131545 0)
(2.81037 0.120153 0)
(2.81807 0.107265 0)
(2.72821 -1.93296 0)
(2.72971 -1.93404 0)
(2.73132 -1.93511 0)
(2.73306 -1.93611 0)
(2.73487 -1.93712 0)
(2.73667 -1.93828 0)
(2.73837 -1.93978 0)
(2.74053 -1.94086 0)
(2.74218 -1.94298 0)
(2.74505 -1.94366 0)
(2.74644 -1.94655 0)
(2.74948 -1.94701 0)
(2.75099 -1.94939 0)
(2.75361 -1.95009 0)
(2.75541 -1.95201 0)
(2.75801 -1.95305 0)
(2.75946 -1.95591 0)
(2.76289 -1.95611 0)
(2.76361 -1.96015 0)
(2.76744 -1.9599 0)
(2.76847 -1.96377 0)
(2.7724 -1.96357 0)
(2.77398 -1.96691 0)
(2.77724 -1.96807 0)
(2.78041 -1.96949 0)
(2.78308 -1.97168 0)
(2.78711 -1.97192 0)
(2.78948 -1.9756 0)
(2.79473 -1.97459 0)
(2.79769 -1.97856 0)
(2.80149 -1.97713 0)
(2.80282 -1.97967 0)
(2.80738 -1.9778 0)
(2.80728 -1.98329 0)
(2.7609 -1.87104 0)
(2.6197 -1.58699 0)
(2.41862 -1.15879 0)
(2.24144 -0.775788 0)
(2.01948 -0.392543 0)
(1.87161 -0.100655 0)
(1.73009 0.0873977 0)
(1.66632 0.149797 0)
(1.60022 0.172389 0)
(1.56676 0.173985 0)
(1.57859 0.184826 0)
(1.61718 0.196063 0)
(1.60245 0.190393 0)
(1.55351 0.176028 0)
(1.54066 0.150185 0)
(1.54361 0.139397 0)
(1.52222 0.146669 0)
(1.4737 0.147371 0)
(1.4479 0.133724 0)
(1.43273 0.134118 0)
(1.41247 0.141669 0)
(1.38586 0.145674 0)
(1.36772 0.147401 0)
(1.35351 0.155627 0)
(1.33479 0.145168 0)
(1.32382 0.134279 0)
(1.32075 0.126542 0)
(1.32118 0.122645 0)
(1.32603 0.126547 0)
(1.33557 0.136199 0)
(1.33705 0.14082 0)
(1.34672 0.142194 0)
(1.36456 0.146687 0)
(1.38634 0.145688 0)
(1.39998 0.165119 0)
(1.42524 0.163342 0)
(1.45419 0.16485 0)
(1.49363 0.174383 0)
(1.5435 0.165197 0)
(1.60544 0.153707 0)
(1.67631 0.154524 0)
(1.75318 0.151515 0)
(1.83224 0.150658 0)
(1.90678 0.181357 0)
(1.98785 0.203749 0)
(2.07401 0.203356 0)
(2.15521 0.216021 0)
(2.23761 0.211297 0)
(2.31044 0.192618 0)
(2.37116 0.182619 0)
(2.42149 0.151183 0)
(2.47148 0.138482 0)
(2.51827 0.145212 0)
(2.55963 0.167357 0)
(2.59308 0.175697 0)
(2.61987 0.155298 0)
(2.64517 0.142584 0)
(2.66951 0.146944 0)
(2.69114 0.15261 0)
(2.70819 0.145306 0)
(2.72228 0.131275 0)
(2.73556 0.117165 0)
(2.74954 0.10514 0)
(2.76132 0.0959925 0)
(2.77136 0.0980506 0)
(2.78514 0.101285 0)
(2.74476 -1.94905 0)
(2.74589 -1.9503 0)
(2.74764 -1.95077 0)
(2.74883 -1.95214 0)
(2.75078 -1.9526 0)
(2.75175 -1.95466 0)
(2.75395 -1.95511 0)
(2.75523 -1.95694 0)
(2.75747 -1.9575 0)
(2.75906 -1.95911 0)
(2.7611 -1.9603 0)
(2.76263 -1.96233 0)
(2.76535 -1.96254 0)
(2.76647 -1.96503 0)
(2.76967 -1.96453 0)
(2.7707 -1.96719 0)
(2.77328 -1.96793 0)
(2.77559 -1.96914 0)
(2.77739 -1.97122 0)
(2.78014 -1.97192 0)
(2.78205 -1.97409 0)
(2.78493 -1.97486 0)
(2.78725 -1.97672 0)
(2.7904 -1.97735 0)
(2.79272 -1.97931 0)
(2.79597 -1.97984 0)
(2.79848 -1.98147 0)
(2.80148 -1.98277 0)
(2.80438 -1.98461 0)
(2.80862 -1.9841 0)
(2.81186 -1.98524 0)
(2.81444 -1.98744 0)
(2.81883 -1.9864 0)
(2.82021 -1.99028 0)
(2.82302 -1.98819 0)
(2.82354 -1.99003 0)
(2.82754 -1.98745 0)
(2.82727 -1.99341 0)
(2.78591 -1.87642 0)
(2.64021 -1.55082 0)
(2.42627 -1.08536 0)
(2.24605 -0.677179 0)
(2.05413 -0.309079 0)
(1.95057 -0.0509698 0)
(1.78942 0.139987 0)
(1.74361 0.153729 0)
(1.69876 0.176201 0)
(1.66438 0.198643 0)
(1.66815 0.20681 0)
(1.69413 0.19561 0)
(1.6914 0.178173 0)
(1.65477 0.162879 0)
(1.6363 0.157895 0)
(1.63242 0.155798 0)
(1.60493 0.159035 0)
(1.56979 0.160525 0)
(1.54797 0.158585 0)
(1.52817 0.152391 0)
(1.49666 0.142531 0)
(1.47286 0.141221 0)
(1.45279 0.144213 0)
(1.43004 0.149452 0)
(1.40833 0.153878 0)
(1.39332 0.140895 0)
(1.38181 0.130248 0)
(1.3806 0.124486 0)
(1.38639 0.121858 0)
(1.39331 0.126147 0)
(1.39881 0.1368 0)
(1.39696 0.135403 0)
(1.40342 0.132653 0)
(1.41862 0.128747 0)
(1.43015 0.147831 0)
(1.45389 0.153596 0)
(1.48597 0.154778 0)
(1.52092 0.158405 0)
(1.5658 0.160671 0)
(1.61512 0.131948 0)
(1.67336 0.11742 0)
(1.73445 0.121939 0)
(1.80736 0.116213 0)
(1.87936 0.143007 0)
(1.95436 0.16172 0)
(2.02959 0.159914 0)
(2.09608 0.17473 0)
(2.16658 0.174132 0)
(2.2334 0.15354 0)
(2.29407 0.131998 0)
(2.34878 0.12494 0)
(2.3958 0.127112 0)
(2.4422 0.136083 0)
(2.48418 0.136957 0)
(2.52292 0.129248 0)
(2.5577 0.122224 0)
(2.58688 0.117351 0)
(2.61207 0.11088 0)
(2.63776 0.113236 0)
(2.66185 0.116218 0)
(2.68246 0.122486 0)
(2.71054 0.12162 0)
(2.76547 -1.95541 0)
(2.76703 -1.95566 0)
(2.76806 -1.9568 0)
(2.76962 -1.9574 0)
(2.77092 -1.95856 0)
(2.7724 -1.95959 0)
(2.77395 -1.96053 0)
(2.77558 -1.96137 0)
(2.77709 -1.96246 0)
(2.77885 -1.96334 0)
(2.78037 -1.96467 0)
(2.78193 -1.96613 0)
(2.78403 -1.96674 0)
(2.78555 -1.96822 0)
(2.78776 -1.96865 0)
(2.78967 -1.96962 0)
(2.79143 -1.9711 0)
(2.79375 -1.97186 0)
(2.7958 -1.97305 0)
(2.79787 -1.97421 0)
(2.80023 -1.97495 0)
(2.80225 -1.97636 0)
(2.80471 -1.97723 0)
(2.80717 -1.9782 0)
(2.80945 -1.97948 0)
(2.81198 -1.98039 0)
(2.81446 -1.98135 0)
(2.81705 -1.98228 0)
(2.81854 -1.9854 0)
(2.82246 -1.9843 0)
(2.82406 -1.98644 0)
(2.82628 -1.9876 0)
(2.82831 -1.989 0)
(2.83117 -1.98859 0)
(2.83179 -1.9909 0)
(2.83319 -1.9921 0)
(2.83512 -1.99296 0)
(2.83718 -1.99503 0)
(2.83964 -1.99533 0)
(2.84297 -1.99438 0)
(2.84391 -1.99709 0)
(2.84262 -1.98756 0)
(2.76976 -1.81504 0)
(2.62307 -1.43173 0)
(2.40085 -0.911683 0)
(2.2414 -0.532819 0)
(2.03908 -0.187364 0)
(1.93954 0.0300347 0)
(1.82424 0.171201 0)
(1.78348 0.18249 0)
(1.77746 0.185694 0)
(1.75011 0.20491 0)
(1.76443 0.206374 0)
(1.77724 0.200078 0)
(1.76109 0.176382 0)
(1.73679 0.165532 0)
(1.72307 0.156687 0)
(1.70666 0.15907 0)
(1.67678 0.168704 0)
(1.65297 0.176193 0)
(1.63011 0.175097 0)
(1.59839 0.166496 0)
(1.57005 0.143402 0)
(1.54274 0.12825 0)
(1.51717 0.131711 0)
(1.49792 0.14053 0)
(1.47851 0.15156 0)
(1.45713 0.146023 0)
(1.44214 0.131453 0)
(1.42852 0.11658 0)
(1.42644 0.107384 0)
(1.43117 0.109423 0)
(1.43813 0.120689 0)
(1.43843 0.122168 0)
(1.44819 0.122414 0)
(1.46235 0.120203 0)
(1.48118 0.115662 0)
(1.49748 0.120128 0)
(1.52286 0.120197 0)
(1.54984 0.126146 0)
(1.58762 0.127374 0)
(1.63091 0.105359 0)
(1.67661 0.108421 0)
(1.7334 0.116871 0)
(1.79455 0.112901 0)
(1.85223 0.124829 0)
(1.91124 0.135423 0)
(1.97535 0.143095 0)
(2.039 0.141921 0)
(2.09663 0.147104 0)
(2.1574 0.133932 0)
(2.21547 0.116091 0)
(2.26793 0.117075 0)
(2.31776 0.120462 0)
(2.365 0.118751 0)
(2.40565 0.1057 0)
(2.44644 0.106855 0)
(2.48434 0.112458 0)
(2.51778 0.111263 0)
(2.56866 0.106524 0)
(2.77865 -1.96976 0)
(2.78006 -1.9701 0)
(2.78119 -1.97099 0)
(2.7826 -1.97155 0)
(2.78406 -1.97214 0)
(2.78556 -1.97275 0)
(2.7871 -1.97332 0)
(2.78863 -1.97397 0)
(2.79011 -1.97474 0)
(2.79176 -1.97534 0)
(2.79335 -1.97606 0)
(2.79489 -1.97697 0)
(2.79662 -1.9776 0)
(2.79824 -1.97844 0)
(2.79995 -1.97914 0)
(2.80191 -1.97949 0)
(2.80344 -1.98064 0)
(2.80532 -1.98143 0)
(2.80731 -1.98217 0)
(2.80923 -1.98306 0)
(2.81153 -1.98329 0)
(2.81331 -1.9845 0)
(2.81571 -1.9848 0)
(2.81794 -1.9855 0)
(2.82 -1.98651 0)
(2.82205 -1.98753 0)
(2.82453 -1.98778 0)
(2.82667 -1.98845 0)
(2.82744 -1.99101 0)
(2.8294 -1.99159 0)
(2.83145 -1.99189 0)
(2.83253 -1.99353 0)
(2.83395 -1.99504 0)
(2.83689 -1.99403 0)
(2.83755 -1.99574 0)
(2.83864 -1.99661 0)
(2.84015 -1.99766 0)
(2.84333 -1.99688 0)
(2.84658 -1.99645 0)
(2.84817 -1.99882 0)
(2.85209 -1.99644 0)
(2.85352 -1.99863 0)
(2.8547 -1.99976 0)
(2.85703 -1.99654 0)
(2.85815 -1.99673 0)
(2.84274 -1.9315 0)
(2.7067 -1.64489 0)
(2.52094 -1.15793 0)
(2.32335 -0.662075 0)
(2.16764 -0.292976 0)
(2.04088 -0.0454307 0)
(1.9061 0.124327 0)
(1.87554 0.156837 0)
(1.84458 0.193006 0)
(1.83264 0.210284 0)
(1.83899 0.217268 0)
(1.84103 0.207082 0)
(1.83433 0.1872 0)
(1.81778 0.167821 0)
(1.8024 0.163106 0)
(1.78659 0.169545 0)
(1.75899 0.170336 0)
(1.73307 0.174405 0)
(1.70769 0.174134 0)
(1.68357 0.168656 0)
(1.66218 0.159172 0)
(1.63303 0.146503 0)
(1.60032 0.130075 0)
(1.56965 0.127542 0)
(1.53838 0.130413 0)
(1.51624 0.135061 0)
(1.49793 0.135298 0)
(1.48366 0.121999 0)
(1.47236 0.108546 0)
(1.47171 0.102851 0)
(1.47396 0.097203 0)
(1.48058 0.0987325 0)
(1.49059 0.105636 0)
(1.49866 0.106353 0)
(1.5102 0.103062 0)
(1.52434 0.109342 0)
(1.54069 0.117893 0)
(1.55845 0.116372 0)
(1.58681 0.118375 0)
(1.62299 0.116827 0)
(1.6573 0.114052 0)
(1.69356 0.110354 0)
(1.73751 0.109649 0)
(1.78382 0.107347 0)
(1.83327 0.097307 0)
(1.8841 0.100538 0)
(1.93689 0.101422 0)
(1.98848 0.0993757 0)
(2.04053 0.114424 0)
(2.09387 0.128069 0)
(2.14242 0.131928 0)
(2.19402 0.119847 0)
(2.24405 0.101224 0)
(2.2875 0.100153 0)
(2.3601 0.0938698 0)