/*--------------------------------*- C++ -*----------------------------------*\
  =========                 |
  \\      /  F ield         | OpenFOAM: The Open Source CFD Toolbox
   \\    /   O peration     | Website:  https://openfoam.org
    \\  /    A nd           | Version:  7
     \\/     M anipulation  |
\*---------------------------------------------------------------------------*/
FoamFile
{
    version     2.0;
    format      ascii;
    class       volScalarField;
    location    "7";
    object      T;
}
// * * * * * * * * * * * * * * * * * * * * * * * * * * * * * * * * * * * * * //

dimensions      [0 0 0 1 0 0 0];

internalField   nonuniform List<scalar> 
90000
(
1.03845
1.0398
1.04167
1.0433
1.04573
1.04823
1.05067
1.05282
1.0552
1.05733
1.05954
1.06146
1.06345
1.06503
1.06658
1.06778
1.06919
1.0702
1.07113
1.07163
1.07237
1.07255
1.07278
1.07268
1.07272
1.07281
1.07314
1.07356
1.07429
1.07512
1.07628
1.07748
1.07895
1.08042
1.08207
1.08363
1.08526
1.08705
1.08921
1.09099
1.09274
1.09418
1.09543
1.09635
1.09705
1.09728
1.09655
1.09504
1.09213
1.0889
1.08614
1.08419
1.08434
1.08511
1.08626
1.0875
1.0888
1.08963
1.09034
1.09099
1.09171
1.09124
1.08969
1.08685
1.08383
1.08198
1.08105
1.08168
1.08303
1.08484
1.08635
1.08776
1.08726
1.08538
1.08242
1.08078
1.07918
1.08008
1.08184
1.08365
1.08408
1.0831
1.0816
1.08056
1.0803
1.08066
1.08179
1.08166
1.0809
1.07981
1.07926
1.07971
1.08008
1.07993
1.07925
1.07813
1.07747
1.07707
1.07667
1.07593
1.03781
1.03783
1.03787
1.03793
1.03807
1.03828
1.0385
1.03877
1.03914
1.03959
1.04006
1.04055
1.04112
1.04174
1.04233
1.04293
1.04369
1.04458
1.0454
1.04616
1.04701
1.04801
1.04895
1.0498
1.05048
1.0511
1.05163
1.05208
1.05246
1.05288
1.05333
1.0538
1.05427
1.05479
1.05538
1.056
1.05671
1.05759
1.05874
1.05999
1.06146
1.06305
1.06474
1.0665
1.0684
1.07031
1.07244
1.07449
1.07665
1.07784
1.07745
1.07622
1.0744
1.07235
1.07068
1.06917
1.06924
1.0696
1.07026
1.0714
1.07308
1.07467
1.0766
1.07655
1.07569
1.07336
1.07076
1.06889
1.06817
1.06861
1.06975
1.07174
1.07395
1.07486
1.07397
1.07127
1.06893
1.06813
1.06858
1.06979
1.0714
1.0726
1.07181
1.07014
1.06874
1.06903
1.07024
1.07127
1.07085
1.06986
1.06896
1.06911
1.06984
1.07006
1.06984
1.06909
1.0684
1.06791
1.0676
1.06708
1.03637
1.03635
1.03632
1.03628
1.03626
1.03622
1.03616
1.03615
1.03616
1.03621
1.03622
1.03621
1.03622
1.03627
1.03631
1.03633
1.03635
1.03642
1.03654
1.03668
1.03685
1.03706
1.03732
1.03759
1.03788
1.03822
1.03863
1.03912
1.03957
1.04
1.0404
1.04081
1.0412
1.04161
1.042
1.0424
1.04281
1.04328
1.04385
1.04455
1.0454
1.04646
1.04759
1.04891
1.05026
1.05174
1.05343
1.05504
1.05692
1.05844
1.05954
1.06055
1.06172
1.06232
1.06223
1.06172
1.06085
1.05986
1.05896
1.05888
1.05915
1.05973
1.06073
1.06173
1.06278
1.06317
1.06269
1.06101
1.05901
1.05742
1.05743
1.05796
1.05928
1.06103
1.06296
1.0637
1.06257
1.06039
1.05834
1.05837
1.05928
1.06086
1.06285
1.06241
1.0608
1.05946
1.05971
1.06067
1.06194
1.06157
1.06072
1.06019
1.06053
1.06132
1.06126
1.06091
1.06029
1.05985
1.05953
1.05915
1.03464
1.03463
1.03462
1.03462
1.03462
1.03462
1.03459
1.03456
1.03455
1.03454
1.03452
1.03451
1.03455
1.03458
1.03457
1.03455
1.0345
1.03444
1.03438
1.03437
1.03438
1.03439
1.03441
1.03443
1.03445
1.03447
1.03452
1.03455
1.03461
1.03469
1.0348
1.03494
1.03513
1.03534
1.03568
1.0361
1.03656
1.03706
1.03753
1.03803
1.03854
1.0392
1.03986
1.04066
1.04147
1.04247
1.04348
1.04469
1.04592
1.04729
1.04887
1.05004
1.05116
1.05189
1.05222
1.05249
1.05272
1.05271
1.05274
1.05264
1.05242
1.05213
1.05216
1.05246
1.05303
1.05371
1.05411
1.05437
1.05402
1.05304
1.05194
1.05082
1.05081
1.05137
1.05283
1.0541
1.05548
1.05567
1.05465
1.05324
1.05237
1.05269
1.05392
1.05508
1.05591
1.055
1.05361
1.05369
1.0545
1.05576
1.05543
1.05455
1.05411
1.05459
1.05542
1.05519
1.0547
1.05419
1.05401
1.05372
1.03338
1.03337
1.03334
1.03328
1.03327
1.03329
1.03329
1.03329
1.03327
1.03323
1.03319
1.03318
1.03317
1.03315
1.03312
1.0331
1.0331
1.03309
1.03307
1.03301
1.03295
1.03295
1.03295
1.03294
1.0329
1.03283
1.0328
1.03278
1.03275
1.03276
1.03279
1.03284
1.03289
1.03299
1.03298
1.03301
1.0331
1.03329
1.03352
1.0338
1.03411
1.03449
1.03491
1.03539
1.0359
1.03655
1.0372
1.03803
1.03885
1.03989
1.04115
1.04232
1.04359
1.04471
1.04583
1.0465
1.04749
1.04798
1.04829
1.04848
1.04866
1.04889
1.0492
1.04932
1.0493
1.0492
1.04922
1.04937
1.04962
1.05006
1.05012
1.04966
1.04879
1.04796
1.04807
1.04865
1.0502
1.05102
1.05172
1.05147
1.05045
1.0493
1.04942
1.05013
1.05114
1.05177
1.0514
1.05067
1.05069
1.05126
1.05199
1.05185
1.05127
1.05104
1.0514
1.05209
1.05192
1.05137
1.05089
1.05062
1.03265
1.03265
1.03265
1.03262
1.03254
1.03253
1.03253
1.03253
1.03256
1.0326
1.03261
1.03259
1.03254
1.03247
1.03239
1.03236
1.03237
1.0324
1.0324
1.03235
1.03227
1.03223
1.03221
1.03217
1.03212
1.03208
1.03204
1.03198
1.03191
1.03186
1.03183
1.03182
1.03178
1.0317
1.03167
1.03168
1.03171
1.03173
1.03174
1.03177
1.03181
1.03188
1.032
1.03216
1.03237
1.03263
1.03298
1.03344
1.03393
1.03463
1.03538
1.03646
1.03756
1.03891
1.04046
1.0418
1.04318
1.04434
1.04574
1.04612
1.04661
1.04698
1.04728
1.04738
1.04736
1.04722
1.04726
1.04739
1.04771
1.0482
1.04866
1.04892
1.04881
1.04822
1.04733
1.04743
1.04776
1.04864
1.04938
1.04981
1.04979
1.04921
1.04831
1.04834
1.04861
1.04938
1.04978
1.04967
1.04932
1.04934
1.04974
1.05019
1.0501
1.0497
1.04964
1.05001
1.05047
1.0503
1.0498
1.04926
1.03331
1.0333
1.03329
1.03327
1.03324
1.03317
1.03306
1.03303
1.03303
1.03304
1.03303
1.033
1.03297
1.03292
1.03285
1.03275
1.03269
1.03267
1.03266
1.03263
1.03257
1.03247
1.03237
1.0323
1.03227
1.03222
1.03216
1.03206
1.03194
1.03183
1.03174
1.03168
1.03161
1.03153
1.03141
1.03129
1.03123
1.03119
1.03113
1.03109
1.03111
1.03115
1.03116
1.03115
1.03113
1.03113
1.03112
1.03113
1.03117
1.03128
1.03156
1.03202
1.03258
1.03349
1.0345
1.03595
1.03737
1.03909
1.04078
1.04219
1.04369
1.04433
1.04524
1.04573
1.04618
1.04646
1.047
1.04731
1.04755
1.04773
1.04806
1.0483
1.04845
1.04845
1.04814
1.04764
1.04746
1.04762
1.04802
1.04871
1.04901
1.04901
1.04868
1.04804
1.04802
1.0482
1.04873
1.049
1.049
1.04888
1.04894
1.04922
1.04944
1.04935
1.04917
1.04923
1.04955
1.04976
1.04959
1.04896
1.0341
1.0341
1.0341
1.03411
1.03412
1.03411
1.03409
1.03403
1.034
1.034
1.034
1.03399
1.03396
1.03391
1.03388
1.03384
1.03381
1.03377
1.03373
1.0337
1.03366
1.03358
1.03348
1.03338
1.0333
1.03322
1.03313
1.03299
1.03282
1.03266
1.03253
1.0324
1.03227
1.03212
1.03197
1.0318
1.03163
1.0315
1.03139
1.03129
1.0312
1.03111
1.03104
1.03099
1.03096
1.03095
1.03091
1.03083
1.03073
1.03064
1.03054
1.03043
1.03044
1.03057
1.03087
1.03148
1.03227
1.03353
1.03489
1.03677
1.03863
1.04052
1.04254
1.04396
1.04572
1.04659
1.04716
1.04736
1.04761
1.04753
1.04758
1.0479
1.04825
1.04862
1.04873
1.04856
1.04806
1.04771
1.0478
1.04802
1.04848
1.04884
1.04882
1.0486
1.04821
1.0481
1.04823
1.04862
1.04878
1.04881
1.04879
1.04886
1.04909
1.04925
1.04919
1.04911
1.04919
1.04942
1.04953
1.04912
1.03434
1.03434
1.03434
1.03435
1.03437
1.03437
1.03436
1.03434
1.03434
1.03434
1.03434
1.03434
1.03434
1.03432
1.03431
1.03431
1.0343
1.03429
1.03428
1.03428
1.03427
1.03422
1.03417
1.03413
1.0341
1.03405
1.03396
1.03385
1.03374
1.03363
1.03352
1.0334
1.03327
1.03314
1.03299
1.03284
1.03267
1.03252
1.03241
1.0323
1.03218
1.03206
1.03189
1.03165
1.03142
1.03122
1.03106
1.03094
1.03082
1.03074
1.03062
1.03049
1.03032
1.0302
1.0302
1.03026
1.03044
1.03083
1.03136
1.03221
1.03325
1.03499
1.03682
1.03916
1.04144
1.04324
1.045
1.04583
1.04675
1.04698
1.04752
1.04814
1.04878
1.04893
1.04892
1.04881
1.04863
1.04836
1.04824
1.0483
1.04838
1.04861
1.04887
1.04886
1.04876
1.04851
1.04843
1.04849
1.0487
1.04878
1.04881
1.04885
1.04896
1.04916
1.04923
1.04917
1.04918
1.04927
1.04946
1.04929
1.03417
1.03416
1.03417
1.03418
1.03421
1.03422
1.03421
1.03421
1.03421
1.03421
1.03421
1.0342
1.03418
1.03418
1.03419
1.03419
1.03418
1.03416
1.03415
1.03415
1.03412
1.03404
1.03398
1.03396
1.03394
1.03387
1.03375
1.03364
1.03355
1.03348
1.03339
1.03329
1.03318
1.03306
1.03293
1.0328
1.03267
1.03256
1.03248
1.03241
1.03234
1.03225
1.03222
1.03217
1.03209
1.03195
1.03178
1.0316
1.03143
1.03127
1.0311
1.03092
1.03065
1.03043
1.03041
1.03045
1.03056
1.03072
1.03088
1.03103
1.03118
1.03163
1.03237
1.0338
1.0355
1.03793
1.04035
1.04258
1.04481
1.04627
1.0476
1.04819
1.04897
1.04896
1.04884
1.0486
1.04865
1.04882
1.04886
1.0488
1.04864
1.04858
1.04872
1.04893
1.04901
1.04896
1.04879
1.04866
1.04867
1.04875
1.04882
1.04885
1.04893
1.0491
1.04923
1.04922
1.04921
1.04927
1.04943
1.0494
1.03356
1.03355
1.03355
1.03355
1.03357
1.03359
1.03361
1.03362
1.03363
1.03363
1.03362
1.03361
1.03361
1.03362
1.03365
1.03367
1.03367
1.03366
1.03366
1.03366
1.03363
1.03359
1.03359
1.03359
1.03358
1.03352
1.03346
1.03344
1.03341
1.03338
1.03333
1.03326
1.03317
1.03308
1.03298
1.03286
1.03276
1.03268
1.03264
1.03261
1.03261
1.0326
1.03261
1.03263
1.03268
1.03267
1.0326
1.03248
1.03235
1.03223
1.03206
1.03188
1.03169
1.03139
1.03109
1.03102
1.03102
1.03106
1.0312
1.03139
1.03151
1.03145
1.03138
1.03146
1.03182
1.03282
1.0343
1.03661
1.03899
1.04153
1.04384
1.04502
1.04673
1.04724
1.04786
1.04829
1.04894
1.04914
1.04914
1.04907
1.04887
1.04863
1.04865
1.04879
1.04902
1.04902
1.04899
1.04886
1.04873
1.04871
1.04874
1.0488
1.04886
1.04898
1.04918
1.04923
1.04921
1.04925
1.04936
1.04941
1.03274
1.03273
1.03273
1.03274
1.03275
1.03277
1.03279
1.03283
1.03285
1.03285
1.03283
1.03282
1.03284
1.03285
1.03286
1.0329
1.03293
1.03293
1.03291
1.03291
1.03291
1.0329
1.0329
1.0329
1.03289
1.03289
1.0329
1.03291
1.0329
1.03289
1.03288
1.03285
1.03279
1.03272
1.03265
1.03257
1.03249
1.03241
1.03239
1.03239
1.03238
1.03238
1.0324
1.03246
1.03252
1.03262
1.03268
1.03273
1.03275
1.03273
1.03267
1.03255
1.03239
1.03216
1.03185
1.03164
1.0316
1.03161
1.03166
1.03175
1.03177
1.03168
1.03156
1.03147
1.03131
1.03133
1.0315
1.03224
1.03341
1.03554
1.03771
1.0403
1.04283
1.04475
1.04697
1.04766
1.04842
1.04857
1.04848
1.04853
1.04863
1.04871
1.04872
1.04874
1.04879
1.04883
1.04887
1.04884
1.04874
1.04867
1.04859
1.0486
1.04864
1.04872
1.04887
1.04902
1.04908
1.04914
1.04924
1.0493
1.03154
1.03153
1.03153
1.03153
1.03153
1.03154
1.03154
1.03155
1.0316
1.03162
1.03162
1.03162
1.03164
1.03165
1.03165
1.03168
1.03175
1.03176
1.03175
1.03174
1.03176
1.03179
1.03179
1.03179
1.03178
1.03179
1.0318
1.03179
1.03179
1.03181
1.03182
1.03181
1.0318
1.03182
1.03182
1.03181
1.03177
1.0317
1.03168
1.0317
1.03173
1.03178
1.03184
1.03193
1.03206
1.0322
1.03232
1.0324
1.03246
1.03255
1.03271
1.03276
1.03274
1.03264
1.03246
1.0323
1.03226
1.03226
1.03222
1.03215
1.03214
1.03207
1.03192
1.03172
1.03147
1.03121
1.03115
1.03114
1.03122
1.03169
1.03252
1.03415
1.03605
1.03876
1.04132
1.04323
1.04526
1.04612
1.04705
1.04782
1.04853
1.04873
1.04865
1.04851
1.04839
1.04847
1.04859
1.04866
1.04859
1.04845
1.04831
1.04831
1.04836
1.04842
1.04852
1.04865
1.04883
1.0489
1.04895
1.04903
1.03083
1.03082
1.03081
1.0308
1.0308
1.03078
1.03077
1.03077
1.03077
1.03078
1.03078
1.03078
1.03078
1.03079
1.03079
1.03079
1.03082
1.03086
1.03086
1.03086
1.03086
1.03088
1.0309
1.0309
1.03091
1.03094
1.03097
1.03099
1.03101
1.03101
1.031
1.03097
1.03095
1.03093
1.0309
1.03087
1.03083
1.03078
1.03073
1.03073
1.03076
1.0308
1.03086
1.03094
1.03107
1.03122
1.03138
1.03151
1.0317
1.03197
1.03226
1.03246
1.03253
1.03252
1.03245
1.03233
1.03229
1.03233
1.03235
1.03237
1.03239
1.03235
1.0322
1.03191
1.03152
1.03107
1.03076
1.03062
1.03069
1.03081
1.03088
1.03103
1.0315
1.03289
1.03476
1.03769
1.04047
1.04308
1.04568
1.04683
1.04744
1.04786
1.04761
1.04765
1.04785
1.0481
1.04813
1.04808
1.04803
1.04795
1.04793
1.04792
1.04789
1.04789
1.04795
1.04809
1.04829
1.04836
1.04844
1.04854
1.03029
1.03028
1.03026
1.03024
1.03023
1.03021
1.03019
1.03017
1.03016
1.03016
1.03017
1.03017
1.03017
1.03018
1.03018
1.03018
1.0302
1.03023
1.03024
1.03023
1.03023
1.03025
1.03026
1.03027
1.03029
1.03033
1.03037
1.0304
1.03042
1.03042
1.03043
1.03044
1.0305
1.03056
1.03058
1.03061
1.03069
1.03074
1.03075
1.03072
1.0307
1.03069
1.03065
1.03062
1.03064
1.03068
1.03073
1.03082
1.03095
1.03118
1.03151
1.0318
1.03194
1.03197
1.03196
1.03192
1.03182
1.03177
1.03178
1.03182
1.03188
1.03203
1.03205
1.03197
1.03176
1.03137
1.03092
1.03059
1.0305
1.03049
1.03048
1.03046
1.03028
1.03034
1.03076
1.03208
1.03396
1.03693
1.03951
1.04215
1.04375
1.04516
1.04597
1.04671
1.04749
1.04754
1.04744
1.04723
1.04726
1.04735
1.04737
1.04729
1.04718
1.04718
1.04726
1.04741
1.04754
1.04767
1.04778
1.04787
1.03028
1.03026
1.03023
1.03021
1.03018
1.03016
1.03013
1.0301
1.03005
1.03002
1.02999
1.02997
1.02998
1.02998
1.02997
1.02994
1.02992
1.02991
1.02992
1.02991
1.02991
1.02991
1.02991
1.02993
1.02996
1.02997
1.02997
1.02995
1.02991
1.02989
1.02987
1.02988
1.02994
1.03003
1.0301
1.03023
1.03042
1.03054
1.03056
1.03056
1.0305
1.03041
1.0303
1.03022
1.03015
1.03004
1.02998
1.02999
1.03007
1.03022
1.03043
1.03068
1.03089
1.03101
1.03103
1.031
1.03091
1.03082
1.03082
1.03082
1.03086
1.03101
1.03122
1.03129
1.03126
1.03112
1.03085
1.03058
1.03035
1.03024
1.03018
1.03005
1.02983
1.02975
1.02968
1.02977
1.0302
1.03136
1.03322
1.03597
1.03899
1.04165
1.04446
1.04536
1.04621
1.04621
1.04603
1.0463
1.04653
1.04662
1.04652
1.0464
1.04636
1.04642
1.04651
1.04657
1.04666
1.0468
1.04696
1.04706
1.0301
1.03009
1.03008
1.03008
1.03007
1.03006
1.03006
1.03005
1.03003
1.03001
1.02998
1.02994
1.02991
1.02988
1.02987
1.02986
1.02982
1.02977
1.02975
1.02974
1.02971
1.02968
1.02965
1.02964
1.02963
1.0296
1.02953
1.02943
1.02938
1.02935
1.02933
1.02932
1.02932
1.02935
1.02948
1.02973
1.02993
1.03006
1.03013
1.03016
1.03014
1.03002
1.02987
1.02976
1.02961
1.02945
1.02935
1.02934
1.02936
1.0294
1.02945
1.02951
1.02958
1.02965
1.02975
1.02983
1.02986
1.02987
1.02986
1.02972
1.02962
1.02967
1.02987
1.03006
1.03013
1.03016
1.03015
1.03008
1.03002
1.03002
1.03
1.02995
1.02976
1.0295
1.02918
1.02911
1.02905
1.02911
1.02946
1.03044
1.03246
1.03526
1.03838
1.04079
1.04288
1.04363
1.04441
1.04556
1.0458
1.04571
1.04552
1.04546
1.04559
1.04571
1.04573
1.04573
1.04578
1.04594
1.04605
1.04617
1.02984
1.0299
1.02996
1.02996
1.02995
1.02994
1.02995
1.02998
1.02998
1.02998
1.02998
1.02997
1.02996
1.02993
1.02987
1.02983
1.02982
1.02981
1.02979
1.02973
1.02966
1.02958
1.02956
1.02956
1.02955
1.02945
1.02935
1.02932
1.0293
1.02927
1.02921
1.02909
1.02906
1.02909
1.02923
1.02937
1.02945
1.02954
1.02961
1.02963
1.02961
1.02951
1.02939
1.02927
1.02904
1.0289
1.02891
1.02892
1.02889
1.02881
1.02868
1.02855
1.02849
1.0285
1.02857
1.02869
1.02881
1.02886
1.02885
1.02876
1.02862
1.02858
1.02862
1.02879
1.02897
1.02908
1.02916
1.02922
1.02926
1.02931
1.02944
1.02949
1.02943
1.02924
1.02894
1.02864
1.02837
1.02833
1.02833
1.02838
1.02869
1.02975
1.03184
1.03501
1.03793
1.04077
1.04297
1.04412
1.04438
1.04415
1.04423
1.04458
1.04488
1.04492
1.04489
1.04491
1.045
1.04511
1.04513
1.04522
1.02908
1.02914
1.02921
1.02929
1.02936
1.02938
1.02939
1.02942
1.02943
1.02943
1.02942
1.02941
1.02941
1.02944
1.02944
1.02943
1.02944
1.02944
1.02943
1.02935
1.02927
1.02924
1.02923
1.02922
1.02915
1.02895
1.02892
1.02892
1.0289
1.02884
1.02874
1.02863
1.02861
1.02863
1.02873
1.02883
1.02892
1.02902
1.02906
1.02908
1.02909
1.02908
1.02902
1.02886
1.02865
1.02865
1.02868
1.02867
1.02863
1.02848
1.02821
1.02793
1.02775
1.02769
1.0277
1.0278
1.02795
1.02802
1.028
1.02793
1.02791
1.02793
1.028
1.02812
1.02818
1.02817
1.02817
1.02824
1.02835
1.02841
1.02843
1.02846
1.02849
1.02849
1.02844
1.02833
1.02816
1.02801
1.02789
1.0278
1.02786
1.02787
1.02821
1.02934
1.03153
1.03467
1.03754
1.03992
1.04135
1.04235
1.04341
1.04397
1.04413
1.04409
1.04408
1.04421
1.04434
1.04434
1.04431
1.04436
1.02809
1.02815
1.02822
1.02828
1.02836
1.02839
1.02839
1.02839
1.02841
1.02846
1.02847
1.02848
1.0285
1.02851
1.02852
1.02853
1.02854
1.02855
1.0285
1.02839
1.02833
1.02832
1.02832
1.02831
1.02817
1.02806
1.02805
1.02801
1.0279
1.02784
1.02785
1.02784
1.0278
1.02781
1.0279
1.02792
1.02793
1.02791
1.02787
1.02783
1.02784
1.02787
1.02787
1.02788
1.02794
1.02806
1.02815
1.02816
1.02814
1.02806
1.02784
1.02753
1.02734
1.02733
1.02739
1.02755
1.02763
1.02762
1.02754
1.02743
1.02741
1.02745
1.02754
1.02759
1.02753
1.02739
1.0273
1.02732
1.02738
1.02741
1.02738
1.02738
1.02744
1.0275
1.02755
1.02758
1.02761
1.02763
1.02761
1.02751
1.02732
1.02723
1.02718
1.02725
1.02772
1.02907
1.03158
1.03461
1.03797
1.04078
1.0423
1.04275
1.04285
1.04297
1.0434
1.04366
1.04375
1.04366
1.04359
1.04365
1.02715
1.02721
1.02727
1.02734
1.02741
1.02752
1.02761
1.02764
1.02767
1.02773
1.02776
1.0278
1.02785
1.02788
1.02789
1.02789
1.02789
1.02789
1.02785
1.02776
1.02759
1.02755
1.02756
1.02753
1.02741
1.02728
1.02721
1.02714
1.02704
1.02703
1.02706
1.02711
1.02716
1.02718
1.02717
1.02715
1.02711
1.02699
1.02693
1.02692
1.02689
1.02687
1.02687
1.02691
1.02702
1.02725
1.02749
1.02751
1.02752
1.0275
1.02742
1.02724
1.02711
1.02711
1.02722
1.02736
1.02735
1.02728
1.0272
1.0272
1.02724
1.02733
1.02732
1.02727
1.02713
1.02689
1.02671
1.02664
1.02662
1.02664
1.02666
1.02666
1.02665
1.02667
1.02675
1.02685
1.02697
1.02703
1.02705
1.02709
1.02707
1.02699
1.02687
1.02678
1.02674
1.02683
1.02749
1.02906
1.03193
1.03493
1.03817
1.03956
1.04083
1.04192
1.04309
1.04322
1.04315
1.04298
1.04303
1.04314
1.02602
1.02606
1.02609
1.02614
1.02629
1.02653
1.02661
1.02661
1.02661
1.02665
1.02667
1.02668
1.0267
1.02674
1.02678
1.02684
1.02684
1.02682
1.02682
1.02681
1.02677
1.02669
1.02659
1.02651
1.02646
1.02646
1.02646
1.02645
1.0264
1.02639
1.02646
1.02675
1.02691
1.0269
1.0269
1.02687
1.02677
1.02674
1.02674
1.02666
1.02651
1.02644
1.02642
1.02644
1.02655
1.02688
1.02711
1.02711
1.02709
1.02703
1.02686
1.02671
1.0267
1.02675
1.02692
1.02698
1.02697
1.02692
1.02676
1.02666
1.02668
1.02675
1.02689
1.02689
1.02684
1.02668
1.02645
1.02631
1.0263
1.02633
1.02638
1.02639
1.02635
1.02625
1.02623
1.02628
1.0264
1.02645
1.02645
1.02646
1.0265
1.02656
1.02656
1.02652
1.02644
1.02637
1.02638
1.02655
1.02741
1.02954
1.0325
1.03579
1.03918
1.04098
1.04229
1.04231
1.04217
1.04233
1.04256
1.04273
1.02608
1.02607
1.02608
1.02614
1.02634
1.02647
1.02652
1.02657
1.02662
1.02662
1.02657
1.02639
1.02625
1.02618
1.02609
1.02607
1.02605
1.02602
1.02599
1.02598
1.02595
1.02579
1.0256
1.02556
1.02556
1.02563
1.02587
1.02605
1.02606
1.02608
1.02622
1.02658
1.02693
1.02701
1.02701
1.02693
1.02676
1.02673
1.02676
1.02683
1.02674
1.02658
1.0265
1.02651
1.02658
1.02681
1.02706
1.02712
1.02707
1.02676
1.02636
1.02633
1.02634
1.02639
1.02663
1.02676
1.02674
1.02672
1.02659
1.02625
1.026
1.02597
1.02609
1.02641
1.0266
1.02657
1.0264
1.02617
1.02609
1.02612
1.02623
1.02629
1.02625
1.02609
1.02594
1.02594
1.02599
1.02603
1.02603
1.02599
1.02601
1.02606
1.0261
1.02612
1.02611
1.02609
1.02609
1.02615
1.02621
1.02667
1.02783
1.03047
1.03342
1.03653
1.03909
1.04025
1.04125
1.0423
1.04235
1.0423
1.02615
1.02621
1.02626
1.0263
1.02632
1.02633
1.02632
1.02632
1.02631
1.02626
1.02606
1.02604
1.02606
1.02603
1.02593
1.02578
1.02573
1.02571
1.02571
1.02571
1.02563
1.02538
1.02523
1.0252
1.02517
1.02517
1.02533
1.02558
1.02563
1.02568
1.02583
1.02619
1.0265
1.02662
1.02662
1.02653
1.0263
1.02621
1.02623
1.02635
1.02635
1.02623
1.02608
1.02601
1.02604
1.02622
1.02646
1.02654
1.02643
1.02604
1.02573
1.02571
1.02572
1.02576
1.026
1.02648
1.02666
1.02669
1.02663
1.02632
1.0258
1.02557
1.02561
1.02586
1.02626
1.02639
1.02634
1.02619
1.02608
1.02609
1.02617
1.02628
1.02627
1.02616
1.02596
1.02583
1.02582
1.02583
1.02582
1.02576
1.02574
1.02574
1.02576
1.02579
1.02582
1.02586
1.0259
1.02595
1.02601
1.02607
1.02629
1.02705
1.0287
1.03169
1.03473
1.03829
1.04055
1.04182
1.04176
1.0417
1.02448
1.02464
1.0247
1.02467
1.02452
1.02438
1.02433
1.02431
1.02428
1.0242
1.02412
1.02412
1.02415
1.0243
1.02436
1.02444
1.02461
1.02472
1.02475
1.02472
1.02458
1.0245
1.0245
1.0245
1.02436
1.02412
1.02414
1.02422
1.02417
1.02418
1.02441
1.0246
1.02464
1.02453
1.02433
1.02423
1.02417
1.02417
1.02438
1.02498
1.02548
1.0255
1.02538
1.02523
1.02501
1.02498
1.02522
1.02563
1.02585
1.02587
1.02578
1.02544
1.02502
1.02482
1.02487
1.02535
1.02613
1.02651
1.02656
1.02647
1.02615
1.02567
1.02552
1.02566
1.02596
1.02618
1.02621
1.02621
1.02621
1.02616
1.02616
1.02623
1.02629
1.02625
1.02609
1.02593
1.02587
1.02585
1.02581
1.02571
1.02563
1.02563
1.02566
1.02571
1.02574
1.02577
1.02579
1.02583
1.02587
1.02591
1.02595
1.02606
1.02652
1.02761
1.02992
1.033
1.03609
1.03874
1.03993
1.0412
1.02109
1.02105
1.02084
1.02057
1.02047
1.02044
1.0204
1.0204
1.02043
1.0205
1.02064
1.02092
1.02109
1.02108
1.0211
1.02142
1.02204
1.0225
1.02281
1.02286
1.02282
1.02277
1.02273
1.0226
1.02251
1.02243
1.02235
1.02234
1.02244
1.02276
1.02299
1.02303
1.02298
1.0226
1.02177
1.02118
1.0212
1.02157
1.02232
1.023
1.0234
1.02353
1.02344
1.02335
1.02332
1.02338
1.02372
1.02443
1.02537
1.02581
1.02578
1.0255
1.02485
1.02428
1.02418
1.02437
1.02502
1.02585
1.02632
1.0263
1.02601
1.0257
1.02558
1.02562
1.0257
1.02579
1.02594
1.02609
1.02613
1.02612
1.02608
1.02607
1.02608
1.02608
1.02603
1.02593
1.0259
1.02592
1.02592
1.0259
1.02583
1.0258
1.02579
1.02577
1.02574
1.02571
1.02573
1.02575
1.02578
1.0258
1.02583
1.02588
1.02596
1.02622
1.02696
1.02857
1.03135
1.03453
1.03802
1.04091
1.02111
1.02108
1.02089
1.02068
1.02068
1.0207
1.02068
1.02069
1.02074
1.02084
1.02092
1.02096
1.02101
1.02101
1.02104
1.02147
1.02198
1.0224
1.023
1.02317
1.0232
1.02324
1.02321
1.02294
1.02268
1.02269
1.02271
1.02274
1.02303
1.02374
1.02432
1.02439
1.02426
1.02375
1.02275
1.02168
1.02126
1.02127
1.0215
1.0219
1.02223
1.02244
1.02246
1.02245
1.02246
1.02261
1.02288
1.02326
1.02384
1.02453
1.02483
1.02474
1.02437
1.0238
1.02339
1.02336
1.02359
1.02406
1.02441
1.0247
1.02513
1.02543
1.02549
1.02543
1.0252
1.02512
1.02518
1.02546
1.02589
1.02607
1.02607
1.02599
1.02589
1.02588
1.0259
1.02595
1.02603
1.02608
1.02609
1.02609
1.02608
1.02607
1.02605
1.02601
1.0259
1.02577
1.02575
1.02577
1.02582
1.02586
1.02588
1.0259
1.02593
1.026
1.02615
1.02661
1.02765
1.02993
1.03278
1.03727
1.02485
1.02484
1.02496
1.02529
1.0254
1.02523
1.0247
1.02466
1.02494
1.02509
1.025
1.02441
1.02347
1.02306
1.02299
1.02293
1.02285
1.02289
1.02329
1.02372
1.02394
1.02414
1.02418
1.02419
1.02426
1.02455
1.02506
1.02545
1.02569
1.02601
1.02635
1.02642
1.02618
1.02561
1.025
1.02444
1.02388
1.02337
1.02298
1.0229
1.02291
1.02286
1.02251
1.02246
1.02259
1.02254
1.02249
1.02258
1.02269
1.02286
1.0232
1.02341
1.02343
1.02345
1.02339
1.02289
1.02255
1.02253
1.02253
1.02262
1.02303
1.0237
1.02413
1.0242
1.02415
1.02415
1.02431
1.02457
1.02495
1.02553
1.02596
1.02599
1.02589
1.02581
1.02586
1.02601
1.02611
1.02614
1.02615
1.02615
1.02614
1.02615
1.02618
1.02618
1.02615
1.02607
1.02599
1.02598
1.02598
1.02597
1.02597
1.02597
1.02598
1.02597
1.02598
1.02606
1.02633
1.02708
1.02857
1.03303
1.03406
1.03472
1.03505
1.03503
1.03478
1.03407
1.03375
1.03358
1.03329
1.03319
1.03293
1.03119
1.02923
1.0292
1.02928
1.02863
1.02677
1.02591
1.02593
1.02619
1.02666
1.02696
1.02706
1.02722
1.02762
1.02792
1.02791
1.02761
1.0268
1.02667
1.02688
1.0262
1.02516
1.02496
1.02521
1.0255
1.02538
1.0252
1.02522
1.02514
1.02478
1.02468
1.02482
1.02509
1.0252
1.02478
1.02319
1.02223
1.02214
1.02247
1.02309
1.0234
1.02363
1.02386
1.02405
1.02403
1.02377
1.02342
1.02308
1.02307
1.0232
1.0232
1.02322
1.02337
1.02373
1.02385
1.02382
1.02369
1.02374
1.02405
1.02464
1.02514
1.02528
1.02529
1.02535
1.02557
1.02586
1.02601
1.02602
1.02604
1.02606
1.02609
1.02615
1.02618
1.02619
1.02621
1.02625
1.02626
1.02624
1.02619
1.02614
1.02612
1.02609
1.02604
1.026
1.02601
1.02605
1.0262
1.02662
1.02904
1.04441
1.04448
1.04448
1.04454
1.04544
1.04599
1.04594
1.04574
1.04496
1.04389
1.04385
1.04373
1.04349
1.04391
1.04405
1.04358
1.04338
1.04319
1.04207
1.04115
1.0412
1.04141
1.04142
1.04152
1.04203
1.04281
1.04303
1.04241
1.04016
1.0379
1.03657
1.03491
1.03271
1.03135
1.03102
1.0308
1.03048
1.03048
1.03135
1.0317
1.03084
1.03058
1.03133
1.03198
1.03196
1.03139
1.02952
1.028
1.02764
1.0274
1.02667
1.02526
1.02462
1.02468
1.02496
1.02493
1.02494
1.02536
1.02568
1.02556
1.02465
1.02362
1.02347
1.02355
1.02372
1.0239
1.02398
1.02391
1.02378
1.02379
1.0239
1.02407
1.02425
1.02432
1.02442
1.02465
1.02499
1.02534
1.0256
1.02573
1.0258
1.02587
1.026
1.02608
1.02612
1.02622
1.02633
1.02631
1.02626
1.02625
1.02624
1.02623
1.02621
1.02618
1.0261
1.02606
1.02608
1.02613
1.02619
1.02703
1.06485
1.06486
1.06504
1.06524
1.06529
1.06502
1.06402
1.06334
1.06331
1.06347
1.06336
1.0627
1.06237
1.06221
1.06199
1.06193
1.06177
1.06118
1.05934
1.05622
1.05464
1.0543
1.05416
1.05434
1.05429
1.05423
1.05437
1.05397
1.05331
1.05263
1.05109
1.04962
1.04967
1.04969
1.04879
1.04822
1.04825
1.04801
1.04685
1.04523
1.0437
1.04162
1.03988
1.03871
1.0368
1.0343
1.03377
1.0345
1.03578
1.03597
1.03568
1.03458
1.03378
1.03256
1.02986
1.02694
1.02621
1.02639
1.02739
1.02814
1.02805
1.02756
1.02637
1.02496
1.0245
1.02448
1.02458
1.02503
1.02513
1.02489
1.02445
1.02437
1.0244
1.02448
1.02446
1.02436
1.0243
1.02435
1.0245
1.02459
1.02469
1.02488
1.02517
1.02554
1.02586
1.02614
1.02628
1.02631
1.02637
1.02637
1.02635
1.02631
1.02629
1.02624
1.02619
1.02621
1.02629
1.02633
1.02632
1.02639
1.08728
1.08709
1.08707
1.08721
1.08771
1.0878
1.08745
1.08704
1.08691
1.08626
1.08464
1.08429
1.08436
1.08404
1.08394
1.08409
1.08379
1.08379
1.08379
1.0822
1.07965
1.07938
1.07975
1.07986
1.07936
1.07823
1.07704
1.07563
1.07403
1.07256
1.07135
1.07042
1.06879
1.06641
1.06563
1.06587
1.06593
1.06488
1.06242
1.06194
1.06254
1.06251
1.06153
1.05962
1.05752
1.05521
1.05315
1.05191
1.05051
1.04727
1.04458
1.04439
1.0457
1.04602
1.04419
1.04073
1.03916
1.03772
1.03524
1.03399
1.03419
1.03427
1.03373
1.03256
1.03043
1.02794
1.02724
1.02754
1.02791
1.02754
1.02628
1.02528
1.02513
1.02504
1.02474
1.02441
1.02432
1.02427
1.02423
1.02418
1.0242
1.02429
1.02452
1.02488
1.02524
1.02545
1.02569
1.02592
1.02622
1.02628
1.02626
1.02627
1.02626
1.02627
1.0263
1.02643
1.02645
1.02644
1.0264
1.02629
1.11508
1.1139
1.11265
1.11249
1.11254
1.11278
1.11273
1.11182
1.10979
1.10885
1.10883
1.109
1.10891
1.10815
1.1076
1.10729
1.10636
1.10567
1.10537
1.10502
1.10328
1.10142
1.10108
1.10068
1.09983
1.09934
1.09902
1.09853
1.0978
1.09702
1.09594
1.09493
1.09378
1.0924
1.09116
1.09013
1.08919
1.08757
1.0858
1.08411
1.08204
1.08064
1.07964
1.07797
1.07647
1.07531
1.07383
1.07272
1.07151
1.06915
1.06657
1.06516
1.06405
1.06166
1.05651
1.05464
1.05475
1.05389
1.05116
1.04978
1.0479
1.04319
1.04132
1.0413
1.04067
1.03892
1.03547
1.03248
1.03189
1.03167
1.03038
1.0284
1.02751
1.02733
1.02677
1.02591
1.02516
1.02469
1.02451
1.02461
1.02485
1.02521
1.02568
1.02583
1.02576
1.02554
1.02526
1.02515
1.02522
1.0254
1.02569
1.02603
1.02616
1.02622
1.02634
1.0265
1.0265
1.02648
1.02644
1.02637
1.13895
1.13859
1.13766
1.13661
1.13641
1.13661
1.1368
1.13656
1.1357
1.13463
1.13359
1.13292
1.13293
1.13303
1.13296
1.13245
1.13079
1.12996
1.1299
1.12981
1.12931
1.12799
1.12651
1.12555
1.12479
1.124
1.12316
1.12238
1.12139
1.1203
1.11935
1.11838
1.11734
1.11564
1.11408
1.11302
1.11196
1.11059
1.10915
1.1077
1.10622
1.10484
1.10369
1.10249
1.10109
1.09925
1.09691
1.09471
1.09268
1.09
1.08728
1.08605
1.08523
1.08373
1.08106
1.07839
1.07616
1.07229
1.06849
1.06793
1.06688
1.06408
1.06103
1.05663
1.05377
1.05294
1.05181
1.04926
1.04464
1.0423
1.04109
1.03937
1.03665
1.03492
1.03373
1.03232
1.03037
1.02939
1.02867
1.02809
1.02714
1.0264
1.02601
1.02555
1.02488
1.02456
1.02447
1.0245
1.02455
1.02471
1.02508
1.02549
1.0259
1.02597
1.02611
1.02628
1.02634
1.0264
1.02649
1.02652
1.1642
1.16402
1.16375
1.1634
1.1628
1.16169
1.16148
1.16156
1.16125
1.16042
1.15995
1.15929
1.15813
1.1572
1.1572
1.1572
1.15687
1.1554
1.15397
1.15366
1.15348
1.1528
1.15157
1.15047
1.14957
1.14882
1.1481
1.1473
1.14643
1.1455
1.14437
1.14315
1.14211
1.14103
1.13967
1.13822
1.13687
1.13556
1.13416
1.13268
1.13085
1.12882
1.12717
1.12579
1.12443
1.1229
1.12101
1.1188
1.11689
1.11507
1.11287
1.11031
1.10798
1.1057
1.10307
1.10065
1.09863
1.09622
1.0933
1.09051
1.08766
1.08419
1.08149
1.07821
1.07536
1.0729
1.06949
1.06638
1.06312
1.05925
1.05602
1.05323
1.05045
1.04733
1.04429
1.04144
1.03889
1.03666
1.03433
1.03214
1.03019
1.02816
1.02673
1.02602
1.02528
1.02488
1.02478
1.02501
1.02551
1.02587
1.02597
1.02591
1.02569
1.02545
1.02551
1.02583
1.0262
1.02634
1.02646
1.02658
1.18973
1.1895
1.1895
1.18941
1.1889
1.18859
1.18827
1.18728
1.18599
1.18569
1.18585
1.18582
1.18541
1.18421
1.18255
1.18233
1.18229
1.18199
1.18069
1.17945
1.17899
1.17861
1.17771
1.17655
1.17572
1.17477
1.17367
1.17266
1.17162
1.1706
1.16957
1.16842
1.16717
1.16591
1.16464
1.16328
1.16183
1.16037
1.15882
1.15732
1.15595
1.15442
1.15256
1.15078
1.14918
1.14729
1.14527
1.14329
1.14115
1.13892
1.13669
1.13411
1.13194
1.13007
1.12774
1.12483
1.12208
1.11943
1.1163
1.11319
1.11077
1.10806
1.10494
1.10111
1.09724
1.09449
1.09185
1.08769
1.08353
1.08003
1.07655
1.07276
1.06915
1.06521
1.06161
1.05782
1.0543
1.0509
1.04769
1.04399
1.04142
1.03924
1.03677
1.03437
1.03264
1.03109
1.02912
1.02827
1.0277
1.02647
1.02587
1.02532
1.025
1.02503
1.02528
1.0257
1.02611
1.02624
1.02641
1.02664
1.21772
1.21688
1.21623
1.21618
1.21627
1.2161
1.21542
1.21481
1.21397
1.21284
1.21201
1.21198
1.21204
1.21183
1.21075
1.20889
1.2085
1.20837
1.20794
1.20658
1.20537
1.20485
1.20438
1.20342
1.20219
1.20123
1.20032
1.19932
1.19818
1.19692
1.19568
1.19445
1.19322
1.19196
1.19069
1.1893
1.18782
1.18647
1.185
1.18325
1.18159
1.18004
1.17821
1.17617
1.1743
1.1725
1.17048
1.16828
1.16615
1.1641
1.162
1.15922
1.15632
1.15442
1.15243
1.14931
1.1461
1.14359
1.14105
1.13797
1.13452
1.13129
1.12837
1.12535
1.12195
1.11789
1.11437
1.11091
1.10699
1.10288
1.09887
1.09493
1.0909
1.08666
1.08225
1.07803
1.07404
1.06907
1.06516
1.06121
1.05663
1.05253
1.04895
1.04499
1.04153
1.03839
1.03479
1.03187
1.02973
1.02777
1.02696
1.02652
1.02614
1.02641
1.02717
1.02712
1.02682
1.0263
1.02617
1.02642
1.24556
1.24505
1.24512
1.24538
1.24534
1.24438
1.24378
1.24346
1.24255
1.24102
1.2404
1.24054
1.24059
1.24035
1.23896
1.237