/*--------------------------------*- C++ -*----------------------------------*\
  =========                 |
  \\      /  F ield         | OpenFOAM: The Open Source CFD Toolbox
   \\    /   O peration     | Website:  https://openfoam.org
    \\  /    A nd           | Version:  7
     \\/     M anipulation  |
\*---------------------------------------------------------------------------*/
FoamFile
{
    version     2.0;
    format      ascii;
    class       volScalarField;
    location    "6.5";
    object      rho;
}
// * * * * * * * * * * * * * * * * * * * * * * * * * * * * * * * * * * * * * //

dimensions      [1 -3 0 0 0 0 0];

internalField   nonuniform List<scalar> 
90000
(
0.883643
0.893822
0.904451
0.914418
0.925063
0.93584
0.945373
0.954848
0.964838
0.975274
0.98609
0.998696
1.01265
1.02784
1.04323
1.05919
1.07499
1.09117
1.10675
1.12277
1.138
1.15377
1.16846
1.18377
1.19763
1.21231
1.22523
1.23919
1.2508
1.26351
1.27345
1.28474
1.2928
1.30196
1.30804
1.3139
1.31855
1.32174
1.32253
1.323
1.32265
1.32218
1.32066
1.31664
1.30841
1.30054
1.29491
1.29515
1.29727
1.30156
1.3072
1.3129
1.31817
1.32165
1.32461
1.32471
1.32424
1.32307
1.32145
1.31951
1.31711
1.31466
1.31471
1.31661
1.32026
1.32417
1.32884
1.32981
1.3315
1.33086
1.3295
1.32685
1.32318
1.32133
1.32188
1.3234
1.32589
1.32617
1.32619
1.32512
1.32393
1.32462
1.32609
1.32645
1.32772
1.32923
1.33039
1.33147
1.33102
1.33083
1.33078
1.33061
1.33121
1.33223
1.33277
1.33321
1.33342
1.33298
1.33254
1.33195
0.876579
0.87703
0.877888
0.878881
0.880442
0.882781
0.885501
0.888401
0.891935
0.896157
0.900931
0.906133
0.912141
0.918868
0.926524
0.934806
0.94425
0.954399
0.965803
0.977758
0.991154
1.00497
1.02016
1.03553
1.05231
1.06907
1.0871
1.10488
1.12353
1.14172
1.16019
1.17832
1.19601
1.21347
1.22911
1.2457
1.25799
1.27244
1.28171
1.29216
1.29741
1.30373
1.30588
1.30963
1.31671
1.32582
1.33107
1.33552
1.33557
1.33462
1.33257
1.32998
1.32734
1.32446
1.32262
1.32275
1.32236
1.32198
1.32268
1.3245
1.32799
1.33111
1.33349
1.33632
1.3361
1.33472
1.33286
1.32967
1.32903
1.32929
1.32924
1.33087
1.33474
1.33431
1.33278
1.33015
1.32837
1.326
1.32655
1.32979
1.33232
1.33247
1.33088
1.32952
1.33047
1.33343
1.33577
1.33514
1.33352
1.3324
1.33344
1.33475
1.33556
1.33494
1.33517
1.33614
1.33661
1.3364
1.33581
1.335
0.879515
0.879529
0.879558
0.879667
0.87966
0.879654
0.879664
0.879717
0.879826
0.879993
0.880188
0.880353
0.880533
0.880783
0.881172
0.881726
0.88247
0.88358
0.885045
0.886846
0.889161
0.891962
0.895495
0.899662
0.904972
0.911166
0.91904
0.927949
0.939162
0.951452
0.966751
0.983094
1.00312
1.02389
1.04838
1.07323
1.10133
1.12955
1.1592
1.18915
1.2174
1.24648
1.2708
1.29691
1.31115
1.32362
1.32811
1.33307
1.33381
1.33448
1.33407
1.33417
1.33384
1.3328
1.33115
1.3313
1.3322
1.3353
1.33949
1.34423
1.3491
1.35178
1.35181
1.35044
1.34663
1.34204
1.33699
1.33164
1.33053
1.33285
1.33859
1.3442
1.34782
1.3473
1.34369
1.33873
1.33333
1.33405
1.33694
1.34062
1.34221
1.34068
1.33812
1.33731
1.33825
1.34046
1.34226
1.34185
1.34085
1.34065
1.34104
1.34154
1.34129
1.34086
1.34094
1.34153
1.34207
1.34195
1.34149
1.34034
0.882626
0.882643
0.882656
0.88266
0.882663
0.882679
0.882709
0.882736
0.882715
0.882697
0.882715
0.882768
0.882786
0.882789
0.882807
0.882879
0.883095
0.883285
0.88344
0.883551
0.88365
0.883755
0.88388
0.884036
0.884233
0.884502
0.884897
0.885431
0.886154
0.887074
0.888648
0.890871
0.894154
0.898375
0.904391
0.911768
0.922319
0.934784
0.952397
0.97198
0.998378
1.02633
1.06124
1.09653
1.13436
1.17234
1.20496
1.2388
1.26141
1.2866
1.29965
1.3151
1.32164
1.33048
1.33207
1.33702
1.34315
1.35198
1.35688
1.36051
1.36208
1.36173
1.36117
1.35854
1.35449
1.35105
1.34797
1.34625
1.34812
1.35059
1.35402
1.3537
1.35307
1.35109
1.34897
1.34797
1.34841
1.35001
1.35052
1.35022
1.34954
1.34898
1.34846
1.34865
1.34878
1.34909
1.34932
1.34931
1.34893
1.34872
1.34876
1.34922
1.34903
1.34847
1.34816
1.34848
1.34923
1.34918
1.34872
1.34745
0.886201
0.886219
0.88625
0.886277
0.886296
0.88632
0.886328
0.886318
0.88625
0.886192
0.886193
0.886209
0.8862
0.886147
0.886107
0.886102
0.886105
0.886115
0.886122
0.886108
0.886073
0.886074
0.886102
0.88611
0.886129
0.88622
0.886404
0.88665
0.886911
0.887294
0.88743
0.887572
0.887781
0.88806
0.888372
0.888752
0.889269
0.889999
0.891142
0.89298
0.896305
0.901063
0.909022
0.919295
0.936057
0.956094
0.986197
1.01895
1.06178
1.10491
1.15198
1.19746
1.23709
1.27716
1.30382
1.33049
1.34034
1.34889
1.354
1.35752
1.35935
1.35864
1.35441
1.34519
1.3465
1.34953
1.35693
1.3623
1.36417
1.36188
1.36079
1.35786
1.35446
1.35214
1.35301
1.35638
1.36033
1.36034
1.35871
1.35522
1.35308
1.35356
1.35528
1.35704
1.35651
1.35493
1.35366
1.35404
1.35563
1.35596
1.35552
1.35475
1.35426
1.3543
1.35424
1.3542
1.35442
1.35467
1.35456
1.3536
0.886523
0.88653
0.886543
0.886571
0.886587
0.886611
0.886655
0.886689
0.886698
0.886703
0.886723
0.886794
0.886875
0.886917
0.886938
0.886967
0.887021
0.88708
0.887127
0.887163
0.8872
0.887245
0.887278
0.887311
0.88743
0.887697
0.887998
0.888221
0.888376
0.88855
0.888763
0.888985
0.88921
0.889435
0.889696
0.889977
0.890262
0.890572
0.89101
0.891569
0.891921
0.892078
0.892256
0.892523
0.89321
0.894577
0.897423
0.902029
0.910835
0.923339
0.94487
0.971706
1.01143
1.05417
1.10759
1.15762
1.20371
1.24243
1.27099
1.29387
1.30852
1.32053
1.32574
1.33878
1.35171
1.36167
1.37052
1.37132
1.37034
1.3654
1.35613
1.34949
1.34982
1.35218
1.35819
1.36537
1.36566
1.36485
1.36225
1.35918
1.35612
1.35703
1.35897
1.36097
1.36051
1.35782
1.35581
1.35607
1.35771
1.35966
1.35959
1.35833
1.35716
1.35732
1.35777
1.35783
1.3577
1.35776
1.35764
1.35712
0.886376
0.886384
0.886398
0.886428
0.886493
0.886584
0.886643
0.886679
0.886717
0.886776
0.886863
0.886963
0.887072
0.88719
0.887291
0.887377
0.887452
0.887501
0.88753
0.88758
0.887667
0.887738
0.887804
0.887933
0.888246
0.888634
0.888853
0.888961
0.88908
0.889261
0.889457
0.88961
0.889725
0.889852
0.890011
0.890162
0.890361
0.890624
0.890907
0.891187
0.891554
0.891962
0.892227
0.892404
0.892415
0.892417
0.892439
0.892495
0.892622
0.892979
0.893935
0.896067
0.900721
0.908965
0.925054
0.947682
0.984912
1.02802
1.08318
1.13804
1.19448
1.24386
1.28648
1.32735
1.34603
1.3554
1.36401
1.36504
1.35925
1.34025
1.34028
1.34376
1.35216
1.36066
1.36468
1.36561
1.36438
1.36087
1.35657
1.35723
1.35954
1.36171
1.36132
1.36079
1.35935
1.35816
1.35721
1.35802
1.35871
1.35939
1.35918
1.35892
1.35883
1.35869
1.35871
1.3587
1.35881
1.35901
1.35928
1.35892
0.887047
0.887117
0.8872
0.887261
0.887293
0.887316
0.887339
0.887351
0.887374
0.887431
0.887529
0.887631
0.887765
0.887922
0.888045
0.888111
0.888142
0.888171
0.888216
0.888307
0.888432
0.888573
0.888756
0.889133
0.889465
0.889492
0.889457
0.889446
0.889487
0.889617
0.889689
0.889719
0.889752
0.889795
0.889831
0.889904
0.890068
0.890293
0.890483
0.890663
0.890975
0.891405
0.891754
0.891931
0.891907
0.891831
0.891748
0.891641
0.891483
0.891288
0.891139
0.890921
0.890684
0.890724
0.890982
0.892112
0.895197
0.90206
0.915159
0.938829
0.973924
1.02111
1.08137
1.13692
1.19832
1.24054
1.2764
1.30045
1.31567
1.32466
1.34749
1.35835
1.366
1.368
1.36698
1.35974
1.35145
1.35275
1.35479
1.36033
1.36568
1.36522
1.36311
1.35859
1.3564
1.35694
1.35848
1.36015
1.35977
1.35869
1.35783
1.35839
1.3593
1.35929
1.35899
1.35867
1.35873
1.35881
1.35903
1.35924
0.887983
0.888081
0.888148
0.8882
0.888251
0.888279
0.8883
0.88833
0.888384
0.888456
0.888549
0.888667
0.888775
0.888855
0.888989
0.889118
0.889118
0.8891
0.889121
0.889235
0.889451
0.889611
0.889791
0.890022
0.89008
0.890059
0.889944
0.889843
0.889825
0.889802
0.889774
0.889783
0.889783
0.889752
0.889731
0.889737
0.889792
0.88993
0.890098
0.890287
0.890503
0.890751
0.890977
0.890982
0.890898
0.890841
0.890797
0.890695
0.890488
0.890258
0.88998
0.889585
0.889233
0.888775
0.888142
0.887995
0.88806
0.888307
0.888882
0.890333
0.893548
0.900967
0.915654
0.94215
0.983927
1.04286
1.11253
1.17788
1.25348
1.30928
1.34298
1.35174
1.36143
1.36104
1.3518
1.33574
1.33976
1.3482
1.35936
1.36639
1.36596
1.36308
1.35722
1.35555
1.35583
1.35834
1.36064
1.36037
1.35859
1.35644
1.3567
1.35809
1.3589
1.35896
1.35881
1.35856
1.35851
1.35847
1.3586
1.35905
0.888631
0.888641
0.888659
0.888698
0.888714
0.888725
0.888754
0.888808
0.888867
0.888946
0.889071
0.889211
0.88931
0.889433
0.889564
0.889638
0.889653
0.889676
0.889774
0.889892
0.88997
0.89006
0.890227
0.890377
0.890392
0.890348
0.890186
0.88999
0.889882
0.889819
0.889762
0.889676
0.889556
0.889455
0.889416
0.889417
0.889429
0.889466
0.889497
0.889531
0.889597
0.889715
0.889724
0.889588
0.889473
0.889447
0.889388
0.889192
0.888939
0.888742
0.888503
0.888295
0.888086
0.887687
0.887108
0.886808
0.886789
0.886833
0.886999
0.887197
0.887364
0.8876
0.888119
0.889778
0.8936
0.905112
0.9254
0.967401
1.02299
1.09895
1.17537
1.22703
1.28265
1.3006
1.3163
1.33211
1.35597
1.36593
1.36639
1.36581
1.3589
1.35248
1.35277
1.35508
1.3594
1.36225
1.36171
1.35855
1.35594
1.35592
1.35686
1.35817
1.35826
1.35804
1.35813
1.35834
1.35831
1.35816
1.35822
1.35883
0.889414
0.889423
0.889447
0.889466
0.889486
0.889523
0.889576
0.889647
0.889701
0.889827
0.890036
0.890096
0.890114
0.890143
0.890214
0.890278
0.890315
0.890366
0.890498
0.890575
0.890588
0.890644
0.890799
0.890837
0.890824
0.890724
0.890519
0.890328
0.890207
0.890098
0.88997
0.889816
0.889635
0.889558
0.889555
0.889525
0.889467
0.889339
0.889151
0.888935
0.888793
0.888674
0.888388
0.88801
0.887938
0.887919
0.887818
0.887591
0.887504
0.887518
0.887548
0.887545
0.887468
0.887231
0.886819
0.88651
0.886458
0.886495
0.886588
0.886672
0.886806
0.887046
0.887213
0.887216
0.887266
0.887547
0.888479
0.892223
0.90046
0.92462
0.960603
1.0288
1.10753
1.18572
1.2755
1.32361
1.35085
1.35918
1.36199
1.35171
1.34148
1.34472
1.35422
1.36196
1.36377
1.36301
1.35913
1.3546
1.35488
1.35666
1.3585
1.35817
1.35685
1.35693
1.35763
1.3582
1.35816
1.35785
1.35797
1.35878
0.889998
0.889977
0.889965
0.889962
0.889969
0.890001
0.890005
0.889991
0.889991
0.890039
0.890144
0.890166
0.890168
0.890194
0.890267
0.890286
0.890291
0.890316
0.890382
0.890504
0.890642
0.890688
0.890713
0.890719
0.890694
0.89051
0.890351
0.890277
0.890214
0.890036
0.88981
0.889749
0.889712
0.8896
0.889398
0.88922
0.889074
0.888923
0.888737
0.888497
0.888223
0.887864
0.887288
0.886891
0.886858
0.886845
0.886772
0.8867
0.886698
0.886827
0.887141
0.887298
0.887305
0.887187
0.886838
0.88649
0.886376
0.886385
0.886436
0.886526
0.886665
0.886883
0.887106
0.887142
0.887109
0.887093
0.887168
0.887438
0.888
0.889413
0.892492
0.903209
0.923434
0.974044
1.03991
1.12687
1.2121
1.25718
1.30486
1.31363
1.34227
1.35313
1.36599
1.36597
1.36423
1.35748
1.3538
1.35461
1.35756
1.36014
1.35967
1.35695
1.35579
1.3563
1.35729
1.35814
1.35776
1.35773
1.35828
1.35901
0.890508
0.890458
0.890411
0.890372
0.890336
0.890291
0.890218
0.890123
0.890093
0.890111
0.890127
0.890127
0.890112
0.890106
0.890155
0.890262
0.890383
0.890499
0.890648
0.890843
0.890944
0.890964
0.890967
0.890949
0.890864
0.890751
0.890659
0.890498
0.89018
0.889873
0.889713
0.889586
0.889456
0.889292
0.889143
0.889043
0.88893
0.888774
0.888578
0.888346
0.888057
0.887647
0.887106
0.886725
0.886657
0.886648
0.886645
0.886614
0.886597
0.886691
0.886991
0.887247
0.887295
0.887288
0.887237
0.887134
0.886979
0.886796
0.886697
0.886685
0.886743
0.88705
0.887569
0.887932
0.888006
0.888006
0.888001
0.888034
0.888201
0.888471
0.888691
0.889026
0.889978
0.894292
0.905033
0.939381
0.992618
1.08103
1.17698
1.25868
1.3331
1.34716
1.36284
1.36026
1.34672
1.34633
1.35096
1.35932
1.36284
1.36197
1.35801
1.35542
1.35603
1.35769
1.35792
1.3575
1.3572
1.35771
1.35913
1.35922
0.891035
0.890964
0.890895
0.890837
0.890782
0.89071
0.890632
0.890574
0.890517
0.890435
0.890371
0.890342
0.890315
0.890233
0.890011
0.889808
0.889707
0.889662
0.889661
0.889665
0.889639
0.889548
0.889515
0.889513
0.889503
0.889433
0.889261
0.888866
0.888576
0.888561
0.888594
0.888721
0.888996
0.889183
0.889182
0.889105
0.888935
0.888763
0.888577
0.888359
0.888077
0.887691
0.887213
0.886834
0.886733
0.886747
0.886777
0.886752
0.886721
0.886782
0.887025
0.887382
0.887842
0.888289
0.888461
0.888478
0.888462
0.888282
0.88786
0.887604
0.887577
0.887625
0.887894
0.888337
0.888557
0.888576
0.888562
0.888472
0.888419
0.88846
0.888537
0.88857
0.888592
0.888677
0.889053
0.890873
0.896873
0.918513
0.959331
1.04087
1.13489
1.21078
1.29398
1.30448
1.32827
1.3441
1.36339
1.36558
1.36332
1.35701
1.35475
1.35594
1.3596
1.35948
1.35792
1.35659
1.35709
1.35932
1.35976
1.35917
0.889568
0.889497
0.889428
0.889367
0.889305
0.889258
0.889223
0.889193
0.889167
0.889129
0.889074
0.889007
0.888949
0.888916
0.888873
0.888794
0.888704
0.88863
0.888566
0.888487
0.888372
0.888245
0.888152
0.888092
0.887993
0.887661
0.887368
0.887336
0.887343
0.887417
0.887578
0.887771
0.888053
0.888408
0.888566
0.888662
0.888879
0.88915
0.889265
0.889251
0.889135
0.888865
0.888491
0.888033
0.887657
0.887649
0.887752
0.887755
0.887723
0.887764
0.887985
0.88832
0.888662
0.889122
0.889583
0.889683
0.889686
0.889605
0.889235
0.888723
0.888576
0.888563
0.888599
0.888879
0.889126
0.889153
0.88913
0.88897
0.888686
0.888566
0.888592
0.888621
0.888638
0.888715
0.888901
0.889083
0.889269
0.890157
0.893254
0.907942
0.937969
1.01412
1.10978
1.20628
1.31156
1.33658
1.35995
1.35883
1.3463
1.34692
1.35278
1.36191
1.36222
1.36029
1.3556
1.35611
1.35892
1.36104
1.3601
1.35843
0.888804
0.888811
0.888818
0.888816
0.888781
0.888743
0.888728
0.888719
0.88871
0.888687
0.888644
0.888588
0.888532
0.888483
0.888427
0.888321
0.888146
0.887939
0.887781
0.887676
0.887575
0.887429
0.887282
0.88719
0.88707
0.886754
0.886556
0.88655
0.886604
0.886803
0.887175
0.887565
0.887812
0.888081
0.88836
0.88853
0.888715
0.889001
0.889353
0.889498
0.88944
0.889258
0.888994
0.88863
0.888186
0.888093
0.888267
0.888515
0.888673
0.888816
0.888929
0.888993
0.889067
0.889275
0.889819
0.890226
0.890277
0.890286
0.890195
0.889811
0.889612
0.889584
0.889617
0.889682
0.889684
0.8897
0.889693
0.889581
0.889424
0.889266
0.889121
0.889104
0.889117
0.889263
0.889545
0.8897
0.889818
0.889763
0.889762
0.89002
0.891685
0.901485
0.925291
0.995777
1.08673
1.1795
1.28205
1.29744
1.3247
1.34398
1.36516
1.36585
1.36158
1.35408
1.35492
1.35964
1.36202
1.36122
1.35792
1.35797
0.888863
0.888892
0.888926
0.888932
0.888935
0.888954
0.888969
0.888976
0.888983
0.88898
0.888975
0.888965
0.888928
0.888866
0.888781
0.888634
0.888403
0.888102
0.887756
0.887694
0.887713
0.887695
0.887557
0.88735
0.887066
0.886856
0.88683
0.886895
0.887156
0.887257
0.887371
0.887686
0.888105
0.888315
0.888429
0.888566
0.888765
0.88904
0.889433
0.889698
0.889644
0.889426
0.889193
0.888986
0.888743
0.888687
0.888888
0.889405
0.889819
0.889884
0.88985
0.889622
0.889477
0.889448
0.889733
0.890446
0.890642
0.890683
0.890686
0.89047
0.890044
0.88997
0.890066
0.890201
0.890184
0.890077
0.890031
0.890052
0.890095
0.890087
0.889967
0.889921
0.889984
0.890224
0.890494
0.890542
0.890517
0.890371
0.890028
0.889834
0.889605
0.88967
0.890609
0.898132
0.918791
0.98549
1.07911
1.18827
1.30552
1.33586
1.36049
1.35804
1.34037
1.34638
1.35865
1.36536
1.36358
1.35736
1.3563
1.35845
0.889359
0.889567
0.889798
0.88991
0.889941
0.889964
0.889975
0.889977
0.889959
0.889949
0.889998
0.890039
0.890031
0.889967
0.8898
0.889545
0.889195
0.888989
0.88898
0.888981
0.888918
0.888664
0.888325
0.88808
0.88787
0.887615
0.887392
0.887302
0.887251
0.88721
0.887253
0.887543
0.888167
0.888482
0.888587
0.888696
0.888872
0.889148
0.889527
0.889827
0.889771
0.889433
0.889175
0.889138
0.889125
0.889183
0.889561
0.890355
0.890577
0.890618
0.890654
0.890447
0.889873
0.889709
0.889705
0.890111
0.890668
0.890761
0.890786
0.890657
0.890089
0.889913
0.890067
0.89025
0.890196
0.889959
0.889915
0.890044
0.890588
0.890947
0.890893
0.890854
0.890956
0.891173
0.891341
0.891328
0.891232
0.890928
0.890279
0.889834
0.889577
0.889504
0.889515
0.889673
0.890645
0.897187
0.916955
0.984387
1.07767
1.18148
1.27759
1.30293
1.32307
1.35918
1.36636
1.36502
1.35484
1.35401
1.35641
1.3621
0.889559
0.889739
0.889918
0.890069
0.890158
0.890195
0.890211
0.890222
0.890221
0.890216
0.890231
0.890311
0.890339
0.890265
0.88999
0.88983
0.88983
0.889923
0.889998
0.889916
0.889353
0.888852
0.888854
0.888842
0.888693
0.888232
0.887857
0.887756
0.887673
0.88752
0.887523
0.887784
0.888296
0.888681
0.888877
0.88905
0.889202
0.889332
0.889636
0.889816
0.889624
0.889451
0.889468
0.889601
0.889722
0.889878
0.890482
0.891135
0.891199
0.891124
0.891147
0.891118
0.890554
0.889903
0.889893
0.890174
0.8903
0.890185
0.890117
0.890147
0.889941
0.889703
0.889935
0.890404
0.890412
0.890036
0.889875
0.890036
0.890784
0.891445
0.891474
0.891406
0.89145
0.891546
0.891659
0.891644
0.891504
0.891085
0.890611
0.890224
0.889934
0.88991
0.890066
0.890378
0.890555
0.89077
0.891687
0.897979
0.918885
0.986512
1.0833
1.20613
1.30964
1.35014
1.3617
1.34657
1.34136
1.35126
1.36423
1.36395
0.888703
0.888919
0.8893
0.889575
0.889657
0.889707
0.889774
0.889886
0.890006
0.890076
0.890163
0.890298
0.890304
0.890155
0.889889
0.889813
0.889832
0.890036
0.890097
0.889823
0.888979
0.888749
0.888844
0.888902
0.888763
0.888407
0.888398
0.88841
0.888424
0.888678
0.889104
0.889285
0.889481
0.889724
0.889777
0.889831
0.889927
0.889924
0.889569
0.889167
0.889086
0.889076
0.889501
0.889962
0.890142
0.890524
0.891404
0.891678
0.891649
0.891217
0.890976
0.891031
0.890743
0.889944
0.889753
0.890062
0.890278
0.890126
0.88964
0.889539
0.889475
0.889504
0.889818
0.890779
0.891381
0.891139
0.890691
0.890699
0.891109
0.891557
0.891617
0.89157
0.89157
0.891597
0.891443
0.891145
0.890756
0.890336
0.890265
0.8903
0.890493
0.89082
0.891254
0.891406
0.891461
0.89145
0.891366
0.891314
0.891973
0.897753
0.922367
0.991396
1.10143
1.20975
1.28032
1.31286
1.34215
1.36961
1.36916
1.36032
0.887194
0.888298
0.888576
0.888584
0.888399
0.888025
0.887977
0.888318
0.888731
0.888816
0.888915
0.888953
0.88896
0.889123
0.889204
0.889158
0.889239
0.889423
0.889268
0.888232
0.887707
0.887684
0.888028
0.888529
0.888495
0.888515
0.88889
0.889174
0.88964
0.89069
0.891045
0.891046
0.891129
0.891279
0.891293
0.891126
0.891
0.891022
0.890907
0.890111
0.888974
0.888787
0.889078
0.889899
0.890186
0.890628
0.891143
0.89116
0.890615
0.889634
0.889549
0.890069
0.890176
0.889712
0.889525
0.890034
0.890689
0.890718
0.890187
0.889447
0.889304
0.88943
0.889983
0.891186
0.891969
0.891902
0.891514
0.891243
0.891311
0.891573
0.891604
0.891448
0.891108
0.890694
0.89041
0.890097
0.890023
0.890094
0.890345
0.890819
0.891309
0.891694
0.891824
0.8919
0.891879
0.891817
0.891549
0.890867
0.890334
0.89044
0.891677
0.899052
0.931897
1.0072
1.12196
1.26763
1.33218
1.36445
1.35738
1.34501
0.884906
0.884877
0.884787
0.884641
0.884357
0.884107
0.884089
0.884325
0.884753
0.884743
0.884718
0.885132
0.886251
0.886665
0.886531
0.886453
0.886513
0.886479
0.886056
0.885772
0.885765
0.885942
0.886051
0.885923
0.885544
0.885042
0.885018
0.885648
0.887405
0.888749
0.889219
0.889529
0.889937
0.89032
0.890328
0.890078
0.889865
0.889842
0.889775
0.889309
0.888263
0.886871
0.886465
0.886692
0.887495
0.888553
0.889036
0.888937
0.887975
0.886894
0.886776
0.886919
0.887496
0.888263
0.889008
0.890127
0.891318
0.89157
0.891361
0.890544
0.889827
0.889814
0.890324
0.891525
0.892003
0.89192
0.891531
0.891311
0.891135
0.89081
0.890427
0.890057
0.889678
0.889451
0.889573
0.889676
0.889852
0.89027
0.891023
0.891742
0.891924
0.891931
0.891987
0.892012
0.89195
0.891625
0.890837
0.890349
0.890208
0.890291
0.890719
0.891261
0.893294
0.902324
0.944434
1.02997
1.15015
1.25757
1.29835
1.34032
0.879258
0.878815
0.878852
0.87892
0.878851
0.878668
0.878375
0.878038
0.877933
0.877973
0.87825
0.879019
0.880253
0.881271
0.881728
0.882113
0.882409
0.882446
0.882421
0.88238
0.882396
0.882369
0.881836
0.880906
0.879949
0.878527
0.877585
0.877816
0.878935
0.879354
0.879087
0.878859
0.878893
0.879307
0.880061
0.8807
0.881082
0.881767
0.882935
0.883266
0.883236
0.882859
0.882222
0.882169
0.882597
0.8839
0.88552
0.886187
0.886217
0.886277
0.886301
0.885922
0.885287
0.88536
0.886283
0.888456
0.890644
0.891175
0.89105
0.890486
0.88992
0.889915
0.890469
0.89099
0.890866
0.890664
0.890432
0.890147
0.889496
0.888567
0.888187
0.888238
0.888458
0.888816
0.889273
0.889939
0.890358
0.890893
0.891716
0.89202
0.891984
0.891945
0.891851
0.891598
0.891129
0.890441
0.890133
0.890205
0.890414
0.890966
0.891775
0.892158
0.892263
0.89253
0.894895
0.908293
0.962533
1.06144
1.20502
1.32853
0.87042
0.87038
0.870374
0.870828
0.871491
0.871606
0.871539
0.870985
0.870716
0.870821
0.871453
0.87254
0.873443
0.874743
0.876407
0.877417
0.87812
0.878749
0.879318
0.88037
0.88157
0.88173
0.881186
0.879812
0.87944
0.878769
0.876834
0.874148
0.873463
0.873695
0.873612
0.872112
0.871066
0.870969
0.871183
0.872232
0.873922
0.875534
0.877068
0.878503
0.878799
0.878743
0.87855
0.878632
0.879192
0.880398
0.881828
0.882298
0.882186
0.882173
0.882181
0.881949
0.88145
0.881243
0.881402
0.882157
0.883241
0.884226
0.884489
0.884554
0.884571
0.884582
0.884756
0.884598
0.884174
0.884131
0.884338
0.885048
0.885822
0.886243
0.88672
0.887358
0.888356
0.889168
0.889651
0.890166
0.890516
0.890997
0.891791
0.891902
0.891621
0.890981
0.890301
0.889844
0.889396
0.889453
0.88975
0.890445
0.89122
0.892079
0.892273
0.892201
0.892138
0.891764
0.891137
0.891524
0.895485
0.919628
0.981582
1.15227
0.873675
0.87365
0.873674
0.873878
0.874049
0.874078
0.874048
0.873961
0.874008
0.874289
0.874832
0.875616
0.876606
0.877717
0.879174
0.880107
0.880652
0.881094
0.881736
0.883081
0.885645
0.887088
0.886775
0.886555
0.886705
0.886022
0.8824
0.879168
0.879677
0.882437
0.883017
0.881493
0.879045
0.877414
0.876367
0.876053
0.876327
0.877304
0.878632
0.880598
0.882447
0.882687
0.882402
0.882402
0.882706
0.88319
0.884048
0.884417
0.883848
0.883363
0.883385
0.88343
0.883427
0.883163
0.882497
0.881068
0.878533
0.877588
0.87762
0.878121
0.879518
0.880373
0.880389
0.879978
0.879347
0.879192
0.879376
0.880127
0.881456
0.882621
0.883034
0.884315
0.886128
0.887478
0.888244
0.888838
0.889619
0.889643
0.88921
0.888397
0.887719
0.887673
0.887836
0.888209
0.888618
0.889465
0.89041
0.891194
0.8919
0.892273
0.892245
0.892063
0.891424
0.890421
0.890261
0.890759
0.891245
0.892803
0.899281
0.982752
0.897612
0.896317
0.894776
0.892999
0.891298
0.8903
0.890028
0.889994
0.889877
0.889686
0.889785
0.890158
0.89068
0.891273
0.892192
0.893656
0.894718
0.894822
0.894841
0.895519
0.896422
0.896488
0.896687
0.897987
0.899477
0.899491
0.898446
0.898042
0.89874
0.901502
0.902457
0.901806
0.899467
0.894656
0.88928
0.886514
0.886137
0.886219
0.88616
0.88597
0.88662
0.887266
0.887285
0.886811
0.885028
0.883961
0.883828
0.883464
0.882112
0.880017
0.879492
0.879854
0.881759
0.883083
0.883088
0.881677
0.877704
0.875557
0.875488
0.875991
0.877985
0.88003
0.880377
0.880068
0.878997
0.878426
0.878489
0.878885
0.879498
0.880691
0.883177
0.88404
0.883853
0.883418
0.88302
0.88287
0.882993
0.882935
0.882976
0.883102
0.883427
0.884088
0.885137
0.886486
0.888084
0.889404
0.890345
0.890983
0.891797
0.891714
0.891296
0.890472
0.889453
0.889398
0.889782
0.890521
0.891585
0.891915
0.892088
0.90539
0.921402
0.921384
0.921727
0.921818
0.92155
0.920515
0.916444
0.912287
0.911857
0.911871
0.911691
0.911388
0.910948
0.910209
0.910202
0.911613
0.912594
0.912314
0.911162
0.909548
0.907847
0.905551
0.903291
0.903342
0.905242
0.90717
0.906792
0.90603
0.906969
0.91118
0.913748
0.913709
0.912258
0.907634
0.903266
0.902903
0.903834
0.904043
0.903696
0.90211
0.900279
0.900091
0.900356
0.900102
0.897632
0.892304
0.888149
0.887158
0.886505
0.884573
0.883764
0.884028
0.885798
0.889767
0.892265
0.892176
0.890562
0.886849
0.883209
0.882269
0.882514
0.884251
0.887407
0.888819
0.888986
0.888856
0.887945
0.885658
0.884022
0.884047
0.885377
0.885909
0.885353
0.883636
0.882204
0.881782
0.88139
0.880757
0.880488
0.880524
0.880758
0.88141
0.882462
0.883783
0.885171
0.886632
0.887859
0.887867
0.887315
0.886918
0.887043
0.887279
0.887921
0.8891
0.890214
0.891214
0.8917
0.891873
0.891188
0.891862
0.975312
0.975222
0.975515
0.976034
0.974766
0.966832
0.963327
0.96312
0.963471
0.966425
0.968881
0.969801
0.970016
0.969744
0.968735
0.967965
0.96775
0.967779
0.968068
0.968049
0.967182
0.96407
0.957825
0.953837
0.953541
0.954289
0.954646
0.954089
0.95266
0.951549
0.950557
0.947421
0.944088
0.943564
0.942721
0.941871
0.942624
0.943312
0.941784
0.940345
0.940388
0.940821
0.941638
0.941599
0.940309
0.936597
0.932398
0.93049
0.929092
0.925189
0.92085
0.918751
0.91723
0.916905
0.917458
0.917723
0.917181
0.91449
0.910146
0.906497
0.903894
0.901767
0.900279
0.898907
0.897788
0.896969
0.895688
0.892886
0.888417
0.885355
0.885096
0.885107
0.884394
0.883047
0.882081
0.881809
0.881512
0.880906
0.880933
0.881567
0.882963
0.88484
0.886273
0.886649
0.886519
0.885728
0.88468
0.883004
0.882256
0.882449
0.882857
0.883431
0.884831
0.886884
0.888916
0.890836
0.890808
0.890192
0.889367
0.890052
1.02633
1.02626
1.02629
1.02673
1.02771
1.0284
1.02787
1.02228
1.01787
1.01734
1.01731
1.01735
1.0166
1.01593
1.016
1.0154
1.01332
1.01298
1.01378
1.01386
1.01242
1.00724
1.00365
1.00348
1.0039
1.00572
1.00593
1.00575
1.00669
1.00701
1.00674
1.00579
1.00371
0.99817
0.996213
0.995998
0.994663
0.991431
0.984029
0.975087
0.973044
0.972324
0.970233
0.967106
0.96614
0.967329
0.969415
0.969804
0.96958
0.967402
0.962843
0.958823
0.954165
0.946096
0.940995
0.939696
0.938047
0.934401
0.933043
0.932872
0.932248
0.929425
0.923138
0.914824
0.909278
0.909022
0.910412
0.911718
0.91058
0.906036
0.898977
0.894979
0.894393
0.894558
0.896008
0.896243
0.895361
0.894346
0.894251
0.89409
0.893393
0.892336
0.891208
0.889524
0.887731
0.885113
0.883642
0.882514
0.882222
0.882532
0.883165
0.88461
0.886697
0.887587
0.887213
0.886655
0.886351
0.886493
0.887455
0.8898
1.09148
1.09195
1.09235
1.09263
1.09338
1.09425
1.094
1.09032
1.08576
1.08551
1.08604
1.08551
1.08422
1.08467
1.08537
1.08482
1.08299
1.08091
1.0789
1.07882
1.07881
1.07589
1.06892
1.06704
1.06664
1.06548
1.06309
1.06249
1.06261
1.06188
1.05985
1.05909
1.05836
1.05528
1.0517
1.0513
1.0524
1.0528
1.05138
1.04701
1.04337
1.04034
1.03688
1.03439
1.03171
1.02602
1.01982
1.01907
1.01939
1.01902
1.01532
1.01319
1.01149
1.00786
1.00483
1.00339
1.00056
0.99324
0.988154
0.986256
0.984292
0.981398
0.977632
0.972294
0.9639
0.958607
0.956767
0.956076
0.954616
0.949607
0.940978
0.934184
0.930031
0.92597
0.921996
0.918361
0.914576
0.910095
0.905697
0.901956
0.897944
0.89401
0.890934
0.889367
0.888237
0.88654
0.884674
0.885468
0.8874
0.889452
0.889606
0.889509
0.888693
0.88707
0.885187
0.883608
0.883784
0.884282
0.885742
0.888111
1.15849
1.15866
1.15991
1.16054
1.16017
1.15651
1.15414
1.15413
1.15366
1.15159
1.14861
1.14706
1.14718
1.14762
1.14696
1.14327
1.14193
1.14202
1.14146
1.14114
1.14085
1.13874
1.13445
1.13329
1.13305
1.13239
1.13142
1.13077
1.12944
1.12724
1.12533
1.12436
1.12353
1.12087
1.11576
1.11201
1.11
1.10845
1.10575
1.10024
1.09709
1.09579
1.09338
1.09157
1.09034
1.08742
1.08465
1.08247
1.07969
1.07542
1.07012
1.06386
1.05594
1.05184
1.0517
1.05139
1.04925
1.04409
1.03926
1.03516
1.02673
1.01596
1.01319
1.0124
1.01094
1.00667
0.998966
0.990408
0.984542
0.980848
0.976381
0.969999
0.964283
0.959073
0.953211
0.947973
0.942865
0.937799
0.932405
0.927171
0.921937
0.918464
0.915058
0.911218
0.909981
0.909368
0.907181
0.905106
0.903427
0.90122
0.897607
0.893789
0.888894
0.886234
0.884928
0.883789
0.884418
0.88681
0.889601
0.888776
1.22854
1.22815
1.22683
1.22548
1.22547
1.22563
1.22493
1.22241
1.22168
1.2216
1.22083
1.21801
1.21611
1.2164
1.21695
1.21604
1.21424
1.21252
1.21086
1.20978
1.20892
1.20694
1.20294
1.2009
1.20014
1.19931
1.19733
1.19475
1.19289
1.19127
1.18766
1.1851
1.18466
1.18401
1.18204
1.1778
1.17582
1.17516
1.17404
1.17142
1.16691
1.16269
1.15914
1.15633
1.15186
1.14447
1.14279
1.14232
1.14087
1.13674
1.13228
1.12862
1.12476
1.12088
1.11725
1.11262
1.10369
1.09645
1.09635
1.09628
1.09337
1.08672
1.07879
1.07131
1.06669
1.06295
1.05959
1.05424
1.04541
1.03882
1.03578
1.03215
1.02608
1.01902
1.01215
1.00565
0.998952
0.992104
0.984355
0.975791
0.968084
0.959614
0.952347
0.945396
0.937631
0.930722
0.924776
0.918142
0.912002
0.905495
0.90095
0.896226
0.893972
0.891347
0.891847
0.893878
0.895189
0.894646
0.892664
0.887836
1.30375
1.30251
1.30221
1.30179
1.29974
1.29675
1.29617
1.29663
1.29709
1.29646
1.29501
1.29374
1.29115
1.29006
1.28961
1.2889
1.2875
1.28445
1.28296
1.28233
1.28041
1.279
1.27856
1.27756
1.27509
1.27188
1.26952
1.26737
1.26555
1.26403
1.26193
1.2578
1.25569
1.25481
1.25333
1.24989
1.24572
1.24281
1.24081
1.23892
1.23627
1.23194
1.22673
1.2238
1.2217
1.21831
1.21312
1.20887
1.20576
1.20198
1.19762
1.19368
1.18853
1.18201
1.17843
1.17559
1.17034
1.16282
1.157
1.15282
1.14774
1.14231
1.1368
1.1311
1.12622
1.11811
1.10894
1.10201
1.09726
1.09133
1.08386
1.07647
1.06925
1.0622
1.05472
1.04638
1.03853
1.03014
1.02226
1.01461
1.00717
0.999209
0.990863
0.982744
0.975396
0.967934
0.959294
0.952286
0.945865
0.939782
0.935778
0.930846
0.927556
0.92337
0.918903
0.913715
0.907247
0.899637
0.892456
0.887841
1.38404
1.38388
1.38367
1.38154
1.37662
1.37541
1.37588
1.3761
1.37526
1.37438
1.37384
1.37136
1.37007
1.37014
1.36892
1.36689
1.36533
1.36329
1.36161
1.36058
1.35815
1.35477
1.35411
1.35368
1.35206
1.34771
1.34434
1.34299
1.34204
1.34037
1.33796
1.33315
1.32702
1.32642
1.32632
1.32502
1.32147
1.31716
1.31374
1.31045
1.30749
1.30454
1.30026
1.29336
1.28933
1.2876
1.28485
1.28007
1.27504
1.27002
1.26479
1.26073
1.2569
1.25051
1.24376
1.2396
1.23601
1.22892
1.22106
1.21662
1.2125
1.20633
1.19854
1.19104
1.18594
1.18064
1.17421
1.1643
1.15541
1.14996
1.14475
1.13746
1.12941
1.12207
1.11458
1.10678
1.09913
1.0912
1.08292
1.07547
1.06758
1.05959
1.05054
1.04047
1.03105
1.02181
1.01246
1.00178
0.990431
0.981067
0.969768
0.960393
0.950043
0.941662
0.932324
0.92273
0.915801
0.907735
0.905631
0.905706
1.47136
1.4688
1.46817
1.46842
1.4688
1.46759
1.46174
1.45842
1.45863
1.45889
1.45883
1.45756
1.45367
1.45315
1.45315
1.45217
1.45
1.44621
1.44485
1.44438
1.4437
1.4411
1.43604
1.43489
1.43462
1.43337
1.42922
1.4233
1.42184
1.42187