/*--------------------------------*- C++ -*----------------------------------*\
  =========                 |
  \\      /  F ield         | OpenFOAM: The Open Source CFD Toolbox
   \\    /   O peration     | Website:  https://openfoam.org
    \\  /    A nd           | Version:  7
     \\/     M anipulation  |
\*---------------------------------------------------------------------------*/
FoamFile
{
    version     2.0;
    format      ascii;
    class       volScalarField;
    location    "4.4";
    object      rho;
}
// * * * * * * * * * * * * * * * * * * * * * * * * * * * * * * * * * * * * * //

dimensions      [1 -3 0 0 0 0 0];

internalField   nonuniform List<scalar> 
1750
(
0.203484
0.368163
0.50201
0.53859
0.562131
0.619027
0.689329
0.732212
0.743955
0.746688
0.0619509
0.116113
0.253065
0.400823
0.530081
0.623484
0.680678
0.677243
0.677358
0.70373
0.0845627
0.102744
0.107723
0.165527
0.316918
0.479788
0.589879
0.654742
0.698203
0.749859
0.115673
0.131234
0.167975
0.204952
0.204813
0.228089
0.311779
0.457
0.5959
0.711413
0.185441
0.202026
0.243128
0.265944
0.270547
0.279416
0.302722
0.310055
0.33309
0.460775
0.328888
0.332085
0.334275
0.3498
0.367224
0.384487
0.39951
0.419387
0.433467
0.450813
0.519923
0.51915
0.518605
0.520636
0.531479
0.535258
0.538024
0.538773
0.537646
0.525922
0.797607
0.774363
0.756493
0.739419
0.71946
0.701343
0.688371
0.673974
0.65688
0.645075
1.15695
1.11716
1.07359
1.0341
0.995229
0.955224
0.921072
0.889727
0.866656
0.826774
1.42114
1.39869
1.36814
1.33192
1.29076
1.24583
1.19713
1.14731
1.10306
1.02967
1.47007
1.468
1.46453
1.45859
1.44865
1.43318
1.4111
1.38045
1.34518
1.271
1.45014
1.45382
1.45757
1.45799
1.45771
1.45732
1.45623
1.45322
1.44773
1.42378
1.41223
1.41619
1.42123
1.42728
1.43306
1.43844
1.44309
1.44668
1.44764
1.44601
1.40063
1.40108
1.40184
1.4032
1.40526
1.40828
1.41229
1.41753
1.4233
1.43101
1.40001
1.40002
1.40004
1.40009
1.40019
1.40041
1.40085
1.40172
1.40319
1.40806
0.0607083
0.0561123
0.0705667
0.10232
0.181227
0.324764
0.518962
0.81672
1.19146
1.43756
1.47089
1.44609
1.40881
1.4004
1.40001
0.0610169
0.0568455
0.0717913
0.118878
0.230938
0.387229
0.614378
0.953076
1.31493
1.47105
1.47194
1.43568
1.40448
1.40014
1.40001
0.0622885
0.0561255
0.0702363
0.132535
0.259208
0.419601
0.693771
1.06974
1.38977
1.48058
1.47054
1.42582
1.40243
1.40007
1.40001
0.0638956
0.0541167
0.0836203
0.154457
0.286413
0.48618
0.820528
1.1916
1.44144
1.48469
1.46203
1.41768
1.4012
1.40003
1.40001
0.0632093
0.0519856
0.0997743
0.174375
0.318516
0.603016
0.943437
1.29315
1.47467
1.48606
1.454
1.41071
1.4005
1.40001
1.40001
0.0570223
0.0509031
0.105326
0.212636
0.40907
0.716142
1.0728
1.39058
1.49272
1.48625
1.44107
1.40529
1.4002
1.40001
1.40001
0.0496729
0.0563932
0.109873
0.257667
0.519427
0.843027
1.22483
1.4636
1.49955
1.47951
1.42584
1.40237
1.40007
1.40001
1.40001
0.0426032
0.0677353
0.143871
0.327864
0.648264
1.02401
1.35958
1.49866
1.5011
1.46494
1.41421
1.40088
1.40003
1.40001
1.40001
0.0288259
0.073814
0.20568
0.46493
0.815409
1.2051
1.45199
1.51118
1.50095
1.44447
1.40647
1.40028
1.40001
1.40001
1.40001
0.0146101
0.081321
0.292236
0.646138
1.03501
1.35617
1.50421
1.51441
1.48258
1.42571
1.40247
1.40009
1.40001
1.40001
1.40001
0.0080876
0.132547
0.461029
0.853776
1.24053
1.46844
1.52275
1.51413
1.46077
1.41216
1.40074
1.40002
1.40001
1.40001
1.40001
0.0463621
0.289047
0.700227
1.11525
1.40551
1.52181
1.52624
1.49552
1.43463
1.4042
1.40019
1.40001
1.40001
1.40001
1.40001
0.182024
0.530137
0.992412
1.34535
1.50952
1.53602
1.52388
1.46816
1.41494
1.40115
1.40004
1.40001
1.40001
1.40001
1.40001
0.433802
0.875642
1.29381
1.48857
1.54536
1.53867
1.49911
1.43442
1.4045
1.40024
1.40001
1.40001
1.40001
1.40001
1.40001
0.916024
1.28653
1.48683
1.54206
1.55087
1.5246
1.46118
1.41236
1.40095
1.40004
1.40001
1.40001
1.40001
1.40001
1.40001
1.54602
1.54941
1.55177
1.54967
1.54566
1.48799
1.42208
1.40151
1.40003
1.40001
1.40001
1.40001
1.40001
1.40001
1.40001
1.54555
1.55042
1.55327
1.54579
1.53463
1.47472
1.42063
1.40235
1.40011
1.40001
1.40001
1.40001
1.40001
1.40001
1.40001
1.54619
1.5543
1.55651
1.54601
1.51896
1.44964
1.40769
1.40036
1.40001
1.40001
1.40001
1.40001
1.40001
1.40001
1.40001
1.54741
1.55681
1.55741
1.54132
1.49665
1.43035
1.40321
1.40013
1.40001
1.40001
1.40001
1.40001
1.40001
1.40001
1.40001
1.54711
1.5576
1.55754
1.53291
1.47008
1.41535
1.40113
1.40004
1.40001
1.40001
1.40001
1.40001
1.40001
1.40001
1.40001
1.54693
1.55741
1.55418
1.51041
1.4465
1.40714
1.40037
1.40001
1.40001
1.40001
1.40001
1.40001
1.40001
1.40001
1.40001
1.5559
1.55552
1.54768
1.48868
1.42537
1.40249
1.4001
1.40001
1.40001
1.40001
1.40001
1.40001
1.40001
1.40001
1.40001
1.57234
1.54875
1.53152
1.45812
1.41154
1.40084
1.40003
1.40001
1.40001
1.40001
1.40001
1.40001
1.40001
1.40001
1.40001
1.58419
1.53716
1.50105
1.4342
1.40458
1.40022
1.40001
1.40001
1.40001
1.40001
1.40001
1.40001
1.40001
1.40001
1.40001
1.59122
1.52318
1.46922
1.41653
1.4015
1.40006
1.40001
1.40001
1.40001
1.40001
1.40001
1.40001
1.40001
1.40001
1.40001
1.59206
1.50053
1.44084
1.40636
1.40038
1.40002
1.40001
1.40001
1.40001
1.40001
1.40001
1.40001
1.40001
1.40001
1.40001
1.5681
1.47246
1.42041
1.40211
1.40009
1.40001
1.40001
1.40001
1.40001
1.40001
1.40001
1.40001
1.40001
1.40001
1.40001
1.53739
1.44642
1.40807
1.40049
1.40002
1.40001
1.40001
1.40001
1.40001
1.40001
1.40001
1.40001
1.40001
1.40001
1.40001
1.49598
1.42131
1.40202
1.40008
1.40001
1.40001
1.40001
1.40001
1.40001
1.40001
1.40001
1.40001
1.40001
1.40001
1.40001
1.44313
1.4059
1.40029
1.40001
1.40001
1.40001
1.40001
1.40001
1.40001
1.40001
1.40001
1.40001
1.40001
1.40001
1.40001
1.40001
1.40001
1.40001
1.40001
1.40001
1.40001
1.40001
1.40001
1.40001
1.40001
1.40001
1.40001
1.40001
1.40001
1.40001
1.40001
1.40001
1.40001
1.40001
1.40001
1.40001
1.40001
1.40001
1.40001
1.40001
1.40001
1.40001
1.40001
1.40001
1.40001
1.40001
1.40001
1.40001
1.40001
1.40001
1.40001
1.40001
1.40001
1.40001
1.40001
1.40001
1.40001
1.40001
1.40001
1.40001
1.40001
1.40001
1.40001
1.40001
1.40001
1.40001
1.40001
1.40001
1.40001
1.40001
1.40001
1.40001
1.40001
1.40001
1.40001
1.40001
1.40001
1.40001
1.40001
1.40001
1.40001
1.40001
1.40001
1.40001
1.40001
1.40001
1.40001
1.40001
1.40001
1.40001
1.40001
1.40001
1.40001
1.40001
1.40001
1.40001
1.40001
1.40001
1.40001
1.40001
1.40001
1.40001
1.40001
1.40001
1.40001
1.40001
1.40001
1.40001
1.40001
1.40001
1.40001
1.40001
1.40001
1.40001
1.40001
1.40001
1.40001
1.40001
1.40001
1.40001
1.40001
1.40001
1.40001
1.40001
1.40001
1.40001
1.40001
1.40001
1.40001
1.40001
1.40001
1.40001
1.40001
1.40001
1.40001
1.40001
1.40001
1.40001
1.40001
1.40001
1.40001
1.40001
1.40001
1.40001
1.40001
1.40001
1.40001
1.40001
1.40001
1.40001
1.40001
1.40001
1.40001
1.40001
1.40001
1.40001
1.40001
1.40001
1.40001
1.40001
1.40001
1.40001
1.40001
1.40001
1.40001
1.40001
1.40001
1.40001
1.40001
1.40001
1.40001
1.40001
1.40001
1.40001
1.40001
1.40001
1.40001
1.40001
1.40001
1.40001
1.40001
1.40001
1.40001
1.40001
1.40001
1.40001
1.40001
1.40001
1.40001
1.40001
1.40001
1.40001
1.40001
1.40001
1.40001
1.40001
1.40001
1.40001
1.40001
1.40001
1.40001
1.40001
1.40001
1.40001
1.40001
1.40001
1.40001
1.40001
1.40001
1.40001
1.40001
1.40001
1.40001
1.40001
1.40001
1.40001
1.40001
1.40001
1.40001
1.40001
1.40001
1.40001
1.40001
1.40001
1.40001
1.40001
1.40001
1.40001
1.40001
1.40001
1.40001
1.40001
1.40001
1.40001
1.40001
1.40001
1.40001
1.40001
1.40001
1.40001
1.40001
1.40001
1.40001
1.40001
1.40001
1.40001
1.40001
1.40001
1.40001
1.40001
1.40001
1.40001
1.40001
1.40001
1.40001
1.40001
1.40001
1.40001
1.40001
1.40001
1.40001
1.40001
1.40001
1.40001
1.40001
1.40001
1.40001
1.40001
1.40001
1.40001
1.40001
1.40001
1.40001
1.40001
1.40001
1.40001
1.40001
1.40001
1.40001
1.40001
1.40001
1.40001
1.40001
1.40001
1.40001
1.40001
1.40001
1.40001
1.40001
1.40001
1.40001
1.40001
1.40001
1.40001
1.40001
1.40001
1.40001
1.40001
1.40001
1.40001
1.40001
1.40001
1.40001
1.40001
1.40001
1.40001
1.40001
1.40001
1.40001
1.40001
1.40001
1.40001
1.40001
1.40001
1.40001
1.40001
1.40001
1.40001
1.40001
1.40001
1.40001
1.40001
1.40001
1.40001
1.40001
1.40001
1.40001
1.40001
1.40001
1.40001
1.40001
1.40001
1.40001
1.40001
1.40001
1.40001
1.40001
1.40001
1.40001
1.40001
1.40001
1.40001
1.40001
1.40001
1.40001
1.40001
1.40001
1.40001
1.40001
1.40001
1.40001
1.40001
1.40001
1.40001
1.40001
1.40001
1.40001
1.40001
1.40001
1.40001
1.40001
1.40001
1.40001
1.40001
1.40001
4.2444
2.74109
1.42646
1.4
1.40001
1.40001
1.40001
1.40001
1.40001
1.40001
1.40001
1.40001
1.40001
1.40001
1.40001
1.40001
1.40001
1.40001
1.40001
1.40001
5.56273
4.89124
3.96356
1.95043
1.4
1.40001
1.40001
1.40001
1.40001
1.40001
1.40001
1.40001
1.40001
1.40001
1.40001
1.40001
1.40001
1.40001
1.40001
1.40001
5.01039
4.72945
4.86189
4.38923
2.36526
1.39925
1.40001
1.40001
1.40001
1.40001
1.40001
1.40001
1.40001
1.40001
1.40001
1.40001
1.40001
1.40001
1.40001
1.40001
4.78529
4.68603
4.77241
4.84198
4.60021
2.62469
1.40016
1.40001
1.40001
1.40001
1.40001
1.40001
1.40001
1.40001
1.40001
1.40001
1.40001
1.40001
1.40001
1.40001
4.74076
4.71577
4.75652
4.75102
4.79683
4.59749
2.54359
1.39813
1.40001
1.40001
1.40001
1.40001
1.40001
1.40001
1.40001
1.40001
1.40001
1.40001
1.40001
1.40001
4.71992
4.70503
4.71549
4.71324
4.75017
4.7786
4.36079
2.1816
1.39803
1.40001
1.40001
1.40001
1.40001
1.40001
1.40001
1.40001
1.40001
1.40001
1.40001
1.40001
4.68759
4.66789
4.67045
4.67729
4.7243
4.74207
4.77231
4.16623
1.9552
1.3979
1.40001
1.40001
1.40001
1.40001
1.40001
1.40001
1.40001
1.40001
1.40001
1.40001
4.64568
4.61942
4.62455
4.63383
4.6712
4.68795
4.72817
4.62618
3.46972
1.58821
1.39926
1.40001
1.40001
1.40001
1.40001
1.40001
1.40001
1.40001
1.40001
1.40001
4.59956
4.57082
4.57757
4.58551
4.61101
4.6453
4.64852
4.63091
4.48261
2.60237
1.41203
1.40001
1.40001
1.40001
1.40001
1.40001
1.40001
1.40001
1.40001
1.40001
4.55558
4.52937
4.53568
4.53895
4.5587
4.58759
4.6094
4.59952
4.69588
4.18508
1.96971
1.39752
1.40001
1.40001
1.40001
1.40001
1.40001
1.40001
1.40001
1.40001
4.52026
4.49509
4.49479
4.49122
4.50785
4.53488
4.57154
4.59982
4.66905
4.49785
3.13908
1.50268
1.39999
1.40001
1.40001
1.40001
1.40001
1.40001
1.40001
1.40001
4.49909
4.47151
4.46299
4.45427
4.46133
4.4909
4.52742
4.57309
4.60853
4.55894
4.26145
2.18832
1.39991
1.40001
1.40001
1.40001
1.40001
1.40001
1.40001
1.40001
4.48959
4.45971
4.44499
4.42592
4.4285
4.44877
4.48209
4.53494
4.56798
4.5635
4.54431
3.38577
1.58006
1.39918
1.4
1.40001
1.40001
1.40001
1.40001
1.40001
4.4765
4.44925
4.43524
4.41579
4.40942
4.41935
4.44582
4.5008
4.53827
4.55341
4.53543
4.21422
2.28357
1.40872
1.4
1.40001
1.40001
1.40001
1.40001
1.40001
4.44933
4.41047
4.39536
4.38236
4.37958
4.38679
4.42547
4.4843
4.51989
4.52751
4.50942
4.4679
3.30105
1.4886
1.39665
1.39994
1.4
1.40001
1.40001
1.40001
2.00541
2.76749
3.11258
3.37678
3.59377
3.74723
3.90407
4.05343
4.19856
4.29783
4.36979
4.43998
4.29695
2.75462
1.53627
1.40198
1.40002
1.40001
1.40001
1.40001
0.781704
1.71034
2.18081
2.52209
2.8023
3.07839
3.29813
3.52118
3.71765
3.90875
4.03345
4.22947
4.32269
3.92127
2.33492
1.46896
1.40083
1.40001
1.40001
1.40001
0.653313
1.17813
1.57917
1.96775
2.25549
2.53355
2.78525
3.02697
3.26135
3.49605
3.67249
3.91817
4.16673
4.04648
3.42463
1.9132
1.42096
1.40018
1.40001
1.40001
0.736157
0.992344
1.146
1.48617
1.84373
2.10689
2.3832
2.59584
2.86113
3.09998
3.34992
3.57997
3.87377
3.90107
3.85305
2.81318
1.59617
1.40378
1.40003
1.40001
0.894006
0.916079
0.966647
1.20041
1.47041
1.74537
2.02175
2.25915
2.49133
2.74231
3.01965
3.25385
3.51618
3.70624
3.77863
3.48227
2.13311
1.44352
1.40043
1.40001
0.947453
0.905606
0.929213
1.09654
1.26952
1.49879
1.72185
1.99091
2.18954
2.46218
2.72432
2.9974
3.18343
3.41174
3.64035
3.60812
2.82828
1.63392
1.40499
1.40003
0.933182
0.907808
0.922956
1.00188
1.11176
1.33428
1.52947
1.7704
1.98447
2.22002
2.48509
2.76134
2.97374
3.1682
3.44928
3.56394
3.30106
2.08599
1.43898
1.40033
0.933018
0.925636
0.937375
0.966359
0.982363
1.12768
1.34333
1.55292
1.79934
1.98316
2.25236
2.49644
2.76439
2.96127
3.24205
3.47142
3.43191
2.59567
1.56767
1.40308
0.95732
0.962447
0.973924
0.968156
0.970937
1.05792
1.19883
1.36382
1.60957
1.81461
2.02623
2.24865
2.51361
2.73349
2.98554
3.3094
3.40242
3.03933
1.84817
1.41756
0.975005
0.979832
0.987111
0.97556
0.973662
1.03294
1.12389
1.27213
1.46558
1.69544
1.88524
2.10876
2.31671
2.56733
2.79836
3.10728
3.32842
3.26594
2.29947
1.48075
0.971284
0.973803
0.978332
0.968006
0.974432
1.00087
1.04976
1.19497
1.34836
1.57872
1.77033
1.9824
2.18322
2.42117
2.65005
2.92049
3.2249
3.22503
2.62446
1.63893
0.952903
0.953112
0.961794
0.972111
0.976704
0.980454
0.986802
1.08541
1.21527
1.41389
1.61642
1.81569
2.02628
2.23983
2.46146
2.70386
3.05365
3.15666
2.89191
1.91955
0.928423
0.934052
0.964492
0.987964
0.990271
0.979092
0.978671
1.05191
1.15796
1.27969
1.47828
1.65976
1.88606
2.09862
2.32288
2.55065
2.87891
3.09555
3.01307
2.29705
0.913095
0.928272
0.970945
0.999246
0.994604
0.981188
0.982006
1.04415
1.12913
1.23536
1.39992
1.57749
1.79003
2.00831
2.22336
2.43788
2.72979
3.02408
2.97536
2.70288
0.912683
0.930215
0.969994
0.998746
0.994908
0.978861
0.977665
1.01491
1.08248
1.18373
1.32225
1.49652
1.68903
1.91251
2.1023
2.29782
2.55844
2.911
2.95121
3.10477
0.802299
0.920812
0.969204
0.998182
0.99621
0.981302
0.974666
0.98483
1.01377
1.11435
1.21874
1.40022
1.56872
1.79242
1.99088
2.17528
2.42685
2.78465
2.96823
3.46755
0.701234
0.872829
0.958693
0.996494
0.999147
0.991435
0.978933
0.978083
0.987374
1.06386
1.15312
1.30342
1.49382
1.68344
1.89939
2.08696
2.30785
2.64255
2.99738
3.78407
0.652551
0.810541
0.924649
0.985705
0.998331
0.995993
0.983933
0.970549
0.974143
1.0273
1.12165
1.24111
1.42945
1.61536
1.79805
1.98589
2.17296
2.4808
2.98684
4.0369
0.609358
0.748443
0.867405
0.951681
0.990244
0.989737
0.975883
0.9497
0.951282
0.976217
1.07069
1.19196
1.34301
1.5321
1.69558
1.8768
2.046
2.32816
2.94754
4.26002
0.613108
0.700897
0.788828
0.888051
0.961542
0.977033
0.967209
0.94736
0.947619
0.963592
1.01245
1.134
1.259
1.42966
1.5912
1.77069
1.9371
2.19944
2.90925
4.42283
0.631866
0.654863
0.712728
0.82142
0.911207
0.954528
0.959891
0.95055
0.951308
0.963623
0.986213
1.07468
1.18929
1.34074
1.49585
1.66138
1.83285
2.1079
2.85759
4.50661
0.671498
0.655231
0.670441
0.755395
0.840933
0.912579
0.943275
0.944151
0.946103
0.953584
0.966473
1.03408
1.13213
1.25955
1.40667
1.56116
1.7187
2.0116
2.86
4.54779
0.747906
0.706077
0.679123
0.7078
0.760218
0.853568
0.912166
0.926375
0.931026
0.933439
0.938448
0.994232
1.07415
1.18315
1.31472
1.4679
1.62366
1.95108
2.81398
4.45849
0.805843
0.775758
0.703868
0.685518
0.703017
0.785577
0.861151
0.90208
0.910357
0.911177
0.921368
0.965286
1.01575
1.11783
1.24096
1.37464
1.54127
1.90588
2.79565
4.31591
0.825574
0.83604
0.807007
0.740965
0.710815
0.734005
0.774631
0.83594
0.864508
0.871169
0.890376
0.915668
0.939632
1.01623
1.12209
1.23862
1.41831
1.85923
2.7083
4.02862
)
;

boundaryField
{
    inlet
    {
        type            calculated;
        value           uniform 1.40001;
    }
    outlet
    {
        type            calculated;
        value           nonuniform List<scalar> 
35
(
0.825646
0.83621
0.807256
0.741179
0.71105
0.734232
0.774831
0.836131
0.864796
0.871605
0.890829
0.915997
0.939847
1.01648
1.12222
1.23876
1.41884
1.86098
2.71019
4.03083
0.746743
0.703992
0.750357
0.712197
0.461607
0.450625
0.525945
0.645078
0.826819
1.02969
1.27102
1.42379
1.44602
1.43101
1.40806
)
;
    }
    airfoil
    {
        type            calculated;
        value           nonuniform List<scalar> 
60
(
0.0607083
0.0610169
0.0622885
0.0638956
0.0632093
0.0570223
0.0496729
0.0426032
0.0288259
0.0146101
0.0080876
0.0463621
0.182024
0.433802
0.916024
1.54602
1.54555
1.54619
1.54741
1.54711
1.54693
1.5559
1.57234
1.58419
1.59122
1.59206
1.5681
1.53739
1.49598
1.44313
4.2444
5.56273
5.01039
4.78529
4.74076
4.71992
4.68759
4.64568
4.59956
4.55558
4.52026
4.49909
4.48959
4.4765
4.44933
2.00541
0.781704
0.653313
0.736157
0.894006
0.947453
0.933182
0.933018
0.95732
0.975005
0.971284
0.952903
0.928423
0.913095
0.912683
)
;
    }
    top
    {
        type            symmetryPlane;
    }
    bottom
    {
        type            symmetryPlane;
    }
    defaultFaces
    {
        type            empty;
    }
}


// ************************************************************************* //
