/*--------------------------------*- C++ -*----------------------------------*\
  =========                 |
  \\      /  F ield         | OpenFOAM: The Open Source CFD Toolbox
   \\    /   O peration     | Website:  https://openfoam.org
    \\  /    A nd           | Version:  7
     \\/     M anipulation  |
\*---------------------------------------------------------------------------*/
FoamFile
{
    version     2.0;
    format      ascii;
    class       volScalarField;
    location    "6.3";
    object      T;
}
// * * * * * * * * * * * * * * * * * * * * * * * * * * * * * * * * * * * * * //

dimensions      [0 0 0 1 0 0 0];

internalField   nonuniform List<scalar> 
1750
(
1.43727
1.52548
1.4818
1.43479
1.38194
1.40422
1.43709
1.43709
1.44799
1.44947
0.437353
0.94829
1.59742
1.8686
1.84255
1.78898
1.73478
1.66752
1.63
1.59318
0.353483
0.359864
0.497767
1.02148
1.47856
1.61418
1.68984
1.68898
1.68017
1.63777
0.377356
0.396521
0.425097
0.441908
0.494834
0.739377
1.00623
1.2419
1.36613
1.4348
0.467081
0.477554
0.504694
0.512998
0.514589
0.526894
0.540458
0.605923
0.734821
1.00818
0.567901
0.576428
0.57869
0.585068
0.5942
0.605033
0.619021
0.627832
0.632376
0.653992
0.683697
0.683177
0.682849
0.686062
0.689993
0.68982
0.688376
0.689937
0.687392
0.682321
0.816156
0.805092
0.797118
0.789754
0.780775
0.771758
0.765235
0.758231
0.750759
0.744802
0.942837
0.928218
0.913286
0.899349
0.884978
0.869278
0.854684
0.842179
0.832373
0.815903
1.0104
1.00458
0.996368
0.986472
0.974824
0.961288
0.945841
0.929498
0.914363
0.890254
1.02058
1.0201
1.01924
1.01787
1.01548
1.01152
1.00556
0.997073
0.987183
0.966686
1.01453
1.01561
1.01641
1.01693
1.01692
1.01677
1.01638
1.01555
1.0142
1.00833
1.00346
1.00466
1.00609
1.00778
1.00952
1.01104
1.01233
1.0133
1.01374
1.01351
1.00018
1.00031
1.00053
1.00091
1.0015
1.00238
1.00352
1.005
1.00661
1.00896
1
1.00001
1.00001
1.00002
1.00005
1.00012
1.00024
1.00049
1.0009
1.00232
0.493371
0.412091
0.348577
0.361737
0.458227
0.560812
0.682041
0.826868
0.954507
1.0143
1.02085
1.01325
1.00257
1.00012
1
0.480247
0.38761
0.333094
0.381649
0.490334
0.598912
0.730939
0.876008
0.985496
1.02182
1.02109
1.01059
1.00137
1.00004
1
0.472012
0.370219
0.334978
0.409149
0.504958
0.62717
0.771377
0.914804
1.00366
1.02399
1.02083
1.0078
1.0007
1.00002
1
0.473621
0.34936
0.359233
0.427673
0.530293
0.669124
0.825469
0.951779
1.01576
1.02491
1.01854
1.00504
1.00033
1.00001
1
0.468032
0.325437
0.370928
0.4398
0.582515
0.736179
0.873433
0.980414
1.02347
1.02521
1.01531
1.00306
1.00015
1
1
0.460913
0.3152
0.368533
0.480068
0.642738
0.787209
0.917892
1.00508
1.02746
1.02511
1.01168
1.00157
1.00005
1
1
0.47151
0.345661
0.401703
0.555291
0.699248
0.839223
0.962223
1.02173
1.02892
1.02247
1.00762
1.00066
1.00002
1
1
0.487584
0.375025
0.441458
0.613362
0.767485
0.904113
0.997542
1.02934
1.02925
1.01883
1.00423
1.00026
1.00001
1
1
0.462951
0.384018
0.513975
0.682692
0.836924
0.957953
1.01913
1.03195
1.02862
1.01327
1.00187
1.00008
1
1
1
0.332129
0.372369
0.604878
0.782202
0.911129
0.996485
1.03079
1.03265
1.02392
1.00751
1.00071
1.00002
1
1
1
0.0821117
0.458709
0.711052
0.86301
0.968514
1.02283
1.03486
1.03227
1.0178
1.00357
1.00022
1.00001
1
1
1
0.111013
0.594789
0.80051
0.934458
1.00991
1.03564
1.03574
1.02766
1.01016
1.00123
1.00005
1
1
1
1
0.215987
0.671198
0.889842
0.995724
1.0337
1.03887
1.0355
1.01991
1.00442
1.00034
1.00001
1
1
1
1
0.469753
0.810952
0.97868
1.0289
1.04146
1.03954
1.02838
1.00997
1.00131
1.00006
1
1
1
1
1
0.813173
0.975213
1.02921
1.04043
1.04258
1.03541
1.01728
1.00357
1.00027
1.00001
1
1
1
1
1
1.04116
1.04202
1.04267
1.04199
1.04056
1.02448
1.00639
1.00044
1.00001
1
1
1
1
1
1
1.04114
1.04243
1.04312
1.04107
1.03773
1.02143
1.00623
1.00068
1.00003
1
1
1
1
1
1
1.04133
1.04335
1.04383
1.04122
1.03364
1.01425
1.00214
1.0001
1
1
1
1
1
1
1
1.04134
1.04379
1.04394
1.03985
1.02715
1.0087
1.00093
1.00004
1
1
1
1
1
1
1
1.04113
1.04394
1.04364
1.03652
1.02028
1.00456
1.00034
1.00001
1
1
1
1
1
1
1
1.04167
1.04424
1.04296
1.03169
1.01371
1.00206
1.0001
1
1
1
1
1
1
1
1
1.04471
1.04467
1.04221
1.02571
1.0074
1.00074
1.00003
1
1
1
1
1
1
1
1
1.04866
1.04249
1.03722
1.01763
1.00375
1.00027
1.00001
1
1
1
1
1
1
1
1
1.05216
1.03934
1.03091
1.01174
1.00169
1.00008
1
1
1
1
1
1
1
1
1
1.05468
1.03725
1.02322
1.00651
1.00068
1.00002
1
1
1
1
1
1
1
1
1
1.0554
1.03289
1.01665
1.00352
1.00026
1.00001
1
1
1
1
1
1
1
1
1
1.05261
1.02879
1.01123
1.00173
1.00009
1
1
1
1
1
1
1
1
1
1
1.05002
1.02361
1.00658
1.00068
1.00003
1
1
1
1
1
1
1
1
1
1
1.04416
1.01772
1.0032
1.00022
1.00001
1
1
1
1
1
1
1
1
1
1
1.03764
1.01067
1.00114
1.00005
1
1
1
1
1
1
1
1
1
1
1
1.02923
1.00327
1.00022
1.00001
1
1
1
1
1
1
1
1
1
1
1
1
1
1
1
1
1
1
1
1
1
1
1
1
1
1
1
1
1
1
1
1
1
1
1
1
1
1
1
1
1
1
1
1
1
1
1
1
1
1
1
1
1
1
1
1
1
1
1
1
1
1
1
1
1
1
1
1
1
1
1
1
1
1
1
1
1
1
1
1
1
1
1
1
1
1
1
1
1
1
1
1
1
1
1
1
1
1
1
1
1
1
1
1
1
1
1
1
1
1
1
1
1
1
1
1
1
1
1
1
1
1
1
1
1
1
1
1
1
1
1
1
1
1
1
1
1
1
1
1
1
1
1
1
1
1
1.15152
1
1
1
1
1
1
1
1
1
1.02908
1
1
1
1
1
1
1
1
1
1.00314
1
1
1
1
1
1
1
1
1
1.00052
1
1
1
1
1
1
1
1
1
1.00006
1
1
1
1
1
1
1
1
1
1.00001
1
1
1
1
1
1
1
1
1
1
1
1
1
1
1
1
1
1
1
1
1
1
1
1
1
1
1
1
1
1
1
1
1
1
1
1
1
1
1
1
1
1
1
1
1
1
1
1
1
1
1
1
1
1
1
1
1
1
1
1
1
1
1
1
1
1
1
1
1
1
1
1
1
1
1
1
1
1
1
1
1
1
1
1
1
1
1
1
1
1
1
1
1
1
1
1
1
1
1
1
1
1
1
1
1
1
1
1
1
1
1
1
1
1
1
1
1
1
1
1
1
1
1
1
1
1
1
1
1
1
1
1
1
1
1
1
1
1
1
1
1
1
1
1
1
1
1
1
1
2.56933
2.03608
1.22224
1.00019
1.00004
1
1
1
1
1
1
1
1
1
1
1
1
1
1
1
2.56365
2.46197
2.22414
1.59358
0.999777
1
1
1
1
1
1
1
1
1
1
1
1
1
1
1
2.51089
2.44898
2.40031
2.23408
1.84486
1.07402
1
1
1
1
1
1
1
1
1
1
1
1
1
1
2.4684
2.43068
2.38602
2.34232
2.26905
1.9464
1.1449
0.999806
1
1
1
1
1
1
1
1
1
1
1
1
2.44035
2.41696
2.38021
2.33385
2.32227
2.30342
1.9802
1.15901
0.999585
1
1
1
1
1
1
1
1
1
1
1
2.4204
2.40166
2.37277
2.33712
2.31354
2.29369
2.23747
1.86109
1.0956
0.999683
1
1
1
1
1
1
1
1
1
1
2.40541
2.39111
2.36829
2.33521
2.31097
2.29007
2.27793
2.20427
1.71179
1.0316
0.999882
1
1
1
1
1
1
1
1
1
2.39418
2.38206
2.36226
2.33143
2.30698
2.28562
2.27011
2.26438
2.20001
1.62376
1.00895
1
1
1
1
1
1
1
1
1
2.38425
2.37373
2.3559
2.32734
2.30319
2.28354
2.26742
2.26084
2.2524
2.14063
1.44929
0.998621
1
1
1
1
1
1
1
1
2.37474
2.36554
2.34941
2.32237
2.2991
2.27847
2.26505
2.25594
2.24524
2.22219
1.96772
1.18422
0.999202
1
1
1
1
1
1
1
2.3655
2.35708
2.34284
2.31803
2.29517
2.27346
2.25815
2.24605
2.23402
2.22705
2.19771
1.7111
1.03358
0.999973
1
1
1
1
1
1
2.35674
2.34855
2.33596
2.31345
2.29047
2.26783
2.25055
2.23833
2.22757
2.22097
2.20361
2.07645
1.39767
1.00017
1
1
1
1
1
1
2.34764
2.33949
2.32838
2.30813
2.28606
2.26252
2.24449
2.23236
2.2227
2.21592
2.20121
2.17666
1.87536
1.12849
0.99946
0.999989
1
1
1
1
2.33882
2.33132
2.32043
2.30069
2.27861
2.25521
2.238
2.22644
2.21753
2.20937
2.19423
2.18561
2.09697
1.53905
1.01103
1
1
1
1
1
2.31315
2.28908
2.27188
2.25149
2.23212
2.21426
2.20231
2.19632
2.19277
2.18866
2.17911
2.17089
2.14552
1.92269
1.1717
0.993996
0.999826
0.999999
1
1
1.70922
1.91275
1.98511
2.03582
2.06566
2.07982
2.09194
2.10209
2.11445
2.12337
2.12833
2.13093
2.12874
2.10678
1.7598
1.12752
1.00155
1.00001
1
1
1.29563
1.61596
1.72581
1.81028
1.88473
1.92931
1.966
1.99079
2.01691
2.0387
2.0561
2.07149
2.08984
2.09318
2.05295
1.59218
1.05988
1.00059
1
1
1.32741
1.47793
1.54724
1.63248
1.71637
1.79226
1.84279
1.8919
1.92324
1.95975
1.98244
2.01243
2.03655
2.06108
2.04257
1.90433
1.35116
1.01506
1.00009
1
1.38077
1.40211
1.42009
1.51542
1.59229
1.67188
1.73163
1.7925
1.83806
1.8791
1.91572
1.94983
1.98435
2.00137
2.01518
1.99787
1.72217
1.14804
1.00252
1.00001
1.43648
1.38085
1.33328
1.38812
1.47287
1.5581
1.63432
1.68909
1.75152
1.7932
1.84536
1.8807
1.92403
1.94225
1.96644
1.98256
1.89071
1.44577
1.03129
1.00023
1.45447
1.38477
1.33077
1.35035
1.39176
1.46195
1.54856
1.6124
1.67785
1.72849
1.77877
1.82547
1.86362
1.89504
1.91606
1.95201
1.92317
1.67294
1.15987
1.00326
1.44549
1.38933
1.3449
1.32854
1.34345
1.40496
1.47946
1.54818
1.61118
1.67458
1.72263
1.7753
1.81031
1.84467
1.86826
1.90801
1.91346
1.80223
1.36928
1.02354
1.43201
1.39369
1.35177
1.31361
1.30464
1.35052
1.40963
1.48422
1.53887
1.61118
1.6633
1.71484
1.7554
1.78659
1.81559
1.85652
1.89234
1.85778
1.59773
1.12105
1.43319
1.40474
1.35604
1.30877
1.28693
1.31028
1.34608
1.41599
1.47695
1.54089
1.607
1.65556
1.70589
1.73641
1.775
1.81796
1.85887
1.85427
1.7084
1.30109
1.4398
1.41421
1.36139
1.31038
1.29106
1.30446
1.32173
1.37525
1.43888
1.49245
1.56262
1.61221
1.66287
1.69863
1.73755
1.77916
1.8192
1.83822
1.74629
1.48906
1.43638
1.41098
1.36041
1.31631
1.29707
1.29168
1.29978
1.34263
1.40495
1.45457
1.51739
1.57085
1.61448
1.65936
1.69495
1.733
1.77382
1.8096
1.75909
1.66424
1.42893
1.40538
1.36209
1.32222
1.30022
1.28601
1.2814
1.30368
1.35385
1.41312
1.45739
1.52282
1.5617
1.61451
1.65467
1.69935
1.74207
1.77514
1.77988
1.79997
1.42082
1.40234
1.36805
1.32898
1.30258
1.28607
1.27796
1.29088
1.31425
1.37455
1.41968
1.47785
1.52739
1.5751
1.62455
1.67059
1.71198
1.7444
1.80171
1.91091
1.4135
1.39949
1.3692
1.3362
1.30854
1.28832
1.28167
1.29433
1.30584
1.35151
1.39934
1.44728
1.49841
1.53836
1.59338
1.63964
1.67204
1.71251
1.81884
2.01015
1.40959
1.40027
1.36968
1.33795
1.30887
1.28809
1.2857
1.28855
1.29119
1.3267
1.37546
1.41561
1.47091
1.50448
1.55612
1.60275
1.63707
1.68615
1.82555
2.0837
1.39171
1.38667
1.36305
1.33422
1.30572
1.28871
1.28517
1.27976
1.27534
1.2962
1.34608
1.37967
1.43311
1.47969
1.5142
1.57016
1.61395
1.67046
1.84651
2.14803
1.33862
1.3422
1.34264
1.32734
1.3071
1.29233
1.28591
1.28007
1.27522
1.28794
1.31876
1.35835
1.39493
1.45366
1.49273
1.5391
1.58413
1.65428
1.86656
2.18073
1.26796
1.28391
1.3072
1.31412
1.30681
1.2955
1.28708
1.27997
1.2785
1.28655
1.2921
1.33545
1.37331
1.41966
1.46608
1.50866
1.54902
1.64544
1.88142
2.20592
1.20841
1.22449
1.26181
1.28967
1.30024
1.29322
1.28465
1.27692
1.27638
1.27856
1.27251
1.29793
1.34645
1.3885
1.43189
1.47538
1.52667
1.65992
1.89865
2.20369
1.179
1.17262
1.2034
1.24935
1.28066
1.28679
1.28081
1.27183
1.26743
1.26494
1.26128
1.27761
1.30987
1.35455
1.3965
1.44123
1.50249
1.68658
1.8967
2.18092
1.15709
1.12401
1.15233
1.20271
1.24543
1.27136
1.27488
1.26701
1.25769
1.25162
1.24973
1.26543
1.28583
1.3219
1.36313
1.40533
1.49586
1.72989
1.89415
2.14453
1.17708
1.11177
1.10912
1.1514
1.19722
1.24117
1.26183
1.25971
1.25036
1.24097
1.23552
1.24713
1.26272
1.29052
1.33207
1.38753
1.51713
1.77945
1.87884
2.09183
1.21225
1.12902
1.09805
1.10692
1.14672
1.2005
1.23687
1.24811
1.24084
1.23074
1.22556
1.2314
1.24109
1.264
1.29879
1.36946
1.56871
1.8156
1.85317
2.02436
1.2492
1.16072
1.10099
1.09029
1.10485
1.15295
1.19849
1.22782
1.23294
1.22748
1.22427
1.22145
1.21854
1.23787
1.27186
1.3848
1.64341
1.82297
1.82611
1.9427
1.3042
1.21904
1.16602
1.11984
1.10382
1.11366
1.14208
1.18308
1.20872
1.21655
1.21527
1.20608
1.19728
1.21866
1.28865
1.48083
1.67173
1.78673
1.76784
1.81113
)
;

boundaryField
{
    inlet
    {
        type            fixedValue;
        value           uniform 1;
    }
    outlet
    {
        type            inletOutlet;
        inletValue      uniform 1;
        value           nonuniform List<scalar> 
35
(
1.30427
1.21903
1.16613
1.11991
1.10373
1.11353
1.14183
1.18286
1.20855
1.21639
1.21513
1.20596
1.19717
1.21842
1.28781
1.47918
1.67073
1.78628
1.76741
1.81151
1.44954
1.5931
1.63745
1.43422
1.00768
0.653842
0.6824
0.744786
0.815867
0.890254
0.96669
1.00833
1.01351
1.00896
1.00232
)
;
    }
    airfoil
    {
        type            zeroGradient;
    }
    top
    {
        type            symmetryPlane;
    }
    bottom
    {
        type            symmetryPlane;
    }
    defaultFaces
    {
        type            empty;
    }
}


// ************************************************************************* //
