/*--------------------------------*- C++ -*----------------------------------*\
  =========                 |
  \\      /  F ield         | OpenFOAM: The Open Source CFD Toolbox
   \\    /   O peration     | Website:  https://openfoam.org
    \\  /    A nd           | Version:  7
     \\/     M anipulation  |
\*---------------------------------------------------------------------------*/
FoamFile
{
    version     2.0;
    format      ascii;
    class       volVectorField;
    location    "6.5";
    object      U;
}
// * * * * * * * * * * * * * * * * * * * * * * * * * * * * * * * * * * * * * //

dimensions      [0 1 -1 0 0 0 0];

internalField   nonuniform List<vector> 
11200
(
(2.51188 -0.555331 0)
(2.49866 -0.157828 0)
(2.49101 0.0874158 0)
(2.49833 0.234733 0)
(2.50853 0.306066 0)
(2.52123 0.409242 0)
(2.53708 0.425502 0)
(2.57662 0.42329 0)
(2.61183 0.406629 0)
(2.61371 0.330311 0)
(2.65163 0.265791 0)
(2.68278 0.194422 0)
(2.69962 0.173539 0)
(2.69549 0.124228 0)
(2.72283 0.14634 0)
(2.7401 0.172206 0)
(2.75511 0.202488 0)
(2.76802 0.214294 0)
(2.76271 0.191519 0)
(2.75355 0.153268 0)
(2.77041 0.137082 0)
(2.7895 0.141679 0)
(2.8098 0.149683 0)
(2.82121 0.149872 0)
(2.82584 0.145177 0)
(2.8325 0.13998 0)
(2.84275 0.128993 0)
(2.84859 0.105487 0)
(2.84921 0.090766 0)
(2.86135 0.074542 0)
(2.66271 -1.45376 0)
(2.67723 -1.44403 0)
(2.66844 -1.27974 0)
(2.61851 -1.0247 0)
(2.56578 -0.781675 0)
(2.47382 -0.380449 0)
(2.48705 -0.244717 0)
(2.45231 -0.0125254 0)
(2.45129 0.161849 0)
(2.48461 0.0906186 0)
(2.49345 0.130587 0)
(2.51281 0.186842 0)
(2.54308 0.158249 0)
(2.55044 0.121818 0)
(2.5646 0.108179 0)
(2.57934 0.107262 0)
(2.59352 0.11569 0)
(2.60094 0.144419 0)
(2.61336 0.160365 0)
(2.62694 0.162496 0)
(2.6528 0.158706 0)
(2.67296 0.148954 0)
(2.695 0.146005 0)
(2.70955 0.140207 0)
(2.72185 0.126098 0)
(2.73468 0.120046 0)
(2.74932 0.117072 0)
(2.75775 0.115613 0)
(2.76333 0.11055 0)
(2.78066 0.0881626 0)
(2.83645 -1.56251 0)
(2.89204 -1.56417 0)
(2.91587 -1.61521 0)
(2.95193 -1.60591 0)
(2.97199 -1.62723 0)
(2.97109 -1.59386 0)
(2.92844 -1.46035 0)
(2.80232 -1.15519 0)
(2.65721 -0.678708 0)
(2.66052 -0.491287 0)
(2.4778 -0.0809125 0)
(2.4709 0.0322375 0)
(2.42726 0.190059 0)
(2.43839 0.245234 0)
(2.44531 0.217095 0)
(2.47209 0.142789 0)
(2.49266 0.105159 0)
(2.50869 0.109762 0)
(2.51926 0.141342 0)
(2.53864 0.166188 0)
(2.55424 0.158428 0)
(2.56641 0.146778 0)
(2.58054 0.138683 0)
(2.59508 0.1268 0)
(2.61066 0.123744 0)
(2.62495 0.116454 0)
(2.63926 0.109329 0)
(2.64968 0.089377 0)
(2.65693 0.0943154 0)
(2.67912 0.082419 0)
(2.99699 -1.62467 0)
(3.01016 -1.64758 0)
(3.03598 -1.65011 0)
(3.05171 -1.66544 0)
(3.06654 -1.66704 0)
(3.07809 -1.68655 0)
(3.0842 -1.68898 0)
(3.09598 -1.68197 0)
(3.10546 -1.68594 0)
(3.09665 -1.63658 0)
(2.97982 -1.40846 0)
(2.83215 -1.00597 0)
(2.70276 -0.562534 0)
(2.58871 -0.162957 0)
(2.55859 -0.0220154 0)
(2.51948 0.0650699 0)
(2.51606 0.0882581 0)
(2.51953 0.142722 0)
(2.52946 0.157402 0)
(2.53141 0.14816 0)
(2.52504 0.128286 0)
(2.52397 0.135543 0)
(2.52786 0.138738 0)
(2.5371 0.130605 0)
(2.54924 0.114887 0)
(2.55711 0.10514 0)
(2.56146 0.105594 0)
(2.56919 0.0973797 0)
(2.57899 0.0797177 0)
(2.59854 0.0649492 0)
(3.07157 -1.66397 0)
(3.07835 -1.66346 0)
(3.08195 -1.6664 0)
(3.08683 -1.65791 0)
(3.08722 -1.65753 0)
(3.08918 -1.65727 0)
(3.09381 -1.65992 0)
(3.10093 -1.66733 0)
(3.11038 -1.66815 0)
(3.11112 -1.67461 0)
(3.10585 -1.67944 0)
(3.09057 -1.68177 0)
(3.07564 -1.65969 0)
(2.97139 -1.40943 0)
(2.78201 -0.791232 0)
(2.73118 -0.384282 0)
(2.53501 0.0893901 0)
(2.50959 0.141418 0)
(2.53361 0.171056 0)
(2.53873 0.145356 0)
(2.53421 0.117669 0)
(2.53636 0.123751 0)
(2.53018 0.125863 0)
(2.53062 0.115964 0)
(2.5392 0.106791 0)
(2.54168 0.0940547 0)
(2.53975 0.0849936 0)
(2.54155 0.0963572 0)
(2.55492 0.101112 0)
(2.56629 0.0775082 0)
(3.09731 -1.66368 0)
(3.09563 -1.6633 0)
(3.09394 -1.66107 0)
(3.09254 -1.65847 0)
(3.0931 -1.65595 0)
(3.09333 -1.65807 0)
(3.09355 -1.66637 0)
(3.09801 -1.67297 0)
(3.10094 -1.67761 0)
(3.09997 -1.67864 0)
(3.0938 -1.68435 0)
(3.08304 -1.68373 0)
(3.0705 -1.67059 0)
(3.06527 -1.66539 0)
(3.05295 -1.66586 0)
(3.00774 -1.55199 0)
(2.84253 -1.01502 0)
(2.75926 -0.559161 0)
(2.66045 -0.167752 0)
(2.60795 0.00340497 0)
(2.56921 0.08483 0)
(2.55422 0.120639 0)
(2.55022 0.121305 0)
(2.54794 0.0991838 0)
(2.55293 0.0868669 0)
(2.54883 0.0708556 0)
(2.54376 0.0697512 0)
(2.55068 0.0790042 0)
(2.55776 0.0827122 0)
(2.56386 0.0668367 0)
(3.09481 -1.67332 0)
(3.09441 -1.67031 0)
(3.09353 -1.66866 0)
(3.09156 -1.6701 0)
(3.09222 -1.66915 0)
(3.0941 -1.66756 0)
(3.0886 -1.67638 0)
(3.08653 -1.68131 0)
(3.08692 -1.68174 0)
(3.08777 -1.68084 0)
(3.08272 -1.68447 0)
(3.07206 -1.68225 0)
(3.06481 -1.66864 0)
(3.06226 -1.66276 0)
(3.04892 -1.65342 0)
(3.03807 -1.64757 0)
(3.03124 -1.64701 0)
(3.01447 -1.60512 0)
(2.9081 -1.23752 0)
(2.75762 -0.609653 0)
(2.73114 -0.258136 0)
(2.60507 0.0513533 0)
(2.57916 0.0994432 0)
(2.58687 0.111554 0)
(2.58703 0.109564 0)
(2.57496 0.0898823 0)
(2.57533 0.0895767 0)
(2.57909 0.0875253 0)
(2.5811 0.0778106 0)
(2.58192 0.0508143 0)
(3.08088 -1.68753 0)
(3.08098 -1.68708 0)
(3.08083 -1.68463 0)
(3.08029 -1.68451 0)
(3.08018 -1.68598 0)
(3.07568 -1.68259 0)
(3.07242 -1.67883 0)
(3.0711 -1.6765 0)
(3.067 -1.67243 0)
(3.06322 -1.67142 0)
(3.05414 -1.66819 0)
(3.04252 -1.65212 0)
(3.04028 -1.64016 0)
(3.03811 -1.62455 0)
(3.04434 -1.62064 0)
(3.04252 -1.60709 0)
(3.04052 -1.58 0)
(3.03864 -1.58375 0)
(3.03364 -1.58534 0)
(3.03308 -1.58207 0)
(2.97948 -1.29935 0)
(2.82275 -0.675672 0)
(2.78293 -0.319753 0)
(2.70828 -0.0332837 0)
(2.62388 0.0921661 0)
(2.61243 0.115764 0)
(2.64064 0.0885511 0)
(2.63698 0.0651427 0)
(2.64082 0.0415357 0)
(2.63759 0.0493542 0)
(3.0573 -1.69137 0)
(3.05636 -1.68982 0)
(3.05764 -1.68684 0)
(3.06101 -1.68358 0)
(3.06184 -1.68166 0)
(3.06026 -1.67787 0)
(3.04863 -1.66641 0)
(3.04416 -1.66255 0)
(3.04514 -1.65435 0)
(3.04578 -1.64974 0)
(3.03835 -1.65227 0)
(3.03738 -1.64028 0)
(3.03904 -1.60438 0)
(3.04536 -1.57894 0)
(3.0564 -1.5595 0)
(3.05407 -1.56046 0)
(3.05648 -1.54983 0)
(3.07225 -1.50839 0)
(3.07635 -1.49382 0)
(3.07726 -1.48319 0)
(3.06568 -1.4878 0)
(3.05257 -1.49265 0)
(3.00931 -1.25288 0)
(2.8949 -0.71765 0)
(2.83597 -0.340419 0)
(2.75171 -0.0254203 0)
(2.70444 0.0618828 0)
(2.6778 0.110786 0)
(2.70093 0.0963404 0)
(2.70705 0.0505878 0)
(3.05 -1.66043 0)
(3.05024 -1.66316 0)
(3.051 -1.65563 0)
(3.05228 -1.64975 0)
(3.05279 -1.64197 0)
(3.0467 -1.64355 0)
(3.04706 -1.63931 0)
(3.04511 -1.62127 0)
(3.04927 -1.60472 0)
(3.05972 -1.59393 0)
(3.05249 -1.59917 0)
(3.03403 -1.63117 0)
(3.02846 -1.57844 0)
(3.03745 -1.53975 0)
(3.04395 -1.5319 0)
(3.0479 -1.51867 0)
(3.04993 -1.50306 0)
(3.06271 -1.46926 0)
(3.07376 -1.43601 0)
(3.09008 -1.40023 0)
(3.10557 -1.3671 0)
(3.09237 -1.36361 0)
(3.06746 -1.38536 0)
(3.05883 -1.39595 0)
(3.03487 -1.17582 0)
(2.95231 -0.667968 0)
(2.92781 -0.363414 0)
(2.79856 -0.0226264 0)
(2.75591 0.0518979 0)
(2.75726 0.0812026 0)
(3.07156 -1.56211 0)
(3.072 -1.55719 0)
(3.07282 -1.55608 0)
(3.07809 -1.54597 0)
(3.07527 -1.54712 0)
(3.06925 -1.55515 0)
(3.06618 -1.54793 0)
(3.06275 -1.52087 0)
(3.06214 -1.49546 0)
(3.08145 -1.46195 0)
(3.08554 -1.45735 0)
(3.06208 -1.49316 0)
(3.05392 -1.48457 0)
(3.04902 -1.48213 0)
(3.05512 -1.4692 0)
(3.06171 -1.44707 0)
(3.05427 -1.45112 0)
(3.05471 -1.42296 0)
(3.06238 -1.39347 0)
(3.07045 -1.3824 0)
(3.08843 -1.34984 0)
(3.10641 -1.31982 0)
(3.11023 -1.29698 0)
(3.09871 -1.30145 0)
(3.08006 -1.29842 0)
(3.08011 -1.28227 0)
(3.07535 -1.09799 0)
(2.97517 -0.577043 0)
(2.98326 -0.362164 0)
(2.84244 -0.0233048 0)
(3.06117 -1.53811 0)
(3.06479 -1.53638 0)
(3.06627 -1.52764 0)
(3.06757 -1.51822 0)
(3.07075 -1.50561 0)
(3.07245 -1.48781 0)
(3.06557 -1.47778 0)
(3.06389 -1.47023 0)
(3.06654 -1.43447 0)
(3.07953 -1.39913 0)
(3.09242 -1.382 0)
(3.0849 -1.39116 0)
(3.07885 -1.38395 0)
(3.07641 -1.36323 0)
(3.08648 -1.33307 0)
(3.0928 -1.32688 0)
(3.08784 -1.33037 0)
(3.07715 -1.34689 0)
(3.0741 -1.34035 0)
(3.07506 -1.31953 0)
(3.07787 -1.30249 0)
(3.08866 -1.28689 0)
(3.10814 -1.2593 0)
(3.11734 -1.23057 0)
(3.11511 -1.2171 0)
(3.09817 -1.21277 0)
(3.10189 -1.19523 0)
(3.10519 -1.19909 0)
(3.10251 -1.04898 0)
(2.96604 -0.358631 0)
(3.09173 -1.38479 0)
(3.09286 -1.36882 0)
(3.09662 -1.358 0)
(3.09229 -1.35923 0)
(3.08909 -1.36184 0)
(3.07958 -1.37495 0)
(3.06766 -1.39945 0)
(3.0678 -1.40472 0)
(3.06619 -1.39051 0)
(3.06958 -1.37484 0)
(3.07805 -1.36526 0)
(3.07671 -1.36434 0)
(3.07518 -1.36356 0)
(3.07214 -1.31795 0)
(3.08366 -1.27759 0)
(3.09812 -1.26823 0)
(3.10781 -1.25177 0)
(3.11072 -1.23751 0)
(3.10874 -1.23231 0)
(3.10092 -1.2327 0)
(3.09311 -1.23028 0)
(3.08893 -1.22006 0)
(3.09487 -1.20713 0)
(3.10878 -1.18823 0)
(3.11919 -1.16741 0)
(3.12147 -1.15983 0)
(3.11901 -1.14029 0)
(3.11717 -1.12884 0)
(3.11665 -1.13095 0)
(3.10453 -0.998377 0)
(3.09171 -1.30098 0)
(3.0931 -1.29394 0)
(3.09609 -1.28193 0)
(3.09895 -1.27315 0)
(3.09905 -1.26663 0)
(3.10181 -1.25885 0)
(3.10079 -1.25896 0)
(3.10165 -1.2618 0)
(3.09561 -1.2344 0)
(3.10192 -1.20345 0)
(3.11315 -1.19019 0)
(3.10813 -1.19568 0)
(3.09754 -1.22 0)
(3.09297 -1.22426 0)
(3.0928 -1.2146 0)
(3.09639 -1.2104 0)
(3.10482 -1.19229 0)
(3.11317 -1.16927 0)
(3.11742 -1.15115 0)
(3.12487 -1.13384 0)
(3.12154 -1.13231 0)
(3.10999 -1.13811 0)
(3.10391 -1.13816 0)
(3.10645 -1.12731 0)
(3.11602 -1.11271 0)
(3.12312 -1.10472 0)
(3.12765 -1.09436 0)
(3.12674 -1.07633 0)
(3.12596 -1.06385 0)
(3.12484 -1.05661 0)
(3.09758 -1.19429 0)
(3.09933 -1.18417 0)
(3.10535 -1.166 0)
(3.11373 -1.15733 0)
(3.1176 -1.15207 0)
(3.11437 -1.15248 0)
(3.10541 -1.16297 0)
(3.09959 -1.17671 0)
(3.09899 -1.17335 0)
(3.10454 -1.16302 0)
(3.10844 -1.15532 0)
(3.11571 -1.13725 0)
(3.12015 -1.12166 0)
(3.117 -1.1055 0)
(3.11571 -1.09313 0)
(3.11294 -1.09885 0)
(3.11301 -1.10361 0)
(3.11101 -1.10243 0)
(3.1109 -1.09732 0)
(3.12037 -1.07879 0)
(3.12911 -1.06687 0)
(3.13225 -1.05979 0)
(3.12952 -1.04995 0)
(3.12162 -1.04592 0)
(3.11954 -1.036 0)
(3.12547 -1.02825 0)
(3.13031 -1.03275 0)
(3.12939 -1.02041 0)
(3.12885 -1.0066 0)
(3.13015 -0.995054 0)
(3.10698 -1.07255 0)
(3.10693 -1.06493 0)
(3.10912 -1.04369 0)
(3.12067 -1.02425 0)
(3.1279 -1.02177 0)
(3.12836 -1.0232 0)
(3.12296 -1.02832 0)
(3.12021 -1.0374 0)
(3.11985 -1.03947 0)
(3.11999 -1.02839 0)
(3.12554 -1.01651 0)
(3.12912 -1.01294 0)
(3.12222 -1.01951 0)
(3.11894 -1.02522 0)
(3.11992 -1.01776 0)
(3.12601 -1.00303 0)
(3.1327 -0.996563 0)
(3.12953 -0.997679 0)
(3.12474 -1.00329 0)
(3.12361 -1.00645 0)
(3.12679 -0.996893 0)
(3.13193 -0.984119 0)
(3.13418 -0.974108 0)
(3.13493 -0.968745 0)
(3.13219 -0.963492 0)
(3.13053 -0.96216 0)
(3.13104 -0.949682 0)
(3.13117 -0.946126 0)
(3.12993 -0.950278 0)
(3.12999 -0.947534 0)
(3.12254 -0.947514 0)
(3.12009 -0.940125 0)
(3.12143 -0.928397 0)
(3.12011 -0.917611 0)
(3.12929 -0.906135 0)
(3.1324 -0.904964 0)
(3.13133 -0.910342 0)
(3.12524 -0.926467 0)
(3.12459 -0.935701 0)
(3.12859 -0.927989 0)
(3.1336 -0.917304 0)
(3.13455 -0.913975 0)
(3.13323 -0.913606 0)
(3.13139 -0.913523 0)
(3.12933 -0.913349 0)
(3.12987 -0.912671 0)
(3.1346 -0.910532 0)
(3.13736 -0.906862 0)
(3.13944 -0.894714 0)
(3.13727 -0.888393 0)
(3.13411 -0.890951 0)
(3.13097 -0.897398 0)
(3.13377 -0.897989 0)
(3.13535 -0.894252 0)
(3.13667 -0.893334 0)
(3.13612 -0.889356 0)
(3.13278 -0.889396 0)
(3.13156 -0.886318 0)
(3.1326 -0.889097 0)
(3.13213 -0.881696 0)
(3.12961 -0.81542 0)
(3.12677 -0.812233 0)
(3.12925 -0.798969 0)
(3.12883 -0.786002 0)
(3.13067 -0.775202 0)
(3.13499 -0.774801 0)
(3.13427 -0.778728 0)
(3.13055 -0.796485 0)
(3.13139 -0.810095 0)
(3.13535 -0.805341 0)
(3.13767 -0.794549 0)
(3.13753 -0.789288 0)
(3.13811 -0.79756 0)
(3.13441 -0.801537 0)
(3.13376 -0.799278 0)
(3.13591 -0.797289 0)
(3.13677 -0.797747 0)
(3.13617 -0.803253 0)
(3.13383 -0.809034 0)
(3.13519 -0.809213 0)
(3.13828 -0.805446 0)
(3.13741 -0.802846 0)
(3.13397 -0.804642 0)
(3.13272 -0.807687 0)
(3.13385 -0.811377 0)
(3.13447 -0.812003 0)
(3.13468 -0.812522 0)
(3.1345 -0.812778 0)
(3.13478 -0.808966 0)
(3.13251 -0.811949 0)
(3.12494 -0.670529 0)
(3.1227 -0.670351 0)
(3.12676 -0.663768 0)
(3.12776 -0.643028 0)
(3.12672 -0.63184 0)
(3.1321 -0.64333 0)
(3.13372 -0.646411 0)
(3.12851 -0.663412 0)
(3.12302 -0.677477 0)
(3.12739 -0.676899 0)
(3.13377 -0.670546 0)
(3.13628 -0.671546 0)
(3.13469 -0.677141 0)
(3.1312 -0.679686 0)
(3.12937 -0.684676 0)
(3.13086 -0.691731 0)
(3.13208 -0.693127 0)
(3.13364 -0.693435 0)
(3.13307 -0.693558 0)
(3.13173 -0.703991 0)
(3.13062 -0.712751 0)
(3.13103 -0.714536 0)
(3.13244 -0.71709 0)
(3.13287 -0.719429 0)
(3.13213 -0.728402 0)
(3.13167 -0.731208 0)
(3.13118 -0.735752 0)
(3.13237 -0.737036 0)
(3.13205 -0.735675 0)
(3.13058 -0.745566 0)
(3.10323 -0.522452 0)
(3.10715 -0.521555 0)
(3.1143 -0.515485 0)
(3.11619 -0.492438 0)
(3.1175 -0.483039 0)
(3.12164 -0.502403 0)
(3.12125 -0.507879 0)
(3.11282 -0.530128 0)
(3.10788 -0.544094 0)
(3.11657 -0.541662 0)
(3.1236 -0.537674 0)
(3.12373 -0.5412 0)
(3.1215 -0.549668 0)
(3.11969 -0.552088 0)
(3.12135 -0.561136 0)
(3.1215 -0.569963 0)
(3.12121 -0.572693 0)
(3.12325 -0.581478 0)
(3.12449 -0.588445 0)
(3.12375 -0.590274 0)
(3.12327 -0.597407 0)
(3.12419 -0.606238 0)
(3.12458 -0.617113 0)
(3.12517 -0.617511 0)
(3.12575 -0.623944 0)
(3.12537 -0.629973 0)
(3.12263 -0.637236 0)
(3.125 -0.651691 0)
(3.12469 -0.667127 0)
(3.12534 -0.675424 0)
(3.07468 -0.372169 0)
(3.08121 -0.36939 0)
(3.09041 -0.356737 0)
(3.09072 -0.332225 0)
(3.09678 -0.332924 0)
(3.09765 -0.357886 0)
(3.09608 -0.366662 0)
(3.08842 -0.394885 0)
(3.08625 -0.406859 0)
(3.0982 -0.401721 0)
(3.10412 -0.399577 0)
(3.10381 -0.40753 0)
(3.10072 -0.416205 0)
(3.10039 -0.422493 0)
(3.10417 -0.435357 0)
(3.10452 -0.445898 0)
(3.10517 -0.456068 0)
(3.10682 -0.457751 0)
(3.10973 -0.472218 0)
(3.10945 -0.484256 0)
(3.11016 -0.496818 0)
(3.11145 -0.501642 0)
(3.1129 -0.513022 0)
(3.11404 -0.530857 0)
(3.11447 -0.54102 0)
(3.11598 -0.556662 0)
(3.11661 -0.564998 0)
(3.11813 -0.574866 0)
(3.11946 -0.587957 0)
(3.12042 -0.600815 0)
(3.03887 -0.219104 0)
(3.0475 -0.211346 0)
(3.05398 -0.191454 0)
(3.05609 -0.171036 0)
(3.06644 -0.18813 0)
(3.06246 -0.213669 0)
(3.06182 -0.228897 0)
(3.05506 -0.259552 0)
(3.05615 -0.26677 0)
(3.07138 -0.257611 0)
(3.0766 -0.259063 0)
(3.07645 -0.27115 0)
(3.07188 -0.283492 0)
(3.0723 -0.286219 0)
(3.08016 -0.312754 0)
(3.07977 -0.318222 0)
(3.08203 -0.32845 0)
(3.0857 -0.34032 0)
(3.08823 -0.353355 0)
(3.089 -0.367413 0)
(3.09073 -0.380692 0)
(3.09374 -0.394385 0)
(3.09634 -0.408882 0)
(3.09778 -0.421586 0)
(3.09926 -0.433582 0)
(3.10125 -0.445876 0)
(3.10346 -0.465702 0)
(3.10523 -0.476561 0)
(3.10626 -0.481376 0)
(3.10822 -0.505166 0)
(2.9955 -0.061047 0)
(3.00087 -0.0507836 0)
(3.00617 -0.0312448 0)
(3.01629 -0.0220829 0)
(3.02532 -0.0499969 0)
(3.01893 -0.0738385 0)
(3.01951 -0.0939891 0)
(3.01251 -0.122532 0)
(3.01639 -0.125129 0)
(3.03305 -0.113038 0)
(3.04132 -0.117752 0)
(3.04202 -0.137094 0)
(3.03581 -0.15197 0)
(3.03542 -0.154572 0)
(3.04627 -0.182748 0)
(3.04845 -0.195246 0)
(3.05082 -0.200101 0)
(3.05714 -0.218248 0)
(3.05949 -0.234696 0)
(3.06102 -0.250228 0)
(3.0656 -0.268041 0)
(3.06969 -0.281919 0)
(3.07293 -0.298836 0)
(3.07582 -0.316532 0)
(3.07984 -0.338816 0)
(3.0826 -0.350522 0)
(3.08635 -0.368782 0)
(3.08929 -0.389612 0)
(3.09227 -0.410545 0)
(3.09688 -0.437665 0)
(2.94016 0.0839763 0)
(2.94269 0.087928 0)
(2.94983 0.0999814 0)
(2.96165 0.109991 0)
(2.97141 0.0947201 0)
(2.96517 0.0682997 0)
(2.96788 0.0507475 0)
(2.96571 0.0179593 0)
(2.96716 0.00997537 0)
(2.98081 0.0207384 0)
(2.99225 0.0171814 0)
(2.99679 -0.00593194 0)
(2.99182 -0.0211993 0)
(2.9913 -0.0262029 0)
(3.00315 -0.0561751 0)
(3.00673 -0.0686954 0)
(3.01171 -0.0771796 0)
(3.02008 -0.095903 0)
(3.02353 -0.114212 0)
(3.02715 -0.134417 0)
(3.03253 -0.150291 0)
(3.03835 -0.167039 0)
(3.04418 -0.190895 0)
(3.04802 -0.2074 0)
(3.05306 -0.226339 0)
(3.05903 -0.250452 0)
(3.06348 -0.268454 0)
(3.06822 -0.2884 0)
(3.07229 -0.307413 0)
(3.07792 -0.336159 0)
(2.87844 0.232538 0)
(2.87892 0.228441 0)
(2.88263 0.230466 0)
(2.89094 0.237747 0)
(2.9004 0.235019 0)
(2.90784 0.21005 0)
(2.91083 0.185751 0)
(2.90635 0.16533 0)
(2.90841 0.153302 0)
(2.91548 0.161328 0)
(2.92757 0.152843 0)
(2.93995 0.121021 0)
(2.93921 0.108152 0)
(2.94197 0.102546 0)
(2.95315 0.0769676 0)
(2.95819 0.058226 0)
(2.96503 0.0430626 0)
(2.97368 0.027176 0)
(2.98156 0.00400618 0)
(2.98632 -0.0135858 0)
(2.99361 -0.0340984 0)
(3.00171 -0.0555637 0)
(3.00864 -0.0766992 0)
(3.01535 -0.0985953 0)
(3.02294 -0.122517 0)
(3.0289 -0.141096 0)
(3.03669 -0.168582 0)
(3.04326 -0.191576 0)
(3.04904 -0.212581 0)
(3.05818 -0.250974 0)
(2.82277 0.358796 0)
(2.82457 0.354609 0)
(2.82795 0.346194 0)
(2.83062 0.344523 0)
(2.83392 0.344675 0)
(2.84327 0.331897 0)
(2.84559 0.32221 0)
(2.84853 0.311441 0)
(2.85348 0.298822 0)
(2.85705 0.295983 0)
(2.86657 0.282826 0)
(2.87545 0.260806 0)
(2.8783 0.249817 0)
(2.88638 0.233737 0)
(2.89686 0.211405 0)
(2.90307 0.195536 0)
(2.91348 0.172534 0)
(2.92247 0.153306 0)
(2.93249 0.129125 0)
(2.94042 0.108318 0)
(2.95072 0.08287 0)
(2.95988 0.0605273 0)
(2.96987 0.033908 0)
(2.97828 0.0115143 0)
(2.98758 -0.0133571 0)
(2.99703 -0.039414 0)
(3.00605 -0.0659347 0)
(3.01438 -0.0912293 0)
(3.02256 -0.116983 0)
(3.03429 -0.156984 0)
(2.81503 0.380283 0)
(2.81504 0.381741 0)
(2.81451 0.382653 0)
(2.81391 0.38292 0)
(2.8147 0.382158 0)
(2.81583 0.380299 0)
(2.81689 0.377594 0)
(2.81798 0.37418 0)
(2.81898 0.371036 0)
(2.82002 0.371399 0)
(2.82291 0.369432 0)
(2.82795 0.362167 0)
(2.83188 0.354744 0)
(2.83671 0.347404 0)
(2.84344 0.335859 0)
(2.85041 0.321169 0)
(2.85817 0.305158 0)
(2.86822 0.285186 0)
(2.87846 0.26382 0)
(2.88947 0.238921 0)
(2.90093 0.212111 0)
(2.91247 0.185125 0)
(2.92518 0.154631 0)
(2.9362 0.12774 0)
(2.94942 0.0951905 0)
(2.96036 0.0680372 0)
(2.97237 0.0365249 0)
(2.98315 0.00750428 0)
(2.99312 -0.0201258 0)
(3.00811 -0.0648793 0)
(2.8261 0.361475 0)
(2.82591 0.370389 0)
(2.82752 0.375698 0)
(2.82797 0.377767 0)
(2.82332 0.371829 0)
(2.82153 0.363225 0)
(2.82269 0.360388 0)
(2.82447 0.362321 0)
(2.82513 0.367059 0)
(2.82394 0.375578 0)
(2.82187 0.377219 0)
(2.82257 0.373317 0)
(2.82375 0.369816 0)
(2.82407 0.369831 0)
(2.82493 0.370224 0)
(2.82698 0.368904 0)
(2.829 0.36534 0)
(2.83131 0.361194 0)
(2.83599 0.354396 0)
(2.84262 0.344364 0)
(2.85137 0.329069 0)
(2.86135 0.309584 0)
(2.87364 0.283852 0)
(2.88668 0.255292 0)
(2.90172 0.221567 0)
(2.91595 0.188197 0)
(2.93155 0.150162 0)
(2.94517 0.116052 0)
(2.95856 0.0818409 0)
(2.9777 0.0303821 0)
(2.89045 0.234704 0)
(2.88673 0.253594 0)
(2.88706 0.261591 0)
(2.88896 0.254275 0)
(2.88154 0.262525 0)
(2.87351 0.280009 0)
(2.86923 0.283453 0)
(2.86532 0.285683 0)
(2.86086 0.297278 0)
(2.85455 0.321253 0)
(2.85295 0.328077 0)
(2.85287 0.325354 0)
(2.84244 0.337787 0)
(2.83968 0.344595 0)
(2.8378 0.348987 0)
(2.83554 0.356049 0)
(2.83406 0.356224 0)
(2.8343 0.35709 0)
(2.83416 0.358052 0)
(2.83446 0.358399 0)
(2.8356 0.357207 0)
(2.83734 0.354592 0)
(2.84056 0.349953 0)
(2.84595 0.341952 0)
(2.85491 0.32725 0)
(2.86636 0.306171 0)
(2.88134 0.275316 0)
(2.89704 0.240087 0)
(2.91391 0.20081 0)
(2.93888 0.139284 0)
(2.97504 0.053716 0)
(2.9715 0.0651754 0)
(2.97048 0.0696512 0)
(2.9711 0.0665866 0)
(2.96393 0.078576 0)
(2.96005 0.0897152 0)
(2.95744 0.0940589 0)
(2.94905 0.107616 0)
(2.94405 0.117071 0)
(2.93403 0.141931 0)
(2.93064 0.152258 0)
(2.9221 0.169612 0)
(2.91473 0.183171 0)
(2.90283 0.207645 0)
(2.89193 0.233546 0)
(2.88879 0.241401 0)
(2.87259 0.274966 0)
(2.86887 0.284325 0)
(2.85803 0.305919 0)
(2.85122 0.322753 0)
(2.85084 0.324281 0)
(2.84361 0.337238 0)
(2.84164 0.343865 0)
(2.84272 0.342293 0)
(2.84343 0.341184 0)
(2.84511 0.339508 0)
(2.84906 0.335048 0)
(2.856 0.325592 0)
(2.86651 0.307911 0)
(2.89027 0.258923 0)
(2.99883 0.00241778 0)
(2.99861 0.00287218 0)
(2.99838 0.00349059 0)
(2.99813 0.00404011 0)
(2.9977 0.00472945 0)
(2.9971 0.00601485 0)
(2.99653 0.00707728 0)
(2.99547 0.00891394 0)
(2.99413 0.0113169 0)
(2.99251 0.0144539 0)
(2.99042 0.0194358 0)
(2.98842 0.023088 0)
(2.98414 0.0314275 0)
(2.97977 0.0397143 0)
(2.97327 0.0534672 0)
(2.96698 0.0661825 0)
(2.95654 0.0873508 0)
(2.94679 0.108351 0)
(2.93319 0.136889 0)
(2.92004 0.165417 0)
(2.90627 0.195653 0)
(2.88993 0.231179 0)
(2.87839 0.257031 0)
(2.86697 0.283285 0)
(2.85633 0.308493 0)
(2.85357 0.315926 0)
(2.84938 0.328086 0)
(2.84959 0.32876 0)
(2.85096 0.327661 0)
(2.85773 0.319184 0)
(2.99999 2.73932e-05 0)
(2.99998 3.22484e-05 0)
(2.99998 4.06568e-05 0)
(2.99997 4.92242e-05 0)
(2.99997 6.2865e-05 0)
(2.99996 8.21161e-05 0)
(2.99994 0.000107708 0)
(2.99992 0.000146236 0)
(2.99989 0.000203257 0)
(2.99983 0.00029634 0)
(2.99976 0.000428453 0)
(2.99966 0.000626646 0)
(2.99948 0.000924866 0)
(2.99917 0.00148971 0)
(2.99874 0.00228071 0)
(2.998 0.00365923 0)
(2.99681 0.00578971 0)
(2.9949 0.0094451 0)
(2.99194 0.0150013 0)
(2.98731 0.0239523 0)
(2.98047 0.037322 0)
(2.97089 0.0561503 0)
(2.95777 0.0830971 0)
(2.94182 0.116252 0)
(2.92387 0.154286 0)
(2.90487 0.196401 0)
(2.88699 0.235732 0)
(2.87298 0.26885 0)
(2.86276 0.293547 0)
(2.85847 0.308325 0)
(3 1.60339e-07 0)
(3 1.90781e-07 0)
(3 2.34955e-07 0)
(3 2.97018e-07 0)
(3 3.76676e-07 0)
(3 5.03063e-07 0)
(3 6.67767e-07 0)
(3 9.3867e-07 0)
(3 1.3393e-06 0)
(3 2.00883e-06 0)
(3 3.07059e-06 0)
(3 4.73685e-06 0)
(3 7.69248e-06 0)
(2.99999 1.32419e-05 0)
(2.99999 2.31354e-05 0)
(2.99998 4.21275e-05 0)
(2.99995 7.89924e-05 0)
(2.99991 0.000156399 0)
(2.99982 0.000308377 0)
(2.99963 0.000647635 0)
(2.99925 0.00130995 0)
(2.99843 0.00281107 0)
(2.99689 0.00561473 0)
(2.99373 0.0115957 0)
(2.98833 0.0217779 0)
(2.97871 0.0407266 0)
(2.96534 0.067262 0)
(2.94512 0.109271 0)
(2.92589 0.150322 0)
(2.89388 0.221487 0)
(3 7.30648e-10 0)
(3 8.71918e-10 0)
(3 1.09187e-09 0)
(3 1.37789e-09 0)
(3 1.79102e-09 0)
(3 2.3652e-09 0)
(3 3.20952e-09 0)
(3 4.47483e-09 0)
(3 6.45644e-09 0)
(3 9.60255e-09 0)
(3 1.48058e-08 0)
(3 2.31972e-08 0)
(3 3.83467e-08 0)
(3 6.7016e-08 0)
(3 1.2064e-07 0)
(3 2.28629e-07 0)
(3 4.5427e-07 0)
(3 9.58135e-07 0)
(3 2.10216e-06 0)
(3 4.92476e-06 0)
(2.99999 1.19191e-05 0)
(2.99998 3.08313e-05 0)
(2.99995 8.06328e-05 0)
(2.99987 0.00022353 0)
(2.99966 0.000598329 0)
(2.99906 0.00167904 0)
(2.99768 0.00420299 0)
(2.99411 0.011006 0)
(2.98824 0.0222236 0)
(2.96563 0.0691287 0)
(3 2.55096e-12 0)
(3 3.0708e-12 0)
(3 3.88137e-12 0)
(3 4.94461e-12 0)
(3 6.51116e-12 0)
(3 8.66446e-12 0)
(3 1.18822e-11 0)
(3 1.66367e-11 0)
(3 2.41134e-11 0)
(3 3.57159e-11 0)
(3 5.54547e-11 0)
(3 8.65427e-11 0)
(3 1.45123e-10 0)
(3 2.50693e-10 0)
(3 4.60126e-10 0)
(3 8.66717e-10 0)
(3 1.7764e-09 0)
(3 3.74127e-09 0)
(3 8.62179e-09 0)
(3 2.04355e-08 0)
(3 5.34624e-08 0)
(3 1.43094e-07 0)
(3 4.26979e-07 0)
(3 1.28441e-06 0)
(3 4.31184e-06 0)
(2.99999 1.43694e-05 0)
(2.99996 5.201e-05 0)
(2.99985 0.000184563 0)
(2.99955 0.000587644 0)
(2.99617 0.00463685 0)
(2.56493 -1.41038 0)
(2.63167 -1.43152 0)
(2.79173 -1.52293 0)
(2.96282 -1.62341 0)
(3.06616 -1.6616 0)
(3.09848 -1.66388 0)
(3.09669 -1.67514 0)
(3.08327 -1.68688 0)
(3.06113 -1.69607 0)
(3.05013 -1.65561 0)
(3.07225 -1.57389 0)
(3.06139 -1.54251 0)
(3.08941 -1.39546 0)
(3.09238 -1.30698 0)
(3.09717 -1.20075 0)
(3.10887 -1.07799 0)
(3.12495 -0.947233 0)
(3.13255 -0.813941 0)
(3.12974 -0.668197 0)
(3.11351 -0.519141 0)
(3.08423 -0.36837 0)
(3.04425 -0.217626 0)
(2.99558 -0.0649355 0)
(2.9424 0.0860458 0)
(2.87828 0.243529 0)
(2.82164 0.361995 0)
(2.8142 0.379296 0)
(2.83002 0.348847 0)
(2.90322 0.211032 0)
(2.98009 0.043712 0)
(2.99907 0.00200626 0)
(2.99999 2.38158e-05 0)
(3 1.39465e-07 0)
(3 6.27836e-10 0)
(3 2.1779e-12 0)
(2.5631 -1.39694 0)
(2.63973 -1.45144 0)
(2.81393 -1.5435 0)
(2.98807 -1.63203 0)
(3.08378 -1.67147 0)
(3.10802 -1.66853 0)
(3.09453 -1.68512 0)
(3.07328 -1.69036 0)
(3.05085 -1.68885 0)
(3.06379 -1.61984 0)
(3.07401 -1.58069 0)
(3.06502 -1.52584 0)
(3.08708 -1.40217 0)
(3.09675 -1.30179 0)
(3.11168 -1.18904 0)
(3.12812 -1.0506 0)
(3.13878 -0.905585 0)
(3.14252 -0.762181 0)
(3.13746 -0.606926 0)
(3.12131 -0.453282 0)
(3.09308 -0.304011 0)
(3.05412 -0.161021 0)
(3.00394 -0.0214133 0)
(2.94219 0.131867 0)
(2.86648 0.283657 0)
(2.81663 0.37444 0)
(2.8127 0.378864 0)
(2.8432 0.329983 0)
(2.91692 0.183395 0)
(2.98613 0.0311975 0)
(2.99953 0.00102309 0)
(3 9.79466e-06 0)
(3 5.84626e-08 0)
(3 2.90519e-10 0)
(3 1.06392e-12 0)
(2.55891 -1.39803 0)
(2.6365 -1.45477 0)
(2.81932 -1.54677 0)
(2.99735 -1.64079 0)
(3.09295 -1.68208 0)
(3.11237 -1.67862 0)
(3.09594 -1.68891 0)
(3.06534 -1.68939 0)
(3.04568 -1.67559 0)
(3.06456 -1.61229 0)
(3.05959 -1.61089 0)
(3.0756 -1.49638 0)
(3.08095 -1.40905 0)
(3.10876 -1.27544 0)
(3.12203 -1.14102 0)
(3.12856 -0.983671 0)
(3.12365 -0.822604 0)
(3.11785 -0.675616 0)
(3.10594 -0.525945 0)
(3.08409 -0.373814 0)
(3.05417 -0.224092 0)
(3.02027 -0.0811026 0)
(2.97907 0.0542294 0)
(2.9129 0.198447 0)
(2.84632 0.320114 0)
(2.81205 0.38338 0)
(2.8121 0.380561 0)
(2.84533 0.328849 0)
(2.92864 0.163723 0)
(2.99017 0.0230508 0)
(2.99972 0.000622683 0)
(3 5.3165e-06 0)
(3 3.05576e-08 0)
(3 1.49202e-10 0)
(3 5.39101e-13 0)
(2.55407 -1.39544 0)
(2.63372 -1.45447 0)
(2.82383 -1.54246 0)
(3.00198 -1.6528 0)
(3.10145 -1.68754 0)
(3.11465 -1.68417 0)
(3.1013 -1.69154 0)
(3.0715 -1.68972 0)
(3.04694 -1.6636 0)
(3.06239 -1.61334 0)
(3.04164 -1.61956 0)
(3.07928 -1.48236 0)
(3.10207 -1.36179 0)
(3.10344 -1.19408 0)
(3.10356 -1.06676 0)
(3.11355 -0.93324 0)
(3.12248 -0.817442 0)
(3.12133 -0.679388 0)
(3.11181 -0.540773 0)
(3.08955 -0.384356 0)
(3.05364 -0.220841 0)
(3.00523 -0.0569085 0)
(2.94864 0.0936142 0)
(2.89229 0.221593 0)
(2.83537 0.3325 0)
(2.8097 0.387328 0)
(2.81182 0.386566 0)
(2.85044 0.33149 0)
(2.93877 0.142914 0)
(2.9932 0.0159255 0)
(2.99984 0.00035283 0)
(3 2.79415e-06 0)
(3 1.57027e-08 0)
(3 7.5713e-11 0)
(3 2.69596e-13 0)
(2.54635 -1.39257 0)
(2.62629 -1.44946 0)
(2.82319 -1.54066 0)
(3.00418 -1.65648 0)
(3.10867 -1.68486 0)
(3.11832 -1.68723 0)
(3.10656 -1.69339 0)
(3.08167 -1.69143 0)
(3.0491 -1.6597 0)
(3.05078 -1.62667 0)
(3.0468 -1.60116 0)
(3.0931 -1.43424 0)
(3.09291 -1.30851 0)
(3.10079 -1.17899 0)
(3.10781 -1.09186 0)
(3.11619 -0.969294 0)
(3.11918 -0.852977 0)
(3.11929 -0.713536 0)
(3.10759 -0.56716 0)
(3.08539 -0.410839 0)
(3.05141 -0.249167 0)
(3.00659 -0.0848379 0)
(2.95025 0.0723541 0)
(2.88888 0.20987 0)
(2.83031 0.338808 0)
(2.80883 0.388301 0)
(2.81574 0.388946 0)
(2.86232 0.302271 0)
(2.95036 0.114064 0)
(2.99547 0.0103885 0)
(2.99991 0.000194003 0)
(3 1.44595e-06 0)
(3 7.98134e-09 0)
(3 3.80459e-11 0)
(3 1.33673e-13 0)
(2.53919 -1.38312 0)
(2.61818 -1.43914 0)
(2.81462 -1.53446 0)
(3.00307 -1.65658 0)
(3.1138 -1.67776 0)
(3.12886 -1.69005 0)
(3.11165 -1.69712 0)
(3.0915 -1.69463 0)
(3.05925 -1.65428 0)
(3.03471 -1.65708 0)
(3.05816 -1.55306 0)
(3.09327 -1.43262 0)
(3.09402 -1.33405 0)
(3.1011 -1.2129 0)
(3.10218 -1.11509 0)
(3.11203 -0.981832 0)
(3.12535 -0.842909 0)
(3.12852 -0.696825 0)
(3.12037 -0.535392 0)
(3.09533 -0.378377 0)
(3.05642 -0.224079 0)
(3.00668 -0.0741126 0)
(2.94832 0.0750434 0)
(2.88494 0.229662 0)
(2.82425 0.35821 0)
(2.80769 0.388533 0)
(2.81581 0.380906 0)
(2.87662 0.27235 0)
(2.96065 0.0895506 0)
(2.99708 0.00655403 0)
(2.99995 0.000104229 0)
(3 7.33307e-07 0)
(3 3.98839e-09 0)
(3 1.88291e-11 0)
(3 6.61254e-14 0)
(2.53373 -1.37554 0)
(2.61075 -1.42638 0)
(2.79677 -1.52012 0)
(2.98794 -1.63485 0)
(3.1137 -1.66842 0)
(3.13995 -1.69086 0)
(3.12292 -1.70687 0)
(3.1082 -1.70594 0)
(3.07913 -1.65229 0)
(3.03095 -1.6784 0)
(3.0676 -1.51228 0)
(3.08355 -1.45749 0)
(3.09058 -1.34487 0)
(3.09869 -1.22048 0)
(3.11745 -1.09563 0)
(3.13541 -0.935552 0)
(3.14336 -0.764123 0)
(3.13899 -0.609695 0)
(3.11753 -0.441306 0)
(3.08866 -0.285744 0)
(3.05155 -0.136608 0)
(3.00598 0.00268913 0)
(2.94517 0.143971 0)
(2.86629 0.290385 0)
(2.81468 0.378193 0)
(2.80598 0.388961 0)
(2.82067 0.361739 0)
(2.87982 0.260544 0)
(2.96922 0.0693898 0)
(2.99821 0.0039805 0)
(2.99997 5.32124e-05 0)
(3 3.61225e-07 0)
(3 1.9458e-09 0)
(3 9.12898e-12 0)
(3 2.94934e-14 0)
(2.53071 -1.37066 0)
(2.60504 -1.41378 0)
(2.77972 -1.50038 0)
(2.96999 -1.60833 0)
(3.10301 -1.65882 0)
(3.13741 -1.68682 0)
(3.12763 -1.71318 0)
(3.11502 -1.71513 0)
(3.09174 -1.65635 0)
(3.04101 -1.68089 0)
(3.08184 -1.49626 0)
(3.07984 -1.46262 0)
(3.11192 -1.31524 0)
(3.1242 -1.17317 0)
(3.1304 -1.00668 0)
(3.12371 -0.836161 0)
(3.11056 -0.675479 0)
(3.10067 -0.52734 0)
(3.08231 -0.376654 0)
(3.04802 -0.219126 0)
(3.00549 -0.0651174 0)
(2.95861 0.0790551 0)
(2.90263 0.213137 0)
(2.84454 0.322052 0)
(2.80892 0.386324 0)
(2.8054 0.390621 0)
(2.8309 0.3491 0)
(2.90126 0.216871 0)
(2.98005 0.0471748 0)
(2.99905 0.00220015 0)
(2.99999 2.65324e-05 0)
(3 1.74636e-07 0)
(3 9.32677e-10 0)
(3 4.34979e-12 0)
(3 1.0683e-14 0)
(2.52879 -1.36831 0)
(2.59801 -1.40282 0)
(2.76827 -1.48161 0)
(2.96044 -1.59872 0)
(3.09024 -1.65095 0)
(3.12897 -1.68332 0)
(3.12638 -1.7138 0)
(3.1158 -1.71752 0)
(3.09701 -1.65653 0)
(3.05572 -1.67627 0)
(3.0918 -1.46619 0)
(3.09891 -1.41427 0)
(3.11413 -1.23027 0)
(3.11193 -1.07486 0)
(3.10839 -0.945217 0)
(3.11576 -0.822402 0)
(3.11677 -0.693936 0)
(3.10786 -0.551152 0)
(3.08865 -0.406237 0)
(3.05499 -0.243248 0)
(3.00955 -0.0790132 0)
(2.95352 0.0793065 0)
(2.89445 0.214489 0)
(2.83788 0.324679 0)
(2.80608 0.390621 0)
(2.80495 0.394862 0)
(2.83275 0.352841 0)
(2.92132 0.186315 0)
(2.9861 0.0355268 0)
(2.99946 0.00132353 0)
(2.99999 1.36477e-05 0)
(3 8.5559e-08 0)
(3 4.47269e-10 0)
(3 2.05708e-12 0)
(3 3.65475e-15 0)
(2.52047 -1.35876 0)
(2.59253 -1.389 0)
(2.76116 -1.46595 0)
(2.95149 -1.59594 0)
(3.08537 -1.64955 0)
(3.1253 -1.68226 0)
(3.12548 -1.71196 0)
(3.11794 -1.71299 0)
(3.1084 -1.64812 0)
(3.07496 -1.65363 0)
(3.09677 -1.43268 0)
(3.09522 -1.33148 0)
(3.10607 -1.20707 0)
(3.11059 -1.07429 0)
(3.111 -0.984384 0)
(3.11424 -0.859518 0)
(3.11316 -0.723728 0)
(3.10384 -0.575203 0)
(3.08361 -0.420825 0)
(3.0496 -0.259022 0)
(3.00467 -0.0972644 0)
(2.95012 0.0602636 0)
(2.89016 0.20572 0)
(2.83175 0.338714 0)