/*--------------------------------*- C++ -*----------------------------------*\
  =========                 |
  \\      /  F ield         | OpenFOAM: The Open Source CFD Toolbox
   \\    /   O peration     | Website:  https://openfoam.org
    \\  /    A nd           | Version:  7
     \\/     M anipulation  |
\*---------------------------------------------------------------------------*/
FoamFile
{
    version     2.0;
    format      ascii;
    class       volScalarField;
    location    "12";
    object      p;
}
// * * * * * * * * * * * * * * * * * * * * * * * * * * * * * * * * * * * * * //

dimensions      [1 -1 -2 0 0 0 0];

internalField   nonuniform List<scalar> 
90000
(
0.0962708
0.159299
0.210077
0.234571
0.27628
0.321609
0.348058
0.384961
0.439765
0.486326
0.536155
0.594583
0.64787
0.700606
0.75468
0.796423
0.838138
0.863789
0.881329
0.890858
0.886656
0.882932
0.874369
0.858971
0.849039
0.840439
0.837845
0.839052
0.837803
0.838235
0.843834
0.850656
0.851379
0.847059
0.843162
0.841094
0.843347
0.844645
0.843493
0.842171
0.842696
0.844173
0.845582
0.846514
0.847765
0.850837
0.856065
0.862614
0.87069
0.878782
0.886386
0.891806
0.896042
0.893105
0.887131
0.879311
0.870629
0.86332
0.85914
0.85897
0.861013
0.864278
0.868455
0.871441
0.874164
0.874681
0.872884
0.868119
0.86238
0.858778
0.859895
0.863717
0.86683
0.867569
0.866938
0.863685
0.861475
0.863333
0.867599
0.870628
0.871774
0.874048
0.880979
0.891949
0.900937
0.906516
0.912503
0.921493
0.931005
0.937367
0.94339
0.950207
0.957324
0.964088
0.970211
0.976045
0.981868
0.987175
0.991589
0.999385
0.0438444
0.0438248
0.0438051
0.0437855
0.0437686
0.0437517
0.0437413
0.0437049
0.0450808
0.0493469
0.0572846
0.0724677
0.0936788
0.124122
0.164036
0.218005
0.281113
0.362337
0.445872
0.540005
0.625979
0.71474
0.789195
0.849735
0.888841
0.91342
0.916858
0.912045
0.896598
0.881627
0.868615
0.860163
0.853933
0.849417
0.842436
0.836969
0.834466
0.829369
0.826541
0.829794
0.842554
0.857062
0.868843
0.876842
0.882533
0.886346
0.886895
0.885022
0.881401
0.8772
0.871074
0.86786
0.864241
0.860924
0.85913
0.859795
0.86189
0.863998
0.866847
0.869924
0.873634
0.87767
0.877291
0.874433
0.868165
0.864262
0.861164
0.859919
0.859772
0.861589
0.866077
0.870235
0.871255
0.868851
0.86375
0.859436
0.86105
0.866399
0.870774
0.872053
0.873461
0.877911
0.887883
0.898891
0.905004
0.909725
0.917079
0.927252
0.934552
0.940562
0.946758
0.954035
0.960812
0.966649
0.972594
0.978404
0.983919
0.98916
0.993751
1.00153
0.0438608
0.0438602
0.0438606
0.0438618
0.0438634
0.043865
0.043866
0.0438675
0.0438678
0.0438376
0.0438011
0.0437679
0.0437413
0.0437249
0.0437071
0.0436983
0.0436588
0.044071
0.0484077
0.06145
0.0879771
0.127396
0.189701
0.264682
0.361666
0.45932
0.559734
0.646697
0.727263
0.795118
0.855881
0.892723
0.925305
0.930598
0.924166
0.912706
0.889631
0.868892
0.846831
0.830518
0.819827
0.814063
0.818965
0.833597
0.853813
0.872647
0.883554
0.886184
0.883637
0.875143
0.866341
0.860642
0.861573
0.867289
0.874703
0.880761
0.883371
0.881825
0.878017
0.873082
0.869971
0.867896
0.866919
0.864962
0.863319
0.863771
0.865659
0.868827
0.871758
0.874128
0.875326
0.868763
0.863134
0.860443
0.860065
0.862131
0.867219
0.871723
0.873965
0.873656
0.875946
0.885237
0.896607
0.903393
0.907731
0.913466
0.923394
0.932776
0.937695
0.943208
0.949862
0.957491
0.963734
0.969193
0.975333
0.980956
0.986108
0.991456
0.996178
1.00374
0.0438676
0.0438675
0.043867
0.043866
0.0438647
0.0438642
0.0438598
0.0438567
0.0438499
0.0438432
0.0438374
0.0438333
0.0438303
0.0438264
0.04382
0.0438156
0.04381
0.0438095
0.0437916
0.0437743
0.0437625
0.0437532
0.043756
0.0437426
0.0439879
0.0492312
0.0683404
0.10364
0.162236
0.239567
0.340822
0.453056
0.571973
0.685606
0.777951
0.861752
0.896787
0.927178
0.914708
0.895129
0.876833
0.8526
0.840934
0.828048
0.824058
0.826745
0.840319
0.860803
0.879784
0.889724
0.889619
0.881726
0.873347
0.869037
0.870963
0.87464
0.87379
0.869223
0.864033
0.861624
0.863361
0.866679
0.869809
0.871294
0.870861
0.869688
0.869285
0.868404
0.866115
0.863075
0.860231
0.858813
0.860906
0.865882
0.871498
0.876879
0.878056
0.871493
0.868287
0.872905
0.883131
0.895714
0.903727
0.907369
0.910668
0.918451
0.930248
0.936181
0.940144
0.946511
0.954201
0.961312
0.966558
0.971878
0.978013
0.983145
0.988035
0.993749
0.998812
1.00549
0.0438533
0.0438482
0.0438432
0.0438385
0.0438345
0.0438294
0.0438242
0.0438187
0.0438117
0.0438049
0.0438
0.0437951
0.043791
0.0437865
0.0437823
0.0437802
0.0437787
0.04378
0.0437836
0.0437892
0.0437954
0.0438049
0.0438125
0.0438204
0.0438322
0.0438326
0.0438305
0.0438297
0.0438252
0.0438254
0.04381
0.0506596
0.0719743
0.125303
0.207337
0.330655
0.469598
0.623101
0.746931
0.826541
0.8936
0.896383
0.893831
0.874479
0.851766
0.838207
0.825537
0.824498
0.834439
0.85544
0.878936
0.891986
0.893789
0.87707
0.860093
0.851206
0.851437
0.860064
0.869921
0.874358
0.872475
0.869052
0.868714
0.871018
0.871643
0.869685
0.866672
0.866517
0.866693
0.866776
0.86871
0.87192
0.874411
0.875111
0.87265
0.869128
0.865885
0.867023
0.873568
0.88698
0.90125
0.909872
0.907163
0.905907
0.913551
0.927396
0.937415
0.940083
0.943408
0.950251
0.958266
0.964085
0.969061
0.974972
0.980677
0.98542
0.990493
0.996455
1.00137
1.00708
0.0437928
0.0437903
0.0437887
0.0437875
0.0437865
0.0437853
0.0437837
0.0437829
0.0437814
0.0437791
0.0437782
0.0437775
0.0437774
0.0437773
0.0437792
0.0437829
0.0437871
0.0437927
0.0437998
0.0438052
0.0438114
0.0438187
0.0438253
0.0438321
0.0438395
0.043849
0.0438579
0.0438614
0.0438601
0.0438556
0.0438495
0.0438326
0.0438124
0.0437907
0.0437728
0.0437532
0.0532245
0.0867569
0.173888
0.297178
0.466606
0.612776
0.736102
0.819033
0.852571
0.861704
0.848418
0.837471
0.835381
0.838584
0.853964
0.877264
0.894644
0.893223
0.87941
0.863512
0.851422
0.850576
0.860342
0.870928
0.874936
0.870747
0.862054
0.859287
0.864813
0.869757
0.870293
0.865549
0.867098
0.869446
0.869125
0.868541
0.867494
0.865437
0.864677
0.868051
0.875875
0.885812
0.894332
0.899612
0.897887
0.896561
0.903483
0.913422
0.928072
0.940227
0.936362
0.936805
0.946029
0.957495
0.964259
0.967613
0.972852
0.978661
0.98351
0.987735
0.992861
0.998904
1.00329
1.00804
0.0437734
0.0437737
0.0437753
0.0437766
0.0437781
0.0437805
0.0437827
0.0437857
0.0437888
0.0437913
0.0437944
0.0437974
0.0438001
0.0438032
0.0438065
0.0438103
0.0438134
0.0438177
0.0438223
0.0438255
0.0438282
0.0438307
0.0438328
0.0438346
0.0438384
0.0438431
0.0438448
0.0438421
0.0438369
0.0438289
0.0438198
0.0438112
0.0437992
0.0437855
0.0437726
0.0437653
0.0437619
0.0437641
0.0437697
0.04377
0.0518405
0.0963067
0.181804
0.338476
0.496373
0.657054
0.760936
0.817308
0.836298
0.846666
0.851787
0.856277
0.871307
0.873227
0.875089
0.87181
0.864595
0.859785
0.858271
0.858663
0.865822
0.873188
0.875571
0.869371
0.860733
0.858777
0.86415
0.86828
0.865598
0.867633
0.871228
0.87125
0.869814
0.87049
0.872432
0.877427
0.882232
0.886688
0.89014
0.894919
0.901284
0.91079
0.921842
0.931689
0.93443
0.930135
0.934517
0.946046
0.959678
0.963014
0.961383
0.967677
0.975566
0.981312
0.985708
0.991029
0.996789
1.00248
1.00601
1.00957
0.0437768
0.0437805
0.0437851
0.0437894
0.0437934
0.0437981
0.0438024
0.0438071
0.0438121
0.0438157
0.0438193
0.0438227
0.0438253
0.0438282
0.0438302
0.0438298
0.0438286
0.043828
0.0438272
0.0438257
0.043824
0.043823
0.043822
0.0438218
0.043823
0.0438255
0.0438261
0.043823
0.0438174
0.0438112
0.0438064
0.0438001
0.0437894
0.0437789
0.0437709
0.0437713
0.0437794
0.0437903
0.0437969
0.0437992
0.0437927
0.0437872
0.0437778
0.0437651
0.0620473
0.119164
0.246815
0.409979
0.569476
0.689314
0.770244
0.796835
0.83653
0.853084
0.872352
0.8801
0.875552
0.871954
0.865606
0.858586
0.857992
0.862354
0.867277
0.868894
0.868512
0.863663
0.861208
0.865402
0.870402
0.868617
0.868977
0.870711
0.869226
0.868179
0.873576
0.879939
0.886993
0.892309
0.89778
0.903904
0.910883
0.916492
0.919828
0.924758
0.929962
0.939888
0.949345
0.955915
0.954632
0.958168
0.968284
0.978239
0.983491
0.985058
0.988775
0.993981
0.997069
1.00092
1.00356
1.01009
0.0438002
0.0438056
0.0438103
0.0438144
0.0438196
0.0438242
0.0438291
0.0438355
0.0438401
0.0438413
0.0438415
0.0438426
0.0438424
0.0438406
0.0438366
0.0438302
0.0438246
0.0438203
0.0438171
0.043814
0.0438105
0.043807
0.043805
0.0438046
0.0438061
0.0438087
0.0438099
0.0438076
0.0438038
0.0437998
0.0437962
0.0437908
0.0437848
0.0437788
0.0437774
0.0437856
0.0437947
0.0438032
0.0438062
0.0438007
0.0437901
0.0437828
0.0437724
0.0437536
0.0437363
0.0437259
0.0437201
0.0482674
0.0881847
0.181212
0.338997
0.503316
0.66383
0.778856
0.84391
0.871959
0.878851
0.881324
0.870569
0.857172
0.856289
0.861213
0.867189
0.873032
0.871169
0.867693
0.863594
0.862712
0.867305
0.869977
0.866451
0.865607
0.869162
0.873046
0.876876
0.88278
0.886726
0.893356
0.90018
0.908226
0.9149
0.917688
0.923042
0.930067
0.939049
0.946509
0.949175
0.952195
0.960529
0.970405
0.97585
0.975576
0.977836
0.984007
0.990872
0.995256
1.00048
1.00504
1.00757
1.01728
0.0438425
0.043846
0.0438482
0.0438499
0.0438516
0.0438523
0.043853
0.043854
0.0438537
0.0438522
0.0438505
0.0438471
0.0438428
0.0438406
0.0438336
0.0438207
0.0438109
0.0438033
0.0437989
0.0437973
0.0437944
0.0437909
0.0437893
0.0437903
0.043793
0.0437966
0.0437994
0.0437993
0.043797
0.0437936
0.0437902
0.0437876
0.0437848
0.0437831
0.0437877
0.0437957
0.0438023
0.0438071
0.0438055
0.0437908
0.0437679
0.0437571
0.0437488
0.0437417
0.0437371
0.0437293
0.0437312
0.0437385
0.0437638
0.0438235
0.0439489
0.072035
0.148922
0.307943
0.496301
0.690621
0.794179
0.844738
0.864493
0.8607
0.860758
0.86127
0.864869
0.870234
0.871781
0.870785
0.867407
0.866496
0.86681
0.867715
0.867709
0.867112
0.868066
0.876802
0.883566
0.888445
0.893319
0.896389
0.901213
0.905415
0.914507
0.923279
0.929175
0.935877
0.940705
0.944974
0.951713
0.957702
0.964526
0.970283
0.973151
0.980093
0.988182
0.993579
0.996898
1.0006
1.00414
1.00599
1.01069
1.01632
0.0438636
0.0438644
0.0438649
0.0438642
0.0438627
0.0438607
0.043858
0.0438534
0.0438484
0.0438448
0.043841
0.043834
0.0438278
0.0438229
0.0438134
0.0437955
0.0437863
0.0437801
0.0437771
0.0437772
0.0437748
0.043772
0.0437718
0.0437747
0.043779
0.0437849
0.0437921
0.0437975
0.0437972
0.0437951
0.0437941
0.0437937
0.0437924
0.0437924
0.0437951
0.0437985
0.043801
0.0437976
0.0437875
0.0437558
0.0437325
0.0437342
0.0437374
0.0437415
0.0437461
0.0437591
0.0437885
0.0438156
0.0438614
0.0439593
0.0439888
0.0439843
0.0439672
0.0439272
0.0649075
0.158729
0.345904
0.54866
0.758248
0.821811
0.846445
0.85168
0.863273
0.867498
0.868961
0.869941
0.872436
0.872168
0.869097
0.866693
0.867141
0.868532
0.872619
0.878249
0.884149
0.888647
0.892827
0.900265
0.907116
0.913274
0.917739
0.922733
0.928679
0.933862
0.941182
0.94825
0.953958
0.962936
0.966982
0.96985
0.976795
0.980558
0.985849
0.991921
0.996376
0.999262
1.00472
1.01102
1.01566
1.0186
0.0438485
0.0438463
0.0438436
0.0438394
0.0438355
0.0438321
0.0438278
0.0438203
0.043815
0.0438118
0.0438089
0.0438028
0.0437975
0.0437935
0.0437852
0.0437688
0.0437609
0.043757
0.0437561
0.0437587
0.0437597
0.0437599
0.0437626
0.0437679
0.0437763
0.0437879
0.0438006
0.0438092
0.0438122
0.0438128
0.0438131
0.0438103
0.0438052
0.0438
0.0437964
0.0437884
0.0437774
0.0437687
0.0437537
0.0437291
0.0437234
0.0437263
0.0437379
0.0437603
0.0437942
0.0438494
0.0438859
0.0439032
0.0439339
0.0439921
0.0440103
0.0440055
0.043973
0.043895
0.0438514
0.0437849
0.0444617
0.0807441
0.214602
0.439783
0.661498
0.774526
0.843853
0.845183
0.856441
0.867205
0.876439
0.874079
0.869594
0.865552
0.867866
0.873973
0.880517
0.884646
0.888869
0.892804
0.897195
0.90184
0.907644
0.913198
0.920732
0.926636
0.93249
0.938008
0.942641
0.948202
0.954361
0.957673
0.967576
0.973685
0.978803
0.985866
0.988886
0.992247
1.00061
1.00788
1.0102
1.01212
1.01598
1.0205
0.0438063
0.0438044
0.0438026
0.0438013
0.0437993
0.0437951
0.0437887
0.0437849
0.043783
0.0437822
0.0437819
0.0437791
0.0437738
0.0437718
0.0437684
0.0437593
0.0437547
0.0437532
0.0437547
0.0437603
0.0437686
0.0437748
0.0437817
0.0437928
0.0438053
0.0438172
0.0438274
0.0438358
0.0438387
0.0438363
0.0438311
0.0438207
0.043803
0.0437855
0.0437688
0.0437531
0.0437481
0.0437449
0.0437369
0.0437266
0.0437251
0.0437313
0.0437646
0.0438204
0.0438936
0.0439478
0.0439576
0.0439562
0.043961
0.0439895
0.0439943
0.0439904
0.043928
0.0438269
0.0437778
0.0437299
0.043673
0.0436595
0.0436614
0.0570816
0.136875
0.328122
0.581254
0.742963
0.848906
0.858936
0.871481
0.871418
0.860974
0.864639
0.874742
0.882461
0.88628
0.887574
0.890366
0.894838
0.900881
0.906983
0.912538
0.916957
0.920817
0.92697
0.933365
0.938508
0.944013
0.950809
0.959913
0.965778
0.967377
0.972752
0.978045
0.982536
0.991573
0.994797
0.995479
1.00233
1.01262
1.01365
1.0131
1.01861
0.0437956
0.0437942
0.0437923
0.0437887
0.0437831
0.043781
0.0437815
0.0437835
0.0437866
0.0437893
0.0437904
0.0437907
0.043791
0.0437916
0.0437925
0.043793
0.0437922
0.0437912
0.043793
0.0437995
0.0438085
0.0438161
0.0438243
0.0438353
0.0438426
0.0438458
0.043849
0.0438489
0.0438466
0.0438378
0.0438177
0.0437872
0.043759
0.0437418
0.04373
0.0437297
0.0437344
0.0437373
0.0437372
0.0437415
0.043752
0.0437821
0.0438459
0.043923
0.0439818
0.0439924
0.0439879
0.0439711
0.0439636
0.0439453
0.0439261
0.0439062
0.0438321
0.0437443
0.043717
0.0436972
0.0436655
0.043658
0.043674
0.0437286
0.0439002
0.0440823
0.0889355
0.251339
0.506669
0.690167
0.833782
0.83719
0.853537
0.871097
0.886758
0.886471
0.88913
0.89085
0.893662
0.899435
0.90581
0.91033
0.914555
0.918689
0.924784
0.931748
0.937537
0.941805
0.94486
0.950418
0.957955
0.968158
0.971613
0.974024
0.979957
0.98468
0.988737
0.997886
1.00366
1.00158
1.00556
1.01801
1.01973
1.02088
0.0437924
0.0437922
0.043792
0.0437927
0.0437942
0.0437966
0.0438015
0.0438073
0.0438118
0.0438161
0.0438209
0.0438256
0.0438297
0.0438332
0.0438337
0.0438327
0.0438275
0.0438184
0.0438171
0.0438186
0.0438243
0.0438318
0.043839
0.043845
0.0438452
0.0438419
0.0438292
0.0438144
0.0438004
0.0437806
0.0437577
0.0437407
0.0437279
0.0437202
0.0437198
0.0437235
0.0437347
0.043752
0.0437822
0.0438182
0.043848
0.0438861
0.043946
0.0439998
0.0440055
0.0440026
0.0439933
0.0439645
0.0438969
0.0438601
0.0438427
0.0438223
0.0437653
0.0436939
0.0436865
0.0436901
0.0436824
0.0436971
0.0437816
0.0439752
0.0442208
0.0444631
0.0445562
0.0444696
0.0670141
0.19394
0.445355
0.66848
0.838228
0.863496
0.885927
0.881843
0.892872
0.894024
0.89998
0.905093
0.909563
0.912983
0.916837
0.922619
0.928099
0.933567
0.938612
0.942963
0.948575
0.954899
0.961504
0.965515
0.970248
0.974676
0.980139
0.985509
0.991039
0.996201
1.00421
1.01102
1.00698
1.00441
1.0152
1.02602
0.0438184
0.0438259
0.0438331
0.0438386
0.0438416
0.0438447
0.0438503
0.043857
0.0438599
0.0438621
0.043863
0.0438626
0.0438615
0.0438593
0.0438565
0.0438522
0.04384
0.0438229
0.0438187
0.043818
0.0438207
0.0438226
0.0438193
0.0438082
0.0437963
0.0437804
0.0437572
0.0437459
0.0437378
0.0437277
0.0437259
0.0437212
0.0437205
0.0437225
0.0437249
0.0437459
0.0437928
0.0438418
0.043902
0.0439403
0.043952
0.0439653
0.0439932
0.0440051
0.0439997
0.043987
0.0439675
0.0439087
0.0438008
0.043765
0.0437638
0.0437598
0.043738
0.0436901
0.0436847
0.0437116
0.0438159
0.0439771
0.0441764
0.0444683
0.0445985
0.0445952
0.0446538
0.0447016
0.0447746
0.0448991
0.0559941
0.1694
0.421142
0.647932
0.826588
0.855207
0.894909
0.893961
0.907996
0.906408
0.911267
0.915741
0.919945
0.926926
0.930778
0.936001
0.941217
0.946614
0.951535
0.956116
0.961364
0.966554
0.973254
0.978535
0.983216
0.98823
0.992046
0.996327
1.00057
1.00696
1.01387
1.01427
1.01368
1.02254
0.0438878
0.0438911
0.0438957
0.0438966
0.0438964
0.0438952
0.043895
0.0438949
0.0438939
0.0438909
0.0438854
0.0438789
0.0438715
0.0438604
0.0438486
0.0438362
0.0438172
0.0437949
0.0437721
0.0437514
0.0437484
0.0437475
0.0437403
0.0437265
0.0437164
0.0437077
0.0437026
0.0437035
0.0437055
0.0437116
0.0437185
0.0437296
0.0437574
0.0437813
0.0438057
0.0438572
0.0439219
0.0439682
0.0440022
0.0440079
0.0439997
0.0439912
0.0439836
0.0439605
0.0439312
0.0439123
0.0438944
0.0438519
0.0437652
0.0437169
0.0437142
0.0437242
0.0437295
0.0437393
0.0437593
0.0438764
0.0441756
0.0445844
0.0447971
0.0449763
0.0450873
0.0449775
0.0449071
0.0450862
0.0455004
0.0463203
0.0472063
0.0478869
0.0549844
0.153881
0.379037
0.640397
0.819661
0.867107
0.91915
0.906683
0.91831
0.917531
0.924359
0.931358
0.934529
0.939449
0.942571
0.947354
0.953113
0.959625
0.965541
0.969598
0.974097
0.978109
0.982
0.98802
0.995615
1.00013
1.00287
1.00725
1.01165
1.01655
1.01848
1.02314
0.0439197
0.0439171
0.0439142
0.0439105
0.0439053
0.0438994
0.0438913
0.0438805
0.0438691
0.0438562
0.0438402
0.0438226
0.0438011
0.0437779
0.0437555
0.0437323
0.0437114
0.0436932
0.0436724
0.0436573
0.0436573
0.0436642
0.0436714
0.0436715
0.043672
0.0436762
0.0436848
0.043695
0.0437161
0.0437542
0.0437901
0.0438323
0.0438766
0.0439115
0.0439511
0.0439981
0.0440455
0.0440508
0.0440435
0.0440254
0.044
0.043979
0.0439536
0.0438953
0.0438634
0.0438633
0.0438615
0.043835
0.0437625
0.0437133
0.0437102
0.0437231
0.0438243
0.044065
0.0443086
0.0445309
0.0448291
0.0453129
0.0454576
0.0454464
0.0456423
0.0457894
0.0459345
0.0462987
0.0472557
0.0488241
0.0499399
0.051039
0.0517939
0.0520712
0.0544137
0.140617
0.355725
0.628224
0.811307
0.871142
0.931132
0.918551
0.931865
0.930981
0.933892
0.940657
0.945235
0.9524
0.957635
0.961996
0.965416
0.968802
0.974327
0.981712
0.98737
0.993136
0.997321
0.999136
1.00098
1.00511
1.01379
1.02182
1.02379
1.02577
0.0437864
0.0437739
0.0437622
0.0437501
0.0437385
0.0437283
0.043719
0.0437116
0.0437068
0.0437038
0.0437013
0.0436957
0.0436819
0.0436666
0.0436572
0.043643
0.0436352
0.0436304
0.0436252
0.0436202
0.0436238
0.0436395
0.0436597
0.0436838
0.0437157
0.0437538
0.0437864
0.0438182
0.0438628
0.043912
0.0439509
0.0439765
0.0439989
0.0440283
0.0440666
0.0441043
0.0441075
0.0440977
0.0440679
0.0440154
0.0439749
0.0439664
0.0439474
0.0438764
0.0438503
0.0438517
0.0438732
0.0438957
0.0438963
0.0438676
0.0438851
0.0439736
0.0442929
0.0447844
0.0452831
0.0456463
0.0457677
0.0460496
0.0462618
0.04635
0.0465514
0.0471988
0.0482746
0.0493977
0.0506373
0.0517809
0.0525919
0.05333
0.0539691
0.0550427
0.0565417
0.0583083
0.0589649
0.132279
0.330337
0.611802
0.804444
0.876232
0.948604
0.935535
0.943424
0.941877
0.944124
0.954598
0.961294
0.965877
0.967591
0.971884
0.978186
0.984163
0.988043
0.990978
0.995834
1.0025
1.00789
1.01119
1.01426
1.01973
1.02143
1.02196
0.0435548
0.0435604
0.0435669
0.0435749
0.043583
0.0435894
0.0435957
0.043604
0.0436138
0.0436261
0.0436366
0.0436418
0.0436439
0.0436458
0.043649
0.0436564
0.0436706
0.0436879
0.0437073
0.0437293
0.0437685
0.043829
0.0438776
0.0439232
0.0439775
0.0440017
0.0440117
0.0440273
0.044047
0.0440673
0.0440933
0.0440971
0.0441033
0.0441217
0.0441556
0.0441893
0.0441855
0.0441602
0.0441111
0.0440611
0.0440557
0.0440528
0.043995
0.0439038
0.0439088
0.0439609
0.0440811
0.0442647
0.0444997
0.0447576
0.0450328
0.0453112
0.0456557
0.0460087
0.0464317
0.0470245
0.0471391
0.0471281
0.0474157
0.0480716
0.0488931
0.0499752
0.0512242
0.0527084
0.0537322
0.0545447
0.0553486
0.0560288
0.0572788
0.058786
0.0602636
0.0615709
0.0626641
0.0632989
0.0638262
0.126165
0.313427
0.600503
0.808009
0.879823
0.953332
0.950778
0.957613
0.95668
0.955819
0.964061
0.971715
0.977461
0.979477
0.983199
0.98882
0.995566
1.00136
1.00474
1.00715
1.0093
1.0109
1.01647
1.02328
1.02915
0.0435634
0.0435802
0.0435983
0.0436218
0.043648
0.043676
0.0437127
0.0437537
0.0437933
0.0438329
0.0438748
0.0439242
0.0439728
0.0440183
0.0440678
0.0441086
0.0441213
0.0441349
0.0441583
0.0441644
0.0441789
0.0442004
0.0442149
0.0442259
0.0442242
0.0442126
0.0442031
0.0442023
0.0442014
0.0442007
0.0442141
0.0442203
0.0442231
0.0442384
0.0442695
0.0442688
0.0442463
0.0441925
0.0441343
0.0441293
0.0441421
0.044153
0.0441832
0.044206
0.0442568
0.0443998
0.0446614
0.0451038
0.0457
0.0462971
0.0468339
0.0473242
0.047706
0.0479226
0.0480583
0.0485727
0.0490584
0.0493871
0.049872
0.0507998
0.0523085
0.0536902
0.0549109
0.0558917
0.0566521
0.057442
0.0582806
0.0593471
0.0605487
0.0621578
0.0632846
0.0642365
0.0655827
0.0670083
0.0683281
0.0693875
0.0702957
0.124511
0.300839
0.586185
0.810887
0.88544
0.965174
0.971693
0.971103
0.96549
0.965433
0.974537
0.98463
0.990648
0.993091
0.995363
0.998808
1.00399
1.01016
1.01514
1.01754
1.02012
1.02412
1.02931
0.0440445
0.0440929
0.0441455
0.0441943
0.0442358
0.0442781
0.0443216
0.0443632
0.044396
0.0444199
0.0444465
0.0444763
0.0445175
0.0445285
0.0445281
0.0445258
0.0445143
0.0444958
0.0444787
0.0444508
0.0444264
0.0444209
0.0444139
0.0443956
0.0443599
0.0443364
0.0443262
0.0443254
0.0443265
0.044303
0.0442969
0.044302
0.0442992
0.0443129
0.0443224
0.0443081
0.0443072
0.0443237
0.0443566
0.0444519
0.0446487
0.0449437
0.0453395
0.0458347
0.0463641
0.0468848
0.0473599
0.0478034
0.0481674
0.0484977
0.0488561
0.0492945
0.0497368
0.049911
0.05013
0.0505969
0.0516198
0.0530443
0.0542715
0.055533
0.0566065
0.0576441
0.0584885
0.0590199
0.0596711
0.0603733
0.0615893
0.0629873
0.0642697
0.0658522
0.0671872
0.0682712
0.0691605
0.0701475
0.0715519
0.073343
0.0753149
0.0760412
0.0764364
0.124346
0.296745
0.582383
0.822601
0.894696
0.971269
0.981184
0.98186
0.97649
0.978272
0.987143
0.996433
1.00119
1.0024
1.00537
1.01034
1.01584
1.01922
1.02098
1.02355
1.02902
0.0448368
0.0448317
0.0448293
0.0448214
0.044793
0.044779
0.0447842
0.0447893
0.0447778
0.0447302
0.0447136
0.0447219
0.0447222
0.0447034
0.0446758
0.044642
0.0446372
0.04463
0.0446137
0.0445872
0.04455
0.044517
0.0444866
0.0444361
0.0444242
0.0444236
0.0444086
0.0444109
0.0444612
0.0445069
0.0445423
0.0446202
0.0447795
0.0449925
0.0452083
0.0454402
0.0457221
0.0460675
0.0464989
0.0469929
0.0474881
0.0479553
0.0484283
0.0489019
0.049356
0.0497835
0.0501378
0.0503785
0.0505139
0.0507264
0.0510696
0.0515971
0.0523829
0.0531835
0.0541289
0.055196
0.0565798
0.0579289
0.059149
0.0600259
0.0605862
0.0610971
0.0615078
0.0621292
0.0629763
0.0642502
0.0656919
0.0674843
0.0687973
0.0695476
0.0705526
0.0713628
0.0722119
0.0735641
0.0755008
0.0776439
0.0789111
0.0797155
0.0806983
0.0820916
0.0833458
0.128332
0.297956
0.581194
0.832625
0.903649
0.981596
0.99381
0.993875
0.988148
0.989664
0.998765
1.00689
1.01065
1.01155
1.01416
1.01896
1.02482
1.02729
1.03027
0.0446712
0.0446172
0.0445897
0.044583
0.044581
0.044588
0.0446125
0.0446146
0.0445892
0.0445596
0.0445572
0.0445685
0.0445959
0.0446044
0.0446134
0.0446365
0.0446859
0.0447351
0.0447925
0.0448789
0.0449238
0.0449729
0.0450581
0.0452039
0.0454036
0.0456231
0.045858
0.0461212
0.0464192
0.046755
0.0471172
0.047495
0.0478827
0.0482647
0.0486373
0.0490302
0.0494235
0.0498028
0.0502006
0.0505396
0.0508111
0.0510808
0.0513975
0.0517067
0.0520097
0.0523506
0.0527406
0.0532294
0.0537936
0.0544788
0.0552818
0.0563711
0.0575379
0.0588651
0.0600177
0.0608946
0.061519
0.0620856
0.0626163
0.0630126
0.0634764
0.0639516
0.0648555
0.0660516
0.0676568
0.0694002
0.0706401
0.0718768
0.0728032
0.0731462
0.0737274
0.0747969
0.0767125
0.0790071
0.0804793
0.0813451
0.0819292
0.0829382
0.0848151
0.0870612
0.0892477
0.0901031
0.0906096
0.134254
0.306679
0.594073
0.850468
0.918452
0.994176
1.00353
1.00344
0.998578
1.00028
1.00844
1.01659
1.02018
1.02114
1.02378
1.02667
1.03119
0.0454749
0.0455246
0.0456108
0.0457418
0.0458791
0.0459941
0.0460925
0.0462033
0.0463401
0.0464843
0.0466224
0.0467632
0.0469362
0.0471422
0.0473419
0.0475245
0.0477198
0.0479562
0.0482163
0.0484714
0.0487211
0.0489824
0.0492544
0.0495233
0.0497844
0.0500437
0.0503192
0.0505878
0.050838
0.0510739
0.0512993
0.0515523
0.0518161
0.0520807
0.0523589
0.0526399
0.0529231
0.0532186
0.0535207
0.0538076
0.0541643
0.054587
0.0550416
0.0555299
0.0561351
0.0568779
0.0578031
0.0587779
0.0597541
0.0606594
0.0615473
0.0623492
0.0629163
0.0635634
0.0642219
0.0645749
0.064732
0.065089
0.0655793
0.0663951
0.0674068
0.0687872
0.0702662
0.0719002
0.073143
0.0741982
0.0749122
0.0753251
0.0760697
0.077005
0.0783018
0.0800535
0.0816868
0.0835328
0.0845066
0.0848471
0.0858093
0.0876735
0.0906428
0.0921346
0.0929534
0.0944883
0.0962948
0.0972333
0.0981357
0.146106
0.326442
0.616317
0.872781
0.932607
1.00532
1.01239
1.01317
1.00862
1.01094
1.017
1.02421
1.02776
1.02888
1.03265
0.0502799
0.0503505
0.0504298
0.0505117
0.0505995
0.0506993
0.0508022
0.050907
0.0510165
0.0511234
0.051228
0.0513404
0.0514614
0.0515893
0.0517281
0.0518724
0.0520239
0.0521824
0.0523489
0.0525249
0.0527137
0.0529152
0.0531236
0.0533338
0.0535509
0.053772
0.053995
0.0542218
0.054466
0.0547341
0.0550423
0.0553677
0.0557036
0.0560842
0.0564935
0.0569428
0.0574529
0.0579855
0.0585633
0.0592417
0.0599474
0.0606114
0.0612482
0.0619392
0.0626122
0.0632615
0.0638761
0.0644201
0.0649595
0.0655074
0.0660368
0.066308
0.0665279
0.0668539
0.0676447
0.0682718
0.0688945
0.0696457
0.0708916
0.0722954
0.0737985
0.0751495
0.0760663
0.0769746
0.077557
0.0779776
0.078408
0.0789312
0.0800622
0.0819565
0.0840172
0.086067
0.0869847
0.0875509
0.088629
0.090292
0.0918086
0.0933138
0.0952295
0.0966418
0.0975733
0.098964
0.100957
0.102637
0.104687
0.106457
0.107355
0.161269
0.355161
0.648586
0.897868
0.949436
1.01723
1.02175
1.02247
1.01676
1.02161
1.02659
1.0304
1.03444
0.0546217
0.0547067
0.0548136
0.0549304
0.0550536
0.0551762
0.0552982
0.0554268
0.0555737
0.0557414
0.0559108
0.0560788
0.0562535
0.0564449
0.0566492
0.056873
0.0571207
0.0573821
0.0576486
0.0579182
0.0582062
0.058518
0.0588384
0.0591735
0.0595245
0.0598851
0.0602661
0.0606462
0.0610267
0.0614168
0.0617973
0.0621813
0.0625862
0.0629945
0.0634064
0.0638374
0.0642806
0.0647018
0.0651471
0.0655815
0.0659694
0.0663485
0.066751
0.067149
0.0674953
0.0678386
0.0681456
0.0684662
0.0688526
0.0693552
0.0699415
0.0705611
0.0711217
0.0718862
0.0728484
0.0742066
0.0755356
0.0767104
0.0776682
0.0785175
0.0792064
0.0798371
0.0802894
0.080712
0.0814578
0.0823543
0.0835485
0.0850109
0.0867361
0.0886942
0.0898968
0.0911027
0.0919263
0.0922983
0.0932438
0.0949894
0.0973776
0.0990244
0.0998297
0.101692
0.103634
0.104648
0.10588
0.108007
0.11024
0.112088
0.113936
0.115092
0.115955
0.182973
0.39882
0.694201
0.925265
0.968587
1.02888
1.02758
1.03103
1.02556
1.02967
1.03623
0.0614922
0.0615976
0.0617167
0.0618434
0.0619759
0.0621175
0.0622603
0.0624122
0.0625631
0.0627107
0.0628779
0.0630688
0.0632529
0.063424
0.0636031
0.0637875
0.063978
0.0641843
0.0643899
0.0645891
0.0647898
0.0649963
0.0652121
0.0654279
0.0656565
0.0659045
0.0661548
0.0664084
0.0666611
0.0669154
0.0671719
0.0674364
0.0676949
0.0679594
0.0682339
0.0685136
0.0687926
0.0690873
0.0694106
0.0697182
0.0700702
0.0704855
0.0709208
0.071399
0.0719541
0.0725357
0.073208
0.0739198
0.0746932
0.07553
0.0764775
0.0774709
0.0785384
0.0794623
0.0802214
0.0808914
0.0816149
0.0822636
0.0827946
0.0833174
0.083647
0.0840934
0.0848353
0.0858569
0.0872433
0.0889556
0.0908266
0.0925661
0.0935059
0.0944547
0.0951008
0.0955761
0.0965881
0.0982329
0.0999072
0.101421
0.10335
0.105414
0.106363
0.107035
0.108667
0.110317
0.111919
0.114551
0.116615
0.117704
0.119412
0.121621
0.123738
0.124953
0.125817
0.212367
0.453602
0.750947
0.951801
0.989469
1.04205
1.03057
1.03492
1.03494
0.0673915
0.0674665
0.0675749
0.067702
0.0678302
0.0679465
0.068055
0.0681672
0.0682984
0.0684414
0.0685843
0.0687176
0.0688534
0.0690024
0.0691589
0.0693182
0.0694809
0.0696417
0.0698026
0.0699678
0.0701431
0.0703397
0.0705485
0.0707689
0.0710087
0.0712663
0.071548
0.0718487
0.0721746
0.0725331
0.0729144
0.0733164
0.0737316
0.0741598
0.0745964
0.0750426
0.0755088
0.0759953
0.0764919
0.0770385
0.0776174
0.0782167
0.0788154
0.0794486
0.0800992
0.0807507
0.0813758
0.0820099
0.0826172
0.0831626
0.0836329
0.084069
0.0847313
0.0853183
0.0856832
0.0859517
0.0864316
0.0869939
0.0876925
0.0885717
0.0897088
0.0909819
0.0924768
0.0939645
0.0954522
0.0966146
0.0974534
0.0986494
0.0992701
0.0996747
0.100504
0.101693
0.103461
0.105352
0.107443
0.109165
0.109712
0.110928
0.11222
0.1132
0.114732
0.117195
0.120123
0.121851
0.123062
0.124335
0.126011
0.12802
0.129951
0.13167
0.13388
0.134837
0.140689
0.253632
0.520942
0.818566
0.976062
1.0064
1.05079
1.04072
0.0747034
0.0748086
0.0749312
0.0750538
0.0751644
0.0752727
0.0754032
0.0755596
0.0757226
0.0758824
0.0760397
0.0762023
0.0763777
0.0765587
0.0767456
0.0769431
0.0771602
0.0773909
0.077629
0.0778686
0.0781153
0.0783697
0.0786347
0.0789119
0.0791884
0.0794631
0.0797405
0.0800313
0.080332
0.0806327
0.0809469
0.081269
0.0816052
0.0819489
0.0823051
0.0826701
0.0830415
0.0834267
0.0838241
0.0842301
0.0846301
0.0850259
0.085422
0.0857983
0.0861675
0.0865584
0.0869525
0.0874244
0.0879304
0.0883433
0.0887211
0.089202
0.0898727
0.090876
0.0916998
0.092507
0.0934848
0.0947828
0.0960968
0.0973938
0.098652
0.0998385
0.100962
0.101879
0.10268
0.103177
0.103474
0.104051
0.105284
0.106658
0.108003
0.10972
0.11172
0.113472
0.114623
0.115818
0.116758
0.117543
0.11921
0.121677
0.12352
0.125354
0.127121
0.12787
0.129101
0.13112
0.133065
0.134775
0.136616
0.138642
0.14061
0.142592
0.144257
0.145094
0.161629
0.309823
0.602053
0.885149
0.994586
1.03269
0.0824707
0.0825587
0.0826688
0.0827919
0.0829069
0.0830195
0.0831393
0.0832658
0.0834087
0.0835654
0.0837128
0.0838531
0.0840032
0.0841663
0.0843395
0.084527
0.0847137
0.0849007
0.0850944
0.0853009
0.0855146
0.0857286
0.085944
0.0861633
0.0863863
0.086614
0.0868485
0.087089
0.0873362
0.0875988
0.0878789
0.0881747
0.0884852
0.0888124
0.0891511
0.0894978
0.0898534
0.0902216
0.0906028
0.0910095
0.0914576
0.0919585
0.0925242
0.0931316
0.0937717
0.0944409
0.095108
0.0958068
0.096589
0.0974892
0.0984683
0.0994402
0.100274
0.101011
0.101924
0.102966
0.103857
0.104582
0.105282
0.105889
0.106439
0.106979
0.107481
0.108185
0.108865
0.109698
0.110848
0.11206
0.113824
0.115811
0.117868
0.11942
0.120199
0.121345
0.12206
0.122909
0.124409
0.125999
0.127763
0.129504
0.131415
0.132883
0.13374
0.135321
0.137336
0.139365
0.141165
0.142713
0.14431
0.145948
0.147526
0.149172
0.150795
0.152661
0.153824
0.154611
0.190231
0.393156
0.698648
0.972952
0.091505
0.0915961
0.0917043
0.0918215
0.0919481
0.0920766
0.0922042
0.0923462
0.0924923