/*--------------------------------*- C++ -*----------------------------------*\
  =========                 |
  \\      /  F ield         | OpenFOAM: The Open Source CFD Toolbox
   \\    /   O peration     | Website:  https://openfoam.org
    \\  /    A nd           | Version:  7
     \\/     M anipulation  |
\*---------------------------------------------------------------------------*/
FoamFile
{
    version     2.0;
    format      ascii;
    class       volScalarField;
    location    "12";
    object      T;
}
// * * * * * * * * * * * * * * * * * * * * * * * * * * * * * * * * * * * * * //

dimensions      [0 0 0 1 0 0 0];

internalField   nonuniform List<scalar> 
90000
(
0.732568
0.959765
1.08647
1.11348
1.16258
1.21769
1.23082
1.25229
1.29293
1.32215
1.35151
1.3818
1.40394
1.42391
1.44428
1.45571
1.46883
1.47189
1.46974
1.46351
1.45291
1.44243
1.43008
1.41549
1.40496
1.39621
1.39027
1.38674
1.38041
1.37252
1.36515
1.35659
1.34574
1.3333
1.32169
1.31138
1.30338
1.29489
1.28522
1.27546
1.26673
1.25895
1.25148
1.24381
1.23607
1.22904
1.22317
1.21827
1.21457
1.2113
1.20801
1.20465
1.20111
1.19591
1.18932
1.18188
1.17423
1.16777
1.16248
1.15971
1.15795
1.15657
1.15621
1.15586
1.15562
1.15496
1.15363
1.15117
1.14847
1.14679
1.14723
1.1485
1.14953
1.14987
1.14976
1.14863
1.14795
1.14877
1.15041
1.15161
1.1522
1.15324
1.15598
1.16012
1.16348
1.16567
1.168
1.17137
1.17489
1.17725
1.17949
1.18198
1.18456
1.18698
1.18915
1.19121
1.19326
1.19512
1.19666
1.19938
0.42454
0.424279
0.423996
0.423696
0.423389
0.423064
0.422748
0.42224
0.431811
0.461358
0.513479
0.60331
0.71099
0.837215
0.966305
1.09943
1.21316
1.32127
1.40307
1.47412
1.52697
1.57564
1.61024
1.63411
1.64756
1.64642
1.63754
1.62346
1.60299
1.58404
1.56779
1.55477
1.54298
1.53178
1.51917
1.50494
1.48989
1.47346
1.45837
1.44699
1.44112
1.43487
1.42656
1.4158
1.40362
1.39067
1.37645
1.3613
1.34555
1.32934
1.31192
1.29624
1.28122
1.26771
1.25585
1.24567
1.23618
1.22686
1.21811
1.2105
1.20394
1.19792
1.19076
1.18329
1.1754
1.16916
1.16381
1.1599
1.15693
1.15512
1.15527
1.15529
1.15469
1.15306
1.15038
1.1482
1.1487
1.1504
1.15184
1.15227
1.15278
1.15439
1.15798
1.16203
1.16433
1.16624
1.16907
1.17282
1.1755
1.17783
1.18022
1.18291
1.1854
1.18753
1.18969
1.19179
1.19378
1.19566
1.1973
1.20006
0.422552
0.422292
0.42201
0.421712
0.421399
0.421071
0.420724
0.420378
0.419962
0.419441
0.4189
0.418374
0.417875
0.417412
0.416952
0.416551
0.415953
0.418585
0.448725
0.533643
0.680227
0.848234
1.04239
1.20193
1.34332
1.44316
1.52486
1.58213
1.63079
1.67132
1.70489
1.72252
1.73036
1.72264
1.70713
1.68966
1.66749
1.64963
1.63073
1.61465
1.59779
1.58204
1.57244
1.56774
1.56494
1.55964
1.54947
1.5348
1.51726
1.49618
1.47319
1.45101
1.43237
1.41643
1.40168
1.38668
1.36997
1.35121
1.3315
1.31181
1.29371
1.27689
1.26133
1.24624
1.2323
1.22025
1.20965
1.20078
1.19308
1.18643
1.18004
1.17227
1.16532
1.16041
1.15704
1.15536
1.15572
1.15592
1.15564
1.15475
1.15516
1.15794
1.16167
1.16405
1.16552
1.16748
1.17093
1.1743
1.17612
1.17821
1.18068
1.18345
1.18577
1.18784
1.19012
1.19221
1.19412
1.19609
1.1978
1.20052
0.41953
0.419252
0.418958
0.418654
0.418345
0.418034
0.41771
0.417388
0.417057
0.416728
0.416406
0.416094
0.415792
0.415492
0.415193
0.414903
0.414629
0.414339
0.414019
0.413716
0.413445
0.413193
0.412993
0.412704
0.414207
0.449869
0.567857
0.743127
0.95627
1.14747
1.31031
1.43957
1.54241
1.62608
1.68636
1.73513
1.75848
1.76874
1.75697
1.73801
1.72318
1.70584
1.69511
1.68459
1.67433
1.66643
1.66531
1.66664
1.66505
1.65762
1.64288
1.62237
1.60103
1.58192
1.56609
1.5494
1.52849
1.50431
1.47891
1.45483
1.43315
1.41238
1.3914
1.36965
1.34725
1.32519
1.30434
1.28437
1.26484
1.24645
1.22942
1.21518
1.204
1.19529
1.1881
1.18254
1.17662
1.16921
1.16334
1.16213
1.16395
1.16695
1.16857
1.16851
1.16883
1.17081
1.17448
1.17641
1.1776
1.17958
1.18207
1.18454
1.18641
1.18832
1.19055
1.19245
1.19425
1.19633
1.19818
1.20061
0.416597
0.416375
0.416148
0.415919
0.415694
0.415467
0.415241
0.415016
0.41479
0.414568
0.414355
0.414146
0.413943
0.413742
0.413546
0.41336
0.413179
0.413009
0.41285
0.412698
0.41255
0.412414
0.412272
0.41214
0.411997
0.41183
0.411663
0.411507
0.411343
0.411194
0.410964
0.456797
0.583209
0.822297
1.06976
1.29427
1.46259
1.59536
1.68808
1.73903
1.7841
1.78201
1.77874
1.76402
1.7475
1.73634
1.72682
1.72212
1.72416
1.73056
1.73687
1.7347
1.72658
1.70803
1.6887
1.6703
1.65661
1.64487
1.63154
1.61415
1.59284
1.56981
1.54703
1.52383
1.49841
1.47113
1.44312
1.41651
1.38985
1.36343
1.33843
1.31531
1.2937
1.27306
1.25254
1.23344
1.21641
1.20414
1.19556
1.19167
1.19012
1.18771
1.18269
1.17744
1.17787
1.18047
1.1822
1.18165
1.18179
1.18324
1.18535
1.18686
1.1882
1.18993
1.19174
1.19328
1.19495
1.19696
1.19868
1.2008
0.414344
0.414208
0.41407
0.413934
0.413798
0.413662
0.413526
0.413393
0.41326
0.413125
0.412995
0.412866
0.412739
0.412613
0.412492
0.412376
0.412262
0.412151
0.412043
0.411929
0.411817
0.411708
0.411596
0.411484
0.411374
0.411269
0.411164
0.411046
0.410917
0.410779
0.41064
0.410457
0.410272
0.410091
0.409931
0.409743
0.472376
0.658282
0.981036
1.25073
1.46164
1.59404
1.69274
1.75099
1.77673
1.77582
1.76578
1.757
1.75441
1.75622
1.76331
1.77361
1.7771
1.77303
1.76025
1.74535
1.73256
1.72359
1.72136
1.71684
1.7073
1.69224
1.67224
1.65326
1.63653
1.61732
1.59411
1.56645
1.54032
1.51296
1.48311
1.45233
1.42126
1.39022
1.36047
1.33394
1.31069
1.29066
1.27247
1.25529
1.23758
1.2223
1.21428
1.20799
1.2059
1.20318
1.19687
1.19182
1.19221
1.19354
1.19343
1.19279
1.19322
1.19408
1.19486
1.19564
1.19692
1.19864
1.19992
1.20139
0.412952
0.412871
0.41279
0.412708
0.412624
0.412543
0.41246
0.412379
0.412298
0.412214
0.412129
0.412043
0.411954
0.411864
0.411774
0.411685
0.411592
0.411502
0.41141
0.411313
0.411214
0.411113
0.411011
0.410907
0.410809
0.410714
0.410612
0.410501
0.410384
0.41026
0.410135
0.410019
0.409904
0.409782
0.409659
0.409567
0.4095
0.409456
0.409421
0.409371
0.462076
0.700344
0.995978
1.29626
1.48773
1.62584
1.70882
1.75126
1.76526
1.772
1.7734
1.77406
1.77924
1.77737
1.77608
1.77292
1.76716
1.76213
1.75885
1.75537
1.75565
1.75434
1.74844
1.73722
1.72205
1.70963
1.69904
1.68511
1.66518
1.64548
1.62386
1.59784
1.56866
1.53854
1.5075
1.47742
1.44695
1.41639
1.38623
1.35862
1.33361
1.3118
1.29397
1.27809
1.26192
1.24429
1.23349
1.22673
1.2227
1.21665
1.20925
1.20667
1.20536
1.20394
1.20259
1.20224
1.20252
1.20317
1.20343
1.20354
0.412042
0.411992
0.411942
0.41189
0.411834
0.411778
0.41172
0.411661
0.411602
0.411537
0.411469
0.411399
0.411324
0.411249
0.411171
0.411086
0.410998
0.410911
0.410823
0.410733
0.410641
0.410551
0.410461
0.410375
0.410293
0.410216
0.410135
0.410049
0.409957
0.409865
0.40978
0.409701
0.409614
0.409522
0.40944
0.4094
0.409388
0.409377
0.409356
0.409334
0.409293
0.409259
0.409205
0.409158
0.525714
0.793361
1.13816
1.37807
1.53526
1.64007
1.70685
1.73078
1.75811
1.76763
1.77853
1.78275
1.77945
1.77638
1.77165
1.76729
1.76435
1.76493
1.76512
1.76381
1.76055
1.75442
1.74727
1.74358
1.73789
1.72692
1.71492
1.70098
1.68231
1.66065
1.63973
1.61662
1.59147
1.5632
1.53319
1.50296
1.47283
1.44254
1.41208
1.38393
1.3582
1.33604
1.31618
1.2979
1.27853
1.26401
1.2538
1.24569
1.23753
1.22952
1.22355
1.21939
1.21547
1.21275
1.21066
1.20944
0.411369
0.411333
0.411293
0.411248
0.411205
0.411159
0.411112
0.411068
0.411017
0.410957
0.410892
0.410829
0.410761
0.410688
0.410611
0.410527
0.410445
0.410366
0.41029
0.410216
0.41014
0.410065
0.409995
0.409931
0.409873
0.409819
0.409764
0.409703
0.409641
0.409581
0.409526
0.409474
0.409418
0.409358
0.409322
0.409325
0.409323
0.409314
0.409302
0.409273
0.409229
0.409195
0.409154
0.409089
0.409033
0.408994
0.408969
0.438704
0.657196
0.976915
1.25731
1.44886
1.59973
1.69612
1.74635
1.76699
1.77357
1.77744
1.77199
1.76458
1.76231
1.76435
1.76726
1.77041
1.76903
1.76662
1.76284
1.75999
1.76081
1.75872
1.75309
1.74708
1.74151
1.73401
1.72405
1.71268
1.69748
1.68085
1.66112
1.6393
1.61408
1.58527
1.55607
1.52649
1.49736
1.46769
1.43638
1.40723
1.38213
1.3599
1.338
1.31608
1.29729
1.28253
1.2701
1.25868
1.24932
1.24122
1.23463
1.22858
0.410831
0.410797
0.410758
0.410716
0.410673
0.410628
0.410582
0.410537
0.410488
0.410435
0.410381
0.410323
0.41026
0.410205
0.410143
0.410063
0.409981
0.409906
0.409847
0.409796
0.409743
0.409689
0.40964
0.409601
0.409567
0.409537
0.409507
0.409473
0.409436
0.4094
0.409366
0.409337
0.409302
0.409269
0.409268
0.409272
0.409269
0.409265
0.409251
0.409194
0.409119
0.409082
0.409054
0.409032
0.409019
0.408988
0.408987
0.409002
0.409068
0.409218
0.409725
0.576306
0.880545
1.20926
1.43022
1.60613
1.69786
1.73933
1.75773
1.75745
1.75933
1.76116
1.7639
1.76718
1.76849
1.76822
1.76608
1.76482
1.76473
1.76431
1.76341
1.76173
1.75992
1.7624
1.76184
1.7594
1.75528
1.74831
1.73949
1.72763
1.71572
1.70083
1.68151
1.6596
1.63399
1.60601
1.57729
1.54765
1.51814
1.48839
1.45786
1.43047
1.40469
1.37989
1.35642
1.3353
1.31636
1.29858
1.2857
1.26731
0.410339
0.41031
0.41028
0.410246
0.410211
0.410173
0.410134
0.41009
0.410043
0.41
0.409957
0.409903
0.409851
0.409807
0.409748
0.409671
0.409604
0.409545
0.409504
0.409477
0.409444
0.409409
0.409383
0.409367
0.409354
0.409352
0.409352
0.409346
0.40933
0.409309
0.40929
0.409272
0.409247
0.40923
0.409228
0.409226
0.409217
0.409199
0.409162
0.409068
0.408998
0.409
0.409008
0.40902
0.409023
0.409051
0.409125
0.409194
0.409316
0.409573
0.409637
0.409627
0.409575
0.409452
0.53672
0.906846
1.26263
1.48393
1.66168
1.7175
1.74067
1.74852
1.75714
1.76065
1.76304
1.76438
1.76566
1.76607
1.76459
1.76345
1.76343
1.76393
1.76613
1.76904
1.77168
1.77316
1.77384
1.77538
1.77498
1.77312
1.76922
1.76317
1.75517
1.74428
1.73183
1.71628
1.69682
1.67643
1.65135
1.62381
1.5962
1.56624
1.53617
1.50658
1.47697
1.44779
1.42128
1.39609
1.37506
1.34146
0.409902
0.409876
0.409849
0.409818
0.409787
0.409757
0.409724
0.409681
0.409642
0.409611
0.409584
0.409546
0.409509
0.409477
0.409434
0.409375
0.409327
0.40929
0.409273
0.409269
0.409262
0.409248
0.409246
0.40925
0.409261
0.40928
0.409302
0.409303
0.409296
0.409283
0.409269
0.40925
0.40923
0.409209
0.409191
0.409159
0.409122
0.409094
0.40905
0.40898
0.408963
0.408971
0.409001
0.409056
0.409142
0.409286
0.409377
0.409419
0.409497
0.40965
0.409686
0.409671
0.409576
0.409356
0.409222
0.409027
0.413599
0.620614
1.05128
1.38454
1.59237
1.68401
1.73133
1.73774
1.74891
1.75724
1.76384
1.76309
1.76144
1.75984
1.76143
1.76514
1.76923
1.77234
1.77519
1.77755
1.7798
1.78191
1.78439
1.78619
1.78866
1.78856
1.78781
1.78585
1.78209
1.77651
1.76856
1.75663
1.74594
1.73055
1.71152
1.69063
1.66549
1.63856
1.61244
1.58438
1.55391
1.52243
1.49605
1.45151
0.409529
0.409511
0.409493
0.409475
0.409456
0.409428
0.409398
0.409376
0.409359
0.409346
0.409335
0.409318
0.409293
0.409278
0.40926
0.409231
0.409205
0.40919
0.40919
0.409198
0.409208
0.409212
0.409218
0.409235
0.409255
0.409276
0.409295
0.409302
0.409301
0.409292
0.409277
0.409246
0.409192
0.409138
0.409086
0.409038
0.409023
0.409014
0.408993
0.408967
0.408962
0.408978
0.409065
0.409214
0.409404
0.409539
0.409553
0.409544
0.409555
0.409627
0.409629
0.409613
0.409433
0.409147
0.409005
0.40887
0.40871
0.408668
0.408673
0.491637
0.842171
1.23304
1.51046
1.65477
1.73308
1.74315
1.75483
1.75649
1.7517
1.75399
1.76038
1.76539
1.76832
1.77014
1.77278
1.77614
1.77998
1.78417
1.78777
1.79022
1.79172
1.79437
1.79703
1.79869
1.79981
1.80048
1.8012
1.79907
1.79348
1.78798
1.77998
1.76883
1.75752
1.74081
1.72018
1.6999
1.67864
1.65094
1.62443
1.57905
0.409331
0.409319
0.409306
0.409289
0.40927
0.409255
0.409252
0.409253
0.409255
0.409256
0.409254
0.409248
0.40924
0.409233
0.409228
0.40922
0.409207
0.409196
0.409197
0.40921
0.409229
0.409244
0.409262
0.409287
0.409302
0.409311
0.409318
0.409316
0.409308
0.409281
0.409221
0.409133
0.409051
0.408998
0.408963
0.408962
0.408975
0.408986
0.408987
0.408999
0.409028
0.409109
0.409279
0.409477
0.409622
0.409633
0.409617
0.409573
0.409543
0.409482
0.409422
0.40936
0.40915
0.408906
0.408828
0.408772
0.408685
0.408664
0.408709
0.408862
0.409336
0.40984
0.656112
1.1166
1.44232
1.60807
1.71743
1.72495
1.73913
1.75156
1.7614
1.76268
1.76505
1.7668
1.76944
1.77381
1.77847
1.78201
1.78531
1.7883
1.79222
1.79656
1.79998
1.80235
1.8032
1.80528
1.80818
1.81206
1.81142
1.80995
1.80913
1.8063
1.80144
1.79756
1.78968
1.77588
1.762
1.74986
1.7324
1.69576
0.40923
0.409228
0.409223
0.409222
0.409222
0.409224
0.409232
0.409242
0.409248
0.409253
0.40926
0.409268
0.409278
0.409282
0.40928
0.409275
0.409258
0.409232
0.409228
0.409232
0.409247
0.409267
0.409285
0.4093
0.409299
0.409288
0.409251
0.409208
0.409166
0.409109
0.409043
0.408992
0.408952
0.40893
0.408929
0.40894
0.408972
0.40902
0.409103
0.409201
0.409279
0.409375
0.409527
0.409654
0.409662
0.409652
0.409623
0.409536
0.409341
0.409226
0.40917
0.40911
0.408954
0.408762
0.408741
0.40875
0.408734
0.408782
0.409032
0.409584
0.410259
0.410912
0.411166
0.410942
0.544158
0.988608
1.36802
1.58369
1.7128
1.73382
1.75197
1.75194
1.75764
1.75962
1.76423
1.76828
1.77225
1.77552
1.77899
1.78346
1.78787
1.79214
1.79602
1.79931
1.80289
1.80665
1.81023
1.81161
1.81331
1.81444
1.81579
1.81691
1.81684
1.81639
1.81641
1.81422
1.80551
1.79464
1.79133
1.77541
0.409247
0.409265
0.409282
0.409294
0.409299
0.409305
0.409317
0.409332
0.409338
0.409342
0.409342
0.40934
0.409336
0.409329
0.409322
0.409311
0.409278
0.409233
0.409223
0.409221
0.409228
0.409231
0.409222
0.409191
0.409157
0.409112
0.409047
0.409012
0.408985
0.408953
0.408944
0.408927
0.408926
0.408932
0.408939
0.408997
0.409125
0.409256
0.409417
0.409513
0.409532
0.409554
0.409622
0.409645
0.409627
0.409586
0.409527
0.409359
0.409058
0.408949
0.408943
0.408932
0.408875
0.40875
0.408737
0.408813
0.409109
0.409574
0.410147
0.410961
0.411311
0.411288
0.411424
0.411529
0.411712
0.412038
0.476195
0.915292
1.32585
1.54651
1.6786
1.70698
1.73749
1.74039
1.74876
1.75064
1.75528
1.75993
1.76458
1.77055
1.77496
1.7801
1.7852
1.79028
1.79515
1.79941
1.80358
1.80733
1.8115
1.81429
1.81634
1.81848
1.81903
1.81989
1.82021
1.82082
1.82156
1.81771
1.81384
1.80914
0.409404
0.409412
0.409422
0.409423
0.409422
0.409417
0.409417
0.409416
0.409414
0.409406
0.409391
0.409373
0.409353
0.409323
0.409291
0.409257
0.409207
0.409149
0.409089
0.409034
0.409023
0.409019
0.408998
0.408959
0.408928
0.408904
0.408884
0.408884
0.408887
0.4089
0.408917
0.408946
0.409019
0.409084
0.40915
0.409291
0.409462
0.409577
0.409662
0.409656
0.409624
0.409592
0.409561
0.409491
0.409409
0.409358
0.409308
0.409189
0.408947
0.408814
0.408807
0.408836
0.408852
0.408893
0.408964
0.409297
0.41012
0.411233
0.411819
0.412304
0.412581
0.412278
0.412066
0.41252
0.413581
0.415692
0.417972
0.419657
0.455893
0.847789
1.22737
1.49324
1.63229
1.67424
1.71536
1.71437
1.72179
1.72671
1.73471
1.7421
1.74804
1.75471
1.76023
1.76672
1.77367
1.7808
1.78726
1.79254
1.79784
1.80259
1.80652
1.811
1.81575
1.81841
1.8191
1.82001
1.82114
1.82178
1.82079
1.81851
0.409478
0.409471
0.409463
0.409453
0.409439
0.409423
0.409401
0.409371
0.40934
0.409305
0.409261
0.409214
0.409156
0.409093
0.409033
0.408971
0.408915
0.408868
0.408814
0.408773
0.408773
0.40879
0.408803
0.408801
0.408801
0.40881
0.40883
0.408854
0.408907
0.409004
0.409097
0.409208
0.409325
0.409418
0.409523
0.409647
0.409763
0.409763
0.409736
0.409676
0.409593
0.409524
0.409447
0.409288
0.409211
0.409213
0.409209
0.409137
0.408938
0.408805
0.408798
0.408839
0.409133
0.409809
0.41049
0.411102
0.4119
0.413173
0.413535
0.413489
0.413975
0.414338
0.414703
0.41563
0.418074
0.422006
0.424724
0.42741
0.429056
0.429767
0.440927
0.783939
1.15559
1.42509
1.56757
1.62193
1.67057
1.67318
1.68394
1.6903
1.69893
1.70826
1.71677
1.72664
1.73528
1.74343
1.75085
1.75815
1.76638
1.77553
1.7835
1.79096
1.79714
1.80177
1.80508
1.80893
1.81454
1.81909
1.81981
1.81862
0.409111
0.409077
0.409044
0.40901
0.408979
0.408951
0.408927
0.408908
0.408895
0.408887
0.408879
0.408864
0.408826
0.408786
0.408761
0.408725
0.408705
0.408694
0.408682
0.408669
0.408679
0.408719
0.40877
0.408828
0.408906
0.409002
0.409083
0.409162
0.409273
0.409396
0.409493
0.409558
0.409616
0.409694
0.409798
0.409888
0.409891
0.40986
0.40977
0.40962
0.409499
0.409469
0.409415
0.409228
0.409171
0.409177
0.409233
0.409295
0.409302
0.409255
0.409318
0.40958
0.410459
0.411782
0.413094
0.414041
0.414344
0.415058
0.415578
0.415772
0.416255
0.417892
0.42061
0.423404
0.426417
0.429125
0.431047
0.432734
0.434185
0.436791
0.439034
0.443112
0.444878
0.726793
1.08162
1.35685
1.50304
1.56514
1.62003
1.62588
1.63621
1.6425
1.65277
1.66524
1.6768
1.68701
1.69563
1.70562
1.71636
1.72708
1.73676
1.74597
1.7556
1.76602
1.77532
1.78285
1.78937
1.7966
1.8012
1.80467
0.408464
0.408479
0.408497
0.408519
0.408543
0.408563
0.408583
0.408609
0.408638
0.408672
0.4087
0.408714
0.40872
0.408726
0.408735
0.408756
0.408794
0.40884
0.40889
0.408947
0.40905
0.409207
0.409329
0.409438
0.409572
0.409625
0.409641
0.409674
0.409717
0.409762
0.409824
0.409833
0.409849
0.409901
0.409994
0.410082
0.410072
0.410004
0.40987
0.409728
0.409706
0.409695
0.409535
0.409302
0.409321
0.409473
0.409811
0.410324
0.410976
0.411683
0.412422
0.413159
0.414061
0.414978
0.416043
0.417531
0.417786
0.417735
0.418446
0.420093
0.422131
0.424777
0.427795
0.431324
0.433698
0.435535
0.437356
0.438886
0.441674
0.444979
0.448253
0.451066
0.453352
0.45465
0.455719
0.681962
1.02058
1.29514
1.44471
1.50789
1.56041
1.57435
1.58568
1.59134
1.6012
1.61349
1.62634
1.63827
1.64812
1.65912
1.67128
1.68418
1.69659
1.70769
1.71851
1.72903
1.73871
1.74979
1.76062
1.77401
0.408469
0.408514
0.408564
0.408629
0.408702
0.408782
0.408886
0.409001
0.409109
0.409214
0.409323
0.409453
0.40958
0.409699
0.409829
0.409935
0.409963
0.409995
0.410054
0.410066
0.4101
0.410149
0.410183
0.410196
0.410186
0.410145
0.410107
0.4101
0.410091
0.410085
0.410114
0.410131
0.410142
0.410189
0.410278
0.410278
0.410221
0.410081
0.409928
0.409917
0.409955
0.409996
0.410103
0.410191
0.410352
0.41075
0.411451
0.412618
0.414174
0.41571
0.417062
0.418275
0.419224
0.419746
0.420071
0.421316
0.422527
0.423347
0.424524
0.426775
0.430361
0.433573
0.436368
0.438584
0.440289
0.442025
0.443867
0.446202
0.448785
0.452191
0.454531
0.456447
0.459156
0.461998
0.464596
0.466709
0.468472
0.65133
0.970655
1.23898
1.39206
1.45549
1.50758
1.52606
1.53433
1.53863
1.54825
1.56065
1.57413
1.58637
1.59713
1.60825
1.62019
1.63299
1.64656
1.65992
1.67206
1.68442
1.69611
1.71473
0.409758
0.409882
0.410018
0.410142
0.410248
0.410357
0.410471
0.410579
0.41066
0.410717
0.410781
0.410855
0.410961
0.410984
0.410983
0.410976
0.410946
0.410898
0.410853
0.410782
0.410718
0.410699
0.410677
0.410625
0.410527
0.410454
0.410417
0.410412
0.410414
0.41035
0.410331
0.410345
0.410342
0.410385
0.410414
0.410377
0.410386
0.410444
0.410551
0.410829
0.411372
0.412165
0.413212
0.414505
0.415868
0.417185
0.418372
0.419472
0.420375
0.421192
0.422072
0.423133
0.424202
0.424624
0.425131
0.426225
0.428668
0.432049
0.434907
0.437772
0.440165
0.442453
0.444296
0.445449
0.446865
0.448383
0.450964
0.4539
0.456538
0.459712
0.462371
0.464495
0.466232
0.46815
0.470847
0.474215
0.477813
0.479143
0.479861
0.631652
0.937239
1.19611
1.34972
1.40999
1.45791
1.47756
1.48544
1.48927
1.49844
1.51011
1.52291
1.5341
1.54404
1.55511
1.56744
1.58052
1.59307
1.6055
1.61704
1.63772
0.411764
0.411746
0.411735
0.41171
0.41163
0.411588
0.4116
0.41161
0.411578
0.411452
0.411411
0.411435
0.411437
0.41139
0.411322
0.411238
0.411235
0.411223
0.411186
0.411122
0.41103
0.410945
0.410864
0.41073
0.410699
0.410697
0.410658
0.410666
0.410803
0.410935
0.411038
0.411251
0.411674
0.412234
0.412802
0.413413
0.41415
0.415046
0.416157
0.417422
0.418681
0.419856
0.421034
0.4222
0.423304
0.424332
0.425176
0.425751
0.426071
0.426571
0.427386
0.428641
0.430487
0.432375
0.434549
0.436942
0.440027
0.443018
0.445707
0.447605
0.448811
0.449895
0.450765
0.452074
0.453842
0.456471
0.459389
0.462948
0.46552
0.466961
0.468891
0.470432
0.472036
0.474563
0.478128
0.48199
0.484211
0.485596
0.487286
0.489704
0.491806
0.62262
0.912544
1.15983
1.31285
1.37018
1.41573
1.43526
1.44146
1.44452
1.45266
1.46346
1.47473
1.48436
1.49318
1.50326
1.51484
1.52772
1.53815
1.55648
0.411205
0.411056
0.410988
0.410979
0.410975
0.410996
0.411062
0.411066
0.410999
0.410947
0.41095
0.410988
0.411071
0.411107
0.411141
0.411214
0.411358
0.411505
0.411675
0.411921
0.412055
0.412199
0.412437
0.41283
0.413352
0.41392
0.414527
0.415207
0.415972
0.416826
0.417741
0.418689
0.419654
0.420597
0.421511
0.422472
0.423432
0.424356
0.425322
0.426141
0.426798
0.427445
0.4282
0.428931
0.429642
0.430437
0.431341
0.432464
0.433754
0.435299
0.437098
0.439536
0.442135
0.445057
0.447555
0.449434
0.450755
0.451944
0.453056
0.453891
0.454863
0.455848
0.457689
0.460095
0.463266
0.466657
0.469034
0.471358
0.473104
0.473745
0.474831
0.476816
0.480302
0.484382
0.486954
0.488437
0.489424
0.491123
0.494275
0.497961
0.501447
0.502845
0.503657
0.621865
0.899285
1.13848
1.28602
1.33801
1.3801
1.39614
1.40165
1.40438
1.41146
1.42071
1.43052
1.43895
1.44684
1.4561
1.46491
1.48091
0.413561
0.413673
0.413879
0.414199
0.414536
0.414817
0.415058
0.415329
0.415668
0.416025
0.416368
0.416719
0.417153
0.417671
0.418173
0.418631
0.419123
0.419718
0.42037
0.421007
0.421629
0.422278
0.42295
0.423613
0.424255
0.424893
0.425566
0.42622
0.426827
0.427398
0.427939
0.428543
0.429167
0.429792
0.430446
0.431105
0.431768
0.432459
0.433159
0.433818
0.434632
0.435585
0.436601
0.437684
0.439017
0.440657
0.442708
0.44485
0.446968
0.448895
0.450767
0.452446
0.453639
0.454975
0.456342
0.457086
0.45741
0.458127
0.459107
0.460727
0.46273
0.465443
0.468294
0.47139
0.473714
0.475668
0.476992
0.477745
0.479104
0.480806
0.483119
0.486205
0.489034
0.492155
0.493765
0.494297
0.495876
0.498931
0.503705
0.506046
0.507311
0.509668
0.512399
0.513841
0.515194
0.633144
0.897971
1.12445
1.26378
1.30907
1.34839
1.36148
1.36651
1.36859
1.37457
1.38226
1.39065
1.39811
1.40439
1.41679
0.425189
0.425368
0.42557
0.425779
0.426002
0.426253
0.42651
0.426772
0.427046
0.427313
0.427574
0.427851
0.428148
0.428462
0.428801
0.429153
0.429522
0.429907
0.43031
0.430734
0.431189
0.431673
0.432171
0.432673
0.433191
0.433715
0.434241
0.434771
0.435336
0.43595
0.436649
0.437384
0.438135
0.438981
0.439883
0.440867
0.44198
0.443131
0.444375
0.445834
0.447345
0.448757
0.450101
0.451552
0.452956
0.454305
0.45558
0.456708
0.457822
0.45894
0.460009
0.460561
0.460999
0.461637
0.463181
0.46443
0.465648
0.467089
0.469461
0.472101
0.474895
0.477382
0.479059
0.480693
0.481744
0.482499
0.483276
0.484202
0.486187
0.489475
0.492963
0.496366
0.49786
0.498772
0.500512
0.503164
0.505557
0.507908
0.510834
0.512973
0.514364
0.516426
0.51936
0.521805
0.524746
0.527287
0.528562
0.650518
0.905264
1.11855
1.24561
1.28455
1.32055
1.33081
1.33504
1.337
1.34245
1.34912
1.35491
1.36445
0.435679
0.435862
0.436091
0.436341
0.436604
0.436865
0.437124
0.437398
0.437713
0.438073
0.438437
0.438798
0.439175
0.439589
0.440032
0.440519
0.441056
0.441623
0.4422
0.442785
0.44341
0.444085
0.444776
0.445499
0.446253
0.447026
0.447842
0.448655
0.449469
0.450301
0.451111
0.451926
0.452784
0.453648
0.454516
0.45542
0.456343
0.457215
0.458131
0.459019
0.459807
0.460576
0.461386
0.462183
0.462878
0.463561
0.464172
0.464804
0.465559
0.466532
0.467657
0.468835
0.469895
0.471313
0.473096
0.475609
0.478049
0.480181
0.481895
0.483408
0.484632
0.485748
0.48655
0.487291
0.488587
0.49012
0.492145
0.494605
0.497457
0.500642
0.502571
0.504472
0.50576
0.506322
0.507792
0.510487
0.514117
0.516568
0.517729
0.520442
0.523254
0.524691
0.526443
0.529457
0.532568
0.535088
0.537579
0.539166
0.540328
0.677916
0.921641
1.11896
1.23135
1.26428
1.29691
1.3027
1.30743
1.30924
1.31318
1.32143
0.450487
0.450719
0.45098
0.451256
0.451544
0.451851
0.45216
0.452487
0.452811
0.453126
0.453481
0.453884
0.454271
0.45463
0.455005
0.455389
0.455782
0.456205
0.456625
0.457031
0.457439
0.457857
0.458292
0.458725
0.459183
0.459679
0.460178
0.460683
0.461186
0.461692
0.462203
0.46273
0.463247
0.463775
0.464321
0.464877
0.465428
0.466007
0.466637
0.467234
0.467911
0.468706
0.469532
0.47043
0.471468
0.472544
0.47378
0.475082
0.476485
0.477999
0.479714
0.481494
0.483397
0.485023
0.486349
0.487519
0.488784
0.489915
0.490835
0.491734
0.492296
0.49305
0.494298
0.495992
0.498275
0.501064
0.504045
0.506783
0.508245
0.5097
0.510685
0.511394
0.512933
0.515411
0.517888
0.520099
0.522891
0.525841
0.527166
0.528098
0.530372
0.532659
0.53486
0.538428
0.54118
0.542611
0.544853
0.547711
0.550404
0.551982
0.553068
0.713411
0.947474
1.12666
1.22077
1.24754
1.27741
1.27688
1.27976
1.28431
0.462572
0.462716
0.462926
0.463172
0.463421
0.463648
0.463858
0.464076
0.464331
0.464609
0.464887
0.465145
0.465407
0.465693
0.465993
0.466296
0.466607
0.466914
0.467221
0.467535
0.467866
0.468236
0.468628
0.469041
0.469492
0.469976
0.470503
0.471063
0.471666
0.472327
0.473029
0.473765
0.474525
0.475308
0.476106
0.47692
0.477769
0.478654
0.479556
0.480548
0.481595
0.482674
0.483744
0.484873
0.48603
0.487185
0.488284
0.489388
0.490435
0.491372
0.492183
0.492939
0.494058
0.495056
0.495677
0.496131
0.496928
0.497856
0.498999
0.50043
0.502265
0.504291
0.506638
0.508947
0.511234
0.513004
0.514272
0.516057
0.516976
0.517562
0.518784
0.520523
0.523079
0.525785
0.528729
0.531119
0.531857
0.533512
0.535268
0.53657
0.538625
0.541919
0.545772
0.547999
0.549552
0.551177
0.553293
0.555801
0.558183
0.560286
0.562888
0.56417
0.575063
0.756306
0.977888
1.13798
1.21039
1.23212
1.25614
1.25514
0.476425
0.476614
0.476836
0.477057
0.477256
0.477451
0.477688
0.477972
0.478267
0.478557
0.478843
0.479138
0.479456
0.479784
0.480124
0.480482
0.480875
0.481293
0.481723
0.482156
0.482601
0.483058
0.483531
0.484024
0.484514
0.484999
0.485488
0.485998
0.486525
0.487049
0.487595
0.488152
0.488731
0.489321
0.489931
0.490554
0.491187
0.491843
0.492518
0.493205
0.49388
0.494543
0.495207
0.495838
0.496453
0.497103
0.497758
0.498536
0.499366
0.500047
0.500668
0.501444
0.502515
0.504101
0.505406
0.506675
0.508193
0.510191
0.512194
0.51416
0.516056
0.51783
0.519488
0.520831
0.521995
0.522716
0.523135
0.523955
0.525718
0.527655
0.529531
0.531913
0.534645
0.537011
0.538546
0.540125
0.541359
0.542378
0.544568
0.547772
0.550133
0.55246
0.554678
0.555617
0.557143
0.559619
0.561974
0.564021
0.566208
0.568599
0.570852
0.573469
0.573986
0.575192
0.603486
0.803972
1.0101
1.1501
1.19791
1.2245
0.490184
0.490333
0.490519
0.490727
0.49092
0.491109
0.491309
0.491519
0.491755
0.492015
0.49226
0.492492
0.49274
0.49301
0.493298
0.49361
0.49392
0.494232
0.494555
0.494898
0.495254
0.49561
0.49597
0.496335
0.496706
0.497082
0.497468
0.497861
0.498263
0.498687
0.499139
0.499615
0.500114
0.500638
0.50118
0.501733
0.5023
0.502887
0.503493
0.504137
0.504845
0.505634
0.506523
0.507471
0.508462
0.509493
0.510515
0.511585
0.512793
0.514185
0.515682
0.517145
0.518379
0.519478
0.520842
0.522385
0.523684
0.524731
0.52574
0.52661
0.527394
0.528161
0.528864
0.529846
0.530781
0.531928
0.533501
0.535134
0.537506
0.540155
0.542867
0.544885
0.545886
0.547352
0.548263
0.549346
0.551256
0.553265
0.555467
0.557621
0.559965
0.561741
0.562765
0.56466
0.567056
0.569441
0.571534
0.573316
0.575141
0.576997
0.578783
0.58057
0.582479
0.584589
0.585815
0.586636
0.643667
0.865364
1.04131
1.18122
0.504944
0.505091
0.505266
0.505455
0.505659
0.505867
0.506074
0.506302
0.506535
0.506757
0.50698
0.507214
0.507468
0.507735
0.508006
0.50828
0.508571
0.508881
0.509208
0.509549
0.509905
0.510287
0.510698
0.51112
0.511552
0.512011
0.512499
0.512993
0.513495
0.514011
0.514546
0.515097
0.515651
0.516213
0.516796
0.517413
0.518065
0.518748
0.519463
0.520205
0.52098
0.521773
0.522546
0.523322
0.524096
0.524878
0.525703
0.526522
0.527315
0.52812
0.528918
0.529836
0.530583
0.531168
0.531853
0.532691
0.533358
0.534004
0.53499
0.535995
0.536988
0.538364
0.539903
0.541793
0.543796
0.546079
0.548363
0.550569
0.552178
0.553232
0.554433
0.555632
0.556335
0.55708
0.558585
0.560491
0.562221
0.56453
0.566631
0.568443
0.570223
0.571646
0.573406
0.575249
0.576955
0.578381
0.579787
0.581422
0.583155
0.584876
0.586614
0.58822
0.589811
0.591343
0.592678
0.594075
0.594962
0.595589
0.685326
1.03818
0.520591
0.520745
0.520921
0.521099
0.521274
0.521446
0.52163
0.521859
0.522107
0.522337
0.522557
0.522795
0.523049
0.523317
0.5236
0.523879
0.524155
0.524446
0.524755
0.525065
0.525378
0.525696
0.52602
0.526354
0.5267
0.527057
0.527422
0.527799
0.52819
0.5286
0.529021
0.529454
0.529919
0.530429
0.530962
0.531498
0.532053
0.532617
0.533189
0.533757
0.534325
0.534877
0.535405
0.535981
0.536621
0.537281
0.538017
0.538814
0.539585
0.540345
0.541134
0.542024
0.543242
0.544438
0.545525
0.546601
0.54795
0.549381
0.550912
0.55251
0.554239
0.555825
0.557376
0.558647
0.559705
0.560647
0.561525
0.562591
0.563128
0.563606
0.564119
0.565171
0.567012
0.568771
0.570757
0.572746
0.574757
0.57637
0.577729
0.579096
0.580054
0.581346
0.582786
0.584153
0.58549
0.586862
0.588408
0.589977
0.591411
0.592777
0.593991
0.595084
0.596045
0.59693
0.597839
0.598796
0.599657
0.600829
0.601158
0.699011
0.53753
0.537678
0.537829
0.537976
0.538128
0.538298
0.538503
0.538716
0.538903
0.539081
0.539283
0.53951
0.539749
0.539992
0.540228
0.540467
0.540725
0.541002
0.541285
0.541576
0.541874
0.542191
0.54253
0.542879
0.543238
0.543607
0.543988
0.544388
0.544804
0.545229
0.54567
0.546116
0.546569
0.547018
0.547481
0.54797
0.54848
0.549012
0.549578
0.550196
0.550853
0.551539
0.552253
0.552986
0.553737
0.554503
0.555294
0.556133
0.557006
0.557905
0.558828
0.559749
0.560556
0.561445
0.562327
0.563209
0.564049
0.564897
0.565711
0.566439
0.567208
0.567847
0.568509
0.569194
0.569874
0.570441
0.571201
0.572268
0.573656
0.57528
0.576931
0.578734
0.580435
0.582211
0.583576
0.584621
0.585612
0.586358
0.587223
0.588109
0.589268
0.590478
0.591637
0.592791
0.593903
0.594999
0.595963
0.596769
0.597548
0.598285
0.599022
0.599759
0.600433
0.601017
0.601597
0.602156
0.602745
0.603309
0.603636
0.603816
0.555684
0.555788
0.555901
0.556033
0.556191
0.556375
0.556565
0.556731
0.556886
0.557052
0.55724
0.557451
0.557673
0.557878
0.558082
0.558308
0.558555
0.558805
0.559053
0.559304