/*--------------------------------*- C++ -*----------------------------------*\
  =========                 |
  \\      /  F ield         | OpenFOAM: The Open Source CFD Toolbox
   \\    /   O peration     | Website:  https://openfoam.org
    \\  /    A nd           | Version:  7
     \\/     M anipulation  |
\*---------------------------------------------------------------------------*/
FoamFile
{
    version     2.0;
    format      ascii;
    class       volVectorField;
    location    "12";
    object      U;
}
// * * * * * * * * * * * * * * * * * * * * * * * * * * * * * * * * * * * * * //

dimensions      [0 1 -1 0 0 0 0];

internalField   nonuniform List<vector> 
90000
(
(2.77032 -1.52461 0)
(2.6235 -1.17153 0)
(2.59283 -0.863409 0)
(2.62044 -0.870757 0)
(2.59145 -0.706027 0)
(2.58846 -0.431688 0)
(2.63032 -0.367235 0)
(2.65205 -0.324133 0)
(2.64098 -0.192171 0)
(2.64126 -0.0539524 0)
(2.6721 -0.0351361 0)
(2.64958 0.0885862 0)
(2.66142 0.144657 0)
(2.6533 0.227901 0)
(2.66146 0.266421 0)
(2.64801 0.346565 0)
(2.65963 0.351368 0)
(2.65176 0.400469 0)
(2.65493 0.406881 0)
(2.65894 0.412159 0)
(2.67254 0.409828 0)
(2.68436 0.391743 0)
(2.69019 0.368 0)
(2.70187 0.340285 0)
(2.71629 0.308696 0)
(2.72242 0.274898 0)
(2.73702 0.248212 0)
(2.73586 0.213853 0)
(2.73878 0.186598 0)
(2.74474 0.179334 0)
(2.7484 0.182573 0)
(2.75366 0.190579 0)
(2.76675 0.20514 0)
(2.78035 0.22013 0)
(2.79215 0.234711 0)
(2.8029 0.247762 0)
(2.81127 0.256006 0)
(2.81721 0.26644 0)
(2.82309 0.275852 0)
(2.82807 0.283779 0)
(2.83133 0.28952 0)
(2.8349 0.290004 0)
(2.83831 0.288135 0)
(2.84147 0.284697 0)
(2.84413 0.278111 0)
(2.84577 0.270556 0)
(2.84686 0.259197 0)
(2.84864 0.248164 0)
(2.85078 0.233314 0)
(2.85439 0.224628 0)
(2.8542 0.21415 0)
(2.8552 0.210194 0)
(2.85573 0.20244 0)
(2.85966 0.206555 0)
(2.8609 0.212547 0)
(2.86199 0.222281 0)
(2.862 0.233228 0)
(2.86511 0.244104 0)
(2.8654 0.253995 0)
(2.86719 0.256372 0)
(2.8676 0.256582 0)
(2.86785 0.25282 0)
(2.86855 0.245197 0)
(2.86838 0.240596 0)
(2.86849 0.236185 0)
(2.87049 0.237044 0)
(2.87103 0.239122 0)
(2.87207 0.244279 0)
(2.87237 0.248098 0)
(2.87401 0.252224 0)
(2.87423 0.252124 0)
(2.87359 0.248425 0)
(2.87385 0.245248 0)
(2.87358 0.243762 0)
(2.87398 0.244193 0)
(2.87527 0.246738 0)
(2.87593 0.248476 0)
(2.87533 0.247153 0)
(2.87428 0.243321 0)
(2.87346 0.241356 0)
(2.8728 0.239743 0)
(2.87208 0.237583 0)
(2.87032 0.232061 0)
(2.86775 0.223613 0)
(2.86492 0.215134 0)
(2.86337 0.21171 0)
(2.86144 0.206766 0)
(2.85877 0.199562 0)
(2.85658 0.193306 0)
(2.85433 0.187538 0)
(2.85244 0.182745 0)
(2.85006 0.176287 0)
(2.84823 0.170707 0)
(2.84592 0.16457 0)
(2.84459 0.160826 0)
(2.84266 0.155306 0)
(2.84123 0.151651 0)
(2.83946 0.146903 0)
(2.83821 0.14314 0)
(2.83611 0.135859 0)
(2.96985 -1.76489 0)
(2.96985 -1.76472 0)
(2.96984 -1.76453 0)
(2.96977 -1.76442 0)
(2.96976 -1.76413 0)
(2.96959 -1.76412 0)
(2.96963 -1.76367 0)
(2.96937 -1.76413 0)
(2.96398 -1.75185 0)
(2.95114 -1.71866 0)
(2.92959 -1.67073 0)
(2.89229 -1.56924 0)
(2.85322 -1.45519 0)
(2.80483 -1.28635 0)
(2.75906 -1.13727 0)
(2.69554 -0.901129 0)
(2.6561 -0.746141 0)
(2.59278 -0.518859 0)
(2.55601 -0.357999 0)
(2.53011 -0.231097 0)
(2.47644 -0.0429292 0)
(2.48204 0.0171166 0)
(2.43222 0.159472 0)
(2.43953 0.191666 0)
(2.42511 0.264864 0)
(2.43458 0.276198 0)
(2.44673 0.309038 0)
(2.47487 0.317921 0)
(2.49299 0.331868 0)
(2.51802 0.3361 0)
(2.54216 0.329238 0)
(2.56484 0.316979 0)
(2.58078 0.293155 0)
(2.6041 0.270193 0)
(2.61477 0.233417 0)
(2.63449 0.211745 0)
(2.64974 0.194394 0)
(2.67038 0.187602 0)
(2.69005 0.193242 0)
(2.70652 0.203993 0)
(2.71756 0.214302 0)
(2.72443 0.225923 0)
(2.73235 0.234089 0)
(2.74112 0.237799 0)
(2.74965 0.240632 0)
(2.75733 0.233426 0)
(2.76512 0.22574 0)
(2.77255 0.216302 0)
(2.78083 0.214198 0)
(2.79221 0.218801 0)
(2.80139 0.234468 0)
(2.81053 0.245924 0)
(2.81778 0.257732 0)
(2.82548 0.266052 0)
(2.83138 0.272173 0)
(2.83556 0.272016 0)
(2.83717 0.26961 0)
(2.8389 0.264249 0)
(2.84086 0.25784 0)
(2.84406 0.247049 0)
(2.84879 0.239776 0)
(2.85361 0.231533 0)
(2.85608 0.235652 0)
(2.86072 0.237995 0)
(2.86276 0.244446 0)
(2.86679 0.249184 0)
(2.86738 0.2556 0)
(2.8684 0.259687 0)
(2.86849 0.259837 0)
(2.86752 0.255398 0)
(2.86841 0.247215 0)
(2.86865 0.240116 0)
(2.8711 0.239209 0)
(2.87241 0.241317 0)
(2.87371 0.245899 0)
(2.87453 0.250324 0)
(2.87363 0.249296 0)
(2.87261 0.244761 0)
(2.87257 0.240652 0)
(2.87227 0.239338 0)
(2.87213 0.23858 0)
(2.87064 0.234685 0)
(2.86772 0.225443 0)
(2.86527 0.217383 0)
(2.86386 0.212666 0)
(2.86248 0.208574 0)
(2.86036 0.202417 0)
(2.85756 0.194942 0)
(2.85506 0.18785 0)
(2.85356 0.18449 0)
(2.8521 0.180414 0)
(2.84981 0.174315 0)
(2.84827 0.169935 0)
(2.84601 0.163751 0)
(2.8446 0.159776 0)
(2.84274 0.154381 0)
(2.84132 0.150194 0)
(2.83956 0.145171 0)
(2.83827 0.141219 0)
(2.83623 0.133901 0)
(2.96843 -1.76369 0)
(2.96845 -1.76329 0)
(2.96812 -1.76349 0)
(2.9682 -1.76296 0)
(2.96781 -1.76328 0)
(2.96796 -1.76265 0)
(2.96756 -1.76308 0)
(2.96788 -1.76219 0)
(2.96758 -1.76338 0)
(2.96773 -1.76264 0)
(2.9677 -1.76257 0)
(2.96787 -1.76226 0)
(2.96784 -1.76239 0)
(2.9681 -1.76195 0)
(2.968 -1.76225 0)
(2.96845 -1.76171 0)
(2.96831 -1.76252 0)
(2.96681 -1.75926 0)
(2.95185 -1.72866 0)
(2.90941 -1.64954 0)
(2.83566 -1.49524 0)
(2.75397 -1.324 0)
(2.64106 -1.03881 0)
(2.57177 -0.850416 0)
(2.46097 -0.543475 0)
(2.43512 -0.399642 0)
(2.3612 -0.17706 0)
(2.3559 -0.0657411 0)
(2.32202 0.0675505 0)
(2.32129 0.132561 0)
(2.31247 0.194374 0)
(2.315 0.235846 0)
(2.31828 0.247038 0)
(2.33419 0.263299 0)
(2.35834 0.282743 0)
(2.38815 0.271038 0)
(2.41176 0.259573 0)
(2.4464 0.234945 0)
(2.47735 0.204765 0)
(2.50345 0.175789 0)
(2.51992 0.146027 0)
(2.5363 0.1449 0)
(2.55164 0.152601 0)
(2.5621 0.176243 0)
(2.57364 0.19876 0)
(2.58474 0.22406 0)
(2.59784 0.246424 0)
(2.6143 0.260903 0)
(2.63096 0.255853 0)
(2.6515 0.246952 0)
(2.67154 0.238771 0)
(2.69007 0.230112 0)
(2.70558 0.226767 0)
(2.71921 0.22548 0)
(2.73268 0.220918 0)
(2.74709 0.21359 0)
(2.7619 0.207824 0)
(2.77534 0.207971 0)
(2.78677 0.213613 0)
(2.79583 0.222977 0)
(2.80486 0.228352 0)
(2.81358 0.236918 0)
(2.82137 0.243836 0)
(2.8292 0.249942 0)
(2.83591 0.251364 0)
(2.84209 0.251538 0)
(2.84731 0.247537 0)
(2.85246 0.240449 0)
(2.85767 0.235862 0)
(2.86013 0.23251 0)
(2.86125 0.231645 0)
(2.86384 0.237266 0)
(2.86676 0.244296 0)
(2.86816 0.250642 0)
(2.86942 0.254095 0)
(2.86867 0.251726 0)
(2.86934 0.243998 0)
(2.86908 0.237494 0)
(2.87046 0.235668 0)
(2.8712 0.236616 0)
(2.87074 0.235122 0)
(2.86712 0.229068 0)
(2.86455 0.220337 0)
(2.86326 0.213545 0)
(2.86257 0.210367 0)
(2.86132 0.206492 0)
(2.8586 0.198315 0)
(2.85595 0.191524 0)
(2.85427 0.187091 0)
(2.85284 0.1829 0)
(2.85091 0.17688 0)
(2.84852 0.170312 0)
(2.84701 0.166349 0)
(2.84504 0.160683 0)
(2.8438 0.157184 0)
(2.84216 0.152122 0)
(2.84112 0.148681 0)
(2.83959 0.144173 0)
(2.8383 0.140035 0)
(2.83642 0.133111 0)
(2.96783 -1.76173 0)
(2.96774 -1.76178 0)
(2.96781 -1.76161 0)
(2.9677 -1.76178 0)
(2.96787 -1.76152 0)
(2.96775 -1.76179 0)
(2.96791 -1.76167 0)
(2.96798 -1.76179 0)
(2.96815 -1.76182 0)
(2.96833 -1.76191 0)
(2.96856 -1.76199 0)
(2.96876 -1.76215 0)
(2.96904 -1.76224 0)
(2.96921 -1.76263 0)
(2.96961 -1.76271 0)
(2.9699 -1.76305 0)
(2.97023 -1.7633 0)
(2.97076 -1.76349 0)
(2.97082 -1.7639 0)
(2.9711 -1.76392 0)
(2.97129 -1.76416 0)
(2.97149 -1.76445 0)
(2.97194 -1.76443 0)
(2.97198 -1.76521 0)
(2.97116 -1.76355 0)
(2.95176 -1.72856 0)
(2.88603 -1.6155 0)
(2.79467 -1.43214 0)
(2.68518 -1.19398 0)
(2.57322 -0.895202 0)
(2.5039 -0.687144 0)
(2.38384 -0.365945 0)
(2.37284 -0.235003 0)
(2.2633 0.00170243 0)
(2.24264 0.0933386 0)
(2.21833 0.162571 0)
(2.20845 0.240464 0)
(2.2162 0.230034 0)
(2.24197 0.241628 0)
(2.27307 0.245271 0)
(2.30288 0.23786 0)
(2.33647 0.218301 0)
(2.35798 0.18692 0)
(2.37319 0.151068 0)
(2.38957 0.13417 0)
(2.40677 0.140122 0)
(2.41991 0.167924 0)
(2.43082 0.199132 0)
(2.43975 0.219035 0)
(2.45025 0.234753 0)
(2.4678 0.241324 0)
(2.49174 0.236667 0)
(2.51406 0.22024 0)
(2.53632 0.212293 0)
(2.558 0.217182 0)
(2.58042 0.225597 0)
(2.60526 0.239152 0)
(2.6312 0.250077 0)
(2.65504 0.255395 0)
(2.67478 0.253474 0)
(2.69146 0.252691 0)
(2.70841 0.246734 0)
(2.72617 0.245692 0)
(2.7436 0.240895 0)
(2.76009 0.238224 0)
(2.77573 0.233113 0)
(2.79012 0.234559 0)
(2.80346 0.236768 0)
(2.81595 0.243827 0)
(2.82698 0.251996 0)
(2.83463 0.2621 0)
(2.84125 0.26457 0)
(2.84608 0.260857 0)
(2.84957 0.250395 0)
(2.85503 0.237812 0)
(2.86025 0.228708 0)
(2.86286 0.228274 0)
(2.86456 0.234296 0)
(2.86645 0.240132 0)
(2.86679 0.240952 0)
(2.86429 0.230342 0)
(2.86294 0.218929 0)
(2.86057 0.210553 0)
(2.86081 0.207623 0)
(2.86073 0.205916 0)
(2.85885 0.201374 0)
(2.85609 0.193085 0)
(2.85495 0.187597 0)
(2.85382 0.184836 0)
(2.85219 0.180752 0)
(2.84997 0.175208 0)
(2.84778 0.169406 0)
(2.84628 0.165801 0)
(2.84429 0.159722 0)
(2.84306 0.155807 0)
(2.84163 0.15081 0)
(2.84057 0.146877 0)
(2.8388 0.141819 0)
(2.83759 0.137638 0)
(2.83594 0.131109 0)
(2.96782 -1.76265 0)
(2.96798 -1.76269 0)
(2.96813 -1.76279 0)
(2.9683 -1.76287 0)
(2.9685 -1.76295 0)
(2.96867 -1.76312 0)
(2.96895 -1.76316 0)
(2.96913 -1.76339 0)
(2.96942 -1.76352 0)
(2.96973 -1.76364 0)
(2.97001 -1.76382 0)
(2.97027 -1.76407 0)
(2.97063 -1.76418 0)
(2.97088 -1.7645 0)
(2.97128 -1.7646 0)
(2.97157 -1.76489 0)
(2.97191 -1.76513 0)
(2.97224 -1.7654 0)
(2.97253 -1.76575 0)
(2.97286 -1.76605 0)
(2.97318 -1.76636 0)
(2.97355 -1.76658 0)
(2.9737 -1.76716 0)
(2.9742 -1.76708 0)
(2.97442 -1.7676 0)
(2.97463 -1.7676 0)
(2.97473 -1.76778 0)
(2.97495 -1.76778 0)
(2.97508 -1.76804 0)
(2.97547 -1.76782 0)
(2.97551 -1.76827 0)
(2.94996 -1.72128 0)
(2.88483 -1.59955 0)
(2.75077 -1.33094 0)
(2.6176 -1.01648 0)
(2.49951 -0.721616 0)
(2.34937 -0.340582 0)
(2.32808 -0.18572 0)
(2.19768 0.0622079 0)
(2.16703 0.144374 0)
(2.17349 0.148224 0)
(2.18492 0.19441 0)
(2.20627 0.198276 0)
(2.22775 0.197018 0)
(2.25101 0.184642 0)
(2.271 0.167945 0)
(2.2927 0.153066 0)
(2.29986 0.149436 0)
(2.29692 0.159241 0)
(2.28916 0.180378 0)
(2.2874 0.20379 0)
(2.29517 0.218779 0)
(2.31743 0.213551 0)
(2.33685 0.199106 0)
(2.36635 0.179079 0)
(2.38944 0.175348 0)
(2.41414 0.188618 0)
(2.43718 0.205578 0)
(2.45853 0.217378 0)
(2.48056 0.219158 0)
(2.50458 0.208748 0)
(2.53211 0.207776 0)
(2.56152 0.214095 0)
(2.58912 0.224928 0)
(2.61531 0.230345 0)
(2.64099 0.236429 0)
(2.66733 0.234975 0)
(2.6924 0.237545 0)
(2.71617 0.238809 0)
(2.73858 0.236547 0)
(2.75876 0.233578 0)
(2.77679 0.2316 0)
(2.79293 0.22678 0)
(2.80657 0.225728 0)
(2.81912 0.227963 0)
(2.83074 0.236015 0)
(2.8385 0.248718 0)
(2.84411 0.251608 0)
(2.84721 0.245025 0)
(2.85043 0.225953 0)
(2.85274 0.205967 0)
(2.85676 0.197721 0)
(2.85597 0.204127 0)
(2.85633 0.207782 0)
(2.85543 0.205708 0)
(2.85362 0.192716 0)
(2.85182 0.183415 0)
(2.85297 0.181585 0)
(2.85234 0.180458 0)
(2.85072 0.175523 0)
(2.84925 0.170684 0)
(2.84713 0.165618 0)
(2.84589 0.16298 0)
(2.84373 0.15748 0)
(2.84253 0.153834 0)
(2.84112 0.149349 0)
(2.83993 0.146024 0)
(2.83806 0.140946 0)
(2.83696 0.136626 0)
(2.83552 0.130985 0)
(2.9699 -1.76359 0)
(2.97008 -1.76374 0)
(2.97032 -1.7638 0)
(2.9705 -1.76401 0)
(2.97078 -1.76406 0)
(2.97096 -1.7643 0)
(2.97124 -1.76439 0)
(2.97148 -1.76455 0)
(2.97168 -1.76482 0)
(2.97199 -1.76493 0)
(2.97224 -1.76516 0)
(2.9725 -1.76537 0)
(2.97279 -1.76555 0)
(2.97306 -1.76579 0)
(2.97342 -1.76589 0)
(2.97366 -1.76615 0)
(2.97397 -1.76632 0)
(2.97426 -1.76653 0)
(2.97448 -1.76685 0)
(2.97469 -1.76718 0)
(2.97502 -1.76727 0)
(2.97519 -1.76756 0)
(2.97544 -1.76767 0)
(2.97556 -1.76796 0)
(2.97581 -1.76795 0)
(2.97589 -1.76816 0)
(2.97607 -1.76822 0)
(2.97611 -1.76852 0)
(2.97631 -1.76854 0)
(2.97645 -1.76859 0)
(2.97665 -1.76865 0)
(2.97693 -1.7686 0)
(2.97699 -1.76861 0)
(2.97714 -1.76864 0)
(2.97728 -1.76864 0)
(2.97734 -1.76872 0)
(2.94344 -1.7039 0)
(2.85087 -1.5293 0)
(2.65954 -1.12623 0)
(2.50859 -0.753001 0)
(2.41317 -0.465825 0)
(2.23398 -0.0763071 0)
(2.2286 0.0243553 0)
(2.18117 0.138863 0)
(2.16627 0.195533 0)
(2.16945 0.178985 0)
(2.18905 0.18048 0)
(2.21036 0.187378 0)
(2.21722 0.185964 0)
(2.22071 0.168973 0)
(2.21783 0.168186 0)
(2.20803 0.184865 0)
(2.19884 0.200939 0)
(2.21818 0.219252 0)
(2.23191 0.218612 0)
(2.25151 0.212768 0)
(2.27119 0.197895 0)
(2.28391 0.188873 0)
(2.29433 0.19352 0)
(2.30466 0.207377 0)
(2.32189 0.219662 0)
(2.34825 0.215803 0)
(2.37778 0.20485 0)
(2.4073 0.203173 0)
(2.43189 0.216879 0)
(2.45895 0.222879 0)
(2.48929 0.226908 0)
(2.52283 0.215812 0)
(2.55443 0.221388 0)
(2.58604 0.225969 0)
(2.61743 0.226247 0)
(2.64782 0.228822 0)
(2.6773 0.238046 0)
(2.70616 0.242845 0)
(2.73181 0.24758 0)
(2.75351 0.244134 0)
(2.77171 0.233102 0)
(2.78841 0.218842 0)
(2.80266 0.209336 0)
(2.81302 0.205197 0)
(2.82191 0.211266 0)
(2.83084 0.222356 0)
(2.83512 0.222631 0)
(2.83681 0.21117 0)
(2.83917 0.192055 0)
(2.8433 0.175498 0)
(2.84474 0.183935 0)
(2.84615 0.18664 0)
(2.84522 0.184274 0)
(2.84445 0.16982 0)
(2.84565 0.162791 0)
(2.84496 0.160925 0)
(2.84387 0.157775 0)
(2.84204 0.152792 0)
(2.84121 0.14994 0)
(2.84006 0.146225 0)
(2.83908 0.143134 0)
(2.83774 0.138482 0)
(2.83679 0.134784 0)
(2.8352 0.129912 0)
(2.97221 -1.76521 0)
(2.97242 -1.76527 0)
(2.97258 -1.76543 0)
(2.97275 -1.76559 0)
(2.97298 -1.76567 0)
(2.97316 -1.76582 0)
(2.97334 -1.76598 0)
(2.97361 -1.76602 0)
(2.97373 -1.76628 0)
(2.97399 -1.76635 0)
(2.97416 -1.76655 0)
(2.97435 -1.76674 0)
(2.97455 -1.76695 0)
(2.97474 -1.76717 0)
(2.97492 -1.76741 0)
(2.97516 -1.76752 0)
(2.97531 -1.76778 0)
(2.97561 -1.76778 0)
(2.9757 -1.76808 0)
(2.97592 -1.76818 0)
(2.97605 -1.76837 0)
(2.97621 -1.76847 0)
(2.97627 -1.76867 0)
(2.97638 -1.76872 0)
(2.97644 -1.76879 0)
(2.97652 -1.76879 0)
(2.97651 -1.76894 0)
(2.97663 -1.76892 0)
(2.97672 -1.76894 0)
(2.97685 -1.7689 0)
(2.97703 -1.76883 0)
(2.97722 -1.76878 0)
(2.97737 -1.76876 0)
(2.97748 -1.76878 0)
(2.97756 -1.76879 0)
(2.97763 -1.76886 0)
(2.97766 -1.7689 0)
(2.97763 -1.76896 0)
(2.97761 -1.76899 0)
(2.9776 -1.76891 0)
(2.95009 -1.71849 0)
(2.81872 -1.46548 0)
(2.67525 -1.12003 0)
(2.51032 -0.677807 0)
(2.36502 -0.259552 0)
(2.36809 -0.129357 0)
(2.2383 0.0593996 0)
(2.20595 0.129894 0)
(2.21251 0.139551 0)
(2.22633 0.137776 0)
(2.22687 0.14443 0)
(2.21973 0.157366 0)
(2.20635 0.174665 0)
(2.19562 0.195592 0)
(2.19643 0.210835 0)
(2.20047 0.207611 0)
(2.21044 0.199312 0)
(2.21991 0.187218 0)
(2.22995 0.178125 0)
(2.23732 0.182842 0)
(2.24328 0.192389 0)
(2.25029 0.202214 0)
(2.26339 0.21416 0)
(2.28232 0.210463 0)
(2.29883 0.195129 0)
(2.31629 0.19551 0)
(2.33419 0.205311 0)
(2.358 0.219735 0)
(2.38654 0.206495 0)
(2.41595 0.205061 0)
(2.44531 0.212655 0)
(2.47781 0.217381 0)
(2.51306 0.217854 0)
(2.54881 0.222815 0)
(2.58446 0.219833 0)
(2.61786 0.215053 0)
(2.64875 0.209492 0)
(2.67726 0.208711 0)
(2.7042 0.213891 0)
(2.72741 0.216963 0)
(2.74698 0.218385 0)
(2.76445 0.20168 0)
(2.78175 0.185337 0)
(2.795 0.176193 0)
(2.80495 0.173202 0)
(2.81306 0.191212 0)
(2.81954 0.192381 0)
(2.82332 0.180284 0)
(2.82892 0.162284 0)
(2.83201 0.159574 0)
(2.83435 0.168458 0)
(2.83518 0.166476 0)
(2.83556 0.160904 0)
(2.83624 0.153793 0)
(2.83697 0.15031 0)
(2.83676 0.144797 0)
(2.83652 0.138942 0)
(2.8359 0.13359 0)
(2.83548 0.13124 0)
(2.83437 0.127935 0)
(2.97433 -1.76653 0)
(2.97441 -1.76668 0)
(2.97456 -1.76676 0)
(2.97463 -1.76696 0)
(2.97477 -1.76707 0)
(2.97487 -1.76723 0)
(2.97495 -1.76741 0)
(2.97508 -1.76753 0)
(2.9752 -1.76764 0)
(2.97531 -1.7678 0)
(2.97553 -1.7678 0)
(2.97559 -1.76804 0)
(2.97579 -1.76809 0)
(2.97592 -1.76823 0)
(2.97607 -1.76834 0)
(2.97621 -1.76846 0)
(2.97638 -1.76849 0)
(2.97647 -1.76866 0)
(2.97664 -1.76866 0)
(2.97675 -1.76876 0)
(2.97691 -1.7687 0)
(2.97698 -1.76874 0)
(2.97704 -1.76876 0)
(2.97707 -1.76879 0)
(2.97711 -1.76875 0)
(2.97714 -1.76867 0)
(2.97714 -1.76865 0)
(2.97715 -1.76872 0)
(2.97722 -1.76867 0)
(2.9773 -1.76861 0)
(2.97741 -1.76856 0)
(2.97753 -1.76853 0)
(2.97761 -1.76854 0)
(2.97769 -1.76857 0)
(2.97774 -1.7686 0)
(2.97777 -1.76866 0)
(2.97768 -1.76884 0)
(2.97759 -1.76887 0)
(2.97748 -1.76892 0)
(2.97744 -1.76871 0)
(2.97749 -1.76865 0)
(2.9776 -1.76849 0)
(2.97758 -1.76846 0)
(2.97769 -1.7682 0)
(2.92238 -1.64433 0)
(2.81803 -1.36943 0)
(2.59194 -0.824107 0)
(2.53464 -0.536407 0)
(2.38251 -0.183186 0)
(2.32394 0.0194923 0)
(2.26588 0.139156 0)
(2.24486 0.206205 0)
(2.23555 0.1982 0)
(2.22462 0.215002 0)
(2.21434 0.203397 0)
(2.21781 0.198151 0)
(2.2226 0.194831 0)
(2.22653 0.186386 0)
(2.22845 0.183999 0)
(2.23882 0.18266 0)
(2.23993 0.182659 0)
(2.23859 0.184771 0)
(2.2386 0.190638 0)
(2.24086 0.195575 0)
(2.25048 0.200218 0)
(2.25928 0.197245 0)
(2.26605 0.19616 0)
(2.27331 0.199321 0)
(2.28353 0.206428 0)
(2.30077 0.197219 0)
(2.32006 0.196208 0)
(2.34042 0.203004 0)
(2.36479 0.206189 0)
(2.39238 0.202283 0)
(2.42072 0.208068 0)
(2.45247 0.206476 0)
(2.48518 0.209359 0)
(2.5187 0.207111 0)
(2.55271 0.204047 0)
(2.58582 0.193654 0)
(2.61811 0.184537 0)
(2.64785 0.182474 0)
(2.67613 0.189619 0)
(2.70217 0.194246 0)
(2.72424 0.201611 0)
(2.74151 0.185104 0)
(2.75929 0.170878 0)
(2.77431 0.158975 0)
(2.78682 0.168963 0)
(2.79644 0.17518 0)
(2.80313 0.164708 0)
(2.81042 0.148936 0)
(2.81689 0.145102 0)
(2.82121 0.144947 0)
(2.82428 0.143244 0)
(2.82636 0.138805 0)
(2.82802 0.139139 0)
(2.8291 0.137676 0)
(2.83024 0.136758 0)
(2.83052 0.131033 0)
(2.97554 -1.76811 0)
(2.97563 -1.76816 0)
(2.97564 -1.76833 0)
(2.97577 -1.76831 0)
(2.9758 -1.76843 0)
(2.97585 -1.76853 0)
(2.97596 -1.76853 0)
(2.97601 -1.7686 0)
(2.97605 -1.76872 0)
(2.97615 -1.76878 0)
(2.97627 -1.76882 0)
(2.97637 -1.76886 0)
(2.97639 -1.76905 0)
(2.97652 -1.76911 0)
(2.97666 -1.76913 0)
(2.97683 -1.76898 0)
(2.97698 -1.76893 0)
(2.97707 -1.76896 0)
(2.97715 -1.76902 0)
(2.97726 -1.76894 0)
(2.97731 -1.7689 0)
(2.97737 -1.76882 0)
(2.97739 -1.7688 0)
(2.97738 -1.76881 0)
(2.97738 -1.76874 0)
(2.97737 -1.76866 0)
(2.97736 -1.76861 0)
(2.97735 -1.7686 0)
(2.97737 -1.7686 0)
(2.97742 -1.76859 0)
(2.97749 -1.76856 0)
(2.97756 -1.76858 0)
(2.9776 -1.76862 0)
(2.97763 -1.76866 0)
(2.97767 -1.7687 0)
(2.97765 -1.76875 0)
(2.97746 -1.76894 0)
(2.97734 -1.76891 0)
(2.97729 -1.76873 0)
(2.97729 -1.76873 0)
(2.97743 -1.76862 0)
(2.97757 -1.76844 0)
(2.97764 -1.76823 0)
(2.97773 -1.76789 0)
(2.97783 -1.76761 0)
(2.97777 -1.76744 0)
(2.97757 -1.76743 0)
(2.96684 -1.73469 0)
(2.86263 -1.50299 0)
(2.7154 -1.07606 0)
(2.61413 -0.677351 0)
(2.46714 -0.233536 0)
(2.45191 -0.0717347 0)
(2.35093 0.0975931 0)
(2.30439 0.143605 0)
(2.27945 0.172374 0)
(2.25801 0.190227 0)
(2.24672 0.192176 0)
(2.25057 0.190827 0)
(2.25869 0.190912 0)
(2.25673 0.184875 0)
(2.25202 0.182222 0)
(2.24814 0.183048 0)
(2.24759 0.188394 0)
(2.25217 0.194118 0)
(2.254 0.196341 0)
(2.25531 0.194956 0)
(2.2554 0.192664 0)
(2.25586 0.193241 0)
(2.26045 0.195221 0)
(2.26976 0.189814 0)
(2.27836 0.189685 0)
(2.28568 0.196346 0)
(2.29606 0.196504 0)
(2.30959 0.18804 0)
(2.32669 0.185134 0)
(2.34831 0.177728 0)
(2.37182 0.178738 0)
(2.39854 0.179925 0)
(2.42675 0.182978 0)
(2.45812 0.187763 0)
(2.49186 0.180139 0)
(2.52531 0.173487 0)
(2.5584 0.167193 0)
(2.59203 0.157472 0)
(2.62209 0.159329 0)
(2.65114 0.163092 0)
(2.67723 0.171515 0)
(2.69952 0.168061 0)
(2.72032 0.151159 0)
(2.73905 0.14684 0)
(2.75507 0.151237 0)
(2.76916 0.157093 0)
(2.78042 0.154989 0)
(2.78972 0.150071 0)
(2.79796 0.145935 0)
(2.80457 0.139795 0)
(2.81026 0.131793 0)
(2.81493 0.128775 0)
(2.82009 0.119011 0)
(2.97632 -1.76888 0)
(2.97634 -1.76893 0)
(2.97635 -1.76903 0)
(2.97641 -1.76901 0)
(2.97643 -1.76907 0)
(2.97645 -1.76917 0)
(2.97654 -1.76911 0)
(2.97661 -1.76911 0)
(2.97668 -1.76913 0)
(2.97679 -1.76905 0)
(2.97688 -1.769 0)
(2.97695 -1.76901 0)
(2.97703 -1.769 0)
(2.97715 -1.76897 0)
(2.97719 -1.76896 0)
(2.97733 -1.76891 0)
(2.97748 -1.76881 0)
(2.97755 -1.76881 0)
(2.97762 -1.76883 0)
(2.97765 -1.76873 0)
(2.97767 -1.76856 0)
(2.97769 -1.76848 0)
(2.97769 -1.76843 0)
(2.97766 -1.76842 0)
(2.97762 -1.7684 0)
(2.97758 -1.76835 0)
(2.97753 -1.76832 0)
(2.97749 -1.76833 0)
(2.97748 -1.76836 0)
(2.97751 -1.76841 0)
(2.97753 -1.76845 0)
(2.97756 -1.7685 0)
(2.97755 -1.76857 0)
(2.97756 -1.76861 0)
(2.97756 -1.76861 0)
(2.97741 -1.76875 0)
(2.9773 -1.76873 0)
(2.97725 -1.76867 0)
(2.97724 -1.76865 0)
(2.97726 -1.7686 0)
(2.97758 -1.76832 0)
(2.97766 -1.76799 0)
(2.97762 -1.76776 0)
(2.97775 -1.76745 0)
(2.97779 -1.76721 0)
(2.97758 -1.76713 0)
(2.97748 -1.76714 0)
(2.97731 -1.76732 0)
(2.97742 -1.76708 0)
(2.97664 -1.76773 0)
(2.97524 -1.76894 0)
(2.90391 -1.5821 0)
(2.81005 -1.22036 0)
(2.62027 -0.641369 0)
(2.55532 -0.317113 0)
(2.42951 -0.0201305 0)
(2.30238 0.177477 0)
(2.28472 0.19756 0)
(2.28077 0.200156 0)
(2.2822 0.200679 0)
(2.27527 0.195075 0)
(2.27303 0.187241 0)
(2.27413 0.182924 0)
(2.27213 0.184954 0)
(2.26914 0.189028 0)
(2.2643 0.193702 0)
(2.26043 0.194039 0)
(2.25827 0.190656 0)
(2.25876 0.189313 0)
(2.25874 0.191829 0)
(2.26321 0.193458 0)
(2.26568 0.190777 0)
(2.26721 0.187414 0)
(2.2647 0.186432 0)
(2.26509 0.184949 0)
(2.26888 0.179945 0)
(2.27512 0.182001 0)
(2.28435 0.173936 0)
(2.2962 0.169664 0)
(2.31148 0.159632 0)
(2.32961 0.159801 0)
(2.35141 0.164834 0)
(2.37737 0.164155 0)
(2.40484 0.164671 0)
(2.43599 0.167536 0)
(2.46886 0.162515 0)
(2.50206 0.163711 0)
(2.53481 0.149131 0)
(2.5671 0.142497 0)
(2.59721 0.149693 0)
(2.62679 0.154067 0)
(2.65259 0.151431 0)
(2.67735 0.143863 0)
(2.7006 0.133737 0)
(2.72104 0.129006 0)
(2.73898 0.128347 0)
(2.75392 0.128095 0)
(2.76661 0.129058 0)
(2.77649 0.129707 0)
(2.79061 0.124957 0)
(2.9768 -1.76906 0)
(2.97683 -1.76906 0)
(2.97685 -1.76908 0)
(2.97689 -1.76901 0)
(2.97693 -1.76899 0)
(2.97698 -1.76904 0)
(2.97703 -1.76902 0)
(2.9771 -1.76897 0)
(2.97716 -1.76896 0)
(2.97722 -1.76896 0)
(2.97725 -1.76892 0)
(2.97728 -1.76889 0)
(2.97737 -1.76885 0)
(2.97739 -1.76884 0)
(2.9774 -1.76888 0)
(2.97758 -1.76881 0)
(2.97775 -1.76872 0)
(2.97777 -1.76872 0)
(2.9778 -1.76873 0)
(2.97778 -1.76864 0)
(2.97774 -1.76852 0)
(2.97775 -1.76844 0)
(2.97774 -1.76839 0)
(2.97769 -1.76839 0)
(2.97762 -1.76841 0)
(2.97756 -1.76839 0)
(2.9775 -1.76837 0)
(2.97744 -1.76838 0)
(2.97738 -1.76847 0)
(2.97737 -1.76851 0)
(2.97739 -1.76851 0)
(2.97735 -1.76857 0)
(2.97734 -1.76857 0)
(2.97733 -1.76857 0)
(2.97731 -1.76853 0)
(2.97725 -1.76865 0)
(2.97723 -1.76852 0)
(2.97727 -1.7684 0)
(2.97728 -1.76834 0)
(2.97734 -1.76825 0)
(2.97769 -1.76776 0)
(2.97766 -1.76739 0)
(2.97759 -1.76731 0)
(2.97758 -1.76718 0)
(2.9775 -1.76701 0)
(2.97739 -1.76698 0)
(2.97711 -1.76736 0)
(2.97683 -1.76773 0)
(2.9768 -1.76741 0)
(2.9761 -1.76749 0)
(2.97487 -1.76844 0)
(2.97469 -1.76868 0)
(2.97451 -1.76879 0)
(2.97512 -1.76875 0)
(2.93137 -1.63041 0)
(2.7743 -1.16371 0)
(2.58665 -0.581443 0)
(2.50162 -0.21283 0)
(2.41078 0.01128 0)
(2.30835 0.183381 0)
(2.28324 0.199086 0)
(2.28673 0.19379 0)
(2.29292 0.187677 0)
(2.28909 0.190798 0)
(2.28548 0.197792 0)
(2.27839 0.196682 0)
(2.27235 0.188765 0)
(2.26859 0.183735 0)
(2.26873 0.185151 0)
(2.26884 0.191342 0)
(2.26936 0.193267 0)
(2.2677 0.191578 0)
(2.26539 0.185644 0)
(2.26161 0.178972 0)
(2.25856 0.175678 0)
(2.25661 0.171593 0)
(2.25644 0.16829 0)
(2.25514 0.166733 0)
(2.25548 0.164709 0)
(2.25849 0.163739 0)
(2.26415 0.157327 0)
(2.27245 0.151125 0)
(2.28332 0.14807 0)
(2.29741 0.142208 0)
(2.31482 0.141883 0)
(2.33588 0.144819 0)
(2.36157 0.141203 0)
(2.38706 0.149198 0)
(2.41703 0.147538 0)
(2.44842 0.136592 0)
(2.4808 0.136947 0)
(2.51303 0.127402 0)
(2.54504 0.129116 0)
(2.57607 0.137637 0)
(2.60633 0.141584 0)
(2.63476 0.135233 0)
(2.6601 0.132928 0)
(2.68335 0.128287 0)
(2.70252 0.117694 0)
(2.73084 0.115367 0)
(2.97708 -1.76904 0)
(2.97711 -1.76903 0)
(2.97713 -1.76903 0)
(2.97714 -1.76903 0)
(2.97719 -1.76904 0)
(2.97723 -1.76902 0)
(2.97724 -1.76901 0)
(2.97728 -1.76896 0)
(2.97736 -1.76892 0)
(2.97738 -1.76891 0)
(2.97738 -1.76891 0)
(2.9774 -1.76889 0)
(2.97751 -1.7688 0)
(2.97754 -1.76876 0)
(2.97754 -1.76879 0)
(2.97769 -1.76874 0)
(2.97785 -1.76867 0)
(2.97785 -1.76867 0)
(2.97786 -1.76868 0)
(2.97784 -1.76861 0)
(2.97779 -1.76846 0)
(2.97779 -1.76837 0)
(2.97775 -1.76833 0)
(2.97771 -1.76829 0)
(2.97762 -1.76831 0)
(2.97752 -1.76832 0)
(2.97736 -1.76842 0)
(2.97725 -1.76843 0)
(2.97721 -1.76837 0)
(2.97723 -1.76829 0)
(2.97723 -1.76825 0)
(2.97724 -1.76823 0)
(2.97724 -1.76824 0)
(2.97726 -1.7683 0)
(2.97727 -1.76831 0)
(2.97729 -1.76823 0)
(2.97738 -1.76802 0)
(2.97748 -1.76779 0)
(2.97744 -1.76782 0)
(2.97745 -1.76763 0)
(2.97758 -1.76721 0)
(2.97758 -1.76717 0)
(2.97748 -1.76706 0)
(2.97719 -1.76705 0)
(2.97698 -1.76708 0)
(2.97683 -1.76731 0)
(2.97626 -1.76819 0)
(2.97609 -1.76819 0)
(2.97611 -1.76767 0)
(2.97563 -1.76762 0)
(2.97467 -1.76834 0)
(2.97442 -1.76858 0)
(2.9741 -1.76886 0)
(2.97522 -1.76778 0)
(2.97573 -1.76744 0)
(2.97581 -1.7677 0)
(2.97457 -1.76146 0)
(2.89529 -1.52765 0)
(2.7187 -0.980736 0)
(2.48861 -0.351684 0)
(2.46038 -0.0883623 0)
(2.32026 0.165351 0)
(2.28289 0.188115 0)
(2.28619 0.219485 0)
(2.28441 0.210715 0)
(2.28427 0.199493 0)
(2.28236 0.191173 0)
(2.28298 0.188308 0)
(2.28464 0.190476 0)
(2.28151 0.195333 0)
(2.27797 0.195024 0)
(2.27121 0.18968 0)
(2.2664 0.182761 0)
(2.26215 0.174171 0)
(2.25961 0.171481 0)
(2.25693 0.168414 0)
(2.25525 0.165843 0)
(2.25223 0.161164 0)
(2.2491 0.15764 0)
(2.24726 0.152907 0)
(2.24535 0.152212 0)
(2.24494 0.149976 0)
(2.24541 0.145955 0)
(2.24805 0.143788 0)
(2.25356 0.140508 0)
(2.26113 0.136639 0)
(2.27179 0.135559 0)
(2.28624 0.122389 0)
(2.30146 0.127856 0)
(2.32194 0.132938 0)
(2.34673 0.130799 0)
(2.37239 0.138851 0)
(2.40128 0.131861 0)
(2.43228 0.121147 0)
(2.4643 0.121081 0)
(2.49666 0.124463 0)
(2.5286 0.115311 0)
(2.56145 0.111644 0)
(2.58762 0.121809 0)
(2.63057 0.121103 0)
(2.97725 -1.76913 0)
(2.97728 -1.76909 0)
(2.97731 -1.76908 0)
(2.97734 -1.76909 0)
(2.97736 -1.7691 0)
(2.97736 -1.76911 0)
(2.9774 -1.7691 0)
(2.97743 -1.76898 0)
(2.97747 -1.7689 0)
(2.97751 -1.76887 0)
(2.97752 -1.76886 0)
(2.97751 -1.76885 0)
(2.97758 -1.7688 0)
(2.97767 -1.76868 0)
(2.97766 -1.76862 0)
(2.97773 -1.76851 0)
(2.97785 -1.76851 0)
(2.97787 -1.76849 0)
(2.97788 -1.76845 0)
(2.97784 -1.76841 0)
(2.97777 -1.76834 0)
(2.97773 -1.7682 0)
(2.97769 -1.76811 0)
(2.97757 -1.76812 0)
(2.97742 -1.76817 0)
(2.9773 -1.76818 0)
(2.97717 -1.76823 0)
(2.97709 -1.76819 0)
(2.97706 -1.76807 0)
(2.97707 -1.76804 0)
(2.97711 -1.76802 0)
(2.97717 -1.76801 0)
(2.97729 -1.76792 0)
(2.97745 -1.76773 0)
(2.97743 -1.76771 0)
(2.97744 -1.76763 0)
(2.97757 -1.76737 0)
(2.97753 -1.76731 0)
(2.97748 -1.76731 0)
(2.97751 -1.7672 0)
(2.97749 -1.76705 0)
(2.97743 -1.76695 0)
(2.97703 -1.767 0)
(2.9763 -1.76747 0)
(2.97612 -1.76749 0)
(2.97558 -1.76819 0)
(2.97537 -1.76856 0)
(2.97535 -1.76837 0)
(2.97549 -1.76791 0)
(2.97515 -1.76766 0)
(2.97476 -1.76795 0)
(2.97429 -1.76845 0)
(2.97418 -1.76867 0)
(2.97562 -1.76777 0)
(2.97632 -1.76667 0)
(2.97611 -1.76633 0)
(2.97614 -1.76573 0)
(2.97626 -1.76537 0)
(2.97632 -1.76545 0)
(2.93907 -1.68435 0)
(2.80985 -1.26284 0)
(2.58563 -0.610607 0)
(2.53173 -0.245391 0)
(2.34031 0.116329 0)
(2.31778 0.142645 0)
(2.29751 0.176294 0)
(2.29158 0.185124 0)
(2.29033 0.193385 0)
(2.29029 0.201494 0)
(2.28621 0.198328 0)
(2.28011 0.188545 0)
(2.2729 0.179103 0)
(2.27054 0.174 0)
(2.26753 0.170636 0)
(2.26469 0.169707 0)
(2.26058 0.166899 0)
(2.25656 0.16219 0)
(2.25244 0.155781 0)
(2.24937 0.152223 0)
(2.24704 0.148762 0)
(2.24491 0.147162 0)
(2.24136 0.143911 0)
(2.23821 0.140149 0)
(2.23689 0.13583 0)
(2.23631 0.134566 0)
(2.23566 0.134122 0)
(2.23515 0.134432 0)
(2.23937 0.13221 0)
(2.24483 0.122082 0)
(2.25249 0.12083 0)
(2.2631 0.120111 0)
(2.27811 0.112703 0)
(2.29296 0.118572 0)
(2.31299 0.117599 0)
(2.33642 0.108971 0)
(2.36306 0.109886 0)
(2.38988 0.121623 0)
(2.4221 0.116278 0)
(2.45029 0.102824 0)
(2.50002 0.102768 0)
(2.97758 -1.76875 0)
(2.97758 -1.76872 0)
(2.97758 -1.76873 0)
(2.97758 -1.76877 0)
(2.97763 -1.76875 0)
(2.97766 -1.76868 0)
(2.97765 -1.76866 0)
(2.97762 -1.76867 0)
(2.97759 -1.76862 0)
(2.97757 -1.76852 0)
(2.97755 -1.76842 0)
(2.97754 -1.76838 0)
(2.97753 -1.76837 0)
(2.97753 -1.76835 0)
(2.97754 -1.76833 0)
(2.97755 -1.76835 0)
(2.97757 -1.76835 0)
(2.97759 -1.76831 0)
(2.97762 -1.76824 0)
(2.97759 -1.76819 0)
(2.97749 -1.76817 0)
(2.97743 -1.76809 0)
(2.97738 -1.768 0)
(2.9773 -1.76794 0)
(2.97718 -1.76795 0)
(2.97713 -1.76798 0)
(2.97708 -1.76796 0)
(2.97708 -1.76794 0)
(2.97705 -1.76792 0)
(2.9771 -1.76782 0)
(2.97724 -1.76761 0)
(2.97733 -1.76737 0)
(2.97756 -1.76694 0)
(2.97753 -1.7671 0)
(2.9775 -1.76712 0)
(2.97748 -1.76713 0)
(2.97745 -1.76715 0)
(2.97745 -1.76713 0)
(2.97739 -1.76709 0)
(2.9773 -1.7671 0)
(2.97714 -1.76711 0)
(2.97691 -1.76703 0)
(2.97608 -1.76739 0)
(2.97533 -1.76771 0)
(2.97488 -1.76813 0)
(2.97463 -1.76857 0)
(2.97465 -1.76862 0)
(2.97492 -1.76851 0)
(2.97511 -1.76801 0)
(2.97509 -1.76729 0)
(2.97502 -1.7671 0)
(2.97478 -1.76775 0)
(2.97467 -1.76835 0)
(2.97639 -1.76726 0)
(2.97656 -1.76616 0)
(2.97605 -1.7658 0)
(2.97604 -1.76536 0)
(2.97615 -1.76522 0)
(2.97587 -1.76498 0)
(2.97489 -1.76489 0)
(2.97301 -1.76408 0)
(2.96881 -1.76722 0)
(2.88566 -1.50148 0)
(2.63115 -0.799257 0)
(2.57946 -0.35904 0)
(2.34541 0.104862 0)
(2.29956 0.159292 0)
(2.29013 0.226588 0)
(2.28742 0.213914 0)
(2.28943 0.198605 0)
(2.2843 0.180339 0)
(2.28362 0.179697 0)
(2.28036 0.177189 0)
(2.27603 0.17448 0)
(2.27239 0.170227 0)
(2.26719 0.164363 0)
(2.26286 0.159324 0)
(2.25794 0.153835 0)
(2.25449 0.151328 0)
(2.2509 0.148207 0)
(2.24651 0.142718 0)
(2.24226 0.138364 0)
(2.23888 0.135551 0)
(2.23686 0.132843 0)
(2.2354 0.13225 0)
(2.23233 0.128881 0)
(2.22901 0.125482 0)
(2.22685 0.125824 0)
(2.22795 0.12436 0)
(2.22883 0.118736 0)
(2.22952 0.11756 0)
(2.23429 0.11714 0)
(2.23986 0.11052 0)
(2.24633 0.113161 0)
(2.25686 0.113927 0)
(2.2716 0.101864 0)
(2.28996 0.0974126 0)
(2.30748 0.111838 0)
(2.32856 0.115911 0)
(2.37092 0.105927 0)
(2.97763 -1.76843 0)
(2.97762 -1.76843 0)
(2.97762 -1.76843 0)
(2.9776 -1.76843 0)
(2.97757 -1.76846 0)
(2.97754 -1.76846 0)