/*--------------------------------*- C++ -*----------------------------------*\
  =========                 |
  \\      /  F ield         | OpenFOAM: The Open Source CFD Toolbox
   \\    /   O peration     | Website:  https://openfoam.org
    \\  /    A nd           | Version:  7
     \\/     M anipulation  |
\*---------------------------------------------------------------------------*/
FoamFile
{
    version     2.0;
    format      ascii;
    class       volScalarField;
    location    "5";
    object      p;
}
// * * * * * * * * * * * * * * * * * * * * * * * * * * * * * * * * * * * * * //

dimensions      [1 -1 -2 0 0 0 0];

internalField   nonuniform List<scalar> 
90000
(
2.93845
2.49658
2.15876
1.8474
1.54437
1.3989
1.28766
1.14613
1.07082
1.03146
0.97494
0.930698
0.899406
0.873803
0.848042
0.823948
0.802616
0.779353
0.761869
0.743069
0.729062
0.720936
0.705695
0.69635
0.697303
0.699653
0.707176
0.721985
0.742714
0.764764
0.785943
0.798477
0.806161
0.809354
0.807716
0.802654
0.794197
0.783687
0.775245
0.771534
0.770647
0.773384
0.77702
0.78182
0.786539
0.791438
0.796839
0.8017
0.804992
0.808624
0.80954
0.809406
0.806936
0.802973
0.79905
0.795062
0.790895
0.78726
0.784757
0.785529
0.789999
0.795879
0.801248
0.802168
0.7977
0.790604
0.783611
0.782455
0.785943
0.789887
0.793577
0.79143
0.786159
0.782465
0.78612
0.788886
0.79119
0.787467
0.783258
0.784699
0.790061
0.793599
0.794057
0.79659
0.80453
0.812825
0.819435
0.824067
0.826789
0.834054
0.835177
0.83923
0.844049
0.843769
0.847636
0.850647
0.853703
0.85723
0.860529
0.85972
3.28083
3.22974
3.10795
2.9203
2.6729
2.39611
2.14471
1.91678
1.70087
1.53491
1.39278
1.26282
1.15642
1.06802
0.990068
0.928717
0.870156
0.825085
0.788546
0.755203
0.738051
0.725364
0.710573
0.711292
0.71873
0.729589
0.738142
0.748716
0.755948
0.758845
0.761141
0.759508
0.759088
0.763009
0.766764
0.768155
0.770964
0.778624
0.786148
0.792654
0.792396
0.789973
0.786055
0.782291
0.780018
0.779615
0.782799
0.787771
0.792313
0.796884
0.799931
0.802441
0.804716
0.807636
0.808355
0.806475
0.801848
0.794057
0.787197
0.782646
0.782502
0.786141
0.792614
0.796408
0.798229
0.797
0.790998
0.783666
0.783463
0.784991
0.789998
0.791004
0.78902
0.783604
0.784318
0.786681
0.790007
0.789169
0.784925
0.784466
0.787738
0.792696
0.793699
0.796093
0.801155
0.809569
0.815508
0.822606
0.824511
0.831698
0.833795
0.837167
0.842908
0.842819
0.846601
0.849535
0.851851
0.855588
0.860075
0.859476
3.29057
3.28918
3.28223
3.25783
3.19623
3.08522
2.92085
2.7143
2.49384
2.26409
2.05757
1.86427
1.69126
1.54775
1.41839
1.31573
1.22525
1.14744
1.08356
1.02837
0.979913
0.941282
0.90142
0.870327
0.840115
0.814382
0.790087
0.771669
0.754491
0.742294
0.732495
0.727634
0.727738
0.730603
0.736547
0.741351
0.750214
0.763698
0.773049
0.778686
0.779546
0.780132
0.780976
0.782106
0.783082
0.784245
0.785931
0.788222
0.790091
0.790892
0.792061
0.79388
0.796673
0.800683
0.803811
0.806211
0.805862
0.802965
0.797382
0.78971
0.782876
0.783671
0.786059
0.79111
0.795593
0.796364
0.795202
0.790064
0.784883
0.784466
0.786316
0.789744
0.789905
0.787197
0.785066
0.785535
0.788288
0.789219
0.787111
0.785214
0.786409
0.790608
0.793079
0.795442
0.798712
0.805412
0.812172
0.820191
0.822429
0.828745
0.832418
0.835138
0.841368
0.841888
0.845546
0.848355
0.849882
0.853685
0.858825
0.859015
3.29038
3.28994
3.28945
3.28839
3.28449
3.27101
3.23738
3.16607
3.05336
2.89692
2.70849
2.50754
2.30606
2.11199
1.93741
1.77812
1.63769
1.51273
1.40343
1.30682
1.22125
1.14643
1.0784
1.018
0.963252
0.91538
0.871624
0.835786
0.802781
0.77894
0.758215
0.746319
0.737067
0.737505
0.739954
0.745715
0.752117
0.755627
0.75824
0.760334
0.763345
0.767509
0.771094
0.774256
0.777533
0.780602
0.782731
0.784563
0.786219
0.786754
0.787567
0.789269
0.791863
0.795488
0.799735
0.803323
0.803618
0.802899
0.8018
0.798316
0.791586
0.785603
0.784892
0.786105
0.79037
0.794786
0.79488
0.79373
0.788839
0.785161
0.785306
0.787201
0.789617
0.789006
0.786717
0.785857
0.78675
0.788908
0.78826
0.786271
0.786265
0.788516
0.792407
0.794404
0.796282
0.800217
0.807406
0.815463
0.819954
0.825376
0.830865
0.832727
0.839258
0.840586
0.843933
0.847128
0.847919
0.851131
0.856111
0.858066
3.29
3.2898
3.28957
3.28918
3.28869
3.28788
3.28572
3.27779
3.25637
3.20857
3.126
3.00186
2.8449
2.66726
2.47907
2.29383
2.12103
1.95722
1.81112
1.67913
1.5608
1.45425
1.36132
1.27672
1.20246
1.13622
1.07716
1.025
0.977962
0.937412
0.898867
0.867699
0.836084
0.813551
0.79205
0.77711
0.763083
0.754238
0.745873
0.744377
0.745758
0.749281
0.753969
0.762529
0.770524
0.776051
0.778533
0.779982
0.781137
0.781505
0.782571
0.785111
0.788123
0.791235
0.794329
0.796844
0.79903
0.800718
0.802307
0.801942
0.798918
0.79185
0.785526
0.785796
0.787017
0.790252
0.793467
0.793718
0.792545
0.788498
0.785942
0.786131
0.78822
0.789266
0.788555
0.786701
0.786442
0.787784
0.78811
0.787287
0.786448
0.787235
0.790283
0.792409
0.794346
0.796296
0.802253
0.81017
0.817582
0.822037
0.829179
0.83045
0.836742
0.839255
0.842255
0.84602
0.846136
0.848387
0.852886
0.856594
3.28937
3.28918
3.28898
3.28877
3.28847
3.28807
3.28731
3.28661
3.28515
3.28006
3.26535
3.23084
3.16579
3.06498
2.93029
2.76869
2.59717
2.42074
2.25094
2.09034
1.94331
1.80666
1.6843
1.57237
1.47218
1.38005
1.29841
1.22272
1.15518
1.09286
1.03639
0.98472
0.937366
0.895636
0.856594
0.825644
0.796982
0.779242
0.764751
0.759087
0.755227
0.756487
0.760007
0.760934
0.761418
0.762233
0.76423
0.767202
0.770993
0.775372
0.779603
0.782901
0.785617
0.787537
0.788384
0.790112
0.793166
0.797628
0.801713
0.801784
0.801031
0.797631
0.791602
0.788641
0.786648
0.786941
0.789329
0.792533
0.792494
0.791424
0.788147
0.786475
0.78691
0.788619
0.788507
0.787702
0.786693
0.786789
0.787783
0.78723
0.786402
0.786238
0.787864
0.790036
0.792656
0.793546
0.797727
0.804653
0.813966
0.818547
0.826777
0.828419
0.834023
0.83706
0.839874
0.844411
0.845068
0.846444
0.84949
0.853765
3.28887
3.28865
3.28845
3.28823
3.28802
3.28778
3.28746
3.28704
3.28639
3.28579
3.28463
3.28141
3.27045
3.24322
3.18982
3.10238
2.98281
2.83581
2.67429
2.50701
2.34285
2.18572
2.03975
1.90309
1.77968
1.66468
1.56168
1.46617
1.38072
1.30117
1.2307
1.16466
1.10647
1.05223
1.0039
0.960101
0.919842
0.885732
0.8526
0.82841
0.804607
0.788934
0.774761
0.765326
0.757004
0.754353
0.754929
0.756704
0.75993
0.766125
0.772125
0.775972
0.778646
0.779887
0.781935
0.784781
0.789046
0.793157
0.796809
0.799172
0.799442
0.799286
0.797784
0.79328
0.788366
0.787275
0.787296
0.789085
0.791641
0.79134
0.790203
0.787779
0.786748
0.787137
0.787945
0.78768
0.786923
0.786596
0.787013
0.786903
0.786219
0.785498
0.785876
0.787473
0.790152
0.79167
0.794856
0.800512
0.809538
0.815243
0.823454
0.826444
0.831345
0.834616
0.837494
0.842135
0.843986
0.84497
0.846979
0.850684
3.2882
3.288
3.2878
3.28759
3.28738
3.28717
3.28696
3.28671
3.28639
3.28594
3.28534
3.28424
3.28325
3.28073
3.27197
3.24903
3.20239
3.12429
3.01386
2.87702
2.72401
2.5634
2.40547
2.25183
2.10834
1.97352
1.84983
1.73458
1.63013
1.53244
1.44461
1.362
1.28815
1.21806
1.15565
1.09593
1.04253
0.991743
0.945708
0.903972
0.865789
0.834741
0.805779
0.787646
0.7723
0.766895
0.762207
0.762971
0.764844
0.764784
0.76378
0.764503
0.766803
0.770859
0.775962
0.781079
0.785243
0.787657
0.79028
0.792932
0.796224
0.799179
0.798838
0.797438
0.793583
0.789478
0.78732
0.787684
0.789255
0.790495
0.790126
0.789048
0.787475
0.786704
0.786852
0.787328
0.786965
0.78656
0.786424
0.786502
0.78596
0.78511
0.784852
0.78551
0.787508
0.789941
0.792685
0.797327
0.804717
0.811855
0.819143
0.824435
0.828862
0.832221
0.83478
0.838909
0.842551
0.844105
0.845826
0.848673
3.2876
3.28741
3.28721
3.28702
3.28681
3.2866
3.28638
3.28617
3.28595
3.28569
3.28539
3.28486
3.28424
3.28325
3.28237
3.28014
3.27218
3.25131
3.20797
3.13473
3.03031
2.89949
2.75265
2.59816
2.44455
2.29544
2.15496
2.02224
1.89996
1.78534
1.68071
1.58253
1.49375
1.4098
1.33462
1.26294
1.19926
1.138
1.08406
1.0322
0.986501
0.944372
0.905969
0.873998
0.842601
0.820758
0.798396
0.784916
0.772107
0.764567
0.759293
0.759329
0.760206
0.762561
0.767306
0.772023
0.775436
0.77867
0.782071
0.78649
0.791553
0.795997
0.79783
0.797295
0.796296
0.793381
0.790098
0.78877
0.787911
0.788364
0.78925
0.789056
0.788173
0.786957
0.786638
0.786886
0.786898
0.786633
0.786167
0.785989
0.785647
0.78501
0.78455
0.784671
0.785875
0.78856
0.791068
0.79509
0.800669
0.808433
0.814656
0.822149
0.825973
0.829946
0.832126
0.835851
0.840851
0.842932
0.845078
0.847623
3.287
3.28682
3.28664
3.28646
3.28628
3.28609
3.28588
3.28568
3.28548
3.28524
3.28502
3.28477
3.28441
3.28384
3.28317
3.28215
3.28125
3.27905
3.27128
3.25086
3.2085
3.13702
3.03496
2.90789
2.76503
2.61503
2.46587
2.32083
2.18351
2.05375
1.93335
1.82006
1.71624
1.61836
1.52926
1.44493
1.36872
1.29583
1.23054
1.16734
1.1109
1.05609
1.00708
0.960348
0.917915
0.88015
0.845103
0.818514
0.793738
0.780721
0.7692
0.767154
0.765658
0.766819
0.766075
0.765025
0.766192
0.769475
0.774605
0.780498
0.785499
0.7898
0.793463
0.795748
0.795304
0.795299
0.793991
0.790949
0.788574
0.787671
0.788057
0.788547
0.788174
0.787328
0.786825
0.78675
0.786784
0.786535
0.785921
0.785475
0.78531
0.784865
0.78441
0.784307
0.784802
0.786946
0.789307
0.792771
0.796852
0.803937
0.809705
0.818522
0.822821
0.828082
0.830052
0.833089
0.837998
0.84119
0.844594
0.847294
3.28653
3.28636
3.28618
3.28598
3.28579
3.28559
3.28538
3.28517
3.28495
3.28472
3.28448
3.28425
3.284
3.28371
3.28333
3.28278
3.28215
3.28117
3.2802
3.27784
3.26957
3.24842
3.20486
3.13268
3.03043
2.90488
2.76436
2.61823
2.47273
2.33161
2.19786
2.07099
1.95293
1.84173
1.73898
1.64223
1.55339
1.46944
1.39286
1.32001
1.25405
1.19068
1.13392
1.07893
1.03033
0.983648
0.942315
0.905224
0.870601
0.843833
0.815657
0.799158
0.782525
0.773321
0.764548
0.762085
0.762363
0.763633
0.766399
0.770014
0.774076
0.778638
0.784036
0.7898
0.7932
0.795938
0.795564
0.794005
0.790768
0.788771
0.788086
0.787952
0.787879
0.787649
0.78732
0.786789
0.786508
0.786166
0.785487
0.785059
0.784826
0.784684
0.784418
0.784148
0.784048
0.785049
0.786942
0.789855
0.793437
0.799336
0.805313
0.813882
0.820073
0.825789
0.827729
0.830651
0.835216
0.839375
0.843614
0.846764
3.28577
3.28559
3.28546
3.28536
3.28522
3.28505
3.28484
3.28462
3.28438
3.28414
3.2839
3.28365
3.28341
3.28317
3.28293
3.28261
3.28222
3.28171
3.281
3.27986
3.27875
3.27553
3.26592
3.24274
3.19645
3.12159
3.01764
2.892
2.75323
2.60993
2.46814
2.33075
2.20037
2.07682
1.96115
1.85234
1.75094
1.65583
1.56744
1.48453
1.40778
1.33539
1.26896
1.20536
1.14767
1.0917
1.04131
0.992538
0.948649
0.907672
0.870113
0.838995
0.810028
0.792429
0.776541
0.771821
0.767469
0.768294
0.76774
0.765638
0.766177
0.768961
0.77476
0.781745
0.788909
0.794138
0.794589
0.793163
0.792666
0.791082
0.789237
0.788055
0.787736
0.787895
0.787649
0.786909
0.786263
0.785695
0.785138
0.784792
0.784528
0.784599
0.784381
0.783822
0.783193
0.783421
0.78449
0.786618
0.789912
0.794607
0.800742
0.808188
0.81638
0.822927
0.825645
0.829123
0.832841
0.836389
0.84084
0.845536
3.28549
3.28533
3.28514
3.28493
3.2847
3.28443
3.28418
3.28393
3.28369
3.28345
3.28318
3.28292
3.28266
3.28242
3.28229
3.28208
3.28178
3.28148
3.28102
3.28035
3.27945
3.27858
3.27718
3.27313
3.26156
3.23499
3.18391
3.10443
2.99714
2.87054
2.73301
2.59226
2.45386
2.32022
2.19309
2.07299
1.95966
1.85361
1.75365
1.66051
1.57301
1.49133
1.41511
1.34349
1.27715
1.21421
1.15649
1.10112
1.05132
1.00313
0.960801
0.920841
0.885033
0.855585
0.826039
0.80715
0.787317
0.777178
0.767198
0.763809
0.763895
0.764775
0.76705
0.770795
0.776525
0.782895
0.788264
0.791495
0.793688
0.793244
0.791585
0.789268
0.788468
0.788136
0.787667
0.786794
0.785999
0.785441
0.785141
0.784811
0.784415
0.784374
0.784019
0.783175
0.782246
0.781824
0.782201
0.783594
0.786488
0.790536
0.796341
0.80318
0.81181
0.819756
0.823184
0.827208
0.830582
0.833306
0.837935
0.844075
3.28481
3.28464
3.28445
3.28423
3.28403
3.28387
3.2837
3.28349
3.28327
3.28304
3.2828
3.28255
3.2823
3.28202
3.28171
3.28141
3.28113
3.28085
3.28052
3.28006
3.27945
3.27878
3.27795
3.277
3.27506
3.26979
3.25548
3.22413
3.16682
3.08105
2.96978
2.84152
2.70486
2.56692
2.43132
2.30173
2.17751
2.06099
1.95014
1.84675
1.74874
1.65751
1.57138
1.49121
1.41567
1.34525
1.2792
1.21693
1.15935
1.10383
1.05363
1.0044
0.960575
0.918361
0.880554
0.847646
0.817365
0.79721
0.779299
0.773536
0.768563
0.769141
0.768482
0.766881
0.767935
0.772244
0.779926
0.787882
0.792905
0.792654
0.79119
0.790835
0.78988
0.788725
0.787591
0.786522
0.785891
0.785476
0.7853
0.784985
0.784518
0.784117
0.783563
0.782587
0.781603
0.780783
0.780728
0.781591
0.783547
0.787088
0.791999
0.798382
0.806158
0.815025
0.819673
0.824601
0.828846
0.8307
0.834209
0.840868
3.28422
3.28404
3.28386
3.28366
3.28349
3.28333
3.28313
3.28293
3.28272
3.28248
3.28224
3.28201
3.28175
3.28145
3.28114
3.28079
3.2804
3.27992
3.27942
3.27898
3.27852
3.27802
3.27742
3.27666
3.27569
3.27442
3.27179
3.26476
3.24656
3.20885
3.14369
3.05117
2.93515
2.80601
2.66972
2.53477
2.40202
2.2762
2.15516
2.04193
1.93389
1.83319
1.73722
1.64835
1.56359
1.48524
1.41089
1.34153
1.27664
1.21489
1.15824
1.1032
1.05415
1.00559
0.963774
0.922864
0.8874
0.85676
0.827017
0.807584
0.78724
0.777299
0.767962
0.765625
0.76581
0.766949
0.770407
0.776098
0.782888
0.787249
0.790171
0.791692
0.791303
0.789959
0.787752
0.786657
0.786032
0.785621
0.785481
0.785201
0.784745
0.784067
0.783108
0.782171
0.781274
0.780402
0.780142
0.780638
0.781677
0.784227
0.788126
0.793884
0.80071
0.809506
0.816433
0.821661
0.826561
0.828082
0.830866
0.837382
3.28346
3.28327
3.28308
3.28289
3.28269
3.28249
3.28228
3.28207
3.28185
3.28161
3.28137
3.28112
3.28084
3.28052
3.28018
3.27981
3.2794
3.27901
3.27863
3.27824
3.27783
3.27743
3.27694
3.27633
3.2756
3.2747
3.27356
3.27187
3.26815
3.25845
3.23485
3.18912
3.11475
3.01489
2.89406
2.76395
2.62864
2.49641
2.36709
2.24478
2.12713
2.01746
1.91199
1.81438
1.72062
1.63395
1.55136
1.47422
1.40175
1.33311
1.26954
1.20831
1.15264
1.09776
1.04924
1.00021
0.957828
0.91552
0.878618
0.845711
0.815536
0.79606
0.778513
0.774143
0.770037
0.770308
0.769187
0.769373
0.772499
0.779886
0.787379
0.79117
0.790761
0.789358
0.788283
0.78737
0.786508
0.785786
0.785538
0.785385
0.78495
0.784108
0.782889
0.781988
0.781083
0.780198
0.779768
0.7799
0.780391
0.781673
0.784555
0.78901
0.795509
0.803093
0.811588
0.817112
0.822921
0.826025
0.828963
0.834726
3.28248
3.28226
3.28203
3.2818
3.28157
3.28134
3.28109
3.28085
3.28059
3.28033
3.28005
3.27975
3.27943
3.27909
3.27872
3.27834
3.27796
3.27757
3.27717
3.27675
3.27633
3.27589
3.27541
3.2749
3.27436
3.27366
3.2729
3.27203
3.27077
3.26843
3.26291
3.24913
3.21803
3.16276
3.07852
2.97144
2.84699
2.71615
2.58264
2.45351
2.32744
2.20912
2.0948
1.98844
1.88623
1.79086
1.70028
1.61505
1.53503
1.45907
1.38843
1.32084
1.25873
1.19839
1.14404
1.09
1.04299
0.99485
0.95482
0.914208
0.880031
0.850294
0.820747
0.802806
0.784095
0.775625
0.768098
0.767257
0.768167
0.771521
0.776979
0.783361
0.786337
0.788235
0.788948
0.788438
0.787311
0.7862
0.785816
0.785542
0.784995
0.784052
0.782823
0.781834
0.780851
0.779931
0.779397
0.779162
0.779124
0.77935
0.781331
0.784379
0.790388
0.797134
0.805682
0.812534
0.818925
0.823868
0.826895
0.83227
3.28144
3.28119
3.28094
3.28069
3.28044
3.28019
3.27993
3.27966
3.27939
3.2791
3.2788
3.27848
3.27814
3.27778
3.27739
3.27701
3.27662
3.27621
3.27579
3.27535
3.2749
3.2744
3.27388
3.27336
3.2728
3.2722
3.27157
3.27088
3.27019
3.2693
3.26767
3.26433
3.25604
3.23643
3.19616
3.12968
3.03585
2.92191
2.79477
2.6642
2.53295
2.40704
2.28494
2.16976
2.05968
1.95555
1.85728
1.76363
1.67617
1.59257
1.51488
1.44034
1.37158
1.3053
1.24465
1.1855
1.13228
1.0791
1.03275
0.984923
0.944556
0.903393
0.867731
0.836329
0.807232
0.790866
0.77611
0.772864
0.772215
0.771799
0.771239
0.773772
0.779844
0.785796
0.788618
0.788047
0.787016
0.786782
0.78632
0.785648
0.78488
0.78391
0.782829
0.781747
0.780619
0.779516
0.778999
0.778429
0.777859
0.777391
0.7785
0.780519
0.78491
0.791418
0.799212
0.807777
0.814035
0.820078
0.824053
0.829918
3.28013
3.2799
3.27965
3.27939
3.27911
3.27882
3.27852
3.27821
3.27789
3.27757
3.27724
3.27691
3.27656
3.27619
3.2758
3.27539
3.27498
3.27455
3.2741
3.27365
3.27317
3.27267
3.27215
3.2716
3.27103
3.27046
3.26989
3.2693
3.2687
3.26817
3.26761
3.26655
3.26433
3.2594
3.24705
3.21965
3.16835
3.09011
2.98658
2.86723
2.73829
2.60871
2.48072
2.35761
2.24011
2.12743
2.02175
1.9198
1.82518
1.73354
1.64899
1.56706
1.49175
1.41882
1.35199
1.28733
1.22808
1.17071
1.11859
1.06711
1.02188
0.975949
0.937175
0.898555
0.865053
0.83768
0.809792
0.794526
0.779495
0.772041
0.769765
0.770275
0.772508
0.776729
0.78209
0.784462
0.786424
0.787251
0.78685
0.785772
0.784794
0.783799
0.782925
0.781789
0.780556
0.779521
0.778447
0.777706
0.776816
0.775974
0.776342
0.777524
0.780125
0.786007
0.793008
0.802024
0.808689
0.815761
0.821192
0.827554
3.27849
3.27826
3.27801
3.27775
3.27747
3.27718
3.27688
3.27657
3.27625
3.27592
3.27558
3.27523
3.27487
3.2745
3.27411
3.2737
3.27328
3.27284
3.27239
3.27192
3.27144
3.27094
3.27043
3.26988
3.26931
3.26875
3.26817
3.26758
3.267
3.26644
3.26592
3.26543
3.26484
3.26343
3.26024
3.25273
3.23441
3.1969
3.13308
3.04286
2.93129
2.80747
2.67882
2.55054
2.42649
2.30607
2.19297
2.08315
1.98111
1.88197
1.79024
1.70097
1.61892
1.53918
1.46597
1.39538
1.3302
1.26767
1.20991
1.15411
1.10294
1.05279
1.00762
0.962475
0.922631
0.88414
0.849121
0.821569
0.795522
0.783228
0.773909
0.774499
0.773887
0.772598
0.774509
0.779723
0.784547
0.78669
0.786256
0.785678
0.784896
0.783956
0.782966
0.781785
0.780545
0.779457
0.778308
0.777012
0.775993
0.775055
0.774751
0.775238
0.776391
0.780516
0.786676
0.795013
0.803169
0.811402
0.817191
0.824314
3.27717
3.27693
3.27667
3.27641
3.27613
3.27585
3.27555
3.27523
3.27491
3.27456
3.27421
3.27384
3.27347
3.2731
3.27272
3.27234
3.27197
3.27157
3.27115
3.27072
3.27026
3.26979
3.2693
3.26877
3.26823
3.26768
3.26707
3.26649
3.26589
3.26528
3.26469
3.2642
3.26379
3.26341
3.26251
3.26045
3.25567
3.24371
3.21681
3.16669
3.08965
2.98826
2.87066
2.74412
2.61707
2.49055
2.37049
2.25326
2.14383
2.03728
1.93833
1.84204
1.75288
1.66668
1.58649
1.51006
1.43852
1.37068
1.30707
1.2468
1.18991
1.13629
1.08565
1.03716
0.993078
0.949843
0.912078
0.876975
0.844784
0.821595
0.796073
0.784772
0.774887
0.771398
0.771859
0.773833
0.777413
0.781895
0.783504
0.785117
0.784911
0.784139
0.782928
0.781843
0.780708
0.77947
0.77809
0.776729
0.775211
0.774254
0.773484
0.773422
0.773596
0.775881
0.780825
0.788432
0.797098
0.806204
0.812131
0.820154
3.27608
3.27584
3.27559
3.27532
3.27505
3.27476
3.27446
3.27415
3.27382
3.27347
3.27311
3.27273
3.27233
3.27193
3.27151
3.27109
3.27068
3.27023
3.26978
3.26933
3.26885
3.26836
3.26785
3.26734
3.26682
3.26629
3.26577
3.26526
3.26475
3.2642
3.26371
3.26324
3.26278
3.26238
3.26202
3.26152
3.2603
3.25741
3.24992
3.23103
3.19288
3.128
3.03842
2.927
2.80598
2.67781
2.55331
2.42918
2.3129
2.19892
2.09306
1.98975
1.89345
1.80095
1.71378
1.63138
1.55328
1.47995
1.41006
1.34508
1.28218
1.22457
1.16826
1.11625
1.06648
1.01895
0.975612
0.932867
0.895093
0.859604
0.827271
0.803217
0.784196
0.776879
0.776095
0.775138
0.773553
0.775225
0.779571
0.783643
0.784046
0.783586
0.782881
0.782229
0.781068
0.779481
0.777882
0.776573
0.77513
0.773394
0.772331
0.771786
0.771356
0.772396
0.775562
0.781374
0.789432
0.799715
0.807207
0.816368
3.27511
3.27487
3.27461
3.27435
3.27407
3.27378
3.27348
3.27317
3.27284
3.2725
3.27214
3.27177
3.27139
3.27099
3.27058
3.27014
3.26969
3.2692
3.26873
3.26824
3.26773
3.26723
3.26671
3.26619
3.26567
3.26512
3.26458
3.26404
3.26348
3.26291
3.2624
3.26187
3.26138
3.26093
3.26048
3.26011
3.25971
3.25893
3.25731
3.2528
3.24045
3.21155
3.15968
3.08003
2.97898
2.86054
2.73718
2.60948
2.4875
2.36675
2.25364
2.1439
2.04047
1.94166
1.84775
1.75914
1.67465
1.59546
1.5193
1.44899
1.38031
1.31785
1.25629
1.20001
1.14546
1.09429
1.04678
1.00024
0.959649
0.918464
0.884061
0.851309
0.822466
0.802124
0.785925
0.775923
0.772353
0.772748
0.774575
0.777308
0.779981
0.781916
0.782861
0.782439
0.781349
0.779507
0.777992
0.776643
0.775027
0.773022
0.771393
0.770332
0.769417
0.769685
0.771323
0.775083
0.782241
0.792911
0.801575
0.812374
3.27419
3.27395
3.27369
3.27343
3.27316
3.27287
3.27256
3.27225
3.27193
3.27159
3.27124
3.27088
3.27049
3.27009
3.26966
3.26923
3.26877
3.26831
3.26783
3.26733
3.26682
3.2663
3.26577
3.26524
3.26468
3.26411
3.26356
3.26297
3.26238
3.2618
3.26123
3.26063
3.2601
3.25954
3.25897
3.25851
3.25812
3.25763
3.25685
3.25564
3.25313
3.24513
3.22497
3.1832
3.1164
3.02269
2.91243
2.78924
2.66498
2.53995
2.42025
2.30426
2.19365
2.08874
1.98799
1.89346
1.80212
1.7174
1.63457
1.55898
1.4841
1.41661
1.34976
1.28853
1.22939
1.17371
1.12197
1.07112
1.02627
0.979677
0.940309
0.898858
0.863357
0.831541
0.802969
0.787042
0.776434
0.776995
0.775884
0.774143
0.775533
0.779097
0.782032
0.781635
0.780648
0.77947
0.778414
0.776898
0.774902
0.772687
0.770582
0.769085
0.767737
0.767367
0.768009
0.769991
0.775158
0.784459
0.79333
0.806568
3.27333
3.27308
3.27282
3.27256
3.27229
3.272
3.2717
3.27139
3.27107
3.27073
3.27038
3.27001
3.26963
3.26923
3.26881
3.26839
3.26794
3.26747
3.26698
3.26648
3.26598
3.26544
3.26489
3.26433
3.26374
3.26316
3.26257
3.26194
3.26133
3.26073
3.26008
3.25951
3.25896
3.25832
3.25769
3.25715
3.25657
3.25613
3.25566
3.255
3.25392
3.25233
3.24758
3.23336
3.2019
3.14498
3.06274
2.95755
2.8402
2.71558
2.59168
2.47041
2.3531
2.24198
2.13428
2.0338
1.93578
1.84528
1.75591
1.67478
1.59392
1.52074
1.44868
1.38218
1.31834
1.25798
1.20188
1.14707
1.09795
1.04798
1.00489
0.959587
0.921931
0.883906
0.850689
0.825802
0.799301
0.787091
0.776283
0.773195
0.773732
0.775299
0.77747
0.77854
0.779225
0.779347
0.778728
0.777306
0.774858
0.772591
0.77037
0.76801
0.766366
0.76546
0.765236
0.766138
0.769277
0.776631
0.785436
0.800158
3.27235
3.2721
3.27185
3.2716
3.27133
3.27105
3.27076
3.27046
3.27014
3.2698
3.26946
3.26909
3.26871
3.26832
3.26791
3.26749
3.26704
3.26656
3.26607
3.26557
3.26507
3.26454
3.264
3.26345
3.26288
3.26231
3.26171
3.2611
3.2605
3.25987
3.25921
3.25861
3.25794
3.25724
3.25668
3.25609
3.25548
3.25495
3.25454
3.25406
3.25342
3.25244
3.25125
3.24828
3.23907
3.21557
3.16965
3.09686
3.00016
2.88673
2.76444
2.64111
2.51803
2.40115
2.28683
2.18006
2.07542
1.97891
1.88346
1.79593
1.70992
1.63013
1.55356
1.48076
1.41281
1.34683
1.28663
1.22717
1.17362
1.12024
1.07217
1.02399
0.980724
0.937982
0.898879
0.863498
0.829172
0.804361
0.78445
0.778501
0.777675
0.775924
0.773892
0.775064
0.777538
0.778866
0.778223
0.776736
0.774898
0.772782
0.770343
0.767715
0.765159
0.763888
0.762936
0.763192
0.764954
0.769654
0.776499
0.79166
3.27114
3.2709
3.27066
3.27042
3.27016
3.26988
3.26961
3.26933
3.26901
3.26869
3.26836
3.268
3.26765
3.26728
3.2669
3.2665
3.26607
3.26564
3.2652
3.26472
3.2642
3.26364
3.26305
3.26247
3.26191
3.26134
3.26074
3.26014
3.25953
3.25886
3.2582
3.25752
3.25676
3.25613
3.25549
3.25479
3.25421
3.2536
3.25309
3.25267
3.25237
3.25194
3.25123
3.25019
3.24828
3.24232
3.22545
3.18939
3.12641
3.03886
2.92972
2.81151
2.6867
2.56558
2.44474
2.33215
2.22071
2.11813
2.01661
1.92278
1.83146
1.74539
1.66381
1.58507
1.51261
1.44087
1.37651
1.31182
1.25408
1.19649
1.14396
1.09309
1.045
1.00047
0.95749
0.918613
0.88164
0.849757
0.819762
0.800717
0.784702
0.774652
0.772464
0.773082
0.774358
0.775391
0.775955
0.775648
0.774667
0.773002
0.770385
0.767737
0.764975
0.762555
0.760956
0.760859
0.761628
0.764276
0.768816
0.783033
3.26994
3.2697
3.26947
3.26924
3.26898
3.2687
3.26844
3.26817
3.26787
3.26756
3.26725
3.26692
3.2666
3.26625
3.2659
3.26553
3.26511
3.2647
3.26426
3.2638
3.26335
3.26288
3.2624
3.2619
3.26136
3.26078
3.26018
3.25957
3.2589
3.25823
3.2576
3.25692
3.25629
3.2557
3.25505
3.25444
3.2538
3.2532
3.25262
3.25202
3.25147
3.25108
3.25062
3.24992
3.24884
3.24741
3.24356
3.23218
3.20374
3.15194
3.0714
2.97073
2.85291
2.73226
2.60732
2.48947
2.37141
2.26269
2.15522
2.05524
1.95817
1.86643
1.77949
1.69509
1.61753
1.54049
1.47101
1.40163
1.33881
1.27718
1.21994
1.16569
1.11348
1.06543
1.0191
0.975455
0.934719
0.89472
0.858146
0.826422
0.798718
0.782951
0.777026
0.776654
0.774812
0.772725
0.773358
0.774465
0.773954
0.772432
0.770422
0.768094
0.765094
0.762209
0.759587
0.758805
0.758822
0.759948
0.762593
0.774146
3.26876
3.26854
3.26831
3.26809
3.26786
3.26759
3.26733
3.26708
3.26681
3.26651
3.26621
3.2659
3.26557
3.26526
3.26493
3.26458
3.26423
3.26386
3.26348
3.2631
3.26269
3.26227
3.26182
3.26134
3.26083
3.26027
3.25972
3.25917
3.25861
3.25807
3.25749
3.25685
3.25618
3.25541
3.25467
3.25407
3.25336
3.25264
3.25213
3.25151
3.251
3.2505
3.24997
3.24938
3.2486
3.24746
3.24588
3.24326
3.23516
3.21456
3.17035
3.10109
3.00437
2.89408
2.77074
2.65034
2.5272
2.41246
2.29909
2.193
2.09074
1.99251
1.90093
1.81038
1.72824
1.64542
1.57083
1.4966
1.4283
1.36269
1.30017
1.24249
1.186
1.13455
1.08485
1.03759
0.994604
0.950377
0.912641
0.874628
0.841767
0.816706
0.794863
0.781583
0.773422
0.771459
0.77151
0.771854
0.771003
0.770875
0.770008
0.768363
0.765425
0.761865
0.759438
0.757261
0.75632
0.756384
0.757642
0.766305
3.2679
3.2677
3.26747
3.26727
3.26705
3.26681
3.26657
3.26633
3.26608
3.26581
3.26554
3.26526
3.26496
3.26465
3.26432
3.26395
3.2636
3.26321
3.26285
3.26248
3.26208
3.26168
3.26126
3.26079
3.26032
3.25984
3.25935
3.25882
3.2583
3.25775
3.25712
3.25652
3.25588
3.25523
3.25464
3.25405
3.2534
3.25274
3.25207
3.25131
3.25057
3.24982
3.24901
3.24843
3.24783
3.24699
3.24584
3.24405
3.24168
3.23615
3.22001
3.18558
3.12304
3.037
2.92736
2.81095
2.68659
2.56691
2.44896
2.33585
2.22907
2.12399
2.02801
1.9308
1.84404
1.75564
1.67564
1.5967
1.52267
1.4531
1.38513
1.32393
1.26259
1.20778
1.15408
1.10328
1.05711
1.00872
0.96806
0.923694
0.886169
0.850193
0.816915
0.795406
0.778595
0.777048
0.773861
0.77027
0.768611
0.769369
0.769299
0.767872
0.764795
0.761695
0.759402
0.757112
0.754862
0.753664
0.753853
0.75943
3.26712
3.26692
3.26671
3.2665
3.26629
3.26606
3.26582
3.26559
3.26534
3.26508
3.26482
3.26454
3.26423
3.26395
3.26364
3.26333
3.26303
3.26269
3.26236
3.26201
3.26164
3.26128
3.26091
3.2605
3.26007
3.25965
3.25921
3.25875
3.25827
3.25778
3.25726
3.2567
3.25609
3.25541
3.25464
3.25386
3.25315
3.25244
3.25167
3.25085
3.25005
3.24919
3.24832
3.24748
3.24672
3.24591
3.24497
3.24373
3.24188
3.23971
3.2352
3.22367
3.19517
3.14321
3.06272
2.9616
2.84542
2.72425
2.60399
2.48437
2.37311
2.26113
2.16014
2.05719
1.96433
1.87162
1.78507
1.70232
1.62186
1.54847
1.47501
1.40986
1.34407
1.28494
1.22759
1.1726
1.12295
1.07164
1.02715
0.980652
0.940542
0.900314
0.864222
0.835546
0.805546
0.790045
0.775877
0.76916
0.768018
0.768147
0.767796
0.765722
0.763818
0.761845
0.759551
0.756793
0.754014
0.75207
0.751024
0.754164
3.26705
3.26684
3.26662
3.26639
3.26616
3.26592
3.26567
3.26543
3.26517
3.2649
3.26464
3.26435
3.26406
3.26376
3.26344
3.26312
3.26278
3.26243
3.26206
3.26168
3.2613
3.26092
3.26054
3.26016
3.25976
3.25935
3.25896
3.25855
3.25809
3.2576
3.25708
3.25649
3.2559
3.25536
3.25479
3.25417
3.25344
3.25253
3.25147
3.25041
3.24941
3.24847
3.24753
3.24657
3.24556
3.2445
3.24341
3.24226
3.24085
3.23911
3.23688
3.23359
3.22486
3.20299
3.15884
3.08721
2.9924
2.87916
2.76151
2.63788
2.52231
2.40416
2.29733
2.18898
2.0898
1.99243
1.89966
1.81282
1.72637
1.64898
1.57014
1.50054
1.43053
1.36632
1.30557
1.24575
1.19225
1.138
1.08904
1.04085
0.996203
0.953096
0.912483
0.874156
0.837857
0.808085
0.785387
0.775402
0.772248
0.769612
0.765467
0.763395
0.763034
0.76162
0.759095
0.756287
0.753608
0.751037
0.748984
0.750207
3.26694
3.26673
3.26651
3.26628
3.26604
3.26579
3.26552
3.26525
3.26495
3.26465
3.26434
3.26402
3.2637
3.26336
3.26303
3.26269
3.26235
3.26201
3.26168
3.26134
3.26097
3.26059
3.26018
3.25977
3.25936
3.25897
3.25857
3.25814
3.25768
3.25717
3.25661
3.25601
3.25548
3.25491
3.25428
3.2536
3.25286
3.25208
3.25124
3.25027
3.24913
3.24787
3.24658
3.2453
3.24399
3.24273
3.2415
3.24036
3.23914
3.23796
3.23654
3.23452
3.23182
3.22549
3.20906
3.17179
3.10998
3.01933
2.91404
2.79294
2.67565
2.55247
2.43981
2.32612
2.22017
2.11864
2.0189
1.92872
1.83578
1.75472
1.67039
1.59628
1.52188
1.45253
1.38773
1.32334
1.26573
1.20771
1.15504
1.10396
1.0559
1.01032
0.967262
0.92492
0.887513
0.850794
0.820507
0.799041
0.779695
0.769404
0.764011
0.762909
0.761866
0.759963
0.757774
0.755728
0.753472
0.750499
0.747976
0.747422
3.26632
3.2661
3.26587
3.26563
3.26538
3.26513
3.26486
3.26459
3.26431
3.26402
3.26372
3.26342
3.2631
3.26278
3.26245
3.26211
3.26176
3.26139
3.26102
3.26064
3.26025
3.25986
3.25945
3.259
3.25853
3.25807
3.25762
3.25716
3.25668
3.25617
3.25567
3.25518
3.25467
3.25414
3.25355
3.25288
3.25212
3.25127
3.25036
3.24939
3.24841
3.24735
3.24611
3.24468
3.24321
3.24177
3.24033
3.23905
3.23792
3.23676
3.23547
3.23398
3.23198
3.22969
3.22537
3.21247
3.18371
3.12689
3.04736
2.94075
2.8285
2.70442
2.58689
2.46893
2.35554
2.25011
2.14341
2.04939
1.95101
1.86496
1.7766
1.69635
1.61858
1.54341
1.47443
1.40548
1.34293
1.28196
1.22415
1.17094
1.11862
1.07026
1.02444
0.978108
0.938029
0.89421
0.857842
0.823378
0.793752
0.77815
0.767871
0.76633
0.762516
0.758532
0.756639
0.75525
0.752965
0.749542
0.747313
0.745574
3.26482
3.26457
3.26432
3.26406
3.2638
3.26353
3.26326
3.26299
3.26271
3.26243
3.26215
3.26185
3.26155
3.26124
3.26092
3.2606
3.26026
3.2599
3.25953
3.25914
3.25873
3.25834
3.25796
3.25753
3.25705
3.25654
3.25603
3.25551
3.25504
3.25461
3.25417
3.25371
3.25323
3.25275
3.25227
3.25164
3.25091
3.25016
3.24936
3.24847
3.24749
3.24638
3.24519
3.24394
3.24264
3.2413
3.23999
3.23877
3.23762
3.23646
3.23521
3.23376
3.23217
3.23006
3.22814
3.22479
3.21576
3.19084
3.14424
3.06725
2.97083
2.85562
2.7363
2.61678
2.49637
2.3867
2.2739
2.17445
2.07228
1.97939
1.88864
1.80094
1.72049
1.63871
1.56602
1.49237
1.42446
1.36077
1.29724
1.24172
1.18473
1.13371
1.08414
1.03548
0.992289
0.946279
0.907337
0.867722
0.834387
0.80769
0.784275
0.771208
0.760788
0.7579
0.756206
0.75394
0.750812
0.748311
0.747248
0.744417
3.2648
3.2646
3.2644
3.26419
3.26397
3.26374
3.26349
3.26323
3.26295
3.26267
3.26237
3.26206
3.26173
3.26139
3.26104
3.26068
3.2603
3.25991
3.25949