/*--------------------------------*- C++ -*----------------------------------*\
  =========                 |
  \\      /  F ield         | OpenFOAM: The Open Source CFD Toolbox
   \\    /   O peration     | Website:  https://openfoam.org
    \\  /    A nd           | Version:  7
     \\/     M anipulation  |
\*---------------------------------------------------------------------------*/
FoamFile
{
    version     2.0;
    format      ascii;
    class       volScalarField;
    location    "13";
    object      T;
}
// * * * * * * * * * * * * * * * * * * * * * * * * * * * * * * * * * * * * * //

dimensions      [0 0 0 1 0 0 0];

internalField   nonuniform List<scalar> 
90000
(
0.800507
0.824986
0.848413
0.869448
0.887803
0.904169
0.91891
0.93249
0.944807
0.95618
0.966661
0.976138
0.984915
0.992804
1.00028
1.00674
1.01288
1.01791
1.02279
1.02655
1.03035
1.03298
1.03578
1.03737
1.03901
1.04003
1.04077
1.04116
1.04164
1.04148
1.04119
1.0406
1.03976
1.03851
1.03679
1.03471
1.03236
1.03149
1.03193
1.03281
1.03386
1.03486
1.03582
1.03663
1.03718
1.03754
1.0374
1.03675
1.03553
1.03427
1.03345
1.03292
1.03299
1.03346
1.03444
1.0353
1.03586
1.03559
1.03495
1.03373
1.0329
1.03253
1.03263
1.03323
1.03399
1.03398
1.03366
1.03288
1.03226
1.0322
1.03227
1.03255
1.03251
1.03221
1.03169
1.0312
1.03126
1.03135
1.03127
1.03114
1.031
1.03103
1.03099
1.03084
1.03067
1.03051
1.03051
1.03045
1.0303
1.03004
1.02987
1.02972
1.02972
1.02977
1.02981
1.02978
1.02969
1.02954
1.02936
1.02904
0.778425
0.778468
0.77864
0.779069
0.779846
0.781167
0.783115
0.786064
0.789969
0.79535
0.801943
0.810438
0.820121
0.831803
0.844321
0.858554
0.872976
0.888522
0.903672
0.919273
0.933869
0.948033
0.960897
0.972928
0.983937
0.993221
1.00215
1.0088
1.01517
1.01941
1.02359
1.0258
1.02788
1.02892
1.03005
1.03062
1.03247
1.03446
1.03635
1.03801
1.03918
1.03985
1.04009
1.03985
1.03953
1.03887
1.0372
1.03537
1.03402
1.03325
1.03334
1.0337
1.0347
1.03589
1.03722
1.03701
1.03637
1.03516
1.03368
1.03253
1.03254
1.03286
1.03382
1.03501
1.03489
1.03438
1.03322
1.03248
1.03225
1.03247
1.03306
1.03301
1.03266
1.03191
1.03151
1.03142
1.03156
1.03153
1.03138
1.03121
1.03116
1.03123
1.03118
1.03097
1.03078
1.0307
1.03067
1.03059
1.03035
1.03013
1.03001
1.02991
1.02992
1.02998
1.03001
1.02995
1.02984
1.02965
1.02944
1.02914
0.777497
0.777454
0.777405
0.777353
0.777295
0.777231
0.777163
0.777093
0.777023
0.776968
0.776916
0.776929
0.777007
0.777209
0.777582
0.778256
0.779311
0.781065
0.783591
0.787548
0.792811
0.800452
0.809755
0.822129
0.835891
0.852616
0.86973
0.888846
0.907184
0.926065
0.943694
0.960265
0.975868
0.989102
1.00213
1.0122
1.02115
1.02555
1.02892
1.03024
1.03172
1.03257
1.03346
1.03342
1.03277
1.03085
1.02897
1.02936
1.03026
1.03119
1.03275
1.03408
1.03519
1.0351
1.03485
1.0336
1.03167
1.03072
1.03008
1.03035
1.03164
1.03321
1.03378
1.0336
1.03296
1.03184
1.03095
1.03091
1.03147
1.03231
1.03228
1.0318
1.03109
1.03055
1.03059
1.03101
1.03124
1.03095
1.03064
1.03057
1.03076
1.03085
1.03069
1.03044
1.0303
1.03037
1.03033
1.03018
1.02995
1.02978
1.02969
1.02969
1.02975
1.02983
1.02981
1.02972
1.02962
1.02944
1.02923
1.02896
0.776076
0.776029
0.775979
0.775923
0.775864
0.775804
0.775741
0.775676
0.77561
0.775543
0.775475
0.775411
0.775328
0.775242
0.775155
0.775064
0.774971
0.774878
0.774788
0.774714
0.774639
0.774646
0.774714
0.774961
0.775467
0.776487
0.778188
0.781306
0.785945
0.793697
0.803925
0.818911
0.836046
0.857814
0.879921
0.904284
0.926856
0.947335
0.965792
0.97946
0.991934
0.999424
1.0066
1.01024
1.01359
1.01556
1.01993
1.02449
1.02862
1.03184
1.03375
1.03357
1.03329
1.03239
1.0292
1.02641
1.02537
1.02563
1.02697
1.02934
1.03123
1.03177
1.03139
1.02995
1.02849
1.02754
1.0278
1.02902
1.03034
1.03024
1.02961
1.02866
1.02801
1.02831
1.02909
1.02952
1.02926
1.02875
1.02869
1.02898
1.02932
1.02922
1.02891
1.02886
1.029
1.02911
1.02898
1.02875
1.0286
1.02864
1.02866
1.0287
1.02879
1.0289
1.02887
1.02884
1.02875
1.02857
1.0284
1.02824
0.774575
0.774537
0.774496
0.774455
0.774413
0.77437
0.774325
0.774279
0.774232
0.774183
0.774134
0.774083
0.774031
0.773977
0.773919
0.773862
0.773805
0.773749
0.773693
0.773638
0.773587
0.773538
0.773503
0.773442
0.773376
0.773311
0.773251
0.773201
0.773174
0.773204
0.773323
0.773703
0.774509
0.776332
0.779524
0.785986
0.795567
0.811866
0.831509
0.857695
0.883803
0.911551
0.936958
0.95939
0.97996
0.996225
1.00912
1.01535
1.01924
1.02225
1.02469
1.0255
1.02473
1.02205
1.0204
1.0208
1.02201
1.02473
1.02689
1.02822
1.02788
1.02707
1.02527
1.02369
1.02375
1.02471
1.0263
1.02741
1.02722
1.02672
1.02562
1.02483
1.02526
1.02623
1.02684
1.02673
1.02624
1.02605
1.02633
1.02672
1.02675
1.02656
1.02647
1.02662
1.02685
1.02686
1.02673
1.0266
1.02663
1.02671
1.02677
1.02689
1.02709
1.02725
1.02728
1.02723
1.02714
1.02704
1.02696
1.0269
0.773467
0.773444
0.77342
0.773396
0.773371
0.773347
0.773322
0.773297
0.773272
0.773246
0.77322
0.773193
0.773166
0.773138
0.77311
0.773083
0.773054
0.773026
0.772996
0.772966
0.772935
0.772905
0.772873
0.772842
0.772812
0.772784
0.772758
0.772732
0.772711
0.77269
0.772686
0.772658
0.772625
0.772593
0.772584
0.77261
0.772709
0.773066
0.773928
0.776204
0.780581
0.790143
0.804538
0.827933
0.854839
0.887787
0.917822
0.944636
0.966379
0.98104
0.995193
1.00058
1.00636
1.00934
1.01531
1.02081
1.02498
1.02768
1.02756
1.02704
1.02441
1.02042
1.01939
1.01984
1.02213
1.02452
1.02623
1.0259
1.02458
1.02258
1.02224
1.02278
1.02382
1.02458
1.02432
1.0238
1.02352
1.02375
1.02433
1.02463
1.02434
1.02396
1.02403
1.0244
1.02465
1.02459
1.02435
1.02434
1.02441
1.02453
1.02467
1.02489
1.02512
1.02526
1.02527
1.02523
1.0252
1.02513
1.02508
1.02513
0.772848
0.772838
0.772828
0.772816
0.772805
0.772794
0.772783
0.772772
0.772761
0.77275
0.772739
0.772727
0.772715
0.772703
0.772691
0.772678
0.772666
0.772653
0.772639
0.772626
0.772612
0.772598
0.772583
0.77257
0.772557
0.772543
0.772528
0.772515
0.772501
0.772488
0.77247
0.772456
0.772443
0.772433
0.772426
0.77242
0.772423
0.772412
0.772397
0.772389
0.772404
0.772495
0.77279
0.773742
0.776001
0.782008
0.793105
0.814231
0.842284
0.876334
0.910819
0.943199
0.971717
0.993707
1.0104
1.0171
1.02108
1.02379
1.0237
1.021
1.01594
1.01628
1.01759
1.02088
1.02401
1.0241
1.02384
1.02219
1.02024
1.0204
1.02144
1.0228
1.0232
1.02301
1.0224
1.02167
1.02198
1.02276
1.02304
1.0228
1.02236
1.02234
1.02266
1.02299
1.02295
1.02274
1.02265
1.02269
1.0228
1.02292
1.02309
1.0233
1.02349
1.02365
1.02366
1.0236
1.02352
1.02352
1.02352
1.0236
0.772541
0.772538
0.772534
0.77253
0.772526
0.772522
0.772518
0.772515
0.772512
0.772508
0.772504
0.7725
0.772496
0.772491
0.772487
0.772481
0.772475
0.772467
0.77246
0.772452
0.772444
0.772435
0.772425
0.772415
0.772406
0.772395
0.772383
0.772374
0.772367
0.772359
0.77235
0.772341
0.772333
0.772325
0.772318
0.772313
0.772308
0.772304
0.772299
0.772293
0.772287
0.772276
0.772262
0.772261
0.772269
0.772316
0.772473
0.773053
0.774726
0.779848
0.790273
0.813319
0.843337
0.884637
0.922278
0.954435
0.977737
0.99323
1.00276
1.00615
1.01364
1.01824
1.02269
1.02602
1.02588
1.02425
1.0198
1.01762
1.01815
1.02033
1.02286
1.02326
1.02278
1.02123
1.0206
1.02085
1.02195
1.02291
1.02262
1.02173
1.02128
1.02157
1.02223
1.02236
1.02211
1.02169
1.02174
1.0219
1.02198
1.02207
1.02226
1.02254
1.02266
1.02268
1.02265
1.02261
1.02252
1.02245
1.02248
1.02256
0.772401
0.7724
0.7724
0.772399
0.772397
0.772396
0.772395
0.772394
0.772394
0.772392
0.772391
0.772389
0.772387
0.772385
0.772383
0.772379
0.772374
0.772369
0.772364
0.772359
0.772352
0.772345
0.772337
0.772328
0.77232
0.772311
0.772301
0.772293
0.772289
0.772281
0.772269
0.772261
0.772254
0.772246
0.772238
0.772232
0.772229
0.772225
0.77222
0.772214
0.772207
0.7722
0.772197
0.772197
0.772197
0.772198
0.7722
0.772198
0.772188
0.772206
0.772324
0.77294
0.774798
0.781494
0.795664
0.825335
0.863649
0.906776
0.946474
0.97929
1.00855
1.01734
1.02159
1.02432
1.02326
1.01688
1.01537
1.01707
1.0205
1.02336
1.02344
1.02285
1.02108
1.01981
1.02014
1.02176
1.02272
1.0226
1.02157
1.02076
1.021
1.02185
1.02222
1.02198
1.02138
1.02133
1.0215
1.02164
1.02173
1.02184
1.02201
1.02222
1.02234
1.02231
1.02225
1.02215
1.02203
1.02203
1.02203
1.02209
0.772349
0.772348
0.772347
0.772346
0.772345
0.772344
0.772343
0.772342
0.77234
0.772339
0.772336
0.772334
0.772333
0.772332
0.77233
0.772326
0.772322
0.77232
0.772318
0.772313
0.772307
0.772301
0.772293
0.772286
0.77228
0.772274
0.772266
0.772259
0.772252
0.772244
0.772235
0.772224
0.772213
0.772202
0.772189
0.772178
0.772169
0.772162
0.772157
0.77215
0.772143
0.772137
0.772133
0.77213
0.772125
0.77212
0.772116
0.772111
0.772107
0.772107
0.772106
0.772102
0.772091
0.772116
0.772328
0.773406
0.77744
0.788917
0.814564
0.856649
0.903368
0.945734
0.974866
0.995784
1.00578
1.00922
1.01693
1.02248
1.02619
1.02599
1.02419
1.01976
1.01972
1.02017
1.02203
1.02381
1.02344
1.02158
1.02063
1.02088
1.02204
1.02271
1.02238
1.02137
1.02116
1.02139
1.02168
1.02167
1.0217
1.02187
1.02213
1.02223
1.02223
1.02218
1.02214
1.02203
1.02186
1.02187
1.0219
1.02195
0.772311
0.772309
0.772308
0.772309
0.77231
0.77231
0.77231
0.772309
0.772309
0.772308
0.772307
0.772307
0.772307
0.772307
0.772307
0.772307
0.772307
0.772306
0.772305
0.772304
0.772301
0.772296
0.772289
0.772283
0.772278
0.772273
0.772267
0.772261
0.772253
0.772243
0.772231
0.772217
0.772203
0.772188
0.772171
0.772153
0.772135
0.772121
0.772111
0.772101
0.772092
0.772084
0.772078
0.772073
0.772069
0.772065
0.772065
0.772066
0.77207
0.772083
0.772097
0.772096
0.772093
0.772084
0.772048
0.772012
0.77202
0.772146
0.772911
0.776307
0.786813
0.81629
0.857731
0.906149
0.956036
0.994448
1.01511
1.02094
1.02491
1.02401
1.01714
1.01722
1.01976
1.02334
1.02488
1.02433
1.02206
1.02001
1.02043
1.02241
1.02334
1.02301
1.02168
1.02108
1.02139
1.02179
1.02187
1.02178
1.02182
1.02208
1.0223
1.02229
1.02224
1.0222
1.02211
1.02196
1.02185
1.02186
1.02189
1.02194
0.772228
0.772227
0.772227
0.772226
0.772225
0.772224
0.772223
0.772221
0.77222
0.772219
0.772218
0.772216
0.772215
0.772215
0.772217
0.772218
0.772218
0.772217
0.772218
0.772217
0.772218
0.772219
0.77222
0.772223
0.772224
0.772224
0.772223
0.77222
0.772217
0.772211
0.772204
0.772195
0.772184
0.772172
0.772155
0.772135
0.772115
0.772094
0.772077
0.772065
0.772056
0.772053
0.772051
0.772049
0.772046
0.772045
0.772048
0.772058
0.772074
0.772094
0.772117
0.772123
0.772121
0.772114
0.772091
0.772046
0.772004
0.771983
0.771981
0.771994
0.772121
0.773011
0.776645
0.790442
0.821417
0.876201
0.927969
0.965909
0.993764
1.00388
1.00921
1.01859
1.02574
1.02706
1.02625
1.02156
1.01966
1.02017
1.0225
1.02457
1.02406
1.02192
1.02103
1.02137
1.02228
1.02226
1.02196
1.02186
1.02211
1.02247
1.02247
1.02235
1.02226
1.02223
1.02213
1.02202
1.02194
1.02193
1.02193
1.02197
0.772141
0.77214
0.772138
0.772137
0.772135
0.772134
0.772133
0.772132
0.772132
0.772131
0.77213
0.77213
0.77213
0.772131
0.772132
0.772134
0.772135
0.772137
0.77214
0.772142
0.772144
0.772147
0.772152
0.772156
0.772159
0.772161
0.772163
0.772164
0.772163
0.77216
0.772154
0.772146
0.772136
0.772124
0.772108
0.77209
0.772067
0.772037
0.772016
0.772003
0.771995
0.771993
0.771995
0.771994
0.771992
0.77199
0.771993
0.772005
0.772028
0.772062
0.772106
0.772134
0.772136
0.772134
0.772121
0.772087
0.772037
0.771992
0.771969
0.771962
0.771965
0.771982
0.772035
0.772276
0.77341
0.780047
0.79935
0.843804
0.897925
0.952228
0.995392
1.01655
1.02368
1.02506
1.02114
1.01604
1.01862
1.0232
1.0253
1.02478
1.02218
1.02025
1.02076
1.02264
1.02275
1.02239
1.02182
1.02198
1.02261
1.02269
1.02253
1.02238
1.02233
1.02229
1.02213
1.02205
1.02206
1.02206
1.02203
1.02207
0.772089
0.772087
0.772085
0.772084
0.772083
0.772082
0.772082
0.772081
0.772081
0.772081
0.77208
0.772079
0.772078
0.772078
0.772078
0.772079
0.77208
0.772082
0.772085
0.772089
0.772092
0.772095
0.7721
0.772105
0.772109
0.772111
0.772112
0.772112
0.772112
0.772108
0.7721
0.772092
0.772083
0.772071
0.772058
0.772046
0.772031
0.772014
0.771996
0.771979
0.771963
0.771957
0.771959
0.771958
0.771956
0.771954
0.771956
0.771969
0.771995
0.772032
0.772074
0.772105
0.772115
0.772114
0.772105
0.772082
0.772045
0.771998
0.771961
0.771947
0.771944
0.771952
0.771989
0.772042
0.772059
0.772106
0.772483
0.775069
0.786731
0.819927
0.878964
0.935307
0.973588
0.998416
1.00638
1.01479
1.0248
1.02747
1.02658
1.02168
1.01948
1.02025
1.02269
1.0236
1.02285
1.02169
1.02177
1.0226
1.02293
1.02274
1.02239
1.02242
1.0224
1.02228
1.02208
1.02211
1.02217
1.02215
1.02212
1.02219
0.77207
0.772068
0.772066
0.772063
0.772062
0.772061
0.77206
0.772057
0.772055
0.772053
0.772051
0.772049
0.772046
0.772044
0.772041
0.772039
0.772039
0.772041
0.772044
0.772047
0.772052
0.772057
0.772064
0.77207
0.772076
0.772081
0.772083
0.772084
0.772083
0.772078
0.77207
0.772061
0.77205
0.772038
0.772029
0.772023
0.772016
0.77201
0.772005
0.771998
0.771986
0.771973
0.771968
0.771964
0.771958
0.771953
0.771954
0.771959
0.771975
0.772006
0.772042
0.772073
0.77209
0.772089
0.772074
0.772049
0.772025
0.771998
0.771969
0.771949
0.771941
0.771942
0.77197
0.772025
0.772043
0.77204
0.772012
0.772012
0.772146
0.773297
0.780957
0.806452
0.858948
0.919124
0.976076
1.01074
1.02288
1.02496
1.02106
1.01569
1.01831
1.02335
1.02456
1.02341
1.02114
1.02118
1.02235
1.02322
1.02297
1.02231
1.02226
1.02244
1.02242
1.02217
1.02205
1.02217
1.02225
1.0222
1.02218
1.0223
0.772064
0.772062
0.772059
0.772057
0.772054
0.772051
0.772045
0.77204
0.772036
0.772032
0.77203
0.772027
0.772023
0.772019
0.772015
0.77201
0.772005
0.771996
0.771989
0.771988
0.771988
0.771989
0.771993
0.772
0.772009
0.772019
0.77203
0.772042
0.772055
0.772058
0.772055
0.772047
0.772039
0.772034
0.772032
0.772033
0.772037
0.772046
0.772061
0.772064
0.772066
0.772064
0.772057
0.772046
0.772027
0.772
0.771979
0.771973
0.771975
0.771989
0.772014
0.772039
0.772055
0.772053
0.77204
0.772023
0.772008
0.771999
0.771992
0.771988
0.771983
0.771975
0.771982
0.772012
0.772022
0.772018
0.771995
0.771984
0.77198
0.771984
0.772056
0.772743
0.777294
0.797592
0.848279
0.913441
0.964959
0.992645
1.00584
1.01346
1.02472
1.02703
1.02524
1.02032
1.02025
1.02162
1.02377
1.02351
1.02225
1.02207
1.02236
1.02259
1.02231
1.022
1.02209
1.02227
1.02226
1.02221
1.02223
1.02249
0.77204
0.772033
0.772027
0.772021
0.772014
0.772
0.771989
0.771982
0.771974
0.771968
0.771963
0.771954
0.771947
0.771944
0.77194
0.771934
0.771929
0.771925
0.771924
0.771925
0.77193
0.771936
0.771943
0.77195
0.771958
0.771966
0.771975
0.771987
0.771999
0.772011
0.772021
0.772024
0.772025
0.772028
0.772035
0.772044
0.772053
0.772068
0.772099
0.772114
0.772114
0.772114
0.772112
0.772101
0.772077
0.772042
0.772005
0.771983
0.771974
0.771973
0.771981
0.771997
0.772008
0.77201
0.772011
0.77202
0.77202
0.772017
0.772028
0.772045
0.772045
0.772033
0.772021
0.772007
0.771995
0.771986
0.771972
0.771968
0.771976
0.771998
0.77201
0.772025
0.772074
0.772519
0.775892
0.794577
0.840614
0.905317
0.973408
1.00805
1.02448
1.02412
1.0179
1.01794
1.02115
1.02437
1.02425
1.02234
1.02141
1.02201
1.0229
1.02272
1.02188
1.02189
1.02219
1.02237
1.02222
1.02219
1.02239
1.02263
0.772017
0.772006
0.771996
0.771983
0.77196
0.771952
0.771949
0.771946
0.771939
0.771932
0.771926
0.771915
0.771906
0.771905
0.771906
0.771905
0.771902
0.771898
0.771897
0.771901
0.771909
0.771916
0.771925
0.771936
0.771944
0.771952
0.77196
0.77197
0.771983
0.771999
0.772007
0.772009
0.772014
0.772022
0.77203
0.772037
0.772048
0.772065
0.772095
0.772118
0.77212
0.77212
0.77212
0.77211
0.772087
0.772052
0.772013
0.771978
0.771957
0.771952
0.771956
0.771966
0.771973
0.771973
0.771977
0.771996
0.772018
0.772025
0.772051
0.772077
0.772076
0.772066
0.772048
0.772013
0.771982
0.77196
0.771954
0.771961
0.771992
0.772059
0.772112
0.772135
0.772155
0.772153
0.772179
0.772537
0.77519
0.792635
0.839857
0.910009
0.972048
0.99266
1.00722
1.01729
1.02685
1.02643
1.0231
1.0205
1.02151
1.02332
1.02323
1.02209
1.02162
1.02198
1.0226
1.02243
1.02214
1.02222
1.02263
1.02272
0.772009
0.772001
0.771992
0.771983
0.771966
0.771953
0.771954
0.771955
0.771953
0.771945
0.771937
0.77193
0.771923
0.77192
0.771922
0.771924
0.771925
0.771922
0.771924
0.771932
0.771942
0.771949
0.771955
0.771965
0.771969
0.771969
0.771969
0.771974
0.771998
0.772005
0.772002
0.772003
0.77201
0.772018
0.772019
0.772022
0.772031
0.772049
0.772075
0.772098
0.772105
0.772105
0.772099
0.772085
0.772064
0.772035
0.771997
0.771968
0.771952
0.771946
0.771947
0.771955
0.771964
0.771964
0.771968
0.771983
0.771995
0.772023
0.77206
0.772075
0.772072
0.772065
0.772052
0.772023
0.77198
0.771946
0.771942
0.771956
0.772024
0.772126
0.772186
0.772192
0.772186
0.772175
0.772173
0.772141
0.772101
0.772366
0.77494
0.795109
0.843173
0.915749
0.986313
1.01275
1.02492
1.02366
1.01783
1.02019
1.02423
1.02409
1.02262
1.02102
1.02148
1.02282
1.02275
1.022
1.02201
1.02247
1.02281
1.02271
0.772031
0.772027
0.772027
0.772028
0.77203
0.772031
0.772031
0.772029
0.772024
0.772022
0.772024
0.772027
0.772026
0.772026
0.772026
0.772025
0.772021
0.772019
0.772023
0.772037
0.772042
0.772042
0.772039
0.772036
0.772032
0.772023
0.772018
0.772019
0.772018
0.772017
0.772014
0.772003
0.771999
0.771997
0.771992
0.771984
0.771979
0.771982
0.771991
0.772007
0.772025
0.772027
0.77202
0.77202
0.772021
0.77201
0.771984
0.771963
0.771954
0.771957
0.771974
0.772002
0.772025
0.772028
0.772017
0.771977
0.771962
0.771985
0.772021
0.772042
0.772051
0.772046
0.772042
0.772029
0.77199
0.771951
0.771953
0.77199
0.772084
0.772178
0.772204
0.772201
0.772192
0.772179
0.772128
0.772026
0.771929
0.771873
0.77189
0.772281
0.775476
0.799021
0.856042
0.925368
0.98502
0.99884
1.01116
1.02486
1.02659
1.02443
1.02015
1.02063
1.02277
1.02335
1.02227
1.02155
1.02203
1.02281
1.02279
1.02261
0.772074
0.772073
0.772074
0.772078
0.772079
0.772077
0.772074
0.772072
0.772071
0.772073
0.772077
0.772077
0.772073
0.772072
0.772075
0.772076
0.772073
0.77207
0.77207
0.772071
0.772073
0.772073
0.772067
0.772058
0.772043
0.772034
0.772032
0.77203
0.772025
0.772013
0.771997
0.771984
0.771976
0.77197
0.771964
0.771953
0.771933
0.77191
0.771903
0.771903
0.77191
0.771927
0.771946
0.771956
0.771967
0.771982
0.771984
0.771979
0.771981
0.772007
0.772048
0.772083
0.772088
0.772079
0.77205
0.771979
0.771924
0.771927
0.77194
0.771951
0.771976
0.772007
0.772044
0.772061
0.772054
0.772036
0.772045
0.77209
0.772169
0.772198
0.7722
0.772195
0.772173
0.772118
0.77201
0.771899
0.771827
0.77183
0.77185
0.771915
0.772
0.772598
0.777219
0.806939
0.867949
0.943851
1.00076
1.02089
1.02327
1.01671
1.01831
1.02251
1.02387
1.02282
1.0208
1.02115
1.02269
1.02293
1.02269
1.02232
0.772088
0.772086
0.772087
0.772089
0.772089
0.772086
0.772082
0.77208
0.772079
0.77208
0.772081
0.77208
0.772075
0.77207
0.772068
0.772063
0.77206
0.772061
0.772059
0.772055
0.772054
0.772045
0.772021
0.772009
0.771999
0.771987
0.771974
0.771966
0.77197
0.771978
0.771981
0.771981
0.771977
0.771971
0.771965
0.771955
0.771935
0.7719
0.771868
0.771859
0.771862
0.771877
0.77191
0.771937
0.771957
0.771981
0.771999
0.772006
0.772014
0.772038
0.772092
0.772113
0.7721
0.772077
0.772043
0.771975
0.771903
0.771889
0.771894
0.771893
0.771912
0.771972
0.772075
0.77214
0.77215
0.772147
0.772154
0.772188
0.772213
0.772204
0.772178
0.772131
0.772067
0.771978
0.771895
0.77182
0.771801
0.771821
0.771913
0.772045
0.772117
0.772134
0.772173
0.772942
0.779809
0.819538
0.889945
0.953479
0.994426
1.00558
1.02115
1.02598
1.02452
1.01987
1.0201
1.02241
1.0232
1.02269
1.02211
1.02213
0.772029
0.772018
0.772008
0.772006
0.772007
0.772007
0.772004
0.772
0.772001
0.772004
0.772003
0.771998
0.771988
0.771983
0.77198
0.771977
0.771979
0.771975
0.771961
0.77195
0.771931
0.771887
0.771863
0.771864
0.771877
0.771907
0.771913
0.771908
0.771917
0.771956
0.771989
0.771998
0.772004
0.77201
0.772011
0.772002
0.771991
0.771972
0.771938
0.771909
0.771893
0.771893
0.771927
0.771982
0.771978
0.771979
0.771988
0.772005
0.772012
0.772022
0.772073
0.772094
0.772069
0.772032
0.772005
0.771956
0.771893
0.771882
0.771889
0.771881
0.7719
0.771987
0.77212
0.772194
0.772202
0.772196
0.772205
0.772225
0.77222
0.77217
0.772064
0.771952
0.771873
0.771837
0.771828
0.771797
0.771805
0.771895
0.772016
0.772126
0.772147
0.772131
0.772045
0.771891
0.771931
0.773465
0.78597
0.833885
0.910796
0.983357
1.0177
1.02376
1.01786
1.01743
1.02141
1.02402
1.02319
1.02139
1.0216
1.022
0.771863
0.771859
0.771849
0.771844
0.771846
0.771855
0.771853
0.771847
0.771842
0.771839
0.771838
0.771831
0.771823
0.77182
0.771816
0.771813
0.771816
0.771827
0.77183
0.771812
0.77178
0.771767
0.771768
0.771776
0.771811
0.771887
0.771908
0.771904
0.771915
0.771976
0.772073
0.772113
0.772137
0.772157
0.772158
0.772136
0.772134
0.772142
0.772121
0.772053
0.771982
0.771968
0.771996
0.772011
0.771998
0.771993
0.771953
0.771918
0.771913
0.771916
0.77196
0.771975
0.771945
0.771934
0.771951
0.771943
0.771946
0.771986
0.77202
0.77201
0.772026
0.772095
0.772168
0.77221
0.772211
0.772199
0.772214
0.772223
0.772186
0.772063
0.771886
0.771761
0.771739
0.771766
0.771804
0.77185
0.771933
0.772033
0.772109
0.77216
0.772152
0.772049
0.771862
0.77171
0.77169
0.771726
0.772002
0.77487
0.795697
0.86299
0.937228
0.985163
1.00404
1.01692
1.02612
1.02511
1.02101
1.02105
1.02211
1.02212
0.771799
0.771802
0.771801
0.771795
0.771798
0.771817
0.771828
0.771826
0.771808
0.771792
0.771786
0.771774
0.771763
0.771758
0.771755
0.771757
0.771766
0.771772
0.771777
0.771785
0.771781
0.771777
0.77178
0.771792
0.771848
0.771955
0.771975
0.771974
0.772005
0.772086
0.772183
0.772229
0.772251
0.772258
0.772245
0.772202
0.772195
0.772206
0.772177
0.772082
0.771991
0.771982
0.771987
0.771958
0.771916
0.771931
0.771912
0.771855
0.771845
0.771846
0.771869
0.771865
0.771862
0.771892
0.771948
0.772009
0.772089
0.772193
0.772239
0.772229
0.77224
0.772238
0.772198
0.772183
0.772174
0.772167
0.772165
0.772147
0.772072
0.771939
0.771772
0.771697
0.771703
0.771756
0.77188
0.772014
0.772108
0.772138
0.772153
0.772138
0.772033
0.771825
0.771696
0.771657
0.771681
0.771825
0.77211
0.772161
0.772624
0.779279
0.813361
0.888952
0.975316
1.01217
1.02466
1.02009
1.01879
1.02187
1.02297
1.022
0.771874
0.771931
0.771986
0.772004
0.772019
0.772035
0.772041
0.772037
0.772014
0.771996
0.772001
0.772028
0.772025
0.772002
0.771998
0.771997
0.772001
0.772011
0.772024
0.772023
0.771999
0.771978
0.771956
0.771937
0.771944
0.772014
0.772044
0.772043
0.772073
0.77216
0.772195
0.77219
0.772188
0.772185
0.772146
0.772099
0.772104
0.772143
0.77212
0.772006
0.771907
0.771895
0.771882
0.771816
0.771783
0.771837
0.771858
0.771839
0.771832
0.771846
0.771851
0.771841
0.77186
0.771939
0.772053
0.772149
0.772217
0.772281
0.772338
0.772353
0.772352
0.772318
0.772219
0.772085
0.771992
0.771966
0.771962
0.771951
0.771921
0.771853
0.771759
0.771718
0.77176
0.77189
0.772072
0.772182
0.772198
0.772188
0.772131
0.771987
0.771783
0.771648
0.771618
0.771641
0.771803
0.772041
0.772199
0.772184
0.772018
0.771937
0.773116
0.787685
0.844689
0.923923
0.989143
1.00236
1.01915
1.02482
1.02354
1.02093
0.772152
0.772227
0.772241
0.772228
0.772223
0.772239
0.772235
0.772206
0.772194
0.772201
0.772204
0.772183
0.772171
0.772157
0.772143
0.77213
0.772115
0.772112
0.772094
0.77205
0.772043
0.772024
0.771947
0.771925
0.771935
0.771915
0.771913
0.771958
0.771983
0.771975
0.771911
0.771813
0.771788
0.77179
0.771773
0.771745
0.771769
0.771817
0.771789
0.771689
0.771659
0.771672
0.771666
0.771665
0.771726
0.771835
0.771944
0.772021
0.772059
0.772057
0.772029
0.771971
0.771973
0.772039
0.772129
0.772198
0.772241
0.772285
0.772335
0.77234
0.772341
0.772326
0.772197
0.771905
0.771747
0.771739
0.771755
0.771791
0.771824
0.771829
0.771851
0.77191
0.77202
0.772125
0.772217
0.772252
0.772244
0.772154
0.771968
0.771739
0.771585
0.771592
0.771635
0.771818
0.772085
0.772227
0.772224
0.772111
0.7718
0.771633
0.771655
0.771995
0.776056
0.807605
0.880172
0.963768
1.01332
1.02244
1.01776
1.01947
0.77204
0.772049
0.772046
0.772011
0.771986
0.771998
0.772012
0.771991
0.771955
0.77195
0.771964
0.771977
0.771973
0.771963
0.771941
0.771927
0.771926
0.771909
0.771814
0.771773
0.771753
0.771648
0.771517
0.771522
0.771512
0.771493
0.771529
0.771557
0.771548
0.771517
0.77148
0.771444
0.771437
0.771459
0.771462
0.771442
0.771474
0.771512
0.771454
0.771411
0.771427
0.771465
0.771464
0.771508
0.771709
0.772024
0.77226
0.772358
0.772349
0.772289
0.772165
0.771996
0.771963
0.772045
0.772126
0.772169
0.772162
0.772098
0.771998
0.771974
0.771971
0.771946
0.771824
0.771634
0.771571
0.771576
0.771611
0.77168
0.771759
0.771895
0.772083
0.772226
0.772268
0.772242
0.77225
0.7722
0.772075
0.771883
0.771685
0.771543
0.771542
0.771619
0.771887
0.772153
0.772274
0.772268
0.772153
0.771864
0.771624
0.771595
0.771759
0.772142
0.772215
0.773154
0.784084
0.84105
0.922448
0.981078
1.0045
1.02015
0.77164
0.771643
0.771639
0.771622
0.771616
0.771631
0.771682
0.771708
0.771712
0.771732
0.771744
0.771749
0.77177
0.771804
0.771827
0.771829
0.771829
0.771819
0.771712
0.77164
0.771606
0.771507
0.771381
0.771357
0.771378
0.771406
0.771406
0.77139
0.771382
0.771389
0.771417
0.771433
0.771449
0.771479
0.771518
0.771576
0.771663
0.771699
0.771668
0.771653
0.771643
0.771597
0.771585
0.771705
0.772053
0.772339
0.772463
0.77251
0.772488
0.772405
0.772243
0.772042
0.771894
0.771896
0.771925
0.771922
0.771854
0.771664
0.771538
0.771532
0.77156
0.771582
0.771559
0.771503
0.771482
0.771486
0.771517
0.771603
0.771796
0.772067
0.772283
0.772311
0.772292
0.772223
0.772017
0.771758
0.771595
0.771486
0.771453
0.771464
0.771558
0.771899
0.772203
0.772306
0.772277
0.772113
0.771821
0.771566
0.771563
0.77172
0.772075
0.772285
0.772256
0.772041
0.772101
0.775959
0.803163
0.881334
0.969867
1.0189
0.771415
0.77141
0.771408
0.771417
0.771468
0.771565
0.771613
0.771647
0.771664
0.771654
0.77164
0.771662
0.771728
0.771809
0.771934
0.771974
0.771972
0.771967
0.771895
0.77178
0.771777
0.771795
0.771727
0.771617
0.771609
0.771669
0.771951
0.772056
0.772044
0.772088
0.772224
0.772255
0.77224
0.772273
0.772393
0.772619
0.77287
0.772923
0.772933
0.772879
0.772609
0.77216
0.771958
0.771974
0.77218
0.772438
0.772468
0.772412
0.772311
0.7722
0.772014
0.771772
0.771715
0.771724
0.771739
0.771739
0.771681
0.771503
0.77138
0.77137
0.771399
0.771469
0.771501
0.771515
0.771557
0.771617
0.771768
0.772016
0.77219
0.772235
0.772286
0.772239
0.772083
0.771822
0.771504
0.77129
0.77124
0.771258
0.771312
0.771499
0.771896
0.772245
0.772251
0.772199
0.771947
0.77163
0.771412
0.771418
0.771563
0.772016
0.772299
0.772279
0.772073
0.771708
0.77156
0.771651
0.77267
0.786012
0.837697
0.959899
0.772542
0.772575
0.772569
0.772567
0.772598
0.772758
0.772843
0.77282
0.772813
0.772919
0.773061
0.773032
0.772999
0.773035
0.773185
0.773401
0.773563
0.773752
0.773796
0.773775
0.773782
0.773849
0.773861
0.773751
0.773612
0.773613
0.773749
0.773779
0.773637
0.773596
0.773631
0.773644
0.773645
0.773762
0.77385
0.773952
0.774143
0.774222
0.77421
0.774063
0.773622
0.772891
0.772515
0.772486
0.772512
0.772599
0.77261
0.772567
0.772479
0.77246
0.772422
0.77221
0.771968
0.771888
0.7719
0.771915
0.77188
0.771757
0.771633
0.771617
0.771656
0.771753
0.771918
0.772108
0.772276
0.772445
0.77269
0.772706
0.772586
0.772325
0.772011
0.771778
0.771626
0.771468
0.771316
0.771223
0.771231
0.771321
0.771703
0.772106
0.772431
0.77239
0.772181
0.771749
0.771397
0.771258
0.771271
0.771411
0.771887
0.772323
0.772312
0.772067
0.771643
0.771447
0.77148
0.771878
0.772028
0.772316
0.775564
0.856061
0.776764
0.776783
0.776845
0.776858
0.77684
0.776794
0.776731
0.776612
0.776372
0.776268
0.776275
0.776206
0.775885
0.775496
0.775384
0.775411
0.775593
0.775805
0.775816
0.775731
0.775731
0.775739
0.775649
0.775307
0.774651
0.774549
0.774578
0.774555
0.774494
0.774421
0.774249
0.774154
0.774161
0.774065
0.77376
0.773713
0.773737
0.773803
0.773821
0.773718
0.773372
0.772824
0.772562
0.77253
0.772542
0.772649
0.772756
0.772765
0.772692
0.772623
0.772583
0.772601
0.772626
0.77269
0.772697
0.772693
0.772754
0.773044
0.773311
0.773362
0.773465
0.773531
0.773449
0.773242
0.773169
0.773209
0.77323
0.773079
0.772651
0.772074
0.771652
0.771497
0.771476
0.771413
0.771354
0.771458
0.771733
0.772176
0.77273
0.772737
0.772587
0.772145
0.771641
0.771265
0.771164
0.771196
0.771383
0.771925
0.772435
0.772385
0.772042
0.771545
0.77129
0.771317
0.771645
0.772145
0.772126
0.771903
0.771688
0.783068
0.781791
0.781892
0.781994
0.782048
0.782142
0.782222
0.782209
0.782107
0.781932
0.781641
0.781331
0.781058
0.780822
0.780659
0.780606
0.780634
0.780705
0.780829
0.780951
0.780989
0.780946
0.780678
0.780233
0.77999
0.77979
0.779607
0.779449
0.779312
0.779078
0.778643
0.778338
0.778161
0.777873
0.777578
0.777509
0.777511
0.777557
0.77772
0.777995
0.77814
0.778228
0.778503
0.778854
0.778823
0.778639
0.778456
0.778324
0.778088
0.777647
0.777432
0.777286
0.77718
0.777194
0.777369
0.77735
0.777109
0.777053
0.777086
0.777053
0.776846
0.776479
0.776008
0.775412
0.774801
0.774419
0.774144
0.773804
0.7734
0.77293
0.77236
0.772165
0.772252
0.772415
0.772772
0.773318
0.773752
0.773912
0.77383
0.773542
0.773079
0.77236
0.771794
0.771469
0.771279
0.771357
0.771835
0.772432
0.772943
0.772783
0.772243
0.771571
0.771301
0.771308
0.771638
0.772227
0.772287
0.772051
0.771563
0.771422
0.772041
0.794735
0.794675
0.794562
0.794593
0.794902
0.795125
0.795055
0.794831
0.794386
0.793869
0.793742
0.793789
0.793745
0.793685
0.793707
0.793478
0.793142
0.793142
0.793277
0.793316
0.793294
0.79339
0.793396
0.793159
0.793041
0.793039
0.793024
0.792953
0.792741
0.792467
0.79225
0.792064
0.791701
0.791211
0.790822
0.790545
0.790145
0.789711
0.789382
0.788973
0.788632
0.788527
0.788296
0.787933
0.787568
0.787249
0.786933
0.786507
0.78586
0.785266
0.784628
0.783881
0.783204
0.782662
0.782247
0.781802
0.78125
0.780719
0.780182
0.779617
0.779023
0.778668
0.778274
0.777688
0.776895
0.77672
0.776835
0.776865
0.776872
0.777051
0.777604
0.77777
0.777581
0.777255
0.776938
0.776399
0.775695
0.774709
0.773552
0.772841
0.772422
0.77225
0.77238
0.772905
0.773577
0.774193
0.774001
0.773585
0.772602
0.771895
0.771493
0.771409
0.771887