/*--------------------------------*- C++ -*----------------------------------*\
  =========                 |
  \\      /  F ield         | OpenFOAM: The Open Source CFD Toolbox
   \\    /   O peration     | Website:  https://openfoam.org
    \\  /    A nd           | Version:  7
     \\/     M anipulation  |
\*---------------------------------------------------------------------------*/
FoamFile
{
    version     2.0;
    format      ascii;
    class       volScalarField;
    location    "8.6";
    object      rho;
}
// * * * * * * * * * * * * * * * * * * * * * * * * * * * * * * * * * * * * * //

dimensions      [1 -3 0 0 0 0 0];

internalField   nonuniform List<scalar> 
1750
(
0.256943
0.46053
0.585144
0.601169
0.628916
0.702446
0.77164
0.822453
0.88076
0.929757
0.0778183
0.144222
0.329962
0.487799
0.629339
0.706519
0.740404
0.763462
0.800327
0.848185
0.0929911
0.101119
0.119911
0.232178
0.43815
0.584105
0.709545
0.767409
0.826004
0.83062
0.118993
0.14182
0.172371
0.206439
0.220462
0.300722
0.461974
0.647863
0.762092
0.850769
0.206234
0.218769
0.250948
0.270133
0.28495
0.306469
0.310928
0.361067
0.472518
0.738612
0.345227
0.349216
0.354601
0.368411
0.389472
0.402397
0.414906
0.435483
0.438109
0.490437
0.541532
0.539483
0.533603
0.535099
0.537829
0.541813
0.543467
0.546368
0.545242
0.542296
0.820092
0.797073
0.775372
0.754943
0.7362
0.717817
0.704352
0.687143
0.671177
0.657314
1.19651
1.15318
1.10579
1.06021
1.01652
0.972382
0.936253
0.902488
0.873909
0.832335
1.48311
1.45753
1.42336
1.38177
1.33355
1.28225
1.2261
1.1718
1.1238
1.04413
1.52885
1.52629
1.52303
1.51682
1.50556
1.48805
1.46341
1.42831
1.38792
1.30442
1.48836
1.49696
1.50442
1.50811
1.5077
1.50788
1.5073
1.50433
1.49819
1.47272
1.42057
1.42768
1.43686
1.44753
1.45884
1.46987
1.47999
1.48709
1.49257
1.49165
1.40103
1.40177
1.40306
1.40532
1.40892
1.41432
1.42185
1.43139
1.44206
1.45911
1.40002
1.40004
1.40007
1.40014
1.40031
1.40067
1.40143
1.40296
1.40545
1.41453
0.0818109
0.0688247
0.0801948
0.10715
0.198977
0.341626
0.539048
0.838346
1.23744
1.50107
1.53
1.48004
1.41462
1.40065
1.40001
0.0786109
0.0661844
0.0797229
0.128834
0.247065
0.402966
0.631648
0.98095
1.37159
1.53565
1.52983
1.46035
1.40736
1.40023
1.40001
0.0754977
0.0654651
0.0812334
0.150646
0.270349
0.436037
0.712715
1.10843
1.45619
1.54515
1.5197
1.44368
1.40411
1.40011
1.40001
0.0730967
0.0643133
0.0984418
0.174093
0.293824
0.503012
0.852157
1.24297
1.51254
1.54881
1.50784
1.4299
1.40191
1.40004
1.40001
0.0714461
0.0641949
0.11077
0.188638
0.34374
0.633339
0.982493
1.35233
1.54696
1.5502
1.49189
1.41664
1.40075
1.40002
1.40001
0.0603843
0.0646778
0.11662
0.215505
0.445056
0.752443
1.11388
1.4576
1.56491
1.54981
1.46622
1.40838
1.4003
1.40001
1.40001
0.0467294
0.0629936
0.1309
0.277317
0.550257
0.875611
1.27459
1.53806
1.57286
1.53445
1.44279
1.40392
1.40011
1.40001
1.40001
0.0385026
0.0643551
0.167844
0.374909
0.672357
1.05274
1.4259
1.57779
1.57534
1.50811
1.42312
1.40134
1.40004
1.40001
1.40001
0.0314122
0.0841289
0.224144
0.479624
0.842931
1.26162
1.53277
1.5913
1.57057
1.47272
1.41024
1.40044
1.40001
1.40001
1.40001
0.0249955
0.104149
0.300211
0.653507
1.08147
1.43181
1.59112
1.59454
1.53692
1.44107
1.40372
1.40013
1.40001
1.40001
1.40001
0.018124
0.144828
0.481391
0.905028
1.30123
1.55002
1.60912
1.59202
1.49735
1.41849
1.40107
1.40003
1.40001
1.40001
1.40001
0.0426713
0.28851
0.744745
1.17112
1.48134
1.60999
1.61242
1.55481
1.45392
1.40618
1.40027
1.40001
1.40001
1.40001
1.40001
0.192395
0.571837
1.042
1.41271
1.59978
1.62659
1.60205
1.50795
1.42315
1.4017
1.40006
1.40001
1.40001
1.40001
1.40001
0.454298
0.924607
1.36579
1.57473
1.64139
1.62967
1.55985
1.45498
1.40678
1.40034
1.40001
1.40001
1.40001
1.40001
1.40001
0.970338
1.35995
1.57454
1.63557
1.64844
1.60498
1.49748
1.41746
1.4012
1.40004
1.40001
1.40001
1.40001
1.40001
1.40001
1.63746
1.64325
1.64764
1.64455
1.63744
1.54078
1.43096
1.40144
1.40004
1.40001
1.40001
1.40001
1.40001
1.40001
1.40001
1.6364
1.64463
1.64992
1.63788
1.61986
1.51889
1.43064
1.40288
1.40011
1.40001
1.40001
1.40001
1.40001
1.40001
1.40001
1.6369
1.65086
1.65559
1.63853
1.59355
1.47641
1.41013
1.40039
1.40001
1.40001
1.40001
1.40001
1.40001
1.40001
1.40001
1.63899
1.65508
1.65713
1.63178
1.55509
1.44457
1.40391
1.40013
1.40001
1.40001
1.40001
1.40001
1.40001
1.40001
1.40001
1.6386
1.65612
1.65715
1.61721
1.51002
1.42125
1.4013
1.40003
1.40001
1.40001
1.40001
1.40001
1.40001
1.40001
1.40001
1.63846
1.65576
1.65137
1.57897
1.47056
1.40924
1.40038
1.40001
1.40001
1.40001
1.40001
1.40001
1.40001
1.40001
1.40001
1.65389
1.65402
1.64128
1.54165
1.43643
1.40298
1.4001
1.40001
1.40001
1.40001
1.40001
1.40001
1.40001
1.40001
1.40001
1.68194
1.64362
1.61402
1.48955
1.41552
1.40093
1.40003
1.40001
1.40001
1.40001
1.40001
1.40001
1.40001
1.40001
1.40001
1.7023
1.62418
1.56189
1.45063
1.40576
1.40023
1.40001
1.40001
1.40001
1.40001
1.40001
1.40001
1.40001
1.40001
1.40001
1.71287
1.60065
1.50832
1.42317
1.40178
1.40006
1.40001
1.40001
1.40001
1.40001
1.40001
1.40001
1.40001
1.40001
1.40001
1.71349
1.56182
1.462
1.40847
1.40043
1.40001
1.40001
1.40001
1.40001
1.40001
1.40001
1.40001
1.40001
1.40001
1.40001
1.6732
1.51558
1.43007
1.40269
1.4001
1.40001
1.40001
1.40001
1.40001
1.40001
1.40001
1.40001
1.40001
1.40001
1.40001
1.62251
1.47286
1.41153
1.4006
1.40002
1.40001
1.40001
1.40001
1.40001
1.40001
1.40001
1.40001
1.40001
1.40001
1.40001
1.55461
1.43274
1.40278
1.40009
1.40001
1.40001
1.40001
1.40001
1.40001
1.40001
1.40001
1.40001
1.40001
1.40001
1.40001
1.46898
1.4089
1.40039
1.40001
1.40001
1.40001
1.40001
1.40001
1.40001
1.40001
1.40001
1.40001
1.40001
1.40001
1.40001
1.40001
1.40001
1.40001
1.40001
1.40001
1.40001
1.40001
1.40001
1.40001
1.40001
1.40001
1.40001
1.40001
1.40001
1.40001
1.40001
1.40001
1.40001
1.40001
1.40001
1.40001
1.40001
1.40001
1.40001
1.40001
1.40001
1.40001
1.40001
1.40001
1.40001
1.40001
1.40001
1.40001
1.40001
1.40001
1.40001
1.40001
1.40001
1.40001
1.40001
1.40001
1.40001
1.40001
1.40001
1.40001
1.40001
1.40001
1.40001
1.40001
1.40001
1.40001
1.40001
1.40001
1.40001
1.40001
1.40001
1.40001
1.40001
1.40001
1.40001
1.40001
1.40001
1.40001
1.40001
1.40001
1.40001
1.40001
1.40001
1.40001
1.40001
1.40001
1.40001
1.40001
1.40001
1.40001
1.40001
1.40001
1.40001
1.40001
1.40001
1.40001
1.40001
1.40001
1.40001
1.40001
1.40001
1.40001
1.40001
1.40001
1.40001
1.40001
1.40001
1.40001
1.40001
1.40001
1.40001
1.40001
1.40001
1.40001
1.40001
1.40001
1.40001
1.40001
1.40001
1.40001
1.40001
1.40001
1.40001
1.40001
1.40001
1.40001
1.40001
1.40001
1.40001
1.40001
1.40001
1.40001
1.40001
1.40001
1.40001
1.40001
1.40001
1.40001
1.40001
1.40001
1.40001
1.40001
1.40001
1.40001
1.40001
1.40001
1.40001
1.40001
1.40001
1.40001
1.40001
1.40001
1.40001
1.40001
1.40001
1.40001
1.40001
1.40001
1.40001
1.40001
1.40001
1.40001
1.40001
1.40001
1.40001
1.40001
1.40001
1.40001
1.40001
1.40001
1.40001
1.40001
1.40001
1.40001
1.40001
1.40001
1.40001
1.40001
1.40001
1.40001
1.40001
1.40001
1.40001
1.40001
1.40001
1.40001
1.40001
1.40001
1.40001
1.40001
1.40001
1.40001
1.40001
1.40001
1.40001
1.40001
1.40001
1.40001
1.40001
1.40001
1.40001
1.40001
1.40001
1.40001
1.40001
1.40001
1.40001
1.40001
1.40001
1.40001
1.40001
1.40001
1.40001
1.40001
1.40001
1.40001
1.40001
1.40001
1.40001
1.40001
1.40001
1.40001
1.40001
1.40001
1.40001
1.40001
1.40001
1.40001
1.40001
1.40001
1.40001
1.40001
1.40001
1.40001
1.40001
1.40001
1.40001
1.40001
1.40001
1.40001
1.40001
1.40001
1.40001
1.40001
1.40001
1.40001
1.40001
1.40001
1.40001
1.40001
1.40001
1.40001
1.40001
1.40001
1.40001
1.40001
1.40001
1.40001
1.40001
1.40001
1.40001
1.40001
1.40001
1.40001
1.40001
1.40001
1.40001
1.40001
1.40001
1.40001
1.40001
1.40001
1.40001
1.40001
1.40001
1.40001
1.40001
1.40001
1.40001
1.40001
1.40001
1.40001
1.40001
1.40001
1.40001
1.40001
1.40001
1.40001
1.40001
1.40001
1.40001
1.40001
1.40001
1.40001
1.40001
1.40001
1.40001
1.40001
1.40001
1.40001
1.40001
1.40001
1.40001
1.40001
1.40001
1.40001
1.40001
1.40001
1.40001
1.40001
1.40001
1.40001
1.40001
1.40001
1.40001
1.40001
1.40001
1.40001
1.40001
1.40001
1.40001
1.40001
1.40001
1.40001
1.40001
1.40001
1.40001
1.40001
1.40001
1.40001
1.40001
1.40001
1.40001
1.40001
1.40001
1.40001
1.40001
1.40001
1.40001
1.40001
1.40001
1.40001
1.40001
1.40001
1.40001
1.40001
1.40001
1.40001
1.40001
1.40001
1.40001
1.40001
1.40001
1.40001
1.40001
1.40001
1.40001
1.40001
1.40001
1.40001
1.40001
1.40001
1.40001
1.40001
1.40001
3.46484
1.80156
1.4
1.40001
1.40001
1.40001
1.40001
1.40001
1.40001
1.40001
1.40001
1.40001
1.40001
1.40001
1.40001
1.40001
1.40001
1.40001
1.40001
1.40001
5.93626
4.50469
2.93835
1.47982
1.4
1.40001
1.40001
1.40001
1.40001
1.40001
1.40001
1.40001
1.40001
1.40001
1.40001
1.40001
1.40001
1.40001
1.40001
1.40001
5.14497
4.72306
4.79306
3.82119
1.80626
1.39999
1.40001
1.40001
1.40001
1.40001
1.40001
1.40001
1.40001
1.40001
1.40001
1.40001
1.40001
1.40001
1.40001
1.40001
4.8075
4.68742
4.80277
4.80904
4.14831
2.04448
1.39919
1.40001
1.40001
1.40001
1.40001
1.40001
1.40001
1.40001
1.40001
1.40001
1.40001
1.40001
1.40001
1.40001
4.71866
4.70454
4.77133
4.79607
4.78068
4.26769
2.13255
1.39877
1.40001
1.40001
1.40001
1.40001
1.40001
1.40001
1.40001
1.40001
1.40001
1.40001
1.40001
1.40001
4.72199
4.74486
4.77392
4.78119
4.78467
4.81856
4.27513
2.0989
1.3987
1.40001
1.40001
1.40001
1.40001
1.40001
1.40001
1.40001
1.40001
1.40001
1.40001
1.40001
4.74171
4.75549
4.75907
4.75797
4.77894
4.80634
4.84137
4.28063
2.06358
1.39832
1.40001
1.40001
1.40001
1.40001
1.40001
1.40001
1.40001
1.40001
1.40001
1.40001
4.74171
4.74451
4.73916
4.7464
4.77218
4.7989
4.82637
4.80489
4.043
1.88243
1.39859
1.40001
1.40001
1.40001
1.40001
1.40001
1.40001
1.40001
1.40001
1.40001
4.73458
4.72791
4.72525
4.73553
4.76041
4.78461
4.80923
4.82474
4.81361
3.7557
1.69423
1.39887
1.40001
1.40001
1.40001
1.40001
1.40001
1.40001
1.40001
1.40001
4.71971
4.71081
4.71358
4.72581
4.74299
4.76476
4.78062
4.77752
4.7754
4.63427
3.14112
1.50663
1.39953
1.40001
1.40001
1.40001
1.40001
1.40001
1.40001
1.40001
4.70285
4.69431
4.69998
4.70782
4.71685
4.72888
4.72983
4.72772
4.71214
4.71232
4.49556
2.50039
1.41577
1.39994
1.4
1.40001
1.40001
1.40001
1.40001
1.40001
4.68285
4.67335
4.67697
4.68035
4.68492
4.69289
4.69343
4.69719
4.69524
4.69796
4.7427
4.18042
1.99549
1.40054
1.4
1.40001
1.40001
1.40001
1.40001
1.40001
4.65704
4.64629
4.64763
4.64796
4.65384
4.66457
4.6735
4.68742
4.69182
4.70977
4.74675
4.6646
3.53364
1.62554
1.39929
1.39997
1.4
1.40001
1.40001
1.40001
4.63029
4.61728
4.61504
4.613
4.61998
4.63367
4.64972
4.67017
4.69107
4.70847
4.72369
4.70824
4.55034
2.6843
1.44513
1.40011
1.40001
1.40001
1.40001
1.40001
4.53583
4.48734
4.4785
4.47066
4.47739
4.49861
4.52325
4.55502
4.58078
4.60386
4.62434
4.61982
4.54522
4.00438
1.87535
1.38459
1.39895
1.4
1.40001
1.40001
2.02541
2.78181
3.15444
3.43739
3.63831
3.78969
3.92391
4.04834
4.14502
4.23783
4.31179
4.36378
4.35248
4.42775
3.55881
1.80843
1.41109
1.40008
1.40001
1.40001
0.784426
1.69462
2.16961
2.52263
2.85622
3.10848
3.32846
3.5086
3.67722
3.81051
3.94614
4.03789
4.13622
4.28604
4.20324
3.08229
1.65315
1.40555
1.40004
1.40001
0.729277
1.2427
1.59329
1.9301
2.23177
2.54236
2.80595
3.04021
3.25291
3.41867
3.58932
3.73839
3.86678
4.04103
4.10866
3.93657
2.54822
1.50651
1.40151
1.40001
0.79144
1.02565
1.19351
1.53869
1.83882
2.1153
2.3724
2.63104
2.84469
3.06534
3.23882
3.43986
3.59187
3.77862
3.90615
3.91423
3.47352
1.9716
1.4242
1.40021
0.888501
0.943675
1.00704
1.25308
1.50813
1.77724
2.03649
2.2842
2.50806
2.74389
2.95361
3.17293
3.36728
3.51779
3.66686
3.79218
3.75864
2.8228
1.59271
1.40356
0.990306
0.965509
0.993103
1.1493
1.31273
1.52563
1.76378
2.00303
2.24421
2.46404
2.70582
2.93347
3.15027
3.30886
3.43121
3.5902
3.71816
3.46266
2.10137
1.43782
0.995073
0.97629
1.01573
1.08081
1.17488
1.35868
1.56547
1.7745
2.00444
2.2117
2.45215
2.68697
2.90493
3.1051
3.21898
3.38447
3.6154
3.56744
2.71381
1.59616
0.994169
0.989742
1.02078
1.03512
1.0599
1.19732
1.38276
1.5867
1.79234
2.00163
2.21818
2.47258
2.69328
2.89828
3.0518
3.2128
3.43991
3.54311
3.21284
2.01832
1.00614
1.01366
1.0331
1.03299
1.03849
1.1394
1.25901
1.43725
1.63232
1.85085
2.05187
2.30115
2.52602
2.70659
2.89112
3.03771
3.23348
3.47773
3.40367
2.6943
1.0262
1.03176
1.04488
1.03978
1.04705
1.10718
1.181
1.33394
1.50134
1.70881
1.91089
2.12997
2.35779
2.51804
2.71216
2.86763
3.07174
3.34311
3.3907
3.49306
1.02384
1.0306
1.04517
1.05039
1.05758
1.07961
1.10703
1.2281
1.38483
1.56251
1.77074
1.94446
2.16778
2.35257
2.54684
2.73444
2.92939
3.15845
3.45439
4.2989
1.02555
1.0328
1.05523
1.06587
1.06205
1.06277
1.06254
1.12937
1.27287
1.43966
1.64739
1.83191
2.02536
2.22005
2.40481
2.6143
2.78455
3.0001
3.53421
5.08529
1.02991
1.04012
1.07088
1.08313
1.07654
1.06289
1.06407
1.12423
1.22087
1.36555
1.54644
1.73875
1.91832
2.11242
2.28131
2.48708
2.62145
2.88268
3.6633
5.79593
1.02834
1.03996
1.07022
1.08916
1.08552
1.06686
1.06448
1.10586
1.17385
1.30247
1.4496
1.63211
1.80551
1.98996
2.16785
2.35245
2.51309
2.76759
3.79525
6.29304
1.02093
1.03768
1.06437
1.08637
1.08327
1.06874
1.06489
1.08198
1.11155
1.2252
1.35429
1.51586
1.68217
1.85401
2.06311
2.23636
2.42605
2.71496
4.0353
6.58229
0.899984
1.01912
1.05472
1.08063
1.081
1.07229
1.07275
1.07827
1.08694
1.17307
1.2945
1.43181
1.60766
1.76828
1.95963
2.14407
2.32962
2.77511
4.25392
6.53276
0.791267
0.95827
1.03283
1.07288
1.08334
1.0827
1.08072
1.0762
1.0824
1.14981
1.24789
1.3596
1.5332
1.71204
1.8526
2.04005
2.23492
2.9099
4.42609
6.41661
0.716843
0.883505
0.995609
1.06051
1.08609
1.08739
1.08044
1.06744
1.07004
1.11209
1.19659
1.30367
1.42756
1.62108
1.77078
1.92732
2.18459
3.14905
4.56542
6.15687
0.66734
0.811705
0.941451
1.03487
1.08248
1.08627
1.08049
1.06676
1.06776
1.08864
1.13328
1.24316
1.35407
1.51196
1.68412
1.85992
2.25688
3.47061
4.51484
5.74192
0.670585
0.760643
0.874426
0.986587
1.0641
1.08338
1.07981
1.07138
1.0687
1.07851
1.09454
1.18564
1.29879
1.42775
1.5915
1.80425
2.46412
3.72182
4.39372
5.2549
0.696428
0.725188
0.809603
0.921465
1.02096
1.0701
1.07717
1.07288
1.06607
1.06152
1.06938
1.13386
1.2335
1.35355
1.51386
1.85749
2.77283
3.8857
4.27638
4.74134
0.756461
0.734415
0.766512
0.854369
0.955808
1.03442
1.06828
1.06616
1.05609
1.04592
1.05354
1.10428
1.17302
1.28124
1.46995
2.04346
3.02075
3.85112
4.11268
4.27734
0.819979
0.780994
0.769651
0.803157
0.878013
0.976276
1.03971
1.0548
1.04391
1.03572
1.03982
1.07424
1.12637
1.23934
1.55167
2.3226
3.15304
3.76739
3.87256
3.85581
0.890197
0.850708
0.784714
0.787097
0.816879
0.902832
0.98463
1.03133
1.03735
1.03324
1.03364
1.04921
1.08656
1.28736
1.81759
2.63784
3.12574
3.57975
3.59927
3.54523
0.987694
0.96847
0.897235
0.821223
0.80818
0.832892
0.886708
0.958132
1.00401
1.02314
1.03828
1.08513
1.25084
1.6637
2.20499
2.68471
2.93932
3.15719
3.14636
3.09249
)
;

boundaryField
{
    inlet
    {
        type            calculated;
        value           uniform 1.40001;
    }
    outlet
    {
        type            calculated;
        value           nonuniform List<scalar> 
35
(
0.987619
0.968437
0.89723
0.821249
0.808271
0.832965
0.886733
0.958139
1.004
1.02315
1.03836
1.08554
1.25197
1.66512
2.20601
2.68514
2.93923
3.15694
3.14633
3.0926
0.92973
0.84807
0.830568
0.850908
0.738852
0.490546
0.542334
0.657282
0.832357
1.04416
1.30443
1.47273
1.49165
1.45911
1.41453
)
;
    }
    airfoil
    {
        type            calculated;
        value           nonuniform List<scalar> 
60
(
0.0818109
0.0786109
0.0754977
0.0730967
0.0714461
0.0603843
0.0467294
0.0385026
0.0314122
0.0249955
0.018124
0.0426713
0.192395
0.454298
0.970338
1.63746
1.6364
1.6369
1.63899
1.6386
1.63846
1.65389
1.68194
1.7023
1.71287
1.71349
1.6732
1.62251
1.55461
1.46898
3.46484
5.93626
5.14497
4.8075
4.71866
4.72199
4.74171
4.74171
4.73458
4.71971
4.70285
4.68285
4.65704
4.63029
4.53583
2.02541
0.784426
0.729277
0.79144
0.888501
0.990306
0.995073
0.994169
1.00614
1.0262
1.02384
1.02555
1.02991
1.02834
1.02093
)
;
    }
    top
    {
        type            symmetryPlane;
    }
    bottom
    {
        type            symmetryPlane;
    }
    defaultFaces
    {
        type            empty;
    }
}


// ************************************************************************* //
