/*--------------------------------*- C++ -*----------------------------------*\
  =========                 |
  \\      /  F ield         | OpenFOAM: The Open Source CFD Toolbox
   \\    /   O peration     | Website:  https://openfoam.org
    \\  /    A nd           | Version:  7
     \\/     M anipulation  |
\*---------------------------------------------------------------------------*/
FoamFile
{
    version     2.0;
    format      ascii;
    class       volVectorField;
    location    "8.6";
    object      U;
}
// * * * * * * * * * * * * * * * * * * * * * * * * * * * * * * * * * * * * * //

dimensions      [0 1 -1 0 0 0 0];

internalField   nonuniform List<vector> 
1750
(
(2.28188 0.0691072 0)
(2.33875 0.606749 0)
(2.34385 0.773016 0)
(2.50784 0.674858 0)
(2.63179 0.516239 0)
(2.706 0.3811 0)
(2.71055 0.251616 0)
(2.71001 0.184703 0)
(2.68404 0.132032 0)
(2.67303 0.105082 0)
(2.34583 -1.80072 0)
(2.40099 -1.21331 0)
(2.26022 -0.265435 0)
(2.18005 0.305425 0)
(2.19307 0.319571 0)
(2.31013 0.202746 0)
(2.41546 0.280004 0)
(2.46121 0.223802 0)
(2.46274 0.128844 0)
(2.52238 0.117334 0)
(2.62531 -2.06805 0)
(2.76011 -1.98302 0)
(2.79521 -1.7538 0)
(2.48289 -0.776375 0)
(2.34139 -0.385307 0)
(2.27899 -0.0372793 0)
(2.31424 0.0397586 0)
(2.36664 0.125797 0)
(2.37429 0.080075 0)
(2.49936 0.0750984 0)
(2.95718 -1.7368 0)
(2.95933 -1.82617 0)
(3.05328 -1.57282 0)
(3.17542 -1.75573 0)
(3.06765 -1.56767 0)
(2.78901 -1.02965 0)
(2.66618 -0.618529 0)
(2.60719 -0.24149 0)
(2.63901 -0.083838 0)
(2.57531 0.0655094 0)
(3.08558 -1.51218 0)
(3.10171 -1.49892 0)
(3.06001 -1.53271 0)
(3.08485 -1.45352 0)
(3.13557 -1.30932 0)
(3.23679 -1.3639 0)
(3.19986 -1.32084 0)
(3.07801 -1.1129 0)
(2.99595 -0.81807 0)
(2.86865 -0.338291 0)
(3.17189 -1.17407 0)
(3.19191 -1.1336 0)
(3.17647 -1.15846 0)
(3.16442 -1.10771 0)
(3.14783 -1.11931 0)
(3.14163 -1.07368 0)
(3.13383 -1.05973 0)
(3.1332 -1.0369 0)
(3.13457 -1.03957 0)
(3.0989 -0.90475 0)
(3.15942 -0.857038 0)
(3.16698 -0.848727 0)
(3.16353 -0.852532 0)
(3.15325 -0.861566 0)
(3.14493 -0.859875 0)
(3.14054 -0.858744 0)
(3.13547 -0.862344 0)
(3.1321 -0.86728 0)
(3.1299 -0.867754 0)
(3.14019 -0.858753 0)
(3.11467 -0.490694 0)
(3.11717 -0.502934 0)
(3.12248 -0.535353 0)
(3.12312 -0.560204 0)
(3.12104 -0.590054 0)
(3.11848 -0.613553 0)
(3.12155 -0.607652 0)
(3.12586 -0.631036 0)
(3.12446 -0.629228 0)
(3.12424 -0.658544 0)
(3.03707 -0.141949 0)
(3.04016 -0.163016 0)
(3.05538 -0.216222 0)
(3.06572 -0.257035 0)
(3.07342 -0.297271 0)
(3.07586 -0.32243 0)
(3.08717 -0.393121 0)
(3.09242 -0.405783 0)
(3.09961 -0.439675 0)
(3.10688 -0.496885 0)
(2.97712 0.0604261 0)
(2.9839 0.0440491 0)
(2.9928 0.0213427 0)
(3.00198 -0.00481763 0)
(3.01304 -0.0409921 0)
(3.02353 -0.0793506 0)
(3.0335 -0.115143 0)
(3.0467 -0.16465 0)
(3.05783 -0.20895 0)
(3.07141 -0.265774 0)
(2.9675 0.0857269 0)
(2.96884 0.0852992 0)
(2.97068 0.0819251 0)
(2.97205 0.0784346 0)
(2.97473 0.0727882 0)
(2.97966 0.0627713 0)
(2.98698 0.0468244 0)
(2.99583 0.0251674 0)
(3.00567 -0.00300587 0)
(3.0234 -0.0618374 0)
(2.97738 0.0625345 0)
(2.97815 0.0622512 0)
(2.97578 0.0681363 0)
(2.97355 0.0717244 0)
(2.97378 0.0715075 0)
(2.97456 0.0714736 0)
(2.97511 0.071138 0)
(2.97644 0.069489 0)
(2.9784 0.0664618 0)
(2.98546 0.0510962 0)
(2.99442 0.0138816 0)
(2.99277 0.0186864 0)
(2.99073 0.0233807 0)
(2.98731 0.0310041 0)
(2.98427 0.0384425 0)
(2.98178 0.0455833 0)
(2.98002 0.051929 0)
(2.9786 0.0569262 0)
(2.97802 0.0604485 0)
(2.97854 0.0601341 0)
(2.99969 0.000669481 0)
(2.99948 0.0011326 0)
(2.99907 0.00194206 0)
(2.99834 0.00335791 0)
(2.99721 0.00572656 0)
(2.99563 0.0091714 0)
(2.99351 0.0141174 0)
(2.99101 0.020281 0)
(2.9882 0.0273447 0)
(2.98476 0.038593 0)
(2.99999 8.46833e-06 0)
(2.99999 1.57146e-05 0)
(2.99998 3.28971e-05 0)
(2.99995 6.96364e-05 0)
(2.99988 0.00015782 0)
(2.99975 0.000325244 0)
(2.99945 0.000717293 0)
(2.99888 0.00139792 0)
(2.99792 0.00264227 0)
(2.99466 0.00641792 0)
(2.09018 -1.53735 0)
(2.23081 -1.58828 0)
(2.49914 -1.90471 0)
(2.8426 -1.86038 0)
(3.06427 -1.5228 0)
(3.14189 -1.24459 0)
(3.15061 -0.879077 0)
(3.11622 -0.475199 0)
(3.03124 -0.103695 0)
(2.97295 0.0687045 0)
(2.96736 0.0838956 0)
(2.97974 0.0522771 0)
(2.99619 0.00944636 0)
(2.99982 0.00041971 0)
(3 5.24675e-06 0)
(2.01301 -1.52493 0)
(2.23093 -1.64449 0)
(2.60057 -1.9307 0)
(2.93622 -1.63813 0)
(3.06873 -1.45033 0)
(3.13475 -1.18519 0)
(3.15241 -0.735768 0)
(3.09072 -0.301565 0)
(3.00029 -0.00553898 0)
(2.96445 0.0889432 0)
(2.96716 0.0828926 0)
(2.9869 0.0362092 0)
(2.99816 0.00486269 0)
(2.99994 0.000144946 0)
(3 1.76687e-06 0)
(1.91599 -1.4389 0)
(2.21554 -1.63462 0)
(2.62338 -1.86512 0)
(2.93826 -1.54809 0)
(3.04343 -1.49247 0)
(3.16123 -1.05471 0)
(3.14289 -0.511858 0)
(3.05302 -0.15977 0)
(2.97844 0.0471348 0)
(2.96143 0.0940186 0)
(2.96922 0.0792145 0)
(2.98841 0.0332015 0)
(2.99891 0.00280432 0)
(2.99997 6.58875e-05 0)
(3 7.19674e-07 0)
(1.7558 -1.40639 0)
(2.21739 -1.6961 0)
(2.68232 -1.80186 0)
(2.88088 -1.69208 0)
(3.06387 -1.4272 0)
(3.15712 -0.680778 0)
(3.12575 -0.424869 0)
(3.03346 -0.126848 0)
(2.96958 0.0713463 0)
(2.96069 0.0966991 0)
(2.97154 0.079313 0)
(2.99299 0.0193372 0)
(2.99951 0.00122705 0)
(2.99999 2.55333e-05 0)
(3 2.69715e-07 0)
(1.52775 -1.3979 0)
(2.27457 -1.81866 0)
(2.63708 -1.88132 0)
(2.82388 -1.69888 0)
(3.13353 -0.989303 0)
(3.17088 -0.684368 0)
(3.0978 -0.370436 0)
(3.00686 -0.0294879 0)
(2.9622 0.0995099 0)
(2.96095 0.100326 0)
(2.98007 0.0549445 0)
(2.99658 0.0101042 0)
(2.99982 0.000497372 0)
(3 9.06642e-06 0)
(3 9.34607e-08 0)
(1.41493 -1.34466 0)
(2.28734 -1.83108 0)
(2.5574 -1.94296 0)
(2.97738 -1.3268 0)
(3.15227 -0.850806 0)
(3.13672 -0.67889 0)
(3.06564 -0.207878 0)
(2.98449 0.0496864 0)
(2.95874 0.111221 0)
(2.96313 0.102245 0)
(2.98544 0.0424308 0)
(2.99792 0.0063243 0)
(2.99993 0.000199563 0)
(3 3.26541e-06 0)
(3 3.15047e-08 0)
(1.35606 -1.3749 0)
(2.24388 -1.77149 0)
(2.61051 -1.81291 0)
(3.00576 -0.926018 0)
(3.14948 -0.913344 0)
(3.12333 -0.400485 0)
(3.0267 -0.0463757 0)
(2.96753 0.0948932 0)
(2.95675 0.114976 0)
(2.96722 0.086247 0)
(2.9884 0.0341667 0)
(2.99907 0.00255376 0)
(2.99997 7.03211e-05 0)
(3 1.08206e-06 0)
(3 1.01404e-08 0)
(1.31729 -1.26736 0)
(2.17935 -1.69626 0)
(2.70537 -1.4374 0)
(3.04586 -1.07253 0)
(3.14854 -0.751546 0)
(3.07466 -0.189184 0)
(3.00213 0.0194939 0)
(2.95808 0.114768 0)
(2.95673 0.113177 0)
(2.97575 0.0646259 0)
(2.99535 0.0136051 0)
(2.99969 0.000861111 0)
(2.99999 2.02998e-05 0)
(3 3.09096e-07 0)
(3 2.92274e-09 0)
(1.42205 -1.1333 0)
(2.10637 -1.60535 0)
(2.74304 -1.26184 0)
(3.07257 -0.997389 0)
(3.11694 -0.329273 0)
(3.05383 -0.11692 0)
(2.97347 0.0876127 0)
(2.95424 0.12138 0)
(2.9618 0.098731 0)
(2.97982 0.0552458 0)
(2.99743 0.00706274 0)
(2.99989 0.000300652 0)
(3 5.83262e-06 0)
(3 8.45753e-08 0)
(3 7.76029e-10 0)
(1.37217 -0.939596 0)
(2.02098 -1.53036 0)
(2.87934 -0.972545 0)
(3.1239 -0.513272 0)
(3.10276 -0.222227 0)
(3.00342 0.0281519 0)
(2.95651 0.120917 0)
(2.95327 0.12217 0)
(2.96508 0.0896079 0)
(2.99032 0.0258603 0)
(2.99902 0.00271144 0)
(2.99997 8.13813e-05 0)
(3 1.52025e-06 0)
(3 2.14928e-08 0)
(3 1.93404e-10 0)
(0.769792 -0.19411 0)
(2.29281 -0.601045 0)
(2.99659 -0.766327 0)
(3.11475 -0.299517 0)
(3.05779 -0.0902659 0)
(2.9706 0.100753 0)
(2.95068 0.129791 0)
(2.95415 0.115945 0)
(2.97312 0.0725967 0)
(2.99569 0.012074 0)
(2.99978 0.000658975 0)
(2.99999 1.79506e-05 0)
(3 3.17944e-07 0)
(3 4.51191e-09 0)
(3 4.15822e-11 0)
(0.389476 0.450224 0)
(2.56558 -0.33526 0)
(3.08676 -0.495569 0)
(3.09737 -0.168429 0)
(3.00025 0.059104 0)
(2.95369 0.135234 0)
(2.94928 0.1318 0)
(2.9589 0.105304 0)
(2.98841 0.0316425 0)
(2.99848 0.00454805 0)
(2.99994 0.000186767 0)
(3 4.01424e-06 0)
(3 6.51086e-08 0)
(3 8.75745e-10 0)
(3 7.80855e-12 0)
(1.17821 0.487078 0)
(2.85873 -0.445394 0)
(3.14575 -0.177967 0)
(3.03761 0.0474561 0)
(2.96326 0.121624 0)
(2.94636 0.146238 0)
(2.94836 0.132127 0)
(2.96938 0.0760572 0)
(2.99355 0.016988 0)
(2.99963 0.00108644 0)
(2.99999 3.47216e-05 0)
(3 6.90383e-07 0)
(3 1.07929e-08 0)
(3 1.41162e-10 0)
(3 1.23837e-12 0)
(2.01897 0.240217 0)
(3.14844 -0.0384391 0)
(3.09599 -0.0137173 0)
(2.97701 0.130519 0)
(2.94519 0.142476 0)
(2.94527 0.147307 0)
(2.95558 0.114759 0)
(2.98602 0.0338511 0)
(2.99811 0.00476291 0)
(2.99991 0.000241395 0)
(3 6.04818e-06 0)
(3 1.09227e-07 0)
(3 1.56836e-09 0)
(3 1.90723e-11 0)
(3 1.59722e-13 0)
(2.68583 0.170621 0)
(3.113 0.0342319 0)
(2.98894 0.12315 0)
(2.94861 0.16059 0)
(2.94253 0.142988 0)
(2.94942 0.132282 0)
(2.97824 0.053292 0)
(2.99502 0.0117999 0)
(2.99969 0.000715713 0)
(2.99999 2.52104e-05 0)
(3 5.95617e-07 0)
(3 1.04568e-08 0)
(3 1.43102e-10 0)
(3 1.63124e-12 0)
(3 1.65013e-14 0)
(2.92948 0.15022 0)
(2.93793 0.151617 0)
(2.94138 0.159821 0)
(2.94177 0.163801 0)
(2.96245 0.131415 0)
(2.97012 0.0826216 0)
(2.99099 0.021495 0)
(2.9996 0.000790967 0)
(2.99999 2.42522e-05 0)
(3 5.28903e-07 0)
(3 1.49371e-09 0)
(3 1.06822e-10 0)
(3 -3.84022e-12 0)
(3 -1.95312e-13 0)
(3 1.63622e-17 0)
(2.92621 0.150858 0)
(2.93416 0.150399 0)
(2.94126 0.156121 0)
(2.94278 0.169199 0)
(2.95341 0.135355 0)
(2.96739 0.0821223 0)
(2.99244 0.0212193 0)
(2.99919 0.00183782 0)
(2.99997 6.74703e-05 0)
(3 1.39838e-06 0)
(3 2.16431e-08 0)
(3 2.73661e-10 0)
(3 2.83984e-12 0)
(3 1.80014e-14 0)
(3 -1.01911e-15 0)
(2.92458 0.152895 0)
(2.93414 0.154516 0)
(2.94516 0.157143 0)
(2.94348 0.170439 0)
(2.96229 0.10945 0)
(2.97758 0.0541949 0)
(2.99704 0.00560609 0)
(2.99986 0.000251643 0)
(3 4.11073e-06 0)
(3 4.83173e-08 0)
(3 4.60313e-10 0)
(3 3.75662e-12 0)
(3 2.81978e-14 0)
(3 -1.37468e-15 0)
(3 -1.75511e-15 0)
(2.92342 0.154668 0)
(2.9328 0.157034 0)
(2.9471 0.154532 0)
(2.94791 0.158572 0)
(2.96292 0.101325 0)
(2.98864 0.0253966 0)
(2.99864 0.00283316 0)
(2.99996 7.39189e-05 0)
(3 1.19081e-06 0)
(3 1.35299e-08 0)
(3 1.27659e-10 0)
(3 1.02073e-12 0)
(3 9.11549e-15 0)
(3 -8.34343e-16 0)
(3 -1.3984e-15 0)
(2.92344 0.156495 0)
(2.93174 0.161945 0)
(2.94767 0.152605 0)
(2.96045 0.137013 0)
(2.97476 0.0695778 0)
(2.99335 0.0149283 0)
(2.99959 0.000767616 0)
(2.99999 1.84841e-05 0)
(3 2.5275e-07 0)
(3 2.68877e-09 0)
(3 2.42505e-11 0)
(3 1.8492e-13 0)
(3 3.57929e-16 0)
(3 -5.68281e-16 0)
(3 -1.11219e-15 0)
(2.92357 0.15823 0)
(2.92563 0.169075 0)
(2.94841 0.148027 0)
(2.95865 0.134325 0)
(2.98172 0.0472146 0)
(2.99727 0.00555473 0)
(2.99987 0.000242274 0)
(3 4.50147e-06 0)
(3 5.64482e-08 0)
(3 5.8748e-10 0)
(3 5.13356e-12 0)
(3 3.72891e-14 0)
(3 -9.55464e-16 0)
(3 -1.08718e-15 0)
(3 -9.78485e-16 0)
(2.92414 0.158761 0)
(2.92184 0.177243 0)
(2.95463 0.138131 0)
(2.971 0.0971679 0)
(2.99152 0.0207296 0)
(2.99901 0.00206319 0)
(2.99997 5.75586e-05 0)
(3 9.5184e-07 0)
(3 1.1524e-08 0)
(3 1.15118e-10 0)
(3 9.64608e-13 0)
(3 4.59456e-15 0)
(3 -1.98531e-15 0)
(3 -7.78023e-16 0)
(3 -6.21928e-16 0)
(2.92045 0.153896 0)
(2.92442 0.189088 0)
(2.97508 0.107266 0)
(2.98192 0.0612428 0)
(2.99521 0.0112405 0)
(2.99971 0.0005348 0)
(2.99999 1.40013e-05 0)
(3 1.96234e-07 0)
(3 2.3223e-09 0)
(3 2.14696e-11 0)
(3 1.76846e-13 0)
(3 -1.70182e-15 0)
(3 -2.29183e-15 0)
(3 -6.70528e-16 0)
(3 -5.1038e-16 0)
(2.92588 0.136861 0)
(2.93076 0.195925 0)
(2.97265 0.0942154 0)
(2.98695 0.0352895 0)
(2.99839 0.0034048 0)
(2.99992 0.000153649 0)
(3 2.71187e-06 0)
(3 3.9809e-08 0)
(3 3.97152e-10 0)
(3 3.77656e-12 0)
(3 2.98019e-14 0)
(3 -2.8113e-15 0)
(3 -2.55651e-15 0)
(3 -1.12874e-15 0)
(3 -3.01435e-16 0)
(2.93492 0.117733 0)
(2.94024 0.170967 0)
(2.97973 0.0625211 0)
(2.99369 0.0154993 0)
(2.99943 0.00115378 0)
(2.99998 3.21693e-05 0)
(3 5.83968e-07 0)
(3 6.43553e-09 0)
(3 7.2024e-11 0)
(3 5.78752e-13 0)
(3 6.73637e-15 0)
(3 -2.03799e-15 0)
(3 -3.56527e-15 0)
(3 -1.69929e-15 0)
(3 -3.37801e-16 0)
(2.93212 0.0880297 0)
(2.95028 0.13813 0)
(2.98801 0.035668 0)
(2.99771 0.00554892 0)
(2.99986 0.00027439 0)
(3 6.2197e-06 0)
(3 8.5226e-08 0)
(3 1.10775e-09 0)
(3 9.40101e-12 0)
(3 8.28861e-14 0)
(3 2.92869e-15 0)
(3 -9.67088e-16 0)
(3 -3.79091e-15 0)
(3 -2.63017e-15 0)
(3 -5.52303e-16 0)
(2.94501 0.0637958 0)
(2.96428 0.0971876 0)
(2.99299 0.0191035 0)
(2.9992 0.00180604 0)
(2.99997 5.49002e-05 0)
(3 9.93483e-07 0)
(3 1.36078e-08 0)
(3 1.25189e-10 0)
(3 1.24907e-12 0)
(3 1.00156e-14 0)
(3 1.99445e-15 0)
(3 -1.31899e-15 0)
(3 -3.85822e-15 0)
(3 -2.53334e-15 0)
(3 -4.58495e-16 0)
(2.95265 0.045799 0)
(2.97518 0.0598826 0)
(2.99714 0.00685872 0)
(2.99982 0.00037782 0)
(3 9.09855e-06 0)
(3 1.31642e-07 0)
(3 1.39889e-09 0)
(3 1.52119e-11 0)
(3 1.1034e-13 0)
(3 1.45921e-15 0)
(3 1.36845e-15 0)
(3 -1.71757e-15 0)
(3 -3.4138e-15 0)
(3 -1.66754e-15 0)
(3 -2.43843e-16 0)
(2.96919 0.0166539 0)
(2.98909 0.0245086 0)
(2.99918 0.0018219 0)
(2.99997 5.76395e-05 0)
(3 9.54572e-07 0)
(3 1.20191e-08 0)
(3 1.34355e-10 0)
(3 1.02066e-12 0)
(3 9.48382e-15 0)
(3 -2.23282e-16 0)
(3 1.04472e-15 0)
(3 -1.7771e-15 0)
(3 -3.20244e-15 0)
(3 -1.31374e-15 0)
(3 -3.19082e-16 0)
(2.98456 0.00497148 0)
(2.99656 0.00669588 0)
(2.99988 0.000230302 0)
(3 4.58178e-06 0)
(3 6.07289e-08 0)
(3 6.67048e-10 0)
(3 5.57209e-12 0)
(3 5.21216e-14 0)
(3 1.3743e-15 0)
(3 -2.02153e-16 0)
(3 5.74655e-16 0)
(3 -2.24673e-15 0)
(3 -2.42707e-15 0)
(3 -1.50618e-15 0)
(3 -9.6705e-16 0)
(3 1.88351e-15 0)
(3 1.86643e-15 0)
(3 1.93122e-15 0)
(3 2.55907e-15 0)
(3 5.47031e-16 0)
(3 -9.31668e-16 0)
(3 6.26183e-16 0)
(3 2.66637e-15 0)
(3 1.36828e-15 0)
(3 -1.2057e-16 0)
(3 -2.57961e-16 0)
(3 -1.99274e-15 0)
(3 -2.16998e-15 0)
(3 -2.67224e-15 0)
(3 -2.18484e-15 0)
(3 5.36965e-16 0)
(3 1.98238e-15 0)
(3 2.70659e-15 0)
(3 4.24408e-15 0)
(3 2.44074e-15 0)
(3 -4.42806e-16 0)
(3 5.44428e-17 0)
(3 2.27799e-15 0)
(3 2.73081e-15 0)
(3 3.17353e-16 0)
(3 -1.62904e-15 0)
(3 -2.22794e-15 0)
(3 -6.25547e-16 0)
(3 -2.68789e-15 0)
(3 -2.8239e-15 0)
(3 -3.19747e-16 0)
(3 1.15168e-15 0)
(3 1.63102e-15 0)
(3 3.39839e-15 0)
(3 3.09956e-15 0)
(3 -1.41659e-16 0)
(3 -7.03726e-16 0)
(3 1.65331e-15 0)
(3 3.13727e-15 0)
(3 7.62074e-16 0)
(3 -3.28456e-15 0)
(3 -2.94408e-15 0)
(3 3.81678e-16 0)
(3 -2.36014e-15 0)
(3 -3.00053e-15 0)
(3 -9.71201e-16 0)
(3 1.99809e-16 0)
(3 -6.21166e-17 0)
(3 2.39925e-15 0)
(3 2.54571e-15 0)
(3 -3.05445e-16 0)
(3 -9.8394e-16 0)
(3 1.81482e-15 0)
(3 4.52696e-15 0)
(3 1.18909e-15 0)
(3 -2.64787e-15 0)
(3 -2.87373e-15 0)
(3 5.58548e-16 0)
(3 -1.79703e-15 0)
(3 -2.79717e-15 0)
(3 -1.8073e-15 0)
(3 -7.09927e-16 0)
(3 -1.15735e-15 0)
(3 5.16939e-16 0)
(3 1.74592e-15 0)
(3 -3.4881e-16 0)
(3 -5.69674e-16 0)
(3 2.92326e-15 0)
(3 5.44391e-15 0)
(3 2.66771e-16 0)
(3 -3.15858e-15 0)
(3 -1.85619e-15 0)
(3 1.02465e-15 0)
(3 -8.1992e-16 0)
(3 -1.91293e-15 0)
(3 -9.96644e-16 0)
(3 -5.59257e-16 0)
(3 -1.75049e-15 0)
(3 2.99099e-16 0)
(3 1.47456e-15 0)
(3 -8.61706e-16 0)
(3 -5.22718e-16 0)
(3 3.00003e-15 0)
(3 5.11529e-15 0)
(3 7.61315e-16 0)
(3 -3.69006e-15 0)
(3 -2.11297e-15 0)
(3 1.74167e-15 0)
(3 5.17012e-17 0)
(3 -1.00006e-15 0)
(3 1.47828e-15 0)
(3 7.22227e-16 0)
(3 -1.00132e-15 0)
(3 -1.80242e-16 0)
(3 1.5309e-15 0)
(3 -6.85708e-16 0)
(3 -1.2529e-15 0)
(3 1.51835e-15 0)
(3 2.86794e-15 0)
(3 1.01834e-16 0)
(3 -3.03722e-15 0)
(3 -1.48916e-15 0)
(3 2.30152e-15 0)
(3 6.27916e-16 0)
(3 -7.46034e-16 0)
(3 1.03202e-15 0)
(3 5.88399e-16 0)
(3 8.5157e-16 0)
(3 -4.19183e-16 0)
(3 2.98357e-16 0)
(3 -4.8725e-16 0)
(3 -1.82732e-15 0)
(3 7.52689e-16 0)
(3 2.31814e-15 0)
(3 1.12978e-15 0)
(3 -1.79577e-15 0)
(3 -1.7102e-15 0)
(3 1.85018e-15 0)
(3 6.07155e-16 0)
(3 -3.96143e-16 0)
(3 -6.27139e-16 0)
(3 9.94909e-16 0)
(3 2.07869e-15 0)
(3 -1.00044e-15 0)
(3 -8.13892e-16 0)
(3 -3.44264e-16 0)
(3 -7.7416e-16 0)
(3 -4.14174e-16 0)
(3 6.00224e-16 0)
(3 1.14164e-15 0)
(3 -8.14496e-17 0)
(3 -8.22375e-16 0)
(3 1.62691e-15 0)
(3 3.78084e-16 0)
(3 -9.33938e-16 0)
(3 -9.12305e-16 0)
(3 -9.21939e-16 0)
(3 2.80871e-15 0)
(3 -1.53097e-16 0)
(3 -9.50669e-16 0)
(3 -3.4965e-16 0)
(3 3.67577e-16 0)
(3 -4.3613e-18 0)
(3 -2.20179e-16 0)
(3 -1.58635e-16 0)
(3 -1.75621e-16 0)
(3 3.64591e-16 0)
(3 6.31897e-16 0)
(3 -5.17268e-16 0)
(3 -6.35506e-16 0)
(3 4.18308e-15 0)
(3 2.24427e-15 0)
(3 5.12822e-16 0)
(3 -7.20865e-16 0)
(3 -6.1517e-16 0)
(3 -5.11128e-16 0)
(3 -8.54198e-16 0)
(3 4.02939e-16 0)
(3 -3.44252e-16 0)
(3 1.10597e-15 0)
(3 2.77059e-15 0)
(3 1.99706e-15 0)
(3 1.91276e-15 0)
(3 1.33556e-15 0)
(3 1.57573e-15 0)
(3 1.78569e-15 0)
(3 -1.04122e-15 0)
(3 -3.48563e-16 0)
(3 -3.01667e-16 0)
(3 5.6256e-16 0)
(3 -1.68857e-15 0)
(3 5.06597e-16 0)
(3 8.61535e-16 0)
(3 1.65947e-15 0)
(3 1.78161e-15 0)
(3 1.88329e-15 0)
(3 1.96404e-15 0)
(3 2.89057e-16 0)
(3 1.87689e-15 0)
(3 3.19611e-16 0)
(3 -1.69901e-15 0)
(3 -3.06722e-16 0)
(3 1.07327e-15 0)
(3 1.84855e-15 0)
(3 2.49658e-15 0)
(3 2.70943e-15 0)
(3 2.15946e-15 0)
(3 2.47727e-15 0)
(3 2.53358e-15 0)
(3 5.84425e-17 0)
(3 -4.49593e-16 0)
(3 1.49293e-15 0)
(3 2.01791e-15 0)
(3 3.23461e-15 0)
(3 3.59291e-15 0)
(3 3.24203e-15 0)
(3 2.5283e-15 0)
(3 2.73328e-15 0)
(3 9.98368e-16 0)
(3 2.45935e-16 0)
(3 -2.33005e-15 0)
(3 -2.39231e-15 0)
(3 -2.69858e-15 0)
(3 -1.01836e-15 0)
(3 -8.1894e-16 0)
(3 -7.8594e-16 0)
(3 1.25669e-16 0)
(3 2.31759e-16 0)
(3 1.72675e-16 0)
(3 -2.16171e-16 0)
(3 -2.10931e-15 0)
(3 -3.37321e-15 0)
(3 -4.56913e-15 0)
(3 -4.36489e-15 0)
(3 -4.22149e-15 0)
(3 -3.17297e-15 0)
(3 -2.82438e-15 0)
(3 -3.61459e-15 0)
(3 -2.01148e-15 0)
(3 -2.63137e-16 0)
(3 9.05326e-16 0)
(3 -2.43902e-16 0)
(3 -7.56478e-16 0)
(3 -3.50295e-15 0)
(3 -4.50309e-15 0)
(3 -4.79818e-15 0)
(3 -4.00746e-15 0)
(3 -2.95329e-15 0)
(3 -2.90501e-15 0)
(3 -1.28946e-15 0)
(3 5.70683e-16 0)
(3 1.1487e-16 0)
(3 7.66528e-16 0)
(3 7.73876e-17 0)
(3 -3.76728e-16 0)
(3 -1.80289e-15 0)
(3 -2.26315e-15 0)
(3 -1.71457e-15 0)
(3 -1.55288e-15 0)
(3 -1.18411e-15 0)
(3 7.86258e-16 0)
(3 1.04076e-15 0)
(3 1.77455e-15 0)
(3 2.65555e-15 0)
(3 3.27502e-15 0)
(3 2.33696e-15 0)
(3 -6.51056e-17 0)
(3 -1.54208e-15 0)
(3 -5.18274e-16 0)
(3 2.76447e-16 0)
(3 -1.94567e-16 0)
(3 -3.30001e-16 0)
(3 -3.03721e-16 0)
(3 -5.00568e-16 0)
(3 -9.20529e-16 0)
(3 -1.44999e-15 0)
(3 -6.96598e-16 0)
(3 2.87461e-16 0)
(3 4.26394e-16 0)
(3 1.51494e-16 0)
(3 -3.1286e-15 0)
(3 -2.87902e-15 0)
(3 -3.21279e-15 0)
(3 -3.8856e-15 0)
(3 -4.11368e-15 0)
(3 -3.21553e-15 0)
(3 -9.32053e-16 0)
(3 1.5625e-15 0)
(3 1.69652e-15 0)
(3 -3.13664e-16 0)
(3 -1.26129e-15 0)
(3 -1.17989e-15 0)
(3 -1.71111e-15 0)
(3 -1.35558e-15 0)
(3 -7.01746e-16 0)
(3 5.74799e-16 0)
(3 6.07747e-16 0)
(3 2.1921e-16 0)
(3 4.61198e-16 0)
(3 9.12975e-16 0)
(3 2.56225e-15 0)
(3 1.68129e-15 0)
(3 1.39664e-15 0)
(3 1.44734e-15 0)
(3 1.01055e-15 0)
(3 6.56891e-16 0)
(3 -3.46205e-16 0)
(3 -3.70838e-16 0)
(3 -4.44268e-16 0)
(3 -1.95485e-16 0)
(3 2.23408e-15 0)
(3 2.86886e-15 0)
(3 2.89272e-15 0)
(3 1.96076e-15 0)
(3 1.76637e-15 0)
(3 1.68931e-15 0)
(3 -1.46921e-16 0)
(3 1.89688e-16 0)
(3 -3.7514e-16 0)
(3 -6.86718e-16 0)
(3 3.46006e-15 0)
(3 4.44129e-15 0)
(3 4.52537e-15 0)
(3 3.57209e-15 0)
(3 3.12807e-15 0)
(3 3.27885e-15 0)
(3 2.91436e-15 0)
(3 1.55992e-15 0)
(3 8.16117e-16 0)
(3 2.76438e-18 0)
(3 3.75725e-15 0)
(3 3.54751e-15 0)
(3 3.89239e-15 0)
(3 3.98792e-15 0)
(3 3.35405e-15 0)
(3 2.54374e-15 0)
(3 2.29237e-15 0)
(3 2.83003e-15 0)
(3 2.13619e-15 0)
(3 1.05902e-15 0)
(3 -7.24036e-16 0)
(3 -5.62027e-16 0)
(3 -4.24029e-16 0)
(3 4.91046e-17 0)
(3 2.96452e-16 0)
(3 -3.12363e-16 0)
(3 -6.86246e-16 0)
(3 -3.10724e-16 0)
(3 5.0616e-16 0)
(3 2.60749e-16 0)
(3 -3.73882e-15 0)
(3 -3.56639e-15 0)
(3 -3.57602e-15 0)
(3 -3.41759e-15 0)
(3 -2.78232e-15 0)
(3 -1.99849e-15 0)
(3 -7.40732e-16 0)
(3 -1.13232e-15 0)
(3 -1.04407e-15 0)
(3 -1.32471e-15 0)
(3 -9.57227e-16 0)
(3 -2.01868e-15 0)
(3 -2.17066e-15 0)
(3 -1.96887e-15 0)
(3 -9.98784e-16 0)
(3 -2.04782e-16 0)
(3 1.47856e-17 0)
(3 8.59396e-18 0)
(3 -3.92867e-16 0)
(3 -2.36319e-16 0)
(2.32385 -0.529707 0)
(2.78225 -0.201131 0)
(3 1.16147e-06 0)
(3 -2.53743e-12 0)
(3 -4.79715e-16 0)
(3 1.04128e-16 0)
(3 -9.92407e-17 0)
(3 1.72215e-15 0)
(3 3.71371e-16 0)
(3 1.89977e-16 0)
(3 -1.06369e-15 0)
(3 -3.64598e-15 0)
(3 -5.94207e-16 0)
(3 2.68777e-15 0)
(3 2.02503e-15 0)
(3 3.87425e-15 0)
(3 3.51516e-15 0)
(3 -1.61738e-15 0)
(3 -2.81271e-15 0)
(3 -2.04915e-16 0)
(1.22005 -0.637222 0)
(1.18825 -0.864851 0)
(2.21754 -0.74979 0)
(2.99999 -0.0386563 0)
(3 8.49039e-08 0)
(3 6.29968e-13 0)
(3 8.40342e-16 0)
(3 1.9391e-15 0)
(3 6.43349e-16 0)
(3 -7.37292e-16 0)
(3 -3.329e-15 0)
(3 -3.27488e-15 0)
(3 1.3724e-16 0)
(3 2.97426e-15 0)
(3 1.92394e-15 0)
(3 4.23236e-15 0)
(3 3.28483e-15 0)
(3 -2.08377e-15 0)
(3 -1.84015e-15 0)
(3 3.45796e-16 0)
(1.3148 -0.80188 0)
(1.2457 -0.921701 0)
(1.324 -0.914538 0)
(1.69042 -0.788471 0)
(2.82321 -0.161371 0)
(2.99995 3.28365e-05 0)
(3 -1.06401e-10 0)
(3 1.6213e-15 0)
(3 -1.08254e-15 0)
(3 -1.87314e-15 0)
(3 -4.81738e-15 0)
(3 -2.88518e-15 0)
(3 1.24911e-15 0)
(3 3.3685e-15 0)
(3 2.60053e-15 0)
(3 4.12499e-15 0)
(3 3.20657e-15 0)
(3 -2.58023e-15 0)
(3 -1.49501e-15 0)
(3 6.80462e-16 0)
(1.34637 -0.893875 0)
(1.30073 -0.903786 0)
(1.32827 -0.902295 0)
(1.37175 -0.899776 0)
(1.613 -0.837873 0)
(2.69422 -0.273217 0)
(3.00036 0.00062473 0)
(3 -7.46858e-07 0)
(3 3.67346e-09 0)
(3 -6.61469e-13 0)
(3 -2.94375e-15 0)
(3 -3.49105e-15 0)
(3 1.4743e-15 0)
(3 4.53284e-15 0)
(3 3.32058e-15 0)
(3 3.77054e-15 0)
(3 3.12116e-15 0)
(3 -2.61902e-15 0)
(3 -1.69107e-15 0)
(3 5.1806e-16 0)
(1.34419 -0.909865 0)
(1.32822 -0.902456 0)
(1.34847 -0.891081 0)
(1.36223 -0.904265 0)
(1.35777 -0.919263 0)
(1.5668 -0.853945 0)
(2.60522 -0.307112 0)
(3.00106 0.000750254 0)
(3 -5.73232e-07 0)
(3 4.1566e-11 0)
(3 -1.82394e-14 0)
(3 -4.40831e-15 0)
(3 -7.20294e-18 0)
(3 4.08925e-15 0)
(3 3.32096e-15 0)
(3 4.12666e-15 0)
(3 1.98266e-15 0)
(3 -1.76752e-15 0)
(3 -1.23793e-15 0)
(3 5.16185e-16 0)
(1.33618 -0.903652 0)
(1.33446 -0.895532 0)
(1.34583 -0.893208 0)
(1.35527 -0.908856 0)
(1.36353 -0.918205 0)
(1.38569 -0.92001 0)
(1.61317 -0.860568 0)
(2.65134 -0.301622 0)
(3.00079 0.000897479 0)
(3 -1.16326e-06 0)
(3 5.3723e-10 0)
(3 -2.58696e-12 0)
(3 1.99706e-14 0)
(3 2.03871e-15 0)
(3 3.43245e-15 0)
(3 4.00173e-15 0)
(3 1.53601e-15 0)
(3 -5.18989e-16 0)
(3 -2.3507e-16 0)
(3 6.75588e-16 0)
(1.33118 -0.89801 0)
(1.3341 -0.895212 0)
(1.34463 -0.898078 0)
(1.35421 -0.912541 0)
(1.37246 -0.915904 0)
(1.38796 -0.921167 0)
(1.38526 -0.931033 0)
(1.57627 -0.843893 0)
(2.64895 -0.27398 0)
(3.00118 0.00103973 0)
(3 -2.3848e-06 0)
(3 6.12298e-09 0)
(3 -8.59842e-12 0)
(3 1.31732e-14 0)
(3 3.9996e-15 0)
(3 3.73818e-15 0)
(3 1.24197e-15 0)
(3 9.67178e-16 0)
(3 7.68602e-16 0)
(3 8.51134e-16 0)
(1.33364 -0.897232 0)
(1.33795 -0.897272 0)
(1.34543 -0.904054 0)
(1.3573 -0.913986 0)
(1.37501 -0.916656 0)
(1.3863 -0.92318 0)
(1.38291 -0.932571 0)
(1.38254 -0.934931 0)
(1.60685 -0.824662 0)
(2.71179 -0.199717 0)
(3.00111 0.000779246 0)
(3 -1.86877e-06 0)
(3 4.28391e-10 0)
(3 -4.38106e-13 0)
(3 -2.63034e-14 0)
(3 2.66295e-15 0)
(3 1.46298e-15 0)
(3 2.42159e-15 0)
(3 1.55297e-15 0)
(3 7.24012e-16 0)
(1.33973 -0.898579 0)
(1.34259 -0.901813 0)
(1.3499 -0.907028 0)
(1.36196 -0.914014 0)
(1.37696 -0.917709 0)
(1.38467 -0.924977 0)
(1.38907 -0.931494 0)
(1.39649 -0.931047 0)
(1.4309 -0.922401 0)
(1.80125 -0.772036 0)
(2.82733 -0.126624 0)
(3.00078 0.0006638 0)
(3 -2.63704e-06 0)
(3 1.10881e-08 0)
(3 1.46766e-10 0)
(3 -9.15086e-13 0)
(3 -1.76807e-14 0)
(3 3.29711e-15 0)
(3 1.91672e-15 0)
(3 5.97669e-16 0)
(1.34869 -0.903216 0)
(1.3498 -0.905497 0)
(1.35591 -0.908247 0)
(1.36768 -0.914039 0)
(1.38118 -0.919532 0)
(1.3904 -0.928175 0)
(1.40316 -0.933132 0)
(1.41612 -0.93285 0)
(1.42507 -0.940985 0)
(1.43903 -0.954799 0)
(2.04587 -0.662863 0)
(2.93362 -0.0538651 0)
(3.00031 0.000276429 0)
(3 -1.56822e-06 0)
(3 -1.45593e-08 0)
(3 6.49971e-11 0)
(3 5.69091e-13 0)
(3 4.11619e-15 0)
(3 1.55236e-15 0)
(3 3.38499e-16 0)
(1.35699 -0.908967 0)
(1.35741 -0.91036 0)
(1.36332 -0.910821 0)
(1.37357 -0.917088 0)
(1.38813 -0.923446 0)
(1.40051 -0.93555 0)
(1.41711 -0.939401 0)
(1.42557 -0.945809 0)
(1.42354 -0.951628 0)
(1.41962 -0.954923 0)
(1.54999 -0.923884 0)
(2.46055 -0.466221 0)
(2.99368 -0.00943537 0)
(3.00002 5.76119e-05 0)
(3 1.52877e-07 0)
(3 -6.78916e-10 0)
(3 -6.16272e-12 0)
(3 1.72881e-14 0)
(3 1.91667e-15 0)
(3 9.8351e-17 0)
(1.36559 -0.914446 0)
(1.36583 -0.915682 0)
(1.37124 -0.915777 0)
(1.38098 -0.922236 0)
(1.39606 -0.928902 0)
(1.40968 -0.942407 0)
(1.42447 -0.947313 0)
(1.42688 -0.953567 0)
(1.42485 -0.95423 0)
(1.43599 -0.948447 0)
(1.47479 -0.957225 0)
(1.6009 -0.886219 0)
(2.6143 -0.27008 0)
(3.00033 -0.000642637 0)
(3 3.50304e-07 0)
(3 1.77749e-08 0)
(3 2.17594e-11 0)
(3 -3.38835e-12 0)
(3 -2.2157e-14 0)
(3 -2.44332e-16 0)
(1.3747 -0.920529 0)
(1.37466 -0.922057 0)
(1.37941 -0.922186 0)
(1.38848 -0.928544 0)
(1.4034 -0.934357 0)
(1.41647 -0.945741 0)
(1.42758 -0.950675 0)
(1.42926 -0.955972 0)
(1.43058 -0.953858 0)
(1.45096 -0.948291 0)
(1.47055 -0.96127 0)
(1.46811 -0.966508 0)
(1.91376 -0.749525 0)
(2.86167 -0.108334 0)
(3.00064 0.00055045 0)
(3.00002 1.83502e-05 0)
(3 9.04895e-08 0)
(3 1.15069e-10 0)
(3 -4.18202e-12 0)
(3 -2.88506e-13 0)
(1.38505 -0.926514 0)
(1.38497 -0.928704 0)
(1.38935 -0.928686 0)
(1.39716 -0.93344 0)
(1.4102 -0.938386 0)
(1.42197 -0.947732 0)
(1.43293 -0.951746 0)
(1.43695 -0.956428 0)
(1.44459 -0.953892 0)
(1.4639 -0.951078 0)
(1.47816 -0.962317 0)
(1.48597 -0.964421 0)
(1.5325 -0.943602 0)
(2.25455 -0.546208 0)
(2.97161 -0.0325918 0)
(2.99996 -6.39004e-05 0)
(3 -3.98794e-08 0)
(3 9.73006e-11 0)
(3 1.29098e-11 0)
(3 -5.35538e-15 0)
(1.42625 -0.934949 0)
(1.42938 -0.939695 0)
(1.43861 -0.938048 0)
(1.44823 -0.94125 0)
(1.45798 -0.945575 0)
(1.46806 -0.950956 0)
(1.47581 -0.953446 0)
(1.47986 -0.956755 0)
(1.48794 -0.951671 0)
(1.49908 -0.955182 0)
(1.50899 -0.963827 0)
(1.51171 -0.967722 0)
(1.50751 -0.995928 0)
(1.75443 -0.889522 0)
(2.77173 -0.200932 0)
(3.01153 0.0116791 0)
(3.0005 0.000605717 0)
(3 4.75872e-06 0)
(3 2.14826e-08 0)
(3 9.24498e-11 0)
(2.02885 -0.812778 0)
(2.09128 -0.67138 0)
(1.89627 -0.797062 0)
(1.81197 -0.853265 0)
(1.76537 -0.879168 0)
(1.70322 -0.912489 0)
(1.67631 -0.922649 0)
(1.64313 -0.937618 0)
(1.62387 -0.940635 0)
(1.61103 -0.946956 0)
(1.60213 -0.953997 0)
(1.59246 -0.964264 0)
(1.57143 -0.985366 0)
(1.60044 -0.948154 0)
(1.88085 -0.781867 0)
(2.75942 -0.221487 0)
(2.99555 -0.00886889 0)
(2.99998 -5.32239e-05 0)
(3 -2.04338e-07 0)
(3 -6.46921e-10 0)
(2.57386 -0.848472 0)
(2.52845 -0.291073 0)
(2.26168 -0.564364 0)
(2.14481 -0.688943 0)
(2.03549 -0.766355 0)
(1.96381 -0.806271 0)
(1.89406 -0.842453 0)
(1.82281 -0.884238 0)
(1.79221 -0.894903 0)
(1.74203 -0.922139 0)
(1.72193 -0.926745 0)
(1.70199 -0.943957 0)
(1.66085 -0.957548 0)
(1.64289 -0.942969 0)
(1.65553 -0.94042 0)
(2.0939 -0.727405 0)
(2.87786 -0.142053 0)
(2.99846 -0.00383036 0)
(2.99999 -2.47324e-05 0)
(3 -9.49459e-08 0)
(2.73119 -0.143654 0)
(2.73414 0.207711 0)
(2.52908 -0.182205 0)
(2.43308 -0.37196 0)
(2.26792 -0.584796 0)
(2.19978 -0.644279 0)
(2.07121 -0.749314 0)
(2.01612 -0.783561 0)
(1.94083 -0.833575 0)
(1.88661 -0.869806 0)
(1.83496 -0.896837 0)
(1.80955 -0.910246 0)
(1.75225 -0.93024 0)
(1.72778 -0.924342 0)
(1.68915 -0.937234 0)
(1.76355 -0.930821 0)
(2.35369 -0.591567 0)
(2.94663 -0.0709176 0)
(2.99952 -0.000960974 0)
(3 -4.48272e-06 0)
(2.88764 0.126363 0)
(2.81599 0.337657 0)
(2.64646 -0.0817287 0)
(2.56769 -0.225424 0)
(2.48632 -0.332954 0)
(2.34375 -0.515926 0)
(2.24158 -0.62743 0)
(2.17117 -0.691055 0)
(2.06599 -0.776568 0)
(2.01772 -0.804802 0)
(1.94415 -0.855881 0)
(1.90519 -0.869395 0)
(1.84732 -0.892187 0)
(1.81649 -0.895361 0)
(1.75799 -0.927582 0)
(1.76028 -0.941901 0)
(2.00575 -0.852468 0)
(2.69926 -0.335585 0)
(2.99046 -0.0171825 0)
(2.99993 -0.000118065 0)
(2.85971 0.202572 0)
(2.82542 0.243262 0)
(2.6752 0.0429039 0)
(2.66243 -0.0150396 0)
(2.58871 -0.226421 0)
(2.46498 -0.398138 0)
(2.40758 -0.470168 0)
(2.28681 -0.6015 0)
(2.22274 -0.660966 0)
(2.13297 -0.731166 0)
(2.0738 -0.771081 0)
(2.00689 -0.808156 0)
(1.95134 -0.834588 0)
(1.89646 -0.867702 0)
(1.85093 -0.89983 0)
(1.8023 -0.94127 0)
(1.86021 -0.935419 0)
(2.29737 -0.677099 0)
(2.90363 -0.125105 0)
(2.9987 -0.00208949 0)
(2.80696 0.190046 0)
(2.79913 0.214037 0)
(2.72705 0.177336 0)
(2.71815 0.224532 0)
(2.67362 -0.00412744 0)
(2.61725 -0.15938 0)
(2.52572 -0.315658 0)
(2.42203 -0.454514 0)
(2.3537 -0.527292 0)
(2.24293 -0.645089 0)
(2.17953 -0.690393 0)
(2.09796 -0.752004 0)
(2.03234 -0.793819 0)
(1.99066 -0.830492 0)
(1.92075 -0.877757 0)
(1.86261 -0.926505 0)
(1.87091 -0.934104 0)
(2.0567 -0.86643 0)
(2.66542 -0.388567 0)
(2.98283 -0.0232629 0)
(2.80162 0.173498 0)
(2.78743 0.173782 0)
(2.76183 0.222708 0)
(2.75053 0.26327 0)
(2.72274 0.0789461 0)
(2.69614 -0.0147761 0)
(2.6024 -0.200852 0)
(2.53007 -0.326366 0)
(2.42283 -0.475836 0)
(2.32834 -0.584491 0)
(2.24976 -0.658843 0)
(2.17086 -0.71538 0)
(2.11247 -0.754849 0)
(2.06899 -0.795553 0)
(1.9917 -0.844616 0)
(1.93734 -0.883367 0)
(1.89992 -0.922939 0)
(1.96603 -0.935064 0)
(2.33343 -0.69978 0)
(2.89427 -0.105954 0)
(2.80204 0.158009 0)
(2.78666 0.157402 0)
(2.75207 0.205665 0)
(2.7525 0.213338 0)
(2.72046 0.076909 0)
(2.71165 0.0151644 0)
(2.64997 -0.145916 0)
(2.594 -0.258067 0)
(2.48336 -0.414167 0)
(2.42361 -0.489754 0)
(2.32679 -0.593214 0)
(2.26811 -0.629581 0)
(2.20781 -0.679964 0)
(2.14073 -0.747609 0)
(2.07881 -0.787128 0)
(2.00755 -0.833473 0)
(1.95243 -0.897588 0)
(1.97219 -0.932131 0)
(2.21341 -0.831944 0)
(2.68987 -0.279731 0)
(2.79537 0.157782 0)
(2.77011 0.162374 0)
(2.73883 0.182476 0)
(2.73405 0.185576 0)
(2.73478 0.141541 0)
(2.75764 0.151577 0)
(2.71704 -0.00346684 0)
(2.66419 -0.133625 0)
(2.5836 -0.270884 0)
(2.51582 -0.351804 0)
(2.42772 -0.463697 0)
(2.34777 -0.529461 0)
(2.28233 -0.603689 0)
(2.20747 -0.69606 0)
(2.14304 -0.747077 0)
(2.05622 -0.812508 0)
(2.00754 -0.866662 0)
(1.99618 -0.914954 0)
(2.11136 -0.90393 0)
(2.41398 -0.489575 0)
(2.77984 0.152902 0)
(2.75676 0.150105 0)
(2.73398 0.158309 0)
(2.73175 0.176076 0)
(2.74764 0.173995 0)
(2.76462 0.22658 0)
(2.74765 0.106166 0)
(2.71404 -0.00152585 0)
(2.65583 -0.12724 0)
(2.56699 -0.277341 0)
(2.49635 -0.371939 0)
(2.38931 -0.508101 0)
(2.33375 -0.578326 0)
(2.26385 -0.667065 0)
(2.18435 -0.735793 0)
(2.11626 -0.778325 0)
(2.07941 -0.807805 0)
(2.03796 -0.886167 0)
(2.08939 -0.927345 0)
(2.19551 -0.576 0)