/*--------------------------------*- C++ -*----------------------------------*\
  =========                 |
  \\      /  F ield         | OpenFOAM: The Open Source CFD Toolbox
   \\    /   O peration     | Website:  https://openfoam.org
    \\  /    A nd           | Version:  7
     \\/     M anipulation  |
\*---------------------------------------------------------------------------*/
FoamFile
{
    version     2.0;
    format      ascii;
    class       volScalarField;
    location    "3";
    object      T;
}
// * * * * * * * * * * * * * * * * * * * * * * * * * * * * * * * * * * * * * //

dimensions      [0 0 0 1 0 0 0];

internalField   nonuniform List<scalar> 
12750
(
99.9599
100.179
100.267
100.319
100.357
100.385
100.411
100.435
100.453
100.473
100.467
100.456
100.447
100.447
100.445
100.439
100.438
100.44
100.438
100.435
100.428
100.423
100.42
100.419
100.429
100.433
100.421
100.421
100.433
100.433
99.2752
99.2679
99.2576
99.2852
99.3926
99.6196
99.8327
100.023
100.192
100.319
100.408
100.471
100.506
100.541
100.554
100.55
100.541
100.53
100.533
100.529
100.518
100.512
100.512
100.513
100.528
100.529
100.515
100.517
100.525
100.504
99.2585
99.2519
99.2466
99.2436
99.2401
99.2374
99.2367
99.237
99.2373
99.2351
99.3848
99.6664
100.019
100.219
100.349
100.432
100.507
100.543
100.585
100.586
100.58
100.577
100.585
100.586
100.591
100.592
100.589
100.6
100.608
100.572
99.2409
99.2374
99.2352
99.2362
99.2366
99.2365
99.2359
99.2357
99.234
99.2279
99.2176
99.2079
99.1977
99.193
99.1948
99.327
99.6886
100.086
100.269
100.41
100.505
100.58
100.613
100.609
100.605
100.607
100.61
100.631
100.649
100.611
99.2321
99.2313
99.2316
99.2333
99.2349
99.2355
99.2336
99.2277
99.2179
99.2082
99.2013
99.1956
99.1914
99.1911
99.1936
99.1968
99.1982
99.1999
99.2037
99.278
99.692
100.056
100.269
100.4
100.465
100.516
100.561
100.625
100.654
100.622
99.2291
99.2298
99.2313
99.2324
99.2311
99.224
99.2106
99.1998
99.1946
99.1917
99.1899
99.1902
99.1933
99.1928
99.1928
99.1955
99.2048
99.2183
99.2305
99.2372
99.2513
99.2653
99.2755
99.6081
99.8731
100.12
100.353
100.494
100.602
100.604
99.2289
99.2295
99.2282
99.2218
99.2109
99.198
99.1881
99.185
99.1855
99.1863
99.1872
99.1924
99.2039
99.2044
99.2028
99.2065
99.2167
99.2342
99.2528
99.2606
99.2726
99.2936
99.3138
99.3232
99.3337
99.355
99.8177
100.111
100.409
100.561
99.2145
99.2116
99.2064
99.1987
99.1912
99.1841
99.181
99.1814
99.1832
99.1871
99.1945
99.2045
99.2154
99.2238
99.226
99.2269
99.2349
99.2544
99.2802
99.2942
99.2963
99.3105
99.3308
99.351
99.3643
99.3694
99.3812
99.4809
100.055
100.472
99.1974
99.1949
99.1919
99.1877
99.1853
99.1824
99.1808
99.1823
99.1913
99.2053
99.2206
99.23
99.2366
99.243
99.2421
99.2436
99.2612
99.289
99.3079
99.3176
99.3225
99.3313
99.3502
99.3714
99.3825
99.3943
99.4103
99.423
99.4936
100.337
99.1912
99.1902
99.1889
99.1862
99.1879
99.1941
99.2027
99.2147
99.2276
99.2379
99.2486
99.2539
99.2551
99.2576
99.264
99.2792
99.3023
99.326
99.3312
99.337
99.349
99.3627
99.3773
99.3902
99.4026
99.4145
99.4258
99.4446
99.4536
99.8957
99.1957
99.1981
99.203
99.2132
99.2293
99.2437
99.2544
99.2599
99.2602
99.2614
99.2668
99.2719
99.2762
99.2873
99.3075
99.3275
99.3397
99.3524
99.3564
99.36
99.3699
99.3894
99.4014
99.4114
99.4266
99.4359
99.448
99.4583
99.474
99.4924
99.248
99.2545
99.26
99.2654
99.2715
99.2781
99.2868
99.2866
99.2806
99.2818
99.2913
99.3078
99.3263
99.3414
99.3558
99.3639
99.365
99.3685
99.3761
99.3871
99.4002
99.4175
99.431
99.4393
99.4489
99.4599
99.4764
99.4917
99.4974
99.5139
99.2987
99.3022
99.3029
99.3027
99.3029
99.3055
99.3137
99.3216
99.3253
99.3337
99.3497
99.3679
99.379
99.3824
99.3877
99.3888
99.3897
99.3936
99.4046
99.4237
99.4427
99.4498
99.4596
99.4654
99.4725
99.4869
99.5039
99.5196
99.5208
99.5306
99.3457
99.3488
99.3514
99.3525
99.3545
99.3609
99.3702
99.3788
99.3865
99.3951
99.4012
99.4094
99.4129
99.4119
99.4125
99.4182
99.4293
99.4413
99.4557
99.4666
99.4796
99.4839
99.4873
99.4954
99.508
99.5193
99.5288
99.5378
99.5447
99.5551
99.4021
99.408
99.4129
99.4154
99.4164
99.4182
99.421
99.4248
99.4333
99.4379
99.4383
99.4404
99.4471
99.4535
99.4586
99.4681
99.4803
99.4915
99.502
99.5067
99.5105
99.518
99.5244
99.5313
99.5407
99.5513
99.5543
99.5604
99.5716
99.5852
99.4534
99.4604
99.4688
99.4742
99.4738
99.4699
99.4693
99.4716
99.4788
99.4871
99.4918
99.4956
99.5014
99.5088
99.515
99.5208
99.527
99.5322
99.5359
99.5403
99.5431
99.5483
99.5572
99.567
99.5747
99.5832
99.5914
99.5938
99.5979
99.6098
99.5118
99.5155
99.5251
99.5368
99.5384
99.5353
99.5332
99.5342
99.5385
99.546
99.5504
99.5527
99.5557
99.5602
99.5626
99.564
99.5684
99.5709
99.572
99.5757
99.5837
99.5919
99.5993
99.6078
99.6144
99.6189
99.6248
99.6271
99.6278
99.6328
99.5823
99.5826
99.585
99.5928
99.6007
99.6025
99.6009
99.5981
99.5983
99.6015
99.6059
99.6075
99.609
99.612
99.6146
99.6162
99.6188
99.6233
99.6285
99.634
99.64
99.6457
99.6491
99.6502
99.6517
99.6516
99.6525
99.6572
99.6623
99.6661
99.6599
99.6569
99.6569
99.6587
99.6642
99.6695
99.671
99.6695
99.6666
99.6668
99.669
99.671
99.6722
99.6738
99.6759
99.6772
99.6785
99.6807
99.6839
99.6863
99.6872
99.6876
99.688
99.6868
99.6863
99.6876
99.6902
99.6932
99.6962
99.6962
99.7463
99.74
99.7343
99.733
99.7342
99.7383
99.7423
99.7427
99.7391
99.7356
99.7361
99.7365
99.7359
99.7358
99.7359
99.7352
99.7336
99.7331
99.7324
99.7312
99.7297
99.7298
99.7298
99.7304
99.732
99.7334
99.7333
99.732
99.7294
99.7255
99.8275
99.8263
99.8195
99.8124
99.8103
99.8113
99.8146
99.8156
99.8139
99.8085
99.8057
99.8046
99.8031
99.8011
99.7995
99.7976
99.7943
99.7924
99.7908
99.7892
99.7873
99.7857
99.7837
99.7808
99.7778
99.7743
99.7711
99.7672
99.7635
99.7592
99.8974
99.8975
99.8965
99.8892
99.8835
99.8838
99.8836
99.8829
99.8807
99.8759
99.8738
99.8724
99.869
99.8642
99.8608
99.8581
99.8545
99.8501
99.8464
99.8427
99.839
99.8346
99.8304
99.8256
99.8208
99.8156
99.8111
99.8069
99.8038
99.7986
99.9444
99.9444
99.9443
99.9425
99.9376
99.9366
99.9361
99.9353
99.9334
99.9291
99.9268
99.9257
99.9235
99.9194
99.9153
99.9119
99.9084
99.9041
99.8997
99.8952
99.8909
99.8861
99.8808
99.8754
99.8693
99.864
99.858
99.852
99.8469
99.8375
99.9648
99.9648
99.9647
99.9644
99.9637
99.9622
99.9613
99.9612
99.9608
99.9597
99.9577
99.9566
99.9557
99.9539
99.9516
99.9493
99.947
99.9441
99.9409
99.9376
99.934
99.9301
99.9255
99.9203
99.9143
99.9079
99.9012
99.8938
99.8869
99.8756
99.9719
99.972
99.9721
99.9721
99.9719
99.971
99.9707
99.9705
99.9705
99.9702
99.9696
99.9691
99.9687
99.968
99.9672
99.9663
99.9654
99.9642
99.9628
99.9613
99.9597
99.9578
99.9556
99.9526
99.9489
99.9442
99.9388
99.9325
99.9261
99.9146
99.9774
99.9775
99.9778
99.9779
99.9778
99.9772
99.9766
99.9763
99.9762
99.976
99.9756
99.9754
99.9752
99.9747
99.9741
99.9737
99.9732
99.9727
99.972
99.9712
99.9706
99.9701
99.9695
99.9686
99.9673
99.9654
99.9627
99.959
99.955
99.946
99.9863
99.9864
99.9865
99.9862
99.986
99.9858
99.9849
99.9844
99.9843
99.984
99.9833
99.9828
99.9825
99.982
99.9813
99.9806
99.9801
99.9794
99.9787
99.978
99.9773
99.9769
99.9765
99.9762
99.9759
99.9753
99.9744
99.9731
99.9714
99.9666
99.996
99.9958
99.9956
99.9955
99.9952
99.9951
99.9947
99.9941
99.9939
99.9937
99.9932
99.9924
99.992
99.9915
99.9908
99.99
99.9892
99.9884
99.9875
99.9865
99.9855
99.9845
99.9838
99.9831
99.9826
99.9822
99.9817
99.9812
99.9807
99.9788
99.9996
99.9996
99.9995
99.9995
99.9994
99.9994
99.9993
99.9992
99.9991
99.999
99.9989
99.9987
99.9984
99.9982
99.9979
99.9976
99.9971
99.9966
99.996
99.9953
99.9945
99.9935
99.9925
99.9916
99.9906
99.9899
99.9891
99.9885
99.9882
99.9874
100
100
100
100
100
100
100
100
100
100
99.9999
99.9999
99.9999
99.9999
99.9999
99.9998
99.9997
99.9997
99.9995
99.9994
99.9992
99.9989
99.9985
99.998
99.9974
99.9968
99.9962
99.9956
99.9951
99.9947
100
100
100
100
100
100
100
100
100
100
100
100
100
100
100
100
100
100
100
100
100
99.9999
99.9999
99.9998
99.9997
99.9996
99.9995
99.9993
99.9991
99.9989
100
100
100
100
100
100
100
100
100
100
100
100
100
100
100
100
100
100
100
100
100
100
100
100
100
100
100
100
99.9999
99.9999
100
100
100
100
100
100
100
100
100
100
100
100
100
100
100
100
100
100
100
100
100
100
100
100
100
100
100
100
100
100
100
100
100
100
100
100
100
100
100
100
100
100
100
100
100
100
100
100
100
100
100
100
100
100
100
100
100
100
100
100
100
100
100
100
100
100
100
100
100
100
100
100
100
100
100
100
100
100
100
100
100
100
100
100
100
100
100
100
100
100
99.2913
99.2831
99.266
99.2459
99.2343
99.2285
99.2258
99.2158
99.2003
99.1949
99.1945
99.2413
99.2939
99.3409
99.3954
99.4495
99.5105
99.585
99.6679
99.7492
99.8277
99.8981
99.9454
99.965
99.9718
99.9775
99.987
99.9966
99.9997
100
100
100
100
100
100
99.2891
99.2801
99.2628
99.2435
99.2319
99.2254
99.2155
99.2023
99.1979
99.2014
99.2012
99.2478
99.2999
99.3455
99.4013
99.4604
99.532
99.6086
99.6846
99.7612
99.8391
99.9077
99.9511
99.9674
99.9729
99.9792
99.9891
99.9973
99.9998
100
100
100
100
100
100
99.2861
99.2789
99.2635
99.2439
99.2305
99.2224
99.2089
99.1933
99.1976
99.2051
99.2059
99.2477
99.3002
99.3453
99.4074
99.4771
99.5486
99.6179
99.6902
99.7667
99.8459
99.9157
99.9556
99.969
99.9742
99.9804
99.9899
99.9976
99.9998
100
100
100
100
100
100
99.2828
99.2779
99.2632
99.2433
99.2292
99.2209
99.2063
99.1892
99.1975
99.2065
99.2112
99.2466
99.3042
99.3589
99.4257
99.4886
99.5548
99.6224
99.6936
99.773
99.8599
99.9276
99.9596
99.9698
99.9747
99.981
99.9905
99.998
99.9999
100
100
100
100
100
100
99.2818
99.2774
99.2614
99.2418
99.228
99.2202
99.2055
99.188
99.1955
99.2076
99.2153
99.255
99.3221
99.3751
99.4341
99.4934
99.557
99.6247
99.7037
99.7969
99.8796
99.9356
99.9616
99.9702
99.9748
99.9812
99.9913
99.9985
99.9999
100
100
100
100
100
100
99.2817
99.2769
99.2595
99.2408
99.2278
99.2208
99.2059
99.1884
99.1931
99.2096
99.2207
99.2642
99.3315
99.3811
99.4382
99.4975
99.5607
99.6423
99.7336
99.8168
99.889
99.94
99.9633
99.9705
99.9748
99.9819
99.9928
99.9989
100
100
100
100
100
100
100
99.2817
99.2759
99.2578
99.2402
99.2294
99.2241
99.2089
99.1898
99.1927
99.2142
99.2274
99.2679
99.3331
99.3836
99.4402
99.5055
99.5857
99.6688
99.7483
99.8258
99.8965
99.945
99.9654
99.9712
99.9755
99.984
99.9942
99.9992
100
100
100
100
100
100
100
99.2814
99.274
99.2561
99.24
99.2318
99.2275
99.2115
99.1899
99.1925
99.2193
99.2315
99.2684
99.3319
99.3847
99.4519
99.5289
99.605
99.679
99.7558
99.8342
99.9052
99.9511
99.9675
99.9724
99.977
99.9853
99.9948
99.9993
100
100
100
100
100
100
100
99.2809
99.2714
99.2545
99.2396
99.2323
99.2289
99.2123
99.1891
99.1919
99.2213
99.2336
99.2675
99.335
99.4021
99.4752
99.5428
99.613
99.6851
99.7618
99.8445
99.9178
99.9567
99.9688
99.9729
99.9776
99.9859
99.9954
99.9995
100
100
100
100
100
100
100
99.2796
99.2684
99.2526
99.2378
99.2321
99.229
99.2118
99.1851
99.1863
99.2172
99.2387
99.2813
99.3595
99.4219
99.486
99.549
99.6168
99.6901
99.7762
99.8661
99.9295
99.96
99.9694
99.973
99.9778
99.9866
99.9962
99.9997
100
100
100
100
100
100
100
99.2755
99.2654
99.2504
99.234
99.2289
99.2263
99.2054
99.1817
99.1819
99.2136
99.252
99.301
99.3738
99.4297
99.4897
99.5525
99.6218
99.7116
99.8052
99.882
99.9363
99.9623
99.9698
99.9731
99.9778
99.9879
99.9972
99.9998
100
100
100
100
100
100
100
99.2731
99.2635
99.248
99.2299
99.2215
99.218
99.1948
99.1811
99.1817
99.2239
99.2676
99.3088
99.3767
99.4316
99.4903
99.5618
99.6521
99.7404
99.8202
99.8913
99.942
99.9644
99.9704
99.9734
99.9795
99.9902
99.9979
99.9999
100
100
100
100
100
100
100
99.2725
99.2619
99.2454
99.2262
99.2147
99.2111
99.1902
99.1834
99.186
99.2346
99.2759
99.3125
99.3767
99.4316
99.5048
99.5919
99.6737
99.7521
99.8304
99.9011
99.9485
99.9666
99.9714
99.9747
99.9814
99.9914
99.9983
99.9999
100
100
100
100
100
100
100
99.2719
99.2608
99.2441
99.2243
99.2121
99.2084
99.1892
99.188
99.1891
99.2368
99.2794
99.3172
99.3791
99.4526
99.5326
99.607
99.6823
99.7606
99.841
99.9132
99.9549
99.9683
99.972
99.9755
99.9823
99.9922
99.9986
99.9999
100
100
100
100
100
100
100
99.2717
99.2605
99.2443
99.2241
99.2124
99.2085
99.1898
99.1899
99.187
99.2301
99.2819
99.3328
99.4071
99.4767
99.545
99.614
99.6886
99.7703
99.8591
99.9267
99.9596
99.9693
99.9721
99.9757
99.9829
99.9931
99.999
100
100
100
100
100
100
100
100
99.274
99.2617
99.2456
99.2264
99.2137
99.2089
99.1905
99.1911
99.185
99.2217
99.2934
99.3556
99.423
99.4851
99.55
99.6198
99.6994
99.7967
99.8803
99.9364
99.9626
99.9697
99.9722
99.9756
99.9836
99.9945
99.9994
100
100
100
100
100
100
100
100
99.276
99.263
99.2461
99.2301
99.215
99.2093
99.1911
99.1942
99.188
99.229
99.3116
99.3655
99.4271
99.4884
99.5529
99.6359
99.7355
99.822
99.8936
99.9433
99.9649
99.9702
99.9723
99.9761
99.9859
99.9959
99.9996
100
100
100
100
100
100
100
100
99.2762
99.2618
99.2459
99.2332
99.2185
99.2104
99.193
99.1994
99.1959
99.241
99.3174
99.3671
99.4291
99.4917
99.5785
99.6748
99.7587
99.8361
99.9046
99.9499
99.9669
99.9708
99.9731
99.9782
99.988
99.9967
99.9997
100
100
100
100
100
100
100
100
99.2712
99.257
99.2443
99.2349
99.2203
99.2119
99.1954
99.204
99.2021
99.2437
99.3213
99.3688
99.4351
99.5229
99.6127
99.6925
99.7708
99.849
99.9167
99.9561
99.9686
99.9715
99.974
99.9795
99.989
99.9973
99.9998
100
100
100
100
100
100
100
100
99.2642
99.2548
99.2426
99.2331
99.2174
99.2067
99.1937
99.2045
99.2081
99.2454
99.3264
99.3928
99.4698
99.5505
99.6257
99.7014
99.782
99.865
99.9297
99.961
99.9697
99.9718
99.9745
99.9802
99.9901
99.9979
99.9999
100
100
100
100
100
100
100
100
99.2613
99.2554
99.2426
99.2265
99.2051
99.1848
99.1812
99.1998
99.2179
99.2567
99.3435
99.42
99.4913
99.5603
99.6316
99.7098
99.801
99.886
99.9405
99.9643
99.9702
99.9719
99.9745
99.9808
99.9916
99.9986
99.9999
100
100
100
100
100
100
100
100
99.2609
99.2596
99.2446
99.22
99.1908
99.1646
99.1661
99.2035
99.2404
99.2856
99.3633
99.4316
99.497
99.5637
99.6362
99.7337
99.8304
99.9028
99.9485
99.9665
99.9704
99.9719
99.9744
99.9823
99.9936
99.9991
100
100
100
100
100
100
100
100
100
99.2639
99.2651
99.2456
99.214
99.1849
99.1583
99.1621
99.2183
99.2649
99.3066
99.3714
99.4328
99.4975
99.5676
99.6706
99.7703
99.8509
99.9159
99.955
99.968
99.9707
99.9721
99.9758
99.9851
99.995
99.9994
100
100
100
100
100
100
100
100
100
99.2699
99.2668
99.247
99.2131
99.185
99.158
99.1626
99.2263
99.2737
99.3109
99.3756
99.4305
99.506
99.6121
99.7091
99.7912
99.8675
99.9284
99.9604
99.9693
99.9711
99.9729
99.9777
99.9867
99.9959
99.9996
100
100
100
100
100
100
100
100
100
99.2729
99.2657
99.2484
99.2197
99.1954
99.1682
99.1707
99.2265
99.2743
99.3075
99.3782
99.4566
99.5552
99.6464
99.7278
99.8084
99.8849
99.9401
99.9644
99.9702
99.9716
99.9737
99.9786
99.9879
99.9967
99.9997
100
100
100
100
100
100
100
100
100
99.2736
99.2638
99.2524
99.2272
99.2067
99.1788
99.1757
99.2139
99.2705
99.3113
99.397
99.4981
99.5832
99.6619
99.7429
99.8278
99.9038
99.9496
99.9672
99.9708
99.9718
99.974
99.9793
99.9893
99.9977
99.9998
100
100
100
100
100
100
100
100
100
99.2705
99.2595
99.2553
99.2298
99.2086
99.1801
99.1743
99.2033
99.2709
99.347
99.439
99.5208
99.5952
99.6742
99.7626
99.8539
99.9202
99.9568
99.9688
99.971
99.9718
99.9739
99.9801
99.9914
99.9985
99.9999
100
100
100
100
100
100
100
100
100
99.2614
99.2537
99.2544
99.2285
99.2054
99.1748
99.1729
99.2088
99.3028
99.3844
99.455
99.529
99.6038
99.6943
99.7964
99.8766
99.9334
99.962
99.9697
99.971
99.9718
99.9741
99.9826
99.9934
99.999
100
100
100
100
100
100
100
100
100
100
99.2583
99.2523
99.2462
99.216
99.1865
99.1715
99.1744
99.2444
99.3268
99.3994
99.4628
99.5328
99.6275
99.7362
99.8234
99.8954
99.9447
99.9657
99.9702
99.9711
99.9722
99.9762
99.9851
99.9948
99.9993
100
100
100
100
100
100
100
100
100
100
99.2605
99.254
99.2345
99.1867
99.1508
99.1736
99.2034
99.2682
99.3341
99.3998
99.4697
99.5659
99.6761
99.7651
99.8457
99.9133
99.9539
99.9681
99.9706
99.9714
99.973
99.9778
99.9868
99.9959
99.9996
100
100
100
100
100
100
100
100
100
100
99.2759
99.2605
99.2172
99.151
99.129
99.1854
99.2229
99.2716
99.3416
99.3994
99.5048
99.6158
99.7039
99.7882
99.8686
99.93
99.9607
99.9695
99.971
99.9718
99.9737
99.9788
99.9884
99.9971
99.9998
100
100
100
100
100
100
100
100
100
100
99.3011
99.2645
99.1887
99.1203
99.1251
99.1924
99.2375
99.2652
99.3539
99.449
99.5515
99.6399
99.7256
99.8138
99.8933
99.9436
99.9652
99.9703
99.9711
99.9719
99.9741
99.9799
99.9904
99.998
99.9999
100
100
100
100
100
100
100
100
100
100
99.3111
99.2648
99.1718
99.1078
99.1246
99.1925
99.2495
99.295
99.3927
99.487
99.5724
99.6596
99.7522
99.8461
99.9145
99.9537
99.968
99.9707
99.9711
99.9718
99.9741
99.9815
99.9926
99.9987
99.9999
100
100
100
100
100
100
100
100
100
100
99.3106
99.2495
99.1692
99.1107
99.128
99.1928
99.2646
99.339
99.4215
99.5045
99.59
99.6861
99.7923
99.8742
99.9312
99.9609
99.9696
99.9709
99.9712
99.9718
99.9749
99.9843
99.9945
99.9992
100
100
100
100
100
100
100
100
100
100
100
99.2883
99.2278
99.1745
99.1511
99.1532
99.1958
99.2817
99.3636
99.4341
99.5168
99.6182
99.7357
99.8266
99.897
99.9448
99.9656
99.9704
99.971
99.9713
99.9724
99.9774
99.9867
99.9959
99.9995
100
100
100
100
100
100
100
100
100
100
100
99.259
99.2137
99.1929
99.1872
99.1736
99.2044
99.2875
99.369
99.4454
99.547
99.6767
99.7745
99.8541
99.9177
99.9553
99.9685
99.9708
99.9711
99.9716
99.9736
99.9791
99.9887
99.9971
99.9997
100
100
100
100
100
100
100
100
100
100
100
99.2328
99.2052
99.2166
99.193
99.1832
99.2129
99.2854
99.3622
99.4765
99.6146
99.7178
99.8043
99.881
99.9363
99.9626
99.97
99.971
99.9713
99.972
99.9743
99.9805
99.9907
99.998
99.9999
100
100
100
100
100
100
100
100
100
100
100
99.2148
99.1991
99.2155
99.1778
99.1783
99.2144
99.294
99.4133
99.5496
99.6549
99.7481
99.8359
99.9085
99.9506
99.967
99.9706
99.9711
99.9714
99.9722
99.9749
99.9822
99.9929
99.9988
99.9999
100
100
100
100
100
100
100
100
100
100
100
99.2077
99.1959
99.1756
99.1184
99.1496
99.222
99.3651
99.4925
99.5925
99.6864
99.7841
99.8728
99.9308
99.9601
99.9694
99.9708
99.9711
99.9713
99.9723
99.9756
99.985
99.995
99.9993
100
100
100
100
100
100
100
100
100
100
100
100
99.2116
99.1891
99.119
99.0662
99.125
99.2535
99.4227
99.5274
99.6234
99.7269
99.831
99.9035
99.9468
99.9658
99.9704
99.9709
99.971
99.9713
99.9723
99.978
99.988
99.9967
99.9997
100
100
100
100
100
100
100
100
100
100
100
100
99.2177
99.1664
99.0775
99.0536
99.1519
99.314
99.4479
99.5511
99.6628
99.7835
99.8702
99.9267
99.9578
99.9689
99.9709
99.971
99.971
99.9713
99.9738
99.9806
99.9905
99.9978
99.9998
100
100
100
100
100
100
100
100
100
100
100
100
99.2383
99.1484
99.0524
99.0602
99.2473
99.3631
99.4683
99.5868
99.7293
99.8305
99.9005
99.9448
99.9649
99.9703
99.971
99.971
99.9711
99.9719
99.9754
99.9827
99.9926
99.9986
99.9999
100
100
100
100
100
100
100
100
100
100
100
100
99.259
99.142
99.0427
99.0783
99.29
99.398
99.5076
99.6692
99.7861
99.8685
99.9263
99.9578
99.9687
99.9709
99.971
99.9711
99.9714
99.9727
99.9765
99.9847
99.9946
99.9992
100
100
100
100
100
100
100
100
100
100
100
100
100
99.2585
99.1361
99.0418
99.1069
99.2885
99.4284
99.5936
99.7367
99.8327
99.9032
99.9466
99.9654
99.9702
99.9711
99.9711
99.9712
99.9717
99.9732
99.9777
99.9876
99.9966
99.9996
100
100
100
100
100
100
100
100
100
100
100
100
100
99.1867
99.1022
99.0384
99.1403
99.29
99.4758
99.6747
99.7925
99.8764
99.9318
99.9594
99.9691
99.9708
99.9711
99.9712
99.9713
99.9718
99.9736
99.9801
99.9908
99.998
99.9998
100
100
100
100
100
100
100
100
100
100
100
100
100
99.0952
99.0691
99.0398
99.1656
99.3979
99.6056
99.7475
99.8453
99.9139
99.951
99.9664
99.9706
99.9709
99.9711
99.9712
99.9713
99.9718
99.975
99.9836
99.9935
99.9989
99.9999
100
100
100
100
100
100
100
100
100
100
100
100
100
99.0321
98.9989
99.0945
99.2464
99.498
99.6868
99.8098
99.8941
99.9405
99.9623
99.9696
99.9711
99.9709
99.9711
99.9713
99.9713
99.9725
99.9777
99.9866
99.9955
99.9994
100
100
100
100
100
100
100
100
100
100
100
100
100
100
99.0183
98.949
99.1622
99.396
99.6138
99.7699
99.8714
99.9288
99.9571
99.9681
99.9709
99.9712
99.9708
99.971
99.9712
99.9718
99.9742
99.98
99.9893
99.9972
99.9997
100
100
100
100
100
100
100
100
100
100
100
100
100
100
99.0607
98.9248
99.1977
99.5121
99.7188
99.843
99.9163
99.9517
99.966
99.9704
99.9712
99.9712
99.9708
99.971
99.9711
99.9722
99.9753
99.9823
99.9923
99.9985
99.9999
100
100
100
100
100
100
100
100
100
100
100
100
100
100
99.1075
98.9033
99.3289
99.6275
99.8084
99.9032
99.946
99.964
99.9696
99.9711
99.9712
99.9712
99.9707
99.9709
99.9711
99.9726
99.9767
99.9857
99.9952
99.9993
100
100
100
100
100
100
100
100
100
100
100
100
100
100
100
98.719
99.0876
99.5115
99.771
99.8864
99.9399
99.9621
99.9691
99.9707
99.9712
99.9712
99.9711
99.9706
99.971
99.9714
99.9734
99.9795
99.9895
99.9972
99.9997
100
100
100
100
100
100
100
100
100
100
100
100
100
100
100
98.5231
99.2367
99.683
99.8632
99.9353
99.9606
99.9686
99.9706
99.971
99.9712
99.9712
99.971
99.9706
99.9712
99.9721
99.9753
99.983
99.9925
99.9984
99.9999
100
100
100
100
100
100
100
100
100
100
100
100
100
100
100
99.0363
99.5638
99.8302
99.9272
99.9593
99.9687
99.9706
99.9709
99.9711
99.9712
99.9712
99.9709
99.9707
99.9719
99.973
99.9776
99.9862
99.9951
99.9992
100
100
100
100
100
100
100
100
100
100
100
100
100
100
100
100
99.4589
99.7601
99.9155
99.9597
99.969
99.9708
99.971
99.971
99.9711
99.9713
99.9712
99.9708
99.9708
99.9724
99.9742
99.9804
99.9898
99.9973
99.9997
100
100
100
100
100
100
100
100
100
100
100
100
100
100
100
100
99.7831
99.914
99.9608
99.9695
99.971
99.9711
99.971
99.971
99.9711
99.9713
99.9712
99.9707
99.9709
99.973
99.976
99.9839
99.9934
99.9988
99.9999
100
100
100
100
100
100
100
100
100
100
100
100
100
100
100
100
99.9712
99.9712
99.9712
99.9712
99.9712
99.971
99.971
99.971
99.9712
99.9713
99.9711
99.9706
99.9711
99.9741
99.9785
99.988
99.9962
99.9996
100
100
100
100
100
100
100
100
100
100
100
100
100
100
100
100
100
99.9712
99.9712
99.9711
99.9711
99.9711
99.9711
99.971
99.9709
99.9711
99.9713
99.9712
99.9706
99.971
99.974
99.979
99.988
99.9962
99.9995
100
100
100
100
100
100
100
100
100
100
100
100
100
100
100
100
100
99.9712
99.9712
99.9711
99.9711
99.9711
99.9711
99.971
99.971
99.971
99.9713
99.9712
99.9707
99.9711
99.975
99.981
99.9905
99.9976
99.9998
100
100
100
100
100
100
100
100
100
100
100
100
100
100
100
100
100
99.9712
99.9712
99.9711
99.9711
99.9711
99.9712
99.9712
99.971
99.971
99.9712
99.9714
99.971
99.9715
99.9758
99.9823
99.992
99.9983
99.9999
100
100
100
100
100
100
100
100
100
100
100
100
100
100
100
100
100
99.9712
99.9712
99.9711
99.9711
99.9711
99.9712
99.9712
99.971
99.9709
99.971
99.9714
99.9713
99.9716
99.9763
99.9839
99.9936
99.9988
99.9999
100
100
100
100
100
100
100
100
100
100
100
100
100
100
100
100
100
99.9712
99.9712
99.9711
99.9711
99.9711
99.9712
99.9713
99.9711
99.9709
99.9707
99.9713
99.9715
99.9718
99.9772
99.9861
99.9951
99.9992
100
100
100
100
100
100
100
100
100
100
100
100
100
100
100
100
100
100
99.9712
99.9712
99.9711
99.9711
99.9711
99.9712
99.9713
99.9711
99.9708
99.9706
99.9713
99.9719
99.9724
99.979
99.988
99.9962
99.9995
100
100
100
100
100
100
100
100
100
100
100
100
100
100
100
100
100
100
99.9712
99.9712
99.9711
99.9711
99.9711
99.9712
99.9713
99.9711
99.9708
99.9706
99.9713
99.9725
99.9735
99.9804
99.9895
99.9972
99.9997
100
100
100
100
100
100
100
100
100
100
100
100
100
100
100
100
100
100
99.9713
99.9712
99.9711
99.971
99.971
99.9711
99.9713
99.9712
99.9709
99.9705
99.9711
99.9727
99.9742
99.9815
99.9914
99.9981
99.9998
100
100
100
100
100
100
100
100
100
100
100
100
100
100
100
100
100
100
99.9713
99.9713
99.9711
99.971
99.971
99.971
99.9713
99.9713
99.971
99.9705
99.9708
99.9727
99.9751
99.9837
99.9933
99.9987
99.9999
100
100
100
100
100
100
100
100
100
100
100
100
100
100
100
100
100
100
99.9713
99.9713
99.9711
99.971
99.971
99.971
99.9712
99.9713
99.971
99.9704
99.9707
99.9728
99.9768
99.9859
99.9947
99.9992
100
100
100
100
100
100
100
100
100
100
100
100
100
100
100
100
100
100
100
99.9713
99.9712
99.9712
99.9711
99.971
99.971
99.9712
99.9713
99.9711
99.9704
99.9708
99.9739
99.9784
99.9874
99.996
99.9995
100
100
100
100
100
100
100
100
100
100
100
100
100
100
100
100
100
100
100
99.9711
99.9712
99.9713
99.9712
99.9711
99.971
99.9712
99.9713
99.9712
99.9706
99.971
99.9745
99.9796
99.9894
99.9972
99.9997
100
100
100
100
100
100
100
100
100
100
100
100
100
100
100
100
100
100
100
99.9711
99.9712
99.9713
99.9712
99.9711
99.971
99.9711
99.9712
99.9712
99.9707
99.971
99.9748
99.9814
99.9917
99.9981
99.9998
100
100
100
100
100
100
100
100
100
100
100
100
100
100
100
100
100
100
100
99.9711
99.9712
99.9713
99.9712
99.9712
99.971
99.9709
99.971
99.9711
99.9707
99.971
99.9757
99.9841
99.9934
99.9987
99.9999
100
100
100
100
100
100
100
100
100
100
100
100
100
100
100
100
100
100
100
99.9711
99.9712
99.9712
99.9712
99.9712
99.971
99.9709
99.9707
99.9712
99.9712
99.9717
99.9778
99.986
99.9949
99.9992
100
100
100
100
100
100
100
100
100
100
100
100
100
100
100
100
100
100
100
100
99.9712
99.9712
99.9712
99.9711
99.9712
99.9711
99.9709
99.9706
99.9713
99.972
99.9726
99.9788
99.9877
99.9964
99.9996
100
100
100
100
100
100
100
100
100
100
100
100
100
100
100
100
100
100
100
100
99.9713
99.9712
99.9711
99.9711
99.9712
99.9712
99.9709
99.9705
99.9713
99.9723
99.9731
99.9799
99.9902
99.9976
99.9998
100
100
100
100
100
100
100
100
100
100
100
100
100
100
100
100
100
100
100
100
99.9713
99.9712
99.9711
99.9711
99.9713
99.9713
99.9709
99.9704
99.9707
99.9723
99.9738
99.9824
99.9925
99.9984
99.9999
100
100
100
100
100
100
100
100
100
100
100
100
100
100
100
100
100
100
100
100
99.9713
99.9712
99.971
99.9711
99.9713
99.9714
99.971
99.9702
99.9704
99.9722
99.9757
99.9852
99.9942
99.999
99.9999
100
100
100
100
100
100
100
100
100
100
100
100
100
100
100
100
100
100
100
100
99.9713
99.9711
99.971
99.9711
99.9714
99.9714
99.9711
99.9702
99.9704
99.973
99.9779
99.987
99.9957
99.9994
100
100
100
100
100
100
100
100
100
100
100
100
100
100
100
100
100
100
100
100
100
99.9712
99.9712
99.9711
99.9712
99.9714
99.9714
99.9711
99.9703
99.9707
99.9743
99.9794
99.989
99.9971
99.9997
100
100
100
100
100
100
100
100
100
100
100
100
100
100
100
100
100
100
100
100
100
99.9712
99.9712
99.9712
99.9712
99.9712
99.9712
99.971
99.9705
99.9708
99.9748
99.9812
99.9917
99.9982
99.9998
100
100
100
100
100
100
100
100
100
100
100
100
100
100
100
100
100
100
100
100
100
99.9711
99.9712
99.9712
99.9712
99.9711
99.9707
99.9709
99.9705
99.9707
99.9756
99.9842
99.9939
99.9989
99.9999
100
100
100
100
100
100
100
100
100
100
100
100
100
100
100
100
100
100
100
100
100
99.9712
99.9713
99.9713
99.9713
99.971
99.9705
99.9709
99.9708
99.9712
99.9777
99.9869
99.9955
99.9994
100
100
100
100
100
100
100
100
100
100
100
100
100
100
100
100
100
100
100
100
100
100
99.9712
99.9714
99.9714
99.9714
99.971
99.9703
99.971
99.9718
99.9725
99.9796
99.9889
99.997
99.9997
100
100
100
100
100
100
100
100
100
100
100
100
100
100
100
100
100
100
100
100
100
100
99.9711
99.9714
99.9715
99.9714
99.971
99.9702
99.9707
99.9722
99.9734
99.9811
99.9915
99.9982
99.9998
100
100
100
100
100
100
100
100
100
100
100
100
100
100
100
100
100
100
100
100
100
100
99.971
99.9713
99.9716
99.9714
99.9709
99.97
99.9702
99.9722
99.9746
99.9841
99.994
99.9989
99.9999
100
100
100
100
100
100
100
100
100
100
100
100
100
100
100
100
100
100
100
100
100
100
99.9709
99.9712
99.9715
99.9714
99.9709
99.9698
99.97
99.9721
99.9771
99.9874
99.9958
99.9994
100
100
100
100
100
100
100
100
100
100
100
100
100
100
100
100
100
100
100
100
100
100
100
99.971
99.9712
99.9715
99.9713
99.9709
99.9699
99.9701
99.9736
99.9798
99.9895
99.9972
99.9997
100
100
100
100
100
100
100
100
100
100
100
100
100
100
100
100
100
100
100
100
100
100
100
99.9713
99.9713
99.9716
99.9711
99.971
99.9702
99.9705
99.975
99.9818
99.992
99.9984
99.9999
100
100
100
100
100
100
100
100
100
100
100
100
100
100
100
100
100
100
100
100
100
100
100
99.9716
99.9714
99.9714
99.9707
99.9708
99.9703
99.9706
99.9758
99.9847
99.9947
99.9991
99.9999
100
100
100
100
100
100
100
100
100
100
100
100
100
100
100
100
100
100
100
100
100
100
100
99.9719
99.9714
99.971
99.9701
99.9704
99.9703
99.9706
99.978
99.9884
99.9966
99.9996
100
100
100
100
100
100
100
100
100
100
100
100
100
100
100
100
100
100
100
100
100
100
100
100
99.972
99.9714
99.9709
99.9698
99.97
99.9711
99.9728
99.9813
99.991
99.9979
99.9998
100
100
100
100
100
100
100
100
100
100
100
100
100
100
100
100
100
100
100
100
100
100
100
100
99.972
99.9715
99.9708
99.9696
99.9699
99.9722
99.9749
99.9834
99.9934
99.9989
99.9999
100
100
100
100
100
100
100
100
100
100
100
100
100
100
100
100
100
100
100
100
100
100
100
100
99.972
99.9715
99.9707
99.9694
99.9697
99.9728
99.9764
99.9865
99.9959
99.9995
100
100
100
100
100
100
100
100
100
100
100
100
100
100
100
100
100
100
100
100
100
100
100
100
100
99.9719
99.9714
99.9704
99.9691
99.9694
99.973
99.9792
99.9906
99.9976
99.9998
100
100
100
100
100
100
100
100
100
100
100
100
100
100
100
100
100
100
100
100
100
100
100
100
100
99.9716
99.9711
99.9704
99.9691
99.9693
99.9742
99.9834
99.9933
99.9987
99.9999
100
100
100
100
100
100
100
100
100
100
100
100
100
100
100
100
100
100
100
100
100
100
100
100
100
99.9714
99.9709
99.9706
99.9699
99.9703
99.9771
99.9865
99.9955
99.9994
100
100
100
100
100
100
100
100
100
100
100
100
100
100
100
100
100
100
100
100
100
100
100
100
100
100
99.9713
99.9708
99.9705
99.971
99.9715
99.9791
99.9897
99.9975
99.9998
100
100
100
100
100
100
100
100
100
100
100
100
100
100
100
100
100
100
100
100
100
100
100
100
100
100
99.9713
99.9701
99.9698
99.9714
99.9725
99.9824
99.9934
99.9988
99.9999
100
100
100
100
100
100
100
100
100
100
100
100
100
100
100
100
100
100
100
100
100
100
100
100
100
100
99.971
99.9692
99.9691
99.9712
99.9757
99.9874
99.996
99.9994
100
100
100
100
100
100
100
100
100
100
100
100
100
100
100
100
100
100
100
100
100
100
100
100
100
100
100
99.9708
99.9686
99.9689
99.9723
99.9801
99.9907
99.9977
99.9998
100
100
100
100
100
100
100
100
100
100
100
100
100
100
100
100
100
100
100
100
100
100
100
100
100
100
100
99.9705
99.9684
99.9691
99.9752
99.9837
99.9938
99.999
99.9999
100
100
100
100
100
100
100
100
100
100
100
100
100
100
100
100
100
100
100
100
100
100
100
100
100
100
100
99.97
99.9686
99.9696
99.9776
99.9877
99.9967
99.9996
100
100
100
100
100
100
100
100
100
100
100
100
100
100
100
100
100