/*--------------------------------*- C++ -*----------------------------------*\
  =========                 |
  \\      /  F ield         | OpenFOAM: The Open Source CFD Toolbox
   \\    /   O peration     | Website:  https://openfoam.org
    \\  /    A nd           | Version:  7
     \\/     M anipulation  |
\*---------------------------------------------------------------------------*/
FoamFile
{
    version     2.0;
    format      ascii;
    class       volScalarField;
    location    "10.5";
    object      p;
}
// * * * * * * * * * * * * * * * * * * * * * * * * * * * * * * * * * * * * * //

dimensions      [1 -1 -2 0 0 0 0];

internalField   nonuniform List<scalar> 
90000
(
0.184467
0.229597
0.268125
0.298381
0.335474
0.365719
0.387499
0.41523
0.446542
0.47802
0.508329
0.543413
0.582533
0.623359
0.665446
0.710724
0.758384
0.805346
0.853125
0.89404
0.932484
0.959827
0.984099
0.990679
0.994216
0.992684
0.99089
0.987391
0.982363
0.976532
0.971988
0.967389
0.965536
0.964298
0.964455
0.962564
0.958568
0.952675
0.944687
0.934444
0.932769
0.936308
0.946536
0.958635
0.971753
0.983391
0.992697
0.995382
0.989593
0.979011
0.966285
0.955905
0.950845
0.950912
0.955913
0.962904
0.970539
0.977437
0.976368
0.973119
0.967468
0.962653
0.961848
0.963922
0.968715
0.974168
0.975371
0.973036
0.968139
0.96471
0.96439
0.967487
0.972448
0.974019
0.971983
0.969213
0.96787
0.969241
0.973509
0.97454
0.972321
0.969485
0.968795
0.97015
0.971249
0.970833
0.970262
0.969871
0.969491
0.968888
0.968437
0.968504
0.968493
0.968097
0.967557
0.967737
0.968781
0.96987
0.970904
0.97249
0.147734
0.147709
0.147683
0.147657
0.14763
0.147603
0.14758
0.147539
0.147586
0.148174
0.149607
0.152794
0.158098
0.166817
0.178734
0.196735
0.219958
0.252283
0.290338
0.338964
0.393446
0.456968
0.524278
0.590174
0.652003
0.706454
0.757542
0.798915
0.837995
0.864465
0.88984
0.906476
0.924502
0.934387
0.947721
0.952256
0.955956
0.955852
0.955916
0.962181
0.974083
0.982331
0.985816
0.988203
0.988275
0.989096
0.985266
0.977126
0.964585
0.954354
0.952356
0.955229
0.960318
0.966024
0.971001
0.975295
0.977892
0.976325
0.971781
0.964776
0.959133
0.958315
0.961874
0.967256
0.973999
0.977034
0.975316
0.970074
0.965324
0.965032
0.967192
0.972245
0.97503
0.973019
0.970231
0.968779
0.970021
0.974257
0.974791
0.972452
0.96927
0.967641
0.968064
0.970585
0.971432
0.970483
0.969788
0.969827
0.969789
0.969122
0.968697
0.968629
0.968457
0.967927
0.967701
0.968081
0.969082
0.970563
0.971493
0.972848
0.147711
0.147711
0.147711
0.147712
0.147715
0.147718
0.147723
0.14773
0.147733
0.147754
0.147728
0.147692
0.147652
0.147617
0.147586
0.147561
0.147539
0.147523
0.147506
0.147507
0.14746
0.148472
0.151959
0.161224
0.176315
0.20143
0.233465
0.277544
0.3277
0.390114
0.455606
0.526906
0.597892
0.66714
0.73527
0.796284
0.857643
0.905979
0.95254
0.982737
0.999715
1.00505
1.00351
1.0005
0.994694
0.983295
0.964901
0.94084
0.930418
0.934972
0.944432
0.955027
0.965101
0.97326
0.978092
0.98099
0.978673
0.971134
0.962216
0.958497
0.959435
0.96442
0.972607
0.976629
0.976121
0.973
0.966509
0.962466
0.96133
0.966588
0.973588
0.97605
0.97357
0.968372
0.966544
0.967577
0.971
0.976104
0.975348
0.971037
0.968488
0.968722
0.970627
0.971259
0.970571
0.970234
0.97003
0.969538
0.968414
0.96807
0.96865
0.96898
0.968446
0.967655
0.967656
0.968582
0.969532
0.970217
0.971398
0.973561
0.147737
0.147739
0.14774
0.147741
0.147742
0.147742
0.147743
0.147742
0.147742
0.147741
0.147739
0.147737
0.147737
0.147739
0.14774
0.147742
0.147742
0.147744
0.147745
0.147747
0.147753
0.147735
0.147706
0.147679
0.147661
0.147649
0.147646
0.147643
0.147652
0.147638
0.14897
0.155473
0.168321
0.193351
0.227855
0.280397
0.343829
0.426872
0.51817
0.609136
0.695526
0.764149
0.829727
0.867471
0.903435
0.912252
0.923134
0.927197
0.942888
0.955856
0.970654
0.979249
0.986509
0.986949
0.986038
0.981469
0.967846
0.956552
0.952563
0.95454
0.960824
0.969272
0.979531
0.982013
0.977282
0.967998
0.961274
0.961054
0.965937
0.970074
0.977196
0.976366
0.970905
0.966763
0.966704
0.971754
0.976074
0.974971
0.97159
0.967115
0.966269
0.967731
0.971422
0.972136
0.970536
0.969466
0.96996
0.970164
0.969357
0.968347
0.968151
0.968363
0.967981
0.967673
0.967702
0.968359
0.970178
0.971482
0.972135
0.973911
0.147763
0.147761
0.147758
0.147755
0.147753
0.147751
0.147749
0.147747
0.147746
0.147744
0.147743
0.147742
0.147742
0.147742
0.147741
0.14774
0.147739
0.14774
0.147742
0.147745
0.147746
0.147747
0.14775
0.147754
0.147761
0.147769
0.147779
0.147786
0.147791
0.147799
0.147788
0.147774
0.147758
0.147744
0.14773
0.147719
0.147691
0.148535
0.153797
0.172349
0.204712
0.261755
0.335961
0.435356
0.544438
0.65515
0.767261
0.855763
0.923132
0.946263
0.963541
0.969988
0.97717
0.978519
0.974688
0.958684
0.945574
0.949788
0.957001
0.968672
0.97871
0.982249
0.980922
0.976296
0.966917
0.959002
0.958727
0.961676
0.970246
0.978881
0.977503
0.971438
0.965066
0.965027
0.967416
0.973388
0.978753
0.975409
0.968515
0.96641
0.968257
0.971303
0.971207
0.970294
0.969669
0.969507
0.968961
0.968542
0.968376
0.968739
0.969117
0.968406
0.967819
0.967294
0.968684
0.969501
0.969237
0.970639
0.972575
0.974193
0.147728
0.147727
0.147725
0.147723
0.147722
0.147721
0.14772
0.147719
0.147719
0.14772
0.147721
0.147724
0.147727
0.147728
0.147729
0.14773
0.147734
0.147737
0.14774
0.147744
0.147747
0.147749
0.147753
0.147756
0.147759
0.147763
0.147769
0.147771
0.147772
0.147768
0.147763
0.147757
0.147745
0.147732
0.147719
0.147707
0.147694
0.147664
0.147631
0.147606
0.147587
0.147582
0.147574
0.14908
0.158214
0.189739
0.24564
0.342315
0.459145
0.581886
0.69624
0.775016
0.851025
0.884161
0.914717
0.921354
0.942505
0.962192
0.984152
0.995865
0.992633
0.98405
0.973743
0.957921
0.954397
0.956128
0.962409
0.973993
0.985384
0.983193
0.973642
0.963095
0.962218
0.965107
0.975043
0.980351
0.978168
0.970109
0.964596
0.965453
0.969112
0.972555
0.972079
0.969771
0.96909
0.969962
0.969843
0.968774
0.968218
0.968074
0.968448
0.968198
0.967378
0.967397
0.967738
0.969942
0.971125
0.971117
0.972441
0.974944
0.147671
0.147672
0.147673
0.147675
0.147677
0.147679
0.147681
0.147683
0.147686
0.147691
0.147696
0.1477
0.147705
0.147709
0.147713
0.147717
0.147722
0.147725
0.147729
0.147732
0.147735
0.147736
0.147737
0.147737
0.147738
0.14774
0.147743
0.147746
0.147744
0.147735
0.147725
0.147718
0.147702
0.147684
0.147669
0.147656
0.147644
0.14763
0.147618
0.147611
0.147614
0.14763
0.147652
0.14766
0.147676
0.147686
0.147699
0.147695
0.14983
0.170075
0.212716
0.296876
0.406899
0.541672
0.683151
0.802708
0.904639
0.942316
0.967241
0.975727
0.980655
0.977537
0.95924
0.946502
0.95203
0.967559
0.980307
0.986144
0.984663
0.972005
0.96076
0.958886
0.963185
0.975861
0.983409
0.980587
0.970012
0.963718
0.963618
0.96846
0.973729
0.973422
0.970903
0.968953
0.96888
0.969765
0.969616
0.968218
0.968002
0.968459
0.96858
0.967821
0.967555
0.967998
0.969248
0.969185
0.970668
0.972756
0.972844
0.974007
0.14766
0.147663
0.147667
0.147672
0.147677
0.147682
0.147686
0.147689
0.147694
0.1477
0.147705
0.14771
0.147714
0.147718
0.147721
0.147725
0.147728
0.14773
0.14773
0.14773
0.147729
0.147729
0.147727
0.147725
0.147722
0.147721
0.14772
0.147723
0.14772
0.147708
0.147695
0.147686
0.147678
0.147667
0.147658
0.147654
0.147653
0.147653
0.147654
0.147657
0.147672
0.147693
0.147711
0.147732
0.147749
0.147749
0.147746
0.147739
0.147727
0.147719
0.147729
0.14776
0.147778
0.161776
0.200478
0.294969
0.426666
0.575104
0.717745
0.804726
0.892203
0.912937
0.931556
0.947043
0.977353
0.997212
0.997176
0.99352
0.972146
0.952991
0.954067
0.962013
0.977475
0.989557
0.986454
0.97092
0.960631
0.960494
0.966722
0.975506
0.975433
0.972793
0.96843
0.967965
0.969667
0.970264
0.968999
0.96783
0.968203
0.969097
0.96858
0.967278
0.967132
0.967926
0.969563
0.970196
0.97064
0.972125
0.973904
0.975184
0.147713
0.147718
0.147723
0.147727
0.147731
0.147734
0.147737
0.14774
0.147743
0.147746
0.147748
0.147748
0.147748
0.147748
0.147747
0.147747
0.147746
0.147744
0.14774
0.147737
0.147733
0.147729
0.147724
0.147718
0.147712
0.147709
0.147706
0.147703
0.147701
0.147695
0.147687
0.147679
0.147676
0.147678
0.147682
0.147689
0.147695
0.147703
0.147712
0.147723
0.147742
0.14776
0.147772
0.147789
0.14779
0.147772
0.147749
0.147731
0.147717
0.147705
0.147705
0.147722
0.147753
0.147782
0.147819
0.147828
0.148434
0.171036
0.227048
0.343944
0.500661
0.667907
0.832343
0.924361
0.967014
0.980676
0.985531
0.974639
0.942864
0.947964
0.962392
0.980273
0.989303
0.987551
0.972465
0.957192
0.957184
0.964001
0.975789
0.977302
0.974614
0.968014
0.966286
0.969594
0.971365
0.969571
0.967062
0.967476
0.96938
0.969325
0.967797
0.966709
0.967312
0.969185
0.970229
0.970851
0.971535
0.972958
0.973792
0.975405
0.14778
0.14778
0.147779
0.147778
0.147776
0.147775
0.147775
0.147774
0.147772
0.147771
0.147768
0.147765
0.147761
0.147756
0.147749
0.147742
0.147736
0.147729
0.147723
0.147717
0.147711
0.147705
0.147698
0.147691
0.147684
0.14768
0.147678
0.147676
0.147676
0.147676
0.147678
0.147684
0.147692
0.147703
0.147717
0.147731
0.147742
0.147755
0.147766
0.147776
0.147789
0.147796
0.147804
0.147806
0.147797
0.147775
0.147739
0.147717
0.147699
0.147678
0.147665
0.147671
0.147697
0.147742
0.147817
0.14785
0.147837
0.147803
0.147785
0.147778
0.154175
0.202839
0.308219
0.481409
0.658212
0.778882
0.882537
0.911646
0.931407
0.961999
0.995034
1.00145
0.996877
0.971123
0.950836
0.952461
0.962621
0.978051
0.982365
0.977929
0.967295
0.964508
0.9687
0.972948
0.970999
0.96722
0.966303
0.968693
0.970355
0.968898
0.966504
0.96677
0.96845
0.970012
0.970148
0.970965
0.972331
0.973382
0.97406
0.976027
0.147785
0.147778
0.147772
0.147767
0.147762
0.147758
0.147755
0.147751
0.147747
0.147742
0.147737
0.14773
0.147724
0.147717
0.147707
0.147697
0.147688
0.147681
0.147673
0.147667
0.147661
0.147655
0.147649
0.147645
0.147641
0.14764
0.147645
0.147654
0.147664
0.147673
0.147686
0.147704
0.147721
0.147738
0.147756
0.14777
0.147781
0.147791
0.147802
0.147806
0.147804
0.147804
0.147806
0.147802
0.147791
0.147769
0.14773
0.147705
0.147693
0.147681
0.147676
0.147672
0.14768
0.147727
0.147842
0.147872
0.147865
0.147829
0.147787
0.147774
0.147764
0.147768
0.147779
0.155441
0.19512
0.30738
0.479234
0.681744
0.865743
0.949838
0.985854
0.987695
0.974752
0.93686
0.944025
0.963201
0.978564
0.984442
0.980007
0.966244
0.962309
0.965752
0.973978
0.97306
0.969609
0.965462
0.966792
0.970316
0.970085
0.967303
0.96619
0.967527
0.969693
0.970305
0.970496
0.971595
0.973314
0.973724
0.974053
0.976385
0.147724
0.147718
0.147711
0.147705
0.1477
0.147694
0.147689
0.147684
0.147679
0.147674
0.14767
0.147664
0.147659
0.147653
0.147643
0.147634
0.147627
0.147621
0.147615
0.14761
0.147606
0.147604
0.147605
0.147608
0.147613
0.14762
0.147638
0.147662
0.14768
0.147695
0.147715
0.147741
0.147761
0.147776
0.147788
0.147798
0.147804
0.147806
0.147808
0.147804
0.147798
0.147796
0.147798
0.147794
0.147787
0.147773
0.147741
0.147718
0.147712
0.147711
0.147714
0.147714
0.147721
0.147786
0.147899
0.147914
0.147904
0.147858
0.147789
0.147762
0.147756
0.147762
0.147812
0.147912
0.148035
0.148077
0.153691
0.20671
0.349342
0.546553
0.727594
0.84626
0.909446
0.92222
0.963725
0.993259
0.992871
0.987781
0.96343
0.956054
0.96073
0.974997
0.977608
0.972071
0.96429
0.965001
0.970115
0.971485
0.969304
0.965855
0.966329
0.969151
0.970374
0.970441
0.970768
0.972135
0.97389
0.97419
0.974408
0.977503
0.147665
0.147661
0.147658
0.147659
0.147659
0.147655
0.147644
0.147635
0.14763
0.147626
0.147623
0.147621
0.14762
0.147614
0.147605
0.1476
0.147598
0.147596
0.147592
0.14759
0.147593
0.147598
0.147606
0.147618
0.147632
0.147651
0.147684
0.147716
0.147732
0.147745
0.147765
0.147791
0.147807
0.147814
0.147816
0.147823
0.147826
0.147814
0.147802
0.147797
0.147792
0.147792
0.147802
0.147815
0.147817
0.147821
0.147825
0.147816
0.147793
0.147781
0.147773
0.147767
0.147773
0.147837
0.14792
0.14793
0.147919
0.147875
0.147797
0.147761
0.147761
0.147794
0.147952
0.148208
0.148274
0.148297
0.148355
0.148394
0.148356
0.164892
0.243697
0.410847
0.649849
0.846882
0.952723
0.980857
0.98621
0.96501
0.94566
0.956826
0.974431
0.982384
0.976495
0.960731
0.96137
0.968296
0.973761
0.971976
0.964601
0.964099
0.967662
0.970808
0.970588
0.970463
0.971234
0.973301
0.973846
0.97426
0.974831
0.97888
0.147669
0.147668
0.147668
0.147665
0.147662
0.147662
0.14766
0.147654
0.147648
0.147646
0.147646
0.147645
0.147643
0.147644
0.147645
0.147645
0.14765
0.147653
0.147651
0.147651
0.147658
0.147668
0.14768
0.147699
0.147715
0.147732
0.147758
0.147775
0.147781
0.147787
0.147797
0.147815
0.147828
0.147827
0.147822
0.147829
0.147826
0.147799
0.147781
0.147777
0.147773
0.147773
0.147786
0.147805
0.147818
0.14784
0.147883
0.147899
0.147888
0.147837
0.147809
0.147799
0.1478
0.147844
0.147897
0.147901
0.147892
0.147851
0.147786
0.147785
0.147812
0.147898
0.148162
0.148401
0.148407
0.148399
0.148396
0.148353
0.14823
0.148055
0.147723
0.148621
0.186965
0.34554
0.565377
0.73776
0.894357
0.908682
0.948956
0.982541
0.991658
0.986822
0.95838
0.95468
0.962742
0.975889
0.975106
0.966539
0.961278
0.964495
0.971412
0.971487
0.970195
0.970474
0.972351
0.974065
0.973952
0.974183
0.975614
0.980719
0.147702
0.147705
0.147711
0.147716
0.147718
0.14772
0.147721
0.147723
0.147727
0.147731
0.147731
0.147732
0.147738
0.147742
0.147745
0.147751
0.147759
0.14776
0.147757
0.147756
0.147758
0.147758
0.147759
0.147767
0.147776
0.147785
0.147797
0.147804
0.147804
0.147798
0.147795
0.147803
0.147814
0.147813
0.147809
0.147814
0.147806
0.147779
0.147765
0.147762
0.147767
0.147772
0.147779
0.147788
0.147804
0.147857
0.147945
0.147968
0.147955
0.147884
0.147815
0.1478
0.147793
0.147813
0.147877
0.147895
0.147895
0.14785
0.147818
0.147848
0.147929
0.148104
0.148403
0.148505
0.148502
0.148476
0.148413
0.148241
0.148013
0.147731
0.147528
0.1475
0.147532
0.147641
0.166042
0.274597
0.487961
0.728875
0.923981
0.972402
0.983048
0.964376
0.937551
0.955613
0.97937
0.97954
0.969902
0.958101
0.960106
0.971414
0.973437
0.971188
0.969363
0.970757
0.974003
0.974584
0.973834
0.974336
0.977076
0.98248
0.147825
0.147835
0.147845
0.147854
0.147863
0.147871
0.147876
0.147886
0.147893
0.147893
0.147894
0.1479
0.147901
0.147897
0.147892
0.147885
0.147877
0.147868
0.147857
0.147843
0.147829
0.147815
0.147807
0.147805
0.147809
0.147813
0.14781
0.147801
0.147781
0.147759
0.147754
0.147762
0.147781
0.147795
0.147807
0.14781
0.147796
0.147785
0.147778
0.147777
0.147794
0.147806
0.147797
0.1478
0.147844
0.147962
0.148023
0.148023
0.148002
0.147918
0.147813
0.147787
0.147771
0.147768
0.147824
0.147893
0.14792
0.147935
0.147937
0.147982
0.148084
0.148299
0.148524
0.148552
0.148546
0.148506
0.148352
0.148045
0.147753
0.147514
0.147466
0.14748
0.147624
0.147968
0.148324
0.148382
0.154391
0.247108
0.450179
0.669963
0.863515
0.902604
0.937215
0.99092
0.993401
0.982349
0.953879
0.954949
0.967838
0.977294
0.973383
0.968132
0.969048
0.973496
0.975309
0.974106
0.97353
0.974701
0.979582
0.983745
0.147935
0.147944
0.147955
0.147966
0.147972
0.147975
0.147977
0.147978
0.147978
0.147979
0.147977
0.147972
0.147966
0.147957
0.147939
0.147913
0.147901
0.147889
0.147871
0.147847
0.147827
0.147809
0.147798
0.147791
0.147785
0.147776
0.147765
0.147758
0.14775
0.147735
0.147728
0.147738
0.147771
0.147812
0.147845
0.147868
0.147873
0.147872
0.147868
0.147863
0.147866
0.147885
0.147883
0.147884
0.14793
0.148027
0.148047
0.148039
0.148009
0.147935
0.147816
0.147778
0.147766
0.147757
0.147782
0.147874
0.148073
0.148212
0.148206
0.14818
0.148227
0.148393
0.148547
0.148562
0.148515
0.148391
0.148075
0.147763
0.147549
0.147449
0.147447
0.147525
0.14784
0.14828
0.148479
0.148467
0.148274
0.147674
0.150017
0.222312
0.413496
0.68806
0.905217
0.982449
0.982102
0.950027
0.943614
0.963741
0.980791
0.978141
0.965918
0.966598
0.972073
0.975933
0.974833
0.973136
0.973531
0.977683
0.982237
0.984466
0.14799
0.147997
0.148005
0.148017
0.148024
0.148024
0.14802
0.148017
0.148018
0.148018
0.148012
0.147999
0.147989
0.147974
0.147938
0.14791
0.147901
0.147885
0.147857
0.147831
0.147803
0.147769
0.147757
0.147759
0.147762
0.147761
0.147754
0.147743
0.147735
0.147729
0.147734
0.147763
0.147836
0.147933
0.148005
0.148025
0.148016
0.147995
0.147985
0.147964
0.147935
0.147933
0.147937
0.147929
0.147952
0.147972
0.147969
0.14795
0.147901
0.147869
0.147808
0.147776
0.147785
0.147805
0.147841
0.147977
0.148317
0.14848
0.148467
0.148354
0.148333
0.148405
0.148484
0.148419
0.148251
0.148011
0.147618
0.14747
0.147447
0.14746
0.147466
0.14769
0.148156
0.148427
0.148496
0.148335
0.147833
0.147284
0.147047
0.147084
0.147777
0.218249
0.426544
0.680253
0.848191
0.906809
0.945974
0.99514
0.990849
0.968261
0.960284
0.967283
0.977625
0.977093
0.973034
0.972424
0.975338
0.98175
0.984376
0.98473
0.14794
0.147939
0.147938
0.14794
0.147948
0.147959
0.147967
0.147966
0.147961
0.147961
0.147956
0.147947
0.147934
0.147905
0.147864
0.147859
0.147857
0.147843
0.147818
0.147793
0.147767
0.147746
0.147741
0.147742
0.147751
0.147765
0.147771
0.147774
0.147772
0.147769
0.147793
0.147847
0.147926
0.148031
0.148094
0.148102
0.14809
0.148069
0.148049
0.147999
0.147942
0.147934
0.147942
0.147914
0.147849
0.147817
0.147814
0.147806
0.147794
0.147821
0.147823
0.147826
0.147861
0.147945
0.14805
0.148254
0.148545
0.148603
0.148577
0.148438
0.148363
0.148365
0.148297
0.148071
0.147838
0.147561
0.147286
0.147284
0.147378
0.147442
0.147677
0.148108
0.148391
0.148484
0.148259
0.14781
0.14727
0.146982
0.146994
0.147293
0.14793
0.147971
0.149942
0.215219
0.426391
0.740687
0.920279
0.984985
0.97826
0.949928
0.963313
0.979415
0.98023
0.97519
0.970962
0.972417
0.979598
0.984312
0.984834
0.98494
0.147778
0.147781
0.147787
0.1478
0.147827
0.147853
0.147874
0.147897
0.147916
0.147925
0.147932
0.14794
0.14794
0.147922
0.147901
0.147899
0.147899
0.147886
0.147868
0.147857
0.147842
0.147829
0.147823
0.147826
0.147835
0.147838
0.147845
0.147854
0.147852
0.147854
0.147879
0.147919
0.14797
0.148043
0.148098
0.148114
0.14811
0.148095
0.148072
0.148022
0.147949
0.147929
0.147905
0.147816
0.147741
0.147705
0.147681
0.14768
0.147736
0.147831
0.147877
0.147958
0.148075
0.148168
0.148246
0.148413
0.148598
0.14862
0.148585
0.148439
0.14825
0.148094
0.1478
0.14756
0.147405
0.147225
0.147135
0.147169
0.14726
0.147627
0.148181
0.148499
0.148493
0.148232
0.147733
0.147254
0.146948
0.14693
0.147198
0.147841
0.148285
0.148148
0.147699
0.147456
0.150008
0.239055
0.475691
0.767589
0.863714
0.930162
0.989273
0.98741
0.978595
0.967907
0.968922
0.978102
0.985701
0.985036
0.984077
0.984842
0.147719
0.147739
0.147762
0.147788
0.147814
0.147852
0.147894
0.147936
0.14798
0.148015
0.148051
0.148083
0.148092
0.148093
0.148088
0.148085
0.14808
0.148052
0.148016
0.148016
0.148022
0.14801
0.14797
0.147938
0.147919
0.147898
0.147889
0.147889
0.147887
0.14788
0.147887
0.147892
0.147896
0.14792
0.147964
0.147992
0.148015
0.148042
0.148049
0.148027
0.147962
0.147877
0.147788
0.147741
0.147692
0.147633
0.147577
0.147591
0.147681
0.147825
0.148033
0.148209
0.148326
0.148334
0.148329
0.148443
0.148519
0.148478
0.148303
0.148019
0.147798
0.147545
0.147217
0.147137
0.147115
0.14708
0.147077
0.147165
0.147551
0.148216
0.148686
0.148638
0.148333
0.147688
0.147291
0.146949
0.146877
0.147163
0.14801
0.148711
0.148636
0.148041
0.14766
0.147993
0.148965
0.149123
0.160418
0.263462
0.539457
0.840878
0.957417
0.979568
0.974352
0.961955
0.975437
0.985729
0.984984
0.984266
0.984749
0.98581
0.147869
0.147886
0.14791
0.147939
0.147969
0.148005
0.148055
0.148125
0.148173
0.148192
0.148197
0.14819
0.148178
0.148183
0.148193
0.148195
0.14819
0.148151
0.148082
0.14807
0.148079
0.148071
0.148024
0.147959
0.147912
0.147885
0.147856
0.147811
0.147755
0.147686
0.14759
0.147523
0.147512
0.147512
0.147527
0.14758
0.147643
0.147727
0.147808
0.147825
0.147817
0.147752
0.147728
0.147716
0.14763
0.147489
0.147466
0.147522
0.147679
0.147965
0.148374
0.148488
0.148472
0.148407
0.148265
0.148131
0.148028
0.14783
0.147605
0.147477
0.147364
0.147168
0.14699
0.146987
0.14702
0.147104
0.147337
0.147817
0.148378
0.14886
0.148835
0.148521
0.147832
0.14733
0.147137
0.146871
0.147307
0.148427
0.14945
0.149455
0.149012
0.148113
0.148717
0.150441
0.151881
0.151722
0.151658
0.151954
0.176921
0.32753
0.604188
0.85358
0.927657
0.958609
0.995023
0.988703
0.982878
0.984328
0.98575
0.985962
0.147902
0.147893
0.147895
0.147912
0.147942
0.147976
0.148004
0.148027
0.148054
0.148069
0.148069
0.148072
0.148081
0.148083
0.148073
0.148038
0.148006
0.147976
0.147899
0.147794
0.147772
0.147753
0.147692
0.14758
0.147476
0.147407
0.147355
0.147317
0.147287
0.147233
0.147162
0.147145
0.147145
0.147152
0.147189
0.147268
0.147348
0.147439
0.147529
0.147555
0.147575
0.147601
0.14765
0.147668
0.147703
0.147757
0.147844
0.147951
0.148094
0.148381
0.148602
0.148615
0.148588
0.148438
0.14808
0.147792
0.147558
0.147286
0.14723
0.147265
0.147232
0.147109
0.147024
0.147058
0.147261
0.147714
0.148442
0.148941
0.149177
0.149057
0.148775
0.148097
0.1475
0.147292
0.147151
0.148086
0.14958
0.150747
0.150662
0.150184
0.149483
0.150432
0.152028
0.153647
0.154156
0.154742
0.155907
0.157591
0.158339
0.159036
0.20362
0.402314
0.732303
0.914772
0.987386
0.980156
0.982804
0.984608
0.985325
0.986589
0.147597
0.147577
0.147557
0.147535
0.147516
0.147504
0.147485
0.147461
0.147452
0.147441
0.147425
0.147424
0.147425
0.147415
0.14738
0.147361
0.147346
0.147309
0.147254
0.147231
0.147237
0.14726
0.147258
0.147202
0.147144
0.147136
0.147134
0.147136
0.147131
0.147095
0.14706
0.147054
0.147057
0.147072
0.147112
0.147208
0.147332
0.147404
0.147493
0.14772
0.148017
0.148236
0.148355
0.148382
0.148396
0.148443
0.148445
0.148429
0.14845
0.148554
0.148572
0.148511
0.148401
0.148262
0.147997
0.147678
0.147355
0.147157
0.147163
0.14724
0.147296
0.147375
0.147661
0.148128
0.148786
0.14947
0.150122
0.149986
0.149582
0.14906
0.148623
0.147873
0.147885
0.148536
0.150443
0.152174
0.153093
0.152816
0.151833
0.151723
0.153366
0.156015
0.157269
0.157289
0.158114
0.159865
0.16134
0.163049
0.164227
0.165257
0.166105
0.167763
0.254651
0.511878
0.829352
0.903385
0.979325
0.985581
0.984202
0.985944
0.147313
0.147276
0.147233
0.147195
0.147167
0.147163
0.147172
0.147179
0.147185
0.147205
0.147223
0.147232
0.147238
0.147237
0.147229
0.147232
0.147237
0.147234
0.147216
0.14722
0.147244
0.147269
0.147271
0.14725
0.147254
0.147269
0.147303
0.147365
0.147443
0.147521
0.147574
0.147624
0.147703
0.147799
0.147892
0.148022
0.148161
0.148283
0.14847
0.148861
0.149028
0.149096
0.149107
0.149082
0.149051
0.149021
0.148907
0.148784
0.148692
0.148563
0.148474
0.14841
0.148292
0.148104
0.147869
0.147594
0.147412
0.147423
0.147563
0.147977
0.148668
0.149453
0.150289
0.150914
0.151361
0.151623
0.151471
0.150724
0.149838
0.14906
0.149264
0.150193
0.152314
0.15444
0.156457
0.156317
0.155948
0.15558
0.156128
0.158292
0.160418
0.162185
0.16236
0.162898
0.163806
0.165191
0.166743
0.168426
0.170582
0.171586
0.172665
0.174707
0.175584
0.194982
0.338902
0.642834
0.911651
0.94967
0.980967
0.989885
0.147333
0.147291
0.147243
0.147206
0.147183
0.147181
0.147191
0.147201
0.147214
0.147259
0.14732
0.147334
0.147331
0.147345
0.14742
0.147484
0.147506
0.147533
0.147601
0.147741
0.14793
0.148111
0.148286
0.148501
0.148711
0.148826
0.148909
0.14904
0.149238
0.149379
0.149452
0.14954
0.14965
0.14974
0.149776
0.14979
0.149801
0.149839
0.149908
0.149903
0.149858
0.14982
0.149776
0.149706
0.14964
0.149447
0.149123
0.148887
0.148657
0.148489
0.148474
0.148465
0.148412
0.148426
0.148569
0.148971
0.149544
0.150195
0.15103
0.152015
0.152795
0.153446
0.153692
0.153726
0.153691
0.153503
0.15262
0.152358
0.152889
0.154374
0.156504
0.158854
0.16036
0.161275
0.161014
0.160577
0.160887
0.162122
0.164457
0.16672
0.167213
0.167587
0.168544
0.170063
0.171426
0.1729
0.175028
0.176129
0.177176
0.178208
0.179254
0.180765
0.182408
0.183555
0.184344
0.242675
0.47049
0.74891
0.93197
0.97882
0.149048
0.149091
0.149132
0.149171
0.149186
0.149191
0.149213
0.149282
0.149384
0.149488
0.149606
0.149671
0.149702
0.149756
0.149952
0.150065
0.150083
0.150107
0.150228
0.150418
0.150544
0.150639
0.15075
0.150874
0.150986
0.151037
0.151032
0.151045
0.151113
0.1512
0.151246
0.151233
0.151205
0.151203
0.151185
0.151121
0.150993
0.150813
0.150613
0.150355
0.150128
0.149975
0.149853
0.149844
0.14985
0.149671
0.149555
0.149683
0.149905
0.150166
0.150456
0.150991
0.151959
0.15319
0.154481
0.155623
0.156508
0.157233
0.157804
0.158141
0.158345
0.158304
0.15794
0.157712
0.157939
0.158487
0.159423
0.160988
0.163018
0.165122
0.166061
0.166854
0.166792
0.166454
0.166517
0.167406
0.169155
0.1713
0.173179
0.174061
0.174431
0.175154
0.176463
0.177834
0.179373
0.180963
0.182078
0.182943
0.183846
0.185243
0.186934
0.188884
0.190114
0.190943
0.192547
0.193302
0.200145
0.33589
0.612175
0.90872
0.152965
0.152974
0.152982
0.152983
0.152947
0.152846
0.152833
0.152837
0.152795
0.15277
0.152771
0.152717
0.152633
0.152631
0.152617
0.152535
0.152494
0.152498
0.152482
0.152384
0.15232
0.152341
0.15236
0.152324
0.152108
0.151998
0.151987
0.151984
0.152046
0.152097
0.152086
0.151951
0.151942
0.152022
0.152092
0.152235
0.152245
0.152241
0.152325
0.152637
0.153026
0.153505
0.15419
0.155126
0.156182
0.157231
0.15827
0.159313
0.160368
0.161281
0.162079
0.162841
0.163482
0.163999
0.164571
0.164844
0.164993
0.165228
0.165124
0.16491
0.165004
0.165156
0.165449
0.166106
0.167323
0.168965
0.170607
0.171774
0.172604
0.173564
0.173603
0.173455
0.173739
0.174508
0.175996
0.177738
0.179496
0.18131
0.18142
0.181769
0.182842
0.184061
0.185248
0.186216
0.187517
0.189359
0.190235
0.191153
0.192554
0.193844
0.194883
0.196289
0.197899
0.198378
0.199031
0.200772
0.2021
0.20264
0.237467
0.590098
0.158424
0.158485
0.158541
0.158596
0.158647
0.158695
0.158751
0.158819
0.158884
0.158956
0.159039
0.159128
0.159227
0.159331
0.159494
0.159731
0.159914
0.160108
0.160329
0.160615
0.160935
0.161223
0.161469
0.161732
0.162072
0.162464
0.162965
0.163483
0.163877
0.16424
0.164667
0.165209
0.165769
0.166305
0.166854
0.167396
0.167968
0.168591
0.169145
0.169524
0.169838
0.170264
0.170741
0.171031
0.171257
0.171563
0.171896
0.172141
0.17228
0.172384
0.172528
0.172566
0.1724
0.172174
0.172046
0.17186
0.17183
0.172104
0.172546
0.173071
0.173958
0.175348
0.176807
0.178272
0.179678
0.180818
0.181805
0.182141
0.182086
0.182308
0.182996
0.183834
0.184668
0.185995
0.187482
0.188621
0.189599
0.189994
0.190485
0.191169
0.19208
0.193296
0.194518
0.19622
0.197318
0.198061
0.199368
0.199884
0.200303
0.20128
0.202864
0.20385
0.205425
0.20693
0.208074
0.208897
0.209593
0.211172
0.211662
0.271955
0.173693
0.173792
0.173915
0.174049
0.174197
0.174316
0.174423
0.174534
0.174648
0.174771
0.174953
0.175134
0.175263
0.175365
0.175541
0.175767
0.175838
0.175892
0.176003
0.176168
0.17632
0.176434
0.176495
0.176516
0.176586
0.176734
0.176867
0.176942
0.177
0.177096
0.177194
0.177287
0.177389
0.177508
0.177586
0.177684
0.177845
0.178093
0.178177
0.178076
0.178034
0.178117
0.178062
0.177764
0.177699
0.177852
0.178086
0.178045
0.177915
0.178072
0.178589
0.179261
0.17983
0.180411
0.181253
0.182482
0.18394
0.185474
0.186956
0.188355
0.189614
0.190534
0.19125
0.191726
0.192148
0.192537
0.192645
0.192536
0.192569
0.192832
0.193827
0.195126
0.196438
0.197487
0.198257
0.199026
0.199502
0.200094
0.200923
0.201839
0.202902
0.20395
0.204839
0.206122
0.206972
0.207064
0.207566
0.208799
0.210019
0.211524
0.213153
0.213548
0.213813
0.214864
0.21603
0.216626
0.217912
0.219015
0.219832
0.22075
0.186722
0.186769
0.186825
0.186878
0.186909
0.186948
0.187002
0.186979
0.186963
0.187002
0.186986
0.186977
0.18703
0.187213
0.187301
0.187293
0.187285
0.187323
0.187426
0.18752
0.187712
0.187913
0.187915
0.187951
0.188143
0.188506
0.188761
0.188981
0.189275
0.189402
0.189529
0.189729
0.18995
0.190138
0.190332
0.190559
0.190792
0.19104
0.19132
0.191671
0.192131
0.19273
0.193457
0.194329
0.195164
0.195838
0.196541
0.197401
0.198404
0.199238
0.199862
0.200442
0.201028
0.201633
0.202062
0.20237
0.202765
0.20315
0.203417
0.203518
0.203436
0.203174
0.202786
0.20247
0.202433
0.202806
0.203164
0.203628
0.204318
0.205472
0.206792
0.207926
0.208983
0.20951
0.210062
0.210219
0.210527
0.211119
0.21178
0.21262
0.213565
0.214623
0.215449
0.215686
0.216489
0.217422
0.217923
0.218803
0.220019
0.221155
0.221573
0.221891
0.222464
0.223324
0.224441
0.226018
0.227023
0.227512
0.228277
0.229785
0.204507
0.204566
0.204567
0.20458
0.204707
0.204931
0.205007
0.204987
0.204986
0.205199
0.205368
0.205418
0.205572
0.205806
0.206057
0.206247
0.206353
0.206507
0.206766
0.206823
0.206869
0.206967
0.20709
0.207251
0.207481
0.207882
0.208098
0.208083
0.208059
0.208152
0.208449
0.20877
0.209011
0.209237
0.209509
0.209841
0.21021
0.210551
0.210836
0.211101
0.211345
0.211558
0.211704
0.211698
0.211591
0.211489
0.211506
0.21165
0.211689
0.211595
0.2116
0.21171
0.211804
0.211745
0.211188
0.210691
0.210653
0.210415
0.210369
0.210633
0.210914
0.21122
0.211843
0.212785
0.213976
0.215322
0.216912
0.218439
0.219512
0.220533
0.220858
0.22117
0.221047
0.221114
0.22115
0.221268
0.221665
0.222412
0.223519
0.224704
0.225593
0.226398
0.227154
0.227374
0.227545
0.2283
0.229326
0.2302
0.230674
0.231121
0.231789
0.232827
0.23378
0.234399
0.235143
0.23541
0.235513
0.236249
0.237167
0.238374
0.222077
0.222086
0.222095
0.222113
0.222107
0.222086
0.222137
0.222263
0.222389
0.222543
0.222647
0.222646
0.222612
0.222608
0.222632
0.22277
0.222894
0.222875
0.222828
0.222919
0.223047
0.222953
0.222805
0.222833
0.222971
0.222997
0.222916
0.222843
0.222898
0.22303
0.223055
0.223012
0.222957
0.222966
0.222958
0.222868
0.222753
0.222752
0.222897
0.223091
0.223098
0.223122
0.223377
0.223541
0.223631
0.223867
0.224298
0.224489
0.224558
0.224648
0.224799
0.225115
0.225699
0.226477
0.227354
0.228294
0.229266
0.230312
0.231194
0.231908
0.23265
0.233444
0.234221
0.234824
0.235238
0.235511
0.235484
0.235164
0.234842
0.234639
0.234369
0.233812
0.233771
0.234076
0.234676
0.235577
0.236741
0.237792
0.238766
0.239212
0.239351
0.239124
0.23912
0.239454
0.239769
0.240092
0.240904
0.241805
0.242343
0.242643
0.242902
0.243351
0.243465
0.243806
0.244277
0.244845
0.245657
0.246409