/*--------------------------------*- C++ -*----------------------------------*\
  =========                 |
  \\      /  F ield         | OpenFOAM: The Open Source CFD Toolbox
   \\    /   O peration     | Website:  https://openfoam.org
    \\  /    A nd           | Version:  7
     \\/     M anipulation  |
\*---------------------------------------------------------------------------*/
FoamFile
{
    version     2.0;
    format      ascii;
    class       volScalarField;
    location    "0.18";
    object      rho;
}
// * * * * * * * * * * * * * * * * * * * * * * * * * * * * * * * * * * * * * //

dimensions      [1 -3 0 0 0 0 0];

internalField   nonuniform List<scalar> 
324000
(
0.462751
0.623849
0.831069
1.01943
1.12471
1.10739
1.06414
1.05446
1.04208
1.04508
1.05228
1.05917
1.06743
1.06535
1.05762
1.04767
1.04001
1.03705
1.03785
1.03798
1.03532
1.03407
1.04132
1.06069
1.07394
1.08209
1.08678
1.0886
1.09348
1.12687
1.20121
1.27514
1.32381
1.3442
1.35451
1.36496
1.37802
1.39119
1.39866
1.4001
1.40009
1.40003
1.40001
1.40001
1.40001
1.40001
1.40001
1.40001
1.40001
1.40001
1.40001
1.40001
1.40001
1.40001
1.40001
1.40001
1.40001
1.40001
1.40001
1.40001
1.40001
1.40001
1.40001
1.40001
1.40001
1.40001
1.40001
1.40001
1.40001
1.40001
1.40001
1.40001
1.40001
1.40001
1.40001
1.40001
1.40001
1.40001
1.40001
1.40001
0.326536
0.328446
0.378678
0.584903
0.838194
1.02184
1.08419
1.07681
1.04361
1.03922
1.0348
1.03318
1.03725
1.04065
1.03593
1.02548
1.01456
1.00463
0.996774
0.992752
0.990871
0.992306
1.00963
1.04213
1.06599
1.08136
1.09229
1.09074
1.09443
1.12329
1.19541
1.27707
1.32254
1.33951
1.3493
1.36051
1.37478
1.38939
1.39808
1.39999
1.40005
1.40002
1.40001
1.40001
1.40001
1.40001
1.40001
1.40001
1.40001
1.40001
1.40001
1.40001
1.40001
1.40001
1.40001
1.40001
1.40001
1.40001
1.40001
1.40001
1.40001
1.40001
1.40001
1.40001
1.40001
1.40001
1.40001
1.40001
1.40001
1.40001
1.40001
1.40001
1.40001
1.40001
1.40001
1.40001
1.40001
1.40001
1.40001
1.40001
0.331941
0.334363
0.334896
0.334435
0.384935
0.572736
0.822191
1.01237
1.05608
1.07013
1.05487
1.04272
1.03134
1.02873
1.01974
1.0048
0.989767
0.979309
0.975876
0.978425
0.982073
0.988191
1.01036
1.0404
1.06292
1.08634
1.10323
1.12053
1.13256
1.15618
1.21655
1.28578
1.32012
1.33388
1.34371
1.35571
1.37131
1.38764
1.39759
1.39991
1.40003
1.40002
1.40001
1.40001
1.40001
1.40001
1.40001
1.40001
1.40001
1.40001
1.40001
1.40001
1.40001
1.40001
1.40001
1.40001
1.40001
1.40001
1.40001
1.40001
1.40001
1.40001
1.40001
1.40001
1.40001
1.40001
1.40001
1.40001
1.40001
1.40001
1.40001
1.40001
1.40001
1.40001
1.40001
1.40001
1.40001
1.40001
1.40001
1.40001
0.335364
0.33506
0.334507
0.333056
0.331699
0.33035
0.379896
0.552647
0.807276
1.00111
1.05961
1.05956
1.03927
1.02453
0.995007
0.978347
0.97573
0.977386
0.97897
0.983067
0.982721
0.990316
1.00866
1.03831
1.08966
1.1359
1.16029
1.16839
1.17632
1.19355
1.23165
1.28098
1.3144
1.32831
1.33813
1.35063
1.36776
1.38606
1.39722
1.39986
1.40002
1.40001
1.40001
1.40001
1.40001
1.40001
1.40001
1.40001
1.40001
1.40001
1.40001
1.40001
1.40001
1.40001
1.40001
1.40001
1.40001
1.40001
1.40001
1.40001
1.40001
1.40001
1.40001
1.40001
1.40001
1.40001
1.40001
1.40001
1.40001
1.40001
1.40001
1.40001
1.40001
1.40001
1.40001
1.40001
1.40001
1.40001
1.40001
1.40001
0.334473
0.333807
0.332723
0.331397
0.330818
0.330555
0.330157
0.328986
0.386827
0.56107
0.813276
0.992664
1.03581
1.01822
0.969476
0.962838
0.963888
0.970504
0.975826
0.980042
0.997499
1.01718
1.04072
1.07474
1.12152
1.16933
1.19665
1.20683
1.21454
1.23479
1.26776
1.29761
1.31431
1.32324
1.33195
1.34525
1.36445
1.3848
1.39694
1.39983
1.40001
1.40001
1.40001
1.40001
1.40001
1.40001
1.40001
1.40001
1.40001
1.40001
1.40001
1.40001
1.40001
1.40001
1.40001
1.40001
1.40001
1.40001
1.40001
1.40001
1.40001
1.40001
1.40001
1.40001
1.40001
1.40001
1.40001
1.40001
1.40001
1.40001
1.40001
1.40001
1.40001
1.40001
1.40001
1.40001
1.40001
1.40001
1.40001
1.40001
0.332911
0.332025
0.331381
0.330886
0.330843
0.330974
0.330289
0.329332
0.327551
0.32031
0.38389
0.59018
0.838064
0.936178
0.955687
0.962453
0.961498
0.980456
1.00117
1.01404
1.02477
1.0382
1.06331
1.10125
1.14221
1.18032
1.20667
1.22204
1.23706
1.26009
1.28422
1.30245
1.31039
1.31633
1.32529
1.34019
1.36163
1.38391
1.39688
1.39982
1.40001
1.40001
1.40001
1.40001
1.40001
1.40001
1.40001
1.40001
1.40001
1.40001
1.40001
1.40001
1.40001
1.40001
1.40001
1.40001
1.40001
1.40001
1.40001
1.40001
1.40001
1.40001
1.40001
1.40001
1.40001
1.40001
1.40001
1.40001
1.40001
1.40001
1.40001
1.40001
1.40001
1.40001
1.40001
1.40001
1.40001
1.40001
1.40001
1.40001
0.331684
0.331462
0.331248
0.331326
0.331609
0.33163
0.331044
0.328918
0.322386
0.313354
0.303677
0.304639
0.402252
0.654278
0.865721
0.936217
0.96277
1.00038
1.02974
1.04665
1.0648
1.08386
1.10439
1.12794
1.15233
1.17998
1.20649
1.22528
1.24159
1.26277
1.2857
1.29943
1.30336
1.3076
1.31775
1.33547
1.35885
1.38278
1.39677
1.39983
1.4
1.40001
1.40001
1.40001
1.40001
1.40001
1.40001
1.40001
1.40001
1.40001
1.40001
1.40001
1.40001
1.40001
1.40001
1.40001
1.40001
1.40001
1.40001
1.40001
1.40001
1.40001
1.40001
1.40001
1.40001
1.40001
1.40001
1.40001
1.40001
1.40001
1.40001
1.40001
1.40001
1.40001
1.40001
1.40001
1.40001
1.40001
1.40001
1.40001
0.331193
0.331272
0.331577
0.331677
0.331837
0.331792
0.328926
0.320669
0.310208
0.303918
0.300783
0.300836
0.301818
0.326519
0.462302
0.682741
0.86881
0.958786
1.00582
1.04218
1.08454
1.12351
1.14725
1.15946
1.16663
1.1801
1.20021
1.22183
1.23982
1.2573
1.27551
1.28799
1.29469
1.2999
1.31066
1.33064
1.35721
1.38332
1.3971
1.39985
1.4
1.40001
1.40001
1.40001
1.40001
1.40001
1.40001
1.40001
1.40001
1.40001
1.40001
1.40001
1.40001
1.40001
1.40001
1.40001
1.40001
1.40001
1.40001
1.40001
1.40001
1.40001
1.40001
1.40001
1.40001
1.40001
1.40001
1.40001
1.40001
1.40001
1.40001
1.40001
1.40001
1.40001
1.40001
1.40001
1.40001
1.40001
1.40001
1.40001
0.331573
0.331543
0.331386
0.330765
0.32855
0.323223
0.314738
0.307133
0.302559
0.301655
0.303367
0.308163
0.314924
0.325207
0.334741
0.364733
0.475246
0.651849
0.830262
0.971457
1.05579
1.10722
1.1388
1.15454
1.16049
1.1706
1.19127
1.21591
1.23625
1.25097
1.26019
1.26949
1.27956
1.29166
1.30634
1.32572
1.35431
1.3833
1.39742
1.39989
1.4
1.40001
1.40001
1.40001
1.40001
1.40001
1.40001
1.40001
1.40001
1.40001
1.40001
1.40001
1.40001
1.40001
1.40001
1.40001
1.40001
1.40001
1.40001
1.40001
1.40001
1.40001
1.40001
1.40001
1.40001
1.40001
1.40001
1.40001
1.40001
1.40001
1.40001
1.40001
1.40001
1.40001
1.40001
1.40001
1.40001
1.40001
1.40001
1.40001
0.330098
0.328565
0.326273
0.322226
0.316014
0.310081
0.305304
0.302268
0.303732
0.305826
0.309821
0.318043
0.328585
0.337419
0.350622
0.36527
0.381587
0.400025
0.462657
0.595196
0.771066
0.929577
1.04385
1.11561
1.13741
1.15562
1.18799
1.2101
1.22463
1.23829
1.25036
1.25684
1.26472
1.27958
1.29841
1.32329
1.35593
1.3848
1.39789
1.39993
1.4
1.40001
1.40001
1.40001
1.40001
1.40001
1.40001
1.40001
1.40001
1.40001
1.40001
1.40001
1.40001
1.40001
1.40001
1.40001
1.40001
1.40001
1.40001
1.40001
1.40001
1.40001
1.40001
1.40001
1.40001
1.40001
1.40001
1.40001
1.40001
1.40001
1.40001
1.40001
1.40001
1.40001
1.40001
1.40001
1.40001
1.40001
1.40001
1.40001
0.327198
0.324563
0.31941
0.313639
0.307225
0.30393
0.304432
0.304928
0.307415
0.313049
0.317977
0.32481
0.336948
0.351034
0.366709
0.3828
0.39851
0.417527
0.436614
0.454966
0.490053
0.570534
0.707639
0.868562
1.0166
1.12059
1.17215
1.19276
1.20256
1.21425
1.22876
1.24364
1.25813
1.27143
1.28866
1.31794
1.35603
1.38662
1.39845
1.39996
1.4
1.40001
1.40001
1.40001
1.40001
1.40001
1.40001
1.40001
1.40001
1.40001
1.40001
1.40001
1.40001
1.40001
1.40001
1.40001
1.40001
1.40001
1.40001
1.40001
1.40001
1.40001
1.40001
1.40001
1.40001
1.40001
1.40001
1.40001
1.40001
1.40001
1.40001
1.40001
1.40001
1.40001
1.40001
1.40001
1.40001
1.40001
1.40001
1.40001
0.321747
0.314827
0.307521
0.303442
0.302147
0.30215
0.304046
0.307463
0.310546
0.319492
0.332037
0.344139
0.358119
0.376961
0.393944
0.412091
0.429655
0.446153
0.463802
0.482202
0.502723
0.52389
0.54942
0.599534
0.708401
0.874714
1.02717
1.11981
1.16288
1.18525
1.20336
1.22319
1.24198
1.25945
1.28394
1.31957
1.35918
1.38903
1.39897
1.39998
1.4
1.40001
1.40001
1.40001
1.40001
1.40001
1.40001
1.40001
1.40001
1.40001
1.40001
1.40001
1.40001
1.40001
1.40001
1.40001
1.40001
1.40001
1.40001
1.40001
1.40001
1.40001
1.40001
1.40001
1.40001
1.40001
1.40001
1.40001
1.40001
1.40001
1.40001
1.40001
1.40001
1.40001
1.40001
1.40001
1.40001
1.40001
1.40001
1.40001
0.307032
0.303202
0.301738
0.301575
0.302134
0.302936
0.305454
0.315212
0.327394
0.337612
0.352937
0.370559
0.385845
0.400172
0.414738
0.429624
0.447765
0.466175
0.485191
0.505066
0.524797
0.54666
0.567245
0.594229
0.626902
0.679512
0.791985
0.954659
1.08379
1.14776
1.17787
1.19883
1.21851
1.24133
1.27426
1.31882
1.36374
1.39199
1.39943
1.4
1.4
1.40001
1.40001
1.40001
1.40001
1.40001
1.40001
1.40001
1.40001
1.40001
1.40001
1.40001
1.40001
1.40001
1.40001
1.40001
1.40001
1.40001
1.40001
1.40001
1.40001
1.40001
1.40001
1.40001
1.40001
1.40001
1.40001
1.40001
1.40001
1.40001
1.40001
1.40001
1.40001
1.40001
1.40001
1.40001
1.40001
1.40001
1.40001
1.40001
0.301093
0.301258
0.302696
0.304305
0.307877
0.317518
0.327836
0.336162
0.351295
0.366081
0.376153
0.389134
0.40379
0.416834
0.432637
0.448067
0.462221
0.480672
0.499523
0.519917
0.543542
0.568953
0.594156
0.617764
0.642896
0.67598
0.722283
0.80179
0.929267
1.04749
1.12077
1.16197
1.19445
1.23169
1.2757
1.32419
1.37046
1.3949
1.39975
1.4
1.40001
1.40001
1.40001
1.40001
1.40001
1.40001
1.40001
1.40001
1.40001
1.40001
1.40001
1.40001
1.40001
1.40001
1.40001
1.40001
1.40001
1.40001
1.40001
1.40001
1.40001
1.40001
1.40001
1.40001
1.40001
1.40001
1.40001
1.40001
1.40001
1.40001
1.40001
1.40001
1.40001
1.40001
1.40001
1.40001
1.40001
1.40001
1.40001
1.40001
0.304894
0.307831
0.311765
0.32004
0.327889
0.335607
0.347436
0.35912
0.367877
0.381634
0.394881
0.407369
0.421647
0.438217
0.454715
0.474061
0.494918
0.513988
0.534777
0.556501
0.579215
0.603342
0.631358
0.660833
0.687057
0.710482
0.737943
0.785477
0.859201
0.954124
1.04472
1.11366
1.1678
1.22065
1.27652
1.33329
1.3787
1.39733
1.39992
1.4
1.40001
1.40001
1.40001
1.40001
1.40001
1.40001
1.40001
1.40001
1.40001
1.40001
1.40001
1.40001
1.40001
1.40001
1.40001
1.40001
1.40001
1.40001
1.40001
1.40001
1.40001
1.40001
1.40001
1.40001
1.40001
1.40001
1.40001
1.40001
1.40001
1.40001
1.40001
1.40001
1.40001
1.40001
1.40001
1.40001
1.40001
1.40001
1.40001
1.40001
0.311161
0.316061
0.320559
0.328161
0.339643
0.34726
0.357152
0.3738
0.385612
0.396657
0.414979
0.431482
0.44718
0.46567
0.483049
0.499707
0.518895
0.539887
0.560913
0.582725
0.605913
0.631443
0.657127
0.685524
0.718249
0.748891
0.778257
0.813181
0.868585
0.94958
1.03666
1.11368
1.17388
1.22777
1.28679
1.34709
1.38719
1.39896
1.39998
1.4
1.40001
1.40001
1.40001
1.40001
1.40001
1.40001
1.40001
1.40001
1.40001
1.40001
1.40001
1.40001
1.40001
1.40001
1.40001
1.40001
1.40001
1.40001
1.40001
1.40001
1.40001
1.40001
1.40001
1.40001
1.40001
1.40001
1.40001
1.40001
1.40001
1.40001
1.40001
1.40001
1.40001
1.40001
1.40001
1.40001
1.40001
1.40001
1.40001
1.40001
0.319687
0.328523
0.34172
0.350112
0.360645
0.378141
0.390795
0.400624
0.417288
0.432614
0.444795
0.460637
0.476174
0.490245
0.508406
0.52735
0.543833
0.56261
0.584045
0.607008
0.631303
0.656937
0.684714
0.713941
0.7462
0.782371
0.816921
0.849682
0.890124
0.950279
1.02625
1.10245
1.17162
1.23734
1.305
1.36443
1.3942
1.39974
1.4
1.40001
1.40001
1.40001
1.40001
1.40001
1.40001
1.40001
1.40001
1.40001
1.40001
1.40001
1.40001
1.40001
1.40001
1.40001
1.40001
1.40001
1.40001
1.40001
1.40001
1.40001
1.40001
1.40001
1.40001
1.40001
1.40001
1.40001
1.40001
1.40001
1.40001
1.40001
1.40001
1.40001
1.40001
1.40001
1.40001
1.40001
1.40001
1.40001
1.40001
1.40001
0.344099
0.353272
0.364952
0.378194
0.387009
0.398167
0.412459
0.424188
0.435386
0.451112
0.464716
0.477852
0.495078
0.512474
0.527683
0.546666
0.570334
0.592251
0.614043
0.638421
0.665396
0.694397
0.723999
0.754039
0.786078
0.821368
0.858632
0.895857
0.934236
0.978697
1.03525
1.10191
1.17752
1.25707
1.33147
1.382
1.39835
1.39997
1.4
1.40001
1.40001
1.40001
1.40001
1.40001
1.40001
1.40001
1.40001
1.40001
1.40001
1.40001
1.40001
1.40001
1.40001
1.40001
1.40001
1.40001
1.40001
1.40001
1.40001
1.40001
1.40001
1.40001
1.40001
1.40001
1.40001
1.40001
1.40001
1.40001
1.40001
1.40001
1.40001
1.40001
1.40001
1.40001
1.40001
1.40001
1.40001
1.40001
1.40001
1.40001
0.36424
0.374568
0.382085
0.394629
0.409597
0.417897
0.429111
0.446491
0.459958
0.472067
0.490219
0.507862
0.523763
0.542963
0.564056
0.584154
0.60385
0.626483
0.650962
0.676237
0.702283
0.730057
0.760319
0.793161
0.828528
0.865611
0.903405
0.941852
0.982848
1.02919
1.08362
1.14732
1.21991
1.29743
1.36303
1.39431
1.39977
1.4
1.40001
1.40001
1.40001
1.40001
1.40001
1.40001
1.40001
1.40001
1.40001
1.40001
1.40001
1.40001
1.40001
1.40001
1.40001
1.40001
1.40001
1.40001
1.40001
1.40001
1.40001
1.40001
1.40001
1.40001
1.40001
1.40001
1.40001
1.40001
1.40001
1.40001
1.40001
1.40001
1.40001
1.40001
1.40001
1.40001
1.40001
1.40001
1.40001
1.40001
1.40001
1.40001
0.388345
0.400701
0.41293
0.421848
0.435088
0.451053
0.462633
0.475057
0.492087
0.506985
0.520461
0.538205
0.555907
0.571874
0.590549
0.611988
0.633404
0.654852
0.678725
0.705533
0.733554
0.762447
0.793264
0.826639
0.862876
0.90211
0.943364
0.985143
1.02693
1.07133
1.1245
1.1916
1.26963
1.34332
1.38771
1.39916
1.39999
1.4
1.40001
1.40001
1.40001
1.40001
1.40001
1.40001
1.40001
1.40001
1.40001
1.40001
1.40001
1.40001
1.40001
1.40001
1.40001
1.40001
1.40001
1.40001
1.40001
1.40001
1.40001
1.40001
1.40001
1.40001
1.40001
1.40001
1.40001
1.40001
1.40001
1.40001
1.40001
1.40001
1.40001
1.40001
1.40001
1.40001
1.40001
1.40001
1.40001
1.40001
1.40001
1.40001
0.413581
0.423035
0.436208
0.449215
0.457964
0.470369
0.486699
0.499415
0.511504
0.529025
0.546502
0.560999
0.579145
0.601046
0.621721
0.642008
0.665229
0.690858
0.716956
0.743815
0.773005
0.805044
0.838873
0.873541
0.909276
0.947706
0.990646
1.03777
1.0873
1.13933
1.19728
1.26427
1.33337
1.38208
1.39827
1.39996
1.4
1.40001
1.40001
1.40001
1.40001
1.40001
1.40001
1.40001
1.40001
1.40001
1.40001
1.40001
1.40001
1.40001
1.40001
1.40001
1.40001
1.40001
1.40001
1.40001
1.40001
1.40001
1.40001
1.40001
1.40001
1.40001
1.40001
1.40001
1.40001
1.40001
1.40001
1.40001
1.40001
1.40001
1.40001
1.40001
1.40001
1.40001
1.40001
1.40001
1.40001
1.40001
1.40001
1.40001
0.439909
0.451374
0.460907
0.474268
0.489814
0.50155
0.514057
0.53092
0.547188
0.561709
0.57904
0.598617
0.617329
0.6365
0.658338
0.681093
0.704112
0.729021
0.756517
0.785491
0.814964
0.846057
0.880417
0.918178
0.958097
0.999197
1.04197
1.0882
1.13995
1.19917
1.26598
1.33289
1.38058
1.39779
1.39994
1.4
1.40001
1.40001
1.40001
1.40001
1.40001
1.40001
1.40001
1.40001
1.40001
1.40001
1.40001
1.40001
1.40001
1.40001
1.40001
1.40001
1.40001
1.40001
1.40001
1.40001
1.40001
1.40001
1.40001
1.40001
1.40001
1.40001
1.40001
1.40001
1.40001
1.40001
1.40001
1.40001
1.40001
1.40001
1.40001
1.40001
1.40001
1.40001
1.40001
1.40001
1.40001
1.40001
1.40001
1.40001
0.466127
0.478231
0.491391
0.502446
0.514833
0.530742
0.545221
0.558903
0.575439
0.59276
0.609776
0.628107
0.648828
0.669698
0.690954
0.714336
0.740045
0.766541
0.793718
0.823079
0.855483
0.890116
0.925909
0.962951
1.00227
1.04535
1.09331
1.14652
1.2057
1.27109
1.33595
1.38163
1.3979
1.39994
1.4
1.40001
1.40001
1.40001
1.40001
1.40001
1.40001
1.40001
1.40001
1.40001
1.40001
1.40001
1.40001
1.40001
1.40001
1.40001
1.40001
1.40001
1.40001
1.40001
1.40001
1.40001
1.40001
1.40001
1.40001
1.40001
1.40001
1.40001
1.40001
1.40001
1.40001
1.40001
1.40001
1.40001
1.40001
1.40001
1.40001
1.40001
1.40001
1.40001
1.40001
1.40001
1.40001
1.40001
1.40001
1.40001
0.495305
0.506747
0.519475
0.533801
0.546799
0.56016
0.576592
0.592711
0.608719
0.626806
0.64641
0.665374
0.685502
0.708254
0.73238
0.75646
0.781682
0.80968
0.840041
0.871445
0.903858
0.938572
0.976543
1.01748
1.06061
1.10614
1.15593
1.21247
1.27612
1.33921
1.38299
1.39814
1.39995
1.4
1.40001
1.40001
1.40001
1.40001
1.40001
1.40001
1.40001
1.40001
1.40001
1.40001
1.40001
1.40001
1.40001
1.40001
1.40001
1.40001
1.40001
1.40001
1.40001
1.40001
1.40001
1.40001
1.40001
1.40001
1.40001
1.40001
1.40001
1.40001
1.40001
1.40001
1.40001
1.40001
1.40001
1.40001
1.40001
1.40001
1.40001
1.40001
1.40001
1.40001
1.40001
1.40001
1.40001
1.40001
1.40001
1.40001
0.525445
0.538356
0.550503
0.563794
0.5797
0.594838
0.609478
0.626577
0.645131
0.662701
0.681503
0.703012
0.725489
0.747712
0.771184
0.797206
0.825098
0.853925
0.884134
0.916718
0.951864
0.989049
1.0281
1.06966
1.11491
1.16523
1.22182
1.28406
1.34421
1.3848
1.39839
1.39996
1.4
1.40001
1.40001
1.40001
1.40001
1.40001
1.40001
1.40001
1.40001
1.40001
1.40001
1.40001
1.40001
1.40001
1.40001
1.40001
1.40001
1.40001
1.40001
1.40001
1.40001
1.40001
1.40001
1.40001
1.40001
1.40001
1.40001
1.40001
1.40001
1.40001
1.40001
1.40001
1.40001
1.40001
1.40001
1.40001
1.40001
1.40001
1.40001
1.40001
1.40001
1.40001
1.40001
1.40001
1.40001
1.40001
1.40001
1.40001
0.557419
0.57024
0.584876
0.599166
0.61295
0.629124
0.646939
0.663844
0.681509
0.701584
0.722611
0.743599
0.765906
0.790384
0.816266
0.843041
0.871372
0.901934
0.93458
0.96898
1.00534
1.04421
1.086
1.13114
1.18059
1.23565
1.29546
1.35154
1.38745
1.39875
1.39997
1.4
1.40001
1.40001
1.40001
1.40001
1.40001
1.40001
1.40001
1.40001
1.40001
1.40001
1.40001
1.40001
1.40001
1.40001
1.40001
1.40001
1.40001
1.40001
1.40001
1.40001
1.40001
1.40001
1.40001
1.40001
1.40001
1.40001
1.40001
1.40001
1.40001
1.40001
1.40001
1.40001
1.40001
1.40001
1.40001
1.40001
1.40001
1.40001
1.40001
1.40001
1.40001
1.40001
1.40001
1.40001
1.40001
1.40001
1.40001
1.40001
0.592048
0.605774
0.619414
0.634606
0.651295
0.667656
0.684432
0.703104
0.722813
0.742766
0.763936
0.786909
0.811035
0.836023
0.862499
0.890979
0.921329
0.953374
0.987331
1.02354
1.0622
1.10354
1.14822
1.19738
1.25187
1.30953
1.36067
1.39069
1.39916
1.39998
1.4
1.40001
1.40001
1.40001
1.40001
1.40001
1.40001
1.40001
1.40001
1.40001
1.40001
1.40001
1.40001
1.40001
1.40001
1.40001
1.40001
1.40001
1.40001
1.40001
1.40001
1.40001
1.40001
1.40001
1.40001
1.40001
1.40001
1.40001
1.40001
1.40001
1.40001
1.40001
1.40001
1.40001
1.40001
1.40001
1.40001
1.40001
1.40001
1.40001
1.40001
1.40001
1.40001
1.40001
1.40001
1.40001
1.40001
1.40001
1.40001
1.40001
0.628596
0.642841
0.658223
0.673948
0.69016
0.707768
0.726381
0.745392
0.765404
0.78695
0.809653
0.833269
0.858193
0.884805
0.913109
0.943081
0.974904
1.00879
1.04487
1.08331
1.12451
1.16917
1.21817
1.27164
1.32606
1.37073
1.39394
1.39953
1.39999
1.4
1.40001
1.40001
1.40001
1.40001
1.40001
1.40001
1.40001
1.40001
1.40001
1.40001
1.40001
1.40001
1.40001
1.40001
1.40001
1.40001
1.40001
1.40001
1.40001
1.40001
1.40001
1.40001
1.40001
1.40001
1.40001
1.40001
1.40001
1.40001
1.40001
1.40001
1.40001
1.40001
1.40001
1.40001
1.40001
1.40001
1.40001
1.40001
1.40001
1.40001
1.40001
1.40001
1.40001
1.40001
1.40001
1.40001
1.40001
1.40001
1.40001
1.40001
0.668054
0.683068
0.698715
0.715379
0.733021
0.75124
0.770251
0.79048
0.811875
0.834301
0.857918
0.88293
0.909412
0.937477
0.96733
0.999131
1.03297
1.06897
1.10738
1.14864
1.19336
1.24213
1.29407
1.3439
1.38054
1.39664
1.39979
1.4
1.40001
1.40001
1.40001
1.40001
1.40001
1.40001
1.40001
1.40001
1.40001
1.40001
1.40001
1.40001
1.40001
1.40001
1.40001
1.40001
1.40001
1.40001
1.40001
1.40001
1.40001
1.40001
1.40001
1.40001
1.40001
1.40001
1.40001
1.40001
1.40001
1.40001
1.40001
1.40001
1.40001
1.40001
1.40001
1.40001
1.40001
1.40001
1.40001
1.40001
1.40001
1.40001
1.40001
1.40001
1.40001
1.40001
1.40001
1.40001
1.40001
1.40001
1.40001
1.40001
0.710206
0.725958
0.742633
0.760111
0.778367
0.797549
0.817738
0.838981
0.861404
0.885092
0.910077
0.936483
0.96454
0.99444
1.02629
1.06018
1.09628
1.13485
1.1763
1.22112
1.26927
1.31845
1.36163
1.38887
1.39849
1.39993
1.4
1.40001
1.40001
1.40001
1.40001
1.40001
1.40001
1.40001
1.40001
1.40001
1.40001
1.40001
1.40001
1.40001
1.40001
1.40001
1.40001
1.40001
1.40001
1.40001
1.40001
1.40001
1.40001
1.40001
1.40001
1.40001
1.40001
1.40001
1.40001
1.40001
1.40001
1.40001
1.40001
1.40001
1.40001
1.40001
1.40001
1.40001
1.40001
1.40001
1.40001
1.40001
1.40001
1.40001
1.40001
1.40001
1.40001
1.40001
1.40001
1.40001
1.40001
1.40001
1.40001
1.40001
0.75549
0.772084
0.78958
0.80796
0.827201
0.847361
0.868616
0.891102
0.914841
0.939876
0.966374
0.994557
1.0246
1.05662
1.09074
1.1271
1.16597
1.20767
1.2523
1.29881
1.34313
1.37728
1.3948
1.39948
1.39999
1.4
1.40001
1.40001
1.40001
1.40001
1.40001
1.40001
1.40001
1.40001
1.40001
1.40001
1.40001
1.40001
1.40001
1.40001
1.40001
1.40001
1.40001
1.40001
1.40001
1.40001
1.40001
1.40001
1.40001
1.40001
1.40001
1.40001
1.40001
1.40001
1.40001
1.40001
1.40001
1.40001
1.40001
1.40001
1.40001
1.40001
1.40001
1.40001
1.40001
1.40001
1.40001
1.40001
1.40001
1.40001
1.40001
1.40001
1.40001
1.40001
1.40001
1.40001
1.40001
1.40001
1.40001
1.40001
0.804116
0.821615
0.84007
0.859395
0.879642
0.900988
0.923571
0.947437
0.972652
0.999374
1.02782
1.05816
1.09053
1.12504
1.1618
1.201
1.24267
1.28621
1.32908
1.36564
1.38901
1.39813
1.39987
1.4
1.40001
1.40001
1.40001
1.40001
1.40001
1.40001
1.40001
1.40001
1.40001
1.40001
1.40001
1.40001
1.40001
1.40001
1.40001
1.40001
1.40001
1.40001
1.40001
1.40001
1.40001
1.40001
1.40001
1.40001
1.40001
1.40001
1.40001
1.40001
1.40001
1.40001
1.40001
1.40001
1.40001
1.40001
1.40001
1.40001
1.40001
1.40001
1.40001
1.40001
1.40001
1.40001
1.40001
1.40001
1.40001
1.40001
1.40001
1.40001
1.40001
1.40001
1.40001
1.40001
1.40001
1.40001
1.40001
1.40001
0.856452
0.874951
0.894417
0.914832
0.936344
0.959116
0.983232
1.00876
1.03587
1.06475
1.09558
1.12847
1.16346
1.20061
1.23982
1.28056
1.32101
1.35712
1.38313
1.39597
1.39953
1.39998
1.4
1.40001
1.40001
1.40001
1.40001
1.40001
1.40001
1.40001
1.40001
1.40001
1.40001
1.40001
1.40001
1.40001
1.40001
1.40001
1.40001
1.40001
1.40001
1.40001
1.40001
1.40001
1.40001
1.40001
1.40001
1.40001
1.40001
1.40001
1.40001
1.40001
1.40001
1.40001
1.40001
1.40001
1.40001
1.40001
1.40001
1.40001
1.40001
1.40001
1.40001
1.40001
1.40001
1.40001
1.40001
1.40001
1.40001
1.40001
1.40001
1.40001
1.40001
1.40001
1.40001
1.40001
1.40001
1.40001
1.40001
1.40001
0.912969
0.932589
0.953256
0.975052
0.998154
1.02267
1.04869
1.07637
1.10588
1.13736
1.17083
1.20622
1.2433
1.28145
1.31913
1.35321
1.37919
1.39383
1.39898
1.39992
1.4
1.4
1.40001
1.40001
1.40001
1.40001
1.40001
1.40001
1.40001
1.40001
1.40001
1.40001
1.40001
1.40001
1.40001
1.40001
1.40001
1.40001
1.40001
1.40001
1.40001
1.40001
1.40001
1.40001
1.40001
1.40001
1.40001
1.40001
1.40001
1.40001
1.40001
1.40001
1.40001
1.40001
1.40001
1.40001
1.40001
1.40001
1.40001
1.40001
1.40001
1.40001
1.40001
1.40001
1.40001
1.40001
1.40001
1.40001
1.40001
1.40001
1.40001
1.40001
1.40001
1.40001
1.40001
1.40001
1.40001
1.40001
1.40001
1.40001
0.974399
0.995392
1.01763
1.04124
1.06635
1.09307
1.12151
1.15178
1.1839
1.21769
1.25278
1.28839
1.32304
1.35415
1.37822
1.39266
1.39849
1.39984
1.4
1.4
1.40001
1.40001
1.40001
1.40001
1.40001
1.40001
1.40001
1.40001
1.40001
1.40001
1.40001
1.40001
1.40001
1.40001
1.40001
1.40001
1.40001
1.40001
1.40001
1.40001
1.40001
1.40001
1.40001
1.40001
1.40001
1.40001
1.40001
1.40001
1.40001
1.40001
1.40001
1.40001
1.40001
1.40001
1.40001
1.40001
1.40001
1.40001
1.40001
1.40001
1.40001
1.40001
1.40001
1.40001
1.40001
1.40001
1.40001
1.40001
1.40001
1.40001
1.40001
1.40001
1.40001
1.40001
1.40001
1.40001
1.40001
1.40001
1.40001
1.40001
1.04196
1.06478
1.0891
1.11501
1.14258
1.17182
1.20268
1.23489
1.2679
1.30077
1.33199
1.35934
1.38021
1.39289
1.39834
1.39978
1.39999
1.4
1.40001
1.40001
1.40001
1.40001
1.40001
1.40001
1.40001
1.40001
1.40001
1.40001
1.40001
1.40001
1.40001
1.40001
1.40001
1.40001
1.40001
1.40001
1.40001
1.40001
1.40001
1.40001
1.40001
1.40001
1.40001
1.40001
1.40001
1.40001
1.40001
1.40001
1.40001
1.40001
1.40001
1.40001
1.40001
1.40001
1.40001
1.40001
1.40001
1.40001
1.40001
1.40001
1.40001
1.40001
1.40001
1.40001
1.40001
1.40001
1.40001
1.40001
1.40001
1.40001
1.40001
1.40001
1.40001
1.40001
1.40001
1.40001
1.40001
1.40001
1.40001
1.40001
1.11744
1.14256
1.1693
1.19755
1.2271
1.25752
1.28808
1.31768
1.34481
1.36764
1.38438
1.3943
1.39859
1.39979
1.39999
1.4
1.40001
1.40001
1.40001
1.40001
1.40001
1.40001
1.40001
1.40001
1.40001
1.40001
1.40001
1.40001
1.40001
1.40001
1.40001
1.40001
1.40001
1.40001
1.40001
1.40001
1.40001
1.40001
1.40001
1.40001
1.40001
1.40001
1.40001
1.40001
1.40001
1.40001
1.40001
1.40001
1.40001
1.40001
1.40001
1.40001
1.40001
1.40001
1.40001
1.40001
1.40001
1.40001
1.40001
1.40001
1.40001
1.40001
1.40001
1.40001
1.40001
1.40001
1.40001
1.40001
1.40001
1.40001
1.40001
1.40001
1.40001
1.40001
1.40001
1.40001
1.40001
1.40001
1.40001
1.40001
1.20202
1.22892
1.25675
1.2848
1.31213
1.33757
1.35974
1.37734
1.38946
1.39625
1.39906
1.39985
1.39999
1.4
1.40001
1.40001
1.40001
1.40001
1.40001
1.40001
1.40001
1.40001
1.40001
1.40001
1.40001
1.40001
1.40001
1.40001
1.40001
1.40001
1.40001
1.40001
1.40001
1.40001
1.40001
1.40001
1.40001
1.40001
1.40001
1.40001
1.40001
1.40001
1.40001
1.40001
1.40001
1.40001
1.40001
1.40001
1.40001
1.40001
1.40001
1.40001
1.40001
1.40001
1.40001
1.40001
1.40001
1.40001
1.40001
1.40001
1.40001
1.40001
1.40001
1.40001
1.40001
1.40001
1.40001
1.40001
1.40001
1.40001
1.40001
1.40001
1.40001
1.40001
1.40001
1.40001
1.40001
1.40001
1.40001
1.40001
1.29067
1.31504
1.33791
1.35805
1.37446
1.38649
1.3941
1.39801
1.39952
1.39993
1.4
1.4
1.40001
1.40001
1.40001
1.40001
1.40001
1.40001
1.40001
1.40001
1.40001
1.40001
1.40001
1.40001
1.40001
1.40001
1.40001
1.40001
1.40001
1.40001
1.40001
1.40001
1.40001
1.40001
1.40001
1.40001
1.40001
1.40001
1.40001
1.40001
1.40001
1.40001
1.40001
1.40001
1.40001
1.40001
1.40001
1.40001
1.40001
1.40001
1.40001
1.40001
1.40001
1.40001
1.40001
1.40001
1.40001
1.40001
1.40001
1.40001
1.40001
1.40001
1.40001
1.40001
1.40001
1.40001
1.40001
1.40001
1.40001
1.40001
1.40001
1.40001
1.40001
1.40001
1.40001
1.40001
1.40001
1.40001
1.40001
1.40001
1.36241
1.37614
1.38653
1.39344
1.39737
1.39919
1.39982
1.39998
1.4
1.4
1.40001
1.40001
1.40001
1.40001
1.40001
1.40001
1.40001
1.40001
1.40001
1.40001
1.40001
1.40001
1.40001
1.40001
1.40001
1.40001
1.40001
1.40001
1.40001
1.40001
1.40001
1.40001
1.40001
1.40001
1.40001
1.40001
1.40001
1.40001
1.40001
1.40001
1.40001
1.40001
1.40001
1.40001
1.40001
1.40001
1.40001
1.40001
1.40001
1.40001
1.40001
1.40001
1.40001
1.40001
1.40001
1.40001
1.40001
1.40001
1.40001
1.40001
1.40001
1.40001
1.40001
1.40001
1.40001
1.40001
1.40001
1.40001
1.40001
1.40001
1.40001
1.40001
1.40001
1.40001
1.40001
1.40001
1.40001
1.40001
1.40001
1.40001
1.39449
1.39754
1.39911
1.39975
1.39995
1.4
1.4
1.4
1.40001
1.40001
1.40001
1.40001
1.40001
1.40001
1.40001
1.40001
1.40001
1.40001
1.40001
1.40001
1.40001
1.40001
1.40001
1.40001
1.40001
1.40001
1.40001
1.40001
1.40001
1.40001
1.40001
1.40001
1.40001
1.40001
1.40001
1.40001
1.40001
1.40001
1.40001
1.40001
1.40001
1.40001
1.40001
1.40001
1.40001
1.40001
1.40001
1.40001
1.40001
1.40001
1.40001
1.40001
1.40001
1.40001
1.40001
1.40001
1.40001
1.40001
1.40001
1.40001
1.40001
1.40001
1.40001
1.40001
1.40001
1.40001
1.40001
1.40001
1.40001
1.40001
1.40001
1.40001
1.40001
1.40001
1.40001
1.40001
1.40001
1.40001
1.40001
1.40001
1.39979
1.39995
1.39999
1.4
1.4
1.40001
1.40001
1.40001
1.40001
1.40001
1.40001
1.40001
1.40001
1.40001
1.40001
1.40001
1.40001
1.40001
1.40001
1.40001
1.40001
1.40001
1.40001
1.40001
1.40001
1.40001
1.40001
1.40001
1.40001
1.40001
1.40001
1.40001
1.40001
1.40001
1.40001
1.40001
1.40001
1.40001
1.40001
1.40001
1.40001
1.40001
1.40001
1.40001
1.40001
1.40001
1.40001
1.40001
1.40001
1.40001
1.40001
1.40001
1.40001
1.40001
1.40001
1.40001
1.40001
1.40001
1.40001
1.40001
1.40001
1.40001
1.40001
1.40001
1.40001
1.40001
1.40001
1.40001
1.40001
1.40001
1.40001
1.40001
1.40001
1.40001
1.40001
1.40001
1.40001
1.40001
1.40001
1.40001
1.4
1.4
1.40001
1.40001
1.40001
1.40001
1.40001
1.40001
1.40001
1.40001
1.40001
1.40001
1.40001
1.40001
1.40001
1.40001
1.40001
1.40001
1.40001
1.40001
1.40001
1.40001
1.40001
1.40001
1.40001
1.40001
1.40001
1.40001
1.40001
1.40001
1.40001
1.40001
1.40001
1.40001
1.40001
1.40001
1.40001
1.40001
1.40001
1.40001
1.40001
1.40001
1.40001
1.40001
1.40001
1.40001
1.40001
1.40001
1.40001
1.40001
1.40001
1.40001
1.40001
1.40001
1.40001
1.40001
1.40001
1.40001
1.40001
1.40001
1.40001
1.40001
1.40001
1.40001
1.40001
1.40001
1.40001
1.40001
1.40001
1.40001
1.40001
1.40001
1.40001
1.40001
1.40001
1.40001
1.40001
1.40001
1.40001
1.40001
1.40001
1.40001
1.40001
1.40001
1.40001
1.40001
1.40001
1.40001
1.40001
1.40001
1.40001
1.40001
1.40001
1.40001
1.40001
1.40001
1.40001
1.40001
1.40001
1.40001
1.40001
1.40001
1.40001
1.40001
1.40001
1.40001
1.40001
1.40001
1.40001
1.40001
1.40001
1.40001
1.40001
1.40001
1.40001
1.40001
1.40001
1.40001
1.40001
1.40001
1.40001
1.40001
1.40001
1.40001
1.40001
1.40001
1.40001
1.40001
1.40001
1.40001
1.40001
1.40001
1.40001
1.40001
1.40001
1.40001
1.40001
1.40001
1.40001
1.40001
1.40001
1.40001
1.40001
1.40001
1.40001
1.40001
1.40001
1.40001
1.40001
1.40001
1.40001
1.40001
1.40001
1.40001
1.40001
1.40001
1.40001
1.40001
1.40001
1.40001
1.40001
1.40001
1.40001
1.40001
1.40001
1.40001
1.40001
1.40001
1.40001
1.40001
1.40001
1.40001
1.40001
1.40001
1.40001
1.40001
1.40001
1.40001
1.40001
1.40001
1.40001
1.40001
1.40001
1.40001
1.40001
1.40001
1.40001
1.40001
1.40001
1.40001
1.40001
1.40001
1.40001
1.40001
1.40001
1.40001
1.40001
1.40001
1.40001
1.40001
1.40001
1.40001
1.40001
1.40001
1.40001
1.40001
1.40001
1.40001
1.40001
1.40001
1.40001
1.40001
1.40001
1.40001
1.40001
1.40001
1.40001
1.40001
1.40001
1.40001
1.40001
1.40001
1.40001
1.40001
1.40001
1.40001
1.40001
1.40001
1.40001
1.40001
1.40001
1.40001
1.40001
1.40001
1.40001
1.40001
1.40001
1.40001
1.40001
1.40001
1.40001
1.40001
1.40001
1.40001
1.40001
1.40001
1.40001
1.40001
1.40001
1.40001
1.40001
1.40001
1.40001
1.40001
1.40001
1.40001
1.40001