/*--------------------------------*- C++ -*----------------------------------*\
  =========                 |
  \\      /  F ield         | OpenFOAM: The Open Source CFD Toolbox
   \\    /   O peration     | Website:  https://openfoam.org
    \\  /    A nd           | Version:  7
     \\/     M anipulation  |
\*---------------------------------------------------------------------------*/
FoamFile
{
    version     2.0;
    format      ascii;
    class       volScalarField;
    location    "6.5";
    object      p;
}
// * * * * * * * * * * * * * * * * * * * * * * * * * * * * * * * * * * * * * //

dimensions      [1 -1 -2 0 0 0 0];

internalField   nonuniform List<scalar> 
90000
(
0.908847
0.905848
0.903222
0.9023
0.902523
0.901383
0.902288
0.903556
0.905565
0.907376
0.909562
0.911843
0.914751
0.916875
0.919491
0.92189
0.924859
0.926784
0.92906
0.930865
0.93327
0.934649
0.936241
0.936872
0.937863
0.938714
0.940059
0.941199
0.9429
0.944639
0.94699
0.949119
0.951769
0.954495
0.957857
0.961137
0.96451
0.968399
0.973651
0.978051
0.982643
0.986632
0.990296
0.993541
0.995853
0.998585
0.996692
0.991992
0.982816
0.973217
0.96571
0.962756
0.9638
0.967212
0.971856
0.976731
0.981858
0.985293
0.987887
0.989605
0.991273
0.989647
0.98513
0.976878
0.968947
0.96336
0.962612
0.965175
0.970175
0.976649
0.982145
0.986876
0.985779
0.980917
0.972829
0.968244
0.964902
0.968118
0.973506
0.979428
0.9816
0.979146
0.974911
0.973161
0.973753
0.976398
0.980939
0.981077
0.979077
0.976158
0.975738
0.977755
0.979863
0.98053
0.979167
0.976525
0.97549
0.975307
0.974857
0.974179
0.913977
0.913992
0.91405
0.914207
0.914322
0.914403
0.914588
0.914954
0.91537
0.915706
0.916086
0.916702
0.917399
0.917977
0.918768
0.91976
0.920621
0.921412
0.922312
0.923403
0.924868
0.926418
0.927831
0.929276
0.930761
0.93219
0.933426
0.934735
0.936085
0.937534
0.938964
0.940311
0.941535
0.942782
0.944154
0.945603
0.947178
0.949097
0.951726
0.954597
0.957976
0.961675
0.965623
0.969841
0.97425
0.978732
0.983897
0.987953
0.993142
0.994665
0.99332
0.989238
0.983402
0.977337
0.972684
0.968888
0.969043
0.970221
0.972227
0.975212
0.979893
0.984515
0.990138
0.989933
0.987122
0.979175
0.971009
0.965262
0.963996
0.965979
0.970241
0.976576
0.98316
0.986605
0.984424
0.976772
0.969641
0.967109
0.968675
0.972639
0.977967
0.982101
0.980108
0.975391
0.971938
0.973401
0.977564
0.981506
0.980362
0.977213
0.975041
0.975848
0.978578
0.980115
0.979765
0.978065
0.976518
0.975617
0.975078
0.974575
0.915527
0.915593
0.915645
0.915631
0.915604
0.915599
0.915611
0.915662
0.915762
0.915784
0.915757
0.915798
0.91593
0.916145
0.916411
0.916694
0.916906
0.917124
0.917412
0.917859
0.918481
0.919149
0.919743
0.920346
0.921159
0.922191
0.923295
0.924618
0.925936
0.927271
0.928583
0.929818
0.930955
0.932073
0.933187
0.934414
0.935717
0.937151
0.938888
0.941008
0.943469
0.946553
0.949801
0.953498
0.957415
0.961322
0.966329
0.970372
0.975283
0.97821
0.979977
0.981539
0.984177
0.986013
0.985675
0.983644
0.980374
0.97679
0.974177
0.973371
0.974096
0.975847
0.978743
0.98139
0.98402
0.984511
0.982861
0.977238
0.971154
0.965761
0.965861
0.967918
0.972269
0.977777
0.984048
0.985997
0.9823
0.975065
0.968398
0.968251
0.971364
0.976587
0.983144
0.98188
0.977208
0.973188
0.974082
0.977105
0.980959
0.979862
0.977241
0.975792
0.97705
0.979776
0.979846
0.979034
0.977345
0.97613
0.97519
0.974476
0.918855
0.918878
0.918871
0.918847
0.918851
0.918967
0.919031
0.919037
0.919037
0.919006
0.918847
0.918745
0.918751
0.91883
0.919007
0.919042
0.918983
0.918956
0.919018
0.919262
0.919394
0.919375
0.91937
0.919448
0.919667
0.919978
0.920353
0.920494
0.92075
0.921207
0.921828
0.922484
0.923185
0.923966
0.925175
0.926696
0.928292
0.929942
0.931513
0.933247
0.93504
0.937236
0.939537
0.942067
0.944745
0.947653
0.951155
0.955161
0.959042
0.96352
0.96823
0.971614
0.974733
0.976585
0.977239
0.977376
0.977511
0.977558
0.977683
0.977043
0.975863
0.97486
0.974753
0.975428
0.976753
0.97816
0.978724
0.979357
0.978442
0.97517
0.971169
0.967449
0.967631
0.96969
0.974515
0.977878
0.981748
0.98193
0.978254
0.97316
0.970176
0.971556
0.975485
0.979045
0.98158
0.978707
0.9743
0.974519
0.976879
0.98083
0.979866
0.977198
0.97578
0.977367
0.980319
0.979811
0.97828
0.976457
0.975766
0.974823
0.922326
0.922352
0.92236
0.922346
0.92228
0.92217
0.922061
0.922035
0.922075
0.922124
0.922098
0.921964
0.921778
0.92172
0.921748
0.921764
0.921739
0.921755
0.921769
0.921744
0.921669
0.921507
0.921317
0.921284
0.92131
0.921296
0.921294
0.921351
0.921383
0.921392
0.921464
0.92167
0.922009
0.922563
0.922771
0.922933
0.923226
0.923737
0.924561
0.92559
0.926761
0.928026
0.92946
0.931049
0.932609
0.93458
0.936588
0.939416
0.94203
0.945578
0.949666
0.954122
0.958875
0.962581
0.966332
0.96889
0.971818
0.973415
0.974331
0.974712
0.974929
0.975229
0.975442
0.975362
0.975083
0.974492
0.974468
0.974934
0.975775
0.977348
0.977361
0.975456
0.972405
0.969485
0.969876
0.971904
0.976699
0.978776
0.980418
0.979278
0.975561
0.971553
0.972107
0.974288
0.977223
0.979241
0.977948
0.975484
0.975532
0.977224
0.979616
0.979266
0.977444
0.976631
0.977903
0.98023
0.979685
0.977725
0.976
0.975052
0.924994
0.925005
0.925029
0.925046
0.925013
0.924774
0.924489
0.924461
0.924573
0.924669
0.924656
0.924582
0.924318
0.924012
0.923963
0.923936
0.923921
0.923934
0.923919
0.923827
0.923598
0.923445
0.923382
0.923324
0.923236
0.923093
0.923046
0.923036
0.922959
0.922674
0.922313
0.922276
0.922287
0.92234
0.922371
0.922373
0.922409
0.922586
0.922676
0.92275
0.922869
0.923061
0.923278
0.923571
0.92399
0.924703
0.92583
0.927304
0.928818
0.930866
0.933229
0.936797
0.940584
0.945234
0.950463
0.954998
0.960424
0.964628
0.969149
0.970391
0.972198
0.973188
0.973404
0.973382
0.973169
0.972416
0.972504
0.972892
0.974007
0.975746
0.977209
0.977641
0.977081
0.974882
0.9717
0.972142
0.973351
0.976111
0.978154
0.978728
0.978486
0.976245
0.973154
0.973307
0.974321
0.976865
0.977918
0.977409
0.976118
0.976134
0.977398
0.978856
0.978594
0.977273
0.977148
0.97831
0.979699
0.979025
0.977172
0.975292
0.928543
0.928498
0.928453
0.928404
0.928333
0.928209
0.928047
0.92786
0.927728
0.927634
0.927547
0.927519
0.927418
0.927145
0.926969
0.92691
0.926834
0.92673
0.926618
0.926507
0.9263
0.925872
0.925687
0.925691
0.925659
0.925518
0.92524
0.924937
0.924657
0.9243
0.923795
0.923475
0.9233
0.923192
0.923075
0.922902
0.922699
0.922472
0.922332
0.922137
0.922022
0.921995
0.921879
0.92168
0.921452
0.921201
0.920834
0.92069
0.920796
0.921189
0.922006
0.923357
0.925178
0.928183
0.931506
0.936278
0.941182
0.947002
0.952659
0.957383
0.962358
0.964742
0.967512
0.969232
0.970337
0.970898
0.972389
0.973321
0.974207
0.974995
0.976314
0.976921
0.976967
0.976918
0.975957
0.974633
0.973981
0.974396
0.975371
0.977154
0.97758
0.977497
0.976198
0.974462
0.974288
0.974927
0.976608
0.977187
0.977057
0.976494
0.976725
0.977722
0.978287
0.978054
0.977482
0.977672
0.978632
0.979144
0.978424
0.976184
0.930636
0.930594
0.930548
0.930502
0.930455
0.930406
0.930353
0.930292
0.930209
0.930143
0.930135
0.93014
0.930133
0.930064
0.929967
0.9299
0.92983
0.929722
0.92956
0.9294
0.929264
0.929023
0.928711
0.928467
0.928271
0.928066
0.927806
0.927475
0.92712
0.926728
0.926202
0.925627
0.925159
0.924781
0.924443
0.92411
0.923755
0.923366
0.923039
0.922704
0.922262
0.92178
0.921427
0.921141
0.920897
0.920603
0.920212
0.919845
0.919407
0.918915
0.918409
0.918156
0.918265
0.918744
0.919776
0.921771
0.924359
0.928506
0.932894
0.938893
0.944766
0.950836
0.957471
0.961905
0.967321
0.969913
0.971687
0.972519
0.973548
0.97339
0.973911
0.974949
0.976079
0.977163
0.977762
0.977325
0.975987
0.974922
0.974564
0.974892
0.97609
0.977047
0.977069
0.976491
0.975327
0.974825
0.975285
0.976502
0.976796
0.976714
0.976631
0.976925
0.977757
0.978042
0.977851
0.977634
0.977923
0.978665
0.97881
0.9774
0.930577
0.930544
0.930504
0.930457
0.93041
0.930373
0.930349
0.930321
0.930276
0.930257
0.930284
0.930358
0.930385
0.930385
0.93037
0.930348
0.930315
0.930282
0.930182
0.930086
0.930063
0.930006
0.929877
0.929688
0.929491
0.929347
0.929219
0.929027
0.928772
0.928497
0.928186
0.927809
0.927409
0.927045
0.926752
0.926501
0.92623
0.925923
0.925554
0.925155
0.924735
0.924231
0.923456
0.922507
0.92154
0.920733
0.92018
0.919652
0.919116
0.91862
0.918133
0.917775
0.917332
0.917237
0.917289
0.917536
0.918131
0.919247
0.92073
0.923299
0.926603
0.932136
0.937967
0.94515
0.952192
0.95784
0.963303
0.966044
0.969118
0.970232
0.97254
0.974751
0.976829
0.977488
0.97768
0.977417
0.976861
0.976219
0.975465
0.975016
0.97496
0.975649
0.976566
0.976775
0.976543
0.975777
0.975557
0.975734
0.976259
0.976516
0.976614
0.976753
0.97722
0.977761
0.977992
0.977786
0.977854
0.978171
0.978667
0.978128
0.929
0.928997
0.928985
0.928979
0.928943
0.928885
0.928885
0.928884
0.928866
0.928863
0.928921
0.929059
0.92908
0.929078
0.929011
0.928909
0.92886
0.928826
0.928686
0.928601
0.928593
0.928571
0.928466
0.92819
0.927939
0.927818
0.927709
0.927417
0.927095
0.926905
0.926728
0.926477
0.926148
0.92582
0.925572
0.925411
0.92527
0.925093
0.92484
0.924596
0.924352
0.924086
0.923838
0.923458
0.922897
0.922266
0.921595
0.920947
0.920261
0.919511
0.918855
0.918184
0.917452
0.917242
0.917277
0.917479
0.917909
0.918385
0.918709
0.918975
0.919397
0.920883
0.923211
0.927643
0.932894
0.940362
0.947708
0.954768
0.962065
0.967022
0.971625
0.973832
0.976163
0.976326
0.975997
0.975699
0.975966
0.976474
0.976414
0.97579
0.974868
0.974824
0.975419
0.976394
0.976749
0.976627
0.97612
0.975724
0.975792
0.976146
0.976391
0.976537
0.976811
0.97737
0.977805
0.97788
0.977869
0.978082
0.978512
0.978499
0.926167
0.926206
0.926299
0.926338
0.926331
0.926328
0.926347
0.926344
0.926318
0.926302
0.926311
0.92641
0.926587
0.926626
0.926609
0.926559
0.926556
0.926574
0.926565
0.92656
0.92658
0.926576
0.926504
0.926315
0.926283
0.926269
0.926214
0.926066
0.925887
0.925688
0.925468
0.925259
0.925062
0.92486
0.924729
0.924702
0.924691
0.924632
0.924467
0.924392
0.924415
0.924442
0.924462
0.924419
0.9243
0.924039
0.923677
0.92326
0.922798
0.92213
0.921348
0.920698
0.919995
0.919132
0.918818
0.918848
0.918986
0.919249
0.919615
0.91984
0.92006
0.919943
0.919911
0.92022
0.921405
0.924535
0.929067
0.936136
0.943603
0.95169
0.958842
0.962966
0.968561
0.970273
0.972305
0.974065
0.976293
0.976885
0.976826
0.976334
0.975311
0.974712
0.974991
0.975715
0.976518
0.976612
0.976477
0.976151
0.975865
0.975922
0.976085
0.976293
0.976503
0.97691
0.977455
0.977786
0.97789
0.978048
0.978404
0.978543
0.923598
0.923607
0.923632
0.923654
0.923718
0.923853
0.923952
0.923956
0.923912
0.923862
0.923855
0.923874
0.923987
0.924179
0.924216
0.924211
0.924214
0.924248
0.924341
0.924395
0.924396
0.924353
0.924338
0.924349
0.924353
0.924377
0.924421
0.92442
0.924332
0.924035
0.923881
0.923872
0.923868
0.923807
0.923747
0.923751
0.923786
0.923783
0.923748
0.923728
0.923748
0.923791
0.923813
0.923852
0.923924
0.92406
0.924182
0.924248
0.924202
0.924044
0.923693
0.923193
0.922642
0.921862
0.921187
0.921028
0.920879
0.920784
0.920869
0.921079
0.921029
0.920808
0.92057
0.920283
0.920081
0.920284
0.920941
0.92328
0.926889
0.933477
0.940221
0.948489
0.956595
0.962838
0.970179
0.972643
0.975238
0.975541
0.974978
0.975062
0.975206
0.975363
0.975606
0.975868
0.975925
0.976084
0.976304
0.976357
0.976184
0.976031
0.975982
0.976008
0.976128
0.976389
0.97681
0.977345
0.977828
0.978074
0.978344
0.978469
0.920863
0.920864
0.920872
0.920875
0.92087
0.920871
0.920934
0.921112
0.921164
0.921139
0.92113
0.92115
0.921187
0.921315
0.921413
0.921439
0.921463
0.9215
0.921562
0.921611
0.921613
0.921608
0.921616
0.921655
0.921671
0.921686
0.921765
0.921812
0.921781
0.921746
0.921777
0.921914
0.922113
0.922284
0.922417
0.922478
0.922504
0.922573
0.922698
0.92278
0.922861
0.922917
0.922978
0.923121
0.923351
0.923648
0.923921
0.924068
0.924261
0.924695
0.924996
0.924978
0.92482
0.924511
0.924061
0.923774
0.923679
0.923628
0.923536
0.923539
0.923485
0.923188
0.922722
0.922076
0.921251
0.920862
0.920936
0.921033
0.921424
0.922862
0.925298
0.930358
0.936348
0.944864
0.953182
0.959512
0.966127
0.969019
0.971141
0.974282
0.975735
0.976063
0.975983
0.975672
0.975472
0.975666
0.97618
0.976558
0.976418
0.976102
0.975844
0.975951
0.976148
0.976329
0.976616
0.977115
0.977866
0.978067
0.978227
0.978439
0.920082
0.920036
0.920009
0.920003
0.920002
0.920002
0.920005
0.920027
0.920058
0.920074
0.920087
0.920096
0.920106
0.920137
0.920188
0.920228
0.920273
0.92032
0.920359
0.920388
0.92041
0.920456
0.920526
0.920587
0.920632
0.920694
0.920753
0.92073
0.920705
0.920716
0.920807
0.920914
0.920952
0.920971
0.920958
0.920893
0.920843
0.92084
0.920891
0.920985
0.921078
0.921144
0.921238
0.921429
0.921739
0.92212
0.922508
0.922986
0.923741
0.924555
0.925239
0.92561
0.925661
0.925613
0.925357
0.925061
0.925042
0.925081
0.925101
0.925226
0.925353
0.925237
0.924866
0.924166
0.923083
0.921896
0.921232
0.920826
0.920983
0.921306
0.92154
0.922216
0.923781
0.928173
0.934101
0.943441
0.952049
0.960912
0.968107
0.972756
0.974359
0.974682
0.97423
0.974327
0.975198
0.975909
0.976206
0.976177
0.976121
0.976034
0.976096
0.97615
0.976072
0.976053
0.976233
0.976768
0.977524
0.977842
0.978093
0.978363
0.919811
0.919735
0.919673
0.919653
0.919658
0.919668
0.91967
0.919669
0.919676
0.919689
0.9197
0.919716
0.919735
0.919759
0.919785
0.919812
0.919854
0.919893
0.919908
0.919927
0.919945
0.919999
0.920102
0.920147
0.920167
0.920205
0.920274
0.920374
0.920486
0.920617
0.920863
0.921211
0.921475
0.921654
0.921812
0.921945
0.922014
0.922036
0.922032
0.921994
0.921914
0.921724
0.92159
0.921582
0.921673
0.921887
0.922187
0.922593
0.923175
0.923912
0.92464
0.925151
0.925443
0.925512
0.925538
0.925497
0.925401
0.92522
0.925001
0.92497
0.92516
0.925827
0.926004
0.925895
0.925412
0.924318
0.923109
0.922282
0.92194
0.921853
0.921843
0.921539
0.921292
0.921638
0.923263
0.927435
0.933561
0.942546
0.951117
0.95893
0.965054
0.968256
0.971299
0.973405
0.975857
0.976144
0.975982
0.975656
0.975889
0.976349
0.976435
0.976211
0.975869
0.97586
0.976143
0.976653
0.977098
0.977604
0.977999
0.978319
0.921614
0.921522
0.921433
0.921342
0.921221
0.921099
0.921058
0.921055
0.921053
0.921031
0.920975
0.920952
0.920951
0.920937
0.920907
0.920897
0.920893
0.920886
0.920897
0.9209
0.920897
0.920942
0.920963
0.920926
0.920896
0.920933
0.920954
0.920955
0.92096
0.921032
0.921338
0.921778
0.922126
0.92246
0.922919
0.923342
0.923515
0.923573
0.923587
0.923531
0.923253
0.922776
0.922395
0.922186
0.922
0.921835
0.92184
0.922007
0.922377
0.922885
0.923429
0.924035
0.924525
0.92465
0.924669
0.924741
0.924742
0.924627
0.924257
0.924006
0.924073
0.924603
0.925435
0.925721
0.925691
0.925346
0.924681
0.924072
0.923505
0.923248
0.922997
0.922498
0.921813
0.921839
0.921836
0.922204
0.92377
0.927226
0.933538
0.941439
0.951431
0.959948
0.968815
0.971991
0.974382
0.974711
0.974125
0.974988
0.975993
0.976473
0.976218
0.975826
0.975776
0.975998
0.976272
0.976443
0.976709
0.977219
0.977716
0.978144
0.923795
0.923754
0.92372
0.923687
0.923646
0.923591
0.923525
0.923445
0.923326
0.923156
0.92304
0.923027
0.923032
0.923015
0.92294
0.922859
0.922792
0.922748
0.922702
0.922599
0.922531
0.922476
0.922309
0.922114
0.922071
0.922022
0.921841
0.92173
0.921721
0.92175
0.921859
0.922127
0.922589
0.923125
0.923671
0.924221
0.924649
0.924925
0.925011
0.924959
0.924664
0.924189
0.923747
0.923329
0.922863
0.922424
0.922162
0.92216
0.922261
0.922378
0.922541
0.922783
0.923086
0.923381
0.923734
0.923995
0.924029
0.923961
0.923531
0.922851
0.922755
0.923096
0.923903
0.924569
0.924799
0.924977
0.925
0.924913
0.924908
0.925023
0.924993
0.924756
0.924057
0.923244
0.922476
0.922451
0.922491
0.922779
0.923895
0.926998
0.932767
0.942058
0.950949
0.959977
0.965706
0.969753
0.971795
0.975342
0.976197
0.976029
0.975652
0.975598
0.97595
0.976404
0.97637
0.976306
0.97645
0.976983
0.977407
0.977918
0.925819
0.925854
0.92591
0.925948
0.925968
0.925985
0.925996
0.926003
0.926003
0.925948
0.925727
0.925534
0.925517
0.925526
0.925513
0.925391
0.925255
0.925181
0.924956
0.924753
0.924744
0.924714
0.924531
0.924152
0.92399
0.923932
0.923793
0.923591
0.923532
0.923495
0.923456
0.923525
0.923834
0.924245
0.924662
0.925095
0.92549
0.92582
0.925956
0.925904
0.92567
0.925343
0.925021
0.924555
0.923884
0.923438
0.923284
0.923158
0.922962
0.922619
0.922291
0.922171
0.922227
0.922474
0.922905
0.923231
0.923268
0.92315
0.922757
0.922219
0.921933
0.92199
0.922388
0.923046
0.923632
0.924132
0.924615
0.924911
0.925102
0.925342
0.925696
0.925727
0.925558
0.924987
0.924189
0.923529
0.9229
0.922704
0.92253
0.922664
0.923501
0.926909
0.933126
0.943288
0.952865
0.963132
0.969845
0.973454
0.974625
0.973838
0.974295
0.97554
0.976234
0.97643
0.97621
0.976157
0.976417
0.976845
0.977045
0.977462
0.926772
0.92678
0.92679
0.92682
0.926917
0.92697
0.926986
0.927011
0.927037
0.92705
0.927054
0.927059
0.927062
0.927022
0.926915
0.926865
0.926848
0.926772
0.926573
0.926344
0.926174
0.926021
0.925812
0.925483
0.925167
0.924941
0.924611
0.924301
0.924244
0.924203
0.924131
0.924114
0.924198
0.924462
0.924845
0.925288
0.925756
0.926139
0.926367
0.926424
0.926385
0.926244
0.925918
0.925259
0.924885
0.924841
0.924796
0.924678
0.924378
0.923733
0.922971
0.92245
0.922223
0.922227
0.922405
0.922753
0.922844
0.922707
0.922453
0.922296
0.922261
0.922339
0.922557
0.922856
0.923165
0.923431
0.923836
0.924353
0.924724
0.924837
0.924853
0.924886
0.92497
0.925139
0.925116
0.924889
0.924468
0.923868
0.923271
0.922814
0.92304
0.923147
0.924334
0.927802
0.935296
0.945034
0.955337
0.962659
0.967893
0.970477
0.974387
0.975783
0.976037
0.975937
0.975884
0.976277
0.97679
0.976826
0.976774
0.97703
0.926534
0.926535
0.926536
0.926551
0.926572
0.9266
0.926656
0.926732
0.926792
0.926825
0.926833
0.926817
0.926825
0.926846
0.926858
0.926818
0.926618
0.926157
0.925923
0.925782
0.925689
0.925609
0.925301
0.924725
0.924461
0.92435
0.924098
0.923751
0.923675
0.923755
0.92378
0.923727
0.923772
0.923994
0.924304
0.924616
0.924745
0.924732
0.924683
0.924682
0.924719
0.924694
0.924691
0.92478
0.924988
0.925279
0.925318
0.925325
0.925275
0.924951
0.924171
0.923342
0.923032
0.923127
0.923535
0.923877
0.923875
0.923636
0.923275
0.923242
0.923411
0.923551
0.923603
0.923511
0.923312
0.923146
0.923177
0.923455
0.92379
0.923874
0.923796
0.92378
0.923939
0.924237
0.924557
0.924696
0.924766
0.924726
0.924554
0.924044
0.923272
0.923068
0.923119
0.92343
0.925219
0.92941
0.938019
0.947355
0.958333
0.967224
0.972576
0.974387
0.974142
0.974313
0.975616
0.976596
0.97702
0.976793
0.976639
0.976925
0.926334
0.926341
0.926346
0.926341
0.926336
0.926344
0.926405
0.926529
0.926657
0.92675
0.926774
0.926776
0.926748
0.926631
0.926627
0.926635
0.926441
0.92608
0.925616
0.925157
0.925099
0.925076
0.924851
0.924266
0.9239
0.923745
0.923507
0.923272
0.923224
0.923345
0.923596
0.923751
0.923941
0.924216
0.924275
0.924255
0.924078
0.923959
0.923871
0.92364
0.923562
0.923563
0.92364
0.923851
0.924291
0.92502
0.925524
0.925722
0.925733
0.925576
0.925106
0.924424
0.924161
0.924334
0.924844
0.925087
0.925015
0.92472
0.924549
0.924596
0.924792
0.924877
0.924863
0.924662
0.924111
0.92349
0.923028
0.922992
0.923114
0.923233
0.923212
0.923141
0.923145
0.923331
0.923743
0.924159
0.924352
0.924345
0.924344
0.924426
0.924338
0.924091
0.923726
0.923611
0.923652
0.924043
0.926185
0.931573
0.940358
0.950737
0.960179
0.966355
0.969846
0.972706
0.976332
0.976792
0.976654
0.976423
0.976716
0.977097
0.924245
0.924428
0.924455
0.924414
0.924394
0.924465
0.924556
0.924565
0.924498
0.924475
0.924497
0.924549
0.924564
0.924516
0.924359
0.924265
0.924268
0.924268
0.924083
0.923879
0.923847
0.923764
0.923484
0.923166
0.923069
0.923008
0.922941
0.922871
0.922885
0.923132
0.923942
0.924934
0.925121
0.925148
0.925147
0.924981
0.924793
0.924716
0.924483
0.923848
0.923588
0.923559
0.923602
0.923845
0.924621
0.925804
0.926159
0.926152
0.925994
0.925545
0.924767
0.924465
0.924527
0.924834
0.925352
0.925501
0.92549
0.925242
0.924635
0.924412
0.924439
0.924616
0.92498
0.925183
0.92506
0.924522
0.923805
0.923514
0.923544
0.923681
0.923728
0.923615
0.92336
0.92323
0.923292
0.923504
0.923666
0.923667
0.923707
0.923822
0.924009
0.924265
0.92433
0.924237
0.923888
0.923844
0.92395
0.924744
0.9276
0.934677
0.944065
0.954337
0.965779
0.970852
0.974972
0.975398
0.974916
0.975614
0.976528
0.976969
0.92469
0.925108
0.925185
0.925187
0.925264
0.925413
0.925408
0.925243
0.92498
0.924379
0.923753
0.923532
0.923445
0.923303
0.92296
0.92274
0.922652
0.922621
0.922599
0.922431
0.922037
0.921642
0.921521
0.921531
0.921679
0.92234
0.923112
0.923219
0.923254
0.923541
0.924485
0.925753
0.926258
0.926293
0.926212
0.925937
0.925842
0.92592
0.925913
0.925462
0.924901
0.924802
0.924851
0.925112
0.925965
0.926944
0.927151
0.927095
0.926579
0.925173
0.924299
0.924238
0.924279
0.92465
0.925578
0.925889
0.925941
0.9258
0.924946
0.923881
0.923534
0.923552
0.923995
0.925082
0.925669
0.92551
0.924857
0.924176
0.924107
0.924313
0.924631
0.924596
0.924258
0.923611
0.923196
0.923186
0.923246
0.923284
0.923312
0.923355
0.923508
0.923759
0.923905
0.923934
0.92392
0.923936
0.924057
0.924565
0.925025
0.926579
0.930286
0.938275
0.947779
0.957512
0.965616
0.970013
0.972873
0.976309
0.976622
0.976495
0.925603
0.925608
0.925609
0.925602
0.92553
0.925444
0.925334
0.92517
0.925005
0.924802
0.924346
0.923742
0.923502
0.923419
0.923325
0.923176
0.922915
0.922678
0.922508
0.922111
0.921352
0.921092
0.921052
0.921113
0.921323
0.921977
0.922854
0.923052
0.923035
0.923203
0.923983
0.924894
0.925348
0.925556
0.92547
0.925187
0.925075
0.925143
0.925328
0.925205
0.924686
0.924392
0.924364
0.924554
0.925402
0.926098
0.926284
0.926112
0.92514
0.923578
0.923126
0.923157
0.923252
0.923629
0.924857
0.926251
0.926522
0.92649
0.925856
0.924425
0.923251
0.923078
0.923523
0.925015
0.925984
0.925956
0.925543
0.924977
0.924794
0.924888
0.925149
0.925268
0.925148
0.924663
0.923864
0.923392
0.923276
0.923265
0.923259
0.923243
0.923273
0.923351
0.923473
0.923565
0.92369
0.923909
0.924212
0.924611
0.925044
0.925349
0.926018
0.92817
0.933067
0.942486
0.952166
0.963913
0.971162
0.975259
0.975365
0.975254
0.920199
0.920311
0.920302
0.92027
0.920216
0.920144
0.92012
0.920134
0.920227
0.920341
0.920351
0.920332
0.920334
0.920501
0.920658
0.920652
0.920644
0.920624
0.9205
0.919997
0.919589
0.919509
0.919609
0.919669
0.919335
0.91878
0.918819
0.91884
0.919056
0.919476
0.919577
0.919242
0.918512
0.918367
0.918324
0.91836
0.918751
0.920237
0.922524
0.923671
0.923557
0.922972
0.922781
0.9226
0.92237
0.922609
0.923612
0.924135
0.924185
0.923947
0.923123
0.921952
0.921335
0.921228
0.921873
0.92404
0.925999
0.926422
0.926358
0.925797
0.92458
0.923454
0.923494
0.924317
0.92544
0.925709
0.925523
0.925435
0.925373
0.925293
0.925353
0.925509
0.925525
0.925335
0.924681
0.924045
0.923763
0.923653
0.923612
0.923538
0.923389
0.923411
0.923492
0.92366
0.923825
0.924029
0.924317
0.924661
0.92495
0.925089
0.925176
0.925417
0.926635
0.929786
0.937053
0.946964
0.957331
0.965292
0.969566
0.973839
0.908369
0.908317
0.9083
0.908311
0.908345
0.90843
0.908596
0.909024
0.910035
0.910433
0.91045
0.910435
0.91058
0.911677
0.912731
0.912947
0.913441
0.914491
0.914781
0.914738
0.91454
0.913826
0.913315
0.913252
0.913589
0.914448
0.9145
0.914636
0.9152
0.915464
0.915361
0.914234
0.911169
0.908861
0.90863
0.909097
0.910873
0.913869
0.916168
0.917295
0.917444
0.917068
0.916708
0.916599
0.916863
0.917692
0.919021
0.921141
0.923307
0.923648
0.923316
0.921881
0.919847
0.919017
0.919209
0.920532
0.922924
0.925203
0.925906
0.925562
0.92459
0.924059
0.923878
0.924029
0.92416
0.92436
0.924802
0.925161
0.925192
0.925031
0.924889
0.924966
0.925112
0.925067
0.924721
0.924202
0.924052
0.92409
0.924251
0.924374
0.924299
0.924173
0.924063
0.924018
0.924037
0.924108
0.924269
0.924598
0.924913
0.924948
0.924908
0.924854
0.924952
0.925612
0.927841
0.932886
0.94193
0.95201
0.96317
0.972806
0.908943
0.90894
0.908931
0.908952
0.909079
0.909288
0.909566
0.909985
0.910357
0.910398
0.910389
0.910375
0.910481
0.911447
0.912551
0.913842
0.915313
0.915495
0.915417
0.915501
0.915387
0.914458
0.913936
0.913993
0.915103
0.915639
0.915796
0.916843
0.919218
0.919997
0.919712
0.918065
0.914363
0.910393
0.908796
0.908831
0.909546
0.911025
0.912482
0.913626
0.914383
0.914315
0.913953
0.913926
0.914416
0.914901
0.915274
0.916243
0.918559
0.920665
0.920926
0.920379
0.918586
0.916201
0.915627
0.916014
0.917391
0.918975
0.920084
0.921204
0.922576
0.923325
0.923521
0.923228
0.922544
0.922379
0.922516
0.923131
0.923803
0.924169
0.924283
0.924313
0.924328
0.924411
0.924404
0.924407
0.924527
0.924728
0.924896
0.924989
0.924984
0.924912
0.924805
0.924644
0.924442
0.924368
0.924425
0.924633
0.924867
0.924933
0.924873
0.924751
0.924689
0.92479
0.925186
0.92663
0.929956
0.937239
0.946329
0.960804
0.922204
0.920217
0.919151
0.919368
0.92052
0.921059
0.921026
0.920525
0.917969
0.915567
0.914975
0.914964
0.914887
0.9148
0.914818
0.915119
0.916864
0.919318
0.919762
0.919353
0.919198
0.919303
0.919578
0.921137
0.924242
0.925018
0.924976
0.925124
0.926148
0.926894
0.926493
0.924638
0.92116
0.918773
0.918254
0.917951
0.917263
0.916125
0.91516
0.915036
0.915077
0.914697
0.913946
0.913953
0.914288
0.914058
0.913361
0.913256
0.913484
0.91494
0.916758
0.917306
0.91729
0.916865
0.915195
0.913863
0.913626
0.913616
0.913708
0.914181
0.915342
0.917148
0.918785
0.919275
0.919331
0.919619
0.920137
0.920618
0.92124
0.922572
0.923782
0.923862
0.923733
0.923747
0.924091
0.924426
0.924608
0.924798
0.924978
0.925056
0.925042
0.925022
0.925094
0.925123
0.925085
0.925019
0.925006
0.925094
0.925147
0.925057
0.924828
0.924582
0.924416
0.924426
0.924538
0.924799
0.925661
0.928104
0.932885
0.947089
0.95331
0.952585
0.951513
0.950648
0.948737
0.946458
0.946225
0.944281
0.938456
0.936713
0.936127
0.935268
0.933752
0.930006
0.925718
0.924968
0.925338
0.926605
0.927492
0.928458
0.928891
0.928996
0.929783
0.93228
0.932727
0.931122
0.930113
0.928306
0.926474
0.926763
0.925317
0.92257
0.921715
0.921654
0.92283
0.923676
0.923792
0.92385
0.923459
0.921867
0.920752
0.920955
0.921022
0.920671
0.919881
0.917958
0.913866
0.911476
0.911317
0.9123
0.915296
0.917453
0.918384
0.918953
0.918914
0.918224
0.917167
0.915927
0.914908
0.914868
0.914927
0.914892
0.915208
0.916828
0.918534
0.918798
0.918449
0.917714
0.917699
0.918299
0.919886
0.921368
0.921728
0.921754
0.922026
0.922855
0.923857
0.924244
0.924507
0.924812
0.924861
0.924801
0.92483
0.924928
0.92489
0.924753
0.924794
0.925113
0.925217
0.925144
0.924927
0.924686
0.924496
0.924329
0.924335
0.924424
0.924656
0.925263
0.926674
0.93436
0.986988
0.989946
0.991244
0.991125
0.990555
0.98974
0.986549
0.981783
0.980894
0.982292
0.983272
0.982623
0.982913
0.983256
0.981763
0.980214
0.979215
0.978176
0.978134
0.978921
0.97947
0.97949
0.980408
0.981369
0.98112
0.979436
0.974791
0.967639
0.961528
0.957067
0.952219
0.946041
0.941232
0.94003
0.940082
0.939808
0.939356
0.941317
0.944371
0.942989
0.942035
0.943492
0.945095
0.945037
0.943799
0.939953
0.933955
0.928809
0.925605
0.924959
0.925055
0.923711
0.921721
0.921599
0.921537
0.921465
0.922621
0.924758
0.924772
0.922187
0.917301
0.915518
0.915748
0.916806
0.918027
0.918859
0.91907
0.918491
0.917472
0.917208
0.917295
0.917829
0.918475
0.918669
0.918822
0.91933
0.920334
0.921593
0.9226
0.923723
0.924496
0.924478
0.924457
0.92458
0.924656
0.924802
0.925228
0.925539
0.925514
0.925356
0.925136
0.924936
0.924733
0.924531
0.924472
0.924492
0.924601
0.92482
0.92505
0.927748
1.05462
1.054
1.05329
1.05213
1.05178
1.05186
1.051
1.04819
1.04558
1.04453
1.04505
1.04575
1.04381
1.0406
1.03918
1.03776
1.03556
1.02947
1.02286
1.02199
1.02329
1.02391
1.02309
1.01893
1.01679
1.0173
1.01922
1.01904
1.01509
1.00737
1.00556
1.00588
1.00531
1.00189
0.997608
0.997096
0.997159
0.995541
0.990404
0.984447
0.977427
0.970766
0.967541
0.964784
0.957748
0.953588
0.95479
0.955741
0.955765
0.956098
0.956132
0.954967
0.95048
0.941143
0.930225
0.925903
0.92647
0.929882
0.932666
0.932075
0.930434
0.927388
0.922925
0.920062
0.919837
0.920071
0.920891
0.921494
0.920876
0.919142
0.918398
0.918451
0.918683
0.918692
0.918475
0.917973
0.917425
0.917558
0.91824
0.919562
0.92131
0.922274
0.922615
0.923086
0.923986
0.925056
0.925711
0.925973
0.925893
0.925722
0.925495
0.925209
0.924943
0.924697
0.92466
0.924727
0.924917
0.925113
0.925109
0.9254
1.14112
1.13971
1.13182
1.12685
1.1271
1.12765
1.1257
1.12475
1.12484
1.12477
1.12543
1.12827
1.12937
1.12703
1.12413
1.12394
1.12376
1.12181
1.1142
1.10902
1.10907
1.10987
1.10884
1.10234
1.09516
1.09341
1.09227
1.08951
1.08291
1.07579
1.07283
1.0712
1.06617
1.0613
1.06044
1.0596
1.05458
1.04954
1.04962
1.05153
1.0506
1.04459
1.03786
1.03363
1.02792
1.01995
1.01384
1.0081
0.997674
0.988469
0.98723
0.990053
0.992936
0.989846
0.97754
0.970746
0.968138
0.961629
0.951647
0.949371
0.950919
0.951075
0.948834
0.943278
0.934823
0.929481
0.929305
0.930959
0.931097
0.928513
0.923269
0.920615
0.920439
0.92029
0.919863
0.918801
0.917546
0.917236
0.917368
0.917859
0.918721
0.919698
0.920492
0.921206
0.922046
0.922737
0.923262
0.924168
0.925262
0.925361
0.925218
0.925143
0.92514
0.925045
0.925055
0.925217
0.925307
0.925273
0.925052
0.924996
1.23074
1.23132
1.23212
1.23222
1.22987
1.22361
1.22041
1.21844
1.21634
1.21644
1.2178
1.2173
1.21199
1.20599
1.20561
1.20554
1.20544
1.20436
1.19708
1.19084
1.18879
1.18619
1.18477
1.1832
1.18105
1.18001
1.17881
1.17691
1.17203
1.16695
1.16442
1.16209
1.15772
1.15167
1.14721
1.14417
1.13938
1.13448
1.12797
1.12057
1.11595
1.11122
1.10234
1.09843
1.0968
1.09292
1.08748
1.08187
1.07398
1.06624
1.06068
1.05655
1.05088
1.03641
1.02212
1.02111
1.02191
1.01723
1.00742
1.00212
0.991642
0.977949
0.975848
0.973937
0.96949
0.963025
0.952203
0.945514
0.945125
0.944235
0.938811
0.932122
0.930167
0.9285
0.92763
0.926352
0.923675
0.920741
0.919183
0.919136
0.919532
0.920889
0.922674
0.923672
0.923484
0.922403
0.921465
0.921475
0.922127
0.923123
0.923806
0.924489
0.924809
0.924912
0.925023
0.925217
0.925395
0.925393
0.925202
0.924943
1.33112
1.32526
1.32337
1.32394
1.32478
1.32409
1.32098
1.32008
1.31941
1.31594
1.31022
1.3093
1.30945
1.30907
1.30539