/*--------------------------------*- C++ -*----------------------------------*\
  =========                 |
  \\      /  F ield         | OpenFOAM: The Open Source CFD Toolbox
   \\    /   O peration     | Website:  https://openfoam.org
    \\  /    A nd           | Version:  7
     \\/     M anipulation  |
\*---------------------------------------------------------------------------*/
FoamFile
{
    version     2.0;
    format      ascii;
    class       volScalarField;
    location    "1";
    object      p;
}
// * * * * * * * * * * * * * * * * * * * * * * * * * * * * * * * * * * * * * //

dimensions      [1 -1 -2 0 0 0 0];

internalField   nonuniform List<scalar> 
90000
(
0.654675
0.664306
0.674419
0.684518
0.694371
0.703304
0.711982
0.720265
0.728509
0.735945
0.74384
0.75145
0.759369
0.768434
0.779109
0.791696
0.805193
0.81971
0.834373
0.848729
0.863802
0.87717
0.891254
0.905077
0.917119
0.929432
0.941825
0.952034
0.961719
0.972305
0.979254
0.985838
0.994125
0.998278
1.0018
1.00598
1.01081
1.0143
1.02028
1.0209
1.01934
1.01874
1.02
1.02343
1.03136
1.04567
1.06052
1.06926
1.07178
1.07086
1.07388
1.07644
1.07667
1.07635
1.07349
1.07173
1.07184
1.07369
1.07678
1.07983
1.08377
1.08868
1.09326
1.09436
1.09393
1.09232
1.08987
1.08962
1.09073
1.09259
1.09343
1.09521
1.09394
1.09298
1.09216
1.09174
1.09178
1.09131
1.09029
1.08803
1.08459
1.08227
1.08061
1.07883
1.07473
1.06806
1.05901
1.04691
1.0296
1.01237
1.00464
1.00356
1.00365
1.00374
1.00373
1.00362
1.00327
1.0021
0.998595
0.98514
0.646994
0.647533
0.648541
0.65002
0.652215
0.654866
0.658038
0.661706
0.666044
0.670731
0.676001
0.681763
0.687951
0.694458
0.701389
0.709108
0.717393
0.726806
0.736941
0.74779
0.760116
0.772385
0.785611
0.800326
0.814055
0.829329
0.844634
0.859781
0.875921
0.890359
0.905648
0.920424
0.934917
0.947423
0.95913
0.9707
0.983621
0.990172
0.998264
1.00891
1.02262
1.03605
1.04504
1.05259
1.05747
1.06075
1.06279
1.06381
1.06338
1.06158
1.06226
1.06484
1.06775
1.07063
1.07405
1.07779
1.08127
1.08343
1.08318
1.08333
1.08399
1.08428
1.08702
1.08928
1.09184
1.09452
1.09362
1.09324
1.09277
1.09174
1.0899
1.09035
1.09419
1.09577
1.09419
1.09218
1.09115
1.09051
1.08939
1.08825
1.08655
1.08368
1.08018
1.07774
1.07439
1.06863
1.05968
1.04657
1.0296
1.01292
1.00481
1.00314
1.00316
1.0033
1.00341
1.00333
1.003
1.00187
0.998455
0.985152
0.646601
0.646604
0.646605
0.646604
0.646621
0.646667
0.646746
0.646867
0.64704
0.647285
0.647626
0.6481
0.64872
0.649646
0.65085
0.652351
0.654187
0.656453
0.659241
0.66267
0.666755
0.671852
0.677386
0.684662
0.69298
0.702682
0.713932
0.727101
0.741984
0.758305
0.776548
0.796888
0.81811
0.840692
0.865604
0.88787
0.912789
0.936032
0.958813
0.981911
1.00386
1.01925
1.0301
1.04175
1.05207
1.06047
1.06488
1.06665
1.06354
1.06117
1.06109
1.06381
1.06883
1.07373
1.07819
1.08102
1.08341
1.08454
1.08416
1.08247
1.08015
1.07906
1.0811
1.08554
1.09038
1.09437
1.09496
1.09486
1.09283
1.09053
1.08942
1.0902
1.093
1.09656
1.09571
1.09323
1.09075
1.08893
1.08811
1.08801
1.08716
1.0842
1.07962
1.07644
1.07382
1.06872
1.05943
1.04642
1.02997
1.01353
1.00464
1.00258
1.00266
1.00286
1.00317
1.0033
1.00315
1.00234
0.999334
0.986268
0.646709
0.646706
0.646697
0.646685
0.646675
0.646663
0.646657
0.646659
0.646673
0.646705
0.646768
0.646862
0.647029
0.647066
0.647086
0.647128
0.647188
0.647315
0.647498
0.647778
0.648133
0.648574
0.649127
0.649913
0.651111
0.652789
0.655
0.658206
0.66212
0.667456
0.6743
0.683321
0.694493
0.709371
0.726029
0.747162
0.770579
0.799228
0.829498
0.862905
0.899296
0.932328
0.960652
0.988945
1.01118
1.0288
1.04294
1.0539
1.05673
1.06095
1.06715
1.07105
1.0754
1.07979
1.08193
1.08134
1.08232
1.08287
1.08237
1.08122
1.08048
1.08181
1.08449
1.08693
1.08802
1.09045
1.09278
1.09402
1.09414
1.09386
1.09271
1.0914
1.09045
1.09182
1.09444
1.09472
1.09319
1.09065
1.08832
1.0862
1.08546
1.08437
1.0812
1.07667
1.0731
1.06839
1.05918
1.04537
1.02922
1.01386
1.00537
1.00313
1.00291
1.00315
1.00357
1.00369
1.00346
1.00246
0.999524
0.986833
0.646697
0.646699
0.646704
0.64671
0.646715
0.646719
0.64672
0.646721
0.646722
0.646729
0.646745
0.646774
0.646819
0.646865
0.646898
0.646923
0.64696
0.647044
0.647168
0.647328
0.647534
0.647831
0.648168
0.648603
0.648906
0.649278
0.649739
0.65038
0.651178
0.652147
0.653414
0.655099
0.657262
0.660571
0.66518
0.671599
0.679392
0.691124
0.70615
0.727307
0.753336
0.785396
0.823136
0.862239
0.902669
0.944868
0.977124
1.01029
1.03551
1.05074
1.05868
1.06132
1.06542
1.06955
1.07348
1.07553
1.07578
1.07705
1.08045
1.08483
1.08756
1.08833
1.08848
1.08749
1.08442
1.0842
1.08578
1.0879
1.0901
1.09346
1.09602
1.09585
1.09246
1.09052
1.09249
1.09372
1.09351
1.09233
1.08977
1.08621
1.08343
1.08144
1.07933
1.07623
1.07258
1.06783
1.05972
1.04578
1.02845
1.01291
1.00477
1.00307
1.00269
1.00288
1.00317
1.00325
1.003
1.00202
0.999367
0.987289
0.647026
0.647025
0.647026
0.647031
0.647043
0.647055
0.647062
0.647062
0.647059
0.647058
0.647074
0.647098
0.647128
0.647155
0.647183
0.647213
0.647225
0.647276
0.647372
0.647499
0.647666
0.647901
0.648164
0.648434
0.648704
0.64909
0.649624
0.650309
0.651057
0.651882
0.652921
0.654163
0.655459
0.657235
0.659463
0.662238
0.66537
0.669205
0.674398
0.681202
0.69003
0.701564
0.716083
0.736007
0.762845
0.792055
0.828425
0.867598
0.912393
0.952094
0.986508
1.00872
1.03021
1.04023
1.05341
1.05984
1.06683
1.07516
1.08492
1.09334
1.09335
1.09245
1.09019
1.0876
1.08471
1.08201
1.08265
1.08527
1.08873
1.09257
1.09463
1.09571
1.09459
1.09334
1.09424
1.09428
1.09384
1.09262
1.09025
1.08672
1.08307
1.08025
1.07825
1.07633
1.07277
1.06763
1.05929
1.04658
1.02907
1.01253
1.00422
1.00289
1.00286
1.00323
1.00356
1.00375
1.00361
1.00284
1.0002
0.988013
0.64671
0.646711
0.646708
0.64671
0.646717
0.646732
0.646759
0.646785
0.646803
0.646825
0.646845
0.646859
0.646895
0.646918
0.646926
0.646938
0.646958
0.647045
0.647153
0.647255
0.647389
0.647594
0.647818
0.648079
0.648327
0.648731
0.649309
0.649968
0.650621
0.651377
0.652313
0.653349
0.654612
0.656501
0.658658
0.661
0.663787
0.667478
0.672448
0.677054
0.682774
0.689484
0.697033
0.706144
0.715829
0.723279
0.733114
0.746444
0.769893
0.802111
0.841644
0.888848
0.931365
0.966745
1.00295
1.03081
1.05816
1.07046
1.07979
1.08915
1.08887
1.08414
1.07749
1.07923
1.08243
1.0855
1.08904
1.09072
1.09031
1.09055
1.09013
1.09077
1.092
1.09504
1.0958
1.09522
1.09424
1.09236
1.08992
1.08635
1.08259
1.07983
1.07823
1.07623
1.07295
1.06649
1.05787
1.04613
1.02984
1.01309
1.00459
1.00343
1.00359
1.00411
1.00432
1.0043
1.00387
1.0026
0.999825
0.98808
0.646281
0.646288
0.646291
0.646294
0.646305
0.646328
0.646354
0.646381
0.646408
0.646431
0.646445
0.646453
0.646487
0.646511
0.646526
0.646546
0.646583
0.64667
0.64678
0.64691
0.647066
0.647294
0.647519
0.647776
0.648006
0.648368
0.648894
0.649524
0.650125
0.65086
0.651806
0.652816
0.654001
0.655799
0.657847
0.660134
0.662933
0.666749
0.671726
0.676169
0.68162
0.688076
0.694548
0.703552
0.71115
0.714485
0.717356
0.72098
0.725424
0.730796
0.739603
0.757422
0.782746
0.820521
0.85708
0.901133
0.946131
0.986206
1.01455
1.04849
1.05352
1.06074
1.06948
1.0814
1.09092
1.09433
1.09621
1.09546
1.09223
1.08794
1.08728
1.08848
1.09285
1.0962
1.09563
1.09435
1.09282
1.09136
1.08971
1.08696
1.08396
1.08183
1.07972
1.07644
1.07143
1.06531
1.05753
1.04595
1.02977
1.0136
1.00516
1.00381
1.00391
1.0042
1.00425
1.00416
1.00367
1.00224
0.999306
0.987657
0.646153
0.646155
0.646156
0.64616
0.646171
0.64619
0.646216
0.646241
0.646265
0.646295
0.646328
0.646377
0.646434
0.646437
0.646455
0.64652
0.646599
0.646681
0.646782
0.646926
0.647098
0.647364
0.647603
0.647816
0.647977
0.648248
0.648674
0.649233
0.649811
0.650548
0.651495
0.652619
0.653796
0.655497
0.657502
0.65967
0.662373
0.666301
0.671397
0.675512
0.680349
0.68705
0.693488
0.702108
0.709949
0.713536
0.716685
0.720647
0.722721
0.722806
0.722632
0.723845
0.72811
0.736252
0.747052
0.767209
0.795626
0.840541
0.890684
0.947719
0.99339
1.0385
1.06406
1.078
1.08673
1.09043
1.08912
1.08261
1.08317
1.08692
1.09075
1.09381
1.09578
1.09533
1.09248
1.09063
1.09089
1.09063
1.0899
1.08782
1.08565
1.08362
1.08071
1.07555
1.07027
1.0651
1.05791
1.04631
1.02943
1.01336
1.00537
1.0039
1.00397
1.0042
1.0042
1.00403
1.00341
1.00184
0.99884
0.98724
0.646219
0.646221
0.646228
0.646242
0.646255
0.646271
0.646297
0.646332
0.646371
0.646414
0.646452
0.64648
0.646507
0.646543
0.646614
0.646693
0.646739
0.646778
0.646832
0.646936
0.647067
0.647305
0.64751
0.647711
0.647907
0.648203
0.648585
0.649071
0.649648
0.650393
0.651322
0.652603
0.653946
0.655388
0.657069
0.659313
0.662059
0.665862
0.670743
0.674895
0.679073
0.685632
0.693007
0.701398
0.709341
0.712823
0.715815
0.720001
0.722657
0.722872
0.722405
0.722448
0.724041
0.725508
0.726412
0.728497
0.734005
0.744925
0.766854
0.796315
0.847119
0.900621
0.95297
0.998218
1.02808
1.04551
1.06388
1.07178
1.08707
1.09633
1.10139
1.10209
1.09748
1.09057
1.08798
1.08912
1.09098
1.09126
1.09001
1.08784
1.08593
1.0839
1.08008
1.07441
1.06968
1.06505
1.05841
1.04669
1.02903
1.01323
1.00542
1.00389
1.00394
1.00402
1.00401
1.00385
1.0033
1.00177
0.998774
0.987187
0.64607
0.646075
0.646091
0.646095
0.646093
0.646094
0.646114
0.64616
0.646178
0.646182
0.646204
0.64624
0.646273
0.64632
0.646368
0.64644
0.646497
0.646544
0.64658
0.646655
0.646777
0.646988
0.647174
0.647392
0.647685
0.648054
0.648435
0.648905
0.649534
0.650321
0.65116
0.652285
0.653612
0.655086
0.656511
0.65863
0.661336
0.664822
0.669155
0.673712
0.678281
0.684089
0.691729
0.699966
0.70848
0.713092
0.715834
0.719285
0.722047
0.722623
0.722446
0.722375
0.7236
0.725292
0.725962
0.727043
0.728796
0.730178
0.732397
0.737336
0.750388
0.771094
0.810126
0.857034
0.91641
0.967713
1.0215
1.05828
1.08259
1.0896
1.09624
1.09262
1.08406
1.08355
1.08735
1.09285
1.09346
1.09213
1.08821
1.08515
1.0832
1.08084
1.07766
1.074
1.06976
1.06524
1.05807
1.04535
1.02851
1.01331
1.00539
1.00369
1.00357
1.00366
1.00387
1.0038
1.00348
1.0021
0.999186
0.987622
0.6458
0.645804
0.645814
0.645816
0.645813
0.64581
0.645826
0.64588
0.645894
0.645885
0.645888
0.645923
0.64596
0.645998
0.646004
0.646016
0.646082
0.646168
0.646228
0.646297
0.646422
0.646593
0.646774
0.646978
0.647282
0.64769
0.648135
0.648568
0.64921
0.650025
0.650825
0.651712
0.653033
0.654538
0.655944
0.657818
0.660591
0.66384
0.667546
0.672097
0.677151
0.682574
0.689409
0.697623
0.705588
0.711287
0.715345
0.719083
0.721756
0.722467
0.722578
0.722591
0.723607
0.725752
0.72652
0.72736
0.728865
0.729977
0.730482
0.731362
0.733147
0.736136
0.742018
0.754766
0.779301
0.823684
0.873057
0.93195
0.989869
1.02015
1.05356
1.06577
1.0783
1.08833
1.098
1.09811
1.09628
1.09026
1.08625
1.08235
1.07903
1.07699
1.07587
1.07421
1.07094
1.06529
1.05594
1.04367
1.02834
1.01331
1.00518
1.00323
1.00322
1.00345
1.00376
1.00394
1.00392
1.00292
1.0004
0.988791
0.645468
0.645465
0.645464
0.645459
0.645446
0.645443
0.645459
0.64552
0.645542
0.645537
0.645548
0.645624
0.645652
0.645664
0.645686
0.645722
0.645849
0.645965
0.646018
0.646077
0.646205
0.646371
0.646556
0.646755
0.647025
0.647382
0.647811
0.648268
0.648825
0.649615
0.65049
0.651329
0.652493
0.653966
0.655508
0.657232
0.659712
0.662719
0.666174
0.670411
0.675481
0.680922
0.687224
0.694852
0.702602
0.709406
0.715107
0.719646
0.721934
0.722429
0.722627
0.722891
0.724013
0.726221
0.727422
0.72853
0.72972
0.730222
0.73051
0.731029
0.732484
0.733735
0.734508
0.735643
0.738648
0.747264
0.762688
0.797195
0.840697
0.902692
0.963745
1.02212
1.06988
1.08204
1.09428
1.094
1.08704
1.08585
1.08432
1.08093
1.07777
1.07708
1.07713
1.07613
1.07184
1.06292
1.05369
1.04287
1.02884
1.01341
1.0046
1.00295
1.00309
1.00339
1.00363
1.0038
1.00417
1.00368
1.00189
0.990883
0.645363
0.645367
0.645369
0.64536
0.645334
0.645329
0.64534
0.645384
0.645419
0.645424
0.645447
0.645531
0.645563
0.64555
0.645549
0.645571
0.645683
0.645805
0.645891
0.64598
0.646104
0.646292
0.646512
0.646731
0.647002
0.647334
0.647733
0.648175
0.648658
0.64932
0.650165
0.651063
0.652107
0.65349
0.655113
0.656854
0.659039
0.661682
0.664893
0.668812
0.6736
0.678876
0.684887
0.692332
0.700204
0.707258
0.71493
0.721067
0.722276
0.722466
0.722619
0.723006
0.724157
0.725938
0.727161
0.728392
0.729662
0.730378
0.730842
0.73115
0.732149
0.7338
0.734886
0.735304
0.736125
0.737885
0.740224
0.744348
0.753474
0.776878
0.815876
0.874078
0.941885
0.995506
1.04086
1.05397
1.07215
1.0898
1.08874
1.08471
1.08217
1.08148
1.08046
1.0775
1.06961
1.06021
1.05245
1.04372
1.02908
1.01248
1.00428
1.00292
1.00309
1.00333
1.00347
1.0036
1.004
1.00388
1.00261
0.992711
0.645363
0.645403
0.645446
0.645476
0.645506
0.645538
0.645565
0.645592
0.645636
0.645671
0.645703
0.64579
0.645869
0.645882
0.645892
0.645913
0.645978
0.646121
0.646281
0.646425
0.646562
0.646725
0.646926
0.647123
0.647313
0.647553
0.647868
0.648259
0.648718
0.649264
0.649962
0.650844
0.651884
0.653162
0.65466
0.656302
0.658327
0.660687
0.663544
0.667013
0.67155
0.676758
0.68252
0.689304
0.697292
0.705186
0.714943
0.721522
0.722567
0.722659
0.722721
0.723104
0.724128
0.72562
0.72696
0.72858
0.729964
0.730728
0.731228
0.73155
0.732135
0.733641
0.735143
0.735766
0.73641
0.737595
0.738836
0.739502
0.739379
0.740492
0.747222
0.765793
0.800976
0.860527
0.927787
0.989621
1.05517
1.08217
1.08262
1.08239
1.08281
1.08258
1.08084
1.07431
1.06706
1.06016
1.05456
1.04464
1.02799
1.01173
1.00426
1.00348
1.00353
1.00339
1.00338
1.00345
1.00378
1.00378
1.00288
0.993855
0.645972
0.646005
0.646045
0.64609
0.646135
0.646176
0.64621
0.646232
0.646253
0.64627
0.64629
0.646332
0.64639
0.646441
0.646486
0.646526
0.646565
0.646621
0.646704
0.646804
0.64693
0.647084
0.647251
0.647405
0.647542
0.647718
0.64796
0.648274
0.648688
0.649208
0.649834
0.65061
0.651531
0.652661
0.653961
0.655409
0.657257
0.659465
0.662031
0.665044
0.669196
0.674386
0.680093
0.686117
0.693502
0.701966
0.711915
0.720714
0.722546
0.722811
0.722803
0.723034
0.723834
0.72525
0.726632
0.728132
0.730433
0.731589
0.732096
0.73228
0.73244
0.733534
0.734985
0.735965
0.736818
0.737903
0.738865
0.739273
0.738621
0.738405
0.739113
0.741864
0.747582
0.76195
0.793589
0.851121
0.915581
0.974294
1.0255
1.05354
1.07749
1.07656
1.06852
1.06682
1.06573
1.06341
1.05634
1.04348
1.02526
1.01083
1.00548
1.00404
1.0035
1.00332
1.00354
1.00374
1.00351
1.00308
1.00221
0.993878
0.645944
0.645971
0.646001
0.646032
0.646065
0.646099
0.646136
0.646174
0.646206
0.646236
0.646271
0.646312
0.646353
0.6464
0.646476
0.646538
0.646563
0.646587
0.646629
0.646695
0.646797
0.646952
0.647132
0.647292
0.647441
0.647605
0.647811
0.648094
0.648447
0.648867
0.64941
0.650065
0.65084
0.651851
0.653005
0.654232
0.655774
0.65781
0.660182
0.662988
0.666791
0.671576
0.677195
0.683392
0.690326
0.698213
0.707425
0.717853
0.72235
0.723039
0.723196
0.723338
0.723957
0.725185
0.726534
0.728131
0.730283
0.731417
0.732013
0.732361
0.732915
0.733909
0.734963
0.736054
0.737163
0.738346
0.739379
0.739758
0.739136
0.738417
0.738721
0.740853
0.742385
0.743831
0.747568
0.760465
0.787246
0.843985
0.927821
0.98576
1.02793
1.03771
1.04788
1.06701
1.07102
1.06619
1.05393
1.03635
1.02305
1.01284
1.00688
1.00422
1.00324
1.00341
1.00417
1.00429
1.00337
1.00177
1.00006
0.992102
0.645721
0.645751
0.645782
0.645812
0.645842
0.645875
0.645912
0.645948
0.64598
0.646019
0.646075
0.646124
0.646157
0.646193
0.646263
0.646337
0.646375
0.646418
0.646452
0.646461
0.646481
0.646579
0.646767
0.646917
0.647026
0.647123
0.647247
0.647459
0.647828
0.648259
0.648759
0.649366
0.650027
0.650864
0.651921
0.653082
0.654453
0.656359
0.658652
0.661302
0.664716
0.669037
0.674428
0.680617
0.687428
0.694616
0.702527
0.71255
0.721777
0.723883
0.724234
0.724125
0.724444
0.725539
0.726947
0.728427
0.730101
0.731422
0.732199
0.732872
0.733538
0.734232
0.735066
0.736237
0.73751
0.738736
0.739771
0.740228
0.739962
0.739302
0.739513
0.74106
0.742291
0.742943
0.743413
0.744563
0.747991
0.760967
0.789172
0.847164
0.910827
0.978393
1.02824
1.06355
1.06478
1.05683
1.04018
1.02918
1.02242
1.01431
1.00682
1.00286
1.00285
1.00395
1.00476
1.00464
1.00341
1.00126
0.999038
0.991127
0.645062
0.645091
0.645104
0.6451
0.645099
0.645106
0.645124
0.645154
0.645202
0.645296
0.645381
0.645389
0.645386
0.645403
0.645473
0.645549
0.645611
0.645713
0.645851
0.646027
0.646224
0.646412
0.646579
0.646732
0.646878
0.647025
0.647185
0.647387
0.647656
0.648011
0.648463
0.648995
0.649626
0.65036
0.651284
0.652386
0.653686
0.655471
0.657646
0.660055
0.663051
0.667088
0.672075
0.677709
0.684423
0.69151
0.698315
0.706556
0.7181
0.723792
0.724362
0.7245
0.725188
0.726251
0.727333
0.728663
0.730062
0.731212
0.732232
0.733367
0.734173
0.734787
0.735524
0.736587
0.737912
0.739163
0.740014
0.740426
0.740549
0.740552
0.741271
0.742654
0.742982
0.742857
0.743197
0.743828
0.744458
0.745461
0.748959
0.760752
0.787959
0.842353
0.902282
0.978115
1.01126
1.02493
1.03141
1.03302
1.02715
1.0146
1.0026
1.00221
1.00369
1.00484
1.00499
1.00437
1.0035
1.00159
0.999098
0.990999
0.644143
0.64416
0.644181
0.644209
0.644246
0.644283
0.64433
0.644356
0.644385
0.64444
0.644458
0.644469
0.644501
0.644534
0.64464
0.64477
0.644861
0.645083
0.645333
0.645549
0.645815
0.646068
0.64626
0.646432
0.646613
0.646824
0.647083
0.647352
0.647638
0.647958
0.648341
0.648804
0.649357
0.650029
0.650949
0.652092
0.653339
0.654944
0.656912
0.6591
0.661639
0.665135
0.669628
0.674711
0.680979
0.688108
0.695062
0.701906
0.711203
0.721519
0.72447
0.725508
0.726414
0.726958
0.72755
0.728528
0.729693
0.730976
0.732367
0.733812
0.734886
0.735598
0.736258
0.737193
0.738413
0.739532
0.740155
0.740553
0.741055
0.741513
0.742705
0.744197
0.744318
0.744084
0.743831
0.743933
0.744304
0.74483
0.744786
0.745547
0.748676
0.758666
0.789152
0.842185
0.914091
0.988693
1.01876
1.02908
1.02258
0.999079
0.997515
1.00112
1.0046
1.00449
1.00345
1.00335
1.00485
1.00441
1.00204
0.992842
0.644234
0.64424
0.644252
0.644282
0.644322
0.644352
0.644381
0.644421
0.644446
0.644459
0.644455
0.644458
0.644468
0.644519
0.644615
0.644784
0.644891
0.64498
0.645183
0.645471
0.645776
0.645991
0.646141
0.646299
0.646532
0.646851
0.647198
0.647508
0.64779
0.648038
0.648296
0.648641
0.649111
0.649734
0.650623
0.651844
0.653195
0.65466
0.656396
0.658257
0.660229
0.662944
0.666823
0.67142
0.676726
0.68351
0.69109
0.698154
0.705804
0.714478
0.722117
0.726733
0.727697
0.727904
0.728048
0.728679
0.729612
0.730835
0.732369
0.734018
0.735398
0.736322
0.737049
0.737897
0.738945
0.739952
0.740448
0.740752
0.741443
0.742264
0.743521
0.745169
0.745581
0.745474
0.745315
0.745222
0.745118
0.744959
0.744658
0.74459
0.744195
0.74437
0.746803
0.758393
0.796681
0.852263
0.907474
0.960968
0.973959
0.97945
0.999863
1.00503
1.00423
1.0001
1.00096
1.00325
1.00664
1.00682
1.00548
0.996785
0.645084
0.645061
0.645024
0.644997
0.644981
0.644962
0.644953
0.644963
0.644991
0.644997
0.644972
0.644927
0.644869
0.644807
0.644782
0.644785
0.644809
0.644889
0.645097
0.645294
0.645464
0.645618
0.645765
0.645946
0.646198
0.646526
0.646866
0.647159
0.647393
0.64763
0.647934
0.648299
0.648735
0.649202
0.64983
0.650948
0.652397
0.653714
0.655125
0.656674
0.65826
0.660468
0.663869
0.66801
0.672667
0.678694
0.68607
0.69335
0.700801
0.709491
0.718278
0.724944
0.728145
0.728818
0.729115
0.729475
0.730163
0.731406
0.733028
0.734508
0.735872
0.737003
0.737792
0.738467
0.73933
0.740243
0.740811
0.741335
0.742221
0.743079
0.743876
0.745094
0.745817
0.745928
0.74601
0.74609
0.746199
0.746134
0.745784
0.744721
0.744113
0.743489
0.743187
0.741612
0.745428
0.760559
0.794913
0.841322
0.898879
0.95636
0.992992
0.999455
0.991422
0.992444
0.998447
1.00482
1.00644
1.0064
1.00568
0.99877
0.645777
0.645737
0.645683
0.645622
0.645561
0.645494
0.645387
0.645276
0.645201
0.645133
0.64505
0.644962
0.64486
0.64473
0.644507
0.644295
0.644249
0.644299
0.644443
0.644632
0.644815
0.644982
0.64514
0.64531
0.64551
0.645753
0.646011
0.646249
0.646466
0.646748
0.647274
0.647676
0.647906
0.648163
0.648629
0.649475
0.650749
0.652094
0.653339
0.654737
0.656297
0.658409
0.661364
0.66513
0.669526
0.674857
0.681284
0.68805
0.695302
0.703728
0.712925
0.719789
0.724741
0.729224
0.730861
0.731148
0.731678
0.732771
0.733988
0.735163
0.73646
0.737604
0.738349
0.738958
0.739762
0.740614
0.741343
0.74221
0.743374
0.744317
0.744728
0.745344
0.745864
0.746014
0.746179
0.746449
0.746741
0.746931
0.746976
0.746195
0.744988
0.74356
0.742968
0.741617
0.739469
0.732798
0.734117
0.742541
0.774638
0.835001
0.904183
0.943919
0.97228
0.992335
1.00599
1.00505
1.00103
1.00159
1.00422
0.999181
0.645736
0.645643
0.645522
0.645354
0.645181
0.64502
0.644651
0.644458
0.644466
0.64445
0.644362
0.644278
0.644204
0.644128
0.644049
0.643956
0.643876
0.643901
0.644028
0.644263
0.644572
0.644827
0.64498
0.645093
0.645191
0.645269
0.645353
0.645458
0.645631
0.645898
0.646262
0.646697
0.647106
0.647505
0.648006
0.648665
0.649553
0.650697
0.651894
0.653232
0.654918
0.657027
0.659564
0.662975
0.667053
0.671401
0.676409
0.682205
0.688852
0.696469
0.705499
0.71327
0.720142
0.727036
0.73176
0.732779
0.733275
0.73377
0.734281
0.735003
0.736105
0.737483
0.738824
0.739939
0.740804
0.741578
0.742492
0.743686
0.74518
0.746267
0.746412
0.74657
0.746903
0.74712
0.747307
0.747498
0.747586
0.747568
0.74757
0.747323
0.746338
0.744731
0.743309
0.741824
0.739361
0.732735
0.722121
0.708284
0.709901
0.731106
0.780817
0.860579
0.949526
0.984484
1.00159
0.992162
0.991279
0.995474
0.999293
0.995015
0.644731
0.644627
0.644314
0.643813
0.6437
0.643704
0.643732
0.643861
0.644025
0.644099
0.644168
0.644199
0.644181
0.644112
0.644145
0.644275
0.644443
0.644603
0.644707
0.644849
0.645204
0.645443
0.645482
0.645549
0.645611
0.645644
0.645728
0.645836
0.645861
0.645929
0.64611
0.6464
0.646802
0.647245
0.647732
0.648229
0.648872
0.649846
0.651011
0.652432
0.654181
0.656124
0.658289
0.661282
0.664987
0.668775
0.673
0.677733
0.683061
0.689405
0.697894
0.706975
0.715922
0.724915
0.731924
0.734247
0.734963
0.735318
0.735576
0.735991
0.736815
0.738235
0.740034
0.741571
0.742583
0.743468
0.744441
0.7455
0.747078
0.748541
0.748639
0.748565
0.74905
0.749507
0.749709
0.74972
0.749644
0.749432
0.748891
0.747893
0.746496
0.745219
0.744185
0.742664
0.739396
0.732321
0.718898
0.702681
0.693351
0.694906
0.706067
0.746497
0.814177
0.882977
0.954656
0.969699
0.99293
0.999139
0.996227
0.991394
0.643249
0.643129
0.642643
0.642415
0.642409
0.642438
0.64252
0.642664
0.642958
0.643366
0.643702
0.643829
0.643818
0.643834
0.644039
0.644282
0.644337
0.644348
0.644425
0.644784
0.645202
0.645299
0.645318
0.645371
0.645419
0.645425
0.645464
0.645582
0.645577
0.645569
0.645635
0.645765
0.645949
0.646341
0.646948
0.647389
0.647718
0.648224
0.64912
0.650361
0.651783
0.653355
0.655087
0.657345
0.660484
0.664192
0.668382
0.672798
0.677504
0.682995
0.690636
0.700139
0.709749
0.719031
0.72829
0.733565
0.735741
0.737038
0.738005
0.738626
0.739233
0.740401
0.742095
0.743518
0.744408
0.745049
0.745624
0.746269
0.747666
0.749507
0.749917
0.749796
0.750245
0.750822
0.751098
0.751219
0.751297
0.751309
0.750916
0.749693
0.748007
0.746606
0.745479
0.743864
0.740017
0.73134
0.716116
0.699042
0.690114
0.688849
0.689645
0.695847
0.716282
0.77284
0.847832
0.933637
0.986289
1.00038
0.995653
0.990825
0.643078
0.643245
0.643266
0.643184
0.642921
0.64251
0.642276
0.642228
0.642199
0.642135
0.642001
0.641955
0.64199
0.642329
0.642617
0.642651
0.642596
0.642498
0.642513
0.642566
0.642535
0.642498
0.642573
0.642741
0.642952
0.643025
0.643139
0.643523
0.643724
0.643699
0.64369
0.643802
0.644098
0.64462
0.645535
0.646121
0.646237
0.64635
0.646761
0.647487
0.648405
0.649533
0.650903
0.652705
0.655355
0.658851
0.662858
0.667265
0.67194
0.676772
0.682861
0.691228
0.700119
0.708176
0.71672
0.725187
0.732397
0.737861
0.740645
0.741709
0.742457
0.743776
0.745165
0.745692
0.745945
0.746138
0.746329
0.746821
0.747894
0.749529
0.750276
0.750249
0.750453
0.750908
0.751233
0.751425
0.751786
0.752243
0.752486
0.752058
0.750698
0.749266
0.747993
0.746147
0.741462
0.7308
0.713422
0.696506
0.689277
0.688428
0.68848
0.688815
0.690925
0.703099
0.732521
0.799163
0.885084
0.958822
0.989177
0.993956
0.641152
0.641292
0.641326
0.641264
0.641094
0.640984
0.640918
0.64074
0.640446
0.64036
0.640481
0.640734
0.640773
0.64071
0.640709
0.640727
0.640614
0.640306
0.640136
0.640045
0.63984
0.639561
0.639595
0.639779
0.640163
0.640631
0.641067
0.641799
0.642291
0.642302
0.642275
0.642424
0.643007
0.644276
0.645723
0.646363
0.646624
0.646821
0.646939
0.647001
0.647269
0.647968
0.649071
0.650507
0.65257
0.655255
0.658326
0.661905
0.66582
0.669757
0.674377
0.6804
0.687083
0.694198
0.702847
0.713066
0.723572
0.732805
0.738398
0.741086
0.743277
0.7456
0.746579
0.747062
0.747431
0.747521
0.747415
0.747907
0.749299
0.751418
0.752547
0.752702
0.752608
0.752953
0.753325
0.753549
0.753672
0.753718
0.753515
0.752776
0.751817
0.750809
0.749511
0.747354
0.741797
0.729242
0.710075
0.694706
0.68962
0.688968
0.688881
0.688918
0.68894
0.689523
0.693289
0.712728
0.761701
0.837604
0.926889
0.982924
0.644261
0.644634
0.644935
0.645246
0.645607
0.645768
0.645688
0.645032
0.644216
0.644129
0.644264
0.644177
0.643599
0.643319
0.643589
0.643963
0.643959
0.6434
0.64288
0.64267
0.642307
0.642145
0.64229
0.642693
0.64362
0.644802
0.644992
0.644984
0.64507
0.64503
0.64488
0.644857
0.64519
0.646289
0.647893
0.649625
0.651113
0.651919
0.652225
0.65232
0.652295
0.652475
0.652956
0.653722
0.655051
0.656652
0.658318
0.660406
0.663107
0.666249
0.669763
0.673916
0.678767
0.684342
0.691411
0.700516
0.710815
0.721369
0.730101
0.735962
0.740238
0.742948
0.745348
0.747358
0.748363
0.748724
0.749192
0.750699
0.752764
0.754845
0.756828
0.757405
0.757554
0.757889
0.758279
0.758567
0.758741
0.758591
0.757154
0.754632
0.752859
0.752008
0.750625
0.746596
0.738318
0.723722
0.706086
0.695074
0.692452
0.692241
0.692164
0.692138
0.691997
0.691991
0.692432
0.694664
0.702934
0.737112
0.803173
0.90574
0.66307
0.663591
0.664214
0.664775
0.6653
0.665476
0.665334
0.664236
0.663498
0.663444
0.66383
0.664641
0.664671
0.663814
0.662659
0.66235
0.662401
0.662298
0.66132
0.660591
0.659685
0.658032
0.656172
0.655693
0.656366
0.657217
0.657281
0.657042
0.655879
0.654299
0.653673
0.653503
0.65353
0.65389
0.654591
0.654946
0.654899
0.654806
0.654806
0.655104
0.655377
0.655542
0.65586
0.656153
0.656143
0.656176
0.656562
0.657764
0.659902
0.662525
0.665315
0.668719
0.673306
0.678917
0.685497
0.693339
0.701966
0.710838
0.719912
0.728396
0.734674
0.738808
0.742573
0.746451
0.749591
0.751638
0.753439
0.755397
0.75664
0.757401
0.758452
0.759713
0.760239
0.76047
0.760673
0.760995
0.761254
0.761286
0.760545
0.758989
0.757146
0.755017
0.752037
0.746055
0.734459
0.717178
0.700986
0.694345
0.693601
0.693882
0.69443
0.695116
0.695893
0.696752
0.697733
0.699428
0.704024
0.709388
0.725462
0.809571
0.678477
0.678141
0.67812
0.678354
0.679157
0.679354
0.679048
0.678786
0.678284
0.677393
0.677293
0.677923
0.679491
0.679718
0.678641
0.678403
0.678748
0.678714
0.678163
0.677992
0.677766
0.676703
0.674615
0.673483
0.673696
0.674211
0.674247
0.673745
0.672143
0.669802
0.667968
0.666724
0.665097
0.663443
0.661924
0.660235
0.659446
0.659374
0.659425
0.659805
0.660064
0.660036
0.659994
0.659698
0.659115
0.659088
0.65958
0.660736
0.662409
0.664436
0.666773
0.669738
0.673967
0.679654
0.686275
0.693741
0.701627
0.709474
0.71775
0.725919
0.733116
0.738746
0.743612
0.748121
0.752213
0.755362
0.75855
0.760578
0.760541
0.760253
0.76074
0.761882
0.762579
0.762801
0.762696
0.762704
0.76274
0.762413
0.762366
0.762316
0.761469
0.75892
0.754415
0.74692
0.73299
0.713937
0.699247
0.693702
0.693455
0.694044
0.695298
0.696634
0.698139
0.699926
0.701551
0.703417
0.706141
0.711065
0.717781
0.751709
0.726783
0.724251
0.723936
0.723951
0.724485
0.725259
0.725341
0.724595
0.722204
0.721744
0.721743
0.721323
0.720043
0.718483
0.717558
0.716662
0.715563
0.713358
0.711047
0.710891
0.711132
0.710675
0.708966
0.70754
0.706864
0.707152
0.708961
0.710356
0.710373
0.709823
0.708145
0.706849
0.706001
0.705083
0.703861
0.701737
0.698982
0.697564
0.696765
0.695776
0.694689
0.693606
0.692152
0.690526
0.689973
0.690231
0.691149
0.691698
0.69169
0.691094
0.690227
0.690474
0.692066
0.69499
0.698225
0.701575
0.70541
0.710038
0.715567
0.722047
0.729277
0.736728
0.742323
0.745853
0.749117
0.753126
0.756909
0.759607
0.761784
0.764625
0.769154
0.773423
0.774383
0.774661
0.77486
0.77491
0.774238
0.772224
0.76976
0.767614
0.766069
0.763815
0.758778
0.749075
0.733757
0.714677
0.700971
0.697876
0.697836
0.698169
0.698991
0.699945
0.701039
0.702119
0.703264
0.704692
0.706525
0.710119
0.715688
0.733899
0.773182
0.772215
0.771291
0.771035
0.771177
0.772685
0.774152
0.773819
0.772157
0.770904
0.770791
0.77098
0.771991
0.77272
0.772537
0.771601
0.770234
0.769309
0.767036
0.764266
0.762407
0.759745
0.757712
0.757036
0.756762
0.755582
0.751573
0.749019
0.748373
0.747553
0.744159
0.739275
0.738543
0.739455
0.739299
0.738283
0.738166
0.738631
0.738259
0.73519
0.730944
0.728473
0.726743
0.724801
0.721805
0.71987
0.719613
0.719508
0.718861
0.717585
0.716333
0.71508
0.71357
0.712426
0.712324
0.712049
0.712482
0.714347
0.718446
0.724201
0.730623
0.737434
0.74338
0.747638
0.75168
0.756609
0.761455
0.765938
0.771034
0.777178
0.784348
0.787559
0.787747
0.787824
0.788325
0.788573
0.788264
0.787528
0.78574
0.782037
0.777097
0.772005
0.765627
0.754755
0.73863
0.72277
0.715893
0.715583
0.716229
0.717593
0.719256
0.720767
0.72222
0.723486
0.725005
0.726913
0.7285
0.730191
0.730326
0.739518
0.835885
0.835346
0.835213
0.835628
0.835654
0.834706
0.831874
0.82758
0.825525
0.825725
0.826524
0.826264
0.823856
0.822598
0.822759
0.822241
0.820566
0.820327
0.820216
0.818841
0.816586
0.815027
0.813035
0.81212
0.812808
0.812857
0.810346
0.806837
0.806194
0.805928
0.804629
0.801827
0.798635
0.795994
0.793721
0.789964
0.786166
0.785832
0.786555
0.785639
0.782547
0.77977
0.777401
0.775666
0.773849
0.771543
0.768316
0.766114
0.764159
0.762712
0.762583
0.762071
0.759948
0.757744
0.757765
0.758091
0.757202
0.756322
0.757369
0.75966
0.761616
0.764267
0.76859
0.773582
0.778969
0.782369
0.78333
0.784089
0.785344
0.787878
0.789925
0.790159
0.790149
0.790054
0.788896
0.787769
0.788839
0.790308
0.790435