/*--------------------------------*- C++ -*----------------------------------*\
  =========                 |
  \\      /  F ield         | OpenFOAM: The Open Source CFD Toolbox
   \\    /   O peration     | Website:  https://openfoam.org
    \\  /    A nd           | Version:  7
     \\/     M anipulation  |
\*---------------------------------------------------------------------------*/
FoamFile
{
    version     2.0;
    format      ascii;
    class       volScalarField;
    location    "1";
    object      T;
}
// * * * * * * * * * * * * * * * * * * * * * * * * * * * * * * * * * * * * * //

dimensions      [0 0 0 1 0 0 0];

internalField   nonuniform List<scalar> 
90000
(
0.90922
0.914988
0.920784
0.926226
0.93127
0.93564
0.93969
0.943359
0.946874
0.949886
0.952975
0.95586
0.958914
0.962466
0.96665
0.971563
0.976778
0.982307
0.987823
0.993095
0.998539
1.00331
1.0082
1.01299
1.01708
1.0212
1.0253
1.02861
1.03171
1.03506
1.03721
1.03921
1.04171
1.04287
1.04382
1.04493
1.04616
1.04679
1.048
1.04835
1.04804
1.04738
1.04724
1.04764
1.04924
1.05286
1.05712
1.05956
1.0598
1.05948
1.06024
1.0605
1.06033
1.05998
1.05905
1.0584
1.05825
1.05855
1.0592
1.0599
1.06105
1.06259
1.06417
1.06495
1.06492
1.06462
1.0639
1.06331
1.06291
1.06227
1.06075
1.05882
1.05543
1.05184
1.04904
1.04741
1.04682
1.04655
1.04629
1.04573
1.0448
1.04403
1.04326
1.04236
1.0408
1.0386
1.03592
1.03254
1.02767
1.0227
1.02042
1.01994
1.01992
1.01988
1.01979
1.01967
1.01946
1.019
1.01786
1.01372
0.903898
0.904142
0.904606
0.905299
0.906325
0.907563
0.909033
0.910716
0.912684
0.914782
0.917118
0.919603
0.922155
0.924735
0.927413
0.930364
0.933502
0.937064
0.940871
0.944912
0.949472
0.953962
0.958739
0.96403
0.968874
0.974235
0.979519
0.984687
0.990155
0.994998
1.00008
1.00501
1.00975
1.01392
1.01783
1.02167
1.02592
1.02848
1.03147
1.03518
1.03958
1.04369
1.04654
1.04883
1.05042
1.05132
1.05176
1.05199
1.05187
1.05147
1.05173
1.05249
1.05335
1.05421
1.05514
1.05608
1.05704
1.05746
1.05731
1.05735
1.05759
1.05788
1.05902
1.06024
1.06156
1.06269
1.06241
1.06191
1.06109
1.05972
1.05736
1.05487
1.05219
1.0483
1.04497
1.0429
1.04197
1.04177
1.04164
1.0415
1.04111
1.04018
1.0388
1.0376
1.0362
1.03428
1.0317
1.02815
1.02354
1.01883
1.01646
1.01592
1.01592
1.01595
1.01595
1.01591
1.01578
1.01539
1.01434
1.01032
0.902342
0.902313
0.902278
0.90224
0.902209
0.902189
0.902178
0.902184
0.902208
0.90226
0.90235
0.902492
0.902691
0.903007
0.903434
0.903979
0.904658
0.90551
0.906569
0.907879
0.909446
0.911412
0.913533
0.916337
0.919516
0.9232
0.927418
0.932301
0.937737
0.943604
0.950055
0.957136
0.964326
0.971912
0.980114
0.987279
0.995127
1.00253
1.00971
1.01683
1.02357
1.02855
1.03243
1.03648
1.04011
1.04262
1.04404
1.04505
1.04423
1.04419
1.04435
1.04537
1.04704
1.04865
1.04997
1.05079
1.05158
1.05194
1.05182
1.05129
1.05068
1.0508
1.05177
1.05374
1.05592
1.05795
1.05811
1.05777
1.0566
1.05483
1.05266
1.04993
1.04644
1.04253
1.0392
1.03718
1.036
1.03554
1.03564
1.03584
1.03567
1.03476
1.03317
1.03184
1.03077
1.02917
1.02659
1.02312
1.0187
1.01415
1.0116
1.01109
1.01114
1.01124
1.01138
1.01146
1.01144
1.01123
1.01038
1.00659
0.900352
0.900326
0.900297
0.900265
0.900231
0.900194
0.900157
0.900122
0.900088
0.900059
0.90004
0.900033
0.900041
0.900011
0.899968
0.899926
0.899891
0.899895
0.899916
0.899965
0.900042
0.900154
0.90031
0.900555
0.900963
0.901566
0.902385
0.903604
0.905106
0.907176
0.909829
0.913308
0.91757
0.923216
0.92939
0.937095
0.945343
0.955317
0.965442
0.976256
0.987604
0.997615
1.00609
1.01452
1.02123
1.02659
1.03087
1.03413
1.03557
1.03755
1.04014
1.04186
1.04341
1.04476
1.04547
1.04545
1.04583
1.04597
1.04571
1.04521
1.0452
1.04581
1.04714
1.04879
1.0501
1.05172
1.05272
1.05265
1.05205
1.0508
1.04842
1.04479
1.04011
1.0359
1.03351
1.03259
1.0319
1.03125
1.03086
1.03055
1.03043
1.03008
1.02902
1.02749
1.02632
1.02497
1.02249
1.01881
1.01441
1.01018
1.00782
1.00727
1.00728
1.0074
1.00761
1.00773
1.0077
1.00749
1.00673
1.00319
0.898456
0.898441
0.898426
0.898411
0.898394
0.898376
0.898358
0.89834
0.898322
0.898304
0.89829
0.89828
0.898277
0.898272
0.898262
0.898242
0.898232
0.89824
0.89826
0.89829
0.898337
0.898417
0.898513
0.898646
0.898727
0.898838
0.898987
0.89921
0.899499
0.899856
0.900327
0.900957
0.901772
0.903041
0.904821
0.907309
0.910328
0.914894
0.92064
0.928567
0.938028
0.949377
0.962275
0.975035
0.987833
1.00078
1.01029
1.01971
1.02692
1.03153
1.03433
1.03555
1.037
1.03827
1.03937
1.04008
1.04014
1.04052
1.0414
1.0425
1.04329
1.04382
1.04463
1.04551
1.04589
1.04647
1.04725
1.04759
1.04748
1.04706
1.04551
1.04206
1.03673
1.03199
1.02999
1.02948
1.02931
1.02902
1.0285
1.02773
1.02705
1.02649
1.02579
1.02479
1.02372
1.02246
1.02035
1.01659
1.01181
1.00747
1.00524
1.00481
1.00476
1.00485
1.00503
1.00514
1.00511
1.00491
1.00424
1.00094
0.897422
0.897415
0.897408
0.897403
0.8974
0.897397
0.897392
0.897386
0.897375
0.897363
0.897362
0.897361
0.897361
0.897358
0.897356
0.897357
0.897353
0.897362
0.897388
0.897427
0.897484
0.89757
0.897667
0.89777
0.897873
0.898022
0.898229
0.898496
0.898782
0.899094
0.899485
0.899949
0.900432
0.901102
0.901954
0.903027
0.90425
0.905751
0.90777
0.910403
0.913783
0.918175
0.923661
0.931076
0.940907
0.951277
0.963824
0.976641
0.990835
1.00286
1.01295
1.01941
1.0256
1.02839
1.03199
1.0337
1.03567
1.03807
1.04093
1.04329
1.04341
1.04348
1.04368
1.04404
1.04432
1.04455
1.04493
1.04549
1.04554
1.04501
1.04308
1.03969
1.03492
1.03083
1.02913
1.02861
1.0284
1.02814
1.02763
1.02677
1.02577
1.02492
1.0243
1.02373
1.02278
1.02142
1.01922
1.01581
1.011
1.00635
1.00402
1.00367
1.00368
1.00382
1.00398
1.0041
1.0041
1.00396
1.00327
0.999902
0.896761
0.896759
0.896756
0.896755
0.896756
0.89676
0.896769
0.896778
0.89678
0.896783
0.896787
0.896787
0.896796
0.896799
0.896798
0.896801
0.896807
0.896838
0.896877
0.896914
0.896966
0.897046
0.897138
0.897249
0.897358
0.897527
0.897761
0.898021
0.898276
0.89857
0.898934
0.899338
0.899831
0.900568
0.901411
0.902329
0.903424
0.904868
0.906793
0.908573
0.910761
0.913312
0.916164
0.919579
0.9232
0.925977
0.929644
0.934551
0.943138
0.954631
0.968178
0.983758
0.996973
1.00763
1.01821
1.02614
1.03383
1.0371
1.03967
1.04226
1.04237
1.04144
1.04053
1.04157
1.04336
1.04519
1.04663
1.04652
1.04544
1.04364
1.04057
1.03678
1.0329
1.03044
1.02917
1.02867
1.02833
1.02791
1.02738
1.02645
1.02536
1.0245
1.024
1.02344
1.02255
1.02082
1.01854
1.01541
1.01094
1.00621
1.0038
1.00348
1.00353
1.00369
1.0038
1.00382
1.00373
1.00342
1.00265
0.999379
0.896382
0.896386
0.896387
0.896388
0.896392
0.896401
0.896411
0.896421
0.89643
0.896438
0.896444
0.896449
0.896465
0.896475
0.89648
0.89649
0.896509
0.896552
0.896601
0.896655
0.896718
0.896809
0.896899
0.897005
0.897103
0.897254
0.89747
0.897722
0.897958
0.898243
0.898613
0.89901
0.899482
0.9002
0.901013
0.901911
0.903004
0.904488
0.906412
0.908131
0.91022
0.912681
0.915141
0.918506
0.921314
0.922536
0.923588
0.924909
0.926541
0.928554
0.931901
0.9386
0.947793
0.961131
0.973376
0.987682
1.00153
1.0134
1.02161
1.03115
1.03307
1.03558
1.03872
1.04278
1.04627
1.04817
1.04841
1.04779
1.04568
1.04212
1.03892
1.03524
1.03256
1.03052
1.02926
1.02853
1.02808
1.02779
1.02744
1.02673
1.02584
1.02514
1.02449
1.02355
1.02216
1.02052
1.01847
1.01535
1.01088
1.0063
1.00389
1.00351
1.00354
1.00364
1.00368
1.00366
1.00354
1.00314
1.00231
0.999046
0.896259
0.89626
0.89626
0.896261
0.896265
0.896273
0.896283
0.896293
0.896303
0.896316
0.89633
0.896353
0.896378
0.896379
0.896386
0.896411
0.896444
0.896484
0.896535
0.896602
0.896678
0.896789
0.896886
0.896969
0.897031
0.89714
0.897312
0.897536
0.897763
0.898052
0.898423
0.898864
0.899331
0.900013
0.900816
0.901669
0.902718
0.904237
0.906201
0.907794
0.909652
0.912204
0.914647
0.91786
0.92074
0.922056
0.923242
0.924714
0.925419
0.925442
0.925383
0.925849
0.927456
0.930498
0.934481
0.941863
0.951943
0.967318
0.983846
1.00178
1.01614
1.02992
1.03818
1.04275
1.04632
1.04743
1.04687
1.04444
1.04282
1.04115
1.03882
1.03581
1.03272
1.03034
1.0285
1.02773
1.02784
1.02784
1.02771
1.02717
1.0265
1.02583
1.02491
1.02343
1.02199
1.0206
1.01867
1.01551
1.01083
1.00629
1.00399
1.00356
1.00358
1.00365
1.00366
1.00361
1.00344
1.00301
1.00215
0.998874
0.896216
0.896216
0.896219
0.896224
0.89623
0.896237
0.896249
0.896264
0.896282
0.896302
0.896319
0.89633
0.89634
0.896354
0.896383
0.896415
0.896432
0.896448
0.89647
0.896513
0.896567
0.896663
0.896747
0.896829
0.89691
0.89703
0.897183
0.897377
0.897605
0.8979
0.898272
0.898784
0.899318
0.89988
0.900532
0.901403
0.902467
0.90394
0.905825
0.907424
0.909021
0.911512
0.914302
0.91743
0.920354
0.92164
0.922762
0.924316
0.92525
0.925312
0.925128
0.925141
0.925735
0.926244
0.92652
0.927214
0.929166
0.933168
0.941272
0.951998
0.970176
0.988396
1.00585
1.02034
1.02981
1.03483
1.04018
1.04079
1.04318
1.04263
1.0406
1.03712
1.03304
1.02884
1.02728
1.02753
1.02806
1.02819
1.02789
1.0273
1.0267
1.02604
1.02487
1.02324
1.02192
1.02068
1.01889
1.0157
1.01081
1.00633
1.00406
1.0036
1.00362
1.00364
1.00363
1.00359
1.00344
1.003
1.00214
0.998871
0.89602
0.896022
0.896027
0.896029
0.896029
0.896029
0.896038
0.896057
0.896065
0.896067
0.896077
0.89609
0.896101
0.896118
0.896138
0.896167
0.896186
0.896198
0.896207
0.896231
0.896277
0.896358
0.896433
0.896523
0.896645
0.896796
0.89695
0.897137
0.897385
0.897695
0.898023
0.898464
0.898981
0.899544
0.900086
0.900901
0.901949
0.9033
0.904974
0.906723
0.908461
0.910658
0.91354
0.91662
0.91978
0.921532
0.922563
0.923806
0.92476
0.92495
0.924885
0.924861
0.925336
0.925975
0.926173
0.926476
0.927022
0.927536
0.928459
0.93053
0.935874
0.944169
0.959069
0.975996
0.995791
1.01158
1.02704
1.03615
1.04074
1.03953
1.03741
1.03382
1.02854
1.02668
1.02718
1.02844
1.02878
1.02847
1.02748
1.02662
1.026
1.02524
1.02427
1.02318
1.02198
1.02077
1.01884
1.01537
1.0107
1.00638
1.00409
1.00359
1.00356
1.00358
1.00362
1.0036
1.00351
1.00311
1.00227
0.999012
0.895676
0.895677
0.89568
0.895681
0.895679
0.895677
0.895683
0.895702
0.895705
0.8957
0.8957
0.895713
0.895725
0.895737
0.895736
0.895739
0.89576
0.89579
0.895808
0.89583
0.895873
0.895935
0.896002
0.89608
0.896199
0.896359
0.896533
0.8967
0.896948
0.897263
0.897568
0.897903
0.898409
0.898988
0.899528
0.90025
0.901322
0.902576
0.904002
0.905745
0.907669
0.909722
0.912299
0.915378
0.91835
0.920527
0.92207
0.923399
0.924316
0.924602
0.924665
0.924685
0.925089
0.92588
0.92612
0.926381
0.926889
0.927354
0.927708
0.928318
0.929502
0.931356
0.934359
0.9398
0.949102
0.964606
0.980047
0.997273
1.01242
1.01786
1.02418
1.02458
1.02599
1.02763
1.02977
1.02985
1.02945
1.02796
1.02691
1.02581
1.02481
1.02414
1.02374
1.02321
1.02228
1.02076
1.01824
1.01489
1.01064
1.00638
1.00404
1.00347
1.00346
1.00352
1.0036
1.00365
1.00364
1.00335
1.00263
0.999357
0.895242
0.89524
0.895238
0.895234
0.895226
0.895223
0.895227
0.895246
0.895247
0.895244
0.895248
0.895277
0.895279
0.895278
0.895281
0.895289
0.895335
0.895374
0.895387
0.895402
0.895443
0.8955
0.895565
0.895637
0.895737
0.895871
0.896033
0.896205
0.896414
0.896714
0.897046
0.897362
0.897807
0.898374
0.89897
0.899634
0.90059
0.901748
0.903075
0.904699
0.906633
0.908701
0.911086
0.913957
0.91686
0.919414
0.921544
0.9232
0.924054
0.924282
0.924385
0.924508
0.924941
0.925766
0.926245
0.926688
0.92715
0.927442
0.927735
0.928227
0.929275
0.930562
0.931558
0.932387
0.933525
0.936253
0.940837
0.95145
0.964034
0.981477
0.997323
1.01193
1.02378
1.0261
1.02887
1.02877
1.02693
1.02669
1.02628
1.02531
1.02439
1.02404
1.02401
1.02367
1.02247
1.02006
1.01756
1.01462
1.01074
1.00638
1.00385
1.00336
1.0034
1.00348
1.00355
1.00359
1.00369
1.00355
1.00303
0.999949
0.894833
0.894832
0.894832
0.894826
0.894811
0.894806
0.894809
0.894821
0.894827
0.894826
0.894832
0.89486
0.894864
0.894856
0.894853
0.894858
0.894895
0.894935
0.894962
0.89499
0.895031
0.895096
0.895173
0.895249
0.895347
0.895467
0.895615
0.895778
0.895959
0.896208
0.89653
0.896871
0.897272
0.897806
0.898432
0.899103
0.899946
0.900966
0.902204
0.90371
0.905546
0.907564
0.909853
0.912665
0.915625
0.91827
0.921061
0.923293
0.923895
0.924041
0.924133
0.924305
0.924748
0.925435
0.925996
0.926578
0.927156
0.927541
0.927908
0.928331
0.929225
0.930581
0.931583
0.931859
0.931943
0.931919
0.931593
0.931223
0.93241
0.938269
0.949492
0.966833
0.98651
1.00151
1.01392
1.0175
1.02259
1.02762
1.02736
1.02628
1.02548
1.02518
1.02484
1.02398
1.02182
1.01925
1.01715
1.01479
1.01076
1.00608
1.00371
1.00331
1.00336
1.00342
1.00346
1.0035
1.00361
1.00358
1.0032
1.00044
0.894451
0.894464
0.894477
0.894485
0.894492
0.8945
0.894506
0.894512
0.894525
0.894535
0.894545
0.894578
0.894598
0.894596
0.894597
0.894603
0.894624
0.894675
0.894732
0.894784
0.894834
0.894893
0.894965
0.895034
0.895101
0.895187
0.895302
0.895449
0.895625
0.895837
0.896107
0.896448
0.896848
0.897341
0.897921
0.898558
0.899345
0.900266
0.901378
0.902725
0.904478
0.906485
0.908692
0.911265
0.914278
0.917253
0.920775
0.923163
0.923801
0.923945
0.924029
0.924234
0.924665
0.925273
0.92588
0.926627
0.927292
0.927761
0.92818
0.9286
0.929263
0.930504
0.931422
0.931459
0.931329
0.930995
0.930158
0.928597
0.926178
0.923997
0.924723
0.929677
0.940771
0.960021
0.980793
0.999138
1.01801
1.02605
1.02589
1.02563
1.02561
1.02548
1.02492
1.02308
1.02108
1.01919
1.01767
1.01499
1.01042
1.00583
1.00367
1.00344
1.00345
1.0034
1.0034
1.00342
1.00351
1.00351
1.00325
1.00071
0.894385
0.894395
0.894406
0.89442
0.894434
0.894444
0.89445
0.894452
0.894456
0.894459
0.894463
0.894474
0.894491
0.894506
0.894519
0.89453
0.894541
0.894558
0.894585
0.89462
0.894667
0.894723
0.894783
0.894838
0.894889
0.894956
0.89505
0.895171
0.895331
0.895534
0.895781
0.896088
0.896452
0.896898
0.897412
0.897986
0.898716
0.899588
0.900599
0.901781
0.903399
0.90541
0.907607
0.909909
0.912711
0.915933
0.919603
0.922692
0.923606
0.923905
0.924016
0.924219
0.924641
0.925261
0.925863
0.926538
0.927525
0.92818
0.928632
0.928954
0.929341
0.930245
0.930936
0.930928
0.930694
0.930176
0.929179
0.927539
0.925126
0.922813
0.920923
0.920733
0.921788
0.926273
0.937097
0.95653
0.976956
0.994899
1.00972
1.01768
1.02414
1.02383
1.02157
1.02104
1.02071
1.02005
1.01811
1.01461
1.00961
1.00555
1.00399
1.00356
1.00341
1.00336
1.00342
1.00348
1.00341
1.00328
1.00302
1.00068
0.894122
0.894131
0.89414
0.894149
0.894159
0.89417
0.894181
0.894192
0.894202
0.89421
0.894222
0.894235
0.894249
0.894265
0.894292
0.894309
0.894313
0.894317
0.894329
0.89435
0.894385
0.894441
0.894507
0.894571
0.894636
0.894709
0.8948
0.89492
0.895065
0.895236
0.895457
0.895725
0.896041
0.896453
0.89692
0.897414
0.89803
0.898838
0.899777
0.900885
0.902379
0.90425
0.906435
0.908827
0.911484
0.914515
0.917999
0.921623
0.923363
0.924011
0.924287
0.924488
0.924849
0.925384
0.925959
0.926667
0.927627
0.928257
0.928659
0.928974
0.929436
0.930073
0.930335
0.93029
0.930012
0.929399
0.928341
0.926708
0.924476
0.922151
0.920563
0.920089
0.919701
0.919795
0.920848
0.925323
0.934698
0.954087
0.980869
0.998356
1.01009
1.0127
1.01559
1.02103
1.02212
1.0208
1.01744
1.01259
1.00895
1.00609
1.00437
1.0036
1.00331
1.00336
1.00359
1.00361
1.00334
1.00287
1.00237
1.00014
0.893803
0.893816
0.893829
0.893842
0.893855
0.893869
0.893886
0.893903
0.89392
0.89394
0.893968
0.893992
0.894009
0.894025
0.894055
0.894084
0.894099
0.894115
0.894131
0.894137
0.894148
0.89419
0.89427
0.894335
0.894384
0.894427
0.89448
0.894569
0.894724
0.894908
0.895123
0.895384
0.895668
0.896019
0.896452
0.896922
0.897475
0.898238
0.899154
0.900212
0.901567
0.903279
0.9054
0.907818
0.910453
0.913233
0.916282
0.919889
0.923122
0.924459
0.924869
0.924917
0.925109
0.925611
0.926245
0.926937
0.927715
0.928365
0.928785
0.929145
0.929495
0.92971
0.929721
0.929643
0.929311
0.928615
0.927511
0.925938
0.923961
0.921861
0.920484
0.919996
0.919642
0.919398
0.919364
0.919622
0.92077
0.925415
0.935428
0.955268
0.975425
0.99567
1.01023
1.02033
1.02061
1.01836
1.01361
1.01053
1.0087
1.00646
1.00433
1.00319
1.00319
1.00351
1.00373
1.00369
1.00332
1.00269
1.00205
0.999821
0.893397
0.893414
0.893424
0.893424
0.893426
0.893431
0.893445
0.893465
0.893494
0.893541
0.89359
0.893601
0.893604
0.893617
0.893653
0.893691
0.893721
0.893765
0.893824
0.893901
0.89399
0.894076
0.89415
0.894216
0.894276
0.894339
0.894409
0.894498
0.894618
0.894778
0.894982
0.895222
0.895505
0.895828
0.896225
0.89669
0.89723
0.897959
0.898839
0.899811
0.901015
0.902628
0.904609
0.90683
0.909449
0.912202
0.914845
0.91795
0.922098
0.924433
0.924967
0.925161
0.925554
0.926053
0.926546
0.927141
0.927775
0.928302
0.928773
0.929244
0.92938
0.92935
0.929244
0.929027
0.928604
0.92785
0.926686
0.925164
0.923455
0.921814
0.920805
0.920378
0.919883
0.919347
0.919272
0.919349
0.919501
0.919842
0.921101
0.925344
0.934943
0.953392
0.97265
0.995816
1.00548
1.00915
1.01088
1.01154
1.00995
1.00651
1.00313
1.00301
1.00343
1.00376
1.00376
1.00358
1.00331
1.00276
1.00204
0.999768
0.892981
0.892993
0.893007
0.893024
0.893045
0.893067
0.893093
0.893112
0.893131
0.893161
0.89318
0.893195
0.893217
0.893237
0.893286
0.893345
0.89339
0.89349
0.8936
0.893697
0.893813
0.893925
0.894014
0.894093
0.894174
0.894266
0.89438
0.894503
0.894639
0.894793
0.894973
0.895192
0.895456
0.895775
0.896194
0.896695
0.897227
0.897892
0.8987
0.899599
0.900637
0.902049
0.903842
0.905854
0.908308
0.911088
0.913798
0.916452
0.919961
0.923812
0.925102
0.925634
0.926084
0.926384
0.926687
0.927121
0.9276
0.928098
0.928632
0.929096
0.929169
0.929083
0.928844
0.928475
0.927933
0.927103
0.925892
0.924442
0.923003
0.921706
0.921041
0.92077
0.920323
0.919826
0.91942
0.919369
0.919439
0.919601
0.919589
0.91986
0.920969
0.92453
0.935276
0.95326
0.976474
0.998935
1.00753
1.01058
1.00877
1.00215
1.00169
1.0027
1.0037
1.00364
1.00332
1.00325
1.00366
1.00354
1.00287
1.0003
0.893016
0.893024
0.893036
0.893057
0.893083
0.893105
0.893126
0.89315
0.89317
0.893186
0.893194
0.893206
0.893223
0.893262
0.893319
0.8934
0.893456
0.893507
0.893607
0.893741
0.893877
0.893976
0.894051
0.894131
0.894241
0.894383
0.894534
0.89467
0.894798
0.894918
0.895051
0.895229
0.89547
0.895783
0.896205
0.896748
0.897325
0.897942
0.898673
0.899458
0.900283
0.901392
0.902946
0.904768
0.90686
0.90952
0.912485
0.915242
0.918196
0.921503
0.924368
0.926111
0.926576
0.92673
0.926845
0.927128
0.927473
0.927871
0.928352
0.928759
0.928844
0.928748
0.928446
0.927951
0.927286
0.926408
0.925203
0.923817
0.92259
0.921577
0.921073
0.920972
0.920697
0.920319
0.919974
0.919785
0.919683
0.919615
0.919519
0.919503
0.919357
0.91939
0.920247
0.924393
0.937971
0.956687
0.974385
0.990537
0.994475
0.996197
1.00236
1.0038
1.00357
1.0024
1.00261
1.0032
1.00415
1.00422
1.00386
1.00143
0.89344
0.893443
0.893443
0.893445
0.893452
0.893455
0.893461
0.893479
0.893515
0.893529
0.893528
0.893523
0.893515
0.893503
0.893504
0.893514
0.89354
0.893598
0.893709
0.893815
0.893906
0.893985
0.894054
0.894134
0.894243
0.894387
0.894539
0.894673
0.894786
0.894902
0.895051
0.895235
0.895463
0.895713
0.896028
0.896529
0.897149
0.897722
0.898341
0.899011
0.899684
0.90059
0.901955
0.903606
0.905459
0.907842
0.910737
0.913578
0.91646
0.919769
0.923066
0.925534
0.926745
0.927033
0.92715
0.927269
0.927473
0.927833
0.928265
0.928462
0.928479
0.928381
0.928007
0.92735
0.926564
0.925668
0.924565
0.923396
0.922405
0.921545
0.92097
0.920842
0.920717
0.920462
0.920224
0.920076
0.920046
0.920009
0.919889
0.919534
0.919316
0.919073
0.918949
0.918382
0.919786
0.925239
0.937464
0.953241
0.971744
0.989553
1.00058
1.00223
0.999846
1.00013
1.00181
1.0036
1.00411
1.00411
1.00393
1.00199
0.893892
0.893886
0.893874
0.893859
0.893843
0.893825
0.893792
0.893757
0.89374
0.893728
0.893712
0.893697
0.893677
0.893643
0.893574
0.893527
0.893525
0.893556
0.893641
0.893754
0.893857
0.893938
0.894004
0.894075
0.894166
0.894281
0.894402
0.894512
0.894614
0.89474
0.894957
0.89515
0.895295
0.895455
0.895701
0.896096
0.896655
0.897247
0.897802
0.898407
0.899061
0.899921
0.901106
0.902614
0.904374
0.906492
0.909014
0.911649
0.914443
0.917647
0.921101
0.923629
0.925466
0.927202
0.927689
0.927667
0.92773
0.92798
0.928149
0.928146
0.928114
0.927934
0.927448
0.926702
0.925875
0.924991
0.924047
0.923152
0.922403
0.921714
0.921088
0.920832
0.920683
0.920454
0.920278
0.920218
0.920222
0.92026
0.920285
0.920032
0.919617
0.919099
0.918872
0.918386
0.917636
0.915288
0.915879
0.91902
0.930584
0.951454
0.973525
0.985518
0.99393
0.999844
1.0038
1.00363
1.00261
1.00279
1.00355
1.00209
0.894039
0.89401
0.89397
0.893913
0.893857
0.893802
0.893656
0.893601
0.893618
0.893628
0.893621
0.893624
0.893628
0.893626
0.893618
0.893603
0.893586
0.893601
0.893668
0.893788
0.893943
0.894067
0.894142
0.894201
0.894258
0.894308
0.894357
0.89441
0.894489
0.894607
0.894766
0.894958
0.895152
0.895354
0.895608
0.895931
0.896345
0.896858
0.897382
0.89795
0.898643
0.899494
0.900511
0.901875
0.903502
0.905226
0.907185
0.909435
0.91199
0.914886
0.918282
0.921147
0.923648
0.926312
0.927941
0.927972
0.927934
0.927866
0.927707
0.92749
0.927295
0.927101
0.926788
0.926261
0.925512
0.924658
0.923856
0.923186
0.922666
0.922162
0.921535
0.921146
0.920979
0.920818
0.920679
0.920583
0.920506
0.920465
0.920468
0.920397
0.920074
0.91951
0.918996
0.918466
0.917603
0.915272
0.911501
0.906459
0.907059
0.914981
0.932718
0.959562
0.987524
0.997911
1.0027
0.999996
0.999824
1.00109
1.00218
1.00089
0.893826
0.893783
0.893638
0.893466
0.89347
0.89349
0.893515
0.893575
0.893658
0.893736
0.893805
0.893833
0.89383
0.893812
0.893832
0.893898
0.893983
0.894061
0.894119
0.894199
0.894363
0.894481
0.894521
0.894568
0.894614
0.894644
0.894696
0.89475
0.894768
0.894805
0.894892
0.895024
0.895204
0.895408
0.895642
0.895887
0.89619
0.896622
0.897124
0.897721
0.898442
0.899233
0.900105
0.901293
0.90275
0.904226
0.905857
0.907682
0.909724
0.912133
0.915329
0.91869
0.921912
0.92529
0.927897
0.928246
0.928165
0.927967
0.927627
0.927206
0.926836
0.926602
0.926406
0.926055
0.925432
0.924685
0.923975
0.923355
0.922986
0.922735
0.922234
0.921746
0.921689
0.921635
0.921521
0.921375
0.921253
0.921111
0.920892
0.920559
0.920106
0.919675
0.919308
0.918768
0.917618
0.915125
0.910325
0.904379
0.90085
0.901429
0.90562
0.920591
0.944295
0.966878
0.988741
0.993164
1.00023
1.00213
1.00129
0.999792
0.893439
0.893386
0.893188
0.893134
0.893138
0.893158
0.893201
0.893267
0.893393
0.893569
0.893737
0.893818
0.893818
0.893827
0.89391
0.894028
0.894083
0.894101
0.894146
0.894299
0.894485
0.894569
0.894608
0.894658
0.894693
0.894701
0.894725
0.894786
0.894788
0.894787
0.894815
0.894871
0.894951
0.895117
0.895376
0.895584
0.895751
0.895989
0.896381
0.896911
0.897513
0.898169
0.898873
0.899764
0.90098
0.902405
0.90401
0.905702
0.9075
0.90958
0.912449
0.915981
0.91944
0.922772
0.92621
0.927813
0.92803
0.927996
0.927821
0.927428
0.926904
0.926515
0.926285
0.925966
0.925394
0.924636
0.923847
0.923172
0.922936
0.922902
0.922617
0.922131
0.922072
0.922067
0.922001
0.921905
0.921827
0.921769
0.921588
0.921166
0.920622
0.920158
0.919765
0.919193
0.917839
0.914773
0.909302
0.903006
0.899628
0.899139
0.899436
0.90178
0.909443
0.929989
0.955498
0.982788
0.998665
1.00246
1.00108
0.999561
0.893562
0.893631
0.893641
0.893608
0.893498
0.893328
0.893259
0.893256
0.893251
0.89323
0.893187
0.893182
0.893196
0.893322
0.893462
0.893492
0.893473
0.893452
0.893467
0.893507
0.893509
0.893507
0.893549
0.893639
0.893747
0.893797
0.893862
0.894035
0.894123
0.894114
0.89411
0.894153
0.894268
0.894469
0.89482
0.895084
0.895172
0.895244
0.895433
0.895746
0.896141
0.896619
0.897178
0.897888
0.898911
0.90025
0.901788
0.903474
0.905251
0.907065
0.909327
0.912413
0.9156
0.918375
0.921313
0.924122
0.926377
0.927928
0.928159
0.927953
0.92745
0.926983
0.926624
0.926095
0.925372
0.924514
0.923647
0.923041
0.922819
0.922796
0.922641
0.922261
0.922085
0.922073
0.922033
0.921971
0.921989
0.922067
0.922137
0.922
0.92156
0.921088
0.920649
0.919998
0.918349
0.914575
0.908307
0.90204
0.899303
0.898975
0.898993
0.899115
0.899906
0.904509
0.915409
0.939222
0.967855
0.990296
0.999412
1.00045
0.892936
0.892994
0.893008
0.892984
0.892917
0.892876
0.892853
0.892787
0.892678
0.892648
0.892697
0.892799
0.892814
0.892789
0.892788
0.892795
0.892749
0.892624
0.892555
0.892523
0.89245
0.89235
0.892368
0.892456
0.892636
0.89285
0.893046
0.893358
0.893586
0.893599
0.893591
0.893651
0.893881
0.894376
0.894953
0.895238
0.895364
0.895459
0.895517
0.895547
0.895662
0.89595
0.896395
0.896964
0.89777
0.898791
0.899941
0.901269
0.902709
0.904132
0.90578
0.907911
0.910218
0.912611
0.915533
0.91899
0.922401
0.925327
0.926799
0.927005
0.926992
0.926875
0.926492
0.925964
0.925352
0.92456
0.923624
0.923146
0.923148
0.923341
0.923319
0.923083
0.922776
0.922761
0.92275
0.922714
0.922659
0.922605
0.922488
0.922229
0.921938
0.921619
0.921177
0.920423
0.91847
0.914017
0.907074
0.901353
0.899423
0.899173
0.899139
0.899151
0.899159
0.899378
0.900801
0.908144
0.926069
0.952008
0.980713
0.99757
0.894187
0.894354
0.8945
0.894652
0.894814
0.894878
0.894844
0.894576
0.894283
0.894269
0.894335
0.894308
0.894099
0.89401
0.894124
0.894262
0.894254
0.894019
0.89378
0.893662
0.893495
0.893428
0.893485
0.893647
0.894011
0.894475
0.894575
0.894596
0.894677
0.894681
0.894652
0.894651
0.894795
0.895251
0.895918
0.896633
0.897218
0.897511
0.897587
0.897581
0.897527
0.897572
0.897731
0.898012
0.898521
0.899122
0.899702
0.900408
0.901319
0.902374
0.903542
0.904914
0.906503
0.908308
0.910624
0.913663
0.917035
0.920356
0.922861
0.924274
0.92523
0.925305
0.92528
0.925254
0.925042
0.924513
0.924008
0.923993
0.924124
0.924409
0.924718
0.924636
0.924469
0.924457
0.924474
0.924471
0.924453
0.924331
0.923742
0.922862
0.922289
0.92202
0.921558
0.920158
0.917242
0.912026
0.905584
0.901466
0.900471
0.900391
0.900364
0.900356
0.900307
0.900307
0.900472
0.901305
0.904424
0.917078
0.940295
0.974546
0.901379
0.901584
0.901838
0.902088
0.902327
0.9024
0.902332
0.901875
0.901711
0.901717
0.901893
0.902254
0.902279
0.901976
0.901567
0.901455
0.901471
0.901425
0.901025
0.900712
0.900329
0.899667
0.898959
0.898794
0.899078
0.89939
0.899397
0.899296
0.898824
0.898209
0.898002
0.897959
0.897976
0.898142
0.89846
0.898614
0.898592
0.898536
0.898516
0.898581
0.898579
0.898567
0.898639
0.898693
0.898648
0.898631
0.898714
0.89907
0.899773
0.900632
0.901487
0.902512
0.903948
0.905756
0.907868
0.91034
0.912969
0.915619
0.918285
0.920723
0.922364
0.923184
0.923845
0.924562
0.925022
0.925129
0.92521
0.925307
0.925249
0.925164
0.925234
0.925398
0.925375
0.925324
0.925302
0.925324
0.92532
0.925265
0.924925
0.924367
0.923759
0.923057
0.922046
0.919966
0.915865
0.909638
0.903667
0.901167
0.900883
0.900986
0.901189
0.901445
0.901735
0.902055
0.902421
0.90305
0.904748
0.906733
0.912656
0.943278
0.907449
0.907307
0.907298
0.907387
0.907696
0.907774
0.907657
0.907565
0.907392
0.907069
0.907033
0.907275
0.907861
0.907933
0.907503
0.907399
0.90753
0.907514
0.9073
0.90728
0.907245
0.906924
0.906221
0.905824
0.905909
0.906094
0.906099
0.905894
0.905257
0.90432
0.903592
0.903122
0.902523
0.901911
0.90131
0.900586
0.900208
0.900129
0.900111
0.900207
0.900277
0.900212
0.900092
0.899859
0.899474
0.89939
0.899477
0.899736
0.900155
0.900695
0.901335
0.902166
0.903401
0.905143
0.907224
0.909597
0.912082
0.914449
0.916881
0.919227
0.921233
0.922694
0.923828
0.924763
0.925536
0.926092
0.926697
0.926721
0.926486
0.926025
0.926005
0.926168
0.926171
0.926111
0.925985
0.925928
0.925845
0.925637
0.925566
0.925524
0.92524
0.924403
0.922879
0.920275
0.915342
0.908447
0.902997
0.900912
0.900815
0.901031
0.901494
0.901988
0.902543
0.903201
0.903799
0.904484
0.905481
0.907284
0.909706
0.922176
0.925396
0.924513
0.924447
0.924454
0.924654
0.924974
0.925021
0.924771
0.923971
0.923859
0.923868
0.92372
0.923243
0.922624
0.922221
0.921853
0.921443
0.920647
0.91981
0.919755
0.919849
0.919691
0.919058
0.918432
0.918093
0.918179
0.918815
0.91933
0.919337
0.919125
0.918479
0.918038
0.917797
0.917526
0.917094
0.916238
0.91507
0.914419
0.914051
0.91362
0.913121
0.9126
0.911937
0.911148
0.910764
0.910791
0.910932
0.910906
0.910654
0.910003
0.909255
0.909213
0.909479
0.910068
0.910763
0.911566
0.912596
0.913909
0.915504
0.91736
0.919402
0.92153
0.922954
0.923575
0.924126
0.924984
0.92585
0.926386
0.926798
0.927478
0.928831
0.930103
0.93018
0.930172
0.930175
0.930155
0.929836
0.929012
0.92808
0.927331
0.926832
0.926104
0.924414
0.921063
0.915641
0.908725
0.903643
0.902476
0.902459
0.902578
0.902877
0.903224
0.903621
0.904011
0.904421
0.904938
0.905607
0.906912
0.908918
0.915566
0.942007
0.941638
0.941285
0.941185
0.941232
0.941742
0.942224
0.942097
0.941497
0.941054
0.941015
0.941082
0.941448
0.941753
0.941704
0.941407
0.940977
0.940711
0.939986
0.939036
0.938355
0.937365
0.936583
0.936313
0.936212
0.935808
0.93442
0.933431
0.933121
0.932773
0.931504
0.929691
0.929384
0.929663
0.929562
0.929095
0.929005
0.929151
0.929019
0.927911
0.926253
0.925112
0.924258
0.923374
0.922181
0.921238
0.92086
0.920574
0.920016
0.919211
0.918475
0.917771
0.916909
0.915933
0.915318
0.914497
0.914316
0.914675
0.915792
0.917412
0.919191
0.921116
0.92274
0.923746
0.924668
0.925887
0.927159
0.928395
0.929872
0.931745
0.934046
0.934767
0.934679
0.934615
0.934711
0.934745
0.934575
0.934213
0.933523
0.932247
0.930598
0.92891
0.926774
0.923045
0.91736
0.911612
0.909061
0.908938
0.90917
0.909669
0.910278
0.91083
0.911359
0.911825
0.912379
0.913069
0.913656
0.914265
0.914337
0.917643
0.963218
0.96308
0.963044
0.963192
0.963208
0.962914
0.962013
0.960598
0.959843
0.959889
0.960105
0.959987
0.95912
0.958671
0.958722
0.958548
0.957977
0.957887
0.957849
0.957401
0.956653
0.956108
0.955382
0.955003
0.955208
0.955203
0.954305
0.953043
0.952776
0.952668
0.95222
0.951297
0.950244
0.949291
0.948392
0.946954
0.945419
0.945196
0.945362
0.944957
0.943693
0.942527
0.941552
0.940803
0.939982
0.93895
0.937589
0.936487
0.935466
0.934612
0.93424
0.933745
0.93264
0.931314
0.930853
0.930463
0.929538
0.928723
0.928863
0.9292
0.92943
0.929941
0.931045
0.932395
0.933859
0.934417
0.934364
0.934393
0.934608
0.935284
0.93569
0.935607
0.935483
0.935354
0.934832
0.934394
0.934706
0.935099
0.935106
0.93461
0.933304
0.931145
0.927907
0.923173
0.917187
0.912823
0.911831
0.912075
0.91284
0.914015
0.915259