/*--------------------------------*- C++ -*----------------------------------*\
  =========                 |
  \\      /  F ield         | OpenFOAM: The Open Source CFD Toolbox
   \\    /   O peration     | Website:  https://openfoam.org
    \\  /    A nd           | Version:  7
     \\/     M anipulation  |
\*---------------------------------------------------------------------------*/
FoamFile
{
    version     2.0;
    format      ascii;
    class       volScalarField;
    location    "2";
    object      rho;
}
// * * * * * * * * * * * * * * * * * * * * * * * * * * * * * * * * * * * * * //

dimensions      [1 -3 0 0 0 0 0];

internalField   nonuniform List<scalar> 
90000
(
1.01792
1.02626
1.03558
1.04462
1.0537
1.06231
1.07098
1.07912
1.08739
1.09519
1.10333
1.11128
1.12006
1.12991
1.14184
1.15447
1.16846
1.18231
1.19655
1.21017
1.22402
1.23699
1.24974
1.26179
1.27335
1.28408
1.29414
1.30306
1.31143
1.31828
1.32386
1.3291
1.33219
1.33426
1.3348
1.33478
1.33429
1.33321
1.33081
1.32659
1.31817
1.30902
1.30338
1.29961
1.30002
1.30163
1.30464
1.30815
1.31188
1.31281
1.31315
1.31416
1.31393
1.31317
1.31093
1.30717
1.30474
1.30284
1.30201
1.30221
1.30312
1.30449
1.30462
1.30505
1.3055
1.30474
1.30385
1.30287
1.30135
1.3006
1.30112
1.30092
1.30089
1.3004
1.29939
1.29766
1.29655
1.29606
1.29544
1.29603
1.29755
1.29681
1.29513
1.29382
1.29358
1.29413
1.29499
1.29491
1.295
1.29509
1.29563
1.29518
1.29492
1.29517
1.29589
1.29656
1.29735
1.29835
1.29921
1.30477
1.01198
1.01243
1.01345
1.01498
1.01713
1.01979
1.0231
1.0269
1.03138
1.0363
1.0419
1.04789
1.05459
1.06157
1.06937
1.07762
1.08701
1.09693
1.10807
1.11952
1.13223
1.14521
1.15912
1.17301
1.18765
1.20212
1.21674
1.2312
1.24484
1.25884
1.2708
1.28334
1.29337
1.30356
1.31022
1.31757
1.32107
1.32519
1.32539
1.32637
1.32933
1.33231
1.33359
1.33244
1.32968
1.32525
1.32048
1.31618
1.3139
1.31183
1.31036
1.31072
1.31167
1.31341
1.31537
1.31833
1.31831
1.31743
1.31501
1.31134
1.30792
1.30468
1.30271
1.30306
1.30535
1.30835
1.3118
1.31092
1.30861
1.30521
1.30251
1.30027
1.30098
1.30276
1.30354
1.30242
1.29987
1.29698
1.29712
1.29857
1.29957
1.29892
1.29689
1.2951
1.29516
1.29586
1.29631
1.29592
1.29562
1.29617
1.29657
1.29641
1.29626
1.29644
1.29695
1.29758
1.29833
1.29933
1.30031
1.30582
1.01331
1.01323
1.01319
1.01313
1.01311
1.01313
1.01316
1.0132
1.01329
1.01349
1.01385
1.01435
1.01518
1.0163
1.01771
1.01941
1.02153
1.02409
1.02731
1.03107
1.03572
1.04117
1.04798
1.05557
1.06492
1.07524
1.08776
1.10115
1.11696
1.13334
1.15211
1.17111
1.19168
1.21236
1.23284
1.25361
1.27174
1.29058
1.30513
1.3199
1.32707
1.3325
1.33429
1.33413
1.33354
1.33275
1.33143
1.32927
1.32613
1.32128
1.31801
1.31848
1.31998
1.32222
1.32458
1.32658
1.32663
1.32562
1.32328
1.31933
1.3153
1.30989
1.30876
1.30968
1.3116
1.31412
1.31664
1.31778
1.31654
1.31317
1.30951
1.30807
1.30814
1.30896
1.30833
1.3072
1.30543
1.30374
1.30326
1.30344
1.3034
1.30287
1.30175
1.30031
1.29947
1.29911
1.29951
1.29958
1.2996
1.29957
1.29977
1.29969
1.29937
1.29925
1.2995
1.30003
1.30081
1.30179
1.30256
1.3079
1.01651
1.01645
1.01638
1.01632
1.01624
1.01612
1.01607
1.01599
1.01577
1.01568
1.01568
1.01578
1.01576
1.01572
1.01561
1.01551
1.01551
1.01555
1.01565
1.01572
1.01583
1.01608
1.01654
1.0174
1.01861
1.02019
1.02243
1.0254
1.02955
1.03475
1.04193
1.05053
1.06221
1.07541
1.0927
1.11125
1.13413
1.15771
1.18402
1.21083
1.2352
1.26022
1.27778
1.29572
1.30537
1.31472
1.32021
1.32439
1.32384
1.32529
1.32976
1.33154
1.33348
1.33431
1.33369
1.33222
1.33105
1.32901
1.3272
1.32555
1.32372
1.32335
1.3226
1.32181
1.32079
1.31919
1.3192
1.31971
1.3202
1.32061
1.32096
1.31953
1.31682
1.31423
1.31203
1.31203
1.31271
1.31232
1.31118
1.30963
1.30826
1.30756
1.30743
1.30671
1.30547
1.30476
1.3048
1.30499
1.30469
1.30444
1.30449
1.30464
1.30444
1.30422
1.30426
1.30474
1.30546
1.30606
1.30663
1.31186
1.01925
1.01916
1.01906
1.01897
1.01886
1.01879
1.01872
1.01862
1.01851
1.01833
1.0181
1.01805
1.01805
1.01801
1.01789
1.01762
1.01744
1.01744
1.01747
1.01745
1.01737
1.01736
1.01744
1.01741
1.01737
1.01732
1.01728
1.01724
1.01726
1.01735
1.01757
1.01814
1.01921
1.02086
1.0236
1.0275
1.03379
1.04202
1.05461
1.06956
1.09093
1.11446
1.14399
1.17432
1.20554
1.23695
1.2619
1.28785
1.30577
1.32027
1.32813
1.32985
1.33188
1.33278
1.33221
1.33046
1.32728
1.32466
1.3256
1.32789
1.33104
1.33333
1.33307
1.33076
1.32808
1.32402
1.32143
1.32063
1.32173
1.32393
1.32547
1.32486
1.32317
1.3202
1.31714
1.31695
1.31736
1.31753
1.31709
1.31517
1.31308
1.3119
1.31199
1.31174
1.31082
1.30977
1.30962
1.30989
1.31015
1.30978
1.30956
1.30973
1.30946
1.30908
1.30901
1.30947
1.31038
1.3112
1.31182
1.31687
1.02143
1.02132
1.02122
1.02112
1.021
1.02087
1.02074
1.02063
1.02051
1.0204
1.02027
1.02003
1.01992
1.01989
1.01984
1.0197
1.01943
1.01923
1.0192
1.01918
1.0191
1.01894
1.01876
1.0186
1.01846
1.01833
1.01821
1.01808
1.01795
1.01783
1.01775
1.01756
1.01733
1.01708
1.01685
1.01664
1.01654
1.01669
1.01733
1.01869
1.02161
1.0262
1.03462
1.04611
1.06473
1.08668
1.1169
1.14855
1.1846
1.21798
1.24785
1.2715
1.28794
1.30443
1.30804
1.31391
1.31675
1.32421
1.33036
1.33552
1.3374
1.33682
1.33552
1.33235
1.32668
1.32556
1.32384
1.32457
1.32606
1.32729
1.32636
1.32464
1.32293
1.32218
1.32223
1.32186
1.32108
1.32012
1.31871
1.31761
1.31623
1.31534
1.31526
1.31504
1.31485
1.31415
1.31307
1.31286
1.31304
1.31359
1.31356
1.31368
1.31394
1.31335
1.31312
1.31337
1.31403
1.31462
1.31525
1.3204
1.02261
1.0225
1.02239
1.02227
1.02214
1.02202
1.02189
1.02175
1.02161
1.02148
1.02136
1.02123
1.02107
1.02095
1.02084
1.02073
1.02059
1.02041
1.02023
1.02012
1.02003
1.01992
1.01977
1.0196
1.01944
1.01927
1.01909
1.01889
1.01867
1.01845
1.0182
1.01793
1.01763
1.01732
1.01697
1.01664
1.01632
1.01596
1.01556
1.0152
1.01487
1.01449
1.01451
1.01489
1.01623
1.01911
1.02512
1.0347
1.05126
1.07406
1.10383
1.14165
1.17869
1.21756
1.25045
1.28076
1.30255
1.31911
1.32601
1.331
1.33337
1.33239
1.32704
1.32221
1.32288
1.32504
1.32805
1.33071
1.33005
1.32862
1.32505
1.32231
1.32131
1.32241
1.32386
1.32411
1.3232
1.32148
1.31915
1.31808
1.3176
1.317
1.31626
1.31526
1.31515
1.31546
1.31567
1.31505
1.31451
1.31483
1.31541
1.31533
1.31516
1.31505
1.315
1.3158
1.31707
1.31747
1.3177
1.32255
1.02328
1.02315
1.02303
1.02288
1.02274
1.02261
1.02249
1.02234
1.02218
1.02203
1.02189
1.02176
1.02162
1.02149
1.02136
1.02122
1.02109
1.02095
1.02079
1.02063
1.02051
1.02039
1.02025
1.02008
1.01992
1.01975
1.01956
1.01935
1.01914
1.01891
1.01866
1.01838
1.01807
1.01772
1.01733
1.01695
1.01653
1.01612
1.01563
1.01516
1.01469
1.01431
1.01391
1.01346
1.01297
1.01248
1.01197
1.01208
1.01286
1.01512
1.02054
1.03043
1.0487
1.07299
1.10904
1.14704
1.18909
1.22716
1.25671
1.27979
1.29432
1.30422
1.30815
1.31999
1.32798
1.33305
1.33414
1.3337
1.331
1.32546
1.32209
1.32096
1.32219
1.32474
1.32448
1.32382
1.32195
1.32008
1.3187
1.31865
1.3185
1.31781
1.31663
1.31516
1.31499
1.31536
1.31566
1.31561
1.31533
1.31541
1.3158
1.31571
1.31538
1.3154
1.3157
1.31643
1.31779
1.31877
1.31918
1.32396
1.02352
1.02339
1.02325
1.02313
1.02297
1.02283
1.0227
1.02256
1.02241
1.02226
1.02212
1.02197
1.02182
1.0217
1.02158
1.02144
1.0213
1.02116
1.02102
1.02088
1.02076
1.02064
1.0205
1.02033
1.02016
1.01999
1.01982
1.01963
1.01943
1.0192
1.01893
1.01864
1.01833
1.01796
1.01758
1.0172
1.01679
1.01632
1.01583
1.01533
1.01492
1.01448
1.01402
1.01348
1.0129
1.01223
1.01165
1.01109
1.01061
1.0102
1.0098
1.00997
1.01096
1.01367
1.0208
1.03304
1.05615
1.0871
1.12867
1.17435
1.21758
1.25819
1.28996
1.31354
1.32337
1.328
1.32984
1.32664
1.31853
1.31921
1.32262
1.325
1.32646
1.32563
1.32373
1.32086
1.31884
1.31849
1.31931
1.3196
1.31889
1.3176
1.31631
1.3155
1.31547
1.31529
1.31511
1.31522
1.31559
1.31606
1.31649
1.31612
1.31567
1.31568
1.31626
1.31712
1.31798
1.31879
1.31929
1.32389
1.02354
1.02339
1.02323
1.0231
1.02294
1.02279
1.02267
1.02255
1.02243
1.02229
1.02215
1.02204
1.0219
1.02177
1.02164
1.0215
1.02135
1.02121
1.02107
1.02093
1.02081
1.02068
1.02053
1.02036
1.02021
1.02005
1.01989
1.01971
1.01951
1.01928
1.01902
1.01875
1.01845
1.01811
1.01778
1.01743
1.01704
1.01658
1.0161
1.01564
1.01524
1.01479
1.0143
1.01375
1.01317
1.01249
1.01177
1.01108
1.01059
1.01017
1.00983
1.00947
1.00912
1.00868
1.00802
1.00828
1.01001
1.01466
1.02592
1.04577
1.07803
1.11966
1.16781
1.21373
1.24874
1.27716
1.29226
1.30242
1.31099
1.32451
1.33106
1.33063
1.32893
1.32277
1.31767
1.31749
1.31795
1.31975
1.32086
1.31997
1.31788
1.31624
1.31594
1.3162
1.31625
1.3154
1.3146
1.31466
1.31556
1.31656
1.31697
1.31607
1.3156
1.31579
1.31651
1.31767
1.31867
1.31901
1.31923
1.32359
1.02351
1.02336
1.02319
1.02303
1.02291
1.02277
1.02261
1.02247
1.02232
1.02214
1.02197
1.02183
1.02167
1.02151
1.02134
1.02114
1.02099
1.02084
1.02068
1.02052
1.02036
1.02022
1.02007
1.0199
1.01974
1.01958
1.01941
1.01925
1.01908
1.01885
1.01861
1.01837
1.01808
1.01775
1.01746
1.01715
1.01677
1.01635
1.01595
1.01559
1.01524
1.01486
1.0144
1.01389
1.01333
1.01272
1.01202
1.0114
1.01093
1.01061
1.01032
1.01
1.0097
1.00919
1.00855
1.00783
1.00714
1.00638
1.00655
1.00786
1.01258
1.02258
1.04483
1.07652
1.12235
1.17706
1.22273
1.27141
1.30279
1.32064
1.3267
1.32667
1.32125
1.31229
1.31334
1.31653
1.32096
1.32174
1.32087
1.31843
1.31546
1.31537
1.31646
1.31737
1.31663
1.3149
1.31429
1.31488
1.31606
1.31709
1.31702
1.31587
1.31559
1.31592
1.31655
1.31762
1.31902
1.31967
1.31947
1.32344
1.0236
1.02345
1.02331
1.02315
1.023
1.02284
1.02267
1.02251
1.02231
1.02209
1.02189
1.02173
1.02156
1.02138
1.02118
1.02098
1.02082
1.02066
1.02049
1.0203
1.02012
1.01994
1.01977
1.01962
1.01945
1.01926
1.01907
1.01893
1.01877
1.01855
1.01833
1.01808
1.01777
1.01747
1.01724
1.01695
1.01657
1.01622
1.01595
1.0157
1.01541
1.01505
1.01458
1.01406
1.01349
1.01285
1.01224
1.01177
1.01145
1.01121
1.01097
1.01074
1.01045
1.01003
1.00946
1.00882
1.00805
1.00732
1.00661
1.00578
1.00551
1.00581
1.00756
1.01199
1.02474
1.04577
1.08602
1.13462
1.18767
1.2388
1.26649
1.29115
1.29802
1.31243
1.31931
1.32479
1.32414
1.32211
1.31759
1.31524
1.31521
1.31683
1.31827
1.31786
1.31584
1.31436
1.31483
1.31631
1.31709
1.3176
1.31704
1.31619
1.31615
1.31631
1.31653
1.31742
1.31897
1.31988
1.31984
1.32361
1.02355
1.0234
1.02326
1.0231
1.02294
1.02277
1.0226
1.02242
1.02222
1.02202
1.02185
1.02169
1.0215
1.02132
1.02112
1.02093
1.02076
1.02058
1.02041
1.02022
1.02003
1.01984
1.01964
1.01946
1.01928
1.01909
1.01889
1.0187
1.0185
1.01828
1.01805
1.01774
1.01739
1.01715
1.01696
1.01669
1.01639
1.01607
1.01584
1.01572
1.01553
1.01522
1.01478
1.01425
1.01362
1.01294
1.01233
1.01193
1.01172
1.01156
1.01133
1.0111
1.01088
1.01054
1.01011
1.00957
1.00882
1.00803
1.00734
1.00646
1.00592
1.00571
1.00547
1.00497
1.00522
1.00676
1.01324
1.027
1.05928
1.10291
1.16206
1.21943
1.26623
1.30635
1.31469
1.32197
1.31972
1.31192
1.31157
1.31388
1.31773
1.31912
1.31867
1.31693
1.31457
1.31486
1.31685
1.31756
1.31756
1.31782
1.31739
1.31704
1.31672
1.31644
1.3165
1.31712
1.31855
1.31987
1.32
1.32397
1.02368
1.02355
1.02341
1.02325
1.02308
1.02291
1.02274
1.02256
1.02236
1.02217
1.02199
1.02182
1.02161
1.0214
1.02121
1.02104
1.02086
1.02066
1.02047
1.02029
1.0201
1.01992
1.0197
1.0195
1.01931
1.01911
1.01891
1.01871
1.01851
1.01831
1.01802
1.01761
1.01725
1.01709
1.01696
1.01675
1.01647
1.01607
1.01569
1.01567
1.01566
1.01549
1.01512
1.01455
1.01381
1.0131
1.01265
1.01236
1.01211
1.01189
1.01156
1.01131
1.01118
1.01094
1.01053
1.00995
1.00913
1.0084
1.00783
1.00703
1.00636
1.00613
1.00585
1.00537
1.00474
1.00381
1.0034
1.00399
1.00724
1.01655
1.0404
1.07859
1.13502
1.19453
1.23618
1.28032
1.28703
1.30113
1.31213
1.3216
1.32099
1.31905
1.31576
1.31412
1.31454
1.31743
1.31856
1.31798
1.31778
1.31794
1.3183
1.31828
1.31725
1.31653
1.31655
1.31735
1.31865
1.3195
1.31995
1.32437
1.02402
1.0239
1.02378
1.02363
1.02347
1.02331
1.02314
1.02295
1.02275
1.02255
1.02237
1.02218
1.02197
1.02172
1.02151
1.02137
1.02118
1.02096
1.02076
1.02058
1.02038
1.02019
1.01997
1.01973
1.01952
1.0193
1.01905
1.01886
1.01871
1.0185
1.01814
1.01765
1.01749
1.01745
1.01736
1.01717
1.01678
1.01633
1.01622
1.01626
1.01626
1.01611
1.01574
1.01516
1.01443
1.01384
1.01344
1.01307
1.01268
1.01225
1.01172
1.01152
1.01148
1.01131
1.01088
1.01019
1.00924
1.00851
1.008
1.00735
1.00668
1.0064
1.00614
1.00566
1.0049
1.00398
1.00321
1.00259
1.00198
1.00206
1.0035
1.00932
1.02715
1.05921
1.11616
1.17984
1.23413
1.29086
1.30695
1.319
1.3171
1.30895
1.30876
1.3119
1.31737
1.31923
1.3184
1.31671
1.31716
1.31874
1.31939
1.3187
1.31676
1.31636
1.31676
1.31762
1.31839
1.31901
1.31969
1.32497
1.02484
1.02467
1.02455
1.02443
1.02427
1.02411
1.02398
1.02384
1.02368
1.02346
1.02324
1.02306
1.02292
1.02273
1.02249
1.02233
1.02216
1.02199
1.02181
1.0216
1.02136
1.02114
1.02089
1.02063
1.02043
1.02015
1.01979
1.01959
1.0194
1.01903
1.01839
1.01811
1.01808
1.01807
1.01804
1.01791
1.0175
1.01694
1.01679
1.01683
1.01688
1.01677
1.01642
1.01578
1.015
1.01451
1.01419
1.01379
1.01333
1.01268
1.01191
1.01174
1.01175
1.01164
1.0112
1.01037
1.00929
1.00856
1.00807
1.00745
1.00673
1.00649
1.00631
1.00589
1.00503
1.00407
1.00333
1.00279
1.00235
1.00175
1.00098
0.999864
1.00041
1.00419
1.01833
1.04556
1.10158
1.1657
1.21725
1.27419
1.28126
1.29521
1.30608
1.31806
1.32009
1.31842
1.31435
1.31538
1.31794
1.32043
1.32012
1.31802
1.31643
1.3164
1.31738
1.31767
1.318
1.31859
1.32012
1.32562
1.02634
1.02617
1.02598
1.02581
1.02565
1.02546
1.02532
1.0252
1.0251
1.02497
1.02478
1.02449
1.02428
1.02414
1.024
1.02381
1.0236
1.02339
1.0232
1.02296
1.0227
1.02247
1.02217
1.02187
1.02165
1.02131
1.021
1.02083
1.02049
1.01989
1.01932
1.01895
1.01883
1.01879
1.01876
1.01869
1.0183
1.01766
1.01742
1.01745
1.0176
1.01758
1.01728
1.01649
1.01555
1.01509
1.0148
1.01437
1.01391
1.01327
1.0123
1.01196
1.01195
1.01185
1.01141
1.01047
1.00917
1.00847
1.00814
1.00766
1.00686
1.00651
1.00638
1.00602
1.00511
1.00408
1.0034
1.00294
1.00255
1.00208
1.00133
1.00022
0.999064
0.997673
0.997913
1.00024
1.01221
1.03725
1.0932
1.16225
1.22384
1.2844
1.30009
1.31434
1.31343
1.30658
1.30884
1.31445
1.31997
1.32073
1.31969
1.31698
1.31645
1.31727
1.31776
1.31756
1.31772
1.3192
1.32042
1.32566
1.02726
1.02718
1.0271
1.027
1.02687
1.02669
1.02631
1.02608
1.0261
1.0261
1.02603
1.02579
1.02547
1.02528
1.02521
1.02515
1.02503
1.02482
1.02458
1.02436
1.02409
1.02391
1.02372
1.02345
1.02319
1.02288
1.02265
1.02249
1.02211
1.02152
1.02092
1.02027
1.01984
1.01976
1.01979
1.01977
1.01935
1.01847
1.01815
1.01818
1.01836
1.01836
1.01802
1.01704
1.01606
1.01558
1.01518
1.01457
1.01416
1.01382
1.01312
1.01227
1.01205
1.01191
1.01151
1.01058
1.00928
1.0087
1.00848
1.00808
1.00731
1.00677
1.00651
1.00603
1.00507
1.00387
1.00322
1.00296
1.00269
1.00228
1.00156
1.00045
0.999074
0.997924
0.997017
0.995306
0.994904
0.996836
1.00805
1.03281
1.09109
1.15817
1.21347
1.2689
1.28138
1.29634
1.31294
1.32071
1.32083
1.31862
1.3168
1.31703
1.3181
1.3181
1.31752
1.31714
1.31801
1.31996
1.32055
1.32532
1.02781
1.02772
1.02769
1.02766
1.02756
1.02741
1.02727
1.02703
1.02672
1.02658
1.0266
1.02661
1.02655
1.02632
1.02604
1.026
1.02599
1.02592
1.02578
1.02552
1.02516
1.0251
1.02509
1.02497
1.02469
1.02421
1.02388
1.02374
1.0235
1.02303
1.02225
1.02136
1.02098
1.02094
1.02096
1.02091
1.02043
1.0194
1.0189
1.0189
1.01896
1.01889
1.01841
1.01742
1.01648
1.01586
1.01526
1.01474
1.01449
1.01424
1.01385
1.01315
1.01235
1.0119
1.01144
1.0107
1.00981
1.00933
1.00897
1.00854
1.00788
1.00723
1.00695
1.00655
1.00567
1.00445
1.00357
1.0031
1.0028
1.0024
1.00172
1.0007
0.999407
0.998007
0.996883
0.995798
0.994454
0.992467
0.992433
0.99432
1.00593
1.03167
1.0905
1.16028
1.2297
1.28665
1.30694
1.31656
1.31237
1.30849
1.31324
1.31932
1.31866
1.3176
1.31609
1.31673
1.31921
1.32015
1.32048
1.32445
1.02867
1.02849
1.02834
1.02815
1.02807
1.02804
1.02794
1.02764
1.02741
1.0274
1.02742
1.02739
1.02729
1.02704
1.02674
1.02664
1.02668
1.02669
1.02659
1.02635
1.02608
1.02589
1.02586
1.02587
1.02577
1.02513
1.02462
1.02445
1.02419
1.02372
1.02289
1.02214
1.02201
1.02199
1.0219
1.02149
1.02079
1.02011
1.01982
1.01969
1.01942
1.01883
1.01799
1.01725
1.01664
1.01587
1.01507
1.01486
1.01477
1.01457
1.01425
1.01374
1.01296
1.01223
1.01169
1.01115
1.01063
1.01012
1.0095
1.00903
1.00855
1.00793
1.00751
1.00703
1.00619
1.00507
1.00413
1.00339
1.00295
1.00253
1.00192
1.00103
0.999881
0.99857
0.997292
0.99602
0.99467
0.993042
0.991699
0.99018
0.990037
0.992018
1.00373
1.03259
1.09413
1.16531
1.22735
1.26849
1.28855
1.30613
1.32236
1.32165
1.31685
1.314
1.31503
1.31885
1.32067
1.31939
1.31912
1.32334
1.02991
1.02988
1.02974
1.02923
1.02892
1.02886
1.02882
1.02874
1.02852
1.02836
1.02836
1.02827
1.02793
1.0278
1.02769
1.0275
1.02746
1.02743
1.02728
1.02691
1.02665
1.02657
1.02648
1.02632
1.02619
1.02586
1.02534
1.0248
1.02435
1.02388
1.02329
1.02285
1.02258
1.02238
1.02213
1.02161
1.02095
1.02054
1.02037
1.02018
1.01976
1.01896
1.01788
1.01722
1.01668
1.0157
1.01505
1.01497
1.01497
1.01485
1.0145
1.01399
1.01337
1.01269
1.01232
1.01213
1.01177
1.01092
1.00966
1.00922
1.00897
1.00856
1.00802
1.0074
1.00661
1.00571
1.00492
1.00412
1.00339
1.00281
1.00221
1.00143
1.00035
0.99903
0.99762
0.996219
0.994763
0.993148
0.991697
0.990531
0.989235
0.987549
0.987782
0.990852
1.0046
1.03958
1.10339
1.17615
1.25988
1.29753
1.31814
1.31615
1.30547
1.31005
1.31747
1.32088
1.31991
1.31732
1.31778
1.32264
1.03099
1.03087
1.03057
1.02983
1.02942
1.0294
1.02947
1.02952
1.02935
1.02896
1.02887
1.02884
1.02877
1.02863
1.02847
1.0282
1.02794
1.02776
1.02753
1.02706
1.02649
1.02625
1.02618
1.02608
1.02588
1.02556
1.02515
1.02469
1.02436
1.02396
1.02368
1.0234
1.02272
1.02205
1.02195
1.02186
1.02148
1.02095
1.02063
1.0203
1.01981
1.01907
1.01792
1.01713
1.01677
1.0162
1.01532
1.01508
1.01506
1.01506
1.01481
1.01433
1.0136
1.01296
1.01285
1.01293
1.01275
1.01157
1.00972
1.00925
1.00911
1.00886
1.00832
1.00756
1.00677
1.00609
1.00556
1.00494
1.00413
1.0033
1.00254
1.00174
1.00072
0.999437
0.99797
0.996457
0.994911
0.993191
0.991687
0.990547
0.989303
0.987844
0.987148
0.986979
0.987682
0.992317
1.00724
1.04971
1.11689
1.19011
1.25864
1.27833
1.29436
1.31801
1.32092
1.31831
1.31513
1.31611
1.31884
1.324
1.03167
1.03125
1.03071
1.03056
1.03057
1.0307
1.03071
1.03061
1.03036
1.03004
1.02983
1.02969
1.02958
1.02949
1.02938
1.02924
1.02907
1.02879
1.02835
1.02766
1.0268
1.02646
1.02642
1.02636
1.02613
1.02549
1.02511
1.02512
1.0251
1.02494
1.02462
1.02397
1.02301
1.02275
1.02272
1.02262
1.02229
1.02175
1.02121
1.02063
1.02005
1.01955
1.01866
1.01749
1.01738
1.01733
1.0168
1.01614
1.01591
1.01562
1.01508
1.01457
1.0138
1.01327
1.01323
1.01332
1.01311
1.01183
1.00981
1.00931
1.00926
1.00911
1.00862
1.00775
1.00691
1.00631
1.00587
1.0054
1.0047
1.00379
1.00285
1.00193
1.00087
0.999576
0.998092
0.996574
0.994978
0.993215
0.991644
0.990491
0.989269
0.987963
0.987442
0.987229
0.987246
0.986996
0.987595
0.992912
1.01165
1.06412
1.13603
1.2204
1.2844
1.31155
1.31397
1.30301
1.30947
1.31934
1.32045
1.3234
1.03183
1.03176
1.03176
1.03177
1.03187
1.03193
1.03187
1.03166
1.03131
1.03103
1.03085
1.03054
1.03027
1.03019
1.03012
1.03007
1.02997
1.0297
1.02917
1.02816
1.02715
1.02699
1.02697
1.02689
1.02663
1.02595
1.02551
1.02541
1.02541
1.02554
1.02569
1.02558
1.02515
1.02453
1.02405
1.02374
1.02335
1.0228
1.02205
1.02114
1.02036
1.02005
1.01975
1.01933
1.01918
1.01898
1.01838
1.01748
1.01667
1.01592
1.01532
1.01464
1.01377
1.01352
1.01353
1.01355
1.0131
1.01156
1.00995
1.00968
1.00969
1.0096
1.00922
1.00845
1.00748
1.0066
1.00597
1.00549
1.00493
1.00411
1.00314
1.00207
1.0009
0.999555
0.998091
0.996602
0.994999
0.993194
0.991506
0.990645
0.989656
0.988171
0.987567
0.987348
0.987375
0.987244
0.986347
0.986156
0.987249
0.994883
1.02195
1.08292
1.16529
1.22896
1.27539
1.28885
1.32023
1.32339
1.32031
1.3211
1.03255
1.03256
1.03255
1.03255
1.03262
1.03274
1.03269
1.03244
1.03185
1.03155
1.03152
1.0314
1.03111
1.03103
1.03107
1.03117
1.03118
1.03095
1.03039
1.02947
1.02856
1.02833
1.02824
1.02809
1.02771
1.02718
1.02697
1.02687
1.02684
1.0269
1.02701
1.02699
1.02678
1.0262
1.02541
1.02479
1.02423
1.0236
1.02289
1.0218
1.02053
1.02027
1.02026
1.02042
1.02059
1.02043
1.01968
1.01852
1.01755
1.01693
1.01626
1.01507
1.01417
1.01407
1.01409
1.01395
1.01322
1.01183
1.01069
1.0103
1.01028
1.01021
1.00993
1.00926
1.00818
1.00698
1.00603
1.0055
1.00504
1.00435
1.00338
1.00216
1.00091
0.999462
0.997984
0.996557
0.995171
0.993644
0.992052
0.990933
0.9899
0.988387
0.987626
0.98736
0.987377
0.987238
0.98647
0.985434
0.984259
0.984297
0.986739
0.999453
1.03898
1.10842
1.20361
1.27186
1.31276
1.31743
1.30919
1.31561
1.03255
1.03253
1.0325
1.03249
1.03254
1.03267
1.03258
1.03207
1.03134
1.0312
1.03121
1.03124
1.03101
1.03058
1.0305
1.03057
1.03061
1.03048
1.03004
1.02935
1.02859
1.02817
1.02797
1.02776
1.02745
1.02716
1.027
1.02685
1.0268
1.02686
1.02698
1.02698
1.02682
1.02629
1.02535
1.02436
1.02346
1.02275
1.02219
1.02132
1.02018
1.01991
1.0199
1.02018
1.02049
1.0204
1.01967
1.01817
1.01769
1.01759
1.01714
1.016
1.01498
1.01483
1.01475
1.0145
1.01391
1.01315
1.01234
1.01122
1.01051
1.0103
1.01006
1.00959
1.00879
1.00762
1.0063
1.00546
1.00498
1.00441
1.00351
1.00228
1.00092
0.999527
0.998131
0.996943
0.995787
0.994389
0.992582
0.991081
0.989948
0.988766
0.987706
0.987322
0.987113
0.986684
0.986
0.985062
0.984227
0.983616
0.983562
0.984264
0.988999
1.0108
1.05931
1.14377
1.22576
1.26437
1.29126
1.31832
1.03028
1.03028
1.03022
1.03004
1.02947
1.02837
1.02802
1.02798
1.02795
1.02792
1.02794
1.02806
1.02798
1.02766
1.02751
1.02749
1.02749
1.02752
1.0276
1.02761
1.02747
1.02722
1.02693
1.02665
1.02642
1.02627
1.02616
1.02604
1.02581
1.02537
1.02513
1.02508
1.02494
1.02436
1.02341
1.02254
1.02213
1.02189
1.02175
1.02154
1.02094
1.01997
1.01971
1.01974
1.01962
1.01921
1.01857
1.01815
1.01815
1.01814
1.01778
1.0168
1.01569
1.01517
1.01492
1.01463
1.01425
1.01384
1.01313
1.0116
1.01036
1.01009
1.00989
1.00951
1.00883
1.00773
1.00622
1.00506
1.0045
1.00404
1.00331
1.0023
1.00113
1.00002
0.998751
0.99747
0.996202
0.994738
0.992879
0.991108
0.989931
0.988794
0.987741
0.987009
0.986453
0.985932
0.985407
0.984681
0.983941
0.983345
0.982935
0.982581
0.982626
0.98431
0.992447
1.02908
1.0908
1.18456
1.27201
1.31336
1.02826
1.02784
1.02737
1.02655
1.02492
1.02374
1.02361
1.0236
1.02361
1.02373
1.02386
1.02382
1.02373
1.02373
1.0238
1.02397
1.02433
1.02448
1.02446
1.02445
1.0246
1.02478
1.02478
1.02469
1.02465
1.02473
1.02479
1.02476
1.02455
1.02404
1.02383
1.02383
1.02373
1.0228
1.0214
1.02121
1.02149
1.02256
1.02344
1.02351
1.0232
1.02227
1.02097
1.01956
1.01841
1.01781
1.01771
1.0178
1.01797
1.01795
1.01764
1.01677
1.01546
1.0148
1.01455
1.01438
1.01418
1.01384
1.01306
1.01113
1.00874
1.00818
1.00815
1.00814
1.00782
1.00695
1.00571
1.00466
1.00426
1.00401
1.00357
1.00274
1.00169
1.0006
0.99931
0.997778
0.996358
0.994808
0.992938
0.990982
0.989584
0.988261
0.987181
0.986482
0.986099
0.985879
0.985465
0.984802
0.984118
0.983677
0.983313
0.982916
0.982427
0.982088
0.982442
0.98631
1.00243
1.05662
1.13378
1.2409
1.0335
1.03324
1.03273
1.03188
1.02997
1.0281
1.02728
1.02682
1.0266
1.02654
1.02641
1.02596
1.02569
1.02565
1.02564
1.02567
1.02592
1.02631
1.02635
1.02631
1.02632
1.02647
1.02647
1.02627
1.02621
1.02628
1.02626
1.02623
1.02632
1.02659
1.02692
1.02699
1.02675
1.02622
1.02544
1.02486
1.02486
1.02557
1.0263
1.02624
1.02555
1.02417
1.02242
1.02031
1.0192
1.01914
1.01924
1.01927
1.01913
1.0186
1.01737
1.01465
1.01246
1.01224
1.0123
1.01252
1.01259
1.01245
1.01156
1.0093
1.00698
1.00644
1.00641
1.00647
1.00638
1.0057
1.005
1.00487
1.00472
1.0045
1.00398
1.003
1.00183
1.00068
0.999372
0.9978
0.996205
0.994407
0.992396
0.990322
0.988645
0.987492
0.986659
0.986013
0.985778
0.985534
0.984923
0.98439
0.984041
0.983654
0.983275
0.982777
0.982171
0.981633
0.981373
0.981539
0.982838
0.992263
1.02117
1.13336
1.04745
1.04661
1.04553
1.04404
1.04221
1.04107
1.04051
1.0399
1.03947
1.03938
1.0394
1.03921
1.03827
1.03776
1.03771
1.03763
1.03764
1.03763
1.03736
1.03646
1.03556
1.03477
1.03395
1.03367
1.03313
1.03186
1.03046
1.03001
1.03005
1.02992
1.0288
1.02834
1.02785
1.02751
1.02745
1.02731
1.02731
1.02791
1.02821
1.0276
1.0253
1.02199
1.01972
1.01887
1.01862
1.01869
1.01887
1.01901
1.01902
1.01864
1.01739
1.01466
1.01166
1.01103
1.01104
1.01116
1.01141
1.01149
1.01114
1.00959
1.00729
1.00623
1.00611
1.00616
1.00615
1.00582
1.00485
1.00428
1.004
1.00363
1.00281
1.0013
0.999603
0.998294
0.997082
0.995714
0.994159
0.992492
0.990887
0.989453
0.988068
0.987591
0.987131
0.986877
0.986605
0.98607
0.985272
0.984396
0.983748
0.983111
0.982271
0.981587
0.981409
0.981069
0.98133
0.981947
0.982882
0.983873
0.986998
1.03223
1.05474
1.05451
1.05395
1.05199
1.04916
1.04853
1.04828
1.048
1.04773
1.04765
1.04825
1.04901
1.04895
1.04908
1.05048
1.05149
1.05153
1.05188
1.05191
1.05061
1.05008
1.04965
1.04849
1.04706
1.04501
1.04208
1.04001
1.03972
1.03975
1.03929
1.03766
1.0359
1.03499
1.03486
1.03503
1.03505
1.03385
1.03228
1.03146
1.02965
1.02673
1.02434
1.0228
1.02212
1.02212
1.0225
1.02266
1.02268
1.02315
1.02382
1.02364
1.02221
1.01873
1.01531
1.01407
1.01362
1.01344
1.01362
1.01475
1.01494
1.01382
1.01214
1.01117
1.01036
1.00943
1.00815
1.0062
1.00503
1.00453
1.00389
1.00243
1.00018
0.997895
0.996428
0.995435
0.994198
0.992546
0.991029
0.989802
0.988354
0.98734
0.987024
0.987199
0.986952
0.986507
0.985696
0.984738
0.983768
0.982655
0.981487
0.980623
0.980524
0.980565
0.980901
0.981301
0.982074
0.982774
0.983265
0.983607
0.993963
1.09133
1.0912
1.09134
1.09182
1.092
1.09148
1.08786
1.08574
1.08549
1.08383
1.08075
1.08004
1.08008
1.08086
1.08146
1.08123
1.08126
1.08137
1.08089
1.0785
1.07674
1.07657
1.0772
1.0781
1.07761
1.07489
1.07112
1.07029
1.07075
1.07156
1.07127
1.06964
1.06865
1.06875
1.06913
1.06854
1.06594
1.06171
1.05799
1.05599
1.05351
1.05019
1.04918
1.04785
1.04549
1.04449
1.04293
1.04076
1.04034
1.0405
1.04127
1.04152
1.03983
1.03423
1.02942
1.02629
1.02341
1.02217
1.02219
1.02201
1.02051
1.01727
1.01477
1.01287
1.01099
1.00844
1.00538
1.00386
1.00349
1.00292
1.00167
0.999728
0.997806
0.996489
0.995773
0.994667
0.993242
0.992862
0.992384
0.991125
0.989568
0.988329
0.986916
0.98562
0.984036
0.981992
0.981085
0.980642
0.980021
0.97981
0.979945
0.98015
0.9804
0.980676
0.981074
0.981732
0.982404
0.982637
0.983031
0.986199
1.14277
1.14337
1.14332
1.14315
1.14288
1.14197
1.13994
1.13822
1.13794
1.13805
1.13771
1.13605
1.13496
1.13384
1.13238
1.13219
1.13139
1.12911
1.12833
1.12748
1.12567
1.12375
1.12079
1.11844
1.11641
1.1138
1.11072
1.10743
1.10524
1.10375
1.10079
1.09913
1.09862
1.09697
1.09335
1.09249
1.09321
1.09272
1.0903
1.08882
1.08781
1.086
1.08411
1.08206
1.07891
1.07534
1.07183
1.06679
1.05938
1.05462
1.05423
1.05548
1.05506
1.05025
1.04587
1.04559
1.04471
1.04028
1.03472
1.03113
1.02771
1.02341
1.02089
1.01975
1.01849
1.01642
1.01271
1.00851
1.00792
1.00771
1.00681
1.00566
1.00369
1.00217
1.00181
1.00088
0.999515
0.997944
0.996277
0.99423
0.99164
0.989481
0.987315
0.985225
0.983064
0.98087
0.979387
0.978551
0.97803
0.978132
0.978321
0.97901
0.979291
0.979814
0.980203
0.98043
0.98099
0.981792
0.982752
0.985458
1.19757
1.19758
1.19767
1.1975
1.19595
1.1948
1.19476
1.19439
1.19269
1.18984
1.18872
1.18884
1.18862
1.18737
1.18402
1.18159
1.18122
1.18037
1.17962
1.17988
1.17958
1.17763
1.17522
1.17388
1.17286
1.17144
1.17082
1.17011
1.16864
1.16557
1.16192
1.15885
1.15645
1.15395
1.15084
1.14824
1.14543
1.14214
1.13885
1.13513
1.12958
1.12634
1.12655
1.12691
1.12484
1.12172
1.12004
1.11752
1.113
1.10775
1.10409
1.09991
1.09296
1.08488
1.08238
1.08298
1.08288
1.07934
1.07459
1.07119
1.0651
1.05818
1.05445
1.05274
1.05138
1.04863
1.04314
1.03597
1.0312
1.02908
1.02646
1.02251
1.01764
1.01302
1.00923
1.00541
1.00245
0.999711
0.996709
0.993951
0.990901
0.98876
0.986997
0.985038
0.98301
0.981136
0.980019
0.980131
0.980599
0.980319
0.979634
0.978456
0.977144
0.977007
0.977061
0.977621
0.978843
0.980428
0.982342
0.985484
1.26413
1.26315
1.26273
1.2621
1.26149
1.26107
1.26061
1.25974
1.25775
1.2567
1.25593
1.2548
1.25428
1.25286
1.2501
1.24791
1.24582
1.24519
1.24452
1.24215
1.24011
1.23877
1.23696
1.2346
1.23227
1.23053
1.22848
1.22613
1.22403
1.22196
1.21766
1.21386
1.21244
1.211
1.20723
1.20408
1.20403
1.20394
1.20227
1.1984
1.19312
1.18812
1.18439
1.1814
1.17823
1.17444
1.16747
1.1594
1.15632
1.15501
1.15273
1.1489
1.14444
1.13921
1.13534
1.1321
1.12444
1.11184
1.10934
1.10875
1.10451
1.09912
1.09352
1.08589
1.07934
1.07429
1.07024
1.06543
1.05777
1.05053
1.04568
1.04065
1.03473
1.02829
1.0231
1.0182
1.01293
1.00889
1.00455
1.0014
0.997782
0.995177
0.99341
0.99051
0.989763
0.988358
0.986285
0.985589
0.984665
0.982923
0.981122
0.978724
0.976525
0.976318
0.976504
0.977131
0.978391
0.980625
0.982124
0.984987
1.33401
1.33314
1.3312
1.32863
1.32809
1.3285
1.32864
1.32722
1.32521
1.3243
1.32248
1.32004
1.31996
1.31981
1.31833
1.31575
1.31266
1.31138
1.31067
1.30892
1.30491
1.30396
1.30367
1.30238
1.29994
1.29745
1.29513
1.29233
1.28983
1.28804
1.28532
1.28159
1.27888
1.27661
1.27338
1.26947
1.26584
1.26299
1.26071
1.25811
1.25468
1.24996
1.24545
1.24067
1.23808
1.23627
1.23251
1.22632
1.22048
1.21606
1.21175
1.20411
1.19516
1.19246
1.19086
1.18835
1.18339
1.17595
1.17036
1.16248
1.15083
1.14757
1.14498
1.13972
1.13351
1.12383
1.11664
1.11284
1.10841
1.10073
1.09342
1.08809
1.08223
1.07432
1.0671
1.06101
1.05371
1.04678
1.03966
1.03297
1.02638
1.01918
1.01306
1.00633
1.00134
0.99599
0.99093
0.987493
0.984253
0.98204
0.980262
0.97835
0.976757
0.97665
0.977243
0.978889
0.98059
0.981439
0.981841
0.983676
1.40556
1.40465
1.40275
1.40154
1.40078
1.39993
1.39899
1.39804
1.39727
1.3957
1.39389
1.39258
1.3912
1.38983
1.38704
1.38479
1.3847
1.38424
1.38267
1.37868
1.37435
1.37366
1.37333
1.37141
1.36833
1.36622
1.3643
1.36138
1.35816
1.35576
1.35363
1.35049
1.34683
1.34443
1.34209
1.33853
1.33413
1.33054
1.32703
1.32343
1.32007
1.31642
1.31209
1.30695
1.30162
1.29752
1.29387
1.28886
1.28244
1.27819
1.27462
1.26916
1.26212
1.2566
1.25179
1.246
1.23881
1.23127
1.22609
1.22126
1.21427
1.20798
1.19993
1.18981
1.18349
1.17689
1.17062
1.16276
1.15448
1.14649
1.1383