/*--------------------------------*- C++ -*----------------------------------*\
  =========                 |
  \\      /  F ield         | OpenFOAM: The Open Source CFD Toolbox
   \\    /   O peration     | Website:  https://openfoam.org
    \\  /    A nd           | Version:  7
     \\/     M anipulation  |
\*---------------------------------------------------------------------------*/
FoamFile
{
    version     2.0;
    format      ascii;
    class       volScalarField;
    location    "8.6";
    object      rho;
}
// * * * * * * * * * * * * * * * * * * * * * * * * * * * * * * * * * * * * * //

dimensions      [1 -3 0 0 0 0 0];

internalField   nonuniform List<scalar> 
11200
(
0.243672
0.358381
0.471684
0.573206
0.646301
0.706838
0.748554
0.76768
0.794133
0.80693
0.826954
0.853845
0.882619
0.91099
0.931607
0.927614
0.935815
0.950912
0.970132
0.98285
0.99208
0.99979
1.00674
1.02092
1.04121
1.06647
1.09089
1.10832
1.11505
1.12996
0.142797
0.148763
0.170809
0.222524
0.308725
0.416185
0.538458
0.638432
0.733409
0.785834
0.836344
0.831464
0.82836
0.815827
0.809331
0.816913
0.84122
0.87161
0.890447
0.890969
0.893143
0.905083
0.925121
0.948375
0.975557
1.00356
1.02707
1.05092
1.06637
1.08404
0.155063
0.15778
0.161585
0.163377
0.164678
0.171719
0.19982
0.268065
0.365795
0.50465
0.63246
0.709268
0.765646
0.774774
0.781021
0.785644
0.788638
0.79287
0.796323
0.80753
0.825143
0.840874
0.854471
0.872708
0.890735
0.91378
0.938872
0.963517
0.982371
1.01183
0.164424
0.166732
0.168859
0.171809
0.174421
0.176387
0.176987
0.177666
0.177781
0.190703
0.236952
0.340698
0.486925
0.628062
0.745547
0.779784
0.77365
0.762383
0.752711
0.761145
0.783673
0.798209
0.80957
0.821353
0.836468
0.850707
0.865517
0.886561
0.904608
0.931095
0.173436
0.17575
0.178275
0.180287
0.181701
0.181684
0.181182
0.180332
0.179889
0.179878
0.180249
0.181223
0.189148
0.248282
0.385567
0.557251
0.670716
0.72261
0.739507
0.754754
0.771209
0.782876
0.79641
0.803182
0.810491
0.825581
0.837827
0.849655
0.861502
0.879697
0.183126
0.183806
0.184476
0.184535
0.184366
0.183721
0.182424
0.180657
0.179297
0.17939
0.180028
0.181724
0.183811
0.184216
0.18313
0.216415
0.32064
0.503227
0.66922
0.744293
0.777478
0.787501
0.802842
0.807608
0.815065
0.819016
0.827753
0.838391
0.848152
0.861593
0.18457
0.184557
0.18454
0.184264
0.183137
0.181288
0.17925
0.177242
0.176705
0.177312
0.178809
0.180531
0.182812
0.183992
0.184117
0.183611
0.184741
0.205336
0.315016
0.511323
0.685584
0.762922
0.814333
0.819739
0.832574
0.832299
0.843102
0.851805
0.859022
0.867654
0.183206
0.183318
0.183244
0.182479
0.180672
0.178641
0.176699
0.175765
0.17599
0.176932
0.178756
0.180486
0.18223
0.185342
0.188074
0.191381
0.197679
0.209522
0.213703
0.228749
0.324741
0.544041
0.743606
0.821323
0.87964
0.874533
0.887651
0.88046
0.883949
0.88469
0.184332
0.184039
0.183269
0.182558
0.182088
0.180434
0.178736
0.179017
0.180342
0.182182
0.183903
0.184645
0.185887
0.18898
0.195296
0.200882
0.207064
0.21567
0.226847
0.238027
0.242167
0.25701
0.368235
0.616314
0.81949
0.897211
0.965544
0.946854
0.958161
0.946637
0.185915
0.187137
0.188906
0.191391
0.192451
0.191837
0.191594
0.192886
0.196415
0.200775
0.206138
0.209575
0.211538
0.213812
0.218289
0.219379
0.218985
0.222054
0.231904
0.242345
0.252928
0.267181
0.274653
0.298177
0.436451
0.709667
0.909398
0.979376
1.05505
1.02634
0.189809
0.192368
0.195777
0.199454
0.201728
0.203971
0.206347
0.208465
0.211581
0.216503
0.224082
0.232732
0.23841
0.242866
0.249938
0.252449
0.252507
0.253686
0.257033
0.2607
0.265056
0.273328
0.289739
0.307723
0.309182
0.342161
0.511007
0.814766
1.00829
1.07705
0.214034
0.216678
0.221044
0.226738
0.232121
0.237217
0.239043
0.23833
0.237603
0.239025
0.24354
0.252282
0.261471
0.268292
0.274832
0.281779
0.287907
0.294989
0.303495
0.307926
0.307972
0.305026
0.305056
0.313948
0.331579
0.337488
0.338391
0.402473
0.618088
0.994714
0.251476
0.256829
0.263558
0.271175
0.27717
0.2794
0.279849
0.278623
0.27826
0.280531
0.286584
0.293941
0.298286
0.298308
0.299235
0.304292
0.311054
0.318634
0.328079
0.33761
0.345123
0.349155
0.348175
0.347126
0.353498
0.364051
0.370963
0.376101
0.377571
0.630631
0.295048
0.296536
0.299776
0.305774
0.314424
0.32077
0.321155
0.321013
0.322115
0.325475
0.33201
0.337492
0.337717
0.338361
0.342799
0.347937
0.347422
0.346888
0.349456
0.358787
0.371331
0.381839
0.38953
0.391006
0.390295
0.393426
0.401576
0.410119
0.413432
0.418842
0.352102
0.35232
0.354608
0.358834
0.366256
0.371899
0.37217
0.368181
0.364594
0.365244
0.370144
0.378648
0.384655
0.386928
0.389567
0.393774
0.396714
0.400421
0.402039
0.400737
0.401423
0.407852
0.418518
0.424799
0.427966
0.431673
0.435635
0.43998
0.446003
0.452471
0.413373
0.413344
0.413487
0.414475
0.418545
0.426379
0.428427
0.426777
0.425849
0.426766
0.430547
0.435751
0.435949
0.434928
0.436334
0.441024
0.447127
0.453951
0.458018
0.459808
0.459363
0.457208
0.457412
0.461409
0.467314
0.472279
0.474351
0.476034
0.479568
0.485998
0.487737
0.486608
0.485963
0.486326
0.488921
0.495474
0.50041
0.501377
0.498925
0.495627
0.495816
0.498385
0.503468
0.50674
0.506962
0.505797
0.503695
0.503074
0.504569
0.509116
0.512363
0.512159
0.511091
0.510773
0.511198
0.511925
0.514127
0.516399
0.516799
0.519183
0.578475
0.571459
0.569988
0.569976
0.572071
0.576828
0.581614
0.583005
0.580845
0.574639
0.571991
0.572612
0.572992
0.572083
0.571189
0.571764
0.572051
0.570889
0.568395
0.565554
0.564191
0.565427
0.568631
0.569169
0.568148
0.567115
0.566457
0.565325
0.564516
0.563969
0.687873
0.673312
0.669604
0.669021
0.671393
0.677654
0.680233
0.67933
0.674916
0.667009
0.665044
0.665276
0.662997
0.656885
0.655728
0.655406
0.653777
0.649604
0.646654
0.645337
0.643216
0.638753
0.633822
0.630297
0.627573
0.62411
0.621905
0.619607
0.616372
0.611825
0.816908
0.793993
0.788394
0.787772
0.790707
0.797795
0.79771
0.793161
0.783911
0.774354
0.773458
0.773001
0.767018
0.754584
0.750915
0.749706
0.746267
0.739352
0.73122
0.724411
0.720466
0.715606
0.708489
0.702004
0.697128
0.691356
0.684134
0.681236
0.678574
0.670598
0.968742
0.943328
0.927478
0.925002
0.928681
0.93864
0.93806
0.929182
0.91214
0.898314
0.898194
0.897945
0.888766
0.870729
0.863927
0.860913
0.854926
0.844022
0.834171
0.824614
0.816063
0.807784
0.798672
0.789103
0.779873
0.772494
0.76319
0.752072
0.74348
0.728505
1.14206
1.11471
1.09267
1.08742
1.09056
1.10092
1.09956
1.0864
1.06217
1.04411
1.04438
1.04308
1.02824
1.00508
0.996176
0.99039
0.980527
0.965552
0.950042
0.937661
0.925662
0.91249
0.898785
0.885187
0.871022
0.857021
0.84501
0.830495
0.817394
0.798088
1.33502
1.30488
1.28006
1.27255
1.27583
1.28578
1.28259
1.26465
1.23198
1.21091
1.21189
1.20865
1.1853
1.15715
1.14798
1.13957
1.12375
1.10337
1.08338
1.06675
1.05044
1.03288
1.01329
0.994215
0.977468
0.958403
0.93902
0.921386
0.905468
0.877925
1.55349
1.52202
1.49132
1.47941
1.48308
1.49286
1.48753
1.46317
1.42213
1.39769
1.39844
1.39263
1.36092
1.3293
1.31786
1.30501
1.28322
1.25691
1.23241
1.21097
1.18973
1.16584
1.14112
1.11699
1.09289
1.06921
1.04487
1.02019
0.998761
0.962935
1.80875
1.78247
1.74105
1.72566
1.72486
1.72334
1.71147
1.68776
1.64969
1.61647
1.61059
1.59964
1.56366
1.52583
1.50731
1.48749
1.45928
1.4283
1.39808
1.36931
1.34183
1.31183
1.28131
1.25176
1.22205
1.19166
1.16208
1.13159
1.10525
1.06205
2.02522
2.01321
2.00076
1.9887
1.97297
1.96012
1.94675
1.92863
1.90292
1.87447
1.85565
1.8356
1.80237
1.7646
1.73363
1.70131
1.66537
1.62799
1.58985
1.55195
1.51425
1.47648
1.4388
1.40123
1.3649
1.32814
1.29183
1.25559
1.22383
1.17089
2.07177
2.07014
2.06653
2.06518
2.06434
2.0633
2.06139
2.05785
2.05167
2.04443
2.03547
2.02326
2.00597
1.98636
1.96429
1.93611
1.90181
1.86353
1.82103
1.77582
1.72811
1.67874
1.62881
1.57973
1.53136
1.48426
1.43925
1.39383
1.35502
1.29181
2.02126
2.03129
2.03689
2.04
2.03859
2.03345
2.03678
2.0432
2.04498
2.04521
2.04605
2.047
2.04466
2.04178
2.03946
2.03531
2.02842
2.01873
2.00319
1.97979
1.94809
1.9075
1.85843
1.8031
1.74339
1.68193
1.62133
1.56069
1.50945
1.42889
1.76892
1.79398
1.81297
1.82349
1.8376
1.85415
1.86902
1.8886
1.90831
1.93057
1.94643
1.95802
1.97628
1.998
2.00195
2.00547
2.01414
2.01809
2.01804
2.01691
2.01391
2.00812
1.99696
1.97868
1.94753
1.90274
1.84564
1.77727
1.71127
1.60252
1.48002
1.48784
1.49619
1.50787
1.5232
1.53587
1.54925
1.56845
1.58937
1.6142
1.64348
1.67104
1.70278
1.74103
1.77717
1.81028
1.85019
1.88591
1.91875
1.94894
1.96676
1.98055
1.99256
1.99257
1.99009
1.98439
1.97317
1.95051
1.91349
1.81538
1.40371
1.40436
1.4051
1.40608
1.40753
1.40931
1.41132
1.41402
1.41764
1.42229
1.42924
1.43769
1.44837
1.46264
1.48235
1.50573
1.53585
1.57325
1.6177
1.66835
1.72344
1.77926
1.83216
1.88425
1.91993
1.9437
1.96249
1.9625
1.96016
1.939
1.40005
1.40006
1.40007
1.40008
1.40011
1.40014
1.40018
1.40024
1.40033
1.40047
1.40069
1.40102
1.40152
1.40231
1.40368
1.4058
1.40923
1.41482
1.42355
1.4377
1.4584
1.48911
1.53105
1.58513
1.65192
1.72149
1.79279
1.85466
1.89945
1.92612
1.40001
1.40001
1.40001
1.40001
1.40001
1.40001
1.40001
1.40001
1.40001
1.40001
1.40001
1.40001
1.40002
1.40003
1.40004
1.40007
1.40013
1.40026
1.40051
1.40103
1.40213
1.40442
1.40902
1.41801
1.43471
1.46326
1.50772
1.57212
1.6456
1.766
1.40001
1.40001
1.40001
1.40001
1.40001
1.40001
1.40001
1.40001
1.40001
1.40001
1.40001
1.40001
1.40001
1.40001
1.40001
1.40001
1.40001
1.40001
1.40001
1.40001
1.40002
1.40006
1.40014
1.40036
1.40097
1.40264
1.40674
1.41699
1.43549
1.50774
1.40001
1.40001
1.40001
1.40001
1.40001
1.40001
1.40001
1.40001
1.40001
1.40001
1.40001
1.40001
1.40001
1.40001
1.40001
1.40001
1.40001
1.40001
1.40001
1.40001
1.40001
1.40001
1.40001
1.40001
1.40001
1.40003
1.4001
1.40038
1.40114
1.40983
0.138022
0.141048
0.152247
0.161995
0.170434
0.181793
0.184614
0.182886
0.184271
0.185139
0.187393
0.212171
0.24826
0.294036
0.352601
0.418505
0.498891
0.59391
0.703258
0.833414
0.985504
1.16178
1.36034
1.58272
1.83217
2.03624
2.0719
2.00656
1.74338
1.46836
1.403
1.40004
1.40001
1.40001
1.40001
0.137458
0.142475
0.153984
0.162862
0.171315
0.182081
0.18333
0.180701
0.184313
0.185522
0.189109
0.221463
0.25597
0.310359
0.37323
0.440773
0.520084
0.614834
0.726045
0.85792
1.01388
1.19496
1.39926
1.62576
1.87448
2.05466
2.0715
1.98532
1.70055
1.44858
1.40163
1.40002
1.40001
1.40001
1.40001
0.137293
0.142274
0.154683
0.162128
0.169467
0.179199
0.179528
0.178746
0.184302
0.188288
0.196428
0.23541
0.268149
0.321407
0.380278
0.446878
0.526072
0.621832
0.735678
0.869494
1.02774
1.21194
1.42076
1.65252
1.90774
2.06745
2.06904
1.96679
1.66046
1.4348
1.40097
1.40001
1.40001
1.40001
1.40001
0.13725
0.142776
0.156175
0.161836
0.168401
0.176733
0.177176
0.178525
0.18454
0.190028
0.203943
0.246409
0.278516
0.327707
0.384211
0.450231
0.530249
0.625882
0.742877
0.88026
1.04264
1.23081
1.44507
1.68919
1.95325
2.08033
2.07083
1.9409
1.61433
1.42339
1.40054
1.40001
1.40001
1.40001
1.40001
0.137996
0.143804
0.156836
0.161824
0.168233
0.175925
0.176622
0.178634
0.183835
0.190417
0.207594
0.249128
0.284113
0.331915
0.387971
0.453322
0.537277
0.644107
0.772318
0.925871
1.10249
1.29999
1.51989
1.7673
2.00379
2.08906
2.0736
1.89838
1.57154
1.41532
1.4003
1.40001
1.40001
1.40001
1.40001
0.138918
0.144817
0.156846
0.162274
0.168835
0.175735
0.176537
0.17901
0.181796
0.188942
0.21037
0.248014
0.289529
0.337989
0.401315
0.478363
0.576329
0.693037
0.826924
0.982804
1.16132
1.36228
1.58463
1.82625
2.03392
2.09233
2.06406
1.85872
1.53502
1.40968
1.40016
1.40001
1.40001
1.40001
1.40001
0.139865
0.145444
0.156288
0.162774
0.171544
0.176048
0.176894
0.17942
0.180168
0.186116
0.216164
0.24877
0.298825
0.357588
0.429708
0.508367
0.603572
0.716917
0.850126
1.00672
1.18818
1.39307
1.61793
1.86109
2.05389
2.0931
2.03892
1.81126
1.50162
1.4059
1.40009
1.40001
1.40001
1.40001
1.40001
0.141771
0.14568
0.155506
0.163604
0.17499
0.17711
0.17725
0.179396
0.179898
0.18612
0.223669
0.259875
0.309983
0.369658
0.441014
0.518984
0.613407
0.727121
0.862715
1.02084
1.20573
1.41655
1.64952
1.90194
2.07576
2.09346
2.01908
1.75843
1.47557
1.4036
1.40005
1.40001
1.40001
1.40001
1.40001
0.14349
0.145568
0.155207
0.164446
0.177052
0.177814
0.177295
0.178223
0.179477
0.189298
0.228405
0.264305
0.314017
0.373186
0.443988
0.523256
0.619363
0.733139
0.872637
1.03774
1.23341
1.45737
1.7068
1.96155
2.09504
2.09465
2.00757
1.71691
1.45539
1.40207
1.40003
1.40001
1.40001
1.40001
1.40001
0.144024
0.145487
0.15518
0.164656
0.177616
0.177895
0.177414
0.17524
0.177132
0.192625
0.229309
0.265898
0.314874
0.374964
0.444217
0.528007
0.632715
0.765942
0.92344
1.1108
1.32062
1.55001
1.79236
2.0124
2.10476
2.09784
1.99489
1.66862
1.43595
1.40106
1.40002
1.40001
1.40001
1.40001
1.40001
0.143477
0.145046
0.154682
0.164443
0.177706
0.177521
0.176603
0.171305
0.174378
0.195154
0.22794
0.269021
0.31717
0.378565
0.461848
0.566847
0.688866
0.831109
0.992464
1.17552
1.3805
1.60497
1.83953
2.04093
2.10884
2.09368
1.93631
1.60427
1.42224
1.40055
1.40001
1.40001
1.40001
1.40001
1.40001
0.140593
0.143108
0.151757
0.162087
0.177379
0.17629
0.174672
0.169767
0.173663
0.203219
0.232588
0.281561
0.340406
0.411338
0.505567
0.606716
0.723571
0.861623
1.02159
1.20516
1.4128
1.6398
1.87779
2.0657
2.11015
2.07475
1.88069
1.56129
1.4148
1.4003
1.40001
1.40001
1.40001
1.40001
1.40001
0.137209
0.140763
0.147479
0.158224
0.177232
0.17627
0.174467
0.17143
0.176709
0.216835
0.253348
0.305428
0.365054
0.437859
0.523139
0.620368
0.737474
0.876408
1.04031
1.22779
1.44267
1.68128
1.93098
2.09134
2.11062
2.05733
1.8412
1.52872
1.40918
1.40015
1.40001
1.40001
1.40001
1.40001
1.40001
0.134875
0.13913
0.144623
0.156679
0.177396
0.179061
0.177229
0.177157
0.186543
0.226132
0.266833
0.318157
0.374715
0.443815
0.527497
0.624322
0.746097
0.88885
1.06408
1.27315
1.50992
1.76321
1.9963
2.10976
2.11156
2.05024
1.80044
1.49222
1.40492
1.40007
1.40001
1.40001
1.40001
1.40001
1.40001
0.134017
0.138436
0.143136
0.156632
0.177321
0.181928
0.179621
0.180533
0.194611
0.22875
0.26987
0.320444
0.376205
0.444507
0.528832
0.633745
0.77113
0.948249
1.1494
1.37199
1.60618
1.83985
2.03851
2.11872
2.11487
2.04006
1.73763
1.46027
1.40259
1.40004
1.40001
1.40001
1.40001
1.40001
1.40001
0.134695
0.138441
0.142592
0.15783
0.177937
0.182426
0.179924
0.181046
0.197954
0.2272
0.269155
0.319137
0.375206
0.449453
0.558701
0.697555
0.85157
1.02765
1.22165
1.43212
1.65786
1.8842
2.06661
2.12279
2.11278
1.98085
1.66383
1.43932
1.40136
1.40002
1.40001
1.40001
1.40001
1.40001
1.40001
0.138681
0.140454
0.142995
0.163805
0.179833
0.179425
0.175879
0.178765
0.199891
0.223081
0.26732
0.321519
0.399359
0.498843
0.619158
0.748101
0.893727
1.06335
1.25547
1.46873
1.70095
1.932
2.09359
2.12405
2.09607
1.92878
1.61204
1.42573
1.40069
1.40001
1.40001
1.40001
1.40001
1.40001
1.40001
0.142413
0.143042
0.145854
0.169458
0.180136
0.173363
0.166275
0.172358
0.201907
0.227562
0.2826
0.358069
0.444189
0.536669
0.642941
0.766863
0.914157
1.08521
1.28588
1.51391
1.76537
1.99607
2.11495
2.1241
2.07845
1.8927
1.57059
1.41592
1.40034
1.40001
1.40001
1.40001
1.40001
1.40001
1.40001
0.143671
0.143452
0.152026
0.172211
0.177749
0.168497
0.163064
0.17067
0.204419
0.25091
0.313964
0.38384
0.459223
0.546698
0.652283
0.775373
0.932861
1.12069
1.35152
1.61052
1.85742
2.04972
2.1268
2.12525
2.07143
1.8517
1.52265
1.40841
1.40015
1.40001
1.40001
1.40001
1.40001
1.40001
1.40001
0.14266
0.142915
0.159727
0.172824
0.172416
0.164661
0.163228
0.174909
0.215803
0.268406
0.325815
0.389674
0.462124
0.548974
0.661733
0.808483
0.99725
1.22497
1.46293
1.70049
1.91886
2.08219
2.13254
2.128
2.06404
1.77268
1.47872
1.4042
1.40007
1.40001
1.40001
1.40001
1.40001
1.40001
1.40001
0.138793
0.142893
0.16396
0.172343
0.167129
0.161285
0.164701
0.191129
0.225109
0.274374
0.328589
0.391549
0.464158
0.567216
0.721592
0.904614
1.09817
1.30672
1.52659
1.75352
1.96475
2.10672
2.13498
2.12436
2.00374
1.69602
1.45221
1.40221
1.40003
1.40001
1.40001
1.40001
1.40001
1.40001
1.40001
0.136968
0.144137
0.164441
0.170701
0.163493
0.158042
0.166399
0.1989
0.228625
0.276788
0.330124
0.401806
0.506808
0.643599
0.799853
0.964035
1.1457
1.35049
1.57434
1.80993
2.01914
2.12518
2.1347
2.106
1.9471
1.63944
1.43343
1.40106
1.40002
1.40001
1.40001
1.40001
1.40001
1.40001
1.40001
0.137068
0.14677
0.164038
0.168394
0.160556
0.15648
0.166858
0.20051
0.230851
0.284554
0.356793
0.456606
0.567817
0.689881
0.830903
0.992104
1.18128
1.3987
1.6474
1.8945
2.0709
2.13516
2.13216
2.0855
1.90801
1.58696
1.41921
1.40048
1.40001
1.40001
1.40001
1.40001
1.40001
1.40001
1.40001
0.138628
0.148072
0.161583
0.164092
0.158166
0.156317
0.168467
0.200885
0.245197
0.318079
0.403888
0.494013
0.590714
0.70742
0.851266
1.02079
1.23915
1.49936
1.75853
1.97155
2.10374
2.1393
2.13314
2.07648
1.86227
1.5311
1.41018
1.40021
1.40001
1.40001
1.40001
1.40001
1.40001
1.40001
1.40001
0.140476
0.147575
0.157024
0.162626
0.15732
0.15884
0.17846
0.21067
0.271647
0.34122
0.418774
0.503378
0.599661
0.72132
0.891782
1.11465
1.36232
1.61154
1.83859
2.02213
2.12428
2.14193
2.13588
2.069
1.77707
1.48355
1.40481
1.40008
1.40001
1.40001
1.40001
1.40001
1.40001
1.40001
1.40001
0.140831
0.144811
0.155745
0.163525
0.157884
0.16166
0.192049
0.225595
0.283216
0.345207
0.419279
0.505052
0.617634
0.788005
1.00434
1.22655
1.45198
1.68101
1.89858
2.06605
2.13752
2.14307
2.13092
2.00231
1.6919
1.45146
1.40222
1.40003
1.40001
1.40001
1.40001
1.40001
1.40001
1.40001
1.40001
0.138611
0.138858
0.157062
0.167036
0.159332
0.162715
0.198784
0.231067
0.284675
0.343104
0.417305
0.536058
0.706842
0.891909
1.08622
1.28974
1.51143
1.74896
1.9695
2.10429
2.14422
2.14162
2.10613
1.93493
1.62804
1.43125
1.40104
1.40002
1.40001
1.40001
1.40001
1.40001
1.40001
1.40001
1.40001
0.131147
0.133471
0.160162
0.169571
0.161092
0.162069
0.199206
0.232591
0.284929
0.355466
0.470072
0.629613
0.783362
0.945173
1.13186
1.34381
1.59259
1.85057
2.03964
2.12844
2.14647
2.1357
2.07841
1.88827
1.57154
1.4171
1.40043
1.40001
1.40001
1.40001
1.40001
1.40001
1.40001
1.40001
1.40001
0.123806
0.132179
0.161181
0.169028
0.161286
0.16107
0.192196
0.236623
0.307981
0.417577
0.551817
0.682641
0.818188
0.981874
1.19067
1.44737
1.71978
1.94411
2.08622
2.14174
2.14708
2.13483
2.06379
1.83341
1.51341
1.40817
1.40016
1.40001
1.40001
1.40001
1.40001
1.40001
1.40001
1.40001
1.40001
0.121592
0.134449
0.161033
0.159947
0.156617
0.160411
0.190123
0.258277
0.359939
0.474849
0.585641
0.703811
0.848881
1.05417
1.32069
1.58765
1.82269
2.00664
2.11685
2.14804
2.14755
2.13793
2.05041
1.73619
1.46586
1.40342
1.40006
1.40001
1.40001
1.40001
1.40001
1.40001
1.40001
1.40001
1.40001
0.123162
0.141358
0.15901
0.149408
0.145794
0.165863
0.209656
0.303673
0.403608
0.497076
0.596661
0.729633
0.941761
1.19719
1.4499
1.68424
1.89761
2.05969
2.13671
2.1498
2.1473
2.12599
1.96551
1.6434
1.4366
1.40139
1.40002
1.40001
1.40001
1.40001
1.40001
1.40001
1.40001
1.40001
1.40001
0.132291
0.145422
0.153115
0.143849
0.14064
0.17873
0.248721
0.341067
0.419224
0.502071
0.61914
0.841431
1.07908
1.30548
1.53685
1.76894
1.97883
2.1055
2.14657
2.14949
2.14317
2.08766
1.88303
1.57759
1.42006
1.40057
1.40001
1.40001
1.40001
1.40001
1.40001
1.40001
1.40001
1.40001
1.40001
0.14579
0.148637
0.147126
0.139796
0.140092
0.204161
0.281529
0.350653
0.419083
0.521316
0.738658
0.966209
1.16956
1.38597
1.63409
1.8793
2.05391
2.13355
2.15082
2.14786
2.13185
2.05367
1.82552
1.52272
1.40964
1.40021
1.40001
1.40001
1.40001
1.40001
1.40001
1.40001
1.40001
1.40001
1.40001
0.154481
0.152003
0.142884
0.135116
0.149491
0.229283
0.292168
0.346862
0.43224
0.63787
0.853249
1.0435
1.2465
1.499
1.7745
1.98228
2.1002
2.14706
2.15254
2.14844
2.12873
2.02991
1.75195
1.47037
1.40385
1.40007
1.40001
1.40001
1.40001
1.40001
1.40001
1.40001
1.40001
1.40001
1.40001
0.156361
0.153082
0.139966
0.132447
0.176539
0.242059
0.290647
0.352697
0.539295
0.746674
0.922235
1.11828
1.37698
1.65778
1.89477
2.05138
2.12677
2.1522
2.15361
2.1506
2.13096
1.98845
1.64004
1.43392
1.40131
1.40002
1.40001
1.40001
1.40001
1.40001
1.40001
1.40001
1.40001
1.40001
1.40001
0.154916
0.146807
0.139127
0.141108
0.20351
0.246498
0.286231
0.440132
0.646395
0.810871
0.993262
1.26153
1.54339
1.78747
1.98212
2.10086
2.14205
2.15371
2.15359
2.14965
2.09641
1.86512
1.55294
1.41605
1.40045
1.40001
1.40001
1.40001
1.40001
1.40001
1.40001
1.40001
1.40001
1.40001
1.40001
0.144527
0.134581
0.139524
0.16186
0.21741
0.245839
0.340915
0.547477
0.709952
0.876568
1.14183
1.4321
1.68025
1.89403
2.05747
2.13165
2.15001
2.15421
2.14902
2.136
2.03474
1.77522
1.49924
1.4073
1.40016
1.40001
1.40001
1.40001
1.40001
1.40001
1.40001
1.40001
1.40001
1.40001
1.40001
0.135365
0.126104
0.142149
0.1721
0.219148
0.25117
0.448435
0.622946
0.770109
1.02242
1.31785
1.57646
1.80711
1.99613
2.11168
2.14443
2.15338
2.1544
2.14525
2.11415
1.98908
1.70291
1.45632
1.40277
1.40005
1.40001
1.40001
1.40001
1.40001
1.40001
1.40001
1.40001
1.40001
1.40001
1.40001
0.134783
0.121822
0.145814
0.171736
0.20942
0.336746
0.535342
0.678393
0.906153
1.20505
1.47226
1.72135
1.93692
2.07156
2.13953
2.14842
2.15377
2.15589
2.14725
2.10188
1.93893
1.60393
1.42411
1.40083
1.40002
1.40001
1.40001
1.40001
1.40001
1.40001
1.40001
1.40001
1.40001
1.40001
1.40001
0.137057
0.117938
0.145555
0.174086
0.221161
0.431781
0.596424
0.78693
1.09343
1.37135
1.63383
1.87609
2.03637
2.11397
2.15145
2.14978
2.15301
2.15556
2.15054
2.09099
1.8206
1.50778
1.40866
1.40022
1.40001
1.40001
1.40001
1.40001
1.40001
1.40001
1.40001
1.40001
1.40001
1.40001
1.40001
0.137236
0.1131
0.131419
0.191259
0.320866
0.516958
0.67873
0.984937
1.27633
1.5482
1.81122
1.99969
2.09779
2.13448
2.1555
2.15117
2.15241
2.15108
2.14096
2.00429
1.68901
1.45604
1.40314
1.40006
1.40001
1.40001
1.40001
1.40001
1.40001
1.40001
1.40001
1.40001
1.40001
1.40001
1.40001
0.135442
0.10954
0.120538
0.237768
0.419393
0.598887
0.873233
1.18622
1.46583
1.74883
1.95783
2.08241
2.12981
2.14235
2.15831
2.15261
2.15376
2.14275
2.09812
1.90867
1.60345
1.42822
1.40104
1.40002
1.40001
1.40001
1.40001
1.40001
1.40001
1.40001
1.40001
1.40001
1.40001
1.40001
1.40001
0.126751
0.10524
0.135819
0.30752
0.520024
0.75019
1.09721
1.39603
1.69015
1.91938
2.05981
2.12905
2.14201
2.14527
2.161
2.15445
2.15628
2.14039
2.05735
1.82654
1.5251
1.41054
1.40027
1.40001
1.40001
1.40001
1.40001
1.40001
1.40001
1.40001
1.40001
1.40001
1.40001
1.40001
1.40001
0.0736391
0.107662
0.221182
0.407553
0.661874
1.01589
1.34027
1.63934
1.8849
2.0408
2.12007
2.14759
2.14575
2.14685
2.16308
2.15513
2.15689
2.1448
2.02056
1.70377
1.45255
1.40276
1.40006
1.40001
1.40001
1.40001
1.40001
1.40001
1.40001
1.40001
1.40001
1.40001
1.40001
1.40001
1.40001
0.0412981
0.108692
0.310843
0.570483
0.911145
1.28645
1.59991
1.86224
2.02728
2.11168
2.1462
2.15202
2.14723
2.14826
2.1642
2.15319
2.15174
2.11843
1.90593
1.56298
1.41793
1.40062
1.40001
1.40001
1.40001
1.40001
1.40001
1.40001
1.40001
1.40001
1.40001
1.40001
1.40001
1.40001
1.40001
0.0228633
0.154608
0.442083
0.837311
1.24294
1.57922
1.85513
2.02258
2.10786
2.14162
2.15477
2.15336
2.14735
2.14888
2.16465
2.1488
2.13442
2.03606
1.75461
1.48552
1.40644
1.40015
1.40001
1.40001
1.40001
1.40001
1.40001
1.40001
1.40001
1.40001
1.40001
1.40001
1.40001
1.40001
1.40001
0.0335262
0.326902
0.737834
1.18279
1.57909
1.86493
2.02996
2.10934
2.13947
2.1519
2.15721
2.15389
2.14631
2.14911
2.16503
2.14161
2.11346
1.95764
1.64731
1.44005
1.40178
1.40003
1.40001
1.40001
1.40001
1.40001
1.40001
1.40001
1.40001
1.40001
1.40001
1.40001
1.40001
1.40001
1.40001
0.1595
0.586331
1.14809
1.60856
1.89274
2.0501
2.1165
2.13999
2.14859
2.1559
2.1583
2.15347
2.14422
2.14918
2.1649
2.14105
2.09581
1.85703
1.52746
1.41051
1.40028
1.40001
1.40001
1.40001
1.40001
1.40001
1.40001
1.40001
1.40001
1.40001
1.40001
1.40001
1.40001
1.40001
1.40001
0.508006
1.07681
1.64017
1.9445
2.07923
2.12819
2.14252
2.14705
2.15192
2.15787
2.15843
2.15001
2.14267
2.15064
2.16352
2.1423
2.02386
1.68067
1.44017
1.40163
1.40003
1.40001
1.40001
1.40001
1.40001
1.40001
1.40001
1.40001
1.40001
1.40001
1.40001
1.40001
1.40001
1.40001
1.40001
1.20662
1.72294
2.01246
2.11151
2.14003
2.14595
2.14715
2.14931
2.15396
2.15848
2.15672
2.14633
2.14212
2.15362
2.15942
2.10041
1.87721
1.53591
1.41025
1.40019
1.40001
1.40001
1.40001
1.40001
1.40001
1.40001
1.40001
1.40001
1.40001
1.40001
1.40001
1.40001
1.40001
1.40001
1.40001
2.15084
2.15103
2.15083
2.15074
2.15008
2.14855
2.14873
2.15095
2.1548
2.15768
2.15357
2.14452
2.14328
2.15605
2.1457
2.02431
1.73294
1.44409
1.39966
1.39997
1.4
1.40001
1.40001
1.40001
1.40001
1.40001
1.40001
1.40001
1.40001
1.40001
1.40001
1.40001
1.40001
1.40001
1.40001
2.15064
2.15089
2.15138
2.1518
2.15198
2.15068
2.14926
2.14899
2.15105
2.15537
2.15585
2.14919
2.14361
2.15254
2.1489
2.02824
1.7007
1.44316
1.40141
1.40002
1.40001
1.40001
1.40001
1.40001
1.40001
1.40001
1.40001
1.40001
1.40001
1.40001
1.40001
1.40001
1.40001
1.40001
1.40001
2.1505
2.1506
2.15209
2.15294
2.15309
2.15246
2.15025
2.14854
2.1487
2.15309
2.15651
2.15642
2.14787
2.14918
2.14375
1.95473
1.58577
1.41372
1.4002
1.40001
1.40001
1.40001
1.40001
1.40001
1.40001
1.40001
1.40001
1.40001
1.40001
1.40001
1.40001
1.40001
1.40001
1.40001
1.40001
2.15057
2.15048
2.15191
2.15307
2.15365
2.15334
2.15166
2.14807
2.1475
2.15023
2.15798
2.16361
2.1518
2.13397
2.1074
1.87376
1.52775
1.40693
1.40008
1.40001
1.40001
1.40001
1.40001
1.40001
1.40001
1.40001
1.40001
1.40001
1.40001
1.40001
1.40001
1.40001
1.40001
1.40001
1.40001
2.14974
2.14944
2.15039
2.15208
2.15372
2.1537
2.15273
2.14839
2.14714
2.14828
2.15839
2.16653
2.15739
2.12192
2.07409
1.80841
1.47678
1.40265
1.40003
1.40001
1.40001
1.40001
1.40001
1.40001
1.40001
1.40001
1.40001
1.40001
1.40001
1.40001
1.40001
1.40001
1.40001
1.40001
1.40001
2.14932
2.14861
2.14881
2.15003
2.1525
2.15364
2.15312
2.14894
2.14668
2.14712
2.15749
2.16715
2.16043
2.1165
2.04164
1.71733
1.44073
1.401
1.40001
1.40001
1.40001
1.40001
1.40001
1.40001
1.40001
1.40001
1.40001
1.40001
1.40001
1.40001
1.40001
1.40001
1.40001
1.40001
1.40001
2.14979
2.14862
2.14798
2.14849
2.15028
2.1524
2.1532
2.14977
2.14644
2.14661
2.15552
2.16651
2.16063
2.11157
1.9922
1.62165
1.42024
1.40035
1.40001
1.40001
1.40001
1.40001
1.40001
1.40001
1.40001
1.40001
1.40001
1.40001
1.40001
1.40001
1.40001
1.40001
1.40001
1.40001
1.40001
2.15072
2.14926
2.14774
2.14756
2.14864
2.15082
2.15292
2.15202
2.1475
2.14628
2.15177
2.16324
2.15592
2.0899
1.91317
1.54762
1.409
1.40011
1.40001
1.40001
1.40001
1.40001
1.40001
1.40001
1.40001
1.40001
1.40001
1.40001
1.40001
1.40001
1.40001
1.40001
1.40001
1.40001
1.40001
2.15232
2.15125
2.14881
2.1472
2.14812
2.14931
2.15277
2.15442
2.15129
2.1466
2.14803
2.16144
2.15474
2.07258
1.82782
1.48856
1.40344
1.40004
1.40001
1.40001
1.40001
1.40001
1.40001
1.40001
1.40001
1.40001
1.40001
1.40001
1.40001
1.40001
1.40001
1.40001
1.40001
1.40001
1.40001
2.15394
2.15336
2.15105
2.14837
2.14852
2.14818
2.15121
2.15568
2.15556
2.14811
2.14291
2.15356
2.15456
2.05661
1.73129
1.44731
1.40126
1.40001
1.40001
1.40001
1.40001
1.40001
1.40001
1.40001
1.40001
1.40001
1.40001
1.40001
1.40001
1.40001
1.40001
1.40001
1.40001
1.40001
1.40001
2.15414
2.15432
2.1529
2.15084
2.1487
2.14737
2.14889
2.15625
2.15804
2.15272
2.13739
2.13784
2.14103
1.99731
1.63573
1.42239
1.40041
1.40001
1.40001
1.40001
1.40001
1.40001
1.40001
1.40001
1.40001
1.40001
1.40001
1.40001
1.40001
1.40001
1.40001
1.40001
1.40001
1.40001
1.40001
2.15373
2.15435
2.15383
2.15273
2.14886
2.14655
2.14746
2.15469
2.15864
2.15823
2.13663
2.1268
2.1201
1.91995
1.55953
1.41002
1.40013
1.40001
1.40001
1.40001
1.40001
1.40001
1.40001
1.40001
1.40001
1.40001
1.40001
1.40001
1.40001
1.40001
1.40001
1.40001
1.40001
1.40001
1.40001
2.15201
2.15351
2.15413
2.15332
2.14953
2.14639
2.14686
2.15293
2.15902
2.16139
2.14583
2.12349
2.10771
1.84072
1.49374
1.40381
1.40004
1.40001
1.40001
1.40001
1.40001
1.40001
1.40001
1.40001
1.40001
1.40001
1.40001
1.40001
1.40001
1.40001
1.40001
1.40001
1.40001
1.40001
1.40001
2.14944
2.15088
2.15336
2.15335
2.15069
2.14737
2.14618
2.14902
2.15752
2.16246
2.15382
2.12314
2.07031
1.7271
1.44649
1.40127
1.40001
1.40001
1.40001
1.40001
1.40001
1.40001
1.40001
1.40001
1.40001
1.40001
1.40001
1.40001
1.40001
1.40001
1.40001
1.40001
1.40001
1.40001
1.40001
2.14762
2.14819
2.15069
2.15241
2.1514
2.14898
2.1456
2.14508
2.15266
2.16328
2.15812
2.11155
1.98627
1.63209
1.42232
1.4004
1.40001
1.40001
1.40001
1.40001
1.40001
1.40001
1.40001
1.40001
1.40001
1.40001
1.40001
1.40001
1.40001
1.40001
1.40001
1.40001
1.40001
1.40001
1.40001
2.14741
2.14743
2.14895
2.15095
2.15119
2.15088
2.14669
2.14294
2.14748
2.16461
2.15893
2.10203
1.91517
1.55232
1.40897
1.40012
1.40001
1.40001
1.40001
1.40001
1.40001
1.40001
1.40001
1.40001
1.40001
1.40001
1.40001
1.40001
1.40001
1.40001
1.40001
1.40001
1.40001
1.40001
1.40001
2.14816
2.14766
2.14815
2.14961
2.15164
2.15272
2.15006
2.14132
2.14053
2.15638
2.15772
2.09313
1.8205
1.48123
1.40305
1.40003
1.40001
1.40001
1.40001
1.40001
1.40001
1.40001
1.40001
1.40001
1.40001
1.40001
1.40001
1.40001
1.40001
1.40001
1.40001
1.40001
1.40001
1.40001
1.40001
2.15194
2.14988
2.14773
2.14847
2.1512
2.15438
2.15362
2.14142
2.13536
2.14346
2.14416
2.0297
1.71155
1.44129
1.40102
1.40001
1.40001
1.40001
1.40001
1.40001
1.40001
1.40001
1.40001
1.40001
1.40001
1.40001
1.40001
1.40001
1.40001
1.40001
1.40001
1.40001
1.40001
1.40001
1.40001
2.15562
2.15251
2.14847
2.14793
2.15035
2.15488
2.15575
2.14781
2.13529
2.13967
2.1349
1.97161
1.61754
1.41823
1.40029
1.40001
1.40001
1.40001
1.40001
1.40001
1.40001
1.40001
1.40001
1.40001
1.40001
1.40001
1.40001
1.40001
1.40001
1.40001
1.40001
1.40001
1.40001
1.40001
1.40001
2.15709
2.15374
2.14929
2.14807
2.14942
2.15414
2.15616
2.15523
2.14306
2.13992
2.12988
1.88962
1.52348
1.40636
1.40008
1.40001
1.40001
1.40001
1.40001
1.40001
1.40001
1.40001
1.40001
1.40001
1.40001
1.40001
1.40001
1.40001
1.40001
1.40001
1.40001
1.40001
1.40001
1.40001
1.40001
2.15721
2.1541
2.15024
2.14872
2.14793
2.15045
2.15538
2.1607
2.1518
2.12773
2.07992
1.7675
1.46295
1.40206
1.40002
1.40001
1.40001
1.40001
1.40001
1.40001
1.40001
1.40001
1.40001
1.40001
1.40001
1.40001
1.40001
1.40001
1.40001
1.40001
1.40001
1.40001
1.40001
1.40001
1.40001
2.15546
2.15344
2.15084
2.15017
2.14659
2.14544