/*--------------------------------*- C++ -*----------------------------------*\
  =========                 |
  \\      /  F ield         | OpenFOAM: The Open Source CFD Toolbox
   \\    /   O peration     | Website:  https://openfoam.org
    \\  /    A nd           | Version:  7
     \\/     M anipulation  |
\*---------------------------------------------------------------------------*/
FoamFile
{
    version     2.0;
    format      ascii;
    class       volScalarField;
    location    "8";
    object      rho;
}
// * * * * * * * * * * * * * * * * * * * * * * * * * * * * * * * * * * * * * //

dimensions      [1 -3 0 0 0 0 0];

internalField   nonuniform List<scalar> 
90000
(
0.727187
0.772972
0.816856
0.856647
0.89875
0.936781
0.973112
1.01183
1.05
1.08547
1.12261
1.15739
1.19153
1.22195
1.25097
1.2739
1.29423
1.30881
1.31791
1.32346
1.327
1.32679
1.32649
1.3256
1.32533
1.32424
1.32212
1.31867
1.31417
1.30966
1.30465
1.30487
1.30675
1.3107
1.31501
1.31893
1.32147
1.3235
1.32399
1.32284
1.31934
1.31512
1.31256
1.31194
1.31308
1.31561
1.31911
1.3216
1.32105
1.31902
1.31571
1.31359
1.31358
1.3151
1.31796
1.31984
1.31935
1.31776
1.3152
1.31463
1.31545
1.31708
1.31769
1.31689
1.31508
1.31427
1.31461
1.31541
1.31515
1.31444
1.31367
1.31312
1.31313
1.31283
1.31227
1.3118
1.31149
1.31096
1.31037
1.30995
1.30971
1.30905
1.30818
1.30755
1.30693
1.30625
1.30567
1.30504
1.3044
1.30398
1.30345
1.30268
1.30172
1.30061
1.29986
1.29936
1.29897
1.29888
1.29914
1.30053
0.68896
0.689174
0.689782
0.690928
0.693246
0.696982
0.702604
0.710908
0.722954
0.738767
0.759762
0.786532
0.819116
0.858411
0.903128
0.95368
1.00604
1.06099
1.11131
1.15491
1.19519
1.22425
1.25059
1.26707
1.28165
1.28812
1.29477
1.29586
1.29753
1.29908
1.30355
1.3108
1.31732
1.32357
1.32603
1.32698
1.32622
1.32539
1.32216
1.31557
1.31109
1.30875
1.31038
1.31258
1.31576
1.31918
1.32155
1.32094
1.31817
1.31446
1.3112
1.31152
1.31265
1.31587
1.32054
1.32027
1.31848
1.31505
1.31286
1.31344
1.31568
1.31852
1.3181
1.31588
1.31344
1.31364
1.31461
1.31575
1.31515
1.31382
1.31328
1.31342
1.31344
1.31298
1.31233
1.31196
1.31162
1.31106
1.31049
1.31023
1.30997
1.30924
1.30837
1.30777
1.30716
1.30653
1.30602
1.30543
1.30484
1.30442
1.30388
1.30311
1.30221
1.30119
1.30055
1.30014
1.29987
1.29973
1.30007
1.30159
0.689358
0.689388
0.689417
0.689447
0.689482
0.689523
0.689578
0.689661
0.689797
0.690058
0.690542
0.691372
0.692754
0.695221
0.699245
0.706482
0.717391
0.735299
0.759672
0.793902
0.835218
0.886377
0.941931
1.00211
1.06211
1.11811
1.17024
1.21303
1.25232
1.27951
1.30149
1.31518
1.3201
1.32448
1.32554
1.3264
1.32497
1.3198
1.31164
1.30574
1.30884
1.31365
1.31797
1.32282
1.3259
1.32521
1.3229
1.31758
1.31294
1.3113
1.31178
1.31368
1.31886
1.32282
1.32222
1.31957
1.3158
1.31386
1.31428
1.31717
1.31982
1.31971
1.31788
1.31534
1.31412
1.31484
1.3167
1.31657
1.31537
1.31437
1.31405
1.31443
1.31429
1.31371
1.31307
1.31283
1.31241
1.31182
1.31127
1.31116
1.31081
1.31002
1.30923
1.30868
1.3081
1.30752
1.30706
1.30651
1.30592
1.30559
1.30499
1.30418
1.30331
1.30238
1.30189
1.30159
1.30128
1.3011
1.30148
1.30298
0.690183
0.690221
0.690258
0.690298
0.69034
0.690386
0.690437
0.690492
0.690555
0.690603
0.690649
0.690694
0.690741
0.690795
0.690861
0.690954
0.691096
0.691357
0.691923
0.693061
0.695165
0.69946
0.706993
0.720942
0.742099
0.775488
0.81845
0.875787
0.940416
1.01275
1.08199
1.14676
1.1935
1.23938
1.26187
1.28164
1.2897
1.29659
1.30449
1.31181
1.32184
1.33182
1.33749
1.33675
1.33277
1.32759
1.31877
1.31314
1.31298
1.31417
1.31917
1.32494
1.3289
1.32742
1.32192
1.31723
1.31542
1.31649
1.3209
1.32427
1.32327
1.32059
1.31765
1.31609
1.31736
1.3197
1.31964
1.31793
1.3163
1.3161
1.31684
1.31706
1.31628
1.31543
1.31523
1.315
1.31425
1.31353
1.31323
1.31322
1.3126
1.31159
1.3109
1.31039
1.30976
1.3093
1.30892
1.30834
1.30771
1.30728
1.30667
1.30579
1.30495
1.30407
1.30356
1.30325
1.30287
1.30263
1.30294
1.30436
0.691131
0.691168
0.691208
0.691249
0.691292
0.691334
0.691378
0.691422
0.691466
0.691511
0.691552
0.69159
0.691633
0.691679
0.691731
0.69179
0.691853
0.691944
0.691985
0.692019
0.692058
0.692109
0.692191
0.692349
0.692689
0.693543
0.695383
0.699749
0.708223
0.725657
0.753761
0.798512
0.857862
0.930843
1.01168
1.0918
1.16447
1.22408
1.27679
1.3003
1.31802
1.32435
1.32797
1.3298
1.32961
1.32444
1.31473
1.31669
1.32131
1.32823
1.33358
1.33376
1.33172
1.32421
1.31889
1.31698
1.3187
1.32483
1.32886
1.32749
1.32489
1.32039
1.31826
1.32016
1.32372
1.32392
1.32202
1.31908
1.31867
1.31962
1.32035
1.31961
1.31845
1.31801
1.31815
1.31768
1.31676
1.31604
1.31601
1.31566
1.31481
1.31383
1.31316
1.31255
1.31189
1.31143
1.31098
1.31031
1.30968
1.30918
1.30842
1.30745
1.30658
1.30568
1.30514
1.30479
1.30427
1.30396
1.30417
1.30546
0.691989
0.692016
0.692045
0.692076
0.692106
0.692137
0.692169
0.692201
0.692234
0.692267
0.692302
0.692336
0.692371
0.692405
0.692439
0.692471
0.692503
0.692534
0.69256
0.692587
0.692618
0.692655
0.692698
0.692745
0.692842
0.692858
0.692877
0.69291
0.692982
0.693169
0.693643
0.695064
0.698803
0.707441
0.72699
0.75979
0.816054
0.888105
0.979988
1.06656
1.15368
1.21031
1.25675
1.27964
1.29948
1.30726
1.31646
1.3311
1.34103
1.34556
1.34285
1.33943
1.32788
1.31802
1.31786
1.32086
1.32763
1.33416
1.33313
1.32904
1.32284
1.32024
1.32178
1.32582
1.32813
1.32677
1.32302
1.32092
1.32173
1.32331
1.32302
1.3219
1.32075
1.32077
1.32059
1.31981
1.31897
1.31845
1.31848
1.31789
1.31673
1.31574
1.31514
1.31445
1.31373
1.31329
1.31274
1.31199
1.31131
1.31066
1.30973
1.3087
1.30786
1.30693
1.30631
1.30584
1.3052
1.30492
1.305
1.30619
0.692597
0.692613
0.692629
0.692647
0.692664
0.692682
0.692699
0.692717
0.692734
0.692753
0.692772
0.692792
0.692811
0.692832
0.692853
0.692875
0.692897
0.692921
0.692944
0.692969
0.692993
0.693019
0.693041
0.693068
0.693086
0.693112
0.69314
0.693171
0.693204
0.693242
0.693323
0.693322
0.693333
0.69338
0.693562
0.694186
0.696372
0.702358
0.717448
0.750972
0.804416
0.888108
0.983087
1.08349
1.17412
1.24603
1.29573
1.32238
1.33085
1.33521
1.3367
1.32841
1.31652
1.31939
1.32513
1.33332
1.33769
1.33529
1.3293
1.3231
1.32148
1.3227
1.32808
1.33012
1.32917
1.32523
1.32285
1.32327
1.32531
1.32519
1.32379
1.323
1.32257
1.32282
1.32226
1.32115
1.32028
1.32029
1.32
1.3192
1.31797
1.31701
1.3164
1.31566
1.31497
1.31454
1.31385
1.31302
1.31228
1.3115
1.31053
1.30943
1.30855
1.30764
1.30704
1.30645
1.30565
1.30541
1.30546
1.30662
0.692948
0.692956
0.692964
0.692973
0.692983
0.692993
0.693003
0.693013
0.693023
0.693033
0.693043
0.693055
0.693068
0.693081
0.693095
0.693109
0.693124
0.69314
0.693156
0.693174
0.693192
0.69321
0.693229
0.693249
0.693268
0.693288
0.693306
0.693324
0.693337
0.69335
0.693359
0.693373
0.693384
0.693395
0.693421
0.693416
0.693415
0.693432
0.693533
0.694062
0.69591
0.702821
0.719305
0.760155
0.824955
0.923818
1.03167
1.13849
1.2117
1.26081
1.29443
1.30201
1.31798
1.33075
1.34235
1.34776
1.34509
1.33437
1.3206
1.32008
1.32234
1.32884
1.33422
1.33235
1.32635
1.32254
1.32356
1.3269
1.32796
1.32648
1.32372
1.32311
1.32393
1.32384
1.32259
1.32159
1.32115
1.32141
1.32086
1.31948
1.31846
1.31778
1.31708
1.31622
1.31562
1.31522
1.31442
1.31353
1.3128
1.31187
1.31074
1.30976
1.3089
1.30799
1.3074
1.30676
1.30586
1.3056
1.30564
1.30679
0.693124
0.693128
0.693133
0.693138
0.693143
0.693149
0.693156
0.693162
0.693169
0.693177
0.693185
0.693194
0.693204
0.693215
0.693226
0.693237
0.69325
0.693263
0.693277
0.693291
0.693306
0.693321
0.693336
0.69335
0.693363
0.693374
0.693385
0.693393
0.693399
0.693403
0.693406
0.693409
0.693408
0.693408
0.693403
0.693405
0.693407
0.693403
0.6934
0.693388
0.693381
0.693405
0.693555
0.694357
0.697284
0.707985
0.736455
0.795324
0.892007
1.00577
1.12647
1.21934
1.29645
1.32015
1.33172
1.33789
1.33304
1.31578
1.31784
1.32373
1.33208
1.33638
1.33426
1.32636
1.32101
1.32179
1.32676
1.32973
1.3285
1.32469
1.32306
1.32363
1.32498
1.32437
1.32256
1.32146
1.32195
1.32195
1.32119
1.31968
1.31852
1.31814
1.31744
1.31654
1.31601
1.31557
1.31467
1.31376
1.313
1.31202
1.31081
1.30986
1.30902
1.30814
1.30755
1.30686
1.30588
1.30571
1.30576
1.30689
0.693217
0.693221
0.693225
0.69323
0.693234
0.693239
0.693245
0.693251
0.693257
0.693264
0.693272
0.69328
0.693288
0.693298
0.693307
0.693318
0.693328
0.693339
0.693351
0.693362
0.693372
0.693382
0.693392
0.693399
0.693405
0.693411
0.693414
0.693414
0.693414
0.693412
0.693407
0.693403
0.693403
0.693396
0.693389
0.69339
0.693388
0.693374
0.693365
0.693357
0.693358
0.693364
0.693368
0.693375
0.693396
0.693478
0.693882
0.695784
0.703813
0.728519
0.784564
0.886641
1.01589
1.13245
1.21529
1.27146
1.29461
1.3068
1.32553
1.34136
1.34489
1.34169
1.3275
1.3179
1.31938
1.32581
1.33172
1.33042
1.32553
1.32234
1.32299
1.32586
1.3256
1.32352
1.32152
1.32155
1.32275
1.32232
1.32058
1.31916
1.31876
1.31838
1.31762
1.31674
1.31637
1.31574
1.31477
1.31388
1.31307
1.31201
1.31086
1.30993
1.30907
1.30823
1.30763
1.30689
1.30589
1.30577
1.30583
1.30694
0.693306
0.69331
0.693314
0.693319
0.693323
0.693328
0.693334
0.69334
0.693346
0.693353
0.69336
0.693367
0.693373
0.69338
0.693388
0.693396
0.693404
0.693411
0.693418
0.693425
0.69343
0.693434
0.693437
0.693437
0.693435
0.693434
0.69343
0.693423
0.69342
0.693411
0.6934
0.693396
0.693396
0.693386
0.693376
0.693374
0.693367
0.693358
0.693352
0.693346
0.693348
0.693354
0.693373
0.693405
0.693439
0.693483
0.6935
0.693515
0.693566
0.693864
0.695478
0.703566
0.729257
0.798533
0.906773
1.03921
1.17342
1.2646
1.31376
1.32737
1.33575
1.32742
1.31352
1.31762
1.3271
1.33344
1.33247
1.32578
1.3205
1.32124
1.32617
1.32727
1.32542
1.3214
1.32108
1.32305
1.32324
1.32186
1.31971
1.31893
1.31903
1.31853
1.31759
1.31691
1.31657
1.31578
1.31464
1.31388
1.31306
1.31188
1.31084
1.30996
1.30908
1.30829
1.30764
1.30688
1.30589
1.30581
1.30586
1.30694
0.693403
0.693408
0.693412
0.693417
0.693421
0.693425
0.69343
0.693436
0.693441
0.693446
0.69345
0.693454
0.693457
0.693461
0.693466
0.69347
0.693473
0.693476
0.693478
0.693478
0.693478
0.693477
0.693472
0.693467
0.693461
0.693455
0.693446
0.693437
0.693431
0.693419
0.693407
0.693402
0.693395
0.693381
0.693375
0.69337
0.693363
0.693356
0.693357
0.693363
0.693377
0.6934
0.69343
0.693465
0.693498
0.693526
0.693549
0.693561
0.693569
0.693559
0.693546
0.693574
0.693872
0.696148
0.706145
0.743459
0.82636
0.961789
1.10747
1.20053
1.27493
1.28934
1.31162
1.32712
1.34194
1.33985
1.32971
1.31759
1.31867
1.32469
1.32963
1.32765
1.32207
1.31991
1.3221
1.32458
1.32352
1.32033
1.31902
1.31918
1.3192
1.3184
1.31747
1.31724
1.31673
1.31559
1.3145
1.31386
1.313
1.31177
1.31082
1.30995
1.30906
1.30832
1.3076
1.30683
1.30589
1.30584
1.30587
1.30691
0.693487
0.69349
0.693493
0.693495
0.693498
0.693501
0.693504
0.693507
0.69351
0.693512
0.693513
0.693515
0.693515
0.693516
0.693517
0.693518
0.693517
0.693515
0.693514
0.693512
0.693507
0.6935
0.693493
0.693487
0.693481
0.693472
0.693459
0.693452
0.693444
0.693433
0.693424
0.693413
0.693401
0.693392
0.693388
0.693385
0.693386
0.69339
0.693399
0.693415
0.693437
0.693466
0.693498
0.693528
0.693552
0.693573
0.693585
0.693584
0.69358
0.693568
0.693552
0.693527
0.693494
0.693491
0.693549
0.694173
0.697822
0.718507
0.77527
0.8943
1.04481
1.1787
1.28574
1.31482
1.33269
1.3287
1.31454
1.31629
1.32525
1.33184
1.33034
1.32214
1.31865
1.32004
1.32574
1.32521
1.32175
1.31876
1.31891
1.32019
1.31953
1.31829
1.31752
1.31764
1.31696
1.31544
1.31447
1.31392
1.31296
1.31177
1.31095
1.30999
1.30906
1.30836
1.30763
1.3068
1.30593
1.3059
1.30588
1.30687
0.693532
0.693534
0.693535
0.693536
0.693537
0.693538
0.693538
0.693538
0.693539
0.693539
0.693538
0.693538
0.693538
0.693536
0.693536
0.693534
0.693531
0.693527
0.693523
0.693517
0.693511
0.693503
0.693495
0.693491
0.693485
0.693476
0.693466
0.693453
0.693441
0.693433
0.693425
0.693413
0.693407
0.693407
0.693409
0.693413
0.693422
0.693435
0.693453
0.693472
0.693494
0.693519
0.693544
0.693563
0.693578
0.693591
0.693598
0.693596
0.693588
0.693574
0.693555
0.693528
0.693506
0.693491
0.693485
0.693492
0.693522
0.693746
0.695289
0.705999
0.742862
0.845628
0.998363
1.13503
1.24838
1.27417
1.30251
1.32144
1.34095
1.33687
1.3258
1.3159
1.31798
1.32549
1.32862
1.32466
1.31901
1.3184
1.32063
1.32093
1.31939
1.31808
1.31817
1.318
1.31681
1.31534
1.31456
1.31403
1.31294
1.31182
1.31112
1.31007
1.30909
1.30845
1.30768
1.30683
1.30601
1.30597
1.30588
1.30685
0.693547
0.693548
0.693549
0.69355
0.69355
0.693549
0.693547
0.693544
0.693543
0.693543
0.693542
0.693539
0.693538
0.693539
0.693538
0.693534
0.693531
0.693528
0.693522
0.693516
0.693509
0.693501
0.693494
0.693488
0.693481
0.693475
0.69347
0.693462
0.69345
0.693444
0.693443
0.693445
0.693448
0.693453
0.693461
0.693471
0.693483
0.693495
0.693505
0.693516
0.69353
0.693546
0.693561
0.693573
0.693581
0.693591
0.693596
0.693588
0.693574
0.693565
0.693554
0.693541
0.693535
0.693528
0.693526
0.693543
0.693571
0.693598
0.693628
0.693729
0.694409
0.7003
0.726468
0.814088
0.958373
1.11928
1.25607
1.30503
1.32976
1.32772
1.31339
1.31697
1.32712
1.33189
1.32823
1.3179
1.31709
1.32005
1.32265
1.32101
1.31839
1.31803
1.31928
1.31841
1.31645
1.3152
1.31496
1.31424
1.31301
1.31214
1.31133
1.31015
1.30917
1.30859
1.3078
1.30688
1.30618
1.30601
1.30587
1.30686
0.693548
0.693546
0.693543
0.69354
0.693539
0.693536
0.693532
0.69353
0.693529
0.69353
0.69353
0.693531
0.693532
0.693534
0.693533
0.693532
0.693531
0.693528
0.693523
0.693521
0.693518
0.693515
0.693511
0.693508
0.693508
0.693508
0.693508
0.693509
0.693512
0.693516
0.69352
0.693526
0.693533
0.693542
0.693547
0.693551
0.693551
0.693549
0.693544
0.693542
0.693544
0.693553
0.693556
0.693552
0.693551
0.693553
0.693552
0.693544
0.693547
0.693555
0.69356
0.693575
0.693594
0.693602
0.693613
0.693635
0.693643
0.69365
0.693654
0.693665
0.693687
0.693738
0.694077
0.697756
0.717019
0.795958
0.938969
1.09777
1.23116
1.2698
1.29926
1.32577
1.34132
1.33706
1.31938
1.31314
1.31766
1.32485
1.32382
1.31908
1.31773
1.3196
1.32025
1.31846
1.31613
1.31556
1.31553
1.31452
1.31327
1.31256
1.31156
1.31023
1.30933
1.30883
1.308
1.30702
1.30643
1.30605
1.30584
1.30693
0.693505
0.693505
0.693506
0.693508
0.69351
0.693513
0.693518
0.693522
0.693524
0.693526
0.693525
0.693525
0.693526
0.693527
0.693529
0.693532
0.693534
0.693536
0.69354
0.693544
0.693548
0.693553
0.693559
0.693567
0.693576
0.693583
0.693589
0.693596
0.693606
0.69361
0.693613
0.693618
0.693622
0.693621
0.693617
0.693608
0.693595
0.693579
0.693566
0.693557
0.693545
0.693526
0.693505
0.693497
0.693495
0.693497
0.693504
0.693518
0.69354
0.693564
0.693603
0.693661
0.693698
0.693708
0.693721
0.69372
0.693706
0.693679
0.693643
0.693627
0.693624
0.693635
0.693633
0.693659
0.69388
0.69667
0.713328
0.786249
0.926661
1.1033
1.25012
1.3083
1.32844
1.32175
1.30852
1.31659
1.329
1.32768
1.32104
1.31664
1.31847
1.32211
1.32085
1.31695
1.31567
1.31664
1.31607
1.31479
1.31353
1.313
1.3118
1.3104
1.30962
1.30909
1.30822
1.30729
1.30665
1.3061
1.30582
1.30703
0.693471
0.693474
0.693477
0.69348
0.693484
0.693487
0.693491
0.693495
0.693499
0.693503
0.693509
0.693514
0.693519
0.693525
0.693532
0.69354
0.693548
0.69356
0.693573
0.693586
0.693599
0.693612
0.693625
0.693639
0.69365
0.693658
0.693664
0.69367
0.693676
0.693677
0.693676
0.693674
0.693669
0.69366
0.693648
0.693632
0.693613
0.693589
0.693558
0.693528
0.693502
0.693475
0.693458
0.693456
0.693457
0.693465
0.693483
0.693513
0.693555
0.693609
0.693675
0.693754
0.693792
0.693799
0.693795
0.693776
0.69374
0.693683
0.693612
0.693588
0.693587
0.693592
0.693606
0.693641
0.693696
0.693737
0.693919
0.696233
0.711777
0.785569
0.934886
1.10383
1.23165
1.27969
1.30227
1.33566
1.33926
1.33065
1.31452
1.31605
1.32389
1.3236
1.31877
1.3158
1.31684
1.31774
1.31641
1.31456
1.31418
1.31349
1.312
1.31058
1.31009
1.30938
1.30845
1.30763
1.30678
1.30602
1.30582
1.30717
0.693457
0.69346
0.693464
0.693468
0.693472
0.693476
0.693481
0.693487
0.693494
0.693505
0.693515
0.693526
0.693539
0.693552
0.693565
0.693579
0.693593
0.693608
0.693621
0.693633
0.693645
0.693656
0.693665
0.693673
0.69368
0.693683
0.693687
0.693689
0.693689
0.693687
0.693684
0.693678
0.693671
0.693658
0.693638
0.693612
0.693579
0.693546
0.693518
0.69349
0.693464
0.693444
0.693434
0.693434
0.693438
0.693451
0.693476
0.693527
0.693594
0.693662
0.693729
0.693794
0.693825
0.693826
0.693816
0.693787
0.693733
0.693651
0.693584
0.693567
0.693572
0.693584
0.69361
0.693673
0.693772
0.693825
0.693824
0.693809
0.693925
0.696235
0.713917
0.790857
0.944947
1.13812
1.2665
1.32274
1.32845
1.31099
1.3135
1.32452
1.3289
1.32275
1.31459
1.31518
1.31948
1.3186
1.31551
1.31442
1.31494
1.314
1.31192
1.31071
1.31057
1.30978
1.30871
1.30792
1.30686
1.30591
1.30577
1.30735
0.693493
0.693497
0.693503
0.693514
0.693521
0.693529
0.693538
0.693545
0.693554
0.693566
0.693575
0.693583
0.693592
0.693602
0.693611
0.69362
0.693629
0.693637
0.693643
0.69365
0.693657
0.693663
0.693668
0.693672
0.693675
0.693676
0.693678
0.693678
0.693673
0.693665
0.693658
0.693648
0.693632
0.69361
0.693585
0.693559
0.693533
0.693511
0.69349
0.693468
0.693448
0.693435
0.693429
0.693433
0.693446
0.693475
0.693525
0.693591
0.693651
0.6937
0.693744
0.693789
0.693815
0.693813
0.693792
0.693747
0.693682
0.693615
0.693569
0.693558
0.693569
0.693593
0.693645
0.693724
0.693817
0.693849
0.693846
0.693819
0.693722
0.693665
0.693842
0.696476
0.717843
0.805708
0.980446
1.15889
1.24953
1.28788
1.32062
1.33971
1.33362
1.31261
1.31282
1.31904
1.32134
1.3175
1.31452
1.31544
1.31561
1.31362
1.31159
1.31136
1.31098
1.30991
1.30894
1.30814
1.30685
1.30581
1.30574
1.30757
0.693592
0.693592
0.693593
0.693598
0.693605
0.693608
0.693612
0.693616
0.693618
0.693621
0.693627
0.693629
0.693629
0.69363
0.693632
0.693634
0.693637
0.69364
0.693642
0.693644
0.693643
0.693641
0.693636
0.693624
0.693618
0.693612
0.693597
0.693588
0.693581
0.69357
0.693563
0.693558
0.693551
0.693544
0.693534
0.693522
0.693512
0.693499
0.693483
0.69347
0.693471
0.69348
0.693497
0.693519
0.693547
0.693586
0.693634
0.693671
0.693696
0.693715
0.693733
0.693747
0.693751
0.693731
0.693697
0.69366
0.693622
0.693593
0.69357
0.693572
0.6936
0.69365
0.693701
0.693763
0.69383
0.693846
0.69383
0.693768
0.693656
0.693611
0.693612
0.693656
0.693988
0.697626
0.728982
0.831436
1.01918
1.20826
1.29912
1.32553
1.31551
1.30576
1.31723
1.32569
1.32151
1.31365
1.3139
1.31746
1.31625
1.31257
1.31129
1.31219
1.31141
1.30995
1.30912
1.30825
1.30669
1.30569
1.30577
1.30787
0.693679
0.693676
0.693673
0.693671
0.693668
0.693665
0.693661
0.693655
0.69365
0.693648
0.693646
0.693643
0.693639
0.693633
0.693626
0.693618
0.693607
0.693593
0.693578
0.693563
0.693547
0.693527
0.69351
0.693497
0.693482
0.693471
0.693466
0.693467
0.69347
0.693476
0.693484
0.693494
0.693503
0.693513
0.693519
0.693513
0.693513
0.69352
0.69355
0.69358
0.693598
0.693623
0.693645
0.693659
0.693676
0.693697
0.693717
0.693721
0.693719
0.6937
0.693657
0.693639
0.693627
0.693605
0.693593
0.693592
0.693587
0.693597
0.693617
0.693651
0.69371
0.693753
0.693758
0.69378
0.693824
0.693812
0.693761
0.693684
0.693612
0.6936
0.693627
0.693743
0.694019
0.694131
0.694657
0.70019
0.742732
0.877843
1.06656
1.21841
1.27513
1.30335
1.3367
1.33153
1.31513
1.31145
1.3169
1.31883
1.31454
1.31147
1.31231
1.31274
1.31127
1.30971
1.30933
1.30836
1.30656
1.30561
1.30595
1.30814
0.693725
0.693721
0.693716
0.693709
0.6937
0.693689
0.693679
0.693668
0.693652
0.693636
0.693618
0.6936
0.693586
0.693571
0.693554
0.693539
0.693518
0.693493
0.693472
0.693451
0.693428
0.693416
0.693402
0.693392
0.693391
0.693392
0.693399
0.693412
0.69343
0.693448
0.693466
0.693484
0.693499
0.693511
0.693531
0.693567
0.693604
0.693649
0.693714
0.693739
0.69375
0.693755
0.693753
0.693747
0.693741
0.693743
0.693744
0.693737
0.693705
0.693626
0.693554
0.69354
0.693534
0.693539
0.693557
0.693574
0.693604
0.69367
0.693735
0.693787
0.693836
0.693837
0.693803
0.693793
0.693774
0.693731
0.693683
0.693632
0.693598
0.693625
0.693729
0.693918
0.694131
0.694202
0.69419
0.694102
0.694776
0.705078
0.769429
0.927725
1.14063
1.27241
1.32317
1.32181
1.30618
1.31544
1.32296
1.31867
1.31057
1.31078
1.3147
1.31336
1.31031
1.30966
1.30957
1.30814
1.30634
1.30568
1.30627
1.30829
0.693676
0.693663
0.693651
0.69364
0.693626
0.693612
0.693601
0.693592
0.69358
0.693567
0.693553
0.69354
0.693526
0.693512
0.693497
0.693479
0.693459
0.693438
0.693418
0.693402
0.693389
0.693375
0.693368
0.693368
0.693369
0.693376
0.69339
0.693411
0.693437
0.693463
0.693493
0.693528
0.693561
0.693596
0.693641
0.693688
0.693729
0.693775
0.693812
0.693821
0.693815
0.693799
0.693776
0.693755
0.693744
0.693736
0.693714
0.693679
0.693631
0.693557
0.693514
0.693511
0.693511
0.693529
0.693565
0.693617
0.693698
0.693782
0.693848
0.69389
0.693887
0.693869
0.693833
0.693758
0.693676
0.693653
0.693645
0.693618
0.693642
0.693751
0.693928
0.694113
0.694199
0.694201
0.694119
0.693864
0.69342
0.693439
0.695244
0.715137
0.812255
1.00337
1.1874
1.26196
1.29399
1.33327
1.32891
1.31253
1.30846
1.31446
1.31648
1.31211
1.30956
1.31055
1.30993
1.30779
1.30625
1.30616
1.30661
1.30827
0.693587
0.693585
0.693581
0.693577
0.693573
0.693569
0.693564
0.693557
0.693551
0.693543
0.693534
0.693524
0.693511
0.693498
0.693483
0.693467
0.69345
0.693433
0.693418
0.693413
0.693413
0.693418
0.693429
0.693443
0.693464
0.693494
0.693521
0.693552
0.693585
0.693615
0.693648
0.693677
0.693696
0.693715
0.693738
0.693763
0.693788
0.693813
0.69383
0.693825
0.693803
0.693765
0.693721
0.693669
0.69365
0.693638
0.693614
0.693599
0.69358
0.693541
0.693518
0.693519
0.693534
0.69358
0.693654
0.693757
0.693818
0.693864
0.693895
0.693905
0.693895
0.693832
0.693745
0.693661
0.693617
0.693626
0.693637
0.693675
0.693816
0.693985
0.694147
0.694222
0.694212
0.694129
0.693875
0.693533
0.693248
0.693191
0.693244
0.693632
0.698271
0.740196
0.872708
1.08971
1.24955
1.31794
1.31873
1.30293
1.31297
1.32133
1.31679
1.30887
1.30962
1.31155
1.30983
1.30717
1.30638
1.30684
1.30685
1.30806
0.693566
0.693568
0.693568
0.693567
0.693568
0.693568
0.693567
0.693565
0.693561
0.693561
0.693564
0.693563
0.693567
0.693572
0.693582
0.693586
0.693585
0.693598
0.693606
0.69361
0.693631
0.693652
0.693677
0.693705
0.693732
0.693758
0.693769
0.693773
0.693778
0.69378
0.693778
0.693778
0.693774
0.693765
0.693768
0.693777
0.693777
0.693766
0.693738
0.693691
0.693634
0.693585
0.693539
0.693516
0.693522
0.693543
0.693551
0.693567
0.693574
0.693585
0.693605
0.69364
0.6937
0.693761
0.693835
0.693895
0.693895
0.693901
0.69389
0.693863
0.693814
0.693733
0.693649
0.693609
0.693613
0.693646
0.693732
0.693904
0.694105
0.694222
0.694266
0.694243
0.694119
0.693857
0.693499
0.693273
0.693186
0.693206
0.693412
0.69388
0.694075
0.694997
0.706036
0.779049
0.960925
1.15936
1.25227
1.2883
1.33193
1.3285
1.31131
1.30713
1.31317
1.31278
1.30849
1.30674
1.30747
1.30734
1.30681
1.30789
0.693604
0.693616
0.693629
0.693649
0.693668
0.693682
0.693709
0.693738
0.693751
0.693774
0.69379
0.693795
0.693818
0.69383
0.693834
0.693849
0.69385
0.69385
0.693855
0.693851
0.693855
0.693866
0.693876
0.693888
0.693895
0.693895
0.693887
0.69387
0.693863
0.693852
0.693818
0.693796
0.693776
0.693727
0.693687
0.693663
0.693628
0.693581
0.693526
0.693481
0.693443
0.693426
0.693429
0.693442
0.693467
0.693517
0.693555
0.693593
0.693665
0.693742
0.693799
0.693854
0.693892
0.693932
0.693947
0.693943
0.693924
0.693871
0.693781
0.693693
0.693668
0.693638
0.693619
0.69362
0.693664
0.693804
0.693991
0.694211
0.694325
0.694319
0.694291
0.694136
0.693804
0.693419
0.693217
0.693171
0.693194
0.693404
0.693766
0.694136
0.694235
0.6942
0.694097
0.696327
0.726047
0.842087
1.06113
1.23698
1.31745
1.3168
1.30146
1.31196
1.31758
1.31171
1.30602
1.30693
1.30846
1.30735
1.30672
1.30777
0.693842
0.693855
0.69387
0.693884
0.693892
0.693906
0.693925
0.693933
0.69394
0.693953
0.693964
0.693961
0.693962
0.693967
0.693961
0.693963
0.693961
0.693945
0.693937
0.693927
0.693911
0.693907
0.693907
0.6939
0.693891
0.693882
0.693866
0.693846
0.693814
0.693738
0.693679
0.693651
0.693602
0.693557
0.693553
0.69354
0.693503
0.69346
0.693406
0.693384
0.693384
0.693389
0.693402
0.693428
0.693486
0.693563
0.69365
0.693762
0.693878
0.693933
0.693934
0.693943
0.693961
0.693974
0.693967
0.693908
0.693805
0.693701
0.693607
0.69357
0.693576
0.693595
0.693631
0.693718
0.693901
0.694085
0.694265
0.694378
0.694377
0.69433
0.694158
0.693801
0.693356
0.693094
0.693114
0.693166
0.693384
0.693827
0.694123
0.694268
0.694248
0.694008
0.69357
0.693392
0.693881
0.701846
0.764331
0.942331
1.15191
1.24654
1.28688
1.32974
1.32327
1.30533
1.30545
1.31057
1.30953
1.307
1.30689
1.30789
0.693981
0.693983
0.693984
0.693984
0.693986
0.693991
0.693992
0.69399
0.693987
0.693988
0.693984
0.693977
0.693967
0.693951
0.693948
0.693946
0.693931
0.69391
0.693888
0.693863
0.693838
0.693813
0.693778
0.693743
0.693715
0.693672
0.693624
0.693602
0.693568
0.693498
0.693485
0.693509
0.693507
0.693511
0.693523
0.693519
0.693495
0.693439
0.69343
0.693441
0.693481
0.693543
0.693607
0.693675
0.693745
0.693803
0.69386
0.693962
0.694005
0.693993
0.693969
0.693962
0.693948
0.693916
0.693845
0.693738
0.693641
0.693564
0.693541
0.693548
0.693577
0.693675
0.693862
0.694127
0.694267
0.694336
0.69437
0.694387
0.694315
0.694102
0.693762
0.693371
0.693068
0.693038
0.693104
0.693389
0.693855
0.694229
0.69432
0.694291
0.694057
0.693606
0.693293
0.693293
0.693401
0.6937
0.695731
0.721679
0.834207
1.05734
1.23603
1.31381
1.31222
1.2996
1.31128
1.31399
1.30823
1.30627
1.30778
1.30803
0.693907
0.693892
0.693879
0.693867
0.693854
0.693832
0.693801
0.693771
0.693737
0.693716
0.693702
0.693684
0.69365
0.693632
0.693631
0.693624
0.693596
0.693568
0.693561
0.693549
0.693523
0.693499
0.693478
0.693455
0.693447
0.693438
0.693418
0.693419
0.693435
0.693431
0.693436
0.693479
0.69351
0.693545
0.693595
0.693616
0.693624
0.693682
0.693748
0.693772
0.693866
0.69393
0.693937
0.693961
0.693973
0.693957
0.693951
0.693995
0.694002
0.693967
0.693883
0.693788
0.693713
0.693677
0.693633
0.693575
0.693539
0.693529
0.693542
0.693648
0.693864
0.694106
0.694363
0.694498
0.694488
0.694432
0.694365
0.6942
0.693917
0.693601
0.693328
0.69312
0.693026
0.693064
0.693368
0.693874
0.69429
0.69441
0.694364
0.694089
0.693584
0.693276
0.693218
0.693303
0.693732
0.694101
0.694091
0.694376
0.701335
0.764023
0.945015
1.15737
1.24897
1.28938
1.32688
1.31677
1.30477
1.30651
1.30904
1.30691
0.693551
0.693533
0.693515
0.693499
0.693484
0.693467
0.693443
0.693416
0.693381
0.693345
0.693334
0.693339
0.693337
0.693333
0.693342
0.693349
0.693352
0.693344
0.693343
0.693359
0.693375
0.693381
0.693386
0.693397
0.693409
0.69341
0.693403
0.693411
0.693457
0.693486
0.693522
0.693594
0.69369
0.693813
0.693962
0.694002
0.694027
0.694099
0.694108
0.694113
0.69414
0.694144
0.69412
0.694083
0.694052
0.693983
0.69388
0.69383
0.693785
0.693723
0.693645
0.693588
0.693552
0.69354
0.69353
0.693507
0.693521
0.693588
0.693778
0.694153
0.694393
0.694571
0.69463
0.694618
0.694557
0.694332
0.693999
0.693648
0.693352
0.693162
0.69313
0.693099
0.693164
0.693457
0.693992
0.694363
0.694486
0.694438
0.694113
0.693558
0.693197
0.693165
0.693244
0.693666
0.694149
0.694202
0.694097
0.693628
0.69352
0.695445
0.72337
0.844165
1.07583
1.24462
1.31256
1.30618
1.30438
1.31278
1.31004
1.30451
0.693303
0.693298
0.693289
0.693275
0.693271
0.693264
0.693256
0.693257
0.69325
0.693226
0.693226
0.693228
0.693221
0.693235
0.693272
0.693272
0.693277
0.693309
0.693314
0.693318
0.69335
0.693396
0.693427
0.693455
0.693488
0.693535
0.693602
0.693688
0.693787
0.693885
0.693983
0.694071
0.694107
0.69413
0.694154
0.694193
0.694214
0.694205
0.694197
0.694185
0.694143
0.694044
0.693946
0.693891
0.693799
0.693632
0.693503
0.693468
0.693472
0.693503
0.693545
0.693553
0.693531
0.693489
0.693502
0.693624
0.693821
0.694029
0.694338
0.694643
0.694702
0.694684
0.694632
0.694504
0.694208
0.693771
0.693368
0.693133
0.693022
0.693047
0.693092
0.693281
0.693712
0.694217
0.694527
0.694576
0.694479
0.694097
0.693515
0.693104
0.693089
0.693168
0.693599
0.694213
0.694325
0.694202
0.693735
0.693335
0.693345
0.693531
0.69418
0.702834
0.775596
0.966322
1.17937
1.25088
1.30172
1.31941
1.30988
1.30245
0.693384
0.693404
0.693426
0.693447
0.693481
0.693519
0.693534
0.693559
0.6936
0.693622
0.693671
0.69371
0.693731
0.69375
0.693778
0.693871
0.693979
0.693986
0.694001
0.694092
0.694143
0.694168
0.694194
0.694238
0.694277
0.694303
0.694354
0.694389
0.69437
0.694343
0.694353
0.694363
0.694338
0.694257
0.694179
0.694149
0.694137
0.69409
0.693984
0.69383
0.693681
0.693539
0.693489
0.69349
0.693461
0.693372
0.693352
0.693353
0.693368
0.69344
0.693545
0.693683
0.693828
0.69392
0.694067
0.694278
0.694474
0.694598
0.694719
0.694756
0.69471
0.694537
0.69416
0.693841
0.69347
0.693151
0.693039
0.692992
0.692985
0.693053
0.693345
0.693976
0.694551
0.694743
0.694696
0.694495
0.693983
0.69338
0.692989
0.692985
0.693065
0.693557
0.694228
0.694486
0.694363
0.69384
0.693329
0.693255
0.693437
0.693908
0.694199
0.694205
0.696506
0.731525
0.871037
1.10544
1.26883
1.30301
1.29363
1.30345
0.694598
0.694639
0.694704
0.694773
0.694817
0.694844
0.694869
0.694891
0.694917
0.694974
0.695031
0.695047
0.695073
0.695101
0.695103
0.695123
0.695132
0.695104
0.69504
0.69502
0.694979
0.694912
0.694895
0.694905
0.6949
0.694861
0.694803
0.694678
0.694534
0.694387
0.694324
0.694301
0.694257
0.69413
0.693924
0.69381
0.693813
0.693829
0.693763
0.693556
0.693392
0.693348
0.693359
0.693385
0.693386
0.693374
0.693384
0.693464
0.693689
0.693976
0.694271
0.694629
0.694863
0.694988
0.695034
0.695063
0.695002
0.69487
0.694686
0.694403
0.694118
0.693711
0.693395
0.693214
0.692998
0.692941
0.692978
0.693036
0.69322
0.693647
0.694279
0.694947
0.694961
0.694861
0.694451
0.693765
0.693149
0.692864
0.692848
0.692988
0.693608
0.694347
0.694615
0.694491
0.693904
0.693342
0.693161
0.69326
0.693824
0.694225
0.69418
0.693834
0.693531
0.694245
0.706561
0.803164
1.01002
1.18851
1.27064
1.31104
0.696067
0.696034
0.696014
0.696001
0.695959
0.695865
0.695784
0.695772
0.695791
0.695784
0.695794
0.695801
0.695771
0.695768
0.695782
0.695764
0.695703
0.6956
0.695448
0.695227
0.695136
0.6951
0.695086
0.69512
0.695135
0.695114
0.695004
0.694695
0.694496