/*--------------------------------*- C++ -*----------------------------------*\
  =========                 |
  \\      /  F ield         | OpenFOAM: The Open Source CFD Toolbox
   \\    /   O peration     | Website:  https://openfoam.org
    \\  /    A nd           | Version:  7
     \\/     M anipulation  |
\*---------------------------------------------------------------------------*/
FoamFile
{
    version     2.0;
    format      ascii;
    class       volScalarField;
    location    "8";
    object      T;
}
// * * * * * * * * * * * * * * * * * * * * * * * * * * * * * * * * * * * * * //

dimensions      [0 0 0 1 0 0 0];

internalField   nonuniform List<scalar> 
90000
(
0.792626
0.825225
0.852761
0.873958
0.893081
0.90889
0.922554
0.936295
0.949337
0.960881
0.972851
0.984098
0.995193
1.00506
1.01443
1.02163
1.02797
1.03233
1.03473
1.03644
1.03647
1.03607
1.0355
1.03475
1.03416
1.03329
1.03214
1.03056
1.02868
1.02674
1.02484
1.02474
1.02529
1.02643
1.02763
1.0287
1.02936
1.02987
1.02976
1.02912
1.02784
1.02637
1.02554
1.02501
1.02528
1.026
1.027
1.02733
1.02699
1.02614
1.02503
1.02426
1.02392
1.02425
1.02503
1.02534
1.02509
1.02442
1.02355
1.02315
1.02328
1.02367
1.02363
1.02323
1.0226
1.02215
1.02209
1.02213
1.02195
1.02159
1.0212
1.02092
1.02078
1.02052
1.02018
1.01988
1.01963
1.01931
1.01897
1.01868
1.01845
1.01809
1.01768
1.01734
1.017
1.01664
1.01629
1.01593
1.01555
1.01523
1.01487
1.01443
1.01393
1.01339
1.01293
1.01257
1.01223
1.01184
1.01157
1.01161
0.760628
0.76075
0.761139
0.761897
0.763397
0.765797
0.769355
0.774539
0.781998
0.791621
0.80408
0.819544
0.837475
0.858102
0.880033
0.903466
0.925446
0.946653
0.96456
0.979445
0.992721
1.00213
1.01059
1.0158
1.02036
1.02225
1.02421
1.02454
1.02506
1.02548
1.02673
1.02876
1.03067
1.03256
1.03346
1.03365
1.03334
1.03289
1.03163
1.02936
1.02758
1.02613
1.02645
1.0268
1.02747
1.02824
1.02868
1.02833
1.02737
1.02597
1.0248
1.02437
1.02459
1.02537
1.02652
1.02633
1.02567
1.0244
1.02337
1.0234
1.02382
1.02447
1.02424
1.02336
1.02246
1.02221
1.02233
1.02244
1.02214
1.02157
1.0212
1.02108
1.02095
1.02062
1.02023
1.01993
1.01965
1.01928
1.01893
1.01866
1.0184
1.01799
1.01754
1.01718
1.01682
1.01644
1.01609
1.0157
1.0153
1.01495
1.01454
1.01404
1.01348
1.0129
1.0124
1.01198
1.0116
1.01116
1.01081
1.01079
0.760091
0.760055
0.760012
0.759963
0.759907
0.759847
0.759789
0.759736
0.759714
0.759753
0.75989
0.760212
0.760851
0.762115
0.764298
0.768395
0.77468
0.785106
0.799062
0.817954
0.839386
0.864121
0.888669
0.913418
0.936262
0.956723
0.97511
0.990227
1.00398
1.01361
1.0212
1.02581
1.02741
1.02878
1.02923
1.02964
1.02923
1.02767
1.02514
1.02342
1.02421
1.02519
1.02613
1.02732
1.0281
1.02787
1.02718
1.02566
1.02421
1.0233
1.02336
1.02376
1.02509
1.02608
1.02582
1.02494
1.0236
1.02277
1.02271
1.02336
1.02398
1.02383
1.02313
1.02221
1.02158
1.0217
1.02209
1.02192
1.02139
1.02092
1.02065
1.02059
1.0204
1.02006
1.01971
1.01944
1.01913
1.01876
1.0184
1.01816
1.01784
1.01737
1.01691
1.01651
1.01611
1.01571
1.01533
1.01492
1.01449
1.01412
1.01366
1.01311
1.01253
1.01193
1.01143
1.011
1.01057
1.01012
1.00975
1.00971
0.759223
0.759178
0.759127
0.759072
0.759015
0.758956
0.758895
0.758832
0.758769
0.758696
0.75862
0.75854
0.758455
0.758365
0.758274
0.758196
0.758114
0.758134
0.758274
0.758712
0.759688
0.761884
0.765908
0.773596
0.785267
0.803436
0.825544
0.85327
0.881714
0.911228
0.937097
0.960126
0.976307
0.991829
0.999617
1.0063
1.00933
1.01209
1.01526
1.01822
1.02226
1.02602
1.0281
1.02792
1.02681
1.02533
1.02267
1.02085
1.02017
1.02055
1.02199
1.02379
1.02486
1.02442
1.02273
1.02112
1.02013
1.02044
1.02178
1.02277
1.02247
1.02161
1.02048
1.01983
1.02017
1.02081
1.02074
1.02012
1.0195
1.01925
1.01938
1.01932
1.01895
1.01857
1.01835
1.01814
1.01774
1.01737
1.01711
1.01693
1.01652
1.016
1.01557
1.01519
1.01477
1.01439
1.01404
1.01361
1.01317
1.01278
1.01232
1.01177
1.01123
1.01068
1.0102
1.00978
1.00937
1.00894
1.00861
1.00863
0.758167
0.758124
0.758077
0.758028
0.757978
0.757926
0.757873
0.757818
0.757761
0.757703
0.757642
0.757578
0.757514
0.75745
0.757386
0.757323
0.757261
0.757207
0.757136
0.757061
0.756983
0.756915
0.756835
0.756837
0.75691
0.757237
0.758092
0.760307
0.764783
0.774272
0.789439
0.812814
0.841662
0.873752
0.906289
0.935703
0.961398
0.982215
1.00023
1.0086
1.01462
1.01762
1.0195
1.0206
1.02106
1.01951
1.01658
1.01694
1.01814
1.02032
1.02153
1.02199
1.02159
1.01957
1.01764
1.01699
1.01763
1.01946
1.02067
1.02039
1.01964
1.01817
1.0173
1.01792
1.01901
1.01899
1.01838
1.01744
1.01713
1.01738
1.01749
1.01722
1.0168
1.01656
1.01649
1.01625
1.01585
1.01554
1.0154
1.01516
1.01475
1.0143
1.01393
1.01356
1.01318
1.01285
1.01253
1.01212
1.01173
1.01136
1.01092
1.01041
1.00993
1.00944
1.00903
1.00868
1.00831
1.00795
1.00767
1.00777
0.757224
0.757191
0.757157
0.757122
0.757086
0.757049
0.757012
0.756974
0.756936
0.756897
0.756858
0.756818
0.756779
0.756738
0.756697
0.756656
0.756614
0.756571
0.756528
0.756485
0.756445
0.756406
0.756371
0.756336
0.756319
0.75628
0.756239
0.756198
0.756189
0.756231
0.756418
0.757096
0.759
0.763554
0.774128
0.791653
0.820524
0.854469
0.892892
0.925594
0.955768
0.975164
0.99069
0.9984
1.00498
1.00799
1.01147
1.01695
1.02048
1.02218
1.02146
1.02053
1.01718
1.01416
1.01424
1.01529
1.01751
1.01954
1.01923
1.01792
1.01594
1.01509
1.01568
1.01691
1.01763
1.01718
1.01594
1.0152
1.0154
1.01584
1.01573
1.01534
1.01494
1.01488
1.01476
1.01447
1.01414
1.01393
1.01387
1.01361
1.01317
1.01278
1.01249
1.01217
1.01184
1.01158
1.01129
1.01093
1.01059
1.01025
1.00983
1.00937
1.00897
1.00855
1.0082
1.00789
1.00758
1.0073
1.00706
1.00723
0.75655
0.75653
0.756509
0.756488
0.756467
0.756445
0.756423
0.7564
0.756378
0.756355
0.756332
0.756309
0.756287
0.756265
0.756242
0.756221
0.756199
0.756179
0.756158
0.756139
0.756119
0.756101
0.756082
0.756064
0.756045
0.756029
0.756014
0.756002
0.75599
0.75598
0.75598
0.755962
0.755937
0.755943
0.756009
0.756302
0.757405
0.76053
0.76862
0.78672
0.814086
0.85366
0.892859
0.930464
0.961963
0.986699
1.00344
1.01256
1.0157
1.01726
1.0181
1.01552
1.01176
1.01254
1.01439
1.01696
1.01822
1.01779
1.01604
1.01398
1.01345
1.01393
1.01574
1.01633
1.01605
1.0148
1.01405
1.01419
1.01481
1.01477
1.01433
1.01403
1.01387
1.01391
1.01373
1.01335
1.01305
1.01302
1.01291
1.01263
1.0122
1.01186
1.01161
1.01131
1.01104
1.01084
1.01055
1.01022
1.00991
1.00958
1.0092
1.00877
1.00841
1.00805
1.00776
1.00747
1.00716
1.00694
1.00675
1.00697
0.756143
0.756132
0.756121
0.75611
0.756099
0.756088
0.756077
0.756065
0.756054
0.756042
0.756031
0.756019
0.756009
0.755998
0.755988
0.755978
0.755968
0.755958
0.755949
0.755941
0.755933
0.755925
0.755918
0.755911
0.755905
0.755898
0.755891
0.755884
0.755875
0.755867
0.755856
0.755848
0.755839
0.75583
0.755825
0.755811
0.755791
0.755788
0.755825
0.756077
0.757007
0.760624
0.769436
0.7914
0.824108
0.86915
0.912231
0.950422
0.975376
0.99177
1.00269
1.00521
1.01043
1.01475
1.01823
1.02016
1.01946
1.01639
1.01224
1.01214
1.01284
1.01485
1.01662
1.0161
1.01421
1.01303
1.01338
1.01443
1.01483
1.01436
1.01344
1.01332
1.01356
1.01351
1.01314
1.01279
1.01266
1.01272
1.01254
1.0121
1.01174
1.0115
1.01125
1.01094
1.01072
1.01054
1.01024
1.00992
1.00963
1.00929
1.00888
1.00852
1.00818
1.00784
1.00759
1.0073
1.00699
1.00678
1.00663
1.00687
0.755918
0.755913
0.755907
0.755902
0.755896
0.755891
0.755886
0.75588
0.755875
0.75587
0.755865
0.75586
0.755856
0.755852
0.755848
0.755844
0.755841
0.755837
0.755835
0.755832
0.75583
0.755827
0.755824
0.755822
0.755818
0.755814
0.755809
0.755803
0.755797
0.755789
0.755782
0.755773
0.755764
0.755754
0.755742
0.755733
0.755725
0.755712
0.7557
0.755684
0.755661
0.755665
0.755726
0.756114
0.757602
0.763248
0.778547
0.809243
0.854903
0.901743
0.945965
0.978451
1.00468
1.01265
1.01618
1.01779
1.01628
1.01078
1.01144
1.01323
1.01571
1.01699
1.01643
1.01412
1.01245
1.01268
1.01416
1.01509
1.01474
1.01356
1.013
1.0132
1.01362
1.01345
1.01289
1.01254
1.01268
1.01267
1.01242
1.01193
1.01157
1.01143
1.01118
1.01087
1.01066
1.01049
1.01017
1.00984
1.00957
1.00922
1.00879
1.00844
1.00812
1.00779
1.00754
1.00725
1.00694
1.00675
1.00662
1.00686
0.755797
0.755794
0.755792
0.75579
0.755787
0.755785
0.755782
0.75578
0.755778
0.755777
0.755775
0.755773
0.755772
0.755771
0.75577
0.755768
0.755767
0.755766
0.755765
0.755764
0.755763
0.755761
0.755758
0.755755
0.755751
0.755747
0.755741
0.755734
0.755727
0.755719
0.75571
0.755701
0.755693
0.755683
0.755672
0.755665
0.755656
0.755641
0.755628
0.755616
0.755605
0.755598
0.755589
0.755582
0.755586
0.755617
0.755804
0.756756
0.76094
0.774181
0.803573
0.853072
0.906856
0.949514
0.977594
0.99593
1.00375
1.00784
1.01399
1.01873
1.01971
1.01878
1.01463
1.01171
1.01217
1.0141
1.01588
1.01548
1.01394
1.01302
1.0132
1.01401
1.01394
1.01332
1.01264
1.01264
1.01297
1.01282
1.01227
1.0118
1.01166
1.01151
1.01125
1.01095
1.01078
1.01054
1.0102
1.00988
1.0096
1.00922
1.00881
1.00846
1.00814
1.00781
1.00756
1.00725
1.00694
1.00675
1.00664
1.00687
0.755736
0.755735
0.755734
0.755733
0.755732
0.755731
0.755731
0.75573
0.755729
0.755728
0.755728
0.755727
0.755726
0.755725
0.755725
0.755724
0.755723
0.755721
0.75572
0.755718
0.755715
0.755712
0.755708
0.755702
0.755697
0.755691
0.755683
0.755675
0.755667
0.755658
0.755647
0.75564
0.755634
0.755622
0.755611
0.755603
0.755593
0.755581
0.755571
0.755561
0.755554
0.755552
0.755555
0.755563
0.755571
0.755585
0.755584
0.755585
0.755599
0.755733
0.756533
0.760742
0.774508
0.810986
0.860969
0.913869
0.962948
0.995303
1.01226
1.0159
1.01778
1.01511
1.01079
1.01202
1.01486
1.01673
1.01641
1.01435
1.01276
1.01299
1.01449
1.01479
1.0142
1.01299
1.01273
1.01331
1.01336
1.0129
1.01223
1.0119
1.01189
1.01172
1.01139
1.01113
1.01097
1.01067
1.01027
1.00998
1.00967
1.00926
1.00887
1.00853
1.00819
1.00788
1.00761
1.00728
1.00697
1.00677
1.00666
1.00688
0.755703
0.755703
0.755703
0.755702
0.755702
0.755701
0.755701
0.7557
0.7557
0.755699
0.755698
0.755696
0.755695
0.755693
0.755692
0.75569
0.755688
0.755685
0.755682
0.755678
0.755675
0.75567
0.755663
0.755657
0.75565
0.755643
0.755635
0.755626
0.755619
0.755609
0.755599
0.755591
0.755582
0.755571
0.755562
0.755553
0.755544
0.755536
0.75553
0.755528
0.755529
0.755534
0.755541
0.755551
0.755561
0.755568
0.75557
0.755569
0.755566
0.755556
0.755539
0.755549
0.755688
0.756832
0.762035
0.781855
0.82418
0.885387
0.941045
0.973262
0.997797
1.0026
1.00996
1.015
1.01957
1.01892
1.01588
1.0122
1.01252
1.0143
1.01577
1.01515
1.0134
1.01266
1.01329
1.01402
1.01366
1.01266
1.01217
1.01218
1.01216
1.01187
1.01151
1.01138
1.01118
1.01076
1.01035
1.01009
1.00977
1.00932
1.00896
1.00862
1.00827
1.00796
1.00766
1.00731
1.00701
1.00681
1.00667
1.00688
0.755675
0.755674
0.755674
0.755673
0.755673
0.755672
0.755671
0.75567
0.755668
0.755667
0.755665
0.755663
0.755661
0.755658
0.755656
0.755653
0.75565
0.755646
0.755643
0.755639
0.755633
0.755627
0.755621
0.755615
0.755608
0.755601
0.755591
0.755584
0.755576
0.755567
0.755558
0.755548
0.755538
0.75553
0.755522
0.755517
0.755512
0.75551
0.755511
0.755514
0.75552
0.755527
0.755536
0.755545
0.755552
0.755554
0.755554
0.755551
0.755545
0.755534
0.755522
0.755506
0.755487
0.755473
0.755497
0.755797
0.757646
0.7686
0.798535
0.855381
0.916016
0.965041
1.00246
1.01221
1.01743
1.01605
1.01153
1.01197
1.01463
1.01658
1.0161
1.01357
1.01247
1.01286
1.01457
1.01437
1.01325
1.01228
1.01229
1.01263
1.01239
1.01195
1.01163
1.01161
1.01135
1.01081
1.01043
1.0102
1.00982
1.00937
1.00906
1.00869
1.00832
1.00802
1.0077
1.00733
1.00704
1.00685
1.00668
1.00688
0.755637
0.755637
0.755636
0.755635
0.755634
0.755632
0.755631
0.755629
0.755627
0.755626
0.755623
0.755621
0.755619
0.755616
0.755614
0.75561
0.755607
0.755603
0.755598
0.755594
0.755588
0.755582
0.755576
0.75557
0.755564
0.755557
0.755549
0.75554
0.755531
0.755524
0.755517
0.75551
0.755505
0.755502
0.755499
0.755499
0.755499
0.755502
0.755506
0.75551
0.755516
0.755522
0.75553
0.755535
0.755538
0.755538
0.755538
0.755536
0.755528
0.755517
0.755503
0.755488
0.755475
0.755462
0.755455
0.755456
0.755468
0.755567
0.756323
0.76184
0.781337
0.8334
0.899275
0.950073
0.988989
0.997647
1.00698
1.01314
1.01935
1.01811
1.01479
1.01172
1.01233
1.01461
1.01549
1.01424
1.0125
1.01219
1.01291
1.01288
1.01237
1.01188
1.01187
1.01176
1.01132
1.01079
1.01048
1.01024
1.00981
1.0094
1.00911
1.0087
1.00832
1.00804
1.00771
1.00734
1.00705
1.00686
1.00665
1.00686
0.755598
0.755597
0.755596
0.755595
0.755594
0.755593
0.75559
0.755588
0.755586
0.755584
0.755582
0.755579
0.755577
0.755576
0.755574
0.75557
0.755567
0.755564
0.755559
0.755554
0.755549
0.755543
0.755538
0.755532
0.755527
0.755522
0.755517
0.755512
0.755507
0.755502
0.755499
0.755498
0.755496
0.755496
0.755497
0.755498
0.7555
0.755502
0.755502
0.755503
0.755506
0.75551
0.755515
0.755518
0.755517
0.755516
0.755516
0.755511
0.755501
0.755492
0.755483
0.755477
0.755471
0.755463
0.755458
0.755464
0.755472
0.755481
0.755489
0.755529
0.755851
0.758836
0.772651
0.817834
0.88173
0.943657
0.992218
1.00892
1.0164
1.01563
1.011
1.01196
1.01499
1.01639
1.01529
1.01213
1.01184
1.01273
1.01342
1.01288
1.01203
1.01183
1.01213
1.01182
1.01115
1.01069
1.01054
1.01023
1.00977
1.00943
1.00911
1.00867
1.00829
1.00803
1.00769
1.00732
1.00704
1.00684
1.0066
1.00681
0.755562
0.75556
0.755557
0.755555
0.755554
0.755552
0.755549
0.755547
0.755546
0.755545
0.755544
0.755543
0.755541
0.75554
0.755539
0.755536
0.755533
0.75553
0.755526
0.755523
0.75552
0.755517
0.755514
0.755512
0.755511
0.755509
0.755507
0.755505
0.755505
0.755504
0.755504
0.755505
0.755506
0.755508
0.755507
0.755505
0.755503
0.755499
0.755495
0.755491
0.755492
0.755494
0.755492
0.755488
0.755483
0.755482
0.75548
0.755475
0.755471
0.755471
0.755472
0.755476
0.75548
0.755479
0.755481
0.755489
0.755488
0.755486
0.755486
0.755487
0.75549
0.755509
0.755668
0.75751
0.767534
0.808939
0.874486
0.936231
0.982608
0.995649
1.00542
1.01408
1.01909
1.01783
1.01256
1.01056
1.01189
1.01401
1.01365
1.01215
1.01167
1.01225
1.01223
1.01166
1.01085
1.01064
1.01056
1.01017
1.00971
1.00943
1.00905
1.00857
1.00822
1.00799
1.00765
1.00727
1.00702
1.00678
1.00651
1.00675
0.755512
0.755511
0.755511
0.755511
0.755511
0.755511
0.755512
0.755512
0.755512
0.755512
0.755511
0.75551
0.755508
0.755507
0.755506
0.755505
0.755505
0.755505
0.755505
0.755506
0.755507
0.755508
0.755509
0.755511
0.755514
0.755516
0.755517
0.755518
0.755521
0.755521
0.75552
0.755521
0.75552
0.755518
0.755514
0.755508
0.755501
0.755493
0.755487
0.755482
0.755475
0.755465
0.755454
0.755446
0.755442
0.755441
0.755443
0.755445
0.755452
0.755461
0.755475
0.755497
0.75551
0.755511
0.755512
0.75551
0.7555
0.755487
0.755469
0.755457
0.755451
0.755453
0.75545
0.755457
0.755555
0.756938
0.765566
0.803637
0.867848
0.937174
0.98956
1.00949
1.01531
1.01311
1.00886
1.01124
1.01494
1.0145
1.01251
1.01109
1.01164
1.01268
1.01226
1.01098
1.01052
1.01076
1.01054
1.01007
1.00963
1.0094
1.00895
1.00846
1.00816
1.00793
1.00758
1.00722
1.00695
1.00669
1.0064
1.00667
0.755469
0.755469
0.75547
0.75547
0.755471
0.755471
0.755472
0.755473
0.755473
0.755474
0.755476
0.755477
0.755479
0.755481
0.755483
0.755486
0.75549
0.755494
0.755499
0.755504
0.755509
0.755513
0.755517
0.755521
0.755525
0.755527
0.755528
0.755529
0.75553
0.755529
0.755528
0.755526
0.755523
0.755519
0.755513
0.755506
0.755496
0.755484
0.755468
0.755452
0.755439
0.755425
0.755415
0.755409
0.755409
0.75541
0.755416
0.755426
0.755443
0.755464
0.755491
0.755522
0.755535
0.755534
0.755531
0.755521
0.755504
0.755478
0.755444
0.755427
0.755423
0.755423
0.755425
0.755438
0.755459
0.755473
0.755551
0.756688
0.764655
0.803305
0.872277
0.937766
0.981591
0.99794
1.00551
1.01629
1.01772
1.0152
1.01024
1.01068
1.01299
1.0129
1.01142
1.01041
1.01072
1.0109
1.01046
1.00982
1.00965
1.00937
1.00886
1.00837
1.00817
1.00788
1.00751
1.00718
1.00685
1.00655
1.00627
1.0066
0.755439
0.755441
0.755442
0.755444
0.755445
0.755447
0.755449
0.755451
0.755454
0.755458
0.755462
0.755466
0.755471
0.755476
0.755481
0.755486
0.755491
0.755496
0.755501
0.755505
0.75551
0.755513
0.755517
0.75552
0.755522
0.755522
0.755522
0.755522
0.755522
0.75552
0.755517
0.755514
0.755509
0.755502
0.755492
0.755478
0.755463
0.755446
0.755432
0.755418
0.755405
0.755394
0.755385
0.755383
0.755384
0.755389
0.755399
0.755419
0.755446
0.755473
0.755501
0.755528
0.755537
0.755537
0.755531
0.755517
0.755491
0.755453
0.755418
0.755403
0.755403
0.755405
0.755413
0.755438
0.755479
0.755492
0.75549
0.75548
0.755533
0.756673
0.765767
0.805534
0.874564
0.949554
0.994363
1.01392
1.01453
1.00911
1.00971
1.01303
1.01428
1.01247
1.00994
1.0101
1.01135
1.01106
1.01007
1.00966
1.00976
1.00944
1.00875
1.00833
1.00821
1.0079
1.00749
1.00716
1.00676
1.00641
1.00614
1.00655
0.755438
0.75544
0.755442
0.755446
0.755449
0.755452
0.755456
0.755459
0.755462
0.755467
0.75547
0.755472
0.755475
0.755479
0.755482
0.755486
0.755489
0.755493
0.755495
0.755498
0.7555
0.755502
0.755504
0.755505
0.755505
0.755504
0.755504
0.755503
0.7555
0.755496
0.755491
0.755485
0.755477
0.755465
0.755453
0.75544
0.755426
0.755414
0.755403
0.755392
0.755383
0.755377
0.755372
0.755373
0.755378
0.755389
0.755409
0.755435
0.755458
0.755478
0.755496
0.755513
0.755521
0.755519
0.755508
0.755486
0.755456
0.755423
0.755395
0.755386
0.75539
0.755398
0.755417
0.755448
0.755486
0.755492
0.75549
0.755476
0.755431
0.755396
0.755476
0.75677
0.767672
0.813059
0.89096
0.957369
0.987741
1.00045
1.01126
1.01744
1.01565
1.00945
1.00933
1.01123
1.01189
1.0107
1.00974
1.01
1.00998
1.00933
1.00864
1.00847
1.00828
1.00788
1.00749
1.00716
1.00668
1.00627
1.00605
1.00653
0.755467
0.755467
0.755467
0.755468
0.755471
0.755471
0.755473
0.755473
0.755473
0.755474
0.755476
0.755476
0.755476
0.755477
0.755477
0.755478
0.75548
0.75548
0.75548
0.75548
0.755479
0.755477
0.755474
0.755469
0.755465
0.755462
0.755454
0.755449
0.755445
0.75544
0.755436
0.755432
0.755428
0.755423
0.755417
0.755409
0.755402
0.755396
0.75539
0.755384
0.755383
0.755386
0.755392
0.7554
0.75541
0.755426
0.755444
0.755457
0.755466
0.755473
0.755478
0.755479
0.755479
0.755469
0.755452
0.755433
0.755414
0.755398
0.755385
0.755384
0.755393
0.75541
0.755429
0.755454
0.75548
0.755482
0.755473
0.755442
0.75539
0.755362
0.755362
0.75538
0.755533
0.757321
0.773589
0.824668
0.904246
0.974696
1.0064
1.01382
1.0105
1.00727
1.01076
1.01326
1.01198
1.00955
1.0096
1.01065
1.01024
1.00906
1.00854
1.00872
1.00841
1.00787
1.00751
1.00714
1.00659
1.00614
1.00605
1.00656
0.755488
0.755486
0.755484
0.755483
0.755481
0.755479
0.755477
0.755474
0.755472
0.755471
0.75547
0.755469
0.755467
0.755464
0.755461
0.755457
0.755452
0.755445
0.755438
0.755431
0.755424
0.755415
0.755407
0.755401
0.755393
0.755387
0.755384
0.755382
0.755383
0.755384
0.755387
0.755389
0.755391
0.755393
0.755396
0.755395
0.755393
0.755396
0.755408
0.75542
0.755426
0.755436
0.755443
0.755447
0.755452
0.755459
0.755464
0.755466
0.755465
0.755454
0.755432
0.755421
0.755411
0.755399
0.755391
0.755387
0.755387
0.755389
0.755396
0.755408
0.755429
0.755442
0.755441
0.755449
0.755465
0.755458
0.755433
0.755395
0.755357
0.755351
0.755361
0.755409
0.755525
0.755571
0.755814
0.758547
0.780593
0.847076
0.924029
0.977072
0.996353
1.0057
1.01654
1.01501
1.01013
1.00894
1.0106
1.01112
1.00981
1.00876
1.00895
1.00893
1.00839
1.00779
1.00756
1.00715
1.00654
1.00607
1.00611
1.00662
0.755495
0.755494
0.755491
0.755488
0.755484
0.755479
0.755475
0.75547
0.755463
0.755455
0.755447
0.755439
0.755433
0.755426
0.755418
0.75541
0.755401
0.755389
0.75538
0.75537
0.755359
0.755353
0.755346
0.755341
0.755337
0.755337
0.755339
0.755344
0.755351
0.755358
0.755365
0.755373
0.755378
0.755384
0.755392
0.755406
0.755421
0.75544
0.755466
0.755474
0.755476
0.755475
0.755473
0.755469
0.755465
0.755466
0.755466
0.755463
0.755448
0.755412
0.755377
0.755364
0.755355
0.755355
0.75536
0.755368
0.755381
0.755411
0.755438
0.755456
0.755468
0.755465
0.755446
0.755441
0.755433
0.755413
0.755389
0.755361
0.755343
0.755354
0.755397
0.755479
0.755568
0.755593
0.755585
0.755543
0.75587
0.761081
0.794388
0.866815
0.950555
0.997216
1.01323
1.0126
1.00747
1.01027
1.01248
1.01115
1.00865
1.0086
1.00965
1.00916
1.0081
1.00775
1.00763
1.00708
1.0065
1.0061
1.00622
1.00668
0.755463
0.755457
0.755452
0.755447
0.755441
0.755434
0.755429
0.755425
0.755419
0.755413
0.755406
0.755399
0.755392
0.755385
0.755378
0.755369
0.75536
0.755349
0.75534
0.755333
0.755327
0.755322
0.755318
0.755316
0.755317
0.755319
0.755325
0.755333
0.755344
0.755355
0.755367
0.755382
0.755395
0.755409
0.755428
0.755446
0.755462
0.75548
0.75549
0.755492
0.755489
0.755482
0.755471
0.755461
0.755455
0.755452
0.755442
0.755426
0.755404
0.755371
0.755346
0.755334
0.755332
0.755339
0.755353
0.755374
0.755409
0.755449
0.755477
0.755485
0.755481
0.755469
0.75545
0.755416
0.755381
0.75537
0.755363
0.755348
0.755357
0.755401
0.755479
0.755557
0.755586
0.755585
0.755547
0.755433
0.755236
0.755242
0.756115
0.766138
0.815974
0.899854
0.966572
0.992055
1.00271
1.01555
1.01424
1.00932
1.00792
1.00974
1.01009
1.0087
1.00779
1.00801
1.00775
1.00702
1.00652
1.00628
1.00636
1.0067
0.755411
0.755409
0.755407
0.755405
0.755402
0.7554
0.755397
0.755394
0.75539
0.755386
0.755382
0.755377
0.755371
0.755365
0.755358
0.755351
0.755344
0.755335
0.755329
0.755326
0.755326
0.755328
0.755331
0.755337
0.755345
0.755358
0.755369
0.755382
0.755396
0.755408
0.755422
0.755433
0.75544
0.755447
0.755455
0.755465
0.755475
0.755484
0.755486
0.755483
0.755471
0.755453
0.755431
0.755407
0.755398
0.755393
0.755383
0.755376
0.755367
0.755351
0.755335
0.75533
0.755334
0.755351
0.755379
0.755422
0.755449
0.755473
0.755486
0.755485
0.755478
0.755445
0.755402
0.755364
0.755345
0.75535
0.755353
0.755368
0.755425
0.755497
0.755567
0.755592
0.755587
0.755548
0.755434
0.755283
0.755156
0.755124
0.755146
0.755321
0.757589
0.779228
0.842798
0.931279
0.988855
1.01161
1.01139
1.00615
1.00915
1.01155
1.0101
1.00759
1.00779
1.00831
1.00774
1.00688
1.00652
1.00657
1.00646
1.00666
0.755388
0.755388
0.755388
0.755388
0.755388
0.755388
0.755387
0.755386
0.755383
0.755383
0.755383
0.755381
0.755382
0.755384
0.755387
0.755387
0.755386
0.755392
0.755395
0.755396
0.755404
0.755413
0.755423
0.755435
0.755445
0.755456
0.75546
0.755461
0.755462
0.755462
0.755461
0.755461
0.755459
0.755456
0.755459
0.75546
0.755458
0.755451
0.755436
0.755412
0.755384
0.75536
0.755338
0.755325
0.755326
0.755335
0.755338
0.755348
0.755351
0.755355
0.755362
0.755375
0.755397
0.755419
0.755447
0.755468
0.755471
0.755478
0.755474
0.755461
0.755436
0.755393
0.755351
0.755334
0.755336
0.755351
0.755388
0.755461
0.755544
0.755594
0.755607
0.755596
0.75554
0.755424
0.755265
0.755163
0.75512
0.755127
0.755214
0.755418
0.755499
0.755928
0.761388
0.799156
0.882123
0.956187
0.988174
1.00025
1.0145
1.01349
1.00836
1.00702
1.00885
1.00871
1.00738
1.00675
1.00689
1.00679
1.00643
1.0066
0.755393
0.755398
0.755403
0.755412
0.755419
0.755425
0.755436
0.755448
0.755453
0.755463
0.755467
0.755468
0.755476
0.755479
0.75548
0.755485
0.755485
0.755484
0.755485
0.755482
0.755483
0.755487
0.75549
0.755495
0.755498
0.755497
0.755494
0.755486
0.755484
0.75548
0.755466
0.755457
0.755449
0.755428
0.75541
0.755398
0.755381
0.755357
0.75533
0.755307
0.755288
0.755276
0.755275
0.755279
0.755289
0.755312
0.755329
0.755346
0.755379
0.755413
0.755436
0.755457
0.75547
0.755482
0.755485
0.755483
0.755476
0.755454
0.755417
0.755378
0.755364
0.755343
0.755333
0.755333
0.755353
0.755413
0.755495
0.755588
0.755631
0.755627
0.755613
0.755544
0.755397
0.755227
0.755135
0.755108
0.755117
0.755207
0.755363
0.755524
0.755559
0.755542
0.755496
0.756587
0.771775
0.828562
0.919874
0.984233
1.0108
1.01038
1.00529
1.00851
1.01016
1.00843
1.00662
1.00685
1.0072
1.00681
1.00636
1.00652
0.755482
0.755487
0.755493
0.755498
0.755501
0.755506
0.755514
0.755517
0.755518
0.755522
0.755524
0.755522
0.755522
0.755523
0.75552
0.75552
0.755519
0.755511
0.755507
0.755502
0.755494
0.755492
0.755491
0.755488
0.755483
0.755479
0.755472
0.755463
0.755449
0.755416
0.755391
0.755379
0.755358
0.755337
0.755334
0.755327
0.75531
0.755289
0.755266
0.755253
0.755249
0.755251
0.755255
0.755266
0.75529
0.755323
0.75536
0.755409
0.75546
0.755482
0.755481
0.755483
0.75549
0.755493
0.755489
0.755461
0.755414
0.755369
0.755331
0.755312
0.755314
0.75532
0.755333
0.755368
0.755447
0.755528
0.755608
0.75565
0.755648
0.755626
0.755549
0.755391
0.755194
0.755075
0.755081
0.7551
0.755193
0.755385
0.755511
0.75557
0.755561
0.755455
0.755261
0.755181
0.755409
0.759292
0.791468
0.874095
0.953303
0.986064
0.999639
1.01374
1.01182
1.00658
1.00642
1.0079
1.00752
1.00666
1.00632
1.00648
0.755525
0.755526
0.755526
0.755527
0.755527
0.755529
0.755529
0.755528
0.755525
0.755525
0.755522
0.755518
0.755513
0.755504
0.755502
0.755501
0.755494
0.755484
0.755473
0.755462
0.75545
0.755438
0.755422
0.755407
0.755394
0.755374
0.755352
0.755343
0.755327
0.755296
0.75529
0.7553
0.755299
0.755301
0.755306
0.755305
0.755294
0.75527
0.755263
0.755267
0.755283
0.755308
0.755334
0.755363
0.755392
0.755417
0.75544
0.755484
0.755501
0.755495
0.755486
0.755483
0.755477
0.755463
0.755431
0.755381
0.755335
0.755298
0.75529
0.755295
0.755309
0.755351
0.755429
0.755539
0.755599
0.755629
0.755646
0.755648
0.755615
0.75552
0.75537
0.755198
0.755059
0.755043
0.75507
0.755191
0.755391
0.755552
0.755588
0.755575
0.755473
0.755275
0.755136
0.755136
0.755184
0.755316
0.75628
0.769417
0.824771
0.918406
0.983996
1.00953
1.0088
1.00461
1.0082
1.00881
1.00702
1.00626
1.00661
1.00647
0.755478
0.755472
0.755466
0.75546
0.755454
0.755443
0.755429
0.755415
0.7554
0.75539
0.755384
0.755375
0.75536
0.755351
0.75535
0.755346
0.755332
0.755319
0.755316
0.75531
0.755299
0.755288
0.755278
0.755268
0.755263
0.755259
0.75525
0.75525
0.755258
0.755256
0.755258
0.755276
0.755289
0.755304
0.755325
0.755333
0.755337
0.755362
0.75539
0.7554
0.75544
0.755467
0.75547
0.75548
0.755484
0.755476
0.755473
0.75549
0.755491
0.755475
0.755438
0.755397
0.755366
0.755352
0.755332
0.755302
0.75528
0.755276
0.755282
0.75533
0.755427
0.755534
0.755641
0.755693
0.755687
0.755664
0.755634
0.755562
0.755436
0.755295
0.755173
0.755078
0.755034
0.755048
0.755178
0.755395
0.755574
0.755623
0.755603
0.755484
0.755265
0.755127
0.755102
0.755139
0.755326
0.755485
0.75548
0.755614
0.759006
0.791255
0.874933
0.95494
0.986705
1.00025
1.01262
1.00957
1.00583
1.0063
1.00696
1.00618
0.755308
0.755299
0.755291
0.755284
0.755277
0.755269
0.755257
0.755244
0.755228
0.755212
0.755206
0.755208
0.755207
0.755205
0.755208
0.755211
0.755212
0.755208
0.755207
0.755215
0.755222
0.755225
0.755227
0.755233
0.755239
0.75524
0.755237
0.75524
0.75526
0.755272
0.755287
0.755317
0.755358
0.75541
0.755473
0.755489
0.755499
0.755531
0.755534
0.755536
0.755549
0.755552
0.755543
0.755527
0.755513
0.755482
0.755436
0.75541
0.755386
0.755357
0.755321
0.755298
0.755286
0.755283
0.755278
0.755264
0.755268
0.755294
0.755376
0.755541
0.755648
0.75573
0.755746
0.75574
0.755712
0.755613
0.755468
0.755315
0.755182
0.755095
0.755077
0.75506
0.755087
0.755211
0.755442
0.755602
0.755654
0.755633
0.755491
0.755252
0.755093
0.755075
0.755109
0.755293
0.755503
0.755525
0.755478
0.755272
0.755219
0.756137
0.770213
0.829003
0.925469
0.986499
1.00867
1.0065
1.00569
1.0082
1.00732
1.00554
0.755184
0.755182
0.755178
0.755172
0.75517
0.755167
0.755164
0.755164
0.755161
0.75515
0.75515
0.755151
0.755147
0.755153
0.755169
0.755169
0.755171
0.755185
0.755188
0.75519
0.755204
0.755224
0.755239
0.755252
0.755268
0.755289
0.755319
0.755356
0.755398
0.755439
0.75548
0.755516
0.755528
0.755536
0.755544
0.75556
0.75557
0.755566
0.755563
0.755558
0.755541
0.7555
0.755459
0.755434
0.755394
0.75532
0.755262
0.755239
0.755239
0.755251
0.755269
0.755275
0.755269
0.755254
0.755259
0.75531
0.755393
0.755481
0.755613
0.755747
0.755774
0.755767
0.755744
0.755685
0.755552
0.75536
0.755185
0.755081
0.755026
0.755035
0.755054
0.755134
0.755319
0.755536
0.755669
0.755691
0.755649
0.755483
0.755228
0.755052
0.755039
0.755073
0.75526
0.755528
0.755572
0.755517
0.755314
0.755133
0.755137
0.755216
0.75551
0.759707
0.797056
0.883094
0.962582
0.98699
1.00425
1.01014
1.00735
1.00496
0.75521
0.755219
0.755228
0.755237
0.755252
0.755269
0.755275
0.755286
0.755304
0.755313
0.755334
0.755351
0.75536
0.755368
0.755381
0.755421
0.755468
0.755471
0.755478
0.755517
0.75554
0.755551
0.755563
0.755584
0.755602
0.755614
0.755638
0.75565
0.75564
0.755625
0.755627
0.755629
0.755618
0.75558
0.755546
0.755532
0.755527
0.755506
0.75546
0.755394
0.75533
0.755271
0.75525
0.755249
0.755236
0.755195
0.755184
0.755184
0.755189
0.755219
0.755265
0.755327
0.755392
0.755433
0.755498
0.755588
0.755671
0.755722
0.755773
0.755791
0.755771
0.755695
0.75553
0.755388
0.75522
0.755081
0.755033
0.755011
0.755005
0.755033
0.755158
0.755431
0.755681
0.755761
0.75574
0.755653
0.755431
0.755167
0.754996
0.754991
0.755026
0.755242
0.75553
0.755641
0.755586
0.755354
0.75513
0.75509
0.755167
0.755371
0.755497
0.755499
0.756614
0.774283
0.840919
0.936293
0.995054
1.00532
1.00218
1.00496
0.75573
0.755748
0.755777
0.755807
0.755826
0.755838
0.755849
0.755858
0.755869
0.755894
0.755918
0.755924
0.755935
0.755946
0.755947
0.755956
0.75596
0.755948
0.755921
0.755913
0.755896
0.755867
0.75586
0.755864
0.755862
0.755845
0.755819
0.755763
0.755697
0.75563
0.7556
0.755589
0.75557
0.755516
0.755428
0.755378
0.755379
0.755386
0.755357
0.755269
0.755201
0.755182
0.755187
0.755196
0.755196
0.755189
0.755193
0.755227
0.755324
0.755449
0.755578
0.755735
0.755837
0.75589
0.755907
0.755918
0.75589
0.755833
0.755752
0.755628
0.755503
0.755325
0.755187
0.755105
0.755006
0.754985
0.755002
0.755026
0.755104
0.755287
0.755561
0.755852
0.755856
0.755812
0.755632
0.755333
0.755063
0.754935
0.75493
0.75499
0.755261
0.755582
0.755689
0.755632
0.755374
0.755127
0.755045
0.755088
0.755333
0.755505
0.755485
0.755333
0.755199
0.75553
0.761542
0.81058
0.900044
0.965412
0.992933
1.00665
0.756356
0.756342
0.756334
0.756328
0.75631
0.75627
0.756235
0.756229
0.756236
0.756232
0.756236
0.756238
0.756224
0.756223
0.756229
0.756222
0.756196
0.756153
0.756089
0.755995
0.755958