/*--------------------------------*- C++ -*----------------------------------*\
  =========                 |
  \\      /  F ield         | OpenFOAM: The Open Source CFD Toolbox
   \\    /   O peration     | Website:  https://openfoam.org
    \\  /    A nd           | Version:  7
     \\/     M anipulation  |
\*---------------------------------------------------------------------------*/
FoamFile
{
    version     2.0;
    format      ascii;
    class       volScalarField;
    location    "9";
    object      rho;
}
// * * * * * * * * * * * * * * * * * * * * * * * * * * * * * * * * * * * * * //

dimensions      [1 -3 0 0 0 0 0];

internalField   nonuniform List<scalar> 
12750
(
0.249947
0.367385
0.485206
0.585602
0.667582
0.727256
0.7764
0.797632
0.828755
0.84711
0.868641
0.893344
0.915324
0.933764
0.955446
0.953919
0.955955
0.964483
0.985824
1.00202
1.01384
1.02395
1.03278
1.04799
1.07906
1.10516
1.10698
1.1158
1.13358
1.15402
0.147659
0.153166
0.176581
0.229594
0.313959
0.424593
0.54802
0.652162
0.743463
0.805602
0.847565
0.860538
0.849742
0.838702
0.833837
0.834728
0.84525
0.879397
0.909302
0.921684
0.934322
0.95248
0.968461
0.983246
1.00474
1.03291
1.05697
1.08265
1.1037
1.12213
0.157292
0.160482
0.164914
0.167091
0.168186
0.175141
0.200754
0.26973
0.362856
0.505701
0.631266
0.753339
0.792575
0.80736
0.797433
0.797821
0.806658
0.825188
0.822014
0.827794
0.847504
0.871696
0.887103
0.90296
0.926473
0.955562
0.97995
1.00381
1.02095
1.04488
0.167173
0.169974
0.172497
0.174915
0.177098
0.178765
0.179419
0.18058
0.182196
0.194756
0.24377
0.347885
0.515288
0.648713
0.747406
0.805681
0.818672
0.803869
0.769071
0.769729
0.79328
0.823849
0.837842
0.840134
0.853226
0.876299
0.899121
0.922158
0.938005
0.965294
0.175559
0.177707
0.179691
0.181098
0.182282
0.183022
0.18357
0.184239
0.185723
0.185957
0.18539
0.182712
0.194849
0.255514
0.385504
0.571266
0.712091
0.753758
0.755481
0.758821
0.772261
0.790379
0.812193
0.821217
0.829809
0.84245
0.859439
0.876795
0.885776
0.90068
0.181808
0.182318
0.182887
0.183303
0.183739
0.184054
0.184254
0.184674
0.184521
0.183318
0.180745
0.177527
0.177169
0.177611
0.178681
0.20974
0.321359
0.519789
0.699208
0.75149
0.775032
0.792848
0.80322
0.81287
0.822722
0.830278
0.842853
0.856323
0.863804
0.879318
0.181152
0.18139
0.18192
0.182761
0.183526
0.18357
0.183435
0.182753
0.181566
0.179688
0.176651
0.175302
0.175788
0.176896
0.178415
0.181633
0.185206
0.207401
0.327322
0.541289
0.687553
0.769568
0.8104
0.821678
0.845539
0.845389
0.856066
0.863573
0.868034
0.875025
0.179708
0.180543
0.181229
0.181836
0.182632
0.182724
0.182485
0.181475
0.180551
0.179008
0.176327
0.175007
0.175708
0.177218
0.178974
0.181695
0.188666
0.197975
0.203493
0.234796
0.348697
0.562786
0.747881
0.824853
0.887533
0.875521
0.883862
0.878461
0.885399
0.896531
0.176814
0.178318
0.18045
0.182472
0.183277
0.183084
0.182393
0.18076
0.180774
0.183427
0.184035
0.182845
0.183394
0.18799
0.194742
0.200722
0.205323
0.208596
0.215578
0.22426
0.232253
0.255743
0.384594
0.630232
0.827178
0.901301
0.957976
0.939939
0.956455
0.947772
0.17914
0.181634
0.183056
0.183626
0.183854
0.183509
0.183032
0.184137
0.188679
0.198041
0.206527
0.2096
0.211694
0.214848
0.221165
0.231218
0.240223
0.240553
0.241065
0.241419
0.247881
0.264308
0.271842
0.297249
0.441984
0.725096
0.906221
0.976418
1.05366
1.02359
0.19377
0.195528
0.197949
0.200825
0.202541
0.203898
0.205095
0.207255
0.211959
0.218669
0.225869
0.228909
0.230579
0.233595
0.240214
0.249847
0.261858
0.270592
0.274861
0.275735
0.274672
0.275555
0.288517
0.303965
0.304202
0.345124
0.526444
0.825049
1.00981
1.07724
0.217327
0.221602
0.226212
0.230415
0.234507
0.237714
0.237525
0.237642
0.240586
0.247783
0.253884
0.254291
0.2547
0.25712
0.262338
0.268263
0.276866
0.287435
0.295822
0.303283
0.306309
0.304167
0.306275
0.31697
0.330482
0.335766
0.338625
0.408866
0.631199
1.00207
0.252323
0.253727
0.255652
0.258671
0.262927
0.266757
0.269262
0.272994
0.279015
0.287483
0.295619
0.298144
0.299278
0.299756
0.300042
0.299912
0.301593
0.307218
0.316318
0.327057
0.337534
0.345341
0.345118
0.34835
0.358569
0.363855
0.369477
0.376155
0.379295
0.643101
0.298098
0.299348
0.301467
0.30474
0.309142
0.314145
0.314396
0.314926
0.31952
0.326498
0.333489
0.337425
0.3372
0.33732
0.339765
0.34567
0.35372
0.358952
0.360052
0.362437
0.369315
0.379241
0.385522
0.386033
0.387676
0.392079
0.399158
0.40572
0.411298
0.422874
0.350053
0.350146
0.350783
0.352589
0.356041
0.361709
0.362787
0.363588
0.366084
0.371388
0.375928
0.375505
0.376003
0.379464
0.383475
0.386452
0.390573
0.397762
0.402494
0.404166
0.405337
0.409188
0.416471
0.420234
0.422976
0.429279
0.437189
0.437987
0.439876
0.447818
0.409447
0.408757
0.408899
0.410164
0.4136
0.419282
0.421223
0.420596
0.421266
0.424511
0.430714
0.436752
0.438971
0.438216
0.43578
0.434805
0.435351
0.439533
0.449185
0.45442
0.454638
0.454341
0.455447
0.460459
0.465433
0.468448
0.470451
0.47411
0.477642
0.482106
0.482837
0.481328
0.481446
0.482874
0.487236
0.492731
0.494455
0.49366
0.492185
0.492583
0.496012
0.500196
0.501606
0.502556
0.503322
0.504914
0.505252
0.504835
0.505152
0.506909
0.508526
0.508549
0.508654
0.509083
0.511258
0.511898
0.512696
0.514608
0.516421
0.518845
0.570795
0.566823
0.566349
0.567888
0.5731
0.578259
0.579204
0.576839
0.570581
0.568397
0.570224
0.573827
0.573789
0.57193
0.568943
0.565366
0.564155
0.56457
0.565051
0.564944
0.564703
0.565172
0.56641
0.566531
0.56635
0.566706
0.56671
0.566077
0.563669
0.561363
0.679213
0.668842
0.6667
0.667721
0.673187
0.678568
0.678879
0.675476
0.666213
0.661597
0.662924
0.66326
0.66063
0.657147
0.656147
0.654032
0.64924
0.645268
0.644401
0.643201
0.640171
0.635663
0.631535
0.628951
0.625464
0.621583
0.618041
0.614487
0.61496
0.613491
0.815008
0.793847
0.785193
0.784846
0.789793
0.795393
0.795398
0.790908
0.777918
0.770811
0.771546
0.770706
0.762364
0.753564
0.751529
0.748931
0.742745
0.734886
0.728729
0.723849
0.718748
0.713343
0.706833
0.700527
0.695048
0.690021
0.685575
0.679193
0.674114
0.668037
0.972478
0.958428
0.934018
0.922662
0.923096
0.929301
0.930613
0.925859
0.911198
0.897708
0.897608
0.896383
0.884789
0.867899
0.863288
0.860169
0.852494
0.841858
0.831452
0.823366
0.815355
0.805684
0.796636
0.787068
0.779059
0.770247
0.761584
0.753552
0.743085
0.725247
1.14292
1.13886
1.12431
1.0957
1.07987
1.08125
1.08631
1.08376
1.06928
1.04567
1.03962
1.03827
1.02846
1.00635
0.993992
0.987608
0.978273
0.964169
0.949049
0.936351
0.924397
0.910673
0.897174
0.883311
0.869419
0.855671
0.841326
0.82704
0.816708
0.797933
1.32776
1.32522
1.31847
1.30503
1.28382
1.26
1.24997
1.25128
1.24699
1.22669
1.20162
1.19642
1.18928
1.16675
1.14572
1.1337
1.12128
1.10348
1.08369
1.06545
1.04895
1.03134
1.0118
0.993307
0.974882
0.956758
0.939081
0.919373
0.902802
0.876823
1.53444
1.53261
1.52928
1.51997
1.50239
1.47547
1.44773
1.4437
1.44002
1.42261
1.38894
1.37435
1.36482
1.34385
1.31804
1.29765
1.27907
1.25759
1.23349
1.20946
1.18724
1.16442
1.13966
1.11574
1.09178
1.06691
1.04285
1.0194
0.997627
0.961228
1.78694
1.77358
1.76769
1.75908
1.74419
1.71508
1.69124
1.67719
1.66184
1.63743
1.60713
1.58456
1.56442
1.53826
1.50983
1.48227
1.45458
1.42752
1.39871
1.36933
1.3393
1.30986
1.28065
1.25013
1.22056
1.19058
1.16073
1.1301
1.10382
1.06086
2.02441
2.01416
2.00121
1.99196
1.98156
1.96405
1.94608
1.92734
1.90742
1.88503
1.85765
1.83101
1.80298
1.77111
1.73621
1.70139
1.66457
1.62745
1.59023
1.55191
1.51401
1.47532
1.43808
1.40078
1.36368
1.327
1.29084
1.25434
1.22249
1.16963
2.07347
2.07177
2.06933
2.06856
2.06812
2.06665
2.06367
2.05913
2.05373
2.04698
2.03634
2.02429
2.01061
1.99159
1.9667
1.93675
1.90298
1.86506
1.82342
1.77719
1.72872
1.67966
1.62925
1.58011
1.53137
1.48372
1.43856
1.39295
1.35394
1.29075
2.03338
2.03555
2.03463
2.02738
2.02721
2.0367
2.04464
2.04799
2.0478
2.04787
2.04822
2.04737
2.0457
2.04423
2.04191
2.03761
2.03112
2.02134
2.00517
1.9814
1.9494
1.90945
1.86065
1.80451
1.74468
1.68255
1.62119
1.56054
1.50913
1.42824
1.77783
1.79115
1.80761
1.82723
1.83542
1.84786
1.87257
1.89458
1.91132
1.92621
1.94235
1.96734
1.98272
1.99076
2.00022
2.00956
2.01933
2.02084
2.02056
2.01913
2.01547
2.00943
1.99869
1.98089
1.95014
1.9051
1.84682
1.77762
1.71155
1.60264
1.48
1.48749
1.49571
1.51036
1.52305
1.53321
1.5492
1.56917
1.59022
1.61533
1.64015
1.6702
1.70646
1.7394
1.775
1.81133
1.8537
1.88893
1.91799
1.94971
1.96976
1.98273
1.99336
1.99424
1.99268
1.98717
1.9751
1.95191
1.91487
1.81626
1.40365
1.40431
1.40505
1.4061
1.40759
1.40911
1.41108
1.4139
1.4176
1.42264
1.42903
1.43675
1.44829
1.46289
1.48174
1.50563
1.53559
1.57405
1.61722
1.66839
1.7233
1.78026
1.83418
1.88352
1.92255
1.94643
1.96353
1.96376
1.96199
1.9411
1.40005
1.40005
1.40007
1.40008
1.4001
1.40013
1.40018
1.40024
1.40033
1.40047
1.40068
1.40099
1.4015
1.40233
1.40363
1.40576
1.40913
1.41479
1.42351
1.4374
1.45846
1.48863
1.53124
1.58528
1.65161
1.72263
1.79442
1.85573
1.90081
1.92806
1.40001
1.40001
1.40001
1.40001
1.40001
1.40001
1.40001
1.40001
1.40001
1.40001
1.40001
1.40001
1.40002
1.40003
1.40004
1.40007
1.40013
1.40025
1.4005
1.40102
1.40212
1.40439
1.40897
1.41794
1.43461
1.46326
1.50798
1.57258
1.64628
1.76735
1.40001
1.40001
1.40001
1.40001
1.40001
1.40001
1.40001
1.40001
1.40001
1.40001
1.40001
1.40001
1.40001
1.40001
1.40001
1.40001
1.40001
1.40001
1.40001
1.40001
1.40002
1.40005
1.40014
1.40036
1.40097
1.40264
1.40674
1.41701
1.43556
1.50819
1.40001
1.40001
1.40001
1.40001
1.40001
1.40001
1.40001
1.40001
1.40001
1.40001
1.40001
1.40001
1.40001
1.40001
1.40001
1.40001
1.40001
1.40001
1.40001
1.40001
1.40001
1.40001
1.40001
1.40001
1.40001
1.40003
1.4001
1.40037
1.40109
1.40955
0.144035
0.146809
0.154022
0.1642
0.173628
0.181242
0.181107
0.178703
0.1755
0.177691
0.192604
0.213544
0.251265
0.297183
0.350533
0.413633
0.49142
0.585501
0.698402
0.830587
0.980123
1.14598
1.33184
1.5498
1.8168
2.03623
2.07418
2.01966
1.75031
1.46855
1.40296
1.40004
1.40001
1.40001
1.40001
0.144689
0.147985
0.154446
0.164642
0.1757
0.181493
0.181128
0.176834
0.173964
0.178798
0.197868
0.217504
0.261977
0.308609
0.365318
0.430854
0.51218
0.609392
0.722628
0.85253
1.00134
1.17215
1.37437
1.6129
1.87226
2.05744
2.07429
1.98666
1.70193
1.44981
1.4017
1.40002
1.40001
1.40001
1.40001
0.145885
0.14804
0.153631
0.163612
0.177392
0.182237
0.181781
0.17588
0.173116
0.179703
0.203181
0.223542
0.268468
0.313674
0.371289
0.437636
0.520082
0.617757
0.730463
0.860658
1.01279
1.19922
1.42536
1.66129
1.91191
2.07002
2.07249
1.96309
1.66649
1.43752
1.40108
1.40001
1.40001
1.40001
1.40001
0.147937
0.149028
0.15391
0.163856
0.179591
0.183067
0.182659
0.175458
0.173089
0.180071
0.205966
0.228339
0.27163
0.317102
0.376082
0.443298
0.525641
0.623005
0.735037
0.868303
1.04032
1.25134
1.46445
1.69469
1.94463
2.07971
2.07248
1.94689
1.63131
1.4268
1.40064
1.40001
1.40001
1.40001
1.40001
0.149732
0.149805
0.154791
0.166184
0.181289
0.183386
0.182959
0.1752
0.173321
0.181015
0.206845
0.231549
0.272205
0.319901
0.380759
0.448968
0.531048
0.629683
0.751455
0.909745
1.09845
1.28777
1.48941
1.72803
1.98103
2.08757
2.07487
1.93159
1.59031
1.41791
1.40036
1.40001
1.40001
1.40001
1.40001
0.150651
0.150252
0.155784
0.167915
0.182241
0.18341
0.182911
0.175039
0.174614
0.183899
0.207037
0.23883
0.279193
0.334552
0.399672
0.473933
0.562957
0.672022
0.807374
0.962893
1.12997
1.31318
1.52763
1.78774
2.02054
2.09229
2.0708
1.8816
1.54962
1.41176
1.40021
1.40001
1.40001
1.40001
1.40001
0.15096
0.150436
0.156723
0.168548
0.182456
0.182961
0.181952
0.175293
0.178078
0.19202
0.211624
0.249338
0.294761
0.35139
0.418512
0.495656
0.589812
0.703296
0.8354
0.983765
1.15059
1.35336
1.59749
1.84606
2.04728
2.09396
2.05089
1.82899
1.51861
1.40786
1.40012
1.40001
1.40001
1.40001
1.40001
0.150363
0.149921
0.157217
0.168759
0.181646
0.181402
0.179738
0.175692
0.182079
0.199252
0.219538
0.259745
0.302242
0.358427
0.426489
0.504979
0.601273
0.715375
0.846248
0.996546
1.1792
1.40879
1.64011
1.88115
2.06606
2.09503
2.03364
1.79306
1.49458
1.40512
1.40007
1.40001
1.40001
1.40001
1.40001
0.148347
0.148591
0.157099
0.16873
0.179671
0.179004
0.176711
0.175735
0.183554
0.201313
0.223283
0.264765
0.307812
0.363435
0.432256
0.511577
0.607867
0.721993
0.852704
1.01501
1.22758
1.44278
1.66939
1.91861
2.0852
2.0963
2.02679
1.75956
1.47147
1.40309
1.40004
1.40001
1.40001
1.40001
1.40001
0.14662
0.147624
0.156257
0.167543
0.177524
0.176519
0.173277
0.174797
0.183075
0.200155
0.225557
0.265064
0.310738
0.365675
0.434854
0.515267
0.612398
0.730578
0.881991
1.07654
1.27309
1.47245
1.71476
1.97108
2.09945
2.09851
2.02022
1.71273
1.44963
1.40174
1.40002
1.40001
1.40001
1.40001
1.40001
0.145678
0.146732
0.154707
0.165375
0.175729
0.174578
0.170646
0.173785
0.18232
0.195183
0.228904
0.265788
0.314227
0.374058
0.448736
0.538149
0.648443
0.785436
0.952242
1.12708
1.31107
1.53401
1.7908
2.01385
2.10612
2.09904
1.97202
1.65051
1.43352
1.40099
1.40001
1.40001
1.40001
1.40001
1.40001
0.144995
0.145704
0.154308
0.164746
0.175047
0.173852
0.169704
0.174028
0.183146
0.194745
0.235208
0.278151
0.330521
0.396485
0.477808
0.573264
0.689214
0.828356
0.985638
1.15482
1.36022
1.60353
1.84035
2.04183
2.10969
2.08894
1.9263
1.60755
1.42384
1.40059
1.40001
1.40001
1.40001
1.40001
1.40001
0.144306
0.145157
0.154532
0.165904
0.175515
0.174196
0.169631
0.175379
0.185947
0.20076
0.243172
0.285558
0.339002
0.405908
0.489764
0.587444
0.705769
0.844103
1.00023
1.18404
1.41136
1.64152
1.87682
2.06791
2.11219
2.07607
1.89872
1.57573
1.41623
1.40032
1.40001
1.40001
1.40001
1.40001
1.40001
0.143848
0.145105
0.156128
0.169791
0.1769
0.17534
0.169811
0.175322
0.187012
0.205936
0.246895
0.289185
0.343512
0.411174
0.496734
0.595754
0.714415
0.853311
1.01187
1.22144
1.446
1.67521
1.9245
2.09244
2.11376
2.07219
1.87224
1.53658
1.40954
1.40016
1.40001
1.40001
1.40001
1.40001
1.40001
0.143762
0.146654
0.159866
0.173858
0.177544
0.175686
0.17033
0.174455
0.186415
0.208937
0.248175
0.293278
0.349186
0.41641
0.50261
0.603265
0.723114
0.870668
1.06435
1.2782
1.48758
1.73931
1.98235
2.10913
2.11514
2.07037
1.81125
1.4958
1.40551
1.40008
1.40001
1.40001
1.40001
1.40001
1.40001
0.144149
0.149707
0.162328
0.176282
0.177593
0.175073
0.171126
0.174261
0.184259
0.214696
0.251227
0.302884
0.360972
0.436999
0.531815
0.644378
0.780934
0.949724
1.14309
1.33672
1.56948
1.81754
2.0247
2.11746
2.11591
2.03289
1.74324
1.47013
1.40336
1.40005
1.40001
1.40001
1.40001
1.40001
1.40001
0.145012
0.151031
0.162778
0.176825
0.176248
0.172097
0.173062
0.177028
0.184688
0.225068
0.26804
0.324889
0.389778
0.473328
0.574564
0.692953
0.835333
1.00268
1.18402
1.3916
1.6322
1.86425
2.05487
2.12192
2.11026
1.99013
1.69776
1.45129
1.40191
1.40003
1.40001
1.40001
1.40001
1.40001
1.40001
0.145224
0.150954
0.161918
0.17547
0.175213
0.170873
0.174925
0.181185
0.191519
0.236153
0.279431
0.338666
0.404966
0.48912
0.592849
0.714215
0.858282
1.02458
1.21473
1.43875
1.67193
1.90536
2.08273
2.12509
2.10005
1.96482
1.6552
1.43401
1.40101
1.40001
1.40001
1.40001
1.40001
1.40001
1.40001
0.144711
0.148832
0.157718
0.172063
0.174717
0.170909
0.174999
0.182677
0.1979
0.240585
0.284139
0.343123
0.41127
0.495307
0.601663
0.725162
0.871503
1.04081
1.24351
1.47843
1.71598
1.96077
2.10717
2.12736
2.09817
1.94374
1.60181
1.42123
1.40052
1.40001
1.40001
1.40001
1.40001
1.40001
1.40001
0.144077
0.146439
0.152888
0.16945
0.174791
0.172616
0.17417
0.181996
0.201747
0.240233
0.287178
0.343374
0.414438
0.497581
0.606386
0.734122
0.888369
1.08318
1.30781
1.5398
1.79814
2.01762
2.12343
2.12928
2.09936
1.88992
1.55026
1.41265
1.40025
1.40001
1.40001
1.40001
1.40001
1.40001
1.40001
0.143563
0.145264
0.150559
0.169351
0.177816
0.175999
0.173195
0.177414
0.206942
0.238124
0.291097
0.350305
0.426336
0.525771
0.648751
0.796512
0.974236
1.18195
1.39853
1.63838
1.87385
2.05645
2.13066
2.13026
2.07214
1.81367
1.50967
1.40732
1.40012
1.40001
1.40001
1.40001
1.40001
1.40001
1.40001
0.143376
0.144923
0.150308
0.171993
0.17946
0.17702
0.173537
0.176072
0.214562
0.251469
0.312448
0.389975
0.474758
0.580946
0.711304
0.863332
1.04216
1.23927
1.45921
1.69657
1.91939
2.08402
2.13372
2.12522
2.0296
1.76253
1.48058
1.40426
1.40006
1.40001
1.40001
1.40001
1.40001
1.40001
1.40001
0.143515
0.144964
0.153509
0.175239
0.17945
0.176901
0.174361
0.179317
0.226406
0.274842
0.336929
0.41373
0.498939
0.605993
0.738686
0.893311
1.072
1.27519
1.50757
1.74348
1.9653
2.10841
2.1354
2.11463
2.00349
1.71608
1.45575
1.4023
1.40003
1.40001
1.40001
1.40001
1.40001
1.40001
1.40001
0.144621
0.146294
0.161056
0.176557
0.178821
0.173387
0.173886
0.191148
0.236341
0.284416
0.344089
0.420896
0.509275
0.617841
0.75489
0.912583
1.0967
1.31243
1.55837
1.80524
2.02302
2.12727
2.13657
2.11199
1.98437
1.6554
1.43468
1.40109
1.40002
1.40001
1.40001
1.40001
1.40001
1.40001
1.40001
0.14518
0.148592
0.166131
0.176313
0.172605
0.164666
0.169056
0.199726
0.23921
0.287961
0.349318
0.422819
0.516353
0.626301
0.769244
0.938981
1.1471
1.3959
1.64489
1.89372
2.07007
2.13698
2.13795
2.11351
1.93521
1.59041
1.42018
1.40051
1.40001
1.40001
1.40001
1.40001
1.40001
1.40001
1.40001
0.1449
0.150335
0.166805
0.169794
0.162674
0.158137
0.16566
0.203099
0.239627
0.290341
0.356438
0.435394
0.539953
0.676812
0.842802
1.03999
1.26485
1.49958
1.74282
1.95785
2.09892
2.14034
2.13871
2.08809
1.85051
1.53852
1.4117
1.40024
1.40001
1.40001
1.40001
1.40001
1.40001
1.40001
1.40001
0.144492
0.150849
0.166294
0.163141
0.156631
0.15666
0.166178
0.207225
0.244302
0.311097
0.387815
0.492429
0.609331
0.752435
0.925057
1.11972
1.33357
1.56451
1.80132
2.00189
2.11923
2.14202
2.13203
2.04559
1.7954
1.50179
1.40663
1.40011
1.40001
1.40001
1.40001
1.40001
1.40001
1.40001
1.40001
0.143967
0.14979
0.165044
0.161845
0.155329
0.159088
0.178779
0.217941
0.271977
0.345113
0.426665
0.529056
0.64534
0.790062
0.965109
1.16115
1.37936
1.62075
1.85908
2.04828
2.13463
2.14336
2.12194
2.01959
1.74717
1.47021
1.40347
1.40005
1.40001
1.40001
1.40001
1.40001
1.40001
1.40001
1.40001
0.142696
0.146923
0.162548
0.162856
0.156539
0.167269
0.19568
0.230193
0.284423
0.355111
0.439311
0.541761
0.664586
0.81434
0.997359
1.20116
1.43765
1.6985
1.9356
2.09264
2.14374
2.14449
2.12058
2.00179
1.68051
1.44246
1.40156
1.40002
1.40001
1.40001
1.40001
1.40001
1.40001
1.40001
1.40001
0.142056
0.144366
0.161327
0.167832
0.161785
0.169276
0.200903
0.23353
0.288965
0.354756
0.444467
0.546137
0.680749
0.843744
1.04576
1.28357
1.55016
1.80556
2.01045
2.12054
2.147
2.14604
2.12212
1.95135
1.60382
1.42362
1.40068
1.40001
1.40001
1.40001
1.40001
1.40001
1.40001
1.40001
1.40001
0.14211
0.142325
0.162276
0.170372
0.163399
0.166581
0.20014
0.232772
0.294167
0.356555
0.451252
0.585565
0.747687
0.943103
1.16954
1.41652
1.66132
1.88991
2.05704
2.13557
2.14779
2.14361
2.09216
1.85654
1.54555
1.41335
1.4003
1.40001
1.40001
1.40001
1.40001
1.40001
1.40001
1.40001
1.40001
0.139761
0.140398
0.163803
0.167886
0.161706
0.162287
0.195465
0.238065
0.305605
0.405102
0.523477
0.679468
0.84576
1.03711
1.25866
1.4933
1.73076
1.9485
2.09248
2.14434
2.14719
2.13262
2.04322
1.79491
1.50475
1.40718
1.40013
1.40001
1.40001
1.40001
1.40001
1.40001
1.40001
1.40001
1.40001
0.134836
0.140284
0.164112
0.161289
0.157372
0.16216
0.200561
0.271575
0.35428
0.462759
0.585349
0.731924
0.896301
1.09155
1.31653
1.55628
1.80357
2.00976
2.12262
2.14892
2.14658
2.11948
2.01231
1.74135
1.46904
1.4035
1.40005
1.40001
1.40001
1.40001
1.40001
1.40001
1.40001
1.40001
1.40001
0.133301
0.14169
0.162692
0.158666
0.156498
0.171997
0.227444
0.303845
0.383634
0.488795
0.611603
0.760356
0.937369
1.14627
1.38775
1.65177
1.90227
2.06991
2.14098
2.15049
2.14771
2.11785
1.98937
1.66614
1.43897
1.40144
1.40002
1.40001
1.40001
1.40001
1.40001
1.40001
1.40001
1.40001
1.40001
0.134397
0.14872
0.16181
0.156688
0.158374
0.188639
0.239647
0.310658
0.39383
0.498222
0.633241
0.79566
1.00102
1.24299
1.51804
1.78546
1.99075
2.10835
2.14858
2.15065
2.14739
2.11764
1.92593
1.58192
1.41987
1.40056
1.40001
1.40001
1.40001
1.40001
1.40001
1.40001
1.40001
1.40001
1.40001
0.140015
0.153929
0.161312
0.152933
0.157689
0.19684
0.24273
0.305914
0.400747
0.515395
0.684374
0.902462
1.1371
1.3899
1.65162
1.87962
2.04735
2.12984
2.15106
2.15038
2.14217
2.07467
1.82124
1.52307
1.41036
1.40023
1.40001
1.40001
1.40001
1.40001
1.40001
1.40001
1.40001
1.40001
1.40001
0.148027
0.155409
0.153981
0.144322
0.149644
0.199158
0.252662
0.319626
0.438221
0.610653
0.804517
1.02092
1.24621
1.48986
1.73738
1.9485
2.08991
2.14333
2.1517
2.14814
2.12744
2.022
1.75603
1.48408
1.40509
1.40009
1.40001
1.40001
1.40001
1.40001
1.40001
1.40001
1.40001
1.40001
1.40001
0.154094
0.156048
0.144613
0.135161
0.147608
0.204591
0.281036
0.396088
0.532825
0.695916
0.881706
1.09504
1.32746
1.5789
1.82904
2.02309
2.12251
2.15086
2.15235
2.14766
2.11526
1.98728
1.69555
1.45003
1.40216
1.40003
1.40001
1.40001
1.40001
1.40001
1.40001
1.40001
1.40001
1.40001
1.40001
0.155637
0.153582
0.141393
0.132369
0.172601
0.246794
0.335506
0.451896
0.580839
0.74561
0.945018
1.17512
1.43387
1.70417
1.94512
2.08598
2.14014
2.15427
2.15504
2.14974
2.11677
1.95243
1.60769
1.42415
1.40075
1.40001
1.40001
1.40001
1.40001
1.40001
1.40001
1.40001
1.40001
1.40001
1.40001
0.15459
0.144668
0.141333
0.144569
0.211709
0.27996
0.363401
0.474414
0.616626
0.800073
1.03881
1.31603
1.59617
1.84779
2.03285
2.12119
2.14797
2.15605
2.15617
2.1496
2.09984
1.84993
1.52597
1.41066
1.40025
1.40001
1.40001
1.40001
1.40001
1.40001
1.40001
1.40001
1.40001
1.40001
1.40001
0.14727
0.1372
0.143852
0.165718
0.227441
0.284027
0.373531
0.492328
0.682809
0.928384
1.20577
1.48698
1.73905
1.94675
2.08496
2.14013
2.15217
2.15656
2.15278
2.13777
2.0235
1.73796
1.47767
1.40489
1.40009
1.40001
1.40001
1.40001
1.40001
1.40001
1.40001
1.40001
1.40001
1.40001
1.40001
0.143293
0.1309
0.146078
0.173632
0.225673
0.274771
0.390848
0.586839
0.828619
1.08818
1.35511
1.61427
1.845
2.02129
2.12264
2.14944
2.15412
2.15616
2.14396
2.10898
1.96283
1.66937
1.44678
1.40203
1.40003
1.40001
1.40001
1.40001
1.40001
1.40001
1.40001
1.40001
1.40001
1.40001
1.40001
0.141704
0.124541
0.146101
0.171887
0.211955
0.309224
0.502108
0.727675
0.95729
1.20929
1.4769
1.73731
1.95322
2.08457
2.14586
2.15216
2.15408
2.15539
2.14126
2.0867
1.91234
1.596
1.4222
1.40068
1.40001
1.40001
1.40001
1.40001
1.40001
1.40001
1.40001
1.40001
1.40001
1.40001
1.40001
0.139383
0.117597
0.14158
0.173116
0.22293
0.418892
0.621795
0.82795
1.06609
1.34195
1.63151
1.88659
2.04988
2.12183
2.15521
2.15232
2.15283
2.15433
2.14625
2.07887
1.83263
1.50983
1.40825
1.40019
1.40001
1.40001
1.40001
1.40001
1.40001
1.40001
1.40001
1.40001
1.40001
1.40001
1.40001
0.135652
0.111781
0.12948
0.190794
0.320603
0.521907
0.701538
0.929016
1.22175
1.53922
1.81603
2.00875
2.10492
2.13768
2.15784
2.15189
2.15232
2.15223
2.14526
2.03174
1.699
1.45494
1.40294
1.40005
1.40001
1.40001
1.40001
1.40001
1.40001
1.40001
1.40001
1.40001
1.40001
1.40001
1.40001
0.128612
0.108948
0.123287
0.235942
0.414853
0.589159
0.807014
1.11747
1.44737
1.73865
1.95364
2.08233
2.13148
2.14371
2.15885
2.152
2.15223
2.1458
2.11254
1.9195
1.60529
1.42862
1.40104
1.40002
1.40001
1.40001
1.40001
1.40001
1.40001
1.40001
1.40001
1.40001
1.40001
1.40001
1.40001
0.118312
0.106902
0.140418
0.29397
0.487102
0.683661
1.01748
1.35506
1.65306
1.89062
2.04832
2.12663
2.14231
2.14548
2.15935
2.1517
2.15492
2.13768
2.06382
1.8403
1.5397
1.41283
1.40033
1.40001
1.40001
1.40001
1.40001
1.40001
1.40001
1.40001
1.40001
1.40001
1.40001
1.40001
1.40001
0.0893292
0.113233
0.208899
0.364626
0.582147
0.915489
1.2615
1.56738
1.82816
2.01356
2.1131
2.14734
2.14482
2.14566
2.16007
2.15058
2.15648
2.14038
2.02837
1.75206
1.4731
1.4042
1.40008
1.40001
1.40001
1.40001
1.40001
1.40001
1.40001
1.40001
1.40001
1.40001
1.40001
1.40001
1.40001
0.0605706
0.117194
0.271225
0.480787
0.782515
1.16344
1.49029
1.7754
1.98423
2.0982
2.14446
2.15188
2.14548
2.1459
2.1618
2.15111
2.15615
2.14072
1.97884
1.61959
1.4277
1.40106
1.40002
1.40001
1.40001
1.40001
1.40001
1.40001
1.40001
1.40001
1.40001
1.40001
1.40001
1.40001
1.40001
0.0387647
0.139564
0.345341
0.678254
1.07103
1.42244
1.7354
1.96096
2.08655
2.13792
2.15422
2.15235
2.14512
2.14603
2.1641
2.15481
2.14708
2.08646
1.8269
1.51629
1.41006
1.40026
1.40001
1.40001
1.40001
1.40001
1.40001
1.40001
1.40001
1.40001
1.40001
1.40001
1.40001
1.40001
1.40001
0.0348905
0.229704
0.53383
0.946915
1.36784
1.70931
1.94801
2.0777
2.13304
2.15162
2.15561
2.15163
2.14535
2.14793
2.16561
2.15657
2.12779
1.99946
1.70502
1.46214
1.40353
1.40007
1.40001
1.40001
1.40001
1.40001
1.40001
1.40001
1.40001
1.40001
1.40001
1.40001
1.40001
1.40001
1.40001
0.0595826
0.362131
0.834701
1.31865
1.69223
1.94818
2.07753
2.12981
2.14761
2.15464
2.1556
2.15036
2.1458
2.15178
2.16661
2.15083
2.10803
1.92647
1.60609
1.42578
1.40087
1.40002
1.40001
1.40001
1.40001
1.40001
1.40001
1.40001
1.40001
1.40001
1.40001
1.40001
1.40001
1.40001
1.40001
0.203224
0.645599
1.2596
1.70341
1.96329
2.08563
2.13224
2.14504
2.14993
2.15499
2.15549
2.15
2.14628
2.15506
2.16682
2.13512
2.08199
1.821
1.49774
1.40631
1.40014
1.40001
1.40001
1.40001
1.40001
1.40001
1.40001
1.40001
1.40001
1.40001
1.40001
1.40001
1.40001
1.40001
1.40001
0.576289
1.18799
1.71045
1.98409
2.10077
2.13802
2.14597
2.14704
2.15002
2.1551
2.15626
2.15031
2.14646
2.1571
2.16481
2.12078
2.00116
1.65394
1.43314
1.40118
1.40002
1.40001
1.40001
1.40001
1.40001
1.40001
1.40001
1.40001
1.40001
1.40001
1.40001
1.40001
1.40001
1.40001
1.40001
1.25603
1.75443
2.03871
2.12585
2.14629
2.14809
2.1471
2.1469
2.15044
2.15714
2.15727
2.15002
2.14613
2.15789
2.16277
2.09646
1.87437
1.53173
1.40946
1.40016
1.40001
1.40001
1.40001
1.40001
1.40001
1.40001
1.40001
1.40001
1.40001
1.40001
1.40001
1.40001
1.40001
1.40001
1.40001
2.14944
2.15154
2.15271
2.15257
2.15131
2.14761
2.14619
2.14706
2.15361
2.15962
2.15763
2.14896
2.14492
2.15788
2.14859
2.03657
1.73743
1.44481
1.39974
1.39998
1.4
1.40001
1.40001
1.40001
1.40001
1.40001
1.40001
1.40001
1.40001
1.40001
1.40001
1.40001
1.40001
1.40001
1.40001
2.14942
2.15117
2.15264
2.15299
2.15196
2.14814
2.14632
2.14642
2.15199
2.1598
2.15962
2.15148
2.14004
2.14662
2.14531
2.0294
1.69987
1.44382
1.4014
1.40002
1.40001
1.40001
1.40001
1.40001
1.40001
1.40001
1.40001
1.40001
1.40001
1.40001
1.40001
1.40001
1.40001
1.40001
1.40001
2.15038
2.15127
2.15284
2.15352
2.15267
2.14979
2.1475
2.14766
2.15119
2.15853
2.15976
2.15422
2.13748
2.13802
2.13728
1.98088
1.60623
1.41637
1.40025
1.40001
1.40001
1.40001
1.40001
1.40001
1.40001
1.40001
1.40001
1.40001
1.40001
1.40001
1.40001
1.40001
1.40001
1.40001
1.40001
2.1509
2.15095
2.15225
2.1534
2.15314
2.15203
2.15005
2.14922
2.14986
2.1546
2.15804
2.15796
2.13808
2.12929
2.1266
1.91398
1.54724
1.40889
1.40011
1.40001
1.40001
1.40001
1.40001
1.40001
1.40001
1.40001
1.40001
1.40001
1.40001
1.40001
1.40001
1.40001
1.40001
1.40001
1.40001
2.15098
2.1504
2.15057
2.15167
2.15322
2.15327
2.15276
2.15033
2.14879
2.14955
2.15626
2.1609
2.14812
2.12676
2.10803
1.83507
1.49618
1.4038
1.40004
1.40001
1.40001
1.40001
1.40001
1.40001
1.40001
1.40001
1.40001
1.40001
1.40001
1.40001
1.40001
1.40001
1.40001
1.40001
1.40001
2.15079
2.14979
2.14879
2.14912
2.15159
2.1536
2.15453
2.15165
2.14765
2.14619
2.15448
2.16412
2.15699
2.12573
2.07376
1.75424
1.45556
1.40159
1.40002
1.40001
1.40001
1.40001
1.40001
1.40001
1.40001
1.40001
1.40001
1.40001
1.40001
1.40001
1.40001
1.40001
1.40001
1.40001
1.40001
2.15113
2.14972
2.14767
2.14733
2.14996
2.15357
2.15503
2.15264
2.14692
2.1444
2.15308
2.16746
2.16165
2.11734
2.00942
1.67019
1.42969
1.40061
1.40001
1.40001
1.40001
1.40001
1.40001
1.40001
1.40001
1.40001
1.40001
1.40001
1.40001
1.40001
1.40001
1.40001
1.40001
1.40001
1.40001
2.15217
2.14994
2.14735
2.14649
2.14865
2.15274
2.15466
2.15281
2.14655
2.14346
2.15116
2.16849
2.16228
2.10942
1.95819
1.60043
1.41556
1.40023
1.40001
1.40001
1.40001
1.40001
1.40001
1.40001
1.40001
1.40001
1.40001
1.40001
1.40001
1.40001
1.40001
1.40001
1.40001
1.40001
1.40001
2.15329
2.15082
2.14777
2.14629
2.14777
2.15155
2.15379
2.15303
2.14646
2.1431
2.1481
2.16584
2.16011
2.09984
1.9
1.53515
1.4072
1.40008
1.40001
1.40001
1.40001
1.40001
1.40001
1.40001
1.40001
1.40001
1.40001
1.40001
1.40001
1.40001
1.40001
1.40001
1.40001
1.40001
1.40001
2.15413
2.15266
2.14973
2.14736
2.14753
2.14981
2.15284
2.15389
2.14847
2.14413
2.14634
2.15916
2.15232
2.065
1.8172
1.47947
1.40291
1.40003
1.40001
1.40001
1.40001
1.40001
1.40001
1.40001
1.40001
1.40001
1.40001
1.40001
1.40001
1.40001
1.40001
1.40001
1.40001
1.40001
1.40001
2.15434
2.15397
2.15206
2.14963
2.14848
2.14859
2.15141
2.15473
2.15347
2.14734
2.14585
2.15595
2.14814
2.03299
1.7277
1.44597
1.40117
1.40001
1.40001
1.40001
1.40001
1.40001
1.40001
1.40001
1.40001
1.40001
1.40001
1.40001
1.40001
1.40001
1.40001
1.40001
1.40001
1.40001
1.40001
2.15406
2.15431
2.15349
2.15217
2.14902
2.1477
2.14868
2.15528
2.15726
2.15405
2.14387
2.14858
2.14598
2.00048
1.64398
1.42364
1.40042
1.40001
1.40001
1.40001
1.40001
1.40001
1.40001
1.40001
1.40001
1.40001
1.40001
1.40001
1.40001
1.40001
1.40001
1.40001
1.40001
1.40001
1.40001
2.15235
2.154
2.15392
2.15367
2.14968
2.14651
2.14685
2.15355
2.15887
2.16036
2.14214
2.13366
2.12732
1.93607
1.56203
1.4104
1.40014
1.40001
1.40001
1.40001
1.40001
1.40001
1.40001
1.40001
1.40001
1.40001
1.40001
1.40001
1.40001
1.40001
1.40001
1.40001
1.40001
1.40001
1.40001
2.14914
2.15204
2.15377
2.15411
2.15042
2.14611
2.14568
2.15185
2.15966
2.16343
2.14664
2.12021
2.1003
1.85223
1.50523
1.40466
1.40005
1.40001
1.40001
1.40001
1.40001
1.40001
1.40001
1.40001
1.40001
1.40001
1.40001
1.40001
1.40001
1.40001
1.40001
1.40001
1.40001
1.40001
1.40001
2.14742
2.14976
2.15242
2.15373
2.15102
2.14634
2.14486
2.14927
2.15923
2.16424
2.1529
2.11799
2.07809
1.77235
1.46089
1.40179
1.40002
1.40001
1.40001
1.40001
1.40001
1.40001
1.40001
1.40001
1.40001
1.40001
1.40001
1.40001
1.40001
1.40001
1.40001
1.40001
1.40001
1.40001
1.40001
2.14712
2.1484
2.15083
2.15283
2.15151
2.14722
2.1444
2.14536
2.15481
2.16346
2.15638
2.11841
2.03733
1.66876
1.42916
1.4006
1.40001
1.40001
1.40001
1.40001
1.40001
1.40001
1.40001
1.40001
1.40001
1.40001
1.40001
1.40001
1.40001
1.40001
1.40001
1.40001
1.40001