/*--------------------------------*- C++ -*----------------------------------*\
  =========                 |
  \\      /  F ield         | OpenFOAM: The Open Source CFD Toolbox
   \\    /   O peration     | Website:  https://openfoam.org
    \\  /    A nd           | Version:  7
     \\/     M anipulation  |
\*---------------------------------------------------------------------------*/
FoamFile
{
    version     2.0;
    format      ascii;
    class       volScalarField;
    location    "3.6";
    object      T;
}
// * * * * * * * * * * * * * * * * * * * * * * * * * * * * * * * * * * * * * //

dimensions      [0 0 0 1 0 0 0];

internalField   nonuniform List<scalar> 
324000
(
0.862339
0.98515
1.13337
1.24191
1.2752
1.26872
1.24842
1.24796
1.24438
1.23563
1.22736
1.23119
1.2392
1.2413
1.23542
1.22694
1.22023
1.22018
1.22282
1.2225
1.2189
1.214
1.21045
1.21075
1.2113
1.2101
1.20791
1.20531
1.20318
1.20159
1.19945
1.19677
1.19421
1.19226
1.19061
1.18842
1.18587
1.1837
1.18216
1.18077
1.17919
1.17722
1.17484
1.17241
1.17002
1.168
1.16654
1.16553
1.1647
1.16399
1.16348
1.16238
1.16106
1.1607
1.16091
1.16111
1.1613
1.16155
1.16216
1.16301
1.1639
1.16442
1.16484
1.1656
1.16717
1.16997
1.17423
1.18038
1.18742
1.19433
1.20194
1.20994
1.21689
1.22152
1.22353
1.22322
1.22016
1.21508
1.21308
1.20424
0.521964
0.521115
0.628459
0.889535
1.13075
1.22427
1.25577
1.29063
1.28592
1.28791
1.29335
1.29536
1.29336
1.28347
1.27646
1.27307
1.27289
1.27298
1.27184
1.26914
1.26388
1.25943
1.25834
1.26032
1.25998
1.25756
1.25434
1.2515
1.25021
1.24854
1.24579
1.24262
1.24006
1.2381
1.23577
1.23315
1.23053
1.22825
1.22639
1.22448
1.22238
1.21997
1.21695
1.21384
1.21135
1.20945
1.20784
1.20631
1.20483
1.20343
1.20245
1.20138
1.20015
1.19985
1.19975
1.19932
1.19841
1.19753
1.1977
1.19826
1.19865
1.19854
1.19824
1.19837
1.19921
1.20156
1.20564
1.21156
1.2178
1.22331
1.229
1.23473
1.24023
1.24349
1.24487
1.24377
1.23921
1.2303
1.22273
1.20851
0.521261
0.520417
0.519096
0.517461
0.565689
0.738819
0.961235
1.11593
1.22441
1.30734
1.3309
1.32824
1.31559
1.289
1.28966
1.29352
1.29689
1.30067
1.29767
1.29217
1.28773
1.28851
1.28963
1.28857
1.28571
1.28304
1.28229
1.28247
1.28066
1.27728
1.274
1.27153
1.27055
1.26945
1.26714
1.26437
1.26251
1.26104
1.25908
1.25656
1.25427
1.25226
1.24995
1.2475
1.24539
1.2439
1.24243
1.24072
1.2387
1.23691
1.23538
1.2337
1.23222
1.23185
1.23184
1.23148
1.23014
1.22849
1.2274
1.22696
1.22673
1.22632
1.22575
1.22573
1.2264
1.22848
1.23204
1.23661
1.24092
1.24405
1.24695
1.24987
1.25365
1.25646
1.25931
1.25884
1.25388
1.2427
1.23197
1.21299
0.519837
0.518568
0.517366
0.51636
0.515126
0.514214
0.513116
0.567691
0.800523
1.01188
1.14952
1.23981
1.26969
1.28201
1.29901
1.30793
1.30877
1.30739
1.30118
1.29443
1.2953
1.29894
1.30243
1.30023
1.2959
1.29162
1.29212
1.29322
1.29247
1.28989
1.2873
1.2858
1.28562
1.28463
1.28305
1.28165
1.28056
1.27986
1.27838
1.27639
1.2748
1.27338
1.27158
1.26941
1.26747
1.26583
1.2643
1.26316
1.26201
1.26072
1.25934
1.25775
1.25568
1.25335
1.25187
1.25069
1.24976
1.24984
1.24952
1.24877
1.24804
1.24711
1.24611
1.24541
1.24568
1.24682
1.24855
1.25058
1.25335
1.25617
1.25895
1.26091
1.26277
1.26419
1.26681
1.26709
1.26342
1.25215
1.24043
1.21801
0.517991
0.516778
0.51556
0.5145
0.513707
0.513064
0.512422
0.51171
0.510942
0.512008
0.650608
0.867424
1.06637
1.21603
1.28511
1.30245
1.30171
1.29783
1.28862
1.2914
1.29893
1.30359
1.30254
1.29872
1.29533
1.29353
1.29441
1.29496
1.29418
1.29157
1.28955
1.28984
1.28972
1.28879
1.2872
1.28674
1.28671
1.28605
1.28457
1.28298
1.28192
1.28067
1.27913
1.27765
1.27629
1.27493
1.27327
1.27155
1.27031
1.26955
1.26865
1.268
1.26755
1.26635
1.2648
1.2633
1.26161
1.26024
1.25971
1.25888
1.25784
1.25636
1.25456
1.25297
1.25265
1.25323
1.25504
1.25812
1.26139
1.26362
1.26534
1.2666
1.26778
1.26913
1.27173
1.27152
1.26846
1.25876
1.24772
1.22327
0.516211
0.51507
0.513978
0.513063
0.512467
0.511909
0.511391
0.510942
0.510563
0.510008
0.509627
0.509426
0.556078
0.778403
0.996439
1.14044
1.22016
1.25518
1.26743
1.29109
1.30322
1.3004
1.29644
1.29264
1.29009
1.29257
1.295
1.29415
1.29122
1.2892
1.28922
1.29062
1.28999
1.2879
1.28631
1.28649
1.28647
1.28564
1.28431
1.28321
1.28243
1.28125
1.28026
1.27953
1.27933
1.27848
1.27715
1.27558
1.27383
1.2725
1.27149
1.27081
1.27038
1.27041
1.26975
1.26852
1.26691
1.26468
1.26273
1.26158
1.26016
1.25881
1.25737
1.25638
1.25655
1.25777
1.26027
1.2633
1.26532
1.26597
1.26632
1.26711
1.26848
1.27039
1.27378
1.27473
1.27198
1.26368
1.25367
1.22837
0.514607
0.513665
0.512739
0.511991
0.511469
0.511046
0.510658
0.510298
0.509949
0.509494
0.509247
0.509295
0.509185
0.508955
0.514528
0.664765
0.891503
1.08354
1.21017
1.27196
1.28517
1.28977
1.28601
1.28157
1.28541
1.28942
1.28915
1.28663
1.28374
1.2846
1.28822
1.28789
1.28572
1.28354
1.28387
1.2856
1.28516
1.28366
1.2827
1.2822
1.28166
1.28064
1.27983
1.27981
1.27942
1.27855
1.27744
1.27633
1.27508
1.27391
1.27304
1.27238
1.2715
1.27058
1.26961
1.26842
1.2673
1.26611
1.26473
1.26357
1.26211
1.26082
1.25953
1.25878
1.25912
1.26053
1.26292
1.26487
1.26572
1.26623
1.26666
1.26741
1.26853
1.27039
1.27382
1.27635
1.27455
1.26789
1.25863
1.23253
0.513327
0.512567
0.511794
0.511143
0.510679
0.510324
0.510039
0.509797
0.509492
0.509034
0.508904
0.509023
0.508996
0.508886
0.508665
0.508283
0.507785
0.580286
0.836964
1.04303
1.15916
1.24379
1.25196
1.27013
1.28475
1.28483
1.28303
1.27501
1.27571
1.28073
1.28459
1.28226
1.27768
1.27784
1.28086
1.2819
1.28054
1.27901
1.27935
1.2797
1.27892
1.27808
1.2781
1.27824
1.27786
1.27696
1.27603
1.27519
1.27434
1.27351
1.27285
1.27221
1.27119
1.27002
1.2687
1.26746
1.2666
1.26595
1.26495
1.26392
1.26264
1.2615
1.26035
1.2597
1.26005
1.26139
1.26329
1.26433
1.26525
1.26631
1.26695
1.26768
1.26878
1.27056
1.27376
1.27671
1.27586
1.27114
1.26285
1.23654
0.512299
0.511686
0.511065
0.510505
0.510072
0.509778
0.509584
0.509394
0.509105
0.508671
0.508576
0.508757
0.508819
0.508751
0.508601
0.508238
0.507726
0.507581
0.50762
0.54324
0.767963
1.00532
1.1634
1.25046
1.27018
1.27595
1.26887
1.26485
1.27217
1.2776
1.27708
1.27214
1.27086
1.27431
1.27745
1.27688
1.27443
1.27448
1.27584
1.27565
1.27455
1.27456
1.275
1.27478
1.27403
1.27317
1.27277
1.27241
1.27203
1.27163
1.27127
1.27069
1.26963
1.26833
1.26695
1.26584
1.26506
1.26471
1.26408
1.26324
1.26197
1.26078
1.25954
1.25899
1.25939
1.26069
1.26228
1.26336
1.26468
1.26589
1.26676
1.26773
1.26872
1.27046
1.27376
1.27698
1.2765
1.27328
1.26541
1.23994
0.511501
0.510998
0.510504
0.509985
0.509572
0.509381
0.509243
0.509073
0.508793
0.508371
0.508259
0.508441
0.508677
0.50864
0.508538
0.508193
0.507665
0.507525
0.507581
0.507758
0.507796
0.521687
0.75561
0.982434
1.1317
1.22207
1.24344
1.25893
1.27851
1.27692
1.26908
1.26527
1.26853
1.27481
1.27457
1.27101
1.27016
1.27192
1.27281
1.272
1.27124
1.27167
1.27191
1.27115
1.26994
1.26933
1.26893
1.26858
1.26841
1.26827
1.26809
1.26775
1.267
1.2658
1.26457
1.26357
1.26277
1.26219
1.26177
1.26104
1.2598
1.25873
1.25762
1.25757
1.25818
1.25958
1.26089
1.26232
1.26364
1.26495
1.26622
1.26762
1.26872
1.27034
1.27363
1.27748
1.27722
1.27491
1.26807
1.2424
0.510865
0.510444
0.510019
0.509536
0.509206
0.509093
0.508993
0.508838
0.508555
0.508141
0.50801
0.508156
0.508541
0.508535
0.508468
0.508145
0.507617
0.5075
0.507572
0.507726
0.507761
0.507722
0.507723
0.512
0.707385
0.957012
1.16123
1.25162
1.2759
1.27304
1.26048
1.26478
1.2718
1.2744
1.27045
1.26638
1.26824
1.27173
1.27101
1.26921
1.26934
1.27021
1.26977
1.26838
1.26717
1.26685
1.26632
1.26569
1.26531
1.26508
1.26486
1.26461
1.26423
1.26358
1.26266
1.2617
1.26054
1.25961
1.25899
1.25815
1.25714
1.25614
1.25529
1.25547
1.25637
1.25803
1.25962
1.26125
1.2626
1.26383
1.26522
1.26699
1.26834
1.27011
1.27351
1.27816
1.27808
1.27644
1.27001
1.2437
0.510369
0.509998
0.509566
0.509135
0.508919
0.508858
0.50879
0.508674
0.508393
0.50798
0.507806
0.507906
0.50838
0.508441
0.508398
0.508105
0.507588
0.507453
0.507509
0.507639
0.507686
0.507664
0.507659
0.507691
0.507669
0.508309
0.723868
0.984993
1.16434
1.22014
1.24994
1.27146
1.27758
1.27533
1.2642
1.26505
1.27106
1.27186
1.26919
1.26784
1.26925
1.26961
1.26837
1.2663
1.2661
1.26619
1.26564
1.26477
1.26404
1.26362
1.26327
1.26288
1.26247
1.26184
1.26103
1.26017
1.25921
1.25806
1.25712
1.25619
1.25533
1.25441
1.25402
1.25437
1.25547
1.25719
1.25897
1.26073
1.26183
1.26293
1.26436
1.26634
1.26779
1.26979
1.27352
1.27902
1.2794
1.27815
1.27121
1.24436
0.509969
0.509631
0.509195
0.50879
0.508678
0.508668
0.508632
0.508546
0.508261
0.507838
0.507649
0.507722
0.508202
0.508364
0.508329
0.50807
0.507571
0.5074
0.507433
0.507558
0.507634
0.507628
0.507608
0.507624
0.507639
0.507629
0.507571
0.521696
0.721287
1.00242
1.20687
1.27142
1.27859
1.26997
1.26084
1.26996
1.27545
1.27239
1.26746
1.26839
1.27089
1.26992
1.26649
1.26574
1.2665
1.26649
1.26568
1.26473
1.26414
1.26357
1.2631
1.2626
1.26194
1.26095
1.25996
1.25906
1.25829
1.25745
1.25653
1.25542
1.25452
1.25371
1.25376
1.25434
1.25556
1.25708
1.25873
1.26008
1.26125
1.26254
1.26402
1.26605
1.26746
1.26958
1.27383
1.28011
1.28093
1.27955
1.27171
1.24474
0.509654
0.509363
0.508901
0.508507
0.50847
0.508511
0.508496
0.50842
0.508122
0.507718
0.507539
0.507592
0.508051
0.508299
0.508273
0.508037
0.507549
0.507359
0.507391
0.507516
0.507609
0.507611
0.507595
0.507592
0.507615
0.507597
0.507565
0.507566
0.507552
0.53285
0.792317
1.0416
1.20919
1.24381
1.26201
1.28164
1.27889
1.26757
1.26776
1.27294
1.2727
1.26881
1.26593
1.26653
1.26801
1.26723
1.26586
1.26499
1.26463
1.26405
1.26344
1.26291
1.26203
1.26085
1.25967
1.25876
1.25796
1.25716
1.25631
1.25522
1.25449
1.25365
1.25371
1.2543
1.25536
1.25675
1.25824
1.25953
1.26099
1.26252
1.2641
1.2661
1.26745
1.2696
1.27461
1.28132
1.28233
1.28048
1.27165
1.24496
0.509403
0.509156
0.50869
0.508298
0.508277
0.508367
0.508367
0.508304
0.508029
0.507627
0.507448
0.507487
0.507931
0.508255
0.508239
0.508017
0.507526
0.507324
0.507358
0.507496
0.507602
0.507601
0.507591
0.507592
0.507595
0.507597
0.507572
0.507568
0.507582
0.507635
0.507625
0.56352
0.832785
1.10546
1.25004
1.28141
1.2771
1.26302
1.27242
1.27701
1.27316
1.26665
1.26648
1.26913
1.26909
1.26769
1.26623
1.26582
1.26515
1.26437
1.26374
1.26328
1.26234
1.26106
1.25991
1.25911
1.2582
1.25719
1.25616
1.2552
1.25451
1.25367
1.25372
1.25426
1.25516
1.2564
1.25787
1.25933
1.26111
1.26283
1.26451
1.26657
1.26786
1.2697
1.27566
1.28255
1.2832
1.28101
1.2711
1.24518
0.509183
0.508974
0.508555
0.508151
0.508124
0.508239
0.508252
0.508206
0.507987
0.507551
0.507359
0.507404
0.507865
0.508223
0.508214
0.508006
0.507508
0.507287
0.507325
0.50747
0.507582
0.507581
0.507576
0.507581
0.507582
0.507581
0.50756
0.50756
0.507586
0.507642
0.507657
0.507634
0.507506
0.628034
0.929766
1.15717
1.22482
1.25419
1.28386
1.27939
1.26935
1.2657
1.26909
1.27166
1.26964
1.26725
1.26675
1.26675
1.26574
1.26453
1.26405
1.26351
1.26259
1.26144
1.26058
1.25981
1.25875
1.25747
1.2563
1.25546
1.25455
1.25382
1.25402
1.25439
1.25506
1.2563
1.25775
1.25952
1.26169
1.26334
1.26488
1.26704
1.2685
1.27021
1.27708
1.28414
1.28431
1.2814
1.27067
1.2455
0.508988
0.508814
0.508474
0.508074
0.508029
0.508145
0.508158
0.508119
0.507927
0.507476
0.507292
0.50736
0.507876
0.508208
0.508201
0.507999
0.507502
0.507264
0.507294
0.507441
0.50756
0.507565
0.507566
0.507578
0.507595
0.507554
0.507536
0.507548
0.507583
0.50764
0.507683
0.50767
0.507565
0.507384
0.507382
0.69778
1.01261
1.22025
1.27817
1.27665
1.26346
1.26681
1.27384
1.27227
1.26771
1.26659
1.26807
1.26743
1.26567
1.26451
1.2645
1.26379
1.26263
1.26169
1.26111
1.2604
1.25935
1.25803
1.25676
1.25588
1.25506
1.2546
1.2546
1.25473
1.2552
1.25637
1.25795
1.26015
1.26249
1.26384
1.26521
1.26706
1.26845
1.2709
1.27836
1.28584
1.28558
1.28166
1.26977
1.24614
0.508839
0.508701
0.508425
0.508054
0.507975
0.508075
0.508081
0.508042
0.507811
0.50737
0.507255
0.507337
0.507886
0.50822
0.508212
0.508008
0.507497
0.507256
0.507285
0.507424
0.507545
0.507558
0.507566
0.507592
0.507603
0.507542
0.507517
0.507532
0.507569
0.507638
0.507701
0.507694
0.50758
0.507437
0.507444
0.507473
0.539764
0.840094
1.08906
1.21325
1.24932
1.27618
1.27805
1.27264
1.26527
1.26713
1.26918
1.26755
1.26527
1.26521
1.26487
1.26357
1.26243
1.26199
1.26149
1.2607
1.25985
1.25869
1.25759
1.25685
1.25605
1.25545
1.25515
1.25516
1.25555
1.25671
1.25837
1.26084
1.2633
1.26431
1.26567
1.26726
1.26896
1.27173
1.27964
1.28643
1.28582
1.28164
1.26999
1.24774
0.508755
0.508617
0.508383
0.508063
0.507944
0.508026
0.508031
0.50798
0.507677
0.5072
0.507142
0.507244
0.507861
0.508233
0.50823
0.508038
0.507529
0.50727
0.50729
0.507423
0.507539
0.507559
0.507579
0.507608
0.507611
0.507535
0.507496
0.507509
0.507546
0.507625
0.507704
0.507702
0.507596
0.50748
0.507484
0.507539
0.507597
0.507591
0.608823
0.932781
1.19189
1.27849
1.27661
1.26184
1.26415
1.27065
1.2696
1.26623
1.26494
1.26597
1.26511
1.26329
1.26231
1.26228
1.26161
1.26083
1.2601
1.25922
1.25854
1.25775
1.2568
1.25588
1.25542
1.25541
1.25584
1.25694
1.25881
1.26156
1.26404
1.26474
1.26623
1.2677
1.26981
1.27276
1.28139
1.2873
1.28629
1.28157
1.26989
1.24944
0.508703
0.508574
0.508356
0.508097
0.50793
0.508
0.508
0.507949
0.507595
0.50704
0.506953
0.507046
0.507699
0.508222
0.508234
0.508054
0.507591
0.507373
0.507386
0.50748
0.50756
0.507573
0.507595
0.507632
0.507637
0.507548
0.507458
0.507464
0.507492
0.507584
0.5077
0.507707
0.507609
0.507511
0.507513
0.507562
0.507625
0.507625
0.507576
0.507473
0.77613
1.0579
1.21229
1.24476
1.26836
1.2745
1.26996
1.2644
1.26598
1.26626
1.2642
1.26273
1.26282
1.26252
1.26165
1.26087
1.26016
1.25954
1.25909
1.25821
1.2571
1.25598
1.25542
1.25547
1.25599
1.25725
1.25948
1.26241
1.2645
1.26511
1.26675
1.26848
1.27103
1.27424
1.28326
1.28817
1.28693
1.28153
1.2697
1.25
0.508652
0.508547
0.508334
0.508118
0.507924
0.507966
0.507977
0.507945
0.507604
0.506953
0.506819
0.506896
0.507517
0.50819
0.508232
0.508069
0.507626
0.50742
0.507425
0.507497
0.507569
0.507579
0.507608
0.507665
0.507673
0.507594
0.507425
0.507416
0.507438
0.507546
0.507692
0.507707
0.507622
0.507527
0.507525
0.507568
0.507635
0.507637
0.507593
0.5075
0.50743
0.581017
0.895797
1.17522
1.2645
1.27178
1.26061
1.26391
1.26769
1.2662
1.26245
1.26255
1.26355
1.26253
1.26149
1.26084
1.26018
1.25963
1.25924
1.25814
1.25696
1.25577
1.25533
1.25543
1.25613
1.25779
1.26033
1.26324
1.26458
1.26537
1.26711
1.26937
1.27251
1.27592
1.28489
1.28892
1.28736
1.28159
1.26927
1.24955
0.508581
0.508502
0.508309
0.508114
0.507938
0.507953
0.507974
0.507956
0.507657
0.506921
0.506728
0.506784
0.507333
0.508119
0.508212
0.508079
0.507666
0.507441
0.50744
0.507497
0.507568
0.507579
0.507611
0.507695
0.507718
0.507648
0.507446
0.507391
0.507409
0.507521
0.507676
0.507695
0.507623
0.507531
0.507526
0.507566
0.507638
0.507647
0.507606
0.507512
0.507434
0.507432
0.507468
0.748139
1.0408
1.21406
1.24236
1.26952
1.26916
1.26294
1.26118
1.26404
1.26409
1.26223
1.26124
1.26066
1.26004
1.25953
1.25911
1.2579
1.2566
1.25542
1.25519
1.25535
1.2563
1.25835
1.26112
1.26384
1.26451
1.26536
1.26749
1.27044
1.27418
1.27774
1.28621
1.2896
1.28805
1.28194
1.26851
1.24833
0.508387
0.508328
0.508214
0.508081
0.507954
0.507988
0.50799
0.507978
0.507737
0.50695
0.506683
0.506723
0.507179
0.508004
0.508171
0.508066
0.507708
0.507462
0.507457
0.507514
0.507583
0.507589
0.50761
0.507712
0.507762
0.5077
0.507491
0.507377
0.507388
0.507487
0.507641
0.507669
0.50761
0.50753
0.507524
0.507561
0.507637
0.507652
0.507618
0.507535
0.507449
0.507423
0.507471
0.507568
0.572835
0.894453
1.17056
1.26773
1.26594
1.25633
1.26101
1.26566
1.26364
1.26111
1.26124
1.26062
1.25967
1.25949
1.25902
1.25776
1.25631
1.25527
1.25511
1.2553
1.25644
1.25887
1.26176
1.26404
1.26445
1.26559
1.26809
1.27165
1.27596
1.27957
1.28735
1.29038
1.2892
1.28237
1.26726
1.2465
0.508154
0.508165
0.508122
0.508012
0.507945
0.508025
0.508031
0.508023
0.507846
0.50708
0.506683
0.50672
0.507101
0.507888
0.50814
0.508052
0.507747
0.507487
0.507464
0.507503
0.507553
0.507549
0.507578
0.507717
0.507804
0.507754
0.507542
0.507381
0.507382
0.507468
0.507618
0.507651
0.507599
0.507524
0.50752
0.507556
0.50763
0.507653
0.507628
0.50756
0.507476
0.507426
0.507457
0.507593
0.507703
0.507722
0.757675
1.05915
1.20397
1.2445
1.26811
1.26707
1.26033
1.26044
1.26184
1.26049
1.25926
1.2598
1.25905
1.25774
1.25639
1.2556
1.25526
1.25538
1.25655
1.25904
1.26215
1.26404
1.26452
1.26617
1.26904
1.27304
1.27764
1.28126
1.28852
1.29202
1.29066
1.2826
1.26543
1.24365
0.507929
0.508022
0.507991
0.507878
0.507883
0.508046
0.508069
0.508059
0.507915
0.507238
0.506712
0.506728
0.50706
0.507773
0.508097
0.50804
0.507787
0.507528
0.507478
0.507492
0.507529
0.507525
0.50755
0.507705
0.507844
0.50781
0.507602
0.507399
0.50739
0.507466
0.507611
0.507645
0.507595
0.507502
0.507492
0.507525
0.507598
0.507646
0.507636
0.507581
0.507502
0.507437
0.507457
0.507594
0.507716
0.507752
0.50772
0.58644
0.927949
1.19689
1.26894
1.26657
1.25529
1.26194
1.26154
1.25872
1.25889
1.25995
1.25902
1.25777
1.2568
1.25587
1.25538
1.2556
1.25682
1.25899
1.26232
1.26422
1.26499
1.26712
1.27036
1.27456
1.27878
1.28276
1.29001
1.29335
1.29119
1.2818
1.2629
1.24073
0.507767
0.507881
0.507851
0.507758
0.507778
0.508028
0.508089
0.508076
0.507943
0.507328
0.506739
0.506736
0.507028
0.507659
0.508012
0.507985
0.507802
0.507588
0.507518
0.507522
0.507524
0.507532
0.507556
0.507732
0.507887
0.507861
0.507653
0.507436
0.507421
0.507482
0.507614
0.507645
0.507595
0.507474
0.507431
0.507459
0.50754
0.507627
0.507643
0.507604
0.507524
0.507446
0.50746
0.507604
0.507737
0.507769
0.507747
0.507667
0.507649
0.803886
1.0959
1.21923
1.24538
1.26629
1.26182
1.25608
1.25965
1.25998
1.25861
1.25766
1.25672
1.25576
1.2554
1.25575
1.25698
1.25891
1.26228
1.26518
1.26652
1.26886
1.27218
1.2762
1.27944
1.28393
1.29102
1.29395
1.29138
1.28069
1.26006
1.23759
0.507713
0.507789
0.50775
0.507663
0.507681
0.507967
0.508108
0.50809
0.507955
0.507379
0.506763
0.506741
0.507006
0.507585
0.507952
0.507945
0.507793
0.507633
0.507556
0.507557
0.507542
0.507536
0.507572
0.507792
0.507928
0.507898
0.507684
0.507475
0.50746
0.50752
0.507638
0.50765
0.5076
0.507463
0.507383
0.507403
0.507491
0.507604
0.507647
0.507623
0.507549
0.507463
0.50747
0.507617
0.507766
0.507779
0.50774
0.507692
0.507684
0.507668
0.642266
0.991649
1.21044
1.26453
1.25167
1.25552
1.26205
1.26013
1.25718
1.25724
1.25636
1.25512
1.25529
1.25571
1.25686
1.2587
1.2624
1.26627
1.26821
1.27069
1.27394
1.27757
1.27998
1.28446
1.29154
1.29336
1.29015
1.27852
1.25743
1.23607
0.507783
0.507762
0.507689
0.507591
0.507599
0.507858
0.508144
0.50813
0.50799
0.50744
0.506802
0.506747
0.506993
0.507535
0.507917
0.50793
0.507782
0.50766
0.507592
0.507584
0.507565
0.50754
0.507579
0.507801
0.507941
0.507912
0.507706
0.507521
0.507506
0.507575
0.507674
0.507672
0.507615
0.507466
0.507361
0.507374
0.50746
0.507586
0.507647
0.507634
0.507578
0.5075
0.507501
0.507647
0.507785
0.507778
0.507714
0.507678
0.507648
0.507609
0.507568
0.533604
0.874166
1.15669
1.22444
1.25769
1.26424
1.25733
1.256
1.25661
1.25529
1.25438
1.25513
1.25554
1.2565
1.25861
1.26263
1.26653
1.26888
1.27152
1.27479
1.27823
1.28035
1.28471
1.29171
1.29258
1.28839
1.27544
1.25556
1.23637
0.507927
0.507808
0.507631
0.50752
0.507524
0.507745
0.508159
0.508178
0.508053
0.507527
0.506858
0.50675
0.506972
0.507484
0.507874
0.507922
0.507779
0.50767
0.507634
0.507617
0.507602
0.507556
0.507582
0.507777
0.507933
0.507911
0.507725
0.507573
0.507562
0.50763
0.507717
0.507717
0.507659
0.507489
0.507359
0.507366
0.507448
0.50758
0.507648
0.507643
0.507604
0.50755
0.507554
0.507694
0.507807
0.507785
0.507693
0.507659
0.507625
0.507543
0.507514
0.507543
0.507594
0.732532
1.09989
1.23532
1.25993
1.24953
1.25641
1.25609
1.25328
1.25423
1.25455
1.25466
1.25569
1.25818
1.26231
1.26614
1.26874
1.27148
1.27475
1.27797
1.28093
1.28497
1.29127
1.29134
1.28625
1.27224
1.25396
1.23544
0.508069
0.507875
0.50757
0.507457
0.507461
0.507657
0.508144
0.508207
0.508096
0.507609
0.506928
0.506759
0.506953
0.507435
0.507799
0.507855
0.50772
0.50765
0.507657
0.507658
0.507648
0.507583
0.507585
0.507762
0.507907
0.507891
0.507742
0.507621
0.507611
0.507666
0.507756
0.507761
0.507712
0.507548
0.507376
0.50737
0.507447
0.507579
0.507653
0.507653
0.507626
0.507589
0.507604
0.507744
0.507836
0.507798
0.507685
0.507655
0.507625
0.507536
0.507507
0.507542
0.507613
0.507805
0.63201
0.966515
1.19934
1.23206
1.26205
1.25719
1.25106
1.25412
1.25305
1.25282
1.25438
1.25708
1.26136
1.26454
1.26723
1.27038
1.27352
1.2771
1.28134
1.285
1.28997
1.28936
1.28299
1.26875
1.25129
1.23186
0.508129
0.50792
0.507535
0.507418
0.50742
0.507588
0.508103
0.508223
0.508123
0.507679
0.507018
0.506794
0.506957
0.507398
0.507722
0.507766
0.507624
0.507598
0.507638
0.50771
0.507696
0.507637
0.507633
0.507789
0.507903
0.507885
0.507761
0.507666
0.507649
0.507687
0.50777
0.507778
0.507726
0.507576
0.507404
0.507384
0.507452
0.507589
0.507675
0.507682
0.50767
0.507652
0.507681
0.507811
0.507878
0.507817
0.50771
0.507668
0.507666
0.507575
0.507544
0.507762
0.507974
0.508397
0.508868
0.527554
0.863852
1.16459
1.25716
1.24584
1.24874
1.25309
1.24972
1.2501
1.2522
1.25471
1.25864
1.26213
1.26506
1.26836
1.27143
1.27555
1.2797
1.28345
1.28743
1.28657
1.27946
1.26461
1.24601
1.22505
0.508127
0.507972
0.507528
0.507403
0.507404
0.507538
0.508042
0.50822
0.508129
0.507725
0.507115
0.506864
0.507013
0.50741
0.50768
0.50769
0.507509
0.507506
0.507593
0.507754
0.507736
0.507685
0.507676
0.507827
0.507907
0.507892
0.507787
0.507714
0.50768
0.507698
0.507773
0.507792
0.507738
0.507587
0.507419
0.507393
0.507457
0.507594
0.507708
0.507733
0.507744
0.507769
0.507831
0.507961
0.507977
0.507899
0.507862
0.507823
0.507864
0.507864
0.507888
0.508189
0.508767
0.509122
0.509871
0.510402
0.510329
0.766145
1.09997
1.19968
1.24557
1.25169
1.24418
1.24732
1.24891
1.25088
1.25464
1.25861
1.26205
1.26534
1.2689
1.27206
1.27543
1.27923
1.28317
1.28269
1.27612
1.25936
1.23808
1.21576
0.508092
0.508029
0.507563
0.507391
0.507389
0.507489
0.507967
0.508236
0.508165
0.507785
0.507175
0.506913
0.507075
0.507458
0.507672
0.507616
0.507392
0.507391
0.507533
0.507755
0.507753
0.507724
0.507714
0.507863
0.507925
0.507919
0.507824
0.507754
0.507707
0.507707
0.507769
0.5078
0.507762
0.507634
0.507466
0.507427
0.507478
0.507609
0.507735
0.507785
0.507825
0.507874
0.507949
0.508063
0.508115
0.50806
0.508087
0.508167
0.508207
0.508314
0.508376
0.508582
0.509355
0.509812
0.510287
0.511165
0.51152
0.511341
0.637198
1.01836
1.20235
1.239
1.2366
1.24524
1.24385
1.24577
1.25047
1.25495
1.25937
1.26242
1.26404
1.26574
1.26849
1.27229
1.27715
1.27775
1.27101
1.25115
1.22702
1.20458
0.508075
0.508046
0.507661
0.507406
0.507404
0.507465
0.507918
0.508255
0.508191
0.507818
0.507193
0.506935
0.507129
0.507515
0.507693
0.507561
0.507298
0.507294
0.507469
0.50772
0.507753
0.507742
0.507742
0.507886
0.507939
0.507936
0.507853
0.507777
0.507729
0.507713
0.507757
0.507797
0.50777
0.507687
0.507575
0.507522
0.507563
0.50768
0.507792
0.507863
0.507927
0.508001
0.508035
0.508088
0.508188
0.508232
0.508294
0.508554
0.50861
0.508682
0.508807
0.509046
0.509806
0.510334
0.510525
0.511317
0.512587
0.512944
0.512948
0.566704
0.890925
1.14981
1.21336
1.24524
1.23665
1.23839
1.24233
1.24792
1.25338
1.25495
1.25561
1.25679
1.25917
1.26326
1.26936
1.27071
1.26325
1.24035
1.2142
1.19292
0.508028
0.508025
0.507731
0.507447
0.507435
0.507487
0.507906
0.50827
0.508194
0.507787
0.507165
0.506955
0.507184
0.507585
0.507718
0.507526
0.507232
0.507216
0.507406
0.50766
0.507746
0.507746
0.507748
0.507891
0.507957
0.507949
0.507874
0.507785
0.507742
0.50771
0.50774
0.50778
0.507772
0.507738
0.50769
0.507632
0.507639
0.507722
0.507867
0.507979
0.50804
0.508108
0.508097
0.508092
0.508206
0.508385
0.508485
0.508789
0.508989
0.508985
0.509062
0.509288
0.51
0.511015
0.510863
0.511277
0.512879
0.51528
0.517122
0.517039
0.517896
0.79406
1.11521
1.22036
1.21635
1.22446
1.22905
1.23678
1.2428
1.24345
1.24426
1.24569
1.24768
1.25298
1.26062
1.26141
1.25201
1.2269
1.2009
1.18202
0.50795
0.507953
0.507744
0.507493
0.507463
0.507517
0.50792
0.508276
0.508194
0.507767
0.507117
0.506952
0.507205
0.507627
0.507726
0.507508
0.50719
0.507163
0.507333
0.507593
0.507741
0.507747
0.507737
0.507841
0.507991
0.507976
0.507926
0.507831
0.507771
0.507725
0.50771
0.507737
0.507779
0.507794
0.507791
0.507756
0.507702
0.507744
0.507933
0.508079
0.508104
0.508137
0.508134
0.508068
0.508163
0.50856
0.508661
0.508845
0.509327
0.509333
0.509187
0.509244
0.509837
0.511718
0.512886
0.512617
0.513228
0.516295
0.520648
0.522347
0.522529
0.523712
0.716402
1.04535
1.15139
1.20556
1.21417
1.22474
1.22909
1.23009
1.23183
1.23394
1.23583
1.24243
1.25063
1.25006
1.23812
1.21251
1.18876
1.17303
0.507815
0.507824
0.507715
0.507546
0.507492
0.507554
0.507954
0.508272
0.508175
0.507737
0.507088
0.506948
0.507208
0.507648
0.507717
0.5075
0.50716
0.507136
0.507294
0.507536
0.507733
0.507753
0.507761
0.507818
0.508012
0.508017
0.508016
0.507963
0.507847
0.507704
0.50765
0.507679
0.50778
0.507858
0.507878
0.507871
0.507792
0.507805
0.507984
0.508117
0.508095
0.508058
0.508157
0.508084
0.508125
0.508689
0.509011
0.509011
0.509395
0.510014
0.510278
0.510202
0.510244
0.511861
0.514749
0.51696
0.517762
0.518635
0.522061
0.525794
0.527727
0.529134
0.530216
0.629313
0.976192
1.16655
1.18397
1.21051
1.21297
1.21623
1.21908
1.22046
1.22413
1.232
1.23824
1.23585
1.22198
1.19922
1.17939
1.16666
0.507578
0.507678
0.507651
0.507571
0.507533
0.507611
0.507989
0.508232
0.508099
0.507619
0.507009
0.506982
0.50727
0.507704
0.507727
0.507513
0.507152
0.507132
0.507285
0.507515
0.507715
0.507758
0.50778
0.507836
0.507969
0.508068
0.508074
0.508002
0.507868
0.507674
0.507617
0.507662
0.5078
0.507903
0.507922
0.507949
0.507916
0.507894
0.508021
0.508135
0.508109
0.508035
0.508155
0.508272
0.508282
0.508688
0.509588
0.509538
0.509511
0.510306
0.511753
0.513261
0.513833
0.513968
0.515824
0.519757
0.5222
0.523076
0.524199
0.527155
0.53075
0.532379
0.53415
0.535475
0.586365
0.925099
1.09824
1.19075
1.19646
1.20459
1.20739
1.20727
1.21198
1.22095
1.22408
1.21992
1.20571
1.18793
1.172
1.1618
0.507346
0.507502
0.507585
0.507575
0.507581
0.507668
0.507994
0.508141
0.507987
0.507523
0.50698
0.506997
0.507321
0.507736
0.507741
0.507497
0.507199
0.507207
0.507362
0.507588
0.507685
0.507716
0.507778
0.507877
0.508008
0.50811
0.508099
0.508006
0.507845
0.507636
0.507602
0.507662
0.507808
0.50788
0.507898
0.507966
0.508046
0.508082
0.508188
0.508484
0.508672
0.508429
0.50826
0.508621
0.508776
0.508942
0.510145
0.510685
0.510996
0.511494
0.512803
0.515032
0.517423
0.519333
0.519491
0.521369
0.524638
0.526434
0.527484
0.529021
0.532364
0.534547
0.53609
0.538664
0.539842
0.551633
0.875578
1.14653
1.1691
1.19525
1.19452
1.19477
1.20065
1.20819
1.20884
1.20402
1.19304
1.17888
1.16475
1.15677
0.507198
0.507378
0.507525
0.507594
0.50764
0.507721
0.507926
0.508004
0.507858
0.50746
0.507027
0.507061
0.507383
0.50775
0.507741
0.507471
0.507286
0.507329
0.507546
0.507635
0.507598
0.507601
0.507696
0.507931
0.508121
0.508149
0.508109
0.507992
0.50781
0.507606
0.507614
0.50769
0.507799
0.507826
0.50788
0.508032
0.508244
0.508441
0.508669
0.508964
0.509336
0.509472
0.509128
0.509158
0.509571
0.510286
0.511375
0.512783
0.514325
0.515647
0.515906
0.516496
0.518837
0.522233
0.524304
0.524688
0.527304
0.5297
0.531452
0.532803
0.53447
0.537123
0.538398
0.540091
0.542971
0.544712
0.546099
0.85491
1.09212
1.18365
1.17842
1.18076
1.18855
1.19438
1.19472
1.19042
1.18381
1.17066
1.15712
1.1513
0.507266
0.507436
0.507611
0.507723
0.507752
0.507781
0.507885
0.507914
0.50778
0.50744
0.507099
0.507139
0.50744
0.507746
0.507716
0.507435
0.507322
0.50741
0.507639
0.507633
0.507529
0.507505
0.50761
0.507933
0.508136
0.508138
0.508095
0.507982
0.507781
0.507706
0.507766
0.507858
0.50784
0.507824
0.507956
0.508487
0.508843
0.509044
0.509304
0.509561
0.509898
0.510532
0.510584
0.510371
0.511046
0.513211
0.513854
0.514865
0.516336
0.51813
0.519752
0.520107
0.520319
0.523031
0.527125
0.528601
0.530256
0.532982
0.534508
0.536707
0.537662
0.539814
0.541554
0.542824
0.545304
0.547867
0.550904
0.551491
0.852758
1.13505
1.15186
1.1696
1.17788
1.18053
1.1818
1.18138
1.17566
1.16097
1.14804
1.14499
0.507351
0.507433
0.507706
0.507888
0.507861
0.507841
0.507889
0.507904
0.50778
0.50747
0.507171
0.507204
0.507484
0.507733
0.507665
0.507382
0.507374
0.507545
0.50775
0.50772
0.507518
0.507452
0.507552
0.507897
0.508093
0.508098
0.508089
0.50802
0.508031
0.508072
0.508307
0.508374
0.508168
0.50805
0.508362
0.509299
0.509876
0.50998
0.51027
0.510874
0.510936
0.511303
0.511871
0.512216
0.513242
0.515708
0.516699
0.51722
0.517727
0.518914
0.521335
0.524253
0.525256
0.525217
0.528475
0.531822
0.532718
0.5354
0.537223
0.53953
0.541539
0.542731
0.545166
0.547312
0.548907
0.550625
0.552985
0.555442
0.555919
0.836287
1.07787
1.14611
1.17112
1.16928
1.17223
1.1754
1.1673
1.1506
1.13868
1.13853
0.507313
0.507433
0.507872
0.508083
0.508067
0.507978
0.507939
0.507925
0.507792
0.507488
0.507206
0.507238
0.507517
0.50773
0.507646
0.50741
0.507423
0.507637
0.507876
0.507837
0.50755
0.50743
0.507525
0.507877
0.50807
0.508118
0.508281
0.508478
0.508579
0.508577
0.508668
0.508842
0.508873
0.508954
0.509212
0.509885
0.510859
0.510909
0.510972
0.511771
0.512459
0.512293
0.512795
0.513979
0.515356
0.517455
0.519768
0.520846
0.521593
0.521516
0.522446
0.526346
0.530562
0.531413
0.532273
0.535914
0.537034
0.538092
0.540756
0.542217
0.544916
0.547041
0.548703
0.550693
0.55272
0.553953
0.555194
0.557292
0.559147
0.559958
0.831247
1.07791
1.15455
1.15393
1.16826
1.16701
1.15573
1.14136
1.13197
1.13304
0.507136
0.507422
0.508038
0.508308
0.508305
0.508218
0.508007
0.507912
0.507744
0.507425
0.507191
0.507232
0.507526
0.507732
0.507646
0.50745
0.507469
0.507689
0.507996
0.507956
0.507585
0.507437
0.507555
0.507896
0.508237
0.508438
0.50865
0.508996
0.509048
0.508884
0.508787
0.508872
0.509236
0.509845
0.510187
0.510372
0.511141
0.511614
0.511417
0.511914
0.513788
0.514096
0.514475