/*--------------------------------*- C++ -*----------------------------------*\
  =========                 |
  \\      /  F ield         | OpenFOAM: The Open Source CFD Toolbox
   \\    /   O peration     | Website:  https://openfoam.org
    \\  /    A nd           | Version:  7
     \\/     M anipulation  |
\*---------------------------------------------------------------------------*/
FoamFile
{
    version     2.0;
    format      ascii;
    class       volScalarField;
    location    "13.5";
    object      rho;
}
// * * * * * * * * * * * * * * * * * * * * * * * * * * * * * * * * * * * * * //

dimensions      [1 -3 0 0 0 0 0];

internalField   nonuniform List<scalar> 
90000
(
0.265831
0.307676
0.338719
0.376073
0.412631
0.433925
0.459421
0.49769
0.530578
0.562716
0.603637
0.646437
0.689462
0.733544
0.779179
0.824041
0.866406
0.907619
0.939472
0.970162
0.988028
1.00249
1.01103
1.01343
1.01313
1.01303
1.00956
1.0057
1.00042
0.99954
1.00205
1.00514
1.00917
1.0131
1.01191
1.0082
1.00288
0.994984
0.988833
0.992423
1.00142
1.01411
1.03036
1.04929
1.06376
1.07673
1.07624
1.07179
1.06235
1.05358
1.04669
1.04897
1.05605
1.06882
1.08358
1.09533
1.10329
1.10104
1.09608
1.08916
1.08952
1.09456
1.10578
1.11765
1.1285
1.1264
1.12211
1.12116
1.12462
1.13403
1.14897
1.1491
1.14569
1.14194
1.1444
1.15105
1.15748
1.15717
1.15648
1.15968
1.16585
1.1652
1.16351
1.16352
1.16552
1.16893
1.17144
1.17285
1.17399
1.17583
1.17886
1.18051
1.18197
1.18532
1.1916
1.19831
1.20434
1.20981
1.21227
1.21559
0.229969
0.230002
0.230039
0.230082
0.230128
0.230182
0.23024
0.230316
0.230377
0.230771
0.232778
0.237188
0.245327
0.257077
0.275335
0.298638
0.330696
0.369191
0.417359
0.472751
0.536366
0.600734
0.663464
0.723196
0.774296
0.819587
0.855397
0.885344
0.907286
0.921834
0.93857
0.942643
0.951421
0.952984
0.953876
0.954616
0.955722
0.954955
0.956118
0.961412
0.968238
0.971221
0.975169
0.980346
0.982344
0.977891
0.97498
0.975613
0.977288
0.981853
0.990143
0.999623
1.0086
1.01516
1.02199
1.02131
1.02037
1.02072
1.0232
1.0289
1.03711
1.04694
1.05514
1.05954
1.06143
1.06136
1.06406
1.07158
1.08307
1.0956
1.10029
1.09971
1.10062
1.10547
1.11334
1.1207
1.12441
1.12687
1.13207
1.13971
1.14275
1.14386
1.1457
1.14841
1.15196
1.15561
1.1589
1.16245
1.16746
1.17466
1.17946
1.17987
1.18053
1.18305
1.1887
1.19638
1.20409
1.21014
1.21335
1.21641
0.230793
0.230879
0.230973
0.231073
0.23118
0.231293
0.23141
0.231532
0.231655
0.231807
0.231886
0.231959
0.232042
0.23213
0.232234
0.232344
0.232471
0.232599
0.232753
0.232858
0.234373
0.239462
0.252183
0.27247
0.303854
0.342402
0.393248
0.450194
0.51773
0.584218
0.651698
0.712029
0.768824
0.817778
0.860417
0.901531
0.928497
0.957219
0.971912
0.977684
0.975449
0.971904
0.961459
0.944574
0.926205
0.908153
0.900523
0.905352
0.919913
0.937638
0.955109
0.970541
0.97689
0.974003
0.965914
0.956393
0.951098
0.953253
0.96043
0.972058
0.9855
0.99439
0.995314
0.994362
0.995718
1.00164
1.01023
1.01933
1.02816
1.03095
1.03426
1.03991
1.04651
1.05382
1.06194
1.06749
1.07368
1.08067
1.08922
1.0965
1.10375
1.10886
1.11323
1.11874
1.12632
1.13412
1.14013
1.14479
1.15041
1.15687
1.1646
1.17155
1.17715
1.18177
1.18547
1.18967
1.19582
1.2051
1.21269
1.2169
0.231917
0.232005
0.232099
0.2322
0.232304
0.232411
0.232521
0.23263
0.232744
0.232858
0.232974
0.233098
0.233224
0.233354
0.233487
0.233616
0.233744
0.233865
0.23398
0.234101
0.23417
0.234221
0.234276
0.23433
0.234389
0.234444
0.23451
0.234557
0.235219
0.240898
0.254223
0.281605
0.318192
0.372985
0.43819
0.520385
0.605073
0.6925
0.76456
0.824658
0.859313
0.895353
0.902814
0.909953
0.90637
0.909137
0.914623
0.922027
0.92532
0.928661
0.931971
0.938645
0.938543
0.933138
0.927638
0.928286
0.930909
0.9364
0.940618
0.944725
0.949663
0.948977
0.947349
0.947768
0.950497
0.955883
0.962525
0.971191
0.977613
0.980115
0.9815
0.984921
0.992229
1.00048
1.00632
1.01121
1.0174
1.02595
1.03541
1.04438
1.0512
1.05713
1.06466
1.07419
1.08415
1.09264
1.10056
1.10985
1.12066
1.13001
1.13696
1.14419
1.15445
1.16697
1.17685
1.18233
1.18627
1.19083
1.19859
1.21108
0.233108
0.233187
0.23327
0.233358
0.233446
0.233536
0.233622
0.233708
0.233796
0.233885
0.233971
0.234059
0.234145
0.234228
0.234309
0.234387
0.234459
0.234526
0.234589
0.234651
0.234709
0.23477
0.23483
0.234883
0.234932
0.234975
0.23502
0.235074
0.235118
0.235147
0.235184
0.235236
0.235287
0.235349
0.2354
0.235749
0.244639
0.265905
0.311715
0.373226
0.461642
0.563
0.66563
0.763704
0.833116
0.892749
0.919971
0.93478
0.93428
0.92962
0.924894
0.915684
0.903657
0.896673
0.901285
0.910099
0.920907
0.929144
0.93405
0.933844
0.929992
0.922373
0.922584
0.92588
0.932555
0.941795
0.940497
0.939413
0.939319
0.940935
0.944775
0.950468
0.955388
0.959911
0.963649
0.96656
0.971828
0.97925
0.987205
0.992096
0.996707
1.00348
1.01237
1.02284
1.03305
1.04188
1.05241
1.06452
1.07711
1.08935
1.09904
1.10816
1.11846
1.13025
1.14397
1.15788
1.16852
1.17431
1.17861
1.19014
0.234129
0.23418
0.234233
0.234288
0.234341
0.234394
0.234444
0.234495
0.234547
0.2346
0.234651
0.2347
0.234745
0.234788
0.234831
0.234872
0.234911
0.234945
0.234978
0.235012
0.23505
0.235088
0.235122
0.235151
0.235177
0.235205
0.23524
0.235285
0.235345
0.235417
0.235494
0.235577
0.23565
0.235728
0.235804
0.235857
0.23587
0.235901
0.235941
0.236003
0.236047
0.238856
0.260504
0.305682
0.390543
0.501187
0.619774
0.71731
0.805946
0.838059
0.871695
0.877605
0.884211
0.901346
0.910158
0.921653
0.93327
0.936755
0.935784
0.928909
0.919688
0.914133
0.914498
0.917887
0.923952
0.934003
0.935257
0.9321
0.926795
0.925122
0.927631
0.93352
0.937651
0.937101
0.936994
0.93873
0.942173
0.948112
0.952754
0.954412
0.957139
0.96338
0.971409
0.978226
0.984742
0.99286
1.00213
1.01425
1.0267
1.03688
1.0474
1.06046
1.07492
1.0883
1.10037
1.11263
1.12573
1.13931
1.14913
1.16192
0.234767
0.234795
0.234821
0.234848
0.234873
0.234898
0.234924
0.234952
0.234982
0.23501
0.235039
0.235069
0.235095
0.235119
0.235141
0.235162
0.235181
0.235199
0.235218
0.235241
0.23527
0.2353
0.235328
0.235352
0.235379
0.235414
0.235463
0.235532
0.235615
0.235702
0.235789
0.235866
0.235933
0.235994
0.23604
0.236079
0.236119
0.236152
0.236182
0.23622
0.236257
0.236277
0.236283
0.236278
0.236267
0.236264
0.25006
0.290223
0.367044
0.482113
0.608497
0.725683
0.813541
0.885952
0.903322
0.916754
0.925017
0.930203
0.927084
0.911825
0.913519
0.918355
0.922785
0.927818
0.930435
0.929895
0.927327
0.923547
0.921837
0.922255
0.924815
0.927294
0.929713
0.928323
0.927646
0.929291
0.932438
0.933716
0.933153
0.933189
0.934953
0.939064
0.944485
0.950249
0.953796
0.959368
0.967773
0.975245
0.983076
0.992276
1.00221
1.0127
1.0251
1.03979
1.05342
1.06531
1.07737
1.08992
1.10114
1.11947
0.235111
0.235127
0.235142
0.235159
0.235176
0.235192
0.235209
0.235225
0.235241
0.235259
0.235276
0.235293
0.235309
0.235326
0.235341
0.235355
0.235369
0.235383
0.2354
0.235426
0.235457
0.235489
0.235523
0.235559
0.235602
0.235659
0.23573
0.235818
0.235912
0.235997
0.236069
0.236125
0.236166
0.236199
0.236223
0.236239
0.236252
0.236264
0.236282
0.236303
0.236318
0.236333
0.236342
0.236333
0.236324
0.236323
0.236326
0.236353
0.236434
0.236456
0.245666
0.29295
0.379275
0.514242
0.646514
0.763421
0.826989
0.879062
0.897223
0.900411
0.918562
0.93758
0.941242
0.938505
0.933512
0.926461
0.918741
0.919099
0.921007
0.926324
0.930351
0.92862
0.925137
0.924542
0.925344
0.92782
0.930254
0.929704
0.926448
0.926098
0.928217
0.931948
0.933549
0.933996
0.936067
0.939356
0.9449
0.952652
0.957242
0.96198
0.969081
0.979945
0.989531
0.9985
1.00995
1.02123
1.03138
1.04272
1.05303
1.07052
0.235358
0.235368
0.235379
0.23539
0.235403
0.235416
0.235429
0.235441
0.235453
0.235465
0.235477
0.235491
0.235506
0.235521
0.235535
0.235548
0.235565
0.235585
0.23561
0.235646
0.235688
0.23573
0.235773
0.235823
0.23588
0.235945
0.236022
0.236106
0.236183
0.236238
0.236276
0.236302
0.23632
0.236332
0.236334
0.236335
0.236337
0.236345
0.236359
0.236375
0.236388
0.236404
0.236408
0.236396
0.236372
0.236366
0.236368
0.236411
0.236484
0.236492
0.236467
0.236449
0.236444
0.236464
0.260976
0.321739
0.439329
0.583978
0.734793
0.835342
0.908653
0.92863
0.932402
0.936186
0.935748
0.921912
0.918628
0.921582
0.929303
0.934912
0.932394
0.926464
0.922498
0.923482
0.928324
0.932269
0.931293
0.92778
0.923232
0.923724
0.92663
0.929506
0.930183
0.930235
0.931542
0.935276
0.93946
0.941695
0.945461
0.948389
0.952635
0.957538
0.966697
0.974567
0.980207
0.989154
0.997812
1.00521
1.01337
1.02858
0.235553
0.235564
0.235577
0.23559
0.235604
0.23562
0.235636
0.235653
0.23567
0.235686
0.235703
0.235721
0.235741
0.235761
0.235778
0.235799
0.235829
0.235858
0.235893
0.235934
0.235975
0.236011
0.236052
0.2361
0.236146
0.236194
0.236251
0.236311
0.236352
0.236369
0.236379
0.236388
0.236398
0.236393
0.23638
0.236377
0.23638
0.236391
0.236411
0.236431
0.236452
0.236476
0.236478
0.236459
0.23643
0.236415
0.236416
0.236447
0.236476
0.236473
0.236437
0.236407
0.236402
0.236403
0.2364
0.236404
0.236439
0.2435
0.290403
0.40709
0.571376
0.720541
0.819776
0.891096
0.919711
0.917713
0.927644
0.937153
0.943783
0.939768
0.932955
0.922955
0.923137
0.92875
0.936011
0.935418
0.931857
0.924117
0.922615
0.926304
0.93114
0.930858
0.92928
0.92941
0.930792
0.934724
0.938252
0.938983
0.939877
0.943088
0.948204
0.952839
0.956815
0.962371
0.967795
0.97062
0.977231
0.984351
0.987918
0.9979
0.235781
0.2358
0.23582
0.235841
0.235865
0.235888
0.235913
0.235937
0.23596
0.235983
0.236004
0.236024
0.23605
0.236075
0.236093
0.236115
0.236144
0.236169
0.236193
0.236224
0.236245
0.23626
0.236282
0.236311
0.236333
0.236352
0.236385
0.236418
0.236425
0.236421
0.236419
0.236422
0.236426
0.236415
0.236396
0.236393
0.236398
0.236419
0.236454
0.236492
0.236533
0.236561
0.236553
0.236522
0.236496
0.236483
0.236471
0.236463
0.236448
0.236431
0.236405
0.236382
0.236375
0.236379
0.236462
0.236493
0.236497
0.236664
0.237171
0.237295
0.241222
0.293748
0.404597
0.574728
0.754617
0.865104
0.926105
0.931942
0.939859
0.938495
0.923276
0.924212
0.931586
0.939639
0.939711
0.936089
0.926403
0.923164
0.926307
0.934033
0.934247
0.931971
0.929256
0.929923
0.934248
0.938107
0.939156
0.939126
0.939732
0.942209
0.946485
0.951598
0.954111
0.957055
0.96223
0.966637
0.967691
0.972387
0.977015
0.982907
0.236138
0.236158
0.236178
0.236197
0.236215
0.236232
0.236251
0.236271
0.236288
0.236304
0.236316
0.236325
0.236337
0.236349
0.236359
0.236372
0.236383
0.236388
0.236396
0.236399
0.236396
0.236393
0.236394
0.236401
0.236405
0.23641
0.236422
0.236431
0.23643
0.236415
0.236396
0.236391
0.236384
0.23637
0.236369
0.236376
0.236393
0.236433
0.2365
0.236569
0.236619
0.236622
0.236594
0.236559
0.236549
0.236531
0.23649
0.236466
0.236447
0.236411
0.236381
0.236381
0.236384
0.236427
0.236585
0.236749
0.236811
0.236999
0.237417
0.237508
0.237454
0.237277
0.237103
0.244666
0.301642
0.450292
0.650164
0.777927
0.888891
0.903101
0.918788
0.931296
0.950044
0.94873
0.942801
0.927004
0.922813
0.926813
0.937527
0.939948
0.936811
0.930779
0.930594
0.934801
0.940311
0.940752
0.940133
0.94009
0.941688
0.945669
0.949786
0.953468
0.955342
0.957277
0.960284
0.965557
0.967936
0.96875
0.9718
0.977515
0.236403
0.236414
0.236426
0.236437
0.236447
0.236455
0.23646
0.236466
0.236473
0.236475
0.236476
0.236474
0.236469
0.236466
0.236467
0.236464
0.236449
0.236444
0.236443
0.23644
0.236432
0.236422
0.236415
0.236408
0.236403
0.236393
0.236383
0.23638
0.236378
0.236369
0.236352
0.236344
0.236338
0.23633
0.23633
0.236338
0.236369
0.236437
0.236547
0.236651
0.236679
0.236657
0.236611
0.236599
0.236603
0.236565
0.236478
0.236479
0.23648
0.236416
0.236377
0.236444
0.236533
0.236627
0.236805
0.237041
0.237139
0.237277
0.237478
0.237503
0.237449
0.237293
0.236961
0.236575
0.236396
0.236121
0.255795
0.357825
0.541305
0.723978
0.875477
0.925482
0.944861
0.943955
0.926859
0.917639
0.925553
0.940223
0.94561
0.941385
0.932055
0.93099
0.934954
0.941557
0.943517
0.942506
0.941638
0.942615
0.945732
0.949989
0.952861
0.954867
0.95725
0.959828
0.962241
0.965026
0.968291
0.969321
0.971014
0.974813
0.236541
0.236544
0.236545
0.236547
0.236549
0.236549
0.236543
0.236529
0.236521
0.236519
0.236517
0.236506
0.236493
0.236487
0.23648
0.236459
0.236437
0.236436
0.236435
0.236432
0.236426
0.236415
0.236397
0.236365
0.236349
0.236348
0.236348
0.236351
0.236355
0.236354
0.236343
0.236333
0.236329
0.236321
0.236319
0.236328
0.236364
0.236451
0.236604
0.236706
0.236707
0.236664
0.236635
0.236643
0.236656
0.236592
0.236479
0.236487
0.236461
0.236405
0.236474
0.236747
0.236871
0.236957
0.237142
0.237357
0.237361
0.237373
0.237359
0.237247
0.237079
0.236901
0.236529
0.236095
0.236017
0.235981
0.235961
0.23607
0.236553
0.298103
0.448692
0.652726
0.817063
0.880433
0.90704
0.921493
0.945561
0.955678
0.949903
0.932044
0.928392
0.933846
0.943626
0.946534
0.945047
0.943183
0.943573
0.946283
0.950962
0.954096
0.955894
0.957524
0.959981
0.962869
0.964615
0.966007
0.968229
0.970625
0.972362
0.975753
0.236608
0.236605
0.236603
0.2366
0.236593
0.236581
0.236567
0.236542
0.236517
0.236507
0.2365
0.236493
0.236482
0.236458
0.236421
0.236406
0.236405
0.236407
0.236414
0.236418
0.236415
0.23641
0.236402
0.236383
0.236375
0.236374
0.236376
0.236379
0.236371
0.236371
0.236373
0.236363
0.236353
0.236344
0.236345
0.236367
0.236416
0.236513
0.236655
0.236717
0.236703
0.236655
0.236645
0.236671
0.236708
0.236645
0.236552
0.236507
0.236433
0.236448
0.236654
0.237061
0.237174
0.237274
0.237471
0.237523
0.237433
0.237347
0.237169
0.236869
0.236593
0.236406
0.236125
0.235825
0.23581
0.235852
0.235973
0.236497
0.237215
0.237519
0.237309
0.269873
0.38566
0.600393
0.806704
0.908205
0.943991
0.948131
0.932126
0.923418
0.931246
0.946078
0.94869
0.946342
0.944364
0.94436
0.946546
0.95112
0.955418
0.957275
0.958657
0.960202
0.962909
0.965766
0.967385
0.968133
0.97029
0.973048
0.974324
0.976899
0.23667
0.236661
0.236651
0.236634
0.23662
0.23661
0.236595
0.236573
0.236536
0.236486
0.236476
0.236478
0.236474
0.236452
0.236417
0.236407
0.23641
0.236429
0.236469
0.236508
0.236536
0.236563
0.236593
0.236606
0.236602
0.236598
0.2366
0.23659
0.236547
0.236527
0.236534
0.236533
0.236531
0.236523
0.236499
0.236469
0.236475
0.2365
0.236526
0.236551
0.236575
0.236583
0.236599
0.236661
0.236742
0.236728
0.236682
0.236585
0.23655
0.236614
0.236929
0.237219
0.237317
0.237497
0.237584
0.23755
0.237423
0.237171
0.236774
0.236406
0.236165
0.236054
0.235916
0.235728
0.235712
0.235815
0.236327
0.23717
0.237698
0.237626
0.237092
0.23652
0.236013
0.250808
0.354582
0.573439
0.777771
0.86766
0.909021
0.925384
0.953358
0.958686
0.949219
0.943727
0.943976
0.946947
0.952077
0.956701
0.958771
0.959985
0.961515
0.963766
0.966313
0.968461
0.97018
0.971376
0.97295
0.975198
0.976695
0.97876
0.236509
0.236508
0.236504
0.236492
0.236486
0.236489
0.236497
0.236496
0.236481
0.236438
0.236401
0.236393
0.236394
0.236403
0.236418
0.23643
0.23646
0.236544
0.236646
0.236712
0.236757
0.23681
0.236855
0.236863
0.236859
0.236848
0.236823
0.236759
0.236671
0.236648
0.236661
0.236661
0.236646
0.23663
0.236588
0.236504
0.236365
0.236269
0.236255
0.236284
0.236426
0.236536
0.236575
0.236643
0.236733
0.236827
0.236832
0.236775
0.236763
0.236865
0.237132
0.237236
0.237347
0.237534
0.237559
0.237469
0.237174
0.236749
0.236234
0.235925
0.235821
0.23586
0.23585
0.235758
0.235858
0.236339
0.237196
0.237845
0.237884
0.237427
0.236728
0.236256
0.235967
0.236798
0.237838
0.249431
0.336978
0.551702
0.787615
0.904521
0.955134
0.9548
0.949476
0.944997
0.950699
0.955748
0.95971
0.961519
0.962114
0.963652
0.965924
0.96878
0.970693
0.971908
0.973556
0.975479
0.976998
0.978734
0.980359
0.982335
0.236466
0.236467
0.236467
0.236464
0.236462
0.236467
0.236486
0.236501
0.236505
0.236497
0.236485
0.236482
0.236494
0.236569
0.236611
0.23663
0.236695
0.236789
0.236832
0.236863
0.236889
0.236917
0.236939
0.236944
0.236939
0.236926
0.23689
0.236792
0.236703
0.23669
0.236707
0.236717
0.236705
0.236663
0.236581
0.236437
0.236237
0.236101
0.236089
0.236112
0.236282
0.236547
0.236592
0.236609
0.236703
0.236954
0.237054
0.237051
0.236995
0.23702
0.237155
0.237166
0.237109
0.237072
0.237033
0.236891
0.236644
0.23632
0.23584
0.235659
0.235677
0.235792
0.235924
0.236115
0.236577
0.237428
0.238135
0.23816
0.238008
0.237111
0.236604
0.236182
0.237778
0.240585
0.241971
0.241945
0.24238
0.247677
0.338004
0.564183
0.798812
0.887081
0.938184
0.956232
0.968868
0.965734
0.967633
0.968293
0.96999
0.972352
0.974304
0.976068
0.97716
0.978
0.979631
0.981894
0.983335
0.98439
0.985859
0.987789
0.236514
0.236522
0.236528
0.236533
0.23654
0.236559
0.23663
0.236785
0.23686
0.236857
0.236838
0.236793
0.236774
0.236786
0.236794
0.236787
0.236825
0.236871
0.23687
0.236886
0.23691
0.236922
0.236925
0.236928
0.236928
0.23692
0.236886
0.236788
0.236705
0.236694
0.236705
0.23672
0.236698
0.236525
0.236373
0.23629
0.236154
0.236035
0.236021
0.236037
0.236163
0.236511
0.236675
0.236675
0.236825
0.237241
0.237376
0.237353
0.23714
0.236991
0.236968
0.236885
0.236679
0.236529
0.236433
0.236365
0.236276
0.236094
0.235733
0.235636
0.235668
0.235875
0.236504
0.237254
0.238104
0.238725
0.238607
0.238556
0.238062
0.237017
0.237114
0.239025
0.242117
0.245174
0.245105
0.244847
0.245883
0.249758
0.252382
0.262472
0.354269
0.591069
0.839679
0.937104
0.980842
0.977526
0.985076
0.982999
0.985912
0.986756
0.988117
0.989154
0.989444
0.989684
0.990719
0.992763
0.99378
0.994639
0.995586
0.996639
0.236633
0.236629
0.236623
0.236624
0.236634
0.236686
0.236861
0.237031
0.237049
0.237032
0.236984
0.236924
0.236845
0.236771
0.236711
0.236651
0.236572
0.23649
0.236473
0.23651
0.236537
0.236536
0.236482
0.236447
0.236465
0.236488
0.236463
0.236382
0.236334
0.23633
0.236336
0.236323
0.236209
0.236088
0.236107
0.236086
0.235999
0.235999
0.236013
0.236084
0.236364
0.236839
0.236986
0.2371
0.237416
0.237636
0.237654
0.237593
0.237166
0.236821
0.236811
0.236697
0.236455
0.236358
0.236281
0.236255
0.236202
0.236035
0.235815
0.235884
0.236136
0.236972
0.238277
0.239325
0.239942
0.239579
0.239114
0.239021
0.238736
0.23973
0.24283
0.2461
0.247049
0.248054
0.249932
0.252467
0.254238
0.256417
0.26065
0.265066
0.265949
0.276415
0.383793
0.630534
0.880873
0.959234
1.00581
1.00601
1.01287
1.0081
1.00773
1.00853
1.00938
1.0095
1.00938
1.00987
1.01018
1.01087
1.01089
1.0112
0.236621
0.236615
0.236565
0.236519
0.236522
0.236559
0.236633
0.236655
0.236649
0.23664
0.236622
0.236591
0.236558
0.236519
0.236426
0.23622
0.236062
0.235981
0.235884
0.235787
0.235787
0.235838
0.235842
0.235769
0.235766
0.235803
0.235786
0.23573
0.235688
0.235701
0.235779
0.235851
0.235887
0.235934
0.236025
0.236175
0.236366
0.236493
0.236572
0.236802
0.237371
0.237562
0.237562
0.23762
0.237724
0.23773
0.237724
0.237644
0.237162
0.236793
0.236788
0.236671
0.236381
0.236354
0.236387
0.236365
0.236311
0.236332
0.236766
0.237723
0.238965
0.240269
0.241007
0.241633
0.241677
0.240932
0.240307
0.240738
0.243098
0.246996
0.250186
0.252921
0.252797
0.253052
0.255299
0.259428
0.263151
0.267135
0.269541
0.271471
0.275392
0.277945
0.279024
0.298286
0.424753
0.692385
0.934908
0.991905
1.03708
1.03993
1.04086
1.03618
1.03335
1.03457
1.03626
1.03585
1.03476
1.03436
1.03387
1.03288
0.236038
0.236039
0.23599
0.235932
0.235935
0.235956
0.236045
0.236163
0.23621
0.236241
0.236272
0.236311
0.236354
0.236362
0.236307
0.236025
0.23588
0.235876
0.235827
0.23566
0.23556
0.235602
0.235646
0.235609
0.235627
0.23572
0.235732
0.235707
0.235722
0.235839
0.236042
0.236304
0.236609
0.236875
0.237147
0.23739
0.237531
0.237636
0.23779
0.238081
0.238307
0.238291
0.238199
0.237951
0.237589
0.237364
0.237286
0.237238
0.237159
0.237179
0.237165
0.23692
0.236767
0.236812
0.236919
0.236956
0.237352
0.238472
0.240188
0.241811
0.243282
0.244056
0.2439
0.243958
0.24456
0.245436
0.246813
0.248553
0.251107
0.254745
0.25683
0.258838
0.261135
0.263679
0.265593
0.2677
0.272028
0.276446
0.27883
0.281472
0.283584
0.285182
0.289315
0.292942
0.294643
0.325749
0.480328
0.755502
0.983198
1.02522
1.07288
1.06963
1.06902
1.06483
1.06343
1.06341
1.06335
1.06283
1.06133
1.06006
0.23581
0.23594
0.235953
0.235907
0.235895
0.235906
0.235972
0.236144
0.236211
0.236261
0.236327
0.236402
0.236497
0.236587
0.236603
0.236542
0.236288
0.236164
0.236126
0.236006
0.235934
0.236023
0.236148
0.236241
0.23656
0.237025
0.237086
0.237094
0.237161
0.237402
0.237654
0.237803
0.237996
0.238172
0.238327
0.238498
0.238668
0.238843
0.239011
0.239026
0.238928
0.238722
0.238381
0.237921
0.23749
0.237191
0.23708
0.237072
0.23726
0.2375
0.237576
0.237789
0.238325
0.239102
0.240004
0.241309
0.242856
0.244496
0.246313
0.24757
0.248352
0.248451
0.248348
0.248667
0.250273
0.253699
0.257322
0.260592
0.262208
0.263529
0.265532
0.267336
0.269844
0.272972
0.276001
0.28027
0.282951
0.283892
0.287296
0.290316
0.291498
0.295038
0.300154
0.303203
0.305335
0.306703
0.308448
0.358779
0.548071
0.825024
1.03549
1.06347
1.10408
1.10077
1.09886
1.09089
1.09296
1.09349
1.09216
1.09031
0.236004
0.236258
0.236482
0.236612
0.236693
0.236784
0.236887
0.237018
0.237216
0.23744
0.237615
0.23774
0.23794
0.238351
0.238567
0.23857
0.238534
0.238361
0.238241
0.238239
0.238286
0.23838
0.238453
0.238573
0.238826
0.239147
0.239214
0.239211
0.239168
0.239128
0.239083
0.239072
0.239185
0.239335
0.239332
0.239286
0.239328
0.23947
0.239466
0.239265
0.238912
0.238629
0.238365
0.238041
0.2377
0.237563
0.237744
0.238247
0.239122
0.240327
0.24199
0.244101
0.24613
0.248026
0.249636
0.250933
0.251957
0.252789
0.253909
0.254856
0.255048
0.255446
0.256415
0.258083
0.26116
0.264997
0.268218
0.271323
0.27329
0.274235
0.275469
0.277838
0.280931
0.283227
0.286013
0.290647
0.293862
0.295097
0.295761
0.297822
0.302179
0.30672
0.309434
0.311161
0.313491
0.316685
0.320917
0.324169
0.325848
0.396995
0.628463
0.904209
1.07971
1.10235
1.13139
1.12108
1.12489
1.11918
1.11962
1.12131
0.239408
0.239549
0.239667
0.239784
0.239883
0.239973
0.240053
0.240139
0.240207
0.24025
0.240295
0.240362
0.240512
0.24069
0.240708
0.240695
0.240635
0.240453
0.240327
0.240327
0.240324
0.240289
0.240215
0.240188
0.24022
0.24026
0.240225
0.240132
0.240059
0.239916
0.239631
0.239451
0.239463
0.239581
0.239633
0.239533
0.239521
0.239819
0.240094
0.240187
0.240368
0.24081
0.241585
0.242554
0.24362
0.245093
0.247041
0.24934
0.251568
0.253354
0.255109
0.256713
0.257717
0.258582
0.259361
0.259536
0.259857
0.260129
0.260769
0.262297
0.264439
0.266956
0.269729
0.272821
0.275524
0.278205
0.280435
0.281549
0.283556
0.285364
0.28666
0.288717
0.292217
0.296534
0.298749
0.299448
0.302593
0.305589
0.306411
0.308388
0.31331
0.316755
0.318804
0.321758
0.324607
0.3278
0.330861
0.33323
0.336917
0.338651
0.339607
0.446496
0.715499
0.987867
1.11686
1.13376
1.1596
1.14434
1.14561
1.14585
0.24165
0.241497
0.241484
0.241623
0.241711
0.241733
0.241787
0.241783
0.241661
0.241594
0.241605
0.241585
0.241531
0.241541
0.24148
0.241361
0.241361
0.241373
0.241376
0.241337
0.241118
0.241084
0.241179
0.241063
0.240996
0.241223
0.241461
0.24159
0.241881
0.242504
0.243132
0.243725
0.244415
0.245331
0.246515
0.247759
0.248968
0.25015
0.251421
0.25289
0.254432
0.255949
0.257508
0.258965
0.260301
0.261804
0.263068
0.263812
0.264431
0.264947
0.265494
0.266197
0.26637
0.266558
0.267271
0.267801
0.268647
0.270445
0.273258
0.276562
0.280036
0.28319
0.286
0.288657
0.289611
0.290141
0.29126
0.292278
0.2936
0.296024
0.299159
0.301825
0.30439
0.308612
0.311275
0.311126
0.311441
0.314578
0.318999
0.322774
0.325522
0.327112
0.329149
0.331445
0.333897
0.337468
0.341825
0.343406
0.345602
0.349319
0.353673
0.354592
0.370357
0.52047
0.812134
1.06758
1.15381
1.15862
1.17733
1.17267
0.246009
0.246142
0.246306
0.246501
0.246726
0.246969
0.247224
0.247487
0.247772
0.248092
0.248443
0.248827
0.249246
0.24969
0.250169
0.250741
0.251424
0.25216
0.252904
0.253655
0.254449
0.255221
0.255952
0.256716
0.257539
0.258489
0.259474
0.260319
0.261112
0.261942
0.262775
0.263611
0.264393
0.265096
0.265764
0.266358
0.267005
0.267742
0.268348
0.268837
0.26941
0.270004
0.270613
0.271137
0.271696
0.272349
0.272327
0.272294
0.27272
0.273659
0.274398
0.275469
0.277293
0.279587
0.282066
0.284877
0.287863
0.290676
0.293115
0.294989
0.296504
0.297727
0.298905
0.300011
0.300244
0.300305
0.301061
0.303506
0.306988
0.310469
0.314082
0.316706
0.317785
0.319075
0.321596
0.323233
0.324547
0.326652
0.331018
0.334966
0.336056
0.337902
0.339724
0.342243
0.346198
0.349612
0.353371
0.355127
0.355822
0.358607
0.363772
0.366431
0.367665
0.369446
0.41283
0.626491
0.931105
1.12408
1.18145
1.19157
0.265761
0.265906
0.266068
0.26624
0.266425
0.26661
0.266795
0.267017
0.267249
0.267462
0.267681
0.267922
0.268189
0.268522
0.268835
0.269099
0.269328
0.269598
0.26995
0.270364
0.270793
0.271182
0.271565
0.271956
0.272373
0.272735
0.273046
0.273381
0.273748
0.274138
0.274526
0.27499
0.275355
0.275693
0.276053
0.276463
0.277072
0.277964
0.278279
0.278615
0.279325
0.280199
0.281265
0.282549
0.284049
0.28541
0.286822
0.28839
0.290198
0.292253
0.294485
0.296695
0.29891
0.301124
0.302928
0.30451
0.30582
0.306441
0.306766
0.307009
0.307119
0.307531
0.308482
0.309859
0.311896
0.314567
0.317332
0.32042
0.323396
0.325753
0.328187
0.329846
0.329755
0.329896
0.331353
0.335417
0.33922
0.342052
0.344724
0.346054
0.347662
0.349773
0.35246
0.355922
0.359775
0.361175
0.361883
0.364642
0.368012
0.370562
0.374838
0.378442
0.379234
0.381926
0.384882
0.386211
0.472539
0.756266
1.05251
1.18365
0.280781
0.280945
0.281139
0.28136
0.281576
0.281778
0.282011
0.282224
0.282441
0.282676
0.282949
0.283247
0.283509
0.283985
0.284416
0.284706
0.28496
0.285313
0.285785
0.28623
0.286763
0.287416
0.287995
0.288517
0.289019
0.28954
0.290057
0.290606
0.291195
0.291838
0.292505
0.29323
0.294049
0.294921
0.295797
0.296761
0.297733
0.298758
0.299988
0.301355
0.302659
0.303884
0.30509
0.306364
0.307714
0.308968
0.309964
0.310887
0.31166
0.312213
0.312913
0.31354
0.314018
0.314478
0.314799
0.315328
0.316209
0.316392
0.316613
0.317546
0.319334
0.321479
0.324219
0.327469
0.330734
0.333583
0.336017
0.338095
0.338545
0.338537
0.339088
0.340758
0.342851
0.344564
0.347249
0.350709
0.353934
0.356514
0.357189
0.358471
0.360173
0.362418
0.365903
0.368813
0.371291
0.373457
0.374889
0.37731
0.381714
0.384395
0.386149
0.389827
0.391336
0.392459
0.395717
0.400063
0.401027
0.421298
0.567329
0.96914
0.301721
0.302188
0.302549
0.302818
0.303011
0.303186
0.303381
0.303611
0.303863
0.30413
0.304531
0.305028
0.30521
0.305391
0.305744
0.30621
0.306614
0.306944
0.307331
0.307795
0.308271
0.308721
0.309154
0.309613
0.310103
0.310662
0.311262
0.311859
0.312454
0.313025
0.313599
0.31421
0.314786
0.315279
0.315876
0.316235
0.316543
0.316892
0.317365
0.317825
0.318241
0.318598
0.318839
0.319142
0.319725
0.320492
0.320985
0.321692
0.322162
0.32261
0.323497
0.324484
0.325157
0.32607
0.327609
0.329509
0.331577
0.333868
0.336473
0.339262
0.34212
0.344667
0.346405
0.347446
0.347991
0.348318
0.349158
0.350674
0.351172
0.351531
0.352234
0.354779
0.358812
0.36279
0.365429
0.366657
0.36811
0.368741
0.369819
0.371868
0.374989
0.37791
0.38119
0.38346
0.384252
0.386287
0.389143
0.391166
0.393502
0.396979
0.398186
0.400054
0.403936
0.406512
0.408587
0.411849
0.414335
0.415649
0.416785
0.602426
0.321565
0.321798
0.322083
0.322293
0.322416
0.322536
0.322619
0.322672
0.322717
0.323023
0.323411
0.3236
0.323863
0.324056
0.324104
0.32424
0.324492
0.324689
0.32483
0.325097
0.325605
0.325926
0.326021
0.326152
0.32643
0.326782
0.327497
0.328053
0.328222
0.328394
0.328775
0.329371
0.329967
0.330415
0.331227
0.332218
0.332674
0.333182
0.333958
0.335032
0.336124
0.33711
0.337954
0.338728
0.339446
0.340277
0.341407
0.342719
0.344219
0.345856
0.347525
0.349341
0.351139
0.352788
0.354316
0.355658
0.356625
0.357336
0.357874
0.358303
0.359003
0.360182
0.360682
0.360533
0.360323
0.360355
0.361197
0.363435
0.36704
0.370406
0.373161
0.375318
0.377363
0.379811
0.3806
0.381125
0.381804
0.383429
0.385871
0.388595
0.39212
0.394791
0.395837
0.397222
0.398376
0.399553
0.402243
0.405894
0.408754
0.411966
0.41358
0.413988
0.416001
0.419806
0.421695
0.423846
0.426439
0.428274
0.430482
0.433359
0.343794
0.343935
0.344125
0.3443
0.344488
0.34476
0.345022
0.345277
0.345444
0.345567
0.345901
0.346523
0.346785
0.346881
0.347055
0.347533
0.347947
0.34802
0.348223
0.348733
0.349058
0.349302
0.349643
0.350041
0.350472
0.350939
0.351299
0.351873
0.352462
0.352891
0.35334
0.353865
0.354391
0.354979
0.355624
0.356275
0.35703
0.357835
0.358497
0.359078
0.359721
0.360454
0.361307
0.362192
0.362998
0.363783
0.364628
0.3653
0.365744
0.365998
0.366224
0.366596
0.367175
0.3677
0.368293
0.369002
0.369371
0.36992
0.370028
0.370141
0.370647
0.372051
0.374189
0.376636
0.379128
0.381992
0.384927
0.387612
0.389803
0.391707
0.393962
0.394194
0.394246
0.394532
0.395426
0.396635
0.398655
0.401379
0.404735
0.406842
0.408278
0.410214
0.410426
0.411145
0.413658
0.416733
0.419707
0.422645
0.424065
0.424589
0.42623
0.428145
0.429948
0.433225
0.435778
0.437255
0.439936
0.442658
0.444293
0.447416
0.367302
0.36744
0.367575
0.367736
0.367989
0.368056
0.368072
0.368187
0.368491
0.368844
0.368927
0.368938
0.36903
0.369459
0.369953
0.370017
0.370046
0.370237
0.370644
0.370867
0.37109
0.371527
0.372109
0.372631
0.372935
0.373107
0.373406
0.373843
0.374348
0.375046
0.375526
0.375519
0.375502
0.375671
0.37603
0.376433
0.377138
0.377793
0.377811
0.377884
0.378242
0.378859
0.37933
0.379874
0.380592
0.381249
0.382042
0.382801
0.383416
0.384078
0.384922
0.38592
0.387097
0.388274
0.389354
0.390582
0.3922
0.394113
0.396312
0.39858
0.400621
0.402252
0.403642
0.404861
0.40576
0.406886
0.408415
0.409033
0.40855
0.408265
0.408598
0.409297
0.409902
0.411098
0.413419
0.416653
0.419692
0.421713
0.423608
0.424699
0.424624
0.425195
0.427184
0.429683
0.431971
0.434652
0.436665
0.437829
0.438628
0.439583
0.441601
0.4454
0.447976
0.449259
0.451172
0.452563
0.453802
0.455966
0.457756
0.460497
0.393589
0.393733
0.393885
0.393981
0.394125
0.394262
0.394394
0.394735
0.395062
0.395077
0.395085
0.39529
0.395731
0.395912
0.395949
0.396104
0.39642
0.396696
0.396812
0.39696
0.397344
0.397763
0.398052
0.39826
0.398561
0.398808
0.398859
0.399066
0.399658
0.400271
0.400647
0.400983
0.401387
0.401892
0.402486