/*--------------------------------*- C++ -*----------------------------------*\
  =========                 |
  \\      /  F ield         | OpenFOAM: The Open Source CFD Toolbox
   \\    /   O peration     | Website:  https://openfoam.org
    \\  /    A nd           | Version:  7
     \\/     M anipulation  |
\*---------------------------------------------------------------------------*/
FoamFile
{
    version     2.0;
    format      ascii;
    class       volScalarField;
    location    "2.5";
    object      p;
}
// * * * * * * * * * * * * * * * * * * * * * * * * * * * * * * * * * * * * * //

dimensions      [1 -1 -2 0 0 0 0];

internalField   nonuniform List<scalar> 
90000
(
0.843695
0.846081
0.849539
0.852183
0.855141
0.860125
0.863887
0.867515
0.871553
0.876159
0.880235
0.884091
0.88798
0.891723
0.895693
0.899171
0.903317
0.906976
0.911009
0.915144
0.919715
0.925033
0.930493
0.937506
0.944705
0.953354
0.962402
0.971974
0.980675
0.99002
0.997008
1.00498
1.01024
1.01433
1.01874
1.02036
1.02062
1.02149
1.0237
1.02279
1.0187
1.00827
0.996461
0.987089
0.980254
0.978088
0.979363
0.982205
0.985466
0.989697
0.993394
0.995542
0.997477
0.997776
0.997236
0.99444
0.990801
0.986688
0.983377
0.981528
0.981733
0.983863
0.987595
0.99246
0.99637
0.996745
0.995157
0.992248
0.988263
0.986474
0.987094
0.988573
0.990928
0.990927
0.989013
0.984975
0.979186
0.977094
0.974996
0.974963
0.974284
0.972683
0.970883
0.968897
0.966744
0.966517
0.965146
0.962426
0.959612
0.957512
0.957725
0.957357
0.955743
0.952807
0.950524
0.948211
0.946057
0.943563
0.941928
0.940172
0.84258
0.842695
0.842901
0.843238
0.844436
0.84637
0.848289
0.850172
0.852475
0.855311
0.858471
0.861696
0.865087
0.86874
0.872585
0.876318
0.879912
0.883732
0.887436
0.891185
0.894965
0.898818
0.902997
0.907276
0.912229
0.917403
0.923546
0.93016
0.937195
0.945151
0.953101
0.961134
0.969918
0.977658
0.984919
0.993114
0.998396
1.00375
1.00756
1.00895
1.01011
1.01025
1.01073
1.00928
1.00477
0.998092
0.991125
0.985941
0.981731
0.981176
0.982584
0.984726
0.987147
0.990104
0.993004
0.995032
0.996556
0.995283
0.992569
0.988497
0.984981
0.982971
0.983407
0.985088
0.988005
0.991931
0.996558
0.99632
0.994181
0.990238
0.987063
0.985955
0.986405
0.988405
0.988872
0.986877
0.98203
0.976756
0.973186
0.972315
0.97343
0.973166
0.971578
0.968375
0.966409
0.965828
0.964553
0.961926
0.958337
0.957588
0.957498
0.957053
0.955491
0.952567
0.95083
0.948765
0.946161
0.94306
0.941665
0.940141
0.842533
0.84255
0.842561
0.842587
0.842611
0.842642
0.842723
0.842857
0.843058
0.843335
0.84371
0.844307
0.845113
0.846148
0.847407
0.848917
0.850601
0.852549
0.854724
0.857071
0.859703
0.862411
0.865453
0.868634
0.872073
0.875807
0.879831
0.884251
0.889325
0.894592
0.901158
0.907877
0.915757
0.924448
0.933449
0.943511
0.95353
0.964219
0.972752
0.981769
0.988419
0.9946
0.998802
1.00087
1.00208
1.00311
1.00416
1.00349
1.00063
0.996111
0.991618
0.988435
0.986136
0.985641
0.986319
0.987787
0.989989
0.992589
0.995683
0.995939
0.994393
0.990639
0.986499
0.983182
0.983652
0.986226
0.990483
0.994254
0.997406
0.996199
0.992163
0.988135
0.985497
0.986086
0.98651
0.986273
0.983925
0.978588
0.972909
0.971927
0.972041
0.972321
0.971336
0.969777
0.967206
0.96531
0.963708
0.961733
0.959742
0.957925
0.957368
0.956738
0.955573
0.953741
0.951244
0.948614
0.945893
0.943175
0.941958
0.940135
0.842857
0.842851
0.842838
0.842823
0.842792
0.842762
0.842745
0.842736
0.84274
0.842762
0.842824
0.842806
0.842799
0.8428
0.842826
0.842901
0.843014
0.843154
0.843342
0.843595
0.844075
0.84477
0.845633
0.846748
0.848053
0.849678
0.851602
0.853851
0.856491
0.859543
0.863193
0.867432
0.872441
0.878149
0.885058
0.892575
0.901884
0.911541
0.923079
0.934586
0.94733
0.959247
0.97133
0.979994
0.988624
0.994776
0.996738
0.997416
0.997905
0.997841
0.996804
0.994859
0.991354
0.988294
0.985843
0.986126
0.987033
0.988642
0.989954
0.990858
0.991819
0.991688
0.990717
0.988377
0.98593
0.985548
0.986576
0.988539
0.991165
0.993097
0.994982
0.993362
0.989681
0.98616
0.983505
0.983458
0.983247
0.980911
0.975193
0.970971
0.970109
0.970388
0.971286
0.970246
0.967641
0.964533
0.962736
0.961497
0.959689
0.957605
0.956607
0.955803
0.955149
0.953909
0.951286
0.948274
0.94595
0.943313
0.941805
0.939782
0.842918
0.842899
0.842886
0.842862
0.842836
0.842816
0.842803
0.842795
0.842783
0.842766
0.842759
0.842734
0.842668
0.842551
0.842472
0.842455
0.84247
0.842512
0.842547
0.842588
0.842541
0.842514
0.842502
0.842543
0.842621
0.842725
0.842873
0.843078
0.843448
0.844009
0.844804
0.845952
0.847482
0.849479
0.85212
0.85534
0.859683
0.864677
0.871618
0.879345
0.889256
0.900708
0.913257
0.927463
0.941441
0.955238
0.965501
0.975144
0.981207
0.986259
0.989374
0.989889
0.990935
0.992695
0.993247
0.993674
0.993226
0.991964
0.989564
0.988079
0.988204
0.988732
0.989813
0.991082
0.99098
0.989873
0.988268
0.987057
0.987529
0.989175
0.991371
0.992227
0.991827
0.98968
0.985751
0.982117
0.980249
0.978264
0.976561
0.973747
0.970599
0.969413
0.9697
0.970145
0.968752
0.965359
0.961928
0.960769
0.959942
0.958415
0.956727
0.955338
0.95458
0.953694
0.951695
0.948819
0.945894
0.943221
0.94172
0.939852
0.843244
0.843208
0.843174
0.843142
0.843116
0.843092
0.843072
0.843053
0.843041
0.843026
0.843003
0.842975
0.842942
0.842889
0.842795
0.842708
0.842662
0.842633
0.842585
0.842504
0.842409
0.842305
0.842197
0.842143
0.842133
0.842136
0.842131
0.842149
0.842102
0.842029
0.841998
0.842004
0.842056
0.842148
0.842363
0.842748
0.843421
0.84449
0.846125
0.848572
0.851952
0.856834
0.863034
0.872046
0.882429
0.895784
0.910854
0.9268
0.941772
0.957266
0.969327
0.978421
0.986899
0.990837
0.991448
0.991839
0.991935
0.991192
0.989654
0.987683
0.987711
0.988897
0.990411
0.99149
0.991193
0.990338
0.989206
0.988003
0.987541
0.988072
0.988699
0.990185
0.989991
0.988826
0.986604
0.983045
0.979185
0.976089
0.974384
0.972853
0.972101
0.970708
0.96909
0.968617
0.968184
0.966129
0.962386
0.959912
0.959202
0.958321
0.956796
0.955251
0.954669
0.953698
0.9515
0.94861
0.94621
0.943413
0.941546
0.939564
0.843173
0.843155
0.843136
0.843105
0.84307
0.843041
0.843012
0.842979
0.842952
0.842927
0.842899
0.842867
0.842834
0.842796
0.842738
0.842661
0.842596
0.842555
0.842521
0.842481
0.842418
0.842337
0.842254
0.842176
0.842116
0.842069
0.842019
0.841955
0.841855
0.841754
0.841648
0.841569
0.841512
0.841489
0.841422
0.84132
0.841303
0.841313
0.841336
0.841415
0.841677
0.84224
0.843356
0.845123
0.848196
0.852653
0.859817
0.868821
0.882192
0.896751
0.913369
0.93182
0.946693
0.961727
0.969753
0.977433
0.982347
0.983963
0.986575
0.988751
0.991467
0.992907
0.992644
0.992065
0.990619
0.98967
0.9891
0.989283
0.989648
0.989543
0.989073
0.988367
0.987944
0.986962
0.985475
0.983471
0.980037
0.976113
0.972642
0.971531
0.97121
0.970887
0.970093
0.968413
0.9669
0.965723
0.963671
0.960727
0.958294
0.957391
0.956259
0.954949
0.954082
0.953632
0.952281
0.949296
0.94608
0.94374
0.941723
0.9396
0.843088
0.84306
0.843028
0.842997
0.842947
0.842891
0.842846
0.842809
0.842774
0.84274
0.842707
0.842671
0.842633
0.842588
0.842545
0.842488
0.842394
0.842352
0.842347
0.84233
0.842279
0.842221
0.842165
0.842104
0.842051
0.842007
0.841955
0.84191
0.841858
0.841781
0.841678
0.841568
0.84147
0.841375
0.841264
0.841153
0.841051
0.840969
0.840905
0.840827
0.840652
0.840536
0.840524
0.840561
0.840743
0.841185
0.842201
0.843981
0.847392
0.852531
0.861228
0.872856
0.887889
0.905906
0.925524
0.943457
0.957891
0.971856
0.983335
0.986667
0.989675
0.991057
0.99068
0.988395
0.987765
0.988418
0.989578
0.99141
0.991619
0.990955
0.989293
0.98771
0.98628
0.984801
0.984287
0.982841
0.980017
0.976084
0.971942
0.971053
0.97034
0.970339
0.969593
0.968215
0.966319
0.965202
0.963868
0.961726
0.958607
0.95682
0.955932
0.954894
0.953644
0.952739
0.951672
0.949802
0.946156
0.943676
0.941631
0.939422
0.843097
0.84306
0.843016
0.84297
0.842919
0.842863
0.842801
0.84275
0.842711
0.842676
0.84264
0.842601
0.842553
0.842508
0.842465
0.842427
0.842362
0.84229
0.842256
0.842238
0.842213
0.842177
0.842122
0.842046
0.841978
0.841922
0.841872
0.841825
0.841767
0.84169
0.841602
0.841513
0.841444
0.841367
0.841252
0.841112
0.840993
0.840898
0.840793
0.840654
0.840466
0.840263
0.840099
0.840099
0.840126
0.840186
0.840266
0.840385
0.840617
0.841051
0.84223
0.844419
0.84917
0.856275
0.868413
0.883469
0.902974
0.921823
0.941205
0.955805
0.968969
0.97583
0.980555
0.982406
0.987687
0.990611
0.992612
0.992999
0.992571
0.99113
0.989552
0.987644
0.985944
0.985027
0.983411
0.981526
0.97877
0.974526
0.971901
0.971047
0.970423
0.969805
0.968833
0.96768
0.966343
0.965113
0.96361
0.96169
0.959091
0.95678
0.955943
0.955125
0.953807
0.952251
0.950997
0.94919
0.946548
0.94393
0.94172
0.939401
0.843317
0.843275
0.843234
0.84319
0.843148
0.8431
0.843046
0.84299
0.842938
0.842889
0.84284
0.842788
0.842727
0.842655
0.842582
0.842526
0.842461
0.842376
0.842303
0.842254
0.842216
0.84217
0.842097
0.842004
0.841917
0.84185
0.84178
0.841713
0.841658
0.841605
0.841547
0.841497
0.84145
0.841385
0.841292
0.841184
0.841097
0.841019
0.840916
0.840779
0.840624
0.840442
0.840249
0.840192
0.840203
0.840253
0.840318
0.840398
0.840537
0.84083
0.840925
0.841039
0.841327
0.842108
0.844106
0.847933
0.855502
0.867187
0.88349
0.90413
0.925037
0.944312
0.9635
0.97591
0.985462
0.988363
0.990903
0.990328
0.988198
0.988022
0.988661
0.988596
0.987858
0.985864
0.983094
0.979897
0.976499
0.972976
0.972131
0.971075
0.970007
0.968717
0.967762
0.967302
0.966635
0.965442
0.963414
0.961257
0.959198
0.957233
0.956008
0.954958
0.953744
0.952117
0.950377
0.948464
0.946621
0.944555
0.942024
0.939402
0.843169
0.843132
0.843096
0.843056
0.843013
0.842965
0.842921
0.84288
0.842841
0.842804
0.842766
0.842727
0.842684
0.842641
0.842598
0.842555
0.842509
0.842453
0.842397
0.842351
0.842316
0.842282
0.842236
0.842152
0.842082
0.842037
0.841987
0.841944
0.841878
0.841808
0.841792
0.841796
0.841782
0.841741
0.841691
0.841642
0.841582
0.841508
0.841415
0.841305
0.841189
0.841032
0.840852
0.840767
0.840763
0.840754
0.840732
0.84074
0.840795
0.840906
0.841033
0.841193
0.841522
0.84161
0.841646
0.841785
0.842315
0.844204
0.848201
0.856669
0.869151
0.887698
0.909008
0.930075
0.951555
0.962368
0.974493
0.977714
0.981639
0.987278
0.990846
0.990558
0.989097
0.985841
0.981352
0.978272
0.974881
0.973721
0.971995
0.970577
0.968688
0.96764
0.967639
0.967232
0.966549
0.965165
0.963056
0.960804
0.959305
0.957668
0.956093
0.954724
0.953566
0.95205
0.95034
0.947889
0.94631
0.944711
0.942479
0.939515
0.84297
0.842938
0.842909
0.842882
0.842852
0.842824
0.842803
0.842781
0.842754
0.842726
0.842699
0.842676
0.842659
0.84265
0.842645
0.842635
0.842615
0.842583
0.842539
0.842508
0.842495
0.842486
0.842467
0.842426
0.842402
0.842391
0.842369
0.842319
0.842267
0.84225
0.84225
0.842258
0.842252
0.842233
0.842213
0.842192
0.842167
0.842126
0.842055
0.84197
0.841868
0.84171
0.841505
0.841358
0.841276
0.841205
0.841158
0.841159
0.841186
0.841233
0.841307
0.841417
0.841637
0.841882
0.842018
0.842102
0.842139
0.841972
0.842036
0.842755
0.844889
0.85036
0.859403
0.876088
0.895283
0.918966
0.942309
0.959699
0.976722
0.984459
0.988363
0.988385
0.985882
0.981444
0.979388
0.977991
0.976408
0.973797
0.971357
0.968354
0.967126
0.967449
0.967379
0.967007
0.966055
0.96456
0.962692
0.960945
0.959353
0.957628
0.955907
0.95454
0.953514
0.952014
0.950056
0.947486
0.945764
0.944559
0.942376
0.939658
0.842543
0.842508
0.842483
0.842456
0.842429
0.842414
0.842402
0.842389
0.84237
0.842346
0.842324
0.842313
0.842302
0.84229
0.842297
0.842301
0.842295
0.842275
0.842268
0.842267
0.842274
0.842291
0.842304
0.84232
0.842336
0.842354
0.842378
0.842394
0.842421
0.842462
0.842517
0.842588
0.842657
0.842717
0.842783
0.842857
0.842914
0.842943
0.842941
0.842905
0.842827
0.842696
0.84251
0.842321
0.842169
0.842038
0.841964
0.84194
0.841923
0.841907
0.841903
0.841936
0.842069
0.842327
0.842503
0.842519
0.842465
0.84234
0.842209
0.841988
0.841961
0.842242
0.843383
0.846929
0.85349
0.867421
0.88439
0.907695
0.931585
0.949291
0.963202
0.974094
0.976125
0.980057
0.981345
0.979889
0.977119
0.972492
0.968709
0.96671
0.967217
0.967449
0.966946
0.966389
0.965266
0.963662
0.962626
0.9613
0.959368
0.9574
0.955684
0.95466
0.953634
0.952056
0.949661
0.947074
0.945683
0.944505
0.942046
0.939694
0.841973
0.841962
0.841952
0.841928
0.841909
0.841903
0.841897
0.841882
0.841872
0.841865
0.841858
0.84185
0.841836
0.84181
0.841804
0.841807
0.841803
0.841793
0.841792
0.841799
0.841813
0.841837
0.841868
0.84191
0.841954
0.841999
0.842052
0.842126
0.842225
0.842334
0.842454
0.84258
0.842698
0.842809
0.842928
0.843064
0.843197
0.843313
0.843421
0.8435
0.843511
0.843485
0.843409
0.8433
0.843177
0.843066
0.84297
0.842861
0.842753
0.842668
0.842603
0.842579
0.842641
0.842795
0.842936
0.842945
0.842871
0.842696
0.842468
0.8422
0.841925
0.841833
0.841846
0.84204
0.842768
0.845149
0.849905
0.860935
0.876386
0.899162
0.924016
0.94682
0.96384
0.977272
0.978235
0.977501
0.973624
0.967236
0.966172
0.966548
0.967211
0.967003
0.9662
0.965005
0.963922
0.963309
0.96252
0.960937
0.958863
0.956851
0.955858
0.955097
0.953798
0.951921
0.949266
0.946772
0.945519
0.944192
0.941783
0.939631
0.84198
0.841988
0.841994
0.842
0.842011
0.842018
0.842022
0.84203
0.842046
0.842054
0.842052
0.842048
0.842046
0.842041
0.84203
0.842011
0.841988
0.841965
0.841941
0.841928
0.84193
0.841938
0.84195
0.841964
0.841982
0.84201
0.842054
0.842114
0.842186
0.842272
0.842372
0.84248
0.842585
0.842692
0.842816
0.842958
0.843094
0.843216
0.843337
0.843469
0.843593
0.843658
0.843693
0.843718
0.843722
0.843712
0.84368
0.843615
0.843529
0.843426
0.84335
0.843349
0.843372
0.843361
0.843359
0.843362
0.84331
0.843189
0.843012
0.842757
0.842442
0.842069
0.841862
0.841876
0.84198
0.842195
0.842579
0.84399
0.847457
0.856199
0.870943
0.891542
0.915556
0.939471
0.949748
0.961591
0.961937
0.964782
0.967243
0.967822
0.96716
0.96533
0.964095
0.963655
0.963754
0.963436
0.962299
0.960395
0.95823
0.956829
0.95624
0.955422
0.953908
0.951853
0.949242
0.946789
0.94535
0.943859
0.941412
0.939488
0.842123
0.842139
0.842156
0.842176
0.842197
0.842216
0.842227
0.842232
0.842238
0.842263
0.842295
0.842297
0.842293
0.842294
0.842303
0.842303
0.842283
0.842243
0.842205
0.842167
0.842132
0.842111
0.842099
0.842083
0.842065
0.842063
0.842081
0.842118
0.842166
0.842229
0.842311
0.842397
0.842476
0.842561
0.842666
0.842764
0.842843
0.842918
0.843008
0.843112
0.84323
0.843375
0.843501
0.843611
0.843732
0.843748
0.843733
0.843723
0.843708
0.843654
0.843589
0.843574
0.843579
0.843585
0.843578
0.843571
0.843549
0.84351
0.843467
0.84338
0.843197
0.842868
0.842456
0.842196
0.842147
0.842178
0.842393
0.842383
0.842337
0.84298
0.845676
0.852027
0.865754
0.884125
0.908066
0.932614
0.948215
0.961708
0.964049
0.965778
0.964053
0.96112
0.961911
0.963734
0.963555
0.962808
0.961486
0.959634
0.958303
0.957247
0.956206
0.954922
0.953541
0.951943
0.949636
0.947022
0.945139
0.943433
0.941028
0.939306
0.842321
0.842327
0.842339
0.84236
0.842401
0.842449
0.842462
0.842461
0.842462
0.842476
0.842536
0.842546
0.842548
0.842572
0.842576
0.842556
0.842538
0.842525
0.842515
0.842498
0.842469
0.842437
0.84242
0.842411
0.8424
0.842396
0.842408
0.842427
0.842448
0.842483
0.842545
0.842577
0.84259
0.842615
0.842652
0.842661
0.842659
0.842675
0.842716
0.842784
0.842893
0.843049
0.843193
0.843314
0.84344
0.843499
0.84352
0.843532
0.843532
0.843519
0.843482
0.843422
0.84336
0.84333
0.843331
0.84336
0.843442
0.843606
0.843817
0.843946
0.843927
0.84379
0.843486
0.843063
0.842766
0.842599
0.84252
0.842345
0.842251
0.841938
0.841345
0.840886
0.842328
0.846983
0.859741
0.876352
0.899506
0.923504
0.935189
0.948908
0.952993
0.958874
0.964729
0.964221
0.962909
0.961083
0.960209
0.959676
0.958991
0.957479
0.955867
0.954283
0.953214
0.951962
0.950004
0.947378
0.945
0.943041
0.9407
0.939034
0.842871
0.842853
0.84285
0.842855
0.842894
0.842933
0.842938
0.842934
0.842926
0.842927
0.842947
0.842962
0.842955
0.842946
0.842946
0.842934
0.842886
0.842871
0.842877
0.842872
0.842851
0.842849
0.842857
0.84286
0.842859
0.842865
0.8429
0.842929
0.84293
0.842925
0.842928
0.842929
0.842917
0.842884
0.84284
0.842777
0.842684
0.842595
0.842559
0.842566
0.842612
0.842707
0.842811
0.842903
0.84297
0.843007
0.843036
0.843052
0.843042
0.843044
0.843095
0.843141
0.843134
0.84307
0.84299
0.842973
0.843046
0.843249
0.84355
0.843822
0.843977
0.843993
0.843903
0.843759
0.843532
0.843292
0.843074
0.842865
0.842552
0.842052
0.841244
0.840028
0.8385
0.836402
0.837459
0.84115
0.852864
0.869566
0.89391
0.918989
0.939783
0.954997
0.961749
0.961444
0.95741
0.958106
0.95906
0.960006
0.958857
0.956972
0.955001
0.953904
0.953295
0.951972
0.949828
0.94741
0.944986
0.94288
0.940467
0.938739
0.843506
0.843469
0.84345
0.843443
0.843443
0.843452
0.843475
0.843486
0.84349
0.843485
0.843463
0.843437
0.843421
0.843423
0.843427
0.843419
0.843344
0.843284
0.843273
0.843259
0.843232
0.843225
0.843247
0.843276
0.843282
0.843291
0.843329
0.84336
0.843356
0.843339
0.843308
0.843267
0.843224
0.843167
0.843077
0.842957
0.842829
0.8427
0.842589
0.842522
0.842513
0.842529
0.842563
0.842596
0.842623
0.842641
0.84265
0.842653
0.842664
0.842702
0.842842
0.843051
0.843119
0.843104
0.84298
0.8428
0.842773
0.842881
0.843171
0.843442
0.843585
0.843667
0.843766
0.843778
0.843721
0.84353
0.843379
0.843284
0.843087
0.842626
0.841688
0.840347
0.83845
0.83641
0.834109
0.830975
0.831437
0.834712
0.846424
0.864964
0.889699
0.916798
0.932904
0.94598
0.951063
0.960286
0.960757
0.959909
0.957317
0.955011
0.954058
0.954182
0.953483
0.951726
0.949398
0.947018
0.944863
0.942837
0.940313
0.938531
0.843881
0.843871
0.843864
0.843857
0.843853
0.843849
0.843834
0.843812
0.84379
0.843779
0.843759
0.84371
0.843671
0.843651
0.843628
0.843596
0.843553
0.843496
0.843454
0.843433
0.843423
0.84343
0.843453
0.843475
0.843486
0.84348
0.84349
0.843514
0.843533
0.843529
0.843509
0.843498
0.8435
0.843484
0.843423
0.843325
0.843241
0.843171
0.843095
0.843032
0.842984
0.842943
0.842913
0.8429
0.842878
0.842801
0.842726
0.842703
0.842701
0.842741
0.842906
0.843145
0.843239
0.843216
0.843089
0.842926
0.842834
0.842857
0.842944
0.843018
0.843089
0.843228
0.843427
0.84349
0.843474
0.843368
0.843189
0.843117
0.843017
0.842702
0.841968
0.840769
0.838956
0.836644
0.833876
0.831019
0.828259
0.824569
0.825177
0.828993
0.842477
0.863864
0.890864
0.922574
0.943777
0.95816
0.957997
0.955427
0.952882
0.95329
0.954673
0.954355
0.953197
0.951249
0.948751
0.946402
0.944634
0.942505
0.940041
0.93839
0.84382
0.843791
0.843765
0.843742
0.84372
0.843695
0.843664
0.843624
0.84357
0.843507
0.843445
0.843391
0.843355
0.843331
0.8433
0.843259
0.843211
0.843163
0.843115
0.843068
0.843065
0.843088
0.843103
0.843117
0.843142
0.84319
0.843251
0.843334
0.84345
0.843524
0.843547
0.843567
0.843604
0.843663
0.843729
0.843745
0.843729
0.843729
0.843781
0.843817
0.843812
0.843765
0.843693
0.843606
0.84346
0.843228
0.843008
0.842927
0.842932
0.843003
0.843159
0.843289
0.843399
0.843393
0.843288
0.843182
0.843124
0.843032
0.842877
0.842783
0.842752
0.842793
0.842987
0.843221
0.843259
0.843218
0.843026
0.842897
0.842767
0.842418
0.841681
0.840554
0.838944
0.836795
0.834059
0.83111
0.827995
0.824918
0.821883
0.818512
0.819922
0.824887
0.841264
0.866589
0.894901
0.927107
0.936597
0.944334
0.950775
0.955536
0.95505
0.953846
0.951989
0.950338
0.948446
0.946516
0.944406
0.94198
0.939627
0.938205
0.843607
0.843578
0.843554
0.843532
0.843508
0.843474
0.84343
0.843382
0.843328
0.843273
0.843211
0.843138
0.843056
0.842975
0.842907
0.842855
0.84282
0.842795
0.842772
0.842757
0.84275
0.842743
0.842744
0.842766
0.842823
0.842896
0.842958
0.843011
0.843078
0.84318
0.843245
0.843268
0.843322
0.843436
0.843544
0.843619
0.843696
0.843822
0.844023
0.844212
0.844297
0.844305
0.844284
0.844185
0.843968
0.843665
0.843362
0.843232
0.843282
0.843456
0.843571
0.843612
0.843664
0.843665
0.843622
0.843617
0.84362
0.843566
0.843282
0.842894
0.842771
0.842768
0.842893
0.843126
0.843185
0.843147
0.842995
0.842815
0.842546
0.842058
0.841275
0.840196
0.838585
0.83646
0.8337
0.830955
0.828101
0.825229
0.82195
0.819064
0.815523
0.813826
0.816079
0.823393
0.84451
0.872641
0.90389
0.936043
0.946416
0.953196
0.951982
0.948988
0.949348
0.949241
0.948291
0.946123
0.943882
0.941013
0.939252
0.938021
0.843569
0.843565
0.843578
0.843593
0.843593
0.843568
0.843527
0.843485
0.843449
0.843421
0.84339
0.843348
0.843294
0.843233
0.843173
0.843109
0.843051
0.843013
0.842989
0.842947
0.842862
0.842814
0.842828
0.842881
0.842966
0.84303
0.843042
0.843026
0.84299
0.842979
0.842987
0.842999
0.843029
0.84313
0.843253
0.843327
0.843419
0.843596
0.843845
0.844106
0.844334
0.84443
0.844417
0.844311
0.844061
0.843804
0.843586
0.843443
0.843503
0.843585
0.843561
0.843483
0.843454
0.843513
0.843664
0.843941
0.844091
0.84411
0.843958
0.843464
0.843171
0.843149
0.843196
0.843295
0.8433
0.843215
0.843008
0.842767
0.84242
0.84179
0.840845
0.839618
0.837914
0.835808
0.833196
0.830582
0.827984
0.825362
0.82259
0.819781
0.816342
0.813271
0.809565
0.809712
0.813453
0.82383
0.849739
0.880335
0.906939
0.92986
0.937525
0.944526
0.950896
0.950096
0.94772
0.944695
0.942881
0.940683
0.93928
0.937763
0.844193
0.844097
0.844039
0.844035
0.844083
0.844108
0.844083
0.844055
0.844028
0.843985
0.84392
0.843879
0.843849
0.843817
0.843778
0.843741
0.843713
0.843688
0.843657
0.843604
0.843505
0.843399
0.84341
0.843492
0.843513
0.843464
0.843396
0.843361
0.843285
0.843133
0.842936
0.842854
0.842868
0.842927
0.84297
0.843004
0.843116
0.843366
0.843654
0.843895
0.844091
0.844155
0.844105
0.843852
0.843649
0.843638
0.843642
0.843582
0.843533
0.843517
0.843384
0.84323
0.843196
0.843269
0.843461
0.843822
0.844234
0.844342
0.844313
0.844071
0.843729
0.8436
0.843585
0.843579
0.843531
0.843369
0.843114
0.842841
0.842411
0.841633
0.840552
0.83916
0.83738
0.835202
0.832754
0.830235
0.827775
0.825344
0.822921
0.820398
0.817476
0.814026
0.810668
0.807664
0.805067
0.805864
0.812228
0.827157
0.856864
0.88777
0.921235
0.939748
0.948667
0.947336
0.942259
0.941733
0.941493
0.940608
0.938959
0.937307
0.84445
0.844425
0.844352
0.844209
0.844143
0.844127
0.844133
0.844191
0.84424
0.844221
0.844136
0.844041
0.844005
0.844006
0.844016
0.844021
0.844019
0.844025
0.844028
0.844026
0.84403
0.844024
0.844046
0.844127
0.844139
0.844032
0.843908
0.843899
0.8438
0.84348
0.843111
0.842901
0.842887
0.842904
0.842894
0.8429
0.843113
0.843355
0.843459
0.843605
0.843831
0.843904
0.843781
0.843477
0.843444
0.843585
0.843631
0.843638
0.843764
0.843835
0.843688
0.843481
0.843434
0.843434
0.843513
0.843807
0.844192
0.844335
0.844338
0.844225
0.843986
0.843833
0.84379
0.843744
0.843635
0.843434
0.843216
0.842976
0.842522
0.841622
0.840406
0.83898
0.837211
0.835021
0.832623
0.830101
0.827735
0.825386
0.823106
0.820723
0.818007
0.814744
0.811523
0.807946
0.805138
0.802319
0.801665
0.803867
0.812789
0.833725
0.864783
0.895926
0.922059
0.93077
0.936483
0.943177
0.942489
0.94009
0.937268
0.936657
0.843558
0.843521
0.843434
0.84341
0.843396
0.843398
0.843431
0.843515
0.843604
0.843664
0.84367
0.843665
0.843676
0.84371
0.843726
0.843721
0.84371
0.843717
0.843745
0.843749
0.843772
0.843796
0.843788
0.843797
0.843802
0.843676
0.843277
0.843184
0.843246
0.843215
0.843011
0.84294
0.843043
0.843185
0.843233
0.843348
0.843496
0.843445
0.843329
0.843367
0.843595
0.843764
0.843728
0.843666
0.843756
0.843945
0.843978
0.84404
0.844176
0.844215
0.84405
0.843996
0.843978
0.843893
0.843823
0.843913
0.844051
0.844083
0.844103
0.844011
0.843781
0.843726
0.843767
0.843756
0.843565
0.84324
0.843031
0.842818
0.842346
0.841488
0.840354
0.838989
0.837257
0.835079
0.832691
0.830159
0.827717
0.825432
0.82319
0.820886
0.818289
0.815213
0.811965
0.808455
0.805403
0.802877
0.800846
0.798288
0.798692
0.802654
0.815419
0.842941
0.874074
0.910593
0.930894
0.941341
0.939741
0.933978
0.934528
0.935206
0.841319
0.841296
0.841308
0.841374
0.841501
0.841811
0.842175
0.842292
0.842268
0.842174
0.842162
0.842226
0.842318
0.842358
0.842389
0.84241
0.842446
0.8425
0.842607
0.842814
0.842926
0.842912
0.842891
0.842962
0.843079
0.8431
0.843044
0.842846
0.842785
0.842832
0.842939
0.843129
0.843489
0.843992
0.844409
0.844567
0.844515
0.844356
0.84422
0.844155
0.844133
0.844047
0.84401
0.844054
0.844039
0.844161
0.844262
0.844264
0.844202
0.84419
0.844236
0.844346
0.844339
0.844238
0.844168
0.844029
0.843721
0.843641
0.843633
0.843583
0.843592
0.843724
0.843833
0.843817
0.843612
0.843248
0.84304
0.842823
0.842293
0.841364
0.840263
0.838966
0.837275
0.835108
0.83266
0.830117
0.827658
0.82548
0.823377
0.821147
0.818638
0.815712
0.812462
0.809026
0.805991
0.803444
0.801064
0.798822
0.796396
0.794227
0.795856
0.802807
0.82222
0.853112
0.883678
0.913941
0.920628
0.927662
0.936339
0.935511
0.839297
0.839433
0.839642
0.839844
0.840065
0.840339
0.840422
0.840456
0.84055
0.840767
0.840836
0.840798
0.840717
0.84071
0.840735
0.84073
0.840742
0.840772
0.840942
0.841156
0.841226
0.84129
0.841485
0.841636
0.841791
0.842004
0.84228
0.842405
0.842448
0.842519
0.842659
0.842865
0.843268
0.84378
0.844123
0.844259
0.844205
0.844061
0.84397
0.843961
0.843954
0.84392
0.843879
0.843601
0.843477
0.843604
0.843677
0.843628
0.843611
0.843689
0.84387
0.843947
0.843897
0.843735
0.843514
0.843384
0.843357
0.843401
0.843366
0.843354
0.843473
0.843835
0.844011
0.843995
0.843773
0.843467
0.843293
0.843
0.842315
0.841245
0.840051
0.838688
0.836964
0.834811
0.832311
0.829601
0.827093
0.825287
0.823635
0.821684
0.819294
0.816462
0.813265
0.80995
0.806659
0.803773
0.801054
0.798889
0.796443
0.79403
0.791534
0.791774
0.795067
0.80568
0.831153
0.863038
0.896051
0.923562
0.932644
0.931139
0.842341
0.842345
0.842356
0.842354
0.842319
0.842228
0.842103
0.84197
0.841903
0.842021
0.842186
0.842198
0.842161
0.842129
0.84212
0.842099
0.842014
0.841831
0.84166
0.841587
0.84148
0.841416
0.841461
0.841579
0.841512
0.841278
0.840835
0.840543
0.840527
0.840612
0.840603
0.840518
0.840595
0.840928
0.841286
0.841619
0.841938
0.84214
0.842219
0.842244
0.84223
0.842043
0.84146
0.840931
0.840862
0.841014
0.841333
0.841713
0.842292
0.842684
0.842708
0.842561
0.842194
0.842092
0.842286
0.842826
0.843355
0.843715
0.843801
0.843854
0.844072
0.844288
0.844287
0.844203
0.843852
0.843509
0.843321
0.842991
0.842129
0.840804
0.839369
0.837803
0.836018
0.834029
0.83172
0.829147
0.826773
0.825211
0.823889
0.822281
0.820163
0.817454
0.814268
0.810853
0.807334
0.804091
0.801225
0.798837
0.796621
0.794478
0.792322
0.790678
0.788065
0.788902
0.794336
0.810363
0.841043
0.875464
0.89806
0.917842
0.842248
0.841717
0.841381
0.84096
0.840024
0.839635
0.839696
0.839672
0.839388
0.839413
0.839766
0.840226
0.840661
0.841026
0.841199
0.841371
0.841492
0.841506
0.841451
0.841276
0.840834
0.840277
0.840102
0.840111
0.840175
0.839982
0.839119
0.838661
0.838655
0.838723
0.838643
0.838382
0.837854
0.83723
0.837039
0.837187
0.837804
0.839204
0.839864
0.839907
0.839895
0.839768
0.839374
0.839013
0.839017
0.839157
0.839538
0.840455
0.841747
0.842003
0.841967
0.84148
0.840635
0.840456
0.840721
0.841578
0.842567
0.843431
0.843811
0.843927
0.844252
0.84439
0.844249
0.843467
0.842859
0.842774
0.842711
0.842366
0.841388
0.839996
0.838527
0.836972
0.835288
0.833434
0.831267
0.828878
0.826732
0.825293
0.82408
0.822635
0.820726
0.818219
0.815181
0.811725
0.808222
0.804807
0.801747
0.799164
0.797259
0.795248
0.792992
0.790709
0.788373
0.7856
0.783391
0.785398
0.795776
0.818362
0.852139
0.900537
0.843291
0.842489
0.841871
0.841788
0.841928
0.842085
0.841993
0.841707
0.841683
0.841858
0.842501
0.842969
0.843215
0.843497
0.843713
0.843935
0.844356
0.844789
0.844886
0.84489
0.844758
0.844276
0.844107
0.843861
0.843058
0.841635
0.84069
0.840465
0.84047
0.841298
0.841812
0.841767
0.841233
0.840017
0.838995
0.839073
0.839822
0.840929
0.841205
0.840932
0.840603
0.840426
0.840459
0.840756
0.841343
0.842153
0.843302
0.844491
0.844798
0.844709
0.844083
0.842586
0.841183
0.840892
0.841045
0.841359
0.841698
0.841995
0.842106
0.842245
0.842478
0.842495
0.842013
0.840956
0.840595
0.840619
0.840819
0.84074
0.840173
0.839253
0.83818
0.836838
0.835156
0.833215
0.831067
0.828897
0.826965
0.825506
0.824205
0.822716
0.820981
0.818815
0.816067
0.812834
0.809462
0.806135
0.803207
0.800547
0.798173
0.795892
0.793461
0.790828
0.788499
0.785713
0.782965
0.779426
0.779481
0.784021
0.799241
0.845896
0.86438
0.864472
0.865298
0.865611
0.865581
0.865528
0.864044
0.86259
0.861626
0.861095
0.861626
0.861702
0.860385
0.858443
0.857847
0.857606
0.85771
0.858299
0.859141
0.859299
0.859045
0.858679
0.858794
0.859464
0.859213
0.856446
0.853321
0.853012
0.853186
0.854756
0.856571
0.856882
0.85693
0.856171
0.854203
0.852573
0.851472
0.849475
0.847058
0.84659
0.846376
0.845746
0.844813
0.844403
0.844582
0.845411
0.846507
0.846758
0.84656
0.84573
0.84402
0.84192
0.840716
0.840506
0.840781
0.841184
0.841233
0.840831
0.839908
0.839656
0.839881
0.8404
0.840454
0.840173
0.839654
0.839512
0.839495
0.839339
0.838746
0.837927
0.837003
0.835815
0.834157
0.832214
0.830312
0.828476
0.826812
0.825354
0.823884
0.822395
0.820836
0.819067
0.816897
0.814257
0.811226
0.808
0.804832
0.801614
0.798721
0.796198
0.793636
0.791
0.788761
0.786378
0.783678
0.78064
0.777044
0.772551
0.773915
0.797552
0.906742
0.906658
0.906481
0.905947
0.905108
0.904283
0.903301
0.902046
0.900254
0.896973
0.894341
0.890913
0.886764
0.88559
0.884951
0.883654
0.881895
0.880311
0.878635
0.877511
0.877101
0.876398
0.876047
0.876159
0.875953
0.874527
0.870051
0.864656
0.864204
0.864398
0.863388
0.863595
0.866075
0.867069
0.866959
0.866823
0.865884
0.864106
0.862414
0.861165
0.860157
0.858614
0.855862
0.852636
0.8503
0.849918
0.849866
0.849112
0.848006
0.846795
0.845104
0.843524
0.843451
0.843806
0.844703
0.845235
0.844897
0.843373
0.841432
0.841061
0.841192
0.841939
0.843239
0.843628
0.843254
0.842678
0.8419
0.840789
0.839344
0.837824
0.836254
0.834516
0.832591
0.830419
0.828062
0.825931
0.824891
0.824207
0.82316
0.821898
0.820614
0.819378
0.817595
0.815217
0.812406
0.809292
0.80601
0.802556
0.799327
0.796539
0.79393
0.791544
0.789657
0.787386
0.784509
0.78112
0.777362
0.7722
0.766395
0.771528
0.942908
0.941482