/*--------------------------------*- C++ -*----------------------------------*\
  =========                 |
  \\      /  F ield         | OpenFOAM: The Open Source CFD Toolbox
   \\    /   O peration     | Website:  https://openfoam.org
    \\  /    A nd           | Version:  7
     \\/     M anipulation  |
\*---------------------------------------------------------------------------*/
FoamFile
{
    version     2.0;
    format      ascii;
    class       volScalarField;
    location    "2.5";
    object      T;
}
// * * * * * * * * * * * * * * * * * * * * * * * * * * * * * * * * * * * * * //

dimensions      [0 0 0 1 0 0 0];

internalField   nonuniform List<scalar> 
90000
(
0.986294
0.98867
0.991459
0.993914
0.996451
0.999576
1.00195
1.00419
1.00646
1.00875
1.01066
1.0124
1.01404
1.0155
1.01694
1.01813
1.01947
1.02056
1.02172
1.023
1.02453
1.02641
1.02844
1.03105
1.03375
1.03694
1.04023
1.04364
1.04671
1.04991
1.05231
1.05494
1.0567
1.05807
1.05945
1.06003
1.06009
1.0603
1.0605
1.06013
1.05901
1.05607
1.05242
1.04923
1.04702
1.04563
1.04583
1.04637
1.04688
1.04768
1.04855
1.04915
1.04972
1.04985
1.04965
1.04873
1.04755
1.04625
1.04525
1.04447
1.04426
1.04464
1.04547
1.04679
1.04784
1.04781
1.04723
1.0463
1.04513
1.04428
1.04432
1.04457
1.04505
1.04503
1.04437
1.04307
1.04133
1.04058
1.03973
1.03962
1.03941
1.03885
1.03822
1.03744
1.03656
1.03623
1.03558
1.03454
1.03347
1.03258
1.03251
1.03231
1.03169
1.03068
1.0299
1.02909
1.02829
1.02737
1.02674
1.02589
0.984296
0.984366
0.9845
0.984708
0.985261
0.986098
0.98695
0.987815
0.988855
0.990091
0.991438
0.992815
0.994255
0.995772
0.997338
0.998851
1.00029
1.0018
1.00321
1.00453
1.00577
1.00699
1.00829
1.00961
1.01114
1.01275
1.0147
1.01681
1.01909
1.02167
1.02429
1.02695
1.02987
1.03248
1.03497
1.03775
1.03972
1.04174
1.04336
1.04447
1.04537
1.04581
1.04627
1.04593
1.04471
1.04276
1.04067
1.03902
1.03758
1.03738
1.03784
1.03855
1.03935
1.04029
1.04121
1.04183
1.04228
1.0419
1.04104
1.03976
1.03863
1.03794
1.03805
1.0385
1.0394
1.04059
1.042
1.04193
1.04125
1.03998
1.03903
1.03862
1.03873
1.03929
1.03948
1.03889
1.03751
1.03603
1.03496
1.0349
1.03535
1.03542
1.03509
1.03424
1.03371
1.03351
1.03309
1.03227
1.03115
1.03082
1.03077
1.03062
1.03013
1.02922
1.02869
1.02805
1.02723
1.02623
1.02578
1.02525
0.983094
0.983085
0.983071
0.983058
0.98304
0.983025
0.983029
0.983046
0.983082
0.983142
0.983233
0.983396
0.983624
0.983929
0.984314
0.984788
0.985327
0.98596
0.986676
0.987453
0.988327
0.989223
0.990217
0.991245
0.992344
0.993527
0.994794
0.99618
0.99777
0.999409
1.00146
1.00355
1.00599
1.00868
1.01147
1.01455
1.01763
1.02088
1.02354
1.0264
1.02865
1.03085
1.03255
1.03371
1.03465
1.03538
1.03613
1.03607
1.03552
1.03448
1.03332
1.03241
1.03184
1.03165
1.03179
1.03213
1.03275
1.03357
1.03447
1.03475
1.03436
1.03335
1.0322
1.03136
1.03153
1.03231
1.03366
1.03486
1.0359
1.03557
1.03438
1.03319
1.03252
1.03266
1.03283
1.03284
1.03226
1.03081
1.02925
1.02931
1.02954
1.02998
1.02994
1.02976
1.02926
1.02891
1.0286
1.02818
1.02779
1.02734
1.02729
1.0272
1.02697
1.02655
1.02591
1.02523
1.02454
1.02382
1.02363
1.02335
0.981369
0.981357
0.981341
0.981323
0.9813
0.981276
0.981254
0.981234
0.981214
0.981199
0.981189
0.981157
0.981122
0.981087
0.981059
0.981051
0.981054
0.981064
0.981089
0.981135
0.981251
0.981434
0.981673
0.981998
0.982386
0.98288
0.983475
0.984179
0.985011
0.985972
0.987122
0.988455
0.990029
0.991814
0.993974
0.996302
0.999181
1.00212
1.00563
1.00905
1.01284
1.01632
1.01984
1.02243
1.02509
1.02712
1.02798
1.02849
1.02906
1.02925
1.02907
1.02864
1.02775
1.02693
1.0262
1.02627
1.02657
1.02713
1.02772
1.02815
1.02863
1.02862
1.02838
1.02778
1.02709
1.02709
1.02743
1.02806
1.02896
1.02964
1.03025
1.02981
1.02879
1.02775
1.02706
1.02714
1.02715
1.02657
1.02501
1.02389
1.02401
1.02433
1.02499
1.02487
1.02437
1.02374
1.02343
1.02336
1.02311
1.02273
1.02263
1.02258
1.02258
1.02242
1.02184
1.02114
1.0207
1.02014
1.02001
1.02001
0.97956
0.979547
0.979535
0.979519
0.979502
0.979488
0.979475
0.979464
0.979451
0.979437
0.979427
0.979409
0.979378
0.979333
0.979294
0.97927
0.979262
0.97926
0.979255
0.979243
0.979205
0.979168
0.979134
0.979124
0.979123
0.979129
0.979151
0.979192
0.979287
0.979445
0.979682
0.980038
0.980522
0.981159
0.982006
0.98304
0.984441
0.986044
0.988271
0.990719
0.993835
0.997392
1.00121
1.00549
1.0096
1.01359
1.01651
1.01929
1.02112
1.02273
1.02372
1.02412
1.02462
1.02532
1.02562
1.0261
1.02609
1.02583
1.02521
1.02468
1.0247
1.02487
1.02521
1.02559
1.0256
1.02535
1.02494
1.02462
1.02477
1.02529
1.02597
1.02643
1.02635
1.02579
1.0247
1.02367
1.02314
1.02259
1.02222
1.02156
1.02075
1.02063
1.02082
1.02122
1.02094
1.02015
1.01927
1.01919
1.01919
1.01898
1.01869
1.01845
1.01842
1.01834
1.01792
1.01727
1.01667
1.01616
1.01606
1.0162
0.978424
0.97841
0.978395
0.978381
0.978368
0.978356
0.978345
0.978335
0.978328
0.978319
0.978308
0.978295
0.97828
0.978258
0.978223
0.978189
0.978166
0.978151
0.97813
0.978098
0.978064
0.978028
0.97799
0.977966
0.977953
0.977945
0.97793
0.977921
0.977891
0.977851
0.977823
0.977808
0.977812
0.977828
0.977884
0.978
0.978214
0.978561
0.979099
0.979906
0.981018
0.982622
0.984647
0.987575
0.9909
0.995121
0.999814
1.00467
1.00915
1.01375
1.01728
1.01992
1.0224
1.0237
1.02391
1.02425
1.02442
1.02424
1.02378
1.02317
1.02317
1.02353
1.02398
1.02436
1.02431
1.0241
1.02378
1.02346
1.02342
1.02359
1.02377
1.02426
1.02425
1.02397
1.02336
1.02233
1.0212
1.02028
1.0199
1.01957
1.01943
1.0191
1.01863
1.01867
1.01865
1.01815
1.01713
1.01646
1.01642
1.01632
1.01603
1.01568
1.01564
1.01546
1.01492
1.01421
1.01369
1.0131
1.01274
1.01277
0.977801
0.977794
0.977787
0.977775
0.977762
0.97775
0.977739
0.977727
0.977717
0.977708
0.977697
0.977685
0.977672
0.977657
0.977635
0.977606
0.977581
0.977564
0.97755
0.977533
0.977511
0.977483
0.977455
0.977429
0.977408
0.977391
0.977374
0.977351
0.977318
0.977283
0.977246
0.977216
0.977191
0.977175
0.977143
0.977102
0.977088
0.977082
0.977085
0.977107
0.97719
0.977375
0.977747
0.978337
0.979361
0.980842
0.983215
0.986165
0.990508
0.995143
1.00036
1.00605
1.0105
1.01497
1.01727
1.0195
1.02094
1.02141
1.02219
1.02288
1.02372
1.02424
1.02419
1.02406
1.02365
1.02337
1.02325
1.02331
1.02347
1.02346
1.02336
1.02314
1.02301
1.02272
1.02231
1.02175
1.02077
1.01965
1.01859
1.01831
1.0183
1.01825
1.01808
1.01764
1.01724
1.01694
1.01637
1.01554
1.01488
1.0147
1.01444
1.01411
1.01391
1.01385
1.01353
1.01271
1.01184
1.01128
1.01076
1.0105
0.977545
0.977535
0.977523
0.977512
0.977494
0.977474
0.977459
0.977445
0.977432
0.97742
0.977408
0.977395
0.977382
0.977365
0.97735
0.977329
0.977298
0.97728
0.977276
0.977267
0.977249
0.97723
0.977212
0.977192
0.977175
0.97716
0.977143
0.977129
0.977113
0.977088
0.977055
0.977018
0.976984
0.97695
0.97691
0.976872
0.976835
0.976804
0.976778
0.976745
0.976682
0.97664
0.976634
0.976646
0.976705
0.97685
0.977189
0.977786
0.978931
0.980648
0.98354
0.98736
0.992226
0.997951
1.00409
1.00956
1.01389
1.01806
1.02151
1.02249
1.02334
1.02376
1.02365
1.02299
1.02274
1.02293
1.0233
1.02384
1.02391
1.02372
1.02325
1.02281
1.02239
1.02193
1.02177
1.02134
1.02051
1.01936
1.01813
1.01788
1.01769
1.01774
1.01755
1.01717
1.01662
1.01631
1.01595
1.01535
1.01447
1.01394
1.01371
1.01343
1.01308
1.01285
1.01259
1.01207
1.011
1.01029
1.0097
1.00921
0.97746
0.977447
0.977431
0.977415
0.977397
0.977378
0.977356
0.977338
0.977325
0.977312
0.977299
0.977285
0.977269
0.977254
0.977239
0.977226
0.977204
0.977179
0.977167
0.977159
0.97715
0.977137
0.977119
0.977093
0.977069
0.977049
0.977031
0.977014
0.976995
0.97697
0.97694
0.976909
0.976883
0.976855
0.976816
0.976772
0.976735
0.976705
0.976669
0.976621
0.976557
0.97649
0.976432
0.97643
0.976436
0.976454
0.97648
0.97652
0.9766
0.976752
0.977154
0.977888
0.979472
0.981834
0.985846
0.990742
0.996994
1.00292
1.00895
1.01343
1.01739
1.0194
1.02077
1.02129
1.02286
1.02371
1.02428
1.02438
1.02425
1.02385
1.02338
1.02282
1.02231
1.02201
1.02152
1.02094
1.02012
1.01883
1.01805
1.0178
1.01763
1.01746
1.01718
1.01685
1.01646
1.01611
1.01568
1.01514
1.01438
1.0137
1.01346
1.01323
1.01285
1.01239
1.01202
1.01149
1.01071
1.00993
1.00926
1.00861
0.977491
0.977477
0.977463
0.977449
0.977434
0.977418
0.977399
0.97738
0.977362
0.977345
0.977328
0.97731
0.97729
0.977265
0.97724
0.977221
0.977198
0.977169
0.977143
0.977125
0.97711
0.977093
0.977066
0.977032
0.977
0.976975
0.97695
0.976925
0.976904
0.976884
0.976861
0.976843
0.976827
0.976806
0.976778
0.976745
0.976718
0.976693
0.97666
0.976616
0.976564
0.976502
0.976435
0.97641
0.976412
0.976426
0.976443
0.976468
0.976513
0.976612
0.976648
0.976688
0.976784
0.977037
0.977689
0.978947
0.981461
0.985317
0.990632
0.997275
1.00387
1.00985
1.01569
1.0194
1.02224
1.02309
1.02383
1.02365
1.02301
1.02296
1.02313
1.0231
1.02286
1.02225
1.02142
1.02048
1.01945
1.01838
1.01811
1.01779
1.01747
1.0171
1.01681
1.01667
1.01648
1.01613
1.01554
1.0149
1.01429
1.01371
1.01334
1.01304
1.01268
1.01219
1.01165
1.01105
1.01051
1.00992
1.00913
1.00833
0.977357
0.977345
0.977333
0.97732
0.977305
0.977288
0.977273
0.977258
0.977244
0.977231
0.977217
0.977204
0.977189
0.977173
0.977157
0.977142
0.977124
0.977103
0.977083
0.977064
0.97705
0.977035
0.977017
0.976984
0.976957
0.976937
0.976917
0.9769
0.976875
0.976846
0.976836
0.976836
0.976832
0.97682
0.976805
0.976791
0.976773
0.976749
0.976719
0.976682
0.976642
0.976589
0.976526
0.976488
0.976482
0.976474
0.976461
0.976462
0.976476
0.976509
0.97655
0.976608
0.976723
0.976739
0.976734
0.976764
0.976918
0.977524
0.978843
0.981665
0.985782
0.991833
0.998633
1.00526
1.01184
1.01513
1.01877
1.01975
1.02094
1.02263
1.0237
1.02362
1.02317
1.02221
1.02083
1.01987
1.01885
1.01851
1.018
1.01758
1.01702
1.0167
1.01668
1.01656
1.01636
1.01597
1.01535
1.01467
1.01422
1.01373
1.01325
1.01284
1.0125
1.01203
1.0115
1.01074
1.01027
1.00982
1.00914
1.00821
0.977118
0.977107
0.977098
0.977089
0.977078
0.977069
0.977061
0.977052
0.977042
0.977031
0.97702
0.977011
0.977005
0.977001
0.976999
0.976995
0.976988
0.976976
0.97696
0.976948
0.976942
0.976937
0.976928
0.976911
0.9769
0.976893
0.976882
0.976862
0.97684
0.976825
0.976822
0.976823
0.97682
0.976812
0.976803
0.976794
0.976783
0.976766
0.97674
0.976708
0.976672
0.97662
0.976552
0.976499
0.976466
0.976439
0.976419
0.976418
0.976422
0.976429
0.976443
0.97647
0.976533
0.976607
0.97665
0.976673
0.976673
0.976592
0.976601
0.976813
0.977502
0.979318
0.982311
0.987799
0.993979
1.0015
1.00872
1.01403
1.01918
1.0215
1.02269
1.0227
1.02196
1.02066
1.02001
1.01955
1.01908
1.01833
1.01762
1.01673
1.01634
1.01643
1.01641
1.01631
1.01604
1.01562
1.01508
1.01455
1.01406
1.01355
1.01303
1.01261
1.01231
1.01186
1.01125
1.01046
1.00994
1.00958
1.00894
1.00809
0.976729
0.976717
0.976708
0.976698
0.976688
0.976681
0.976675
0.976669
0.97666
0.976649
0.97664
0.976634
0.976629
0.976624
0.976627
0.976628
0.976626
0.976619
0.976615
0.976614
0.976616
0.97662
0.976622
0.976626
0.976631
0.976637
0.976645
0.976649
0.976655
0.976666
0.976682
0.976704
0.976725
0.976743
0.976764
0.976785
0.976791
0.976791
0.976786
0.976766
0.976732
0.976682
0.976617
0.976556
0.976507
0.976465
0.976442
0.976435
0.976428
0.976413
0.976394
0.976389
0.976408
0.97647
0.976524
0.976529
0.976516
0.976479
0.976421
0.976304
0.976258
0.976326
0.976682
0.977856
0.980042
0.984656
0.990157
0.997606
1.00505
1.01047
1.01469
1.01795
1.0186
1.01977
1.0203
1.0199
1.01907
1.01769
1.01651
1.01584
1.01599
1.01611
1.01598
1.01583
1.01552
1.01506
1.01478
1.01439
1.01381
1.01321
1.01269
1.01239
1.01209
1.01162
1.01088
1.01009
1.00967
1.00931
1.00858
1.00786
0.976254
0.976249
0.976245
0.976235
0.976227
0.976222
0.976218
0.97621
0.976203
0.976198
0.976193
0.976187
0.976179
0.976168
0.976165
0.976164
0.976162
0.976156
0.976155
0.976155
0.976157
0.976163
0.976172
0.976185
0.9762
0.976216
0.976234
0.976259
0.976292
0.976328
0.976368
0.976409
0.976448
0.976483
0.97652
0.976561
0.976598
0.976629
0.976655
0.976671
0.976671
0.976659
0.976628
0.976587
0.976544
0.976507
0.976475
0.976439
0.976402
0.976366
0.976325
0.976298
0.976302
0.976325
0.976356
0.976357
0.97633
0.976268
0.976187
0.976093
0.975979
0.975896
0.97588
0.975922
0.976139
0.976919
0.978496
0.982148
0.987185
0.9945
1.00232
1.00934
1.01456
1.01846
1.01895
1.01875
1.0176
1.01571
1.01528
1.01537
1.01561
1.01558
1.01537
1.01502
1.01473
1.01456
1.01435
1.01391
1.0133
1.01268
1.01238
1.01215
1.01176
1.01121
1.01042
1.00966
1.00929
1.00888
1.00816
1.00752
0.975958
0.975959
0.975959
0.97596
0.975962
0.975962
0.975961
0.975961
0.975962
0.975962
0.975958
0.975953
0.975948
0.975943
0.975935
0.975926
0.975916
0.975906
0.975894
0.975885
0.975883
0.975883
0.975883
0.975883
0.975886
0.975894
0.975906
0.975924
0.975945
0.975971
0.976003
0.976038
0.976072
0.976105
0.976143
0.976186
0.976226
0.976262
0.976298
0.976338
0.976375
0.97639
0.976394
0.976393
0.976388
0.976379
0.976364
0.976337
0.976302
0.976261
0.976226
0.976223
0.976219
0.976197
0.976175
0.976166
0.97614
0.97609
0.97602
0.975925
0.975805
0.975674
0.975567
0.975549
0.975558
0.9756
0.975703
0.97615
0.977285
0.980179
0.985016
0.991658
0.999284
1.00663
1.00977
1.01332
1.01345
1.01437
1.01515
1.01545
1.01526
1.01472
1.01426
1.01415
1.01422
1.01416
1.01386
1.01331
1.01266
1.01224
1.01205
1.0118
1.01136
1.01076
1.00998
1.00924
1.00881
1.00835
1.00761
1.00705
0.975637
0.975642
0.975647
0.975653
0.97566
0.975666
0.975667
0.975667
0.975668
0.975674
0.97568
0.97568
0.975676
0.975674
0.975674
0.975671
0.97566
0.975642
0.975626
0.97561
0.975594
0.97558
0.975571
0.975562
0.97555
0.975546
0.975549
0.975556
0.975566
0.975582
0.975605
0.97563
0.975652
0.975675
0.975705
0.975732
0.975755
0.975777
0.975804
0.975835
0.975869
0.975908
0.975939
0.975968
0.975994
0.97599
0.975979
0.975968
0.975955
0.975928
0.975902
0.975896
0.975897
0.975891
0.975874
0.975859
0.97584
0.975811
0.975777
0.975727
0.975649
0.975528
0.975387
0.975285
0.975243
0.975238
0.975272
0.97525
0.975198
0.975393
0.976272
0.978368
0.98289
0.988836
0.996461
1.00407
1.00886
1.01296
1.01368
1.0143
1.01379
1.01293
1.01315
1.0137
1.01371
1.01355
1.01316
1.0126
1.01221
1.01188
1.01157
1.01119
1.01078
1.01031
1.00962
1.00883
1.00828
1.00775
1.00702
1.00652
0.975267
0.975268
0.975271
0.975279
0.975294
0.975309
0.975311
0.97531
0.97531
0.975315
0.975334
0.975334
0.975333
0.975338
0.975338
0.975331
0.975321
0.975313
0.975308
0.9753
0.975288
0.975275
0.975266
0.975261
0.975255
0.97525
0.975252
0.975253
0.975255
0.975262
0.975278
0.97528
0.975278
0.975279
0.975284
0.97528
0.975274
0.975275
0.975282
0.975299
0.975329
0.975373
0.975414
0.975449
0.975483
0.975487
0.975484
0.975481
0.975473
0.975458
0.975434
0.975404
0.975377
0.975362
0.975358
0.975362
0.97538
0.975421
0.975474
0.975497
0.975484
0.975427
0.975315
0.97516
0.975042
0.974969
0.974928
0.974858
0.974809
0.974676
0.974451
0.974249
0.974725
0.97627
0.980504
0.9859
0.993331
1.00081
1.00438
1.00852
1.00981
1.01166
1.01362
1.01349
1.01312
1.01253
1.0122
1.01208
1.01192
1.0115
1.01102
1.01054
1.01022
1.00984
1.00927
1.00849
1.00778
1.00716
1.00644
1.00596
0.975015
0.975008
0.975007
0.975009
0.975022
0.975033
0.975034
0.975032
0.975028
0.975028
0.975034
0.975038
0.975035
0.97503
0.975029
0.975024
0.975006
0.974998
0.974999
0.974997
0.974988
0.974988
0.97499
0.97499
0.974989
0.974989
0.974997
0.975
0.974997
0.974991
0.974986
0.974979
0.974967
0.974947
0.974925
0.974898
0.974862
0.974826
0.974808
0.974808
0.974818
0.974843
0.974875
0.974902
0.974914
0.974912
0.974911
0.974909
0.974893
0.974884
0.974892
0.974902
0.974897
0.974871
0.974836
0.974822
0.974837
0.974893
0.974985
0.97507
0.975115
0.975115
0.975071
0.975005
0.974913
0.974822
0.974738
0.974657
0.974537
0.974359
0.974076
0.973653
0.973118
0.972393
0.972749
0.973976
0.977877
0.983332
0.991165
0.999002
1.00546
1.01005
1.01225
1.01218
1.01096
1.01114
1.01142
1.01178
1.01147
1.01095
1.01035
1.01002
1.00984
1.00944
1.00882
1.00811
1.00737
1.00669
1.00594
1.00544
0.974839
0.974828
0.974822
0.97482
0.974819
0.974822
0.974829
0.974832
0.974834
0.974832
0.974824
0.974816
0.974814
0.974815
0.974819
0.974817
0.974794
0.974773
0.974766
0.974757
0.974744
0.97474
0.974746
0.974751
0.97475
0.974751
0.97476
0.974764
0.974759
0.974747
0.974726
0.974702
0.974678
0.974651
0.974614
0.974569
0.974527
0.974488
0.974453
0.974428
0.974424
0.974428
0.974437
0.974441
0.974441
0.974437
0.974428
0.974412
0.974404
0.97441
0.974451
0.974526
0.974556
0.974552
0.974508
0.974432
0.974411
0.974436
0.974513
0.974593
0.974639
0.974664
0.974687
0.974682
0.974649
0.974569
0.974509
0.974471
0.974401
0.974241
0.973915
0.973459
0.972814
0.972127
0.971339
0.97028
0.970438
0.97152
0.975434
0.981512
0.989512
0.997998
1.00297
1.00697
1.00858
1.01139
1.01176
1.0115
1.01073
1.01
1.00973
1.00978
1.00957
1.00906
1.00837
1.00763
1.00696
1.00631
1.00554
1.00501
0.974641
0.974638
0.974636
0.974634
0.974632
0.974631
0.974626
0.97462
0.974615
0.974614
0.974609
0.974593
0.974584
0.974582
0.974579
0.974572
0.974559
0.974539
0.974522
0.974509
0.974504
0.974506
0.974511
0.97451
0.974508
0.9745
0.974499
0.974499
0.974495
0.974487
0.974469
0.974456
0.97445
0.974438
0.974409
0.974371
0.974343
0.974323
0.974303
0.974283
0.974265
0.974249
0.974235
0.974228
0.974217
0.974187
0.974155
0.974131
0.974125
0.974133
0.97418
0.974258
0.974294
0.974288
0.97425
0.974194
0.974152
0.974152
0.974161
0.974165
0.974177
0.97422
0.974284
0.974299
0.974289
0.974238
0.974161
0.974131
0.974098
0.973995
0.973746
0.973337
0.972728
0.971959
0.971029
0.970078
0.969138
0.967886
0.968084
0.969351
0.973872
0.980912
0.98964
0.999601
1.00616
1.01061
1.0106
1.00983
1.00909
1.00922
1.00967
1.00959
1.00924
1.00864
1.00787
1.00714
1.0066
1.00592
1.00518
1.00469
0.974352
0.97434
0.974329
0.974318
0.974308
0.974297
0.974284
0.974269
0.974251
0.974231
0.97421
0.974191
0.974177
0.974168
0.974156
0.974142
0.974126
0.97411
0.974095
0.974081
0.974081
0.974089
0.974093
0.974095
0.974101
0.974114
0.974132
0.97416
0.974201
0.974224
0.974229
0.974233
0.974243
0.97426
0.974276
0.974278
0.974265
0.974256
0.974262
0.974263
0.974257
0.974235
0.974209
0.974181
0.974135
0.974065
0.974001
0.973977
0.973978
0.973997
0.974035
0.97406
0.974086
0.974084
0.974052
0.974027
0.974019
0.973996
0.973942
0.97388
0.973846
0.973853
0.973908
0.973988
0.974002
0.973985
0.973905
0.973842
0.973786
0.973662
0.973416
0.973044
0.972511
0.971799
0.970901
0.96993
0.968876
0.967841
0.966797
0.965647
0.966114
0.967796
0.973314
0.981641
0.990781
1.00088
1.00377
1.00616
1.00816
1.00973
1.00959
1.00923
1.00863
1.0081
1.00753
1.00698
1.00634
1.00553
1.00484
1.00444
0.974082
0.97407
0.974059
0.974049
0.974037
0.974022
0.974003
0.973982
0.973959
0.973935
0.973908
0.973877
0.973843
0.973809
0.97378
0.973758
0.973746
0.97374
0.973735
0.97373
0.973727
0.973724
0.973725
0.973734
0.973755
0.973781
0.973805
0.973828
0.973858
0.973902
0.97393
0.97394
0.973958
0.973994
0.974028
0.974048
0.974065
0.974096
0.974148
0.974194
0.974211
0.974212
0.974204
0.974173
0.974107
0.97402
0.973936
0.973901
0.973921
0.973988
0.97402
0.974014
0.974016
0.974015
0.973994
0.973992
0.973999
0.973992
0.97391
0.973773
0.973703
0.973696
0.97373
0.973803
0.973823
0.97381
0.97375
0.973671
0.97356
0.973382
0.973114
0.972755
0.972224
0.971527
0.970624
0.96972
0.968773
0.967799
0.966677
0.9657
0.964502
0.963908
0.964679
0.96717
0.97429
0.983512
0.993526
1.00361
1.00677
1.00887
1.0085
1.00756
1.00765
1.00761
1.00734
1.00671
1.00602
1.00508
1.00459
1.00425
0.973919
0.973917
0.973919
0.973921
0.97392
0.973907
0.97389
0.973873
0.973857
0.973843
0.973828
0.973809
0.973785
0.973759
0.973734
0.973711
0.973693
0.973684
0.973679
0.973666
0.973638
0.973622
0.973626
0.973645
0.973672
0.973697
0.97371
0.973707
0.973698
0.973692
0.973695
0.973698
0.973708
0.97374
0.973778
0.9738
0.973826
0.973879
0.973954
0.974033
0.974105
0.97414
0.974136
0.974103
0.974023
0.973944
0.973878
0.973834
0.973855
0.973884
0.973875
0.973844
0.973829
0.973846
0.973892
0.973982
0.974029
0.974034
0.973985
0.973822
0.973715
0.973704
0.973717
0.973743
0.973742
0.973711
0.973635
0.973543
0.973416
0.973197
0.972878
0.972467
0.971901
0.971208
0.97035
0.969483
0.968615
0.96773
0.966788
0.965829
0.964671
0.96363
0.962388
0.962443
0.963736
0.967271
0.975983
0.985976
0.994435
1.00155
1.0039
1.00605
1.00803
1.0078
1.0071
1.00617
1.0056
1.0049
1.00453
1.00408
0.974001
0.973967
0.973943
0.97394
0.973955
0.973962
0.973952
0.97394
0.97393
0.973915
0.973893
0.973881
0.973872
0.973862
0.97385
0.973838
0.97383
0.973823
0.973813
0.973796
0.973763
0.973726
0.973729
0.973754
0.97376
0.973744
0.973722
0.97371
0.973684
0.973632
0.973567
0.973542
0.973546
0.973564
0.973577
0.973588
0.973626
0.97371
0.973803
0.97388
0.973946
0.973969
0.973953
0.973868
0.973797
0.973795
0.973799
0.973785
0.973773
0.973768
0.973723
0.973665
0.973647
0.973667
0.973726
0.973847
0.973986
0.97402
0.974009
0.973925
0.973808
0.973762
0.973757
0.973756
0.973741
0.973685
0.97359
0.973487
0.973337
0.973077
0.972718
0.972253
0.971661
0.97094
0.970131
0.969292
0.968467
0.967649
0.96683
0.965975
0.964985
0.963826
0.962706
0.961703
0.960828
0.961099
0.963288
0.968365
0.978279
0.988296
0.998866
1.00458
1.00731
1.00691
1.00539
1.00521
1.00512
1.00485
1.0044
1.00388
0.974014
0.974006
0.973981
0.973933
0.973913
0.973908
0.97391
0.973929
0.973946
0.97394
0.973912
0.973887
0.97388
0.973881
0.973884
0.973884
0.973883
0.973884
0.973884
0.973882
0.973882
0.973877
0.973884
0.973907
0.973909
0.973873
0.973828
0.973819
0.973779
0.97367
0.973548
0.973483
0.97348
0.973489
0.973486
0.973489
0.973562
0.973642
0.973677
0.973725
0.973802
0.973827
0.973788
0.973687
0.973674
0.97372
0.973736
0.97374
0.973787
0.973818
0.973772
0.9737
0.973673
0.97367
0.973688
0.973774
0.973899
0.973959
0.973963
0.973928
0.973848
0.973789
0.97377
0.973754
0.97372
0.973654
0.973578
0.973491
0.973331
0.973025
0.97262
0.972148
0.971564
0.970841
0.970047
0.969208
0.968416
0.967624
0.966853
0.966047
0.96513
0.964036
0.962963
0.961772
0.960828
0.959859
0.959634
0.960394
0.963464
0.970568
0.980856
0.990862
0.999032
1.00173
1.00353
1.00562
1.00541
1.00466
1.00394
1.00364
0.973698
0.973686
0.973656
0.97365
0.973647
0.973648
0.973659
0.973688
0.973718
0.97374
0.973743
0.973742
0.973745
0.973753
0.973753
0.973747
0.973737
0.973737
0.973744
0.973744
0.973749
0.973752
0.973746
0.973745
0.973743
0.973697
0.973559
0.973521
0.973538
0.973524
0.973458
0.973443
0.973484
0.973544
0.973568
0.973611
0.973659
0.97364
0.973599
0.973611
0.973684
0.973735
0.973722
0.973699
0.973727
0.973788
0.973803
0.973829
0.973887
0.97391
0.973864
0.973836
0.973816
0.973766
0.973729
0.973754
0.973801
0.973833
0.973851
0.973828
0.973751
0.973718
0.973725
0.97372
0.973659
0.973558
0.973489
0.973414
0.973247
0.972953
0.972576
0.972128
0.97156
0.970842
0.970053
0.969213
0.968394
0.967619
0.966859
0.966082
0.965212
0.964187
0.96311
0.96194
0.960909
0.960042
0.95934
0.958465
0.958608
0.959981
0.964363
0.973633
0.983839
0.995478
1.00185
1.00507
1.00458
1.0028
1.00307
1.00321
0.97295
0.972943
0.972947
0.972969
0.973012
0.973116
0.973236
0.973272
0.973263
0.97323
0.973225
0.973246
0.973274
0.973275
0.973274
0.973271
0.973273
0.973282
0.973313
0.973379
0.973408
0.973402
0.973392
0.973414
0.973446
0.973449
0.973429
0.973363
0.973346
0.973362
0.973402
0.973476
0.973615
0.973805
0.973954
0.974005
0.973987
0.973932
0.973878
0.973846
0.973831
0.973791
0.973773
0.973785
0.973779
0.973817
0.973871
0.973888
0.973884
0.97389
0.973913
0.973936
0.973921
0.973857
0.973808
0.973744
0.973657
0.973659
0.973675
0.973669
0.97367
0.973704
0.973729
0.973724
0.973665
0.973554
0.973482
0.973402
0.973217
0.972905
0.972543
0.972119
0.971562
0.970845
0.970035
0.96919
0.968365
0.967629
0.96692
0.966172
0.965335
0.964363
0.963288
0.962143
0.961112
0.960232
0.959408
0.95864
0.957815
0.957073
0.957634
0.960033
0.966677
0.977011
0.98697
0.996533
0.998625
1.0008
1.00362
1.00331
0.972294
0.972338
0.972406
0.972471
0.972544
0.972635
0.972658
0.972666
0.972694
0.97276
0.972776
0.972761
0.972726
0.972718
0.972717
0.972703
0.972699
0.9727
0.972744
0.972809
0.972831
0.972851
0.972914
0.972963
0.973014
0.973082
0.973171
0.973219
0.973244
0.973279
0.973338
0.973422
0.973576
0.97376
0.973867
0.973903
0.973883
0.973828
0.973782
0.973767
0.973757
0.973736
0.973713
0.973616
0.973581
0.973633
0.973697
0.973703
0.973712
0.973746
0.973791
0.97379
0.973758
0.97367
0.973561
0.973529
0.97354
0.973587
0.973593
0.973594
0.973629
0.973734
0.973794
0.973792
0.973731
0.973638
0.973574
0.973466
0.973228
0.972874
0.972485
0.972037
0.971466
0.970752
0.969925
0.969023
0.968181
0.967573
0.967019
0.966368
0.965571
0.964629
0.963569
0.962462
0.961342
0.960344
0.959403
0.958661
0.957829
0.957006
0.956138
0.956219
0.957366
0.96104
0.969725
0.980272
0.99094
0.99952
1.00252
1.00197
0.973289
0.97329
0.97329
0.973288
0.973272
0.973239
0.973195
0.973149
0.973129
0.973172
0.973216
0.973214
0.973197
0.97318
0.97317
0.973157
0.973122
0.973055
0.972992
0.972963
0.972923
0.972899
0.972913
0.972953
0.972933
0.972855
0.972699
0.972646
0.972656
0.972705
0.972711
0.972694
0.972722
0.972831
0.972934
0.973024
0.973118
0.973183
0.973205
0.973208
0.973201
0.973128
0.972914
0.972754
0.972746
0.972809
0.97294
0.973105
0.973337
0.97342
0.973407
0.973331
0.97317
0.973115
0.973173
0.973354
0.973565
0.973722
0.973757
0.973772
0.973829
0.973891
0.973897
0.973877
0.973776
0.973663
0.973591
0.97347
0.973177
0.972742
0.972275
0.971758
0.971164
0.970505
0.969742
0.968885
0.968086
0.96756
0.967119
0.966583
0.965876
0.964973
0.963912
0.962766
0.961568
0.960449
0.959459
0.958642
0.957889
0.957159
0.956414
0.955841
0.95494
0.955234
0.957132
0.962662
0.973064
0.98431
0.991613
0.997696
0.973231
0.973037
0.97291
0.972751
0.972417
0.972312
0.972342
0.972347
0.972277
0.972289
0.972411
0.972569
0.972719
0.972838
0.972891
0.972946
0.972978
0.972979
0.972956
0.972889
0.972728
0.97253
0.972472
0.972477
0.972502
0.972437
0.972146
0.972048
0.972061
0.9721
0.972083
0.97201
0.971831
0.971586
0.971497
0.97154
0.971737
0.972214
0.972441
0.97245
0.972444
0.972396
0.972239
0.97214
0.972154
0.972219
0.972371
0.972718
0.973147
0.973191
0.973169
0.97298
0.972661
0.972588
0.972673
0.972964
0.973325
0.973646
0.973773
0.973803
0.973897
0.97394
0.973897
0.973654
0.973458
0.973424
0.973399
0.973278
0.972949
0.972489
0.972006
0.971488
0.970925
0.970311
0.969595
0.968799
0.968079
0.967597
0.967193
0.96671
0.966071
0.965234
0.964218
0.963052
0.961857
0.960683
0.95963
0.958748
0.958102
0.957416
0.95664
0.955848
0.95504
0.954081
0.953312
0.954007
0.957648
0.965431
0.976737
0.99229
0.973477
0.973208
0.973019
0.972999
0.973047
0.973105
0.973082
0.973028
0.973038
0.973121
0.973371
0.973574
0.973693
0.973794
0.973848
0.973901
0.974021
0.974119
0.974112
0.974101
0.974042
0.973859
0.973786
0.973694
0.973421
0.97296
0.972703
0.972706
0.972721
0.973021
0.973172
0.973137
0.9729
0.972433
0.972084
0.972115
0.972375
0.972794
0.972933
0.972854
0.972731
0.972635
0.972633
0.972715
0.972909
0.973202
0.973619
0.974014
0.974097
0.974068
0.97387
0.973377
0.97287
0.972747
0.972793
0.972902
0.973041
0.973173
0.973212
0.973252
0.973318
0.97332
0.973162
0.972824
0.972706
0.972711
0.97277
0.972741
0.972549
0.972244
0.971887
0.971438
0.970875
0.97023
0.96952
0.9688
0.968157
0.967671
0.967236
0.966738
0.966155
0.965428
0.964503
0.963409
0.962259
0.961119
0.960117
0.95921
0.958401
0.957619
0.95678
0.955872
0.955066
0.954102
0.953151
0.951877
0.951946
0.953583
0.958849
0.974548
0.980378
0.98041
0.98069
0.980813
0.980807
0.980794
0.980313
0.979871
0.979602
0.979443
0.979621
0.979651
0.979253
0.978684
0.978399
0.978227
0.97824
0.978389
0.978595
0.978606
0.978513
0.97838
0.978419
0.978649
0.978564
0.977628
0.976771
0.976779
0.976875
0.977476
0.97801
0.978006
0.977998
0.977703
0.97701
0.976491
0.976177
0.975592
0.974871
0.974724
0.974642
0.974402
0.974038
0.973876
0.97394
0.974248
0.974645
0.974716
0.974646
0.974366
0.973823
0.973176
0.97274
0.972632
0.972711
0.972852
0.972888
0.972774
0.972485
0.972392
0.97246
0.972624
0.972643
0.972556
0.97239
0.972334
0.972323
0.972266
0.972064
0.971793
0.971487
0.971087
0.970528
0.969879
0.969252
0.968648
0.968097
0.967611
0.967119
0.966618
0.96609
0.965491
0.964755
0.963861
0.962833
0.961736
0.960657
0.95956
0.958571
0.957702
0.956816
0.955905
0.95513
0.954305
0.953374
0.952308
0.951077
0.949542
0.949927
0.957814
0.993754
0.993732
0.993694
0.993559
0.99334
0.993136
0.99289
0.992559
0.992062
0.991082
0.990259
0.989156
0.987789
0.987367
0.98714
0.986712
0.986147
0.985638
0.985082
0.98467
0.984488
0.984208
0.984071
0.984107
0.984045
0.983607
0.982225
0.98054
0.980394
0.980452
0.980109
0.980158
0.9809
0.981158
0.981113
0.981072
0.980794
0.980285
0.979834
0.979502
0.979201
0.978685
0.977721
0.976589
0.975829
0.975735
0.975734
0.975509
0.975145
0.974724
0.974155
0.973659
0.973641
0.973748
0.974019
0.974188
0.974086
0.973619
0.972994
0.972849
0.972884
0.973111
0.973531
0.973668
0.973554
0.973368
0.973102
0.972719
0.972234
0.971732
0.971217
0.970636
0.969986
0.969258
0.968482
0.967784
0.967442
0.967214
0.966863
0.966437
0.965999
0.965573
0.964966
0.964161
0.963213
0.962162
0.961048
0.95987
0.958762
0.9578
0.956895
0.956067
0.955413
0.954629
0.953642
0.952474
0.951158
0.949423
0.947221
0.948469
1.00493
1.00451
1.00421
1.00419
1.0042
1.00425
1.0047
1.00538
1.00525
1.00444
1.00341
1.00232
1.00137
1.00099
1.0011
1.00115
1.00085
1.00028
1.00033
1.00036
1.00001
0.999932
0.999886
0.99971
0.999772
1.00003
0.99965
0.997951
0.995422
0.993682
0.992906
0.992816
0.992798
0.992195
0.990336
0.989377
0.989392
0.989656
0.989237
0.988439
0.988575
0.98874
0.988309
0.987023
0.985399
0.984573
0.984448
0.984094
0.983032
0.981834
0.980435
0.97977
0.979846
0.979492
0.978885
0.978932
0.97914
0.978904
0.977488
0.9759
0.975356
0.975418
0.975562
0.975417
0.974859
0.974138
0.9734
0.972607
0.971892
0.971288
0.970631
0.970051
0.96951
0.968816
0.968066
0.967445
0.967132
0.967003
0.966941
0.966693
0.966213
0.96563
0.964923
0.964102
0.963151
0.962096
0.960987
0.959889
0.958821
0.957935
0.95726
0.956507
0.95575
0.954831
0.953741
0.952538
0.951213
0.94964
0.947427
0.945437
1.02581
1.02574
1.02551
1.0253
1.02493
1.0242
1.02361
1.02313