/*--------------------------------*- C++ -*----------------------------------*\
  =========                 |
  \\      /  F ield         | OpenFOAM: The Open Source CFD Toolbox
   \\    /   O peration     | Website:  https://openfoam.org
    \\  /    A nd           | Version:  7
     \\/     M anipulation  |
\*---------------------------------------------------------------------------*/
FoamFile
{
    version     2.0;
    format      ascii;
    class       volVectorField;
    location    "0.01";
    object      U;
}
// * * * * * * * * * * * * * * * * * * * * * * * * * * * * * * * * * * * * * //

dimensions      [0 1 -1 0 0 0 0];

internalField   nonuniform List<vector> 
12000
(
(1.05669 0.221575 0)
(1.88002 -0.709573 0)
(2.44973 -0.621772 0)
(2.76476 -0.314364 0)
(2.93573 -0.0914089 0)
(2.99597 -0.00929842 0)
(3.00161 -0.000125223 0)
(3.0011 0.000149817 0)
(3.00021 8.67751e-05 0)
(3.00001 4.1948e-06 0)
(3 -1.25815e-08 0)
(3 -1.75131e-08 0)
(3 -2.98006e-09 0)
(3 -3.86145e-11 0)
(3 2.13248e-13 0)
(3 1.10797e-13 0)
(3 5.29255e-15 0)
(3 2.75035e-16 0)
(3 1.76671e-16 0)
(3 4.55902e-17 0)
(3 1.97411e-17 0)
(3 -1.71026e-16 0)
(3 2.66539e-16 0)
(3 7.56747e-17 0)
(3 -9.94225e-17 0)
(3 -1.57913e-16 0)
(3 -5.92948e-17 0)
(3 2.32458e-18 0)
(3 1.05718e-16 0)
(3 3.14323e-16 0)
(3 2.41645e-16 0)
(3 3.61892e-16 0)
(3 5.15654e-16 0)
(3 -2.02577e-17 0)
(3 -7.73963e-16 0)
(3 -3.86687e-16 0)
(3 7.26716e-18 0)
(3 2.31526e-16 0)
(3 3.75764e-16 0)
(3 1.87727e-16 0)
(1.15022 0.200838 0)
(1.96446 -0.620006 0)
(2.59261 -0.833483 0)
(2.83944 -0.411293 0)
(2.95513 -0.0987401 0)
(2.99789 -0.00819458 0)
(3.00119 -0.000181563 0)
(3.00068 7.70983e-05 0)
(3.00008 4.18511e-05 0)
(3 1.08373e-06 0)
(3 -4.82796e-08 0)
(3 -2.43528e-08 0)
(3 -1.55547e-09 0)
(3 -5.24324e-12 0)
(3 4.25527e-13 0)
(3 1.02183e-13 0)
(3 1.81215e-15 0)
(3 6.19321e-16 0)
(3 9.74934e-16 0)
(3 5.14935e-16 0)
(3 -1.04425e-16 0)
(3 -2.71226e-17 0)
(3 -3.01481e-16 0)
(3 -5.69107e-17 0)
(3 -1.89593e-16 0)
(3 -1.32608e-16 0)
(3 -5.06426e-16 0)
(3 -3.14029e-16 0)
(3 -4.87553e-16 0)
(3 1.18054e-17 0)
(3 3.33152e-18 0)
(3 -6.18933e-16 0)
(3 -5.19052e-16 0)
(3 -7.13393e-16 0)
(3 3.07538e-16 0)
(3 3.69019e-16 0)
(3 1.97952e-16 0)
(3 3.86333e-16 0)
(3 2.84497e-16 0)
(3 8.79292e-17 0)
(1.17931 0.201054 0)
(2.06322 -0.627938 0)
(2.67772 -0.740092 0)
(2.8926 -0.325455 0)
(2.97836 -0.063337 0)
(3.00086 -0.0037114 0)
(3.00118 -0.000169057 0)
(3.00048 4.85608e-05 0)
(3.00003 1.49949e-05 0)
(3 8.2743e-08 0)
(3 -5.07343e-08 0)
(3 -1.42096e-08 0)
(3 -2.8468e-10 0)
(3 2.85183e-13 0)
(3 3.67422e-13 0)
(3 2.9319e-14 0)
(3 1.04383e-15 0)
(3 7.07771e-16 0)
(3 2.94243e-16 0)
(3 -3.35538e-16 0)
(3 1.14683e-15 0)
(3 4.9429e-16 0)
(3 1.31332e-16 0)
(3 5.3389e-16 0)
(3 7.21202e-17 0)
(3 1.40475e-16 0)
(3 4.28185e-16 0)
(3 -1.3096e-16 0)
(3 2.69042e-16 0)
(3 2.48953e-16 0)
(3 -2.17742e-16 0)
(3 1.93853e-16 0)
(3 -5.12531e-17 0)
(3 -2.12056e-16 0)
(3 2.49425e-16 0)
(3 1.99098e-17 0)
(3 -6.1394e-16 0)
(3 -3.63152e-16 0)
(3 -7.67895e-16 0)
(3 -1.1511e-17 0)
(1.20183 0.190017 0)
(2.15035 -0.628853 0)
(2.74984 -0.662693 0)
(2.93241 -0.248675 0)
(2.9921 -0.037253 0)
(3.00187 -0.00176032 0)
(3.00121 -0.000232026 0)
(3.00028 2.21261e-05 0)
(3 4.11349e-06 0)
(3 -6.29875e-08 0)
(3 -5.19438e-08 0)
(3 -5.72636e-09 0)
(3 -4.14605e-11 0)
(3 7.28649e-13 0)
(3 2.67059e-13 0)
(3 6.24499e-15 0)
(3 -4.13382e-16 0)
(3 -1.0259e-15 0)
(3 -1.09751e-15 0)
(3 -1.39619e-16 0)
(3 -3.04923e-16 0)
(3 -9.30782e-16 0)
(3 -3.07839e-16 0)
(3 4.34294e-17 0)
(3 -2.4351e-16 0)
(3 2.8029e-16 0)
(3 3.35892e-16 0)
(3 -1.29503e-16 0)
(3 2.29086e-16 0)
(3 -3.18968e-16 0)
(3 1.89267e-16 0)
(3 1.32241e-16 0)
(3 2.90904e-16 0)
(3 1.43142e-17 0)
(3 4.70144e-17 0)
(3 6.80504e-17 0)
(3 4.03877e-16 0)
(3 3.13091e-16 0)
(3 2.44059e-16 0)
(3 2.31073e-16 0)
(1.22514 0.180002 0)
(2.23195 -0.625173 0)
(2.81002 -0.590155 0)
(2.9612 -0.192175 0)
(2.99905 -0.0227815 0)
(3.002 -0.00115229 0)
(3.00113 -0.000288707 0)
(3.00011 5.52446e-06 0)
(3 6.84986e-07 0)
(3 -1.09341e-07 0)
(3 -4.64643e-08 0)
(3 -1.92083e-09 0)
(3 -2.08106e-12 0)
(3 1.23434e-12 0)
(3 1.40403e-13 0)
(3 1.77843e-15 0)
(3 1.00236e-16 0)
(3 -3.94093e-16 0)
(3 3.05007e-16 0)
(3 7.91801e-16 0)
(3 -6.60408e-16 0)
(3 2.27877e-16 0)
(3 2.72155e-16 0)
(3 1.66957e-16 0)
(3 -8.08276e-17 0)
(3 8.13597e-17 0)
(3 -3.9532e-16 0)
(3 -1.51151e-16 0)
(3 7.67166e-17 0)
(3 2.45072e-16 0)
(3 5.00662e-16 0)
(3 8.19821e-16 0)
(3 3.31459e-16 0)
(3 5.57939e-16 0)
(3 1.61471e-16 0)
(3 1.66377e-16 0)
(3 1.10642e-16 0)
(3 -2.04198e-16 0)
(3 1.52685e-16 0)
(3 1.03194e-16 0)
(1.24919 0.172539 0)
(2.30686 -0.61823 0)
(2.85991 -0.527904 0)
(2.98074 -0.149367 0)
(3.00238 -0.014215 0)
(3.00211 -0.000884366 0)
(3.00096 -0.000180896 0)
(3.00005 1.00768e-05 0)
(3 1.84319e-07 0)
(3 -9.72225e-08 0)
(3 -2.85975e-08 0)
(3 -5.74121e-10 0)
(3 2.04277e-12 0)
(3 1.29962e-12 0)
(3 7.07219e-14 0)
(3 1.01031e-15 0)
(3 -7.59088e-16 0)
(3 7.11294e-16 0)
(3 8.10762e-16 0)
(3 2.51388e-16 0)
(3 -4.59658e-16 0)
(3 -5.7132e-16 0)
(3 -1.15053e-16 0)
(3 -4.64421e-16 0)
(3 8.84871e-17 0)
(3 3.02282e-16 0)
(3 3.74655e-17 0)
(3 -4.50689e-17 0)
(3 -7.31639e-16 0)
(3 -2.01033e-16 0)
(3 2.0237e-16 0)
(3 -7.20356e-16 0)
(3 -6.16434e-16 0)
(3 -2.11494e-16 0)
(3 -5.59482e-16 0)
(3 3.79056e-16 0)
(3 2.71837e-16 0)
(3 4.30842e-16 0)
(3 2.88867e-16 0)
(3 -1.22015e-16 0)
(1.27112 0.164075 0)
(2.37458 -0.606173 0)
(2.90068 -0.472579 0)
(2.99442 -0.11789 0)
(3.00388 -0.00940431 0)
(3.00206 -0.000808833 0)
(3.00075 -0.000155809 0)
(3.00002 3.98589e-06 0)
(3 -6.77536e-08 0)
(3 -1.034e-07 0)
(3 -1.54285e-08 0)
(3 -1.38725e-10 0)
(3 3.02153e-12 0)
(3 1.02181e-12 0)
(3 2.38649e-14 0)
(3 -1.70881e-16 0)
(3 -6.39928e-16 0)
(3 -3.07586e-16 0)
(3 -1.56421e-15 0)
(3 -1.68488e-15 0)
(3 -5.90614e-16 0)
(3 3.41003e-16 0)
(3 3.84118e-16 0)
(3 1.83929e-16 0)
(3 2.68237e-16 0)
(3 -2.4643e-16 0)
(3 -2.20421e-16 0)
(3 2.02797e-16 0)
(3 7.27514e-17 0)
(3 1.88142e-16 0)
(3 -2.4973e-16 0)
(3 -2.09012e-16 0)
(3 2.28587e-16 0)
(3 1.63373e-17 0)
(3 5.59214e-16 0)
(3 2.39167e-16 0)
(3 -4.20955e-16 0)
(3 -2.49172e-16 0)
(3 -1.04003e-16 0)
(3 -5.40636e-17 0)
(1.29333 0.158274 0)
(2.43588 -0.594774 0)
(2.93383 -0.426157 0)
(3.00308 -0.0938318 0)
(3.00437 -0.00622189 0)
(3.00211 -0.000629963 0)
(3.0006 -4.99984e-05 0)
(3.00001 6.94539e-06 0)
(3 -6.57364e-08 0)
(3 -8.02328e-08 0)
(3 -9.11194e-09 0)
(3 -5.91942e-11 0)
(3 2.05621e-12 0)
(3 5.8082e-13 0)
(3 6.97486e-15 0)
(3 -9.26411e-16 0)
(3 -4.58677e-16 0)
(3 6.7031e-18 0)
(3 5.44932e-16 0)
(3 9.20126e-16 0)
(3 1.57045e-15 0)
(3 2.47605e-16 0)
(3 -1.74647e-16 0)
(3 2.84315e-16 0)
(3 4.00439e-16 0)
(3 1.26897e-16 0)
(3 7.42928e-16 0)
(3 6.80163e-16 0)
(3 3.51448e-16 0)
(3 6.97099e-16 0)
(3 3.78011e-16 0)
(3 2.77906e-16 0)
(3 -4.24895e-16 0)
(3 1.9739e-16 0)
(3 -4.7467e-16 0)
(3 -9.4223e-16 0)
(3 1.30463e-16 0)
(3 -3.45175e-16 0)
(3 -5.04438e-16 0)
(3 -4.83238e-16 0)
(1.31375 0.151214 0)
(2.49041 -0.580847 0)
(2.96033 -0.385193 0)
(3.00896 -0.0757804 0)
(3.00457 -0.00471109 0)
(3.00209 -0.00079587 0)
(3.00039 -8.47991e-05 0)
(3 1.71277e-06 0)
(3 -1.54153e-07 0)
(3 -8.58574e-08 0)
(3 -4.97129e-09 0)
(3 -7.94496e-12 0)
(3 3.38477e-12 0)
(3 4.31772e-13 0)
(3 2.13753e-15 0)
(3 2.87576e-16 0)
(3 3.79082e-16 0)
(3 6.53452e-16 0)
(3 7.95389e-16 0)
(3 -4.78149e-16 0)
(3 -3.53075e-16 0)
(3 -5.83559e-16 0)
(3 1.38017e-16 0)
(3 4.15211e-16 0)
(3 -3.09707e-16 0)
(3 -6.9297e-16 0)
(3 -2.6531e-16 0)
(3 -6.99799e-16 0)
(3 -1.6494e-16 0)
(3 -3.05675e-17 0)
(3 6.5169e-17 0)
(3 -6.40826e-16 0)
(3 -2.25239e-16 0)
(3 -1.16662e-16 0)
(3 -3.85763e-16 0)
(3 4.98789e-16 0)
(3 3.22176e-16 0)
(3 -2.08079e-16 0)
(3 3.09224e-16 0)
(3 1.5146e-16 0)
(1.33456 0.146558 0)
(2.53917 -0.570245 0)
(2.98118 -0.350629 0)
(3.01246 -0.0620246 0)
(3.00453 -0.00351978 0)
(3.00209 -0.000699629 0)
(3.00026 -3.34676e-05 0)
(3 1.66565e-06 0)
(3 -1.1207e-07 0)
(3 -5.82924e-08 0)
(3 -2.56447e-09 0)
(3 -3.80571e-13 0)
(3 2.67154e-12 0)
(3 2.00564e-13 0)
(3 -9.80627e-17 0)
(3 -1.76005e-16 0)
(3 -1.43654e-15 0)
(3 -1.17622e-15 0)
(3 -7.56212e-17 0)
(3 -6.85192e-16 0)
(3 1.52935e-16 0)
(3 3.36205e-16 0)
(3 -7.00714e-16 0)
(3 -8.5013e-16 0)
(3 -8.74897e-16 0)
(3 2.79579e-16 0)
(3 1.05261e-16 0)
(3 1.76931e-16 0)
(3 -4.51719e-17 0)
(3 7.68498e-17 0)
(3 -9.95483e-17 0)
(3 6.42379e-17 0)
(3 1.00548e-15 0)
(3 8.49551e-16 0)
(3 9.63214e-16 0)
(3 8.896e-16 0)
(3 -4.73634e-16 0)
(3 -1.40388e-16 0)
(3 -1.59959e-16 0)
(3 4.32932e-16 0)
(1.3528 0.141871 0)
(2.58161 -0.557458 0)
(2.99807 -0.32151 0)
(3.01467 -0.0517563 0)
(3.00437 -0.00287113 0)
(3.00204 -0.000736078 0)
(3.00014 -1.83942e-05 0)
(3 7.75071e-07 0)
(3 -1.41084e-07 0)
(3 -5.28151e-08 0)
(3 -1.30879e-09 0)
(3 1.5842e-12 0)
(3 1.77086e-12 0)
(3 9.43438e-14 0)
(3 -1.65155e-15 0)
(3 1.03261e-16 0)
(3 -4.57999e-17 0)
(3 1.64539e-15 0)
(3 4.88446e-16 0)
(3 -1.06471e-15 0)
(3 -2.69892e-16 0)
(3 2.95413e-16 0)
(3 2.21942e-17 0)
(3 9.42944e-16 0)
(3 9.27634e-16 0)
(3 4.4012e-16 0)
(3 -5.81096e-16 0)
(3 -8.32678e-16 0)
(3 -7.63285e-17 0)
(3 4.24619e-16 0)
(3 1.21804e-16 0)
(3 -8.17648e-17 0)
(3 2.60484e-16 0)
(3 1.83997e-16 0)
(3 1.07206e-16 0)
(3 -4.7505e-16 0)
(3 -3.6209e-16 0)
(3 2.03143e-19 0)
(3 2.21271e-16 0)
(3 3.82025e-20 0)
(1.36945 0.137148 0)
(2.61875 -0.544912 0)
(3.01148 -0.297346 0)
(3.01587 -0.0439019 0)
(3.00426 -0.00257755 0)
(3.00191 -0.000683427 0)
(3.00008 -1.4816e-05 0)
(3 2.67159e-07 0)
(3 -1.49323e-07 0)
(3 -4.28316e-08 0)
(3 -6.03462e-10 0)
(3 4.77042e-12 0)
(3 2.14642e-12 0)
(3 6.299e-14 0)
(3 -1.43601e-15 0)
(3 -8.24522e-16 0)
(3 -5.92019e-17 0)
(3 -1.36602e-16 0)
(3 -5.69102e-16 0)
(3 3.02118e-16 0)
(3 7.64086e-16 0)
(3 6.7712e-16 0)
(3 3.40657e-16 0)
(3 7.18164e-16 0)
(3 -4.11703e-16 0)
(3 -5.4158e-16 0)
(3 -5.14644e-17 0)
(3 4.69014e-16 0)
(3 8.03334e-17 0)
(3 -4.86636e-16 0)
(3 -3.08781e-16 0)
(3 -4.95587e-16 0)
(3 -1.67184e-16 0)
(3 -8.94003e-17 0)
(3 -1.98659e-16 0)
(3 -2.94584e-16 0)
(3 2.22976e-16 0)
(3 1.89894e-16 0)
(3 1.35403e-16 0)
(3 -3.42889e-16 0)
(1.38554 0.134214 0)
(2.65114 -0.535943 0)
(3.02159 -0.276684 0)
(3.01641 -0.037789 0)
(3.00417 -0.0022457 0)
(3.00177 -0.000555673 0)
(3.00005 -2.238e-06 0)
(3 2.6676e-07 0)
(3 -9.67593e-08 0)
(3 -2.7739e-08 0)
(3 -2.83537e-10 0)
(3 5.68845e-12 0)
(3 1.81175e-12 0)
(3 3.28541e-14 0)
(3 -2.23528e-15 0)
(3 -1.06589e-15 0)
(3 1.06449e-15 0)
(3 -1.52295e-17 0)
(3 -2.33293e-16 0)
(3 4.81239e-16 0)
(3 -4.06441e-16 0)
(3 3.69054e-16 0)
(3 1.20017e-16 0)
(3 -4.65162e-16 0)
(3 -1.03045e-15 0)
(3 -8.43083e-17 0)
(3 3.44333e-16 0)
(3 5.14386e-16 0)
(3 -4.78402e-16 0)
(3 6.72491e-16 0)
(3 4.99182e-16 0)
(3 1.38438e-16 0)
(3 5.15966e-16 0)
(3 3.00289e-16 0)
(3 -7.39672e-16 0)
(3 -2.20195e-16 0)
(3 1.28927e-16 0)
(3 -2.08747e-16 0)
(3 -7.52431e-16 0)
(3 -2.80177e-16 0)
(1.39887 0.131339 0)
(2.67853 -0.525917 0)
(3.02984 -0.259885 0)
(3.01663 -0.033301 0)
(3.00405 -0.00209731 0)
(3.00157 -0.000494882 0)
(3.00004 -1.41271e-06 0)
(3 1.02289e-07 0)
(3 -1.16483e-07 0)
(3 -2.16118e-08 0)
(3 -1.59094e-10 0)
(3 3.56409e-12 0)
(3 1.04505e-12 0)
(3 9.95503e-15 0)
(3 -1.70337e-15 0)
(3 7.59443e-16 0)
(3 1.6107e-15 0)
(3 4.82334e-16 0)
(3 -1.85428e-16 0)
(3 7.79769e-17 0)
(3 2.98609e-17 0)
(3 8.84805e-16 0)
(3 6.88763e-16 0)
(3 7.96112e-17 0)
(3 -4.29583e-16 0)
(3 -5.58245e-16 0)
(3 -3.47484e-16 0)
(3 2.07365e-16 0)
(3 -2.41077e-16 0)
(3 -2.80937e-16 0)
(3 -9.71861e-18 0)
(3 -1.77441e-16 0)
(3 -7.72073e-18 0)
(3 -4.39637e-16 0)
(3 -4.50724e-16 0)
(3 3.16556e-16 0)
(3 -3.47617e-17 0)
(3 -2.86582e-16 0)
(3 2.22748e-16 0)
(3 3.93412e-16 0)
(1.41029 0.128198 0)
(2.70154 -0.516438 0)
(3.03613 -0.245996 0)
(3.01666 -0.0298909 0)
(3.00399 -0.00214541 0)
(3.00142 -0.00053355 0)
(3.00002 -8.62138e-06 0)
(3 -1.15524e-07 0)
(3 -1.61242e-07 0)
(3 -1.77034e-08 0)
(3 -6.97651e-11 0)
(3 8.61594e-12 0)
(3 1.55609e-12 0)
(3 8.34093e-15 0)
(3 4.72508e-16 0)
(3 1.84141e-15 0)
(3 4.31895e-16 0)
(3 -4.43389e-16 0)
(3 1.82092e-16 0)
(3 3.92912e-16 0)
(3 8.71001e-16 0)
(3 -2.78417e-16 0)
(3 -7.61832e-16 0)
(3 -8.29535e-16 0)
(3 -9.96458e-16 0)
(3 3.24259e-16 0)
(3 6.93067e-16 0)
(3 1.32725e-15 0)
(3 -4.4296e-16 0)
(3 -3.34715e-17 0)
(3 7.24118e-16 0)
(3 -1.47914e-16 0)
(3 5.15968e-16 0)
(3 2.66626e-16 0)
(3 1.06639e-16 0)
(3 1.17093e-16 0)
(3 9.66524e-17 0)
(3 2.69378e-16 0)
(3 -1.00624e-16 0)
(3 -4.00684e-16 0)
(1.42122 0.12679 0)
(2.72066 -0.511216 0)
(3.04046 -0.234899 0)
(3.01642 -0.0270476 0)
(3.00391 -0.00194982 0)
(3.00132 -0.000433331 0)
(3.00002 -1.78472e-06 0)
(3 -5.38144e-08 0)
(3 -1.29718e-07 0)
(3 -1.34859e-08 0)
(3 -5.24636e-11 0)
(3 4.4436e-12 0)
(3 8.23945e-13 0)
(3 3.42673e-15 0)
(3 -1.05583e-17 0)
(3 -1.05637e-15 0)
(3 -1.2772e-15 0)
(3 -4.09996e-16 0)
(3 -5.2084e-16 0)
(3 -3.42582e-16 0)
(3 1.10225e-16 0)
(3 -6.19921e-16 0)
(3 3.95681e-17 0)
(3 2.72795e-16 0)
(3 -2.62008e-17 0)
(3 4.58931e-16 0)
(3 -5.54552e-16 0)
(3 6.94626e-17 0)
(3 -6.06857e-17 0)
(3 -4.42369e-16 0)
(3 3.38575e-17 0)
(3 -1.29604e-16 0)
(3 3.3003e-16 0)
(3 -6.48896e-16 0)
(3 -9.16741e-17 0)
(3 -3.05696e-16 0)
(3 1.6407e-16 0)
(3 3.57852e-16 0)
(3 -1.6103e-16 0)
(3 -1.9498e-16 0)
(1.4299 0.125618 0)
(2.73578 -0.506276 0)
(3.04363 -0.225826 0)
(3.01628 -0.0251032 0)
(3.0039 -0.00196973 0)
(3.00122 -0.00043542 0)
(3.00001 -3.14962e-06 0)
(3 -9.71386e-08 0)
(3 -1.27585e-07 0)
(3 -1.05649e-08 0)
(3 -2.88651e-11 0)
(3 3.71969e-12 0)
(3 5.57566e-13 0)
(3 1.23927e-15 0)
(3 -1.35144e-15 0)
(3 -7.54428e-16 0)
(3 -2.12102e-16 0)
(3 7.28327e-16 0)
(3 -4.13392e-16 0)
(3 6.58993e-16 0)
(3 1.57064e-16 0)
(3 1.78809e-16 0)
(3 1.56412e-16 0)
(3 -6.03938e-16 0)
(3 -6.77153e-16 0)
(3 -8.77947e-16 0)
(3 -4.66659e-16 0)
(3 6.2249e-16 0)
(3 4.62229e-16 0)
(3 -3.63629e-16 0)
(3 7.32337e-16 0)
(3 -6.16808e-17 0)
(3 7.64883e-16 0)
(3 -2.85088e-16 0)
(3 -1.67472e-16 0)
(3 1.08301e-16 0)
(3 -4.75946e-18 0)
(3 1.51986e-16 0)
(3 -1.07836e-16 0)
(3 -2.64156e-16 0)
(1.43661 0.124897 0)
(2.74736 -0.502508 0)
(3.04589 -0.219709 0)
(3.01596 -0.0235187 0)
(3.0038 -0.00180824 0)
(3.00115 -0.000367471 0)
(3.00001 7.86985e-08 0)
(3 -7.17686e-08 0)
(3 -1.10615e-07 0)
(3 -8.81035e-09 0)
(3 -2.71415e-11 0)
(3 1.26598e-12 0)
(3 2.79151e-13 0)
(3 -9.15256e-16 0)
(3 -9.67973e-16 0)
(3 -2.71137e-16 0)
(3 6.39356e-16 0)
(3 6.66602e-16 0)
(3 -1.09849e-16 0)
(3 9.56792e-16 0)
(3 1.56758e-17 0)
(3 -3.8906e-16 0)
(3 -4.35247e-16 0)
(3 1.04682e-16 0)
(3 3.01842e-16 0)
(3 -3.91177e-17 0)
(3 9.76935e-16 0)
(3 7.60618e-16 0)
(3 -8.56473e-17 0)
(3 -3.37983e-16 0)
(3 3.24737e-17 0)
(3 -1.78462e-17 0)
(3 7.33742e-16 0)
(3 -1.27643e-15 0)
(3 -1.68658e-16 0)
(3 2.50431e-16 0)
(3 2.373e-16 0)
(3 -3.58468e-16 0)
(3 -1.43504e-16 0)
(3 -4.00385e-16 0)
(1.44158 0.124645 0)
(2.75549 -0.500214 0)
(3.04715 -0.215341 0)
(3.0157 -0.022433 0)
(3.00374 -0.00178208 0)
(3.00109 -0.000348006 0)
(3.00001 6.12766e-07 0)
(3 -4.66339e-08 0)
(3 -9.12464e-08 0)
(3 -6.76957e-09 0)
(3 -1.551e-11 0)
(3 2.4158e-12 0)
(3 2.88459e-13 0)
(3 -5.74026e-16 0)
(3 -1.50578e-15 0)
(3 -1.10559e-15 0)
(3 -4.95738e-18 0)
(3 8.01204e-17 0)
(3 -3.03571e-16 0)
(3 2.05895e-16 0)
(3 -8.73621e-16 0)
(3 -3.78549e-17 0)
(3 5.31997e-16 0)
(3 6.65266e-16 0)
(3 1.83716e-17 0)
(3 1.74405e-16 0)
(3 -2.9077e-17 0)
(3 7.51876e-16 0)
(3 -3.77914e-16 0)
(3 5.6596e-16 0)
(3 -2.73366e-16 0)
(3 3.04487e-16 0)
(3 -5.70394e-16 0)
(3 -4.4927e-16 0)
(3 6.18893e-16 0)
(3 2.33932e-16 0)
(3 -3.56534e-16 0)
(3 -3.53414e-16 0)
(3 2.42388e-16 0)
(3 -4.33246e-17 0)
(1.4446 0.124661 0)
(2.76013 -0.499269 0)
(3.04759 -0.212819 0)
(3.01543 -0.0217613 0)
(3.0037 -0.00178478 0)
(3.00105 -0.000342286 0)
(3.00001 4.2391e-07 0)
(3 -3.30156e-08 0)
(3 -8.33705e-08 0)
(3 -5.70423e-09 0)
(3 -1.03349e-11 0)
(3 2.52793e-12 0)
(3 2.41221e-13 0)
(3 -6.87194e-16 0)
(3 -2.45273e-15 0)
(3 9.15645e-17 0)
(3 -3.02765e-16 0)
(3 3.17797e-16 0)
(3 -4.43967e-16 0)
(3 3.07235e-16 0)
(3 -1.52154e-16 0)
(3 4.54712e-16 0)
(3 -8.48231e-16 0)
(3 5.48581e-16 0)
(3 1.96989e-16 0)
(3 -5.70277e-16 0)
(3 -2.31476e-16 0)
(3 6.55592e-16 0)
(3 -2.31007e-16 0)
(3 -1.78327e-16 0)
(3 -5.23216e-16 0)
(3 -2.58005e-16 0)
(3 1.58888e-16 0)
(3 6.41329e-16 0)
(3 -7.42831e-17 0)
(3 -3.75475e-16 0)
(3 -6.59873e-16 0)
(3 5.51973e-16 0)
(3 3.07005e-16 0)
(3 6.71778e-16 0)
(1.44528 0.124782 0)
(2.76153 -0.499395 0)
(3.04738 -0.211989 0)
(3.01525 -0.0215722 0)
(3.00364 -0.00175902 0)
(3.00101 -0.000332848 0)
(3 4.22215e-07 0)
(3 -4.95811e-08 0)
(3 -8.5469e-08 0)
(3 -5.36325e-09 0)
(3 -1.54262e-11 0)
(3 -7.89946e-13 0)
(3 1.02609e-15 0)
(3 -7.98104e-15 0)
(3 -1.24113e-15 0)
(3 1.66816e-15 0)
(3 6.33231e-16 0)
(3 3.84913e-16 0)
(3 2.23243e-16 0)
(3 6.10539e-16 0)
(3 5.4138e-16 0)
(3 -8.05856e-16 0)
(3 -1.82593e-16 0)
(3 1.01873e-15 0)
(3 4.26801e-16 0)
(3 -3.12354e-17 0)
(3 7.88459e-17 0)
(3 1.56285e-16 0)
(3 -5.9794e-16 0)
(3 3.49947e-16 0)
(3 -6.81946e-16 0)
(3 -3.25021e-16 0)
(3 1.03676e-15 0)
(3 -9.06387e-16 0)
(3 -1.63306e-16 0)
(3 2.50258e-17 0)
(3 4.1425e-16 0)
(3 -1.32602e-16 0)
(3 -5.09812e-16 0)
(3 2.43103e-16 0)
(1.44492 0.125623 0)
(2.76084 -0.501121 0)
(3.04668 -0.212541 0)
(3.01513 -0.0216278 0)
(3.00358 -0.0017553 0)
(3.00099 -0.000333523 0)
(3 9.28547e-09 0)
(3 -6.40186e-08 0)
(3 -8.66291e-08 0)
(3 -5.03028e-09 0)
(3 -1.40626e-11 0)
(3 -8.29533e-13 0)
(3 -1.17797e-14 0)
(3 -9.01754e-15 0)
(3 -1.21459e-16 0)
(3 4.17966e-16 0)
(3 4.47851e-16 0)
(3 3.61123e-16 0)
(3 -1.09355e-16 0)
(3 -3.84777e-16 0)
(3 -1.4074e-16 0)
(3 2.07917e-16 0)
(3 -3.91304e-16 0)
(3 2.64084e-16 0)
(3 5.00447e-17 0)
(3 -2.87338e-16 0)
(3 1.07722e-16 0)
(3 7.24828e-17 0)
(3 -1.51768e-15 0)
(3 5.84881e-16 0)
(3 9.42628e-17 0)
(3 4.13073e-16 0)
(3 -7.03119e-16 0)
(3 4.35632e-16 0)
(3 1.17362e-16 0)
(3 1.29739e-16 0)
(3 1.61241e-16 0)
(3 -1.02761e-15 0)
(3 2.81177e-16 0)
(3 5.27136e-16 0)
(1.44284 0.126688 0)
(2.75712 -0.503749 0)
(3.04517 -0.214553 0)
(3.01493 -0.0220572 0)
(3.00349 -0.00172825 0)
(3.00097 -0.00033348 0)
(3 -4.6746e-07 0)
(3 -7.30546e-08 0)
(3 -8.7314e-08 0)
(3 -4.80514e-09 0)
(3 -1.32378e-11 0)
(3 -8.81384e-13 0)
(3 -2.09979e-14 0)
(3 -8.45761e-15 0)
(3 9.10989e-16 0)
(3 -1.01355e-15 0)
(3 -1.88842e-16 0)
(3 -4.86548e-16 0)
(3 2.5329e-16 0)
(3 -4.00243e-16 0)
(3 3.07389e-16 0)
(3 8.73172e-16 0)
(3 -8.58649e-16 0)
(3 -2.48647e-16 0)
(3 4.00302e-16 0)
(3 -7.01166e-17 0)
(3 3.67418e-16 0)
(3 1.32232e-18 0)
(3 -2.29265e-15 0)
(3 8.12709e-16 0)
(3 8.26719e-16 0)
(3 -1.46984e-16 0)
(3 -1.34968e-16 0)
(3 -3.04257e-16 0)
(3 5.43139e-17 0)
(3 3.57068e-16 0)
(3 6.73909e-17 0)
(3 -4.60864e-16 0)
(3 2.20005e-16 0)
(3 2.97632e-16 0)
(1.43916 0.128111 0)
(2.75079 -0.507701 0)
(3.04308 -0.21808 0)
(3.0148 -0.0228429 0)
(3.00342 -0.00173067 0)
(3.00096 -0.000343112 0)
(3.00001 -1.34778e-06 0)
(3 -7.67005e-08 0)
(3 -8.59558e-08 0)
(3 -4.49905e-09 0)
(3 -1.36078e-11 0)
(3 -1.20148e-12 0)
(3 -3.52032e-14 0)
(3 -9.5272e-15 0)
(3 -3.12728e-16 0)
(3 -1.62624e-15 0)
(3 3.19359e-16 0)
(3 -1.46481e-16 0)
(3 4.79275e-16 0)
(3 -2.84969e-17 0)
(3 1.55487e-16 0)
(3 -3.18657e-16 0)
(3 -2.77152e-16 0)
(3 -8.24449e-16 0)
(3 3.62143e-16 0)
(3 1.26122e-17 0)
(3 1.43424e-16 0)
(3 -7.37924e-16 0)
(3 -9.80953e-16 0)
(3 1.27628e-15 0)
(3 1.14317e-15 0)
(3 -2.95887e-16 0)
(3 7.35044e-17 0)
(3 -1.25912e-15 0)
(3 1.80516e-16 0)
(3 1.28481e-16 0)
(3 -3.39175e-16 0)
(3 -9.39887e-17 0)
(3 2.92045e-16 0)
(3 -1.99244e-16 0)
(1.43384 0.129901 0)
(2.74168 -0.512888 0)
(3.04022 -0.223192 0)
(3.01461 -0.0238919 0)
(3.00336 -0.00182536 0)
(3.00095 -0.000384491 0)
(3.00001 -3.61117e-06 0)
(3 -8.90651e-08 0)
(3 -8.5947e-08 0)
(3 -4.1128e-09 0)
(3 -5.03574e-12 0)
(3 1.36762e-12 0)
(3 7.74397e-14 0)
(3 -2.86645e-15 0)
(3 -8.96627e-16 0)
(3 -1.05157e-15 0)
(3 1.39561e-15 0)
(3 2.68766e-16 0)
(3 3.44908e-16 0)
(3 -2.44103e-16 0)
(3 -4.02107e-16 0)
(3 4.17546e-16 0)
(3 -2.45107e-16 0)
(3 -1.22954e-15 0)
(3 -5.79174e-17 0)
(3 8.14822e-16 0)
(3 8.47589e-17 0)
(3 5.13328e-16 0)
(3 -6.83463e-16 0)
(3 -1.45869e-16 0)
(3 1.07093e-15 0)
(3 -1.1563e-15 0)
(3 -4.73243e-16 0)
(3 3.84334e-16 0)
(3 3.27477e-16 0)
(3 2.51733e-17 0)
(3 -3.64737e-16 0)
(3 2.84397e-16 0)
(3 -3.92524e-16 0)
(3 -2.51077e-16 0)
(1.42693 0.13205 0)
(2.72965 -0.519227 0)
(3.03652 -0.230228 0)
(3.01438 -0.0252949 0)
(3.00329 -0.00189334 0)
(3.00096 -0.000415662 0)
(3.00001 -5.43687e-06 0)
(3 -1.38641e-07 0)
(3 -1.04124e-07 0)
(3 -4.77454e-09 0)
(3 -4.68748e-12 0)
(3 2.05888e-12 0)
(3 1.24436e-13 0)
(3 -2.55107e-15 0)
(3 -8.66151e-16 0)
(3 1.37319e-15 0)
(3 3.88351e-16 0)
(3 -3.56683e-16 0)
(3 -4.68361e-17 0)
(3 -9.09343e-16 0)
(3 4.2112e-16 0)
(3 6.04024e-16 0)
(3 -8.44324e-16 0)
(3 -1.58669e-16 0)
(3 1.11354e-15 0)
(3 1.97365e-16 0)
(3 1.17545e-16 0)
(3 2.92038e-16 0)
(3 -8.38751e-16 0)
(3 -1.34582e-17 0)
(3 -2.09147e-16 0)
(3 -1.73877e-16 0)
(3 -1.19876e-15 0)
(3 2.39508e-15 0)
(3 -6.13808e-16 0)
(3 3.47502e-16 0)
(3 -3.60236e-16 0)
(3 4.23751e-16 0)
(3 2.29104e-16 0)
(3 -1.0293e-16 0)
(1.4187 0.134596 0)
(2.71448 -0.526756 0)
(3.03189 -0.239637 0)
(3.01407 -0.0271667 0)
(3.0032 -0.0018148 0)
(3.00099 -0.000403025 0)
(3.00001 -5.14143e-06 0)
(3 -1.70294e-07 0)
(3 -1.20678e-07 0)
(3 -6.02415e-09 0)
(3 -1.29693e-11 0)
(3 1.37381e-13 0)
(3 5.79515e-14 0)
(3 -3.70016e-15 0)
(3 8.56753e-17 0)
(3 1.45147e-15 0)
(3 -9.27323e-16 0)
(3 -6.44639e-16 0)
(3 -1.6731e-16 0)
(3 -7.01059e-17 0)
(3 9.23374e-16 0)
(3 -8.47314e-16 0)
(3 -2.3077e-16 0)
(3 8.55152e-18 0)
(3 -4.96324e-16 0)
(3 4.33643e-16 0)
(3 -4.83323e-16 0)
(3 -1.08048e-16 0)
(3 8.26524e-17 0)
(3 8.42285e-16 0)
(3 -4.62396e-16 0)
(3 -1.31399e-15 0)
(3 3.4706e-16 0)
(3 1.16446e-15 0)
(3 -5.99974e-16 0)
(3 -1.29842e-17 0)
(3 -6.58651e-17 0)
(3 3.54884e-16 0)
(3 1.71227e-16 0)
(3 2.97731e-18 0)
(1.40955 0.137845 0)
(2.69615 -0.536723 0)
(3.02577 -0.250422 0)
(3.01367 -0.0295654 0)
(3.00319 -0.00190868 0)
(3.00104 -0.000444663 0)
(3.00001 -7.05386e-06 0)
(3 -1.57705e-07 0)
(3 -1.16319e-07 0)
(3 -6.61172e-09 0)
(3 -1.47851e-11 0)
(3 5.46232e-13 0)
(3 7.50088e-14 0)
(3 -3.19006e-15 0)
(3 -2.78953e-16 0)
(3 1.00528e-15 0)
(3 1.87238e-16 0)
(3 -3.01604e-16 0)
(3 1.26962e-16 0)
(3 1.52297e-16 0)
(3 7.88556e-16 0)
(3 -1.46682e-15 0)
(3 4.99606e-17 0)
(3 3.59487e-16 0)
(3 -3.484e-16 0)
(3 1.19245e-15 0)
(3 -1.59911e-15 0)
(3 3.31519e-16 0)
(3 1.61396e-15 0)
(3 -8.5813e-16 0)
(3 -1.4883e-16 0)
(3 -9.79808e-16 0)
(3 7.05801e-16 0)
(3 9.37529e-16 0)
(3 -4.21992e-16 0)
(3 2.80444e-16 0)
(3 -1.94891e-17 0)
(3 3.35294e-16 0)
(3 4.57535e-16 0)
(3 -4.87061e-16 0)
(1.39887 0.141939 0)
(2.67452 -0.54835 0)
(3.01839 -0.26401 0)
(3.013 -0.0326342 0)
(3.00313 -0.00185395 0)
(3.00108 -0.00041958 0)
(3.00001 -4.68707e-06 0)
(3 -7.02844e-08 0)
(3 -9.55741e-08 0)
(3 -6.99629e-09 0)
(3 -2.31537e-11 0)
(3 -4.40723e-13 0)
(3 -3.67364e-14 0)
(3 -8.96605e-15 0)
(3 4.91957e-16 0)
(3 6.07662e-16 0)
(3 2.27456e-16 0)
(3 -7.26122e-16 0)
(3 1.30038e-16 0)
(3 -5.77382e-16 0)
(3 2.39722e-16 0)
(3 -6.61775e-16 0)
(3 9.27273e-16 0)
(3 -3.52237e-16 0)
(3 3.74747e-16 0)
(3 -1.7331e-16 0)
(3 -5.94971e-16 0)
(3 -8.3293e-17 0)
(3 1.07187e-15 0)
(3 -8.2529e-16 0)
(3 -2.82954e-17 0)
(3 2.86747e-16 0)
(3 -3.39973e-16 0)
(3 8.21681e-16 0)
(3 1.52205e-16 0)
(3 -1.04806e-15 0)
(3 -3.75259e-16 0)
(3 1.19288e-15 0)
(3 -1.62119e-16 0)
(3 -8.16614e-16 0)
(1.38589 0.145803 0)
(2.64897 -0.559158 0)
(3.00958 -0.280091 0)
(3.01217 -0.036833 0)
(3.00303 -0.00197931 0)
(3.00109 -0.000472751 0)
(3.00002 -9.20195e-06 0)
(3 -1.16574e-07 0)
(3 -1.1641e-07 0)
(3 -8.6144e-09 0)
(3 -3.07946e-11 0)
(3 -5.4267e-13 0)
(3 -2.75775e-14 0)
(3 -6.942e-15 0)
(3 -2.75792e-16 0)
(3 9.39022e-19 0)
(3 -6.05793e-16 0)
(3 5.84387e-16 0)
(3 7.58578e-16 0)
(3 -1.28523e-15 0)
(3 -5.49118e-16 0)
(3 8.22973e-16 0)
(3 3.5508e-16 0)
(3 -1.1644e-15 0)
(3 1.28597e-15 0)
(3 -9.64692e-16 0)
(3 -1.55026e-16 0)
(3 -4.02819e-16 0)
(3 1.42976e-15 0)
(3 -3.68264e-16 0)
(3 6.4941e-16 0)
(3 -5.80444e-16 0)
(3 -5.43436e-16 0)
(3 1.02621e-15 0)
(3 -4.84248e-16 0)
(3 8.90663e-17 0)
(3 -1.47442e-16 0)
(3 6.92631e-16 0)
(3 -2.20125e-16 0)
(3 -4.17125e-16 0)
(1.37201 0.150165 0)
(2.6196 -0.571991 0)
(2.99852 -0.299167 0)
(3.01093 -0.0421615 0)
(3.00297 -0.00221026 0)
(3.00109 -0.000542568 0)
(3.00003 -1.7753e-05 0)
(3 -1.82145e-07 0)
(3 -1.39675e-07 0)
(3 -1.08734e-08 0)
(3 -3.97197e-11 0)
(3 3.9943e-13 0)
(3 1.15312e-13 0)
(3 -1.59127e-15 0)
(3 -3.15918e-17 0)
(3 -5.52431e-16 0)
(3 -2.95098e-16 0)
(3 1.15054e-15 0)
(3 -9.58375e-17 0)
(3 -3.55634e-16 0)
(3 -5.34694e-16 0)
(3 1.2549e-15 0)
(3 9.46432e-18 0)
(3 -5.92543e-16 0)
(3 1.61788e-15 0)
(3 -1.30363e-15 0)
(3 1.81585e-16 0)
(3 1.75106e-16 0)
(3 3.56957e-16 0)
(3 -3.37715e-16 0)
(3 1.01157e-17 0)
(3 -9.5048e-16 0)
(3 1.05005e-15 0)
(3 6.65337e-17 0)
(3 3.35557e-16 0)
(3 1.85028e-16 0)
(3 -2.80826e-16 0)
(3 6.18113e-16 0)
(3 1.95611e-16 0)
(3 -5.93879e-16 0)
(1.35744 0.155397 0)
(2.58634 -0.586635 0)
(2.98507 -0.32216 0)
(3.00892 -0.0484959 0)
(3.00296 -0.00247466 0)
(3.00109 -0.000529908 0)
(3.00005 -2.44918e-05 0)
(3 -1.51826e-07 0)
(3 -1.42636e-07 0)
(3 -1.41373e-08 0)
(3 -6.81678e-11 0)
(3 1.77919e-13 0)
(3 9.88239e-14 0)
(3 -1.45247e-15 0)
(3 2.2434e-17 0)
(3 -9.59498e-16 0)
(3 -4.94416e-16 0)
(3 2.0347e-15 0)
(3 -7.5885e-17 0)
(3 -4.57841e-16 0)
(3 -9.09393e-16 0)
(3 5.65857e-16 0)
(3 3.30845e-16 0)
(3 4.68785e-16 0)
(3 2.70837e-16 0)
(3 -8.70632e-16 0)
(3 3.83284e-16 0)
(3 -7.10256e-16 0)
(3 1.3437e-17 0)
(3 -2.42307e-16 0)
(3 -2.44419e-16 0)
(3 7.54351e-16 0)
(3 3.08777e-16 0)
(3 7.2044e-16 0)
(3 -1.77504e-15 0)
(3 7.98654e-16 0)
(3 -3.8948e-16 0)
(3 3.20314e-16 0)
(3 -9.76487e-17 0)
(3 -6.56833e-16 0)
(1.34132 0.161582 0)
(2.54814 -0.603058 0)
(2.96867 -0.348794 0)
(3.00606 -0.0567479 0)
(3.00287 -0.00291101 0)
(3.00103 -0.000524979 0)
(3.00009 -3.93217e-05 0)
(3 -1.72254e-07 0)
(3 -1.48792e-07 0)
(3 -1.73916e-08 0)
(3 -9.77873e-11 0)
(3 6.74796e-13 0)
(3 1.82487e-13 0)
(3 2.68796e-15 0)
(3 -4.37411e-16 0)
(3 -4.25913e-16 0)
(3 -8.86474e-17 0)
(3 8.96554e-16 0)
(3 3.06015e-17 0)
(3 -1.42183e-15 0)
(3 -2.61567e-16 0)
(3 1.43454e-15 0)
(3 -2.91651e-16 0)
(3 1.58717e-16 0)
(3 -4.03977e-16 0)
(3 -1.98582e-16 0)
(3 -5.07615e-16 0)
(3 6.68515e-16 0)
(3 -1.12884e-15 0)
(3 9.0424e-16 0)
(3 -2.24135e-15 0)
(3 2.19903e-15 0)
(3 4.74019e-16 0)
(3 3.28567e-16 0)
(3 -8.96539e-16 0)
(3 1.80888e-16 0)
(3 6.15782e-16 0)
(3 -8.11528e-16 0)
(3 4.04851e-16 0)
(3 -9.17804e-16 0)
(1.3228 0.167571 0)
(2.50156 -0.618279 0)
(2.9469 -0.380811 0)
(3.00199 -0.0683304 0)
(3.00275 -0.00381624 0)
(3.00095 -0.000525384 0)
(3.00012 -6.27122e-05 0)
(3 -4.85605e-07 0)
(3 -1.97898e-07 0)
(3 -2.34157e-08 0)
(3 -1.59741e-10 0)
(3 -2.22767e-14 0)
(3 6.79674e-15 0)
(3 2.06495e-16 0)
(3 -6.75582e-16 0)
(3 7.28429e-16 0)
(3 -1.40028e-16 0)
(3 -2.49943e-18 0)
(3 -3.03791e-16 0)
(3 3.3751e-16 0)
(3 1.22199e-16 0)
(3 -5.19524e-16 0)
(3 7.70124e-17 0)
(3 -3.68758e-16 0)
(3 -5.92275e-16 0)
(3 2.20265e-16 0)
(3 8.19654e-16 0)
(3 -3.57705e-16 0)
(3 -2.53167e-16 0)
(3 9.07166e-16 0)
(3 -1.0006e-15 0)
(3 1.77997e-15 0)
(3 -8.03336e-16 0)
(3 4.72173e-16 0)
(3 5.11628e-16 0)
(3 -1.41937e-15 0)
(3 4.96379e-16 0)
(3 5.97292e-16 0)
(3 -7.33997e-16 0)
(3 1.08739e-17 0)
(1.30603 0.175048 0)
(2.44778 -0.635985 0)
(2.91692 -0.422184 0)
(2.99428 -0.0837199 0)
(3.00232 -0.00482344 0)
(3.00094 -0.000485622 0)
(3.00018 -7.16823e-05 0)
(3 -4.83034e-07 0)
(3 -1.5345e-07 0)
(3 -3.41391e-08 0)
(3 -3.90527e-10 0)
(3 -6.89073e-14 0)
(3 6.45629e-14 0)
(3 5.78848e-15 0)
(3 -1.08412e-15 0)
(3 -2.9871e-17 0)
(3 1.91215e-16 0)
(3 -4.96184e-16 0)
(3 8.32937e-16 0)
(3 4.48448e-16 0)
(3 3.52124e-16 0)
(3 -2.74496e-16 0)
(3 5.62227e-17 0)
(3 -7.46701e-16 0)
(3 -4.14867e-16 0)
(3 -1.66119e-16 0)
(3 1.2492e-15 0)
(3 3.18792e-16 0)
(3 -3.80549e-17 0)
(3 -8.40873e-16 0)
(3 -7.54984e-16 0)
(3 1.55743e-15 0)
(3 -1.02649e-15 0)
(3 7.27554e-16 0)
(3 1.08824e-16 0)
(3 -1.08797e-15 0)
(3 -3.96675e-16 0)
(3 8.63847e-16 0)
(3 2.46554e-16 0)
(3 -2.09517e-16 0)
(1.29305 0.183295 0)
(2.41073 -0.648424 0)
(2.89452 -0.464686 0)
(2.98556 -0.104176 0)
(3.00148 -0.00692736 0)
(3.00086 -0.000422349 0)
(3.00021 -7.42993e-05 0)
(3 -5.92331e-07 0)
(3 -1.52463e-07 0)
(3 -4.4017e-08 0)
(3 -7.78693e-10 0)
(3 -5.45477e-13 0)
(3 9.66234e-14 0)
(3 1.34553e-14 0)
(3 -1.30639e-15 0)
(3 -6.81619e-16 0)
(3 1.72426e-15 0)
(3 -9.68007e-16 0)
(3 -2.55609e-16 0)
(3 -1.59393e-16 0)
(3 1.02758e-15 0)
(3 -4.41925e-16 0)
(3 1.54277e-16 0)
(3 8.97536e-18 0)
(3 -6.95291e-17 0)
(3 -6.5893e-17 0)
(3 2.33258e-16 0)
(3 8.43908e-17 0)
(3 -2.16853e-16 0)
(3 -4.5122e-16 0)
(3 -3.88978e-16 0)
(3 1.34208e-15 0)
(3 -1.0817e-15 0)
(3 1.41658e-15 0)
(3 -3.3872e-16 0)
(3 -9.84154e-16 0)
(3 4.7677e-16 0)
(3 -3.39437e-16 0)
(3 7.77181e-16 0)
(3 1.38661e-16 0)
(1.27894 0.188826 0)
(2.41999 -0.64711 0)
(2.90004 -0.482742 0)
(2.98555 -0.11846 0)
(3.00057 -0.00951284 0)
(3.00064 -0.000473571 0)
(3.00017 -0.000108104 0)
(3 -2.97706e-06 0)
(3 -3.03215e-07 0)
(3 -6.97735e-08 0)
(3 -1.12062e-09 0)
(3 -9.95201e-13 0)
(3 1.16687e-13 0)
(3 1.88329e-14 0)
(3 -1.81453e-15 0)
(3 2.0322e-15 0)
(3 -5.43531e-16 0)
(3 4.16838e-16 0)
(3 -7.88378e-17 0)
(3 -9.5673e-17 0)
(3 -1.79413e-15 0)
(3 -2.02499e-16 0)
(3 5.41382e-16 0)
(3 1.00135e-15 0)
(3 -6.15072e-17 0)
(3 -2.1678e-16 0)
(3 -1.408e-16 0)
(3 -3.14905e-17 0)
(3 -1.66737e-16 0)
(3 -4.22809e-16 0)
(3 6.39709e-16 0)
(3 1.41394e-16 0)
(3 -1.32616e-16 0)
(3 1.15154e-17 0)
(3 -1.33493e-15 0)
(3 8.29979e-16 0)
(3 1.03241e-15 0)
(3 -1.06618e-15 0)
(3 1.59602e-16 0)
(3 2.18118e-16 0)
(1.49342 0.217182 0)
(2.94736 -0.339906 0)
(3.06314 -0.345972 0)
(3.01044 -0.107387 0)
(3.00039 -0.0105163 0)
(3.00024 -0.000435279 0)
(3.00002 -3.82291e-05 0)
(3 -1.65435e-06 0)
(3 -2.71879e-07 0)
(3 -3.72988e-08 0)
(3 -7.81781e-10 0)
(3 -1.32746e-12 0)
(3 5.90964e-14 0)
(3 1.02894e-14 0)
(3 -2.69222e-16 0)
(3 2.00839e-15 0)
(3 -1.36902e-15 0)
(3 9.14421e-16 0)
(3 -1.09939e-15 0)
(3 -4.34194e-16 0)
(3 1.65448e-16 0)
(3 6.93516e-16 0)
(3 -6.75914e-16 0)
(3 1.13678e-15 0)
(3 -4.64348e-16 0)
(3 -4.92499e-17 0)
(3 -4.7433e-16 0)
(3 -4.7296e-16 0)
(3 -3.28521e-16 0)
(3 1.21044e-15 0)
(3 2.86631e-16 0)
(3 -3.4647e-16 0)
(3 -1.96765e-16 0)
(3 -9.74822e-16 0)
(3 7.95104e-16 0)
(3 2.10349e-15 0)
(3 -2.92756e-16 0)
(3 -1.4925e-15 0)
(3 1.17732e-16 0)
(3 3.19306e-16 0)
(2.5486 0.322562 0)
(3.35689 0.147942 0)
(3.14951 -0.0207276 0)