/*--------------------------------*- C++ -*----------------------------------*\
  =========                 |
  \\      /  F ield         | OpenFOAM: The Open Source CFD Toolbox
   \\    /   O peration     | Website:  https://openfoam.org
    \\  /    A nd           | Version:  7
     \\/     M anipulation  |
\*---------------------------------------------------------------------------*/
FoamFile
{
    version     2.0;
    format      ascii;
    class       volScalarField;
    location    "7.1";
    object      p;
}
// * * * * * * * * * * * * * * * * * * * * * * * * * * * * * * * * * * * * * //

dimensions      [1 -1 -2 0 0 0 0];

internalField   nonuniform List<scalar> 
11200
(
0.194475
0.327106
0.464628
0.569651
0.659577
0.718426
0.747689
0.760971
0.765069
0.793535
0.831414
0.853879
0.881212
0.903899
0.906877
0.888628
0.875538
0.880466
0.902297
0.908835
0.901371
0.894041
0.892057
0.899952
0.90586
0.908942
0.914001
0.93481
0.945717
0.941699
0.0577956
0.0628168
0.0859885
0.148456
0.247888
0.39046
0.550143
0.711309
0.820817
0.917869
0.959757
0.947274
0.940065
0.903625
0.864733
0.861392
0.878496
0.907504
0.926638
0.906305
0.885618
0.880166
0.891453
0.909563
0.917953
0.926146
0.931933
0.936824
0.936206
0.940131
0.0605673
0.0606612
0.0607035
0.059868
0.0584156
0.0642203
0.0970309
0.1766
0.327001
0.498406
0.677653
0.807414
0.910257
0.905334
0.9011
0.904082
0.892687
0.888975
0.887297
0.888428
0.892639
0.890166
0.894638
0.910738
0.919864
0.923783
0.93273
0.947895
0.949983
0.948485
0.0590293
0.058948
0.0584998
0.0582138
0.0583591
0.0587566
0.0590451
0.0598856
0.0602544
0.0710825
0.128829
0.259947
0.451272
0.665806
0.8603
0.926697
0.919554
0.890276
0.863462
0.866746
0.890316
0.903259
0.911892
0.915328
0.919808
0.935111
0.93765
0.937927
0.942804
0.95064
0.0582884
0.0582313
0.0582528
0.0584523
0.0590053
0.0596899
0.0605612
0.0615
0.0619052
0.0616361
0.0610638
0.059908
0.0641192
0.132277
0.301451
0.541374
0.750764
0.823847
0.860778
0.879163
0.899999
0.901543
0.908843
0.910212
0.915673
0.931717
0.94859
0.949113
0.949741
0.955671
0.0591183
0.0591026
0.0592163
0.0595569
0.0601185
0.0607228
0.0610679
0.0612659
0.0611305
0.0607885
0.0601733
0.0593604
0.0584854
0.0582093
0.0584636
0.0886611
0.216112
0.461395
0.725527
0.847111
0.90493
0.900097
0.921912
0.915553
0.927313
0.935836
0.941095
0.943335
0.947052
0.957141
0.0592739
0.0594896
0.0598502
0.0602276
0.0606264
0.0607694
0.0606045
0.0603788
0.0600068
0.0593851
0.059064
0.0588439
0.0584027
0.05808
0.0583605
0.0592749
0.0596342
0.075038
0.185371
0.427472
0.698129
0.816599
0.907223
0.912136
0.941245
0.926521
0.936053
0.947216
0.958958
0.968158
0.0596715
0.0599641
0.0603314
0.0606132
0.0605714
0.0602747
0.0602138
0.0602056
0.0600047
0.059607
0.0599129
0.0608663
0.0608023
0.0594089
0.0590082
0.0595938
0.0609993
0.0626769
0.0641506
0.0763113
0.166657
0.411998
0.679668
0.807688
0.929421
0.930484
0.962971
0.950934
0.95751
0.963259
0.0594899
0.0600502
0.0606065
0.0607455
0.0606973
0.0606774
0.0610054
0.0617245
0.0617159
0.0617918
0.0626331
0.0651253
0.0678707
0.0684279
0.0689664
0.0702419
0.0734709
0.0756021
0.0757466
0.0754888
0.0777626
0.0868039
0.170363
0.419621
0.686326
0.809431
0.939341
0.958918
0.982193
0.972571
0.0599072
0.0608485
0.0609796
0.0609182
0.0611913
0.0622206
0.0636795
0.0654829
0.0661633
0.0661573
0.0668586
0.0692284
0.0727858
0.0764206
0.0799672
0.0826636
0.0854336
0.089255
0.0925727
0.0940552
0.0937683
0.092759
0.0944725
0.104577
0.192111
0.447471
0.704046
0.826879
0.953347
0.995277
0.0649464
0.0653734
0.0657992
0.0665153
0.0682188
0.0700713
0.0719999
0.0741311
0.0745333
0.0738422
0.0740545
0.0754907
0.0792366
0.084086
0.0874136
0.0896536
0.0927132
0.0978161
0.103523
0.108339
0.112615
0.114445
0.112763
0.110939
0.114319
0.129939
0.221112
0.477459
0.735254
0.89779
0.0807454
0.0812007
0.0816211
0.0822442
0.0826842
0.083225
0.0849666
0.0884732
0.0924128
0.0935044
0.0943531
0.0959882
0.0986821
0.101122
0.100996
0.101411
0.103238
0.107031
0.112071
0.117119
0.122341
0.12715
0.13088
0.131123
0.130525
0.133944
0.138302
0.156512
0.250009
0.646561
0.0962412
0.0970703
0.097617
0.0982566
0.0992086
0.10119
0.103691
0.107014
0.110857
0.111222
0.111375
0.112808
0.116835
0.122081
0.123524
0.124081
0.125234
0.12519
0.124711
0.125973
0.13039
0.136898
0.144038
0.151197
0.153505
0.153568
0.156537
0.162042
0.162968
0.261062
0.121629
0.123113
0.124536
0.125294
0.125274
0.125198
0.125297
0.125916
0.12852
0.129815
0.131002
0.132838
0.135114
0.139319
0.142841
0.14504
0.148509
0.152416
0.153418
0.153835
0.154656
0.156735
0.160793
0.166709
0.171561
0.174133
0.17584
0.179772
0.184025
0.18678
0.151559
0.152979
0.154424
0.154532
0.153544
0.153239
0.153911
0.15537
0.158105
0.161637
0.162697
0.161881
0.16158
0.16276
0.16518
0.166916
0.169471
0.174146
0.179094
0.183555
0.185743
0.185033
0.184123
0.185043
0.188867
0.194134
0.196669
0.198528
0.202025
0.206828
0.187003
0.188916
0.191135
0.191728
0.189814
0.186777
0.186509
0.187133
0.189037
0.191608
0.19321
0.195522
0.197892
0.200074
0.201215
0.200904
0.201099
0.202671
0.204354
0.206893
0.21023
0.212014
0.212523
0.213261
0.214771
0.217401
0.221312
0.222551
0.223284
0.226737
0.234305
0.236579
0.238989
0.239842
0.238392
0.233388
0.232038
0.232853
0.234973
0.238169
0.240271
0.240241
0.239631
0.239539
0.240268
0.242614
0.244922
0.244544
0.24242
0.240692
0.240927
0.242859
0.246032
0.247641
0.247636
0.246943
0.247142
0.2487
0.250087
0.252603
0.294776
0.297213
0.298998
0.29957
0.298113
0.291449
0.286939
0.286956
0.288537
0.291121
0.292091
0.291414
0.289757
0.28813
0.287032
0.286121
0.285309
0.285455
0.286681
0.287963
0.287758
0.286304
0.28473
0.28492
0.285837
0.285774
0.284999
0.284128
0.283525
0.282813
0.372694
0.374968
0.374871
0.37465
0.373428
0.364581
0.356881
0.358191
0.361111
0.360255
0.357097
0.354518
0.354463
0.354045
0.350845
0.346905
0.345354
0.344363
0.342383
0.338974
0.336126
0.334821
0.332714
0.329605
0.327068
0.324225
0.323385
0.322691
0.321831
0.319218
0.47403
0.472842
0.469181
0.468544
0.466687
0.455425
0.446621
0.448607
0.450495
0.44731
0.438538
0.433458
0.433444
0.432475
0.426846
0.419193
0.414992
0.411978
0.408971
0.404224
0.398022
0.393468
0.39004
0.385249
0.380358
0.376434
0.370434
0.366261
0.363952
0.358492
0.601167
0.597684
0.590294
0.588337
0.58295
0.567437
0.558689
0.561168
0.561877
0.554858
0.540108
0.533087
0.53252
0.529388
0.520217
0.509243
0.502552
0.496944
0.490342
0.482853
0.475001
0.466264
0.459224
0.452841
0.445296
0.439013
0.432196
0.423731
0.416512
0.404716
0.75889
0.751125
0.742167
0.737635
0.724671
0.70488
0.698085
0.701678
0.699591
0.685132
0.663429
0.65708
0.655968
0.648426
0.632534
0.619061
0.609217
0.600823
0.59046
0.577851
0.565397
0.554717
0.543325
0.531979
0.520679
0.507224
0.4975
0.487166
0.476878
0.461098
0.949671
0.940397
0.93216
0.917818
0.890448
0.868687
0.866523
0.871229
0.865823
0.843468
0.813857
0.808461
0.806218
0.791667
0.766458
0.751464
0.740145
0.726535
0.710064
0.692665
0.674821
0.65985
0.644298
0.626335
0.611186
0.59555
0.578586
0.562673
0.548639
0.525412
1.17454
1.16539
1.1544
1.13445
1.10053
1.0701
1.0635
1.0682
1.0627
1.03641
0.996006
0.987172
0.982485
0.960346
0.927457
0.909585
0.89447
0.874653
0.851207
0.826681
0.804867
0.782914
0.761496
0.738935
0.715293
0.694411
0.672478
0.650107
0.631726
0.600872
1.44379
1.43362
1.42005
1.40048
1.37347
1.33443
1.31305
1.30962
1.29781
1.26897
1.2211
1.20188
1.19058
1.16339
1.12401
1.09709
1.07396
1.04564
1.01574
0.984052
0.954418
0.926149
0.896816
0.86766
0.838378
0.809095
0.781825
0.753436
0.728494
0.689159
1.69591
1.68696
1.67835
1.66744
1.64752
1.627
1.60935
1.58935
1.56848
1.54378
1.50686
1.4738
1.44718
1.41355
1.37357
1.3344
1.29545
1.25594
1.21511
1.17458
1.13373
1.09472
1.05663
1.0178
0.980587
0.943509
0.907813
0.872359
0.841494
0.791436
1.75749
1.7564
1.75536
1.75481
1.75273
1.74837
1.74337
1.73852
1.7338
1.72724
1.71615
1.70217
1.68498
1.6608
1.63131
1.59969
1.56231
1.51921
1.47138
1.41969
1.36644
1.31221
1.25839
1.20545
1.1537
1.10418
1.05732
1.01098
0.971677
0.909229
1.68836
1.69814
1.71278
1.71977
1.72305
1.72584
1.72465
1.72172
1.72416
1.72486
1.72372
1.72492
1.72655
1.72559
1.72108
1.71587
1.70846
1.69655
1.67841
1.65207
1.61542
1.56891
1.51339
1.45125
1.38468
1.31653
1.25033
1.18539
1.13106
1.0481
1.40539
1.42297
1.44855
1.46659
1.48131
1.50776
1.52966
1.54436
1.56588
1.58619
1.6067
1.63078
1.64322
1.65708
1.67547
1.68586
1.692
1.69445
1.6942
1.69269
1.68934
1.68278
1.67026
1.64976
1.61491
1.5638
1.49814
1.4213
1.34807
1.23091
1.08638
1.09428
1.10269
1.11258
1.12822
1.14549
1.16273
1.18158
1.2048
1.23062
1.25853
1.2951
1.33044
1.367
1.40926
1.45464
1.49694
1.53566
1.57637
1.60586
1.63036
1.65077
1.6608
1.66027
1.65925
1.6545
1.64135
1.61491
1.57287
1.46299
1.00389
1.00454
1.00534
1.00624
1.00758
1.00945
1.0118
1.01473
1.01849
1.02347
1.02983
1.03882
1.05096
1.06572
1.08564
1.11139
1.14433
1.18424
1.2318
1.28905
1.348
1.41174
1.47483
1.5289
1.57456
1.60357
1.62388
1.62388
1.62202
1.59913
1.00004
1.00005
1.00006
1.00008
1.0001
1.00013
1.00018
1.00024
1.00034
1.00048
1.00069
1.00102
1.00156
1.00239
1.0037
1.00591
1.00942
1.01518
1.02427
1.0387
1.06085
1.09243
1.13798
1.19648
1.26807
1.3467
1.42693
1.49672
1.54821
1.58059
1
1
1
1
1
1
1
1
1
1
1
1.00001
1.00001
1.00002
1.00004
1.00007
1.00013
1.00025
1.00051
1.00104
1.00215
1.00445
1.00915
1.0184
1.03558
1.06554
1.11278
1.18196
1.2617
1.39632
1
1
1
1
1
1
1
1
1
1
1
1
1
1
1
1
1
1
1
1.00001
1.00002
1.00005
1.00013
1.00036
1.00097
1.00266
1.00684
1.01736
1.03648
1.11324
1
1
1
1
1
1
1
1
1
1
1
1
1
1
1
1
1
1
1
1
1
1
1
1
1.00001
1.00003
1.0001
1.00038
1.00114
1.01004
0.0572199
0.0582121
0.0600459
0.0588759
0.0582733
0.0591964
0.0590509
0.0592291
0.0588146
0.0587676
0.0645
0.0802358
0.0955631
0.119878
0.149795
0.185416
0.232347
0.292743
0.370198
0.472098
0.600773
0.761522
0.957437
1.18601
1.46171
1.71177
1.7584
1.6786
1.38279
1.07376
1.00315
1.00004
1
1
1
0.0576021
0.0590852
0.0593046
0.0579032
0.0583764
0.0594049
0.0588701
0.058341
0.0577142
0.0584681
0.06668
0.0824283
0.0991706
0.122996
0.153384
0.190645
0.239978
0.304668
0.387249
0.490739
0.621457
0.783717
0.982443
1.22161
1.51383
1.74085
1.7597
1.66226
1.33526
1.05175
1.00168
1.00002
1
1
1
0.0581313
0.0588212
0.0578116
0.0566407
0.058467
0.0594626
0.0587903
0.0576258
0.0570353
0.0586388
0.0678262
0.0822762
0.101062
0.124612
0.156416
0.197572
0.252696
0.32411
0.414397
0.526718
0.665157
0.830524
1.0241
1.27666
1.57487
1.75994
1.76146
1.64973
1.28375
1.03569
1.00096
1.00001
1
1
1
0.0574877
0.0579504
0.0567822
0.0559804
0.0587663
0.0598686
0.0591155
0.0573483
0.0568641
0.0592415
0.0703196
0.0821062
0.104082
0.132013
0.169131
0.214284
0.272201
0.345919
0.439717
0.55887
0.707626
0.889862
1.10508
1.36269
1.63413
1.77086
1.76181
1.60212
1.22693
1.02383
1.00054
1
1
1
1
0.0568002
0.0570115
0.0554601
0.0551239
0.059361
0.0607145
0.059715
0.0573435
0.0573878
0.0605249
0.0726115
0.087462
0.110789
0.140999
0.177899
0.222013
0.28025
0.355392
0.452021
0.575273
0.730058
0.920504
1.14647
1.4078
1.67034
1.77658
1.74861
1.5434
1.18377
1.01621
1.00031
1
1
1
1
0.0561058
0.0563411
0.0547603
0.0550459
0.0603066
0.0616243
0.0602178
0.0576538
0.0588562
0.0634267
0.0744792
0.0926989
0.11481
0.144074
0.18109
0.226158
0.285951
0.36306
0.46169
0.58819
0.747621
0.944805
1.17715
1.44502
1.70451
1.78077
1.7375
1.50953
1.14982
1.0105
1.00017
1
1
1
1
0.0557024
0.0560019
0.0548207
0.0555439
0.0612859
0.0623814
0.0606184
0.0582011
0.0597586
0.0664181
0.0754386
0.0947021
0.116281
0.145688
0.183685
0.23029
0.291668
0.372772
0.476644
0.608205
0.772493
0.971453
1.21295
1.49955
1.74339
1.7846
1.73648
1.47361
1.11191
1.00611
1.00008
1
1
1
1
0.0556298
0.0559734
0.055108
0.05602
0.0617839
0.0628199
0.0609346
0.0585242
0.0600542
0.0676951
0.0753223
0.0954412
0.117226
0.147196
0.188853
0.24403
0.316226
0.409731
0.526717
0.67039
0.845639
1.05212
1.29949
1.57996
1.7708
1.78659
1.72586
1.40085
1.07685
1.00343
1.00004
1
1
1
1
0.0559003
0.0561342
0.0553199
0.0563273
0.0616866
0.0629357
0.0610322
0.0586309
0.059998
0.0681693
0.075284
0.0962442
0.120861
0.158323
0.208776
0.268461
0.343181
0.43891
0.559695
0.710411
0.895043
1.11582
1.37158
1.63239
1.7834
1.78562
1.67103
1.32973
1.05504
1.00204
1.00002
1
1
1
1
0.0571214
0.0565496
0.0555124
0.0563542
0.0607865
0.0624632
0.0605936
0.0583822
0.0597969
0.0683465
0.0802815
0.104103
0.13398
0.172768
0.220131
0.278551
0.354237
0.452204
0.577095
0.733293
0.925231
1.15239
1.41146
1.66938
1.7914
1.77821
1.63112
1.28571
1.03957
1.00116
1.00001
1
1
1
1
0.0586479
0.0566966
0.0558989
0.0565654
0.059869
0.0606805
0.0590043
0.0581378
0.0600049
0.0693012
0.0874277
0.111843
0.139954
0.177022
0.223856
0.282926
0.361273
0.461791
0.590483
0.752404
0.951355
1.18746
1.45757
1.71371
1.79834
1.77502
1.60653
1.23863
1.025
1.00058
1.00001
1
1
1
1
0.0593628
0.0567202
0.0574023
0.057966
0.059667
0.05905
0.0570264
0.0590234
0.0630633
0.0721952
0.0916293
0.114277
0.142052
0.178749
0.226777
0.286225
0.369328
0.479741
0.621117
0.797373
1.00823
1.25331
1.5349
1.7594
1.80371
1.77829
1.57384
1.17647
1.01452
1.00028
1
1
1
1
1
0.0597047
0.0575527
0.0591745
0.0595809
0.0604636
0.0582253
0.0558813
0.0602125
0.0659518
0.0732235
0.0934357
0.115162
0.143705
0.18067
0.236371
0.31363
0.412113
0.53915
0.694544
0.881397
1.10275
1.35566
1.61416
1.78614
1.80634
1.76324
1.48453
1.12773
1.00873
1.00014
1
1
1
1
1
0.059894
0.0585848
0.059907
0.0606754
0.0611592
0.0575496
0.0548499
0.0598084
0.0663672
0.0735431
0.0944176
0.116187
0.150355
0.200481
0.269436
0.350277
0.449916
0.576673
0.734404
0.926637
1.15424
1.41065
1.65811
1.79935
1.80598
1.71864
1.41617
1.09534
1.00515
1.00007
1
1
1
1
1
0.0598286
0.059218
0.0600592
0.0614367
0.0607989
0.0562936
0.05374
0.057532
0.0652611
0.0749893
0.0986981
0.129809
0.171166
0.222919
0.286232
0.364985
0.465981
0.595974
0.758963
0.95868
1.19511
1.45772
1.69964
1.80913
1.80001
1.68759
1.36866
1.06791
1.0028
1.00003
1
1
1
1
1
0.059623
0.0597977
0.0601555
0.0620536
0.0588074
0.0539748
0.0528044
0.0564014
0.0646956
0.0829909
0.110011
0.142382
0.180201
0.229682
0.292123
0.371357
0.477602
0.612338
0.783784
0.996622
1.24705
1.52316
1.75053
1.81605
1.79739
1.66684
1.30967
1.04306
1.00141
1.00001
1
1
1
1
1
0.0598847
0.0601846
0.0603073
0.0625044
0.0568098
0.0523892
0.0525026
0.0568911
0.0670134
0.0889047
0.114182
0.145966
0.183056
0.231769
0.296715
0.380152
0.500026
0.659444
0.856972
1.09302
1.35269
1.61324
1.78996
1.82015
1.80131
1.63004
1.23085
1.02547
1.00066
1.00001
1
1
1
1
1
0.059839
0.0592092
0.0586628
0.062092
0.0564622
0.0522554
0.0537687
0.0594512
0.0683356
0.0903871
0.114986
0.146997
0.185034
0.235698
0.31854
0.434104
0.573641
0.745595
0.94808
1.18058
1.43429
1.67032
1.80862
1.82202
1.78977
1.53757
1.17074
1.01524
1.00032
1
1
1
1
1
1
0.0588593
0.0569855
0.057162
0.060784
0.0567447
0.0536357
0.055125
0.0601762
0.0686604
0.090305
0.114792
0.148796
0.197319
0.271615
0.369913
0.483149
0.620202
0.790611
0.995288
1.2316
1.48649
1.71015
1.81844
1.82099
1.74637
1.46968
1.12804
1.0088
1.00015
1
1
1
1
1
1
0.056912
0.0555536
0.0574654
0.0608
0.0580432
0.0561416
0.0553217
0.0592789
0.0703273
0.0935804
0.125154
0.171942
0.231078
0.303374
0.392686
0.503988
0.645311
0.821971
1.03671
1.28508
1.54936
1.75584
1.82514
1.81341
1.71215
1.41492
1.08939
1.00464
1.00007
1
1
1
1
1
1
0.0548808
0.0554147
0.0578648
0.0611135
0.0590691
0.0575358
0.055267
0.0572558
0.0756046
0.105389
0.145386
0.193004
0.246177
0.314488
0.403502
0.516728
0.669763
0.86564
1.10802
1.37926
1.63698
1.79747
1.8291
1.80862
1.68905
1.34557
1.05655
1.00227
1.00003
1
1
1
1
1
1
0.0532831
0.0556376
0.0583876
0.0613969
0.0590212
0.057869
0.0558142
0.0586711
0.0848848
0.115911
0.153301
0.198029
0.250767
0.319597
0.41663
0.553756
0.739755
0.971783
1.22907
1.48812
1.70563
1.81983
1.83164
1.81246
1.65598
1.26036
1.0334
1.00103
1.00001
1
1
1
1
1
1
0.0527695
0.0565519
0.0599672
0.0610389
0.0565312
0.0565661
0.0579196
0.0650059
0.0942093
0.120326
0.154243
0.198087
0.25416
0.339733
0.475638
0.645257
0.840366
1.06372
1.30888
1.55322
1.74619
1.82955
1.83377
1.8025
1.55924
1.1896
1.01883
1.00045
1
1
1
1
1
1
1
0.0542022
0.0588358
0.0608142
0.0585478
0.0537102
0.0538687
0.0598336
0.0712381
0.0971295
0.121177
0.154321
0.207056
0.289742
0.405893
0.545616
0.704092
0.894242
1.11943
1.3705
1.61374
1.78307
1.83396
1.83221
1.75359
1.47887
1.13607
1.01021
1.0002
1
1
1
1
1
1
1
0.0572815
0.0600863
0.0605971
0.0565789
0.0524671
0.0525959
0.0620845
0.0745705
0.0963905
0.122993
0.17495
0.251862
0.341085
0.446206
0.577226
0.738827
0.94186
1.18551
1.45562
1.68978
1.81398
1.83649
1.81923
1.71273
1.41669
1.09346
1.00533
1.00008
1
1
1
1
1
1
1
0.0594829
0.0602316
0.0598911
0.0556525
0.0525599
0.0525945
0.0629692
0.0761046
0.095268
0.140226
0.208972
0.28333
0.363245
0.466111
0.603926
0.783998
1.02397
1.30526
1.56806
1.75478
1.83078
1.83813
1.81067
1.68457
1.34315
1.05754
1.00243
1.00003
1
1
1
1
1
1
1
0.0609625
0.0603018
0.0592009
0.0552758
0.0548345
0.0554035
0.0620372
0.0768576
0.105091
0.1664
0.228924
0.293987
0.374409
0.489438
0.665281
0.897113
1.15808
1.42094
1.64607
1.79228
1.83836
1.83995
1.81415
1.64703
1.25001
1.03124
1.00097
1.00001
1
1
1
1
1
1
1
0.0623341
0.0604963
0.0587391
0.055108
0.0559528
0.0580002
0.0602707
0.0788753
0.125874
0.183223
0.234026
0.297599
0.400989
0.570101
0.781199
1.00788
1.25177
1.49863
1.70369
1.81801
1.84121
1.8409
1.80312
1.53911
1.17122
1.01613
1.00039
1
1
1
1
1
1
1
1
0.0639354
0.059967
0.057742
0.0541048
0.0554204
0.0586877
0.0601148
0.0923962
0.143246
0.187597
0.234333
0.335147
0.489403
0.664698
0.859513
1.08063
1.33005
1.58116
1.76183
1.8343
1.84193
1.83364
1.73773
1.44273
1.11567
1.0081
1.00015
1
1
1
1
1
1
1
1
0.065867
0.0599888
0.0572936
0.0525518
0.0520266
0.0563872
0.0657073
0.11151
0.152163
0.18764
0.271824
0.416663
0.559653
0.719934
0.919332
1.16474
1.44261
1.67961
1.80577
1.84113
1.8406
1.81445
1.68443
1.37098
1.0748
1.00386
1.00006
1
1
1
1
1
1
1
1
0.0677014
0.061601
0.058001
0.0525301
0.0501986
0.0538511
0.0799549
0.122252
0.155037
0.209411
0.342509
0.470404
0.601824
0.774889
1.01785
1.30446
1.56871
1.75008
1.82913
1.84331
1.84013
1.80031
1.64478
1.29032
1.04171
1.00155
1.00002
1
1
1
1
1
1
1
1
0.0692866
0.0631788
0.058541
0.0539206
0.0501893
0.0555673
0.093919
0.125907
0.158816
0.271762
0.38982
0.502459
0.654416
0.887542
1.17132
1.4382
1.65516
1.79235
1.84125
1.8449
1.84216
1.80167
1.5877
1.19256
1.01967
1.00053
1.00001
1
1
1
1
1
1
1
1
0.0701415
0.0636069
0.0585238
0.054187
0.0531365
0.0653407
0.103973
0.129816
0.202628
0.318669
0.416391
0.55226
0.77362
1.03362
1.29485
1.53616
1.72348
1.82165
1.84597
1.84636
1.83961
1.77465
1.4574
1.11701
1.00873
1.00018
1
1
1
1
1
1
1
1
1
0.0690603
0.0624128
0.0560148
0.0494516
0.0583617
0.0759937
0.107747
0.140722
0.253427
0.348793
0.455168
0.669382
0.903577
1.14627
1.40119
1.63502
1.78444
1.8381
1.84669
1.84569
1.82368
1.6789
1.34899
1.07106
1.00379
1.00006
1
1
1
1
1
1
1
1
1
0.0657733
0.0599045
0.0541887
0.0467373
0.0608873
0.0779789
0.109159
0.189714
0.288954
0.375659
0.563832
0.788162
1.00994
1.26227
1.53144
1.72753
1.82156
1.8453
1.8459
1.83919
1.7959
1.6145
1.27234
1.04023
1.00154
1.00002
1
1
1
1
1
1
1
1
1
0.0624104
0.0574378
0.0536567
0.0460466
0.0609302
0.0813703
0.121598
0.229063
0.316594
0.456314
0.67619
0.891608
1.13662
1.41602
1.65465
1.78534
1.83767
1.84861
1.84647
1.83504
1.7762
1.5559
1.18669
1.01835
1.0005
1.00001
1
1
1
1
1
1
1
1
1
0.0601721
0.0552973
0.0557088
0.050505
0.0590616
0.0994352
0.174453
0.264978
0.36063
0.573428
0.784508
1.02287
1.30451
1.55806
1.73934
1.8182
1.84375
1.84999
1.84956
1.8389
1.76565
1.44939
1.10107
1.00677
1.00014
1
1
1
1
1
1
1
1
1
1
0.0583845
0.0520173
0.0571652
0.059358
0.0646448
0.12383
0.210042
0.30088
0.476429
0.684744
0.908719
1.19937
1.46294
1.66641
1.79776
1.83649
1.8463
1.8501
1.85018
1.83378
1.67345
1.29865
1.05009
1.00238
1.00004
1
1
1
1
1
1
1
1
1
1
0.05765
0.0493618
0.0534973
0.0634713
0.0856569
0.153579
0.245841
0.36978
0.588578
0.807159
1.09299
1.37085
1.59674
1.75061
1.83307
1.84494
1.84808
1.84805
1.84195
1.78528
1.54778
1.20346
1.02554
1.00083
1.00001
1
1
1
1
1
1
1
1
1
1
0.0593921
0.046359
0.0490697
0.0660438
0.11494
0.188066
0.300757
0.504918
0.720127
0.983744
1.27696
1.52779
1.71014
1.80345
1.84863
1.84848
1.84956
1.84731
1.8252
1.7315
1.46275
1.13401
1.01098
1.00026
1
1
1
1
1
1
1
1
1
1
1
0.0639373
0.0424149
0.0460508
0.066567
0.145073
0.246015
0.404285
0.633485
0.879488
1.18849
1.45597
1.66809
1.78528
1.82835
1.85411
1.85016
1.84981
1.84999
1.81578
1.68879
1.3607
1.06626
1.00349
1.00006
1
1
1
1
1
1
1
1
1
1
1
0.0626214
0.0366233
0.0502326
0.0900839
0.179855
0.333098
0.555968
0.79825
1.10284
1.38863
1.61999
1.76688
1.82361
1.83798
1.85598
1.84999
1.84802
1.84981
1.81698
1.61085
1.21238
1.02491
1.0009
1.00001
1
1
1
1
1
1
1
1
1
1
1
0.0575565
0.0328911
0.0626785
0.13689
0.258554
0.461034
0.727418
1.02017
1.32539
1.57604
1.74164
1.8217
1.83821
1.84107
1.8567
1.84483
1.84619
1.839
1.76328
1.43812
1.11047
1.00901
1.00022
1
1
1
1
1
1
1
1
1
1
1
1
0.0388981
0.0374639
0.0791328
0.197274
0.398602
0.655337
0.950635
1.27599
1.53677
1.72002
1.81183
1.84472
1.84144
1.84163
1.85748
1.84085
1.84085
1.81137
1.6513
1.31104
1.05903
1.00312
1.00005
1
1
1
1
1
1
1
1
1
1
1
1
0.0268567
0.0471801
0.131608
0.308106
0.576843
0.913362
1.24276
1.51187
1.70247
1.80265
1.84351
1.84985
1.84195
1.84135
1.85904
1.84036
1.84205
1.7814
1.56136
1.20977
1.02479
1.00083
1.00001
1
1
1
1
1
1
1
1
1
1
1
1
0.0170529
0.0792894
0.229218
0.515718
0.871937
1.21923
1.50868
1.69658
1.79745
1.83933
1.85325
1.85042
1.83935
1.84099
1.86105
1.84518
1.84421
1.76
1.43556
1.09667
1.0065
1.00015
1
1
1
1
1
1
1
1
1
1
1
1
1
0.00785348
0.116746
0.429772
0.851953
1.23804
1.52453
1.70264
1.79893
1.83728
1.85114
1.85448
1.84805
1.83792
1.84126
1.86207
1.84897
1.82177
1.64304
1.24491
1.03146
1.00128
1.00002
1
1
1
1
1
1
1
1
1
1
1
1
1
0.0302928
0.298334
0.824398
1.26043
1.5565
1.72912
1.80748
1.83786
1.84887
1.85364
1.85341
1.84439
1.83723
1.84503
1.86287
1.8457
1.75133
1.45666
1.12182
1.01023
1.00025
1
1
1
1
1
1
1
1
1
1
1
1
1
1
0.20682
0.744254
1.29369
1.61148
1.76406
1.82295
1.84109
1.84693
1.85093
1.85347
1.85162
1.84218
1.83807
1.85138
1.86103
1.81162
1.66701
1.31447
1.0538
1.00243
1.00004
1
1
1
1
1
1
1
1
1
1
1
1
1
1
0.804518
1.35546
1.69424
1.81053
1.84183
1.84766
1.84677
1.8475
1.84998
1.85288
1.85046
1.84219
1.8403
1.85567
1.85847
1.77463
1.55364
1.15706
1.01166
1.00018
1
1
1
1
1
1
1
1
1
1
1
1
1
1
1
1.84754
1.84893
1.85156
1.85324
1.85232
1.84957
1.8463
1.84537
1.84886
1.85328
1.85071
1.84508
1.84211
1.85704
1.84707
1.71326
1.35223
1.03746
0.999509
0.999936
0.999999
1
1
1
1
1
1
1
1
1
1
1
1
1
1
1.84457
1.8474
1.85117
1.85359
1.85344
1.85082
1.84507
1.84315
1.84615
1.8549
1.85629
1.85179
1.83849
1.84177
1.83806
1.68288
1.30002
1.0432
1.00139
1.00001
1
1
1
1
1
1
1
1
1
1
1
1
1
1
1
1.84366
1.84553
1.85012
1.85347
1.85362
1.85168
1.84555
1.8427
1.8443
1.85398
1.85794
1.85815
1.83661
1.82723
1.81662
1.60973
1.20805
1.01483
1.0002
1
1
1
1
1
1
1
1
1
1
1
1
1
1
1
1
1.8438
1.84498
1.84857
1.8518
1.853
1.85172
1.84598
1.84266
1.84326
1.85197
1.85844
1.86113
1.83953
1.8112
1.80017
1.55451
1.13504
1.00679
1.00008
1
1
1
1
1
1
1
1
1
1
1
1
1
1
1
1
1.84463
1.84507
1.84752
1.84925
1.85083
1.85096
1.84735
1.84361
1.84294
1.8486
1.85749
1.86187
1.84644
1.80643
1.77622
1.43766
1.07769
1.00271
1.00002
1
1
1
1
1
1
1
1
1
1
1
1
1
1
1
1
1.84867
1.84736
1.84716
1.84732
1.84849
1.85026
1.85035
1.84702
1.84347
1.84399
1.85206
1.8598
1.85036
1.80438
1.72565
1.33102
1.04361
1.00103
1.00001
1
1
1
1
1
1
1
1
1
1
1
1
1
1
1
1
1.85312
1.8506
1.84769
1.84629
1.84651
1.84998
1.85308
1.85191
1.84524
1.84078
1.84626
1.85889
1.85203
1.7923
1.64822
1.2374
1.02029
1.00033
1
1
1
1
1
1
1
1
1
1
1
1
1
1
1
1
1
1.85529
1.85254
1.84885
1.84583
1.84533
1.84912
1.85456
1.85537
1.84883
1.83915
1.8408
1.85944
1.85381
1.783
1.55955
1.15532
1.00881
1.00011
1
1
1
1
1
1
1
1
1
1
1
1
1
1
1
1
1
1.85579
1.85332
1.84992
1.84604
1.84485
1.84781
1.85487
1.85694
1.85227
1.83784
1.83549
1.8539
1.854
1.77669
1.46421
1.09358
1.0036
1.00003
1
1
1
1
1
1
1
1
1
1
1
1
1
1
1
1
1
1.85476
1.85321
1.85032
1.84683
1.84505
1.84664
1.85361
1.85727
1.85478
1.83873
1.83056
1.84225
1.84266
1.71848
1.35927
1.04913
1.00126
1.00001
1
1
1
1
1
1
1
1
1
1
1
1
1
1
1
1
1
1.84981
1.85081
1.84981
1.84863
1.84575
1.84578
1.85052
1.85656
1.85593
1.84403
1.83018
1.83754
1.83043
1.64781
1.25884
1.02369
1.00042
1
1
1
1
1
1
1
1
1
1
1
1
1
1
1
1
1
1
1.84517
1.84783
1.84932
1.85024
1.84741
1.84544
1.84534
1.85138
1.85521
1.85113
1.83721
1.8364
1.82589
1.5745
1.16799
1.01028
1.00013
1
1
1
1
1
1
1
1
1
1
1
1
1
1
1
1
1
1
1.84308
1.84613
1.84929
1.85179
1.84979
1.84558
1.84225
1.84462
1.85221
1.85817
1.84658
1.8256
1.79166
1.46707
1.09252
1.00366
1.00003
1
1
1
1
1
1
1
1
1
1
1
1
1
1
1
1
1
1
1.84276
1.84559
1.84908
1.85269
1.8518
1.84714
1.8414
1.84009
1.84948
1.86182
1.85345
1.80855
1.71713
1.3566
1.04977
1.00129
1.00001
1
1
1
1
1
1
1
1
1
1
1
1
1
1
1
1
1
1
1.84485
1.84594
1.84898
1.85293
1.85338
1.85078
1.84123
1.83749
1.845
1.8636
1.85605
1.79933
1.65612
1.25927
1.02317
1.0004
1
1
1
1
1
1
1
1
1
1
1
1
1
1
1
1
1
1
1
1.85025
1.8484
1.84912
1.85182
1.85385
1.85371
1.84448
1.83641
1.83983
1.86032
1.85501
1.79205
1.57326
1.15542
1.00891
1.00011
1
1
1
1
1
1
1
1
1
1
1
1
1
1
1
1
1
1
1
1.85438
1.85084
1.84903
1.85011
1.85361
1.85461
1.84785
1.83774
1.83794
1.85436
1.84533
1.74187
1.45435
1.08804
1.00334
1.00003
1
1
1
1
1
1
1
1
1
1
1
1
1
1
1
1
1
1
1
1.85616
1.85181
1.84854
1.8472
1.85164
1.85479
1.85243
1.84348
1.83963
1.85457
1.8432
1.69677
1.34241
1.04412
1.00105
1.00001
1
1
1
1
1
1
1
1
1
1
1
1
1
1
1
1
1
1
1
1.8564
1.85206
1.84752
1.84446
1.84674
1.85297
1.85482
1.84999
1.84098
1.84972
1.84153
1.63954
1.21978
1.01734
1.00028
1
1
1
1
1
1
1
1
1
1
1
1
1
1
1
1
1
1
1
1
1.8532
1.85064
1.84666
1.84351
1.84253
1.84859
1.8542
1.85724
1.84006
1.82669
1.80416
1.52182
1.12757
1.00646
1.00007
1
1
1
1
1
1
1
1
1
1
1
1
1
1
1
1
1
1
1
1
1.84748
1.84849
1.84658
1.84377
1.84043
1.8425
1.85213
1.86143
1.84985
1.80918
1.74698
1.4153
1.06941
1.00214
1.00002
1
1
1
1
1
1
1
1
1
1
1
1
1
1
1
1
1
1
1
1
1.84347
1.84712
1.84794
1.84676
1.83982
1.83744
1.84607
1.86207
1.85581
1.80579
1.69277
1.28996
1.02878
1.00057
1
1
1
1
1
1
1
1
1
1
1
1
1
1
1
1
1
1
1
1
1
1.84131
1.84674
1.85169
1.85195
1.84229
1.83534
1.84011
1.85892
1.85438
1.79364
1.59438
1.17014
1.01083
1.00014
1
1
1
1
1
1
1
1
1
1
1
1
1
1
1
1
1
1
1
1
1
1.84078
1.84639
1.85338
1.85529
1.84793
1.83685
1.83843
1.85543
1.84835
1.74603
1.46751
1.09495
1.00369
1.00003
1
1
1
1
1
1
1
1
1
1
1
1
1
1
1
1
1
1
1
1
1
1.84262
1.84731
1.85391
1.85624
1.85292
1.84221
1.83946
1.85634
1.84968
1.70771
1.33631
1.04106
1.00096
1.00001
1
1
1
1
1
1
1
1
1
1
1
1
1
1
1
1
1
1
1
1
1
1.84703
1.84892
1.8539
1.85666
1.8559
1.85051
1.83942
1.84501
1.84457
1.62782
1.19871
1.01451
1.00023
1
1
1
1
1
1
1
1
1
1
1
1
1
1
1
1
1
1
1
1
1
1
1.85064
1.84973
1.84986
1.85232
1.85594
1.86008
1.84191
1.82464
1.79527
1.49024
1.10907
1.00479
1.00005
1
1
1
1
1
1
1
1
1
1
1
1
1
1
1
1
1
1
1
1
1
1
1.85287
1.84897
1.84304
1.84066
1.85038
1.86378
1.85692
1.81642
1.73449
1.36581
1.04861
1.00124
1.00001
1
1
1
1
1
1
1
1
1
1
1
1
1
1
1
1
1
1
1
1
1
1
1.85409
1.84711
1.83793
1.83215
1.83928
1.8629
1.86328
1.81805
1.65253
1.21523
1.01609
1.00026
1
1
1
1
1
1
1
1
1
1
1
1
1
1
1
1
1
1
1
1
1
1
1
1.85375
1.84612
1.83668
1.82872
1.83186
1.85617
1.86102
1.78219
1.51094
1.11302
1.00512
1.00005
1
1
1
1
1
1
1
1
1
1
1
1
1
1
1
1
1
1
1
1
1
1
1
1.85008
1.84515
1.83804
1.83213
1.83099
1.85384
1.85689
1.7242
1.36748
1.04947
1.00125
1.00001
1
1
1
1
1
1
1
1
1
1
1
1
1
1
1
1
1
1
1
1
1
1
1
1.84639
1.84347
1.84359
1.84225
1.83262
1.85461
1.85977
1.64812
1.20909
1.01514
1.00024
1
1
1
1
1
1
1
1
1
1
1
1
1
1
1
1
1
1
1
1
1
1
1
1
1.84481
1.84218
1.84811
1.85735
1.84643
1.84358
1.82032
1.48362
1.09772
1.00406
1.00004
1
1
1
1
1
1
1
1
1
1
1
1
1
1
1
1
1
1
1
1
1
1
1
1
1.84362
1.84022
1.84843
1.87232
1.87572
1.83087
1.72814
1.32981
1.03996
1.00091
1.00001
1
1
1
1
1
1
1
1
1
1
1
1
1
1
1
1
1
1
1
1
1
1
1
1
1.83965
1.83651
1.83854
1.88159
1.89238
1.83277
1.61373
1.17682
1.01074
1.00015
1
1
1
1
1
1
1
1
1
1
1
1
1
1
1
1
1
1
1
1
1
1
1
1
1
1.83356
1.8342
1.83388
1.88446
1.89536
1.79769
1.43384
1.07094
1.00239
1.00002
1
1
1
1
1
1
1
1
1
1
1
1
1
1
1
1
1
1
1
1
1
1
1
1
1
1.82689
1.83706
1.83776
1.87776
1.886
1.67795
1.2604
1.02375
1.00045
1
1
1
1
1
1
1
1
1
1
1
1
1
1
1
1
1
1
1
1
1
1
1
1
1
1
1.82135
1.84801
1.86117
1.87013
1.85687
1.54155
1.12162
1.00551
1.00006
1
1
1
1
1
1
1
1
1
1
1
1
1
1
1
1
1
1
1
1
1
1
1
1
1
1
1.816
1.85931
1.89476
1.86202
1.77127
1.33823
1.03731
1.00093
1.00001
1
1
1
1
1
1
1
1
1
1
1
1
1
1
1
1
1
1
1
1
1
1
1
1
1
1
1.81488
1.87509
1.91385
1.84151
1.60337
1.16381
1.00986
1.00013
1
1
1
1
1
1
1
1
1
1
1
1
1
1
1
1
1
1
1
1
1
1
1
1
1
1
1
1.83998
1.90345
1.92387
1.78081
1.4099
1.05886
1.00177
1.00002
1
1
1
1
1
1
1
1
1
1
1
1
1
1
1
1
1
1
1
1
1
1
1
1
1
1
1
1.89217
1.918
1.92474
1.6642
1.19733
1.0133
1.00022
1
1
1
1
1
1
1
1
1
1
1
1
1
1
1
1
1
1
1
1
1
1
1
1
1
1
1
1
1.93964
1.91069
1.85543
1.42108
1.06448
1.00226
1.00002
1
1
1
1
1
1
1
1
1
1
1
1
1
1
1
1
1
1
1
1
1
1
1
1
1
1
1
1
2.04263
1.82469
1.68199
1.21294
1.017
1.0003
1
1
1
1
1
1
1
1
1
1
1
1
1
1
1
1
1
1
1
1
1
1
1
1
1
1
1
1
1
2.13693
1.75383
1.43471
1.07205
1.00283
1.00004
1
1
1
1
1
1
1
1
1
1
1
1
1
1
1
1
1
1
1
1
1
1
1
1
1
1
1
1
1
2.1639
1.61399
1.20283
1.01719
1.0004
1
1
1
1
1
1
1
1
1
1
1
1
1
1
1
1
1
1
1
1
1
1
1
1
1
1
1
1
1
1
2.03004
1.40162
1.08287
1.00396
1.00006
1
1
1
1
1
1
1
1
1
1
1
1
1
1
1
1
1
1
1
1
1
1
1
1
1
1
1
1
1
1
1.81986
1.23047
1.02296
1.00057
1.00001
1
1
1
1
1
1
1
1
1
1
1
1
1
1
1
1
1
1
1
1
1
1
1
1
1
1
1
1
1
1
1.53339
1.08919
1.00442
1.00006
1
1
1
1
1
1
1
1
1
1
1
1
1
1
1
1
1
1
1
1
1
1
1
1
1
1
1
1
1
1
1
1.20226
1.01822
1.00032
1
1
1
1
1
1
1
1
1
1
1
1
1
1
1
1
1
1
1
1
1
1
1
1
1
1
1
1
1
1
1
1
1
1
1
1
1
1
1
1
1
1
1
1
1
1
1
1
1
1
1
1
1
1
1
1
1
1
1
1
1
1
1
1
1
1
1
1
1
1
1
1
1
1
1
1
1
1
1
1
1
1
1
1
1
1
1
1
1
1
1
1
1
1
1
1
1
1
1
1
1
1
1
1
1
1
1
1
1
1
1
1
1
1
1
1
1
1
1
1
1
1
1
1
1
1
1
1
1
1
1
1
1
1
1
1
1
1
1
1
1
1
1
1
1
1
1
1
1
1
1
1
1
1
1
1
1
1
1
1
1
1
1
1
1
1
1
1
1
1
1
1
1
1
1
1
1
1
1
1
1
1
1
1
1
1
1
1
1
1
1
1
1
1
1
1
1
1
1
1
1
1
1
1
1
1
1
1
1
1
1
1
1
1
1
1
1
1
1
1
1
1
1
1
1
1
1
1
1
1
1
1
1
1
1
1
1
1
1
1
1
1
1
1
1
1
1
1
1
1
1
1
1
1
1
1
1
1
1
1
1
1
1
1