/*--------------------------------*- C++ -*----------------------------------*\
  =========                 |
  \\      /  F ield         | OpenFOAM: The Open Source CFD Toolbox
   \\    /   O peration     | Website:  https://openfoam.org
    \\  /    A nd           | Version:  7
     \\/     M anipulation  |
\*---------------------------------------------------------------------------*/
FoamFile
{
    version     2.0;
    format      ascii;
    class       volScalarField;
    location    "5.5";
    object      p;
}
// * * * * * * * * * * * * * * * * * * * * * * * * * * * * * * * * * * * * * //

dimensions      [1 -1 -2 0 0 0 0];

internalField   nonuniform List<scalar> 
90000
(
0.558544
0.57508
0.593129
0.611332
0.629271
0.647034
0.664501
0.681907
0.699025
0.716175
0.732996
0.749941
0.766443
0.78316
0.799282
0.815696
0.831369
0.847369
0.862388
0.877816
0.891995
0.906675
0.919711
0.933393
0.944917
0.95719
0.966906
0.97701
0.985191
0.991864
0.998034
1.00382
1.00454
1.00635
1.00693
1.00634
1.00381
0.99909
0.99371
0.984796
0.980486
0.979773
0.980841
0.983394
0.986553
0.99132
0.996675
0.99933
1.00053
1.00209
1.00272
1.00151
0.998676
0.994559
0.992114
0.989993
0.988199
0.988225
0.989417
0.991599
0.994639
0.998209
1.00039
0.999532
0.996861
0.994152
0.991511
0.990992
0.991891
0.994315
0.997226
0.997101
0.995917
0.994188
0.992679
0.992693
0.993825
0.995716
0.997202
0.996842
0.996114
0.995938
0.996281
0.996761
0.996697
0.996108
0.995739
0.995818
0.996004
0.996275
0.996427
0.996552
0.996537
0.996819
0.997318
0.99763
0.997691
0.99744
0.996945
0.996281
0.545743
0.54631
0.547475
0.549309
0.551904
0.555252
0.559459
0.564466
0.570435
0.577228
0.585084
0.593744
0.603559
0.614074
0.625844
0.638229
0.651963
0.666176
0.681693
0.697499
0.714529
0.731641
0.749768
0.767691
0.786354
0.804467
0.822951
0.840813
0.858
0.875625
0.89028
0.906422
0.919209
0.931843
0.941294
0.950887
0.957068
0.961758
0.967164
0.979379
0.987761
0.995123
1.00047
1.00496
1.00522
1.00519
1.00454
1.00213
0.998941
0.998036
0.995118
0.99258
0.991685
0.990705
0.989923
0.9905
0.992535
0.995373
0.998003
0.998975
0.998154
0.997121
0.995503
0.994451
0.993744
0.99235
0.993337
0.994917
0.996544
0.996421
0.995744
0.994626
0.993598
0.992555
0.993516
0.995031
0.996157
0.996078
0.996158
0.995585
0.995884
0.996387
0.99678
0.996492
0.99617
0.99623
0.996114
0.99611
0.996078
0.996295
0.99653
0.996362
0.996533
0.997043
0.997329
0.997219
0.997484
0.997369
0.996933
0.996302
0.545542
0.545542
0.545544
0.545549
0.545559
0.545578
0.545613
0.545674
0.545775
0.545939
0.546189
0.546545
0.547045
0.547843
0.548959
0.550408
0.552343
0.55479
0.55797
0.561854
0.566859
0.572837
0.580474
0.589271
0.600327
0.61271
0.627955
0.644637
0.664577
0.685843
0.710462
0.735936
0.764325
0.793277
0.823015
0.853481
0.881946
0.912924
0.937892
0.957757
0.967679
0.976339
0.982244
0.987811
0.988761
0.989852
0.990271
0.990315
0.988962
0.98436
0.981646
0.982996
0.986092
0.990499
0.996216
1.00087
1.0042
1.00398
1.00198
0.998171
0.993202
0.98969
0.987686
0.987705
0.99027
0.995074
0.999896
0.99959
0.998175
0.99468
0.991566
0.989664
0.991199
0.994804
0.997367
0.997121
0.995393
0.993817
0.994144
0.99574
0.99716
0.997006
0.996309
0.995583
0.995886
0.99644
0.996374
0.996051
0.995891
0.996087
0.996413
0.996619
0.996793
0.996967
0.997208
0.997553
0.997546
0.997311
0.99689
0.996342
0.545825
0.54582
0.545811
0.545808
0.545802
0.545791
0.545792
0.545793
0.545792
0.545795
0.545822
0.545871
0.545974
0.54599
0.545984
0.545971
0.545953
0.545953
0.545984
0.546045
0.546141
0.546323
0.546607
0.547017
0.547643
0.548677
0.550241
0.552404
0.5556
0.559822
0.565954
0.573711
0.584763
0.598066
0.616266
0.637044
0.663748
0.693143
0.727808
0.763132
0.79863
0.833547
0.862568
0.892621
0.910915
0.930959
0.941571
0.954199
0.959846
0.965309
0.972671
0.986177
0.994448
1.00226
1.00626
1.00792
1.00734
1.0056
1.0005
0.994893
0.989912
0.986143
0.987351
0.991787
0.996843
1.00135
1.00119
0.999004
0.995235
0.991372
0.98989
0.992297
0.995456
0.998153
0.998599
0.997066
0.994015
0.993897
0.994935
0.99659
0.997164
0.996625
0.9956
0.995685
0.996128
0.996727
0.996703
0.996448
0.996221
0.996232
0.996565
0.996769
0.996789
0.997038
0.997429
0.997387
0.997174
0.996946
0.996803
0.996457
0.546174
0.546171
0.546173
0.546181
0.546187
0.546191
0.546205
0.5462
0.546179
0.546156
0.546139
0.546131
0.546127
0.546118
0.546113
0.546106
0.546103
0.546108
0.546119
0.546131
0.546148
0.546184
0.546245
0.546323
0.546444
0.546451
0.546459
0.546479
0.546521
0.546594
0.546739
0.546983
0.547403
0.548183
0.549604
0.551808
0.555644
0.561134
0.570424
0.582766
0.602387
0.625797
0.658806
0.694509
0.737579
0.780836
0.824377
0.867872
0.902741
0.939806
0.961102
0.975428
0.982661
0.990459
0.994708
0.996817
0.994802
0.988171
0.980078
0.982125
0.986598
0.993238
0.998511
1.00159
1.00032
0.999252
0.99563
0.993033
0.990926
0.992197
0.995399
0.997721
0.997516
0.996049
0.994595
0.994241
0.994797
0.996346
0.996515
0.996021
0.995414
0.99528
0.99545
0.996097
0.996225
0.996291
0.996206
0.996395
0.996499
0.996412
0.996402
0.996659
0.996955
0.997131
0.997284
0.997165
0.997027
0.996873
0.996811
0.996517
0.546482
0.546486
0.546491
0.546489
0.546485
0.546485
0.546489
0.546489
0.546487
0.546486
0.546485
0.546488
0.54649
0.546486
0.546495
0.546506
0.546489
0.546461
0.546451
0.546464
0.546484
0.546494
0.546484
0.546473
0.546463
0.546451
0.546442
0.546448
0.546471
0.546499
0.546532
0.546581
0.546696
0.546697
0.546665
0.54662
0.546615
0.54667
0.546842
0.547246
0.548214
0.550053
0.553997
0.560392
0.572497
0.589039
0.616351
0.648449
0.692579
0.738937
0.788609
0.835008
0.870647
0.904529
0.923462
0.942922
0.952803
0.960484
0.973432
0.989496
1.00078
1.00757
1.00755
1.00648
1.00136
0.991843
0.986271
0.986866
0.990121
0.995758
1.0024
1.00193
0.999935
0.996278
0.992124
0.992682
0.995105
0.997405
0.998015
0.996473
0.99449
0.994548
0.995393
0.99637
0.997092
0.996825
0.996264
0.996209
0.996426
0.996695
0.996758
0.996848
0.997146
0.997297
0.997205
0.996968
0.996722
0.996672
0.996798
0.996673
0.54661
0.54661
0.546611
0.546608
0.546602
0.546594
0.546589
0.546595
0.546605
0.54661
0.546613
0.546613
0.54662
0.54663
0.546634
0.546633
0.54663
0.54663
0.546641
0.546661
0.546677
0.546691
0.546711
0.546738
0.546762
0.546779
0.546793
0.546799
0.546798
0.546789
0.546773
0.546773
0.546787
0.546768
0.546707
0.546631
0.546555
0.54651
0.546485
0.546436
0.546355
0.546254
0.546235
0.546287
0.546536
0.547244
0.549091
0.552691
0.560643
0.573183
0.596721
0.627337
0.672988
0.722467
0.779295
0.834864
0.884218
0.934889
0.965871
0.983135
0.993429
1.00104
1.00066
0.994222
0.97863
0.979913
0.984407
0.992132
0.998566
1.00118
1.00142
0.999438
0.994237
0.992267
0.992579
0.995178
0.997826
0.997227
0.996203
0.995108
0.9945
0.994981
0.995869
0.995994
0.995891
0.996089
0.996751
0.996974
0.996815
0.996539
0.996627
0.997003
0.997208
0.997155
0.996963
0.996725
0.996583
0.996485
0.996631
0.996663
0.546636
0.546633
0.546634
0.546637
0.546625
0.546596
0.546583
0.546574
0.546567
0.546562
0.546557
0.54655
0.546547
0.546556
0.546554
0.546536
0.546523
0.546515
0.546505
0.546495
0.546491
0.546493
0.54651
0.546537
0.546548
0.546551
0.54655
0.546538
0.546522
0.546508
0.546505
0.546504
0.546475
0.546418
0.546371
0.546321
0.546273
0.546254
0.546222
0.546179
0.546128
0.546095
0.546037
0.54591
0.545762
0.545626
0.545497
0.545496
0.5456
0.546
0.547203
0.549968
0.556627
0.568581
0.591827
0.624685
0.673066
0.730278
0.790372
0.847871
0.887671
0.922973
0.942539
0.955903
0.967556
0.989836
1.00126
1.00645
1.00595
1.0038
0.995189
0.98814
0.988627
0.991495
0.996702
1.00076
1.00019
0.997493
0.993189
0.99337
0.994513
0.9965
0.996863
0.996243
0.995313
0.995489
0.996253
0.997214
0.997106
0.996801
0.996732
0.997056
0.997351
0.997143
0.996711
0.996468
0.996491
0.99655
0.996628
0.996661
0.546718
0.546709
0.546699
0.546688
0.546677
0.546665
0.546642
0.546607
0.546591
0.546583
0.546574
0.546564
0.546551
0.546535
0.546515
0.546489
0.546462
0.546438
0.546412
0.546389
0.546384
0.546386
0.546383
0.546369
0.546359
0.546348
0.546328
0.546283
0.546247
0.546247
0.546239
0.546211
0.546148
0.546083
0.54605
0.546015
0.545978
0.54597
0.545988
0.54598
0.545935
0.545862
0.545771
0.54566
0.545534
0.545403
0.545305
0.545201
0.545088
0.54504
0.545037
0.54507
0.545231
0.545697
0.547013
0.550023
0.557626
0.571637
0.600409
0.641889
0.700717
0.769605
0.83399
0.904264
0.954357
0.984751
0.994629
1.00173
0.999274
0.987738
0.978434
0.982244
0.991875
1.00078
1.00181
1.00097
0.997104
0.991404
0.991503
0.993461
0.996496
0.99699
0.996462
0.995027
0.995018
0.995478
0.99626
0.996833
0.996847
0.996928
0.997273
0.997351
0.997212
0.996911
0.996555
0.996297
0.9963
0.996384
0.996598
0.996694
0.546663
0.546657
0.546648
0.546638
0.546627
0.546609
0.546589
0.546581
0.546576
0.54657
0.546559
0.546538
0.546513
0.54649
0.546468
0.546442
0.546414
0.546388
0.546361
0.546336
0.546314
0.546286
0.546231
0.546189
0.546174
0.546161
0.546136
0.546092
0.546062
0.546016
0.545948
0.545928
0.545927
0.545909
0.545878
0.545843
0.545806
0.54575
0.545698
0.545652
0.54563
0.545613
0.545577
0.545494
0.545371
0.545278
0.545202
0.545114
0.545015
0.544934
0.544921
0.544952
0.545024
0.545138
0.545302
0.545495
0.545784
0.546409
0.548246
0.552504
0.564581
0.585836
0.628682
0.685058
0.757881
0.831487
0.880325
0.931154
0.945816
0.959022
0.977612
0.99635
1.00591
1.00573
1.0028
0.993487
0.989213
0.989896
0.993336
0.99869
0.998667
0.997091
0.994258
0.994205
0.995148
0.996679
0.996745
0.996477
0.996483
0.997014
0.997845
0.997643
0.997203
0.996421
0.996341
0.996228
0.99622
0.996292
0.996496
0.996682
0.54648
0.546478
0.546471
0.546464
0.546454
0.546438
0.546413
0.546396
0.546381
0.546357
0.54632
0.546273
0.546221
0.546178
0.546145
0.546112
0.546085
0.546058
0.546024
0.545992
0.545959
0.54591
0.545843
0.545776
0.54573
0.545686
0.545621
0.545546
0.545492
0.545433
0.545358
0.545318
0.545302
0.545294
0.545286
0.545283
0.545296
0.545331
0.545369
0.5454
0.545442
0.545467
0.545444
0.545371
0.545341
0.545352
0.545362
0.545341
0.545268
0.54514
0.545044
0.545053
0.545116
0.545227
0.545381
0.545552
0.545735
0.545882
0.546044
0.546209
0.546528
0.547549
0.551399
0.560206
0.584892
0.623901
0.692491
0.769853
0.848884
0.92974
0.970552
0.990141
0.999701
0.998182
0.981702
0.980833
0.985321
0.994453
1.0011
1.00088
0.998391
0.992517
0.992577
0.994301
0.996681
0.996929
0.99651
0.995702
0.996108
0.997464
0.997951
0.997645
0.996608
0.996185
0.996245
0.996218
0.996151
0.996234
0.996382
0.996572
0.546064
0.546055
0.546046
0.546037
0.546019
0.54599
0.545969
0.545952
0.545935
0.545911
0.545893
0.545873
0.545843
0.54582
0.545799
0.54578
0.545765
0.545738
0.545705
0.545686
0.545661
0.54561
0.545547
0.5455
0.545461
0.545388
0.54528
0.545197
0.545135
0.545056
0.544989
0.544958
0.544943
0.544944
0.544959
0.544991
0.545039
0.545098
0.545155
0.545208
0.545252
0.545286
0.545317
0.545353
0.545401
0.54548
0.545565
0.54558
0.545561
0.545484
0.545371
0.545329
0.545354
0.545403
0.545495
0.545631
0.545772
0.545901
0.546096
0.546351
0.546553
0.546533
0.546435
0.546519
0.547319
0.55055
0.562309
0.586739
0.639464
0.711516
0.794543
0.868053
0.913453
0.946312
0.956986
0.985433
0.997112
1.00404
1.00349
0.996908
0.990361
0.990591
0.993373
0.998389
0.998244
0.996949
0.994988
0.995257
0.997072
0.99801
0.997814
0.996622
0.996162
0.996247
0.996316
0.996199
0.99611
0.996247
0.996325
0.99645
0.545569
0.54556
0.545546
0.545525
0.545506
0.545491
0.545472
0.545455
0.545456
0.545459
0.545458
0.54545
0.545445
0.54544
0.545435
0.545434
0.545431
0.545418
0.5454
0.545383
0.545352
0.545299
0.545256
0.545222
0.545185
0.545095
0.544974
0.544908
0.544867
0.544813
0.544745
0.544693
0.544662
0.544654
0.544661
0.544699
0.544764
0.544819
0.544869
0.544932
0.544999
0.545074
0.54519
0.545304
0.545413
0.545544
0.545687
0.545781
0.545789
0.545764
0.545725
0.545662
0.545579
0.545573
0.545626
0.545702
0.545785
0.545875
0.546058
0.546417
0.546607
0.546615
0.54658
0.546367
0.546008
0.545898
0.546145
0.547485
0.552931
0.567335
0.604577
0.666079
0.750277
0.844624
0.924283
0.977549
0.990035
0.999623
0.99327
0.980059
0.983362
0.992676
0.999657
0.999883
0.998145
0.993518
0.993851
0.996411
0.998367
0.998008
0.996126
0.995432
0.995954
0.996533
0.996392
0.99604
0.996136
0.996347
0.996272
0.996306
0.545119
0.545123
0.545125
0.545125
0.545123
0.545118
0.545119
0.545138
0.545189
0.545214
0.545211
0.545205
0.545211
0.545223
0.545235
0.54525
0.545265
0.545272
0.545272
0.545272
0.54526
0.545218
0.545187
0.545156
0.545114
0.545006
0.544888
0.544852
0.544823
0.544754
0.544669
0.544617
0.544582
0.544573
0.54459
0.54464
0.54468
0.544709
0.544769
0.544869
0.544969
0.545061
0.545144
0.545239
0.545367
0.545524
0.545679
0.545808
0.545899
0.545918
0.545923
0.545917
0.545857
0.545788
0.545788
0.545776
0.545769
0.545796
0.545914
0.546246
0.546532
0.546563
0.546534
0.546389
0.546083
0.54577
0.545709
0.545748
0.545941
0.546584
0.549145
0.557115
0.582847
0.631159
0.716037
0.810126
0.874635
0.938498
0.94997
0.977329
0.990431
1.00248
1.0022
0.997059
0.991299
0.992032
0.996069
0.999665
0.999071
0.995577
0.994531
0.995313
0.996718
0.996674
0.996072
0.995961
0.996348
0.996446
0.996087
0.996195
0.544956
0.544965
0.544968
0.544973
0.544982
0.544991
0.545015
0.545084
0.545131
0.545132
0.545121
0.545126
0.54514
0.545152
0.545162
0.545179
0.545204
0.545221
0.545242
0.545291
0.545312
0.545331
0.545361
0.545368
0.545346
0.545286
0.545241
0.545226
0.545198
0.545141
0.545077
0.545016
0.544934
0.54485
0.544836
0.54486
0.544881
0.544897
0.544923
0.544981
0.545063
0.545127
0.545178
0.545249
0.545373
0.545538
0.545679
0.54577
0.545868
0.545992
0.546043
0.546065
0.546079
0.546073
0.546026
0.545892
0.545715
0.545678
0.545699
0.545888
0.546232
0.546434
0.546428
0.546305
0.546062
0.545769
0.545619
0.545614
0.545682
0.545873
0.546048
0.546297
0.547518
0.551988
0.571172
0.610161
0.691236
0.788761
0.879348
0.965271
0.984146
0.998791
0.994339
0.980297
0.984852
0.995084
1.00123
1.00017
0.995459
0.992461
0.993965
0.996727
0.996969
0.996172
0.995624
0.996126
0.996588
0.996396
0.995808
0.996123
0.544909
0.544919
0.544931
0.54495
0.544964
0.544991
0.545074
0.545103
0.545102
0.545103
0.54513
0.545189
0.545195
0.545196
0.545208
0.545254
0.545331
0.545391
0.545437
0.545512
0.545547
0.545561
0.545596
0.545644
0.545644
0.545627
0.545634
0.545639
0.545626
0.545624
0.545635
0.545633
0.54559
0.545542
0.545545
0.545548
0.54554
0.545509
0.545466
0.545438
0.545419
0.545381
0.545352
0.545368
0.54547
0.545635
0.545744
0.54579
0.545833
0.545958
0.546139
0.546199
0.546231
0.546265
0.546268
0.546158
0.545879
0.545614
0.545547
0.545591
0.545794
0.546079
0.546194
0.546143
0.545993
0.545779
0.545548
0.545488
0.545532
0.545709
0.546
0.546087
0.546063
0.54611
0.546698
0.549721
0.563754
0.596878
0.673829
0.770074
0.854628
0.932189
0.947552
0.97165
0.994539
1.00316
1.00201
0.992283
0.990147
0.992327
0.998168
0.998094
0.996454
0.994854
0.995544
0.996911
0.996767
0.995859
0.995602
0.996631
0.544964
0.544977
0.544999
0.545015
0.54504
0.545102
0.545152
0.545177
0.545184
0.545176
0.545169
0.545173
0.5452
0.545248
0.545313
0.545406
0.545512
0.545553
0.545547
0.545535
0.545539
0.545595
0.545703
0.545762
0.545779
0.545787
0.545799
0.545827
0.545878
0.545922
0.54594
0.545959
0.545971
0.545963
0.545969
0.54599
0.54599
0.545975
0.54593
0.545867
0.545806
0.54574
0.545686
0.545694
0.54576
0.545846
0.545909
0.545928
0.545933
0.546004
0.546247
0.546381
0.546412
0.546444
0.546461
0.546395
0.546136
0.54573
0.545483
0.545476
0.545578
0.545815
0.546003
0.546009
0.545946
0.545857
0.545704
0.545563
0.545558
0.545657
0.54589
0.54603
0.546044
0.545994
0.545916
0.545944
0.546372
0.548572
0.560131
0.589923
0.665408
0.764838
0.86924
0.958947
0.986286
0.998043
0.988198
0.976879
0.986016
0.997891
1.00011
0.998034
0.993089
0.993906
0.997089
0.997234
0.996206
0.995194
0.995763
0.997378
0.545281
0.545289
0.545301
0.545316
0.545338
0.545346
0.545357
0.545392
0.545413
0.545415
0.545399
0.54537
0.54537
0.545391
0.545455
0.545564
0.545597
0.545592
0.545551
0.545531
0.545544
0.545617
0.545696
0.54574
0.545769
0.545787
0.54581
0.54585
0.545933
0.546046
0.546117
0.546155
0.546161
0.546141
0.546124
0.546136
0.546169
0.546182
0.546168
0.546149
0.546144
0.546112
0.54606
0.54611
0.546169
0.546136
0.546082
0.546066
0.546034
0.546001
0.546079
0.546348
0.546501
0.546544
0.54657
0.546534
0.546331
0.545909
0.54551
0.545439
0.545519
0.545749
0.545936
0.545968
0.545992
0.54601
0.545981
0.545857
0.54576
0.545758
0.54583
0.545934
0.545962
0.54594
0.545902
0.545873
0.545876
0.545924
0.546211
0.548066
0.557884
0.587793
0.663423
0.763922
0.857366
0.926422
0.950685
0.975648
1.0036
1.00338
0.998471
0.990305
0.991549
0.997
0.998725
0.997032
0.994723
0.995031
0.997111
0.998078
0.545701
0.54569
0.545678
0.545678
0.545695
0.54574
0.545753
0.545752
0.545738
0.545726
0.545709
0.545663
0.545623
0.545625
0.545659
0.545674
0.545671
0.545657
0.545627
0.545617
0.545636
0.545674
0.545693
0.545702
0.54572
0.545744
0.545772
0.545806
0.545877
0.546029
0.546182
0.546245
0.546246
0.546217
0.546194
0.546227
0.546314
0.546332
0.546317
0.546304
0.546307
0.54628
0.546311
0.546437
0.546474
0.546425
0.546233
0.546144
0.546102
0.545947
0.545828
0.545878
0.546071
0.546226
0.546365
0.54645
0.546372
0.546011
0.545606
0.545518
0.545579
0.545787
0.545925
0.545992
0.546083
0.546163
0.546165
0.546128
0.546022
0.545912
0.545879
0.545886
0.5459
0.545894
0.545899
0.545934
0.545988
0.546036
0.546166
0.546208
0.546471
0.548156
0.557792
0.589951
0.666303
0.770399
0.892569
0.965146
0.997009
0.996299
0.977828
0.983098
0.995859
1.00129
0.998657
0.993137
0.993515
0.996573
0.998565
0.997985
0.545976
0.54597
0.545969
0.54598
0.545988
0.545982
0.545977
0.545995
0.546011
0.546017
0.546018
0.546015
0.545987
0.545936
0.545918
0.545914
0.545901
0.54587
0.545857
0.545861
0.545871
0.545856
0.545821
0.54579
0.545753
0.54573
0.54572
0.545728
0.545774
0.545918
0.546144
0.546225
0.546208
0.546182
0.546118
0.546061
0.54608
0.546173
0.546239
0.546244
0.546234
0.546248
0.546362
0.546527
0.546565
0.546532
0.546391
0.546265
0.546124
0.545813
0.545549
0.545547
0.545653
0.545795
0.546008
0.546218
0.546206
0.545987
0.545782
0.545789
0.545926
0.546074
0.546049
0.546039
0.546095
0.546229
0.54628
0.546261
0.54618
0.54605
0.545977
0.545942
0.545929
0.545944
0.546013
0.546124
0.546207
0.546199
0.546201
0.546187
0.546163
0.546071
0.546208
0.548081
0.557793
0.595508
0.676485
0.787766
0.883463
0.936181
0.955901
0.997018
1.00395
1.00059
0.990139
0.991277
0.995572
0.99987
0.999413
0.996784
0.546332
0.546321
0.546298
0.546269
0.546247
0.546223
0.546217
0.546238
0.5463
0.546381
0.546411
0.54641
0.546413
0.546461
0.546513
0.546519
0.546459
0.546414
0.546446
0.546443
0.546428
0.546453
0.54643
0.546345
0.546289
0.546262
0.546241
0.546207
0.546132
0.546107
0.546154
0.546175
0.546158
0.546056
0.545801
0.545608
0.545597
0.545666
0.545816
0.545878
0.545902
0.546008
0.546266
0.546476
0.54653
0.546521
0.546471
0.546367
0.546106
0.545651
0.545412
0.545409
0.545478
0.54562
0.545896
0.546127
0.546113
0.54599
0.545959
0.546013
0.546136
0.546148
0.546098
0.546046
0.546056
0.54613
0.54622
0.546229
0.546188
0.546083
0.54605
0.546063
0.546104
0.546158
0.546237
0.546337
0.546375
0.546349
0.546285
0.546176
0.545991
0.545806
0.545553
0.545517
0.545785
0.548264
0.560938
0.60628
0.693831
0.822346
0.928266
0.989447
0.995744
0.978699
0.980249
0.990582
1.00096
1.00023
0.996777
0.995455
0.546873
0.546809
0.546758
0.54673
0.546679
0.546612
0.546583
0.54658
0.546588
0.546652
0.546785
0.546814
0.546808
0.546839
0.546976
0.547023
0.546987
0.546851
0.546829
0.546865
0.546828
0.546778
0.546664
0.546519
0.54651
0.546513
0.546497
0.546429
0.546292
0.546227
0.546172
0.54607
0.546034
0.545979
0.545747
0.545402
0.545231
0.545222
0.545265
0.545307
0.545313
0.545376
0.545605
0.546002
0.546368
0.546443
0.54644
0.546399
0.546197
0.545842
0.545688
0.545675
0.545694
0.54576
0.546001
0.546168
0.546137
0.546043
0.546023
0.546047
0.54608
0.546094
0.546081
0.546015
0.545927
0.545912
0.545961
0.54608
0.546193
0.546224
0.546244
0.546294
0.546361
0.546385
0.546393
0.54641
0.546417
0.546377
0.546209
0.545899
0.545653
0.54551
0.545475
0.545493
0.545586
0.545744
0.546316
0.549628
0.567332
0.619354
0.725409
0.846679
0.908295
0.949185
0.979266
1.00449
1.00363
0.994261
0.993317
0.995585
0.546776
0.546805
0.546858
0.546891
0.546877
0.546762
0.546589
0.546568
0.546581
0.546617
0.546607
0.546581
0.546597
0.546748
0.546985
0.547051
0.547034
0.546907
0.546834
0.546872
0.546894
0.546827
0.54668
0.546532
0.546471
0.54645
0.546433
0.546324
0.546188
0.546125
0.545994
0.545999
0.546095
0.546085
0.545879
0.545561
0.545175
0.54503
0.545025
0.545023
0.544979
0.544956
0.545036
0.545409
0.546215
0.546585
0.546597
0.546577
0.546534
0.546378
0.546187
0.546155
0.546161
0.546228
0.546355
0.546314
0.546175
0.546044
0.546017
0.546029
0.54603
0.546059
0.546061
0.546014
0.545894
0.545807
0.545834
0.54599
0.546272
0.546499
0.546554
0.546559
0.546565
0.546539
0.546444
0.546397
0.546318
0.546147
0.545848
0.545592
0.545439
0.545437
0.545511
0.545723
0.545973
0.546163
0.546225
0.546281
0.546886
0.551213
0.579003
0.642266
0.76037
0.907764
0.967381
0.998697
0.989334
0.979785
0.988714
0.998245
0.544839
0.544834
0.544846
0.544863
0.544853
0.544844
0.54484
0.544838
0.544871
0.54506
0.545246
0.545248
0.545248
0.545316
0.545482
0.545714
0.545862
0.545827
0.545794
0.545855
0.545864
0.545704
0.545559
0.545535
0.545595
0.545876
0.546005
0.546018
0.545992
0.546021
0.546135
0.546273
0.546326
0.546332
0.546272
0.546135
0.545838
0.545291
0.544869
0.544791
0.544794
0.544758
0.54477
0.545101
0.546115
0.546914
0.547002
0.547018
0.546988
0.546685
0.546223
0.546158
0.546195
0.546204
0.546299
0.546422
0.54639
0.546137
0.54574
0.5456
0.545577
0.545685
0.546049
0.546246
0.546248
0.546157
0.54617
0.5463
0.54657
0.546729
0.546738
0.54671
0.546653
0.546588
0.546428
0.546125
0.545805
0.545614
0.545458
0.545409
0.545425
0.545531
0.545793
0.546151
0.546291
0.546316
0.546278
0.546124
0.545797
0.545848
0.547218
0.554952
0.595184
0.681678
0.799226
0.909393
0.938884
0.979209
0.999092
0.998859
0.542761
0.542756
0.542732
0.542716
0.542716
0.542709
0.542717
0.542766
0.542845
0.543092
0.54351
0.543682
0.543634
0.543472
0.54345
0.543561
0.543764
0.543924
0.544075
0.544137
0.54405
0.543783
0.543673
0.543666
0.543771
0.544164
0.544521
0.544719
0.544991
0.545163
0.545323
0.545598
0.546089
0.546423
0.546484
0.546488
0.546449
0.546326
0.546006
0.545441
0.545088
0.544877
0.544814
0.54499
0.54587
0.546512
0.546606
0.546636
0.54657
0.546153
0.545954
0.545972
0.545951
0.545877
0.545801
0.545862
0.54605
0.546089
0.545771
0.545316
0.545194
0.54525
0.545666
0.546359
0.54664
0.546645
0.546673
0.546786
0.546846
0.546849
0.546821
0.546726
0.546635
0.546487
0.546153
0.545627
0.545307
0.545299
0.54534
0.545533
0.545788
0.54602
0.546221
0.546418
0.546425
0.54639
0.546192
0.545758
0.545497
0.545516
0.545631
0.545997
0.548859
0.563443
0.622181
0.726294
0.865385
0.964251
0.992934
0.98993
0.54099
0.540987
0.540941
0.540822
0.540735
0.540698
0.540739
0.540919
0.541242
0.54161
0.541837
0.54191
0.541861
0.541628
0.541494
0.541525
0.541716
0.541801
0.541869
0.542006
0.542041
0.541927
0.54181
0.541809
0.542029
0.542748
0.542984
0.54305
0.543155
0.543353
0.543696
0.544183
0.544751
0.545271
0.545649
0.545854
0.545884
0.545824
0.545646
0.54525
0.544587
0.544009
0.543847
0.543818
0.543932
0.544059
0.544187
0.544413
0.54448
0.544484
0.544719
0.545134
0.545095
0.544684
0.544484
0.544687
0.545462
0.546074
0.546078
0.545881
0.545551
0.545494
0.545775
0.54649
0.546694
0.546685
0.546695
0.546829
0.546886
0.546732
0.546238
0.545854
0.545786
0.545757
0.54564
0.545363
0.545248
0.545294
0.545526
0.545993
0.54635
0.546466
0.546475
0.54649
0.546444
0.546227
0.545763
0.545388
0.5454
0.545573
0.545941
0.546382
0.546448
0.54695
0.551906
0.57865
0.660655
0.77809
0.888289
0.954656
0.544694
0.544699
0.544703
0.544633
0.544363
0.544286
0.544311
0.544271
0.544082
0.543793
0.543609
0.543538
0.543475
0.543386
0.543293
0.543281
0.543291
0.543223
0.543274
0.543506
0.543546
0.54338
0.54309
0.54307
0.543336
0.543818
0.543892
0.543725
0.543148
0.542196
0.541617
0.541603
0.54171
0.541894
0.542086
0.542263
0.542519
0.543126
0.543828
0.543968
0.54385
0.543309
0.542748
0.542139
0.541554
0.541523
0.541732
0.542352
0.54292
0.543504
0.544025
0.544063
0.54369
0.543
0.542973
0.543371
0.544494
0.545633
0.545988
0.545907
0.54577
0.545689
0.545897
0.545834
0.545567
0.545554
0.545809
0.546078
0.546062
0.545691
0.54493
0.544574
0.544606
0.544895
0.545241
0.545558
0.545746
0.545857
0.546049
0.546368
0.546565
0.546582
0.546554
0.546372
0.546068
0.545656
0.545388
0.545402
0.545626
0.546144
0.54648
0.546568
0.546511
0.546093
0.546109
0.547583
0.5591
0.605752
0.708353
0.890476
0.544503
0.544205
0.544193
0.544196
0.544108
0.544019
0.543864
0.542902
0.541971
0.54176
0.541709
0.541775
0.542083
0.542513
0.542617
0.54256
0.542278
0.542232
0.542549
0.542955
0.543033
0.54296
0.542801
0.542762
0.542674
0.542532
0.542583
0.542851
0.542781
0.542074
0.540763
0.540287
0.540199
0.540077
0.539918
0.539865
0.539913
0.54032
0.541608
0.542514
0.542586
0.542516
0.542184
0.541186
0.540488
0.540511
0.540799
0.541512
0.542496
0.543477
0.543646
0.543558
0.542959
0.541977
0.541806
0.542103
0.543028
0.544099
0.544874
0.545141
0.545041
0.544783
0.544355
0.543621
0.542959
0.542849
0.542964
0.543518
0.543974
0.543995
0.5438
0.543594
0.543689
0.544174
0.545108
0.545712
0.545946
0.546019
0.546143
0.546353
0.54648
0.546399
0.546039
0.545545
0.545222
0.5452
0.545292
0.545728
0.546279
0.546549
0.546616
0.54658
0.546212
0.545751
0.545732
0.545883
0.546424
0.55061
0.57093
0.703296
0.545864
0.545636
0.545588
0.545592
0.545612
0.545549
0.545413
0.545477
0.545567
0.545394
0.545012
0.545008
0.545329
0.546024
0.54632
0.546254
0.546129
0.546314
0.546628
0.546735
0.546899
0.547288
0.54798
0.548545
0.54862
0.548296
0.548016
0.548043
0.548077
0.547583
0.546445
0.545328
0.544292
0.543646
0.543553
0.543488
0.543406
0.543559
0.544482
0.544825
0.544916
0.545186
0.545179
0.544601
0.544023
0.544096
0.544829
0.546443
0.548011
0.548352
0.54818
0.547468
0.54591
0.54432
0.543932
0.544139
0.544382
0.544234
0.544204
0.544419
0.544433
0.544045
0.543404
0.542663
0.541927
0.541762
0.541818
0.542245
0.542835
0.542956
0.542904
0.542726
0.54282
0.543286
0.544275
0.545136
0.545514
0.545594
0.545313
0.544879
0.54471
0.544504
0.544347
0.544419
0.544699
0.545218
0.545751
0.546393
0.546612
0.546634
0.546571
0.546172
0.545585
0.545606
0.545891
0.54638
0.546698
0.546781
0.547527
0.584206
0.568611
0.568021
0.566926
0.566723
0.566691
0.566678
0.566901
0.567484
0.567655
0.567515
0.566633
0.566201
0.566675
0.567029
0.566702
0.566586
0.566886
0.566427
0.563582
0.561701
0.561782
0.562232
0.562785
0.563822
0.56572
0.566883
0.566729
0.565677
0.564957
0.564363
0.563383
0.562202
0.56113
0.560938
0.561092
0.561043
0.560449
0.558813
0.557446
0.556712
0.555871
0.55491
0.554043
0.552847
0.551447
0.551081
0.551272
0.551896
0.552354
0.55212
0.551102
0.549776
0.548147
0.546208
0.545707
0.545538
0.544716
0.543782
0.543717
0.543769
0.543466
0.543159
0.543032
0.542625
0.54209
0.542046
0.542253
0.542739
0.54342
0.544269
0.544924
0.545243
0.545477
0.545353
0.545041
0.544716
0.5444
0.543868
0.543065
0.542536
0.542521
0.542647
0.542861
0.543157
0.543915
0.544869
0.545908
0.546291
0.546296
0.546039
0.545585
0.545061
0.545154
0.545674
0.546456
0.546698
0.546719
0.546555
0.546108
0.550406
0.598229
0.59777
0.597775
0.598461
0.599486
0.599509
0.598206
0.597698
0.598104
0.598308
0.598882
0.598987
0.597974
0.59612
0.595144
0.594436
0.593476
0.591735
0.58851
0.584508
0.581992
0.58168
0.581646
0.581704
0.582469
0.583352
0.5833
0.582375
0.578722
0.574334
0.573767
0.573408
0.572161
0.571779
0.572623
0.574451
0.574717
0.57461
0.575011
0.574954
0.573481
0.571131
0.569573
0.568328
0.56675
0.564499
0.561512
0.559253
0.55841
0.557969
0.557174
0.555615
0.555255
0.555445
0.55606
0.556256
0.555774
0.554811
0.553054
0.550299
0.548976
0.549018
0.549868
0.551324
0.552301
0.552561
0.5522
0.550797
0.549346
0.549203
0.549442
0.549428
0.548866
0.547285
0.544902
0.543656
0.543251
0.542916
0.542632
0.54239
0.542473
0.542695
0.543419
0.544434
0.54578
0.545908
0.545664
0.544923
0.544297
0.543946
0.543983
0.544291
0.545196
0.546192
0.546564
0.54666
0.546362
0.545755
0.545461
0.545983
0.633455
0.633661
0.633886
0.633203
0.632381
0.632437
0.632755
0.633372
0.63404
0.634236
0.633981
0.633558
0.633903
0.634506
0.634195
0.633889
0.633492
0.632221
0.629823
0.628138
0.628093
0.628662
0.628526
0.627297
0.626857
0.627088
0.627268
0.6266
0.624374
0.620922
0.618449
0.616048
0.612642
0.610699
0.609499
0.608752
0.608861
0.608475
0.607834
0.607629
0.606152
0.603542
0.603074
0.603277
0.60296
0.601299
0.599559
0.597391
0.59528
0.594051
0.592348
0.588306
0.586597
0.585665
0.583442
0.581664
0.581587
0.58102
0.578687
0.575006
0.571696
0.569205
0.567557
0.56594
0.564007
0.562372
0.560548
0.557931
0.553994
0.551607
0.551257
0.550752
0.549245
0.54712
0.545139
0.544361
0.544457
0.544403
0.544478
0.544967
0.54589
0.546855
0.547543
0.547407
0.547022
0.545893
0.544462
0.54334
0.543001
0.543041
0.543215
0.544027
0.545119
0.546254
0.546155
0.545446
0.544766
0.544719
0.54511
0.546135
0.690104
0.690445
0.690363
0.689135
0.686667
0.685016
0.684402
0.684026
0.683036
0.681983
0.681668
0.680834
0.678379
0.675831
0.675529
0.675575
0.674572
0.672333
0.671915
0.671647
0.669928
0.667032
0.666687
0.666638
0.665495
0.662875
0.661933
0.662377
0.662985
0.662583
0.660074
0.659151
0.659062
0.657837
0.655103
0.654189
0.654382
0.654256
0.652927
0.650476
0.647901
0.643768
0.637684
0.634729
0.633093
0.629593
0.628153
0.627301
0.62515
0.623877
0.623429
0.622511
0.621285
0.618896
0.612412
0.605136
0.603058
0.601232
0.597781
0.596589
0.596319
0.594929
0.590988
0.585876
0.581405
0.577468
0.575815
0.574788
0.573033
0.569412
0.566981
0.565507
0.563977
0.563097
0.562312
0.560852
0.560425
0.559814
0.55846
0.557152
0.555734
0.554127
0.551873
0.549597
0.546699
0.544776
0.543976
0.543375
0.543281
0.543964
0.545306
0.547185
0.546899
0.546053
0.544663
0.543582
0.543623
0.54385
0.544682
0.546111
0.740987
0.740746
0.74058
0.739431