/*--------------------------------*- C++ -*----------------------------------*\
  =========                 |
  \\      /  F ield         | OpenFOAM: The Open Source CFD Toolbox
   \\    /   O peration     | Website:  https://openfoam.org
    \\  /    A nd           | Version:  7
     \\/     M anipulation  |
\*---------------------------------------------------------------------------*/
FoamFile
{
    version     2.0;
    format      ascii;
    class       volScalarField;
    location    "8";
    object      T;
}
// * * * * * * * * * * * * * * * * * * * * * * * * * * * * * * * * * * * * * //

dimensions      [0 0 0 1 0 0 0];

internalField   nonuniform List<scalar> 
14400
(
0.895804
0.905412
0.915794
0.925884
0.935788
0.945221
0.954631
0.963527
0.972575
0.9809
0.989563
0.997082
1.00512
1.0114
1.0181
1.02262
1.02644
1.02923
1.0291
1.02795
1.0241
1.01934
1.01763
1.01829
1.02035
1.02224
1.02288
1.02216
1.02144
1.0212
1.0217
1.02229
1.02165
1.02035
1.02047
1.02079
1.02042
1.01992
1.01985
1.01958
0.887155
0.887641
0.888654
0.89036
0.892824
0.896245
0.900557
0.906063
0.912435
0.920162
0.928483
0.938159
0.947914
0.958643
0.968975
0.979086
0.989105
0.996641
1.00475
1.00872
1.01201
1.01592
1.01947
1.02166
1.02243
1.02196
1.02068
1.01941
1.01956
1.02053
1.02125
1.02093
1.01999
1.01924
1.01988
1.01985
1.01936
1.01914
1.01914
1.01888
0.885163
0.885104
0.885041
0.884981
0.884894
0.884895
0.884952
0.885151
0.885555
0.886323
0.887577
0.889765
0.89297
0.898175
0.905004
0.915153
0.927079
0.942388
0.958895
0.975643
0.993659
1.00483
1.01146
1.01342
1.01552
1.01508
1.01365
1.0146
1.01705
1.01844
1.01808
1.01678
1.01624
1.01711
1.01761
1.01718
1.01682
1.01706
1.01701
1.01684
0.883123
0.883058
0.882991
0.882928
0.882866
0.882797
0.882719
0.882646
0.882567
0.882479
0.882369
0.882267
0.882186
0.882283
0.882656
0.883732
0.885905
0.890682
0.898195
0.9118
0.929711
0.95127
0.973291
0.986131
0.998447
1.0013
1.00558
1.01054
1.01552
1.01548
1.01405
1.01164
1.01269
1.01474
1.01437
1.01341
1.01352
1.01409
1.01404
1.01402
0.881964
0.881907
0.881843
0.881771
0.88169
0.8816
0.881501
0.881392
0.881275
0.881159
0.881045
0.880936
0.880883
0.880844
0.880843
0.880876
0.880989
0.881273
0.881867
0.883529
0.887047
0.896107
0.910713
0.934204
0.959345
0.980136
0.998438
1.00452
1.00999
1.00975
1.0069
1.008
1.01056
1.01212
1.01138
1.01043
1.01104
1.01156
1.01128
1.01142
0.881298
0.881289
0.881273
0.881247
0.881216
0.881183
0.88115
0.88111
0.881067
0.881013
0.880952
0.880919
0.880922
0.88094
0.88098
0.881081
0.881244
0.88147
0.881822
0.882133
0.882515
0.883215
0.884821
0.889942
0.900396
0.922309
0.94874
0.970649
0.989568
0.995617
1.00095
1.00907
1.01125
1.01031
1.00828
1.0089
1.01021
1.01006
1.00965
1.00993
0.881237
0.881266
0.881288
0.881299
0.881312
0.881341
0.881358
0.881357
0.881358
0.881374
0.881404
0.881449
0.881517
0.881598
0.881699
0.881795
0.88189
0.882052
0.882269
0.882476
0.882696
0.883021
0.883303
0.883399
0.883878
0.886548
0.894609
0.91478
0.942004
0.972111
0.995817
1.00629
1.00892
1.00604
1.00662
1.00934
1.00999
1.00919
1.00874
1.0094
0.882125
0.882162
0.882217
0.882222
0.882214
0.882209
0.882204
0.882184
0.882159
0.882167
0.882189
0.882217
0.882215
0.882203
0.882168
0.882106
0.882066
0.882046
0.882082
0.8822
0.882256
0.882315
0.882352
0.882319
0.881914
0.881433
0.881774
0.884147
0.892662
0.914669
0.946651
0.976121
0.994185
1.00075
1.00718
1.01094
1.01002
1.00789
1.00852
1.0096
0.883093
0.883074
0.883049
0.883017
0.882977
0.882932
0.882882
0.882826
0.882771
0.882723
0.882678
0.882624
0.882552
0.882443
0.882309
0.882148
0.881936
0.881743
0.881492
0.881156
0.880853
0.880784
0.880801
0.880856
0.880656
0.880657
0.880876
0.881198
0.881682
0.884378
0.895388
0.920178
0.9541
0.989109
1.00442
1.00997
1.00607
1.00701
1.00976
1.00982
0.882833
0.882782
0.882721
0.882655
0.882591
0.882535
0.88249
0.882433
0.882374
0.88231
0.882225
0.882121
0.881986
0.881819
0.881658
0.881416
0.881
0.880542
0.880128
0.879796
0.879637
0.879677
0.879835
0.879925
0.880009
0.880386
0.881218
0.881899
0.882248
0.882113
0.882555
0.885833
0.90046
0.931019
0.964075
0.992252
0.998419
1.00828
1.01081
1.00957
0.880138
0.880049
0.879938
0.879921
0.87992
0.879918
0.879931
0.879973
0.879994
0.879971
0.879963
0.880048
0.880131
0.880128
0.880104
0.879849
0.879264
0.879049
0.878979
0.878921
0.87905
0.879367
0.879804
0.879966
0.880086
0.880585
0.881378
0.882049
0.882295
0.882242
0.88171
0.881213
0.882162
0.888062
0.90932
0.945591
0.982907
1.00576
1.00889
1.00717
0.876381
0.876388
0.876431
0.876525
0.876604
0.876694
0.876793
0.876962
0.877281
0.877455
0.877618
0.877976
0.878566
0.878949
0.878985
0.878837
0.878504
0.87845
0.878698
0.879545
0.880319
0.880561
0.880577
0.88048
0.880442
0.880585
0.880926
0.881316
0.881537
0.881362
0.880615
0.879613
0.879516
0.880007
0.8831
0.895424
0.929014
0.967896
0.990234
1.00305
0.877959
0.877924
0.877972
0.878247
0.878669
0.878798
0.878648
0.878502
0.878494
0.878455
0.878441
0.878602
0.878899
0.87917
0.879545
0.87998
0.880442
0.881042
0.882102
0.883358
0.883686
0.883403
0.882642
0.881942
0.881315
0.880745
0.879627
0.879131
0.879095
0.879095
0.878955
0.878701
0.878589
0.878782
0.879597
0.881276
0.888661
0.910363
0.950104
0.995337
0.890772
0.890225
0.889704
0.889788
0.889961
0.889809
0.889129
0.887952
0.886679
0.885712
0.884902
0.884256
0.883728
0.883589
0.883578
0.883685
0.884232
0.884598
0.884769
0.885222
0.885067
0.88395
0.882397
0.880746
0.88011
0.87982
0.878845
0.877851
0.877835
0.878196
0.878408
0.878532
0.878874
0.879767
0.880956
0.880811
0.880608
0.882902
0.896303
0.951981
0.906356
0.905956
0.905571
0.905249
0.904844
0.904216
0.903387
0.902342
0.900961
0.899651
0.898609
0.896795
0.896033
0.896146
0.895641
0.894504
0.893688
0.892773
0.890753
0.888697
0.887309
0.885516
0.884381
0.884411
0.884962
0.884887
0.883454
0.881573
0.88084
0.880861
0.881204
0.881901
0.882419
0.882315
0.881938
0.880983
0.879412
0.878646
0.879707
0.904977
0.936562
0.936212
0.935828
0.935384
0.934742
0.93356
0.932971
0.932937
0.932426
0.930852
0.93026
0.929307
0.928417
0.928193
0.927352
0.925964
0.924341
0.922527
0.920229
0.917522
0.915122
0.911877
0.908273
0.907502
0.907128
0.905191
0.902927
0.899928
0.896585
0.893884
0.891668
0.889171
0.886664
0.883917
0.881095
0.8796
0.878645
0.878682
0.879154
0.883921
0.981026
0.980529
0.979781
0.97903
0.978327
0.977432
0.976506
0.975636
0.974508
0.972988
0.971442
0.969848
0.967968
0.965964
0.963779
0.961266
0.958758
0.956191
0.952669
0.950101
0.948353
0.945961
0.942385
0.938893
0.935118
0.928597
0.923831
0.92
0.916009
0.911055
0.905932
0.900949
0.896021
0.89189
0.888467
0.885853
0.884433
0.884025
0.884129
0.88461
1.03105
1.03048
1.02963
1.02872
1.0279
1.02682
1.0255
1.02448
1.0233
1.0216
1.01987
1.01824
1.01622
1.01399
1.01174
1.00926
1.00656
1.00358
1.0002
0.996454
0.992668
0.988533
0.983893
0.979018
0.975125
0.970475
0.964915
0.957447
0.951757
0.946442
0.940326
0.934099
0.927788
0.921645
0.915547
0.909562
0.903097
0.897325
0.89143
0.884923
1.08309
1.08258
1.08185
1.08081
1.07994
1.07891
1.07772
1.07672
1.07548
1.07384
1.07218
1.07045
1.06845
1.06605
1.06349
1.0607
1.05765
1.05428
1.05062
1.04678
1.04261
1.03832
1.0332
1.02757
1.02169
1.0146
1.00877
1.00231
0.994083
0.985715
0.977838
0.969289
0.961014
0.951705
0.942601
0.932855
0.923541
0.914162
0.905824
0.895465
1.11973
1.11953
1.11935
1.11906
1.11873
1.11842
1.11808
1.11768
1.11716
1.11656
1.11581
1.11487
1.11387
1.11265
1.11103
1.1091
1.10676
1.1041
1.10091
1.09737
1.09348
1.08916
1.08445
1.07886
1.07273
1.06626
1.05918
1.05198
1.04338
1.0338
1.02389
1.01357
1.00315
0.99275
0.982171
0.971041
0.960734
0.949676
0.940779
0.925607
1.12666
1.12667
1.12667
1.12666
1.12668
1.12669
1.12662
1.12659
1.1266
1.12643
1.12632
1.12628
1.12616
1.1262
1.12622
1.12592
1.12583
1.12588
1.12557
1.12458
1.12341
1.12218
1.1206
1.11822
1.11476
1.11043
1.10561
1.1003
1.09371
1.08568
1.07609
1.06506
1.05256
1.04011
1.0269
1.01358
0.999831
0.986106
0.973519
0.953395
1.12091
1.1212
1.12143
1.12163
1.1218
1.12174
1.12169
1.12187
1.12197
1.122
1.1221
1.1221
1.12213
1.12233
1.12247
1.12266
1.12303
1.12372
1.12403
1.12397
1.12374
1.12357
1.12356
1.12384
1.12403
1.12384
1.12293
1.12142
1.11982
1.11776
1.1145
1.10917
1.10142
1.09125
1.07898
1.06466
1.04888
1.03207
1.01663
0.993151
1.08054
1.08128
1.08171
1.08221
1.08292
1.0836
1.08437
1.08564
1.08662
1.08744
1.08861
1.08992
1.09132
1.09272
1.0943
1.09608
1.09796
1.1002
1.10251
1.10461
1.1067
1.10846
1.11009
1.11213
1.11429
1.11625
1.11837
1.11887
1.11893
1.11899
1.11903
1.11885
1.11803
1.11613
1.11285
1.10693
1.09746
1.08382
1.06828
1.04025
1.02042
1.02092
1.0213
1.02167
1.02221
1.02285
1.02355
1.02436
1.02521
1.02615
1.02728
1.02855
1.02996
1.03157
1.03335
1.03538
1.03764
1.04019
1.04314
1.04643
1.05015
1.05427
1.05886
1.06385
1.0692
1.0749
1.08074
1.08681
1.09301
1.09856
1.10345
1.10774
1.11085
1.11336
1.11329
1.11304
1.11214
1.1097
1.10518
1.08808
1.00111
1.00115
1.0012
1.00124
1.00129
1.00136
1.00143
1.00152
1.00162
1.00174
1.00188
1.00204
1.00224
1.00248
1.00276
1.0031
1.00352
1.00403
1.00465
1.00544
1.00644
1.00773
1.00935
1.0114
1.01397
1.01724
1.0214
1.02658
1.03297
1.04057
1.04935
1.05914
1.06937
1.07991
1.08956
1.09741
1.10289
1.10675
1.10667
1.10459
1.00002
1.00002
1.00002
1.00002
1.00002
1.00002
1.00002
1.00002
1.00003
1.00003
1.00003
1.00004
1.00004
1.00005
1.00005
1.00006
1.00007
1.00009
1.00011
1.00014
1.00017
1.00023
1.00031
1.00042
1.00058
1.00083
1.00121
1.0018
1.00273
1.00416
1.0064
1.00983
1.01492
1.02218
1.03205
1.04432
1.05792
1.07236
1.08423
1.09544
1
1
1
1
1
1
1
1
1
1
1
1
1
1
1
1
1
1
1
1
1
1
1
1
1.00001
1.00001
1.00002
1.00003
1.00005
1.00009
1.00018
1.00034
1.00067
1.00135
1.00271
1.00537
1.01014
1.01841
1.02946
1.05359
1
1
1
1
1
1
1
1
1
1
1
1
1
1
1
1
1
1
1
1
1
1
1
1
1
1
1
1
1
1
1
1
1.00001
1.00002
1.00005
1.00014
1.00038
1.00105
1.00246
1.01051
1
1
1
1
1
1
1
1
1
1
1
1
1
1
1
1
1
1
1
1
1
1
1
1
1
1
1
1
1
1
1
1
1
1
1
1
1
1.00002
1.00005
1.00058
1
1
1
1
1
1
1
1
1
1
1
1
1
1
1
1
1
1
1
1
1
1
1
1
1
1
1
1
1
1
1
1
1
1
1
1
1
1
1
1.00001
0.887865
0.886989
0.885218
0.883195
0.882034
0.881302
0.881196
0.882089
0.883108
0.882897
0.880239
0.876374
0.878105
0.891455
0.906722
0.93709
0.981695
1.03182
1.08382
1.12005
1.12664
1.12066
1.0796
1.01989
1.00107
1.00002
1
1
1
1
0.88782
0.886961
0.885213
0.883244
0.882106
0.881299
0.881153
0.882066
0.883121
0.882958
0.880326
0.876347
0.878413
0.892394
0.907267
0.938117
0.982921
1.03327
1.08515
1.1205
1.1266
1.12045
1.07859
1.0192
1.001
1.00001
1
1
1
1
0.887758
0.88693
0.885232
0.88332
0.882191
0.881301
0.881109
0.882038
0.883125
0.883019
0.88043
0.876333
0.878707
0.89293
0.907784
0.939184
0.984264
1.03489
1.08661
1.12095
1.12659
1.12043
1.07764
1.01851
1.00094
1.00001
1
1
1
1
0.887692
0.886901
0.885243
0.883401
0.882279
0.881338
0.881071
0.881993
0.883125
0.883066
0.88056
0.876326
0.87885
0.893123
0.908295
0.940292
0.98566
1.03646
1.08804
1.12143
1.12661
1.12041
1.07657
1.0178
1.00088
1.00001
1
1
1
1
0.88763
0.886876
0.88526
0.883501
0.882365
0.881375
0.881038
0.8819
0.883122
0.883087
0.880762
0.876591
0.878859
0.893128
0.908766
0.941448
0.987027
1.03799
1.08942
1.12188
1.12667
1.11984
1.07528
1.01705
1.00082
1.00001
1
1
1
1
0.887564
0.88686
0.885283
0.883616
0.882447
0.881394
0.881004
0.88178
0.883102
0.88306
0.880935
0.876971
0.878733
0.892991
0.909162
0.942724
0.988489
1.03965
1.09092
1.12231
1.12671
1.11902
1.07391
1.01627
1.00076
1.00001
1
1
1
1
0.887496
0.886857
0.885337
0.883745
0.882532
0.88141
0.880957
0.881609
0.882979
0.882943
0.880983
0.877156
0.878575
0.892958
0.909456
0.944149
0.99007
1.04145
1.09257
1.12273
1.12675
1.11846
1.07257
1.01548
1.0007
1.00001
1
1
1
1
0.887412
0.886894
0.885414
0.883863
0.882627
0.881424
0.880904
0.881407
0.882781
0.882794
0.880933
0.877351
0.878765
0.893395
0.909805
0.945736
0.991718
1.04335
1.09426
1.12314
1.12686
1.11792
1.07109
1.01467
1.00064
1.00001
1
1
1
1
0.88732
0.886936
0.885481
0.883975
0.882724
0.881437
0.880846
0.881212
0.882583
0.882641
0.880865
0.877791
0.879407
0.894199
0.911082
0.947477
0.993487
1.04538
1.096
1.12356
1.12709
1.11724
1.06939
1.01384
1.00058
1.00001
1
1
1
1
0.887226
0.886974
0.885564
0.884091
0.882809
0.88146
0.880773
0.881008
0.882389
0.882501
0.880905
0.878461
0.880162
0.894906
0.912673
0.949353
0.995474
1.04761
1.09783
1.12401
1.12737
1.11638
1.06758
1.01299
1.00052
1.00001
1
1
1
1
0.887154
0.887009
0.885671
0.884217
0.882893
0.881484
0.880675
0.880772
0.882182
0.882391
0.881152
0.879019
0.880869
0.895312
0.91301
0.95127
0.997677
1.05001
1.09975
1.12454
1.12758
1.11539
1.0657
1.01214
1.00047
1.00001
1
1
1
1
0.8871
0.887069
0.885797
0.884352
0.882983
0.881533
0.880562
0.880514
0.881952
0.882305
0.881351
0.879374
0.881399
0.89553
0.91253
0.95329
1.00012
1.05252
1.1017
1.12515
1.12762
1.11433
1.06376
1.01128
1.00042
1
1
1
1
1
0.887075
0.887129
0.88593
0.884494
0.88307
0.881611
0.880468
0.880249
0.881679
0.882236
0.881388
0.879516
0.881775
0.895772
0.912191
0.955575
1.00269
1.05511
1.10369
1.12578
1.12755
1.1132
1.06171
1.0104
1.00037
1
1
1
1
1
0.887063
0.887193
0.886059
0.884627
0.883154
0.881691
0.880407
0.880005
0.88133
0.882178
0.881347
0.87951
0.882012
0.896278
0.91329
0.958281
1.00535
1.05787
1.10568
1.12631
1.12754
1.112
1.05947
1.00952
1.00032
1
1
1
1
1
0.887051
0.887248
0.886178
0.884736
0.883228
0.881785
0.880366
0.879834
0.880902
0.882091
0.88132
0.879429
0.882063
0.897014
0.917102
0.96139
1.00818
1.06083
1.10765
1.12668
1.12773
1.11075
1.05702
1.00863
1.00028
1
1
1
1
1
0.887047
0.887281
0.886287
0.884826
0.883289
0.881877
0.880356
0.87973
0.880471
0.881872
0.881299
0.879202
0.88188
0.897952
0.921566
0.964519
1.01129
1.06402
1.10957
1.12706
1.12804
1.10947
1.05441
1.00776
1.00023
1
1
1
1
1
0.887111
0.887313
0.886393
0.8849
0.88333
0.881951
0.880396
0.879675
0.880123
0.881546
0.881268
0.879049
0.881743
0.899181
0.924942
0.967442
1.01481
1.06743
1.11149
1.12783
1.12834
1.1081
1.05164
1.00691
1.0002
1
1
1
1
1
0.887226
0.887386
0.886487
0.884949
0.883348
0.882004
0.880455
0.879639
0.879869
0.881206
0.881396
0.879118
0.88174
0.900824
0.927882
0.970355
1.01863
1.07101
1.11346
1.12866
1.12853
1.10661
1.04875
1.00609
1.00016
1
1
1
1
1
0.887365
0.887519
0.886547
0.884968
0.883345
0.882023
0.880489
0.879596
0.8797
0.880891
0.881675
0.879246
0.881881
0.903024
0.930986
0.973413
1.02265
1.07476
1.11545
1.12909
1.12853
1.10496
1.04569
1.0053
1.00014
1
1
1
1
1
0.887524
0.887611
0.886564
0.884965
0.883278
0.882006
0.88056
0.879554
0.879572
0.880552
0.881944
0.879495
0.882389
0.904899
0.93415
0.976789
1.02688
1.07874
1.11743
1.12937
1.12834
1.10297
1.04246
1.00456
1.00011
1
1
1
1
1
0.887763
0.887675
0.88653
0.884847
0.883186
0.881948
0.880658
0.879544
0.879435
0.880116
0.882193
0.880486
0.882873
0.905335
0.93728
0.98063
1.03145
1.08294
1.11942
1.12968
1.12774
1.10049
1.03915
1.00388
1.00009
1
1
1
1
1
0.888053
0.887766
0.886431
0.884655
0.883055
0.881853
0.880748
0.879599
0.879373
0.87961
0.88232
0.881881
0.883423
0.904871
0.940659
0.98508
1.03633
1.08726
1.12143
1.13012
1.12676
1.09763
1.03581
1.00325
1.00007
1
1
1
1
1
0.88837
0.887946
0.886295
0.884388
0.882888
0.881736
0.880934
0.879752
0.879441
0.879166
0.882158
0.883199
0.884598
0.905584
0.944641
0.989914
1.04148
1.09172
1.12344
1.13049
1.12547
1.0944
1.03243
1.00268
1.00005
1
1
1
1
1
0.888754
0.888138
0.886206
0.884055
0.882685
0.881617
0.881261
0.88011
0.879533
0.878987
0.882008
0.884524
0.886213
0.910091
0.949248
0.995143
1.04709
1.09626
1.12539
1.13061
1.12408
1.09075
1.02901
1.00217
1.00004
1
1
1
1
1
0.889217
0.888294
0.88616
0.883675
0.882442
0.881574
0.881526
0.880634
0.879635
0.878872
0.881928
0.885867
0.888041
0.91552
0.953849
1.00104
1.05313
1.1008
1.12717
1.13063
1.12281
1.08674
1.02555
1.00172
1.00003
1
1
1
1
1
0.889664
0.888441
0.886075
0.883399
0.88217
0.881545
0.881711
0.88113
0.879702
0.878739
0.881913
0.886842
0.889747
0.91953
0.958246
1.00765
1.0595
1.10528
1.12866
1.13074
1.12159
1.0824
1.02211
1.00132
1.00002
1
1
1
1
1
0.890034
0.888605
0.886012
0.883167
0.881882
0.881505
0.881811
0.881508
0.879865
0.878499
0.881834
0.887045
0.891077
0.923756
0.963426
1.01476
1.06617
1.10974
1.12977
1.13076
1.12008
1.07758
1.0187
1.00099
1.00001
1
1
1
1
1
0.890375
0.888704
0.885923
0.88299
0.881594
0.881444
0.881938
0.881695
0.880106
0.878133
0.881221
0.88683
0.893325
0.929628
0.970165
1.02232
1.07335
1.11408
1.13053
1.13057
1.11827
1.0721
1.01542
1.00072
1.00001
1
1
1
1
1
0.8907
0.888783
0.885871
0.882902
0.881348
0.881286
0.881977
0.88179
0.880207
0.877569
0.879523
0.886894
0.899419
0.936339
0.978161
1.03061
1.08082
1.11819
1.13109
1.1303
1.1163
1.06595
1.01239
1.00051
1.00001
1
1
1
1
1
0.890927
0.889002
0.885873
0.882879
0.881196
0.881044
0.881896
0.8818
0.880122
0.876966
0.878423
0.888481
0.905602
0.942352
0.986821
1.03949
1.08845
1.12194
1.13145
1.12957
1.11378
1.05934
1.00969
1.00035
1
1
1
1
1
1
0.891003
0.889208
0.885979
0.882921
0.881141
0.880819
0.881833
0.881771
0.879924
0.876401
0.878063
0.891222
0.91085
0.947978
0.996002
1.049
1.09615
1.12514
1.13162
1.12844
1.10983
1.0524
1.00735
1.00023
1
1
1
1
1
1
0.890797
0.889256
0.886229
0.883172
0.881231
0.880565
0.881747
0.881747
0.879872
0.876009
0.877968
0.894016
0.916906
0.955185
1.0061
1.0592
1.10362
1.12765
1.13166
1.12684
1.10463
1.04531
1.00539
1.00015
1
1
1
1
1
1
0.89045
0.889243
0.886477
0.883518
0.881331
0.880391
0.881344
0.881629
0.880041
0.875953
0.878357
0.898076
0.924209
0.965283
1.01731
1.06994
1.11074
1.12932
1.1316
1.12566
1.09892
1.03813
1.00377
1.00009
1
1
1
1
1
1
0.890023
0.889039
0.886787
0.883894
0.881482
0.880358
0.880722
0.881237
0.880402
0.877412
0.880101
0.903478
0.932438
0.977279
1.02963
1.08119
1.11715
1.13023
1.13165
1.12585
1.0925
1.03075
1.00249
1.00005
1
1
1
1
1
1
0.889285
0.888974
0.886962
0.884227
0.882085
0.880589
0.880076
0.880285
0.88052
0.879603
0.882619
0.908937
0.942145
0.990622
1.04314
1.09238
1.12255
1.13074
1.13171
1.12626
1.08465
1.02352
1.00155
1.00003
1
1
1
1
1
1
0.888941
0.88882
0.886957
0.884367
0.882607
0.881366
0.879874
0.878333
0.880427
0.881862
0.886548
0.915596
0.954238
1.00522
1.05755
1.10291
1.12693
1.13105
1.13164
1.12261
1.07458
1.01702
1.0009
1.00001
1
1
1
1
1
1
0.888922
0.888334
0.886544
0.884202
0.882979
0.882335
0.879837
0.877342
0.879011
0.884371
0.892838
0.924481
0.968622
1.02115
1.07269
1.11251
1.13017
1.13138
1.13136
1.11454
1.06319
1.01167
1.00049
1.00001
1
1
1
1
1
1
0.889638
0.88813
0.885651
0.883797
0.88347
0.882992
0.880648
0.876911
0.878088
0.886555
0.899796
0.936634
0.985601
1.03901
1.08816
1.12047
1.13216
1.13176
1.13066
1.10783
1.05226
1.0075
1.00025
1
1
1
1
1
1
1
0.890435
0.888231
0.884769
0.88307
0.883622
0.883305
0.881438
0.876481
0.877793
0.890111
0.908763
0.953022
1.00527
1.05864
1.10264
1.12616
1.13297
1.13212
1.12771
1.10049
1.04061
1.00438
1.00012
1
1
1
1
1
1
1
0.890869
0.888482
0.884598
0.882269
0.882882
0.883366
0.881685
0.875987
0.877892
0.896252
0.924149
0.972723
1.02699
1.07892
1.11501
1.12954
1.13329
1.13215
1.12479
1.09074
1.02847
1.00225
1.00005
1
1
1
1
1
1
1
1
1
1
1
1
1
1
1
1
1
1
1
1.00016
1.00629
1.05152
1.10914
1.12606
1.13376
1.13459
1.13337
1.13192
1.13205
1.13301
1.13466
1.13548
1.13547
1.1347
1.13348
1.1312
1.11209
1
1
1
1
1
1
1
1
1
1
1
1
1.00019
1.00711
1.05357
1.1105
1.12646
1.1338
1.13451
1.13346
1.13194
1.13207
1.13299
1.13464
1.13547
1.13545
1.13465
1.13337
1.12774
1.08345
1
1
1
1
1
1
1
1
1
1
1
1
1.00023
1.00801
1.05595
1.11249
1.12691
1.13387
1.13447
1.13352
1.13199
1.13207
1.13295
1.13461
1.13544
1.13542
1.1346
1.13301
1.12137
1.05315
1
1
1
1
1
1
1
1
1
1
1
1
1.00027
1.00898
1.05922
1.11393
1.12707
1.13402
1.1345
1.13356
1.13205
1.13206
1.13292
1.13456
1.1354
1.13538
1.1345
1.13218
1.11239
1.02264
1
1
1
1
1
1
1
1
1
1
1
1
1.00033
1.0102
1.06242
1.115
1.12706
1.13412
1.13459
1.13364
1.13212
1.13208
1.13291
1.13452
1.13535
1.13534
1.13434
1.13051
1.101
0.992987
1
1
1
1
1
1
1
1
1
1
1
1
1.00041
1.01159
1.06533
1.11664
1.12699
1.13411
1.1348
1.13379
1.13224
1.13213
1.1329
1.13447
1.13529
1.13528
1.13407
1.12772
1.08686
0.96429
1
1
1
1
1
1
1
1
1
1
1
1.00001
1.00051
1.01317
1.06855
1.11817
1.12723
1.13422
1.13516
1.134
1.13243
1.13218
1.13289
1.1344
1.13522
1.1352
1.13355
1.1231
1.07115
0.937348
1
1
1
1
1
1
1
1
1
1
1
1.00001
1.00063
1.01493
1.07203
1.11946
1.12763
1.13451
1.13559
1.13421
1.1326
1.13227
1.13289
1.13432
1.13514
1.13511
1.13262
1.1165
1.05373
0.910313
1
1
1
1
1
1
1
1
1
1
1
1.00001
1.00078
1.01701
1.07565
1.12101
1.12775
1.13456
1.13589
1.13445
1.13279
1.13236
1.13293
1.13424
1.13506
1.13495
1.13086
1.10708
1.03427
0.888238
1
1
1
1
1
1
1
1
1
1
1
1.00001
1.00099
1.01938
1.07932
1.1226
1.12774
1.13449
1.13599
1.13468
1.13303
1.13246
1.13295
1.13416
1.13497
1.13464
1.12791
1.09506
1.01518
0.86554
1
1
1
1
1
1
1
1
1
1
1
1.00002
1.00125
1.02215
1.0832
1.1238
1.12771
1.13436
1.13599
1.13484
1.13328
1.13258
1.13298
1.13407
1.13487
1.134
1.12299
1.0801
0.994788
0.847729
1
1
1
1
1
1
1
1
1
1
1
1.00002
1.0016
1.02529
1.08705
1.12474
1.1277
1.13418
1.13594
1.13487
1.13347
1.1327
1.13302
1.13399
1.13474
1.13278
1.11582
1.06239
0.974153
0.834503
1
1
1
1
1
1
1
1
1
1
1
1.00003
1.00205
1.02888
1.09117
1.12586
1.12776
1.13392
1.13577
1.13484
1.13365
1.1328
1.13308
1.1339
1.13452
1.13042
1.10548
1.04259
0.956384
0.825252
1
1
1
1
1
1
1
1
1
1
1
1.00005
1.00264
1.03292
1.09541
1.12713
1.128
1.13356
1.13545
1.13476
1.13379
1.13287
1.13314
1.13374
1.13413
1.12648
1.0923
1.02124
0.937396
0.814749
1
1
1
1
1
1
1
1
1
1
1
1.00007
1.0034
1.03746
1.09981
1.12811
1.12819
1.13309
1.13508
1.13468
1.13385
1.13291
1.13319
1.13364
1.13312
1.11997
1.07571
0.999008
0.921337
0.815167
1
1
1
1
1
1
1
1
1
1
1
1.0001
1.00442
1.04255
1.10418
1.12886
1.12831
1.13263
1.13477
1.13459
1.13388
1.13294
1.13319
1.1335
1.13107
1.11072
1.0569
0.976367
0.907399
0.819588
1
1
1
1
1
1
1
1
1
1
1
1.00014
1.00571
1.04798
1.10759
1.12974
1.12869
1.13217
1.13449
1.13448
1.1339
1.13295
1.13314
1.1332
1.12738
1.09775
1.03552
0.954439
0.895916
0.827198
1
1
1
1
1
1
1
1
1
1
1
1.00022
1.00743
1.05383
1.11088
1.13064
1.12931
1.13174
1.13419
1.1344
1.13389
1.13293
1.13307
1.13234
1.12113
1.08184
1.0141
0.93328
0.884767
0.83378
1
1
1
1
1
1
1
1
1
1
1
1.00032
1.00958
1.05995
1.11381
1.13159
1.12965
1.13158
1.13403
1.13432
1.13384
1.13287
1.13292
1.13048
1.11189
1.06257
0.991097
0.913224
0.877549
0.843329
1
1
1
1
1
1
1
1
1
1
1.00001
1.00048
1.01235
1.06632
1.11625
1.13289
1.13008
1.13147
1.13395
1.13424
1.13385
1.13281
1.13253
1.12662
1.09877
1.0414
0.970022
0.895564
0.873818
0.858276
1
1
1
1
1
1
1
1
1
1
1.00001
1.00072
1.01577
1.07289
1.1192
1.13347
1.13077
1.13135
1.13386
1.13421
1.13392
1.13276
1.13162
1.12035
1.08246
1.01853
0.948348
0.880168
0.868732
0.872273
1
1
1
1
1
1
1
1
1
1
1.00002
1.0011
1.02008
1.0796
1.1211
1.13373
1.13108
1.1312
1.13375
1.13425
1.13404
1.13263
1.1295
1.11015
1.06246
0.995443
0.930909
0.87087
0.86305
0.883177
1
1
1
1
1
1
1
1
1
1
1.00003
1.00166
1.02513
1.08614
1.1228
1.13431
1.13112
1.13097
1.13363
1.1343
1.13419
1.13227
1.12537
1.09659
1.04086
0.972178
0.912909
0.863908
0.863383
0.889807
1
1
1
1
1
1
1
1
1
1
1.00005
1.00248
1.03127
1.09307
1.1251
1.1347
1.13104
1.1307
1.13346
1.13441
1.13434
1.13126
1.1182
1.07861
1.01708
0.950214
0.899942
0.864148
0.864831
0.893979
1
1
1
1
1
1
1
1
1
1
1.00008
1.00375
1.03833
1.0992
1.12667
1.13468
1.13101
1.13058
1.13324
1.13453
1.13442
1.12875
1.10725
1.05812
0.993714
0.929186
0.889782
0.865228
0.867555
0.894885
1
1
1
1
1
1
1
1
1
1
1.00014
1.00548
1.04615
1.10504
1.12786
1.1347
1.13113
1.13061
1.13321
1.13475
1.13412
1.12395
1.09211
1.03513
0.970506
0.910486
0.881526
0.866489
0.872172
0.895454
1
1
1
1
1
1
1
1
1
1
1.00026
1.00812
1.05487
1.11028
1.12929
1.13487
1.13134
1.13077
1.13327
1.13493
1.13272
1.11535
1.07331
1.01118
0.949161
0.894862
0.877242
0.86914
0.878362
0.895774
1
1
1
1
1
1
1
1
1
1.00001
1.00045
1.01155
1.06389
1.11487
1.13017
1.13483
1.13153
1.13103
1.13321
1.13477
1.12924
1.1029
1.05166
0.987804
0.929183
0.880213
0.87275
0.872511
0.884295
0.896796
1
1
1
1
1
1
1
1
1
1.00001
1.0008
1.01644
1.07353
1.11925
1.13058
1.13474
1.13182
1.13101
1.13281
1.13402
1.12245
1.08583
1.02802
0.964598
0.914002
0.873032
0.868502
0.876402
0.888773
0.89773
1
1
1
1
1
1
1
1
1
1.00002
1.00142
1.02262
1.08266
1.12263
1.13103
1.13482
1.13224
1.13099
1.13233
1.13116
1.11139
1.06551
1.00451
0.943614
0.899824
0.867606
0.864723
0.879162
0.891052
0.899023
1
1
1
1
1
1
1
1
1
1.00005
1.00242
1.03029
1.09213
1.12549
1.13145
1.13501
1.13271
1.13103
1.13128
1.12545
1.09566
1.04248
0.980703
0.92453
0.891337
0.867675
0.865177
0.880453
0.89242
0.899678
1
1
1
1
1
1
1
1
1
1.0001
1.00417
1.03994
1.10009
1.12816
1.13138
1.13498
1.13329
1.13104
1.12909
1.11561
1.07594
1.01796
0.958684
0.908239
0.884242
0.868331
0.866894
0.881966
0.892323
0.899162
1
1
1
1
1
1
1
1
1
1.00021
1.00683
1.05017
1.10775
1.12962
1.13116
1.13484
1.13367
1.13081
1.12472
1.10135
1.05298
0.994477
0.939063
0.89301
0.87995
0.871463
0.869778
0.883134
0.891743
0.897511
1
1
1
1
1
1
1
1
1.00001
1.00043
1.01094
1.0623
1.11486
1.1306
1.13088
1.13446
1.1336
1.12971
1.11712
1.0831
1.02896
0.970338
0.921301
0.882265
0.876656
0.875951
0.873915
0.884864
0.891186
0.894372
1
1
1
1
1
1
1
1
1.00001
1.00088
1.0171
1.07408
1.11984
1.13171
1.13092
1.13387
1.13322
1.12681
1.10501
1.06051
1.00434
0.949852
0.907414
0.875681
0.87238
0.878031
0.87962
0.886214
0.890591
0.890977
1
1
1
1
1
1
1
1
1.00003
1.00178
1.02509
1.08602
1.12399
1.13301
1.13116
1.13335
1.13195
1.12053
1.08785
1.0364
0.980514
0.930582
0.898211
0.873644
0.871139
0.878673
0.883708
0.887281
0.889355
0.888394
1
1
1
1
1
1
1
1
1.00008
1.00339
1.0358
1.09725
1.12704
1.13327
1.13146
1.13286
1.12895
1.10968
1.06697
1.01255
0.958637
0.912657
0.889487
0.87384
0.872056
0.87976
0.884756
0.887412
0.888331
0.887746
1
1
1
1
1
1
1
1
1.00019
1.00633
1.04865
1.10621
1.12916
1.13316
1.13135
1.13202
1.12305
1.09431
1.04365
0.986225
0.937214
0.899
0.886054
0.876358
0.87394
0.880113
0.884485
0.886797
0.888401
0.888318
1
1
1
1
1
1
1
1.00001
1.00046
1.01118
1.06184
1.11493
1.13057
1.13324
1.13133
1.12952
1.11302
1.074
1.01831
0.963761
0.921002
0.88755
0.882349
0.881231
0.877277
0.880544
0.883675
0.885807
0.888473
0.889837
1
1
1
1
1
1
1
1.00002
1.00104
1.01832
1.07634
1.12119
1.1316
1.13335
1.13099
1.12416
1.09795
1.05039
0.994101
0.94444
0.906194
0.879674
0.877486
0.881291
0.881736
0.881526
0.88214
0.885057
0.88875
0.890972
1.13199
1.13257
1.13352
1.13474
1.13549
1.13549
1.13468
1.13303
1.13205
1.13192
1.13332
1.13466
1.13376
1.1259
1.10801
1.04896
1.00563
1.00013
1
1
1
1
1
1
1
1
1
1
1
1
1.13199
1.13254
1.1335
1.13472
1.13549
1.1355
1.13478
1.13313
1.13207
1.13189
1.13326
1.13469
1.13384
1.12606
1.10736
1.04707
1.00533
1.00013
1
1
1
1
1
1
1
1
1
1
1
1
1.13202
1.13254
1.1335
1.13473
1.13549
1.1355
1.13483
1.1332
1.13214
1.13186
1.13322
1.13482
1.13389
1.12609
1.10607
1.04531
1.00486
1.00011
1
1
1
1
1
1
1
1
1
1
1
1
1.13204
1.13253
1.1335
1.13472
1.13548
1.1355
1.13487
1.13329
1.13219
1.13184
1.13319
1.13503
1.13394
1.12603
1.10478
1.04352
1.0044
1.00009
1
1
1
1
1
1
1
1
1
1
1
1
1.13208
1.13251
1.13346
1.13466
1.13542
1.13544
1.13489
1.13336
1.13224
1.13182
1.13315
1.13509
1.13394
1.1258
1.10333
1.0414
1.00398
1.00008
1
1
1
1
1
1
1
1
1
1
1
1
1.13214
1.13249
1.13344
1.13463
1.13535
1.13537
1.13488
1.13344
1.13231
1.13181
1.13309
1.13508
1.13391
1.12541
1.10162
1.03917
1.00358
1.00007
1
1
1
1
1
1
1
1
1
1
1
1
1.13221
1.13249
1.13343
1.13461
1.13529
1.13531
1.13488
1.13353
1.13238
1.13179
1.13301
1.13509
1.13389
1.12483
1.09968
1.03697
1.00318
1.00006
1
1
1
1
1
1
1
1
1
1
1
1
1.13229
1.13254
1.1334
1.13453
1.1352
1.13523
1.13488
1.13363
1.13242
1.13173
1.1329
1.13519
1.13391
1.12413
1.09758
1.03472
1.0028
1.00005
1
1
1
1
1
1
1
1
1
1
1
1
1.13237
1.13261
1.13338
1.13445
1.1351
1.13513
1.13486
1.13373
1.13243
1.13164
1.13278
1.13531
1.13393
1.12332
1.09523
1.03238
1.00245
1.00004
1
1
1
1
1
1
1
1
1
1
1
1
1.13247
1.13266
1.1334
1.13438
1.13498
1.13503
1.13482
1.1338
1.1324
1.13151
1.13261
1.13535
1.13387
1.1224
1.09269
1.03001
1.00212
1.00004
1
1
1
1
1
1
1
1
1
1
1
1
1.13259
1.13274
1.13342
1.13428
1.13486
1.13491
1.13477
1.13385
1.13235
1.13137
1.13239
1.13532
1.13378
1.12175
1.09013
1.0276
1.00181
1.00003
1
1
1
1
1
1
1
1
1
1
1
1
1.13272
1.13285
1.13343
1.13417
1.13471
1.13479
1.13471
1.13388
1.13234
1.13128
1.13214
1.13519
1.13386
1.12165
1.08747
1.02516
1.00152
1.00002
1
1
1
1
1
1
1
1
1
1
1
1
1.13286
1.13297
1.13344
1.13406
1.13454
1.13466
1.13464
1.13395
1.13238
1.13126
1.13192
1.13517
1.13409
1.12183
1.08458
1.02266
1.00125
1.00002
1
1
1
1
1
1
1
1
1
1
1
1
1.13301
1.1331
1.13349
1.13394
1.13436
1.13452
1.13456
1.13408
1.13251
1.13126
1.1317
1.13509
1.13404
1.12149
1.08136
1.02014
1.00102
1.00001
1
1
1
1
1
1
1
1
1
1
1
1
1.13319
1.13326
1.13354
1.13382
1.13416
1.13439
1.13449
1.1342
1.13274
1.13126
1.13144
1.1347
1.13365
1.11977
1.07774
1.01765
1.00081
1.00001
1
1
1
1
1
1
1
1
1
1
1
1
1.13339
1.13343
1.13358
1.1337
1.13394
1.13425
1.13445
1.13432
1.13297
1.13133
1.13123
1.13418
1.13306
1.1175
1.07362
1.01525
1.00063
1.00001
1
1
1
1
1
1
1
1
1
1
1
1
1.13361
1.13361
1.13361
1.13358
1.13372
1.13411
1.13445
1.13446
1.13321
1.13156
1.13114
1.13394
1.13261
1.11553
1.06921
1.01295
1.00048
1.00001
1
1
1
1
1
1
1
1
1
1
1
1
1.13383
1.13377
1.13365
1.13349
1.13348
1.13399
1.13449
1.1346
1.13348
1.13173
1.13122
1.1339
1.13244
1.11367
1.06441
1.01076
1.00036
1
1
1
1
1
1
1
1
1
1
1
1
1
1.13404
1.13389
1.13366
1.1334
1.13323
1.13386
1.13453
1.13473
1.13379
1.13188
1.13144
1.13399
1.13251
1.11177
1.05901
1.00873
1.00026
1
1
1
1
1
1
1
1
1
1
1
1
1
1.13429
1.13399
1.13364
1.1333
1.13305
1.13368
1.13454
1.13483
1.13412
1.13204
1.13144
1.13401
1.13269
1.10962
1.05315
1.00689
1.00019
1
1
1
1
1
1
1
1
1
1
1
1
1
1.13451
1.13409
1.13366
1.13323
1.13297
1.13347
1.13449
1.13491
1.13445
1.13231
1.13121
1.1335
1.13264
1.10612
1.0468
1.00526
1.00013
1
1
1
1
1
1
1
1
1
1
1
1
1
1.13464
1.13423
1.13378
1.13319
1.13292
1.13325
1.13435
1.13498
1.13471
1.13277
1.13094
1.13218
1.13121
1.10101
1.04057
1.00395
1.00009
1
1
1
1
1
1
1
1
1
1
1
1
1
1.13471
1.13428
1.13382
1.13318
1.13289
1.13308
1.1341
1.13503
1.1348
1.13348
1.13083
1.13073
1.12938
1.0963
1.0347
1.00287
1.00006
1
1
1
1
1
1
1
1
1
1
1
1
1
1.13476
1.13431
1.13382
1.13323
1.13287
1.13299
1.13367
1.13483