/*--------------------------------*- C++ -*----------------------------------*\
  =========                 |
  \\      /  F ield         | OpenFOAM: The Open Source CFD Toolbox
   \\    /   O peration     | Website:  https://openfoam.org
    \\  /    A nd           | Version:  7
     \\/     M anipulation  |
\*---------------------------------------------------------------------------*/
FoamFile
{
    version     2.0;
    format      ascii;
    class       volVectorField;
    location    "10";
    object      U;
}
// * * * * * * * * * * * * * * * * * * * * * * * * * * * * * * * * * * * * * //

dimensions      [0 1 -1 0 0 0 0];

internalField   nonuniform List<vector> 
24000
(
(3.08076 -1.0707 0)
(3.02988 -0.986646 0)
(2.98736 -0.85548 0)
(2.96312 -0.70593 0)
(2.9666 -0.677602 0)
(2.95259 -0.572862 0)
(2.95239 -0.504527 0)
(2.95208 -0.411437 0)
(2.96152 -0.369169 0)
(2.95615 -0.27512 0)
(2.96748 -0.243756 0)
(2.95882 -0.146333 0)
(2.96801 -0.121604 0)
(2.95875 -0.0312923 0)
(2.96277 -0.0172892 0)
(2.95057 0.0469423 0)
(2.94813 0.0321968 0)
(2.93441 0.0496364 0)
(2.92923 0.0489612 0)
(2.92805 0.0495463 0)
(2.9279 0.0437279 0)
(2.92867 0.0525528 0)
(2.92763 0.0596701 0)
(2.92157 0.0694294 0)
(2.91619 0.0690459 0)
(2.91212 0.0673447 0)
(2.90752 0.0686232 0)
(2.90619 0.0578399 0)
(2.90481 0.047662 0)
(2.8996 0.040858 0)
(2.89556 0.0320173 0)
(2.89719 0.037093 0)
(2.90135 0.0453249 0)
(2.90483 0.0550809 0)
(2.90462 0.0556427 0)
(2.90114 0.0518435 0)
(2.89784 0.0444736 0)
(2.89795 0.0466548 0)
(2.90076 0.0507356 0)
(2.90303 0.0536816 0)
(2.90319 0.0507068 0)
(2.90223 0.0446059 0)
(2.90527 0.0496061 0)
(2.90762 0.0529556 0)
(2.90889 0.0534921 0)
(2.90906 0.0505147 0)
(2.91088 0.0512832 0)
(2.91297 0.0552131 0)
(2.91477 0.054957 0)
(2.91663 0.0510085 0)
(3.14204 -1.18439 0)
(3.14194 -1.18413 0)
(3.14165 -1.1841 0)
(3.14137 -1.18375 0)
(3.1409 -1.18371 0)
(3.14054 -1.1833 0)
(3.13989 -1.18369 0)
(3.13862 -1.18204 0)
(3.13505 -1.17655 0)
(3.12756 -1.16044 0)
(3.11704 -1.1347 0)
(3.09996 -1.08159 0)
(3.07987 -1.01359 0)
(3.04981 -0.893841 0)
(3.02296 -0.769941 0)
(2.98414 -0.584787 0)
(2.96388 -0.461897 0)
(2.92188 -0.258502 0)
(2.93366 -0.207537 0)
(2.89377 -0.0475469 0)
(2.90398 -0.0299132 0)
(2.88383 0.0523922 0)
(2.88419 0.0553205 0)
(2.87358 0.0978902 0)
(2.86493 0.102627 0)
(2.86903 0.120571 0)
(2.86893 0.108743 0)
(2.87111 0.0796876 0)
(2.87003 0.0543024 0)
(2.87457 0.0304339 0)
(2.87555 0.0329021 0)
(2.88139 0.0469157 0)
(2.88328 0.0638815 0)
(2.87878 0.0725098 0)
(2.87349 0.0682764 0)
(2.86641 0.0624997 0)
(2.86948 0.0534682 0)
(2.87304 0.0553556 0)
(2.87838 0.0596285 0)
(2.87908 0.0578552 0)
(2.87828 0.0542634 0)
(2.88025 0.0523328 0)
(2.88344 0.0563909 0)
(2.88633 0.0608754 0)
(2.88749 0.0574983 0)
(2.88801 0.0530943 0)
(2.89111 0.0523927 0)
(2.89408 0.0519379 0)
(2.89603 0.0507983 0)
(2.89864 0.0494096 0)
(3.13386 -1.18165 0)
(3.13343 -1.18121 0)
(3.13253 -1.18128 0)
(3.13157 -1.18136 0)
(3.13076 -1.18095 0)
(3.12967 -1.18085 0)
(3.12852 -1.18095 0)
(3.12747 -1.18114 0)
(3.12664 -1.18108 0)
(3.126 -1.18134 0)
(3.1256 -1.18105 0)
(3.12484 -1.18114 0)
(3.12421 -1.18072 0)
(3.12327 -1.18086 0)
(3.12264 -1.18015 0)
(3.12165 -1.181 0)
(3.1164 -1.17141 0)
(3.09839 -1.12564 0)
(3.07293 -1.04723 0)
(3.02949 -0.885235 0)
(3.00333 -0.75944 0)
(2.95051 -0.513555 0)
(2.94969 -0.427433 0)
(2.90328 -0.218431 0)
(2.8956 -0.152406 0)
(2.87361 -0.0433088 0)
(2.86784 -0.015033 0)
(2.86522 0.00111675 0)
(2.86108 0.0287816 0)
(2.86254 0.0351711 0)
(2.85957 0.043998 0)
(2.85505 0.0586793 0)
(2.8536 0.0592654 0)
(2.8493 0.0579522 0)
(2.84515 0.0522181 0)
(2.84318 0.043374 0)
(2.85086 0.0471881 0)
(2.85762 0.0525881 0)
(2.85838 0.0557914 0)
(2.85512 0.0529857 0)
(2.85487 0.042846 0)
(2.85716 0.0447343 0)
(2.86212 0.051056 0)
(2.8632 0.0515544 0)
(2.86291 0.0502246 0)
(2.86579 0.0484568 0)
(2.8687 0.053168 0)
(2.87197 0.0568319 0)
(2.873 0.0532858 0)
(2.87607 0.0477988 0)
(3.1228 -1.18038 0)
(3.12251 -1.1798 0)
(3.12199 -1.17978 0)
(3.1215 -1.17993 0)
(3.12112 -1.17931 0)
(3.12073 -1.17882 0)
(3.11951 -1.17943 0)
(3.11895 -1.17992 0)
(3.11858 -1.18024 0)
(3.11818 -1.18059 0)
(3.11791 -1.18053 0)
(3.11771 -1.18015 0)
(3.11724 -1.18012 0)
(3.1168 -1.17977 0)
(3.11634 -1.1795 0)
(3.11582 -1.1796 0)
(3.11574 -1.17943 0)
(3.11598 -1.1793 0)
(3.11622 -1.17923 0)
(3.11627 -1.17927 0)
(3.11654 -1.17903 0)
(3.11472 -1.17266 0)
(3.10548 -1.14245 0)
(3.07138 -1.03446 0)
(3.03169 -0.875546 0)
(2.9747 -0.635638 0)
(2.92121 -0.392547 0)
(2.90238 -0.210211 0)
(2.86966 -0.0395382 0)
(2.83481 0.0950124 0)
(2.83032 0.131116 0)
(2.82521 0.112361 0)
(2.82814 0.0711068 0)
(2.8354 0.0536001 0)
(2.84012 0.0460217 0)
(2.84031 0.0447744 0)
(2.84787 0.054876 0)
(2.84683 0.0641411 0)
(2.84473 0.0598593 0)
(2.83981 0.0462296 0)
(2.83791 0.0470117 0)
(2.84114 0.0535759 0)
(2.84636 0.0608799 0)
(2.84462 0.0586192 0)
(2.84276 0.0508981 0)
(2.84719 0.0511025 0)
(2.8497 0.0517019 0)
(2.85092 0.0502968 0)
(2.85097 0.0485287 0)
(2.8538 0.0472633 0)
(3.11702 -1.1776 0)
(3.11696 -1.17769 0)
(3.11676 -1.17809 0)
(3.11675 -1.17838 0)
(3.11662 -1.17765 0)
(3.11653 -1.17705 0)
(3.11604 -1.17714 0)
(3.11596 -1.17732 0)
(3.11601 -1.17754 0)
(3.11598 -1.178 0)
(3.11599 -1.17818 0)
(3.11594 -1.17809 0)
(3.11589 -1.17794 0)
(3.1158 -1.17781 0)
(3.11559 -1.17788 0)
(3.11543 -1.17799 0)
(3.11549 -1.17796 0)
(3.11582 -1.17788 0)
(3.11627 -1.17791 0)
(3.11641 -1.17798 0)
(3.11662 -1.1781 0)
(3.11738 -1.17747 0)
(3.11764 -1.17736 0)
(3.11764 -1.17761 0)
(3.11767 -1.17767 0)
(3.11706 -1.17881 0)
(3.10531 -1.14964 0)
(3.07043 -1.03169 0)
(3.01642 -0.818386 0)
(2.95431 -0.508897 0)
(2.95237 -0.332801 0)
(2.87553 -0.0929674 0)
(2.87841 -0.0556486 0)
(2.85326 0.00326328 0)
(2.85034 0.0269009 0)
(2.84797 0.0433264 0)
(2.83979 0.063924 0)
(2.83302 0.0644359 0)
(2.82365 0.0491946 0)
(2.82588 0.0398294 0)
(2.82902 0.042719 0)
(2.83565 0.054935 0)
(2.83605 0.0568104 0)
(2.8341 0.0523184 0)
(2.83323 0.0476345 0)
(2.83472 0.0511206 0)
(2.83697 0.0550453 0)
(2.83655 0.0529355 0)
(2.83605 0.049309 0)
(2.83793 0.047121 0)
(3.11521 -1.17663 0)
(3.11516 -1.17676 0)
(3.11512 -1.17687 0)
(3.11507 -1.17693 0)
(3.11525 -1.17693 0)
(3.11536 -1.17681 0)
(3.11517 -1.17692 0)
(3.11505 -1.17731 0)
(3.11511 -1.17762 0)
(3.11525 -1.17777 0)
(3.11529 -1.17759 0)
(3.11531 -1.17742 0)
(3.1154 -1.17707 0)
(3.1155 -1.17663 0)
(3.11547 -1.17643 0)
(3.11563 -1.17627 0)
(3.1157 -1.17622 0)
(3.11579 -1.17629 0)
(3.1161 -1.17672 0)
(3.11658 -1.17728 0)
(3.11689 -1.17723 0)
(3.11756 -1.17739 0)
(3.11776 -1.17761 0)
(3.11781 -1.17833 0)
(3.11803 -1.1791 0)
(3.1171 -1.17987 0)
(3.11457 -1.17924 0)
(3.11386 -1.17946 0)
(3.11336 -1.17929 0)
(3.1115 -1.16644 0)
(3.09195 -1.07487 0)
(3.00067 -0.728179 0)
(2.98738 -0.486312 0)
(2.88811 -0.0934188 0)
(2.88277 -0.027216 0)
(2.86212 0.113546 0)
(2.82642 0.0937527 0)
(2.81954 0.0622041 0)
(2.81924 0.0442134 0)
(2.82329 0.0424426 0)
(2.83194 0.0547889 0)
(2.8352 0.0624872 0)
(2.8308 0.0574987 0)
(2.82726 0.0469232 0)
(2.82759 0.0469327 0)
(2.8304 0.0521095 0)
(2.83134 0.0535112 0)
(2.83064 0.0500676 0)
(2.8307 0.0472188 0)
(2.83046 0.0460586 0)
(3.11441 -1.17737 0)
(3.11439 -1.17749 0)
(3.11439 -1.17752 0)
(3.11443 -1.17748 0)
(3.11443 -1.1775 0)
(3.11444 -1.1775 0)
(3.11459 -1.17738 0)
(3.11464 -1.17739 0)
(3.11473 -1.17732 0)
(3.1149 -1.17704 0)
(3.11487 -1.17687 0)
(3.11502 -1.17638 0)
(3.11535 -1.17566 0)
(3.11549 -1.17515 0)
(3.11552 -1.17504 0)
(3.11545 -1.17498 0)
(3.11531 -1.17485 0)
(3.11496 -1.17498 0)
(3.11488 -1.1758 0)
(3.11594 -1.17666 0)
(3.11699 -1.17715 0)
(3.11761 -1.17733 0)
(3.11792 -1.17781 0)
(3.1179 -1.17914 0)
(3.11794 -1.18049 0)
(3.11682 -1.1804 0)
(3.11448 -1.17963 0)
(3.114 -1.18001 0)
(3.11294 -1.18075 0)
(3.11549 -1.18057 0)
(3.11968 -1.178 0)
(3.11942 -1.17586 0)
(3.1131 -1.15434 0)
(3.06265 -0.966129 0)
(3.01178 -0.67574 0)
(2.93903 -0.280668 0)
(2.94026 -0.170192 0)
(2.86918 -0.0295875 0)
(2.85534 0.0207045 0)
(2.84864 0.0478694 0)
(2.83453 0.070698 0)
(2.82855 0.0647179 0)
(2.81956 0.044031 0)
(2.82092 0.0400027 0)
(2.82533 0.0481148 0)
(2.83007 0.0563114 0)
(2.82925 0.0525376 0)
(2.8273 0.0453993 0)
(2.82882 0.0460754 0)
(2.8283 0.0452677 0)
(3.11482 -1.1775 0)
(3.11484 -1.17764 0)
(3.11484 -1.17787 0)
(3.11503 -1.17786 0)
(3.11534 -1.17769 0)
(3.11539 -1.17782 0)
(3.1158 -1.17749 0)
(3.11627 -1.17661 0)
(3.11619 -1.17636 0)
(3.11596 -1.17627 0)
(3.11579 -1.17546 0)
(3.1155 -1.17496 0)
(3.11542 -1.17487 0)
(3.11524 -1.17469 0)
(3.11502 -1.1747 0)
(3.1148 -1.17453 0)
(3.11447 -1.17428 0)
(3.11379 -1.17465 0)
(3.11346 -1.17601 0)
(3.11464 -1.17737 0)
(3.11627 -1.17776 0)
(3.11746 -1.17804 0)
(3.11799 -1.17867 0)
(3.11806 -1.17969 0)
(3.11816 -1.18042 0)
(3.11647 -1.17963 0)
(3.11489 -1.1793 0)
(3.11442 -1.18008 0)
(3.11386 -1.18107 0)
(3.11825 -1.18145 0)
(3.12154 -1.17962 0)
(3.12078 -1.17544 0)
(3.11856 -1.17544 0)
(3.11751 -1.17673 0)
(3.1176 -1.1799 0)
(3.0862 -1.07419 0)
(3.04861 -0.777077 0)
(2.93246 -0.285914 0)
(2.94895 -0.132273 0)
(2.86573 0.103907 0)
(2.83293 0.0946639 0)
(2.82013 0.0607917 0)
(2.8231 0.0442546 0)
(2.82734 0.0443393 0)
(2.83471 0.0580316 0)
(2.83264 0.0579734 0)
(2.82664 0.0491377 0)
(2.82652 0.0462928 0)
(2.82769 0.0472691 0)
(2.82719 0.0441507 0)
(3.11664 -1.17752 0)
(3.11651 -1.17785 0)
(3.11653 -1.17788 0)
(3.11681 -1.17731 0)
(3.11684 -1.17725 0)
(3.11682 -1.17752 0)
(3.11699 -1.17755 0)
(3.11715 -1.177 0)
(3.11694 -1.17648 0)
(3.11659 -1.17589 0)
(3.11586 -1.17522 0)
(3.11515 -1.17508 0)
(3.11493 -1.17506 0)
(3.11457 -1.17483 0)
(3.11364 -1.17498 0)
(3.11248 -1.17518 0)
(3.11167 -1.17473 0)
(3.1108 -1.17525 0)
(3.1111 -1.17715 0)
(3.1138 -1.17927 0)
(3.11511 -1.17972 0)
(3.11796 -1.17967 0)
(3.11889 -1.17901 0)
(3.11898 -1.17812 0)
(3.11838 -1.17701 0)
(3.11735 -1.1764 0)
(3.11664 -1.17662 0)
(3.11629 -1.17945 0)
(3.11697 -1.18149 0)
(3.12046 -1.18229 0)
(3.12214 -1.18032 0)
(3.12089 -1.17616 0)
(3.11856 -1.17633 0)
(3.11652 -1.18051 0)
(3.11646 -1.18099 0)
(3.11323 -1.18181 0)
(3.11103 -1.18396 0)
(3.09325 -1.12304 0)
(3.05177 -0.834711 0)
(2.96149 -0.365329 0)
(2.93294 -0.174033 0)
(2.87731 -0.0253631 0)
(2.85375 0.0327387 0)
(2.8472 0.0516335 0)
(2.8403 0.0662255 0)
(2.82848 0.0515553 0)
(2.82404 0.0383962 0)
(2.8292 0.0438681 0)
(2.8301 0.0471171 0)
(2.82749 0.0420079 0)
(3.11938 -1.17771 0)
(3.1195 -1.17796 0)
(3.11951 -1.17821 0)
(3.11953 -1.17837 0)
(3.11948 -1.17822 0)
(3.11914 -1.17755 0)
(3.11877 -1.17681 0)
(3.11852 -1.17655 0)
(3.11752 -1.1759 0)
(3.11654 -1.17562 0)
(3.11556 -1.17557 0)
(3.11376 -1.17613 0)
(3.11294 -1.17656 0)
(3.11206 -1.17676 0)
(3.11113 -1.1776 0)
(3.11079 -1.17886 0)
(3.11115 -1.17872 0)
(3.11167 -1.17854 0)
(3.11281 -1.18028 0)
(3.11435 -1.1825 0)
(3.11544 -1.18305 0)
(3.11826 -1.18247 0)
(3.12115 -1.17946 0)
(3.12095 -1.17488 0)
(3.11834 -1.17232 0)
(3.11783 -1.17305 0)
(3.1182 -1.17383 0)
(3.11912 -1.17783 0)
(3.1207 -1.18365 0)
(3.12196 -1.18452 0)
(3.12229 -1.18167 0)
(3.1204 -1.17783 0)
(3.11793 -1.17852 0)
(3.11457 -1.18306 0)
(3.11214 -1.18484 0)
(3.10835 -1.18349 0)
(3.1088 -1.18051 0)
(3.11031 -1.18023 0)
(3.11334 -1.17928 0)
(3.09814 -1.11721 0)
(3.0455 -0.788554 0)
(2.93807 -0.261073 0)
(2.91163 -0.0731572 0)
(2.87128 0.106537 0)
(2.83235 0.0805795 0)
(2.83248 0.0508296 0)
(2.83593 0.0471546 0)
(2.83954 0.051303 0)
(2.83538 0.0483267 0)
(2.83045 0.0406318 0)
(3.12095 -1.17954 0)
(3.12057 -1.17966 0)
(3.1201 -1.17961 0)
(3.11965 -1.17961 0)
(3.1192 -1.17956 0)
(3.1181 -1.17971 0)
(3.11733 -1.17954 0)
(3.11676 -1.17937 0)
(3.11551 -1.17963 0)
(3.11461 -1.18007 0)
(3.11362 -1.18008 0)
(3.1126 -1.18047 0)
(3.11222 -1.18131 0)
(3.11165 -1.1815 0)
(3.11139 -1.18301 0)
(3.11171 -1.1847 0)
(3.11236 -1.1852 0)
(3.11373 -1.18478 0)
(3.11518 -1.18486 0)
(3.11637 -1.1856 0)
(3.1171 -1.18625 0)
(3.11849 -1.18744 0)
(3.12212 -1.1827 0)
(3.12157 -1.17328 0)
(3.11701 -1.16891 0)
(3.11661 -1.1729 0)
(3.11705 -1.17584 0)
(3.11917 -1.18031 0)
(3.12056 -1.18639 0)
(3.12003 -1.18635 0)
(3.11986 -1.18205 0)
(3.11802 -1.18038 0)
(3.11424 -1.18255 0)
(3.10905 -1.18749 0)
(3.10438 -1.18649 0)
(3.10385 -1.18461 0)
(3.1075 -1.17983 0)
(3.112 -1.17555 0)
(3.11389 -1.17522 0)
(3.11463 -1.17547 0)
(3.11428 -1.1805 0)
(3.0943 -1.09841 0)
(3.0215 -0.700641 0)
(2.96267 -0.272167 0)
(2.90334 -0.0733095 0)
(2.86963 0.0170037 0)
(2.86226 0.0423537 0)
(2.84604 0.0548658 0)
(2.83501 0.0411183 0)
(2.83742 0.0348473 0)
(3.11768 -1.18259 0)
(3.117 -1.18196 0)
(3.1162 -1.18165 0)
(3.11607 -1.18182 0)
(3.11586 -1.18184 0)
(3.11555 -1.18136 0)
(3.1144 -1.1818 0)
(3.11392 -1.18252 0)
(3.11344 -1.18302 0)
(3.11307 -1.18338 0)
(3.11334 -1.18278 0)
(3.11341 -1.18295 0)
(3.11394 -1.18431 0)
(3.11508 -1.18498 0)
(3.11661 -1.1874 0)
(3.1185 -1.19 0)
(3.11894 -1.19074 0)
(3.1193 -1.19028 0)
(3.11996 -1.18945 0)
(3.12085 -1.1893 0)
(3.12084 -1.18973 0)
(3.12027 -1.18985 0)
(3.12213 -1.18341 0)
(3.12092 -1.17326 0)
(3.11588 -1.16806 0)
(3.11536 -1.17288 0)
(3.11623 -1.17832 0)
(3.11834 -1.18278 0)
(3.12019 -1.18822 0)
(3.11471 -1.18453 0)
(3.11076 -1.18136 0)
(3.10702 -1.18199 0)
(3.10703 -1.18632 0)
(3.10727 -1.1857 0)
(3.10652 -1.18409 0)
(3.10472 -1.18309 0)
(3.10916 -1.1779 0)
(3.11645 -1.16886 0)
(3.11871 -1.16431 0)
(3.11616 -1.16826 0)
(3.11631 -1.17038 0)
(3.1165 -1.16809 0)
(3.11909 -1.15972 0)
(3.09106 -1.00386 0)
(2.98504 -0.453785 0)
(2.95766 -0.16942 0)
(2.8791 0.0988397 0)
(2.8315 0.0626465 0)
(2.84883 0.0420678 0)
(2.85473 0.0399608 0)
(3.11792 -1.17436 0)
(3.1162 -1.17249 0)
(3.11644 -1.17396 0)
(3.11725 -1.1769 0)
(3.11705 -1.1783 0)
(3.11645 -1.17875 0)
(3.11585 -1.17908 0)
(3.11447 -1.18109 0)
(3.11423 -1.18191 0)
(3.11439 -1.18244 0)
(3.11718 -1.18237 0)
(3.11948 -1.18243 0)
(3.1212 -1.18281 0)
(3.12423 -1.186 0)
(3.12604 -1.18881 0)
(3.12619 -1.19097 0)
(3.12655 -1.19274 0)
(3.12565 -1.19094 0)
(3.12374 -1.18716 0)
(3.12317 -1.18599 0)
(3.12221 -1.18607 0)
(3.12155 -1.18478 0)
(3.12019 -1.17707 0)
(3.11742 -1.16823 0)
(3.11184 -1.16349 0)
(3.11266 -1.17004 0)
(3.11244 -1.17904 0)
(3.11394 -1.18597 0)
(3.11049 -1.18838 0)
(3.09725 -1.17605 0)
(3.09641 -1.1722 0)
(3.09848 -1.17409 0)
(3.10814 -1.17815 0)
(3.11442 -1.17633 0)
(3.11823 -1.16592 0)
(3.11704 -1.16139 0)
(3.12517 -1.15036 0)
(3.12499 -1.14827 0)
(3.12025 -1.14964 0)
(3.11387 -1.15768 0)
(3.1196 -1.14902 0)
(3.12178 -1.14006 0)
(3.12712 -1.13101 0)
(3.12802 -1.13056 0)
(3.1215 -1.1037 0)
(3.06682 -0.810263 0)
(3.00187 -0.355893 0)
(2.92454 -0.10308 0)
(2.89578 0.0165126 0)
(2.87382 0.0418955 0)
(3.11588 -1.16106 0)
(3.11614 -1.16111 0)
(3.11647 -1.16277 0)
(3.11593 -1.16579 0)
(3.11556 -1.16917 0)
(3.11634 -1.16999 0)
(3.11673 -1.17124 0)
(3.11407 -1.17639 0)
(3.11417 -1.17781 0)
(3.11552 -1.17875 0)
(3.11953 -1.1823 0)
(3.12188 -1.18411 0)
(3.12335 -1.18525 0)
(3.12539 -1.18749 0)
(3.12584 -1.18888 0)
(3.12597 -1.19006 0)
(3.12499 -1.19051 0)
(3.12396 -1.1889 0)
(3.11848 -1.18096 0)
(3.11631 -1.17709 0)
(3.11311 -1.17141 0)
(3.11184 -1.16201 0)
(3.11017 -1.15447 0)
(3.1061 -1.15662 0)
(3.10667 -1.16108 0)
(3.10837 -1.16384 0)
(3.11085 -1.17328 0)
(3.10969 -1.17694 0)
(3.1042 -1.17405 0)
(3.10071 -1.16276 0)
(3.10789 -1.15427 0)
(3.11073 -1.15369 0)
(3.11796 -1.14977 0)
(3.12576 -1.14081 0)
(3.12622 -1.13968 0)
(3.12381 -1.14032 0)
(3.11999 -1.1396 0)
(3.11871 -1.1379 0)
(3.11615 -1.14225 0)
(3.11942 -1.13251 0)
(3.1253 -1.11001 0)
(3.1303 -1.1044 0)
(3.13126 -1.10455 0)
(3.13181 -1.09695 0)
(3.13283 -1.08323 0)
(3.12938 -1.08749 0)
(3.11033 -0.979648 0)
(3.02349 -0.493576 0)
(2.97181 -0.171386 0)
(2.89512 0.0165913 0)
(3.11195 -1.11254 0)
(3.11278 -1.11209 0)
(3.11318 -1.11354 0)
(3.11104 -1.11929 0)
(3.10951 -1.12309 0)
(3.11026 -1.12415 0)
(3.11145 -1.12284 0)
(3.10683 -1.12562 0)
(3.10293 -1.13291 0)
(3.10453 -1.13716 0)
(3.10863 -1.13768 0)
(3.11168 -1.13815 0)
(3.11235 -1.13882 0)
(3.11358 -1.13946 0)
(3.11466 -1.14144 0)
(3.11544 -1.14518 0)
(3.11566 -1.13945 0)
(3.11533 -1.13456 0)
(3.11091 -1.13744 0)
(3.10697 -1.14392 0)
(3.10572 -1.14473 0)
(3.10552 -1.13574 0)
(3.10655 -1.12737 0)
(3.10816 -1.13229 0)
(3.11096 -1.13705 0)
(3.11533 -1.13936 0)
(3.12145 -1.13946 0)
(3.12427 -1.13618 0)
(3.12523 -1.13371 0)
(3.12442 -1.13231 0)
(3.12324 -1.12404 0)
(3.12237 -1.1193 0)
(3.12008 -1.11786 0)
(3.12319 -1.10696 0)
(3.12686 -1.09971 0)
(3.12528 -1.10253 0)
(3.12253 -1.10305 0)
(3.12433 -1.09634 0)
(3.12623 -1.08819 0)
(3.13071 -1.07817 0)
(3.13483 -1.06883 0)
(3.13472 -1.06746 0)
(3.13515 -1.06185 0)
(3.13371 -1.05016 0)
(3.12857 -1.04747 0)
(3.1283 -1.04221 0)
(3.12922 -1.03244 0)
(3.12803 -1.00853 0)
(3.09511 -0.796527 0)
(2.93389 -0.141599 0)
(3.11303 -1.11332 0)
(3.11219 -1.11501 0)
(3.11112 -1.1182 0)
(3.11266 -1.11926 0)
(3.1132 -1.12496 0)
(3.11371 -1.12925 0)
(3.11313 -1.12844 0)
(3.11306 -1.12576 0)
(3.10665 -1.13152 0)
(3.10358 -1.13797 0)
(3.10456 -1.14022 0)
(3.10868 -1.14022 0)
(3.11137 -1.14071 0)
(3.11447 -1.14193 0)
(3.11685 -1.14229 0)
(3.1196 -1.14081 0)
(3.12082 -1.13521 0)
(3.11881 -1.12905 0)
(3.11718 -1.12693 0)
(3.11512 -1.12613 0)
(3.11386 -1.12439 0)
(3.11296 -1.12426 0)
(3.11145 -1.12221 0)
(3.11237 -1.11598 0)
(3.11772 -1.10838 0)
(3.12194 -1.10259 0)
(3.12185 -1.10253 0)
(3.12294 -1.09823 0)
(3.13663 -1.07267 0)
(3.14216 -1.06311 0)
(3.14097 -1.06196 0)
(3.13621 -1.05624 0)
(3.12558 -1.05915 0)
(3.11819 -1.0623 0)
(3.12021 -1.05679 0)
(3.12715 -1.04998 0)
(3.13082 -1.05182 0)
(3.13346 -1.04578 0)
(3.13651 -1.03597 0)
(3.13692 -1.03194 0)
(3.13839 -1.02778 0)
(3.13683 -1.01802 0)
(3.13625 -1.00611 0)
(3.13139 -1.0041 0)
(3.13003 -1.00361 0)
(3.1326 -0.994285 0)
(3.13568 -0.985862 0)
(3.14121 -0.974176 0)
(3.13851 -0.980574 0)
(3.07139 -0.641436 0)
(3.13191 -1.06173 0)
(3.13286 -1.06216 0)
(3.13304 -1.06155 0)
(3.13308 -1.05989 0)
(3.13376 -1.05838 0)
(3.13377 -1.05923 0)
(3.13122 -1.05145 0)
(3.13072 -1.03963 0)
(3.12946 -1.03604 0)
(3.12901 -1.02606 0)
(3.1329 -1.0172 0)
(3.13258 -1.01088 0)
(3.13201 -1.00816 0)
(3.1309 -1.0073 0)
(3.12942 -1.00518 0)
(3.13091 -1.00083 0)
(3.13477 -0.986561 0)
(3.13179 -0.969137 0)
(3.13041 -0.963776 0)
(3.13364 -0.965308 0)
(3.13682 -0.967523 0)
(3.13997 -0.97419 0)
(3.13947 -0.9883 0)
(3.13749 -0.993112 0)
(3.13339 -0.992796 0)
(3.12725 -0.989322 0)
(3.12266 -0.986236 0)
(3.12108 -0.987077 0)
(3.12598 -0.986247 0)
(3.13176 -0.990849 0)
(3.13453 -0.99446 0)
(3.13626 -0.992788 0)
(3.13652 -0.990902 0)
(3.13258 -0.996037 0)
(3.13365 -0.99414 0)
(3.13806 -0.986621 0)
(3.13964 -0.983667 0)
(3.14226 -0.977428 0)
(3.14384 -0.972679 0)
(3.13933 -0.964054 0)
(3.13942 -0.955895 0)
(3.13465 -0.955875 0)
(3.13286 -0.952953 0)
(3.13158 -0.96253 0)
(3.13587 -0.953441 0)
(3.13857 -0.949085 0)
(3.14024 -0.940928 0)
(3.13925 -0.937061 0)
(3.13474 -0.940317 0)
(3.13165 -0.928433 0)
(3.13868 -0.932241 0)
(3.1391 -0.931523 0)
(3.139 -0.932248 0)
(3.13735 -0.936159 0)
(3.13701 -0.939901 0)
(3.13569 -0.943081 0)
(3.13178 -0.947351 0)
(3.13105 -0.950557 0)
(3.13278 -0.949817 0)
(3.13306 -0.949636 0)
(3.13199 -0.950473 0)
(3.13146 -0.948581 0)
(3.13254 -0.94636 0)
(3.12857 -0.951078 0)
(3.1261 -0.96163 0)
(3.12755 -0.967152 0)
(3.12927 -0.969393 0)
(3.12967 -0.971582 0)
(3.13002 -0.974235 0)
(3.13137 -0.975852 0)
(3.13235 -0.973152 0)
(3.13086 -0.967497 0)
(3.13208 -0.955816 0)
(3.13588 -0.950065 0)
(3.13676 -0.942528 0)
(3.13619 -0.940974 0)
(3.13834 -0.946853 0)
(3.13737 -0.951168 0)
(3.13542 -0.955047 0)
(3.13359 -0.955158 0)
(3.13311 -0.95249 0)
(3.13648 -0.948581 0)
(3.14145 -0.93779 0)
(3.14308 -0.932047 0)
(3.14725 -0.924298 0)
(3.14566 -0.920235 0)
(3.1425 -0.90904 0)
(3.1407 -0.906135 0)
(3.13774 -0.904436 0)
(3.13445 -0.910358 0)
(3.13395 -0.911543 0)
(3.13137 -0.921013 0)
(3.13536 -0.917529 0)
(3.13929 -0.912303 0)
(3.14172 -0.906825 0)
(3.14306 -0.894477 0)
(3.14049 -0.892476 0)
(3.13534 -0.891961 0)
(3.1325 -0.897016 0)
(3.13472 -0.889593 0)
(3.14057 -0.862154 0)
(3.14098 -0.861741 0)
(3.14161 -0.858904 0)
(3.1411 -0.856373 0)
(3.14072 -0.855364 0)
(3.14139 -0.855996 0)
(3.14141 -0.856725 0)
(3.14116 -0.857201 0)
(3.14099 -0.856451 0)
(3.1406 -0.853597 0)
(3.13993 -0.851267 0)
(3.14022 -0.851999 0)
(3.1408 -0.852552 0)
(3.14336 -0.849353 0)
(3.14533 -0.842158 0)
(3.14345 -0.837114 0)
(3.14205 -0.833443 0)
(3.14173 -0.831472 0)
(3.14108 -0.830871 0)
(3.14108 -0.830557 0)
(3.13974 -0.831656 0)
(3.1361 -0.83906 0)
(3.13765 -0.84806 0)
(3.14133 -0.853122 0)
(3.14162 -0.855229 0)
(3.14345 -0.855076 0)
(3.14916 -0.845663 0)
(3.15116 -0.829768 0)
(3.1452 -0.818561 0)
(3.14046 -0.813843 0)
(3.14078 -0.820818 0)
(3.14031 -0.827515 0)
(3.13997 -0.831245 0)
(3.13943 -0.827914 0)
(3.13817 -0.83064 0)
(3.1383 -0.835496 0)
(3.13701 -0.841941 0)
(3.13609 -0.84529 0)
(3.13289 -0.852206 0)
(3.13673 -0.853893 0)
(3.13796 -0.853123 0)
(3.14101 -0.849781 0)
(3.14339 -0.844082 0)
(3.14434 -0.838024 0)
(3.14124 -0.831028 0)
(3.13781 -0.834098 0)
(3.13336 -0.839978 0)
(3.13235 -0.845324 0)
(3.13475 -0.843703 0)
(3.138 -0.839933 0)
(3.13998 -0.742982 0)
(3.14059 -0.745589 0)
(3.14012 -0.749052 0)
(3.14002 -0.749291 0)
(3.14022 -0.748757 0)
(3.14081 -0.746876 0)
(3.14019 -0.743735 0)
(3.13957 -0.743889 0)
(3.13997 -0.748004 0)
(3.14049 -0.750055 0)
(3.14026 -0.749342 0)
(3.13982 -0.748381 0)
(3.1393 -0.748645 0)
(3.13872 -0.751214 0)
(3.13876 -0.752838 0)
(3.13898 -0.75482 0)
(3.1391 -0.756664 0)
(3.13902 -0.75729 0)
(3.13925 -0.758024 0)
(3.13962 -0.759108 0)
(3.14032 -0.759641 0)
(3.14246 -0.75675 0)
(3.14267 -0.751907 0)
(3.14124 -0.751525 0)
(3.13927 -0.75464 0)
(3.13863 -0.755273 0)
(3.1373 -0.758357 0)
(3.1356 -0.768933 0)
(3.13454 -0.774939 0)
(3.13707 -0.776798 0)
(3.13813 -0.776006 0)
(3.1379 -0.774526 0)
(3.13595 -0.773987 0)
(3.13658 -0.779395 0)
(3.13601 -0.784709 0)
(3.13589 -0.785606 0)
(3.13683 -0.785517 0)
(3.13939 -0.783277 0)
(3.14049 -0.783041 0)
(3.14264 -0.77541 0)
(3.14095 -0.774551 0)
(3.14189 -0.76561 0)
(3.13822 -0.766923 0)
(3.13635 -0.771138 0)
(3.13404 -0.77827 0)
(3.13138 -0.791264 0)
(3.13249 -0.793538 0)
(3.13563 -0.793522 0)
(3.13843 -0.788038 0)
(3.13839 -0.788324 0)
(3.13457 -0.64039 0)
(3.13426 -0.637456 0)
(3.13457 -0.638056 0)
(3.13487 -0.640149 0)
(3.13508 -0.641651 0)
(3.13437 -0.644163 0)
(3.13442 -0.645269 0)
(3.1351 -0.644714 0)
(3.13502 -0.64332 0)
(3.13518 -0.643411 0)
(3.13529 -0.644869 0)
(3.13464 -0.646056 0)
(3.13457 -0.646582 0)
(3.13498 -0.646711 0)
(3.1353 -0.647702 0)
(3.13534 -0.648068 0)
(3.13511 -0.649038 0)
(3.13491 -0.649664 0)
(3.13487 -0.650588 0)
(3.13475 -0.651669 0)
(3.13412 -0.652661 0)
(3.13432 -0.65589 0)
(3.13417 -0.658652 0)
(3.13426 -0.659888 0)
(3.13467 -0.662224 0)
(3.13476 -0.664755 0)
(3.13582 -0.664016 0)
(3.13632 -0.660078 0)
(3.13448 -0.658308 0)
(3.13511 -0.663918 0)
(3.13435 -0.669691 0)
(3.13313 -0.673212 0)
(3.13493 -0.671236 0)
(3.1362 -0.669458 0)
(3.13636 -0.667921 0)
(3.13459 -0.672308 0)
(3.13349 -0.671662 0)
(3.13383 -0.674557 0)
(3.13332 -0.674673 0)
(3.13389 -0.68093 0)
(3.13154 -0.68893 0)
(3.13083 -0.698609 0)
(3.13171 -0.7071 0)
(3.13344 -0.718426 0)
(3.1325 -0.724623 0)
(3.13373 -0.727303 0)
(3.13654 -0.724545 0)
(3.13713 -0.728294 0)
(3.13407 -0.723503 0)
(3.13543 -0.736104 0)
(3.12606 -0.55984 0)
(3.12588 -0.559918 0)
(3.12624 -0.559764 0)
(3.12646 -0.558723 0)
(3.12624 -0.557706 0)
(3.12644 -0.558513 0)
(3.12662 -0.559697 0)
(3.12593 -0.561366 0)
(3.12587 -0.561406 0)
(3.12605 -0.560937 0)
(3.12641 -0.561904 0)
(3.12634 -0.562328 0)
(3.12628 -0.563062 0)
(3.12626 -0.563767 0)
(3.12621 -0.564593 0)
(3.12631 -0.565691 0)
(3.1265 -0.566401 0)
(3.12666 -0.566867 0)
(3.12674 -0.567878 0)
(3.12674 -0.569103 0)
(3.12671 -0.569881 0)
(3.1267 -0.570669 0)
(3.12674 -0.572278 0)
(3.12675 -0.574749 0)
(3.1266 -0.576557 0)
(3.12653 -0.578122 0)
(3.12676 -0.580687 0)
(3.12706 -0.583481 0)
(3.1274 -0.587134 0)
(3.12781 -0.588955 0)
(3.12766 -0.588251 0)
(3.12723 -0.590388 0)
(3.12833 -0.598429 0)
(3.12806 -0.60341 0)
(3.12821 -0.605217 0)
(3.12856 -0.608064 0)
(3.1292 -0.616263 0)
(3.12863 -0.62167 0)
(3.12863 -0.626992 0)
(3.12921 -0.633748 0)
(3.12952 -0.639505 0)
(3.1298 -0.64417 0)
(3.13027 -0.649093 0)
(3.13132 -0.65008 0)
(3.13179 -0.653186 0)
(3.13205 -0.650492 0)
(3.13251 -0.656334 0)
(3.12833 -0.659786 0)
(3.13118 -0.672927 0)
(3.13258 -0.682478 0)
(3.11937 -0.518673 0)
(3.11925 -0.519028 0)
(3.11908 -0.519195 0)
(3.11909 -0.519102 0)
(3.11901 -0.518887 0)
(3.11906 -0.519008 0)
(3.11914 -0.519703 0)
(3.11892 -0.52007 0)
(3.1188 -0.519925 0)
(3.11873 -0.520026 0)
(3.11875 -0.520406 0)
(3.11878 -0.520389 0)
(3.1188 -0.520474 0)
(3.11881 -0.520812 0)
(3.11884 -0.521007 0)
(3.11911 -0.520597 0)
(3.11939 -0.520492 0)
(3.11984 -0.520975 0)
(3.12019 -0.52146 0)
(3.12046 -0.521564 0)
(3.12062 -0.521383 0)
(3.12074 -0.521555 0)
(3.12091 -0.522491 0)
(3.12078 -0.523641 0)
(3.12059 -0.525014 0)
(3.12046 -0.526426 0)
(3.12047 -0.527299 0)
(3.12057 -0.528698 0)
(3.12063 -0.52973 0)
(3.12062 -0.530385 0)
(3.12091 -0.532164 0)
(3.12134 -0.533795 0)
(3.1218 -0.534417 0)
(3.12234 -0.536926 0)
(3.12248 -0.540083 0)
(3.12247 -0.542181 0)
(3.12245 -0.544016 0)
(3.12253 -0.54773 0)
(3.12274 -0.550634 0)
(3.12321 -0.554218 0)
(3.12349 -0.557189 0)
(3.12363 -0.562476 0)
(3.12341 -0.5654 0)
(3.12411 -0.573083 0)
(3.12409 -0.577709 0)
(3.12548 -0.588931 0)
(3.12604 -0.596299 0)
(3.12755 -0.608856 0)
(3.12892 -0.615979 0)
(3.13068 -0.627092 0)
(3.11647 -0.511823 0)
(3.11643 -0.511718 0)
(3.11632 -0.511551 0)
(3.11631 -0.511517 0)
(3.11622 -0.511357 0)
(3.11614 -0.511233 0)
(3.11609 -0.51091 0)
(3.11616 -0.510685 0)
(3.1162 -0.510712 0)
(3.11627 -0.510807 0)
(3.1165 -0.510889 0)
(3.11696 -0.510744 0)
(3.11706 -0.510669 0)
(3.11705 -0.510666 0)
(3.11701 -0.510598 0)
(3.11711 -0.510513 0)
(3.11728 -0.51046 0)
(3.1177 -0.510776 0)
(3.11809 -0.511167 0)
(3.11847 -0.511325 0)
(3.11872 -0.511236 0)
(3.11871 -0.511097 0)
(3.11849 -0.511202 0)
(3.11823 -0.511762 0)
(3.1183 -0.512339 0)
(3.1184 -0.512441 0)
(3.11827 -0.512457 0)
(3.11807 -0.512401 0)
(3.11774 -0.512429 0)
(3.11747 -0.512668 0)
(3.11745 -0.512564 0)
(3.11767 -0.513008 0)
(3.11805 -0.513839 0)
(3.1183 -0.514388 0)
(3.11852 -0.515381 0)
(3.1185 -0.516102 0)
(3.11846 -0.516733 0)
(3.1183 -0.517756 0)
(3.11842 -0.520292 0)
(3.1186 -0.521961 0)
(3.11904 -0.524165 0)
(3.11946 -0.526225 0)
(3.11988 -0.53005 0)
(3.1203 -0.532832 0)
(3.12118 -0.537773 0)
(3.12226 -0.541467 0)
(3.12343 -0.546701 0)
(3.12456 -0.552081 0)
(3.12508 -0.556515 0)
(3.12572 -0.568955 0)
(3.11643 -0.504779 0)
(3.11649 -0.504812 0)
(3.11657 -0.50492 0)
(3.11663 -0.504888 0)
(3.11668 -0.504705 0)
(3.11662 -0.504498 0)
(3.11659 -0.504707 0)
(3.1166 -0.505062 0)
(3.11652 -0.505483 0)
(3.11646 -0.505584 0)
(3.11651 -0.505504 0)
(3.11683 -0.506016 0)
(3.11688 -0.506575 0)
(3.11666 -0.506997 0)
(3.11632 -0.507631 0)
(3.1162 -0.508057 0)
(3.1161 -0.508254 0)
(3.11582 -0.50815 0)
(3.11556 -0.507863 0)
(3.11536 -0.507414 0)
(3.11542 -0.506616 0)
(3.11559 -0.506375 0)
(3.11554 -0.506539 0)
(3.11576 -0.507388 0)
(3.11676 -0.50827 0)
(3.11821 -0.50786 0)
(3.11871 -0.506984 0)
(3.11854 -0.506964 0)
(3.11787 -0.506873 0)
(3.11667 -0.506815 0)
(3.11575 -0.507889 0)
(3.11565 -0.508737 0)
(3.11575 -0.508837 0)
(3.11615 -0.508354 0)
(3.11684 -0.508354 0)
(3.11735 -0.509243 0)
(3.11748 -0.509582 0)
(3.11745 -0.509891 0)
(3.11717 -0.510121 0)
(3.11742 -0.510582 0)
(3.11778 -0.510893 0)
(3.11832 -0.511319 0)
(3.11878 -0.511933 0)
(3.11918 -0.512305 0)
(3.11979 -0.513416 0)
(3.12034 -0.514267 0)
(3.12067 -0.516471 0)
(3.12059 -0.518479 0)
(3.12078 -0.522428 0)
(3.12071 -0.530302 0)
(3.11825 -0.513577 0)
(3.11844 -0.513085 0)
(3.11894 -0.512195 0)
(3.11961 -0.511105 0)
(3.12003 -0.508968 0)
(3.11971 -0.50705 0)
(3.11905 -0.505387 0)
(3.11846 -0.504304 0)
(3.11764 -0.503106 0)
(3.11748 -0.501067 0)
(3.11834 -0.499132 0)
(3.11817 -0.49816 0)
(3.11767 -0.498236 0)
(3.11699 -0.498591 0)
(3.11638 -0.498543 0)
(3.11578 -0.498876 0)
(3.11549 -0.499972 0)
(3.11462 -0.500712 0)
(3.11497 -0.502459 0)
(3.11568 -0.504101 0)
(3.11564 -0.505158 0)
(3.11606 -0.506887 0)
(3.11599 -0.508984 0)
(3.11548 -0.511592 0)
(3.11549 -0.51338 0)
(3.1159 -0.513871 0)
(3.11594 -0.510294 0)
(3.11618 -0.505098 0)
(3.11642 -0.504178 0)
(3.1178 -0.504911 0)
(3.11876 -0.506543 0)
(3.11812 -0.509507 0)
(3.1164 -0.510461 0)
(3.11602 -0.50889 0)
(3.11629 -0.508196 0)
(3.11685 -0.508665 0)
(3.11746 -0.509418 0)
(3.11796 -0.509414 0)
(3.11804 -0.509357 0)
(3.11799 -0.509071 0)
(3.11843 -0.508669 0)
(3.11898 -0.508617 0)
(3.11927 -0.509034 0)
(3.11945 -0.50877 0)
(3.11952 -0.508815 0)
(3.11917 -0.508466 0)
(3.11849 -0.509617 0)
(3.11823 -0.510694 0)
(3.11853 -0.513166 0)
(3.11826 -0.515394 0)
(3.11058 -0.485549 0)
(3.11062 -0.487852 0)
(3.11059 -0.488187 0)
(3.11106 -0.488475 0)
(3.11247 -0.488359 0)
(3.1133 -0.488276 0)
(3.11351 -0.488159 0)
(3.11361 -0.487716 0)
(3.11384 -0.487058 0)
(3.11326 -0.487216 0)
(3.11267 -0.489065 0)
(3.11357 -0.491238 0)
(3.11438 -0.494327 0)
(3.11454 -0.497348 0)
(3.11413 -0.498733 0)
(3.11471 -0.500212 0)
(3.11613 -0.502708 0)
(3.1171 -0.504708 0)
(3.11855 -0.504261 0)
(3.1192 -0.502215 0)
(3.12065 -0.498982 0)
(3.12051 -0.489405 0)
(3.11716 -0.481892 0)
(3.11407 -0.478194 0)
(3.1129 -0.480118 0)
(3.11149 -0.483743 0)
(3.11224 -0.486543 0)
(3.11303 -0.491706 0)
(3.1145 -0.499913 0)
(3.117 -0.503296 0)
(3.11837 -0.501275 0)
(3.11843 -0.493327 0)
(3.1155 -0.487607 0)
(3.1147 -0.491207 0)
(3.11608 -0.497078 0)
(3.11583 -0.497015 0)
(3.11578 -0.495112 0)
(3.11595 -0.49429 0)
(3.11632 -0.495621 0)
(3.116 -0.496172 0)
(3.11522 -0.49641 0)
(3.11592 -0.496988 0)
(3.1157 -0.498386 0)
(3.116 -0.500217 0)
(3.11608 -0.502216 0)
(3.11676 -0.503894 0)
(3.11729 -0.505553 0)
(3.11813 -0.508543 0)
(3.11849 -0.509363 0)
(3.11987 -0.50976 0)
(3.11013 -0.452867 0)
(3.11043 -0.453465 0)
(3.11038 -0.45427 0)
(3.11042 -0.455003 0)
(3.11078 -0.454426 0)
(3.11135 -0.452593 0)
(3.11167 -0.450407 0)
(3.1111 -0.449285 0)
(3.11093 -0.449288 0)
(3.11105 -0.450202 0)
(3.11083 -0.451131 0)
(3.11165 -0.451076 0)
(3.11225 -0.450259 0)
(3.11225 -0.447753 0)
(3.11113 -0.445888 0)
(3.11042 -0.444208 0)
(3.11037 -0.444748 0)
(3.11043 -0.447267 0)
(3.11054 -0.449765 0)
(3.1094 -0.452235 0)