/*--------------------------------*- C++ -*----------------------------------*\
  =========                 |
  \\      /  F ield         | OpenFOAM: The Open Source CFD Toolbox
   \\    /   O peration     | Website:  https://openfoam.org
    \\  /    A nd           | Version:  7
     \\/     M anipulation  |
\*---------------------------------------------------------------------------*/
FoamFile
{
    version     2.0;
    format      ascii;
    class       volScalarField;
    location    "7";
    object      rho;
}
// * * * * * * * * * * * * * * * * * * * * * * * * * * * * * * * * * * * * * //

dimensions      [1 -3 0 0 0 0 0];

internalField   nonuniform List<scalar> 
90000
(
1.12569
1.1349
1.14529
1.15608
1.16612
1.17522
1.18516
1.19417
1.20305
1.21179
1.22192
1.23252
1.24441
1.25662
1.2698
1.28257
1.29561
1.30807
1.3198
1.33156
1.34161
1.35136
1.36047
1.36679
1.37439
1.37884
1.38179
1.38515
1.38614
1.38561
1.38447
1.38331
1.38114
1.37715
1.36892
1.36206
1.35763
1.35648
1.35746
1.35965
1.36231
1.36391
1.36543
1.36685
1.36817
1.3685
1.36817
1.3667
1.36464
1.36302
1.36262
1.36295
1.36388
1.36545
1.3664
1.36743
1.36822
1.36806
1.36788
1.3675
1.36759
1.36799
1.36849
1.36914
1.36959
1.37008
1.36984
1.36968
1.3697
1.36973
1.37002
1.37049
1.37072
1.37045
1.3701
1.37026
1.37065
1.37101
1.37107
1.37091
1.37093
1.37112
1.37149
1.37165
1.37158
1.37162
1.37179
1.37206
1.37233
1.37263
1.37301
1.37347
1.37378
1.37383
1.37376
1.37363
1.37356
1.37363
1.37377
1.37389
1.11877
1.11973
1.12134
1.12398
1.12749
1.13151
1.13632
1.14212
1.14841
1.15533
1.16285
1.17105
1.17964
1.18913
1.1991
1.21011
1.22138
1.23359
1.24593
1.25874
1.27189
1.28444
1.2977
1.30961
1.32131
1.33238
1.34268
1.35059
1.3592
1.36433
1.3688
1.37148
1.3733
1.37507
1.37842
1.38056
1.3807
1.37941
1.37696
1.37368
1.37057
1.36847
1.36709
1.36667
1.36713
1.36812
1.36923
1.37061
1.37224
1.37256
1.37204
1.37061
1.36892
1.3672
1.36642
1.36681
1.36841
1.37061
1.37318
1.37314
1.37244
1.37107
1.36975
1.36997
1.3712
1.37274
1.3731
1.37258
1.37169
1.37102
1.37148
1.37248
1.37293
1.37255
1.37185
1.37179
1.3721
1.37266
1.37263
1.37249
1.37247
1.37259
1.37286
1.37285
1.37285
1.37292
1.37302
1.37319
1.3734
1.37367
1.37398
1.37435
1.37463
1.37482
1.37477
1.37463
1.37449
1.37452
1.37458
1.37467
1.11912
1.11914
1.11918
1.11924
1.11935
1.11955
1.11985
1.12034
1.12104
1.12202
1.12332
1.12507
1.12723
1.13
1.13332
1.13746
1.14234
1.14839
1.1554
1.16395
1.1735
1.185
1.19733
1.21171
1.22676
1.2434
1.26064
1.27829
1.29626
1.3134
1.33037
1.34475
1.35915
1.36929
1.37647
1.38055
1.38271
1.38276
1.38239
1.38115
1.3794
1.37711
1.37339
1.37076
1.37103
1.37183
1.37361
1.37562
1.37778
1.37775
1.377
1.37534
1.37336
1.37117
1.37028
1.37097
1.37253
1.37464
1.37623
1.37712
1.37678
1.37552
1.37471
1.37482
1.37535
1.37615
1.37648
1.37622
1.37574
1.37526
1.37541
1.37579
1.3759
1.37572
1.37534
1.37505
1.37511
1.37532
1.37542
1.37544
1.37536
1.37536
1.37541
1.37554
1.37555
1.3755
1.37544
1.37551
1.3757
1.37596
1.37626
1.37655
1.37685
1.37681
1.37669
1.37653
1.37635
1.37632
1.37637
1.37636
1.12037
1.12036
1.12035
1.12035
1.12037
1.12038
1.1204
1.12044
1.12048
1.12054
1.1206
1.12067
1.12077
1.12094
1.12119
1.12157
1.12211
1.12286
1.12387
1.1253
1.12721
1.12989
1.13339
1.13821
1.14426
1.15244
1.16217
1.17481
1.18911
1.20665
1.22548
1.24655
1.2687
1.28998
1.31152
1.32823
1.34468
1.35478
1.36364
1.368
1.37169
1.37261
1.376
1.37934
1.3815
1.38278
1.38301
1.38252
1.38197
1.38084
1.37942
1.3782
1.37722
1.37726
1.37758
1.3782
1.3784
1.37855
1.37839
1.37871
1.37924
1.38001
1.38096
1.38071
1.38003
1.37917
1.37917
1.37947
1.38015
1.38016
1.3799
1.37949
1.37923
1.37934
1.37932
1.37908
1.37877
1.37873
1.37888
1.37905
1.379
1.37885
1.37877
1.3788
1.37877
1.3787
1.37858
1.37861
1.37872
1.37891
1.37913
1.37928
1.37947
1.37948
1.37944
1.37932
1.37911
1.37892
1.37888
1.37876
1.12182
1.12182
1.12183
1.12184
1.12186
1.12187
1.12186
1.12185
1.12183
1.1218
1.1218
1.1218
1.12184
1.12183
1.12184
1.12187
1.12191
1.12197
1.12203
1.12211
1.12221
1.12234
1.12253
1.12292
1.12356
1.12456
1.12602
1.12832
1.13158
1.13663
1.14335
1.15331
1.16557
1.18255
1.20187
1.22567
1.25073
1.27683
1.30259
1.32409
1.345
1.35956
1.37238
1.37743
1.38035
1.3817
1.38194
1.38158
1.38022
1.37759
1.37804
1.37945
1.38175
1.38397
1.38474
1.38421
1.38257
1.38081
1.37953
1.37962
1.38039
1.38219
1.38369
1.38432
1.38395
1.38288
1.38188
1.38214
1.38281
1.38337
1.38324
1.3826
1.38211
1.38222
1.38244
1.38241
1.3821
1.38182
1.38189
1.38209
1.38216
1.38204
1.38186
1.38185
1.38183
1.38178
1.38163
1.38162
1.38168
1.38183
1.38199
1.3821
1.38229
1.38228
1.38219
1.38206
1.38185
1.38161
1.38152
1.38135
1.12301
1.12301
1.12302
1.12303
1.12305
1.12306
1.12306
1.12306
1.12307
1.12307
1.12307
1.12307
1.12307
1.12307
1.12307
1.12305
1.12301
1.12298
1.12297
1.12297
1.12299
1.12303
1.12311
1.12311
1.12312
1.12316
1.12322
1.1233
1.12343
1.12368
1.12413
1.12512
1.12682
1.1299
1.1346
1.14257
1.15342
1.16998
1.18976
1.21547
1.24292
1.27173
1.30011
1.32156
1.34175
1.35249
1.36284
1.36751
1.37111
1.37478
1.38091
1.38501
1.38836
1.38836
1.38796
1.38651
1.38427
1.38235
1.38094
1.38136
1.38242
1.38378
1.38424
1.38423
1.38401
1.38412
1.38445
1.38499
1.38496
1.38492
1.38463
1.38429
1.3841
1.38412
1.38422
1.38415
1.38402
1.38385
1.38391
1.384
1.3841
1.38405
1.38396
1.38391
1.3839
1.38386
1.38379
1.38376
1.38384
1.38396
1.38407
1.38413
1.38428
1.38435
1.38433
1.38427
1.38413
1.3839
1.38373
1.38352
1.12377
1.12377
1.12377
1.12378
1.12378
1.12378
1.12378
1.12378
1.12378
1.12379
1.1238
1.1238
1.1238
1.1238
1.1238
1.1238
1.12379
1.12379
1.12378
1.12377
1.12376
1.12376
1.12375
1.12373
1.1237
1.12369
1.1237
1.12371
1.12374
1.1238
1.12398
1.12397
1.12398
1.12405
1.12423
1.12464
1.12561
1.12779
1.13159
1.13891
1.14963
1.1672
1.18874
1.21766
1.24846
1.27979
1.3102
1.33308
1.35532
1.36858
1.37705
1.38085
1.38452
1.38507
1.38366
1.38058
1.38114
1.3827
1.38454
1.38605
1.38575
1.38447
1.3835
1.3831
1.38341
1.38441
1.38568
1.38643
1.3861
1.38541
1.38495
1.3851
1.38537
1.38534
1.38517
1.38502
1.38501
1.3851
1.38514
1.38512
1.38511
1.38515
1.38516
1.38512
1.38509
1.3851
1.38513
1.38517
1.38518
1.38523
1.38531
1.38539
1.38552
1.38568
1.38573
1.38572
1.38563
1.38543
1.38523
1.38502
1.12415
1.12415
1.12415
1.12415
1.12415
1.12415
1.12416
1.12415
1.12414
1.12414
1.12414
1.12414
1.12414
1.12413
1.12413
1.12413
1.12413
1.12413
1.12412
1.12411
1.12411
1.1241
1.12411
1.12411
1.12411
1.12409
1.12408
1.12407
1.12408
1.12407
1.12408
1.12409
1.12412
1.12416
1.12423
1.12441
1.1244
1.12443
1.12454
1.12486
1.12568
1.12776
1.13175
1.14008
1.15266
1.17383
1.19944
1.23196
1.26601
1.29632
1.32483
1.34091
1.35651
1.36361
1.36962
1.37534
1.3832
1.38818
1.38991
1.38941
1.38746
1.38445
1.38219
1.38236
1.38361
1.38527
1.38641
1.38616
1.38574
1.38519
1.3853
1.38576
1.38596
1.38569
1.38532
1.38532
1.38549
1.38576
1.38573
1.38555
1.38549
1.38556
1.38572
1.38571
1.38566
1.38568
1.38578
1.38593
1.38591
1.38591
1.3859
1.38596
1.38612
1.3863
1.38648
1.38652
1.3865
1.38636
1.38616
1.38594
1.12432
1.12432
1.12431
1.12431
1.12431
1.12431
1.12431
1.12431
1.1243
1.12429
1.12428
1.12429
1.12428
1.12428
1.12428
1.12428
1.12426
1.12426
1.12426
1.12425
1.12425
1.12426
1.12426
1.12425
1.12425
1.12425
1.12425
1.12425
1.12426
1.12427
1.12428
1.12429
1.12431
1.12433
1.12435
1.12439
1.12445
1.12453
1.12462
1.12481
1.12481
1.12484
1.12497
1.12536
1.12643
1.12935
1.13496
1.14683
1.16398
1.19162
1.22345
1.25999
1.29584
1.32406
1.35222
1.368
1.37823
1.3827
1.38584
1.38438
1.38048
1.38088
1.38209
1.38412
1.38614
1.38602
1.38559
1.38442
1.38447
1.3849
1.38591
1.38649
1.38628
1.38578
1.38538
1.3855
1.38583
1.38611
1.38604
1.38584
1.38571
1.38578
1.38589
1.38601
1.38599
1.38605
1.38624
1.38632
1.38629
1.38624
1.38618
1.38621
1.38636
1.38659
1.38682
1.38693
1.38695
1.38687
1.38669
1.38645
1.12439
1.12439
1.12438
1.12438
1.12438
1.12438
1.12438
1.12438
1.12437
1.12436
1.12436
1.12436
1.12435
1.12435
1.12434
1.12434
1.12434
1.12435
1.12434
1.12434
1.12434
1.12434
1.12434
1.12434
1.12434
1.12435
1.12436
1.12437
1.12438
1.1244
1.12442
1.12445
1.12448
1.12452
1.12456
1.12459
1.12463
1.12468
1.12474
1.1248
1.12489
1.12498
1.12507
1.12526
1.12527
1.12532
1.12551
1.12631
1.12839
1.13384
1.14359
1.16295
1.18835
1.22387
1.26192
1.29587
1.3282
1.34393
1.3611
1.36678
1.37538
1.38173
1.38781
1.38877
1.38826
1.38646
1.38287
1.38295
1.38379
1.38545
1.38651
1.38625
1.38554
1.38543
1.38567
1.38616
1.38623
1.38614
1.38597
1.38598
1.38605
1.38607
1.386
1.38604
1.38617
1.38637
1.38659
1.38657
1.38652
1.38643
1.38632
1.38633
1.38645
1.38668
1.38694
1.38716
1.38721
1.38718
1.38704
1.38678
1.12447
1.12447
1.12447
1.12447
1.12447
1.12447
1.12447
1.12446
1.12446
1.12446
1.12445
1.12445
1.12445
1.12445
1.12445
1.12445
1.12446
1.12446
1.12446
1.12446
1.12447
1.12447
1.12447
1.12448
1.12449
1.1245
1.12452
1.12454
1.12456
1.12459
1.12462
1.12465
1.12469
1.12474
1.12478
1.12482
1.12487
1.12491
1.12495
1.12499
1.12503
1.12508
1.12514
1.12521
1.1253
1.12537
1.12549
1.12545
1.12547
1.12566
1.12635
1.1286
1.13359
1.14548
1.16384
1.19519
1.23173
1.27236
1.31179
1.3404
1.36735
1.37656
1.38449
1.38486
1.38265
1.3802
1.38138
1.38385
1.38654
1.38648
1.38596
1.38455
1.38462
1.38542
1.3865
1.38674
1.38647
1.386
1.38586
1.38615
1.3864
1.3863
1.38609
1.38611
1.38635
1.38668
1.38678
1.38675
1.38669
1.38657
1.38643
1.38644
1.38654
1.38673
1.38699
1.38726
1.38737
1.38737
1.38729
1.38703
1.12464
1.12464
1.12465
1.12465
1.12465
1.12466
1.12466
1.12466
1.12466
1.12466
1.12466
1.12467
1.12467
1.12469
1.1247
1.1247
1.12471
1.12472
1.12473
1.12473
1.12473
1.12474
1.12475
1.12476
1.12478
1.1248
1.12482
1.12484
1.12485
1.12486
1.12489
1.12492
1.12496
1.12499
1.12501
1.12504
1.12509
1.12513
1.12516
1.12519
1.12523
1.12526
1.12531
1.12535
1.1254
1.12544
1.12548
1.12551
1.12555
1.12552
1.1255
1.12555
1.12581
1.12673
1.12917
1.13597
1.14853
1.17389
1.20627
1.24824
1.29118
1.32082
1.34993
1.35943
1.36815
1.3757
1.38513
1.3891
1.38874
1.38682
1.38316
1.38323
1.38452
1.38659
1.3871
1.38671
1.38592
1.38589
1.3863
1.38674
1.3866
1.38633
1.38622
1.38637
1.3867
1.38695
1.38695
1.38692
1.38686
1.38671
1.38658
1.3866
1.38669
1.38684
1.38705
1.38734
1.38752
1.38757
1.38752
1.38729
1.12493
1.12494
1.12496
1.12497
1.12498
1.12499
1.125
1.12501
1.12502
1.12503
1.12504
1.12505
1.12507
1.12508
1.1251
1.12511
1.12513
1.12514
1.12516
1.12516
1.12516
1.12516
1.12517
1.12518
1.1252
1.12522
1.12522
1.12522
1.12522
1.12522
1.12523
1.12524
1.12525
1.12524
1.12525
1.12526
1.12529
1.12531
1.12534
1.12536
1.1254
1.12544
1.12548
1.12553
1.12557
1.12561
1.12564
1.12565
1.12567
1.12567
1.12566
1.12564
1.12559
1.1256
1.12571
1.1261
1.12728
1.1312
1.13959
1.15921
1.18727
1.22984
1.27525
1.31429
1.35274
1.36976
1.38037
1.38498
1.38341
1.37964
1.38098
1.38411
1.38721
1.3873
1.3868
1.38541
1.38548
1.38636
1.3871
1.38704
1.3867
1.38636
1.38649
1.38685
1.38707
1.38709
1.3871
1.38709
1.38703
1.38688
1.38678
1.38681
1.38688
1.38698
1.38715
1.3874
1.38765
1.38776
1.38773
1.38754
1.12533
1.12535
1.12537
1.12538
1.12539
1.12541
1.12542
1.12544
1.12545
1.12547
1.12549
1.1255
1.12552
1.12554
1.12556
1.12558
1.1256
1.12562
1.12563
1.12565
1.12566
1.12566
1.12566
1.12567
1.12567
1.12567
1.12567
1.12566
1.12565
1.12563
1.12561
1.12559
1.12557
1.12555
1.12553
1.12552
1.12553
1.12553
1.12554
1.12556
1.12559
1.12562
1.12566
1.12571
1.12576
1.12581
1.12587
1.1259
1.12591
1.12591
1.12589
1.12584
1.12577
1.1257
1.12566
1.12567
1.1257
1.12588
1.12653
1.12886
1.13458
1.14977
1.17394
1.21486
1.26142
1.30158
1.33709
1.35358
1.36592
1.37401
1.38504
1.38939
1.38894
1.38709
1.38407
1.38437
1.38605
1.38759
1.38748
1.38682
1.38649
1.38674
1.38723
1.38739
1.38729
1.38724
1.3873
1.38731
1.38719
1.38708
1.38706
1.38712
1.38715
1.3872
1.38732
1.38751
1.38778
1.38797
1.38795
1.38781
1.12567
1.12569
1.1257
1.12572
1.12573
1.12575
1.12576
1.12578
1.1258
1.12582
1.12583
1.12585
1.12587
1.1259
1.12592
1.12594
1.12596
1.12598
1.126
1.12602
1.12605
1.12608
1.12609
1.12609
1.12609
1.12609
1.12608
1.12607
1.12605
1.12603
1.126
1.12597
1.12593
1.12589
1.12586
1.12583
1.1258
1.12579
1.12579
1.1258
1.12582
1.12584
1.12587
1.12591
1.12595
1.12601
1.12608
1.12615
1.12618
1.12618
1.12616
1.12612
1.12602
1.12588
1.12574
1.1257
1.1257
1.12571
1.12575
1.12592
1.12637
1.12787
1.13186
1.14388
1.16522
1.20508
1.25215
1.29701
1.34266
1.36647
1.38029
1.38518
1.38319
1.38022
1.38219
1.38589
1.38827
1.38779
1.38657
1.38631
1.38673
1.38763
1.38778
1.38763
1.38741
1.38748
1.38756
1.38749
1.38731
1.38731
1.38739
1.38742
1.3874
1.38742
1.38751
1.38764
1.38787
1.38812
1.38819
1.3881
1.1259
1.12592
1.12593
1.12595
1.12596
1.12598
1.126
1.12601
1.12603
1.12605
1.12606
1.12608
1.1261
1.12612
1.12614
1.12617
1.12619
1.12621
1.12623
1.12626
1.12629
1.12632
1.12635
1.12638
1.1264
1.1264
1.12641
1.1264
1.12639
1.12638
1.12636
1.12633
1.1263
1.12627
1.12622
1.12618
1.12614
1.1261
1.12608
1.12608
1.12609
1.1261
1.12612
1.12615
1.12618
1.12622
1.12628
1.12635
1.12641
1.12643
1.12641
1.12637
1.12627
1.12611
1.12591
1.12575
1.12572
1.12572
1.12576
1.12586
1.12604
1.12624
1.12647
1.12739
1.13031
1.14046
1.15998
1.19861
1.24609
1.2922
1.33385
1.35222
1.36587
1.37493
1.38695
1.38982
1.38877
1.38514
1.38522
1.38621
1.38801
1.38846
1.38805
1.38752
1.38765
1.38787
1.38778
1.38753
1.38748
1.38761
1.38775
1.38771
1.38765
1.38768
1.38773
1.38779
1.38796
1.3882
1.38839
1.38837
1.12605
1.12606
1.12607
1.12608
1.12609
1.1261
1.12611
1.12613
1.12614
1.12615
1.12616
1.12618
1.12619
1.12621
1.12622
1.12624
1.12626
1.12629
1.12631
1.12634
1.12638
1.12641
1.12645
1.1265
1.12654
1.12658
1.12661
1.12663
1.12664
1.12664
1.12664
1.12663
1.12661
1.1266
1.12657
1.12653
1.12648
1.12644
1.1264
1.12636
1.12634
1.12634
1.12635
1.12635
1.12637
1.12639
1.12642
1.12647
1.12655
1.12661
1.12661
1.12657
1.12649
1.12635
1.12614
1.12593
1.12582
1.12581
1.12582
1.12589
1.12607
1.12631
1.12656
1.12654
1.12659
1.12719
1.12954
1.13869
1.15735
1.19663
1.24504
1.29441
1.34415
1.36761
1.38184
1.38538
1.38083
1.38129
1.38446
1.38833
1.38895
1.38835
1.38724
1.38744
1.38815
1.38811
1.38786
1.38758
1.3877
1.38793
1.38792
1.38787
1.38787
1.38792
1.38793
1.38794
1.38804
1.38825
1.38852
1.38857
1.12617
1.12618
1.12618
1.12618
1.12619
1.1262
1.1262
1.12621
1.12622
1.12623
1.12623
1.12624
1.12626
1.12627
1.12628
1.1263
1.12632
1.12635
1.12637
1.1264
1.12643
1.12647
1.12651
1.12656
1.12661
1.12666
1.12671
1.12676
1.12681
1.12684
1.12685
1.12685
1.12686
1.12685
1.12684
1.12681
1.12678
1.12673
1.12668
1.12662
1.12656
1.1265
1.12648
1.12647
1.12647
1.12648
1.12651
1.12656
1.12664
1.12673
1.12675
1.12673
1.12667
1.12657
1.12641
1.12621
1.12604
1.12599
1.12599
1.12605
1.12621
1.12645
1.12665
1.12669
1.12671
1.12662
1.12656
1.12702
1.12926
1.13824
1.15718
1.19718
1.24725
1.29621
1.3376
1.356
1.3682
1.38151
1.38975
1.38963
1.3883
1.38624
1.38683
1.38853
1.38866
1.38819
1.38754
1.3877
1.38814
1.38816
1.38802
1.38798
1.38807
1.38812
1.38807
1.38807
1.38813
1.38828
1.38853
1.38873
1.12631
1.1263
1.1263
1.1263
1.1263
1.12629
1.12629
1.12629
1.12629
1.12629
1.1263
1.1263
1.12631
1.12632
1.12633
1.12634
1.12636
1.12638
1.1264
1.12643
1.12646
1.12649
1.12653
1.12657
1.12662
1.12667
1.12673
1.12678
1.12683
1.12688
1.12693
1.12697
1.12699
1.127
1.127
1.12699
1.12696
1.12693
1.12688
1.12682
1.12675
1.12666
1.12656
1.12649
1.12646
1.12645
1.12645
1.12648
1.12654
1.12664
1.12675
1.12682
1.12681
1.12676
1.12668
1.12657
1.12641
1.12628
1.12627
1.12632
1.12644
1.12661
1.12677
1.12683
1.12682
1.12677
1.12667
1.12649
1.12651
1.12703
1.12946
1.13881
1.15912
1.2018
1.2535
1.30643
1.35415
1.37499
1.38605
1.38469
1.38116
1.384
1.38811
1.38939
1.38869
1.38711
1.38735
1.38835
1.38842
1.38817
1.38803
1.38815
1.38828
1.38824
1.38815
1.38819
1.38825
1.38832
1.38849
1.38877
1.12654
1.12653
1.12651
1.12649
1.12647
1.12645
1.12644
1.12642
1.12641
1.1264
1.12639
1.1264
1.12639
1.12639
1.12639
1.1264
1.12641
1.12642
1.12643
1.12645
1.12647
1.12649
1.12652
1.12655
1.12659
1.12663
1.12668
1.12675
1.12683
1.12689
1.12695
1.12699
1.12702
1.12704
1.12704
1.12704
1.12704
1.12702
1.12699
1.12694
1.12688
1.12679
1.12666
1.12651
1.12644
1.12643
1.12643
1.12645
1.1265
1.12658
1.12668
1.12679
1.12687
1.1269
1.12688
1.12685
1.12678
1.12667
1.1266
1.12664
1.12672
1.1268
1.12689
1.12695
1.12695
1.1269
1.12681
1.12664
1.12652
1.12651
1.12659
1.12725
1.13005
1.14027
1.16345
1.20871
1.26431
1.31228
1.34872
1.36329
1.3751
1.3892
1.39006
1.38889
1.38605
1.38649
1.38841
1.38915
1.38857
1.38783
1.38803
1.38843
1.3884
1.38825
1.38822
1.38829
1.38835
1.38836
1.38848
1.38875
1.12698
1.12696
1.12693
1.1269
1.12687
1.12684
1.1268
1.12676
1.12672
1.12669
1.12666
1.12663
1.12661
1.12659
1.12657
1.12656
1.12654
1.12653
1.12652
1.12652
1.12652
1.12652
1.12653
1.12655
1.12657
1.1266
1.12664
1.12668
1.12673
1.12676
1.1268
1.12684
1.1269
1.12697
1.12701
1.12703
1.12704
1.12704
1.12704
1.12702
1.12698
1.12692
1.12681
1.12667
1.12652
1.12644
1.12642
1.12642
1.12645
1.12654
1.12665
1.12676
1.12687
1.12695
1.127
1.127
1.12698
1.12694
1.12687
1.12688
1.12691
1.12693
1.12696
1.12702
1.12702
1.12699
1.12695
1.12686
1.12672
1.12661
1.12662
1.12667
1.12684
1.12762
1.13099
1.14286
1.17093
1.22055
1.27705
1.33314
1.3671
1.38374
1.38554
1.3808
1.38318
1.38791
1.38991
1.38906
1.38742
1.38766
1.38853
1.38858
1.38838
1.38823
1.38832
1.38842
1.38838
1.3884
1.38847
1.3887
1.12737
1.12735
1.12732
1.1273
1.12726
1.12723
1.12719
1.12714
1.1271
1.12705
1.127
1.12695
1.1269
1.12685
1.12681
1.12677
1.12673
1.1267
1.12667
1.12663
1.1266
1.12658
1.12657
1.12657
1.12657
1.12659
1.12661
1.12662
1.12664
1.12665
1.12667
1.12669
1.12673
1.12678
1.12684
1.12691
1.12698
1.12702
1.12705
1.12707
1.12708
1.12707
1.12702
1.12693
1.12681
1.12668
1.1266
1.12657
1.12657
1.12659
1.12666
1.12675
1.12684
1.12694
1.127
1.12703
1.12704
1.12704
1.12702
1.12702
1.12702
1.127
1.12698
1.12698
1.12699
1.12699
1.12701
1.12702
1.12699
1.12687
1.12677
1.12677
1.12686
1.12691
1.12704
1.12792
1.13259
1.14724
1.18199
1.23555
1.29369
1.3356
1.35931
1.3711
1.38755
1.39082
1.38942
1.38626
1.38678
1.38872
1.3891
1.38859
1.38804
1.38823
1.38855
1.38851
1.38839
1.38842
1.38848
1.38862
1.12748
1.12747
1.12745
1.12742
1.12739
1.12737
1.12734
1.12732
1.12729
1.12726
1.12723
1.12718
1.12714
1.12708
1.12702
1.12697
1.12692
1.12688
1.12683
1.12678
1.12673
1.12669
1.12665
1.12663
1.12662
1.12662
1.12662
1.12662
1.12662
1.12663
1.12665
1.12668
1.12672
1.12677
1.12682
1.12688
1.12695
1.12703
1.12711
1.12716
1.12718
1.12722
1.12723
1.12722
1.12717
1.12709
1.127
1.12692
1.12686
1.12681
1.1268
1.1268
1.12682
1.12689
1.12694
1.12696
1.12699
1.12702
1.12705
1.12708
1.12708
1.12707
1.12701
1.12696
1.12695
1.12696
1.12701
1.12709
1.12711
1.12707
1.12697
1.1269
1.12691
1.12694
1.12692
1.12691
1.1271
1.12857
1.13519
1.15518
1.19759
1.25367
1.3165
1.3592
1.38195
1.38624
1.38066
1.38309
1.388
1.38989
1.3891
1.38755
1.38782
1.3886
1.38865
1.3885
1.38838
1.38849
1.3885
1.38853
1.1273
1.1273
1.12729
1.12729
1.12729
1.12728
1.12728
1.12727
1.12725
1.12723
1.12721
1.12719
1.12716
1.12714
1.12712
1.1271
1.12708
1.12704
1.127
1.12695
1.12691
1.12687
1.12683
1.12679
1.12675
1.12672
1.12671
1.12671
1.1267
1.12671
1.12672
1.12675
1.12677
1.12681
1.12685
1.12692
1.12698
1.12707
1.12718
1.12722
1.12724
1.12729
1.12736
1.12739
1.12738
1.12733
1.12727
1.1272
1.12712
1.12705
1.12698
1.12692
1.1269
1.12688
1.12688
1.12688
1.1269
1.12693
1.12701
1.12711
1.12718
1.12718
1.12716
1.12708
1.12697
1.12694
1.12697
1.12704
1.12711
1.12709
1.12705
1.12699
1.12697
1.12699
1.12698
1.12699
1.12699
1.12703
1.12744
1.13
1.13949
1.16725
1.21576
1.27711
1.32827
1.355
1.36895
1.38683
1.39056
1.38936
1.38646
1.38704
1.38879
1.38896
1.38853
1.38829
1.38847
1.38868
1.38854
1.38844
1.12698
1.12699
1.127
1.12701
1.12703
1.12704
1.12705
1.12706
1.12707
1.12707
1.12709
1.1271
1.12712
1.12714
1.12714
1.12715
1.12716
1.12717
1.12717
1.12717
1.12717
1.12717
1.12718
1.12718
1.12716
1.12714
1.12711
1.12709
1.12707
1.12706
1.12705
1.12705
1.12705
1.12704
1.12706
1.12707
1.12709
1.12715
1.12723
1.12724
1.12724
1.12729
1.12734
1.12737
1.12736
1.12733
1.1273
1.12721
1.12716
1.12715
1.12712
1.12704
1.127
1.12697
1.12691
1.12688
1.12688
1.12689
1.12698
1.12716
1.12733
1.12738
1.12735
1.12727
1.12714
1.12699
1.12694
1.12694
1.12697
1.12701
1.12702
1.12702
1.12703
1.12704
1.12707
1.1271
1.12713
1.12717
1.12718
1.12726
1.12796
1.13223
1.1465
1.18435
1.23929
1.30384
1.35553
1.38012
1.38634
1.38049
1.38321
1.38816
1.38966
1.38896
1.38773
1.38814
1.3888
1.38874
1.38831
1.38835
1.12679
1.12681
1.12682
1.12684
1.12686
1.12689
1.12692
1.12695
1.12698
1.127
1.12704
1.12709
1.12716
1.1272
1.12722
1.12723
1.12727
1.12735
1.1274
1.1274
1.12741
1.12743
1.12746
1.12748
1.12748
1.12748
1.12748
1.12747
1.12746
1.12744
1.12741
1.12739
1.12738
1.12736
1.12735
1.12732
1.12725
1.12718
1.12714
1.12712
1.12714
1.12718
1.12718
1.12715
1.12716
1.12719
1.12716
1.1271
1.12708
1.12713
1.12716
1.12715
1.12714
1.12715
1.12712
1.12706
1.127
1.12699
1.12708
1.12728
1.12744
1.12748
1.12745
1.12737
1.12729
1.12715
1.12697
1.12689
1.12688
1.12689
1.12696
1.12707
1.12715
1.12718
1.1272
1.12721
1.12723
1.12722
1.12722
1.12719
1.12712
1.1273
1.1288
1.13611
1.15865
1.20564
1.26985
1.32118
1.35481
1.36887
1.38736
1.39035
1.3891
1.38667
1.38742
1.38908
1.38905
1.38847
1.38815
1.38842
1.1268
1.12682
1.12685
1.12689
1.12693
1.12696
1.12701
1.12704
1.12704
1.12704
1.12709
1.12717
1.12724
1.12729
1.12731
1.12733
1.12737
1.12743
1.12745
1.12743
1.12742
1.12741
1.12742
1.12743
1.12744
1.12745
1.12747
1.1275
1.12753
1.12754
1.12752
1.12748
1.12749
1.12751
1.1275
1.12741
1.1273
1.12719
1.12709
1.12704
1.12704
1.12708
1.12708
1.12703
1.12701
1.12702
1.12702
1.12699
1.12697
1.12701
1.12712
1.12724
1.12734
1.12743
1.12743
1.12735
1.12727
1.12721
1.12727
1.12743
1.1275
1.1275
1.12742
1.12736
1.12734
1.12729
1.12715
1.12694
1.12686
1.12687
1.12693
1.12712
1.1273
1.12734
1.12733
1.12729
1.12724
1.12721
1.12716
1.12706
1.127
1.12702
1.12708
1.12764
1.13081
1.14338
1.17758
1.2332
1.30115
1.35332
1.38139
1.38554
1.3807
1.38411
1.38876
1.38967
1.38897
1.38777
1.38802
1.38877
1.12699
1.12698
1.127
1.12704
1.12708
1.12709
1.12709
1.12708
1.12709
1.12716
1.12725
1.12731
1.12733
1.12734
1.12737
1.1274
1.12746
1.12748
1.12746
1.12744
1.1274
1.1273
1.12726
1.12725
1.12725
1.12727
1.12733
1.1274
1.12743
1.12743
1.12742
1.12743
1.12743
1.12742
1.12737
1.12733
1.12729
1.12722
1.12716
1.1271
1.12709
1.12715
1.12718
1.12712
1.12704
1.12703
1.12704
1.12702
1.12698
1.12701
1.12715
1.12736
1.12746
1.12752
1.12748
1.12742
1.12744
1.12745
1.1275
1.12748
1.12737
1.12724
1.1272
1.12721
1.12732
1.12738
1.12735
1.1272
1.12703
1.12699
1.12702
1.12718
1.12737
1.12739
1.12739
1.12731
1.12713
1.12703
1.12699
1.12698
1.12699
1.12702
1.1271
1.12719
1.12738
1.12858
1.13471
1.15639
1.20186
1.26732
1.32403
1.35425
1.37025
1.3892
1.39034
1.38911
1.38701
1.38753
1.38881
1.38903
1.12723
1.1272
1.12715
1.12711
1.12709
1.1271
1.1271
1.12711
1.12714
1.12719
1.12724
1.12725
1.12725
1.12723
1.12717
1.12716
1.12717
1.12715
1.1271
1.12703
1.12691
1.12684
1.12683
1.12683
1.12686
1.12695
1.1271
1.12716
1.12718
1.12721
1.12729
1.12733
1.12735
1.1274
1.12742
1.12743
1.12744
1.12746
1.12757
1.12758
1.12762
1.12777
1.12783
1.12779
1.12765
1.12757
1.12748
1.1273
1.12713
1.12712
1.12721
1.12735
1.12744
1.12738
1.1273
1.1273
1.12739
1.12754
1.12762
1.12756
1.12726
1.12706
1.12704
1.12707
1.12723
1.12748
1.12755
1.12752
1.12736
1.12718
1.12715
1.12721
1.12734
1.12738
1.12733
1.12718
1.12701
1.12697
1.12697
1.12699
1.12704
1.12714
1.12726
1.1273
1.12728
1.12729
1.12766
1.13053
1.14232
1.17768
1.23399
1.30498
1.35645
1.38417
1.38473
1.38213
1.38502
1.38855
1.38941
1.38897
1.12722
1.12724
1.12725
1.12726
1.12726
1.12727
1.12728
1.12727
1.1273
1.12731
1.1273
1.12731
1.1273
1.12726
1.12715
1.12703
1.12702
1.127
1.12692
1.12674
1.12665
1.12663
1.12663
1.12665
1.12675
1.12692
1.12709
1.12718
1.12723
1.12733
1.1275
1.12754
1.12753
1.12758
1.12767
1.12768
1.12768
1.12772
1.12783
1.12792
1.12804
1.1282
1.12828
1.12826
1.12816
1.12802
1.1278
1.12753
1.12737
1.1273
1.12725
1.12722
1.12716
1.127
1.12692
1.12698
1.12724
1.12759
1.12772
1.12766
1.12737
1.12712
1.12709
1.12713
1.12732
1.12761
1.12769
1.12767
1.12751
1.12726
1.12717
1.12713
1.12712
1.12711
1.12707
1.12702
1.12703
1.12703
1.12706
1.12713
1.12721
1.12732
1.12735
1.12733
1.12724
1.12712
1.12707
1.1272
1.12843
1.13486
1.15757
1.20655
1.27313
1.33007
1.35662
1.37436
1.38912
1.38977
1.38883
1.38814
1.12731
1.12756
1.12776
1.12778
1.12777
1.12779
1.12791
1.12809
1.12811
1.12813
1.12819
1.12825
1.12825
1.12816
1.12801
1.12797
1.12792
1.1278
1.12764
1.1275
1.12737
1.12725
1.12716
1.12711
1.12717
1.12725
1.12727
1.12733
1.12744
1.12763
1.12774
1.12772
1.12769
1.12774
1.12775
1.12771
1.12769
1.12772
1.12782
1.12788
1.12797
1.12809
1.12816
1.12815
1.12813
1.12802
1.12782
1.12762
1.12739
1.1272
1.12712
1.12695
1.12678
1.12673
1.12675
1.12691
1.12733
1.12776
1.12786
1.12785
1.12773
1.1276
1.12758
1.12759
1.12766
1.12774
1.12774
1.12769
1.12748
1.12717
1.12698
1.12692
1.12691
1.12691
1.12692
1.12698
1.12713
1.12732
1.12739
1.1274
1.12738
1.12739
1.12737
1.12726
1.12714
1.12705
1.12703
1.12706
1.12715
1.1277
1.13094
1.1445
1.18282
1.24277
1.31681
1.36188
1.38507
1.3839
1.38461
1.38728
1.12792
1.12801
1.12812
1.12825
1.12847
1.12858
1.12862
1.12868
1.12866
1.12864
1.12868
1.12865
1.12856
1.12853
1.12845
1.1283
1.12811
1.12802
1.12799
1.12795
1.12784
1.12779
1.12772
1.12759
1.12757
1.12757
1.12749
1.12751
1.12764
1.12769
1.12764
1.12744
1.12735
1.1273
1.12723
1.12721
1.12723
1.1272
1.12719
1.1273
1.12731
1.12727
1.12725
1.12729
1.12731
1.12725
1.12725
1.12728
1.1272
1.12708
1.12701
1.12695
1.1269
1.12689
1.12694
1.12718
1.12765
1.12799
1.12801
1.12799
1.12786
1.12786
1.12792
1.12797
1.12794
1.12774
1.12746
1.1272
1.12695
1.12678
1.12679
1.12688
1.12692
1.12693
1.12697
1.12713
1.1274
1.12761
1.12761
1.12754
1.12744
1.12733
1.12723
1.12714
1.1271
1.12709
1.12711
1.12724
1.12736
1.12738
1.12753
1.12897
1.13633
1.16337
1.21777
1.2825
1.34242
1.36063
1.37998
1.38866
1.12837
1.12836
1.12832
1.12829
1.12828
1.12825
1.12825
1.12827
1.12826
1.12818
1.12808
1.12803
1.12806
1.12808
1.12804
1.12792
1.12779
1.12773
1.12771
1.12769
1.12753
1.12732
1.12729
1.12722
1.12705
1.12703
1.12721
1.12737
1.12739
1.1273
1.12707
1.1269
1.12684
1.12678
1.12674
1.12678
1.12675
1.12664
1.12665
1.1266
1.12656
1.12661
1.12666
1.1267
1.12687
1.12721
1.1273
1.12734
1.12745
1.12751
1.12754
1.12764
1.12775
1.12776
1.12778
1.12798
1.12814
1.12813
1.12806
1.12792
1.12774
1.1277
1.12774
1.12781
1.12776
1.12756
1.12719
1.12673
1.12655
1.12658
1.12676
1.1271
1.12726
1.12729
1.12736
1.12747
1.1276
1.12769
1.12766
1.12751
1.12729
1.12715
1.12711
1.12712
1.12716
1.12726
1.1274
1.12751
1.12749
1.12741
1.12725
1.12728
1.12789
1.1322
1.14906
1.19423
1.25982
1.32943
1.37001
1.38493
1.12728
1.1273
1.12737
1.12744
1.12745
1.12746
1.12744
1.12741
1.12735
1.12725
1.1271
1.12699
1.12688
1.12664
1.12654
1.12662
1.12663
1.12643
1.12623
1.12626
1.12634
1.12641
1.12635
1.12626
1.12641
1.12652
1.12648
1.12665
1.12687
1.12689
1.1269
1.12683
1.12676
1.12678
1.1269
1.12705
1.12706
1.12698
1.12702
1.12727
1.12734
1.12735
1.12742
1.1275
1.12779
1.12825
1.12832
1.12827
1.12817
1.12793
1.12772
1.12773
1.12795
1.12812
1.12814
1.12827
1.12826
1.12796
1.12746
1.12693
1.12662
1.12661
1.12669
1.12692
1.12716
1.12721
1.12707
1.12665
1.12645
1.12653
1.12696
1.12751
1.12769
1.1277
1.12767
1.12764
1.12759
1.12753
1.1274
1.12724
1.12714
1.12708
1.12711
1.12725
1.12745
1.12761
1.12767
1.12764
1.12748
1.12729
1.12712
1.12712
1.12718
1.12754
1.12985
1.14038
1.1732
1.23705
1.29858
1.35529
1.13018
1.13021
1.13033
1.1305
1.13064
1.1308
1.13091
1.13093
1.13091
1.13081
1.13059
1.13039
1.13025
1.13002
1.12977
1.12987
1.13007
1.12992
1.12957
1.12967
1.12995
1.12993
1.12957
1.12931
1.12911
1.12865
1.12846
1.12848
1.12848
1.12848
1.12884
1.12911
1.12927
1.12966
1.13025
1.1308
1.13098
1.13095
1.131
1.13112
1.13092
1.13051
1.13025
1.13027
1.13035
1.13025
1.12981
1.12918
1.12856
1.12789
1.1273
1.12716
1.12723
1.12758
1.12803
1.12809
1.12791
1.12748
1.1269
1.12631
1.126
1.126
1.12611
1.12641
1.12681
1.127
1.12712
1.1271
1.1271
1.12721
1.12745
1.12763
1.12767
1.12765
1.12758
1.12742
1.12726
1.12712
1.12704
1.12707
1.12712
1.12726
1.12747
1.12768
1.12781
1.12783
1.1278
1.12758
1.12732
1.12716
1.12711
1.12714
1.12726
1.12741
1.12758
1.12861
1.13472
1.15864
1.20784
1.3044
1.14592
1.14584
1.14531
1.14438
1.14393
1.14388
1.14399
1.14438
1.14462
1.14461
1.14415
1.14398
1.14392
1.14335
1.14296
1.14293
1.14281
1.14264
1.1424
1.14232
1.14247
1.14249
1.14221
1.14141
1.14019
1.13868
1.13703
1.13612
1.1357
1.13537
1.13532
1.13536
1.13512
1.13442
1.13389
1.13357
1.13357
1.13369
1.13358
1.13326
1.13306
1.13289
1.13259
1.13204
1.13108
1.12962
1.12862
1.1282
1.12786
1.1275
1.127
1.12676
1.12681
1.12707
1.12744
1.12771
1.12772
1.1276
1.12721
1.12665
1.12646
1.12652
1.12673
1.12715
1.12762
1.12795
1.12796
1.12795
1.12796
1.12786
1.12764
1.12728
1.127
1.12688
1.12686
1.1269
1.12689
1.12682
1.12683
1.12698
1.12745
1.12782
1.12794
1.12792
1.12786
1.12774
1.12756
1.12732
1.12723
1.12715
1.12719
1.12735
1.12754
1.12759
1.12759
1.1275
1.12789
1.13153
1.1457
1.21744
1.16507
1.16444
1.16324
1.16178
1.1606
1.15979
1.15916
1.15889
1.15898
1.15895
1.15869
1.15867
1.15836
1.15733
1.15619
1.15547
1.15444
1.15324
1.15324
1.15325
1.15254
1.15248
1.15234
1.15172
1.15052
1.14864
1.14673
1.14633
1.14676
1.14687
1.14604
1.14494
1.14426
1.14339
1.14206
1.14076
1.14053
1.1405
1.14019
1.13931
1.13862
1.13797
1.137
1.13587
1.13454
1.13296
1.13248
1.1325
1.13245
1.13246
1.13223
1.13161
1.13094
1.13101
1.13089
1.13019
1.13
1.13024
1.13058
1.13077
1.13111
1.13117
1.13101
1.1306
1.12965
1.12874
1.12846
1.1284
1.12844
1.12816
1.12755
1.12691
1.12656
1.12654
1.12662
1.12679
1.12691
1.127
1.12721
1.12757
1.12803
1.12809
1.12801
1.12779
1.12746
1.12728
1.12726
1.12722
1.12723
1.12738
1.12757
1.12774
1.12772
1.12767
1.12748
1.12734
1.12736
1.1276
1.12921
1.15759
1.20045
1.19903
1.19824
1.19765
1.19736
1.19748
1.19799
1.19828
1.19799
1.19714
1.19682
1.19671
1.19571
1.19458
1.19483
1.19448