/*--------------------------------*- C++ -*----------------------------------*\
  =========                 |
  \\      /  F ield         | OpenFOAM: The Open Source CFD Toolbox
   \\    /   O peration     | Website:  https://openfoam.org
    \\  /    A nd           | Version:  7
     \\/     M anipulation  |
\*---------------------------------------------------------------------------*/
FoamFile
{
    version     2.0;
    format      ascii;
    class       volVectorField;
    location    "6";
    object      U;
}
// * * * * * * * * * * * * * * * * * * * * * * * * * * * * * * * * * * * * * //

dimensions      [0 1 -1 0 0 0 0];

internalField   nonuniform List<vector> 
90000
(
(5.06444 -0.910329 0)
(5.05096 -0.831813 0)
(5.04228 -0.795386 0)
(5.03026 -0.722309 0)
(5.02224 -0.671471 0)
(5.01539 -0.613205 0)
(5.01265 -0.594031 0)
(5.00479 -0.530071 0)
(5.00136 -0.505019 0)
(4.9963 -0.453256 0)
(4.99541 -0.437518 0)
(4.99008 -0.385676 0)
(4.98914 -0.373397 0)
(4.98422 -0.323365 0)
(4.98479 -0.315769 0)
(4.98002 -0.267355 0)
(4.98071 -0.262466 0)
(4.97574 -0.217012 0)
(4.97673 -0.213149 0)
(4.9721 -0.170352 0)
(4.97368 -0.169998 0)
(4.96871 -0.128735 0)
(4.96993 -0.130043 0)
(4.96585 -0.0939555 0)
(4.96739 -0.0977444 0)
(4.96341 -0.0653199 0)
(4.96442 -0.0697458 0)
(4.96157 -0.0421955 0)
(4.96266 -0.0482501 0)
(4.96069 -0.0263908 0)
(4.96127 -0.0327433 0)
(4.96024 -0.0162931 0)
(4.96088 -0.0227836 0)
(4.96082 -0.0107136 0)
(4.96156 -0.0168172 0)
(4.96198 -0.00969442 0)
(4.96338 -0.0155578 0)
(4.96205 -0.00755168 0)
(4.96272 -0.00875083 0)
(4.96167 -0.00409174 0)
(4.96264 -0.00559791 0)
(4.96028 -0.00234181 0)
(4.9596 0.000198461 0)
(4.9578 0.00267518 0)
(4.95625 0.00949839 0)
(4.95291 0.0104655 0)
(4.94782 0.0273329 0)
(4.94092 0.0218728 0)
(4.94583 0.0364097 0)
(4.94598 0.0370746 0)
(4.9448 0.0343286 0)
(4.94391 0.0304279 0)
(4.94276 0.0247238 0)
(4.94276 0.020436 0)
(4.94297 0.0159769 0)
(4.94335 0.0135511 0)
(4.94365 0.0115706 0)
(4.94357 0.0122594 0)
(4.94351 0.01168 0)
(4.94402 0.0133069 0)
(4.94515 0.016072 0)
(4.94767 0.0250556 0)
(4.94891 0.0270466 0)
(4.95016 0.0356718 0)
(4.95141 0.0333817 0)
(4.95128 0.0329421 0)
(4.95073 0.028107 0)
(4.95003 0.0225824 0)
(4.94935 0.0165643 0)
(4.94842 0.0118013 0)
(4.94826 0.00933426 0)
(4.94867 0.0117448 0)
(4.94979 0.0159228 0)
(4.95142 0.0217837 0)
(4.95264 0.0263517 0)
(4.95257 0.0270391 0)
(4.95232 0.0255109 0)
(4.9513 0.0202917 0)
(4.95129 0.0189032 0)
(4.95129 0.0145707 0)
(4.95149 0.0168039 0)
(4.95241 0.0203541 0)
(4.9531 0.0200543 0)
(4.95322 0.0207957 0)
(4.95281 0.0207208 0)
(4.95227 0.0181983 0)
(4.95264 0.0153211 0)
(4.95308 0.0162988 0)
(4.95374 0.0187391 0)
(4.95427 0.0193176 0)
(4.95414 0.0186191 0)
(4.95379 0.0162302 0)
(4.9538 0.016252 0)
(4.95413 0.0173257 0)
(4.95456 0.0194435 0)
(4.95523 0.0212636 0)
(4.95544 0.0212475 0)
(4.95573 0.0217755 0)
(4.95605 0.0223905 0)
(4.95633 0.0225898 0)
(5.076 -0.959508 0)
(5.07602 -0.959442 0)
(5.07604 -0.95941 0)
(5.07605 -0.959431 0)
(5.07608 -0.95931 0)
(5.0761 -0.959278 0)
(5.07609 -0.959202 0)
(5.07599 -0.958631 0)
(5.07576 -0.95754 0)
(5.07535 -0.955746 0)
(5.0747 -0.952725 0)
(5.07376 -0.947988 0)
(5.07256 -0.942713 0)
(5.07079 -0.933472 0)
(5.06879 -0.924327 0)
(5.06598 -0.909187 0)
(5.06297 -0.895369 0)
(5.05895 -0.872266 0)
(5.05509 -0.853296 0)
(5.04998 -0.820885 0)
(5.04549 -0.797328 0)
(5.03923 -0.754526 0)
(5.03452 -0.727235 0)
(5.02746 -0.67354 0)
(5.02317 -0.645562 0)
(5.01521 -0.581705 0)
(5.01182 -0.555749 0)
(5.0032 -0.484312 0)
(5.0013 -0.462408 0)
(4.9919 -0.38572 0)
(4.9919 -0.369852 0)
(4.98132 -0.289846 0)
(4.98318 -0.278658 0)
(4.97182 -0.200338 0)
(4.9758 -0.193754 0)
(4.96376 -0.118902 0)
(4.96895 -0.115199 0)
(4.9572 -0.0489138 0)
(4.96335 -0.0471286 0)
(4.95205 0.00624659 0)
(4.95828 0.00919525 0)
(4.9473 0.0487069 0)
(4.95248 0.0564012 0)
(4.94304 0.0837592 0)
(4.94272 0.0930306 0)
(4.93972 0.111955 0)
(4.93622 0.110686 0)
(4.93344 0.100906 0)
(4.937 0.077544 0)
(4.93565 0.0495764 0)
(4.93776 0.0355322 0)
(4.93863 0.026408 0)
(4.9395 0.01928 0)
(4.94016 0.0152392 0)
(4.94114 0.0114653 0)
(4.94149 0.0105179 0)
(4.94215 0.0100903 0)
(4.94285 0.0100856 0)
(4.9437 0.0126239 0)
(4.94591 0.0219997 0)
(4.94698 0.0283139 0)
(4.94792 0.0385468 0)
(4.94781 0.0386886 0)
(4.94744 0.0378196 0)
(4.94686 0.034368 0)
(4.9458 0.0276621 0)
(4.94483 0.019641 0)
(4.94463 0.0135635 0)
(4.94561 0.010148 0)
(4.94613 0.00983739 0)
(4.94738 0.0134557 0)
(4.94873 0.0188643 0)
(4.95024 0.0272471 0)
(4.95069 0.0278043 0)
(4.95068 0.0269071 0)
(4.9501 0.0238805 0)
(4.9493 0.0193474 0)
(4.94882 0.0123464 0)
(4.94859 0.0136208 0)
(4.94922 0.016924 0)
(4.94883 0.0188106 0)
(4.95112 0.0268156 0)
(4.95153 0.0269551 0)
(4.95073 0.022436 0)
(4.9504 0.0161799 0)
(4.94943 0.0163642 0)
(4.94998 0.0181256 0)
(4.95083 0.0211081 0)
(4.95166 0.0240476 0)
(4.95156 0.0233373 0)
(4.9509 0.0201796 0)
(4.95065 0.0171717 0)
(4.95091 0.0171027 0)
(4.95132 0.0194456 0)
(4.95202 0.021076 0)
(4.95229 0.0214198 0)
(4.9525 0.0207839 0)
(4.95268 0.0211717 0)
(4.95307 0.021523 0)
(4.95328 0.0217261 0)
(5.07761 -0.96012 0)
(5.07767 -0.960114 0)
(5.07776 -0.95996 0)
(5.0778 -0.96008 0)
(5.07784 -0.960262 0)
(5.07798 -0.959945 0)
(5.07799 -0.960331 0)
(5.07813 -0.960026 0)
(5.07817 -0.96027 0)
(5.0783 -0.960271 0)
(5.0784 -0.960419 0)
(5.07849 -0.960615 0)
(5.07863 -0.960667 0)
(5.07872 -0.960283 0)
(5.07882 -0.960122 0)
(5.07896 -0.959865 0)
(5.07906 -0.959987 0)
(5.07921 -0.959863 0)
(5.07935 -0.959833 0)
(5.07951 -0.959696 0)
(5.07962 -0.959951 0)
(5.07984 -0.959734 0)
(5.08 -0.959955 0)
(5.08025 -0.959779 0)
(5.08043 -0.960022 0)
(5.08053 -0.959555 0)
(5.08045 -0.95825 0)
(5.08006 -0.95493 0)
(5.0793 -0.950075 0)
(5.07755 -0.940278 0)
(5.07527 -0.928375 0)
(5.07135 -0.906905 0)
(5.0672 -0.884643 0)
(5.06086 -0.846236 0)
(5.05526 -0.813024 0)
(5.04688 -0.755086 0)
(5.0409 -0.714575 0)
(5.03114 -0.637117 0)
(5.0264 -0.595268 0)
(5.01633 -0.504688 0)
(5.01408 -0.469474 0)
(5.00424 -0.376267 0)
(5.0043 -0.350013 0)
(4.99602 -0.263666 0)
(4.99762 -0.249333 0)
(4.99217 -0.180723 0)
(4.99876 -0.169491 0)
(4.98745 -0.122831 0)
(4.99802 -0.105794 0)
(4.97961 -0.0561227 0)
(4.9793 -0.0489272 0)
(4.97028 -0.0270011 0)
(4.97034 -0.0202236 0)
(4.96414 -0.00854258 0)
(4.96381 -0.000250781 0)
(4.9624 0.00819596 0)
(4.95864 0.0145194 0)
(4.95615 0.0235105 0)
(4.95124 0.0309686 0)
(4.95007 0.0445719 0)
(4.94936 0.0450838 0)
(4.9473 0.0426624 0)
(4.94424 0.0361881 0)
(4.94386 0.0280511 0)
(4.9429 0.0150952 0)
(4.9444 0.0112939 0)
(4.9431 0.00246604 0)
(4.94319 0.00101888 0)
(4.94417 0.00397132 0)
(4.94655 0.0123714 0)
(4.9491 0.0235739 0)
(4.9504 0.0304528 0)
(4.95052 0.0317261 0)
(4.95024 0.0307104 0)
(4.94917 0.0249252 0)
(4.94738 0.0155382 0)
(4.94706 0.00784494 0)
(4.94781 0.00711787 0)
(4.94885 0.0120143 0)
(4.95006 0.0183802 0)
(4.95041 0.023342 0)
(4.95043 0.0243308 0)
(4.95008 0.0222921 0)
(4.94948 0.0187132 0)
(4.949 0.0120231 0)
(4.94919 0.0132096 0)
(4.94994 0.0171527 0)
(4.95058 0.021166 0)
(4.95069 0.022008 0)
(4.95027 0.0201084 0)
(4.94968 0.0174112 0)
(4.94979 0.0154525 0)
(4.94999 0.0181437 0)
(4.95018 0.0200446 0)
(4.95104 0.021735 0)
(4.95097 0.0215043 0)
(4.9511 0.0216598 0)
(4.95123 0.0220924 0)
(4.95161 0.022703 0)
(4.95164 0.0223286 0)
(5.0798 -0.962324 0)
(5.07986 -0.96235 0)
(5.07993 -0.962351 0)
(5.08005 -0.96217 0)
(5.08006 -0.962417 0)
(5.08013 -0.962478 0)
(5.08027 -0.962344 0)
(5.08031 -0.962596 0)
(5.08044 -0.962684 0)
(5.08062 -0.962619 0)
(5.08074 -0.962759 0)
(5.08087 -0.962834 0)
(5.08102 -0.962674 0)
(5.08115 -0.962625 0)
(5.08126 -0.962798 0)
(5.08143 -0.962583 0)
(5.08158 -0.96263 0)
(5.08174 -0.962667 0)
(5.08193 -0.962612 0)
(5.08211 -0.962579 0)
(5.08225 -0.962831 0)
(5.08239 -0.962647 0)
(5.08253 -0.962648 0)
(5.08271 -0.962429 0)
(5.08288 -0.962449 0)
(5.08304 -0.962494 0)
(5.08323 -0.962658 0)
(5.08329 -0.962612 0)
(5.08334 -0.962441 0)
(5.08341 -0.962307 0)
(5.08347 -0.962189 0)
(5.08348 -0.962084 0)
(5.08347 -0.962076 0)
(5.08348 -0.961935 0)
(5.08347 -0.961923 0)
(5.08348 -0.961825 0)
(5.08349 -0.961888 0)
(5.08349 -0.961927 0)
(5.08332 -0.96094 0)
(5.0825 -0.956287 0)
(5.08101 -0.948003 0)
(5.07768 -0.926846 0)
(5.07349 -0.901582 0)
(5.06619 -0.845971 0)
(5.0604 -0.801376 0)
(5.04856 -0.696951 0)
(5.04577 -0.643194 0)
(5.02926 -0.485034 0)
(5.03237 -0.443591 0)
(5.01357 -0.283164 0)
(5.02172 -0.263973 0)
(5.00139 -0.128497 0)
(5.01161 -0.127376 0)
(4.98868 -0.0157968 0)
(4.9964 -0.022007 0)
(4.9778 0.0375758 0)
(4.97064 0.058881 0)
(4.96397 0.0833451 0)
(4.9626 0.0943755 0)
(4.95679 0.0822746 0)
(4.9505 0.0511875 0)
(4.94876 0.0358253 0)
(4.94759 0.023946 0)
(4.95037 0.0199841 0)
(4.94674 0.0111431 0)
(4.94675 0.0106682 0)
(4.94713 0.0105524 0)
(4.94729 0.0112221 0)
(4.95097 0.0277313 0)
(4.95007 0.0284655 0)
(4.95193 0.0376084 0)
(4.95149 0.0366297 0)
(4.95033 0.0320785 0)
(4.94836 0.0220646 0)
(4.94747 0.0162542 0)
(4.94691 0.00998236 0)
(4.94736 0.00990493 0)
(4.94895 0.015798 0)
(4.94996 0.0189633 0)
(4.95196 0.027393 0)
(4.95161 0.026517 0)
(4.95058 0.0220775 0)
(4.94899 0.0150176 0)
(4.94827 0.0136371 0)
(4.94848 0.0140692 0)
(4.94968 0.0185844 0)
(4.9507 0.0226677 0)
(4.95075 0.0232446 0)
(4.95012 0.0208776 0)
(4.94941 0.0172493 0)
(4.94918 0.0151607 0)
(4.94973 0.0170092 0)
(4.94981 0.0185155 0)
(4.95072 0.0215107 0)
(4.95067 0.0214714 0)
(4.9506 0.0210185 0)
(4.95072 0.021169 0)
(4.95095 0.0219974 0)
(4.95106 0.022294 0)
(4.95107 0.0220654 0)
(5.08299 -0.959865 0)
(5.08301 -0.959906 0)
(5.08305 -0.959851 0)
(5.08312 -0.959744 0)
(5.0831 -0.959817 0)
(5.0831 -0.959947 0)
(5.08314 -0.959975 0)
(5.08324 -0.96003 0)
(5.08326 -0.960252 0)
(5.08329 -0.960356 0)
(5.08334 -0.960412 0)
(5.08338 -0.960501 0)
(5.08344 -0.960544 0)
(5.0835 -0.960451 0)
(5.08357 -0.960329 0)
(5.08363 -0.960418 0)
(5.08367 -0.960566 0)
(5.08376 -0.960607 0)
(5.08383 -0.960616 0)
(5.0839 -0.960678 0)
(5.08397 -0.960759 0)
(5.08401 -0.960739 0)
(5.08407 -0.960594 0)
(5.08411 -0.960521 0)
(5.08415 -0.960501 0)
(5.0842 -0.960535 0)
(5.08424 -0.960587 0)
(5.08426 -0.960651 0)
(5.08428 -0.960732 0)
(5.08428 -0.960746 0)
(5.08427 -0.960743 0)
(5.08419 -0.960771 0)
(5.08408 -0.960815 0)
(5.08399 -0.9608 0)
(5.08392 -0.960694 0)
(5.08389 -0.960579 0)
(5.08394 -0.960628 0)
(5.08405 -0.960806 0)
(5.08407 -0.960898 0)
(5.08418 -0.961047 0)
(5.08441 -0.961167 0)
(5.08458 -0.96127 0)
(5.08468 -0.96135 0)
(5.08498 -0.961584 0)
(5.08509 -0.961731 0)
(5.0852 -0.961859 0)
(5.08524 -0.962032 0)
(5.08454 -0.95865 0)
(5.08279 -0.949223 0)
(5.07772 -0.918702 0)
(5.07233 -0.87922 0)
(5.062 -0.79392 0)
(5.0557 -0.727357 0)
(5.04195 -0.594081 0)
(5.03984 -0.528594 0)
(5.02337 -0.37012 0)
(5.02706 -0.350773 0)
(5.0103 -0.211959 0)
(5.01625 -0.190028 0)
(4.99679 -0.129069 0)
(5.00475 -0.1052 0)
(4.98612 -0.0504834 0)
(4.98258 -0.0410905 0)
(4.97899 -0.0218127 0)
(4.97349 -0.00126263 0)
(4.96975 0.0115963 0)
(4.96476 0.0259458 0)
(4.95367 0.031894 0)
(4.95375 0.0491547 0)
(4.95242 0.0466519 0)
(4.94948 0.0380376 0)
(4.94723 0.0232833 0)
(4.9474 0.0146746 0)
(4.94682 0.00129692 0)
(4.94673 -0.000181187 0)
(4.94824 0.00518058 0)
(4.95123 0.0159443 0)
(4.95282 0.0303667 0)
(4.95298 0.0327956 0)
(4.95219 0.030457 0)
(4.9496 0.0201784 0)
(4.94963 0.0150084 0)
(4.94727 0.00685149 0)
(4.94775 0.0106412 0)
(4.94833 0.0169495 0)
(4.94962 0.0228914 0)
(4.95065 0.025371 0)
(4.95001 0.0218109 0)
(4.94904 0.016443 0)
(4.94839 0.0119029 0)
(4.94891 0.0151013 0)
(4.94951 0.0190083 0)
(4.95054 0.0223369 0)
(4.95056 0.022264 0)
(4.95026 0.0206272 0)
(4.95042 0.0204692 0)
(4.95067 0.021698 0)
(4.95091 0.0229418 0)
(4.95088 0.0227432 0)
(4.95072 0.0216659 0)
(5.08416 -0.961422 0)
(5.08415 -0.961447 0)
(5.08414 -0.961453 0)
(5.08414 -0.961504 0)
(5.08419 -0.961533 0)
(5.08425 -0.961605 0)
(5.08417 -0.961994 0)
(5.08433 -0.962339 0)
(5.0843 -0.962151 0)
(5.08401 -0.961699 0)
(5.08399 -0.961566 0)
(5.08403 -0.961529 0)
(5.08406 -0.961517 0)
(5.08409 -0.961517 0)
(5.08411 -0.961526 0)
(5.08412 -0.961565 0)
(5.08413 -0.961564 0)
(5.08415 -0.961459 0)
(5.08418 -0.961407 0)
(5.08421 -0.961405 0)
(5.08426 -0.961406 0)
(5.08431 -0.961396 0)
(5.08437 -0.961367 0)
(5.08442 -0.961305 0)
(5.08446 -0.961317 0)
(5.08451 -0.961413 0)
(5.08451 -0.961455 0)
(5.08449 -0.961473 0)
(5.08454 -0.961434 0)
(5.08458 -0.961382 0)
(5.08461 -0.961355 0)
(5.0846 -0.961516 0)
(5.08464 -0.961592 0)
(5.08476 -0.961459 0)
(5.08487 -0.961628 0)
(5.08493 -0.961881 0)
(5.08496 -0.961917 0)
(5.08506 -0.961955 0)
(5.08512 -0.961996 0)
(5.08519 -0.962106 0)
(5.08517 -0.962108 0)
(5.08515 -0.962175 0)
(5.08516 -0.96236 0)
(5.08522 -0.962679 0)
(5.08521 -0.962978 0)
(5.08519 -0.962963 0)
(5.0851 -0.962795 0)
(5.08492 -0.962768 0)
(5.08465 -0.962783 0)
(5.08453 -0.962518 0)
(5.08449 -0.962139 0)
(5.08426 -0.961907 0)
(5.08395 -0.962042 0)
(5.0836 -0.960928 0)
(5.08234 -0.95498 0)
(5.07772 -0.92647 0)
(5.07252 -0.885155 0)
(5.05824 -0.768178 0)
(5.05419 -0.69136 0)
(5.02818 -0.463791 0)
(5.03871 -0.412356 0)
(5.01085 -0.197285 0)
(5.02183 -0.177315 0)
(4.99575 -0.0324925 0)
(4.99092 0.00307301 0)
(4.98582 0.0551466 0)
(4.97214 0.0987633 0)
(4.96242 0.10619 0)
(4.95695 0.0762284 0)
(4.95198 0.0439378 0)
(4.95382 0.0309284 0)
(4.94868 0.016181 0)
(4.94961 0.00857926 0)
(4.94996 0.0072934 0)
(4.9502 0.0102725 0)
(4.95391 0.0280341 0)
(4.95374 0.0348642 0)
(4.95296 0.0349726 0)
(4.95098 0.0303668 0)
(4.94849 0.0206134 0)
(4.94639 0.00934133 0)
(4.94666 0.00913771 0)
(4.94741 0.0114719 0)
(4.94865 0.0162712 0)
(4.95104 0.0299366 0)
(4.95168 0.026647 0)
(4.95041 0.0224229 0)
(4.94902 0.016932 0)
(4.94829 0.0131679 0)
(4.9485 0.014631 0)
(4.94953 0.0192115 0)
(4.9505 0.0239296 0)
(4.95038 0.0230885 0)
(4.9502 0.021649 0)
(4.94981 0.0197003 0)
(4.95023 0.0206312 0)
(4.95067 0.0232911 0)
(4.95066 0.0231716 0)
(4.95049 0.0220143 0)
(4.95028 0.0214345 0)
(5.08469 -0.96201 0)
(5.08475 -0.962024 0)
(5.0848 -0.962049 0)
(5.08485 -0.962055 0)
(5.08489 -0.962047 0)
(5.08493 -0.962068 0)
(5.08491 -0.962176 0)
(5.08484 -0.962285 0)
(5.08487 -0.962322 0)
(5.08489 -0.962334 0)
(5.08493 -0.962359 0)
(5.08493 -0.962445 0)
(5.08493 -0.962472 0)
(5.08495 -0.962464 0)
(5.08497 -0.962429 0)
(5.08499 -0.962422 0)
(5.0849 -0.962531 0)
(5.08487 -0.962594 0)
(5.08487 -0.962585 0)
(5.0849 -0.962621 0)
(5.08494 -0.962695 0)
(5.08502 -0.962725 0)
(5.08514 -0.962644 0)
(5.08521 -0.962541 0)
(5.08522 -0.962446 0)
(5.08523 -0.962461 0)
(5.08521 -0.96252 0)
(5.08519 -0.962536 0)
(5.08519 -0.96249 0)
(5.08519 -0.962442 0)
(5.08515 -0.962377 0)
(5.0851 -0.962291 0)
(5.085 -0.962215 0)
(5.08493 -0.962211 0)
(5.08488 -0.962184 0)
(5.08486 -0.962143 0)
(5.08479 -0.962116 0)
(5.08467 -0.962162 0)
(5.08457 -0.962194 0)
(5.08449 -0.962144 0)
(5.08437 -0.962015 0)
(5.08426 -0.962114 0)
(5.08425 -0.962514 0)
(5.08425 -0.962726 0)
(5.08427 -0.962912 0)
(5.08421 -0.962921 0)
(5.08405 -0.962773 0)
(5.08402 -0.962759 0)
(5.08392 -0.962777 0)
(5.08395 -0.962606 0)
(5.08413 -0.962083 0)
(5.08393 -0.961665 0)
(5.08365 -0.961758 0)
(5.08346 -0.962122 0)
(5.08338 -0.962206 0)
(5.08315 -0.962217 0)
(5.08297 -0.962221 0)
(5.08296 -0.961737 0)
(5.08309 -0.96123 0)
(5.08198 -0.955578 0)
(5.07906 -0.938114 0)
(5.06928 -0.871543 0)
(5.06219 -0.796852 0)
(5.04487 -0.620378 0)
(5.04407 -0.552461 0)
(5.02326 -0.335958 0)
(5.02995 -0.309468 0)
(5.00943 -0.149253 0)
(5.02885 -0.150262 0)
(4.9936 -0.0554976 0)
(4.99083 -0.0520315 0)
(4.97782 -0.022985 0)
(4.97303 -8.9158e-05 0)
(4.96863 0.0163062 0)
(4.9504 0.0293485 0)
(4.95286 0.0492766 0)
(4.94937 0.0441376 0)
(4.94691 0.0272406 0)
(4.94584 0.0145275 0)
(4.94459 -0.00114011 0)
(4.94476 0.000295163 0)
(4.94655 0.0079623 0)
(4.94883 0.0196225 0)
(4.95048 0.0270524 0)
(4.9506 0.0276362 0)
(4.95035 0.0208672 0)
(4.94893 0.0131328 0)
(4.94752 0.00771848 0)
(4.94803 0.0114837 0)
(4.94895 0.0181959 0)
(4.95015 0.0240197 0)
(4.95018 0.0237714 0)
(4.94967 0.020588 0)
(4.94931 0.0177145 0)
(4.9496 0.0197515 0)
(4.95003 0.0230663 0)
(4.95044 0.0234362 0)
(4.95019 0.0220385 0)
(4.94995 0.0204813 0)
(4.95012 0.0213292 0)
(5.08499 -0.962631 0)
(5.08503 -0.962597 0)
(5.08506 -0.962523 0)
(5.08509 -0.962458 0)
(5.08513 -0.962444 0)
(5.08507 -0.962549 0)
(5.08503 -0.962585 0)
(5.08502 -0.96259 0)
(5.08502 -0.962576 0)
(5.08502 -0.962547 0)
(5.08501 -0.962583 0)
(5.08497 -0.962614 0)
(5.08491 -0.96257 0)
(5.0849 -0.962536 0)
(5.08485 -0.962463 0)
(5.08481 -0.962462 0)
(5.08475 -0.962548 0)
(5.0847 -0.962594 0)
(5.08468 -0.9626 0)
(5.08468 -0.962646 0)
(5.08468 -0.962793 0)
(5.08474 -0.96289 0)
(5.08488 -0.962686 0)
(5.0849 -0.962514 0)
(5.08489 -0.962497 0)
(5.08486 -0.962498 0)
(5.08487 -0.962529 0)
(5.08487 -0.962541 0)
(5.08487 -0.962505 0)
(5.08485 -0.962442 0)
(5.08484 -0.962419 0)
(5.08475 -0.962298 0)
(5.08471 -0.962223 0)
(5.08469 -0.962205 0)
(5.08472 -0.962211 0)
(5.0847 -0.962228 0)
(5.08468 -0.962238 0)
(5.08461 -0.962221 0)
(5.08443 -0.962155 0)
(5.08438 -0.962064 0)
(5.08422 -0.961888 0)
(5.08406 -0.962011 0)
(5.08404 -0.962562 0)
(5.084 -0.962797 0)
(5.08388 -0.962975 0)
(5.08365 -0.962912 0)
(5.08352 -0.962698 0)
(5.08351 -0.962682 0)
(5.08344 -0.96266 0)
(5.08367 -0.962376 0)
(5.08377 -0.961798 0)
(5.08348 -0.961282 0)
(5.08336 -0.961496 0)
(5.0832 -0.961829 0)
(5.08303 -0.962026 0)
(5.08283 -0.96214 0)
(5.08268 -0.962147 0)
(5.08277 -0.961472 0)
(5.08294 -0.960629 0)
(5.08285 -0.960457 0)
(5.08233 -0.961117 0)
(5.08215 -0.961809 0)
(5.08245 -0.961734 0)
(5.08254 -0.9611 0)
(5.08165 -0.954449 0)
(5.07417 -0.908033 0)
(5.06758 -0.839315 0)
(5.04071 -0.612368 0)
(5.05676 -0.526917 0)
(5.01647 -0.208308 0)
(5.04917 -0.219399 0)
(4.99947 0.00673267 0)
(4.99934 0.0165828 0)
(4.98134 0.107313 0)
(4.96459 0.102074 0)
(4.95299 0.0647719 0)
(4.95482 0.0362618 0)
(4.94871 0.0135102 0)
(4.94675 0.00538038 0)
(4.94735 0.00370289 0)
(4.95005 0.0137841 0)
(4.95157 0.025431 0)
(4.9528 0.0401834 0)
(4.95164 0.0352124 0)
(4.94946 0.0227176 0)
(4.95052 0.0183738 0)
(4.9473 0.00952399 0)
(4.94777 0.0108725 0)
(4.94947 0.0188394 0)
(4.95126 0.0288289 0)
(4.95086 0.026836 0)
(4.95004 0.0228712 0)
(4.94933 0.0195327 0)
(4.94934 0.0196784 0)
(4.9501 0.0228278 0)
(4.95029 0.0246706 0)
(4.95005 0.0231677 0)
(4.9499 0.0214206 0)
(4.94995 0.0214094 0)
(4.95032 0.0223308 0)
(5.0849 -0.962156 0)
(5.08489 -0.962149 0)
(5.08489 -0.962124 0)
(5.08491 -0.962106 0)
(5.08492 -0.962107 0)
(5.08484 -0.962108 0)
(5.0848 -0.962109 0)
(5.08478 -0.962141 0)
(5.08475 -0.962156 0)
(5.08472 -0.962136 0)
(5.08467 -0.9621 0)
(5.08464 -0.962101 0)
(5.08464 -0.962121 0)
(5.08464 -0.962186 0)
(5.08465 -0.962183 0)
(5.08467 -0.962122 0)
(5.08466 -0.962134 0)
(5.08456 -0.962278 0)
(5.08453 -0.962374 0)
(5.08452 -0.962407 0)
(5.08456 -0.962503 0)
(5.08467 -0.962596 0)
(5.08474 -0.96256 0)
(5.08472 -0.962519 0)
(5.0847 -0.962508 0)
(5.08465 -0.962505 0)
(5.08457 -0.962542 0)
(5.08448 -0.96258 0)
(5.08439 -0.962595 0)
(5.08436 -0.962607 0)
(5.08435 -0.96262 0)
(5.08431 -0.962469 0)
(5.08429 -0.962275 0)
(5.08423 -0.962193 0)
(5.08418 -0.96201 0)
(5.08415 -0.961878 0)
(5.08414 -0.961842 0)
(5.08379 -0.961641 0)
(5.0836 -0.961534 0)
(5.08339 -0.961313 0)
(5.08308 -0.96109 0)
(5.08278 -0.961198 0)
(5.08254 -0.961705 0)
(5.08243 -0.962088 0)
(5.08245 -0.962443 0)
(5.08249 -0.962554 0)
(5.08258 -0.962317 0)
(5.08267 -0.962204 0)
(5.08273 -0.962068 0)
(5.08298 -0.961625 0)
(5.08319 -0.96113 0)
(5.08306 -0.960324 0)
(5.08282 -0.960251 0)
(5.08266 -0.960742 0)
(5.08256 -0.961397 0)
(5.08233 -0.961979 0)
(5.0821 -0.962092 0)
(5.08245 -0.960593 0)
(5.08258 -0.959678 0)
(5.08229 -0.959598 0)
(5.08162 -0.960728 0)
(5.08186 -0.961342 0)
(5.08202 -0.961297 0)
(5.0824 -0.961095 0)
(5.08282 -0.961175 0)
(5.08223 -0.961949 0)
(5.08205 -0.962057 0)
(5.08215 -0.961846 0)
(5.08141 -0.955096 0)
(5.07284 -0.896745 0)
(5.06837 -0.813554 0)
(5.04665 -0.589244 0)
(5.05537 -0.524061 0)
(5.02083 -0.232185 0)
(5.05851 -0.259231 0)
(5.00245 -0.101603 0)
(5.01089 -0.0832307 0)
(4.98723 -0.0366838 0)
(4.97485 -0.00887709 0)
(4.9717 0.0102751 0)
(4.95506 0.0281553 0)
(4.95447 0.0404543 0)
(4.9501 0.0312906 0)
(4.94863 0.0223254 0)
(4.94615 -0.00365003 0)
(4.94614 0.000953131 0)
(4.9475 0.00613334 0)
(4.9499 0.0183106 0)
(4.95149 0.0254321 0)
(4.95154 0.026273 0)
(4.95026 0.0215748 0)
(4.94901 0.0146658 0)
(4.94918 0.0164107 0)
(4.94965 0.0210505 0)
(4.95047 0.0245413 0)
(4.95036 0.0239681 0)
(4.9497 0.0206785 0)
(4.94988 0.0189645 0)
(4.95024 0.0210256 0)
(4.95059 0.0231527 0)
(5.08454 -0.96118 0)
(5.08454 -0.961169 0)
(5.08454 -0.961164 0)
(5.08454 -0.961158 0)
(5.08452 -0.961164 0)
(5.08452 -0.961157 0)
(5.08452 -0.961149 0)
(5.08452 -0.961138 0)
(5.08451 -0.961136 0)
(5.08447 -0.96113 0)
(5.08445 -0.961022 0)
(5.08445 -0.960937 0)
(5.08445 -0.960918 0)
(5.08413 -0.960989 0)
(5.08389 -0.96098 0)
(5.08379 -0.960993 0)
(5.08376 -0.960995 0)
(5.08358 -0.961124 0)
(5.08346 -0.961285 0)
(5.08337 -0.96129 0)
(5.08329 -0.961298 0)
(5.08339 -0.961669 0)
(5.08341 -0.961833 0)
(5.08341 -0.96193 0)
(5.08338 -0.961967 0)
(5.08334 -0.962068 0)
(5.08327 -0.962303 0)
(5.08326 -0.962516 0)
(5.08327 -0.962572 0)
(5.08329 -0.96255 0)
(5.08337 -0.962523 0)
(5.08344 -0.962557 0)
(5.08343 -0.96231 0)
(5.08336 -0.961806 0)
(5.08342 -0.961626 0)
(5.08346 -0.961623 0)
(5.08342 -0.961385 0)
(5.08327 -0.961058 0)
(5.08327 -0.96084 0)
(5.08324 -0.960381 0)
(5.08301 -0.960026 0)
(5.08307 -0.960449 0)
(5.08311 -0.96087 0)
(5.08292 -0.961256 0)
(5.08257 -0.961407 0)
(5.08235 -0.961713 0)
(5.08234 -0.961758 0)
(5.08233 -0.961701 0)
(5.08249 -0.96124 0)
(5.08267 -0.960363 0)
(5.08274 -0.96002 0)
(5.08281 -0.959583 0)
(5.08296 -0.959322 0)
(5.08297 -0.959946 0)
(5.08273 -0.961383 0)
(5.08267 -0.961832 0)
(5.08285 -0.961541 0)
(5.0831 -0.960011 0)
(5.08304 -0.959598 0)
(5.08243 -0.959734 0)
(5.08142 -0.960666 0)
(5.0815 -0.96125 0)
(5.08167 -0.961246 0)
(5.08208 -0.9611 0)
(5.08281 -0.961176 0)
(5.08274 -0.961802 0)
(5.08242 -0.962038 0)
(5.08236 -0.961985 0)
(5.08249 -0.961511 0)
(5.08263 -0.961265 0)
(5.08257 -0.961589 0)
(5.08223 -0.960192 0)
(5.08066 -0.944944 0)
(5.06511 -0.840114 0)
(5.07147 -0.711018 0)
(5.0297 -0.348761 0)
(5.06593 -0.31873 0)
(5.01124 -0.0183105 0)
(5.01257 -0.00727729 0)
(4.99437 0.117307 0)
(4.96732 0.100348 0)
(4.9534 0.0520847 0)
(4.95193 0.01911 0)
(4.94964 0.00525039 0)
(4.94986 0.00267646 0)
(4.95031 0.00581186 0)
(4.95273 0.0199381 0)
(4.95445 0.0379119 0)
(4.95364 0.0346064 0)
(4.95169 0.0249074 0)
(4.94986 0.0172349 0)
(4.94966 0.0164035 0)
(4.95031 0.0210256 0)
(4.95154 0.0285163 0)
(4.95135 0.0268245 0)
(4.95073 0.0226466 0)
(4.95032 0.019755 0)
(4.95048 0.0201057 0)
(4.9511 0.0239268 0)
(4.95089 0.0235826 0)
(5.0841 -0.96056 0)
(5.08408 -0.960549 0)
(5.08406 -0.960536 0)
(5.08403 -0.960517 0)
(5.08399 -0.960523 0)
(5.08395 -0.960543 0)
(5.08395 -0.960551 0)
(5.08397 -0.960529 0)
(5.08397 -0.960435 0)
(5.08392 -0.960281 0)
(5.08389 -0.96023 0)
(5.0838 -0.960136 0)
(5.08359 -0.960037 0)
(5.08318 -0.960254 0)
(5.08294 -0.960385 0)
(5.08292 -0.960388 0)
(5.08292 -0.960406 0)
(5.08281 -0.960554 0)
(5.08274 -0.960631 0)
(5.08265 -0.960779 0)
(5.08262 -0.961003 0)
(5.08263 -0.961071 0)
(5.08258 -0.961256 0)
(5.08248 -0.961431 0)
(5.08247 -0.961719 0)
(5.08255 -0.961858 0)
(5.08267 -0.962091 0)
(5.08254 -0.962431 0)
(5.08252 -0.9625 0)
(5.08254 -0.962457 0)
(5.08277 -0.962325 0)
(5.08283 -0.962327 0)
(5.08287 -0.962235 0)
(5.08285 -0.961874 0)
(5.08289 -0.961547 0)
(5.08295 -0.961374 0)
(5.08303 -0.961025 0)
(5.08307 -0.960722 0)
(5.08312 -0.960522 0)
(5.08324 -0.959966 0)
(5.0831 -0.95956 0)
(5.08319 -0.959871 0)
(5.0832 -0.960481 0)
(5.08291 -0.960928 0)
(5.08256 -0.960997 0)
(5.08235 -0.961138 0)
(5.08214 -0.961551 0)
(5.08208 -0.961336 0)
(5.08261 -0.959947 0)
(5.08263 -0.959681 0)
(5.08254 -0.959463 0)
(5.08247 -0.958912 0)
(5.08245 -0.958629 0)
(5.08223 -0.959531 0)
(5.08214 -0.961458 0)
(5.0822 -0.961972 0)
(5.0831 -0.96133 0)
(5.08353 -0.960134 0)
(5.08366 -0.959701 0)
(5.08228 -0.960142 0)
(5.08162 -0.96036 0)
(5.0813 -0.96109 0)
(5.08149 -0.961431 0)
(5.08193 -0.961461 0)
(5.08284 -0.961523 0)
(5.08306 -0.961831 0)
(5.08269 -0.961966 0)
(5.0826 -0.961988 0)
(5.08263 -0.961734 0)
(5.08268 -0.961342 0)
(5.08263 -0.961307 0)
(5.08272 -0.961422 0)
(5.08296 -0.961472 0)
(5.08336 -0.961361 0)
(5.08309 -0.961664 0)
(5.07973 -0.943368 0)
(5.07533 -0.883605 0)
(5.05689 -0.693688 0)
(5.05923 -0.568759 0)
(5.02563 -0.25186 0)
(5.06871 -0.26544 0)
(5.00102 -0.0895069 0)
(5.00223 -0.0721191 0)
(4.98084 -0.0241785 0)
(4.97489 -0.00122223 0)
(4.9567 0.0190579 0)
(4.95621 0.0373283 0)
(4.95354 0.0322586 0)
(4.94982 0.0223805 0)
(4.94847 0.00663435 0)
(4.94873 0.00868927 0)
(4.95009 0.0172204 0)
(4.95205 0.0251246 0)
(4.95222 0.0261984 0)
(4.95127 0.0215392 0)
(4.95038 0.0155664 0)
(4.95075 0.017385 0)
(4.95137 0.0219235 0)
(4.95197 0.0246387 0)
(4.95124 0.0222388 0)
(5.08337 -0.960721 0)
(5.08328 -0.960733 0)
(5.08323 -0.960763 0)
(5.08325 -0.960766 0)
(5.08318 -0.960908 0)
(5.08312 -0.961059 0)
(5.08306 -0.961157 0)
(5.08312 -0.961084 0)
(5.08324 -0.960418 0)
(5.08325 -0.959797 0)
(5.08325 -0.959643 0)
(5.08312 -0.959671 0)
(5.08259 -0.960143 0)
(5.08246 -0.960227 0)
(5.08246 -0.960201 0)
(5.08243 -0.960165 0)
(5.0824 -0.960197 0)
(5.08241 -0.960394 0)
(5.08241 -0.960563 0)
(5.08243 -0.960567 0)
(5.08236 -0.960702 0)
(5.08221 -0.960946 0)
(5.0821 -0.961039 0)
(5.08208 -0.961353 0)
(5.08217 -0.961578 0)
(5.08226 -0.96163 0)
(5.08238 -0.961793 0)
(5.08229 -0.96213 0)
(5.08225 -0.962237 0)
(5.08224 -0.962222 0)
(5.08249 -0.962011 0)
(5.08258 -0.961966 0)
(5.08261 -0.961872 0)
(5.08263 -0.961609 0)
(5.08273 -0.961321 0)
(5.08279 -0.960837 0)
(5.08281 -0.960696 0)
(5.08274 -0.96062 0)
(5.08312 -0.959836 0)
(5.08332 -0.959317 0)
(5.08335 -0.959243 0)
(5.08305 -0.959564 0)
(5.08288 -0.959977 0)
(5.08263 -0.960281 0)
(5.08244 -0.960761 0)
(5.08227 -0.96136 0)
(5.08217 -0.961766 0)
(5.08282 -0.960619 0)
(5.08309 -0.959538 0)
(5.08301 -0.959559 0)
(5.08267 -0.959402 0)
(5.08222 -0.958753 0)
(5.08193 -0.958424 0)
(5.08154 -0.959289 0)
(5.08161 -0.961638 0)
(5.08178 -0.962229 0)
(5.08334 -0.961374 0)
(5.08389 -0.96053 0)
(5.0841 -0.960388 0)
(5.08227 -0.960194 0)
(5.08163 -0.960296 0)
(5.08119 -0.961174 0)
(5.08148 -0.961851 0)
(5.082 -0.962067 0)
(5.08293 -0.96209 0)
(5.08321 -0.962022 0)
(5.08282 -0.962046 0)
(5.08273 -0.962102 0)
(5.08269 -0.962013 0)
(5.08282 -0.961615 0)
(5.08303 -0.961007 0)
(5.0832 -0.960609 0)
(5.08354 -0.960667 0)
(5.08366 -0.960846 0)
(5.08318 -0.961526 0)
(5.08236 -0.962512 0)
(5.08187 -0.962681 0)
(5.08146 -0.962856 0)
(5.07971 -0.953936 0)
(5.06396 -0.8611 0)
(5.06784 -0.675335 0)
(5.02751 -0.338221 0)
(5.04117 -0.219682 0)
(4.99943 0.00803331 0)
(4.99514 0.0633239 0)
(4.9811 0.124592 0)
(4.95619 0.0618049 0)
(4.95101 0.0248313 0)
(4.95043 0.0142705 0)
(4.9507 0.011978 0)
(4.95257 0.0190739 0)
(4.95546 0.0364468 0)
(4.95497 0.0342017 0)
(4.95368 0.0257974 0)
(4.9514 0.0177666 0)
(4.95121 0.0171016 0)
(4.95227 0.0223986 0)
(4.95317 0.0287107 0)
(4.95278 0.0260467 0)
(4.95154 0.0207568 0)
(5.08275 -0.960852 0)
(5.08273 -0.960853 0)
(5.08274 -0.960876 0)
(5.08277 -0.960895 0)
(5.08275 -0.9611 0)
(5.08264 -0.961362 0)
(5.08255 -0.961502 0)
(5.0828 -0.960942 0)
(5.08276 -0.960214 0)
(5.08282 -0.95994 0)
(5.08291 -0.959842 0)
(5.08284 -0.959947 0)
(5.0825 -0.960086 0)
(5.08247 -0.960081 0)
(5.08247 -0.959981 0)
(5.08245 -0.959904 0)
(5.08247 -0.959961 0)
(5.08257 -0.960096 0)
(5.08264 -0.960275 0)
(5.08254 -0.96037 0)
(5.08244 -0.960438 0)
(5.08233 -0.960511 0)
(5.08219 -0.960548 0)
(5.08202 -0.960632 0)
(5.08202 -0.961023 0)
(5.08209 -0.961328 0)
(5.08212 -0.96135 0)
(5.08214 -0.961446 0)
(5.082 -0.961692 0)
(5.08187 -0.961835 0)
(5.08179 -0.961773 0)
(5.08193 -0.961539 0)
(5.08199 -0.96147 0)
(5.08204 -0.961386 0)
(5.08216 -0.961164 0)
(5.0822 -0.961099 0)
(5.08248 -0.960717 0)
(5.08253 -0.960054 0)
(5.08274 -0.959524 0)
(5.083 -0.959098 0)
(5.08316 -0.958979 0)
(5.08278 -0.959583 0)
(5.08244 -0.960094 0)
(5.08227 -0.960755 0)
(5.08216 -0.961643 0)
(5.082 -0.962413 0)
(5.08241 -0.962728 0)
(5.08395 -0.960748 0)
(5.08421 -0.959913 0)
(5.08394 -0.960018 0)
(5.08324 -0.959991 0)
(5.08231 -0.959042 0)
(5.08173 -0.95855 0)
(5.08106 -0.95944 0)
(5.0808 -0.962431 0)
(5.08118 -0.963142 0)
(5.08354 -0.962463 0)
(5.08422 -0.961745 0)
(5.08449 -0.961299 0)
(5.08249 -0.960515 0)
(5.08172 -0.960429 0)
(5.08099 -0.961377 0)
(5.08155 -0.962769 0)
(5.0821 -0.963259 0)
(5.08299 -0.963291 0)
(5.08357 -0.962663 0)
(5.08331 -0.96238 0)
(5.08326 -0.96259 0)
(5.08328 -0.962806 0)
(5.08344 -0.962249 0)
(5.08345 -0.961173 0)
(5.08328 -0.960562 0)
(5.08322 -0.960549 0)
(5.08294 -0.960828 0)
(5.08266 -0.961532 0)
(5.08095 -0.963157 0)
(5.07977 -0.964128 0)
(5.07938 -0.963984 0)
(5.07908 -0.963387 0)
(5.07821 -0.963164 0)
(5.0777 -0.963223 0)
(5.0731 -0.934705 0)
(5.06375 -0.826167 0)
(5.04554 -0.615764 0)
(5.03267 -0.401815 0)
(5.02199 -0.211115 0)
(5.04317 -0.1339 0)
(4.99454 -0.0332651 0)
(4.97652 -0.0145675 0)
(4.97347 0.00675336 0)
(4.95788 0.0303277 0)
(4.95745 0.0331363 0)
(4.95191 0.0256708 0)
(4.95166 0.00536212 0)
(4.94944 0.0106985 0)
(4.95125 0.0182951 0)
(4.95322 0.0261623 0)
(4.95317 0.0265828 0)
(4.95179 0.0203616 0)
(4.9508 0.0169904 0)
(5.08254 -0.961895 0)
(5.08251 -0.961818 0)
(5.08248 -0.961753 0)
(5.08251 -0.961747 0)
(5.08248 -0.961863 0)
(5.08236 -0.962096 0)
(5.08217 -0.962148 0)
(5.08265 -0.961303 0)
(5.08275 -0.960788 0)
(5.08273 -0.960744 0)
(5.08264 -0.960631 0)
(5.08263 -0.960588 0)
(5.08263 -0.960602 0)
(5.08282 -0.960392 0)
(5.08307 -0.959998 0)
(5.08313 -0.959956 0)
(5.08318 -0.959874 0)
(5.08321 -0.959672 0)
(5.08312 -0.959773 0)
(5.08291 -0.959915 0)
(5.08265 -0.959851 0)
(5.08238 -0.959816 0)
(5.08222 -0.960032 0)
(5.08214 -0.960237 0)
(5.08206 -0.960303 0)
(5.082 -0.960451 0)
(5.08212 -0.960814 0)
(5.08217 -0.960933 0)
(5.08218 -0.96093 0)
(5.08222 -0.961088 0)
(5.08223 -0.961323 0)
(5.08231 -0.961347 0)
(5.08245 -0.961434 0)
(5.08258 -0.961507 0)
(5.08295 -0.960902 0)
(5.0831 -0.960413 0)
(5.0831 -0.960361 0)
(5.08291 -0.960392 0)
(5.08259 -0.959962 0)
(5.08234 -0.959307 0)
(5.0819 -0.959469 0)