/*--------------------------------*- C++ -*----------------------------------*\
  =========                 |
  \\      /  F ield         | OpenFOAM: The Open Source CFD Toolbox
   \\    /   O peration     | Website:  https://openfoam.org
    \\  /    A nd           | Version:  7
     \\/     M anipulation  |
\*---------------------------------------------------------------------------*/
FoamFile
{
    version     2.0;
    format      ascii;
    class       volScalarField;
    location    "8";
    object      rho;
}
// * * * * * * * * * * * * * * * * * * * * * * * * * * * * * * * * * * * * * //

dimensions      [1 -3 0 0 0 0 0];

internalField   nonuniform List<scalar> 
90000
(
0.903514
0.918948
0.936218
0.953959
0.971738
0.989535
1.00721
1.02488
1.04235
1.05985
1.07704
1.0943
1.11115
1.12812
1.1445
1.16109
1.17687
1.19293
1.208
1.2234
1.23759
1.25216
1.26515
1.27863
1.29011
1.30225
1.31189
1.32226
1.33001
1.33702
1.34383
1.34798
1.34989
1.35321
1.35378
1.3531
1.35048
1.34598
1.34254
1.33554
1.32983
1.32995
1.33139
1.33428
1.33776
1.34182
1.34785
1.35219
1.35418
1.3549
1.35509
1.354
1.35203
1.34816
1.34579
1.34404
1.34231
1.34258
1.34391
1.34637
1.34951
1.35319
1.35545
1.35468
1.35227
1.35012
1.34767
1.3477
1.34881
1.35134
1.35425
1.35436
1.35344
1.35201
1.35066
1.35099
1.35232
1.35436
1.35623
1.35606
1.35551
1.35564
1.3561
1.35678
1.3569
1.35655
1.35642
1.35666
1.35701
1.35743
1.3577
1.35795
1.35812
1.35857
1.3592
1.35969
1.35986
1.35983
1.35952
1.35918
0.892478
0.89309
0.894345
0.896307
0.899068
0.902619
0.907079
0.91237
0.918665
0.925837
0.934112
0.94325
0.953606
0.96472
0.977146
0.990235
1.00471
1.01968
1.03604
1.05266
1.07053
1.08847
1.10732
1.12602
1.1452
1.164
1.18286
1.20107
1.21866
1.23597
1.25089
1.26714
1.27909
1.29176
1.30107
1.30994
1.31576
1.31981
1.32448
1.3359
1.34373
1.3506
1.35441
1.35817
1.35954
1.35926
1.35883
1.35735
1.35425
1.35311
1.35052
1.3484
1.34827
1.34789
1.34716
1.34771
1.34972
1.3525
1.35518
1.35628
1.35548
1.35473
1.35337
1.35247
1.35193
1.35085
1.35196
1.35373
1.35553
1.35547
1.35489
1.35408
1.35326
1.35229
1.35326
1.35488
1.35629
1.35645
1.35674
1.35638
1.35676
1.35742
1.358
1.35784
1.35765
1.35784
1.35788
1.35803
1.35818
1.35848
1.35881
1.35879
1.35909
1.35969
1.36011
1.36014
1.36049
1.3605
1.36021
1.35988
0.893984
0.894026
0.894077
0.89414
0.894215
0.894303
0.894414
0.894557
0.894747
0.894999
0.89535
0.895822
0.896457
0.897449
0.898819
0.900558
0.902834
0.905676
0.909354
0.913822
0.919515
0.926291
0.934863
0.944722
0.957017
0.970712
0.987512
1.00577
1.02747
1.05047
1.07677
1.10399
1.13383
1.16399
1.19458
1.22576
1.2544
1.28512
1.3092
1.32843
1.33795
1.3455
1.34924
1.35437
1.3554
1.35559
1.35538
1.35517
1.35381
1.34922
1.34656
1.34797
1.35123
1.35565
1.36126
1.36573
1.36879
1.3684
1.36615
1.3621
1.357
1.35374
1.35194
1.35203
1.35453
1.3593
1.36421
1.36394
1.36252
1.35908
1.35617
1.35438
1.3558
1.35926
1.36182
1.3616
1.36003
1.35868
1.35897
1.36055
1.36204
1.36193
1.3613
1.36065
1.36095
1.36153
1.36149
1.36124
1.36117
1.3614
1.36176
1.36195
1.36216
1.36233
1.36266
1.36307
1.36308
1.36288
1.36252
1.36215
0.896742
0.896786
0.896827
0.896871
0.896919
0.896972
0.897035
0.897103
0.897175
0.897258
0.897361
0.897477
0.897658
0.897723
0.897786
0.897852
0.897927
0.898022
0.898165
0.898354
0.898582
0.898863
0.899257
0.899808
0.900622
0.901922
0.903833
0.906431
0.910194
0.915105
0.922148
0.931002
0.94349
0.958444
0.978705
1.00176
1.03091
1.06282
1.10001
1.13774
1.17535
1.21206
1.24144
1.27229
1.29119
1.31098
1.32055
1.33251
1.33779
1.34264
1.34912
1.36133
1.3686
1.37539
1.37894
1.38019
1.37955
1.37778
1.37264
1.36725
1.36256
1.35854
1.35957
1.3637
1.36848
1.37288
1.37254
1.37034
1.36666
1.36285
1.36156
1.36371
1.36653
1.36894
1.36945
1.36797
1.36514
1.36485
1.36575
1.36724
1.36781
1.36729
1.36619
1.36625
1.36656
1.36706
1.36697
1.36667
1.36639
1.36634
1.36657
1.36665
1.36662
1.36681
1.36712
1.36708
1.36685
1.36657
1.36639
1.36601
0.899434
0.89947
0.899511
0.899555
0.899592
0.899625
0.899661
0.8997
0.899741
0.899788
0.899845
0.899889
0.899909
0.899927
0.899967
0.9
0.900014
0.90003
0.900069
0.900146
0.900242
0.900336
0.900447
0.900593
0.900883
0.900945
0.900976
0.901019
0.901113
0.901263
0.901474
0.901778
0.90229
0.903234
0.904931
0.907533
0.911982
0.918289
0.928866
0.942854
0.964825
0.990922
1.02713
1.06612
1.1126
1.1589
1.20421
1.24898
1.28452
1.32198
1.34277
1.35656
1.36327
1.37034
1.37406
1.3759
1.37389
1.36743
1.35952
1.36146
1.3658
1.3721
1.37706
1.3797
1.37816
1.37678
1.37294
1.37041
1.36844
1.36964
1.3728
1.37474
1.37431
1.37247
1.37103
1.37072
1.37124
1.37261
1.37256
1.37196
1.37139
1.37114
1.3712
1.37175
1.37174
1.37167
1.37145
1.37155
1.37151
1.37129
1.37113
1.37125
1.37142
1.37149
1.3715
1.37131
1.37104
1.37076
1.37058
1.37018
0.901279
0.901301
0.901324
0.901337
0.901344
0.901353
0.901367
0.901387
0.901402
0.901417
0.90144
0.901463
0.901487
0.901524
0.90158
0.901643
0.901676
0.901682
0.901674
0.901673
0.901693
0.901681
0.901665
0.901664
0.901684
0.901724
0.901749
0.901761
0.901779
0.901823
0.901892
0.901962
0.902094
0.902054
0.902048
0.902078
0.902105
0.90216
0.902341
0.902787
0.903895
0.906044
0.910634
0.917997
0.931732
0.950393
0.980688
1.01611
1.06412
1.11423
1.16696
1.21599
1.253
1.28756
1.30691
1.32675
1.33667
1.34433
1.35687
1.37195
1.38244
1.38895
1.38868
1.38743
1.38206
1.37238
1.3668
1.36737
1.3706
1.37635
1.38251
1.38183
1.37962
1.37589
1.37171
1.37214
1.37432
1.37669
1.3771
1.37556
1.37355
1.37358
1.3744
1.37525
1.37581
1.37552
1.37492
1.37462
1.3747
1.37482
1.37477
1.37477
1.37498
1.375
1.37485
1.37455
1.37419
1.37404
1.37404
1.37372
0.902113
0.902128
0.902137
0.902144
0.902151
0.902157
0.902162
0.902168
0.902169
0.902175
0.902186
0.902192
0.902211
0.902252
0.902249
0.902249
0.902284
0.902302
0.902294
0.90229
0.902311
0.902352
0.902375
0.902385
0.902388
0.902392
0.902391
0.902379
0.902368
0.902372
0.902403
0.902386
0.902315
0.902294
0.902297
0.902298
0.90226
0.902187
0.902146
0.902084
0.901983
0.901882
0.901889
0.901985
0.902309
0.903138
0.905324
0.909553
0.918716
0.932979
0.959323
0.993345
1.04314
1.09667
1.15692
1.21527
1.26592
1.31681
1.3474
1.36433
1.37427
1.38188
1.38162
1.37545
1.3601
1.36124
1.36546
1.37305
1.37947
1.38256
1.38244
1.38038
1.37506
1.37307
1.37328
1.37573
1.37826
1.3777
1.37668
1.37556
1.37488
1.37537
1.3763
1.37629
1.37606
1.37621
1.3768
1.37682
1.37663
1.37629
1.37632
1.37663
1.37677
1.37667
1.37637
1.37608
1.37586
1.37575
1.37585
1.37576
0.902325
0.902319
0.902315
0.902311
0.902305
0.902298
0.902293
0.902293
0.902293
0.902296
0.902295
0.902286
0.902285
0.902291
0.902281
0.902269
0.902265
0.902271
0.902277
0.902262
0.902252
0.902259
0.902255
0.902233
0.902223
0.902227
0.902215
0.902198
0.902189
0.902198
0.902209
0.902171
0.902116
0.902103
0.902106
0.902094
0.902046
0.902011
0.90199
0.901964
0.901898
0.9018
0.901706
0.901595
0.901455
0.901393
0.901397
0.901446
0.901637
0.902156
0.903554
0.90669
0.914201
0.92773
0.953704
0.990145
1.04298
1.10426
1.16749
1.22752
1.26815
1.30428
1.32449
1.33804
1.34941
1.37093
1.38164
1.38719
1.38681
1.38482
1.37642
1.36932
1.36975
1.37248
1.37751
1.3815
1.381
1.37836
1.37406
1.37424
1.37531
1.37726
1.3775
1.3769
1.37607
1.37615
1.37678
1.37755
1.3775
1.37724
1.37703
1.37728
1.37753
1.3773
1.3769
1.37652
1.37652
1.37655
1.3766
1.37661
0.902466
0.902451
0.90244
0.90243
0.90241
0.902381
0.902371
0.902367
0.902368
0.902366
0.902348
0.902337
0.902333
0.902322
0.902296
0.902282
0.902277
0.902264
0.902223
0.902181
0.902175
0.902173
0.902157
0.902113
0.902091
0.902076
0.902053
0.902042
0.90204
0.902042
0.902026
0.901968
0.901943
0.90194
0.901929
0.901886
0.901873
0.901876
0.901854
0.90176
0.901617
0.901531
0.90146
0.901372
0.90129
0.901245
0.901202
0.901176
0.901166
0.901152
0.901151
0.901177
0.901328
0.901824
0.90333
0.90679
0.915448
0.931269
0.963362
1.00911
1.07299
1.14643
1.21345
1.28516
1.33468
1.36449
1.37375
1.38136
1.37918
1.36818
1.35912
1.36293
1.37249
1.38138
1.38212
1.38132
1.37766
1.3721
1.37219
1.3741
1.37708
1.37758
1.37704
1.37567
1.37571
1.37618
1.37686
1.37743
1.37732
1.37737
1.37765
1.37772
1.37754
1.37724
1.37687
1.37665
1.37665
1.3767
1.37694
1.37698
0.902485
0.902482
0.902479
0.902475
0.902468
0.902457
0.902446
0.902433
0.902412
0.902399
0.902395
0.902392
0.90239
0.902374
0.902329
0.902311
0.902303
0.902286
0.902228
0.902181
0.902174
0.902166
0.902135
0.902098
0.902075
0.902043
0.901999
0.901979
0.90196
0.901935
0.901925
0.901925
0.901927
0.901923
0.901909
0.901875
0.901789
0.901672
0.901578
0.901482
0.901428
0.9014
0.901353
0.90129
0.901246
0.901213
0.901174
0.901135
0.901119
0.901109
0.901111
0.901117
0.901154
0.901291
0.901539
0.901778
0.902053
0.902653
0.904608
0.909408
0.923163
0.947191
0.994803
1.05629
1.13354
1.21086
1.26069
1.31203
1.32667
1.34019
1.35819
1.37673
1.38615
1.38595
1.38264
1.37357
1.36959
1.37027
1.37373
1.37904
1.37901
1.37744
1.37465
1.37467
1.3756
1.37716
1.37727
1.37702
1.37692
1.37738
1.37817
1.37798
1.37751
1.37681
1.37665
1.37661
1.37661
1.3767
1.37695
1.37714
0.902443
0.902442
0.902438
0.902432
0.90242
0.902405
0.902389
0.902361
0.902341
0.902325
0.902305
0.902261
0.902187
0.902116
0.902066
0.902042
0.902021
0.901989
0.901905
0.901824
0.901788
0.901756
0.901711
0.901668
0.901622
0.901572
0.901518
0.901456
0.901422
0.901415
0.901415
0.901419
0.901429
0.901447
0.901453
0.901442
0.901425
0.901401
0.90139
0.901404
0.901404
0.90138
0.901375
0.90139
0.901427
0.901439
0.90143
0.901385
0.901319
0.90126
0.901241
0.901246
0.901303
0.901492
0.901778
0.90198
0.902151
0.902177
0.902163
0.902212
0.902526
0.903759
0.908356
0.918639
0.946687
0.990261
1.06476
1.14704
1.22874
1.31064
1.35031
1.36954
1.37949
1.3781
1.36113
1.361
1.36546
1.3746
1.38128
1.38113
1.37867
1.37282
1.37288
1.37453
1.37691
1.37727
1.37688
1.37613
1.3765
1.37781
1.37834
1.37797
1.37692
1.37655
1.37661
1.37657
1.37653
1.37664
1.37687
1.37709
0.90225
0.902239
0.902222
0.902205
0.902176
0.902139
0.9021
0.902034
0.902001
0.901994
0.901969
0.901923
0.901863
0.901774
0.901745
0.901749
0.901746
0.901721
0.901671
0.90161
0.901536
0.901492
0.901467
0.901426
0.901349
0.901282
0.901233
0.901174
0.901124
0.901109
0.901111
0.901123
0.901152
0.901192
0.901212
0.901214
0.901221
0.90124
0.901262
0.901285
0.901332
0.901401
0.901461
0.901541
0.901659
0.901736
0.901745
0.901734
0.901688
0.901607
0.901525
0.901518
0.901588
0.901795
0.902051
0.902199
0.90228
0.902325
0.902372
0.902458
0.902624
0.902621
0.902639
0.902846
0.904001
0.907953
0.921466
0.948898
1.00701
1.08461
1.17243
1.2483
1.2952
1.32798
1.33858
1.36606
1.37718
1.38411
1.38367
1.37718
1.37073
1.37092
1.37378
1.37858
1.37845
1.37725
1.37539
1.37567
1.37748
1.37843
1.3782
1.37698
1.37657
1.37665
1.37673
1.37659
1.37651
1.37667
1.3768
1.37701
0.901914
0.901893
0.901872
0.901845
0.901802
0.901769
0.901741
0.901719
0.901694
0.901657
0.901627
0.901597
0.901558
0.901519
0.901509
0.901508
0.901497
0.901472
0.90141
0.901324
0.901299
0.901288
0.901267
0.901191
0.901107
0.901066
0.901037
0.90098
0.900919
0.9009
0.900903
0.900922
0.900963
0.90099
0.900994
0.900998
0.901016
0.901036
0.901053
0.901094
0.901184
0.901318
0.901477
0.901648
0.901824
0.90197
0.902058
0.902074
0.902057
0.901995
0.901885
0.901816
0.901876
0.902073
0.902233
0.902303
0.902351
0.902397
0.902451
0.902596
0.902793
0.902828
0.902824
0.902694
0.902605
0.90264
0.903007
0.904586
0.910767
0.926975
0.968808
1.03654
1.1267
1.22556
1.30606
1.35783
1.36987
1.37977
1.37366
1.36068
1.36404
1.37327
1.38012
1.38025
1.37851
1.37409
1.37446
1.377
1.37897
1.37855
1.37664
1.37606
1.37653
1.37705
1.37688
1.37651
1.37658
1.37686
1.37683
1.37694
0.901577
0.901576
0.901571
0.901567
0.901566
0.90156
0.901556
0.901554
0.90154
0.901494
0.901485
0.901491
0.901485
0.901459
0.901457
0.901477
0.901485
0.90148
0.901432
0.901357
0.901343
0.901335
0.90131
0.901224
0.901137
0.9011
0.901075
0.901018
0.900948
0.900923
0.900923
0.900937
0.900973
0.901004
0.901006
0.901012
0.901036
0.901064
0.90109
0.901139
0.901241
0.901386
0.901557
0.901747
0.90193
0.902091
0.902235
0.902343
0.902348
0.90232
0.902272
0.902214
0.902242
0.902362
0.902389
0.902364
0.902362
0.902401
0.902469
0.902623
0.902865
0.90292
0.902913
0.902787
0.902589
0.902566
0.902614
0.90273
0.902938
0.903532
0.906309
0.915443
0.944699
0.998634
1.09031
1.1896
1.25594
1.32077
1.33216
1.3589
1.37162
1.38327
1.3829
1.37779
1.37221
1.37295
1.37698
1.38058
1.37996
1.37643
1.37539
1.37612
1.37746
1.37737
1.37671
1.37659
1.37694
1.37711
1.37679
1.37696
0.901512
0.901514
0.901516
0.901524
0.901529
0.901529
0.901536
0.901563
0.901573
0.901552
0.901524
0.901528
0.901534
0.901527
0.901531
0.901567
0.901615
0.901623
0.901621
0.901637
0.901694
0.901725
0.901716
0.90166
0.901631
0.901628
0.901617
0.901561
0.90148
0.901417
0.901376
0.901365
0.901365
0.901355
0.901288
0.901217
0.901221
0.901266
0.901295
0.901331
0.901408
0.901531
0.901692
0.901885
0.902076
0.90223
0.902361
0.902479
0.902517
0.902523
0.902556
0.9026
0.90265
0.902671
0.902634
0.90244
0.902347
0.902329
0.902337
0.902477
0.902803
0.902912
0.902909
0.902819
0.902615
0.902528
0.902546
0.90262
0.902723
0.902811
0.90291
0.903169
0.904629
0.909893
0.931857
0.975625
1.064
1.16791
1.26107
1.34662
1.36508
1.3796
1.37522
1.36151
1.36612
1.3763
1.38242
1.38136
1.37663
1.37363
1.37507
1.37777
1.37785
1.37708
1.3765
1.37697
1.37744
1.37723
1.3767
1.37704
0.90161
0.90161
0.901612
0.901617
0.901624
0.901631
0.901646
0.901704
0.901767
0.901764
0.90176
0.901762
0.90176
0.901776
0.901856
0.901999
0.90206
0.902059
0.902052
0.902067
0.902129
0.902191
0.902206
0.902216
0.902244
0.902306
0.902349
0.902344
0.902344
0.902354
0.902354
0.902356
0.902356
0.902334
0.902255
0.902156
0.902065
0.901965
0.901863
0.901801
0.901797
0.90183
0.901926
0.902094
0.902269
0.902398
0.902484
0.902554
0.902613
0.902646
0.902734
0.902909
0.902991
0.903016
0.902975
0.90266
0.902316
0.902263
0.902262
0.902336
0.902582
0.902789
0.902826
0.902793
0.902643
0.902486
0.902475
0.902541
0.902664
0.902718
0.902763
0.902802
0.902829
0.902917
0.903682
0.907239
0.923307
0.960731
1.04502
1.14802
1.23578
1.31474
1.33009
1.35379
1.37616
1.3846
1.38346
1.37361
1.37151
1.3737
1.37939
1.3793
1.37764
1.3761
1.37668
1.37799
1.37785
1.37694
1.37674
1.37772
0.901698
0.9018
0.901862
0.901865
0.901852
0.901849
0.901858
0.901899
0.901955
0.901966
0.90194
0.90193
0.901957
0.902066
0.902182
0.902247
0.902288
0.902296
0.902282
0.902274
0.902301
0.902359
0.90241
0.902463
0.902545
0.902651
0.902749
0.902823
0.90288
0.90294
0.903016
0.903068
0.903081
0.903063
0.903009
0.902938
0.90284
0.902686
0.90251
0.902367
0.902258
0.902215
0.90226
0.902433
0.902564
0.902632
0.90267
0.902701
0.902751
0.902811
0.902928
0.903158
0.903278
0.903304
0.903286
0.903063
0.902584
0.902327
0.902309
0.902358
0.902485
0.902653
0.902784
0.902786
0.902713
0.902579
0.902523
0.902535
0.902625
0.902749
0.902823
0.902881
0.902925
0.90296
0.902944
0.902994
0.903497
0.906039
0.919293
0.953087
1.03622
1.14294
1.25102
1.34057
1.36749
1.37945
1.36981
1.35855
1.36763
1.37945
1.38149
1.37944
1.3746
1.37541
1.37854
1.3785
1.37746
1.37652
1.37706
1.37867
0.901985
0.901994
0.902068
0.902142
0.902144
0.902126
0.902122
0.902119
0.902065
0.902031
0.902035
0.902074
0.902213
0.9023
0.90229
0.902262
0.902265
0.902283
0.902274
0.902276
0.902335
0.902396
0.902435
0.902488
0.902591
0.90272
0.902837
0.902958
0.903064
0.903157
0.903294
0.903431
0.903448
0.903391
0.903363
0.903393
0.903383
0.903277
0.903118
0.902979
0.902824
0.902711
0.902779
0.90296
0.902981
0.902882
0.902781
0.902749
0.902768
0.902808
0.902898
0.903167
0.903431
0.903458
0.903454
0.903358
0.90303
0.902617
0.90245
0.902445
0.902502
0.902634
0.902806
0.902924
0.902914
0.902846
0.90283
0.902861
0.902891
0.902878
0.902871
0.90289
0.902933
0.90295
0.902955
0.902939
0.902944
0.903005
0.903377
0.905597
0.916955
0.950912
1.03412
1.14172
1.23908
1.30933
1.33368
1.35835
1.38543
1.38513
1.38014
1.37205
1.3733
1.37859
1.38036
1.37864
1.37623
1.37651
1.37853
1.37953
0.902795
0.902764
0.902651
0.902574
0.902551
0.902495
0.902364
0.90233
0.902327
0.902305
0.90229
0.902295
0.902356
0.902403
0.902397
0.902328
0.9023
0.902302
0.902285
0.90229
0.902331
0.902328
0.902327
0.902357
0.902465
0.902636
0.902823
0.903012
0.903161
0.903285
0.903435
0.903592
0.903664
0.903645
0.903614
0.903649
0.903692
0.903647
0.903513
0.90341
0.90332
0.903228
0.903266
0.903327
0.903321
0.903204
0.902906
0.902688
0.902638
0.902641
0.9027
0.902882
0.903208
0.903452
0.903494
0.903479
0.90332
0.902971
0.902696
0.902598
0.902589
0.902686
0.903
0.903235
0.903248
0.903183
0.903129
0.903135
0.903128
0.903062
0.902959
0.902935
0.902937
0.902951
0.902976
0.903021
0.903084
0.903165
0.903402
0.903513
0.903853
0.905821
0.916892
0.95339
1.03766
1.14912
1.27484
1.34699
1.37857
1.37797
1.35978
1.36508
1.37773
1.38292
1.3803
1.37483
1.37518
1.37813
1.38011
1.37951
0.903301
0.903163
0.903007
0.902984
0.903028
0.903047
0.902972
0.902764
0.902691
0.902707
0.902714
0.902685
0.902592
0.902513
0.902493
0.902464
0.902404
0.902367
0.902317
0.902286
0.90231
0.902332
0.902319
0.902329
0.902415
0.902585
0.902774
0.902973
0.903161
0.9033
0.903449
0.903615
0.903711
0.903709
0.903661
0.903638
0.903674
0.903676
0.903544
0.903472
0.903483
0.903496
0.903486
0.903467
0.903439
0.90334
0.903109
0.902781
0.902551
0.902491
0.902493
0.902541
0.902739
0.903078
0.90335
0.903451
0.903451
0.903307
0.903043
0.902908
0.902875
0.902954
0.903333
0.903544
0.903528
0.903395
0.903261
0.903263
0.903268
0.903234
0.903097
0.903036
0.903036
0.903063
0.903152
0.903306
0.903434
0.903473
0.90354
0.903568
0.903563
0.903401
0.903512
0.905685
0.916875
0.959583
1.04842
1.16657
1.26598
1.31943
1.33902
1.37913
1.3858
1.38236
1.37177
1.37296
1.37726
1.38155
1.38108
1.37846
0.903804
0.903815
0.903901
0.903954
0.903955
0.903812
0.903572
0.903559
0.903562
0.903518
0.903399
0.90327
0.90317
0.903081
0.902981
0.902913
0.902922
0.902937
0.902904
0.902731
0.902565
0.902531
0.902527
0.90256
0.902689
0.902881
0.903049
0.90313
0.90314
0.903161
0.903243
0.90336
0.903454
0.903541
0.903589
0.903616
0.903671
0.90363
0.903481
0.903455
0.903499
0.903557
0.903573
0.903536
0.90343
0.903304
0.903154
0.902951
0.902572
0.902306
0.902277
0.902285
0.902405
0.902762
0.903217
0.903553
0.903713
0.903697
0.903445
0.90316
0.90313
0.903226
0.90357
0.903692
0.903649
0.903389
0.903104
0.903096
0.903212
0.903343
0.903336
0.903287
0.90328
0.903314
0.903443
0.903648
0.903765
0.903756
0.903702
0.903614
0.903381
0.903067
0.902779
0.902769
0.903079
0.905987
0.920598
0.97161
1.06773
1.2035
1.31051
1.37046
1.37731
1.3605
1.36207
1.37238
1.38271
1.38201
1.37863
1.37724
0.904631
0.904634
0.904686
0.904733
0.904728
0.904663
0.904505
0.904417
0.904401
0.904346
0.904236
0.904084
0.903792
0.903621
0.903616
0.903603
0.903563
0.903506
0.903413
0.903221
0.902956
0.902841
0.902816
0.902838
0.902968
0.903165
0.903192
0.903188
0.903173
0.903104
0.903026
0.903034
0.903121
0.903272
0.903422
0.903577
0.90361
0.90343
0.903009
0.902869
0.902889
0.902944
0.903009
0.903177
0.903286
0.903306
0.903308
0.903266
0.903005
0.902659
0.902612
0.902614
0.902697
0.9029
0.903244
0.903718
0.903974
0.903999
0.903739
0.903255
0.903169
0.903251
0.903594
0.90371
0.903635
0.903249
0.902876
0.902874
0.903043
0.903384
0.903625
0.903643
0.903624
0.903613
0.903665
0.90379
0.903883
0.903861
0.903666
0.903281
0.902932
0.90277
0.902713
0.902716
0.902804
0.903067
0.90388
0.907797
0.928115
0.986401
1.10084
1.22841
1.29129
1.33216
1.36184
1.38643
1.38552
1.37608
1.37525
1.37742
0.904892
0.904964
0.904995
0.904982
0.904846
0.904644
0.904598
0.904615
0.90466
0.904664
0.904587
0.904416
0.904095
0.903841
0.903802
0.903741
0.903701
0.903722
0.903691
0.903479
0.903096
0.902908
0.902857
0.902853
0.902881
0.903004
0.903093
0.903105
0.903063
0.902999
0.902956
0.902977
0.90309
0.90325
0.903335
0.903401
0.903378
0.903092
0.902417
0.902222
0.902217
0.902226
0.902331
0.902764
0.903603
0.903874
0.903888
0.903881
0.903833
0.903589
0.903434
0.903409
0.903478
0.903554
0.90358
0.903867
0.904113
0.904135
0.903855
0.903272
0.903128
0.90322
0.90362
0.903772
0.903668
0.903232
0.902841
0.902851
0.903095
0.903587
0.903947
0.904
0.903971
0.903857
0.903762
0.903787
0.903771
0.903643
0.90329
0.902804
0.902661
0.902703
0.902784
0.90296
0.903233
0.903655
0.903844
0.903984
0.904787
0.90983
0.941418
1.01202
1.13915
1.2898
1.34879
1.38012
1.37102
1.3618
1.3707
1.38013
0.903161
0.903288
0.903415
0.90344
0.903412
0.903394
0.903461
0.903606
0.903609
0.903609
0.903681
0.903669
0.903512
0.903302
0.903069
0.902919
0.902892
0.902948
0.90295
0.902776
0.902347
0.902018
0.901957
0.901972
0.90209
0.902174
0.902192
0.902283
0.902721
0.903236
0.903371
0.90344
0.903521
0.9036
0.903626
0.903595
0.903408
0.90285
0.902048
0.901876
0.901877
0.901939
0.902133
0.902834
0.904048
0.904475
0.904492
0.904401
0.904253
0.903983
0.9037
0.903682
0.903711
0.903694
0.903599
0.90367
0.903809
0.903955
0.903826
0.903137
0.90277
0.902866
0.903488
0.904029
0.904002
0.903641
0.903235
0.903265
0.903562
0.903952
0.904153
0.90418
0.904131
0.903974
0.903687
0.903416
0.903238
0.903057
0.902815
0.902631
0.902639
0.902778
0.903165
0.903482
0.90378
0.904006
0.904
0.90386
0.903426
0.903472
0.905056
0.913996
0.95957
1.05445
1.17895
1.29232
1.32196
1.36193
1.38109
1.38075
0.900377
0.900494
0.900508
0.900446
0.900382
0.900487
0.901105
0.901695
0.901833
0.901806
0.901598
0.901391
0.901362
0.90153
0.901772
0.901629
0.901334
0.901152
0.900954
0.900611
0.900405
0.900394
0.90044
0.900546
0.900564
0.900609
0.900807
0.901245
0.901818
0.90254
0.903083
0.903374
0.903576
0.903788
0.904121
0.904467
0.904481
0.904217
0.903483
0.902584
0.902216
0.902118
0.902167
0.902757
0.903918
0.904157
0.904138
0.903868
0.9036
0.903596
0.903595
0.903607
0.903567
0.903371
0.902888
0.90283
0.903239
0.903692
0.903598
0.902901
0.902536
0.902679
0.90353
0.90431
0.904355
0.904186
0.904
0.904042
0.904166
0.904174
0.904208
0.904186
0.904115
0.90386
0.903299
0.902794
0.902651
0.902644
0.902697
0.902813
0.903021
0.903385
0.903693
0.903893
0.904042
0.904038
0.903871
0.903441
0.903055
0.903065
0.903207
0.903666
0.90698
0.92374
0.989666
1.10303
1.24758
1.34633
1.37511
1.37198
0.897338
0.897477
0.897658
0.897853
0.898069
0.898326
0.898611
0.89901
0.899362
0.899382
0.899246
0.899204
0.899273
0.899467
0.899683
0.899943
0.899977
0.899656
0.898856
0.898605
0.898605
0.898643
0.898779
0.898897
0.89889
0.898921
0.899152
0.899717
0.900035
0.900587
0.901265
0.901362
0.901436
0.901887
0.902903
0.9037
0.903758
0.903584
0.903067
0.902203
0.901147
0.900607
0.900459
0.900567
0.901312
0.901648
0.901533
0.901169
0.901084
0.901326
0.902
0.902435
0.902154
0.901499
0.901378
0.901814
0.903109
0.90386
0.903719
0.903152
0.902966
0.903113
0.903813
0.904429
0.90445
0.904297
0.904151
0.904224
0.904287
0.904158
0.903684
0.903373
0.903236
0.903062
0.902752
0.902508
0.902507
0.902618
0.903005
0.903498
0.903857
0.903974
0.903992
0.904073
0.904044
0.903802
0.903332
0.902926
0.902946
0.903104
0.903573
0.904095
0.904184
0.904761
0.910426
0.940953
1.03178
1.15732
1.27204
1.33761
0.900975
0.900965
0.901002
0.901106
0.901242
0.901306
0.901415
0.901508
0.901514
0.901509
0.901485
0.901399
0.901317
0.901304
0.901306
0.901339
0.901333
0.901229
0.900946
0.900585
0.90032
0.900284
0.90029
0.90043
0.900661
0.900733
0.900688
0.900101
0.898491
0.89771
0.897655
0.897685
0.897733
0.897823
0.89846
0.900041
0.900923
0.90115
0.901318
0.901319
0.900978
0.9002
0.898818
0.897899
0.897957
0.898516
0.898908
0.899076
0.899481
0.900461
0.900758
0.900582
0.899758
0.899408
0.899625
0.900678
0.902526
0.903434
0.903477
0.903433
0.903446
0.903703
0.903697
0.903203
0.902976
0.903102
0.903633
0.903832
0.903672
0.902944
0.902036
0.901829
0.90187
0.902149
0.90246
0.902773
0.903018
0.903313
0.903667
0.904124
0.90424
0.90418
0.904154
0.904016
0.903668
0.903148
0.902851
0.902898
0.903136
0.903721
0.904224
0.904307
0.904228
0.903667
0.903676
0.905318
0.918585
0.97145
1.08459
1.26999
0.900727
0.900595
0.900287
0.900294
0.900368
0.900252
0.900183
0.90036
0.900525
0.900519
0.900418
0.900369
0.900341
0.900276
0.900122
0.89999
0.900053
0.900332
0.900401
0.9004
0.900341
0.900168
0.900155
0.90044
0.90106
0.901232
0.901009
0.899537
0.896694
0.895827
0.89577
0.895611
0.895005
0.894437
0.894514
0.895584
0.896952
0.898573
0.900228
0.900602
0.900548
0.900101
0.898731
0.897178
0.896977
0.897251
0.898052
0.898351
0.898788
0.90002
0.900426
0.90026
0.899314
0.898576
0.898593
0.899009
0.900057
0.901653
0.902874
0.903022
0.902913
0.902408
0.901246
0.900028
0.899727
0.89983
0.900382
0.901079
0.901231
0.901107
0.900761
0.900687
0.900866
0.901484
0.902475
0.903089
0.903367
0.903595
0.903814
0.90419
0.904232
0.904094
0.903656
0.903087
0.90262
0.902508
0.902685
0.903288
0.903944
0.904394
0.904439
0.904346
0.903826
0.903169
0.903139
0.903277
0.903945
0.908941
0.932468
1.07451
0.903048
0.903325
0.90338
0.903358
0.903177
0.903096
0.903164
0.903476
0.903757
0.903756
0.903733
0.903993
0.904549
0.904637
0.904341
0.904106
0.904187
0.904617
0.9054
0.90616
0.906521
0.906913
0.907972
0.908697
0.908713
0.908425
0.907621
0.90642
0.90464
0.902434
0.90095
0.899997
0.899484
0.899526
0.899638
0.899701
0.900093
0.901405
0.90302
0.903123
0.903015
0.903048
0.902794
0.902415
0.902383
0.90308
0.904987
0.90588
0.906078
0.906214
0.906249
0.90554
0.903227
0.901001
0.900411
0.900297
0.900315
0.900806
0.902137
0.902916
0.902685
0.90173
0.900363
0.899112
0.898647
0.898683
0.898933
0.899383
0.899674
0.899686
0.899585
0.89959
0.899786
0.900376
0.901505
0.902521
0.902942
0.903183
0.903055
0.902783
0.902405
0.902054
0.901633
0.901622
0.901812
0.902349
0.90323
0.90419
0.904528
0.90451
0.904328
0.903714
0.903084
0.902987
0.903233
0.903834
0.904375
0.904532
0.90547
0.947107
0.9291
0.929281
0.929221
0.928343
0.926504
0.926016
0.926101
0.927257
0.927865
0.927616
0.926328
0.925917
0.926569
0.927126
0.926889
0.925939
0.925791
0.925808
0.925795
0.925894
0.925884
0.925915
0.926708
0.928791
0.929504
0.928908
0.92737
0.926737
0.925452
0.923182
0.922345
0.922631
0.922988
0.923004
0.92265
0.921007
0.917586
0.915901
0.915752
0.915437
0.914486
0.913135
0.91143
0.910473
0.910394
0.910538
0.910877
0.911337
0.911501
0.911149
0.91052
0.909721
0.907587
0.904215
0.901818
0.900213
0.900017
0.900505
0.90132
0.901484
0.901212
0.900756
0.900115
0.899268
0.898918
0.898978
0.899297
0.899807
0.900193
0.900865
0.902054
0.902653
0.902771
0.902599
0.902451
0.902216
0.901878
0.901278
0.900337
0.899771
0.899638
0.89977
0.899863
0.900018
0.900588
0.901885
0.903427
0.90421
0.904272
0.903774
0.903013
0.902453
0.902613
0.903046
0.903874
0.904442
0.904607
0.90445
0.903898
0.908836
0.967181
0.967486
0.967437
0.967302
0.965917
0.962946
0.962769
0.96321
0.961879
0.960656
0.960362
0.958637
0.957132
0.956994
0.956652
0.956289
0.955738
0.954278
0.951116
0.947923
0.946685
0.9464
0.946154
0.945014
0.943721
0.942996
0.941584
0.938088
0.936675
0.937778
0.938238
0.938263
0.940123
0.94283
0.943385
0.942659
0.939705
0.93717
0.936035
0.935682
0.935201
0.933782
0.931103
0.927704
0.924381
0.920789
0.917574
0.916674
0.916988
0.918095
0.918597
0.918576
0.91823
0.91757
0.91679
0.915859
0.914718
0.912875
0.909728
0.907682
0.907518
0.908033
0.909798
0.911531
0.912214
0.911896
0.910291
0.907532
0.90659
0.906987
0.907947
0.907789
0.906814
0.90481
0.90225
0.901064
0.900521
0.900112
0.899699
0.899522
0.899565
0.899782
0.900327
0.901332
0.902725
0.90377
0.903647
0.90314
0.902146
0.901243
0.901252
0.901679
0.902239
0.903673
0.904087
0.904453
0.904289
0.903623
0.903068
0.903566
1.00879
1.00908
1.00904
1.00849
1.00738
1.00684
1.00742
1.00841
1.00835
1.0084
1.00949
1.00972
1.00804
1.00658
1.00642
1.00629
1.00575
1.00451
1.00387
1.00265
1.00077
1.00038
0.999892
0.998822
0.996929
0.993385
0.991445
0.991557
0.991381
0.989037
0.983683
0.980158
0.979077
0.977934
0.976912
0.977091
0.977141
0.975419
0.973733
0.974334
0.975778
0.975511
0.972948
0.969417
0.968655
0.967927
0.965809
0.962791
0.959994
0.95623
0.952921
0.952621
0.952491
0.950412
0.947035
0.946603
0.946106
0.943938
0.940133
0.936565
0.933655
0.931314
0.929265
0.926499
0.924949
0.923609
0.920993
0.916308
0.91267
0.911601
0.910917
0.909626
0.90726
0.904625
0.902426
0.902033
0.902
0.901604
0.901546
0.901879
0.902774
0.904326
0.905036
0.905145
0.90495
0.904017
0.90262
0.901035
0.900333
0.900207
0.900369
0.901285
0.903171
0.903974
0.90382
0.903211
0.902436
0.902176
0.902555
0.903681
1.06502
1.06504
1.0647
1.06398
1.06291
1.06173
1.0608
1.06031
1.0599
1.0594
1.05821
1.05625
1.05564
1.05491
1.05344
1.05035
1.047
1.04655
1.0465
1.04614
1.04626
1.04638
1.04562
1.04267
1.03987
1.0395
1.0403
1.042
1.04225
1.04119
1.03787
1.03494
1.03281
1.03201
1.03182
1.03118
1.02899
1.02606
1.02263
1.01875
1.01555
1.01293
1.00771
1.0046
1.00413
1.00305
1.00197
1.00053
0.998339
0.995695
0.993886
0.99286
0.99079
0.984571
0.97465
0.971723
0.970465
0.967275
0.964777
0.964544
0.963737
0.960593
0.955369
0.948923
0.942909
0.940893
0.939887
0.93809
0.935177
0.932531
0.929271
0.92494
0.924191
0.923882
0.922687
0.921712
0.921052
0.919614
0.918146
0.916755
0.915119
0.913347
0.910828
0.908259
0.905749
0.903066
0.901887
0.900798
0.900565
0.901195
0.90289
0.904988
0.904637
0.903621
0.902104
0.900965
0.901005
0.901143
0.902
0.903655
1.1232
1.12116
1.12011
1.11987
1.11969
1.11969
1.12
1.12088
1.12193
1.12242
1.12194
1.11915
1.11764
1.11719
1.11552
1.11379
1.11352
1.11252
1.11063
1.1085
1.10573
1.10504
1.10524
1.1045
1.10075
1.09848
1.09825
1.09781
1.09663
1.09419
1.09092
1.08826
1.08554
1.08216
1.08147
1.08127
1.07995
1.07741
1.07691
1.07608
1.07427
1.07257
1.07006
1.06641
1.06326
1.05976
1.05579
1.05199
1.04721
1.04159
1.03979
1.04045
1.04087
1.03873
1.03288
1.02834
1.02453
1.01754
1.01351
1.01302
1.01163
1.0088
1.00522
0.999648
0.992811
0.987667
0.985489
0.98371
0.979833
0.973949
0.968307
0.96297
0.957976
0.953469
0.949308
0.944321
0.9396
0.93441
0.930123
0.926075
0.921716
0.916953
0.91306
0.910185
0.908184
0.907334
0.906413
0.907069
0.908596
0.909455
0.909138
0.907847
0.904838
0.901933
0.901285
0.900858
0.901079
0.902331
0.904275
0.903693
1.18728
1.18609
1.18413
1.18325
1.18278
1.18212
1.18192
1.18178
1.18069
1.17902
1.17901
1.17888
1.17812
1.17609
1.17313
1.17249
1.17264
1.17248
1.17112