/*--------------------------------*- C++ -*----------------------------------*\
  =========                 |
  \\      /  F ield         | OpenFOAM: The Open Source CFD Toolbox
   \\    /   O peration     | Website:  https://openfoam.org
    \\  /    A nd           | Version:  7
     \\/     M anipulation  |
\*---------------------------------------------------------------------------*/
FoamFile
{
    version     2.0;
    format      ascii;
    class       volScalarField;
    location    "2";
    object      p;
}
// * * * * * * * * * * * * * * * * * * * * * * * * * * * * * * * * * * * * * //

dimensions      [1 -1 -2 0 0 0 0];

internalField   nonuniform List<scalar> 
12750
(
0.119145
0.174988
0.229897
0.288934
0.340157
0.397749
0.453786
0.518977
0.563889
0.610537
0.643691
0.66152
0.66398
0.665846
0.662284
0.656814
0.657359
0.673803
0.669747
0.661205
0.657527
0.734905
0.930273
1.02514
1.06731
0.986568
0.835023
0.7763
0.697118
0.679218
0.0665497
0.066041
0.0653922
0.0657133
0.0698805
0.0814954
0.110869
0.152233
0.226158
0.321884
0.417314
0.490935
0.578863
0.616072
0.660015
0.66443
0.658204
0.663368
0.644801
0.617192
0.608668
0.676234
0.861767
0.971267
1.03017
0.979979
0.842819
0.759939
0.699608
0.686708
0.0656758
0.0652851
0.064964
0.0649527
0.0650173
0.0655963
0.0659593
0.0660846
0.0661698
0.0656886
0.0779266
0.10506
0.156108
0.262259
0.405004
0.552451
0.6095
0.651171
0.650318
0.6335
0.601006
0.629389
0.76408
0.886079
0.983658
0.969067
0.850941
0.764525
0.717384
0.69809
0.0648134
0.0648141
0.0649053
0.0649415
0.0650833
0.0658114
0.0661175
0.0662404
0.0660579
0.0649289
0.0626215
0.0603353
0.0593594
0.059584
0.0684535
0.130113
0.246585
0.362988
0.556306
0.670943
0.630852
0.619844
0.708371
0.817596
0.924855
0.973042
0.893013
0.780835
0.741364
0.71307
0.0645743
0.0649186
0.0651414
0.0650572
0.0651931
0.0658383
0.0659575
0.0655155
0.064135
0.0619534
0.0593501
0.0577016
0.0583506
0.0592657
0.0598445
0.0596732
0.0591054
0.0599536
0.127846
0.380813
0.608451
0.623614
0.68877
0.765235
0.907939
0.991219
0.901516
0.786506
0.751072
0.731309
0.0643413
0.0647979
0.0650098
0.0647937
0.0646814
0.0642894
0.0630908
0.0614045
0.0599839
0.0585222
0.057152
0.0570178
0.0582117
0.0592983
0.0600925
0.0607109
0.0619495
0.0635167
0.0650114
0.072347
0.246004
0.505578
0.620965
0.670529
0.67032
0.811356
0.848337
0.782021
0.756434
0.760928
0.0641019
0.0638551
0.0630498
0.0615311
0.0599858
0.059001
0.0581448
0.0575769
0.0573978
0.057256
0.0570738
0.0580042
0.0591817
0.060018
0.0611687
0.0631994
0.0653271
0.0675266
0.0716002
0.0741818
0.0768046
0.158246
0.308946
0.323012
0.232305
0.262387
0.651009
0.774081
0.803425
0.800613
0.0602457
0.0591798
0.0579498
0.0568846
0.0564879
0.0564767
0.0564883
0.056473
0.0567153
0.0580533
0.0603883
0.0618624
0.0619715
0.0632835
0.0662108
0.0680599
0.0689244
0.0712117
0.0760536
0.0815847
0.0856422
0.0894969
0.094332
0.100643
0.11512
0.135229
0.378801
0.793219
0.852204
0.866964
0.0573424
0.0567245
0.056007
0.0558545
0.0558758
0.0559993
0.0563387
0.0567358
0.0584053
0.0622858
0.0669053
0.0677855
0.0678292
0.0681918
0.069463
0.0717373
0.0756705
0.0797904
0.083438
0.0892057
0.0939207
0.096534
0.102302
0.11001
0.126853
0.1482
0.192537
0.586479
0.916099
0.934039
0.0564733
0.0563146
0.0559309
0.0560464
0.0565013
0.0578477
0.0600013
0.0629046
0.0664438
0.0702838
0.0732823
0.0734719
0.0724556
0.0715957
0.0726306
0.0785436
0.0874405
0.093568
0.0951114
0.0973161
0.100893
0.103675
0.10751
0.115038
0.130731
0.161888
0.191203
0.265134
0.727218
0.919171
0.0584201
0.0598138
0.0616272
0.0634196
0.0657919
0.0686568
0.0709114
0.0729496
0.0743848
0.0755312
0.0770521
0.0770618
0.0774724
0.0797621
0.0857969
0.0943413
0.100383
0.105894
0.105569
0.105244
0.10771
0.114558
0.120279
0.125721
0.136117
0.162997
0.203354
0.237879
0.341748
0.763321
0.0718627
0.0740546
0.0756371
0.0768272
0.0778305
0.0781293
0.0784479
0.0795143
0.0798916
0.0802871
0.0824886
0.0873811
0.0939345
0.0994029
0.104926
0.109632
0.110866
0.112875
0.114605
0.117023
0.122907
0.131111
0.140258
0.143747
0.147068
0.164514
0.204137
0.250661
0.280624
0.453814
0.0851406
0.0863465
0.0873061
0.0880551
0.08711
0.0858196
0.0864873
0.0891037
0.0930804
0.0978288
0.103852
0.10997
0.11473
0.116182
0.117485
0.119085
0.119734
0.121013
0.125368
0.133527
0.141768
0.14816
0.155093
0.160307
0.163111
0.172807
0.204888
0.251983
0.29954
0.326327
0.097605
0.100097
0.103033
0.105872
0.106357
0.106827
0.109012
0.112681
0.116567
0.120867
0.124168
0.126866
0.12924
0.12881
0.128012
0.129334
0.134206
0.140461
0.146321
0.153639
0.159625
0.163452
0.167668
0.1739
0.180956
0.191457
0.213211
0.26035
0.313256
0.341402
0.119096
0.12265
0.127415
0.132274
0.133161
0.132448
0.132342
0.133658
0.136997
0.140562
0.140038
0.140171
0.142826
0.147471
0.150837
0.154767
0.161525
0.169209
0.174694
0.178079
0.178594
0.178574
0.180436
0.186623
0.197762
0.214236
0.237361
0.271434
0.325641
0.363444
0.146604
0.148088
0.151274
0.157072
0.160117
0.159507
0.157819
0.158292
0.161102
0.165471
0.16826
0.170503
0.174493
0.180578
0.185557
0.189277
0.192962
0.195906
0.198967
0.200933
0.201413
0.202414
0.204548
0.210165
0.220863
0.238377
0.266355
0.303219
0.346877
0.383475
0.185412
0.185459
0.18651
0.190027
0.196184
0.200357
0.200199
0.200043
0.201192
0.204012
0.207615
0.210027
0.212493
0.216043
0.217971
0.218691
0.21961
0.220591
0.222365
0.225999
0.232078
0.239751
0.247183
0.25214
0.256514
0.266171
0.289524
0.330652
0.375956
0.415658
0.237584
0.235387
0.235347
0.236401
0.240587
0.246871
0.250102
0.24992
0.247967
0.247642
0.249566
0.252157
0.253325
0.255535
0.258044
0.259134
0.260992
0.264974
0.269397
0.273386
0.27832
0.28337
0.28871
0.291906
0.293587
0.298024
0.312166
0.345262
0.392796
0.442969
0.312369
0.30567
0.301806
0.301926
0.303841
0.309026
0.314433
0.315603
0.313795
0.311468
0.311912
0.313813
0.315997
0.317683
0.319474
0.321373
0.323254
0.325581
0.327933
0.328591
0.328002
0.326116
0.324671
0.325164
0.326399
0.330859
0.34017
0.360009
0.406817
0.466878
0.409836
0.407067
0.397379
0.391237
0.390521
0.392708
0.398929
0.401888
0.400488
0.394395
0.3926
0.393072
0.392781
0.392026
0.391338
0.389921
0.387722
0.385778
0.385075
0.384201
0.38213
0.381369
0.380911
0.380887
0.382732
0.388737
0.401039
0.418117
0.439997
0.4862
0.535322
0.535958
0.531696
0.517061
0.508318
0.50782
0.512119
0.514759
0.513694
0.506945
0.500779
0.497571
0.495073
0.492694
0.489829
0.485001
0.480304
0.476915
0.474552
0.472384
0.467875
0.465201
0.46379
0.459326
0.453459
0.453293
0.459882
0.478379
0.504536
0.547641
0.686721
0.687481
0.685593
0.671012
0.657364
0.657756
0.659622
0.657182
0.648372
0.63906
0.635766
0.632313
0.625009
0.615905
0.609425
0.602721
0.594682
0.587017
0.578706
0.571535
0.564217
0.554957
0.54557
0.534234
0.523768
0.51988
0.519341
0.524536
0.53911
0.583656
0.822813
0.823225
0.823305
0.81579
0.800871
0.799129
0.799432
0.797009
0.789199
0.777533
0.772835
0.769016
0.761214
0.750435
0.741072
0.732214
0.721887
0.711625
0.700135
0.687781
0.676475
0.662807
0.648464
0.635694
0.620322
0.608524
0.603634
0.601381
0.602976
0.629392
0.896176
0.896346
0.896455
0.89285
0.88655
0.886189
0.885449
0.883601
0.879794
0.873693
0.870459
0.867865
0.862113
0.854445
0.84767
0.840779
0.83184
0.821881
0.811394
0.798539
0.785133
0.770501
0.753126
0.737165
0.719904
0.700636
0.691542
0.689347
0.691329
0.710532
0.923028
0.923174
0.922684
0.920492
0.919754
0.920032
0.919954
0.919568
0.918142
0.916019
0.915066
0.914359
0.912182
0.908723
0.905974
0.903101
0.898794
0.892949
0.886673
0.879017
0.869529
0.85914
0.846374
0.832777
0.820119
0.805411
0.791922
0.782398
0.778166
0.789049
0.941035
0.941214
0.941262
0.940669
0.939541
0.939176
0.939464
0.939966
0.939974
0.939485
0.938906
0.938623
0.938318
0.937662
0.937013
0.936307
0.93517
0.933518
0.93163
0.929359
0.92614
0.922404
0.918075
0.912734
0.907166
0.900138
0.891272
0.883981
0.879612
0.884215
0.965776
0.965973
0.966115
0.965998
0.964842
0.963683
0.963681
0.964072
0.964176
0.96392
0.963466
0.963328
0.9634
0.963359
0.963332
0.96362
0.963836
0.964003
0.964348
0.964923
0.965529
0.966233
0.967174
0.967912
0.96803
0.967493
0.965623
0.962786
0.9601
0.961129
0.990204
0.990103
0.990125
0.99011
0.989588
0.988941
0.988773
0.988679
0.988538
0.988146
0.987851
0.987738
0.987647
0.987489
0.987468
0.987614
0.987899
0.988262
0.988761
0.989477
0.990393
0.991422
0.992578
0.993699
0.994564
0.995168
0.995206
0.99494
0.994399
0.994435
0.999168
0.99913
0.999104
0.999078
0.999027
0.998937
0.998856
0.998805
0.998761
0.998689
0.998608
0.99855
0.998504
0.99846
0.998428
0.998434
0.998469
0.998538
0.998639
0.99878
0.998958
0.999155
0.99935
0.999524
0.99966
0.99975
0.999783
0.999777
0.99975
0.999745
0.999983
0.999981
0.99998
0.999978
0.999977
0.999974
0.999971
0.999968
0.999966
0.999963
0.999959
0.999955
0.999952
0.99995
0.999947
0.999946
0.999947
0.999949
0.999954
0.999959
0.999967
0.999975
0.999982
0.999988
0.999993
0.999995
0.999997
0.999997
0.999996
0.999996
1
1
1
1
1
1
1
1
1
1
1
1
1
0.999999
0.999999
0.999999
0.999999
0.999999
0.999999
1
1
1
1
1
1
1
1
1
1
1
1
1
1
1
1
1
1
1
1
1
1
1
1
1
1
1
1
1
1
1
1
1
1
1
1
1
1
1
1
1
1
1
1
1
1
1
1
1
1
1
1
1
1
1
1
1
1
1
1
1
1
1
1
1
1
1
1
1
1
1
1
1
1
1
1
1
1
1
1
1
1
1
1
1
1
1
1
1
1
1
1
1
1
1
1
1
1
1
1
1
1
1
1
1
1
1
1
1
1
1
1
1
1
1
1
1
1
1
1
1
1
1
1
1
1
1
1
1
1
1
0.0681341
0.0672057
0.0661419
0.0649871
0.0644257
0.0638323
0.0640887
0.0612389
0.0584169
0.056769
0.0574198
0.0691407
0.0832852
0.0959027
0.11747
0.145993
0.186121
0.242551
0.315461
0.409963
0.534655
0.686036
0.824412
0.896921
0.922922
0.940777
0.965597
0.990627
0.999235
0.999984
1
1
1
1
1
0.0682198
0.0671367
0.0658892
0.0649041
0.0642174
0.0632707
0.063392
0.060738
0.0591327
0.0581262
0.0585517
0.0698792
0.0847031
0.0990989
0.123504
0.156351
0.199495
0.255021
0.328038
0.426069
0.557135
0.714492
0.845365
0.90364
0.924462
0.941759
0.968312
0.992502
0.999493
0.999991
1
1
1
1
1
0.0679976
0.0667251
0.0657849
0.0650303
0.064224
0.0631332
0.0629969
0.0605799
0.0595682
0.0593451
0.0593712
0.0690349
0.0855552
0.103441
0.13008
0.162567
0.204183
0.259148
0.333
0.434337
0.574274
0.739741
0.861505
0.908005
0.925199
0.942972
0.971385
0.993855
0.999621
0.999994
1
1
1
1
1
0.0672223
0.0661262
0.0658354
0.0654592
0.0645673
0.0634227
0.0620824
0.0593826
0.0595771
0.0602775
0.0609752
0.0697568
0.0892634
0.107912
0.133611
0.165737
0.207229
0.262564
0.339202
0.454983
0.613795
0.774219
0.87598
0.912472
0.927238
0.946508
0.974401
0.994842
0.999713
0.999996
1
1
1
1
1
0.0662973
0.0657402
0.0660103
0.0657724
0.0647832
0.0633662
0.0603806
0.0570649
0.0588676
0.0610604
0.0626648
0.0721145
0.0916971
0.11003
0.135341
0.16766
0.20999
0.272362
0.367704
0.495483
0.646448
0.792697
0.882437
0.914346
0.928831
0.948071
0.975967
0.995578
0.999786
0.999997
1
1
1
1
1
0.065329
0.0654294
0.066088
0.0659177
0.0647337
0.0627986
0.0585114
0.0553268
0.0571321
0.061532
0.0643396
0.0734542
0.0930263
0.111592
0.137037
0.171145
0.224517
0.299008
0.394426
0.515477
0.662802
0.805938
0.88843
0.915481
0.92918
0.94903
0.977812
0.996446
0.999853
0.999998
1
1
1
1
1
0.0646369
0.065174
0.0659093
0.0659464
0.0645249
0.0625961
0.0577394
0.0545549
0.0560397
0.0618447
0.0659147
0.0744205
0.0945694
0.114199
0.143106
0.18561
0.240942
0.312121
0.405991
0.529804
0.682001
0.823346
0.895705
0.916754
0.929447
0.950278
0.980589
0.997358
0.999904
0.999999
1
1
1
1
1
0.0643853
0.065082
0.0655805
0.0656915
0.0643899
0.0626495
0.057483
0.0541673
0.0548259
0.0618089
0.0675693
0.0757357
0.0977259
0.122004
0.154423
0.194753
0.247772
0.318598
0.414749
0.545974
0.7083
0.845085
0.902591
0.918084
0.930176
0.953928
0.983946
0.998035
0.999936
0.999999
1
1
1
1
1
0.0643735
0.065163
0.0654402
0.0653974
0.0643871
0.0630432
0.0573791
0.0538633
0.0541075
0.0610656
0.0695642
0.0796036
0.102183
0.126763
0.158545
0.198332
0.251119
0.323112
0.42597
0.577782
0.748299
0.864521
0.90699
0.920117
0.933266
0.958039
0.986115
0.998457
0.999956
1
1
1
1
1
1
0.0647441
0.0654833
0.0653099
0.0651391
0.0646049
0.0634549
0.0577145
0.0537708
0.0540122
0.0614884
0.0721191
0.08305
0.103647
0.127692
0.159341
0.199642
0.254177
0.338488
0.466807
0.624281
0.776922
0.874973
0.90902
0.921004
0.934797
0.959918
0.987673
0.998809
0.999971
1
1
1
1
1
1
0.0659038
0.0657353
0.0651133
0.0647615
0.0646526
0.0636158
0.0588401
0.0542752
0.0545716
0.0627678
0.0740446
0.0846359
0.104139
0.127789
0.15869
0.204215
0.277558
0.377639
0.501211
0.648003
0.79326
0.882569
0.910584
0.921113
0.935383
0.962007
0.989638
0.999168
0.999982
1
1
1
1
1
1
0.0666517
0.0656689
0.064631
0.0642996
0.0646164
0.0636768
0.0598556
0.0551837
0.0553352
0.0630153
0.0750587
0.0853728
0.105038
0.129703
0.167751
0.227033
0.302483
0.397119
0.518627
0.667999
0.811872
0.890841
0.912077
0.92106
0.935829
0.965228
0.992078
0.999469
0.99999
1
1
1
1
1
1
0.0665746
0.0646743
0.0638013
0.0635884
0.0644694
0.0636817
0.0602303
0.0556532
0.0556145
0.0626025
0.0757445
0.086808
0.111555
0.142429
0.186245
0.241451
0.313125
0.408677
0.536365
0.69442
0.835542
0.898596
0.913482
0.921354
0.938596
0.970573
0.994066
0.999649
0.999994
1
1
1
1
1
1
0.0653339
0.0634123
0.0631347
0.0628011
0.0634541
0.0627598
0.0597609
0.0556201
0.05544
0.0614877
0.0765505
0.0926404
0.120225
0.152383
0.194258
0.247746
0.319863
0.42034
0.562542
0.733832
0.858898
0.903661
0.914352
0.923138
0.943025
0.974047
0.995202
0.999752
0.999996
1
1
1
1
1
1
0.0643599
0.062896
0.0628629
0.0621174
0.0614196
0.0602307
0.0569652
0.0551647
0.0551234
0.062367
0.0799912
0.0976093
0.124231
0.155715
0.196632
0.251085
0.327997
0.449491
0.61295
0.772296
0.873478
0.90633
0.914731
0.924196
0.944961
0.976392
0.996181
0.999837
0.999998
1
1
1
1
1
1
0.0642657
0.0628441
0.0626999
0.0618276
0.0601114
0.0574958
0.054078
0.0550543
0.0556008
0.0659634
0.0837454
0.100273
0.125128
0.156673
0.196993
0.261053
0.364152
0.4979
0.649688
0.794405
0.882443
0.907969
0.914838
0.924555
0.94693
0.979532
0.99732
0.999907
0.999999
1
1
1
1
1
1
0.0644725
0.0629202
0.0626152
0.0618047
0.0597451
0.0557701
0.0528376
0.0555089
0.0581799
0.0680888
0.0853397
0.102168
0.125031
0.158372
0.213422
0.295861
0.398309
0.523807
0.67319
0.814141
0.8906
0.909124
0.914894
0.92455
0.950145
0.984034
0.998311
0.99995
0.999999
1
1
1
1
1
1
0.0647147
0.0633965
0.0628577
0.0622176
0.0598875
0.0548431
0.0525528
0.0570533
0.0596888
0.0680505
0.0856438
0.104704
0.131513
0.176681
0.238849
0.315687
0.414975
0.544812
0.701536
0.837819
0.897526
0.909719
0.915386
0.927008
0.957151
0.987947
0.99888
0.999971
1
1
1
1
1
1
1
0.064983
0.0639447
0.0633026
0.0630099
0.0604819
0.0542378
0.0523249
0.0574471
0.0605825
0.0664568
0.0862793
0.111346
0.148277
0.192884
0.250428
0.326411
0.430536
0.572554
0.740525
0.860995
0.901594
0.909841
0.916034
0.931285
0.961867
0.990122
0.9992
0.999982
1
1
1
1
1
1
1
0.0650929
0.0643106
0.0636629
0.0631185
0.0605095
0.0539279
0.0523136
0.0574985
0.062096
0.0696085
0.095023
0.120199
0.155827
0.198678
0.256473
0.337084
0.455523
0.620636
0.78215
0.876577
0.903435
0.909603
0.916157
0.933374
0.965179
0.992093
0.999478
0.99999
1
1
1
1
1
1
1
0.0645829
0.0641283
0.0638622
0.0630654
0.06011
0.0540361
0.0530562
0.0578958
0.063919
0.075353
0.100599
0.123472
0.157239
0.201255
0.262339
0.362665
0.507781
0.668414
0.809436
0.885732
0.904471
0.908967
0.915613
0.935187
0.969649
0.994498
0.999716
0.999995
1
1
1
1
1
1
1
0.0622163
0.0625722
0.063885
0.0629544
0.0599585
0.0544116
0.0537465
0.0592214
0.0664021
0.0770977
0.101414
0.125914
0.157168
0.20721
0.29323
0.410779
0.547527
0.698532
0.829641
0.892581
0.90533
0.90889
0.915647
0.938757
0.976306
0.996586
0.999854
0.999998
1
1
1
1
1
1
1
0.0598948
0.0612977
0.0638857
0.0630094
0.060238
0.0548911
0.0541736
0.0601311
0.0683432
0.0783287
0.100904
0.129535
0.170355
0.239168
0.329279
0.438395
0.573926
0.728355
0.850698
0.897723
0.905955
0.909732
0.919313
0.947521
0.981857
0.997681
0.999914
0.999999
1
1
1
1
1
1
1
0.0589898
0.060941
0.0632912
0.0622546
0.0595972
0.0548376
0.0539945
0.059739
0.0695177
0.0815072
0.104814
0.141075
0.195262
0.261664
0.346849
0.458982
0.605578
0.766612
0.870109
0.900552
0.90611
0.910949
0.923842
0.952662
0.98476
0.998294
0.999947
0.999999
1
1
1
1
1
1
1
0.0590166
0.0613209
0.0624109
0.0601659
0.0565613
0.0530514
0.0523484
0.0559695
0.0708498
0.0871409
0.118706
0.157041
0.207828
0.272426
0.361485
0.487185
0.654221
0.806278
0.883189
0.90182
0.905898
0.911127
0.926187
0.956596
0.987686
0.998891
0.999972
1
1
1
1
1
1
1
1
0.0608648
0.0623414
0.0616663
0.0585751
0.0534881
0.0519318
0.0513295
0.0553604
0.0754406
0.0958058
0.128247
0.164054
0.21315
0.282048
0.385839
0.540182
0.707197
0.834724
0.890839
0.902586
0.905589
0.910635
0.927734
0.961864
0.991437
0.999415
0.999988
1
1
1
1
1
1
1
1
0.0637601
0.0630849
0.060574
0.0566942
0.0521557
0.0518287
0.0513715
0.060099
0.0833713
0.100673
0.130228
0.167157
0.21754
0.305617
0.439894
0.593661
0.745057
0.854609
0.895956
0.903241
0.905757
0.91118
0.931839
0.970268
0.994742
0.999708
0.999995
1
1
1
1
1
1
1
1
0.0656551
0.0633017
0.0596068
0.0551543
0.0522524
0.0530249
0.0536043
0.0642742
0.0867451
0.102131
0.128904
0.171155
0.246788
0.355804
0.484259
0.631114
0.777662
0.871655
0.899563
0.903908
0.906785
0.91594
0.942539
0.97744
0.996415
0.999827
0.999997
1
1
1
1
1
1
1
1
0.06622
0.0630938
0.0590626
0.0551812
0.054109
0.0542101
0.054931
0.0649579
0.087324
0.103057
0.137054
0.200669
0.286247
0.388192
0.516004
0.670375
0.813373
0.88529
0.901569
0.904531
0.90863
0.920913
0.948251
0.981025
0.997352
0.999894
0.999999
1
1
1
1
1
1
1
1
0.0652646
0.061553
0.0593681
0.0573577
0.0545696
0.0544418
0.0548755
0.0643006
0.087251
0.115489
0.165535
0.228565
0.308113
0.4134
0.555371
0.722211
0.84614
0.893828
0.902379
0.90469
0.909566
0.923669
0.952463
0.984614
0.998293
0.999946
0.999999
1
1
1
1
1
1
1
1
0.06104
0.058894
0.0600964
0.05733
0.0538891
0.0525504
0.0547831
0.0651962
0.0947277
0.134376
0.181841
0.242632
0.326909
0.449447
0.615622
0.774178
0.868942
0.898297
0.902684
0.904519
0.909356
0.925116
0.957778
0.989265
0.999124
0.999978
1
1
1
1
1
1
1
1
1
0.0566152
0.0569807
0.0601585
0.0561874
0.051274
0.0517505
0.059957
0.0767227
0.106634
0.143242
0.189533
0.256626
0.359217
0.511507
0.677481
0.813014
0.883243
0.900561
0.902899
0.904436
0.909181
0.928252
0.966823
0.993517
0.999582
0.999991
1
1
1
1
1
1
1
1
1
0.0546868
0.0565852
0.0594293
0.0547189
0.0493731
0.0527053
0.068073
0.0841355
0.111148
0.146632
0.197545
0.286287
0.419668
0.572485
0.725265
0.842413
0.892515
0.901814
0.903222
0.904986
0.913138
0.93977
0.975435
0.995746
0.999766
0.999996
1
1
1
1
1
1
1
1
1
0.0550652
0.0579955
0.0574756
0.0499634
0.0466345
0.0545423
0.0712543
0.0846461
0.114514
0.151766
0.228004
0.340208
0.471426
0.620323
0.76896
0.866823
0.89824
0.902658
0.903905
0.907115
0.919635
0.947204
0.97994
0.996968
0.999863
0.999998
1
1
1
1
1
1
1
1
1
0.0593456
0.0595515
0.0533767
0.0438625
0.0435551
0.0546268
0.0733713
0.0836472
0.121708
0.184668
0.273189
0.380599
0.513758
0.672425
0.814051
0.884581
0.90118
0.903313
0.904882
0.909662
0.923584
0.95216
0.984053
0.998111
0.999934
0.999999
1
1
1
1
1
1
1
1
1
0.0643035
0.0591511
0.048138
0.0409191
0.0412275
0.0525285
0.0761777
0.101003
0.150173
0.217866
0.302726
0.416524
0.56835
0.736021
0.851427
0.894864
0.902394
0.903627
0.905234
0.910748
0.926507
0.958286
0.989151
0.999067
0.999974
1
1
1
1
1
1
1
1
1
1
0.0662697
0.0572381
0.043666
0.0402101
0.0412443
0.0525594
0.0829602
0.123688
0.172327
0.237867
0.330999
0.469951
0.644076
0.793255
0.875837
0.899775
0.902894
0.903643
0.905064
0.91076
0.93047
0.967965
0.993701
0.999582
0.99999
1
1
1
1
1
1
1
1
1
1
0.0668084
0.0540385
0.0410551
0.0399542
0.0493728
0.0641611
0.0943832
0.13683
0.183946
0.258542
0.381684
0.550273
0.714666
0.83471
0.890002
0.901835
0.903183
0.903675
0.90507
0.913163
0.94144
0.977119
0.996171
0.99979
0.999996
1
1
1
1
1
1
1
1
1
1
0.0655651
0.0509664
0.0400098
0.0431797
0.0607428
0.0779501
0.101093
0.140611
0.197597
0.305227
0.460627
0.625181
0.770641
0.864369
0.897558
0.902668
0.903356
0.904007
0.907276
0.921703
0.950804
0.982378
0.997495
0.99989
0.999998
1
1
1
1
1
1
1
1
1
1
0.0603819
0.0452214
0.0394765
0.0503294
0.0690827
0.0837793
0.105639
0.143598
0.240637
0.378836
0.532676
0.689452
0.818958
0.884648
0.901068
0.903045
0.903484
0.904697
0.910541
0.927007
0.956919
0.986777
0.998563
0.999952
0.999999
1
1
1
1
1
1
1
1
1
1
0.0530959
0.0392878
0.0402923
0.0533928
0.0723985
0.081642
0.113716
0.188094
0.307398
0.444013
0.600094
0.754886
0.858173
0.896023
0.902466
0.903222
0.903726
0.905671
0.91264
0.931073
0.963893
0.99161
0.999345
0.999983
1
1
1
1
1
1
1
1
1
1
1
0.0475586
0.0384839
0.0406396
0.0524715
0.0729521
0.0784408
0.1388
0.246179
0.36459
0.51065
0.679146
0.815825
0.882979
0.90099
0.903004
0.903301
0.903987
0.90639
0.91421
0.936803
0.973795
0.995478
0.999733
0.999994
1
1
1
1
1
1
1
1
1
1
1
0.0439487
0.0391288
0.0424876
0.0480007
0.0668504
0.101899
0.190456
0.294402
0.425453
0.597466
0.759392
0.85875
0.895431
0.902687
0.903225
0.903299
0.903959
0.906662
0.91732
0.948791
0.982616
0.99756
0.999885
0.999998
1
1
1
1
1
1
1
1
1
1
1
0.0419359
0.0436254
0.0473328
0.0470147
0.0652614
0.139069
0.232711
0.347225
0.51594
0.692505
0.821137
0.88392
0.900656
0.903094
0.903277
0.903274
0.903725
0.907552
0.927157
0.959861
0.988103
0.99865
0.99995
0.999999
1
1
1
1
1
1
1
1
1
1
1
0.0389118
0.0463575
0.0506879
0.0518751
0.0882738
0.178227
0.278493
0.436494
0.61988
0.772427
0.863046
0.896826
0.90241
0.903153
0.903205
0.903309
0.904415
0.913573
0.935885
0.967783
0.992199
0.999344
0.999981
1
1
1
1
1
1
1
1
1
1
1
1
0.0348664
0.0454273
0.0506262
0.060503
0.124043
0.222801
0.360825
0.547538
0.716556
0.833752
0.88766
0.901944
0.902781
0.903176
0.903202
0.903569
0.907262
0.918932
0.942956
0.975627
0.995679
0.999739
0.999994
1
1
1
1
1
1
1
1
1
1
1
1
0.0313034
0.0358263
0.0469721
0.071695
0.16725
0.286095
0.473866
0.656599
0.797737
0.873588
0.898746
0.903309
0.902792
0.903321
0.903366
0.904563
0.909712
0.9231
0.95138
0.984183
0.997958
0.999907
0.999998
1
1
1
1
1
1
1
1
1
1
1
1
0.032139
0.0261498
0.0480338
0.102785
0.230109
0.405174
0.597514
0.757191
0.854446
0.893082
0.902487
0.903496
0.902561
0.903602
0.903775
0.905581
0.911438
0.928573
0.963439
0.990734
0.999089
0.999968
0.999999
1
1
1
1
1
1
1
1
1
1
1
1
0.0350606
0.0248694
0.0652822
0.171895
0.326784
0.535314
0.714446
0.83324
0.885484
0.900616
0.903464
0.903458
0.902391
0.903793
0.904277
0.906302
0.913792
0.939937
0.974291
0.994801
0.999618
0.99999
1
1
1
1
1
1
1
1
1
1
1
1
1
0.0420037
0.0329028
0.100896
0.268976
0.476778
0.671128
0.810668
0.876957
0.898059
0.902951
0.9037
0.903431
0.902169
0.903837
0.904722
0.907225
0.921849
0.951976
0.982687
0.997362
0.999859
0.999997
1
1
1
1
1
1
1
1
1
1
1
1
1
0.0118722
0.065113
0.194356
0.399613
0.629057
0.790628
0.870119
0.89625
0.902013
0.903604
0.903818
0.903373
0.901935
0.903713
0.90511
0.911779
0.932001
0.962833
0.989489
0.998863
0.999956
0.999999
1
1
1
1
1
1
1
1
1
1
1
1
1
0.0119159
0.107121
0.339942
0.592365
0.770057
0.863067
0.894767
0.901688
0.902965
0.903831
0.903881
0.903248
0.901714
0.90362
0.906139
0.918182
0.941693
0.973425
0.994515
0.999585
0.999988
1
1
1
1
1
1
1
1
1
1
1
1
1
1
0.0901436
0.276128
0.538135
0.752876
0.860036
0.894133
0.901717
0.902827
0.903264
0.903938
0.903885
0.902831
0.901644
0.903787
0.909406
0.924624
0.952533
0.983422
0.997519
0.999867
0.999997
1
1
1
1
1
1
1
1
1
1
1
1
1
1
0.25618
0.492313
0.743558
0.85919
0.894494
0.902089
0.903021
0.903101
0.903476
0.90401
0.903763
0.902229
0.901793
0.906337
0.913319
0.932948
0.965677
0.990815
0.999033
0.999964
0.999999
1
1
1
1
1
1
1
1
1
1
1
1
1
1
0.539681
0.746689
0.864893
0.896813
0.902619
0.903253
0.903157
0.90319
0.903686
0.904039
0.903391
0.901871
0.902633
0.909376
0.918699
0.945586
0.977213
0.995538
0.9997
0.999993
1
1
1
1
1
1
1
1
1
1
1
1
1
1
1
0.903052
0.903178
0.903342
0.903543
0.903553
0.903376
0.903145
0.90322
0.90382
0.903996
0.903178
0.901817
0.903744
0.913498
0.927366
0.958951
0.986708
0.998487
0.999975
1
1
1
1
1
1
1
1
1
1
1
1
1
1
1
1
0.903035
0.903091
0.903221
0.903463
0.903568
0.903509
0.903163
0.902981
0.903397
0.903947
0.903762
0.902192
0.903208
0.91306
0.928272
0.958518
0.986613
0.998231
0.999919
0.999999
1
1
1
1
1
1
1
1
1
1
1
1
1
1
1
0.903212
0.903135
0.903177
0.903339
0.903433
0.90352
0.903191
0.902841
0.902963
0.903786
0.904021
0.902636
0.903578
0.915147
0.934768
0.967361
0.991802
0.999237
0.999977
1
1
1
1
1
1
1
1
1
1
1
1
1
1
1
1
0.90336
0.903187
0.903127
0.903227
0.903348
0.903489
0.903239
0.902756
0.902689
0.903444
0.904244
0.902762
0.903865
0.917506
0.940502
0.972544
0.993976
0.999528
0.999988
1
1
1
1
1
1
1
1
1
1
1
1
1
1
1
1
0.903469
0.903246
0.903118
0.903173
0.903267
0.903454
0.903431
0.902818
0.902653
0.903107
0.904578
0.90386
0.905485
0.921707
0.945955
0.977655
0.995891
0.999742
0.999994
1
1
1
1
1
1
1
1
1
1
1
1
1
1
1
1
0.903512
0.903306
0.903162
0.90316
0.903208
0.90352
0.903742
0.903369
0.902815
0.902684
0.904802
0.90524
0.906631
0.923798
0.951147
0.982604
0.997324
0.999863
0.999997
1
1
1
1
1
1
1
1
1
1
1
1
1
1
1
1
0.903521
0.903367
0.903214
0.903167
0.903182
0.903569
0.903935
0.903791
0.902862
0.902267
0.904134
0.90595
0.907233
0.926652
0.958345
0.986987
0.998342
0.99993
0.999999
1
1
1
1
1
1
1
1
1
1
1
1
1
1
1
1
0.903502
0.903418
0.903256
0.90319
0.903167
0.903583
0.903989
0.903896
0.902848
0.901843
0.903031
0.906221
0.908795
0.933342
0.965066
0.990305
0.999003
0.999966
1
1
1
1
1
1
1
1
1
1
1
1
1
1
1
1
1
0.903369
0.903432
0.903278
0.903191
0.903128
0.90349
0.903995
0.903905
0.902839
0.901543
0.902653
0.907281
0.913941
0.939393
0.970357
0.993181
0.999433
0.999984
1
1
1
1
1
1
1
1
1
1
1
1
1
1
1
1
1
0.903296
0.903427
0.903275
0.903186
0.903067
0.903289
0.903921
0.903818
0.902839
0.901453
0.902693
0.909824
0.917927
0.943427
0.975942
0.995495
0.999696
0.999993
1
1
1
1
1
1
1
1
1
1
1
1
1
1
1
1
1
0.903244
0.903392
0.903288
0.903205
0.903027
0.903124
0.903762
0.903757
0.90286
0.901367
0.902622
0.910941
0.920857
0.949667
0.981846
0.997106
0.999845
0.999997
1
1
1
1
1
1
1
1
1
1
1
1
1
1
1
1
1
0.90319
0.903365
0.903372
0.903231
0.902998
0.902982
0.903553
0.903762
0.902975
0.901197
0.902011
0.911073
0.925481
0.958153
0.986464
0.998211
0.999923
0.999999
1
1
1
1
1
1
1
1
1
1
1
1
1
1
1
1
1
0.903143
0.903353
0.90348
0.903292
0.903005
0.902912
0.903205
0.903797
0.903471
0.901175
0.902004
0.91239
0.93267
0.964535
0.990074
0.998973
0.999964
0.999999
1
1
1
1
1
1
1
1
1
1
1
1
1
1
1
1
1
0.903103
0.903332
0.903554
0.903425
0.903258
0.90297
0.903016
0.903809
0.904004
0.902083
0.903396
0.917067
0.937973
0.970192
0.993269
0.999441
0.999984
1
1
1
1
1
1
1
1
1
1
1
1
1
1
1
1
1
1
0.903121
0.903308
0.903592
0.903523
0.903543
0.903182
0.902991
0.903562
0.904504
0.903453
0.904778
0.919027
0.943006
0.976961
0.995727
0.999712
0.999993
1
1
1
1
1
1
1
1
1
1
1
1
1
1
1
1
1
1
0.903197
0.903296
0.903602
0.90357
0.903732
0.903422
0.903024
0.902919
0.904529
0.904358
0.905317
0.92091
0.951226
0.982909
0.997327
0.99986
0.999997
1
1
1
1
1
1
1
1
1
1
1
1
1
1
1
1
1
1
0.903251
0.903226
0.903435
0.903478
0.903774
0.903585
0.902765
0.90185
0.90328
0.904638
0.905697
0.92756
0.959803
0.98729
0.998431
0.999936
0.999999
1
1
1
1
1
1
1
1
1
1
1
1
1
1
1
1
1
1
0.903327
0.90318
0.903174
0.903262
0.903736
0.903675
0.902523
0.901097
0.901911
0.905116
0.910198
0.93609
0.966204
0.991159
0.999152
0.999972
1
1
1
1
1
1
1
1
1
1
1
1
1
1
1
1
1
1
1
0.903484
0.903177
0.902987
0.903166
0.903769
0.903779
0.902573
0.900815
0.901575
0.907073
0.915668
0.940623
0.97259
0.994382
0.999563
0.999988
1
1
1
1
1
1
1
1
1
1
1
1
1
1
1
1
1
1
1
0.903654
0.903208
0.902895
0.903137
0.903849
0.904061
0.903027
0.900812
0.901689
0.909584
0.918849
0.945953
0.979833
0.996542
0.99979
0.999995
1
1
1
1
1
1
1
1
1
1
1
1
1
1
1
1
1
1
1
0.903791
0.903393
0.902885
0.903122
0.903864
0.904188
0.903294
0.900818
0.901754
0.910438
0.922432
0.955536
0.985598
0.997971
0.999906
0.999998
1
1
1
1
1
1
1
1
1
1
1
1
1
1
1
1
1
1
1
0.903827
0.903577
0.903054
0.903165
0.903725
0.904207
0.903378
0.900556
0.901305
0.910787
0.929766
0.964322
0.989889
0.99892
0.99996
0.999999
1
1
1
1
1
1
1
1
1
1
1
1
1
1
1
1
1
1
1
0.903796
0.903625
0.903241
0.903345
0.903638
0.90393
0.903481
0.900645
0.901344
0.913365
0.938554
0.970988
0.993422
0.999461
0.999984
1
1
1
1
1
1
1
1
1
1
1
1
1
1
1
1
1
1
1
1
0.903482
0.903652
0.90352
0.90362
0.903685
0.903027
0.903882
0.902351
0.90316
0.919717
0.945207
0.977674
0.9961
0.999747
0.999994
1
1
1
1
1
1
1
1
1
1
1
1
1
1
1
1
1
1
1
1
0.903051
0.903601
0.903814
0.904016
0.903417
0.901961
0.903523
0.903531
0.905027
0.92393
0.952732
0.984575
0.997812
0.999891
0.999998
1
1
1
1
1
1
1
1
1
1
1
1
1
1
1
1
1
1
1
1
0.902551
0.903484
0.904137
0.904285
0.902792
0.900524
0.901483
0.90403
0.906381
0.929594
0.962988
0.98978
0.998846
0.999956
0.999999
1
1
1
1
1
1
1
1
1
1
1
1
1
1
1
1
1
1
1
1
0.902276
0.903489
0.904453
0.904498
0.902523
0.899751
0.900168
0.904244
0.910822
0.938816
0.971645
0.993436
0.999448
0.999983
1
1
1
1
1
1
1
1
1
1
1
1
1
1
1
1
1
1
1
1
1
0.902195
0.903636
0.904803
0.90463
0.90255
0.89951
0.899923
0.906798
0.917758
0.946165
0.978305
0.996166
0.999756
0.999994
1
1
1
1
1
1
1
1
1
1
1
1
1
1
1
1
1
1
1
1
1
0.902235
0.903819
0.904969
0.904707
0.902759
0.899572
0.90031
0.91009
0.92268
0.953434
0.985091
0.997988
0.999901
0.999998
1
1
1
1
1
1
1
1
1
1
1
1
1
1
1
1
1
1
1
1
1
0.902899
0.90379
0.904959
0.904212
0.902489
0.899631
0.900351
0.911221
0.928248
0.964605
0.990763
0.999013
0.999963
0.999999
1
1
1
1
1
1
1
1
1
1
1
1
1
1
1
1
1
1
1
1
1
0.903756
0.903662
0.904255
0.903181
0.902321
0.89934
0.899934
0.913036
0.939414
0.974115
0.994384
0.999555
0.999987
1
1
1
1
1
1
1
1
1
1
1
1
1
1
1
1
1
1
1
1
1
1
0.90467
0.903646
0.903681
0.90199
0.902827
0.900734
0.90109
0.920093
0.949642
0.980859
0.996893
0.99982
0.999996
1
1
1
1
1
1
1
1
1
1
1
1
1
1
1
1
1
1
1
1
1
1
0.905485
0.90385
0.902872
0.900632
0.903015
0.903267
0.904766
0.926931
0.957892
0.987454
0.998502
0.999933
0.999999
1
1
1
1
1
1
1
1
1
1
1
1
1
1
1
1
1
1
1
1
1
1
0.905925
0.90392
0.901955
0.898789
0.9004
0.904637
0.907769
0.933
0.968527
0.992815
0.999328
0.999978
1
1
1
1
1
1
1
1
1
1
1
1
1
1
1
1
1
1
1
1
1
1
1
0.90606
0.903911
0.901362
0.897486
0.898028
0.904291
0.913137
0.944989
0.978689
0.996025
0.999728
0.999993
1
1
1
1
1
1
1
1
1
1
1
1
1
1
1
1
1
1
1
1
1
1
1
0.905939
0.903862
0.901235
0.896874
0.897511
0.905096
0.922543
0.956444
0.985568
0.998011
0.999902