/*--------------------------------*- C++ -*----------------------------------*\
  =========                 |
  \\      /  F ield         | OpenFOAM: The Open Source CFD Toolbox
   \\    /   O peration     | Website:  https://openfoam.org
    \\  /    A nd           | Version:  7
     \\/     M anipulation  |
\*---------------------------------------------------------------------------*/
FoamFile
{
    version     2.0;
    format      ascii;
    class       volScalarField;
    location    "7";
    object      rho;
}
// * * * * * * * * * * * * * * * * * * * * * * * * * * * * * * * * * * * * * //

dimensions      [1 -3 0 0 0 0 0];

internalField   nonuniform List<scalar> 
90000
(
0.908031
0.946372
0.987776
1.02854
1.0681
1.10566
1.14096
1.1739
1.20373
1.23119
1.25496
1.27668
1.29454
1.3108
1.32354
1.33513
1.34368
1.35134
1.35672
1.36133
1.36481
1.36716
1.36909
1.36894
1.36681
1.3622
1.3556
1.34984
1.34461
1.34506
1.34676
1.34928
1.35211
1.3548
1.35693
1.35841
1.35924
1.3586
1.35654
1.35424
1.35267
1.35156
1.35175
1.35267
1.35453
1.35705
1.35773
1.35693
1.355
1.35332
1.35254
1.35316
1.354
1.35555
1.35574
1.35504
1.3537
1.35257
1.35279
1.35366
1.35366
1.35307
1.35208
1.35155
1.35172
1.35183
1.35151
1.3509
1.35039
1.35016
1.34978
1.34925
1.34884
1.34875
1.34848
1.34779
1.34693
1.34633
1.34588
1.34543
1.34495
1.34423
1.3433
1.34248
1.34176
1.34089
1.34005
1.33928
1.33847
1.33778
1.33706
1.33627
1.33556
1.33488
1.33427
1.3337
1.33313
1.33247
1.33202
1.33087
0.877056
0.877526
0.87891
0.881683
0.886714
0.894294
0.905524
0.9201
0.939293
0.961963
0.98932
1.01933
1.05285
1.08745
1.12313
1.15802
1.19083
1.22154
1.24742
1.2707
1.28771
1.30269
1.31211
1.32087
1.32544
1.3299
1.33347
1.33957
1.34696
1.35165
1.35479
1.35776
1.36015
1.36179
1.36134
1.36054
1.35846
1.35519
1.35226
1.35184
1.35236
1.35337
1.35537
1.35751
1.35891
1.35837
1.35705
1.35494
1.35292
1.35279
1.35324
1.35443
1.3564
1.3568
1.35598
1.35432
1.35341
1.35309
1.35356
1.35434
1.35407
1.35314
1.35242
1.35205
1.35228
1.35235
1.35196
1.35135
1.35087
1.35061
1.35022
1.34977
1.34942
1.34935
1.349
1.34819
1.34739
1.34687
1.34641
1.34595
1.34547
1.34477
1.3439
1.34314
1.34243
1.34156
1.34073
1.33998
1.33922
1.33857
1.33789
1.33712
1.33642
1.33576
1.3352
1.33469
1.33414
1.33351
1.33307
1.33197
0.877402
0.877426
0.877454
0.877488
0.877541
0.877634
0.877842
0.878267
0.879064
0.880401
0.882715
0.886329
0.892161
0.900524
0.912939
0.929211
0.951329
0.977851
1.01061
1.04672
1.08695
1.12808
1.16913
1.2088
1.24466
1.27843
1.30442
1.32552
1.33872
1.34861
1.35343
1.3562
1.35735
1.35826
1.35798
1.35578
1.35059
1.35084
1.35311
1.35553
1.35919
1.36244
1.36385
1.36289
1.36137
1.35747
1.35488
1.35363
1.35386
1.35541
1.35814
1.35964
1.35918
1.3575
1.35559
1.35446
1.35466
1.35591
1.35687
1.35632
1.35499
1.35392
1.35368
1.35406
1.35432
1.35375
1.35301
1.3526
1.35254
1.35222
1.3516
1.35113
1.35098
1.3508
1.35019
1.34935
1.34865
1.34832
1.3478
1.34727
1.34676
1.346
1.34522
1.34458
1.34381
1.34289
1.34209
1.34134
1.3406
1.33999
1.33928
1.3385
1.33782
1.33714
1.33661
1.33612
1.33555
1.33495
1.33453
1.33341
0.878182
0.878201
0.878221
0.878245
0.878273
0.878314
0.878346
0.878385
0.878429
0.878477
0.878534
0.87861
0.878728
0.878927
0.879362
0.880146
0.881555
0.883913
0.888073
0.894586
0.905292
0.920456
0.942993
0.971442
1.00897
1.05181
1.10078
1.15039
1.19643
1.23989
1.27219
1.30021
1.31576
1.32884
1.33499
1.34038
1.34598
1.35397
1.36242
1.36859
1.37191
1.37108
1.36965
1.36623
1.35953
1.3559
1.35536
1.35646
1.35971
1.36302
1.36406
1.36312
1.3599
1.35751
1.35618
1.35706
1.35913
1.36043
1.35975
1.35793
1.35604
1.35611
1.35684
1.35732
1.35663
1.35542
1.35487
1.35501
1.35497
1.35439
1.35373
1.35346
1.35336
1.35287
1.35202
1.35125
1.35083
1.3504
1.34981
1.34924
1.34862
1.34783
1.3471
1.34643
1.34558
1.34463
1.34382
1.34302
1.34229
1.34166
1.34093
1.34014
1.3394
1.33868
1.33811
1.3376
1.33699
1.33637
1.3359
1.33471
0.879136
0.879164
0.879193
0.879222
0.879251
0.879281
0.879311
0.879331
0.879347
0.879364
0.879388
0.879421
0.879464
0.879534
0.879568
0.879605
0.879646
0.8797
0.879784
0.879928
0.880217
0.880851
0.882163
0.884581
0.889335
0.897288
0.911508
0.932401
0.964388
1.00461
1.05576
1.11123
1.16772
1.22147
1.26506
1.30403
1.33006
1.34831
1.35511
1.36136
1.36444
1.36601
1.36397
1.35865
1.35812
1.35964
1.36327
1.36687
1.36905
1.36794
1.36575
1.36169
1.35969
1.35857
1.36004
1.36291
1.36355
1.36244
1.36069
1.359
1.35889
1.35985
1.36038
1.3598
1.35862
1.35775
1.35755
1.35767
1.35728
1.35663
1.35607
1.35607
1.35578
1.35507
1.35406
1.3534
1.35308
1.35256
1.35192
1.35131
1.3506
1.34974
1.34903
1.34832
1.34738
1.34636
1.34551
1.34465
1.3439
1.34323
1.34242
1.3416
1.34083
1.34006
1.33944
1.33886
1.3382
1.33756
1.33705
1.33578
0.879997
0.880017
0.880039
0.880062
0.880085
0.880109
0.880133
0.880157
0.88018
0.880203
0.880225
0.880246
0.880266
0.880284
0.880301
0.880306
0.880315
0.880332
0.880358
0.880397
0.880489
0.880502
0.880517
0.880548
0.880619
0.880784
0.881182
0.882154
0.884489
0.889167
0.89893
0.915374
0.943848
0.982901
1.03617
1.09705
1.15945
1.22003
1.26249
1.29986
1.31837
1.3362
1.34315
1.35046
1.36102
1.37059
1.37681
1.37676
1.37538
1.37047
1.36272
1.35932
1.35989
1.36275
1.36612
1.36759
1.36626
1.36349
1.36063
1.36051
1.3618
1.36313
1.36246
1.36116
1.35998
1.35982
1.36004
1.35975
1.35903
1.35833
1.35805
1.358
1.35752
1.35655
1.3557
1.3552
1.35486
1.35423
1.35355
1.35291
1.3521
1.35122
1.35052
1.34973
1.34871
1.34772
1.34683
1.34588
1.34508
1.34436
1.34351
1.34269
1.34186
1.34104
1.34038
1.33975
1.33904
1.33836
1.33781
1.33647
0.880618
0.88063
0.880643
0.880656
0.88067
0.880684
0.880697
0.880711
0.880725
0.880738
0.880752
0.880767
0.88078
0.880794
0.880807
0.88082
0.88083
0.88084
0.880847
0.880855
0.880858
0.880862
0.88087
0.880882
0.880902
0.880935
0.881035
0.881023
0.881032
0.881082
0.881263
0.88178
0.883319
0.88688
0.895448
0.911058
0.940826
0.983086
1.04346
1.11008
1.17868
1.24138
1.2912
1.32903
1.35209
1.36258
1.36753
1.37028
1.36708
1.35924
1.36039
1.36228
1.36647
1.3706
1.36983
1.36741
1.36325
1.36104
1.36106
1.36328
1.36513
1.36429
1.36285
1.36146
1.36101
1.36167
1.36159
1.3607
1.35993
1.35945
1.35959
1.35929
1.35841
1.35732
1.35659
1.35638
1.35597
1.35524
1.35456
1.35387
1.35298
1.35213
1.35144
1.35055
1.34942
1.34846
1.34756
1.34658
1.34577
1.34497
1.34406
1.34325
1.34241
1.34154
1.34083
1.34015
1.33944
1.33878
1.3382
1.33678
0.880969
0.880974
0.88098
0.880986
0.880993
0.880999
0.881005
0.881011
0.881018
0.881024
0.881031
0.881037
0.881043
0.88105
0.881056
0.881062
0.881068
0.881073
0.881079
0.881084
0.88109
0.881096
0.8811
0.881104
0.881106
0.881109
0.881109
0.88112
0.881135
0.881156
0.881209
0.881197
0.881202
0.881234
0.88137
0.881829
0.883373
0.887259
0.897506
0.916801
0.954199
1.00616
1.07747
1.15207
1.22102
1.2764
1.30636
1.33419
1.34115
1.35259
1.36576
1.37257
1.3776
1.37656
1.37173
1.36312
1.35967
1.3605
1.36379
1.36769
1.36692
1.36437
1.36133
1.36129
1.36223
1.36313
1.36228
1.36096
1.36011
1.36028
1.36035
1.3597
1.35849
1.35766
1.35724
1.357
1.35643
1.35571
1.35509
1.35436
1.3534
1.35258
1.35186
1.35094
1.34981
1.34888
1.34794
1.34693
1.34611
1.34528
1.34436
1.34357
1.34273
1.34185
1.34109
1.34036
1.33967
1.33906
1.33846
1.33699
0.88113
0.881132
0.881134
0.881137
0.881139
0.881141
0.881144
0.881146
0.881149
0.881151
0.881154
0.881156
0.881158
0.881161
0.881164
0.881166
0.881169
0.881172
0.881174
0.881177
0.88118
0.881183
0.881187
0.88119
0.881193
0.881196
0.881199
0.881202
0.881206
0.881211
0.881215
0.881229
0.881245
0.881261
0.881295
0.881287
0.881293
0.881333
0.881526
0.882221
0.884649
0.890994
0.906912
0.937822
0.989966
1.06241
1.14258
1.22282
1.28313
1.33243
1.35707
1.36378
1.36913
1.36821
1.35946
1.35929
1.36179
1.36651
1.36949
1.36821
1.3641
1.36048
1.36054
1.36225
1.36398
1.36356
1.36209
1.36064
1.3605
1.36117
1.36085
1.35973
1.35825
1.35772
1.35781
1.35747
1.35665
1.35591
1.35537
1.35458
1.3536
1.35285
1.35208
1.35102
1.3499
1.34906
1.3481
1.3471
1.34625
1.34534
1.34441
1.34368
1.34286
1.34201
1.34126
1.34048
1.33975
1.33917
1.33857
1.33709
0.881192
0.881192
0.881193
0.881193
0.881194
0.881194
0.881195
0.881196
0.881197
0.881197
0.881198
0.881198
0.881199
0.8812
0.881201
0.881202
0.881203
0.881205
0.881206
0.881208
0.88121
0.881212
0.881214
0.881216
0.881219
0.881222
0.881226
0.881229
0.881234
0.881238
0.881241
0.881247
0.881251
0.881257
0.881261
0.881273
0.881284
0.881301
0.881296
0.881293
0.881307
0.881406
0.88185
0.883522
0.888787
0.902866
0.934711
0.986878
1.06741
1.15463
1.23394
1.28586
1.31953
1.33778
1.34819
1.36158
1.37304
1.37603
1.37392
1.36616
1.35856
1.35902
1.3619
1.36538
1.36482
1.36242
1.36038
1.36047
1.36192
1.36184
1.36076
1.35871
1.358
1.35818
1.35812
1.35764
1.35684
1.35617
1.35554
1.3547
1.35378
1.35309
1.35224
1.35109
1.35001
1.34917
1.34817
1.34718
1.34633
1.34536
1.34442
1.34371
1.3429
1.34206
1.3413
1.34048
1.33976
1.33921
1.3386
1.33707
0.881224
0.881223
0.881222
0.881222
0.881221
0.881221
0.88122
0.88122
0.88122
0.881219
0.881219
0.881218
0.881218
0.881218
0.881218
0.881219
0.881219
0.88122
0.881221
0.881223
0.881225
0.881227
0.881228
0.88123
0.881233
0.881236
0.881239
0.881242
0.881246
0.88125
0.881254
0.881257
0.881261
0.881263
0.881264
0.881266
0.881267
0.881269
0.881271
0.881273
0.881273
0.881266
0.881257
0.881268
0.881344
0.881722
0.883363
0.888599
0.905176
0.939116
1.00416
1.09155
1.18008
1.26433
1.32054
1.35314
1.36293
1.36885
1.36382
1.35584
1.3584
1.36354
1.36747
1.36617
1.36271
1.35943
1.35959
1.36209
1.36329
1.3621
1.35903
1.35772
1.35818
1.35873
1.35832
1.35747
1.35678
1.35641
1.3557
1.35465
1.35388
1.35325
1.35234
1.35106
1.35013
1.34924
1.34819
1.34723
1.34635
1.34531
1.34443
1.34376
1.34293
1.3421
1.34131
1.34046
1.33979
1.33926
1.33863
1.33705
0.881254
0.881253
0.881252
0.881251
0.881251
0.88125
0.881249
0.881249
0.881248
0.881248
0.881247
0.881246
0.881246
0.881246
0.881246
0.881246
0.881247
0.881248
0.881249
0.881251
0.881252
0.881253
0.881254
0.881255
0.881257
0.881258
0.881259
0.881261
0.881262
0.881263
0.881264
0.881265
0.881265
0.881265
0.881263
0.881262
0.881263
0.88126
0.881257
0.881255
0.881253
0.88125
0.881251
0.881246
0.881238
0.881237
0.881251
0.881341
0.881821
0.883749
0.891482
0.911769
0.959664
1.03617
1.13387
1.22849
1.28302
1.32641
1.33757
1.35262
1.3654
1.37416
1.3724
1.36642
1.35805
1.35843
1.36142
1.36496
1.3637
1.35968
1.35753
1.358
1.35938
1.35908
1.35812
1.35726
1.35707
1.35667
1.35566
1.35465
1.35407
1.35338
1.35228
1.3511
1.35027
1.34927
1.34814
1.34724
1.34634
1.34528
1.34446
1.34379
1.34297
1.34215
1.34133
1.34047
1.33983
1.33932
1.33867
1.33705
0.881285
0.881284
0.881284
0.881283
0.881283
0.881283
0.881283
0.881282
0.881282
0.881282
0.881282
0.881282
0.881282
0.881282
0.881283
0.881283
0.881284
0.881285
0.881286
0.881287
0.881287
0.881287
0.881287
0.881286
0.881285
0.881283
0.881282
0.881281
0.881279
0.881276
0.881275
0.881272
0.88127
0.881267
0.881264
0.88126
0.881258
0.881255
0.881252
0.88125
0.88125
0.881251
0.881253
0.881258
0.881267
0.881273
0.881282
0.881287
0.881296
0.881322
0.881475
0.882207
0.885824
0.897321
0.932298
0.996333
1.09376
1.19726
1.27817
1.33806
1.35658
1.36677
1.3637
1.35492
1.35721
1.36289
1.367
1.36581
1.35997
1.35648
1.35705
1.36036
1.36017
1.35898
1.35762
1.35731
1.35748
1.35685
1.35556
1.35468
1.35428
1.3535
1.35226
1.35126
1.35043
1.3493
1.34812
1.34725
1.34633
1.3453
1.34454
1.34383
1.34301
1.34222
1.34137
1.34049
1.33988
1.33937
1.3387
1.33705
0.881322
0.881322
0.881322
0.881323
0.881323
0.881323
0.881323
0.881323
0.881324
0.881324
0.881324
0.881323
0.881323
0.881323
0.881323
0.881322
0.881322
0.881321
0.88132
0.881319
0.881317
0.881315
0.881312
0.881309
0.881304
0.881299
0.881295
0.881291
0.881288
0.881284
0.881279
0.881276
0.881272
0.881269
0.881265
0.881262
0.881261
0.881261
0.881263
0.881268
0.881276
0.881285
0.881296
0.881311
0.88133
0.881339
0.881345
0.881353
0.881359
0.881364
0.881356
0.881354
0.881389
0.881662
0.88341
0.890416
0.915633
0.968691
1.06358
1.17281
1.25418
1.31353
1.33099
1.34663
1.36382
1.37427
1.37182
1.36234
1.35486
1.35613
1.36035
1.3624
1.36052
1.35786
1.3574
1.35838
1.35803
1.35666
1.3555
1.35501
1.35454
1.35356
1.35236
1.35159
1.3506
1.34924
1.34813
1.3473
1.34634
1.34537
1.34468
1.34391
1.34305
1.34228
1.34142
1.34054
1.33996
1.33941
1.33869
1.33704
0.881365
0.881365
0.881365
0.881365
0.881364
0.881364
0.881364
0.881363
0.881362
0.881361
0.88136
0.881358
0.881356
0.881354
0.881351
0.881348
0.881345
0.881341
0.881337
0.881333
0.881328
0.881323
0.881319
0.881313
0.881308
0.881302
0.881295
0.88129
0.881287
0.881283
0.881278
0.881276
0.881275
0.881275
0.881275
0.881276
0.881279
0.881285
0.881294
0.881305
0.881321
0.881339
0.881359
0.88138
0.881406
0.881424
0.88143
0.881431
0.881429
0.881419
0.881397
0.881371
0.881341
0.881303
0.881306
0.881426
0.882404
0.886951
0.905722
0.952141
1.04259
1.15246
1.25418
1.32541
1.35437
1.36501
1.36094
1.35246
1.35611
1.36304
1.36511
1.36203
1.35728
1.3569
1.3589
1.35938
1.35803
1.35599
1.3554
1.35545
1.35488
1.35365
1.35259
1.35192
1.35076
1.3492
1.34817
1.34736
1.34638
1.34553
1.34486
1.344
1.34311
1.34234
1.34145
1.3406
1.34004
1.33945
1.33868
1.33703
0.881397
0.881397
0.881396
0.881395
0.881393
0.881392
0.88139
0.881388
0.881387
0.881384
0.881382
0.881379
0.881376
0.881373
0.881368
0.881363
0.881358
0.881353
0.881347
0.881341
0.881334
0.881329
0.881322
0.881316
0.881309
0.881302
0.881296
0.88129
0.881285
0.881281
0.88128
0.881279
0.88128
0.881282
0.881285
0.881289
0.881296
0.881307
0.881322
0.881342
0.881367
0.881395
0.881421
0.881445
0.881472
0.881496
0.881504
0.881503
0.881498
0.881478
0.881442
0.881396
0.881348
0.881301
0.881269
0.881262
0.881266
0.881339
0.881948
0.885345
0.900296
0.942613
1.03128
1.14484
1.24413
1.30417
1.33071
1.34606
1.36582
1.37341
1.36905
1.35674
1.35564
1.35815
1.3617
1.3601
1.35646
1.35549
1.35603
1.35586
1.35482
1.35365
1.35311
1.35228
1.35073
1.3492
1.34829
1.34744
1.34647
1.34576
1.34506
1.34409
1.34318
1.3424
1.34149
1.34068
1.34014
1.33947
1.33867
1.33704
0.881413
0.881412
0.881411
0.881409
0.881407
0.881405
0.881403
0.8814
0.881398
0.881396
0.881392
0.881389
0.881386
0.881383
0.881378
0.881372
0.881367
0.881362
0.881356
0.881349
0.881343
0.881337
0.881329
0.881323
0.881317
0.881311
0.881305
0.881299
0.881294
0.881291
0.88129
0.881289
0.881289
0.881292
0.881297
0.881306
0.881321
0.88134
0.881359
0.881382
0.881406
0.881431
0.881455
0.881478
0.881502
0.881524
0.881539
0.881541
0.881533
0.881514
0.881481
0.881436
0.881383
0.881326
0.881278
0.881262
0.881264
0.881278
0.881316
0.881408
0.881901
0.884728
0.897796
0.939947
1.02666
1.14101
1.25693
1.3253
1.35689
1.36442
1.3558
1.35277
1.35867
1.36408
1.36291
1.35712
1.3548
1.35575
1.35706
1.35612
1.35454
1.3538
1.35359
1.35258
1.35066
1.34929
1.34846
1.34752
1.34657
1.34602
1.34524
1.34417
1.34328
1.34248
1.34155
1.34078
1.34023
1.3395
1.33866
1.33706
0.881413
0.881411
0.881409
0.881406
0.881403
0.881401
0.881399
0.881396
0.881394
0.881393
0.881389
0.881387
0.881386
0.881384
0.88138
0.881378
0.881376
0.881373
0.881368
0.881364
0.881359
0.881354
0.88135
0.881345
0.881342
0.881338
0.881335
0.881331
0.881328
0.881326
0.881325
0.881322
0.881324
0.881331
0.881341
0.881355
0.881372
0.881386
0.8814
0.881416
0.881432
0.881448
0.881467
0.881486
0.881502
0.881517
0.881536
0.881547
0.881538
0.881521
0.881502
0.881475
0.881436
0.881388
0.881334
0.881297
0.881292
0.881303
0.881332
0.881384
0.881447
0.881546
0.881939
0.884609
0.896931
0.940683
1.03095
1.15163
1.25844
1.30849
1.33379
1.35345
1.37146
1.36932
1.36022
1.35337
1.35514
1.35859
1.35788
1.35526
1.3542
1.35454
1.35409
1.35244
1.35062
1.34959
1.34866
1.34758
1.34682
1.34627
1.34538
1.34426
1.3434
1.34254
1.34162
1.34091
1.34032
1.3395
1.33865
1.33709
0.881374
0.881373
0.881373
0.881374
0.881374
0.881375
0.881375
0.881375
0.881376
0.881376
0.881377
0.881377
0.881378
0.881379
0.88138
0.881381
0.881383
0.881384
0.881384
0.881385
0.881386
0.881388
0.881392
0.881395
0.881399
0.881403
0.881407
0.881411
0.881414
0.881417
0.881419
0.881417
0.88142
0.881427
0.881431
0.881437
0.881442
0.881443
0.881443
0.881444
0.881447
0.881449
0.881448
0.881447
0.881449
0.881455
0.881469
0.881487
0.881501
0.881506
0.88151
0.881508
0.881498
0.881478
0.881441
0.881394
0.881363
0.881362
0.88137
0.881387
0.881413
0.881474
0.881532
0.881571
0.881888
0.884688
0.897982
0.947823
1.04317
1.16737
1.2829
1.33896
1.36191
1.35969
1.35076
1.35501
1.3617
1.36064
1.35639
1.35372
1.3543
1.35544
1.3543
1.35211
1.35064
1.34996
1.34883
1.34767
1.34712
1.34647
1.3454
1.34431
1.34352
1.34259
1.34168
1.34104
1.34039
1.33948
1.33864
1.33713
0.881334
0.881336
0.881338
0.881339
0.881342
0.881344
0.881347
0.881349
0.881352
0.881355
0.881359
0.881362
0.881366
0.881371
0.881377
0.881384
0.881392
0.8814
0.881409
0.88142
0.881432
0.881444
0.881457
0.881469
0.881481
0.881493
0.881504
0.881517
0.881529
0.881536
0.881539
0.881542
0.881543
0.881541
0.881535
0.881525
0.881513
0.881498
0.881481
0.881463
0.881445
0.881426
0.881407
0.881397
0.881393
0.881392
0.881394
0.881408
0.881436
0.881474
0.881515
0.881552
0.881568
0.881571
0.881564
0.881534
0.881485
0.881435
0.881398
0.881385
0.88138
0.881394
0.881436
0.881501
0.881512
0.881543
0.881903
0.885299
0.901594
0.958452
1.06713
1.19058
1.28533
1.32038
1.3413
1.36524
1.36839
1.36286
1.35258
1.35352
1.35696
1.35635
1.35342
1.35164
1.35131
1.35043
1.34897
1.34789
1.34749
1.34666
1.34541
1.34438
1.34365
1.34264
1.34174
1.34114
1.34041
1.3394
1.33863
1.33719
0.881321
0.881324
0.881326
0.881328
0.881331
0.881334
0.881338
0.881341
0.881345
0.881349
0.881355
0.881362
0.88137
0.88138
0.881391
0.881402
0.881414
0.881428
0.881443
0.881459
0.881475
0.881492
0.881508
0.881524
0.881539
0.881554
0.881569
0.881583
0.881597
0.88161
0.881615
0.881617
0.881617
0.881614
0.881605
0.881588
0.881566
0.881539
0.881508
0.881474
0.88144
0.881408
0.881379
0.881364
0.88136
0.881358
0.88136
0.881372
0.881402
0.881449
0.881509
0.881573
0.881625
0.881641
0.881643
0.881635
0.881597
0.881522
0.881426
0.881361
0.881344
0.881341
0.88136
0.881433
0.88151
0.881564
0.881547
0.881565
0.882054
0.886626
0.908585
0.977971
1.09442
1.22722
1.31592
1.35309
1.36022
1.3493
1.35195
1.35977
1.3595
1.35552
1.35156
1.35171
1.35204
1.35066
1.34895
1.34825
1.34777
1.34671
1.34529
1.34451
1.34373
1.34268
1.34185
1.34121
1.34041
1.33932
1.33864
1.33726
0.88133
0.881333
0.881335
0.88134
0.881344
0.881347
0.881352
0.881358
0.881363
0.88137
0.881377
0.881385
0.881394
0.881403
0.881413
0.881422
0.881433
0.881445
0.881458
0.881474
0.88149
0.881506
0.881522
0.881538
0.881554
0.881569
0.881584
0.881597
0.881608
0.881617
0.881625
0.88163
0.88163
0.881627
0.881619
0.881606
0.881587
0.881562
0.881531
0.881496
0.881458
0.881419
0.881379
0.881352
0.881345
0.881344
0.881348
0.881361
0.881391
0.881437
0.881498
0.881567
0.88163
0.881665
0.88167
0.881664
0.881636
0.881573
0.88147
0.881357
0.881315
0.88131
0.88132
0.88138
0.881496
0.881583
0.881602
0.881611
0.881549
0.881583
0.882462
0.889177
0.920448
1.00539
1.13512
1.24862
1.31136
1.33264
1.35876
1.36903
1.36266
1.3505
1.35103
1.35384
1.3529
1.35036
1.34889
1.349
1.34822
1.3465
1.34527
1.34471
1.34382
1.34269
1.34197
1.34126
1.34031
1.33928
1.33864
1.33729
0.881391
0.881391
0.881393
0.881396
0.881396
0.881397
0.8814
0.881402
0.881404
0.881405
0.881407
0.88141
0.881415
0.881422
0.881429
0.881434
0.881441
0.881449
0.881456
0.881464
0.881474
0.881485
0.881497
0.881509
0.881523
0.881537
0.88155
0.881562
0.881574
0.881584
0.881595
0.881607
0.881609
0.881604
0.881597
0.881591
0.881583
0.881572
0.881557
0.881538
0.881514
0.881486
0.881453
0.881419
0.88139
0.881376
0.881377
0.881385
0.881402
0.881433
0.881478
0.881533
0.881597
0.881652
0.881664
0.881653
0.881623
0.881577
0.881506
0.881405
0.88132
0.8813
0.881309
0.881359
0.881466
0.881582
0.881618
0.881621
0.881594
0.881527
0.88151
0.881655
0.88333
0.89414
0.94045
1.04149
1.18
1.29161
1.34824
1.3591
1.34757
1.34928
1.35642
1.35614
1.35213
1.34891
1.34933
1.34955
1.34805
1.34598
1.34558
1.345
1.34383
1.34267
1.3421
1.3413
1.34023
1.33925
1.33879
1.33742
0.881476
0.881471
0.881466
0.88146
0.881453
0.881446
0.881441
0.881437
0.881433
0.881429
0.881427
0.881424
0.88142
0.881415
0.881409
0.881404
0.881401
0.881399
0.881397
0.881396
0.881395
0.881396
0.8814
0.881405
0.881413
0.881422
0.881433
0.881446
0.881461
0.881478
0.881496
0.881514
0.881535
0.881558
0.881574
0.881581
0.881589
0.881596
0.881601
0.881603
0.881603
0.881598
0.881586
0.881567
0.88154
0.881508
0.881478
0.881454
0.88144
0.881438
0.881443
0.881462
0.881499
0.881554
0.881598
0.881605
0.881594
0.881568
0.88153
0.881478
0.881406
0.88135
0.881347
0.881373
0.881444
0.881551
0.881614
0.881617
0.881599
0.881547
0.881508
0.881521
0.881585
0.881985
0.885185
0.903654
0.967333
1.0936
1.2248
1.29651
1.32729
1.35435
1.36515
1.35894
1.34779
1.34877
1.35133
1.35007
1.34703
1.34575
1.34601
1.3453
1.34381
1.34276
1.34222
1.34127
1.34021
1.33947
1.3389
1.33746
0.881517
0.88151
0.881503
0.881495
0.881486
0.881476
0.881463
0.881451
0.881438
0.881425
0.881413
0.881402
0.88139
0.881378
0.881367
0.881356
0.881347
0.88134
0.881334
0.881327
0.881322
0.88132
0.88132
0.881321
0.881325
0.881332
0.881342
0.881356
0.881374
0.881395
0.881419
0.881445
0.881473
0.881505
0.881542
0.88158
0.88161
0.881632
0.881649
0.881664
0.881676
0.881679
0.881679
0.881676
0.881661
0.88163
0.881585
0.881533
0.881482
0.881432
0.881395
0.881383
0.881381
0.8814
0.881445
0.881494
0.881534
0.881554
0.881559
0.881554
0.88153
0.881484
0.881437
0.881426
0.881443
0.881493
0.881561
0.881588
0.881584
0.88156
0.881542
0.881579
0.881673
0.881762
0.881871
0.882615
0.888504
0.921488
1.00888
1.14714
1.27839
1.33874
1.35595
1.34442
1.34626
1.35422
1.35326
1.34823
1.34574
1.34666
1.34651
1.34504
1.34352
1.34311
1.34242
1.34119
1.34012
1.33971
1.33908
1.33748
0.881514
0.881505
0.881495
0.881487
0.881479
0.881467
0.881457
0.881446
0.881433
0.881419
0.881406
0.881394
0.881379
0.881365
0.881354
0.881343
0.881334
0.881327
0.881321
0.881316
0.881311
0.881305
0.881304
0.881308
0.881313
0.881321
0.881331
0.881344
0.881361
0.881384
0.881409
0.881436
0.881468
0.881504
0.881543
0.881584
0.881625
0.881657
0.881678
0.881692
0.881702
0.881707
0.881707
0.881704
0.881693
0.881667
0.881624
0.88157
0.881509
0.88144
0.88137
0.881333
0.881326
0.881329
0.881354
0.881406
0.881475
0.881547
0.881592
0.881607
0.881608
0.881592
0.881541
0.881474
0.881447
0.881447
0.881474
0.881524
0.881561
0.881585
0.88163
0.881711
0.88181
0.881856
0.88188
0.881862
0.881957
0.883593
0.895631
0.94942
1.06917
1.20058
1.29611
1.32233
1.35069
1.36075
1.35462
1.3446
1.34599
1.3485
1.34692
1.34416
1.34345
1.34355
1.34256
1.34122
1.34036
1.33993
1.33919
1.33749
0.881486
0.88148
0.881473
0.881467
0.881464
0.881461
0.881457
0.881454
0.881451
0.881447
0.881443
0.88144
0.881436
0.881432
0.881426
0.88142
0.881416
0.881413
0.88141
0.881408
0.881406
0.881402
0.8814
0.881403
0.881407
0.881408
0.881412
0.88142
0.881429
0.881446
0.881471
0.881499
0.881525
0.881546
0.881566
0.881591
0.881617
0.881641
0.881661
0.88168
0.881697
0.881698
0.881689
0.881678
0.881663
0.881641
0.881613
0.881573
0.88152
0.881455
0.881388
0.881341
0.881329
0.881335
0.88136
0.88141
0.881471
0.881529
0.88159
0.881635
0.88164
0.881631
0.88159
0.881513
0.881446
0.88143
0.881438
0.881484
0.881564
0.881661
0.881773
0.881853
0.881891
0.881889
0.881876
0.881799
0.881622
0.881456
0.881799
0.886092
0.91182
0.995435
1.13462
1.26564
1.33808
1.35045
1.33988
1.34351
1.35142
1.3501
1.34502
1.34313
1.34443
1.34397
1.34238
1.34112
1.34082
1.34014
1.33922
1.33744
0.881491
0.881499
0.881503
0.881508
0.881515
0.881522
0.881528
0.881536
0.881543
0.88155
0.881559
0.88157
0.88158
0.881588
0.881595
0.881602
0.881607
0.881612
0.881619
0.881626
0.881632
0.881636
0.881638
0.881641
0.881641
0.881638
0.88163
0.881622
0.881615
0.881606
0.881596
0.881585
0.881579
0.881579
0.881581
0.881577
0.88157
0.881555
0.881543
0.881539
0.881537
0.88152
0.881508
0.881507
0.881511
0.881514
0.881517
0.881521
0.881515
0.881502
0.881489
0.881473
0.881454
0.88145
0.881464
0.881486
0.881505
0.881516
0.881538
0.881588
0.881632
0.881631
0.881599
0.881534
0.881463
0.881435
0.881443
0.881505
0.881649
0.88179
0.881895
0.881924
0.881918
0.881894
0.881805
0.881632
0.881421
0.881253
0.881229
0.881338
0.88271
0.893413
0.941365
1.06166
1.20306
1.28547
1.32021
1.35068
1.3573
1.35102
1.3421
1.34359
1.34571
1.34405
1.34185
1.34152
1.34128
1.3403
1.3391
1.33735
0.881561
0.88157
0.88158
0.881593
0.881602
0.881611
0.881623
0.881632
0.88164
0.881651
0.881662
0.881674
0.881686
0.881697
0.881707
0.881715
0.881723
0.88173
0.881738
0.881748
0.881763
0.881778
0.881784
0.881785
0.881786
0.881785
0.881778
0.881765
0.881746
0.881722
0.881697
0.881669
0.881639
0.881609
0.881572
0.881531
0.881488
0.881434
0.881397
0.881369
0.881344
0.881334
0.881332
0.881347
0.881387
0.881427
0.881461
0.8815
0.881545
0.881598
0.881638
0.881653
0.88166
0.881656
0.881635
0.881595
0.881535
0.881489
0.881472
0.881479
0.881525
0.881565
0.881558
0.881537
0.881507
0.881511
0.88156
0.881684
0.881819
0.881915
0.88195
0.881946
0.881905
0.881788
0.881619
0.881448
0.881311
0.881236
0.881292
0.881489
0.881589
0.88197
0.885518
0.911003
0.991581
1.13355
1.27038
1.33426
1.34808
1.33729
1.34152
1.34875
1.34684
1.34246
1.34135
1.34236
1.34169
1.34004
1.33899
1.33729
0.8816
0.881606
0.881619
0.881631
0.881636
0.881643
0.881652
0.881659
0.881667
0.881675
0.881684
0.881694
0.881703
0.881713
0.881721
0.881729
0.881735
0.881742
0.881748
0.881753
0.881761
0.88178
0.881788
0.881787
0.881792
0.881797
0.881797
0.881791
0.881775
0.88175
0.881713
0.881671
0.881631
0.881594
0.881554
0.8815
0.881445
0.881395
0.881335
0.881305
0.8813
0.881292
0.881294
0.881321
0.881378
0.881437
0.881497
0.881558
0.881617
0.881679
0.881737
0.881755
0.881758
0.881751
0.881718
0.881651
0.881545
0.881448
0.881417
0.881413
0.881437
0.881502
0.881541
0.881571
0.881625
0.881703
0.881803
0.881898
0.881955
0.881966
0.881952
0.881873
0.881709
0.881546
0.881428
0.881362
0.881281
0.881328
0.881477
0.881693
0.881742
0.881706
0.881652
0.882649
0.892537
0.944132
1.06588
1.20156
1.29303
1.32052
1.3502
1.35339
1.34721
1.34098
1.34258
1.34323
1.34153
1.33969
1.33899
1.3373
0.8816
0.881583
0.88158
0.881586
0.881587
0.88158
0.881578
0.881582
0.881582
0.881576
0.881574
0.881572
0.881568
0.881569
0.881566
0.881562
0.881565
0.881561
0.881559
0.881567
0.881565
0.881554
0.88156
0.881569
0.88155
0.881536
0.881554
0.881572
0.881577
0.881588
0.881605
0.881607
0.881598
0.881578
0.881554
0.881532
0.881499
0.881458
0.881423
0.881413
0.881404
0.881381
0.881379
0.881423
0.881505
0.88157
0.881618
0.881647
0.881665
0.881707
0.881755
0.881766
0.88176
0.881739
0.881694
0.881618
0.881514
0.88143
0.881408
0.881411
0.881433
0.881499
0.881623
0.881732
0.881813
0.881899
0.881977
0.882001
0.881998
0.881954
0.881828
0.881606
0.881389
0.881324
0.881341
0.881349
0.881425
0.881591
0.88172
0.881808
0.881787
0.881696
0.881459
0.880948
0.881074
0.885053
0.912005
1.00116
1.14986
1.27603
1.3411
1.34374
1.33599
1.34225
1.346
1.34339
1.34002
1.33937
1.33888
1.33714
0.881468
0.88143
0.881418
0.881421
0.881411
0.881399
0.881389
0.88138
0.881373
0.881359
0.881344
0.881342
0.881342
0.881335
0.881334
0.881328
0.881331
0.881345
0.881347
0.881356
0.881369
0.881362
0.881357
0.881384
0.881396
0.881388
0.881407
0.881456
0.8815
0.881539
0.881587
0.88162
0.881616
0.881623
0.881679
0.88172
0.881714
0.881698
0.881694
0.881698
0.881699
0.881686
0.88167
0.881706
0.881742
0.881746
0.881731
0.881692
0.881678
0.88167
0.881651
0.881612
0.881573
0.881544
0.88152
0.881495
0.881463
0.881436
0.881443
0.881487
0.881576
0.88172
0.881871
0.881929
0.881941
0.881981
0.882017
0.88201
0.881925
0.881761
0.881547
0.881315
0.88123
0.881249
0.881327
0.881511
0.881768
0.881889
0.88188
0.881851
0.881753
0.881512
0.88114
0.880759
0.880421
0.880469
0.881922
0.894679
0.952026
1.08445
1.22884
1.29193
1.32305
1.35256
1.34975
1.34066
1.33928
1.34035
1.33918
1.33692
0.881323
0.88131
0.881283
0.881268
0.881269
0.881286
0.881295
0.881287
0.881277
0.881268
0.881265
0.881264
0.881262
0.881264
0.881272
0.881272
0.881281
0.881308
0.881323
0.881342
0.88136
0.881356
0.881355
0.881397
0.881436
0.881449
0.881493
0.881554
0.88159
0.881637
0.881734
0.881759
0.881757
0.881818
0.881879
0.88185
0.881811
0.881819
0.881856
0.881869
0.881853
0.881841
0.881873
0.881883
0.881833
0.881799
0.881788
0.881731
0.881623
0.881569
0.881549
0.881491
0.881399
0.881374
0.881373
0.881394
0.881459
0.881575
0.88173
0.881854
0.881945
0.882046
0.88206
0.882029
0.881986
0.881939
0.881885
0.881771
0.881601
0.881452
0.88131
0.881225
0.881215
0.881286
0.881525
0.881859
0.882043
0.882026
0.88196
0.881785
0.881487
0.881161
0.880903
0.880628
0.880604
0.88069
0.880698
0.881106
0.886022
0.921061
1.02161
1.17848
1.29097
1.34142
1.33896
1.33705
1.3421
1.34179
1.33802
1.33642
0.881294
0.881291
0.881266
0.881259
0.881272
0.881299
0.881327
0.881354
0.881379
0.881405
0.881432
0.881463
0.881503
0.881549
0.881568
0.881576
0.881596
0.881639
0.881664
0.881664
0.881649
0.881676
0.881697
0.881679
0.881686
0.881734
0.881792
0.881845
0.881856
0.881867
0.881901
0.881901
0.881879
0.881911
0.881924
0.881838
0.881784
0.881789
0.881815
0.881809
0.881761
0.881772
0.881843
0.881839
0.881774
0.881743
0.881711
0.881616
0.88153
0.881528
0.881534
0.881486
0.881374
0.881326
0.881365
0.881488
0.881664
0.881909
0.882104
0.882172
0.882173
0.88217
0.882126
0.881992
0.881774
0.881588
0.881454
0.881321
0.881248
0.881245
0.881239
0.881257
0.881369
0.881622
0.881921
0.88213
0.882126
0.882075
0.881857
0.881488
0.881103
0.880939
0.880782
0.880815
0.880925
0.88091
0.880773
0.880425
0.880266
0.882199
0.899831
0.974869
1.11451
1.24915
1.29977
1.33195
1.34933
1.34373
1.33594
1.3373
0.881641
0.881656
0.881664
0.881685
0.88172
0.881744
0.881769
0.881806
0.881846
0.881888
0.88194
0.882001
0.882055
0.882103
0.882146
0.882169
0.882171
0.882176
0.882212
0.882228
0.882197
0.882194
0.882194
0.882149
0.882107
0.882076
0.882042
0.881995
0.881951
0.881934
0.881911
0.881863
0.881852
0.881851
0.881804
0.881683
0.881546
0.881501
0.881494
0.881456
0.881394
0.881396
0.88147
0.881521
0.881537
0.881581
0.88161
0.881548
0.881529