/*--------------------------------*- C++ -*----------------------------------*\
  =========                 |
  \\      /  F ield         | OpenFOAM: The Open Source CFD Toolbox
   \\    /   O peration     | Website:  https://openfoam.org
    \\  /    A nd           | Version:  7
     \\/     M anipulation  |
\*---------------------------------------------------------------------------*/
FoamFile
{
    version     2.0;
    format      ascii;
    class       volVectorField;
    location    "7";
    object      U;
}
// * * * * * * * * * * * * * * * * * * * * * * * * * * * * * * * * * * * * * //

dimensions      [0 1 -1 0 0 0 0];

internalField   nonuniform List<vector> 
90000
(
(2.14325 -0.376961 0)
(2.12389 -0.345253 0)
(2.10182 -0.300181 0)
(2.08843 -0.27177 0)
(2.07132 -0.229883 0)
(2.06323 -0.207389 0)
(2.05001 -0.170955 0)
(2.04524 -0.154081 0)
(2.03493 -0.123907 0)
(2.03202 -0.112138 0)
(2.02417 -0.0886578 0)
(2.02217 -0.0813651 0)
(2.01658 -0.0644979 0)
(2.01506 -0.0607323 0)
(2.01153 -0.0499133 0)
(2.01064 -0.0485073 0)
(2.00852 -0.0418122 0)
(2.00827 -0.0415413 0)
(2.00686 -0.0375681 0)
(2.00701 -0.0372434 0)
(2.00532 -0.0345596 0)
(2.00532 -0.0328049 0)
(2.00303 -0.0300968 0)
(2.00232 -0.0264457 0)
(2.00013 -0.0228424 0)
(1.9985 -0.0173094 0)
(1.99746 -0.0130797 0)
(1.99834 -0.0074818 0)
(1.99924 -0.00574273 0)
(1.99913 -0.00586539 0)
(1.99842 -0.00630857 0)
(1.99737 -0.00740504 0)
(1.99646 -0.00849949 0)
(1.99581 -0.01036 0)
(1.99593 -0.0112225 0)
(1.99604 -0.0123229 0)
(1.99684 -0.0121989 0)
(1.99742 -0.0121073 0)
(1.99873 -0.0113344 0)
(1.99981 -0.0105583 0)
(2.00012 -0.00978157 0)
(2.00095 -0.0102927 0)
(2.00097 -0.0106352 0)
(2.00069 -0.0112933 0)
(2.00008 -0.0126261 0)
(1.99887 -0.01346 0)
(1.9992 -0.0137896 0)
(1.99963 -0.0136447 0)
(2.00049 -0.0128096 0)
(2.00093 -0.0121684 0)
(2.00141 -0.0120522 0)
(2.0014 -0.0120701 0)
(2.00115 -0.0129733 0)
(2.00066 -0.0137681 0)
(2.00105 -0.014424 0)
(2.0014 -0.014236 0)
(2.0018 -0.0137468 0)
(2.00236 -0.0135499 0)
(2.00237 -0.0136207 0)
(2.00212 -0.0139587 0)
(2.00226 -0.0146413 0)
(2.0025 -0.0148328 0)
(2.00283 -0.014977 0)
(2.00339 -0.0150068 0)
(2.00345 -0.0150406 0)
(2.00371 -0.0155059 0)
(2.00396 -0.0157524 0)
(2.00437 -0.0158641 0)
(2.00472 -0.0160591 0)
(2.005 -0.0163727 0)
(2.00529 -0.0167978 0)
(2.0056 -0.0171256 0)
(2.00592 -0.0175264 0)
(2.0063 -0.017874 0)
(2.00658 -0.0182847 0)
(2.00702 -0.018462 0)
(2.00751 -0.0185221 0)
(2.00791 -0.0188601 0)
(2.00833 -0.0193545 0)
(2.00866 -0.0197624 0)
(2.00904 -0.0201706 0)
(2.00952 -0.0204755 0)
(2.01011 -0.0206163 0)
(2.01078 -0.0209487 0)
(2.01149 -0.0214599 0)
(2.01216 -0.0217208 0)
(2.01277 -0.0219086 0)
(2.0134 -0.0222568 0)
(2.01397 -0.0225244 0)
(2.01454 -0.0229256 0)
(2.01509 -0.0233335 0)
(2.01561 -0.0235838 0)
(2.01617 -0.0238905 0)
(2.01673 -0.0241916 0)
(2.01723 -0.0244361 0)
(2.01776 -0.024774 0)
(2.01824 -0.0250341 0)
(2.01872 -0.0252186 0)
(2.01921 -0.0254698 0)
(2.02029 -0.0259576 0)
(2.1634 -0.409174 0)
(2.16301 -0.408786 0)
(2.16196 -0.407597 0)
(2.16001 -0.405169 0)
(2.1566 -0.400531 0)
(2.15194 -0.393848 0)
(2.14508 -0.382864 0)
(2.13743 -0.370222 0)
(2.12685 -0.3505 0)
(2.117 -0.331846 0)
(2.10319 -0.302868 0)
(2.09283 -0.28012 0)
(2.07698 -0.243854 0)
(2.06789 -0.220155 0)
(2.0514 -0.18063 0)
(2.04479 -0.158981 0)
(2.02924 -0.121152 0)
(2.02544 -0.103357 0)
(2.01201 -0.0712404 0)
(2.01063 -0.0572838 0)
(2.00032 -0.0329812 0)
(2.00031 -0.0221798 0)
(1.99334 -0.00535261 0)
(1.99253 0.00176101 0)
(1.98968 0.0113616 0)
(1.98859 0.0122373 0)
(1.98823 0.0122123 0)
(1.98755 0.00844377 0)
(1.98676 0.00285296 0)
(1.98841 -0.00345915 0)
(1.99058 -0.00801077 0)
(1.99239 -0.0111226 0)
(1.99341 -0.0125013 0)
(1.99429 -0.0137027 0)
(1.99467 -0.0137264 0)
(1.99528 -0.0134697 0)
(1.99608 -0.012765 0)
(1.99738 -0.00999589 0)
(1.99727 -0.00913277 0)
(1.99778 -0.00837257 0)
(1.99751 -0.00851056 0)
(1.9969 -0.00972077 0)
(1.99619 -0.0119794 0)
(1.99608 -0.0135717 0)
(1.99597 -0.015335 0)
(1.99637 -0.0151476 0)
(1.99696 -0.0142038 0)
(1.99757 -0.0128044 0)
(1.9983 -0.0114044 0)
(1.99863 -0.01116 0)
(1.99849 -0.0116949 0)
(1.99816 -0.0131636 0)
(1.99788 -0.0146128 0)
(1.99812 -0.0150555 0)
(1.99848 -0.0146675 0)
(1.99894 -0.013975 0)
(1.99948 -0.0129938 0)
(1.9999 -0.0132657 0)
(1.99983 -0.0140405 0)
(1.99977 -0.0148211 0)
(1.99998 -0.0148905 0)
(2.00053 -0.0145946 0)
(2.00091 -0.0145928 0)
(2.00139 -0.0149194 0)
(2.0015 -0.0153428 0)
(2.0018 -0.0157776 0)
(2.00214 -0.0157462 0)
(2.00269 -0.0158142 0)
(2.00307 -0.0161417 0)
(2.0034 -0.016582 0)
(2.0037 -0.0169201 0)
(2.00402 -0.0171802 0)
(2.00432 -0.0175949 0)
(2.00467 -0.0179865 0)
(2.00499 -0.0182564 0)
(2.0056 -0.01829 0)
(2.00616 -0.0184273 0)
(2.00655 -0.0188855 0)
(2.00691 -0.0193603 0)
(2.00724 -0.0197258 0)
(2.00763 -0.0201247 0)
(2.00815 -0.0204007 0)
(2.00872 -0.0205817 0)
(2.00932 -0.0209713 0)
(2.01 -0.0214515 0)
(2.0107 -0.0216778 0)
(2.01132 -0.021895 0)
(2.01195 -0.0222519 0)
(2.0125 -0.0225072 0)
(2.01306 -0.0229172 0)
(2.01361 -0.0233182 0)
(2.01414 -0.0235684 0)
(2.01468 -0.0239058 0)
(2.01521 -0.0241995 0)
(2.01566 -0.0244515 0)
(2.01613 -0.0248 0)
(2.01659 -0.0250531 0)
(2.01702 -0.0252542 0)
(2.0175 -0.0255359 0)
(2.01853 -0.0260162 0)
(2.1626 -0.409121 0)
(2.16256 -0.409099 0)
(2.16253 -0.40907 0)
(2.16248 -0.40902 0)
(2.16243 -0.408959 0)
(2.16235 -0.408849 0)
(2.16219 -0.408664 0)
(2.16186 -0.408344 0)
(2.16128 -0.407747 0)
(2.16037 -0.40658 0)
(2.15893 -0.4046 0)
(2.1568 -0.40128 0)
(2.15355 -0.395999 0)
(2.1492 -0.388368 0)
(2.14284 -0.37662 0)
(2.13552 -0.362378 0)
(2.12505 -0.340755 0)
(2.11516 -0.319458 0)
(2.10088 -0.286757 0)
(2.09057 -0.261301 0)
(2.07449 -0.220841 0)
(2.06628 -0.196645 0)
(2.05136 -0.15564 0)
(2.04627 -0.137332 0)
(2.03481 -0.102679 0)
(2.03236 -0.0911287 0)
(2.02289 -0.0675795 0)
(2.02284 -0.0607389 0)
(2.01223 -0.0449988 0)
(2.00973 -0.0373112 0)
(2.00428 -0.0297928 0)
(2.0035 -0.0253729 0)
(2.00151 -0.0213415 0)
(2.00016 -0.0176783 0)
(1.99915 -0.0136493 0)
(1.99734 -0.00898144 0)
(1.99613 -0.00539492 0)
(1.9959 -0.00433581 0)
(1.99426 -0.00508303 0)
(1.99291 -0.00745735 0)
(1.99185 -0.0111818 0)
(1.99136 -0.0134129 0)
(1.99126 -0.0164793 0)
(1.99189 -0.0165977 0)
(1.99311 -0.0155331 0)
(1.99519 -0.0135639 0)
(1.9958 -0.0121351 0)
(1.99684 -0.0102884 0)
(1.99684 -0.0103983 0)
(1.99613 -0.0117706 0)
(1.99543 -0.0132271 0)
(1.99491 -0.0156132 0)
(1.99528 -0.0153298 0)
(1.99621 -0.014487 0)
(1.99716 -0.0133069 0)
(1.99797 -0.0123102 0)
(1.99794 -0.0127839 0)
(1.99776 -0.0137901 0)
(1.99737 -0.015412 0)
(1.99774 -0.0154167 0)
(1.99863 -0.0147898 0)
(1.99921 -0.014192 0)
(1.99945 -0.0144159 0)
(1.99942 -0.0150215 0)
(1.99954 -0.015884 0)
(2.00001 -0.0158757 0)
(2.00057 -0.0155606 0)
(2.00101 -0.0157713 0)
(2.00126 -0.0162887 0)
(2.00151 -0.0168768 0)
(2.00185 -0.0169274 0)
(2.00218 -0.0171918 0)
(2.00245 -0.0175771 0)
(2.00274 -0.0180668 0)
(2.00325 -0.0180895 0)
(2.00389 -0.0180502 0)
(2.00431 -0.0183576 0)
(2.00476 -0.018952 0)
(2.00511 -0.0193916 0)
(2.00548 -0.0197482 0)
(2.00593 -0.0201544 0)
(2.00647 -0.0203564 0)
(2.00696 -0.0205851 0)
(2.0076 -0.021057 0)
(2.00827 -0.0215038 0)
(2.00896 -0.021671 0)
(2.00959 -0.0219383 0)
(2.01023 -0.0222967 0)
(2.01075 -0.02254 0)
(2.0113 -0.0229557 0)
(2.01185 -0.0233173 0)
(2.01236 -0.0235622 0)
(2.01293 -0.0239433 0)
(2.01347 -0.024222 0)
(2.01392 -0.0244851 0)
(2.0144 -0.0248432 0)
(2.01486 -0.0250872 0)
(2.01527 -0.0253128 0)
(2.01579 -0.0256258 0)
(2.01685 -0.0260915 0)
(2.16118 -0.408855 0)
(2.16114 -0.408854 0)
(2.1611 -0.40886 0)
(2.16107 -0.40886 0)
(2.16102 -0.408874 0)
(2.16098 -0.408869 0)
(2.16092 -0.408883 0)
(2.16087 -0.408855 0)
(2.16081 -0.408815 0)
(2.16076 -0.408758 0)
(2.1607 -0.408696 0)
(2.16063 -0.4086 0)
(2.16054 -0.408491 0)
(2.16041 -0.408269 0)
(2.16012 -0.407958 0)
(2.15961 -0.407356 0)
(2.15877 -0.406187 0)
(2.15747 -0.404068 0)
(2.1553 -0.400284 0)
(2.15214 -0.394348 0)
(2.14694 -0.384091 0)
(2.14049 -0.370813 0)
(2.13007 -0.348105 0)
(2.12015 -0.32524 0)
(2.1034 -0.285457 0)
(2.09252 -0.255317 0)
(2.07056 -0.200824 0)
(2.06299 -0.171178 0)
(2.04142 -0.116255 0)
(2.03715 -0.0951605 0)
(2.01893 -0.0544831 0)
(2.0165 -0.0420033 0)
(2.00559 -0.0194101 0)
(2.004 -0.0120788 0)
(1.99863 -0.0014008 0)
(1.99683 0.00109489 0)
(1.9949 0.000388626 0)
(1.99393 -0.00463217 0)
(1.99233 -0.00997119 0)
(1.99226 -0.0108917 0)
(1.99065 -0.0140706 0)
(1.9911 -0.0140318 0)
(1.9915 -0.0141125 0)
(1.99276 -0.01251 0)
(1.99476 -0.0111046 0)
(1.99597 -0.00850912 0)
(1.99574 -0.00925173 0)
(1.99514 -0.0104639 0)
(1.99415 -0.0122332 0)
(1.99274 -0.0145159 0)
(1.9932 -0.0153506 0)
(1.99378 -0.0145943 0)
(1.99516 -0.0135499 0)
(1.99616 -0.012175 0)
(1.99686 -0.0116699 0)
(1.99657 -0.0125665 0)
(1.99596 -0.0139195 0)
(1.99587 -0.0149994 0)
(1.99618 -0.0148659 0)
(1.99693 -0.0143264 0)
(1.99766 -0.0137725 0)
(1.99764 -0.0141622 0)
(1.99754 -0.0148467 0)
(1.99751 -0.0156793 0)
(1.99791 -0.015632 0)
(1.99834 -0.0151764 0)
(1.99896 -0.015434 0)
(1.99912 -0.0158069 0)
(1.99934 -0.0164742 0)
(1.99963 -0.0166153 0)
(1.99993 -0.0168346 0)
(2.00024 -0.0172695 0)
(2.00054 -0.0177984 0)
(2.00089 -0.0179247 0)
(2.00148 -0.0179113 0)
(2.00197 -0.0179536 0)
(2.00233 -0.0184223 0)
(2.00283 -0.0190204 0)
(2.0032 -0.0193785 0)
(2.00363 -0.0197712 0)
(2.00413 -0.0201444 0)
(2.0047 -0.0203508 0)
(2.00521 -0.020628 0)
(2.00592 -0.0210778 0)
(2.00664 -0.0214304 0)
(2.00735 -0.0216043 0)
(2.00802 -0.0218938 0)
(2.00869 -0.0222331 0)
(2.00922 -0.0225048 0)
(2.00983 -0.0229197 0)
(2.01041 -0.023249 0)
(2.01095 -0.0235099 0)
(2.01157 -0.0239037 0)
(2.01213 -0.0242154 0)
(2.01264 -0.0244979 0)
(2.01317 -0.0248374 0)
(2.01367 -0.0250622 0)
(2.01412 -0.0253122 0)
(2.0147 -0.0256428 0)
(2.01585 -0.0261037 0)
(2.15977 -0.408619 0)
(2.15973 -0.408611 0)
(2.1597 -0.408607 0)
(2.15967 -0.408608 0)
(2.15963 -0.408598 0)
(2.1596 -0.408602 0)
(2.15956 -0.408597 0)
(2.15954 -0.408594 0)
(2.15952 -0.408603 0)
(2.1595 -0.408621 0)
(2.15948 -0.408631 0)
(2.15946 -0.40865 0)
(2.15943 -0.408657 0)
(2.15939 -0.408691 0)
(2.15936 -0.408664 0)
(2.15933 -0.408614 0)
(2.1593 -0.408561 0)
(2.15927 -0.408492 0)
(2.15923 -0.408399 0)
(2.15916 -0.408257 0)
(2.159 -0.407975 0)
(2.15868 -0.407461 0)
(2.15802 -0.406391 0)
(2.15682 -0.404111 0)
(2.15455 -0.399965 0)
(2.15087 -0.392444 0)
(2.1444 -0.379523 0)
(2.13585 -0.360901 0)
(2.12233 -0.330504 0)
(2.10951 -0.29871 0)
(2.0893 -0.248619 0)
(2.07669 -0.21294 0)
(2.0552 -0.157076 0)
(2.04674 -0.131187 0)
(2.03134 -0.0895271 0)
(2.02704 -0.0759973 0)
(2.01693 -0.056321 0)
(2.01629 -0.0461964 0)
(2.0074 -0.034136 0)
(2.00621 -0.0273518 0)
(2.00117 -0.0205497 0)
(1.99982 -0.0143117 0)
(1.99763 -0.0100346 0)
(1.99681 -0.00352557 0)
(1.99519 -0.0044423 0)
(1.99401 -0.00613402 0)
(1.99238 -0.0102566 0)
(1.99169 -0.0136879 0)
(1.99151 -0.0176266 0)
(1.99207 -0.0176969 0)
(1.99365 -0.0157768 0)
(1.99553 -0.0133968 0)
(1.996 -0.0108403 0)
(1.99662 -0.0111105 0)
(1.99589 -0.0124638 0)
(1.99492 -0.0143255 0)
(1.99501 -0.0161624 0)
(1.99566 -0.0157995 0)
(1.99675 -0.0145558 0)
(1.99728 -0.0134706 0)
(1.99723 -0.0139926 0)
(1.99691 -0.0148431 0)
(1.99668 -0.0159092 0)
(1.99702 -0.0158386 0)
(1.99767 -0.0152377 0)
(1.99794 -0.0152741 0)
(1.99823 -0.0156577 0)
(1.9984 -0.0162736 0)
(1.99859 -0.0165247 0)
(1.99882 -0.0165278 0)
(1.99923 -0.0170127 0)
(1.99948 -0.0173856 0)
(1.99969 -0.0176729 0)
(2.00018 -0.0177108 0)
(2.00081 -0.0177398 0)
(2.00112 -0.0179858 0)
(2.00153 -0.0184659 0)
(2.00194 -0.0189891 0)
(2.00233 -0.0193438 0)
(2.0028 -0.019756 0)
(2.00334 -0.0201348 0)
(2.00389 -0.0203301 0)
(2.00446 -0.0206743 0)
(2.00517 -0.0211342 0)
(2.00593 -0.021472 0)
(2.00665 -0.0216585 0)
(2.00735 -0.0220107 0)
(2.00803 -0.022343 0)
(2.00861 -0.0226025 0)
(2.00925 -0.0230143 0)
(2.00987 -0.0233332 0)
(2.01045 -0.0236049 0)
(2.01109 -0.0239873 0)
(2.01167 -0.0242406 0)
(2.01222 -0.0245378 0)
(2.01279 -0.0249158 0)
(2.01332 -0.0251262 0)
(2.01381 -0.0253672 0)
(2.01441 -0.0257048 0)
(2.01562 -0.0261578 0)
(2.159 -0.408483 0)
(2.15899 -0.408481 0)
(2.15898 -0.408482 0)
(2.15898 -0.408478 0)
(2.15897 -0.40848 0)
(2.15897 -0.408473 0)
(2.15896 -0.40848 0)
(2.15896 -0.408474 0)
(2.15896 -0.408477 0)
(2.15896 -0.408474 0)
(2.15897 -0.408482 0)
(2.15897 -0.408477 0)
(2.15898 -0.408488 0)
(2.15899 -0.408489 0)
(2.159 -0.408497 0)
(2.15903 -0.408511 0)
(2.15905 -0.408539 0)
(2.15908 -0.408553 0)
(2.1591 -0.408588 0)
(2.15912 -0.408592 0)
(2.15911 -0.40864 0)
(2.15914 -0.408591 0)
(2.15918 -0.408553 0)
(2.15921 -0.408507 0)
(2.15921 -0.408433 0)
(2.15917 -0.408284 0)
(2.15901 -0.407902 0)
(2.15861 -0.407032 0)
(2.15755 -0.404924 0)
(2.15542 -0.40063 0)
(2.15087 -0.391417 0)
(2.14403 -0.377032 0)
(2.13104 -0.348371 0)
(2.11838 -0.318213 0)
(2.09438 -0.260221 0)
(2.08244 -0.222994 0)
(2.05219 -0.148678 0)
(2.04701 -0.119414 0)
(2.0235 -0.06214 0)
(2.02182 -0.0471904 0)
(2.00873 -0.0174446 0)
(2.0048 -0.00980986 0)
(1.99982 0.0013885 0)
(1.99701 0.00127946 0)
(1.99409 -0.00551913 0)
(1.99299 -0.0102332 0)
(1.99127 -0.0134718 0)
(1.99232 -0.0151207 0)
(1.99287 -0.0152878 0)
(1.99474 -0.0136664 0)
(1.99745 -0.01025 0)
(1.99754 -0.0100928 0)
(1.99707 -0.0102577 0)
(1.99594 -0.0119522 0)
(1.99448 -0.0147545 0)
(1.99481 -0.0152466 0)
(1.99552 -0.014911 0)
(1.99677 -0.0136057 0)
(1.99754 -0.0126997 0)
(1.9975 -0.0133537 0)
(1.99712 -0.0144475 0)
(1.99681 -0.0156094 0)
(1.99731 -0.0155847 0)
(1.99792 -0.0152643 0)
(1.99838 -0.0148519 0)
(1.99853 -0.015181 0)
(1.99862 -0.0157639 0)
(1.99877 -0.016087 0)
(1.99903 -0.0161649 0)
(1.99927 -0.0164035 0)
(1.99963 -0.0169608 0)
(1.99983 -0.0176666 0)
(2.00014 -0.0177839 0)
(2.0008 -0.0176662 0)
(2.00126 -0.0174679 0)
(2.00155 -0.0178914 0)
(2.00197 -0.0185718 0)
(2.00233 -0.0190576 0)
(2.00271 -0.0194052 0)
(2.00319 -0.0198256 0)
(2.00374 -0.02014 0)
(2.00423 -0.0203414 0)
(2.00483 -0.02078 0)
(2.00549 -0.0211982 0)
(2.00627 -0.0213602 0)
(2.00696 -0.0215015 0)
(2.00765 -0.0218892 0)
(2.00831 -0.0222345 0)
(2.0089 -0.0225676 0)
(2.00953 -0.0229648 0)
(2.01016 -0.0231791 0)
(2.01074 -0.0234672 0)
(2.01138 -0.0239104 0)
(2.01196 -0.0242262 0)
(2.01251 -0.0245279 0)
(2.01308 -0.0248531 0)
(2.01361 -0.0250687 0)
(2.01412 -0.0253877 0)
(2.01471 -0.0257617 0)
(2.01592 -0.0261793 0)
(2.1591 -0.408497 0)
(2.15912 -0.408503 0)
(2.15914 -0.408503 0)
(2.15915 -0.408511 0)
(2.15917 -0.408511 0)
(2.15919 -0.40852 0)
(2.15922 -0.408521 0)
(2.15924 -0.408531 0)
(2.15927 -0.408532 0)
(2.1593 -0.408538 0)
(2.15933 -0.408537 0)
(2.15936 -0.408547 0)
(2.15939 -0.408544 0)
(2.15943 -0.408553 0)
(2.15946 -0.408552 0)
(2.1595 -0.408562 0)
(2.15955 -0.408565 0)
(2.15959 -0.40858 0)
(2.15964 -0.408586 0)
(2.15969 -0.408602 0)
(2.15975 -0.408612 0)
(2.1598 -0.408622 0)
(2.15985 -0.408646 0)
(2.1599 -0.408657 0)
(2.15995 -0.40869 0)
(2.15999 -0.408688 0)
(2.16001 -0.408715 0)
(2.16008 -0.408668 0)
(2.16014 -0.408644 0)
(2.16018 -0.408583 0)
(2.16015 -0.408431 0)
(2.15999 -0.407907 0)
(2.15936 -0.406568 0)
(2.15773 -0.403111 0)
(2.15382 -0.395548 0)
(2.14711 -0.381049 0)
(2.13407 -0.353042 0)
(2.12 -0.318788 0)
(2.09539 -0.258619 0)
(2.08133 -0.216471 0)
(2.05545 -0.148056 0)
(2.04573 -0.119129 0)
(2.02967 -0.0756574 0)
(2.02377 -0.0614783 0)
(2.01604 -0.046855 0)
(2.01017 -0.0343645 0)
(2.00426 -0.0241401 0)
(2.00267 -0.0168179 0)
(2.00089 -0.0103021 0)
(1.99857 -0.00458458 0)
(1.99733 -0.00523336 0)
(1.99556 -0.00815368 0)
(1.99438 -0.0122537 0)
(1.99343 -0.0178224 0)
(1.99402 -0.0183022 0)
(1.9958 -0.0169534 0)
(1.99816 -0.0136221 0)
(1.99854 -0.011728 0)
(1.99834 -0.0121093 0)
(1.99741 -0.0136108 0)
(1.99688 -0.0161203 0)
(1.99742 -0.0162302 0)
(1.99849 -0.0153827 0)
(1.99887 -0.0145695 0)
(1.99936 -0.0149612 0)
(1.99923 -0.0156297 0)
(1.99928 -0.0163081 0)
(1.99972 -0.01632 0)
(2.00001 -0.0160082 0)
(2.00032 -0.0165189 0)
(2.00052 -0.0170959 0)
(2.00067 -0.0174873 0)
(2.0013 -0.0173772 0)
(2.00187 -0.0173038 0)
(2.00219 -0.0176167 0)
(2.00257 -0.0180487 0)
(2.00291 -0.0185885 0)
(2.00325 -0.018946 0)
(2.00364 -0.019348 0)
(2.00411 -0.019785 0)
(2.00464 -0.0200614 0)
(2.00506 -0.0203118 0)
(2.00565 -0.0207813 0)
(2.00629 -0.0211971 0)
(2.00705 -0.0214506 0)
(2.00769 -0.0216887 0)
(2.00835 -0.022077 0)
(2.00897 -0.0223636 0)
(2.00954 -0.0226833 0)
(2.01016 -0.0231027 0)
(2.01077 -0.0233623 0)
(2.01132 -0.023673 0)
(2.01193 -0.0240684 0)
(2.01249 -0.0243487 0)
(2.01303 -0.0246855 0)
(2.01359 -0.0250375 0)
(2.01409 -0.0252179 0)
(2.0146 -0.0255167 0)
(2.01516 -0.0258877 0)
(2.01633 -0.0263354 0)
(2.15985 -0.408653 0)
(2.15988 -0.408656 0)
(2.1599 -0.408659 0)
(2.15993 -0.408662 0)
(2.15996 -0.408665 0)
(2.15999 -0.408669 0)
(2.16002 -0.408673 0)
(2.16006 -0.408677 0)
(2.16009 -0.408683 0)
(2.16013 -0.408687 0)
(2.16016 -0.408691 0)
(2.1602 -0.408698 0)
(2.16024 -0.408702 0)
(2.16028 -0.408709 0)
(2.16033 -0.408714 0)
(2.16037 -0.408721 0)
(2.16042 -0.408724 0)
(2.16047 -0.40873 0)
(2.16052 -0.408734 0)
(2.16057 -0.408741 0)
(2.16062 -0.408742 0)
(2.16067 -0.408755 0)
(2.16073 -0.408764 0)
(2.16078 -0.408774 0)
(2.16084 -0.408783 0)
(2.1609 -0.408796 0)
(2.16096 -0.408804 0)
(2.161 -0.408805 0)
(2.16104 -0.408824 0)
(2.16108 -0.40882 0)
(2.1611 -0.408841 0)
(2.16117 -0.40882 0)
(2.16122 -0.408813 0)
(2.16125 -0.408788 0)
(2.16123 -0.408669 0)
(2.16107 -0.408226 0)
(2.1604 -0.406841 0)
(2.15861 -0.403136 0)
(2.15389 -0.393853 0)
(2.14582 -0.375974 0)
(2.1296 -0.340285 0)
(2.11231 -0.296241 0)
(2.08427 -0.228098 0)
(2.06464 -0.169296 0)
(2.04055 -0.103824 0)
(2.02995 -0.0645035 0)
(2.01442 -0.0224814 0)
(2.00963 -0.013211 0)
(2.00643 0.00494177 0)
(2.00036 0.00274646 0)
(1.99627 -0.006684 0)
(1.99485 -0.011483 0)
(1.99414 -0.0154609 0)
(1.99474 -0.0162025 0)
(1.99675 -0.0154522 0)
(2.00022 -0.0112156 0)
(2.00041 -0.010875 0)
(1.9996 -0.0113193 0)
(1.998 -0.013544 0)
(1.99695 -0.0159663 0)
(1.99732 -0.0161856 0)
(1.99867 -0.01524 0)
(1.99984 -0.0139942 0)
(1.99993 -0.014109 0)
(1.99985 -0.0149221 0)
(1.99972 -0.0160934 0)
(2.00011 -0.0162394 0)
(2.00063 -0.0157504 0)
(2.00105 -0.0162176 0)
(2.00108 -0.0166068 0)
(2.00119 -0.0174384 0)
(2.00161 -0.0175233 0)
(2.00235 -0.0173256 0)
(2.00265 -0.0170578 0)
(2.00307 -0.0175004 0)
(2.00343 -0.0182637 0)
(2.0037 -0.0187299 0)
(2.00396 -0.0189177 0)
(2.00439 -0.0193664 0)
(2.00485 -0.019784 0)
(2.00534 -0.0200345 0)
(2.00574 -0.0203717 0)
(2.00631 -0.0209162 0)
(2.00696 -0.0211625 0)
(2.00769 -0.0212726 0)
(2.00831 -0.0215689 0)
(2.00894 -0.021991 0)
(2.00952 -0.0222987 0)
(2.0101 -0.0226743 0)
(2.01071 -0.0230101 0)
(2.01127 -0.0231872 0)
(2.0118 -0.0235436 0)
(2.01238 -0.0239602 0)
(2.01292 -0.0242685 0)
(2.01346 -0.0246584 0)
(2.01402 -0.0249864 0)
(2.01449 -0.025131 0)
(2.015 -0.0254616 0)
(2.01552 -0.0258493 0)
(2.01667 -0.026286 0)
(2.16079 -0.408824 0)
(2.16081 -0.408826 0)
(2.16084 -0.408829 0)
(2.16086 -0.408833 0)
(2.16089 -0.408835 0)
(2.16092 -0.408838 0)
(2.16094 -0.408842 0)
(2.16097 -0.408844 0)
(2.161 -0.408847 0)
(2.16103 -0.40885 0)
(2.16106 -0.408854 0)
(2.1611 -0.408858 0)
(2.16113 -0.40886 0)
(2.16116 -0.408863 0)
(2.1612 -0.408867 0)
(2.16123 -0.408871 0)
(2.16127 -0.408874 0)
(2.1613 -0.408879 0)
(2.16134 -0.408882 0)
(2.16138 -0.408888 0)
(2.16141 -0.40889 0)
(2.16145 -0.408895 0)
(2.16149 -0.408899 0)
(2.16153 -0.408905 0)
(2.16157 -0.408909 0)
(2.16161 -0.408915 0)
(2.16165 -0.408918 0)
(2.16169 -0.408928 0)
(2.16173 -0.408933 0)
(2.16177 -0.408941 0)
(2.16181 -0.408942 0)
(2.16183 -0.40894 0)
(2.16185 -0.40895 0)
(2.16187 -0.408945 0)
(2.16189 -0.408951 0)
(2.16193 -0.408934 0)
(2.16196 -0.408925 0)
(2.16197 -0.408888 0)
(2.16192 -0.408708 0)
(2.16161 -0.408022 0)
(2.1605 -0.405939 0)
(2.15752 -0.399618 0)
(2.15062 -0.385942 0)
(2.13756 -0.356192 0)
(2.11797 -0.310259 0)
(2.09539 -0.252069 0)
(2.06699 -0.174383 0)
(2.05642 -0.138978 0)
(2.03287 -0.0735005 0)
(2.02943 -0.0639861 0)
(2.01762 -0.0431745 0)
(2.00839 -0.0297796 0)
(2.00626 -0.0215334 0)
(2.00421 -0.0141434 0)
(2.00169 -0.00469251 0)
(1.99945 -0.00666913 0)
(1.99784 -0.00961777 0)
(1.99663 -0.0140971 0)
(1.99631 -0.0192183 0)
(1.99699 -0.0185372 0)
(1.99946 -0.0156598 0)
(2.00074 -0.013066 0)
(2.00068 -0.0132166 0)
(2.00024 -0.0144091 0)
(1.99979 -0.0164537 0)
(2.00002 -0.016579 0)
(2.0009 -0.0158261 0)
(2.00142 -0.0155663 0)
(2.00149 -0.0161505 0)
(2.00149 -0.0170542 0)
(2.00164 -0.0173723 0)
(2.00222 -0.0171737 0)
(2.00282 -0.0167212 0)
(2.00335 -0.0171035 0)
(2.00362 -0.0176672 0)
(2.00375 -0.0182479 0)
(2.00402 -0.018607 0)
(2.00429 -0.0188969 0)
(2.00472 -0.0193564 0)
(2.0052 -0.0197201 0)
(2.00564 -0.0199211 0)
(2.00608 -0.0203626 0)
(2.00662 -0.0209069 0)
(2.00731 -0.0211913 0)
(2.00802 -0.0213302 0)
(2.00863 -0.0216687 0)
(2.00925 -0.0220417 0)
(2.00981 -0.0223186 0)
(2.01039 -0.0227305 0)
(2.01102 -0.0230903 0)
(2.01155 -0.0232603 0)
(2.01206 -0.0236335 0)
(2.01262 -0.0240098 0)
(2.01316 -0.0242813 0)
(2.01371 -0.0246412 0)
(2.01429 -0.0249821 0)
(2.01473 -0.0251868 0)
(2.01523 -0.0255588 0)
(2.01574 -0.0259105 0)
(2.01687 -0.0263124 0)
(2.16158 -0.408977 0)
(2.16159 -0.408978 0)
(2.16161 -0.40898 0)
(2.16163 -0.40898 0)
(2.16164 -0.408981 0)
(2.16166 -0.408981 0)
(2.16168 -0.408983 0)
(2.1617 -0.408983 0)
(2.16172 -0.408985 0)
(2.16174 -0.408986 0)
(2.16176 -0.408987 0)
(2.16178 -0.408988 0)
(2.1618 -0.40899 0)
(2.16182 -0.408991 0)
(2.16184 -0.408996 0)
(2.16186 -0.408998 0)
(2.16188 -0.408999 0)
(2.1619 -0.408999 0)
(2.16192 -0.409001 0)
(2.16195 -0.409002 0)
(2.16197 -0.409003 0)
(2.16199 -0.409005 0)
(2.16201 -0.409011 0)
(2.16203 -0.409014 0)
(2.16206 -0.409017 0)
(2.16208 -0.409021 0)
(2.1621 -0.409024 0)
(2.16212 -0.409027 0)
(2.16215 -0.409029 0)
(2.16217 -0.409035 0)
(2.16219 -0.409038 0)
(2.16221 -0.409042 0)
(2.16223 -0.409044 0)
(2.16225 -0.409046 0)
(2.16227 -0.409046 0)
(2.16229 -0.409038 0)
(2.16229 -0.409034 0)
(2.16231 -0.409024 0)
(2.16233 -0.409009 0)
(2.16235 -0.408997 0)
(2.16236 -0.408967 0)
(2.16233 -0.408867 0)
(2.16213 -0.408434 0)
(2.16134 -0.406915 0)
(2.15889 -0.401905 0)
(2.15268 -0.389147 0)
(2.13883 -0.358387 0)
(2.12148 -0.314907 0)
(2.08607 -0.231707 0)
(2.0704 -0.174276 0)
(2.04008 -0.0927916 0)
(2.01998 -0.0395041 0)
(2.01869 -0.0211109 0)
(2.00674 0.000125283 0)
(2.00374 0.0042135 0)
(1.99911 -0.00644026 0)
(1.99677 -0.0127088 0)
(1.99704 -0.0168636 0)
(1.99787 -0.0174295 0)
(2.00158 -0.0139756 0)
(2.0027 -0.011968 0)
(2.00209 -0.0121998 0)
(2.00057 -0.0139084 0)
(1.99965 -0.016394 0)
(1.99997 -0.0166314 0)
(2.00126 -0.0155839 0)
(2.00198 -0.0147677 0)
(2.00182 -0.0152873 0)
(2.00149 -0.0165122 0)
(2.00144 -0.0175926 0)
(2.00199 -0.0173725 0)
(2.00287 -0.0161831 0)
(2.00337 -0.0165715 0)
(2.0035 -0.0171306 0)
(2.00361 -0.0179326 0)
(2.00374 -0.0182383 0)
(2.00397 -0.0183899 0)
(2.00437 -0.0188539 0)
(2.00478 -0.0194172 0)
(2.00527 -0.0196168 0)
(2.00564 -0.0198186 0)
(2.00615 -0.0203748 0)
(2.00668 -0.020897 0)
(2.00739 -0.0210581 0)
(2.00807 -0.0212628 0)
(2.00872 -0.0216956 0)
(2.00934 -0.0220157 0)
(2.00991 -0.0222903 0)
(2.01051 -0.0227214 0)
(2.01113 -0.0230457 0)
(2.01162 -0.0232267 0)
(2.01217 -0.0236613 0)
(2.01272 -0.0240232 0)
(2.01326 -0.024305 0)
(2.01383 -0.0247 0)
(2.0144 -0.0250172 0)
(2.01482 -0.0252231 0)
(2.01535 -0.0256243 0)
(2.01584 -0.0259678 0)
(2.01696 -0.0263834 0)
(2.16209 -0.409049 0)
(2.1621 -0.40905 0)
(2.16211 -0.40905 0)
(2.16212 -0.409051 0)
(2.16213 -0.409051 0)
(2.16214 -0.409053 0)
(2.16215 -0.409053 0)
(2.16215 -0.409055 0)
(2.16216 -0.409056 0)
(2.16217 -0.409057 0)
(2.16218 -0.409058 0)
(2.16219 -0.409058 0)
(2.16221 -0.409059 0)
(2.16222 -0.409059 0)
(2.16223 -0.40906 0)
(2.16224 -0.409062 0)
(2.16225 -0.409064 0)
(2.16226 -0.409065 0)
(2.16227 -0.409067 0)
(2.16228 -0.409069 0)
(2.16229 -0.40907 0)
(2.1623 -0.409068 0)
(2.16231 -0.409072 0)
(2.16232 -0.409075 0)
(2.16233 -0.409078 0)
(2.16235 -0.409078 0)
(2.16236 -0.409081 0)
(2.16237 -0.409083 0)
(2.16238 -0.409085 0)
(2.16239 -0.409085 0)
(2.1624 -0.409086 0)
(2.16241 -0.409086 0)
(2.16242 -0.409088 0)
(2.16243 -0.40909 0)
(2.16245 -0.40909 0)
(2.16246 -0.409087 0)
(2.16247 -0.409084 0)
(2.16248 -0.409075 0)
(2.16249 -0.409065 0)
(2.16249 -0.409054 0)
(2.1625 -0.409038 0)
(2.16251 -0.409034 0)
(2.16252 -0.40902 0)
(2.16252 -0.408997 0)
(2.16249 -0.408914 0)
(2.16231 -0.408558 0)
(2.16153 -0.40706 0)
(2.1591 -0.402063 0)
(2.15164 -0.387312 0)
(2.1385 -0.356335 0)
(2.11153 -0.292176 0)
(2.09279 -0.236981 0)
(2.05828 -0.145797 0)
(2.04317 -0.102666 0)
(2.02581 -0.0617326 0)
(2.02393 -0.0468501 0)
(2.01217 -0.0306877 0)
(2.00762 -0.0202406 0)
(2.00536 -0.0114931 0)
(2.00355 -0.00687784 0)
(2.00127 -0.00837149 0)
(1.99872 -0.0130782 0)
(1.99794 -0.0187472 0)
(1.99884 -0.0183821 0)
(2.00107 -0.0161991 0)
(2.00232 -0.0143978 0)
(2.00221 -0.0146724 0)
(2.00137 -0.0162394 0)
(2.00079 -0.0177947 0)
(2.00136 -0.0176191 0)
(2.00267 -0.016058 0)
(2.00322 -0.0160716 0)
(2.00317 -0.016663 0)
(2.00306 -0.0177267 0)
(2.00327 -0.0180196 0)
(2.00363 -0.0180261 0)
(2.00386 -0.0183381 0)
(2.0043 -0.0189491 0)
(2.00472 -0.0193393 0)
(2.00523 -0.0194704 0)
(2.00554 -0.0197816 0)
(2.00607 -0.0204143 0)
(2.00664 -0.0208045 0)
(2.00736 -0.0209306 0)
(2.00803 -0.0213412 0)
(2.0087 -0.0217838 0)
(2.00934 -0.0220171 0)
(2.00992 -0.02229 0)
(2.01054 -0.0227341 0)
(2.01117 -0.0229928 0)
(2.01164 -0.0232378 0)
(2.01219 -0.0237242 0)
(2.01274 -0.0240608 0)
(2.01328 -0.0243655 0)
(2.01386 -0.0247662 0)
(2.01443 -0.0250424 0)
(2.01484 -0.0252823 0)
(2.01539 -0.0257069 0)
(2.01588 -0.0260205 0)
(2.01701 -0.0264186 0)
(2.16236 -0.409072 0)
(2.16236 -0.409072 0)
(2.16237 -0.409072 0)
(2.16237 -0.409072 0)
(2.16237 -0.409071 0)
(2.16238 -0.409071 0)
(2.16238 -0.409071 0)
(2.16239 -0.409071 0)
(2.16239 -0.409072 0)
(2.16239 -0.409072 0)
(2.1624 -0.409073 0)
(2.1624 -0.409075 0)
(2.16241 -0.409075 0)
(2.16241 -0.409076 0)
(2.16241 -0.409078 0)
(2.16242 -0.409079 0)
(2.16242 -0.40908 0)
(2.16243 -0.409083 0)
(2.16243 -0.409083 0)
(2.16243 -0.409085 0)
(2.16244 -0.409089 0)
(2.16244 -0.409091 0)
(2.16245 -0.409092 0)
(2.16245 -0.409095 0)
(2.16246 -0.409097 0)
(2.16246 -0.4091 0)
(2.16247 -0.409102 0)
(2.16247 -0.409103 0)
(2.16248 -0.409104 0)
(2.16248 -0.409105 0)
(2.16249 -0.409104 0)
(2.1625 -0.409104 0)
(2.1625 -0.409106 0)
(2.16251 -0.409106 0)
(2.16252 -0.409103 0)
(2.16253 -0.4091 0)
(2.16254 -0.409093 0)
(2.16254 -0.409088 0)
(2.16255 -0.409082 0)
(2.16256 -0.409074 0)
(2.16256 -0.409069 0)
(2.16257 -0.409061 0)
(2.16257 -0.409049 0)
(2.16257 -0.409045 0)
(2.16258 -0.409041 0)
(2.16257 -0.409028 0)
(2.16256 -0.409015 0)
(2.16251 -0.408951 0)
(2.16226 -0.408525 0)
(2.16135 -0.406764 0)
(2.15776 -0.399667 0)
(2.14964 -0.380942 0)
(2.12828 -0.332895 0)
(2.10826 -0.2785 0)
(2.06215 -0.167118 0)
(2.05285 -0.114381 0)
(2.02286 -0.0367688 0)
(2.01198 -0.0180815 0)
(2.00966 0.00527416 0)
(2.00175 -0.00173716 0)
(1.99891 -0.0106512 0)
(1.99774 -0.0165987 0)
(1.99845 -0.0173944 0)
(2.00079 -0.0157719 0)
(2.0026 -0.0130205 0)
(2.00218 -0.0134446 0)
(2.00099 -0.0156259 0)
(1.99985 -0.0181431 0)
(2.00046 -0.0179516 0)
(2.00236 -0.0157131 0)
(2.00307 -0.0148547 0)
(2.00275 -0.0158119 0)
(2.0026 -0.0172951 0)
(2.00271 -0.0178229 0)
(2.0031 -0.0177003 0)
(2.00343 -0.0180154 0)
(2.00382 -0.0184823 0)
(2.0041 -0.0190959 0)
(2.00465 -0.0192394 0)
(2.00505 -0.0193253 0)
(2.00549 -0.0198518 0)
(2.00596 -0.0204593 0)
(2.00659 -0.0207131 0)
(2.00724 -0.020879 0)
(2.00798 -0.0214297 0)
(2.00867 -0.0218281 0)
(2.00933 -0.0219946 0)
(2.00992 -0.0222999 0)
(2.01054 -0.0227113 0)
(2.01117 -0.0229476 0)
(2.01162 -0.0232786 0)
(2.01217 -0.0237893 0)
(2.01272 -0.0240736 0)
(2.01328 -0.024389 0)
(2.01387 -0.0247944 0)
(2.01443 -0.0250481 0)
(2.01484 -0.0253348 0)
(2.01538 -0.0257746 0)
(2.01588 -0.0260443 0)
(2.01704 -0.0264345 0)
(2.16247 -0.40907 0)
(2.16247 -0.409071 0)
(2.16247 -0.409071 0)
(2.16248 -0.409071 0)
(2.16248 -0.409072 0)
(2.16248 -0.409072 0)
(2.16248 -0.409072 0)
(2.16248 -0.409072 0)
(2.16248 -0.409073 0)
(2.16248 -0.409073 0)
(2.16248 -0.409074 0)
(2.16248 -0.409075 0)
(2.16248 -0.409076 0)
(2.16248 -0.409076 0)
(2.16248 -0.409078 0)
(2.16248 -0.409079 0)
(2.16249 -0.409081 0)
(2.16249 -0.409083 0)
(2.16249 -0.409084 0)
(2.16249 -0.409087 0)
(2.16249 -0.40909 0)
(2.16249 -0.40909 0)
(2.16249 -0.409089 0)
(2.1625 -0.409089 0)
(2.1625 -0.409089 0)
(2.1625 -0.40909 0)
(2.1625 -0.40909 0)
(2.16251 -0.40909 0)
(2.16251 -0.409089 0)
(2.16252 -0.409088 0)
(2.16252 -0.409088 0)
(2.16253 -0.409087 0)
(2.16254 -0.409087 0)
(2.16254 -0.409086 0)
(2.16255 -0.409084 0)
(2.16256 -0.409081 0)
(2.16257 -0.409078 0)
(2.16258 -0.409076 0)
(2.16259 -0.409074 0)
(2.1626 -0.409069 0)
(2.1626 -0.409064 0)
(2.16261 -0.409061 0)
(2.16261 -0.409055 0)
(2.16261 -0.409054 0)
(2.1626 -0.409056 0)
(2.16259 -0.409061 0)
(2.16258 -0.409063 0)
(2.16256 -0.409062 0)
(2.16255 -0.409063 0)
(2.16252 -0.409056 0)
(2.16244 -0.408949 0)
(2.16207 -0.408255 0)
(2.16042 -0.405147 0)
(2.15533 -0.393655 0)
(2.14057 -0.362693 0)
(2.11896 -0.307426 0)
(2.0829 -0.215285 0)
(2.06315 -0.155689 0)
(2.03496 -0.0783779 0)
(2.03253 -0.0624849 0)
(2.01467 -0.0383144 0)
(2.00924 -0.0251136 0)
(2.00665 -0.0151251 0)
(2.00276 -0.00710716 0)
(2.00061 -0.00879706 0)
(1.99818 -0.0140886 0)
(1.99766 -0.0201505 0)
(1.99839 -0.0196511 0)
(2.00172 -0.0161043 0)
(2.00292 -0.0145339 0)
(2.00266 -0.0150156 0)
(2.00161 -0.0170893 0)
(2.00167 -0.0180479 0)
(2.00232 -0.0178619 0)
(2.00291 -0.0176021 0)
(2.0034 -0.0180375 0)
(2.00358 -0.0189781 0)
(2.00396 -0.0191078 0)
(2.00459 -0.0189916 0)
(2.00493 -0.0193024 0)
(2.00545 -0.0199425 0)
(2.0059 -0.0203835 0)
(2.00655 -0.0205278 0)
(2.00715 -0.0209164 0)
(2.0079 -0.0215625 0)
(2.00865 -0.0218179 0)
(2.00931 -0.0219363 0)
(2.00993 -0.0222991 0)
(2.01056 -0.0226632 0)
(2.01113 -0.0228809 0)
(2.01162 -0.0233201 0)
(2.01216 -0.0238425 0)
(2.01269 -0.0240866 0)
(2.01326 -0.0244135 0)
(2.01386 -0.0247951 0)
(2.01441 -0.0250489 0)
(2.01483 -0.0253961 0)
(2.01536 -0.0258425 0)
(2.01587 -0.0260676 0)
(2.01706 -0.0264609 0)
(2.16251 -0.409074 0)
(2.16251 -0.409074 0)
(2.16251 -0.409074 0)
(2.16251 -0.409074 0)
(2.16251 -0.409073 0)
(2.16251 -0.409072 0)
(2.16251 -0.409071 0)
(2.16251 -0.40907 0)