/*--------------------------------*- C++ -*----------------------------------*\
  =========                 |
  \\      /  F ield         | OpenFOAM: The Open Source CFD Toolbox
   \\    /   O peration     | Website:  https://openfoam.org
    \\  /    A nd           | Version:  7
     \\/     M anipulation  |
\*---------------------------------------------------------------------------*/
FoamFile
{
    version     2.0;
    format      ascii;
    class       volScalarField;
    location    "0.5";
    object      rho;
}
// * * * * * * * * * * * * * * * * * * * * * * * * * * * * * * * * * * * * * //

dimensions      [1 -3 0 0 0 0 0];

internalField   nonuniform List<scalar> 
90000
(
2.95353
2.66417
2.37298
2.04123
1.8405
1.69443
1.50675
1.38984
1.31888
1.24034
1.17953
1.1405
1.10545
1.07165
1.04528
1.01915
0.993164
0.966698
0.940944
0.913472
0.885747
0.869517
0.857701
0.841655
0.841213
0.843161
0.833473
0.830362
0.835804
0.85022
0.868027
0.888167
0.91045
0.930971
0.948211
0.958087
0.966364
0.973487
0.973007
0.969698
0.965354
0.962697
0.963505
0.965615
0.969686
0.976546
0.983099
0.982963
0.979299
0.971982
0.961849
0.950917
0.935048
0.932833
0.934234
0.93795
0.944763
0.951474
0.956468
0.960968
0.965526
0.971754
0.982005
0.995397
1.01516
1.02645
1.02781
1.03074
1.03489
1.04126
1.06465
1.08228
1.08165
1.08904
1.097
1.09357
1.10038
1.123
1.17903
1.2564
1.30624
1.32972
1.34266
1.35178
1.36121
1.37324
1.38695
1.39687
1.39994
1.40012
1.40005
1.40001
1.40001
1.40001
1.40001
1.40001
1.40001
1.40001
1.40001
1.40001
3.18553
3.16543
3.11542
3.01012
2.85592
2.68786
2.48512
2.27796
2.09575
1.92208
1.76618
1.62615
1.5137
1.41082
1.32003
1.24401
1.17418
1.11247
1.06228
1.01261
0.971866
0.942405
0.914043
0.900943
0.897692
0.901337
0.905994
0.916386
0.932197
0.9462
0.957357
0.966056
0.973946
0.981061
0.983335
0.982763
0.983909
0.990362
0.997297
1.00563
1.01898
1.03009
1.03749
1.03913
1.03769
1.03767
1.03881
1.0425
1.04217
1.03896
1.02934
1.01351
0.991595
0.975437
0.966901
0.960232
0.961963
0.966676
0.974445
0.981548
0.987155
0.992252
1.00013
1.00998
1.02471
1.03866
1.05064
1.05213
1.05103
1.05306
1.06743
1.09309
1.10749
1.12225
1.13081
1.12597
1.12537
1.13938
1.18848
1.26072
1.30932
1.33155
1.34455
1.35392
1.36326
1.37491
1.38807
1.39738
1.40007
1.40016
1.40006
1.40001
1.40001
1.40001
1.40001
1.40001
1.40001
1.40001
1.40001
1.40001
3.17976
3.17943
3.17821
3.17274
3.15549
3.11977
3.05244
2.94589
2.81761
2.6522
2.4839
2.31409
2.14247
1.99864
1.85589
1.73354
1.62971
1.53129
1.45225
1.38406
1.31956
1.26884
1.22002
1.17999
1.1428
1.11214
1.08278
1.06006
1.03941
1.02086
1.00552
0.990509
0.976107
0.968919
0.966909
0.969031
0.972652
0.980533
0.994231
1.01192
1.02839
1.0377
1.04318
1.04723
1.04942
1.05252
1.05684
1.06413
1.07255
1.08269
1.08261
1.07337
1.05481
1.02787
1.00273
0.985036
0.973974
0.972425
0.974788
0.980623
0.986775
0.992572
1.00082
1.01078
1.02394
1.03835
1.04979
1.0616
1.06069
1.06098
1.07096
1.09233
1.11556
1.14149
1.15178
1.14967
1.14094
1.15087
1.19564
1.26333
1.31285
1.33449
1.3469
1.3562
1.36533
1.37657
1.38923
1.39793
1.40022
1.4002
1.40006
1.40001
1.40001
1.40001
1.40001
1.40001
1.40001
1.40001
1.40001
1.40001
3.16985
3.1708
3.17157
3.17139
3.17101
3.16909
3.16337
3.14772
3.11578
3.05957
2.9669
2.85655
2.71379
2.5616
2.41123
2.25505
2.11056
1.9826
1.85747
1.74987
1.65321
1.56455
1.48298
1.41325
1.34642
1.28656
1.23161
1.18246
1.13669
1.09714
1.06158
1.03269
1.0088
0.995524
0.986527
0.986228
0.988278
0.99714
1.00925
1.0198
1.02369
1.0273
1.03208
1.03824
1.04356
1.04949
1.05608
1.06402
1.0735
1.08284
1.08757
1.0872
1.08379
1.07156
1.04998
1.02663
1.00284
0.984701
0.976637
0.977851
0.981296
0.987657
0.997645
1.00843
1.02025
1.03505
1.04554
1.05953
1.06356
1.06592
1.07652
1.0956
1.11945
1.14796
1.15823
1.15816
1.14978
1.15967
1.20194
1.26515
1.31631
1.33822
1.34964
1.35856
1.36739
1.37826
1.39045
1.39853
1.40037
1.40025
1.40006
1.40001
1.40001
1.40001
1.40001
1.40001
1.40001
1.40001
1.40001
1.40001
3.16512
3.16532
3.16531
3.1655
3.16569
3.16607
3.16574
3.1645
3.16148
3.1551
3.13862
3.10665
3.0498
2.96502
2.85407
2.72619
2.5818
2.43741
2.29723
2.16026
2.03324
1.92192
1.8128
1.7176
1.63247
1.55045
1.48087
1.41536
1.35661
1.30428
1.25704
1.21556
1.17743
1.14457
1.11513
1.08962
1.06677
1.05008
1.03594
1.02374
1.01344
1.00547
1.00652
1.01028
1.01573
1.02505
1.03878
1.05019
1.0623
1.07136
1.08014
1.0854
1.08485
1.08418
1.07882
1.06382
1.03911
1.0124
0.991221
0.977775
0.978116
0.979723
0.986551
0.996806
1.00781
1.02436
1.03681
1.05073
1.06175
1.06643
1.07809
1.09757
1.1201
1.14979
1.16169
1.16227
1.1552
1.16556
1.20728
1.26699
1.31929
1.34234
1.35259
1.36092
1.36946
1.38003
1.39177
1.39919
1.40054
1.40029
1.40006
1.40001
1.40001
1.40001
1.40001
1.40001
1.40001
1.40001
1.40001
1.40001
3.16583
3.1656
3.16531
3.1651
3.16505
3.16512
3.16517
3.16528
3.16531
3.16501
3.16358
3.15956
3.14966
3.12915
3.09108
3.02844
2.94129
2.82877
2.70078
2.56739
2.42495
2.29301
2.16671
2.04366
1.93791
1.83486
1.74208
1.65656
1.57933
1.50535
1.44045
1.3787
1.3228
1.27108
1.22149
1.17854
1.13688
1.10149
1.06803
1.0439
1.02793
1.01768
1.01446
1.01529
1.02144
1.03189
1.0349
1.03644
1.03881
1.04539
1.05407
1.06754
1.07892
1.08346
1.08254
1.07956
1.06816
1.04595
1.01949
0.994015
0.978621
0.978758
0.981537
0.9866
0.995619
1.01169
1.02631
1.03886
1.05488
1.06231
1.07446
1.09527
1.11832
1.14987
1.16365
1.16446
1.15823
1.16986
1.2128
1.27057
1.32263
1.34661
1.35562
1.36323
1.37158
1.38194
1.39323
1.39991
1.40072
1.40032
1.40005
1.40001
1.40001
1.40001
1.40001
1.40001
1.40001
1.40001
1.40001
1.40001
3.17528
3.17425
3.17321
3.17218
3.17119
3.1703
3.16952
3.16912
3.16881
3.16867
3.16858
3.16834
3.16758
3.16514
3.15881
3.14441
3.11675
3.06883
2.99617
2.9
2.78433
2.65399
2.52369
2.38914
2.26351
2.14247
2.03106
1.92557
1.83134
1.74036
1.66033
1.58335
1.51439
1.45239
1.39183
1.34002
1.28966
1.2453
1.20386
1.16643
1.13402
1.10665
1.08392
1.06253
1.04994
1.03592
1.02893
1.02154
1.01836
1.01959
1.02403
1.03506
1.05211
1.0677
1.07832
1.07708
1.07249
1.06502
1.04903
1.0261
1.00093
0.983949
0.98046
0.983171
0.988386
1.00015
1.01556
1.02764
1.04347
1.05384
1.06615
1.09103
1.11571
1.14817
1.16463
1.16567
1.16122
1.17457
1.2181
1.27437
1.32511
1.35021
1.35856
1.36555
1.37381
1.38405
1.39489
1.40068
1.40091
1.40035
1.40005
1.40001
1.40001
1.40001
1.40001
1.40001
1.40001
1.40001
1.40001
1.40001
3.18973
3.18887
3.18786
3.18675
3.18555
3.18425
3.18287
3.18156
3.18021
3.17896
3.17795
3.17721
3.17654
3.17567
3.17452
3.17248
3.16823
3.15836
3.13802
3.0993
3.03871
2.95073
2.84638
2.72117
2.59419
2.4642
2.3364
2.21555
2.10442
1.99551
1.90014
1.80988
1.72393
1.64662
1.57455
1.50729
1.44646
1.38713
1.33537
1.28196
1.23602
1.19093
1.15079
1.1133
1.08309
1.05469
1.04024
1.03078
1.02437
1.02598
1.03145
1.03857
1.04101
1.04556
1.05417
1.0603
1.06575
1.06492
1.06217
1.05358
1.0345
1.01044
0.987579
0.984054
0.987881
0.995984
1.0076
1.01803
1.03243
1.04502
1.05784
1.08438
1.11371
1.14528
1.16575
1.16736
1.16512
1.18066
1.22404
1.27959
1.32768
1.353
1.36139
1.368
1.37621
1.38639
1.39676
1.40142
1.40113
1.40035
1.40004
1.40001
1.40001
1.40001
1.40001
1.40001
1.40001
1.40001
1.40001
1.40001
3.19901
3.19875
3.19847
3.19818
3.19782
3.19732
3.19671
3.19598
3.19506
3.19396
3.19282
3.19167
3.19048
3.18934
3.1883
3.18706
3.18533
3.18274
3.17863
3.17039
3.15422
3.12149
3.06876
2.99003
2.88819
2.77201
2.64642
2.5156
2.39283
2.2728
2.15677
2.05328
1.95301
1.86247
1.7769
1.69583
1.62544
1.55148
1.49173
1.43016
1.37559
1.32315
1.276
1.23189
1.19083
1.15538
1.12434
1.09979
1.07698
1.06086
1.04647
1.03791
1.02929
1.02604
1.02779
1.03329
1.04432
1.06109
1.06314
1.05909
1.0528
1.03821
1.0178
0.999773
0.996089
0.997423
1.00362
1.01119
1.02215
1.03618
1.04977
1.0768
1.11172
1.14349
1.16662
1.1701
1.17105
1.18888
1.22991
1.2838
1.32947
1.35463
1.36402
1.37066
1.37881
1.38897
1.39884
1.40213
1.40134
1.40033
1.40003
1.40001
1.40001
1.40001
1.40001
1.40001
1.40001
1.40001
1.40001
1.40001
3.20135
3.20128
3.20116
3.20105
3.20094
3.20085
3.20075
3.20052
3.20033
3.20026
3.19996
3.19975
3.19955
3.19925
3.19907
3.19892
3.19887
3.19845
3.19754
3.19589
3.19279
3.18588
3.17125
3.1425
3.09277
3.0195
2.9228
2.80985
2.6847
2.55973
2.43288
2.31682
2.19969
2.095
1.99789
1.89991
1.81857
1.73516
1.6598
1.59
1.52359
1.46145
1.40385
1.3505
1.29883
1.25408
1.20589
1.1667
1.12906
1.09832
1.06829
1.04883
1.03828
1.03114
1.03272
1.03977
1.04517
1.05271
1.0574
1.05693
1.05395
1.0503
1.04287
1.02799
1.01138
1.00253
1.00471
1.01
1.01688
1.02959
1.04388
1.0702
1.10895
1.14281
1.1683
1.17582
1.18061
1.19972
1.23749
1.28785
1.33091
1.35567
1.36658
1.37359
1.38165
1.39183
1.40102
1.4028
1.40153
1.40031
1.40002
1.40001
1.40001
1.40001
1.40001
1.40001
1.40001
1.40001
1.40001
1.40001
3.20034
3.20077
3.2013
3.20175
3.20204
3.2022
3.20233
3.20249
3.20252
3.20244
3.20232
3.20222
3.20212
3.20208
3.20212
3.2022
3.20228
3.20217
3.202
3.20169
3.20098
3.19959
3.19717
3.19208
3.18059
3.15675
3.11198
3.04176
2.94688
2.83662
2.71128
2.58915
2.46533
2.34341
2.23618
2.1251
2.02644
1.93551
1.84355
1.7641
1.68777
1.61509
1.5481
1.48752
1.4242
1.37345
1.32085
1.27529
1.22876
1.18941
1.1561
1.12194
1.09701
1.07587
1.06059
1.05023
1.0418
1.03951
1.04103
1.04344
1.04832
1.05282
1.04939
1.04213
1.03037
1.016
1.01389
1.01497
1.01792
1.02594
1.03976
1.06484
1.10641
1.14247
1.17035
1.18262
1.1908
1.2106
1.24588
1.29388
1.33477
1.35745
1.3693
1.37686
1.38485
1.39506
1.40315
1.40351
1.40165
1.40028
1.40002
1.40001
1.40001
1.40001
1.40001
1.40001
1.40001
1.40001
1.40001
1.40001
3.19269
3.19281
3.193
3.19336
3.19385
3.19446
3.19519
3.19595
3.19673
3.19757
3.19841
3.19926
3.20018
3.20092
3.2014
3.20189
3.20237
3.20244
3.20227
3.20217
3.20214
3.20214
3.20236
3.20183
3.19921
3.19354
3.18228
3.15932
3.11605
3.05035
2.95799
2.84696
2.73201
2.60294
2.48412
2.36953
2.24992
2.15187
2.04884
1.95356
1.86655
1.78547
1.70352
1.63534
1.56782
1.50136
1.44026
1.38587
1.33547
1.28272
1.23887
1.19316
1.15619
1.11919
1.08893
1.06581
1.04994
1.04427
1.04373
1.04746
1.05305
1.05176
1.04833
1.04236
1.03707
1.03084
1.02563
1.02224
1.0212
1.02501
1.03618
1.05935
1.10208
1.1424
1.17069
1.1871
1.19955
1.22033
1.25269
1.29773
1.3386
1.36007
1.37224
1.38042
1.38851
1.39867
1.40499
1.40427
1.40175
1.40025
1.40001
1.40001
1.40001
1.40001
1.40001
1.40001
1.40001
1.40001
1.40001
1.40001
3.19099
3.19084
3.19075
3.19069
3.19046
3.19027
3.19028
3.19014
3.1901
3.19025
3.19018
3.19024
3.19065
3.1908
3.19106
3.19165
3.19243
3.19338
3.19451
3.1958
3.19729
3.19919
3.20113
3.20229
3.20287
3.20276
3.20236
3.19962
3.18632
3.15938
3.11599
3.04633
2.95687
2.85263
2.72789
2.61469
2.4928
2.37526
2.26656
2.16334
2.05919
1.97083
1.88218
1.79615
1.71993
1.64869
1.58044
1.51005
1.4545
1.39381
1.34238
1.2907
1.24522
1.203
1.16664
1.13602
1.10522
1.08679
1.06994
1.05782
1.0524
1.04526
1.04206
1.03867
1.03883
1.03801
1.0338
1.02729
1.02461
1.02613
1.03419
1.05393
1.09524
1.1415
1.17164
1.18903
1.20578
1.22921
1.26157
1.30374
1.34359
1.36408
1.37558
1.3842
1.39267
1.4026
1.40669
1.40506
1.40179
1.40022
1.40001
1.40001
1.40001
1.40001
1.40001
1.40001
1.40001
1.40001
1.40001
1.40001
3.19137
3.19099
3.19063
3.19034
3.19009
3.18986
3.18967
3.18952
3.18939
3.18932
3.18939
3.18951
3.18952
3.18947
3.18933
3.18906
3.18874
3.18864
3.18852
3.18831
3.18813
3.18798
3.1881
3.18857
3.18944
3.19087
3.19251
3.19357
3.19777
3.19686
3.19004
3.16442
3.11105
3.03844
2.94565
2.83727
2.72326
2.6073
2.48765
2.37764
2.27095
2.16459
2.0702
1.97878
1.89103
1.80496
1.73393
1.65535
1.58749
1.52104
1.45734
1.4019
1.34346
1.29575
1.24874
1.20779
1.16929
1.1297
1.10123
1.07479
1.06115
1.05188
1.0468
1.04471
1.04421
1.04275
1.03813
1.03075
1.02741
1.02818
1.03442
1.05048
1.0873
1.13817
1.17057
1.19056
1.21044
1.23561
1.26891
1.30943
1.34798
1.36848
1.37922
1.38805
1.39721
1.4065
1.40839
1.40577
1.40181
1.40019
1.40001
1.40001
1.40001
1.40001
1.40001
1.40001
1.40001
1.40001
1.40001
1.40001
3.20484
3.20401
3.20306
3.20203
3.20093
3.19983
3.1987
3.19753
3.19636
3.19515
3.19394
3.19273
3.19147
3.19031
3.18953
3.18904
3.18867
3.18832
3.18799
3.18767
3.1873
3.18703
3.18705
3.18722
3.18729
3.18706
3.18635
3.18594
3.185
3.18368
3.18048
3.17989
3.17436
3.15213
3.10155
3.02477
2.9252
2.81598
2.70452
2.58542
2.47749
2.3667
2.26514
2.16136
2.07291
1.97813
1.89343
1.81441
1.73414
1.66431
1.59151
1.52942
1.46538
1.41063
1.35365
1.30381
1.26007
1.21075
1.17781
1.14295
1.11458
1.09169
1.07507
1.06146
1.05008
1.04244
1.03602
1.02962
1.02859
1.02967
1.03441
1.04724
1.07772
1.12892
1.16728
1.19216
1.21526
1.24275
1.27709
1.31513
1.35099
1.37177
1.38238
1.39166
1.40194
1.40997
1.41026
1.40651
1.4018
1.40016
1.40001
1.40001
1.40001
1.40001
1.40001
1.40001
1.40001
1.40001
1.40001
1.40001
3.21855
3.21854
3.21848
3.21833
3.21808
3.21771
3.2172
3.21657
3.21581
3.21492
3.21394
3.21289
3.21173
3.2105
3.20922
3.20776
3.20595
3.2039
3.20173
3.19943
3.19704
3.19465
3.19222
3.18972
3.18737
3.18577
3.1846
3.1839
3.18378
3.1841
3.18371
3.18358
3.18018
3.17234
3.15702
3.12651
3.07636
2.99594
2.89961
2.78353
2.67464
2.55777
2.45224
2.34506
2.24422
2.15246
2.05731
1.97613
1.88927
1.81438
1.73722
1.66816
1.59991
1.53495
1.47473
1.41532
1.36448
1.30929
1.26284
1.21761
1.17603
1.14513
1.11009
1.08423
1.06491
1.05396
1.04428
1.04027
1.03623
1.03342
1.03488
1.04381
1.06921
1.11799
1.163
1.19457
1.22215
1.25234
1.28754
1.32295
1.35444
1.37499
1.38587
1.39569
1.40681
1.41294
1.41229
1.40726
1.4018
1.40014
1.40001
1.40001
1.40001
1.40001
1.40001
1.40001
1.40001
1.40001
1.40001
1.40001
3.21829
3.2187
3.21908
3.21945
3.21981
3.22012
3.22037
3.22057
3.22071
3.22083
3.22098
3.22118
3.22134
3.22127
3.22097
3.2202
3.21928
3.21906
3.21875
3.2182
3.2175
3.21645
3.21492
3.21294
3.21054
3.2076
3.20425
3.20093
3.19793
3.19467
3.19127
3.18759
3.18331
3.17964
3.17589
3.16846
3.15196
3.11236
3.0509
2.96179
2.85979
2.74497
2.62704
2.51942
2.40702
2.31414
2.21257
2.12712
2.03872
1.95913
1.88219
1.80497
1.73677
1.66204
1.59903
1.52992
1.47227
1.41746
1.36356
1.3151
1.26257
1.2261
1.18607
1.15538
1.12619
1.10056
1.07913
1.06069
1.04295
1.03332
1.03457
1.04114
1.06125
1.1049
1.15637
1.19688
1.22995
1.26202
1.29804
1.33335
1.36104
1.37988
1.391
1.40127
1.41225
1.41612
1.41446
1.40768
1.40168
1.40012
1.40001
1.40001
1.40001
1.40001
1.40001
1.40001
1.40001
1.40001
1.40001
1.40001
3.19891
3.20015
3.20155
3.20307
3.20464
3.20627
3.20796
3.20964
3.21127
3.21288
3.21438
3.21572
3.21698
3.21817
3.21933
3.22051
3.22178
3.22283
3.22351
3.22405
3.22454
3.22487
3.22491
3.22495
3.2252
3.22589
3.22707
3.22792
3.22772
3.22649
3.22399
3.22039
3.21515
3.20963
3.20324
3.19446
3.18361
3.16769
3.14218
3.09795
3.02416
2.93016
2.81116
2.70346
2.58078
2.47904
2.37245
2.27314
2.18548
2.09166
2.01512
1.92891
1.85944
1.78351
1.7157
1.6478
1.57788
1.52014
1.45908
1.41292
1.35585
1.30805
1.266
1.22165
1.18502
1.1456
1.11549
1.08198
1.05587
1.04105
1.03903
1.04398
1.05905
1.09403
1.14625
1.19663
1.23775
1.27161
1.30592
1.34022
1.36734
1.38553
1.39743
1.40846
1.41783
1.41968
1.41678
1.40826
1.40159
1.40009
1.40001
1.40001
1.40001
1.40001
1.40001
1.40001
1.40001
1.40001
1.40001
1.40001
3.17438
3.17453
3.17477
3.17515
3.17566
3.17634
3.17723
3.17839
3.17976
3.18124
3.18282
3.18455
3.18645
3.18853
3.19093
3.19359
3.19632
3.19907
3.2021
3.20563
3.20958
3.21361
3.21738
3.2208
3.2239
3.2266
3.22871
3.23002
3.23095
3.23191
3.23264
3.23211
3.23071
3.22902
3.22708
3.22365
3.21807
3.20976
3.1966
3.17725
3.14195
3.09093
3.00731
2.90912
2.79039
2.66936
2.55884
2.44114
2.34874
2.24347
2.15706
2.06568
1.98122
1.90653
1.82422
1.76131
1.68746
1.62525
1.55813
1.50067
1.4494
1.39252
1.35065
1.29669
1.25755
1.21527
1.17516
1.14167
1.10803
1.08331
1.05817
1.05594
1.06225
1.08656
1.1332
1.19023
1.23945
1.28001
1.31468
1.3444
1.36961
1.38899
1.40332
1.41588
1.42315
1.42384
1.41891
1.4081
1.40138
1.40007
1.40001
1.40001
1.40001
1.40001
1.40001
1.40001
1.40001
1.40001
1.40001
1.40001
3.17223
3.17137
3.17048
3.1696
3.16876
3.16798
3.16721
3.16649
3.1658
3.16516
3.16494
3.16499
3.16492
3.16505
3.16563
3.16589
3.16591
3.16679
3.16882
3.16925
3.16899
3.16949
3.17121
3.1738
3.17716
3.18127
3.18586
3.19042
3.1949
3.19944
3.20378
3.20775
3.21152
3.21548
3.21966
3.22224
3.22345
3.22327
3.22136
3.21706
3.20668
3.1836
3.14147
3.07527
2.98761
2.87347
2.76577
2.63836
2.53122
2.41991
2.31562
2.22586
2.12571
2.04797
1.95828
1.88406
1.80818
1.73472
1.67457
1.60296
1.55019
1.48788
1.43818
1.38797
1.33548
1.29362
1.23991
1.2043
1.16323
1.12509
1.09191
1.06789
1.07236
1.09013
1.13267
1.18879
1.24146
1.28731
1.32617
1.35541
1.37693
1.39463
1.41049
1.42338
1.42812
1.4281
1.42131
1.40818
1.40117
1.40005
1.40001
1.40001
1.40001
1.40001
1.40001
1.40001
1.40001
1.40001
1.40001
1.40001
3.21014
3.20879
3.20725
3.20547
3.20351
3.20135
3.19897
3.19649
3.19392
3.19132
3.18893
3.18659
3.18388
3.18079
3.17714
3.17288
3.16867
3.16493
3.1612
3.15779
3.15487
3.15254
3.15068
3.14906
3.14781
3.14769
3.14812
3.14836
3.14783
3.14746
3.14762
3.14904
3.15258
3.15846
3.16769
3.17744
3.18504
3.19119
3.19564
3.19694
3.19603
3.19833
3.19376
3.16833
3.11862
3.03468
2.94068
2.82642
2.70876
2.59809
2.48004
2.38446
2.27827
2.18945
2.1001
2.01181
1.93926
1.85245
1.78866
1.71693
1.65152
1.59424
1.52915
1.48051
1.42015
1.37368
1.32172
1.27148
1.23668
1.18895
1.15812
1.11718
1.10589
1.11255
1.13824
1.18485
1.24019
1.29171
1.33433
1.36676
1.38852
1.40472
1.42042
1.43148
1.43411
1.43255
1.42166
1.40736
1.40091
1.40004
1.40001
1.40001
1.40001
1.40001
1.40001
1.40001
1.40001
1.40001
1.40001
1.40001
3.24301
3.24272
3.24251
3.24282
3.2435
3.2437
3.2443
3.24497
3.24506
3.24534
3.24548
3.24489
3.2432
3.23975
3.23435
3.22907
3.22491
3.22126
3.21785
3.21502
3.2122
3.20885
3.20473
3.1997
3.19372
3.18719
3.17998
3.17179
3.16385
3.15749
3.15376
3.15328
3.15484
3.15816
3.15986
3.16114
3.16299
3.16547
3.16815
3.17063
3.17285
3.17374
3.17299
3.17034
3.16093
3.13064
3.0728
2.98902
2.88025
2.77284
2.64957
2.5453
2.43533
2.3323
2.24368
2.14285
2.06623
1.97889
1.90062
1.83359
1.7544
1.69453
1.62695
1.5682
1.50946
1.44945
1.4035
1.34224
1.30155
1.25901
1.21516
1.17736
1.1369
1.13785
1.15208
1.18884
1.24709
1.30263
1.34148
1.37225
1.39654
1.41555
1.43229
1.43996
1.44141
1.43777
1.42282
1.4065
1.40064
1.40002
1.40001
1.40001
1.40001
1.40001
1.40001
1.40001
1.40001
1.40001
1.40001
1.40001
3.22138
3.22354
3.22564
3.22718
3.22836
3.22963
3.23102
3.23202
3.23287
3.23391
3.23485
3.23487
3.23453
3.23473
3.23719
3.24183
3.24647
3.25019
3.25304
3.255
3.25653
3.25838
3.25884
3.25883
3.259
3.25882
3.25768
3.25491
3.25153
3.24845
3.24535
3.24163
3.23711
3.23152
3.22489
3.21888
3.21428
3.21036
3.20739
3.20538
3.20332
3.20017
3.19606
3.1908
3.18749
3.17849
3.15388
3.1087
3.0308
2.93984
2.82675
2.71264
2.60625
2.48712
2.3946
2.29075
2.19864
2.11529
2.02371
1.95162
1.87018
1.80008
1.7317
1.66137
1.60604
1.53591
1.48284
1.43061
1.37471
1.33469
1.2845
1.25139
1.21042
1.19113
1.19878
1.22017
1.26217
1.31127
1.35099
1.38031
1.40398
1.42558
1.44233
1.44784
1.44876
1.4414
1.42174
1.40518
1.4004
1.40001
1.40001
1.40001
1.40001
1.40001
1.40001
1.40001
1.40001
1.40001
1.40001
1.40001
3.0472
3.0527
3.05907
3.06562
3.07031
3.07471
3.08041
3.08527
3.08947
3.0937
3.09823
3.10258
3.10726
3.11262
3.11815
3.12333
3.12801
3.13152
3.13515
3.13782
3.14068
3.14384
3.14652
3.14954
3.1527
3.15633
3.1599
3.16401
3.16909
3.17511
3.18082
3.18422
3.18496
3.18356
3.1803
3.17875
3.17866
3.1792
3.18058
3.18233
3.18396
3.18535
3.18577
3.1851
3.18315
3.1825
3.17733
3.16126
3.12489
3.06386
2.98298
2.87429
2.771
2.6536
2.54528
2.4446
2.33795
2.24999
2.15319
2.07102
1.98812
1.90621
1.83969
1.75843
1.69581
1.63311
1.56348
1.51212
1.45459
1.40968
1.36082
1.31571
1.28529
1.24968
1.24437
1.25172
1.2769
1.31965
1.36715
1.40331
1.42853
1.4471
1.45528
1.45771
1.45723
1.44584
1.42044
1.40372
1.4002
1.40001
1.40001
1.40001
1.40001
1.40001
1.40001
1.40001
1.40001
1.40001
1.40001
1.40001
2.5639
2.58993
2.61858
2.64856
2.67793
2.7055
2.73681
2.76501
2.79465
2.82296
2.85227
2.88053
2.90748
2.93509
2.95939
2.9848
3.00555
3.02927
3.04644
3.06556
3.08164
3.09677
3.10994
3.12163
3.13231
3.14142
3.1489
3.15627
3.16368
3.16997
3.17587
3.18101
3.18233
3.18334
3.18409
3.18552
3.18772
3.18994
3.19199
3.19289
3.19284
3.19218
3.19133
3.19054
3.18901
3.18674
3.18407
3.18003
3.16895
3.14108
3.09268
3.0169
2.92164
2.81768
2.70195
2.59843
2.48591
2.38745
2.2897
2.1933
2.11253
2.0202
1.94555
1.86949
1.79013
1.72881
1.65656
1.59809
1.54051
1.48472
1.44548
1.39468
1.35975
1.32953
1.31062
1.31647
1.33597
1.35934
1.38461
1.41428
1.44482
1.46633
1.47215
1.47308
1.46784
1.44548
1.41632
1.40214
1.40008
1.40001
1.40001
1.40001
1.40001
1.40001
1.40001
1.40001
1.40001
1.40001
1.40001
1.40001
1.57961
1.60504
1.63369
1.66477
1.69829
1.73371
1.77175
1.8126
1.85565
1.90197
1.95009
2.00251
2.05546
2.11324
2.17012
2.23147
2.29191
2.35515
2.41831
2.48194
2.54587
2.60863
2.66935
2.72856
2.78328
2.83685
2.88433
2.93075
2.97028
3.00862
3.03919
3.06863
3.0909
3.1119
3.13074
3.14242
3.15535
3.16338
3.17014
3.17594
3.17831
3.18093
3.18382
3.18472
3.18382
3.18275
3.18155
3.17976
3.17839
3.17348
3.15557
3.11734
3.05142
2.96529
2.85876
2.7498
2.63932
2.52617
2.42803
2.32401
2.23359
2.14563
2.05528
1.97969
1.89623
1.82667
1.75466
1.68623
1.63427
1.56904
1.52261
1.48388
1.44437
1.415
1.38133
1.3785
1.39187
1.4042
1.41512
1.43388
1.45771
1.47785
1.4863
1.4884
1.47897
1.44323
1.41078
1.40086
1.40002
1.40001
1.40001
1.40001
1.40001
1.40001
1.40001
1.40001
1.40001
1.40001
1.40001
1.40001
1.40109
1.40222
1.40355
1.4052
1.40726
1.40985
1.41306
1.41711
1.42209
1.42832
1.43593
1.44535
1.4568
1.47067
1.48752
1.50737
1.53154
1.5593
1.59297
1.63097
1.67624
1.72663
1.78507
1.84884
1.92064
1.99745
2.08138
2.16897
2.26082
2.35419
2.44766
2.54055
2.62977
2.71638
2.7962
2.86523
2.93314
2.98231
3.03093
3.06965
3.09453
3.12446
3.13946
3.15129
3.16333
3.16706
3.17405
3.17601
3.17596
3.17419
3.17103
3.16143
3.13771
3.08927
3.01192
2.90904
2.79877
2.68072
2.56851
2.46268
2.36059
2.26819
2.17426
2.08998
2.00766
1.92751
1.85947
1.7828
1.72406
1.66914
1.6104
1.5714
1.53244
1.50333
1.4745
1.45511
1.45491
1.45833
1.46647
1.48227
1.50083
1.51293
1.51636
1.5128
1.48013
1.43184
1.40483
1.4002
1.40001
1.40001
1.40001
1.40001
1.40001
1.40001
1.40001
1.40001
1.40001
1.40001
1.40001
1.40001
1.4
1.40001
1.40001
1.40001
1.40002
1.40003
1.40005
1.40008
1.40011
1.40017
1.40025
1.40037
1.40054
1.40079
1.40115
1.40166
1.4024
1.40343
1.40492
1.40698
1.40996
1.414
1.41978
1.42749
1.43837
1.45251
1.47213
1.49686
1.5302
1.57076
1.62348
1.68528
1.76202
1.84872
1.95013
2.05987
2.17828
2.30318
2.42536
2.54912
2.6658
2.76289
2.86943
2.93477
3.00529
3.05388
3.09343
3.12209
3.14101
3.15478
3.16196
3.15857
3.15052
3.13665
3.10797
3.05366
2.96934
2.86211
2.74167
2.62195
2.50693
2.40117
2.30001
2.20466
2.12102
2.03534
1.95966
1.88894
1.82042
1.76397
1.70654
1.66362
1.62643
1.58743
1.56156
1.54045
1.52572
1.51403
1.51471
1.52582
1.54481
1.55665
1.55664
1.52553
1.46507
1.41572
1.4012
1.40003
1.40001
1.40001
1.40001
1.40001
1.40001
1.40001
1.40001
1.40001
1.40001
1.40001
1.40001
1.40001
1.40001
1.40001
1.40001
1.40001
1.40001
1.40001
1.40001
1.40001
1.40001
1.40001
1.40001
1.40001
1.40001
1.40001
1.40001
1.40001
1.40001
1.40002
1.40002
1.40003
1.40005
1.40008
1.40013
1.40022
1.40035
1.40058
1.40096
1.40158
1.40263
1.40428
1.40704
1.41129
1.41824
1.42849
1.44478
1.46766
1.50209
1.5479
1.6118
1.69172
1.79493
1.91351
2.05347
2.20292
2.35887
2.5119
2.65644
2.78112
2.89032
2.97445
3.03871
3.08849
3.11128
3.11805
3.10803
3.08817
3.05469
3.00058
2.92384
2.82047
2.70031
2.57898
2.46126
2.35069
2.25174
2.16008
2.0737
1.99861
1.92775
1.86561
1.80914
1.75917
1.72117
1.6827
1.65123
1.62592
1.6029
1.59348
1.59797
1.61065
1.62074
1.61757
1.57632
1.5056
1.43485
1.40419
1.40014
1.40001
1.40001
1.40001
1.40001
1.40001
1.40001
1.40001
1.40001
1.40001
1.40001
1.40001
1.40001
1.40001
1.40001
1.40001
1.40001
1.40001
1.40001
1.40001
1.40001
1.40001
1.40001
1.40001
1.40001
1.40001
1.40001
1.40001
1.40001
1.40001
1.40001
1.40001
1.40001
1.40001
1.40001
1.40001
1.40001
1.40001
1.40001
1.40001
1.40001
1.40001
1.40001
1.40002
1.40004
1.40007
1.40013
1.40024
1.40047
1.4009
1.40176
1.40337
1.40642
1.41196
1.42181
1.43898
1.46615
1.51155
1.57373
1.66893
1.78427
1.93619
2.10396
2.28545
2.47464
2.63759
2.79435
2.9054
2.97349
3.02879
3.02482
3.00282
2.96424
2.91478
2.84541
2.76272
2.66132
2.55225
2.44372
2.33789
2.2386
2.15022
2.07085
1.99971
1.93849
1.88481
1.83906
1.7988
1.76424
1.73827
1.71611
1.70784
1.70983
1.70747
1.6829
1.62626
1.54829
1.45939
1.40984
1.40048
1.40001
1.40001
1.40001
1.40001
1.40001
1.40001
1.40001
1.40001
1.40001
1.40001
1.40001
1.40001
1.40001
1.40001
1.40001
1.40001
1.40001
1.40001
1.40001
1.40001
1.40001
1.40001
1.40001
1.40001
1.40001
1.40001
1.40001
1.40001
1.40001
1.40001
1.40001
1.40001
1.40001
1.40001
1.40001
1.40001
1.40001
1.40001
1.40001
1.40001
1.40001
1.40001
1.40001
1.40001
1.40001
1.40001
1.40001
1.40001
1.40001
1.40001
1.40001
1.40002
1.40003
1.40007
1.40017
1.40039
1.40088
1.40208
1.40456
1.41021
1.42092
1.44279
1.47971
1.54463
1.63816
1.77824
1.94573
2.15678
2.35472
2.56427
2.70966
2.82259
2.86554
2.87104
2.84305
2.78813
2.72882
2.66398
2.5901
2.51101
2.42772
2.34605
2.2663
2.18998
2.12187
2.06154
2.00777
1.96058
1.91974
1.88544
1.85531
1.82618
1.78899
1.73826
1.67394
1.58569
1.48185
1.41656
1.40107
1.40002
1.40001
1.40001
1.40001
1.40001
1.40001
1.40001
1.40001
1.40001
1.40001
1.40001
1.40001
1.40001
1.40001
1.40001
1.40001
1.40001
1.40001
1.40001
1.40001
1.40001
1.40001
1.40001
1.40001
1.40001
1.40001
1.40001
1.40001
1.40001
1.40001
1.40001
1.40001
1.40001
1.40001
1.40001
1.40001
1.40001
1.40001
1.40001
1.40001
1.40001
1.40001
1.40001
1.40001
1.40001
1.40001
1.40001
1.40001
1.40001
1.40001
1.40001
1.40001
1.40001
1.40001
1.40001
1.40001
1.40001
1.40001
1.40001
1.40002
1.40006
1.40016
1.40045
1.40121
1.40331
1.40828
1.42036
1.44523
1.49527
1.58207
1.71314
1.89861
2.09702
2.31
2.48078
2.59049
2.65155
2.66732
2.63903
2.595
2.53727
2.47612
2.41533
2.35364
2.29166
2.23219
2.1754
2.11957
2.06449
2.01063
1.95738
1.90302
1.84573
1.78442
1.70748
1.60382
1.49129
1.42016
1.40155
1.40004
1.40001
1.40001
1.40001
1.40001
1.40001
1.40001
1.40001
1.40001
1.40001
1.40001
1.40001
1.40001
1.40001
1.40001
1.40001
1.40001
1.40001
1.40001
1.40001
1.40001
1.40001
1.40001
1.40001
1.40001
1.40001
1.40001
1.40001
1.40001
1.40001
1.40001
1.40001
1.40001
1.40001
1.40001
1.40001
1.40001
1.40001
1.40001
1.40001
1.40001
1.40001
1.40001
1.40001
1.40001
1.40001
1.40001
1.40001
1.40001
1.40001
1.40001
1.40001
1.40001
1.40001
1.40001
1.40001
1.40001
1.40001
1.40001
1.40001
1.40001
1.40001
1.40001
1.40001
1.40001
1.40002
1.40005
1.40016
1.4005
1.40165
1.40512
1.41438
1.43806
1.48556
1.57448
1.7072
1.86923
2.04485
2.20375
2.31257
2.38696
2.41051
2.40154
2.37587
2.33487
2.28601
2.23454
2.18112
2.12506
2.06679
2.0067
1.94374
1.87499
1.79541
1.69799
1.58415
1.47763
1.41697
1.40141
1.40004
1.40001
1.40001
1.40001
1.40001
1.40001
1.40001
1.40001
1.40001
1.40001
1.40001
1.40001
1.40001
1.40001
1.40001
1.40001
1.40001
1.40001
1.40001
1.40001
1.40001
1.40001
1.40001
1.40001
1.40001
1.40001
1.40001
1.40001
1.40001
1.40001
1.40001
1.40001
1.40001
1.40001
1.40001
1.40001
1.40001
1.40001
1.40001
1.40001
1.40001
1.40001
1.40001
1.40001
1.40001
1.40001
1.40001
1.40001
1.40001
1.40001
1.40001
1.40001
1.40001
1.40001
1.40001
1.40001
1.40001
1.40001
1.40001
1.40001
1.40001
1.40001
1.40001
1.40001
1.40001
1.40001
1.40001
1.40001
1.40001
1.40001
1.40001
1.40003
1.4001
1.4004
1.40146
1.40504
1.41518
1.43875
1.48551
1.561
1.66265
1.77459
1.88764
1.97434
2.03451
2.06759
2.07613
2.06107
2.03077
1.98811
1.93406
1.86922
1.79362
1.70675
1.61067
1.51599
1.44374
1.40891
1.40075
1.40003
1.40001
1.40001
1.40001
1.40001
1.40001
1.40001
1.40001
1.40001
1.40001
1.40001
1.40001
1.40001
1.40001
1.40001
1.40001
1.40001
1.40001
1.40001
1.40001
1.40001
1.40001
1.40001
1.40001
1.40001
1.40001
1.40001
1.40001
1.40001
1.40001
1.40001
1.40001
1.40001
1.40001
1.40001
1.40001
1.40001
1.40001
1.40001
1.40001
1.40001
1.40001
1.40001
1.40001
1.40001
1.40001
1.40001
1.40001
1.40001
1.40001
1.40001
1.40001
1.40001
1.40001
1.40001
1.40001
1.40001
1.40001
1.40001
1.40001
1.40001
1.40001
1.40001
1.40001
1.40001
1.40001
1.40001
1.40001
1.40001
1.40001
1.40001
1.40001
1.40001
1.40001
1.40001
1.40001
1.40003
1.40011
1.40045
1.40162
1.40504
1.41342
1.42981
1.45779
1.49526
1.53815
1.58185
1.61644
1.63842
1.63742
1.62693
1.60329
1.56735
1.52322
1.47737
1.43813
1.41289
1.40245
1.40021
1.40001
1.40001
1.40001
1.40001
1.40001
1.40001
1.40001
1.40001
1.40001
1.40001
1.40001
1.40001
1.40001
1.40001
1.40001
1.40001
1.40001
1.40001
1.40001
1.40001
1.40001
1.40001
1.40001
1.40001
1.40001
1.40001
1.40001
1.40001
1.40001
1.40001
1.40001
1.40001
1.40001
1.40001
1.40001
1.40001
1.40001
1.40001
1.40001
1.40001
1.40001
1.40001
1.40001
1.40001
1.40001
1.40001
1.40001
1.40001
1.40001
1.40001
1.40001
1.40001
1.40001
1.40001
1.40001
1.40001
1.40001
1.40001
1.40001
1.40001
1.40001
1.40001
1.40001
1.40001
1.40001
1.40001
1.40001
1.40001
1.40001
1.40001
1.40001
1.40001
1.40001
1.40001
1.40001
1.40001
1.40001
1.40001
1.40001
1.40001
1.40001
1.40003
1.40011
1.40034
1.401
1.40244
1.40506
1.4091
1.41406
1.4189
1.42101
1.42071
1.41863
1.41439
1.40908
1.40438
1.40145
1.40029
1.40003
1.40001
1.40001
1.40001
1.40001
1.40001
1.40001
1.40001
1.40001
1.40001
1.40001
1.40001
1.40001
1.40001
1.40001
1.40001
1.40001
1.40001
1.40001
1.40001
1.40001
1.40001
1.40001
1.40001
1.40001
1.40001
1.40001
1.40001
1.40001
1.40001
1.40001
1.40001
1.40001
1.40001
1.40001
1.40001
1.40001
1.40001
1.40001
1.40001
1.40001
1.40001
1.40001
1.40001
1.40001
1.40001
1.40001
1.40001
1.40001
1.40001
1.40001
1.40001
1.40001
1.40001
1.40001
1.40001
1.40001
1.40001
1.40001
1.40001
1.40001
1.40001
1.40001
1.40001
1.40001
1.40001
1.40001
1.40001
1.40001
1.40001
1.40001
1.40001
1.40001
1.40001
1.40001
1.40001
1.40001
1.40001
1.40001
1.40001
1.40001
1.40001
1.40001
1.40001
1.40001
1.40001
1.40001
1.40002
1.40004
1.40008
1.40015
1.40024
1.40031
1.40031
1.40029
1.40022
1.40013
1.40005
1.40002
1.40001
1.40001
1.40001
1.40001
1.40001
1.40001
1.40001
1.40001
1.40001