/*--------------------------------*- C++ -*----------------------------------*\
  =========                 |
  \\      /  F ield         | OpenFOAM: The Open Source CFD Toolbox
   \\    /   O peration     | Website:  https://openfoam.org
    \\  /    A nd           | Version:  7
     \\/     M anipulation  |
\*---------------------------------------------------------------------------*/
FoamFile
{
    version     2.0;
    format      ascii;
    class       volScalarField;
    location    "11";
    object      T;
}
// * * * * * * * * * * * * * * * * * * * * * * * * * * * * * * * * * * * * * //

dimensions      [0 0 0 1 0 0 0];

internalField   nonuniform List<scalar> 
90000
(
0.675405
0.754557
0.822103
0.859366
0.885057
0.916174
0.935626
0.949742
0.964501
0.982207
0.998672
1.01421
1.03106
1.05011
1.06882
1.08805
1.1083
1.12785
1.14675
1.16223
1.17631
1.18532
1.19408
1.19481
1.19446
1.19308
1.19096
1.18814
1.18476
1.18057
1.1768
1.17355
1.17223
1.17066
1.16941
1.16793
1.1658
1.16306
1.15908
1.15493
1.15242
1.15321
1.15615
1.15954
1.16342
1.16662
1.16937
1.16922
1.16683
1.16239
1.15682
1.15205
1.14885
1.14729
1.14799
1.14922
1.15082
1.15165
1.15068
1.14845
1.14534
1.14234
1.14049
1.13979
1.14023
1.14085
1.13998
1.13825
1.13548
1.133
1.13118
1.13087
1.13102
1.13012
1.12825
1.12587
1.12385
1.12273
1.12268
1.12165
1.11966
1.11715
1.11522
1.11408
1.11286
1.11121
1.10939
1.10769
1.10602
1.1042
1.10238
1.10075
1.09912
1.09736
1.09557
1.09405
1.09285
1.09171
1.09068
1.08895
0.589898
0.589776
0.589641
0.589499
0.589351
0.589197
0.589051
0.588848
0.588704
0.589886
0.593045
0.599478
0.609888
0.627456
0.650637
0.683359
0.722408
0.772102
0.822433
0.877268
0.927671
0.976646
1.01908
1.05455
1.08361
1.10695
1.12732
1.1432
1.1579
1.16756
1.17682
1.18222
1.18866
1.19104
1.19398
1.19456
1.19416
1.19252
1.19098
1.19261
1.19659
1.19931
1.19999
1.19988
1.19937
1.1987
1.19634
1.19245
1.18711
1.18313
1.18029
1.18038
1.18086
1.18158
1.18242
1.18313
1.18294
1.18168
1.17918
1.17549
1.17235
1.17011
1.17032
1.17089
1.17212
1.17163
1.17007
1.16704
1.16396
1.16225
1.16138
1.16154
1.16083
1.15885
1.1562
1.15383
1.15268
1.15217
1.15068
1.14836
1.14549
1.14285
1.14105
1.14007
1.13836
1.13603
1.13359
1.13143
1.12928
1.12684
1.12444
1.12214
1.11976
1.11723
1.11478
1.11258
1.11063
1.10882
1.10713
1.10427
0.58844
0.588321
0.588193
0.588058
0.587917
0.587771
0.587617
0.58746
0.587293
0.587119
0.586891
0.586635
0.586367
0.586096
0.585824
0.585559
0.585299
0.585051
0.584801
0.58458
0.584235
0.586141
0.593155
0.612085
0.641398
0.686119
0.735828
0.794635
0.850086
0.907252
0.95662
1.00246
1.0409
1.07675
1.10923
1.13694
1.1636
1.18372
1.20259
1.21325
1.22026
1.22024
1.21911
1.21711
1.21412
1.20925
1.20192
1.19258
1.18688
1.18822
1.19115
1.19446
1.19765
1.19996
1.20151
1.20142
1.19998
1.19663
1.19298
1.19053
1.18976
1.19047
1.19281
1.19305
1.19241
1.19044
1.18733
1.18501
1.18294
1.18387
1.18513
1.18462
1.18286
1.18005
1.17752
1.17646
1.17626
1.17625
1.17498
1.17212
1.16932
1.16756
1.16634
1.16463
1.16268
1.16062
1.15848
1.15615
1.1535
1.15085
1.14855
1.14617
1.14348
1.14052
1.13778
1.13531
1.13287
1.13024
1.12811
1.1244
0.586301
0.586173
0.586037
0.585895
0.585748
0.585598
0.585444
0.585285
0.585124
0.584959
0.584792
0.584624
0.584458
0.584293
0.584129
0.583966
0.583803
0.583643
0.583482
0.583322
0.583171
0.583
0.582818
0.582643
0.582481
0.582333
0.582202
0.582079
0.581979
0.581828
0.584415
0.597221
0.621577
0.66617
0.719543
0.788033
0.854826
0.924713
0.985963
1.03785
1.08018
1.1121
1.1411
1.15817
1.17336
1.178
1.18332
1.18563
1.19219
1.19739
1.20322
1.2065
1.20948
1.20939
1.20887
1.20697
1.20202
1.1976
1.19496
1.19531
1.19704
1.19957
1.20296
1.20263
1.20063
1.19708
1.19452
1.1935
1.19439
1.19543
1.19717
1.19632
1.19376
1.19178
1.1904
1.19147
1.19165
1.19074
1.1888
1.18622
1.18434
1.18395
1.18408
1.1831
1.18112
1.17893
1.17742
1.17597
1.17403
1.17181
1.16965
1.16742
1.16495
1.16252
1.16004
1.15764
1.15557
1.15311
1.15074
1.14672
0.584239
0.584139
0.584034
0.583928
0.58382
0.583712
0.583602
0.583493
0.583383
0.583273
0.583165
0.583057
0.582952
0.582848
0.582746
0.582644
0.582543
0.582445
0.582349
0.582256
0.582163
0.582074
0.58199
0.58191
0.581834
0.581761
0.581691
0.581624
0.581556
0.581492
0.581406
0.581314
0.581223
0.581134
0.581042
0.580955
0.580828
0.582399
0.592607
0.627684
0.68174
0.761035
0.840447
0.921163
0.990142
1.05071
1.1065
1.1489
1.17996
1.1913
1.19855
1.20091
1.20346
1.20397
1.20262
1.19714
1.19291
1.19409
1.19597
1.1998
1.20312
1.20465
1.20405
1.20227
1.19886
1.19575
1.19523
1.19622
1.19901
1.20153
1.20079
1.19849
1.19586
1.19496
1.19553
1.19746
1.19843
1.1969
1.19419
1.19254
1.19269
1.1929
1.19236
1.19157
1.19055
1.1897
1.18848
1.1871
1.1858
1.18482
1.1838
1.18229
1.18047
1.17841
1.17709
1.17542
1.17333
1.17164
1.17009
1.16674
0.582704
0.582644
0.582581
0.582519
0.582458
0.582398
0.582339
0.58228
0.582221
0.582162
0.582104
0.582048
0.581991
0.581934
0.581879
0.581825
0.581769
0.581716
0.581664
0.581611
0.581557
0.581503
0.581451
0.5814
0.581349
0.581297
0.581244
0.581192
0.581138
0.581081
0.581021
0.580959
0.580894
0.580825
0.58075
0.580665
0.580588
0.580488
0.580383
0.580282
0.580187
0.580115
0.580035
0.582817
0.600354
0.656946
0.740361
0.849194
0.940566
1.01522
1.0716
1.10914
1.14268
1.15752
1.17003
1.17401
1.18365
1.19247
1.20141
1.20644
1.20542
1.20268
1.19927
1.1945
1.19242
1.19298
1.19505
1.19914
1.20338
1.20244
1.19896
1.19554
1.19443
1.19524
1.19865
1.20054
1.19959
1.19661
1.19396
1.19403
1.19509
1.19599
1.19537
1.19422
1.19315
1.19315
1.19286
1.19207
1.19127
1.19061
1.19006
1.18929
1.18831
1.18732
1.18622
1.18597
1.18509
1.1836
1.18283
1.18105
0.581765
0.581734
0.581702
0.58167
0.581639
0.581609
0.581579
0.58155
0.581521
0.581491
0.581462
0.581434
0.581404
0.581374
0.581342
0.581308
0.581275
0.581243
0.581212
0.581176
0.581137
0.581097
0.581056
0.581016
0.580973
0.580928
0.580882
0.580833
0.580782
0.58073
0.580673
0.58061
0.580545
0.580477
0.580403
0.580321
0.580244
0.580174
0.580112
0.580052
0.579994
0.579948
0.579918
0.579887
0.579867
0.579839
0.579809
0.579755
0.583829
0.622235
0.6917
0.797765
0.892855
0.980779
1.05474
1.11385
1.16028
1.17864
1.1896
1.1934
1.19639
1.19551
1.18947
1.18499
1.18664
1.19219
1.19675
1.19884
1.19887
1.19542
1.19144
1.19084
1.19249
1.197
1.19952
1.19869
1.19536
1.19325
1.19273
1.19424
1.19623
1.19598
1.195
1.19407
1.19354
1.19353
1.19336
1.1927
1.19234
1.19236
1.192
1.19135
1.19075
1.19062
1.19049
1.18998
1.19007
1.18996
1.18942
1.18851
0.581244
0.581229
0.581212
0.581195
0.581178
0.581161
0.581146
0.581129
0.581113
0.581094
0.581075
0.581055
0.581035
0.581013
0.580987
0.580959
0.58093
0.580903
0.580874
0.580842
0.580807
0.58077
0.58073
0.580689
0.580646
0.580601
0.580556
0.58051
0.580461
0.580412
0.58036
0.580301
0.580239
0.58018
0.580122
0.580067
0.580013
0.579964
0.579922
0.579883
0.57985
0.579826
0.579809
0.579802
0.579795
0.579774
0.579743
0.579704
0.579652
0.579606
0.579557
0.579546
0.579544
0.606058
0.671641
0.79581
0.909437
1.00221
1.07241
1.11335
1.15134
1.1612
1.1701
1.17743
1.19059
1.19799
1.19882
1.19792
1.1913
1.18455
1.18513
1.18822
1.19393
1.19851
1.19761
1.1925
1.18872
1.18887
1.19119
1.1945
1.19476
1.19409
1.19274
1.19249
1.19303
1.19302
1.19255
1.19208
1.19214
1.19225
1.19201
1.19142
1.19106
1.19118
1.1915
1.19138
1.19139
1.19176
1.19195
1.19169
0.580943
0.580933
0.580919
0.580905
0.580892
0.580879
0.580865
0.58085
0.580832
0.580813
0.580793
0.580772
0.58075
0.580725
0.580699
0.58067
0.58064
0.580609
0.580577
0.580544
0.580509
0.580471
0.580431
0.58039
0.580347
0.580303
0.58026
0.580218
0.580175
0.580132
0.580088
0.580042
0.579996
0.579953
0.579918
0.579888
0.579859
0.579832
0.57981
0.579791
0.579777
0.579764
0.57975
0.579747
0.57974
0.579714
0.579669
0.57962
0.579576
0.579543
0.579506
0.579479
0.57948
0.579486
0.579506
0.579529
0.580618
0.622532
0.709435
0.83884
0.952089
1.04508
1.12403
1.16587
1.18465
1.18994
1.19236
1.18872
1.17782
1.17922
1.18441
1.19083
1.19403
1.19403
1.18953
1.18426
1.18446
1.18724
1.19089
1.19246
1.19168
1.18951
1.18932
1.19061
1.19149
1.19091
1.19018
1.1904
1.19123
1.19133
1.19089
1.19054
1.19066
1.19127
1.19152
1.19156
1.19171
1.192
1.19218
1.19233
0.580681
0.580667
0.580653
0.58064
0.580627
0.580612
0.580595
0.580576
0.580554
0.58053
0.580503
0.580476
0.580448
0.58042
0.580392
0.580362
0.580332
0.5803
0.580267
0.580233
0.580199
0.580162
0.580124
0.580086
0.580046
0.580006
0.579968
0.579935
0.579905
0.579878
0.579852
0.57983
0.579811
0.579794
0.579783
0.579772
0.579761
0.579751
0.579741
0.579734
0.579726
0.579709
0.579692
0.579682
0.579666
0.579637
0.579588
0.57954
0.579506
0.579482
0.579462
0.579443
0.579431
0.579433
0.579459
0.579521
0.579529
0.579512
0.579468
0.579431
0.591209
0.67495
0.808107
0.948693
1.04374
1.10111
1.14573
1.15866
1.16738
1.18068
1.19271
1.19591
1.19456
1.18619
1.17921
1.17998
1.18405
1.1895
1.19118
1.18981
1.18629
1.18562
1.18743
1.18919
1.18877
1.18762
1.18753
1.1885
1.18941
1.18905
1.18858
1.18883
1.18959
1.19026
1.19042
1.19075
1.1912
1.19158
1.19181
1.19233
0.580374
0.580359
0.580342
0.580325
0.580306
0.580286
0.580265
0.580243
0.58022
0.580193
0.580166
0.580139
0.580112
0.580084
0.580055
0.580027
0.579998
0.579969
0.579941
0.579912
0.579884
0.579856
0.579825
0.579795
0.579765
0.579739
0.579718
0.579703
0.5797
0.5797
0.579697
0.579698
0.579699
0.579699
0.579698
0.579694
0.579692
0.579687
0.579682
0.579674
0.57966
0.579639
0.579622
0.579607
0.579585
0.579555
0.57952
0.579486
0.579467
0.579455
0.579447
0.579444
0.579444
0.579442
0.579472
0.579531
0.579528
0.579509
0.579451
0.5794
0.579381
0.579384
0.579397
0.593335
0.66105
0.803686
0.937722
1.05241
1.14005
1.17741
1.19187
1.19157
1.18679
1.17306
1.17536
1.18248
1.18771
1.18978
1.18857
1.18388
1.18273
1.18411
1.18734
1.18728
1.18625
1.18495
1.18558
1.18708
1.1872
1.18636
1.18636
1.18698
1.18796
1.18842
1.18867
1.18928
1.19
1.19033
1.19058
1.19158
0.580023
0.580007
0.579988
0.579969
0.579951
0.579931
0.579912
0.579894
0.579876
0.579856
0.579835
0.579811
0.579786
0.579763
0.579743
0.579723
0.579703
0.579684
0.579667
0.579649
0.579633
0.579617
0.579601
0.579587
0.579576
0.579571
0.579572
0.579581
0.579601
0.579615
0.579621
0.579628
0.579635
0.579636
0.579635
0.579631
0.579624
0.579619
0.579621
0.57961
0.579584
0.579563
0.57955
0.579543
0.57953
0.579511
0.579491
0.579471
0.579458
0.579451
0.579451
0.579451
0.579457
0.579477
0.579535
0.579558
0.579551
0.579522
0.579444
0.579366
0.579354
0.579365
0.579418
0.579533
0.579689
0.57973
0.589686
0.680177
0.848289
0.985735
1.07927
1.13122
1.15781
1.16381
1.18079
1.19199
1.19193
1.19037
1.18196
1.1796
1.18136
1.18638
1.18767
1.18585
1.18321
1.18357
1.18555
1.1864
1.18559
1.18445
1.1848
1.186
1.18657
1.18681
1.18713
1.18784
1.18861
1.18893
1.18917
1.19061
0.579737
0.579727
0.579715
0.579695
0.579679
0.579667
0.579658
0.579646
0.579633
0.579625
0.579618
0.579607
0.579588
0.579573
0.579561
0.579551
0.579542
0.579535
0.579529
0.579521
0.579518
0.579517
0.579514
0.579514
0.579518
0.579525
0.579532
0.57955
0.57958
0.579589
0.579592
0.579596
0.579601
0.579601
0.579601
0.579596
0.579585
0.579585
0.579592
0.579573
0.579531
0.579506
0.579505
0.579512
0.579517
0.579514
0.579504
0.57951
0.579512
0.579505
0.579492
0.579475
0.579471
0.579491
0.579547
0.579557
0.57955
0.57952
0.579431
0.579357
0.57935
0.579386
0.579534
0.579818
0.57992
0.579931
0.579972
0.580009
0.579966
0.609741
0.730494
0.888852
1.0366
1.13515
1.18047
1.19161
1.19136
1.18358
1.17613
1.17999
1.18631
1.18921
1.18736
1.18184
1.18203
1.1845
1.18652
1.18601
1.18333
1.18333
1.1846
1.18587
1.18592
1.18603
1.18646
1.18733
1.18766
1.18789
1.18823
1.19001
0.579602
0.579597
0.579592
0.579584
0.579574
0.579566
0.57956
0.579557
0.579554
0.57955
0.579547
0.579544
0.579539
0.579532
0.579523
0.579516
0.579512
0.579513
0.579513
0.579512
0.579515
0.579523
0.579526
0.57953
0.579542
0.579546
0.579547
0.579559
0.579581
0.579582
0.57958
0.579579
0.57958
0.579582
0.579581
0.579576
0.579559
0.57955
0.579553
0.579531
0.579485
0.579457
0.579457
0.579464
0.579479
0.579492
0.579512
0.579556
0.579561
0.579539
0.579498
0.579475
0.579463
0.579472
0.579515
0.579516
0.579507
0.579472
0.5794
0.579361
0.579387
0.57948
0.579728
0.580005
0.580024
0.58001
0.580008
0.579973
0.579849
0.579638
0.579236
0.580771
0.64966
0.847428
0.997956
1.08618
1.15457
1.16092
1.17696
1.18976
1.19282
1.19127
1.18206
1.18026
1.18299
1.18755
1.18732
1.18431
1.18258
1.18375
1.18597
1.18614
1.18577
1.18589
1.18662
1.18729
1.18734
1.18748
1.18805
1.19
0.579568
0.579571
0.579571
0.579571
0.579569
0.579563
0.579561
0.579563
0.579569
0.579573
0.579576
0.579578
0.579582
0.579583
0.57958
0.579579
0.579579
0.579579
0.579577
0.579576
0.579582
0.579584
0.57958
0.579575
0.579573
0.579569
0.57956
0.579559
0.579569
0.579576
0.579573
0.579559
0.579542
0.579532
0.57953
0.579525
0.579511
0.579501
0.579504
0.579492
0.579464
0.579441
0.579439
0.579446
0.57946
0.579481
0.57955
0.579611
0.579608
0.579566
0.579487
0.579452
0.579429
0.579426
0.57947
0.579492
0.579491
0.579464
0.57942
0.579445
0.57952
0.579674
0.57996
0.580088
0.580085
0.580064
0.580019
0.579872
0.579629
0.5793
0.579035
0.578949
0.578969
0.579081
0.61237
0.767787
0.943748
1.0814
1.1691
1.19142
1.19163
1.18463
1.17482
1.18109
1.1893
1.1896
1.18629
1.18211
1.1828
1.18684
1.18725
1.18644
1.18574
1.1862
1.18731
1.18753
1.18731
1.1875
1.18848
1.19037
0.579639
0.579643
0.579649
0.579658
0.579666
0.579672
0.579681
0.579685
0.57969
0.579694
0.579693
0.57969
0.579686
0.579683
0.579678
0.57967
0.57966
0.579647
0.579635
0.579626
0.579617
0.579608
0.579596
0.579583
0.579563
0.579549
0.579548
0.579546
0.579539
0.579526
0.579505
0.579472
0.579455
0.579458
0.57947
0.579485
0.579491
0.579491
0.579492
0.579494
0.579488
0.579472
0.579471
0.57948
0.579501
0.579569
0.579649
0.579651
0.579642
0.57959
0.579479
0.579417
0.579384
0.579373
0.579403
0.579474
0.579493
0.579531
0.579571
0.579628
0.579709
0.579872
0.580075
0.580111
0.580106
0.580073
0.579944
0.579655
0.579323
0.579052
0.578935
0.578936
0.579069
0.579438
0.579867
0.579954
0.590648
0.737733
0.923256
1.05333
1.14211
1.15874
1.17275
1.19315
1.19457
1.19106
1.1813
1.1816
1.18597
1.18914
1.18771
1.18577
1.18601
1.18754
1.1881
1.18766
1.18741
1.18782
1.18959
1.19102
0.57971
0.579714
0.579717
0.57972
0.579723
0.579725
0.579725
0.579723
0.579724
0.579722
0.579712
0.579702
0.579699
0.579693
0.579682
0.579673
0.579656
0.579632
0.579616
0.579597
0.579577
0.579564
0.579549
0.57952
0.579493
0.579477
0.579467
0.579458
0.579448
0.579436
0.579431
0.57943
0.579425
0.579428
0.579454
0.579502
0.57953
0.57954
0.579546
0.579556
0.579556
0.579538
0.579527
0.579533
0.579549
0.57961
0.579651
0.579649
0.579632
0.579579
0.579459
0.579382
0.579354
0.57935
0.579372
0.579445
0.579595
0.579803
0.579879
0.579853
0.579872
0.579973
0.580092
0.580108
0.580032
0.579884
0.579603
0.579289
0.579054
0.578932
0.578909
0.578982
0.579316
0.579792
0.580067
0.580072
0.579853
0.579202
0.583495
0.70272
0.890941
1.06104
1.16338
1.19313
1.1922
1.18036
1.17705
1.18427
1.19026
1.18939
1.18522
1.18543
1.18736
1.18875
1.18832
1.1877
1.18779
1.18926
1.19095
1.19161
0.579738
0.579741
0.579742
0.579745
0.579747
0.579744
0.579736
0.579733
0.579733
0.579726
0.579708
0.579699
0.579698
0.579693
0.579685
0.579672
0.579641
0.579608
0.57959
0.579568
0.579539
0.579513
0.579485
0.579454
0.579433
0.579432
0.579432
0.579431
0.579425
0.579415
0.579416
0.579424
0.579432
0.579455
0.579536
0.579625
0.579633
0.579631
0.579636
0.579643
0.579617
0.57956
0.579539
0.579546
0.579568
0.579565
0.579551
0.579518
0.579488
0.579461
0.579386
0.579334
0.579332
0.579363
0.579432
0.57954
0.579812
0.580097
0.58012
0.580035
0.579969
0.579993
0.580036
0.579957
0.579727
0.579456
0.579097
0.578915
0.578894
0.578912
0.578928
0.579178
0.579686
0.579997
0.580109
0.57993
0.579339
0.578756
0.578533
0.57859
0.579646
0.698471
0.907865
1.05753
1.13397
1.16006
1.17596
1.19459
1.19331
1.18612
1.18339
1.18581
1.18955
1.18938
1.18805
1.18774
1.18877
1.19107
1.19188
1.19182
0.579605
0.579601
0.579602
0.579603
0.579595
0.579573
0.579565
0.579561
0.579552
0.579547
0.57955
0.579556
0.579564
0.579569
0.57957
0.579568
0.579553
0.579527
0.579513
0.579493
0.579466
0.579447
0.579431
0.579426
0.579424
0.579422
0.579423
0.579431
0.579439
0.579444
0.579462
0.579473
0.579477
0.579504
0.579615
0.57967
0.579656
0.579643
0.579655
0.579654
0.579612
0.579548
0.579526
0.579532
0.579507
0.579449
0.579401
0.579364
0.579379
0.579397
0.579363
0.579321
0.579347
0.579482
0.579643
0.579798
0.580065
0.580204
0.580205
0.580117
0.579995
0.579941
0.579851
0.579568
0.579261
0.57899
0.57873
0.578709
0.578788
0.578868
0.579157
0.579654
0.579988
0.580108
0.579872
0.579356
0.578711
0.578431
0.578462
0.57881
0.57942
0.579484
0.582977
0.691412
0.898167
1.08971
1.17171
1.19417
1.19112
1.18038
1.18487
1.19007
1.19063
1.18905
1.18748
1.18795
1.19023
1.19188
1.19183
1.19176
0.579351
0.57935
0.579354
0.579363
0.579364
0.579364
0.579366
0.579374
0.579392
0.579419
0.57945
0.579482
0.579514
0.579544
0.579561
0.579568
0.579571
0.579575
0.579574
0.579557
0.579538
0.579529
0.579529
0.579526
0.57952
0.57952
0.579528
0.579526
0.579514
0.579504
0.579505
0.579508
0.579507
0.579533
0.579629
0.579662
0.579646
0.57964
0.579655
0.57965
0.579595
0.57954
0.579527
0.579494
0.579399
0.579325
0.579263
0.579265
0.57933
0.579387
0.579376
0.579385
0.579508
0.579723
0.579874
0.580006
0.580152
0.580212
0.580195
0.580104
0.57987
0.579621
0.579305
0.578965
0.578787
0.578645
0.578563
0.578598
0.578682
0.579058
0.579725
0.580099
0.580146
0.579869
0.579349
0.578779
0.57837
0.578372
0.578669
0.579365
0.579828
0.579703
0.579123
0.578952
0.583242
0.728125
0.942414
1.10084
1.14348
1.17056
1.19338
1.19263
1.18963
1.18601
1.18605
1.18889
1.19137
1.19115
1.19081
1.19103
0.579282
0.579286
0.579295
0.579307
0.579314
0.579323
0.579345
0.579379
0.579419
0.57947
0.579522
0.579571
0.57963
0.579681
0.579696
0.579704
0.579712
0.579719
0.579719
0.579706
0.57967
0.579646
0.579647
0.579643
0.579617
0.579597
0.579588
0.579571
0.579548
0.579522
0.579507
0.579497
0.579478
0.579463
0.579457
0.579447
0.579437
0.579449
0.579477
0.579482
0.579477
0.579475
0.579455
0.579373
0.579304
0.579253
0.57919
0.579201
0.579309
0.579422
0.579477
0.579601
0.579808
0.579947
0.57999
0.580082
0.580087
0.579983
0.579796
0.579541
0.57926
0.579019
0.578691
0.578529
0.578469
0.57848
0.578505
0.57862
0.579018
0.579744
0.580326
0.580286
0.579986
0.579301
0.57889
0.578483
0.578309
0.578571
0.579502
0.580253
0.580185
0.579613
0.579072
0.579285
0.580494
0.581088
0.600542
0.75061
0.9741
1.13073
1.17994
1.18689
1.18496
1.18039
1.1846
1.18807
1.18836
1.18831
1.18851
1.189
0.579443
0.579452
0.579458
0.579452
0.579454
0.579474
0.579519
0.579582
0.579604
0.57961
0.57963
0.579678
0.579743
0.57978
0.579786
0.579785
0.57978
0.579775
0.579772
0.579757
0.579707
0.579684
0.579675
0.579651
0.579614
0.579583
0.579549
0.579505
0.579448
0.579386
0.579312
0.579208
0.57911
0.57904
0.578994
0.578987
0.578992
0.579021
0.579085
0.579174
0.579226
0.579228
0.579211
0.579215
0.579206
0.579142
0.579091
0.579123
0.579307
0.579547
0.579706
0.579883
0.580019
0.580019
0.580002
0.579916
0.579602
0.579232
0.579029
0.578876
0.578769
0.578632
0.578436
0.578387
0.578403
0.578506
0.578847
0.579421
0.580001
0.58054
0.580514
0.580157
0.579424
0.578883
0.578704
0.578381
0.578849
0.579995
0.581045
0.581034
0.580606
0.579758
0.580433
0.581764
0.582999
0.583783
0.583999
0.584385
0.624626
0.813423
1.00573
1.12188
1.15536
1.17018
1.18547
1.18378
1.18208
1.18254
1.18309
1.18365
0.579502
0.579501
0.579502
0.579497
0.579485
0.579486
0.579508
0.579537
0.579543
0.579535
0.57953
0.579546
0.579564
0.579563
0.579558
0.579545
0.579524
0.579506
0.579491
0.579454
0.57938
0.579325
0.579274
0.579184
0.579092
0.57903
0.578968
0.57889
0.57882
0.578774
0.578736
0.578672
0.578602
0.578594
0.578606
0.578641
0.578681
0.578742
0.578853
0.578965
0.579002
0.579026
0.579061
0.579133
0.579265
0.579382
0.579465
0.579609
0.579831
0.579869
0.579891
0.580002
0.580021
0.579937
0.579758
0.579495
0.57903
0.578638
0.578606
0.57865
0.578646
0.578564
0.578491
0.578515
0.578745
0.579321
0.580205
0.580737
0.58099
0.580839
0.580499
0.579668
0.579016
0.578824
0.578686
0.579812
0.581445
0.582636
0.582476
0.581942
0.581092
0.58236
0.584738
0.586082
0.585852
0.586187
0.587592
0.590033
0.59117
0.591772
0.659866
0.860026
1.0596
1.13876
1.17133
1.17027
1.17126
1.17243
1.17344
1.17472
0.579181
0.579143
0.579116
0.579098
0.579082
0.57907
0.57906
0.579051
0.579041
0.579016
0.578981
0.578943
0.578891
0.578852
0.578831
0.578818
0.578824
0.578834
0.578836
0.578823
0.578785
0.578769
0.578746
0.578679
0.578636
0.578636
0.578629
0.57859
0.578557
0.578552
0.578554
0.578546
0.578521
0.578518
0.578546
0.578609
0.578678
0.578767
0.578922
0.579141
0.579336
0.579507
0.579712
0.579971
0.580116
0.580116
0.580104
0.580135
0.58014
0.580087
0.579948
0.579857
0.579811
0.579707
0.579524
0.579238
0.578786
0.57851
0.578514
0.578614
0.578734
0.57886
0.579193
0.579727
0.580531
0.581388
0.582046
0.581871
0.581516
0.581027
0.580364
0.579398
0.579409
0.580122
0.582249
0.584175
0.585186
0.584937
0.583938
0.58389
0.585617
0.587925
0.589934
0.59057
0.591266
0.592326
0.593502
0.595224
0.596773
0.597909
0.598778
0.600888
0.723503
0.931084
1.08865
1.12283
1.15263
1.16046
1.16064
1.16204
0.578874
0.578845
0.578838
0.578829
0.578816
0.578808
0.578802
0.578803
0.578809
0.578805
0.578788
0.578756
0.578722
0.578709
0.578701
0.5787
0.578732
0.578774
0.578777
0.578776
0.578774
0.578773
0.578751
0.578704
0.578697
0.578713
0.578742
0.578773
0.578818
0.578897
0.579015
0.579147
0.579265
0.579365
0.579496
0.57967
0.579842
0.579984
0.58016
0.580391
0.580576
0.580645
0.580745
0.580784
0.580749
0.580675
0.580568
0.580446
0.580378
0.58019
0.579866
0.579716
0.579717
0.579684
0.579564
0.579264
0.578877
0.578842
0.578983
0.579454
0.580285
0.581245
0.582141
0.582745
0.583232
0.583503
0.583309
0.582561
0.581954
0.580942
0.581043
0.582045
0.584271
0.586502
0.588743
0.588596
0.588108
0.587819
0.588459
0.59085
0.593553
0.594573
0.594748
0.595675
0.597044
0.59847
0.599968
0.601408
0.603511
0.604605
0.605613
0.607531
0.608288
0.634803
0.794954
0.991637
1.10806
1.12974
1.14381
1.14925
0.578901
0.578868
0.578864
0.578865
0.578879
0.578887
0.578885
0.578883
0.578899
0.578916
0.57892
0.578913
0.578912
0.578917
0.578915
0.578924
0.578964
0.579056
0.579166
0.579249
0.579326
0.579452
0.579616
0.579758
0.579912
0.580144
0.580397
0.580585
0.580742
0.580912
0.58106
0.581178
0.581287
0.581382
0.58153
0.581672
0.581673
0.581665
0.581687
0.581685
0.581644
0.581553
0.581495
0.581406
0.581196
0.580993
0.580815
0.580646
0.580447
0.580095
0.57994
0.579959
0.580012
0.580096
0.580172
0.580525
0.581332
0.582274
0.583183
0.584102
0.584911
0.585528
0.585899
0.585824
0.585595
0.585242
0.58444
0.584262
0.584794
0.586389
0.58878
0.591343
0.592806
0.593867
0.593628
0.593033
0.593277
0.594553
0.597099
0.5992
0.600277
0.600631
0.601435
0.60271
0.604071
0.605659
0.607917
0.609148
0.610208
0.611398
0.612353
0.613908
0.615556
0.616339
0.616944
0.692276
0.882886
1.03239
1.10254
1.12931
0.58091
0.580939
0.580971
0.581008
0.581048
0.581095
0.581157
0.581231
0.581362
0.581494
0.581541
0.581586
0.581684
0.581747
0.581735
0.58172
0.581744
0.581884
0.582023
0.582079
0.58212
0.582284
0.582456
0.582475
0.582508
0.582587
0.582705
0.582839
0.582913
0.58291
0.582909
0.582943
0.582991
0.582984
0.582969
0.582946
0.582832
0.582655
0.582489
0.58226
0.581937
0.581762
0.58171
0.581546
0.581313
0.581275
0.581347
0.581453
0.581587
0.581986
0.582644
0.583453
0.584296
0.585207
0.586401
0.587741
0.588855
0.589691
0.59028
0.590876
0.590952
0.590695
0.590569
0.59026
0.590281
0.590767
0.59197
0.593747
0.595736
0.597872
0.599077
0.599709
0.599534
0.599404
0.599537
0.600398
0.601987
0.604085
0.606414
0.60693
0.607052
0.607832
0.609488
0.611015
0.612334
0.613645
0.614791
0.615534
0.616209
0.617672
0.619361
0.621106
0.622849
0.623731
0.62481
0.625491
0.63408
0.782405
0.949575
1.09419
0.584957
0.584927
0.584903
0.584875
0.584808
0.584777
0.584803
0.584831
0.584806
0.584732
0.584718
0.58475
0.584776
0.584744
0.584614
0.584534
0.584489
0.584383
0.584353
0.584361
0.584256
0.584136
0.584123
0.584052
0.584056
0.584039
0.583889
0.583899
0.583883
0.583708
0.583725
0.583732
0.583777
0.583941
0.584179
0.584214
0.584152
0.584192
0.584507
0.584912
0.585288
0.585772
0.58647
0.587417
0.588516
0.589618
0.59068
0.591713
0.592814
0.593875
0.594902
0.595798
0.596473
0.596891
0.59734
0.597565
0.59761
0.597748
0.597723
0.597812
0.597797
0.597885
0.598257
0.599124
0.600412
0.601932
0.603521
0.604928
0.605655
0.606398
0.606838
0.606602
0.606704
0.607319
0.609014
0.610991
0.612612
0.613976
0.614355
0.614935
0.615838
0.616751
0.617671
0.618729
0.620305
0.622008
0.622767
0.623724
0.624884
0.625942
0.62705
0.627836
0.629011
0.62999
0.63084
0.632702
0.632706
0.633291
0.675032
0.963136
0.590765
0.59084
0.59092
0.591008
0.591098
0.591193
0.591293
0.59138
0.591488
0.591608
0.591676
0.591805
0.592116
0.59224
0.592292
0.592452
0.592748
0.592918
0.593052
0.593273
0.593562
0.593905
0.594247
0.594544
0.594864
0.595209
0.595578
0.596008
0.596515
0.597029
0.597462
0.597911
0.598499
0.599046
0.599517
0.600048
0.600664
0.601268
0.601827
0.602361
0.602849
0.603206
0.603519
0.603926
0.604379
0.604631
0.604801
0.604989
0.605107
0.605217
0.605345
0.605388
0.605369
0.605267
0.605069
0.604855
0.604817
0.604916
0.605333
0.606008
0.606963
0.608324
0.609793
0.611166
0.612473
0.613536
0.614391
0.615024
0.614911
0.614925
0.615438
0.61655
0.617559
0.618684
0.619855
0.620994
0.622175
0.622376
0.622725
0.623462
0.624514
0.625756
0.62682
0.628124
0.629093
0.629812
0.630803
0.631509
0.632083
0.632869
0.634462
0.635417
0.636104
0.637215
0.638533
0.639382
0.640096
0.641516
0.641888
0.707098
0.60613
0.606207
0.60634
0.606516
0.606686
0.606837
0.60696
0.607071
0.607274
0.607481
0.607526
0.607601
0.607869
0.608024
0.608068
0.608196
0.608505
0.608647
0.608665
0.608743
0.608954
0.609212
0.609404
0.609526
0.609603
0.609663
0.609733
0.609848
0.610006
0.610103
0.610224
0.610265
0.610219
0.610224
0.610304
0.610528
0.610711
0.610819
0.610873
0.610958
0.611026
0.610845
0.610601
0.610629
0.610836
0.610797
0.610769
0.61092
0.611073
0.611332
0.611485
0.611773
0.612362
0.613219
0.614247
0.615366
0.616587
0.61801
0.619483
0.620839
0.622092
0.622998
0.623631
0.62401
0.624238
0.624498
0.624833
0.624877
0.624956
0.625149
0.625873
0.626964
0.628241
0.629404
0.630065
0.63058
0.63103
0.631645
0.632352
0.633088
0.634075
0.635024
0.63592
0.6372
0.637852
0.637931
0.638284
0.639214
0.640295
0.641539
0.642899
0.64379
0.644027
0.644568
0.645446
0.645964
0.646995
0.647905
0.648659
0.649504
0.619363
0.619428
0.619457
0.619491
0.61954
0.619546
0.619561
0.619667
0.619722
0.619729
0.619756
0.619788
0.619791
0.619791
0.619809
0.619914
0.619997
0.619972
0.619901
0.619913
0.62004
0.620252
0.620341
0.620415
0.620527
0.620551
0.620603
0.620751
0.621039
0.621421
0.621691
0.62187
0.622026
0.622235
0.622515
0.622854
0.623193
0.623482
0.623823
0.624296
0.62482
0.625285
0.625712
0.626182
0.626821
0.627606
0.628396
0.629093
0.629801
0.630606
0.631445
0.632155
0.632647
0.633098
0.633523
0.633781
0.634003
0.634294
0.634502
0.634655
0.634702
0.634556
0.634196
0.633843
0.633696
0.633846
0.634353
0.635069
0.635698
0.636572
0.637669
0.63864
0.639516
0.640019
0.640716
0.640818
0.640958
0.641428
0.642037
0.642766
0.643511
0.644318
0.644959
0.645296
0.646086
0.646915
0.647351
0.648088
0.649138
0.649771
0.649858
0.650301
0.651194
0.65188
0.652632
0.65404
0.654842
0.655094
0.65565
0.656936
0.635445
0.635502
0.635559
0.635611
0.635688
0.6358
0.635903
0.636027
0.636123
0.636206
0.636377
0.636507
0.636602
0.636746
0.636942
0.637072
0.637112
0.637179
0.637395
0.637533
0.63764
0.637894
0.638213
0.638333
0.638381
0.63848
0.638688
0.638918
0.639112
0.639324
0.639398
0.639457
0.639595
0.639825
0.64003
0.64021
0.640407
0.640606
0.640835
0.641103
0.641411
0.641633
0.641768
0.641902
0.642032
0.642036
0.641965
0.641848
0.641834
0.641889
0.641947
0.64186
0.641714
0.641768
0.641759
0.641355
0.641084
0.640946
0.640728
0.640771
0.641085
0.64156
0.642159
0.642913
0.643963
0.645134
0.646394
0.647642
0.648559
0.649391
0.649737
0.650074
0.649974
0.649849
0.649932
0.650219
0.650572
0.651054
0.651913
0.652951
0.653759
0.654506
0.655067
0.655125
0.655243
0.655878
0.656686
0.657304
0.657898
0.658392
0.658735
0.65932
0.660185
0.660785
0.661214
0.661511
0.661712
0.662339
0.66301
0.663907
0.650654
0.650631
0.650607
0.650646
0.650709
0.650795
0.650858
0.650857
0.650829
0.650836
0.650926
0.650982
0.651005
0.65107
0.651108
0.651118
0.651166
0.651229
0.651233
0.651222
0.651252
0.651389
0.651419
0.651404
0.651456
0.651455
0.651437
0.651495
0.651608
0.65161
0.651518
0.651497
0.651591
0.651672
0.651635
0.651597
0.651619
0.651606
0.651483
0.651388
0.651415
0.651539
0.651625
0.651743
0.651969
0.6521
0.652237
0.652491
0.652805
0.653083
0.65331
0.653554
0.653897
0.654407
0.655041
0.655782
0.656592
0.657424
0.658267
0.658999
0.65959
0.660127
0.660618
0.661094
0.661464
0.661755
0.661817
0.661647
0.661295
0.661025
0.660865
0.660577
0.660409
0.660562
0.660994
0.661755
0.662724
0.663504
0.664274
0.66459
0.664875
0.664758
0.66479
0.664925
0.665112
0.665404
0.666109
0.666665
0.666989
0.667398
0.667692
0.667955
0.667962
0.668223
0.668537
0.668849
0.66952
0.670233
0.670629
0.671187
0.666907
0.666923
0.666942
0.666931
0.666968
0.667038
0.667054
0.667064
0.667085
0.66712
0.667128
0.667129
0.667173
0.667236
0.667242
0.667236
0.667247
0.667364
0.66751
0.667528
0.667472
0.667407
0.667411
0.667551
0.667764
0.66785
0.667932
0.668118
0.668329
0.668354
0.668369
0.668477
0.668685
0.668862
0.669023
0.669236
0.669326
0.669328
0.669378
0.669571
0.669839
0.67005
0.670206
0.670379
0.670684
0.670832
0.670851
0.670962
0.671176
0.671378
0.671595
0.671788
0.67193
0.672069
0.672127
0.672103
0.67203
0.671933
0.671779
0.671703
0.671617
0.671347
0.670878
0.670403
0.669905
0.669672
0.669498
0.669114
0.669122
0.669357
0.66988
0.670656
0.671646
0.672684
0.673578
0.674142
0.674513
0.67449
0.674287
0.673979
0.673561
0.673469
0.673585
0.674126
0.674858
0.675479
0.675994
0.676047