/*--------------------------------*- C++ -*----------------------------------*\
  =========                 |
  \\      /  F ield         | OpenFOAM: The Open Source CFD Toolbox
   \\    /   O peration     | Website:  https://openfoam.org
    \\  /    A nd           | Version:  7
     \\/     M anipulation  |
\*---------------------------------------------------------------------------*/
FoamFile
{
    version     2.0;
    format      ascii;
    class       volScalarField;
    location    "2.5";
    object      p;
}
// * * * * * * * * * * * * * * * * * * * * * * * * * * * * * * * * * * * * * //

dimensions      [1 -1 -2 0 0 0 0];

internalField   nonuniform List<scalar> 
90000
(
0.0453014
0.0693412
0.106454
0.12453
0.136104
0.162371
0.190502
0.210474
0.237978
0.273845
0.308004
0.344731
0.38432
0.42045
0.462748
0.497801
0.53359
0.56241
0.584562
0.602911
0.609201
0.614152
0.611126
0.599722
0.589668
0.586003
0.572009
0.567218
0.574041
0.573711
0.57541
0.582124
0.578612
0.575001
0.572127
0.580803
0.607934
0.654973
0.711728
0.7443
0.751888
0.747732
0.742675
0.738357
0.736599
0.750471
0.771133
0.789454
0.800725
0.813762
0.82773
0.837263
0.844994
0.849388
0.851204
0.849485
0.845074
0.843555
0.849036
0.855642
0.8589
0.859821
0.858232
0.860489
0.868837
0.889799
0.912731
0.931949
0.94952
0.967157
0.984642
0.996269
0.996852
0.992933
0.98658
0.977694
0.967698
0.959356
0.952977
0.948303
0.946761
0.944711
0.949553
0.961152
0.962564
0.953809
0.900047
0.790752
0.688366
0.644463
0.620773
0.64086
0.715105
0.764136
0.74045
0.725574
0.76014
0.837174
0.885612
0.929649
0.0212918
0.0212808
0.0212706
0.021261
0.0212532
0.0212455
0.0212423
0.0212367
0.0212403
0.0212182
0.0225341
0.0258461
0.0331902
0.0441966
0.0605893
0.0847257
0.113737
0.155027
0.201608
0.259577
0.319785
0.385593
0.449981
0.501268
0.554499
0.594448
0.618091
0.647154
0.662629
0.650536
0.634827
0.61712
0.597083
0.590635
0.58584
0.578677
0.586
0.613959
0.647033
0.684292
0.712765
0.716014
0.710832
0.710166
0.71688
0.734022
0.765108
0.791242
0.804695
0.816819
0.82799
0.837413
0.842823
0.844393
0.84726
0.846315
0.844241
0.84327
0.848474
0.854594
0.85672
0.857763
0.858729
0.862742
0.874814
0.897321
0.918306
0.933923
0.950203
0.969245
0.9869
0.99726
0.996131
0.99142
0.984703
0.976754
0.968126
0.960914
0.955385
0.947523
0.946301
0.945208
0.950597
0.959989
0.955337
0.945594
0.897425
0.798898
0.691668
0.647877
0.626147
0.648629
0.709299
0.768233
0.741772
0.721942
0.766093
0.83781
0.883155
0.94079
0.0213035
0.0213107
0.0213158
0.0213215
0.0213268
0.0213327
0.0213398
0.0213446
0.0213487
0.0213549
0.0213619
0.0213395
0.0213196
0.0213062
0.0212971
0.0212988
0.0213077
0.0213199
0.0213169
0.0214147
0.0253642
0.0351652
0.0561162
0.0859977
0.129266
0.185385
0.258841
0.341565
0.442339
0.518019
0.573323
0.640471
0.678615
0.684108
0.675684
0.644652
0.619009
0.621263
0.635247
0.648388
0.657124
0.653382
0.648627
0.653016
0.66557
0.696086
0.744079
0.777797
0.802143
0.825373
0.836471
0.841765
0.838239
0.836443
0.83905
0.839304
0.840892
0.847786
0.856439
0.85891
0.856953
0.85572
0.85744
0.864869
0.884171
0.908439
0.924898
0.936627
0.952738
0.97207
0.98885
0.995995
0.994369
0.989744
0.983618
0.97665
0.968139
0.963859
0.954613
0.946251
0.945846
0.944875
0.950693
0.957723
0.949513
0.936801
0.893768
0.80426
0.69747
0.652202
0.63276
0.658165
0.704444
0.76932
0.739465
0.714902
0.771087
0.836862
0.881569
0.952093
0.0213192
0.0213228
0.0213232
0.0213256
0.0213269
0.0213323
0.0213366
0.0213364
0.0213373
0.0213458
0.0213516
0.0213568
0.0213637
0.0213728
0.0213843
0.0214008
0.0214221
0.0214324
0.0214401
0.0214465
0.0214253
0.0214049
0.0213906
0.0213743
0.0213521
0.021335
0.0213018
0.0263462
0.0457052
0.0891136
0.148764
0.239308
0.366159
0.47772
0.584261
0.63501
0.636186
0.648031
0.654209
0.658147
0.664252
0.668303
0.669485
0.660355
0.663982
0.693714
0.733348
0.762056
0.784949
0.813131
0.83528
0.848242
0.844133
0.841907
0.836691
0.834016
0.834799
0.843836
0.85429
0.857213
0.857279
0.855482
0.856557
0.864912
0.889454
0.914724
0.929438
0.939825
0.956024
0.973794
0.987389
0.991717
0.99185
0.988438
0.98354
0.976632
0.968629
0.965586
0.953591
0.945125
0.944702
0.945997
0.95065
0.954097
0.944343
0.928784
0.890908
0.808897
0.706152
0.656573
0.641073
0.664086
0.704973
0.755973
0.736518
0.707755
0.771403
0.834257
0.884
0.961522
0.0213306
0.0213363
0.0213421
0.0213461
0.021351
0.0213579
0.0213631
0.0213637
0.0213639
0.0213691
0.0213751
0.021378
0.0213794
0.021382
0.0213913
0.021406
0.0214168
0.0214327
0.0214485
0.021446
0.021433
0.0214218
0.021409
0.0213876
0.0213645
0.0213455
0.0213266
0.0212907
0.0212617
0.0212505
0.0212678
0.0212688
0.02834
0.0590394
0.128034
0.2421
0.360709
0.458156
0.531469
0.579416
0.609493
0.624916
0.629437
0.625943
0.638909
0.668586
0.711641
0.746779
0.774993
0.807883
0.828765
0.842868
0.839413
0.841304
0.83452
0.832315
0.837691
0.84811
0.853541
0.852879
0.854338
0.854239
0.8565
0.868941
0.899646
0.921123
0.929359
0.940333
0.956908
0.97127
0.981039
0.986182
0.989501
0.987834
0.983919
0.97686
0.969818
0.96559
0.953489
0.94442
0.942796
0.947304
0.950746
0.950612
0.940049
0.922229
0.888414
0.813633
0.714521
0.662386
0.650971
0.667313
0.712788
0.745135
0.739813
0.708292
0.772565
0.831275
0.88932
0.967512
0.0213758
0.0213759
0.0213777
0.0213774
0.021376
0.021376
0.0213746
0.0213707
0.0213671
0.0213657
0.0213641
0.0213608
0.0213549
0.0213511
0.0213572
0.0213666
0.0213797
0.0214089
0.0214348
0.0214332
0.0214259
0.0214172
0.021398
0.0213705
0.0213432
0.0213201
0.0213015
0.0212841
0.0212725
0.0212841
0.021309
0.0213093
0.0212825
0.0212598
0.0212568
0.0212699
0.030727
0.0601331
0.112439
0.171208
0.229052
0.28793
0.336373
0.367165
0.393463
0.415583
0.458683
0.538311
0.626142
0.706801
0.752057
0.787239
0.819781
0.842804
0.84367
0.843896
0.84492
0.850041
0.84719
0.844924
0.849667
0.853931
0.857013
0.874031
0.90582
0.921455
0.926253
0.939538
0.956803
0.968253
0.976105
0.98401
0.989579
0.988735
0.984315
0.977124
0.971281
0.96489
0.95485
0.94325
0.94018
0.950165
0.948789
0.947863
0.937279
0.916612
0.88412
0.818019
0.722499
0.667833
0.660663
0.676383
0.716575
0.743546
0.737654
0.712188
0.771483
0.827808
0.897808
0.967201
0.021365
0.0213613
0.021357
0.0213533
0.0213499
0.0213453
0.0213388
0.0213338
0.0213296
0.0213235
0.0213198
0.0213149
0.021306
0.0212994
0.0213032
0.0213118
0.0213357
0.021377
0.02141
0.0214204
0.0214258
0.0214251
0.0213996
0.0213674
0.0213408
0.0213204
0.0213046
0.0212896
0.0212895
0.0213178
0.0213411
0.0213309
0.0212752
0.0212401
0.0212359
0.0212509
0.021292
0.0213453
0.0213636
0.0213529
0.0212964
0.0223509
0.0282622
0.0366373
0.0429148
0.0473533
0.0565435
0.0841025
0.142368
0.220757
0.331752
0.447066
0.566264
0.681958
0.737832
0.797056
0.824016
0.835686
0.837236
0.840594
0.850118
0.854315
0.859872
0.881936
0.91162
0.918969
0.925885
0.9423
0.959665
0.96985
0.978605
0.987238
0.991899
0.990787
0.984796
0.97798
0.972644
0.964658
0.957187
0.942332
0.939231
0.951734
0.947482
0.944143
0.934492
0.912522
0.880262
0.821958
0.731573
0.674763
0.668774
0.683686
0.725995
0.751164
0.742601
0.715626
0.768267
0.821195
0.904538
0.956694
0.0213218
0.0213193
0.0213149
0.0213104
0.0213074
0.0213018
0.021296
0.0212927
0.021287
0.0212801
0.0212764
0.0212746
0.0212717
0.0212672
0.0212662
0.0212825
0.0213116
0.0213591
0.0214055
0.0214262
0.0214308
0.021436
0.0214228
0.0213857
0.0213521
0.0213339
0.021321
0.0213128
0.0213249
0.02137
0.0213778
0.0213549
0.0212637
0.0212023
0.0212025
0.0212262
0.0212843
0.021366
0.0214003
0.0213944
0.0213515
0.0212889
0.021265
0.0212692
0.0213072
0.0214293
0.0218562
0.0235977
0.0289567
0.0379215
0.042947
0.0489831
0.0806455
0.148475
0.25915
0.408353
0.547377
0.657088
0.741068
0.814861
0.854512
0.855291
0.860737
0.887445
0.91023
0.900841
0.918546
0.946027
0.96456
0.974455
0.984842
0.992342
0.994603
0.992916
0.98499
0.97939
0.97401
0.965079
0.958578
0.943614
0.939552
0.951464
0.94686
0.940165
0.931731
0.909235
0.8762
0.82412
0.741339
0.681888
0.677202
0.69381
0.731622
0.766223
0.751599
0.723001
0.771714
0.81627
0.913848
0.94395
0.021279
0.0212773
0.0212755
0.0212746
0.0212724
0.0212686
0.0212656
0.0212646
0.0212622
0.021257
0.0212566
0.0212653
0.021272
0.021273
0.0212719
0.0212817
0.021306
0.0213538
0.021401
0.0214196
0.0214228
0.0214269
0.021419
0.0213878
0.0213604
0.0213475
0.0213369
0.0213361
0.0213663
0.0213996
0.0213952
0.0213597
0.021263
0.0211883
0.0211874
0.021214
0.0212815
0.0213822
0.0214415
0.0214416
0.0214092
0.0213765
0.0213746
0.0213752
0.0213982
0.0214884
0.0218058
0.0230225
0.0270215
0.0352013
0.0420054
0.0447405
0.0456973
0.0457215
0.0453972
0.0452242
0.0794389
0.151689
0.290703
0.464739
0.652199
0.779558
0.84763
0.888993
0.891156
0.887516
0.92691
0.960657
0.978292
0.985185
0.992724
0.995425
0.995835
0.99339
0.984714
0.981751
0.975723
0.966552
0.959275
0.946372
0.939233
0.949023
0.946635
0.935932
0.92907
0.906901
0.873633
0.824862
0.750252
0.692948
0.68546
0.699649
0.736295
0.780384
0.768591
0.733109
0.774526
0.811895
0.903769
0.934244
0.0212598
0.0212581
0.0212575
0.0212588
0.0212583
0.0212571
0.0212592
0.0212628
0.0212646
0.021266
0.0212781
0.0212977
0.0213001
0.0212915
0.0212812
0.0212841
0.0213005
0.0213359
0.0213751
0.0213931
0.0214013
0.0214027
0.0213913
0.0213685
0.0213573
0.0213493
0.021346
0.0213558
0.0214019
0.0214166
0.0214055
0.021357
0.021266
0.0211937
0.0211941
0.0212362
0.0213161
0.0214037
0.0214692
0.0214871
0.0214736
0.0214594
0.0214713
0.0214753
0.0214837
0.0215324
0.0217199
0.0225533
0.0258626
0.0332949
0.0407083
0.0441077
0.0447889
0.0447133
0.044305
0.0442297
0.0444402
0.044859
0.045229
0.0554555
0.118321
0.290279
0.496459
0.686833
0.808403
0.885544
0.948771
0.978885
0.982555
0.983936
0.991743
0.994729
0.995292
0.994389
0.987886
0.983942
0.977132
0.967993
0.959751
0.949337
0.938539
0.946076
0.946094
0.933775
0.925987
0.905318
0.872638
0.823602
0.758645
0.702962
0.695809
0.712978
0.75136
0.803405
0.79378
0.758059
0.776361
0.813573
0.892181
0.913619
0.0212508
0.0212509
0.021253
0.0212588
0.0212617
0.021265
0.021275
0.0212851
0.0212928
0.0213036
0.0213193
0.0213341
0.0213267
0.0212871
0.0212662
0.0212644
0.0212729
0.0212935
0.0213265
0.0213529
0.0213677
0.02137
0.0213605
0.0213535
0.0213502
0.0213478
0.02135
0.0213721
0.0214298
0.0214433
0.0214256
0.0213693
0.0212743
0.0212125
0.0212236
0.0212899
0.0213822
0.0214452
0.0214809
0.0215076
0.0215104
0.0215059
0.021521
0.0215209
0.0215214
0.0215531
0.0216882
0.0222834
0.0248134
0.0311159
0.0390643
0.0433193
0.0443489
0.0443434
0.0439874
0.0437703
0.0438184
0.0440175
0.0445414
0.0457677
0.0469319
0.0477196
0.062526
0.153154
0.385316
0.720016
0.948829
0.986078
0.970882
0.976671
0.989365
0.993911
0.995707
0.993681
0.989983
0.985533
0.978703
0.969608
0.960831
0.95156
0.937821
0.94244
0.943485
0.930803
0.918612
0.902715
0.872501
0.822556
0.765081
0.7182
0.706831
0.72652
0.778526
0.825526
0.804838
0.776083
0.793493
0.828388
0.879632
0.901928
0.0212718
0.0212773
0.0212832
0.021293
0.0213028
0.0213096
0.0213194
0.0213315
0.0213418
0.0213551
0.0213699
0.0213683
0.021337
0.0212637
0.0212386
0.0212388
0.0212433
0.0212533
0.0212715
0.0213004
0.0213325
0.0213477
0.0213531
0.0213552
0.0213546
0.0213547
0.0213608
0.0213929
0.021474
0.0215081
0.0215015
0.0214785
0.0214011
0.0213447
0.0213642
0.0214253
0.021479
0.0214893
0.0214956
0.0215117
0.0215219
0.0215291
0.0215426
0.0215276
0.0215272
0.0215635
0.0216767
0.0220833
0.0238489
0.0292167
0.0374726
0.0426267
0.0440861
0.0442129
0.043888
0.0435829
0.0436152
0.0438029
0.0442945
0.0453484
0.0462787
0.0471808
0.0482016
0.0496499
0.0510317
0.150135
0.469864
0.782917
0.935751
0.981874
0.990902
0.992832
0.998541
0.995424
0.991107
0.98553
0.978367
0.969913
0.961684
0.95209
0.938682
0.935608
0.943228
0.933151
0.917593
0.902312
0.873294
0.822918
0.765908
0.734009
0.723302
0.746475
0.809599
0.849218
0.835623
0.81028
0.800627
0.826513
0.873651
0.883016
0.021337
0.021345
0.0213523
0.0213623
0.0213769
0.0213813
0.0213811
0.0213838
0.0213974
0.0214144
0.0214144
0.0213905
0.0212908
0.0212005
0.0211909
0.021194
0.0212057
0.0212242
0.0212443
0.021266
0.0212936
0.0213289
0.0213705
0.0213902
0.0213925
0.0213956
0.0214119
0.0214595
0.021561
0.0216176
0.021627
0.021621
0.0215742
0.0215601
0.0215988
0.0216144
0.021603
0.0215464
0.0215149
0.0215166
0.0215259
0.0215427
0.0215525
0.0215302
0.0215327
0.0215763
0.0216768
0.0219592
0.023207
0.0275978
0.0354546
0.0417408
0.0439609
0.0442371
0.0439907
0.0435912
0.0435855
0.0437535
0.0441883
0.0451287
0.0460418
0.0468084
0.0478106
0.0494209
0.0513077
0.0530498
0.0610749
0.219549
0.642444
0.952454
0.99797
0.985413
0.999535
0.99474
0.991872
0.989584
0.98221
0.972047
0.962693
0.951539
0.938244
0.931493
0.939703
0.931669
0.914136
0.901032
0.872385
0.824299
0.768264
0.750809
0.740348
0.765758
0.835845
0.864602
0.856398
0.835044
0.827535
0.844124
0.869591
0.864523
0.0214032
0.0214041
0.0214057
0.0214147
0.021438
0.021445
0.0214441
0.0214439
0.0214532
0.021459
0.0214533
0.0214052
0.0212691
0.0211794
0.0211721
0.0211746
0.0211867
0.0212127
0.0212413
0.021266
0.0213021
0.0213738
0.0214576
0.021478
0.0214693
0.0214707
0.0214897
0.0215372
0.021636
0.0217194
0.021734
0.0217137
0.0216997
0.0217314
0.0217607
0.0217521
0.0217119
0.0216216
0.0215377
0.0215265
0.0215358
0.0215427
0.0215529
0.0215486
0.0215545
0.0216004
0.0216847
0.0218927
0.0227708
0.0260915
0.0331337
0.0405845
0.0439345
0.0443762
0.0441432
0.0436543
0.0436279
0.0438399
0.0443945
0.0451408
0.045969
0.0466774
0.0478119
0.049803
0.0521936
0.0545708
0.0568519
0.0580186
0.112172
0.417873
0.809368
0.952577
1.01172
1.00222
0.99424
0.992684
0.985368
0.976796
0.965647
0.952649
0.936756
0.930084
0.936306
0.932018
0.916284
0.898611
0.877116
0.825965
0.77508
0.764677
0.762002
0.789675
0.855837
0.881522
0.879931
0.863823
0.848135
0.857671
0.86856
0.850391
0.0214476
0.0214493
0.0214508
0.0214536
0.0214638
0.0214809
0.0214992
0.0215039
0.0215021
0.0214934
0.0214685
0.0214014
0.0212799
0.0211919
0.0211802
0.0211826
0.0211983
0.0212344
0.0212722
0.0213077
0.0213836
0.0215464
0.0216159
0.0216019
0.0215346
0.0215177
0.0215271
0.0215686
0.0216702
0.0217525
0.0217553
0.0217497
0.0217726
0.0218292
0.0218341
0.0218054
0.0217299
0.0216048
0.0215299
0.0215162
0.0215292
0.0215557
0.0216304
0.0216958
0.0216971
0.0216871
0.0217225
0.0218826
0.022492
0.0248989
0.0308352
0.0390399
0.0439327
0.0445601
0.0443861
0.043989
0.0439682
0.0442315
0.0449709
0.0460291
0.0472325
0.0488359
0.0505806
0.0523084
0.0542949
0.0561619
0.0579791
0.0593522
0.0602171
0.0618506
0.213118
0.618245
0.908734
0.997192
0.995878
1.00154
0.989832
0.983981
0.969536
0.954844
0.93701
0.93001
0.934047
0.930719
0.918062
0.897437
0.874895
0.831798
0.786888
0.780158
0.784382
0.808899
0.86569
0.898004
0.89862
0.887613
0.871013
0.869994
0.869038
0.839255
0.0214444
0.0214476
0.0214545
0.021471
0.0215219
0.0215915
0.0216021
0.0216014
0.021595
0.0215716
0.0215263
0.0214559
0.0213486
0.0213095
0.0213117
0.0213215
0.0213587
0.0214276
0.0214715
0.0214989
0.0215723
0.021693
0.0217101
0.0216853
0.0215854
0.0215333
0.0215363
0.0215759
0.0216845
0.0217064
0.0216956
0.0217153
0.0218003
0.0218614
0.0218593
0.0218271
0.0217507
0.0215964
0.0215171
0.0214943
0.0215116
0.0215856
0.0217418
0.0219054
0.0219621
0.0220053
0.0220228
0.0220646
0.0224317
0.0241222
0.02886
0.0370892
0.0436529
0.0448628
0.0448895
0.0450068
0.0453173
0.0458753
0.046861
0.0485057
0.0504707
0.0521758
0.0532716
0.0545834
0.0567005
0.0583729
0.0592892
0.0602121
0.0614526
0.0626973
0.0641263
0.107283
0.360989
0.7715
0.947597
1.00896
0.993939
0.990808
0.9685
0.954413
0.938658
0.93249
0.934435
0.930089
0.919814
0.901122
0.873836
0.835818
0.799022
0.794427
0.804917
0.82865
0.869313
0.914617
0.919681
0.907971
0.892303
0.879442
0.870952
0.83097
0.0214951
0.0214988
0.0215195
0.0216107
0.0217225
0.0217366
0.0217355
0.0217297
0.0217042
0.0216465
0.0216009
0.0215621
0.0215526
0.0215655
0.021575
0.0215794
0.021629
0.0217053
0.0217167
0.0217111
0.021712
0.0217372
0.0217366
0.0217043
0.0216125
0.0215046
0.021483
0.0215195
0.0215956
0.0216025
0.0216184
0.021671
0.0217905
0.0219002
0.0219149
0.0218994
0.0218354
0.0216772
0.0215585
0.021512
0.0215315
0.0216531
0.0218442
0.022033
0.022185
0.0223245
0.0224589
0.0225471
0.0227618
0.0238379
0.0274289
0.0347683
0.0429339
0.0458359
0.0463294
0.04673
0.0473419
0.0481183
0.0491301
0.0505391
0.0520551
0.0531057
0.0541473
0.0558162
0.0580709
0.0603563
0.0615311
0.062489
0.0640749
0.0661069
0.0686096
0.0706057
0.0718225
0.183327
0.527688
0.834855
0.958429
1.00032
0.96994
0.952831
0.939193
0.938453
0.937153
0.931777
0.923008
0.903378
0.876427
0.842741
0.812334
0.811012
0.823573
0.84843
0.878791
0.922207
0.937256
0.924092
0.909239
0.888157
0.873832
0.824331
0.0214829
0.0215206
0.0216194
0.0217516
0.0218019
0.0218051
0.0218043
0.0217922
0.0217636
0.0217497
0.0217412
0.0217272
0.0217288
0.021756
0.0217628
0.0217693
0.021839
0.0219049
0.0219073
0.0218946
0.0218412
0.0217793
0.0217423
0.0216747
0.0215457
0.0214275
0.0213984
0.0214123
0.0214759
0.021541
0.0215993
0.0216729
0.0217974
0.0219583
0.0220659
0.0221489
0.0222046
0.0221717
0.0220328
0.0218782
0.0218705
0.0219445
0.0220824
0.0222588
0.0224358
0.0225732
0.0227183
0.0228381
0.0230073
0.0237802
0.0265483
0.0328878
0.0418841
0.0476721
0.0491511
0.0495746
0.0497311
0.0498905
0.0503961
0.051373
0.0524918
0.0534106
0.0549611
0.0572765
0.0594112
0.0617625
0.0637819
0.0658615
0.0682455
0.0709088
0.0731444
0.0745166
0.0765575
0.0768249
0.090053
0.259177
0.625604
0.876694
0.948772
0.961489
0.943602
0.944536
0.936482
0.933473
0.927781
0.907659
0.878921
0.849371
0.824558
0.82507
0.840511
0.864496
0.892322
0.926925
0.949362
0.937783
0.922173
0.89486
0.87521
0.818774
0.0215893
0.0216322
0.0217303
0.0218384
0.0218596
0.0218603
0.0218559
0.0218501
0.0218537
0.0218648
0.0218734
0.0218796
0.0218818
0.0218693
0.0218574
0.0218794
0.0219807
0.0220476
0.022049
0.0220371
0.0220056
0.0219438
0.0218357
0.0216789
0.0215208
0.0214197
0.0213927
0.021403
0.0214457
0.0215333
0.0216617
0.0218112
0.0219356
0.0220815
0.0222695
0.0224648
0.0226923
0.0227836
0.0227832
0.0228041
0.0228669
0.0228764
0.0228208
0.0227894
0.02279
0.0228039
0.0228803
0.0230745
0.0232506
0.0238402
0.0262451
0.0319626
0.0408384
0.0483705
0.0516815
0.0528435
0.0527915
0.052322
0.052158
0.0522825
0.0534565
0.056139
0.0594371
0.0618148
0.062794
0.0637416
0.0658513
0.0686269
0.0715673
0.0744478
0.0759715
0.0768073
0.0784267
0.0807213
0.0803906
0.0804639
0.125048
0.357118
0.726046
0.902213
0.937838
0.955986
0.947653
0.934755
0.931171
0.912246
0.882134
0.853766
0.837138
0.839752
0.856445
0.879368
0.906134
0.934039
0.952699
0.94998
0.931869
0.900491
0.874715
0.816032
0.0216516
0.0216734
0.0217237
0.0217989
0.0218132
0.0218129
0.0218273
0.0218628
0.0219024
0.0219266
0.0219375
0.0219433
0.0219544
0.0219676
0.0219928
0.0220772
0.0221732
0.0221851
0.0221834
0.0221726
0.0221467
0.0220847
0.0219666
0.0218354
0.0217679
0.0217287
0.0216568
0.0216066
0.0216138
0.0216793
0.0218426
0.0220661
0.0222438
0.0223739
0.0225626
0.0227723
0.022984
0.0231558
0.0232541
0.0233482
0.0234433
0.0235071
0.0234931
0.0234907
0.0234199
0.0232887
0.0233865
0.023862
0.0246019
0.0252984
0.0270396
0.0319094
0.0402352
0.0491539
0.054203
0.0560723
0.0567755
0.0572046
0.0577047
0.0586971
0.0605673
0.0630121
0.0650872
0.0665845
0.0673278
0.0678718
0.0687951
0.0706198
0.0731717
0.0761257
0.077759
0.0783422
0.079397
0.0823552
0.0842354
0.0856195
0.0868684
0.0882284
0.184591
0.484983
0.768242
0.920594
0.956712
0.95381
0.941312
0.919105
0.888331
0.856698
0.845241
0.858027
0.872853
0.892821
0.916381
0.938804
0.95487
0.954991
0.936955
0.905856
0.873071
0.814423
0.0216005
0.0216466
0.0217014
0.0217507
0.0217933
0.0218415
0.0218862
0.0219244
0.02196
0.0219972
0.0220306
0.0220471
0.0220551
0.0220699
0.0221237
0.022243
0.0222823
0.0222865
0.0222928
0.0222935
0.0222918
0.0222404
0.0221464
0.0221672
0.0223566
0.0225894
0.0226212
0.0225901
0.0225575
0.0225464
0.0225609
0.0226348
0.0227477
0.0228038
0.0228877
0.0230468
0.0232424
0.0234993
0.0236479
0.0237272
0.0238515
0.0240438
0.0243031
0.0246834
0.025208
0.0257264
0.0263489
0.0270939
0.0278167
0.028482
0.0296279
0.0328109
0.039898
0.0499584
0.0567543
0.0594416
0.0608308
0.0620585
0.0635474
0.0652045
0.066729
0.0678915
0.0687039
0.0697987
0.070664
0.0713543
0.0724781
0.074226
0.075529
0.0772718
0.0792703
0.0804219
0.0814472
0.0838046
0.0880549
0.0910742
0.0929518
0.095435
0.0961454
0.101651
0.234785
0.520308
0.784107
0.926221
0.953218
0.933137
0.896911
0.863609
0.857866
0.871497
0.888199
0.904516
0.92635
0.941471
0.95483
0.957198
0.940395
0.907989
0.868417
0.81053
0.0216516
0.0217101
0.0217692
0.0218163
0.0218472
0.0218707
0.021901
0.0219386
0.0219812
0.0220314
0.0220804
0.0221205
0.0221634
0.0222227
0.0223029
0.0223755
0.0224261
0.0224383
0.0224521
0.022521
0.0226664
0.0228079
0.0229196
0.023101
0.0234613
0.0236677
0.0236749
0.0236469
0.0236044
0.0235297
0.0234845
0.0234919
0.0235212
0.0236248
0.0237613
0.0238828
0.0239658
0.0241376
0.0244968
0.0249295
0.0254677
0.0260763
0.026675
0.0273907
0.0280554
0.0286386
0.0292321
0.0297883
0.0302729
0.0307198
0.0313248
0.0332544
0.0388261
0.0488034
0.0582763
0.0626016
0.0644067
0.0659362
0.0673676
0.0684861
0.0693224
0.0700864
0.0708941
0.0719964
0.073371
0.0751296
0.0773358
0.0801761
0.0811849
0.0811386
0.0824791
0.0855359
0.0881413
0.0899617
0.0926064
0.0953846
0.0968859
0.098691
0.101178
0.101457
0.101828
0.111959
0.250685
0.573598
0.845273
0.917268
0.900936
0.867943
0.868522
0.887418
0.907173
0.916571
0.931851
0.943876
0.950468
0.95699
0.944066
0.909233
0.866002
0.807597
0.0225894
0.0227637
0.0228868
0.0228854
0.0228209
0.0227593
0.0227594
0.0227835
0.0228442
0.0229071
0.0229645
0.0230285
0.0230944
0.0231749
0.023198
0.0232309
0.0232953
0.0233752
0.0234772
0.0236599
0.0238426
0.0239655
0.0241094
0.0243367
0.0244794
0.0245167
0.0245545
0.0246178
0.0247193
0.0247897
0.0248991
0.0251328
0.0253567
0.0256425
0.025935
0.0261468
0.0263822
0.0268118
0.0275623
0.0283985
0.029166
0.0297683
0.0301666
0.030449
0.0306542
0.0308305
0.0310803
0.0313991
0.0318442
0.0323717
0.0328353
0.0341868
0.0388467
0.0478054
0.0590362
0.0660013
0.0688079
0.0701343
0.070804
0.0709788
0.0711611
0.0716804
0.0726913
0.0744785
0.0772332
0.0802206
0.0826132
0.0848934
0.0868384
0.0880514
0.0891342
0.0913958
0.0949128
0.0968784
0.0978436
0.099244
0.100358
0.101627
0.103944
0.105215
0.105842
0.106751
0.108168
0.135322
0.353804
0.753467
0.872107
0.879377
0.8747
0.896674
0.920165
0.93139
0.93793
0.942858
0.949622
0.951727
0.942365
0.90671
0.865981
0.807327
0.0238785
0.0239225
0.0240007
0.0240263
0.0240007
0.0239466
0.023946
0.0239796
0.023991
0.0239729
0.0239852
0.024025
0.024124
0.0241928
0.0242526
0.0243757
0.0245445
0.0247118
0.0249395
0.0251042
0.0252465
0.0253897
0.0255611
0.0259111
0.0260621
0.0261599
0.026336
0.0266844
0.0271577
0.0275928
0.0279922
0.0284289
0.0287034
0.0288574
0.0290922
0.0294986
0.0299803
0.0304721
0.030969
0.0313633
0.0317276
0.0320648
0.0324591
0.0325953
0.0326533
0.0327857
0.033012
0.0334651
0.0341565
0.0350367
0.035806
0.0368568
0.0400893
0.0477151
0.059575
0.0698967
0.0733859
0.0741288
0.0741683
0.0739354
0.0740421
0.0748181
0.0770821
0.0803498
0.0833921
0.0856477
0.0870276
0.088277
0.0902732
0.0924652
0.0944886
0.0967743
0.100084
0.101559
0.101874
0.102624
0.104304
0.106023
0.108215
0.11036
0.110769
0.11139
0.11386
0.116186
0.11868
0.242134
0.628632
0.832876
0.899925
0.927474
0.925272
0.935986
0.940886
0.943953
0.954083
0.958512
0.945097
0.906856
0.866096
0.807824
0.0255173
0.0255765
0.0256516
0.0257434
0.0258415
0.0259354
0.0260271
0.0261253
0.0262129
0.0262955
0.0264165
0.02657
0.026712
0.0268611
0.0270984
0.0274268
0.0276728
0.0278589
0.0280927
0.0283925
0.0286472
0.0288444
0.0290667
0.0293413
0.0296442
0.0299529
0.0302465
0.0305677
0.030885
0.031182
0.0314412
0.0316244
0.0317976
0.0320154
0.0321917
0.0323826
0.0326033
0.0328393
0.0330186
0.0332297
0.0335627
0.0340134
0.0345296
0.0350524
0.0355437
0.0360426
0.0364858
0.0370334
0.0377914
0.0385786
0.03939
0.0402481
0.0423353
0.047988
0.0589928
0.0711148
0.0759498
0.0767062
0.0771759
0.0781069
0.0798476
0.0826232
0.0856147
0.0882073
0.089806
0.0905262
0.090898
0.0916358
0.093311
0.0962336
0.0991558
0.10122
0.103726
0.105281
0.105892
0.106881
0.109164
0.111374
0.112972
0.115092
0.11656
0.117689
0.1191
0.122237
0.124649
0.126084
0.188647
0.512705
0.817088
0.923099
0.938393
0.948443
0.937273
0.935036
0.948726
0.959187
0.948312
0.913503
0.87028
0.811087
0.0292195
0.0293216
0.0294245
0.0295202
0.0296224
0.0297306
0.029841
0.0299565
0.0300718
0.0301914
0.0303497
0.0304706
0.0305469
0.0306216
0.0307722
0.0309978
0.0311322
0.0312532
0.0313939
0.031517
0.0316502
0.0317913
0.0319585
0.0320929
0.0322646
0.0324834
0.032721
0.0329819
0.0332236
0.0335096
0.0338058
0.0341252
0.0344259
0.0346379
0.0348155
0.0350115
0.0352547
0.0355443
0.0359119
0.0363345
0.0368015
0.0374136
0.0381467
0.0388934
0.0395847
0.0401152
0.0404873
0.0408169
0.0412287
0.0415774
0.0420887
0.0427077
0.0439463
0.0480187
0.0567415
0.0698308
0.0792512
0.0822696
0.0840918
0.086059
0.0883416
0.0909609
0.09279
0.0941943
0.0949146
0.0950696
0.0955247
0.0966318
0.0986505
0.101684
0.104761
0.105933
0.106879
0.108868
0.111124
0.113229
0.115561
0.117453
0.118136
0.119209
0.121297
0.123223
0.125106
0.127416
0.130542
0.133277
0.134388
0.155764
0.388289
0.749371
0.890599
0.948636
0.942286
0.937053
0.945415
0.947756
0.936827
0.909676
0.87361
0.818379
0.0323063
0.0323587
0.0324166
0.0324867
0.0325816
0.0327146
0.0328668
0.033016
0.033157
0.0332809
0.0333784
0.0334684
0.0335617
0.0336585
0.0337933
0.033978
0.0341091
0.0342272
0.0343602
0.0345202
0.0347458
0.0350049
0.0351868
0.0353506
0.0355505
0.0358561
0.0361826
0.036474
0.0367759
0.0371113
0.037526
0.0380139
0.0384261
0.0387574
0.0390686
0.0393904
0.0397258
0.0400868
0.0404367
0.0407241
0.0409945
0.0413648
0.0418389
0.0422706
0.0427841
0.0432164
0.043569
0.0437859
0.0439331
0.0441928
0.0447242
0.0455174
0.0466724
0.0496835
0.0567926
0.0698889
0.0849777
0.0921642
0.0944388
0.0953347
0.0956943
0.0963667
0.0973062
0.0980322
0.0988412
0.0998609
0.101477
0.104017
0.106876
0.1095
0.111826
0.11226
0.112713
0.114358
0.117439
0.12041
0.122232
0.123598
0.124458
0.125285
0.126986
0.129233
0.131276
0.133126
0.135421
0.138108
0.141089
0.142837
0.146187
0.253788
0.562036
0.839302
0.900993
0.932829
0.959257
0.953333
0.94168
0.918571
0.884662
0.825349
0.0361956
0.0362803
0.0363835
0.0364945
0.0366092
0.0367188
0.0368189
0.0369265
0.0370471
0.0371775
0.0373142
0.0375044
0.0377338
0.037921
0.0380964
0.0382688
0.038393
0.0385241
0.038715
0.0389584
0.0392179
0.0394494
0.0396117
0.0397375
0.0398823
0.040088
0.040367
0.0405737
0.0407269
0.0409001
0.0411523
0.0414743
0.041758
0.0420343
0.0423571
0.0427125
0.0430586
0.0433654
0.0436533
0.0439036
0.0441318
0.0443671
0.0446557
0.045074
0.0456644
0.0464255
0.047095
0.0476282
0.0480929
0.0488594
0.0497918
0.050633
0.0515435
0.053247
0.0582106
0.069949
0.087275
0.0981392
0.100554
0.100834
0.100426
0.100148
0.100734
0.102043
0.104009
0.106682
0.109976
0.113223
0.115231
0.116763
0.118362
0.119572
0.120707
0.122294
0.125013
0.1273
0.128228
0.129523
0.131133
0.132361
0.13378
0.13566
0.137189
0.138972
0.141527
0.14386
0.146056
0.149188
0.151541
0.152933
0.178456
0.339811
0.633403
0.851022
0.911475
0.937613
0.948192
0.940489
0.908549
0.834116
0.0402028
0.0402838
0.0403757
0.0404715
0.0405577
0.0406562
0.0407707
0.0408742
0.0409855
0.0411244
0.0412636
0.0413919
0.0415291
0.0416896
0.0418486
0.0420104
0.0422239
0.0424005
0.0425833
0.0427872
0.0429143
0.0429986
0.0430984
0.0432703
0.0435258
0.0437833
0.043995
0.0442329
0.0444892
0.0447648
0.0450705
0.0453651
0.0456511
0.0460603
0.0465195
0.046912
0.0473274
0.0477681
0.0482062
0.0486358
0.0490997
0.0495903
0.0500818
0.0506489
0.0511802
0.0517355
0.0524396
0.0531942
0.0539244
0.0546506
0.0551125
0.055332
0.0557421
0.0565188
0.0592469
0.0677566
0.0846963
0.100941
0.105904
0.106302
0.106306
0.106709
0.1082
0.111515
0.115151
0.11813
0.120463
0.121639
0.122102
0.122845
0.124316
0.126397
0.128593
0.130839
0.132762
0.133928
0.134629
0.135583
0.137344
0.13931
0.140674
0.142094
0.143776
0.145736
0.148357
0.151543
0.153931
0.155807
0.158589
0.161552
0.162962
0.164026
0.209358
0.382077
0.625741
0.821815
0.91064
0.912654
0.883192
0.822039
0.044857
0.044935
0.045032
0.045145
0.045261
0.0453746
0.0454846
0.0456059
0.0457499
0.0458879
0.0460275
0.0461873
0.0463399
0.0464869
0.0466494
0.0468083
0.0469526
0.0470907
0.0472764
0.0475009
0.0477416
0.0480296
0.0483523
0.0486787
0.0489634
0.0492142
0.0494747
0.0497547
0.0500449
0.0503677
0.0506943
0.0509799
0.0512599
0.0515756
0.0519254
0.0523194
0.0527245
0.053145
0.053583
0.0540268
0.0544692
0.0549023
0.0553348
0.0557465
0.0561153
0.0565186
0.0570394
0.0575199
0.0582525
0.0588447
0.058889
0.0591858
0.0599257
0.0610272
0.0631454
0.0688911
0.0814887
0.10073
0.115058
0.119253
0.120437
0.121687
0.123434
0.12526
0.126759
0.128254
0.128813
0.128745
0.128954
0.129794
0.131562
0.134077
0.136814
0.138812
0.139785
0.141025
0.142201
0.14291
0.144068
0.146285
0.147659
0.149264
0.151533
0.153818
0.155999
0.158769
0.162276
0.164293
0.165613
0.167902
0.170543
0.173317
0.174982
0.176982
0.216278
0.344609
0.545467
0.718136
0.755571
0.743872
0.0502692
0.0503558
0.0504432
0.0505477
0.0506699
0.0508062
0.0509509
0.0510905
0.0512149
0.0513371
0.0514794
0.051636
0.0518017
0.0519707
0.0521301
0.0522958
0.0524875
0.0526997
0.0529288
0.0531483
0.0533452
0.0535344
0.0537335
0.0539362
0.054176
0.0544701
0.0547517
0.0550056
0.055268
0.0555626
0.0558463
0.0561354
0.0564814
0.0568558
0.0572176
0.0575737
0.0579667
0.0584116
0.0588698
0.0592212
0.0595908
0.0600821
0.0606344
0.0612236
0.061823
0.0624881
0.0631629
0.0637609
0.0643602
0.0651434
0.0662595
0.0674773
0.0683385
0.069095
0.0701119
0.0729082
0.0812803
0.0983754
0.119701
0.13215
0.134744
0.135107
0.135513
0.135472
0.135395
0.135475
0.135897
0.137041
0.138741
0.140293
0.142069
0.143775
0.145289
0.146361
0.147435
0.148693
0.150355
0.151587
0.152708
0.154454
0.156592
0.157903
0.160061
0.162605
0.164525
0.166381
0.168921
0.171584
0.173313
0.174919
0.177228
0.180006
0.182549
0.185543
0.190261
0.19364
0.203704
0.265919