/*--------------------------------*- C++ -*----------------------------------*\
  =========                 |
  \\      /  F ield         | OpenFOAM: The Open Source CFD Toolbox
   \\    /   O peration     | Website:  https://openfoam.org
    \\  /    A nd           | Version:  7
     \\/     M anipulation  |
\*---------------------------------------------------------------------------*/
FoamFile
{
    version     2.0;
    format      ascii;
    class       volScalarField;
    location    "2";
    object      T;
}
// * * * * * * * * * * * * * * * * * * * * * * * * * * * * * * * * * * * * * //

dimensions      [0 0 0 1 0 0 0];

internalField   nonuniform List<scalar> 
90000
(
0.885888
0.89376
0.901157
0.907998
0.914444
0.920144
0.925049
0.930014
0.935075
0.940367
0.945771
0.95164
0.957483
0.963446
0.96915
0.974941
0.980351
0.985826
0.990826
0.995927
1.0005
1.0052
1.00927
1.01353
1.01706
1.02076
1.02363
1.02668
1.02886
1.03115
1.03258
1.0339
1.03466
1.03507
1.03489
1.03442
1.03369
1.03278
1.03139
1.02984
1.02766
1.02546
1.02395
1.0232
1.02332
1.02384
1.02455
1.02547
1.02622
1.02658
1.02654
1.02642
1.02593
1.02512
1.02384
1.02267
1.02158
1.02091
1.02069
1.02089
1.02141
1.02213
1.02225
1.022
1.0213
1.02037
1.01932
1.01836
1.01787
1.01802
1.0184
1.01831
1.01797
1.01727
1.01624
1.01571
1.0155
1.01542
1.01515
1.01487
1.01459
1.01425
1.01404
1.01363
1.01335
1.01309
1.01281
1.01266
1.01237
1.01226
1.01221
1.01205
1.01187
1.01188
1.01184
1.01186
1.01193
1.01207
1.01213
1.01348
0.87888
0.879117
0.87962
0.880347
0.881485
0.883026
0.884739
0.886704
0.889078
0.89166
0.894462
0.897532
0.901048
0.9048
0.908951
0.913302
0.91815
0.923104
0.928428
0.933743
0.939498
0.945136
0.951032
0.956712
0.962638
0.968264
0.973883
0.979283
0.984523
0.9896
0.994123
0.998699
1.00241
1.00626
1.00896
1.01164
1.01344
1.01517
1.01627
1.01874
1.0214
1.02357
1.02466
1.02518
1.02501
1.02458
1.02379
1.02271
1.02187
1.02101
1.02044
1.02006
1.01981
1.01948
1.01967
1.01972
1.02007
1.02004
1.01991
1.01952
1.01891
1.01832
1.01762
1.01718
1.01686
1.01681
1.01716
1.01711
1.01689
1.01651
1.01594
1.01552
1.01495
1.01489
1.01498
1.01464
1.01403
1.01347
1.01284
1.01303
1.01332
1.01322
1.0128
1.01228
1.01185
1.01193
1.01186
1.01156
1.01123
1.01126
1.01124
1.01112
1.01092
1.01092
1.01098
1.01104
1.01113
1.01131
1.0115
1.01296
0.877354
0.877256
0.877155
0.877063
0.876967
0.876868
0.876752
0.876644
0.876578
0.876556
0.876569
0.876606
0.876701
0.876918
0.877265
0.877757
0.878472
0.879405
0.880626
0.882104
0.884036
0.886334
0.88924
0.892527
0.896659
0.901211
0.906721
0.912489
0.919328
0.926296
0.934214
0.942091
0.950586
0.95897
0.967342
0.975663
0.983124
0.990769
0.997409
1.00285
1.00607
1.00894
1.0108
1.01213
1.01288
1.01342
1.01347
1.01342
1.01313
1.01236
1.01128
1.01141
1.01204
1.01313
1.01438
1.01525
1.0158
1.01565
1.01496
1.01387
1.01241
1.01114
1.01004
1.01021
1.01106
1.01224
1.01338
1.01329
1.01283
1.01185
1.01079
1.01014
1.01047
1.01104
1.01121
1.0109
1.01009
1.00937
1.00947
1.00972
1.01007
1.00987
1.00939
1.00893
1.00882
1.0089
1.00888
1.00873
1.00852
1.00853
1.00861
1.00862
1.00865
1.00874
1.00886
1.00897
1.00918
1.00946
1.00963
1.01115
0.875567
0.875472
0.875368
0.875273
0.875163
0.875037
0.874906
0.874781
0.874654
0.874534
0.874413
0.874282
0.874162
0.874016
0.873861
0.873682
0.873476
0.873278
0.873131
0.87302
0.872956
0.872908
0.872845
0.872864
0.873044
0.873431
0.874091
0.875037
0.876459
0.878327
0.881041
0.884343
0.888963
0.894253
0.901293
0.908841
0.91823
0.92773
0.938559
0.948918
0.958708
0.968234
0.975405
0.982905
0.987497
0.992273
0.994679
0.99757
0.998859
1.00065
1.00283
1.00593
1.00781
1.00944
1.01014
1.01035
1.01023
1.00972
1.00871
1.00743
1.00632
1.0055
1.00586
1.00653
1.00721
1.00748
1.00718
1.00692
1.00648
1.00593
1.00595
1.00611
1.00632
1.00621
1.00605
1.00563
1.00511
1.00503
1.00511
1.00517
1.00535
1.00514
1.0049
1.00467
1.0046
1.00464
1.00474
1.00467
1.00451
1.00455
1.00472
1.00491
1.00503
1.0052
1.00543
1.0057
1.00597
1.00621
1.00647
1.00817
0.873677
0.873578
0.873488
0.873401
0.873307
0.873207
0.873108
0.87299
0.872876
0.872768
0.872652
0.872521
0.872392
0.872281
0.872153
0.871993
0.87188
0.871767
0.871623
0.871487
0.871359
0.871237
0.871114
0.871005
0.87085
0.870712
0.870606
0.870503
0.870398
0.870271
0.870257
0.870303
0.870504
0.870914
0.871686
0.872836
0.874838
0.877638
0.882187
0.887772
0.896093
0.905233
0.917149
0.929016
0.942211
0.954709
0.96599
0.976961
0.984887
0.993126
0.996987
0.999764
1.00127
1.00274
1.00343
1.00361
1.00285
1.00075
1.00066
1.00111
1.0023
1.00348
1.0043
1.00425
1.00367
1.00301
1.00211
1.00134
1.00135
1.00189
1.00285
1.00309
1.00282
1.00211
1.00135
1.00112
1.00137
1.0017
1.00163
1.0014
1.00105
1.00085
1.00093
1.00095
1.00082
1.00067
1.00063
1.00064
1.0007
1.00074
1.0008
1.00097
1.00125
1.00153
1.00178
1.00209
1.0025
1.00292
1.00322
1.00495
0.872588
0.872516
0.872431
0.872353
0.872273
0.872185
0.872089
0.872002
0.871926
0.871844
0.871761
0.871671
0.871565
0.871443
0.87131
0.871146
0.871071
0.871017
0.870873
0.870726
0.870634
0.870486
0.870334
0.870209
0.870061
0.869932
0.869833
0.869751
0.869663
0.869528
0.869386
0.869342
0.869292
0.869241
0.869153
0.869007
0.868922
0.868937
0.869058
0.869393
0.870151
0.871421
0.873828
0.877357
0.883625
0.891412
0.903197
0.915486
0.930545
0.944559
0.957441
0.968873
0.97625
0.983541
0.986669
0.990416
0.992013
0.994603
0.997992
1.00134
1.00337
1.00409
1.00393
1.00336
1.00183
0.999569
0.998976
0.999029
0.99992
1.00107
1.00193
1.00164
1.00092
1.00004
0.999139
0.999224
0.999538
0.999907
0.999843
0.999405
0.998707
0.99842
0.998512
0.998727
0.998675
0.998471
0.998145
0.997911
0.997981
0.998083
0.998205
0.998305
0.998568
0.998942
0.999201
0.999414
0.999766
1.00018
1.00056
1.00242
0.872132
0.872072
0.872001
0.87192
0.871832
0.871757
0.871675
0.871584
0.871492
0.871405
0.871328
0.871252
0.871144
0.871037
0.870989
0.870917
0.870816
0.870732
0.870589
0.870425
0.870364
0.870289
0.870158
0.870051
0.869949
0.8698
0.86962
0.869497
0.869418
0.869316
0.869147
0.869019
0.868991
0.868966
0.868917
0.868836
0.868695
0.868574
0.868516
0.8685
0.868484
0.868425
0.86832
0.868347
0.868564
0.869111
0.870481
0.872874
0.877806
0.884661
0.896111
0.908915
0.925406
0.941017
0.956499
0.970344
0.981488
0.992221
0.99733
1.00038
1.00194
1.00272
1.00188
0.999045
0.997565
0.997899
0.998981
1.00053
1.00163
1.00125
1.00085
0.999924
0.998851
0.99858
0.998863
0.999358
0.999269
0.998937
0.998551
0.998122
0.997821
0.997783
0.997718
0.997576
0.997358
0.997209
0.997079
0.996963
0.996633
0.996513
0.996613
0.996887
0.997294
0.997607
0.99781
0.998072
0.998444
0.998777
0.999002
1.00075
0.87198
0.871919
0.87186
0.871788
0.871713
0.871644
0.871536
0.87145
0.871379
0.871302
0.871236
0.871132
0.870978
0.870893
0.870821
0.870727
0.870646
0.870575
0.870474
0.870347
0.870199
0.870062
0.869993
0.869954
0.869893
0.869722
0.869497
0.869463
0.869448
0.869392
0.869211
0.868984
0.86895
0.868934
0.868879
0.868771
0.868634
0.868501
0.868405
0.868337
0.868282
0.8682
0.868106
0.867996
0.867864
0.867707
0.867555
0.867433
0.867485
0.867769
0.868727
0.870765
0.875352
0.882431
0.894659
0.908737
0.927025
0.94393
0.959872
0.972604
0.980709
0.987387
0.990611
0.992592
0.997668
1.00045
1.0028
1.00298
1.00276
1.00145
0.999002
0.998253
0.998291
0.999072
1.00018
1.00002
0.999531
0.99862
0.997683
0.997456
0.99763
0.997911
0.997731
0.997295
0.996878
0.996669
0.996689
0.99655
0.996261
0.995893
0.995926
0.996162
0.99655
0.996905
0.997116
0.997362
0.997752
0.998062
0.998354
1.00006
0.871871
0.871804
0.871743
0.871676
0.871611
0.871544
0.871466
0.871396
0.871334
0.871264
0.871181
0.871098
0.871012
0.870883
0.870764
0.870645
0.87055
0.870504
0.870396
0.870221
0.870129
0.870046
0.869949
0.869874
0.869797
0.86967
0.869514
0.869397
0.869325
0.869271
0.869169
0.868959
0.868849
0.8688
0.868732
0.868627
0.868515
0.868421
0.86833
0.868242
0.868161
0.868083
0.867965
0.86784
0.867704
0.867543
0.867379
0.867231
0.867066
0.866884
0.866716
0.866476
0.866414
0.866636
0.867648
0.870113
0.875595
0.884644
0.899008
0.916595
0.937032
0.955255
0.972685
0.987596
0.996472
0.999565
1.00205
1.00196
1.00035
0.996554
0.996843
0.997992
0.999769
1.00104
1.00082
1.00001
0.998722
0.997788
0.997467
0.997805
0.998147
0.997973
0.997591
0.996987
0.996785
0.996817
0.996704
0.996349
0.995888
0.995686
0.99574
0.995904
0.9962
0.996578
0.996919
0.997115
0.997343
0.997604
0.997921
0.999647
0.871791
0.871729
0.871655
0.871582
0.871517
0.871443
0.871374
0.871307
0.871243
0.87117
0.871054
0.87097
0.870889
0.870741
0.870659
0.870619
0.870533
0.870404
0.870256
0.870102
0.870044
0.869994
0.869904
0.869767
0.869629
0.869513
0.86941
0.869302
0.869195
0.869111
0.869037
0.868904
0.868767
0.868663
0.868528
0.868421
0.868366
0.868313
0.868214
0.868033
0.867829
0.867775
0.867757
0.867698
0.867557
0.867377
0.867213
0.867067
0.866912
0.866752
0.866582
0.866381
0.866115
0.865823
0.865583
0.865426
0.865533
0.866099
0.867699
0.871814
0.879784
0.893107
0.911488
0.932853
0.953253
0.968232
0.980256
0.986305
0.99054
0.99399
0.999559
1.0023
1.00225
1.00182
0.999842
0.99779
0.997612
0.997722
0.99837
0.998929
0.998688
0.997988
0.997093
0.996822
0.997052
0.997124
0.996788
0.99621
0.995597
0.995583
0.995663
0.995773
0.996029
0.996411
0.996852
0.997127
0.997223
0.997424
0.997701
0.999403
0.87163
0.871561
0.87149
0.871418
0.871351
0.871283
0.871213
0.87114
0.871063
0.870978
0.870888
0.870796
0.870703
0.870613
0.870518
0.870421
0.870322
0.870201
0.87007
0.869971
0.869892
0.869805
0.869696
0.869572
0.869444
0.869333
0.869228
0.869114
0.869008
0.868929
0.868861
0.868776
0.868647
0.86852
0.868361
0.868213
0.868127
0.86806
0.867976
0.867831
0.86761
0.867498
0.867478
0.86744
0.867322
0.867153
0.86701
0.866866
0.866726
0.866605
0.866476
0.866308
0.866081
0.865799
0.865535
0.865391
0.865238
0.865072
0.86489
0.864867
0.865102
0.866379
0.869751
0.877967
0.891171
0.911786
0.934996
0.955483
0.97729
0.991384
0.998437
1.00107
1.00102
0.998866
0.995165
0.995584
0.996951
0.998703
0.999516
0.999261
0.998362
0.997097
0.996747
0.997124
0.997487
0.997291
0.996633
0.995779
0.995501
0.995548
0.995566
0.995624
0.995866
0.996331
0.99681
0.99705
0.997178
0.997407
0.997667
0.999233
0.871437
0.871368
0.871298
0.871234
0.871174
0.871111
0.871038
0.870961
0.870879
0.870796
0.870711
0.870627
0.870554
0.870472
0.870356
0.870248
0.87014
0.870044
0.869956
0.869862
0.869758
0.869651
0.86954
0.869428
0.869319
0.869214
0.869102
0.868991
0.86888
0.868772
0.868674
0.868584
0.868476
0.868362
0.868212
0.86805
0.867937
0.86785
0.867759
0.867633
0.867419
0.867227
0.8672
0.86719
0.867123
0.866996
0.866852
0.866692
0.866573
0.866488
0.866388
0.866244
0.866068
0.86584
0.865591
0.865382
0.865213
0.86504
0.864868
0.864622
0.86435
0.864042
0.864049
0.864401
0.865598
0.869796
0.877712
0.894621
0.915406
0.940322
0.962968
0.974396
0.985842
0.988176
0.994287
0.997121
0.999884
0.999792
0.999432
0.998064
0.996759
0.996617
0.997155
0.997857
0.997702
0.997024
0.996165
0.995493
0.995603
0.995523
0.995366
0.995386
0.995654
0.99632
0.996722
0.996904
0.997088
0.997403
0.997575
0.999024
0.87116
0.871094
0.871028
0.870965
0.870902
0.870842
0.870766
0.870681
0.870593
0.870513
0.870428
0.870324
0.870262
0.870177
0.870056
0.869967
0.869841
0.869737
0.869667
0.86959
0.869494
0.869391
0.869289
0.869182
0.869084
0.868999
0.868912
0.868827
0.868734
0.868628
0.868526
0.868442
0.86835
0.86825
0.868123
0.867977
0.867861
0.867753
0.867629
0.867496
0.867295
0.867062
0.866989
0.866972
0.866928
0.866835
0.866695
0.86655
0.866461
0.866401
0.866311
0.866182
0.866026
0.865831
0.865614
0.865403
0.865204
0.865002
0.864786
0.864526
0.864248
0.863929
0.863741
0.863664
0.863586
0.863508
0.863781
0.865506
0.869894
0.882633
0.900666
0.926992
0.952717
0.972756
0.991671
0.995506
0.99885
0.998261
0.995905
0.994772
0.995628
0.99712
0.998166
0.997961
0.997153
0.99621
0.9956
0.995817
0.995703
0.995357
0.994866
0.995023
0.995612
0.996284
0.99656
0.996692
0.996948
0.997338
0.997483
0.998816
0.871018
0.870954
0.87089
0.870827
0.870759
0.8707
0.870624
0.870536
0.870448
0.870373
0.870298
0.870184
0.870109
0.870027
0.869908
0.86983
0.869715
0.869597
0.869518
0.869444
0.869348
0.869248
0.869162
0.869072
0.868975
0.868897
0.868831
0.868761
0.868679
0.868583
0.868497
0.868424
0.868342
0.868242
0.868122
0.868001
0.867894
0.867767
0.867615
0.867477
0.867319
0.867074
0.866909
0.866867
0.866824
0.866739
0.866592
0.866418
0.86635
0.866302
0.866214
0.866074
0.865904
0.86571
0.865522
0.865348
0.865164
0.864952
0.864708
0.864416
0.864102
0.863774
0.863517
0.863439
0.863394
0.863299
0.863061
0.862567
0.862509
0.863219
0.865833
0.874641
0.889097
0.914434
0.941135
0.960486
0.980399
0.983424
0.989203
0.993075
0.997829
0.998389
0.998095
0.996769
0.995553
0.995663
0.996189
0.996042
0.995584
0.994586
0.994534
0.994931
0.99566
0.996115
0.996281
0.9964
0.996773
0.997134
0.997236
0.998485
0.870961
0.870895
0.870827
0.870764
0.87069
0.870626
0.870549
0.870463
0.870384
0.870305
0.870233
0.87014
0.870032
0.869949
0.869841
0.869766
0.869685
0.869564
0.869449
0.869372
0.869297
0.869196
0.869131
0.869082
0.86898
0.86889
0.868864
0.868836
0.868749
0.868605
0.868521
0.868454
0.868376
0.868277
0.868165
0.868061
0.867955
0.867817
0.867658
0.867526
0.86741
0.86726
0.867067
0.866908
0.866795
0.866693
0.866558
0.866362
0.866253
0.866188
0.866083
0.86592
0.865728
0.865522
0.865339
0.865191
0.865031
0.864829
0.864598
0.864311
0.863986
0.863658
0.863331
0.863186
0.863145
0.863078
0.862892
0.862553
0.862085
0.861802
0.861718
0.862038
0.863398
0.869378
0.880708
0.905326
0.933084
0.958484
0.984195
0.990894
0.996616
0.996351
0.994632
0.993413
0.994728
0.996768
0.996699
0.995984
0.994572
0.993978
0.994382
0.995116
0.995601
0.995783
0.995901
0.996238
0.996544
0.996685
0.996768
0.998098
0.87105
0.870975
0.870904
0.870847
0.870785
0.870714
0.870641
0.870573
0.870509
0.870452
0.870376
0.870265
0.870133
0.870008
0.869919
0.869858
0.869808
0.869729
0.869611
0.869524
0.869469
0.869373
0.869311
0.869287
0.86924
0.869091
0.868974
0.868931
0.868882
0.868763
0.868613
0.868503
0.868415
0.868315
0.868205
0.868105
0.867995
0.867856
0.867706
0.867581
0.867474
0.867333
0.867129
0.866919
0.866773
0.866669
0.866545
0.866378
0.866222
0.866103
0.865968
0.865795
0.865572
0.865331
0.865119
0.864951
0.864804
0.864626
0.864435
0.864214
0.863918
0.863586
0.863217
0.86294
0.862863
0.862819
0.862694
0.86244
0.862037
0.861679
0.861502
0.86134
0.860994
0.861022
0.861737
0.86588
0.875253
0.899065
0.926359
0.951139
0.97567
0.979969
0.986509
0.991105
0.99772
0.997641
0.996569
0.994345
0.993311
0.99377
0.99485
0.995396
0.995224
0.99532
0.995707
0.996117
0.996156
0.9961
0.996303
0.99784
0.871089
0.870996
0.87096
0.870956
0.870931
0.870877
0.870819
0.870743
0.870634
0.870589
0.870528
0.870338
0.870217
0.870149
0.870052
0.869991
0.86998
0.869938
0.869791
0.869717
0.869714
0.869665
0.869566
0.869528
0.869484
0.869329
0.869084
0.869019
0.868989
0.868921
0.86876
0.868627
0.868543
0.868457
0.868355
0.868224
0.868071
0.867928
0.867804
0.867704
0.8676
0.867432
0.867183
0.866933
0.866786
0.866699
0.866592
0.866432
0.866256
0.866093
0.865927
0.865739
0.865518
0.865256
0.864989
0.864764
0.864578
0.864416
0.864279
0.864129
0.863869
0.863544
0.863169
0.862779
0.862636
0.862593
0.862497
0.862283
0.861958
0.861635
0.861393
0.861192
0.86095
0.860634
0.860227
0.859878
0.860277
0.863596
0.871933
0.894819
0.922755
0.951505
0.980486
0.988596
0.995632
0.995169
0.991767
0.991753
0.992785
0.994335
0.995057
0.994905
0.994529
0.994936
0.995729
0.995922
0.995471
0.995544
0.995926
0.997904
0.871091
0.871069
0.871049
0.871008
0.870954
0.870909
0.870864
0.870822
0.87078
0.870685
0.870528
0.87043
0.870349
0.870229
0.870171
0.870159
0.870142
0.870068
0.869927
0.869899
0.869913
0.86989
0.869802
0.869786
0.869754
0.869621
0.869318
0.869121
0.869054
0.869003
0.868861
0.868717
0.868669
0.868602
0.868473
0.868291
0.868105
0.86797
0.867883
0.867807
0.867695
0.8675
0.867245
0.866983
0.86682
0.866718
0.866607
0.866456
0.866297
0.86613
0.865942
0.865738
0.865488
0.865168
0.864868
0.864646
0.864457
0.864261
0.864172
0.864097
0.863886
0.863571
0.863196
0.862743
0.862535
0.86247
0.862358
0.862143
0.861855
0.861593
0.86137
0.861146
0.860858
0.860547
0.860171
0.859764
0.859304
0.858837
0.859147
0.861969
0.86981
0.892869
0.920781
0.947835
0.973138
0.978022
0.985095
0.990649
0.995054
0.995042
0.994154
0.993362
0.993968
0.995553
0.995921
0.995404
0.995011
0.995314
0.996171
0.998061
0.871068
0.871068
0.871093
0.87111
0.871087
0.870926
0.870708
0.870665
0.870645
0.870598
0.870486
0.87039
0.87038
0.870372
0.870363
0.870342
0.87029
0.870158
0.870041
0.870027
0.87004
0.870025
0.86994
0.869902
0.86987
0.869764
0.869505
0.869221
0.869086
0.869043
0.86897
0.868825
0.868759
0.868701
0.868594
0.868375
0.868095
0.867958
0.867907
0.867848
0.867721
0.867483
0.867235
0.866997
0.866835
0.866741
0.866647
0.866483
0.866293
0.866123
0.865943
0.865738
0.865471
0.865074
0.864729
0.864545
0.864351
0.864165
0.864105
0.8641
0.863978
0.863668
0.863304
0.862892
0.862579
0.86242
0.862251
0.862032
0.861792
0.861544
0.861319
0.861108
0.860844
0.860518
0.860144
0.859774
0.859326
0.858884
0.858428
0.857987
0.858262
0.861024
0.868881
0.891936
0.920254
0.950663
0.980354
0.98824
0.993632
0.992442
0.989388
0.991308
0.994587
0.995974
0.995588
0.994484
0.99471
0.995932
0.996389
0.99785
0.871086
0.871088
0.871107
0.871107
0.871049
0.870815
0.870608
0.870587
0.870566
0.870524
0.870513
0.870506
0.870492
0.870471
0.870438
0.870338
0.870169
0.870138
0.87013
0.870067
0.869998
0.869997
0.869988
0.869932
0.869839
0.869706
0.869505
0.869273
0.869174
0.86918
0.86919
0.869159
0.869039
0.868877
0.868691
0.868461
0.868179
0.867975
0.86788
0.867784
0.867596
0.867348
0.86713
0.866896
0.866643
0.866494
0.866422
0.866276
0.866027
0.865927
0.865861
0.865741
0.865511
0.865074
0.864708
0.864528
0.864326
0.864135
0.864075
0.864084
0.86402
0.863735
0.863355
0.863021
0.862709
0.862436
0.862182
0.861957
0.861768
0.861563
0.861364
0.861175
0.860924
0.860576
0.860174
0.85975
0.859278
0.8588
0.858348
0.857969
0.857563
0.857146
0.857432
0.860012
0.868095
0.892042
0.922062
0.949793
0.972199
0.97907
0.985826
0.99405
0.995934
0.995442
0.993983
0.994191
0.995537
0.996373
0.996429
0.997464
0.87128
0.871247
0.871194
0.871096
0.871018
0.870913
0.870751
0.870676
0.870666
0.870667
0.87067
0.870664
0.870634
0.87057
0.870449
0.870306
0.870238
0.870204
0.870144
0.869997
0.869897
0.869885
0.869887
0.869879
0.869828
0.869708
0.869511
0.869315
0.869275
0.869282
0.869302
0.869294
0.86921
0.869017
0.86876
0.86851
0.868261
0.868049
0.867911
0.867729
0.867458
0.867243
0.867064
0.866824
0.866485
0.866261
0.866202
0.866098
0.865861
0.865753
0.865755
0.865725
0.865591
0.865226
0.864815
0.864629
0.864439
0.86416
0.864024
0.864021
0.863988
0.863728
0.863291
0.862949
0.862716
0.862477
0.862196
0.861961
0.861807
0.861661
0.861488
0.861298
0.861038
0.860671
0.860214
0.859738
0.859248
0.858776
0.858301
0.857887
0.857443
0.857041
0.856552
0.85601
0.856198
0.85902
0.868595
0.894218
0.925453
0.960975
0.981942
0.993709
0.993401
0.990886
0.992068
0.995085
0.996271
0.99613
0.995843
0.996862
0.87143
0.871388
0.871332
0.871259
0.87115
0.871001
0.870879
0.870843
0.870841
0.870838
0.870821
0.870781
0.870712
0.870618
0.870506
0.870414
0.870349
0.870265
0.870134
0.869936
0.869762
0.869725
0.869719
0.869711
0.869675
0.869595
0.869489
0.869341
0.869264
0.869251
0.869248
0.869218
0.869113
0.868919
0.868696
0.868513
0.868367
0.868205
0.868024
0.867801
0.867543
0.867329
0.867105
0.866812
0.866436
0.866154
0.866073
0.865997
0.86583
0.865666
0.865608
0.865639
0.865645
0.865434
0.864874
0.864651
0.864521
0.864256
0.863971
0.863944
0.863919
0.863667
0.863135
0.862784
0.862636
0.8625
0.862276
0.862025
0.86187
0.861754
0.8616
0.861381
0.861077
0.860684
0.860198
0.85968
0.859193
0.858728
0.858225
0.857727
0.857275
0.856825
0.856364
0.855775
0.855279
0.854632
0.854988
0.858426
0.871097
0.898982
0.932167
0.967332
0.975026
0.985009
0.99378
0.996531
0.996019
0.994639
0.995058
0.996623
0.871497
0.87145
0.871381
0.871279
0.871167
0.871094
0.871027
0.870953
0.870928
0.870928
0.870924
0.870891
0.870775
0.870668
0.870628
0.870601
0.870552
0.870458
0.870332
0.87012
0.869871
0.869779
0.86975
0.86971
0.869596
0.869397
0.869329
0.869316
0.869306
0.869294
0.869264
0.869202
0.869098
0.868951
0.8688
0.868679
0.868594
0.86851
0.868397
0.868218
0.867973
0.86774
0.867498
0.867193
0.866814
0.866445
0.866211
0.866065
0.865911
0.865705
0.865563
0.865545
0.865602
0.865535
0.865032
0.864618
0.864495
0.864287
0.863924
0.863867
0.863858
0.86359
0.86296
0.862675
0.86261
0.862582
0.862482
0.862243
0.862002
0.861842
0.861661
0.86141
0.861056
0.86064
0.860154
0.859636
0.859133
0.858645
0.858056
0.857511
0.857055
0.856671
0.856212
0.855764
0.855322
0.854808
0.854099
0.85375
0.854579
0.85935
0.877553
0.90702
0.945337
0.979315
0.991484
0.995543
0.991369
0.99236
0.994301
0.996603
0.871127
0.871098
0.87104
0.870957
0.87088
0.870818
0.87076
0.870727
0.8707
0.870643
0.870616
0.870621
0.87062
0.870575
0.870558
0.870552
0.87053
0.870484
0.870389
0.870162
0.869884
0.869752
0.869699
0.869641
0.869523
0.869266
0.869088
0.869046
0.869015
0.868973
0.868936
0.868916
0.868933
0.868972
0.868963
0.86894
0.868906
0.868829
0.86874
0.868617
0.868418
0.868148
0.867848
0.867553
0.867286
0.866994
0.866596
0.866248
0.866057
0.865852
0.865632
0.865601
0.865666
0.865666
0.865244
0.864628
0.864461
0.864297
0.863959
0.863833
0.86386
0.863704
0.863177
0.86278
0.862694
0.862694
0.862655
0.862467
0.862163
0.861903
0.861659
0.861372
0.861014
0.860596
0.86009
0.859535
0.859002
0.85846
0.857929
0.857387
0.856943
0.856597
0.856248
0.855807
0.85532
0.854747
0.854061
0.853268
0.853003
0.853177
0.854942
0.862204
0.886892
0.920351
0.9528
0.976199
0.983137
0.994242
0.995782
0.996611
0.870384
0.870384
0.870379
0.870352
0.870315
0.870306
0.870318
0.870361
0.870445
0.870566
0.870645
0.870668
0.870676
0.870695
0.870746
0.870781
0.870782
0.870772
0.870738
0.87065
0.870493
0.870315
0.870184
0.870078
0.869953
0.869779
0.869518
0.869149
0.868939
0.868869
0.868835
0.868828
0.868887
0.869041
0.869113
0.869122
0.869106
0.868981
0.868835
0.868735
0.868606
0.868353
0.867993
0.867698
0.867508
0.867276
0.866788
0.866299
0.866176
0.866087
0.865855
0.865748
0.865793
0.865807
0.865451
0.86474
0.864385
0.864141
0.863977
0.864021
0.864157
0.864062
0.863639
0.863199
0.862903
0.862817
0.862762
0.862601
0.862267
0.861922
0.861627
0.861305
0.860919
0.860441
0.859942
0.859419
0.858917
0.8584
0.857918
0.857383
0.857002
0.856733
0.856351
0.855843
0.855251
0.854609
0.853951
0.853316
0.852855
0.852609
0.852736
0.853323
0.856731
0.868363
0.897746
0.937076
0.9721
0.992296
0.994854
0.993659
0.869466
0.869545
0.869605
0.869663
0.869717
0.86978
0.869873
0.869988
0.870146
0.870349
0.870473
0.870547
0.870608
0.870668
0.870725
0.870732
0.870698
0.870649
0.870597
0.870537
0.87044
0.870271
0.870107
0.869996
0.869879
0.869711
0.869438
0.868992
0.868597
0.868493
0.868477
0.868476
0.868527
0.868684
0.868799
0.868801
0.868653
0.868295
0.868117
0.868116
0.868109
0.868014
0.867787
0.867574
0.867413
0.867183
0.866524
0.865932
0.865806
0.865721
0.865721
0.86575
0.865866
0.865873
0.86562
0.864977
0.864399
0.864149
0.864154
0.864268
0.864349
0.864198
0.863749
0.863409
0.863124
0.862878
0.862759
0.86258
0.862266
0.861873
0.861495
0.861069
0.860619
0.860121
0.859751
0.859371
0.858946
0.858575
0.858188
0.857684
0.857133
0.856743
0.85633
0.855793
0.855132
0.854425
0.853737
0.853124
0.852574
0.852382
0.852481
0.852705
0.853067
0.854218
0.859528
0.877686
0.913193
0.951503
0.972012
0.987759
0.869158
0.869158
0.869158
0.869136
0.869096
0.869109
0.869198
0.869365
0.869443
0.869431
0.869433
0.869446
0.869506
0.869663
0.869727
0.869678
0.869613
0.869562
0.869571
0.869634
0.869661
0.869647
0.869587
0.869507
0.869443
0.869347
0.86918
0.868913
0.868527
0.868194
0.868046
0.867939
0.867808
0.867755
0.867799
0.867744
0.86742
0.867292
0.867318
0.867478
0.867532
0.867477
0.86726
0.867114
0.867033
0.866764
0.865973
0.865495
0.865491
0.865538
0.865698
0.866108
0.866383
0.866331
0.865998
0.865206
0.864443
0.864221
0.864239
0.864323
0.86432
0.864102
0.863711
0.86342
0.863165
0.862803
0.862389
0.862027
0.86169
0.861372
0.861096
0.860793
0.860418
0.859992
0.859673
0.859511
0.859266
0.858895
0.858423
0.857853
0.857229
0.856711
0.856223
0.855626
0.854839
0.853987
0.853183
0.852634
0.85237
0.852408
0.852575
0.852833
0.853172
0.8535
0.853957
0.855922
0.865857
0.890373
0.930603
0.980142
0.869103
0.868972
0.868829
0.868681
0.868663
0.868673
0.868667
0.868628
0.868537
0.868346
0.868159
0.868122
0.8681
0.867994
0.867687
0.867529
0.867492
0.867493
0.867541
0.867726
0.86795
0.868097
0.868222
0.868395
0.868567
0.868633
0.868636
0.868597
0.868454
0.868168
0.867798
0.867595
0.867552
0.867579
0.867589
0.867245
0.866673
0.866643
0.866892
0.867284
0.867301
0.867155
0.866915
0.866866
0.86685
0.866674
0.866247
0.865477
0.865206
0.86523
0.865408
0.865968
0.866435
0.866443
0.866211
0.865466
0.864334
0.863768
0.863707
0.86364
0.86353
0.863358
0.863093
0.862798
0.862506
0.862146
0.861733
0.861413
0.861082
0.860879
0.860799
0.860722
0.860532
0.860212
0.859978
0.85978
0.859463
0.858991
0.858447
0.857833
0.857162
0.856517
0.855864
0.855039
0.854164
0.853408
0.852765
0.852331
0.852293
0.852404
0.852572
0.85281
0.853121
0.853366
0.853542
0.853712
0.854423
0.858914
0.87409
0.930539
0.871303
0.87113
0.870793
0.870001
0.869539
0.86954
0.86966
0.869649
0.869527
0.869187
0.868603
0.868379
0.868335
0.868298
0.868278
0.868291
0.868433
0.868477
0.868472
0.868525
0.868663
0.868788
0.868887
0.869013
0.869147
0.869302
0.869509
0.869559
0.869478
0.8694
0.869409
0.869539
0.869589
0.869441
0.868937
0.868819
0.8688
0.868991
0.869562
0.869638
0.86958
0.869167
0.86838
0.867954
0.867859
0.867715
0.86744
0.866847
0.866083
0.865862
0.865862
0.866014
0.866252
0.86631
0.866238
0.865762
0.864647
0.863564
0.863153
0.863063
0.862999
0.862851
0.86252
0.862026
0.861645
0.861364
0.861146
0.860987
0.860751
0.860414
0.860361
0.860507
0.860474
0.86025
0.860037
0.859807
0.859424
0.858865
0.858228
0.857474
0.856644
0.855766
0.854986
0.854284
0.853589
0.852992
0.852792
0.852617
0.852508
0.852508
0.852546
0.852704
0.852833
0.853025
0.853284
0.853546
0.853889
0.854403
0.855969
0.880742
0.878664
0.878545
0.878322
0.877952
0.877535
0.877055
0.876607
0.876302
0.876121
0.87592
0.875349
0.874856
0.874794
0.874779
0.87486
0.87527
0.875441
0.875413
0.875222
0.87466
0.873932
0.873713
0.873763
0.873794
0.873641
0.873429
0.873429
0.873299
0.872726
0.872265
0.872046
0.871891
0.871917
0.871815
0.871164
0.870943
0.870962
0.871119
0.87128
0.871268
0.871111
0.870632
0.869881
0.869198
0.868728
0.868398
0.868035
0.867437
0.866562
0.865874
0.865808
0.86592
0.865943
0.865762
0.8653
0.864703
0.863984
0.863441
0.863207
0.863134
0.863061
0.862896
0.862579
0.862136
0.861711
0.861673
0.861713
0.861834
0.861835
0.86163
0.861138
0.8607
0.86044
0.860098
0.859628
0.859024
0.858259
0.857501
0.856881
0.856207
0.855519
0.85486
0.854249
0.853801
0.853354
0.852973
0.852789
0.852583
0.852411
0.852401
0.852332
0.852214
0.852287
0.852577
0.853034
0.853696
0.854223
0.854721
0.854907
0.859581
0.883543
0.883481
0.883284
0.882739
0.882327
0.882133
0.881791
0.881648
0.881727
0.882369
0.882815
0.882453
0.881523
0.881264
0.881248
0.881449
0.882018
0.882149
0.882027
0.881855
0.881677
0.881355
0.881333
0.881818
0.881961
0.881465
0.880399
0.879573
0.878935
0.878376
0.877848
0.87722
0.876601
0.876088
0.875522
0.874691
0.873675
0.872928
0.872351
0.871974
0.871786
0.871615
0.871611
0.871792
0.871694
0.871339
0.871255
0.871206
0.87071
0.869842
0.869353
0.868932
0.868398
0.867636
0.866584
0.865936
0.865852
0.866096
0.866722
0.866796
0.866508
0.865959
0.865218
0.864397
0.863764
0.863526
0.86348
0.863503
0.86338
0.862944
0.86188
0.860911
0.860479
0.860059
0.859401
0.858654
0.857892
0.857075
0.856434
0.855873
0.855235
0.854563
0.854004
0.853497
0.852918
0.852629
0.852454
0.852135
0.851872
0.851481
0.851185
0.851307
0.851746
0.852527
0.853173
0.85378
0.854345
0.854718
0.854822
0.85597
0.899278
0.899509
0.899647
0.899627
0.89923
0.898762
0.898635
0.898513
0.898177
0.897868
0.897639
0.897251
0.896348
0.894922
0.894278
0.894321
0.894587
0.894645
0.894453
0.894076
0.894156
0.894454
0.894415
0.893886
0.893147
0.892969
0.893115
0.893025
0.89237
0.892027
0.892128
0.892126
0.891499
0.890755
0.890737
0.890511
0.889405
0.887644
0.886395
0.885448
0.88426
0.88366
0.8837
0.8838
0.883392
0.881925
0.881399
0.881417
0.881168
0.880248
0.879163
0.878672
0.878288
0.877418
0.875948
0.874373
0.873092
0.872469
0.872231
0.871943
0.871237
0.870187
0.869062
0.867845
0.866614
0.865417
0.864369
0.86389
0.86357
0.862844
0.861525
0.860614
0.860324
0.860011
0.859427
0.858679
0.858045
0.857269
0.856828
0.85675
0.856378
0.855725
0.855194
0.854511
0.853553
0.852659
0.851737
0.851091
0.850527
0.850036
0.850093
0.850329
0.851024
0.852054
0.852999
0.853689
0.854296
0.854421
0.854588
0.855538
0.916284
0.916161
0.916131
0.916151
0.916231
0.916656
0.917233
0.917348
0.917119
0.916445
0.916257
0.91629
0.916093
0.91482
0.913551
0.913486
0.913626
0.913482
0.913134
0.913017
0.912887
0.911951
0.911442
0.911147
0.910481
0.909459
0.908437
0.907409
0.906605
0.906068
0.905025
0.904033
0.903877
0.903444
0.902901
0.902563
0.901608
0.900311
0.900158
0.899911
0.899325
0.898787
0.898246
0.897629
0.897006
0.895843
0.893367
0.891278
0.890481
0.889513
0.887421
0.886571
0.886454
0.886173
0.88575
0.885232
0.88376
0.881136
0.879104
0.877679
0.876313
0.875091
0.874557
0.87412
0.87322
0.871698
0.869736
0.867439
0.866839
0.866646
0.866056
0.864965
0.864271
0.86376
0.862771
0.86201
0.861968
0.861436
0.860458
0.859779
0.858968
0.85786
0.856572
0.855271
0.853935
0.852501
0.85141
0.850812
0.850289
0.84996
0.85014
0.85079
0.851753
0.852395
0.852633
0.852875
0.853259
0.853758
0.854297
0.855675
0.93668
0.936251
0.936109
0.936035
0.935946
0.935732
0.935581
0.935606
0.935558
0.935007
0.934371
0.934377
0.934259
0.933491
0.932947
0.932326
0.931566
0.931466
0.931399
0.931115
0.930136
0.929272
0.929276
0.929531
0.929369
0.928673
0.928057
0.927509
0.927045
0.926549
0.925902
0.924999
0.924126
0.923219