/*--------------------------------*- C++ -*----------------------------------*\
  =========                 |
  \\      /  F ield         | OpenFOAM: The Open Source CFD Toolbox
   \\    /   O peration     | Website:  https://openfoam.org
    \\  /    A nd           | Version:  7
     \\/     M anipulation  |
\*---------------------------------------------------------------------------*/
FoamFile
{
    version     2.0;
    format      ascii;
    class       volScalarField;
    location    "5";
    object      rho;
}
// * * * * * * * * * * * * * * * * * * * * * * * * * * * * * * * * * * * * * //

dimensions      [1 -3 0 0 0 0 0];

internalField   nonuniform List<scalar> 
90000
(
0.262176
0.302779
0.335838
0.360489
0.396245
0.425663
0.445059
0.474428
0.510371
0.541483
0.576917
0.616883
0.659083
0.701355
0.74477
0.78927
0.831052
0.872063
0.90606
0.937932
0.958524
0.975266
0.985308
0.990694
0.993953
0.994856
0.992044
0.987561
0.982624
0.979098
0.979391
0.98089
0.982465
0.984035
0.983202
0.979573
0.973218
0.964106
0.955912
0.957211
0.964582
0.977558
0.991856
1.00967
1.02482
1.03667
1.03744
1.03117
1.02099
1.01049
1.00095
0.999845
1.00321
1.01233
1.02443
1.03655
1.04689
1.04555
1.04166
1.03579
1.03274
1.03493
1.04122
1.0498
1.05713
1.05606
1.05364
1.05263
1.05491
1.06033
1.06718
1.07185
1.07133
1.06984
1.06998
1.07103
1.07365
1.07675
1.07861
1.07749
1.0765
1.07776
1.08099
1.0813
1.08054
1.08083
1.08322
1.08641
1.08885
1.08984
1.09141
1.09523
1.09861
1.10103
1.10186
1.10508
1.1091
1.11271
1.11423
1.1107
0.230008
0.230035
0.230069
0.23011
0.230162
0.230217
0.230283
0.23035
0.230438
0.230502
0.231541
0.234486
0.240651
0.250209
0.264988
0.284537
0.312177
0.345117
0.387726
0.436927
0.494901
0.556029
0.617392
0.676699
0.728622
0.774359
0.81055
0.844361
0.867067
0.887916
0.900936
0.914658
0.921987
0.930886
0.932499
0.934439
0.933369
0.93079
0.932859
0.939071
0.944767
0.948528
0.951728
0.954405
0.958519
0.955934
0.949336
0.942017
0.941407
0.943553
0.947377
0.955075
0.961858
0.969257
0.975669
0.980441
0.979785
0.976284
0.974576
0.976304
0.980662
0.98579
0.992001
0.995116
0.996456
0.995769
0.996169
0.998281
1.00285
1.00921
1.01522
1.01829
1.01786
1.0176
1.01843
1.02199
1.02752
1.03204
1.0326
1.03286
1.0347
1.03874
1.04142
1.04147
1.04256
1.04538
1.04951
1.05284
1.05437
1.05652
1.05992
1.06495
1.06756
1.06971
1.07162
1.07586
1.07964
1.08113
1.08184
1.08142
0.230812
0.230896
0.23099
0.231093
0.231202
0.231318
0.231439
0.231565
0.231696
0.231825
0.231991
0.232067
0.232138
0.23222
0.232313
0.232419
0.232532
0.232659
0.232787
0.23294
0.233047
0.235117
0.242882
0.256894
0.280473
0.310873
0.352735
0.400246
0.458009
0.519815
0.584727
0.646763
0.705084
0.761168
0.808219
0.853725
0.888196
0.923666
0.944612
0.956639
0.956174
0.953177
0.947468
0.936168
0.919759
0.902448
0.882452
0.882896
0.889347
0.902546
0.917707
0.931567
0.94061
0.945007
0.942827
0.936339
0.929198
0.922879
0.923903
0.928098
0.935857
0.943628
0.949961
0.94959
0.94793
0.946824
0.947924
0.9528
0.960572
0.966432
0.969707
0.968169
0.96673
0.967989
0.97216
0.977808
0.981703
0.981177
0.98205
0.984656
0.988749
0.992855
0.994883
0.995599
0.99763
1.00162
1.007
1.01023
1.01311
1.01639
1.02096
1.02546
1.02837
1.03291
1.03734
1.04219
1.04483
1.04576
1.04669
1.04752
0.231942
0.232031
0.232125
0.232225
0.232328
0.232436
0.232545
0.23266
0.232772
0.232891
0.233007
0.233129
0.233252
0.233381
0.23351
0.233642
0.233766
0.233891
0.234007
0.234122
0.23424
0.234286
0.234325
0.234371
0.23442
0.234481
0.234539
0.234616
0.234664
0.235191
0.241114
0.254309
0.280363
0.316184
0.368783
0.431595
0.511639
0.598687
0.677762
0.748654
0.800295
0.841784
0.863496
0.884411
0.884531
0.886849
0.888961
0.896884
0.903278
0.910045
0.917167
0.921922
0.927768
0.926153
0.917415
0.907534
0.907686
0.909914
0.914713
0.919017
0.920466
0.920726
0.920244
0.917823
0.917651
0.918626
0.921606
0.924925
0.929857
0.933977
0.932776
0.930112
0.930144
0.931968
0.936053
0.941748
0.943887
0.942956
0.943254
0.946562
0.951123
0.952796
0.952604
0.954031
0.956977
0.961884
0.966272
0.968632
0.971257
0.975413
0.980661
0.984886
0.988921
0.992129
0.997254
1.00298
1.00586
1.00651
1.00834
1.00965
0.23314
0.233219
0.233303
0.233389
0.23348
0.233569
0.23366
0.233752
0.233842
0.233929
0.234018
0.234103
0.234186
0.234268
0.23435
0.234423
0.234493
0.234561
0.234627
0.234688
0.234741
0.234788
0.234836
0.234883
0.234933
0.234984
0.235039
0.235095
0.235148
0.235214
0.235244
0.235271
0.235302
0.235336
0.235385
0.235427
0.235636
0.241868
0.264264
0.302776
0.365313
0.443965
0.541788
0.644308
0.734726
0.813731
0.868133
0.898956
0.908885
0.910551
0.91236
0.9136
0.911066
0.902034
0.886179
0.88939
0.897057
0.906297
0.91322
0.916531
0.915528
0.911999
0.906145
0.903284
0.904375
0.908155
0.914671
0.920239
0.919546
0.91705
0.912012
0.910594
0.912265
0.91661
0.919792
0.918745
0.9164
0.91678
0.918879
0.922046
0.925536
0.925252
0.924931
0.925228
0.928332
0.932719
0.935293
0.936536
0.939769
0.94395
0.948951
0.951694
0.954792
0.959461
0.964203
0.968175
0.972136
0.974359
0.975051
0.976005
0.234159
0.23421
0.234264
0.23432
0.234375
0.234429
0.234483
0.234536
0.234587
0.234638
0.234689
0.234734
0.234777
0.234822
0.234865
0.234904
0.234939
0.234976
0.235012
0.235043
0.23507
0.235094
0.23512
0.235148
0.235183
0.235222
0.235271
0.23532
0.235379
0.235434
0.235495
0.235559
0.235625
0.235692
0.235757
0.235817
0.235895
0.235939
0.235986
0.236048
0.236126
0.236146
0.238249
0.2525
0.295134
0.364858
0.468828
0.583991
0.682307
0.764545
0.808982
0.84879
0.861131
0.872598
0.88146
0.898322
0.91153
0.922285
0.92234
0.918973
0.913943
0.905728
0.899956
0.900193
0.902042
0.906937
0.91246
0.918562
0.915825
0.908841
0.903247
0.903612
0.905674
0.909334
0.913533
0.911209
0.907332
0.907499
0.910167
0.913733
0.913221
0.910221
0.909576
0.911572
0.913561
0.915972
0.916245
0.916862
0.919403
0.923529
0.927506
0.93078
0.934354
0.937797
0.943624
0.945294
0.947141
0.95023
0.954109
0.954699
0.234794
0.234825
0.234854
0.234882
0.234909
0.234935
0.23496
0.234986
0.235012
0.23504
0.235068
0.235091
0.235112
0.235136
0.235159
0.23518
0.235202
0.235226
0.235247
0.235264
0.235279
0.235298
0.235323
0.235357
0.235399
0.235452
0.235515
0.235586
0.235656
0.235728
0.235795
0.235856
0.235913
0.235966
0.236012
0.236053
0.236095
0.23614
0.23619
0.236241
0.236275
0.236285
0.236268
0.236231
0.236223
0.236228
0.236244
0.242537
0.275357
0.335301
0.43078
0.54789
0.665745
0.772062
0.844144
0.887962
0.900099
0.911889
0.914589
0.915234
0.912292
0.899293
0.90026
0.905541
0.913668
0.918221
0.918443
0.915964
0.908007
0.902488
0.902303
0.904305
0.910413
0.912204
0.910124
0.90475
0.903282
0.904508
0.907994
0.910472
0.908926
0.905182
0.905311
0.906202
0.909743
0.910019
0.909702
0.910588
0.913078
0.916759
0.919156
0.918984
0.921228
0.924801
0.931004
0.935115
0.936373
0.937353
0.939136
0.941816
0.235127
0.235143
0.235159
0.235177
0.235193
0.23521
0.235226
0.235241
0.235258
0.235274
0.235288
0.235299
0.235312
0.235326
0.23534
0.235356
0.235378
0.2354
0.235419
0.235436
0.235458
0.235488
0.235532
0.23559
0.235657
0.235731
0.235812
0.235891
0.235964
0.236027
0.236072
0.236108
0.236141
0.236171
0.236198
0.236223
0.236245
0.236271
0.236301
0.236322
0.236333
0.236337
0.236319
0.236287
0.236284
0.236291
0.236329
0.236398
0.236453
0.236487
0.236504
0.238412
0.264457
0.324918
0.434881
0.570215
0.687331
0.786195
0.841729
0.881232
0.898478
0.898779
0.911837
0.927624
0.931093
0.926357
0.920328
0.906561
0.900349
0.901355
0.906551
0.913614
0.917835
0.914838
0.905862
0.90214
0.903223
0.908731
0.912189
0.910641
0.905823
0.903598
0.904448
0.907897
0.909326
0.907973
0.907093
0.907882
0.910704
0.913716
0.916538
0.917669
0.920309
0.924416
0.926465
0.929474
0.93271
0.935395
0.935708
0.93597
0.23537
0.23538
0.23539
0.235399
0.235409
0.235419
0.235427
0.235435
0.235446
0.235456
0.235465
0.235474
0.235485
0.235497
0.235512
0.235534
0.23556
0.235589
0.235618
0.235651
0.235692
0.235743
0.23581
0.235891
0.235971
0.236048
0.236122
0.236184
0.236235
0.23627
0.236289
0.236293
0.236297
0.236306
0.236321
0.236336
0.236351
0.236367
0.236382
0.236391
0.236397
0.236394
0.236373
0.236332
0.236323
0.236329
0.236383
0.236465
0.236487
0.236493
0.236507
0.236533
0.236515
0.236492
0.236502
0.240842
0.279383
0.356176
0.486497
0.633716
0.773949
0.857273
0.90656
0.921313
0.924659
0.924097
0.916112
0.899964
0.902708
0.91332
0.920099
0.922018
0.91968
0.909427
0.903413
0.904141
0.910367
0.915813
0.914199
0.907904
0.904102
0.904508
0.908384
0.910666
0.909591
0.907677
0.907175
0.909687
0.913414
0.914713
0.915469
0.917201
0.92041
0.924132
0.926842
0.928122
0.93034
0.934189
0.935727
0.935744
0.235549
0.235558
0.235569
0.235579
0.235589
0.235598
0.235607
0.235617
0.235628
0.235638
0.23565
0.235666
0.235684
0.235705
0.235732
0.235765
0.2358
0.235839
0.235882
0.235931
0.235983
0.236041
0.236115
0.236192
0.236256
0.236309
0.236353
0.236381
0.236398
0.236412
0.236407
0.236379
0.236369
0.236371
0.23638
0.236393
0.236408
0.236421
0.236432
0.236444
0.236446
0.236436
0.236407
0.236364
0.236341
0.23635
0.236429
0.236499
0.236491
0.236476
0.236472
0.236501
0.236501
0.236471
0.236474
0.236556
0.236626
0.236741
0.236803
0.254766
0.318401
0.454668
0.616607
0.747566
0.829994
0.883049
0.895892
0.905106
0.918239
0.935501
0.932679
0.927767
0.912985
0.90352
0.904914
0.913135
0.921794
0.920599
0.913474
0.90588
0.904868
0.90948
0.913584
0.912108
0.909355
0.907864
0.909645
0.913884
0.916057
0.916061
0.916717
0.91979
0.92365
0.926291
0.928334
0.929453
0.931722
0.933856
0.935386
0.935806
0.235759
0.23577
0.235782
0.235795
0.235808
0.235823
0.23584
0.235858
0.235877
0.235896
0.235917
0.235942
0.235967
0.235989
0.236019
0.236054
0.236086
0.23612
0.236164
0.236208
0.236245
0.23629
0.236354
0.236407
0.23644
0.236462
0.236473
0.236475
0.236476
0.236474
0.236451
0.236404
0.236396
0.236399
0.23641
0.236428
0.236449
0.236468
0.236487
0.236509
0.236512
0.236497
0.236467
0.236416
0.236373
0.236385
0.236459
0.236483
0.236465
0.236426
0.236417
0.236429
0.236467
0.236477
0.236475
0.236521
0.236692
0.237133
0.237279
0.237175
0.237135
0.237167
0.248722
0.316141
0.439323
0.609051
0.763923
0.878624
0.911891
0.928617
0.927443
0.918664
0.900296
0.904795
0.915915
0.925512
0.925573
0.919591
0.907488
0.906207
0.909536
0.916523
0.915759
0.913123
0.910088
0.911064
0.915039
0.918197
0.918038
0.91824
0.919649
0.923601
0.926342
0.927859
0.929584
0.931308
0.933605
0.934333
0.9352
0.935974
0.236082
0.236093
0.236107
0.236121
0.236134
0.236148
0.236162
0.236176
0.236196
0.236217
0.236235
0.236253
0.236269
0.236279
0.236291
0.236306
0.236318
0.236333
0.236356
0.236376
0.236392
0.23642
0.236463
0.236489
0.236498
0.236496
0.236493
0.236491
0.236484
0.236461
0.236411
0.236387
0.236388
0.236394
0.236412
0.236446
0.236492
0.236532
0.236572
0.236599
0.236593
0.236573
0.236546
0.23649
0.23645
0.236458
0.236468
0.236457
0.236422
0.236384
0.236387
0.236411
0.236466
0.236579
0.236631
0.236654
0.236877
0.237377
0.237473
0.237398
0.237261
0.237253
0.23723
0.237059
0.236595
0.249339
0.319469
0.474132
0.645781
0.793675
0.855895
0.894675
0.897868
0.917582
0.934352
0.933489
0.928678
0.910173
0.905284
0.9096
0.920143
0.92072
0.916657
0.911279
0.911427
0.916047
0.921114
0.921268
0.920295
0.920896
0.92388
0.928252
0.929726
0.930301
0.931882
0.934006
0.936318
0.936074
0.936756
0.937756
0.236363
0.236369
0.236376
0.236386
0.236393
0.236398
0.236403
0.23641
0.23642
0.236424
0.236424
0.236426
0.236428
0.236427
0.23642
0.236413
0.236411
0.23641
0.236415
0.236422
0.236429
0.236448
0.236474
0.236474
0.236467
0.236447
0.236416
0.236409
0.236404
0.236381
0.236345
0.23634
0.236342
0.23636
0.236408
0.236489
0.236576
0.236641
0.236687
0.236687
0.236656
0.23664
0.236628
0.236594
0.236557
0.236529
0.236499
0.236461
0.236407
0.236369
0.236384
0.23645
0.236562
0.236732
0.236884
0.236967
0.237189
0.237505
0.237541
0.237471
0.237313
0.237225
0.237052
0.236707
0.236446
0.236178
0.235979
0.235993
0.263287
0.354923
0.537227
0.736294
0.855212
0.913355
0.925857
0.929264
0.913099
0.902339
0.910721
0.92243
0.92705
0.921302
0.91058
0.910595
0.915451
0.922657
0.923555
0.922418
0.922076
0.924007
0.928828
0.931226
0.93224
0.932749
0.934239
0.936746
0.938519
0.938267
0.938983
0.939698
0.236524
0.236521
0.23652
0.236519
0.236515
0.236514
0.236512
0.236509
0.236503
0.23649
0.236472
0.236461
0.236455
0.23645
0.236441
0.236428
0.236423
0.23642
0.23641
0.236401
0.236399
0.236399
0.2364
0.236403
0.236402
0.236392
0.236364
0.236353
0.236353
0.236348
0.236333
0.236328
0.23633
0.236351
0.236429
0.236575
0.236691
0.23676
0.236774
0.236739
0.236693
0.236688
0.236695
0.236688
0.236634
0.236554
0.236518
0.236474
0.2364
0.236376
0.236456
0.236628
0.236799
0.236998
0.237178
0.237255
0.237386
0.237529
0.237512
0.237396
0.237195
0.236946
0.236524
0.236259
0.236129
0.235933
0.235941
0.23613
0.236581
0.236962
0.239086
0.289377
0.449968
0.64832
0.773107
0.871277
0.886048
0.907255
0.934391
0.934209
0.930304
0.90979
0.907444
0.913028
0.925524
0.927503
0.924324
0.922381
0.923522
0.927804
0.933362
0.933322
0.933986
0.93528
0.937036
0.93942
0.940152
0.940608
0.941931
0.942497
0.236577
0.236567
0.236557
0.236539
0.23653
0.236528
0.236522
0.236512
0.236497
0.23646
0.236428
0.236427
0.23643
0.236434
0.236431
0.236419
0.236412
0.236408
0.236399
0.23638
0.236373
0.236372
0.236374
0.236382
0.236385
0.23638
0.236361
0.23635
0.236346
0.23634
0.236339
0.236341
0.236348
0.23639
0.236516
0.236671
0.23677
0.236817
0.236808
0.23675
0.236718
0.236719
0.236744
0.236746
0.236688
0.236579
0.236525
0.236458
0.236384
0.236426
0.236703
0.236973
0.23713
0.237326
0.237437
0.237413
0.237434
0.237411
0.237245
0.236966
0.236733
0.236473
0.236052
0.235846
0.235777
0.235814
0.236025
0.236574
0.237244
0.237546
0.237422
0.23692
0.236043
0.258781
0.368959
0.56991
0.763599
0.885742
0.921283
0.926167
0.917223
0.90037
0.910025
0.927061
0.931573
0.926118
0.922891
0.923437
0.927557
0.933235
0.935417
0.935037
0.936117
0.938495
0.940436
0.941964
0.942274
0.943418
0.945418
0.945673
0.236615
0.236595
0.23657
0.236557
0.236554
0.236551
0.236542
0.236521
0.236467
0.236437
0.236438
0.236446
0.236458
0.236463
0.236466
0.236466
0.236461
0.23646
0.236458
0.23645
0.236448
0.236451
0.236455
0.236443
0.23642
0.23642
0.236429
0.236426
0.236427
0.236441
0.236446
0.236442
0.236435
0.236458
0.236563
0.236703
0.236784
0.23678
0.236741
0.236691
0.236692
0.236709
0.236763
0.236797
0.236748
0.236673
0.236588
0.236457
0.236455
0.236634
0.237067
0.237275
0.237413
0.237536
0.237516
0.237427
0.237361
0.237137
0.236748
0.236436
0.236258
0.236098
0.235831
0.235658
0.235669
0.235796
0.236392
0.237238
0.237701
0.237591
0.237089
0.236447
0.235964
0.236018
0.236732
0.242309
0.329382
0.516311
0.705301
0.834108
0.886725
0.901229
0.935276
0.944122
0.932714
0.921303
0.923566
0.929381
0.935403
0.938396
0.937146
0.937473
0.939871
0.943108
0.944785
0.94519
0.945763
0.947655
0.950059
0.94993
0.236484
0.236453
0.236422
0.236412
0.236412
0.236417
0.236421
0.236413
0.236394
0.236392
0.236402
0.23643
0.236473
0.236537
0.236602
0.236642
0.236675
0.236711
0.236733
0.236734
0.236731
0.236722
0.236689
0.23662
0.23658
0.23658
0.236596
0.236601
0.23658
0.236568
0.236569
0.236552
0.236497
0.236459
0.236472
0.236558
0.236601
0.236598
0.23657
0.236549
0.236559
0.23661
0.236728
0.23683
0.23682
0.236774
0.236658
0.236626
0.236702
0.237002
0.237241
0.237384
0.237551
0.237563
0.237506
0.237317
0.237061
0.2366
0.236137
0.23597
0.235941
0.235922
0.235784
0.23566
0.23576
0.236221
0.237182
0.237896
0.237866
0.23728
0.236576
0.236309
0.235983
0.236982
0.239363
0.240419
0.239895
0.239746
0.29748
0.461914
0.701948
0.861245
0.93325
0.932503
0.932995
0.925888
0.938601
0.940446
0.943522
0.943115
0.943498
0.945826
0.949035
0.95061
0.951522
0.952361
0.95368
0.955775
0.957606
0.957297
0.23647
0.236448
0.236431
0.23641
0.236405
0.23641
0.236431
0.236442
0.236447
0.236472
0.236547
0.23664
0.236731
0.236841
0.236922
0.236951
0.236973
0.236987
0.236985
0.236976
0.23696
0.236919
0.2368
0.23668
0.236664
0.236676
0.236715
0.236724
0.236691
0.236656
0.236656
0.236632
0.23651
0.2363
0.236238
0.236259
0.236336
0.23641
0.23645
0.236455
0.236442
0.236474
0.236614
0.236806
0.236873
0.236852
0.236798
0.236809
0.236963
0.237192
0.237247
0.237329
0.237409
0.237392
0.237205
0.236879
0.236566
0.23603
0.235698
0.235697
0.235784
0.235894
0.235892
0.236036
0.236487
0.237346
0.238166
0.238208
0.237923
0.236815
0.236431
0.236254
0.238286
0.240289
0.241403
0.243045
0.243682
0.244627
0.246698
0.248195
0.292058
0.464212
0.704676
0.826859
0.927193
0.934046
0.964915
0.953871
0.955484
0.953092
0.956611
0.960034
0.962217
0.962196
0.96305
0.964524
0.966411
0.968769
0.970006
0.969724
0.236662
0.236672
0.236671
0.236657
0.236655
0.236684
0.236734
0.236749
0.236751
0.236768
0.236798
0.236835
0.236894
0.236988
0.237062
0.23707
0.237073
0.237074
0.237061
0.237034
0.237002
0.236939
0.236794
0.236678
0.236665
0.236679
0.23673
0.236744
0.236714
0.236639
0.236571
0.236499
0.236379
0.23618
0.236055
0.236058
0.236114
0.236226
0.236353
0.236396
0.236388
0.236363
0.236433
0.236753
0.237019
0.237053
0.237016
0.236972
0.237061
0.237149
0.237099
0.236925
0.236818
0.236746
0.236594
0.236449
0.236213
0.23577
0.23561
0.235629
0.235753
0.236057
0.236616
0.237249
0.237996
0.238703
0.238785
0.238642
0.237813
0.236678
0.236864
0.238973
0.242828
0.245054
0.24442
0.244667
0.247267
0.251046
0.254398
0.258384
0.258973
0.259416
0.296197
0.4615
0.713061
0.88485
0.962807
0.960961
0.981673
0.975348
0.982629
0.979694
0.980361
0.98172
0.983566
0.98512
0.986249
0.987788
0.988167
0.988511
0.237044
0.237023
0.236985
0.236949
0.236893
0.236835
0.236803
0.236795
0.236801
0.23683
0.236837
0.236831
0.236852
0.236937
0.236966
0.236967
0.236958
0.236929
0.236902
0.236882
0.236833
0.236699
0.236551
0.236497
0.236497
0.236517
0.236526
0.236516
0.236436
0.236208
0.236114
0.236154
0.236168
0.236071
0.235972
0.235977
0.236025
0.236135
0.236367
0.236547
0.236568
0.236614
0.236821
0.23727
0.237435
0.237432
0.237272
0.237068
0.23704
0.23704
0.236893
0.236604
0.236484
0.236423
0.236335
0.23627
0.236057
0.235733
0.235676
0.235747
0.236095
0.237077
0.238293
0.239243
0.239758
0.239624
0.239584
0.239094
0.238452
0.239569
0.242853
0.245278
0.246939
0.249646
0.250281
0.250337
0.252202
0.256741
0.260352
0.265038
0.269294
0.269673
0.270565
0.273099
0.309179
0.479796
0.7278
0.889062
0.984372
0.98843
1.01575
1.00609
1.00722
1.00401
1.00619
1.00853
1.01083
1.01138
1.01056
1.01173
0.23694
0.236916
0.23688
0.236826
0.236768
0.236709
0.236629
0.236511
0.236383
0.236289
0.236201
0.236127
0.23614
0.236166
0.236174
0.236196
0.236204
0.236185
0.236121
0.236036
0.235922
0.235765
0.235647
0.235596
0.235602
0.235655
0.235747
0.235781
0.235755
0.235722
0.235738
0.235869
0.23595
0.236002
0.236087
0.236166
0.236242
0.236502
0.237094
0.237248
0.237298
0.237425
0.237584
0.237661
0.237675
0.237668
0.237462
0.237096
0.237044
0.237052
0.236856
0.236506
0.236434
0.236428
0.236382
0.236289
0.236114
0.236178
0.236574
0.237449
0.238673
0.239923
0.240777
0.241561
0.241469
0.240709
0.240665
0.241558
0.243998
0.24723
0.251221
0.252217
0.252112
0.253376
0.256681
0.260137
0.263147
0.267258
0.269514
0.271101
0.275208
0.278284
0.280432
0.284873
0.287811
0.289122
0.321199
0.493819
0.75117
0.927502
1.01741
1.0171
1.04097
1.0353
1.03792
1.03385
1.03424
1.03506
1.03616
1.03849
0.236297
0.236286
0.236271
0.236269
0.236284
0.23629
0.236265
0.236174
0.236033
0.235941
0.235874
0.235742
0.235665
0.235616
0.235578
0.235611
0.235688
0.235691
0.235651
0.235571
0.235482
0.235408
0.235353
0.235346
0.235393
0.2355
0.235617
0.235737
0.23586
0.236014
0.236225
0.236499
0.236745
0.237012
0.237214
0.237331
0.237492
0.237856
0.238206
0.238222
0.238187
0.238094
0.23793
0.237707
0.2376
0.237597
0.23749
0.237321
0.237341
0.237311
0.237024
0.236743
0.23669
0.236716
0.236739
0.236901
0.237671
0.238896
0.240456
0.241959
0.243376
0.243794
0.243828
0.244324
0.244786
0.244975
0.245752
0.247865
0.251698
0.255025
0.257389
0.259805
0.26078
0.26186
0.264836
0.269048
0.272302
0.276084
0.280135
0.28024
0.280812
0.285869
0.29074
0.294336
0.297611
0.299382
0.301276
0.303524
0.338541
0.516396
0.779969
0.949308
1.04398
1.04601
1.06925
1.06434
1.06202
1.05726
1.06045
1.06368
0.236282
0.236282
0.236274
0.236268
0.23628
0.236341
0.23636
0.236326
0.236132
0.236002
0.235965
0.235858
0.235734
0.235694
0.23565
0.235642
0.235721
0.235796
0.235776
0.235727
0.235775
0.236057
0.2362
0.236247
0.236362
0.236647
0.236912
0.237059
0.237223
0.237435
0.237659
0.237928
0.238244
0.238552
0.23875
0.238904
0.239062
0.239065
0.238999
0.238834
0.23863
0.238331
0.237872
0.237459
0.237283
0.237291
0.237424
0.237744
0.237802
0.23765
0.237563
0.237684
0.237875
0.23832
0.239362
0.241265
0.243294
0.245291
0.246729
0.247457
0.248218
0.248327
0.248462
0.249356
0.2515
0.254527
0.257122
0.258918
0.261482
0.263761
0.265199
0.267478
0.270451
0.273076
0.275833
0.279463
0.281705
0.283569
0.288293
0.291768
0.292593
0.294882
0.299037
0.301746
0.305179
0.307923
0.310836
0.316194
0.317989
0.319109
0.355564
0.543815
0.812377
0.986709
1.06864
1.07575
1.08928
1.08543
1.08928
1.08538
0.236593
0.236668
0.236745
0.236813
0.236873
0.236956
0.237057
0.237193
0.237385
0.237474
0.237475
0.237428
0.237247
0.237189
0.237203
0.237201
0.237237
0.237409
0.237534
0.237642
0.237942
0.238547
0.238722
0.238712
0.238724
0.238857
0.238931
0.238901
0.238926
0.239084
0.239148
0.239219
0.239374
0.239566
0.239726
0.239739
0.239659
0.239452
0.239124
0.238721
0.238426
0.23816
0.237824
0.23759
0.237535
0.237626
0.237982
0.238683
0.239622
0.240793
0.242389
0.244123
0.245867
0.247429
0.249017
0.250556
0.251666
0.253314
0.254082
0.254054
0.254164
0.254802
0.256191
0.258402
0.261851
0.2657
0.269129
0.271198
0.272211
0.273929
0.27568
0.277669
0.280434
0.283332
0.286482
0.291145
0.294292
0.294319
0.295073
0.298722
0.302979
0.305661
0.309459
0.311484
0.313491
0.317464
0.320818
0.3252
0.328048
0.329618
0.33132
0.333658
0.379437
0.583197
0.846728
1.0398
1.08438
1.10224
1.11993
1.10757
0.23956
0.239665
0.239736
0.23981
0.239872
0.239905
0.239938
0.240064
0.240309
0.240357
0.240345
0.240286
0.240105
0.23999
0.239955
0.239913
0.239903
0.239942
0.24
0.240071
0.240153
0.240189
0.240236
0.240248
0.240221
0.24014
0.240006
0.239963
0.240002
0.240069
0.24005
0.239909
0.239922
0.240088
0.240093
0.240036
0.239916
0.239634
0.239663
0.239824
0.239955
0.240321
0.241143
0.242482
0.243943
0.245434
0.247253
0.249387
0.251597
0.253689
0.25516
0.256323
0.257707
0.25865
0.259037
0.259401
0.259926
0.26068
0.261709
0.262643
0.263743
0.26579
0.268915
0.272451
0.275733
0.278378
0.280767
0.282583
0.283419
0.284367
0.286338
0.289269
0.29286
0.296062
0.297938
0.300437
0.304174
0.305149
0.305386
0.307912
0.313647
0.317237
0.320322
0.321932
0.323377
0.327052
0.330396
0.333302
0.337161
0.339274
0.341495
0.345386
0.349257
0.351049
0.409564
0.630212
0.892594
1.07705
1.11623
1.11944
0.241816
0.241764
0.241741
0.2417
0.241571
0.241534
0.241538
0.24149
0.241279
0.241204
0.241208
0.241254
0.241379
0.241443
0.241383
0.241198
0.241192
0.241178
0.241115
0.241165
0.241086
0.240772
0.240809
0.240972
0.241017
0.241198
0.241489
0.241783
0.242167
0.242647
0.243217
0.243888
0.244665
0.245426
0.24624
0.247241
0.248466
0.249789
0.251154
0.252603
0.25424
0.255914
0.257596
0.259214
0.260693
0.262066
0.263163
0.263765
0.264313
0.265324
0.265591
0.265751
0.266314
0.266691
0.266775
0.267342
0.268932
0.27106
0.273701
0.276858
0.280234
0.28328
0.285989
0.288351
0.289324
0.290285
0.291286
0.292652
0.294301
0.296015
0.298369
0.301457
0.305397
0.309336
0.31
0.310152
0.31201
0.315864
0.319444
0.321965
0.325364
0.327636
0.328475
0.330603
0.334845
0.339076
0.342087
0.342936
0.345508
0.34932
0.35339
0.355534
0.357741
0.362247
0.36404
0.365116
0.454429
0.698321
0.955582
1.105
0.24572
0.245912
0.246136
0.246386
0.246661
0.246961
0.247277
0.247593
0.247935
0.248315
0.24875
0.249253
0.24978
0.25035
0.250956
0.251569
0.252203
0.252913
0.253636
0.254279
0.254928
0.255692
0.256563
0.257421
0.258145
0.25883
0.259603
0.260474
0.261274
0.261963
0.26265
0.263338
0.263939
0.264608
0.265369
0.266084
0.266783
0.26745
0.268149
0.268917
0.269684
0.270211
0.27069
0.271101
0.271496
0.272134
0.272398
0.272401
0.272648
0.273726
0.274929
0.275865
0.276992
0.279155
0.282063
0.285007
0.287623
0.290224
0.29273
0.295098
0.29706
0.298015
0.298863
0.299743
0.299745
0.300003
0.301245
0.30383
0.307254
0.310823
0.31392
0.315757
0.317487
0.320322
0.321548
0.322193
0.323496
0.327247
0.332276
0.334554
0.33602
0.337849
0.339889
0.342946
0.346033
0.349325
0.353655
0.354195
0.354739
0.357879
0.363605
0.367963
0.368244
0.370196
0.374387
0.378308
0.379568
0.389486
0.494993
0.862213
0.265056
0.265236
0.265445
0.265667
0.265892
0.266115
0.266356
0.266626
0.266905
0.267175
0.267442
0.267734
0.268063
0.268418
0.268763
0.2691
0.269449
0.269809
0.270166
0.270538
0.270915
0.271312
0.271646
0.271965
0.272286
0.272642
0.273015
0.273428
0.273849
0.274261
0.274666
0.274981
0.275271
0.275839
0.276497
0.276814
0.277193
0.277588
0.278111
0.278926
0.279895
0.280736
0.281396
0.282204
0.283391
0.284771
0.286448
0.288287
0.290236
0.292179
0.294486
0.296917
0.299244
0.301339
0.303173
0.304458
0.305362
0.306197
0.306471
0.306812
0.307496
0.307997
0.30853
0.30969
0.311748
0.314171
0.316954
0.320345
0.323542
0.326426
0.328943
0.329153
0.329044
0.330019
0.332733
0.335925
0.338887
0.341258
0.344477
0.346926
0.347411
0.348946
0.352556
0.356529
0.358231
0.359851
0.363069
0.366372
0.368615
0.37104
0.373664
0.37833
0.38112
0.381962
0.384602
0.388006
0.390806
0.394542
0.395648
0.501711
0.280854
0.281024
0.281235
0.281463
0.281668
0.281875
0.282065
0.282259
0.282513
0.282849
0.283186
0.283523
0.283874
0.284184
0.284473
0.284786
0.285151
0.285507
0.285862
0.286236
0.28663
0.287028
0.287411
0.287794
0.288227
0.288734
0.28931
0.289911
0.290527
0.291187
0.291898
0.292713
0.293612
0.294545
0.295557
0.296714
0.297948
0.299228
0.300545
0.301874
0.303109
0.304321
0.305535
0.306782
0.307945
0.308932
0.309717
0.310504
0.311485
0.312252
0.312773
0.313298
0.313893
0.314546
0.315472
0.315523
0.315692
0.316363
0.316819
0.317371
0.318843
0.32147
0.324566
0.327587
0.330681
0.333789
0.336355
0.337818
0.338047
0.338492
0.340038
0.341279
0.342184
0.343763
0.347034
0.351002
0.35474
0.356362
0.356987
0.358619
0.360738
0.362679
0.365181
0.369173
0.373228
0.373336
0.373985
0.377158
0.381178
0.384804
0.386224
0.387291
0.390459
0.393338
0.395884
0.399586
0.402523
0.404638
0.407498
0.410396
0.301872
0.302084
0.302335
0.302598
0.302855
0.3031
0.303339
0.303591
0.303916
0.304332
0.304736
0.305093
0.30543
0.305754
0.306097
0.306451
0.306823
0.307236
0.30763
0.308061
0.308516
0.309022
0.309565
0.310051
0.310523
0.311052
0.311614
0.312199
0.312716
0.313211
0.313631
0.314079
0.314581
0.314984
0.315297
0.315647
0.31604
0.316529
0.31702
0.317446
0.317888
0.318436
0.318972
0.319521
0.320117
0.320816
0.321244
0.321775
0.322771
0.323144
0.323241
0.323769
0.32477
0.326009
0.327442
0.329265
0.331479
0.334049
0.336942
0.339773
0.342235
0.344302
0.346073
0.347324
0.347905
0.348763
0.350183
0.350723
0.350344
0.350542
0.351914
0.355424
0.359499
0.36237
0.364916
0.366594
0.36793
0.369406
0.369963
0.371363
0.374453
0.378534
0.380817
0.383046
0.385367
0.386735
0.388016
0.39001
0.394006
0.397683
0.400163
0.401096
0.402918
0.406487
0.408956
0.411704
0.414308
0.416421
0.418639
0.422742
0.321413
0.321576
0.321847
0.32193
0.321952
0.322064
0.322193
0.322349
0.322666
0.322973
0.323074
0.32315
0.323294
0.323556
0.323865
0.324072
0.324267
0.324474
0.324825
0.325198
0.325449
0.325715
0.326044
0.326392
0.326753
0.327125
0.327444
0.328042
0.32888
0.329018
0.329136
0.329523
0.330696
0.331488
0.331803
0.332123
0.332665
0.33345
0.334304
0.335026
0.335663
0.336239
0.336905
0.337768
0.338768
0.339986
0.341495
0.343116
0.344666
0.346333
0.348158
0.34988
0.351512
0.352903
0.353914
0.354931
0.35618
0.357033
0.357844
0.358949
0.359627
0.360074
0.360396
0.360346
0.360015
0.360217
0.361667
0.364416
0.367436
0.36995
0.372354
0.374967
0.378127
0.379904
0.380824
0.38126
0.381596
0.382814
0.385766
0.388885
0.391746
0.394889
0.396451
0.396493
0.397567
0.400643
0.403668
0.406438
0.409228
0.410518
0.412004
0.414058
0.416208
0.418939
0.421178
0.4232
0.426017
0.428071
0.429852
0.433955
0.344002
0.344167
0.34436
0.34455
0.34474
0.344934
0.34514
0.345348
0.345549
0.345749
0.345958
0.346192
0.346452
0.346666
0.34691
0.3472
0.347401
0.34778
0.348142
0.348377
0.348636
0.348938
0.349327
0.349782
0.350256
0.350619
0.351058
0.351679
0.352154
0.352589
0.353117
0.35384
0.354604
0.355254
0.355857
0.356487
0.35715
0.357791
0.358463
0.359253
0.360065
0.360812
0.361556
0.362373
0.363153
0.363836
0.364461
0.364934
0.365247
0.36563
0.366145
0.366702
0.367498
0.368124
0.368369
0.368917
0.369767
0.369654
0.36954
0.37014
0.371258
0.37244
0.374076
0.376541
0.379396
0.382075
0.384565
0.387144
0.389813
0.39228
0.393823
0.393767
0.39415
0.39499
0.39545
0.396427
0.398552
0.401429
0.404555
0.407035
0.408579
0.410052
0.410873
0.411551
0.413151
0.415838
0.419338
0.422892
0.423233
0.424224
0.425985
0.428255
0.430702
0.433483
0.436234
0.438161
0.440201
0.442942
0.444711
0.447635
0.367194
0.367316
0.367468
0.367617
0.367764
0.367914
0.368081
0.368275
0.368482
0.36869
0.368911
0.369108
0.369333
0.369584
0.36985
0.37009
0.370357
0.370708
0.371013
0.371285
0.371552
0.371876
0.372289
0.372652
0.372905
0.373317
0.373921
0.374048
0.374146
0.374442
0.375134
0.375315
0.375317
0.37544
0.375826
0.376285
0.376678
0.376991
0.377452
0.37799
0.378514
0.379068
0.379579
0.380237
0.380906
0.381439
0.382112
0.382842
0.383494
0.384258
0.385081
0.385839
0.386625
0.387642
0.38905
0.390759
0.392598
0.394682
0.396847
0.398637
0.400282
0.401928
0.403394
0.404663
0.405976
0.407746
0.408758
0.408527
0.408128
0.408348
0.40904
0.409204
0.409628
0.41099
0.413688
0.416803
0.419477
0.421639
0.423362
0.424757
0.424811
0.425329
0.426923
0.429635
0.432457
0.434805
0.436639
0.437876
0.439555
0.440965
0.442361
0.445006
0.447441
0.448852
0.45049
0.452292
0.453806
0.45566
0.457385
0.460324
0.393548
0.393658
0.393781
0.393908
0.394026
0.39419
0.394391
0.394541
0.394648
0.394819
0.39502
0.395218
0.39544
0.395612