/*--------------------------------*- C++ -*----------------------------------*\
  =========                 |
  \\      /  F ield         | OpenFOAM: The Open Source CFD Toolbox
   \\    /   O peration     | Website:  https://openfoam.org
    \\  /    A nd           | Version:  7
     \\/     M anipulation  |
\*---------------------------------------------------------------------------*/
FoamFile
{
    version     2.0;
    format      ascii;
    class       volVectorField;
    location    "10";
    object      U;
}
// * * * * * * * * * * * * * * * * * * * * * * * * * * * * * * * * * * * * * //

dimensions      [0 1 -1 0 0 0 0];

internalField   nonuniform List<vector> 
90000
(
(5.00421 -1.29546 0)
(4.97716 -1.21533 0)
(4.95458 -1.11218 0)
(4.93649 -0.912542 0)
(4.92711 -0.901978 0)
(4.92194 -0.856652 0)
(4.91058 -0.759855 0)
(4.90576 -0.660219 0)
(4.91058 -0.648055 0)
(4.90708 -0.57932 0)
(4.90802 -0.540075 0)
(4.9059 -0.470599 0)
(4.91094 -0.452122 0)
(4.90893 -0.385925 0)
(4.91329 -0.369996 0)
(4.91113 -0.306016 0)
(4.9163 -0.297488 0)
(4.91332 -0.234885 0)
(4.91821 -0.228321 0)
(4.91482 -0.168713 0)
(4.91963 -0.163057 0)
(4.9162 -0.105968 0)
(4.9205 -0.100889 0)
(4.91715 -0.0468815 0)
(4.92234 -0.0469252 0)
(4.91946 0.00983402 0)
(4.9262 0.00123242 0)
(4.92457 0.0526051 0)
(4.93277 0.048474 0)
(4.9354 0.0839606 0)
(4.93998 0.0846655 0)
(4.93302 0.099138 0)
(4.93359 0.0955328 0)
(4.92856 0.106937 0)
(4.92837 0.106146 0)
(4.92741 0.106639 0)
(4.928 0.098758 0)
(4.92775 0.0987265 0)
(4.93042 0.0904034 0)
(4.92885 0.0881051 0)
(4.92945 0.0757934 0)
(4.92901 0.0754971 0)
(4.92847 0.0670588 0)
(4.92674 0.0664016 0)
(4.92249 0.0645614 0)
(4.91799 0.0633973 0)
(4.91182 0.0652378 0)
(4.90582 0.0726492 0)
(4.90214 0.0808107 0)
(4.90318 0.0901632 0)
(4.90427 0.090338 0)
(4.9044 0.0846469 0)
(4.90172 0.0826329 0)
(4.90052 0.076002 0)
(4.90163 0.072875 0)
(4.90056 0.0620667 0)
(4.89959 0.0588644 0)
(4.89996 0.0513161 0)
(4.90132 0.0508287 0)
(4.90161 0.0564926 0)
(4.90258 0.0654822 0)
(4.90564 0.0831541 0)
(4.90672 0.0870895 0)
(4.9066 0.102513 0)
(4.90943 0.0962647 0)
(4.90919 0.0944278 0)
(4.90898 0.0914238 0)
(4.90868 0.0889035 0)
(4.90763 0.0824114 0)
(4.90746 0.0732695 0)
(4.90712 0.0652923 0)
(4.90648 0.0670984 0)
(4.90858 0.0800604 0)
(4.90939 0.0880384 0)
(4.91443 0.0993314 0)
(4.91466 0.0995705 0)
(4.91463 0.0940424 0)
(4.91489 0.087904 0)
(4.91514 0.0715129 0)
(4.91537 0.0743679 0)
(4.91717 0.0850601 0)
(4.91711 0.0945624 0)
(4.92212 0.103783 0)
(4.92229 0.0997625 0)
(4.92221 0.0939865 0)
(4.92258 0.0840195 0)
(4.92388 0.0895133 0)
(4.92507 0.0948281 0)
(4.92803 0.102544 0)
(4.92855 0.101053 0)
(4.92824 0.0934282 0)
(4.93009 0.092718 0)
(4.93044 0.0948428 0)
(4.93105 0.093378 0)
(4.93156 0.0910179 0)
(4.93168 0.0878873 0)
(4.93125 0.082849 0)
(4.93116 0.0848389 0)
(4.93153 0.0831246 0)
(4.93199 0.077798 0)
(5.03758 -1.41871 0)
(5.03789 -1.41843 0)
(5.03827 -1.41831 0)
(5.03861 -1.41844 0)
(5.03899 -1.41854 0)
(5.03946 -1.41814 0)
(5.03985 -1.4181 0)
(5.0402 -1.41822 0)
(5.0406 -1.41829 0)
(5.04111 -1.41799 0)
(5.0415 -1.4183 0)
(5.04208 -1.41795 0)
(5.04249 -1.41853 0)
(5.04285 -1.41754 0)
(5.04277 -1.41526 0)
(5.04166 -1.40661 0)
(5.04065 -1.39617 0)
(5.03853 -1.37558 0)
(5.03526 -1.35655 0)
(5.03051 -1.32018 0)
(5.02485 -1.29075 0)
(5.01737 -1.23304 0)
(5.0097 -1.19228 0)
(4.99941 -1.10858 0)
(4.99107 -1.06049 0)
(4.9781 -0.949766 0)
(4.97102 -0.898558 0)
(4.95546 -0.764949 0)
(4.9511 -0.714709 0)
(4.934 -0.556483 0)
(4.93519 -0.518237 0)
(4.91452 -0.347243 0)
(4.92371 -0.327501 0)
(4.90343 -0.177557 0)
(4.91433 -0.168159 0)
(4.89637 -0.0486608 0)
(4.90663 -0.0480701 0)
(4.89114 0.0413434 0)
(4.89895 0.0389699 0)
(4.88715 0.100575 0)
(4.89317 0.100804 0)
(4.88522 0.134124 0)
(4.88925 0.144812 0)
(4.88397 0.164346 0)
(4.88654 0.178764 0)
(4.88421 0.190231 0)
(4.88503 0.198197 0)
(4.88255 0.196001 0)
(4.88162 0.180768 0)
(4.87756 0.146724 0)
(4.88284 0.12254 0)
(4.88602 0.0991929 0)
(4.87354 0.0744604 0)
(4.87626 0.0600184 0)
(4.88307 0.0570055 0)
(4.88367 0.0425077 0)
(4.88437 0.0453328 0)
(4.88655 0.0546153 0)
(4.89173 0.0819559 0)
(4.89015 0.101988 0)
(4.88862 0.129926 0)
(4.88853 0.140373 0)
(4.88788 0.144221 0)
(4.88344 0.136685 0)
(4.88428 0.131903 0)
(4.88028 0.113391 0)
(4.8795 0.0962035 0)
(4.88039 0.0864905 0)
(4.87982 0.0729997 0)
(4.88588 0.081615 0)
(4.88915 0.0969658 0)
(4.88893 0.109042 0)
(4.89484 0.120731 0)
(4.89466 0.119444 0)
(4.89458 0.114795 0)
(4.89286 0.0975533 0)
(4.89215 0.0848999 0)
(4.89466 0.0760323 0)
(4.89509 0.0881177 0)
(4.89765 0.093816 0)
(4.90262 0.104441 0)
(4.90321 0.105018 0)
(4.90413 0.100081 0)
(4.9041 0.0978156 0)
(4.90585 0.0849173 0)
(4.90655 0.0941126 0)
(4.90803 0.097279 0)
(4.9121 0.100663 0)
(4.91342 0.0998109 0)
(4.91457 0.0953356 0)
(4.91465 0.0934222 0)
(4.91675 0.0911507 0)
(4.91891 0.0929995 0)
(4.92066 0.0953102 0)
(4.9216 0.0949221 0)
(4.92176 0.0897524 0)
(4.92159 0.0860881 0)
(4.92194 0.0777239 0)
(4.92334 0.0772835 0)
(4.92471 0.0770019 0)
(5.0463 -1.41917 0)
(5.04686 -1.41937 0)
(5.0476 -1.419 0)
(5.04811 -1.41943 0)
(5.04867 -1.41984 0)
(5.04935 -1.41966 0)
(5.05016 -1.41917 0)
(5.05049 -1.42021 0)
(5.05122 -1.41972 0)
(5.05173 -1.42016 0)
(5.05242 -1.41997 0)
(5.05295 -1.42045 0)
(5.05362 -1.42039 0)
(5.05421 -1.42069 0)
(5.05502 -1.42028 0)
(5.05548 -1.42192 0)
(5.05594 -1.42085 0)
(5.0563 -1.42072 0)
(5.05655 -1.42081 0)
(5.05666 -1.42132 0)
(5.05699 -1.42147 0)
(5.05734 -1.42172 0)
(5.05782 -1.42151 0)
(5.058 -1.42202 0)
(5.05837 -1.42189 0)
(5.05872 -1.42216 0)
(5.05925 -1.42191 0)
(5.05953 -1.42237 0)
(5.06 -1.4221 0)
(5.06014 -1.42266 0)
(5.05952 -1.41876 0)
(5.05483 -1.39618 0)
(5.04745 -1.36574 0)
(5.03317 -1.28917 0)
(5.01978 -1.22615 0)
(4.99984 -1.09095 0)
(4.98754 -1.01657 0)
(4.96559 -0.84122 0)
(4.95857 -0.778593 0)
(4.93684 -0.584766 0)
(4.93985 -0.556546 0)
(4.9173 -0.371267 0)
(4.92647 -0.364616 0)
(4.90471 -0.203852 0)
(4.91367 -0.20925 0)
(4.89941 -0.087247 0)
(4.90638 -0.107154 0)
(4.90084 -0.0272773 0)
(4.91272 -0.0462807 0)
(4.89317 0.00401891 0)
(4.8948 0.0172784 0)
(4.88794 0.0407214 0)
(4.88846 0.0454941 0)
(4.88786 0.0489755 0)
(4.88823 0.0588576 0)
(4.88631 0.0666968 0)
(4.88235 0.0757051 0)
(4.87366 0.0788021 0)
(4.87225 0.0973669 0)
(4.87054 0.104137 0)
(4.86602 0.103235 0)
(4.86247 0.0991955 0)
(4.85983 0.0939173 0)
(4.85882 0.0884647 0)
(4.85973 0.0813938 0)
(4.86042 0.0884959 0)
(4.8617 0.0742357 0)
(4.86319 0.0718241 0)
(4.86674 0.0755056 0)
(4.86985 0.0861599 0)
(4.87281 0.0850521 0)
(4.87237 0.0895655 0)
(4.87172 0.0896157 0)
(4.86972 0.0909991 0)
(4.86945 0.0838774 0)
(4.86996 0.0859286 0)
(4.8704 0.075718 0)
(4.87276 0.0784104 0)
(4.87341 0.0824672 0)
(4.88052 0.0972755 0)
(4.8816 0.0996053 0)
(4.88166 0.0948388 0)
(4.8816 0.0903876 0)
(4.88227 0.079403 0)
(4.88389 0.0883949 0)
(4.88575 0.091557 0)
(4.88979 0.0968624 0)
(4.89201 0.100533 0)
(4.89335 0.0983595 0)
(4.89457 0.0939855 0)
(4.89517 0.0881545 0)
(4.89834 0.0890036 0)
(4.90114 0.0910915 0)
(4.9036 0.0922384 0)
(4.90473 0.0842419 0)
(4.9056 0.0822681 0)
(4.90653 0.0741241 0)
(4.90782 0.0776764 0)
(4.9095 0.0813612 0)
(4.91158 0.076838 0)
(5.05612 -1.42039 0)
(5.05655 -1.42052 0)
(5.05699 -1.42033 0)
(5.05734 -1.42039 0)
(5.05754 -1.42112 0)
(5.05794 -1.42101 0)
(5.05842 -1.4208 0)
(5.0586 -1.4214 0)
(5.05894 -1.42144 0)
(5.05932 -1.42138 0)
(5.05954 -1.42176 0)
(5.05986 -1.42169 0)
(5.0601 -1.42185 0)
(5.06039 -1.42187 0)
(5.06062 -1.42212 0)
(5.06087 -1.42245 0)
(5.06114 -1.42219 0)
(5.06152 -1.4219 0)
(5.06158 -1.42216 0)
(5.06155 -1.42272 0)
(5.06164 -1.42319 0)
(5.06176 -1.42325 0)
(5.06183 -1.42309 0)
(5.06166 -1.42329 0)
(5.06156 -1.42331 0)
(5.06162 -1.42325 0)
(5.06173 -1.42325 0)
(5.06177 -1.42327 0)
(5.06186 -1.42331 0)
(5.06199 -1.42339 0)
(5.06208 -1.42362 0)
(5.06198 -1.4238 0)
(5.06181 -1.42385 0)
(5.0616 -1.42408 0)
(5.06133 -1.42417 0)
(5.06094 -1.4244 0)
(5.06056 -1.42439 0)
(5.06022 -1.42437 0)
(5.05973 -1.42416 0)
(5.05905 -1.42405 0)
(5.05759 -1.41825 0)
(5.04957 -1.38035 0)
(5.03902 -1.33262 0)
(5.01883 -1.21167 0)
(5.00367 -1.1243 0)
(4.9766 -0.921179 0)
(4.96782 -0.833063 0)
(4.93558 -0.576503 0)
(4.94742 -0.527462 0)
(4.90875 -0.268918 0)
(4.93246 -0.252966 0)
(4.88792 -0.0353368 0)
(4.9126 -0.0299738 0)
(4.8756 0.105399 0)
(4.87793 0.122628 0)
(4.85834 0.18527 0)
(4.84764 0.214814 0)
(4.84339 0.217594 0)
(4.8461 0.192735 0)
(4.84256 0.143961 0)
(4.85096 0.107735 0)
(4.85368 0.0888533 0)
(4.85575 0.0778728 0)
(4.85661 0.0755763 0)
(4.85624 0.0681544 0)
(4.85663 0.0695712 0)
(4.85695 0.0766252 0)
(4.85971 0.0967591 0)
(4.86155 0.107411 0)
(4.8557 0.125071 0)
(4.8563 0.125114 0)
(4.85278 0.111753 0)
(4.84984 0.0944291 0)
(4.84926 0.0818648 0)
(4.85101 0.0667741 0)
(4.85069 0.0767539 0)
(4.85251 0.086436 0)
(4.85634 0.101432 0)
(4.86056 0.104539 0)
(4.86072 0.104454 0)
(4.85983 0.101289 0)
(4.85769 0.0967471 0)
(4.85883 0.0897897 0)
(4.86074 0.0893462 0)
(4.86254 0.0928724 0)
(4.86743 0.102418 0)
(4.86966 0.104652 0)
(4.87086 0.0960145 0)
(4.87116 0.0931061 0)
(4.87269 0.0902162 0)
(4.87421 0.0953534 0)
(4.87728 0.0991871 0)
(4.87989 0.0980738 0)
(4.88157 0.0931581 0)
(4.88281 0.0904817 0)
(4.88448 0.0799017 0)
(4.88639 0.0833819 0)
(4.88877 0.0832157 0)
(4.89074 0.0800486 0)
(4.89355 0.0736835 0)
(5.06124 -1.42462 0)
(5.06136 -1.42467 0)
(5.06151 -1.42445 0)
(5.06156 -1.42454 0)
(5.06165 -1.42459 0)
(5.06183 -1.42439 0)
(5.06193 -1.42441 0)
(5.06199 -1.42464 0)
(5.06209 -1.42458 0)
(5.06217 -1.42454 0)
(5.06216 -1.42467 0)
(5.06218 -1.42466 0)
(5.06223 -1.42452 0)
(5.06215 -1.42464 0)
(5.0622 -1.4248 0)
(5.06223 -1.4248 0)
(5.06225 -1.42469 0)
(5.06235 -1.42458 0)
(5.06217 -1.42472 0)
(5.06208 -1.42481 0)
(5.06201 -1.42482 0)
(5.06195 -1.4247 0)
(5.06191 -1.42456 0)
(5.06192 -1.42449 0)
(5.06208 -1.42451 0)
(5.06215 -1.42447 0)
(5.06213 -1.42444 0)
(5.062 -1.42438 0)
(5.06167 -1.42424 0)
(5.06125 -1.42409 0)
(5.06086 -1.42396 0)
(5.06049 -1.42376 0)
(5.06016 -1.42364 0)
(5.05978 -1.42347 0)
(5.05921 -1.42333 0)
(5.05879 -1.42333 0)
(5.0585 -1.42315 0)
(5.05824 -1.42292 0)
(5.05784 -1.42267 0)
(5.05717 -1.42219 0)
(5.05698 -1.42208 0)
(5.05641 -1.42196 0)
(5.05497 -1.42157 0)
(5.05412 -1.42127 0)
(5.0534 -1.42084 0)
(5.05246 -1.42038 0)
(5.05157 -1.42015 0)
(5.05048 -1.42009 0)
(5.04821 -1.41255 0)
(5.03559 -1.35248 0)
(5.0228 -1.27915 0)
(4.99718 -1.08962 0)
(4.98912 -0.9864 0)
(4.95918 -0.704291 0)
(4.96328 -0.651879 0)
(4.93192 -0.378507 0)
(4.94817 -0.368885 0)
(4.91616 -0.155651 0)
(4.93765 -0.159797 0)
(4.8882 -0.0405027 0)
(4.88878 -0.0265846 0)
(4.87524 0.018327 0)
(4.8732 0.0209611 0)
(4.87065 0.0361125 0)
(4.86478 0.0522291 0)
(4.85985 0.0647112 0)
(4.84361 0.0859049 0)
(4.83993 0.110332 0)
(4.8371 0.112486 0)
(4.83334 0.105233 0)
(4.8328 0.0995008 0)
(4.83225 0.0828041 0)
(4.83355 0.0782549 0)
(4.83908 0.0677859 0)
(4.83923 0.066037 0)
(4.84355 0.0798555 0)
(4.84356 0.0871961 0)
(4.8487 0.104281 0)
(4.84947 0.108391 0)
(4.8482 0.100804 0)
(4.84699 0.0901437 0)
(4.84518 0.0796614 0)
(4.84701 0.0820525 0)
(4.84855 0.0898529 0)
(4.84962 0.0956939 0)
(4.85319 0.10039 0)
(4.85298 0.100056 0)
(4.8549 0.100192 0)
(4.85406 0.085052 0)
(4.85612 0.0843845 0)
(4.85734 0.0879262 0)
(4.85932 0.0909882 0)
(4.86017 0.0866767 0)
(4.86072 0.0815955 0)
(4.86216 0.0753833 0)
(4.86416 0.0797817 0)
(4.86697 0.074837 0)
(4.86931 0.0764435 0)
(4.87098 0.0762073 0)
(4.87331 0.0705859 0)
(5.06292 -1.42552 0)
(5.0629 -1.42557 0)
(5.0629 -1.42549 0)
(5.06288 -1.4254 0)
(5.0628 -1.42547 0)
(5.06278 -1.4255 0)
(5.06271 -1.42529 0)
(5.06267 -1.42519 0)
(5.06264 -1.42515 0)
(5.06262 -1.42494 0)
(5.06258 -1.42477 0)
(5.06255 -1.42475 0)
(5.06245 -1.42472 0)
(5.06226 -1.42465 0)
(5.0622 -1.42462 0)
(5.06213 -1.42457 0)
(5.06204 -1.42457 0)
(5.0619 -1.42447 0)
(5.06181 -1.4244 0)
(5.06173 -1.42428 0)
(5.06174 -1.42417 0)
(5.06173 -1.42406 0)
(5.06176 -1.42394 0)
(5.06165 -1.42382 0)
(5.06131 -1.42368 0)
(5.06081 -1.42341 0)
(5.06025 -1.42299 0)
(5.06006 -1.4228 0)
(5.05979 -1.42262 0)
(5.05941 -1.42244 0)
(5.0587 -1.42235 0)
(5.05806 -1.42213 0)
(5.05745 -1.42171 0)
(5.05676 -1.42151 0)
(5.05629 -1.42164 0)
(5.05612 -1.42168 0)
(5.05561 -1.42158 0)
(5.0548 -1.42135 0)
(5.05423 -1.42112 0)
(5.0535 -1.4207 0)
(5.05323 -1.42035 0)
(5.05283 -1.41993 0)
(5.05189 -1.4193 0)
(5.05134 -1.41906 0)
(5.05087 -1.41905 0)
(5.04991 -1.41888 0)
(5.04897 -1.41867 0)
(5.04815 -1.41866 0)
(5.04723 -1.41874 0)
(5.04629 -1.41896 0)
(5.04585 -1.41911 0)
(5.04519 -1.41863 0)
(5.04457 -1.41798 0)
(5.04391 -1.41716 0)
(5.04367 -1.41586 0)
(5.03402 -1.35467 0)
(5.02396 -1.2667 0)
(4.98854 -0.99528 0)
(4.98972 -0.841377 0)
(4.93881 -0.442529 0)
(4.96445 -0.413626 0)
(4.90183 -0.101878 0)
(4.93021 -0.0952091 0)
(4.87697 0.0914116 0)
(4.88086 0.116124 0)
(4.8509 0.200963 0)
(4.83466 0.203569 0)
(4.82228 0.173336 0)
(4.83605 0.127873 0)
(4.83358 0.0902063 0)
(4.83879 0.0862426 0)
(4.83116 0.0731905 0)
(4.83192 0.0734772 0)
(4.83406 0.074174 0)
(4.84041 0.0895089 0)
(4.84422 0.106018 0)
(4.84541 0.109261 0)
(4.84447 0.10742 0)
(4.84219 0.100305 0)
(4.8399 0.0889485 0)
(4.84022 0.0812916 0)
(4.84098 0.0800559 0)
(4.84324 0.09235 0)
(4.8431 0.09721 0)
(4.8462 0.107245 0)
(4.84621 0.103474 0)
(4.84532 0.0928088 0)
(4.84496 0.0870193 0)
(4.8453 0.0932552 0)
(4.84733 0.0972106 0)
(4.84787 0.096808 0)
(4.8471 0.0947974 0)
(4.84592 0.0904542 0)
(4.84563 0.0837729 0)
(4.84796 0.07985 0)
(4.85021 0.0781848 0)
(4.8526 0.083137 0)
(4.85309 0.0780019 0)
(4.85348 0.0757217 0)
(4.85472 0.069799 0)
(5.06273 -1.42453 0)
(5.06268 -1.42452 0)
(5.06261 -1.42454 0)
(5.06254 -1.42451 0)
(5.06248 -1.42444 0)
(5.0624 -1.4244 0)
(5.06231 -1.42439 0)
(5.06221 -1.42439 0)
(5.06212 -1.42428 0)
(5.06204 -1.42406 0)
(5.06201 -1.42393 0)
(5.062 -1.42381 0)
(5.0619 -1.42375 0)
(5.06176 -1.42375 0)
(5.06154 -1.4237 0)
(5.06141 -1.42362 0)
(5.06131 -1.42357 0)
(5.06111 -1.42347 0)
(5.06086 -1.42325 0)
(5.06051 -1.423 0)
(5.06021 -1.4227 0)
(5.05981 -1.42236 0)
(5.05924 -1.42203 0)
(5.05868 -1.42168 0)
(5.05803 -1.42134 0)
(5.05723 -1.42104 0)
(5.0562 -1.42066 0)
(5.05596 -1.42057 0)
(5.05536 -1.4204 0)
(5.05451 -1.42016 0)
(5.0539 -1.42003 0)
(5.0533 -1.42005 0)
(5.0525 -1.42009 0)
(5.05195 -1.42015 0)
(5.05172 -1.42013 0)
(5.05156 -1.4201 0)
(5.05099 -1.42001 0)
(5.0505 -1.4199 0)
(5.05016 -1.41985 0)
(5.04967 -1.41962 0)
(5.04928 -1.41912 0)
(5.0491 -1.41868 0)
(5.04869 -1.41821 0)
(5.04819 -1.41787 0)
(5.04777 -1.41757 0)
(5.04715 -1.41735 0)
(5.04649 -1.41726 0)
(5.04603 -1.41728 0)
(5.04541 -1.41778 0)
(5.04503 -1.41831 0)
(5.04466 -1.41828 0)
(5.04402 -1.41769 0)
(5.04341 -1.41703 0)
(5.04277 -1.41644 0)
(5.04269 -1.41545 0)
(5.04302 -1.41466 0)
(5.04236 -1.41508 0)
(5.03977 -1.41815 0)
(5.03988 -1.41892 0)
(5.03908 -1.40967 0)
(5.03432 -1.3656 0)
(5.00867 -1.18562 0)
(4.99818 -1.03518 0)
(4.96412 -0.709675 0)
(4.97458 -0.623778 0)
(4.93342 -0.313483 0)
(4.96923 -0.283144 0)
(4.90869 -0.105496 0)
(4.91525 -0.059928 0)
(4.88467 0.0139791 0)
(4.88202 0.0235136 0)
(4.86443 0.05375 0)
(4.85683 0.0767505 0)
(4.84613 0.0943772 0)
(4.84283 0.120737 0)
(4.84215 0.122215 0)
(4.83831 0.112067 0)
(4.83545 0.0935017 0)
(4.83454 0.0761709 0)
(4.834 0.0674119 0)
(4.83516 0.0721619 0)
(4.83873 0.0861514 0)
(4.83962 0.0975498 0)
(4.84323 0.105748 0)
(4.84265 0.104291 0)
(4.84141 0.0952934 0)
(4.83996 0.0816202 0)
(4.84027 0.0821755 0)
(4.8415 0.0868249 0)
(4.84265 0.0948152 0)
(4.84262 0.0935569 0)
(4.84142 0.0875138 0)
(4.84094 0.0796326 0)
(4.8399 0.0761625 0)
(4.84176 0.0760028 0)
(4.84221 0.0778826 0)
(4.8426 0.0767356 0)
(4.84175 0.0773858 0)
(4.84088 0.0705377 0)
(4.84139 0.065581 0)
(5.06011 -1.42309 0)
(5.05997 -1.42303 0)
(5.05983 -1.42291 0)
(5.05967 -1.42279 0)
(5.05947 -1.42277 0)
(5.05926 -1.42272 0)
(5.05909 -1.42251 0)
(5.05889 -1.42235 0)
(5.05871 -1.42241 0)
(5.05852 -1.42247 0)
(5.05826 -1.42246 0)
(5.05805 -1.42231 0)
(5.05778 -1.42207 0)
(5.05748 -1.42191 0)
(5.0572 -1.42173 0)
(5.05713 -1.42165 0)
(5.05697 -1.42143 0)
(5.05652 -1.42112 0)
(5.05613 -1.42092 0)
(5.0558 -1.42057 0)
(5.05526 -1.42027 0)
(5.05463 -1.42022 0)
(5.05366 -1.42001 0)
(5.05323 -1.41958 0)
(5.05289 -1.41929 0)
(5.05229 -1.41906 0)
(5.05154 -1.41889 0)
(5.05128 -1.41886 0)
(5.05085 -1.41884 0)
(5.05038 -1.41891 0)
(5.0498 -1.41898 0)
(5.04933 -1.41906 0)
(5.0488 -1.4191 0)
(5.0481 -1.41917 0)
(5.04807 -1.41932 0)
(5.04807 -1.41939 0)
(5.04776 -1.41944 0)
(5.04775 -1.41949 0)
(5.04793 -1.41954 0)
(5.04791 -1.41935 0)
(5.0475 -1.41885 0)
(5.04661 -1.4182 0)
(5.04535 -1.41764 0)
(5.04458 -1.41715 0)
(5.04451 -1.4166 0)
(5.04432 -1.41651 0)
(5.04399 -1.41653 0)
(5.04382 -1.41657 0)
(5.0434 -1.41699 0)
(5.04283 -1.4178 0)
(5.04252 -1.41806 0)
(5.04229 -1.41796 0)
(5.04207 -1.41758 0)
(5.04149 -1.41712 0)
(5.04157 -1.41628 0)
(5.04209 -1.41545 0)
(5.04109 -1.4166 0)
(5.0392 -1.41912 0)
(5.03892 -1.41986 0)
(5.04093 -1.41928 0)
(5.04151 -1.41881 0)
(5.04201 -1.4185 0)
(5.04019 -1.41975 0)
(5.03961 -1.42017 0)
(5.03857 -1.41256 0)
(5.02059 -1.28227 0)
(5.0205 -1.11075 0)
(4.97359 -0.647091 0)
(4.98941 -0.552184 0)
(4.91851 -0.143098 0)
(4.95314 -0.119876 0)
(4.89058 0.0983703 0)
(4.87405 0.151494 0)
(4.85529 0.211051 0)
(4.843 0.176776 0)
(4.83481 0.12502 0)
(4.83984 0.105889 0)
(4.83315 0.078356 0)
(4.83355 0.0759922 0)
(4.83446 0.0753054 0)
(4.84102 0.0896124 0)
(4.84174 0.123496 0)
(4.8442 0.115983 0)
(4.84165 0.109316 0)
(4.83769 0.0935537 0)
(4.835 0.0851015 0)
(4.83536 0.0839004 0)
(4.83868 0.0908846 0)
(4.84003 0.0997829 0)
(4.83981 0.0981769 0)
(4.83857 0.089608 0)
(4.83649 0.08273 0)
(4.83861 0.0757329 0)
(4.83665 0.0773219 0)
(4.83681 0.0784763 0)
(4.8365 0.078896 0)
(4.83566 0.078846 0)
(4.8353 0.0727123 0)
(4.83389 0.0697408 0)
(4.83397 0.0650513 0)
(5.05551 -1.42066 0)
(5.05537 -1.42069 0)
(5.05524 -1.42061 0)
(5.05508 -1.42056 0)
(5.0549 -1.42061 0)
(5.05473 -1.42062 0)
(5.05459 -1.42052 0)
(5.0544 -1.42044 0)
(5.05426 -1.42054 0)
(5.05407 -1.42063 0)
(5.05384 -1.42062 0)
(5.05356 -1.42052 0)
(5.0535 -1.42047 0)
(5.05342 -1.42036 0)
(5.05304 -1.42015 0)
(5.05281 -1.42001 0)
(5.05247 -1.41972 0)
(5.05241 -1.41961 0)
(5.05212 -1.41919 0)
(5.05141 -1.41881 0)
(5.05096 -1.41853 0)
(5.0503 -1.41831 0)
(5.04983 -1.41822 0)
(5.04962 -1.41818 0)
(5.0493 -1.41807 0)
(5.04887 -1.41784 0)
(5.0488 -1.41778 0)
(5.0485 -1.4179 0)
(5.0481 -1.41801 0)
(5.0479 -1.41811 0)
(5.04779 -1.41835 0)
(5.04741 -1.41874 0)
(5.0471 -1.41878 0)
(5.04675 -1.41881 0)
(5.04603 -1.41894 0)
(5.04567 -1.41931 0)
(5.04538 -1.41972 0)
(5.0449 -1.41982 0)
(5.04462 -1.4196 0)
(5.04472 -1.41896 0)
(5.0446 -1.41818 0)
(5.04424 -1.41741 0)
(5.0438 -1.41671 0)
(5.0436 -1.41654 0)
(5.0435 -1.41654 0)
(5.0433 -1.41635 0)
(5.04291 -1.41619 0)
(5.04273 -1.41615 0)
(5.04242 -1.41673 0)
(5.0418 -1.4181 0)
(5.04167 -1.41852 0)
(5.04167 -1.41879 0)
(5.04158 -1.41869 0)
(5.0411 -1.41816 0)
(5.04123 -1.41691 0)
(5.04167 -1.41602 0)
(5.04072 -1.41692 0)
(5.03884 -1.41937 0)
(5.03871 -1.42001 0)
(5.04069 -1.41983 0)
(5.04131 -1.41944 0)
(5.042 -1.41946 0)
(5.04056 -1.42107 0)
(5.03996 -1.42148 0)
(5.03997 -1.42147 0)
(5.04058 -1.42138 0)
(5.04151 -1.42118 0)
(5.04372 -1.42621 0)
(5.04213 -1.41488 0)
(5.01838 -1.25338 0)
(5.00921 -1.06819 0)
(4.96817 -0.663825 0)
(4.98591 -0.554903 0)
(4.93063 -0.191842 0)
(4.95928 -0.172528 0)
(4.88452 -0.00710427 0)
(4.88501 0.00704769 0)
(4.85942 0.0447968 0)
(4.85583 0.0708234 0)
(4.84507 0.0920627 0)
(4.84037 0.116212 0)
(4.83617 0.117532 0)
(4.83048 0.101855 0)
(4.82971 0.0887789 0)
(4.8284 0.0706277 0)
(4.82914 0.0747967 0)
(4.83218 0.0872209 0)
(4.83475 0.0985632 0)
(4.83467 0.0981289 0)
(4.83463 0.0890922 0)
(4.83169 0.0755344 0)
(4.83014 0.0743869 0)
(4.83141 0.0751998 0)
(4.83196 0.0766863 0)
(4.83259 0.0797922 0)
(4.83268 0.0786549 0)
(4.83199 0.075023 0)
(4.83193 0.0683132 0)
(4.83159 0.0646376 0)
(4.83099 0.0633545 0)
(5.05021 -1.42071 0)
(5.05011 -1.42071 0)
(5.05001 -1.42073 0)
(5.0499 -1.42073 0)
(5.04976 -1.42074 0)
(5.04974 -1.42076 0)
(5.04964 -1.42085 0)
(5.04945 -1.42087 0)
(5.04932 -1.42086 0)
(5.04917 -1.42082 0)
(5.04889 -1.42082 0)
(5.04881 -1.42086 0)
(5.04864 -1.42071 0)
(5.0484 -1.42053 0)
(5.04833 -1.42044 0)
(5.04822 -1.4202 0)
(5.04817 -1.41998 0)
(5.0481 -1.41978 0)
(5.04792 -1.41957 0)
(5.04768 -1.41905 0)
(5.04769 -1.41878 0)
(5.0474 -1.41872 0)
(5.04717 -1.41875 0)
(5.04698 -1.41869 0)
(5.04697 -1.41832 0)
(5.04698 -1.41821 0)
(5.04651 -1.41844 0)
(5.04612 -1.41844 0)
(5.04581 -1.4183 0)
(5.04555 -1.41816 0)
(5.04526 -1.41824 0)
(5.04454 -1.41827 0)
(5.04408 -1.41831 0)
(5.04373 -1.41844 0)
(5.04329 -1.41867 0)
(5.04284 -1.41896 0)
(5.04213 -1.4194 0)
(5.04146 -1.42005 0)
(5.04259 -1.41915 0)
(5.04313 -1.41849 0)
(5.04314 -1.41792 0)
(5.04283 -1.41752 0)
(5.04261 -1.4171 0)
(5.04255 -1.41705 0)
(5.04236 -1.41701 0)
(5.04209 -1.41678 0)
(5.04199 -1.41635 0)
(5.0422 -1.41615 0)
(5.04204 -1.417 0)
(5.04133 -1.41909 0)
(5.0412 -1.41975 0)
(5.0414 -1.41994 0)
(5.04141 -1.41978 0)
(5.0413 -1.41962 0)
(5.04104 -1.41839 0)
(5.04137 -1.41689 0)
(5.04004 -1.41777 0)
(5.03837 -1.42056 0)
(5.0384 -1.42127 0)
(5.0406 -1.42138 0)
(5.04157 -1.42103 0)
(5.04248 -1.4207 0)
(5.04114 -1.42231 0)
(5.04062 -1.4226 0)
(5.04072 -1.42312 0)
(5.04151 -1.4232 0)
(5.04238 -1.42325 0)
(5.04393 -1.42043 0)
(5.04229 -1.41926 0)
(5.04151 -1.42654 0)
(5.03948 -1.43092 0)
(5.0382 -1.4348 0)
(5.03527 -1.40058 0)
(4.99873 -1.11966 0)
(5.00829 -0.849099 0)
(4.92813 -0.305606 0)
(4.97357 -0.245999 0)
(4.8865 0.0803691 0)
(4.8778 0.132598 0)
(4.85513 0.225368 0)
(4.83138 0.181734 0)
(4.82531 0.118094 0)
(4.82775 0.092417 0)
(4.82558 0.0736113 0)
(4.82706 0.0735492 0)
(4.83136 0.0891982 0)
(4.83154 0.115614 0)
(4.83086 0.111386 0)
(4.82787 0.0924756 0)
(4.83076 0.085124 0)
(4.82681 0.0739163 0)
(4.82688 0.0748112 0)
(4.82799 0.078055 0)
(4.8298 0.079233 0)
(4.83007 0.0792672 0)
(4.82983 0.0752796 0)
(4.82973 0.0701202 0)
(4.82915 0.0680686 0)
(4.82949 0.0639807 0)
(4.82984 0.0621981 0)
(5.0462 -1.42001 0)
(5.04614 -1.42004 0)
(5.0461 -1.4201 0)
(5.04603 -1.42017 0)
(5.04602 -1.42018 0)
(5.04592 -1.42022 0)
(5.04581 -1.42025 0)
(5.04571 -1.4203 0)
(5.04559 -1.42031 0)
(5.04558 -1.42021 0)
(5.04552 -1.42 0)
(5.04544 -1.4199 0)
(5.0454 -1.41996 0)
(5.04534 -1.41999 0)
(5.04545 -1.41964 0)
(5.04546 -1.41915 0)
(5.04528 -1.41911 0)
(5.04505 -1.41901 0)
(5.04522 -1.4184 0)
(5.0454 -1.418 0)
(5.04549 -1.41789 0)
(5.04495 -1.41811 0)
(5.0448 -1.41812 0)
(5.04479 -1.41787 0)
(5.04482 -1.41778 0)
(5.04453 -1.41785 0)
(5.04438 -1.41788 0)
(5.04427 -1.41765 0)
(5.04452 -1.41655 0)
(5.0446 -1.41629 0)
(5.04342 -1.41695 0)
(5.04233 -1.41719 0)
(5.042 -1.41713 0)
(5.04142 -1.4171 0)
(5.0412 -1.4179 0)
(5.04083 -1.419 0)
(5.0405 -1.41971 0)
(5.04081 -1.41972 0)
(5.04144 -1.4195 0)
(5.04159 -1.41939 0)
(5.0416 -1.41927 0)
(5.04189 -1.41835 0)
(5.04206 -1.41754 0)
(5.04195 -1.41739 0)
(5.04156 -1.41756 0)
(5.04113 -1.41719 0)
(5.04121 -1.41634 0)
(5.04177 -1.41601 0)
(5.04154 -1.41758 0)
(5.04077 -1.41991 0)
(5.04086 -1.42036 0)
(5.0415 -1.42035 0)
(5.04162 -1.42033 0)
(5.04144 -1.42033 0)
(5.04117 -1.41955 0)
(5.0417 -1.41792 0)
(5.04012 -1.41988 0)
(5.03927 -1.42196 0)
(5.03889 -1.42316 0)
(5.04108 -1.42309 0)
(5.04221 -1.42231 0)
(5.04227 -1.42347 0)
(5.04246 -1.42387 0)
(5.04249 -1.42579 0)
(5.04239 -1.4269 0)
(5.04231 -1.42579 0)
(5.04135 -1.42641 0)
(5.04062 -1.42457 0)
(5.03991 -1.42905 0)
(5.03906 -1.43103 0)
(5.03761 -1.43394 0)
(5.03772 -1.43201 0)
(5.03694 -1.43429 0)
(5.0364 -1.43829 0)
(5.03561 -1.4419 0)
(5.02849 -1.39505 0)
(5.01956 -1.23335 0)
(4.97898 -0.838241 0)
(4.9711 -0.580752 0)
(4.93224 -0.218829 0)
(4.93556 -0.148979 0)
(4.87261 -0.00234312 0)
(4.86983 0.0288465 0)
(4.8524 0.0640185 0)
(4.84198 0.0821539 0)
(4.83041 0.111692 0)
(4.82258 0.10908 0)
(4.82325 0.0930739 0)
(4.81573 0.0523657 0)
(4.82547 0.0658711 0)
(4.8276 0.070975 0)
(4.83009 0.0759699 0)
(4.82984 0.0808621 0)
(4.83079 0.0802992 0)
(4.83021 0.0759064 0)
(4.8287 0.0709679 0)
(4.828 0.0623091 0)
(4.82723 0.064088 0)
(4.82788 0.0626375 0)
(4.82867 0.0595222 0)
(5.04335 -1.42072 0)
(5.04329 -1.42065 0)
(5.04322 -1.42067 0)
(5.04318 -1.42082 0)
(5.04315 -1.42084 0)
(5.04311 -1.42076 0)
(5.04299 -1.42074 0)
(5.04294 -1.42108 0)
(5.04293 -1.42137 0)
(5.04297 -1.42146 0)
(5.04291 -1.42112 0)
(5.0429 -1.42083 0)
(5.04285 -1.42064 0)
(5.04273 -1.42065 0)
(5.04267 -1.42074 0)
(5.04351 -1.41986 0)
(5.04359 -1.41936 0)
(5.04345 -1.41939 0)
(5.04337 -1.41952 0)
(5.04338 -1.41966 0)
(5.04327 -1.41923 0)
(5.04312 -1.41884 0)
(5.04312 -1.41841 0)
(5.04342 -1.41781 0)
(5.04353 -1.4177 0)
(5.04269 -1.4182 0)
(5.04228 -1.41855 0)
(5.04311 -1.4173 0)
(5.04395 -1.41588 0)
(5.0442 -1.41558 0)
(5.042 -1.41696 0)
(5.04093 -1.41732 0)
(5.04072 -1.41721 0)
(5.04044 -1.41744 0)
(5.04046 -1.41867 0)
(5.04047 -1.41997 0)
(5.04051 -1.42084 0)
(5.04075 -1.42093 0)
(5.0409 -1.42088 0)
(5.04088 -1.42094 0)
(5.0409 -1.42072 0)
(5.04153 -1.41965 0)
(5.04184 -1.41882 0)
(5.04166 -1.41886 0)
(5.04128 -1.41936 0)
(5.04048 -1.41853 0)
(5.04046 -1.41744 0)
(5.04107 -1.41694 0)
(5.04113 -1.41835 0)
(5.04034 -1.42128 0)
(5.04054 -1.4218 0)
(5.04165 -1.4214 0)
(5.04185 -1.42107 0)
(5.04153 -1.42135 0)
(5.04124 -1.42153 0)
(5.04141 -1.42078 0)
(5.0406 -1.42427 0)
(5.04076 -1.42587 0)
(5.04122 -1.427 0)
(5.04113 -1.42889 0)
(5.04053 -1.43046 0)
(5.04029 -1.42957 0)
(5.04055 -1.42798 0)
(5.04022 -1.43092 0)
(5.04055 -1.42901 0)
(5.03965 -1.43175 0)
(5.03922 -1.431 0)
(5.03851 -1.4327 0)
(5.03812 -1.43421 0)
(5.03725 -1.43838 0)
(5.03663 -1.43894 0)
(5.03622 -1.43964 0)
(5.03601 -1.44069 0)
(5.03564 -1.44182 0)
(5.0356 -1.44301 0)
(5.037 -1.44386 0)
(5.03775 -1.44413 0)
(5.04079 -1.44182 0)
(5.03986 -1.41957 0)
(5.00817 -1.169 0)
(4.98301 -0.72403 0)
(4.93299 -0.319358 0)
(4.91438 -0.0869271 0)
(4.89226 0.0841554 0)
(4.86312 0.203182 0)
(4.83695 0.178917 0)
(4.84523 0.121353 0)
(4.83625 0.0762894 0)
(4.84091 0.0711964 0)
(4.84119 0.0728298 0)
(4.83991 0.0784025 0)
(4.83922 0.08451 0)
(4.83703 0.0840307 0)
(4.83458 0.078219 0)
(4.83326 0.0718036 0)
(4.83168 0.0639867 0)
(4.83157 0.0636574 0)
(4.83128 0.0653164 0)
(4.83055 0.0641424 0)
(4.82957 0.0585199 0)
(5.04173 -1.421 0)
(5.04173 -1.42096 0)
(5.04171 -1.42102 0)
(5.04166 -1.42113 0)
(5.04169 -1.42107 0)
(5.04175 -1.42096 0)
(5.04178 -1.42094 0)
(5.0418 -1.42097 0)
(5.04173 -1.42108 0)
(5.04162 -1.42123 0)
(5.04169 -1.42102 0)
(5.04184 -1.42068 0)
(5.04189 -1.42158 0)
(5.04192 -1.42208 0)
(5.04291 -1.42006 0)
(5.04325 -1.41868 0)
(5.04335 -1.41843 0)
(5.04303 -1.41846 0)
(5.04247 -1.41858 0)
(5.04218 -1.41861 0)
(5.04205 -1.41853 0)
(5.04199 -1.41824 0)
(5.042 -1.41782 0)
(5.04234 -1.41732 0)
(5.04271 -1.41736 0)
(5.04172 -1.41847 0)
(5.04136 -1.41867 0)
(5.04216 -1.41748 0)
(5.0428 -1.41627 0)
(5.04321 -1.41592 0)
(5.04136 -1.41731 0)
(5.04026 -1.41761 0)
(5.04015 -1.41749 0)
(5.04005 -1.41774 0)
(5.04025 -1.419 0)
(5.0405 -1.42014 0)
(5.0407 -1.42093 0)
(5.04072 -1.42192 0)
(5.04064 -1.42242 0)
(5.04057 -1.42256 0)
(5.04062 -1.42257 0)
(5.04126 -1.42158 0)
(5.04223 -1.4193 0)
(5.04216 -1.4179 0)
(5.04189 -1.41782 0)
(5.04109 -1.41807 0)
(5.04049 -1.41808 0)
(5.04046 -1.41822 0)
(5.04066 -1.42054 0)
(5.04125 -1.42461 0)
(5.04165 -1.42507 0)
(5.0425 -1.42333 0)
(5.04242 -1.42263 0)
(5.04194 -1.42537 0)
(5.04243 -1.43004 0)
(5.04136 -1.43327 0)
(5.04122 -1.4345 0)
(5.04198 -1.43412 0)
(5.04179 -1.4352 0)
(5.04136 -1.43354 0)
(5.03954 -1.43443 0)
(5.03826 -1.43311 0)
(5.03779 -1.43412 0)
(5.03813 -1.43518 0)
(5.03805 -1.43642 0)
(5.03771 -1.43666 0)
(5.03723 -1.43763 0)
(5.03697 -1.43814 0)
(5.03689 -1.43918 0)
(5.03649 -1.44086 0)
(5.03602 -1.44167 0)
(5.03581 -1.44154 0)
(5.03611 -1.44162 0)
(5.03553 -1.44339 0)
(5.03671 -1.44465 0)
(5.03812 -1.44337 0)
(5.03835 -1.44179 0)
(5.04189 -1.43842 0)
(5.04326 -1.43522 0)
(5.04312 -1.43263 0)
(5.04082 -1.43803 0)
(5.0298 -1.33724 0)
(5.00657 -1.08388 0)
(4.95543 -0.591141 0)
(5.001 -0.410195 0)
(4.90865 -0.0895695 0)
(4.93653 -0.053137 0)
(4.87284 0.0283838 0)
(4.87595 0.0725329 0)
(4.86139 0.0955037 0)
(4.85431 0.0956109 0)
(4.8473 0.0858813 0)
(4.84228 0.0727928 0)
(4.84119 0.0601229 0)
(4.84057 0.0591199 0)
(4.84086 0.062623 0)
(4.84005 0.0638045 0)
(4.83956 0.0622162 0)
(4.83818 0.0579377 0)
(4.836 0.0517925 0)
(5.03978 -1.42048 0)
(5.03984 -1.42053 0)
(5.03989 -1.42062 0)
(5.0399 -1.4207 0)
(5.03995 -1.42074 0)
(5.04015 -1.42071 0)
(5.04038 -1.42051 0)
(5.04079 -1.4203 0)
(5.04067 -1.42101 0)
(5.04035 -1.42183 0)
(5.04016 -1.42219 0)
(5.04065 -1.42173 0)
(5.04207 -1.42025 0)
(5.04193 -1.41964 0)
(5.04188 -1.41882 0)
(5.04214 -1.41818 0)
(5.04222 -1.41804 0)
(5.04181 -1.41834 0)
(5.04126 -1.41848 0)
(5.04097 -1.41851 0)
(5.04096 -1.41854 0)
(5.04098 -1.41856 0)
(5.04124 -1.41828 0)
(5.04149 -1.41791 0)
(5.04176 -1.41788 0)
(5.04123 -1.4188 0)
(5.041 -1.41896 0)
(5.04113 -1.41842 0)
(5.04167 -1.41758 0)
(5.04215 -1.41738 0)
(5.04092 -1.41812 0)
(5.04018 -1.41811 0)
(5.04002 -1.41804 0)
(5.04039 -1.4192 0)
(5.04094 -1.42082 0)
(5.04123 -1.42127 0)
(5.0412 -1.42149 0)
(5.0411 -1.42254 0)
(5.04091 -1.42366 0)
(5.04064 -1.42419 0)
(5.04055 -1.4248 0)
(5.04136 -1.4256 0)
(5.04314 -1.42527 0)
(5.04347 -1.42374 0)
(5.0433 -1.42335 0)
(5.04239 -1.42387 0)
(5.04032 -1.42624 0)
(5.03972 -1.42891 0)
(5.04008 -1.43229 0)
(5.04027 -1.43365 0)
(5.04045 -1.43409 0)
(5.04072 -1.43267 0)
(5.04029 -1.42969 0)
(5.03944 -1.4312 0)
(5.03877 -1.43519 0)
(5.03894 -1.4378 0)
(5.03937 -1.44017 0)
(5.03998 -1.44019 0)
(5.04025 -1.43818 0)
(5.03925 -1.4372 0)
(5.03818 -1.43628 0)
(5.03708 -1.43651 0)
(5.0367 -1.4387 0)
(5.03695 -1.44126 0)
(5.0369 -1.44145 0)
(5.03654 -1.44126 0)
(5.03592 -1.44083 0)
(5.03612 -1.44059 0)
(5.03633 -1.44114 0)
(5.0364 -1.44152 0)
(5.03557 -1.44361 0)
(5.03498 -1.44534 0)
(5.03696 -1.44418 0)
(5.0381 -1.44468 0)
(5.04051 -1.44381 0)
(5.04129 -1.43961 0)
(5.04283 -1.42348 0)
(5.04354 -1.41541 0)
(5.04476 -1.40866 0)
(5.04272 -1.41601 0)
(5.04408 -1.41557 0)
(5.04464 -1.4059 0)
(5.04597 -1.39474 0)
(5.04906 -1.38887 0)
(5.04731 -1.24654 0)
(4.97183 -0.63652 0)
(4.99806 -0.461363 0)
(4.91333 -0.00866871 0)
(4.89394 0.0540127 0)