/*--------------------------------*- C++ -*----------------------------------*\
  =========                 |
  \\      /  F ield         | OpenFOAM: The Open Source CFD Toolbox
   \\    /   O peration     | Website:  https://openfoam.org
    \\  /    A nd           | Version:  7
     \\/     M anipulation  |
\*---------------------------------------------------------------------------*/
FoamFile
{
    version     2.0;
    format      ascii;
    class       volScalarField;
    location    "7.5";
    object      T;
}
// * * * * * * * * * * * * * * * * * * * * * * * * * * * * * * * * * * * * * //

dimensions      [0 0 0 1 0 0 0];

internalField   nonuniform List<scalar> 
90000
(
0.800576
0.825079
0.848464
0.869463
0.887895
0.904284
0.918967
0.932528
0.944841
0.956205
0.966702
0.976207
0.984983
0.992836
1.00029
1.00675
1.01293
1.01795
1.02287
1.02659
1.03037
1.0331
1.03565
1.03748
1.03912
1.03991
1.04114
1.0413
1.04153
1.04151
1.04134
1.04081
1.03991
1.03856
1.03677
1.03464
1.03232
1.03157
1.03202
1.03284
1.03385
1.03487
1.03581
1.0366
1.03716
1.03752
1.03736
1.03671
1.03549
1.03423
1.03341
1.03288
1.03295
1.0334
1.03439
1.03529
1.03589
1.0356
1.03495
1.03371
1.03287
1.03253
1.03263
1.03322
1.03395
1.03395
1.03368
1.03293
1.03237
1.03221
1.03225
1.03247
1.03241
1.03206
1.03163
1.03128
1.03138
1.03148
1.03137
1.03115
1.03099
1.03104
1.03101
1.03091
1.03074
1.03056
1.03053
1.03046
1.03031
1.03004
1.02987
1.02972
1.02969
1.02974
1.02978
1.02975
1.02966
1.02952
1.02933
1.02902
0.778501
0.778545
0.778718
0.779146
0.779924
0.781248
0.783194
0.786136
0.790046
0.795428
0.802017
0.81051
0.82019
0.831861
0.844372
0.858591
0.873016
0.888575
0.903662
0.919329
0.933887
0.947976
0.961057
0.972825
0.983917
0.993333
1.00196
1.00875
1.01527
1.01937
1.02343
1.02565
1.02797
1.02905
1.02996
1.03046
1.03239
1.03451
1.03642
1.03801
1.03915
1.03983
1.04002
1.0398
1.03948
1.03881
1.03712
1.03529
1.03395
1.03322
1.0333
1.03366
1.03467
1.03584
1.0372
1.03699
1.03639
1.03519
1.03367
1.03249
1.03252
1.03288
1.03385
1.035
1.03485
1.03434
1.03323
1.03253
1.0323
1.0325
1.03307
1.033
1.03257
1.0318
1.03143
1.03146
1.03165
1.03165
1.03147
1.03124
1.03117
1.03124
1.0312
1.03102
1.03083
1.03074
1.03071
1.03062
1.03037
1.03014
1.03
1.02991
1.0299
1.02995
1.02997
1.02991
1.02981
1.02964
1.02941
1.02912
0.77757
0.777527
0.777478
0.777426
0.777367
0.777302
0.777233
0.777163
0.777092
0.777036
0.776983
0.776996
0.777074
0.777276
0.777649
0.778324
0.77938
0.78113
0.783661
0.787604
0.792873
0.800505
0.809796
0.82218
0.83591
0.852654
0.869712
0.888809
0.907207
0.92604
0.943644
0.960239
0.975839
0.989097
1.00215
1.01223
1.02113
1.02558
1.02891
1.03021
1.03168
1.03254
1.03339
1.03336
1.0327
1.03074
1.02895
1.0293
1.03019
1.03124
1.03267
1.03402
1.03519
1.03509
1.03483
1.03359
1.03171
1.03073
1.03006
1.0303
1.03161
1.03328
1.03383
1.03363
1.03289
1.03181
1.03094
1.03097
1.03155
1.03241
1.03239
1.03192
1.03106
1.03048
1.03051
1.03097
1.03127
1.03106
1.03074
1.0306
1.03078
1.03086
1.03069
1.03048
1.03035
1.03042
1.03038
1.03021
1.02996
1.02979
1.02969
1.02969
1.02973
1.0298
1.02977
1.02969
1.02959
1.02942
1.0292
1.02895
0.776148
0.776102
0.776051
0.775995
0.775935
0.775874
0.775809
0.775742
0.775674
0.775606
0.775537
0.775472
0.775389
0.775303
0.775216
0.775125
0.775032
0.774939
0.774848
0.774774
0.774697
0.774705
0.774773
0.775019
0.775522
0.776539
0.778233
0.781338
0.785978
0.793741
0.803898
0.818917
0.836088
0.857782
0.879838
0.904311
0.926877
0.947305
0.965671
0.979397
0.991831
0.999478
1.00639
1.01029
1.01355
1.01547
1.02004
1.02425
1.02888
1.03197
1.03334
1.03359
1.03337
1.03241
1.02914
1.02628
1.02537
1.02564
1.02692
1.02924
1.03109
1.03181
1.03143
1.02977
1.02838
1.0275
1.02778
1.02907
1.03043
1.03037
1.02978
1.02879
1.02798
1.02826
1.02896
1.02943
1.02923
1.02884
1.02879
1.0291
1.02939
1.02925
1.02891
1.02888
1.02903
1.02915
1.02904
1.02878
1.02861
1.02864
1.02866
1.0287
1.02878
1.02887
1.02884
1.02881
1.02873
1.02856
1.02837
1.02822
0.774641
0.774603
0.774562
0.77452
0.774477
0.774432
0.774386
0.774338
0.774289
0.774239
0.774188
0.774136
0.774083
0.774028
0.77397
0.773912
0.773853
0.773795
0.773737
0.773682
0.773629
0.77358
0.773541
0.77348
0.773411
0.773341
0.773276
0.773222
0.773189
0.773219
0.773333
0.773711
0.774513
0.77633
0.779515
0.785972
0.795587
0.8118
0.831482
0.857611
0.883767
0.911512
0.936864
0.959307
0.979921
0.996006
1.00941
1.01502
1.01947
1.0225
1.0245
1.02546
1.02481
1.02209
1.02016
1.02067
1.022
1.02474
1.02678
1.02812
1.02778
1.02715
1.0254
1.02398
1.02357
1.02444
1.02618
1.0274
1.02726
1.02678
1.02579
1.025
1.02542
1.02632
1.0268
1.02664
1.02616
1.02608
1.0264
1.02684
1.02683
1.02661
1.02649
1.02665
1.02688
1.02691
1.02677
1.02663
1.02665
1.02672
1.02677
1.02689
1.02708
1.02722
1.02724
1.0272
1.02712
1.02701
1.02692
1.02687
0.773517
0.773495
0.773471
0.773447
0.773422
0.773396
0.773369
0.773342
0.773314
0.773286
0.773258
0.773229
0.7732
0.773171
0.773142
0.773112
0.773082
0.773052
0.77302
0.772988
0.772956
0.772924
0.772891
0.772857
0.772823
0.77279
0.772759
0.77273
0.772705
0.772684
0.772676
0.772648
0.772616
0.772581
0.772569
0.772595
0.772698
0.773056
0.773921
0.77618
0.780585
0.790067
0.804596
0.827752
0.854908
0.887622
0.918157
0.944554
0.966715
0.9816
0.994164
1.00087
1.00666
1.00958
1.01491
1.02045
1.02537
1.02749
1.02736
1.02691
1.02456
1.02078
1.01983
1.02016
1.02184
1.02416
1.02613
1.02579
1.02449
1.02232
1.02234
1.02293
1.02403
1.02472
1.02436
1.02372
1.02345
1.0237
1.02437
1.02473
1.02446
1.02403
1.02407
1.02441
1.02468
1.02463
1.02437
1.02437
1.02443
1.02453
1.02467
1.02489
1.02511
1.02523
1.02524
1.02521
1.02518
1.02511
1.02504
1.0251
0.772887
0.772875
0.772864
0.772852
0.77284
0.772827
0.772815
0.772803
0.77279
0.772777
0.772764
0.77275
0.772736
0.772721
0.772707
0.772693
0.772678
0.772663
0.772647
0.772631
0.772615
0.772599
0.772583
0.772566
0.77255
0.772534
0.772517
0.7725
0.772483
0.772467
0.77245
0.772439
0.77243
0.772421
0.772412
0.772405
0.772409
0.7724
0.772385
0.772387
0.772406
0.772501
0.772802
0.773744
0.776003
0.782025
0.792887
0.814876
0.841663
0.877023
0.911233
0.942807
0.971131
0.994473
1.01028
1.01666
1.02141
1.02353
1.02368
1.02128
1.01569
1.01659
1.01852
1.0213
1.02347
1.02388
1.02371
1.02195
1.01998
1.0201
1.02109
1.0228
1.02339
1.02322
1.02251
1.02166
1.02193
1.02269
1.02305
1.02287
1.02246
1.02238
1.02267
1.023
1.02298
1.02279
1.02267
1.0227
1.0228
1.02291
1.02308
1.02329
1.02348
1.02361
1.02363
1.02358
1.02351
1.02347
1.02349
1.02357
0.772565
0.77256
0.772554
0.772548
0.772542
0.772536
0.772531
0.772527
0.772521
0.772515
0.772509
0.772502
0.772495
0.772488
0.77248
0.772473
0.772464
0.772455
0.772446
0.772438
0.772429
0.772418
0.772406
0.772394
0.772384
0.772374
0.772365
0.772355
0.772346
0.772337
0.772329
0.772323
0.772318
0.772315
0.772311
0.772306
0.772299
0.772291
0.772288
0.772289
0.772294
0.772293
0.772292
0.772294
0.772304
0.772348
0.772497
0.773087
0.774723
0.779904
0.790465
0.812991
0.843583
0.884251
0.922329
0.953318
0.978814
0.991348
1.00368
1.00667
1.01144
1.0207
1.02346
1.02506
1.02498
1.02405
1.0201
1.0178
1.01817
1.02012
1.02244
1.02323
1.02292
1.02146
1.02073
1.02096
1.02195
1.02287
1.0226
1.02176
1.02132
1.02163
1.02229
1.02239
1.02214
1.02171
1.02176
1.02189
1.02196
1.02206
1.02225
1.02252
1.02264
1.02265
1.02262
1.02258
1.0225
1.02241
1.02244
1.02253
0.772409
0.772407
0.772405
0.772403
0.772401
0.772399
0.772397
0.772396
0.772393
0.772389
0.772385
0.77238
0.772374
0.772368
0.772363
0.772359
0.772354
0.772345
0.772339
0.772336
0.772326
0.772314
0.772304
0.772295
0.772288
0.77228
0.772274
0.772267
0.772259
0.772252
0.772245
0.772239
0.772236
0.772234
0.772232
0.772228
0.772222
0.772219
0.772219
0.77222
0.772223
0.772228
0.772227
0.772226
0.772226
0.772226
0.772226
0.772222
0.772208
0.772226
0.772346
0.772938
0.774858
0.781229
0.795982
0.825042
0.862647
0.907174
0.946735
0.979761
1.00537
1.01957
1.02246
1.02367
1.0231
1.01867
1.0165
1.01793
1.02079
1.02323
1.02318
1.02274
1.02117
1.01985
1.02025
1.02186
1.02279
1.02262
1.02156
1.02075
1.02103
1.02195
1.02228
1.02201
1.02141
1.02132
1.02149
1.02163
1.02172
1.02182
1.022
1.0222
1.02231
1.02229
1.02223
1.02213
1.022
1.02199
1.022
1.02206
0.772361
0.772359
0.772357
0.772354
0.772351
0.772348
0.772344
0.772342
0.772339
0.772335
0.77233
0.772324
0.772319
0.772313
0.77231
0.772309
0.772305
0.772299
0.772292
0.772285
0.772278
0.772272
0.772265
0.772259
0.772252
0.772245
0.772239
0.772232
0.772224
0.772216
0.77221
0.772204
0.772197
0.77219
0.772186
0.772182
0.772177
0.772173
0.772171
0.77217
0.772168
0.772165
0.772161
0.772157
0.772153
0.772148
0.772142
0.772135
0.772128
0.772119
0.772106
0.772085
0.772061
0.772088
0.772311
0.7734
0.777182
0.789728
0.813329
0.856678
0.903398
0.946129
0.976615
0.993183
1.0044
1.00902
1.01798
1.02305
1.0263
1.02584
1.02389
1.01958
1.01954
1.02012
1.02214
1.02396
1.02357
1.02164
1.02063
1.02087
1.02208
1.02279
1.02244
1.02137
1.02117
1.0214
1.02169
1.02167
1.02169
1.02185
1.0221
1.0222
1.0222
1.02216
1.02212
1.02201
1.02181
1.02183
1.02186
1.02192
0.77231
0.772309
0.772307
0.772305
0.772303
0.772301
0.772299
0.772298
0.772296
0.772295
0.772295
0.772294
0.772292
0.772289
0.772286
0.772283
0.772283
0.772283
0.77228
0.772275
0.77227
0.772267
0.772263
0.772257
0.772251
0.772246
0.77224
0.772233
0.772227
0.77222
0.772213
0.772205
0.772195
0.772185
0.772175
0.772165
0.772156
0.772149
0.772144
0.772139
0.772134
0.772126
0.772116
0.772107
0.772099
0.772094
0.772091
0.772089
0.77209
0.772089
0.772084
0.772071
0.772055
0.77203
0.772011
0.772012
0.772029
0.772175
0.772884
0.776346
0.787431
0.813584
0.860444
0.908816
0.953497
0.990952
1.01601
1.022
1.02492
1.02399
1.01719
1.01713
1.0195
1.02317
1.02489
1.02444
1.02222
1.02012
1.02046
1.02239
1.02338
1.02307
1.02172
1.02109
1.0214
1.02179
1.02188
1.02178
1.02181
1.02207
1.02228
1.02226
1.02222
1.02218
1.02209
1.02194
1.0218
1.02183
1.02185
1.02191
0.77222
0.772219
0.772218
0.772217
0.772216
0.772215
0.772214
0.772214
0.772215
0.772216
0.772218
0.77222
0.772222
0.772222
0.772222
0.772222
0.772222
0.772224
0.772227
0.772229
0.77223
0.77223
0.772231
0.772232
0.772233
0.772233
0.772233
0.772233
0.772229
0.772224
0.772218
0.772209
0.772197
0.772184
0.772169
0.772153
0.77214
0.772131
0.772125
0.772119
0.772108
0.772093
0.772079
0.772069
0.772063
0.772062
0.772065
0.772074
0.772085
0.77209
0.77209
0.772084
0.772073
0.772058
0.772042
0.772028
0.772017
0.772001
0.771991
0.772004
0.772137
0.772973
0.776753
0.790831
0.821139
0.874546
0.927317
0.965773
0.993673
1.00445
1.00989
1.0187
1.02542
1.02684
1.02617
1.02173
1.01983
1.02029
1.0225
1.02456
1.02409
1.02198
1.02107
1.02137
1.02228
1.02225
1.02199
1.02188
1.02211
1.02246
1.02245
1.02232
1.02224
1.02222
1.02212
1.022
1.0219
1.0219
1.02189
1.02194
0.772131
0.772132
0.772133
0.772134
0.772136
0.772138
0.77214
0.772142
0.772144
0.772147
0.772151
0.772155
0.772158
0.772161
0.772164
0.772166
0.772169
0.772173
0.772176
0.77218
0.772183
0.772186
0.772189
0.772193
0.772196
0.772196
0.772196
0.772195
0.77219
0.772185
0.772177
0.772168
0.772158
0.772146
0.772129
0.772112
0.772097
0.772084
0.772071
0.772057
0.772041
0.77202
0.772006
0.771998
0.771993
0.771993
0.771999
0.772017
0.772042
0.772065
0.772081
0.772087
0.772086
0.772081
0.772073
0.77206
0.772039
0.772005
0.771975
0.771968
0.771977
0.771999
0.772045
0.77226
0.773344
0.779732
0.799239
0.843691
0.897766
0.952311
0.995817
1.01687
1.02323
1.02493
1.02107
1.01612
1.01879
1.02328
1.02529
1.02477
1.02223
1.0203
1.0208
1.02266
1.02272
1.02237
1.02184
1.02201
1.02261
1.02268
1.02252
1.02236
1.02232
1.02228
1.02212
1.02203
1.02204
1.02202
1.02199
1.02204
0.772085
0.772086
0.772088
0.772089
0.772091
0.772095
0.772096
0.772096
0.772098
0.772101
0.772104
0.772107
0.772109
0.772111
0.772114
0.772118
0.772121
0.772125
0.772128
0.772132
0.772136
0.772139
0.772142
0.772143
0.772144
0.772144
0.772146
0.772144
0.772139
0.772133
0.772125
0.772116
0.772107
0.772097
0.772084
0.772071
0.77206
0.772049
0.772034
0.772016
0.771996
0.771974
0.771961
0.771954
0.771951
0.771952
0.771961
0.771985
0.772014
0.772038
0.772055
0.772062
0.772066
0.772068
0.772067
0.772063
0.772041
0.771993
0.771956
0.771949
0.771953
0.771978
0.772001
0.772015
0.772028
0.772079
0.772482
0.775091
0.786946
0.820288
0.878842
0.935461
0.973725
0.998434
1.00621
1.01486
1.02489
1.02748
1.02656
1.02167
1.01952
1.0203
1.02272
1.02361
1.02282
1.02166
1.02177
1.02261
1.02293
1.02273
1.02238
1.02241
1.02239
1.02227
1.02208
1.0221
1.02215
1.02212
1.02208
1.02216
0.772078
0.772077
0.772077
0.772077
0.772078
0.772078
0.772078
0.772077
0.772077
0.772078
0.77208
0.772081
0.772082
0.772085
0.772092
0.772098
0.772101
0.772104
0.772107
0.772111
0.772113
0.772113
0.772113
0.772111
0.77211
0.77211
0.772107
0.772101
0.772097
0.772092
0.772085
0.772079
0.772074
0.772066
0.772057
0.77205
0.772044
0.772037
0.772026
0.772011
0.77199
0.771968
0.771952
0.771944
0.771943
0.771946
0.771955
0.771975
0.771999
0.772016
0.772028
0.772037
0.772042
0.772044
0.772044
0.77204
0.772022
0.771983
0.771947
0.771938
0.771943
0.77197
0.771992
0.772001
0.772016
0.772026
0.772024
0.772035
0.772185
0.773337
0.780948
0.806293
0.859112
0.919373
0.976064
1.0109
1.02299
1.02498
1.02106
1.01567
1.01833
1.02338
1.02455
1.02341
1.02107
1.02115
1.02239
1.02325
1.02297
1.0223
1.02225
1.02244
1.02242
1.02217
1.02204
1.02216
1.02223
1.02218
1.02214
1.02227
0.772082
0.772081
0.77208
0.77208
0.772079
0.772077
0.772074
0.772071
0.772068
0.772066
0.772065
0.772063
0.772061
0.772058
0.772054
0.77205
0.772047
0.772046
0.772044
0.772043
0.772042
0.77204
0.772038
0.772037
0.772036
0.772035
0.772035
0.772036
0.772039
0.772046
0.772056
0.772061
0.772061
0.77206
0.772057
0.772057
0.772057
0.772056
0.772053
0.772045
0.772032
0.772015
0.771999
0.771985
0.771976
0.771976
0.771983
0.771993
0.772
0.772002
0.772002
0.772002
0.772002
0.772003
0.77201
0.772014
0.772007
0.771988
0.771972
0.771965
0.771967
0.771986
0.771995
0.771995
0.772001
0.77201
0.772011
0.772006
0.771996
0.771992
0.772057
0.772736
0.777328
0.79766
0.848385
0.913421
0.964792
0.992606
1.00581
1.01345
1.02475
1.02704
1.02524
1.02025
1.02022
1.02169
1.02385
1.02356
1.02224
1.02207
1.02236
1.0226
1.02231
1.022
1.02209
1.02226
1.02225
1.02217
1.0222
1.02247
0.772062
0.772059
0.772055
0.772048
0.772041
0.772035
0.77203
0.772025
0.77202
0.772015
0.772011
0.772006
0.772002
0.771999
0.771996
0.771992
0.771989
0.771986
0.771982
0.771978
0.771974
0.771972
0.771969
0.771967
0.771966
0.771966
0.771966
0.771967
0.771972
0.771981
0.771992
0.772004
0.772017
0.772033
0.772046
0.772055
0.772065
0.772071
0.77207
0.772069
0.772065
0.772055
0.772042
0.772027
0.772013
0.772005
0.772006
0.772005
0.771998
0.771985
0.77197
0.771957
0.771952
0.771956
0.771977
0.772001
0.77201
0.772009
0.772012
0.772012
0.772011
0.772014
0.77201
0.771995
0.771991
0.771993
0.771994
0.771994
0.771992
0.771999
0.772004
0.772027
0.772091
0.772557
0.775942
0.79453
0.84046
0.90515
0.973287
1.00806
1.02452
1.02414
1.01789
1.01791
1.02119
1.02445
1.02432
1.02237
1.02138
1.02199
1.02289
1.02272
1.02188
1.02189
1.02218
1.02235
1.0222
1.02217
1.02236
1.02262
0.772023
0.772018
0.772013
0.772009
0.772006
0.772002
0.771998
0.771993
0.771989
0.771985
0.771982
0.771979
0.771975
0.771971
0.771968
0.771965
0.771961
0.771957
0.771953
0.771949
0.771946
0.771943
0.771939
0.771935
0.771934
0.771935
0.771937
0.77194
0.771946
0.771956
0.77197
0.771985
0.771996
0.772006
0.77202
0.772037
0.772055
0.772068
0.772069
0.772069
0.772067
0.772061
0.772051
0.772037
0.772023
0.772008
0.772
0.771995
0.771984
0.771964
0.771942
0.771927
0.771925
0.771931
0.771956
0.771989
0.772005
0.772016
0.772027
0.772028
0.772027
0.772027
0.772022
0.772007
0.771984
0.771977
0.771977
0.771986
0.772017
0.772054
0.772094
0.772132
0.77217
0.772188
0.772223
0.772578
0.775198
0.792569
0.839747
0.90995
0.971916
0.992563
1.00716
1.01731
1.0269
1.02647
1.02312
1.02052
1.02151
1.0233
1.02322
1.02211
1.02164
1.02199
1.02259
1.0224
1.02211
1.02219
1.02261
1.02271
0.772004
0.771999
0.771997
0.771996
0.771995
0.771991
0.771988
0.771985
0.771981
0.771979
0.771977
0.771976
0.771974
0.771972
0.771971
0.771969
0.771967
0.771964
0.771961
0.771957
0.771952
0.771948
0.771944
0.77194
0.771939
0.771944
0.771947
0.771948
0.771953
0.771967
0.771981
0.771987
0.771991
0.771994
0.772
0.772009
0.772021
0.772036
0.772043
0.772043
0.772039
0.772033
0.772027
0.772019
0.772009
0.772
0.771991
0.771978
0.771961
0.771943
0.771933
0.771925
0.771923
0.771931
0.771953
0.771984
0.772005
0.772016
0.772023
0.772025
0.772023
0.772022
0.772013
0.771993
0.771968
0.771961
0.771964
0.771992
0.772063
0.772129
0.772174
0.772193
0.772209
0.772215
0.77221
0.772165
0.772103
0.772353
0.774903
0.795002
0.842948
0.915547
0.9862
1.01276
1.02498
1.0237
1.01786
1.02021
1.02423
1.0241
1.02263
1.02105
1.0215
1.0228
1.02273
1.02199
1.02199
1.02244
1.02279
1.02269
0.772021
0.772022
0.772025
0.772031
0.772035
0.772035
0.772035
0.772035
0.772035
0.772036
0.772038
0.77204
0.77204
0.77204
0.772039
0.772038
0.772036
0.772031
0.772025
0.772018
0.772011
0.772005
0.772001
0.771997
0.77199
0.771984
0.771984
0.771983
0.771983
0.771986
0.771992
0.771992
0.771984
0.771974
0.771968
0.77196
0.77195
0.77195
0.771962
0.771962
0.771956
0.771959
0.771969
0.77197
0.771965
0.771963
0.771972
0.77197
0.771968
0.771978
0.772
0.772003
0.772003
0.772001
0.771987
0.771987
0.771991
0.771988
0.771993
0.771998
0.77199
0.771991
0.771993
0.771985
0.771961
0.771957
0.771975
0.772044
0.772128
0.772184
0.772203
0.772209
0.772217
0.772206
0.772146
0.772046
0.771942
0.771862
0.771874
0.772263
0.775448
0.798926
0.855944
0.925248
0.98499
0.998801
1.01122
1.02483
1.02658
1.02443
1.02019
1.02066
1.02278
1.02328
1.02223
1.02155
1.02205
1.02279
1.02277
1.02259
0.772048
0.772053
0.772058
0.772063
0.772068
0.772073
0.772076
0.772079
0.772082
0.772086
0.772091
0.772099
0.7721
0.772099
0.772099
0.772097
0.772093
0.77208
0.772066
0.772058
0.772053
0.772049
0.772044
0.772037
0.772027
0.772012
0.772
0.771996
0.771992
0.771984
0.771984
0.771982
0.771968
0.771945
0.771923
0.771894
0.771875
0.771873
0.771884
0.771897
0.771904
0.771919
0.771942
0.771946
0.771945
0.771953
0.771967
0.771966
0.771975
0.772008
0.772048
0.772067
0.772071
0.772058
0.772026
0.771994
0.771965
0.771947
0.771946
0.771945
0.771939
0.771947
0.771978
0.77199
0.771997
0.772013
0.77206
0.772138
0.77219
0.772195
0.772195
0.772201
0.77219
0.772134
0.772022
0.771918
0.77184
0.771836
0.77185
0.77191
0.772003
0.772604
0.777207
0.806832
0.86783
0.943771
1.00081
1.02082
1.02328
1.01675
1.01837
1.02251
1.02381
1.02275
1.02081
1.02119
1.02274
1.02293
1.02269
1.0223
0.772043
0.772048
0.772054
0.77206
0.772065
0.772071
0.772076
0.77208
0.772085
0.772091
0.7721
0.772109
0.772113
0.772112
0.772111
0.772109
0.7721
0.772073
0.772048
0.772047
0.772051
0.772052
0.772047
0.772038
0.772028
0.772011
0.772
0.771996
0.771983
0.77197
0.771971
0.771968
0.771951
0.771927
0.771897
0.771862
0.771847
0.771848
0.771858
0.771883
0.771907
0.77193
0.771942
0.771941
0.771943
0.771963
0.77197
0.771963
0.771971
0.772003
0.772044
0.77207
0.772073
0.772057
0.772032
0.771998
0.771951
0.771919
0.771908
0.771908
0.771914
0.771933
0.771993
0.772058
0.772084
0.772115
0.772174
0.772214
0.772209
0.772191
0.772168
0.772142
0.772093
0.772002
0.771914
0.77183
0.771813
0.771833
0.77191
0.772043
0.772136
0.772157
0.772188
0.772932
0.77976
0.819504
0.88992
0.953476
0.994683
1.00565
1.02128
1.02587
1.02442
1.01987
1.02014
1.02251
1.02324
1.02273
1.02212
1.02213
0.771971
0.771974
0.771977
0.771978
0.771981
0.771986
0.771986
0.771981
0.771981
0.771984
0.771991
0.772
0.772005
0.772
0.771995
0.771991
0.771973
0.771934
0.7719
0.771891
0.771891
0.771902
0.77191
0.771912
0.77192
0.771941
0.771952
0.77196
0.77196
0.771954
0.771955
0.771958
0.771956
0.771939
0.771927
0.771932
0.771946
0.771963
0.771981
0.772007
0.772031
0.772039
0.772024
0.771995
0.771984
0.771981
0.77197
0.771954
0.771949
0.771964
0.772003
0.772021
0.772001
0.771989
0.771995
0.771984
0.771945
0.77191
0.771902
0.77191
0.771931
0.771976
0.772073
0.772126
0.772137
0.772164
0.77222
0.77223
0.772216
0.772144
0.772046
0.771984
0.771925
0.771883
0.771854
0.771812
0.771819
0.771894
0.772021
0.772141
0.772168
0.772159
0.77207
0.771881
0.771921
0.773455
0.785953
0.834072
0.91108
0.983304
1.01776
1.02366
1.01742
1.01756
1.02155
1.02407
1.02324
1.02143
1.02163
1.02201
0.771792
0.771788
0.771784
0.771783
0.771783
0.771788
0.771788
0.771788
0.771791
0.771802
0.771814
0.771824
0.771829
0.77183
0.771837
0.771839
0.771822
0.771793
0.771784
0.771783
0.771788
0.771799
0.771816
0.771837
0.77187
0.771919
0.771937
0.771952
0.771989
0.772012
0.77201
0.772012
0.772031
0.772033
0.772034
0.772048
0.772066
0.772074
0.772086
0.772094
0.772093
0.772108
0.772115
0.772096
0.772053
0.772013
0.771979
0.771918
0.771868
0.77186
0.771863
0.771876
0.771885
0.771892
0.771939
0.771971
0.771994
0.772016
0.772016
0.772033
0.772065
0.772108
0.772165
0.772166
0.772146
0.772153
0.772213
0.772217
0.772153
0.771996
0.771844
0.771793
0.771792
0.771821
0.771835
0.771865
0.771933
0.772029
0.772128
0.772176
0.77217
0.77208
0.771898
0.771708
0.771681
0.771716
0.77199
0.774887
0.795774
0.86323
0.937547
0.98524
1.00402
1.01678
1.02603
1.02506
1.02103
1.02107
1.02215
1.02214
0.771757
0.771745
0.771734
0.77173
0.771731
0.771732
0.771734
0.771736
0.771742
0.771757
0.771772
0.771772
0.771771
0.771772
0.771776
0.77178
0.771781
0.771781
0.77178
0.771787
0.771809
0.771839
0.77187
0.77189
0.771913
0.771945
0.771982
0.772036
0.772082
0.772093
0.772092
0.772099
0.772094
0.772087
0.772109
0.772115
0.772084
0.772067
0.772068
0.772082
0.772073
0.772068
0.772105
0.772125
0.772096
0.772017
0.771926
0.771823
0.771756
0.771743
0.771746
0.771774
0.771829
0.771884
0.771934
0.772014
0.772142
0.772218
0.772221
0.772217
0.772211
0.772208
0.772194
0.772173
0.77216
0.772162
0.772147
0.772097
0.771988
0.771824
0.771719
0.771712
0.77174
0.771804
0.771917
0.772032
0.772098
0.772139
0.772172
0.772156
0.772063
0.771852
0.771714
0.771659
0.771679
0.771813
0.772085
0.772149
0.772629
0.779381
0.813389
0.889396
0.975853
1.0119
1.02449
1.02001
1.01879
1.02189
1.023
1.02204
0.771894
0.771893
0.77189
0.771893
0.771916
0.771941
0.771941
0.771939
0.771947
0.771966
0.771985
0.772012
0.772053
0.772059
0.772059
0.772077
0.772098
0.772092
0.772085
0.772082
0.772063
0.772046
0.772038
0.772007
0.771978
0.771984
0.772032
0.77206
0.772054
0.772034
0.772007
0.771967
0.77194
0.771953
0.772027
0.772052
0.772022
0.772007
0.771996
0.771939
0.771883
0.771906
0.772021
0.77207
0.772072
0.77204
0.77192
0.771741
0.771688
0.771687
0.771704
0.77177
0.771898
0.772023
0.772103
0.772172
0.772253
0.772311
0.772318
0.772296
0.772269
0.772244
0.772203
0.772144
0.772077
0.772005
0.771939
0.771883
0.771826
0.771748
0.771703
0.77171
0.77177
0.77193
0.772107
0.772188
0.772199
0.772193
0.772143
0.772021
0.771807
0.77166
0.771629
0.771657
0.771813
0.772026
0.772169
0.772158
0.772016
0.771946
0.773136
0.787838
0.845104
0.924058
0.989092
1.00232
1.01909
1.02482
1.02356
1.02095
0.772151
0.772155
0.772164
0.772178
0.772205
0.772217
0.772218
0.772225
0.772228
0.772219
0.772205
0.772209
0.772217
0.772204
0.772188
0.772195
0.772204
0.772196
0.772179
0.772144
0.77206
0.772038
0.772042
0.771994
0.771918
0.771916
0.771893
0.771785
0.771678
0.771626
0.771594
0.771585
0.77161
0.771731
0.771846
0.771823
0.771799
0.771766
0.771663
0.771523
0.771485
0.771574
0.771855
0.771948
0.771946
0.771939
0.772004
0.771993
0.771888
0.77185
0.771863
0.771968
0.772148
0.772225
0.77223
0.772244
0.772282
0.77231
0.772279
0.772254
0.772255
0.772233
0.772111
0.771959
0.771846
0.771763
0.771743
0.771741
0.771752
0.771743
0.77176
0.771841
0.771996
0.772167
0.772254
0.772256
0.772245
0.772157
0.771978
0.771761
0.771605
0.771614
0.771654
0.771835
0.772095
0.772211
0.772197
0.772067
0.771785
0.771633
0.771663
0.772016
0.776115
0.807755
0.880236
0.963775
1.01323
1.02244
1.01777
1.01947
0.772078
0.772074
0.772067
0.772061
0.772065
0.772075
0.772082
0.772084
0.772079
0.772057
0.772036
0.772036
0.772027
0.771978
0.771964
0.77196
0.771936
0.771914
0.771903
0.771865
0.77181
0.771782
0.771701
0.771529
0.771487
0.771464
0.771369
0.771199
0.771141
0.77116
0.771215
0.7713
0.771451
0.771658
0.77174
0.771721
0.771643
0.771499
0.771304
0.771193
0.771182
0.771293
0.771621
0.771859
0.771904
0.771974
0.77215
0.772166
0.772034
0.771983
0.772007
0.772127
0.772235
0.772242
0.772237
0.772223
0.772176
0.772034
0.771888
0.771866
0.77188
0.771869
0.771797
0.771696
0.771625
0.77159
0.7716
0.771644
0.771678
0.771776
0.771959
0.772125
0.772241
0.772281
0.772284
0.772234
0.772105
0.771888
0.771692
0.771548
0.771551
0.771616
0.771868
0.772167
0.772277
0.772255
0.772106
0.771804
0.771604
0.771603
0.771772
0.772166
0.772236
0.773165
0.784109
0.84106
0.922405
0.981085
1.00446
1.02012
0.771583
0.771537
0.77152
0.771519
0.771527
0.771558
0.771572
0.771571
0.77159
0.77164
0.771662
0.771654
0.771647
0.771683
0.77173
0.771731
0.771704
0.771687
0.771666
0.771656
0.771655
0.771636
0.771529
0.771391
0.771301
0.771209
0.771093
0.771011
0.770978
0.771004
0.771111
0.77128
0.771486
0.771773
0.771991
0.772095
0.772083
0.771892
0.771555
0.771387
0.771335
0.771407
0.771771
0.772222
0.77228
0.772236
0.772272
0.772258
0.772063
0.771945
0.771998
0.772109
0.7721
0.772051
0.772015
0.771967
0.77185
0.771626
0.771481
0.771463
0.77148
0.771526
0.771557
0.771555
0.771522
0.771482
0.771493
0.771555
0.77174
0.772006
0.772193
0.772259
0.772291
0.77226
0.772068
0.771816
0.771616
0.771472
0.771438
0.771457
0.771557
0.771875
0.772216
0.772326
0.772289
0.772107
0.771761
0.771522
0.771536
0.771719
0.772084
0.772296
0.77227
0.77206
0.772127
0.77599
0.803202
0.881258
0.969748
1.01888
0.771292
0.771219
0.77122
0.771241
0.771245
0.771234
0.77124
0.771278
0.771373
0.771481
0.771506
0.771515
0.77155
0.771659
0.77175
0.771756
0.771743
0.771727
0.771748
0.771765
0.771782
0.771791
0.771788
0.771723
0.771592
0.771548
0.771542
0.771596
0.771686
0.771743
0.771884
0.77219
0.772537
0.772898
0.773208
0.773361
0.773387
0.773222
0.772806
0.772393
0.772085
0.772022
0.772158
0.772405
0.772415
0.772301
0.772269
0.772236
0.771977
0.771735
0.771734
0.771852
0.771847
0.771806
0.771816
0.771807
0.771719
0.77151
0.771349
0.771324
0.771342
0.771433
0.771519
0.771547
0.771577
0.771651
0.771824
0.772054
0.772253
0.772284
0.772272
0.772217
0.772093
0.771851
0.771573
0.771353
0.771249
0.771258
0.771303
0.771499
0.77189
0.772254
0.77228
0.772225
0.771994
0.77162
0.771373
0.77138
0.771534
0.772016
0.7723
0.772286
0.772094
0.771735
0.771592
0.771693
0.772716
0.786016
0.837608
0.959844
0.772832
0.772696
0.772504
0.772471
0.772474
0.772479
0.77248
0.77249
0.772528
0.77261
0.77264
0.772653
0.772705
0.772853
0.772913
0.772908
0.772929
0.773057
0.773089
0.773087
0.7732
0.773423
0.773426
0.773432
0.773437
0.773377
0.773344
0.773359
0.773432
0.773539
0.77368
0.773862
0.774007
0.774154
0.774414
0.774653
0.774705
0.774618
0.774261
0.773561
0.772825
0.7726
0.772618
0.772674
0.772668
0.772543
0.772412
0.772355
0.772251
0.772174
0.772207
0.772305
0.77222
0.771951
0.771922
0.771926
0.771905
0.771832
0.771693
0.771624
0.771635
0.771728
0.771919
0.772121
0.772306
0.772492
0.772726
0.772744
0.772661
0.772463
0.772106
0.771795
0.771612
0.77147
0.77139
0.771279
0.771227
0.771302
0.771695
0.772131
0.772455
0.772409
0.772223
0.771832
0.771446
0.77124
0.771242
0.771386
0.771886
0.772331
0.772314
0.772072
0.771653
0.77146
0.771506
0.771919
0.772074
0.772368
0.775594
0.855957
0.777286
0.77715
0.776854
0.776466
0.776224
0.776035
0.775824
0.77578
0.775773
0.775757
0.775738
0.775715
0.775696
0.775676
0.775572
0.775452
0.775441
0.775423
0.775377
0.775354
0.77532
0.775183
0.775105
0.775069
0.775016
0.774872
0.774746
0.774758
0.774751
0.774604
0.77414
0.773704
0.773686
0.773721
0.773901
0.774121
0.774219
0.77421
0.774009
0.773438
0.77269
0.772449
0.77248
0.772628
0.77272
0.772709
0.772628
0.772567
0.772536
0.772531
0.772586
0.772633
0.772611
0.77254
0.772539
0.772629
0.772866
0.773313
0.773525
0.773523
0.773477
0.773359
0.773313
0.773306
0.773285
0.773258
0.773179
0.772971
0.77259
0.772133
0.77171
0.771514
0.771425
0.771403
0.771389
0.771465
0.771704
0.772185
0.772821
0.772845
0.772678
0.772267
0.771724
0.771355
0.771185
0.771202
0.771396
0.771959
0.772458
0.772398
0.772012
0.771521
0.771291
0.771318
0.77163
0.77215
0.772145
0.771898
0.771681
0.783035
0.782388
0.782371
0.782218
0.781716
0.781454
0.781415
0.781295
0.781112
0.781068
0.78109
0.781192
0.781207
0.7812
0.781207
0.781157
0.781061
0.781075
0.781092
0.78103
0.780999
0.780965
0.780667
0.780361
0.780289
0.780207
0.780071
0.779933
0.779731
0.779343
0.778672
0.777759
0.777114
0.777027
0.777084
0.777271
0.777619
0.778087
0.778337
0.778361
0.778129
0.777905
0.777912
0.778207
0.778653
0.77874
0.778672
0.778496
0.778124
0.777837
0.777773
0.777702
0.777576
0.777344
0.777094
0.776883
0.776758
0.776809
0.777051
0.77711
0.776988
0.776554
0.775854
0.775194
0.774754
0.774468
0.774114
0.773628
0.773171
0.772752
0.772381
0.772182
0.77218
0.772246
0.772609
0.773211
0.77366
0.773944
0.773906
0.773687
0.773278
0.772548
0.771856
0.771525
0.771352
0.771415
0.771887
0.772502
0.772997
0.772802
0.772238
0.771548
0.771286
0.771299
0.771581
0.772131
0.772276
0.771998
0.771514
0.771403
0.772031
0.795209
0.795159
0.794947
0.794406
0.79398
0.793944
0.794042
0.794057
0.794069
0.794252
0.794308
0.794206
0.793995
0.793941
0.793969
0.793989
0.793925
0.793607
0.79342
0.793447
0.793504
0.793441
0.793352
0.793401
0.793564
0.793556
0.793504
0.793457
0.793309
0.792918
0.792224
0.79132
0.790984
0.790866
0.790753
0.790554
0.790012
0.789516
0.78932
0.789132
0.788867
0.788578
0.788247
0.788001
0.787892
0.787631
0.787049
0.786371
0.785704
0.785122
0.784623
0.784118
0.78362
0.783077
0.782485
0.781787
0.781023
0.780445
0.780066
0.779723
0.779364
0.778889
0.778141
0.777375
0.776948
0.776993
0.776949
0.77665
0.776603
0.777011
0.777664
0.77766
0.777424
0.777219
0.77694
0.776459
0.775767
0.774861
0.773699
0.772981
0.772525
0.772188
0.772341
0.772945
0.773647
0.774222
0.774022
0.773596
0.772567
0.77187
0.771471
0.771415
0.771867
0.772699
0.772674