/*--------------------------------*- C++ -*----------------------------------*\
  =========                 |
  \\      /  F ield         | OpenFOAM: The Open Source CFD Toolbox
   \\    /   O peration     | Website:  https://openfoam.org
    \\  /    A nd           | Version:  7
     \\/     M anipulation  |
\*---------------------------------------------------------------------------*/
FoamFile
{
    version     2.0;
    format      ascii;
    class       volScalarField;
    location    "5.5";
    object      p;
}
// * * * * * * * * * * * * * * * * * * * * * * * * * * * * * * * * * * * * * //

dimensions      [1 -1 -2 0 0 0 0];

internalField   nonuniform List<scalar> 
90000
(
0.0902862
0.134314
0.172787
0.219032
0.240093
0.259148
0.2996
0.336329
0.365954
0.409209
0.459804
0.506604
0.557049
0.608001
0.657224
0.704983
0.746981
0.781217
0.810206
0.824255
0.834973
0.834514
0.831342
0.824726
0.810099
0.806027
0.800362
0.7941
0.790333
0.792052
0.796938
0.799443
0.795912
0.786635
0.777603
0.766344
0.760895
0.759344
0.76295
0.775265
0.789346
0.802064
0.812247
0.817345
0.817642
0.815947
0.812825
0.809497
0.807326
0.808271
0.812191
0.816483
0.817858
0.813856
0.806195
0.797633
0.792824
0.792189
0.797611
0.805153
0.81275
0.821889
0.819288
0.811499
0.801852
0.79346
0.791849
0.795326
0.801548
0.806819
0.805412
0.800774
0.794069
0.79484
0.797906
0.80042
0.798002
0.792395
0.792108
0.795295
0.800665
0.804381
0.806734
0.809668
0.817184
0.8248
0.831241
0.836929
0.842945
0.849171
0.851869
0.858286
0.86203
0.867662
0.870739
0.871592
0.874057
0.874655
0.876595
0.879302
0.0438139
0.0437941
0.0437725
0.0437536
0.0437378
0.0437258
0.0437131
0.0437082
0.0436723
0.0449511
0.0490806
0.0574459
0.0699762
0.0907445
0.117311
0.155519
0.201295
0.259509
0.326878
0.40221
0.479766
0.557039
0.62792
0.698715
0.747102
0.794893
0.821453
0.836168
0.83771
0.834334
0.82729
0.816202
0.811372
0.805577
0.800806
0.798599
0.798071
0.794958
0.794216
0.795936
0.797922
0.800353
0.802606
0.802083
0.802379
0.806432
0.810414
0.814115
0.817099
0.820351
0.818961
0.816505
0.810987
0.806276
0.801356
0.798665
0.800312
0.804278
0.809743
0.812218
0.812247
0.805712
0.799385
0.794628
0.794209
0.798018
0.802175
0.805342
0.805652
0.798055
0.793612
0.792603
0.796297
0.801484
0.80134
0.795879
0.79184
0.791929
0.796774
0.802739
0.807644
0.806413
0.807723
0.814232
0.823424
0.829545
0.835592
0.84047
0.847014
0.851798
0.854605
0.860691
0.86449
0.870384
0.872529
0.874394
0.875665
0.875552
0.876579
0.880292
0.0438317
0.0438304
0.043831
0.0438334
0.0438368
0.0438406
0.0438437
0.043847
0.0438512
0.0438553
0.0438264
0.0437951
0.0437645
0.0437399
0.0437193
0.0437077
0.0436955
0.0436953
0.0436634
0.0463158
0.0549662
0.0746873
0.104738
0.149549
0.209101
0.277453
0.361704
0.443926
0.527409
0.597553
0.672195
0.731818
0.788049
0.83426
0.860979
0.88345
0.881766
0.871046
0.856193
0.831306
0.804079
0.7796
0.752457
0.743913
0.752381
0.772468
0.798496
0.822958
0.838949
0.841419
0.830724
0.812437
0.795978
0.787791
0.786251
0.795492
0.808156
0.815071
0.813223
0.809071
0.803123
0.801259
0.803022
0.806315
0.808416
0.809273
0.805617
0.800952
0.796991
0.796955
0.800339
0.805044
0.809548
0.80481
0.797477
0.793742
0.796211
0.801436
0.806955
0.805797
0.801044
0.803618
0.813123
0.824566
0.831112
0.833525
0.840001
0.845695
0.853319
0.854794
0.857816
0.863183
0.866836
0.872229
0.874328
0.879271
0.879106
0.878938
0.879612
0.880687
0.0438425
0.0438424
0.043843
0.0438419
0.0438415
0.0438405
0.0438397
0.0438364
0.0438345
0.0438296
0.0438252
0.0438228
0.0438218
0.043821
0.0438195
0.0438191
0.0438181
0.0438155
0.0438179
0.043797
0.0437773
0.0437614
0.0437559
0.0437515
0.04376
0.0437483
0.0445149
0.0505713
0.0690117
0.101187
0.150368
0.221786
0.30232
0.407788
0.505945
0.612144
0.701272
0.761319
0.816745
0.828057
0.821412
0.81146
0.790254
0.78591
0.791225
0.795624
0.795754
0.799497
0.80565
0.803319
0.803372
0.803905
0.807969
0.80464
0.801772
0.801354
0.804707
0.808009
0.810433
0.808814
0.805734
0.800343
0.799298
0.804175
0.806226
0.802688
0.797431
0.792935
0.797073
0.803704
0.80575
0.803942
0.798035
0.793799
0.794676
0.797539
0.800402
0.801445
0.800132
0.800829
0.806859
0.817124
0.827263
0.830677
0.831458
0.837146
0.847643
0.852907
0.857415
0.858175
0.862149
0.865762
0.866309
0.869852
0.872583
0.878672
0.883195
0.887954
0.889846
0.886408
0.0438302
0.0438262
0.0438211
0.0438163
0.0438119
0.0438082
0.0438045
0.0438006
0.0437961
0.0437925
0.0437902
0.0437888
0.0437866
0.0437852
0.0437846
0.0437848
0.0437845
0.0437847
0.0437843
0.0437858
0.0437885
0.0437947
0.0438021
0.043812
0.0438199
0.0438293
0.0438275
0.0438142
0.0438024
0.0437989
0.0437974
0.043801
0.0437912
0.0473185
0.0645052
0.099684
0.170412
0.264666
0.389435
0.523057
0.633606
0.737824
0.808021
0.835918
0.838089
0.830606
0.819877
0.799563
0.777231
0.760758
0.764531
0.778699
0.801141
0.824257
0.833183
0.821823
0.804889
0.78879
0.787709
0.795201
0.805718
0.811013
0.80602
0.800576
0.799756
0.80148
0.802821
0.802061
0.799458
0.801871
0.803906
0.800832
0.797806
0.79806
0.800825
0.802509
0.802848
0.802939
0.805776
0.811619
0.817539
0.821769
0.824344
0.828598
0.834569
0.841831
0.8466
0.849252
0.854724
0.858138
0.86395
0.86811
0.873905
0.878458
0.878449
0.879782
0.880085
0.883747
0.88553
0.88814
0.0437739
0.0437719
0.04377
0.0437685
0.0437674
0.0437665
0.0437662
0.0437657
0.0437664
0.0437672
0.0437686
0.0437708
0.0437735
0.0437765
0.0437797
0.0437833
0.043787
0.043791
0.0437958
0.0438017
0.0438081
0.0438145
0.0438209
0.0438279
0.0438309
0.0438334
0.0438319
0.0438288
0.0438246
0.0438224
0.04382
0.0438192
0.0438206
0.0438117
0.0438018
0.0437918
0.0437853
0.0437749
0.0462334
0.0678137
0.121967
0.216945
0.365107
0.49357
0.616319
0.682794
0.737517
0.748353
0.754546
0.765903
0.774942
0.783519
0.790507
0.805898
0.826195
0.825899
0.815623
0.798898
0.787562
0.787328
0.795129
0.807569
0.815434
0.807663
0.795234
0.790153
0.794082
0.803156
0.80927
0.802488
0.799134
0.798356
0.797371
0.797278
0.801074
0.80411
0.803837
0.802808
0.803202
0.80939
0.817576
0.823327
0.829888
0.838666
0.843828
0.849006
0.852465
0.857214
0.860263
0.862101
0.867815
0.871584
0.874834
0.876429
0.878367
0.882324
0.883129
0.884484
0.883426
0.884548
0.0437582
0.0437594
0.043761
0.0437631
0.0437655
0.0437678
0.0437703
0.0437727
0.0437759
0.0437795
0.0437834
0.0437886
0.0437944
0.0437994
0.043804
0.0438075
0.0438108
0.0438152
0.04382
0.0438257
0.0438313
0.0438344
0.043837
0.0438375
0.0438359
0.0438314
0.0438249
0.0438164
0.0438074
0.0437995
0.0437943
0.0437926
0.0437919
0.0437918
0.0437912
0.0437917
0.0437946
0.0437974
0.043791
0.0437864
0.0437897
0.0437884
0.0448059
0.0645506
0.115758
0.212992
0.336885
0.482312
0.608795
0.717101
0.759687
0.791622
0.793784
0.796855
0.80857
0.811354
0.8081
0.804821
0.802068
0.799277
0.795928
0.797619
0.802092
0.806052
0.803714
0.798821
0.797341
0.799252
0.805752
0.804317
0.797271
0.79488
0.797288
0.800002
0.800444
0.802469
0.805407
0.809035
0.812402
0.815263
0.824116
0.830749
0.833252
0.836874
0.843478
0.849556
0.853482
0.858452
0.862759
0.865116
0.870188
0.872938
0.875482
0.87678
0.880459
0.885197
0.886872
0.888893
0.89011
0.889795
0.0437685
0.0437721
0.0437764
0.0437815
0.0437862
0.0437909
0.0437954
0.043799
0.0438025
0.0438059
0.0438087
0.0438137
0.043819
0.0438225
0.0438247
0.0438251
0.0438249
0.0438256
0.0438272
0.0438298
0.0438316
0.0438313
0.0438295
0.0438268
0.0438218
0.0438151
0.0438063
0.043796
0.0437858
0.0437775
0.0437736
0.0437746
0.0437787
0.0437833
0.0437881
0.0437955
0.0438048
0.0438084
0.0438079
0.0438069
0.0438074
0.0438033
0.0437938
0.043775
0.0437558
0.0437415
0.0437282
0.0653666
0.128978
0.246106
0.388556
0.541958
0.640185
0.716652
0.752563
0.770914
0.795648
0.810548
0.819355
0.813149
0.804322
0.798657
0.795391
0.7973
0.800526
0.806395
0.807562
0.804865
0.80218
0.799419
0.798616
0.796493
0.798986
0.80238
0.803741
0.802913
0.802758
0.805122
0.812907
0.821055
0.823019
0.829017
0.835516
0.839148
0.844722
0.853341
0.854847
0.857748
0.861492
0.868793
0.872957
0.87409
0.8799
0.883741
0.884538
0.885678
0.889126
0.889247
0.887973
0.890422
0.0437982
0.0438025
0.0438067
0.0438109
0.0438152
0.0438196
0.0438246
0.0438283
0.0438306
0.0438316
0.0438325
0.0438344
0.0438352
0.043834
0.0438313
0.0438279
0.0438246
0.0438222
0.0438218
0.0438221
0.0438214
0.0438191
0.0438161
0.0438118
0.0438063
0.0438012
0.0437922
0.0437807
0.0437717
0.0437648
0.0437618
0.0437645
0.0437719
0.0437808
0.0437909
0.0438031
0.0438125
0.0438157
0.0438155
0.0438125
0.0438069
0.0437966
0.0437771
0.0437536
0.0437423
0.0437365
0.0437305
0.0437299
0.0437396
0.0437539
0.0505062
0.0861073
0.176901
0.307699
0.465739
0.606128
0.730297
0.779025
0.804368
0.813304
0.81145
0.804271
0.788341
0.791303
0.801133
0.810657
0.810732
0.805208
0.798148
0.796111
0.796589
0.800161
0.80205
0.802939
0.80325
0.804109
0.805874
0.809878
0.814467
0.822696
0.829847
0.8324
0.835378
0.842706
0.847062
0.85156
0.859948
0.86442
0.864365
0.867255
0.874213
0.877726
0.876825
0.878765
0.882315
0.881741
0.881472
0.88552
0.887586
0.89011
0.0438419
0.0438445
0.0438464
0.0438478
0.0438483
0.0438479
0.0438474
0.0438473
0.0438466
0.0438454
0.0438446
0.0438441
0.0438433
0.0438381
0.0438301
0.0438224
0.0438163
0.0438132
0.0438122
0.0438118
0.0438105
0.0438077
0.0438039
0.0437994
0.0437954
0.0437899
0.0437797
0.0437693
0.0437638
0.0437597
0.0437583
0.0437626
0.0437714
0.0437832
0.0437969
0.0438083
0.0438134
0.0438161
0.0438148
0.0438105
0.0437976
0.0437784
0.0437561
0.0437442
0.0437415
0.0437392
0.0437416
0.0437636
0.0438058
0.0438413
0.0438874
0.0439705
0.0439946
0.0439908
0.0645481
0.135214
0.269861
0.444259
0.608115
0.734166
0.770535
0.785784
0.782748
0.792435
0.805278
0.812279
0.810113
0.801904
0.792141
0.793872
0.799471
0.805899
0.806606
0.804826
0.803821
0.803693
0.80661
0.81265
0.818448
0.823118
0.828665
0.835807
0.840543
0.846033
0.854511
0.855183
0.855748
0.86223
0.868408
0.868274
0.86839
0.872958
0.876218
0.877956
0.884914
0.890628
0.891162
0.891335
0.894737
0.895125
0.043872
0.0438729
0.0438713
0.0438667
0.0438622
0.0438576
0.043853
0.0438492
0.0438461
0.0438427
0.0438381
0.0438343
0.0438307
0.0438237
0.0438137
0.0438072
0.0438023
0.0437995
0.043799
0.0437993
0.0437985
0.0437962
0.0437935
0.043791
0.0437883
0.0437834
0.043774
0.0437692
0.0437668
0.0437649
0.0437662
0.0437715
0.0437802
0.0437935
0.043804
0.0438085
0.043807
0.0438022
0.0437949
0.043787
0.0437755
0.0437607
0.0437505
0.0437461
0.043749
0.0437569
0.0437849
0.0438463
0.0438864
0.0439122
0.043957
0.043999
0.0440013
0.0439979
0.0439745
0.0438876
0.0437702
0.0618593
0.128742
0.285263
0.480038
0.665387
0.756484
0.792125
0.797344
0.805352
0.800836
0.787472
0.789709
0.797186
0.804744
0.807351
0.805834
0.803633
0.803585
0.806625
0.812866
0.820227
0.825707
0.828195
0.83162
0.834863
0.839971
0.844392
0.852038
0.858181
0.85828
0.861073
0.867238
0.873848
0.872728
0.875365
0.8818
0.887383
0.886823
0.88742
0.891267
0.889652
0.887204
0.889503
0.0438679
0.043864
0.0438571
0.0438452
0.0438375
0.0438315
0.0438251
0.0438209
0.0438178
0.0438138
0.0438079
0.0438035
0.0437989
0.0437915
0.043785
0.0437817
0.0437811
0.0437834
0.0437878
0.0437926
0.0437966
0.0437988
0.0437998
0.0438007
0.0437996
0.0437951
0.0437916
0.0437903
0.0437908
0.0437918
0.043794
0.0437974
0.0438023
0.0438085
0.0438077
0.0437959
0.0437795
0.0437672
0.0437643
0.0437652
0.0437641
0.0437569
0.0437571
0.0437674
0.0437898
0.0438236
0.0438831
0.0439319
0.0439443
0.043956
0.0439786
0.0439771
0.0439602
0.0439405
0.0439066
0.0437943
0.0437123
0.043723
0.0437264
0.0437047
0.0689001
0.164845
0.357382
0.560364
0.684764
0.765325
0.773821
0.782767
0.79957
0.811573
0.810018
0.807154
0.80303
0.803629
0.80708
0.813411
0.818887
0.824096
0.829171
0.830951
0.833425
0.837987
0.843797
0.847955
0.851808
0.856191
0.862257
0.865018
0.86724
0.871327
0.876134
0.879048
0.881879
0.886797
0.885725
0.88421
0.885432
0.889477
0.890669
0.892757
0.0438248
0.0438212
0.0438164
0.0438118
0.0438065
0.0437984
0.0437903
0.0437871
0.0437853
0.0437826
0.0437781
0.0437755
0.0437722
0.0437683
0.0437671
0.0437688
0.0437748
0.0437851
0.0437983
0.0438133
0.0438244
0.0438294
0.0438324
0.0438356
0.0438344
0.0438288
0.0438253
0.0438252
0.043827
0.0438298
0.0438295
0.0438255
0.0438186
0.0438072
0.0437853
0.0437561
0.0437418
0.0437434
0.0437532
0.0437603
0.0437639
0.0437761
0.0438014
0.0438395
0.0438771
0.0439152
0.0439573
0.0439694
0.043969
0.0439716
0.0439651
0.0439313
0.0438855
0.0438538
0.0438104
0.0437252
0.0436889
0.0436953
0.0437154
0.0437191
0.0437382
0.0438305
0.0470449
0.0941229
0.22965
0.432939
0.632148
0.757919
0.807755
0.806646
0.809345
0.799533
0.803023
0.806078
0.812383
0.8185
0.822879
0.827253
0.831775
0.834584
0.836999
0.840557
0.845629
0.849809
0.853077
0.858837
0.865324
0.8678
0.869413
0.872284
0.875545
0.878245
0.880694
0.884317
0.88807
0.887324
0.888098
0.890413
0.893099
0.893925
0.043809
0.0438067
0.0438038
0.0438009
0.0437974
0.0437926
0.0437876
0.0437841
0.0437817
0.0437797
0.0437791
0.0437792
0.0437792
0.043781
0.0437871
0.043798
0.0438098
0.0438229
0.0438426
0.0438613
0.043866
0.0438652
0.0438635
0.0438608
0.0438527
0.0438404
0.0438367
0.0438369
0.0438383
0.0438393
0.0438376
0.0438228
0.0437952
0.0437681
0.0437415
0.0437266
0.0437267
0.0437357
0.043753
0.0437658
0.043793
0.0438507
0.043907
0.0439429
0.0439612
0.0439681
0.0439725
0.0439757
0.0439719
0.0439604
0.0439252
0.0438539
0.0437983
0.0437658
0.043732
0.0436915
0.0436837
0.0436898
0.0437272
0.0437917
0.0439322
0.0441389
0.0442987
0.0444279
0.0443796
0.0581321
0.150905
0.348175
0.582701
0.7007
0.782599
0.784324
0.807482
0.814959
0.82176
0.820875
0.826474
0.831085
0.833724
0.837773
0.840257
0.843547
0.848723
0.853358
0.857291
0.861196
0.865428
0.868226
0.870138
0.872703
0.878382
0.882557
0.88339
0.884813
0.888435
0.890255
0.891988
0.892883
0.894443
0.894963
0.0438081
0.0438075
0.0438067
0.0438052
0.0437994
0.0437934
0.0437927
0.0437938
0.0437957
0.0437988
0.0438025
0.0438057
0.04381
0.0438194
0.0438406
0.0438537
0.0438569
0.0438629
0.0438759
0.0438816
0.043881
0.0438769
0.0438706
0.0438625
0.0438442
0.0438296
0.0438271
0.0438216
0.0438167
0.0438158
0.0438076
0.0437778
0.043751
0.0437345
0.0437232
0.0437222
0.0437247
0.0437424
0.0437802
0.0438237
0.0438977
0.0439744
0.0440016
0.0440027
0.0439957
0.0439801
0.0439659
0.0439437
0.0439215
0.0439012
0.0438633
0.0437849
0.0437296
0.0437042
0.0436951
0.0436841
0.0436954
0.0437386
0.0438227
0.0439837
0.0442572
0.0443995
0.044414
0.044487
0.0446276
0.044583
0.0446215
0.047704
0.105772
0.275828
0.516206
0.690402
0.789956
0.800209
0.825984
0.822057
0.835416
0.832581
0.834683
0.841874
0.844723
0.848315
0.851545
0.855039
0.859159
0.862408
0.866585
0.871331
0.874675
0.876574
0.878903
0.882101
0.884268
0.885559
0.887984
0.890436
0.892289
0.891135
0.892928
0.894636
0.0438239
0.0438254
0.0438265
0.0438275
0.0438288
0.0438308
0.0438344
0.0438384
0.0438425
0.0438484
0.0438529
0.0438561
0.043862
0.0438752
0.0438829
0.0438831
0.0438806
0.043881
0.0438816
0.0438803
0.0438731
0.0438533
0.0438321
0.0438093
0.0437827
0.0437748
0.0437726
0.0437745
0.0437771
0.0437776
0.0437696
0.043744
0.0437298
0.0437299
0.0437342
0.0437421
0.0437631
0.0438113
0.0438698
0.0439421
0.0440257
0.0440419
0.0440364
0.0440227
0.0440009
0.0439595
0.0438927
0.0438416
0.043837
0.0438359
0.0438216
0.0437591
0.0436956
0.0436839
0.0436878
0.0437132
0.0438282
0.0440531
0.0442568
0.0444035
0.0446254
0.044686
0.0445281
0.0444664
0.0446767
0.0451222
0.0459555
0.0468351
0.0471364
0.0475134
0.0800801
0.226715
0.461708
0.648432
0.775819
0.803363
0.845916
0.830665
0.839208
0.842578
0.842701
0.851346
0.85376
0.856908
0.861599
0.864243
0.867312
0.871528
0.874587
0.875969
0.877348
0.881022
0.886075
0.889248
0.891484
0.893662
0.895129
0.89435
0.895337
0.896934
0.0438783
0.0438801
0.0438818
0.0438823
0.0438824
0.0438827
0.0438826
0.043882
0.0438818
0.043881
0.0438805
0.0438824
0.0438835
0.0438824
0.0438783
0.0438685
0.0438521
0.0438371
0.0438291
0.0438222
0.0438069
0.0437825
0.0437554
0.0437328
0.0437228
0.043717
0.0437182
0.043734
0.0437559
0.0437599
0.0437562
0.0437577
0.0437687
0.0437911
0.0438127
0.0438359
0.0438749
0.0439167
0.0439683
0.0440415
0.0440623
0.0440571
0.0440377
0.0440107
0.0439719
0.0438887
0.0437889
0.0437722
0.0437821
0.0438075
0.0438043
0.0437576
0.0436928
0.0436902
0.0437314
0.0438829
0.0441897
0.0445972
0.044987
0.0449976
0.0449831
0.0450877
0.045054
0.0450184
0.0451612
0.0460615
0.0477588
0.0489103
0.0494461
0.0502966
0.0511811
0.0517513
0.0693319
0.187866
0.402306
0.625714
0.757517
0.799905
0.849433
0.848416
0.846787
0.85361
0.849791
0.857598
0.863858
0.865879
0.869161
0.871378
0.874074
0.87782
0.881622
0.885643
0.889193
0.890095
0.890474
0.892176
0.894238
0.894413
0.894525
0.89506
0.0438823
0.0438865
0.0438896
0.0438893
0.0438873
0.0438861
0.0438831
0.0438759
0.0438593
0.0438413
0.0438326
0.0438235
0.0438083
0.0437946
0.0437822
0.0437622
0.0437456
0.0437444
0.0437477
0.0437506
0.0437483
0.0437408
0.0437196
0.0437069
0.0437034
0.0436953
0.0436967
0.0437159
0.0437724
0.0438264
0.0438442
0.0438602
0.0438888
0.0439103
0.0439259
0.0439469
0.0439676
0.0439862
0.0440212
0.0440525
0.0440497
0.0440305
0.0440004
0.0439742
0.0439363
0.0438382
0.0437512
0.0437484
0.0437638
0.0438133
0.0438295
0.0438201
0.0438031
0.0438469
0.044044
0.0443846
0.0447678
0.0451098
0.0455769
0.0456406
0.0456075
0.045721
0.0462005
0.0468559
0.0476008
0.0487781
0.0498509
0.0508422
0.0518318
0.0528634
0.0541274
0.0555887
0.0564154
0.0572025
0.0644546
0.152287
0.337183
0.579243
0.740854
0.805566
0.845621
0.869799
0.854662
0.864213
0.859962
0.865333
0.874576
0.875745
0.877324
0.879413
0.882474
0.885707
0.888469
0.89073
0.892334
0.89388
0.895022
0.896583
0.897694
0.898625
0.0437685
0.0437648
0.0437576
0.04375
0.043744
0.0437349
0.0437238
0.0437092
0.0436904
0.0436778
0.0436671
0.0436645
0.0436683
0.0436723
0.0436758
0.0436783
0.0436816
0.043688
0.0437033
0.0437177
0.0437244
0.0437323
0.0437367
0.0437335
0.043731
0.0437365
0.0437683
0.0438391
0.043958
0.0440064
0.0439988
0.0439878
0.0439926
0.0439931
0.0439952
0.0440094
0.0440244
0.044026
0.0440235
0.0440381
0.0440417
0.0440223
0.0439939
0.0439724
0.043939
0.0438362
0.0437555
0.0437609
0.0438187
0.0439878
0.0441857
0.0443738
0.0445951
0.04485
0.045094
0.0453888
0.0456549
0.0457673
0.0460294
0.0464822
0.0468649
0.0473476
0.0481847
0.0493022
0.0508407
0.0519244
0.0523383
0.0530817
0.0542538
0.0552655
0.0564243
0.0581356
0.0596637
0.0612882
0.0622297
0.0626869
0.0634515
0.1251
0.289175
0.535307
0.724777
0.797052
0.840677
0.890232
0.863384
0.872667
0.870689
0.869655
0.877881
0.883009
0.887182
0.888516
0.889356
0.891224
0.89343
0.895647
0.895947
0.896623
0.897753
0.898476
0.0435144
0.043533
0.0435343
0.0435308
0.0435274
0.0435276
0.0435361
0.0435598
0.0435765
0.0435786
0.043582
0.0435927
0.043612
0.0436363
0.0436623
0.0436891
0.0437171
0.0437531
0.0437928
0.043828
0.0438779
0.0439685
0.0440119
0.0440112
0.0440085
0.0440189
0.0440569
0.0441377
0.0441531
0.0441422
0.0441078
0.0440863
0.0440814
0.0440632
0.0440423
0.0440478
0.0440835
0.044079
0.0440779
0.0441013
0.0441024
0.0440828
0.044082
0.0440889
0.0440777
0.0439929
0.0439793
0.0440307
0.0441604
0.0444288
0.0448663
0.0453841
0.0458708
0.0463766
0.0466887
0.0468946
0.0471273
0.0472217
0.0473557
0.0478442
0.0488142
0.0500383
0.0511587
0.0524385
0.0537417
0.054579
0.0553549
0.0561107
0.0571236
0.0583242
0.0595957
0.0612339
0.0629675
0.0639331
0.064524
0.065792
0.0679849
0.0700963
0.070481
0.108262
0.25101
0.477743
0.698891
0.800989
0.838805
0.897316
0.879444
0.873041
0.877394
0.877463
0.886443
0.891244
0.892881
0.893202
0.893746
0.895372
0.897778
0.899976
0.900666
0.900566
0.043495
0.04353
0.0435597
0.0435741
0.0435801
0.0435914
0.0436213
0.043674
0.0437388
0.0437997
0.0438471
0.0438854
0.0439296
0.0439886
0.044047
0.0440993
0.0441517
0.0441952
0.0442229
0.0442493
0.0442995
0.0443548
0.0443634
0.0443577
0.0443335
0.0443181
0.0443204
0.0443202
0.0443081
0.0442617
0.0441863
0.0441597
0.0441617
0.0441593
0.0441554
0.0441773
0.0441856
0.0441493
0.044138
0.0441436
0.04413
0.0441297
0.0441595
0.0442356
0.0443934
0.0446466
0.0449579
0.0452821
0.0456395
0.0460522
0.0465004
0.0469602
0.0474103
0.0479069
0.0483497
0.0486786
0.0489771
0.0494575
0.0501672
0.0510457
0.0522776
0.0535209
0.0548386
0.0559474
0.0565709
0.0573981
0.0584078
0.0593796
0.0604921
0.0621456
0.0635955
0.0647628
0.0659147
0.066456
0.0676601
0.0695704
0.0713503
0.0731927
0.0744784
0.0746772
0.0752631
0.0971023
0.213912
0.428435
0.671633
0.801418
0.847166
0.886789
0.89927
0.884014
0.888073
0.886654
0.892004
0.89648
0.898568
0.898556
0.89845
0.899719
0.900729
0.900887
0.0438911
0.0439366
0.0439886
0.0440457
0.0441018
0.0441547
0.0442069
0.0442516
0.0442981
0.0443405
0.0443722
0.0443984
0.0444226
0.0444488
0.0444769
0.0445001
0.0445234
0.0445388
0.0445304
0.0445202
0.0445231
0.0445335
0.0445298
0.044513
0.0444966
0.0444707
0.0444252
0.0443657
0.044325
0.0442907
0.0442355
0.0442086
0.0442285
0.0442564
0.0442624
0.0442969
0.0443176
0.0443358
0.0444002
0.044552
0.0447464
0.0449606
0.0452132
0.0455795
0.046084
0.046696
0.0473211
0.0478928
0.0484347
0.0488256
0.0490509
0.0492404
0.0494441
0.0496783
0.0501778
0.0508758
0.0516573
0.0528038
0.0541294
0.0556453
0.0569097
0.0579335
0.0586951
0.0591056
0.059587
0.0602594
0.0613625
0.0628989
0.0645001
0.0659758
0.0673292
0.067959
0.0686445
0.0700489
0.0717371
0.0739658
0.0751304
0.0755884
0.0771231
0.0790175
0.080806
0.0822664
0.0832656
0.0924813
0.188554
0.389192
0.645594
0.809443
0.849722
0.876153
0.907137
0.890586
0.894642
0.892379
0.89702
0.901117
0.902486
0.902278
0.901143
0.901681
0.0445963
0.0446015
0.0446132
0.0446288
0.0446474
0.0446552
0.0446496
0.0446489
0.0446611
0.0446631
0.0446508
0.0446555
0.0446452
0.0446374
0.0446449
0.0446474
0.044651
0.0446557
0.0446381
0.0446003
0.0445968
0.0446004
0.0445891
0.0445487
0.0445462
0.0445532
0.0445329
0.0444422
0.0443994
0.0444274
0.0444734
0.04453
0.0446347
0.0448172
0.0451059
0.0454614
0.0458453
0.0462398
0.0466609
0.0470854
0.0475358
0.0480023
0.0484697
0.0489057
0.0492965
0.0496623
0.0499997
0.0503086
0.0506655
0.0510685
0.0513301
0.0516373
0.0521827
0.0529502
0.0540244
0.0552001
0.0566576
0.0579494
0.0590798
0.059909
0.0605792
0.0612913
0.0615734
0.0620567
0.0628683
0.064116
0.0656243
0.0673213
0.0688105
0.0698451
0.0707432
0.0713513
0.0723785
0.0740922
0.0758995
0.0775725
0.0790546
0.0795618
0.0803934
0.0826183
0.0846662
0.0859946
0.0882001
0.0892526
0.0898218
0.0922606
0.175674
0.378612
0.615361
0.800822
0.863604
0.881531
0.912796
0.897522
0.900907
0.898505
0.901956
0.904346
0.904666
0.904784
0.0445863
0.0445918
0.0446012
0.0445879
0.0445826
0.0445912
0.0446003
0.0446147
0.0446338
0.0446307
0.0446274
0.0446371
0.0446397
0.0446448
0.0446647
0.0446929
0.0447256
0.0447724
0.0448076
0.0448494
0.0449085
0.0450114
0.0451705
0.0453666
0.045552
0.0457251
0.0459146
0.046147
0.0464202
0.0467358
0.0470731
0.0474381
0.0478369
0.0482553
0.0486804
0.0490793
0.0494484
0.0497996
0.0501382
0.050489
0.0508513
0.0511918
0.0514901
0.0517548
0.0520425
0.0523159
0.0526341
0.0530692
0.0536889
0.0545443
0.0554733
0.0565491
0.0576485
0.0588608
0.0599074
0.0608644
0.0616233
0.0622119
0.0627024
0.0628624
0.0632261
0.063803
0.0647697
0.0661759
0.067737
0.0694195
0.0708815
0.0717695
0.0725647
0.0731566
0.0738121
0.0751019
0.0765977
0.0785294
0.0802997
0.0808481
0.0820895
0.0837863
0.0848913
0.0863922
0.088547
0.0899525
0.0919049
0.0930858
0.0944666
0.0971318
0.0988786
0.0996336
0.16599
0.35886
0.605057
0.805139
0.870005
0.887281
0.916171
0.907004
0.905817
0.902371
0.905256
0.907977
0.0456247
0.0457227
0.0458149
0.04592
0.0460367
0.0461539
0.0462658
0.0463727
0.0464886
0.0466106
0.0467257
0.0468451
0.0469899
0.0471696
0.047357
0.0475285
0.0477153
0.0479213
0.0481427
0.0483827
0.0486291
0.0488811
0.0491479
0.0494165
0.0496748
0.0499488
0.05025
0.0505477
0.0508399
0.0511346
0.0514146
0.0516699
0.0519027
0.052142
0.0523703
0.0526089
0.0528592
0.0531373
0.0534525
0.0538173
0.0541743
0.0545817
0.0550828
0.0556641
0.0563352
0.0570175
0.0578293
0.0587082
0.0596608
0.0605116
0.0614197
0.0622804
0.0630461
0.0636512
0.06408
0.0645323
0.0648021
0.0652223
0.0657028
0.0663574
0.0673384
0.0686755
0.070488
0.0720141
0.0733093
0.074163
0.0749039
0.0753359
0.0757973
0.076629
0.0781353
0.0801222
0.0819381
0.0831488
0.0847313
0.0855484
0.0860449
0.0876603
0.0899474
0.0916006
0.0938443
0.0952232
0.0958206
0.0975084
0.0996279
0.101799
0.103742
0.105234
0.106191
0.107343
0.164883
0.360314
0.607805
0.812714
0.868622
0.900263
0.9181
0.908578
0.911049
0.906986
0.0504357
0.0505116
0.0505972
0.0506844
0.0507772
0.0508678
0.0509543
0.0510431
0.0511349
0.0512298
0.0513335
0.0514437
0.0515578
0.051671
0.0517875
0.0519154
0.0520548
0.0522016
0.0523538
0.0525116
0.0526788
0.0528555
0.0530383
0.0532325
0.0534536
0.0536949
0.0539489
0.0542099
0.0544852
0.0547682
0.0550653
0.0553859
0.0557382
0.0561122
0.0565216
0.0569707
0.0574405
0.0579835
0.0585477
0.0591409
0.0597541
0.0604778
0.0612292
0.0619835
0.0626674
0.0633689
0.0640153
0.0645838
0.0650542
0.0654478
0.0658301
0.0662173
0.0667161
0.0670835
0.0674764
0.0679691
0.0687158
0.069782
0.071062
0.072607
0.0739097
0.0750794
0.076063
0.0767546
0.0774496
0.0777951
0.0782787
0.0791641
0.0803321
0.0821847
0.0840894
0.085744
0.0873552
0.0878269
0.0883979
0.0897785
0.0913022
0.0929426
0.0954274
0.0969508
0.0979839
0.0992293
0.100451
0.102197
0.104948
0.106284
0.108103
0.110383
0.111953
0.114033
0.115605
0.11664
0.172299
0.365276
0.610247
0.827968
0.875333
0.900099
0.926436
0.911918
0.0545762
0.054662
0.0547804
0.0549224
0.0550696
0.0552138
0.0553501
0.0554858
0.0556365
0.0558
0.0559761
0.0561631
0.0563512
0.0565421
0.0567419
0.0569579
0.0571909
0.0574302
0.0576836
0.0579475
0.0582204
0.0585077
0.0588144
0.0591379
0.0594749
0.0598281
0.0601938
0.0605642
0.06096
0.0613769
0.0618142
0.0622418
0.0626852
0.0631202
0.0635375
0.0639311
0.0643342
0.0647247
0.0651188
0.0655103
0.065928
0.0663479
0.0667249
0.0670924
0.0674614
0.0678503
0.0682045
0.0686241
0.06899
0.0693795
0.0697849
0.0703766
0.0711619
0.0720794
0.0731056
0.0741582
0.0753911
0.0765566
0.0775996
0.0785932
0.0793242
0.0798713
0.0802162
0.0806929
0.0813042
0.082279
0.0836197
0.0852392
0.08717
0.0886851
0.0899785
0.0907418
0.0917175
0.0925416
0.0932305
0.0949127
0.0974785
0.0991797
0.10091
0.101925
0.102402
0.104147
0.106445
0.108636
0.110716
0.111991
0.113568
0.115985
0.118198
0.119736
0.121132
0.123276
0.12502
0.126182
0.184503
0.375118
0.627947
0.834353
0.885337
0.905977
0.0615076
0.0616171
0.0617309
0.0618487
0.0619761
0.0621169
0.0622711
0.0624288
0.0625787
0.0627277
0.0628861
0.0630589
0.0632385
0.0634142
0.0635953
0.0637811
0.0639751
0.0641781
0.0643794
0.0645866
0.0647931
0.0650027
0.0652177
0.0654353
0.0656568
0.0658826
0.0661107
0.066349
0.0665925
0.0668498
0.0671145
0.0673893
0.0676678
0.0679408
0.068228
0.0685287
0.068842
0.0691569
0.0694874
0.0698234
0.0701855
0.0705431
0.070946
0.0713895
0.0718968
0.0724641
0.0731087
0.0738666
0.0747097
0.0756073
0.0765362
0.0775374
0.0784586
0.0793691
0.0802406
0.0810068
0.081683
0.0822025
0.0826583
0.0830965
0.0837844
0.0843406
0.0850503
0.0860254
0.0873094
0.0890395
0.090678
0.0921179
0.0935614
0.0943151
0.0950489
0.0956056
0.0963115
0.0978869
0.100183
0.101917
0.10376
0.105019
0.105657
0.107028
0.108955
0.110651
0.11274
0.114455
0.115983
0.118204
0.119559
0.120659
0.122951
0.125154
0.127145
0.129526
0.131707
0.134044
0.135252
0.136109
0.203124
0.407337
0.652988
0.859665
0.0674345
0.06752
0.0676263
0.0677353
0.067841
0.0679395
0.0680359
0.0681414
0.0682722
0.068421
0.0685732
0.0687153
0.0688503
0.068994
0.0691552
0.0693301
0.0695082
0.0696859
0.0698689
0.0700562
0.0702465
0.0704452
0.070651
0.0708671
0.0710925
0.0713306
0.0715881
0.0718641
0.0721636
0.0724809
0.0728197
0.0731802
0.0735678
0.0739896
0.0744492
0.0749402
0.0754568
0.075998
0.0765577
0.0771203
0.0776956
0.0782906
0.0789082
0.0795352
0.0801554
0.0807671
0.0813904
0.0819589
0.0824985
0.0830889
0.0837146
0.0842738
0.0846861
0.0851324
0.0855922
0.0860926
0.0865124
0.0870592
0.0876679
0.08844
0.0895278
0.0909235
0.0924622
0.0940372
0.0954008
0.0965675
0.0976627
0.0983684
0.0990453
0.0998813
0.100646
0.101898
0.103462
0.105345
0.107498
0.108709
0.109779
0.111215
0.11212
0.11346
0.115468
0.117221
0.119387
0.121224
0.122428
0.124195
0.12601
0.127574
0.129473
0.131712
0.134067
0.136142
0.137707
0.139445
0.141364
0.143599
0.144724
0.147617
0.212815
0.549992
0.0747594
0.0748606
0.0749673
0.0750768
0.0752029
0.0753422
0.0754804
0.0756114
0.0757419
0.0758913
0.0760651
0.0762399
0.0764088
0.0765803
0.076763
0.0769555
0.0771575
0.0773727
0.0775974
0.0778303
0.0780731
0.0783279
0.0785966
0.0788778
0.0791702
0.0794654
0.0797652
0.0800731
0.0803847
0.0806966
0.0810101
0.0813306
0.0816591
0.0819968
0.0823374
0.0826886
0.0830509
0.0834217
0.0838004
0.0841841
0.0845776
0.0849643
0.0853577
0.0857527
0.0861763
0.0865856
0.087033
0.0874065
0.0878199
0.0882981
0.0888832
0.0894263
0.0899628
0.090595
0.091443
0.0924954
0.0936231
0.0948648
0.0962005
0.097525
0.0986874
0.0998394
0.10082
0.101701
0.102639
0.103146
0.103819
0.104357
0.105021
0.106331
0.108127
0.110041
0.111995
0.113263
0.114522
0.115903
0.116579
0.117728
0.119559
0.121302
0.123115
0.124947
0.126454
0.128219
0.129673
0.131122
0.133243
0.135642
0.137251
0.138691
0.140329
0.141929
0.14373
0.145561
0.147563
0.149717
0.151467
0.153579
0.154385
0.201388
0.0824501
0.0825534
0.0826729
0.0827923
0.0829043
0.0830126
0.0831213
0.083242
0.0833966
0.0835492
0.0836752
0.0837979
0.0839468
0.0841205
0.0842997
0.0844739
0.0846449
0.0848235
0.0850203
0.0852282
0.0854436
0.0856649
0.0858883
0.0861136
0.0863417
0.0865782
0.0868214
0.0870743
0.0873289
0.0875978
0.0878792
0.0881847
0.0885
0.0888277
0.0891679
0.0895232
0.0898863
0.0902618
0.0906504
0.0910725
0.091525
0.0920088
0.0925165
0.0930534
0.0936495
0.0943101
0.0950551
0.0958864
0.0967417
0.0975575
0.0983905
0.0992794
0.100265
0.101213
0.102082
0.102896
0.103725
0.1045
0.105235
0.105993
0.106508
0.107064
0.107458
0.107893
0.108725
0.109686
0.110732
0.112202
0.113983
0.115786
0.117619
0.119001
0.120458
0.121425
0.122073
0.123169
0.1246
0.125899
0.127703
0.129604
0.13137
0.133084