/*--------------------------------*- C++ -*----------------------------------*\
  =========                 |
  \\      /  F ield         | OpenFOAM: The Open Source CFD Toolbox
   \\    /   O peration     | Website:  https://openfoam.org
    \\  /    A nd           | Version:  7
     \\/     M anipulation  |
\*---------------------------------------------------------------------------*/
FoamFile
{
    version     2.0;
    format      ascii;
    class       volScalarField;
    location    "13.5";
    object      T;
}
// * * * * * * * * * * * * * * * * * * * * * * * * * * * * * * * * * * * * * //

dimensions      [0 0 0 1 0 0 0];

internalField   nonuniform List<scalar> 
90000
(
2.418
2.38953
2.3582
2.35421
2.35067
2.33501
2.30202
2.2592
2.21349
2.16399
2.11143
2.05875
2.00689
1.95755
1.90997
1.86389
1.82076
1.77962
1.74191
1.70719
1.67509
1.64501
1.61682
1.59023
1.56538
1.54256
1.52103
1.50066
1.48063
1.46133
1.44267
1.42478
1.40781
1.39232
1.37825
1.36525
1.35397
1.34418
1.33484
1.32558
1.31611
1.30649
1.29733
1.28897
1.28122
1.27342
1.26587
1.25904
1.2528
1.24768
1.2436
1.24399
1.24573
1.2475
1.25084
1.25494
1.25893
1.2623
1.26405
1.26523
1.26604
1.26566
1.26362
1.26117
1.26085
1.26091
1.26206
1.26519
1.26942
1.27324
1.2747
1.27534
1.2743
1.27337
1.27442
1.2777
1.2822
1.286
1.28639
1.28708
1.28779
1.28987
1.29507
1.29594
1.29809
1.29753
1.30014
1.30182
1.30297
1.30343
1.30357
1.3061
1.30616
1.30707
1.30851
1.30742
1.30784
1.30802
1.30781
1.30817
2.75268
2.73486
2.71627
2.70109
2.68927
2.6774
2.66309
2.647
2.62856
2.60655
2.5796
2.54799
2.51327
2.47641
2.43713
2.39714
2.35644
2.31674
2.27691
2.23835
2.19939
2.16169
2.12455
2.08814
2.05149
2.01478
1.9772
1.93912
1.89965
1.85904
1.81688
1.77361
1.7294
1.68517
1.64159
1.59963
1.56033
1.52453
1.49213
1.46311
1.43623
1.41199
1.38948
1.36954
1.35143
1.33552
1.32087
1.30796
1.29598
1.28587
1.27786
1.27263
1.27058
1.26965
1.26926
1.26945
1.26974
1.26965
1.26886
1.26712
1.26519
1.26231
1.25886
1.25894
1.26011
1.2632
1.26736
1.27206
1.27644
1.27718
1.27693
1.27682
1.27681
1.27843
1.28181
1.28667
1.28899
1.2913
1.29041
1.29153
1.29317
1.29735
1.30043
1.30108
1.30203
1.30218
1.30532
1.30576
1.3072
1.30756
1.30832
1.31071
1.31036
1.31117
1.31171
1.31043
1.3107
1.31015
1.30969
1.30939
2.70602
2.70864
2.70984
2.70867
2.7059
2.70307
2.70263
2.70277
2.70161
2.69974
2.69718
2.69347
2.68693
2.67818
2.66719
2.654
2.63859
2.62069
2.6004
2.57851
2.55533
2.53189
2.5077
2.48296
2.45697
2.42982
2.40105
2.37123
2.33977
2.30681
2.27079
2.23119
2.18713
2.13924
2.08771
2.03433
1.97964
1.92502
1.87093
1.81905
1.76914
1.72211
1.67717
1.635
1.5951
1.55805
1.52327
1.49107
1.46077
1.43264
1.40687
1.38362
1.36276
1.34542
1.32925
1.3148
1.30122
1.28964
1.27945
1.27044
1.265
1.26272
1.26241
1.26416
1.26745
1.27118
1.27378
1.27586
1.2776
1.27762
1.27756
1.27797
1.28031
1.28481
1.28897
1.29239
1.29388
1.29415
1.29412
1.29648
1.3001
1.30502
1.3047
1.30546
1.30542
1.30735
1.31052
1.31014
1.31158
1.31192
1.31337
1.31496
1.31435
1.31517
1.31506
1.31374
1.31415
1.31255
1.31212
1.31143
2.61117
2.60917
2.61422
2.62555
2.64173
2.65621
2.66585
2.6748
2.68304
2.68748
2.68754
2.68607
2.68341
2.68028
2.67712
2.6744
2.67213
2.6703
2.66916
2.66812
2.66679
2.66432
2.66046
2.65492
2.64791
2.63911
2.62793
2.61369
2.59718
2.57832
2.55733
2.53404
2.50796
2.4788
2.44598
2.40986
2.37142
2.3312
2.28719
2.2399
2.18961
2.1362
2.08178
2.02582
1.96699
1.9074
1.84724
1.7883
1.73024
1.67396
1.61934
1.56776
1.51938
1.47618
1.43797
1.40545
1.37683
1.35429
1.3347
1.31852
1.30573
1.29746
1.29296
1.28971
1.28709
1.28606
1.28467
1.28299
1.28105
1.27823
1.27866
1.28184
1.28759
1.29178
1.29522
1.29533
1.29576
1.29613
1.29832
1.30245
1.30744
1.3094
1.30887
1.30943
1.31073
1.31401
1.31488
1.31456
1.31596
1.31673
1.31865
1.31902
1.31848
1.31941
1.31866
1.3187
1.31865
1.31705
1.31557
1.31414
2.00867
2.18732
2.30934
2.42982
2.53052
2.60271
2.62237
2.63024
2.63652
2.64634
2.6571
2.66383
2.66812
2.67287
2.6759
2.67696
2.6763
2.67579
2.67572
2.67505
2.67398
2.67275
2.67227
2.67233
2.67271
2.67331
2.67437
2.67557
2.67612
2.67502
2.67156
2.66566
2.65783
2.64788
2.63588
2.62015
2.59999
2.57711
2.55241
2.52566
2.49618
2.46331
2.42704
2.39062
2.34976
2.30358
2.25122
2.19311
2.13219
2.06664
1.99599
1.92356
1.85181
1.78348
1.71882
1.65973
1.60467
1.55634
1.51179
1.47374
1.43906
1.40871
1.38101
1.35739
1.33646
1.31953
1.30589
1.29625
1.28955
1.2872
1.29009
1.29441
1.29777
1.29891
1.29961
1.29853
1.29826
1.29964
1.30421
1.30924
1.31238
1.31212
1.31226
1.31399
1.3162
1.31935
1.31847
1.31866
1.31978
1.32124
1.32332
1.32271
1.32272
1.32347
1.32261
1.32344
1.32323
1.32164
1.32047
1.31871
0.58183
0.681056
0.881549
1.18731
1.48299
1.9691
2.1801
2.30775
2.43129
2.52776
2.60332
2.63303
2.63992
2.64493
2.65088
2.65834
2.66122
2.66335
2.66786
2.67249
2.67581
2.67787
2.68035
2.68291
2.6848
2.68588
2.68658
2.68638
2.68561
2.68426
2.68306
2.68155
2.67978
2.67758
2.67546
2.67409
2.6728
2.66915
2.66308
2.65494
2.64473
2.63225
2.617
2.59634
2.57308
2.54729
2.51788
2.4833
2.44381
2.40137
2.35196
2.29485
2.23053
2.16423
2.0923
2.01687
1.94
1.8663
1.79416
1.72679
1.66275
1.60302
1.5471
1.49675
1.45278
1.4158
1.38589
1.36268
1.34486
1.33501
1.32968
1.3248
1.32004
1.31508
1.30936
1.30412
1.30461
1.30805
1.31274
1.3159
1.31602
1.31509
1.31583
1.31935
1.32175
1.32248
1.32148
1.32266
1.32495
1.32633
1.32693
1.32599
1.32674
1.32689
1.32693
1.32831
1.32789
1.3265
1.32535
1.32364
0.534739
0.534008
0.533287
0.532573
0.531772
0.531724
0.61731
0.834526
1.16519
1.49586
1.87866
2.17224
2.31025
2.43664
2.53593
2.61278
2.6529
2.65683
2.65733
2.66001
2.66528
2.66729
2.66801
2.67082
2.674
2.67604
2.67837
2.68082
2.68336
2.68539
2.68719
2.6881
2.68863
2.68831
2.68728
2.6855
2.68336
2.68103
2.67977
2.67745
2.67463
2.67123
2.66853
2.66739
2.66281
2.65559
2.64592
2.6334
2.61763
2.59469
2.56805
2.53842
2.50353
2.46359
2.42126
2.37074
2.31184
2.24705
2.17834
2.10354
2.02513
1.94737
1.86828
1.79006
1.71526
1.64544
1.58451
1.53082
1.48515
1.44488
1.41015
1.3825
1.36072
1.34595
1.3367
1.32958
1.32868
1.3294
1.32852
1.32676
1.32226
1.31984
1.32189
1.3267
1.32654
1.32521
1.32469
1.32705
1.32963
1.33004
1.32958
1.32915
1.33009
1.32987
1.33074
1.33192
1.33112
1.33068
1.33005
1.3287
0.529494
0.528983
0.528443
0.527881
0.527291
0.526735
0.525931
0.525073
0.524185
0.523401
0.522177
0.622631
0.863454
1.20876
1.55679
1.85607
2.17286
2.33521
2.46245
2.55753
2.61842
2.64738
2.6484
2.64908
2.65449
2.65945
2.66065
2.66245
2.66586
2.66915
2.67204
2.67438
2.67649
2.67801
2.67942
2.67999
2.68114
2.68218
2.68347
2.68341
2.68313
2.68211
2.68056
2.67782
2.67636
2.67371
2.67041
2.66634
2.66274
2.66079
2.65509
2.6467
2.63544
2.62095
2.59963
2.57339
2.54376
2.50773
2.46674
2.41964
2.36207
2.2975
2.22585
2.14525
2.05872
1.9694
1.88259
1.7998
1.72463
1.6564
1.59519
1.54324
1.49911
1.46358
1.43551
1.41312
1.39358
1.37592
1.35662
1.34374
1.33517
1.33551
1.33799
1.33806
1.33519
1.32987
1.33096
1.33514
1.33457
1.33318
1.33265
1.33304
1.33371
1.33317
1.33389
1.33392
1.3325
1.3321
1.33199
1.33251
0.524012
0.523523
0.523015
0.522478
0.521933
0.521358
0.520771
0.520176
0.519562
0.518934
0.518336
0.517457
0.516473
0.515594
0.514192
0.515766
0.647879
0.952789
1.33405
1.67287
1.94782
2.22478
2.38706
2.49986
2.5745
2.61123
2.62415
2.62814
2.63502
2.64104
2.64227
2.64309
2.64696
2.65169
2.65691
2.66036
2.66294
2.66533
2.66728
2.66904
2.67093
2.6728
2.67452
2.67646
2.67721
2.67712
2.67647
2.675
2.67255
2.66895
2.6674
2.66521
2.66271
2.66017
2.65864
2.65335
2.64574
2.63441
2.61771
2.59431
2.56917
2.5349
2.49129
2.43925
2.37952
2.3159
2.24347
2.15946
2.07231
1.98681
1.9056
1.83021
1.75771
1.68848
1.62306
1.56338
1.51222
1.47031
1.43844
1.41499
1.39629
1.38601
1.3747
1.35851
1.34746
1.34415
1.34658
1.34644
1.34227
1.33906
1.34004
1.34034
1.339
1.33787
1.33815
1.3373
1.33546
1.33422
1.33294
1.33307
0.518493
0.518017
0.517523
0.517003
0.516479
0.515928
0.515364
0.514768
0.514159
0.51351
0.512849
0.512153
0.511455
0.510732
0.510016
0.509233
0.508162
0.506994
0.505975
0.504406
0.537952
0.769938
1.17331
1.5707
1.86694
2.11317
2.3218
2.45507
2.53992
2.57918
2.59224
2.59917
2.60817
2.61451
2.61394
2.61561
2.62071
2.62708
2.63388
2.63999
2.64578
2.65054
2.65441
2.657
2.6589
2.66075
2.66222
2.6635
2.66451
2.66621
2.66719
2.66809
2.66851
2.66786
2.66643
2.66654
2.66526
2.66271
2.66003
2.65723
2.65085
2.64071
2.62652
2.59979
2.56267
2.52177
2.48695
2.45101
2.39873
2.3302
2.25122
2.17052
2.09141
2.01299
1.93142
1.84936
1.76903
1.69761
1.63543
1.5812
1.52962
1.48298
1.44445
1.41953
1.40095
1.39073
1.38171
1.36751
1.35618
1.35513
1.35414
1.35192
1.3489
1.34806
1.34668
1.3436
1.34048
1.33824
1.33623
1.3344
0.512778
0.512332
0.511857
0.51137
0.510862
0.510345
0.509801
0.509242
0.50865
0.508035
0.507396
0.506736
0.506056
0.505367
0.50466
0.503911
0.503141
0.502362
0.501568
0.500787
0.499885
0.498718
0.497637
0.496029
0.512531
0.680495
1.08587
1.52883
1.86142
2.11381
2.31262
2.44574
2.52175
2.55142
2.56443
2.57052
2.57888
2.5816
2.58452
2.58971
2.59683
2.60445
2.61102
2.61651
2.62181
2.62728
2.63241
2.63708
2.64075
2.64364
2.64658
2.64966
2.65295
2.65692
2.6616
2.6646
2.66697
2.66663
2.66753
2.6665
2.66401
2.66085
2.65919
2.65936
2.65197
2.63361
2.60773
2.58468
2.57276
2.5583
2.52406
2.46826
2.39974
2.32684
2.25334
2.17763
2.09658
2.00973
1.92199
1.83951
1.76071
1.68905
1.6268
1.57594
1.53132
1.48908
1.44879
1.422
1.40512
1.3937
1.37991
1.37175
1.36867
1.36517
1.36073
1.35652
1.35294
1.34889
1.34361
1.33862
0.507076
0.506675
0.506244
0.505787
0.505312
0.504821
0.504312
0.503786
0.503233
0.502664
0.502076
0.501467
0.500828
0.500187
0.49951
0.498825
0.498112
0.497405
0.49667
0.495939
0.495164
0.494378
0.493589
0.492848
0.492057
0.491055
0.49017
0.488916
0.510012
0.711379
1.14325
1.60478
1.93213
2.17523
2.34898
2.4556
2.50731
2.52603
2.53575
2.54184
2.54628
2.55069
2.55725
2.56335
2.57125
2.57916
2.58599
2.59154
2.59606
2.60142
2.60815
2.61569
2.62325
2.63037
2.63677
2.64226
2.64794
2.65234
2.6579
2.66136
2.66351
2.66405
2.66494
2.66575
2.668
2.66642
2.66039
2.64833
2.63697
2.6318
2.6306
2.62376
2.60018
2.55572
2.49719
2.43764
2.379
2.32004
2.25261
2.17457
2.08808
1.99925
1.91048
1.82673
1.74905
1.67805
1.61608
1.56346
1.51922
1.47557
1.44356
1.42262
1.40406
1.39122
1.38485
1.3805
1.37406
1.36673
1.35942
1.35069
0.501686
0.50132
0.500922
0.5005
0.500062
0.499603
0.499136
0.498647
0.498142
0.497616
0.497079
0.496525
0.495965
0.495389
0.494796
0.494181
0.493553
0.492926
0.492307
0.491692
0.491062
0.490445
0.489808
0.489208
0.488582
0.487962
0.487332
0.486737
0.486115
0.485263
0.484422
0.483173
0.547344
0.862223
1.34823
1.75838
2.05518
2.28161
2.40448
2.47066
2.49357
2.50581
2.5127
2.51588
2.51982
2.52766
2.53473
2.54277
2.54959
2.55654
2.56372
2.57024
2.57713
2.5845
2.59253
2.60156
2.61166
2.62202
2.63089
2.63813
2.64403
2.64868
2.65354
2.65964
2.66574
2.6701
2.67274
2.67209
2.66691
2.65942
2.65181
2.65331
2.65559
2.65339
2.63874
2.60932
2.5702
2.52375
2.47653
2.42505
2.36414
2.2949
2.22001
2.14239
2.05916
1.97216
1.88276
1.79678
1.71798
1.65181
1.59562
1.5471
1.50141
1.46587
1.4386
1.41761
1.4035
1.39646
1.38875
1.37271
0.496626
0.496269
0.495888
0.495499
0.495099
0.494686
0.494259
0.49382
0.493366
0.492903
0.492426
0.491936
0.491448
0.490961
0.490473
0.489973
0.489471
0.488959
0.488467
0.487976
0.487491
0.487002
0.486516
0.486023
0.485531
0.485017
0.484458
0.483862
0.483238
0.482582
0.481885
0.481203
0.48016
0.479127
0.477636
0.483301
0.690635
1.19128
1.64952
2.00342
2.26238
2.39623
2.45022
2.46978
2.48211
2.48914
2.49327
2.49706
2.50294
2.51155
2.52035
2.52711
2.53402
2.5398
2.54602
2.5536
2.56266
2.57351
2.58438
2.59554
2.60719
2.61738
2.62681
2.63475
2.64346
2.65361
2.66324
2.66844
2.66678
2.66443
2.66354
2.66204
2.65938
2.66139
2.66984
2.67281
2.66463
2.64417
2.61616
2.58698
2.55298
2.50973
2.459
2.40054
2.33349
2.25783
2.17807
2.09415
2.01022
1.9234
1.83674
1.75634
1.6858
1.62563
1.57387
1.52917
1.49098
1.4573
1.43069
1.40713
0.492139
0.491788
0.491422
0.49106
0.490701
0.490334
0.489954
0.489569
0.489174
0.488775
0.488372
0.487965
0.487563
0.487177
0.486794
0.486418
0.486037
0.48565
0.485275
0.484902
0.484511
0.484123
0.483707
0.483241
0.482772
0.482281
0.481733
0.48112
0.480472
0.479767
0.47902
0.478184
0.477303
0.476387
0.47551
0.474494
0.473322
0.472252
0.470833
0.639518
1.15358
1.65432
2.01396
2.2669
2.38906
2.43479
2.45059
2.45988
2.46536
2.47084
2.47956
2.48654
2.49491
2.5002
2.50501
2.5098
2.51546
2.52517
2.53596
2.54801
2.56032
2.572
2.58293
2.5925
2.60325
2.61818
2.63312
2.64612
2.65377
2.65761
2.65797
2.65699
2.65661
2.65838
2.6622
2.66522
2.67013
2.67504
2.67217
2.66352
2.65104
2.6351
2.61294
2.58117
2.5347
2.47865
2.41881
2.35473
2.28432
2.20667
2.1239
2.03803
1.95043
1.86779
1.79466
1.72943
1.6673
1.60651
1.55032
1.48428
0.487998
0.487715
0.487431
0.487145
0.486852
0.486545
0.486232
0.48592
0.485606
0.485297
0.484999
0.484697
0.484396
0.484094
0.483789
0.483487
0.483176
0.482858
0.482538
0.482195
0.481819
0.481444
0.481002
0.480493
0.479944
0.4794
0.478795
0.478136
0.47744
0.476656
0.475817
0.474967
0.474106
0.473238
0.472405
0.47157
0.47079
0.470014
0.469329
0.468576
0.467947
0.466998
0.667285
1.21159
1.70648
2.04787
2.28009
2.37822
2.41575
2.43081
2.44536
2.45304
2.45903
2.46255
2.46764
2.47174
2.47696
2.4859
2.4936
2.50311
2.51349
2.52565
2.53832
2.54896
2.55876
2.56898
2.58228
2.60081
2.61912
2.63284
2.64057
2.64446
2.64739
2.65071
2.65392
2.65792
2.66199
2.66555
2.66614
2.66339
2.66308
2.66206
2.65836
2.6507
2.6376
2.61508
2.58454
2.54319
2.49
2.43172
2.36719
2.2968
2.22161
2.14423
2.06708
1.99073
1.91354
1.8338
1.75609
1.64397
0.484646
0.48445
0.484252
0.484047
0.483836
0.48361
0.483365
0.483109
0.482847
0.482591
0.482344
0.482088
0.481822
0.481538
0.481243
0.48093
0.480597
0.480261
0.479909
0.479509
0.479074
0.478617
0.478091
0.477536
0.476938
0.476294
0.475616
0.474926
0.474257
0.473487
0.472674
0.471912
0.4712
0.470594
0.470038
0.469491
0.46897
0.468406
0.467807
0.467197
0.466567
0.465872
0.464879
0.463181
0.467388
0.749967
1.33771
1.78899
2.11197
2.29243
2.38008
2.40949
2.42652
2.42761
2.42965
2.43235
2.43942
2.45035
2.45759
2.46644
2.47363
2.48389
2.49585
2.50651
2.51662
2.52456
2.53397
2.54897
2.56609
2.58442
2.60132
2.61296
2.6203
2.62634
2.63168
2.63836
2.64592
2.65269
2.65693
2.65722
2.65551
2.65406
2.6511
2.64758
2.64852
2.64702
2.64083
2.62839
2.60808
2.57991
2.54335
2.49563
2.44027
2.3826
2.32315
2.25709
2.18077
2.09264
2.00325
1.86896
0.482227
0.482056
0.481881
0.481694
0.481489
0.481262
0.481007
0.480736
0.480458
0.480175
0.479891
0.479597
0.479275
0.478946
0.478606
0.478233
0.477832
0.477418
0.476972
0.476494
0.475975
0.475416
0.474811
0.474243
0.473654
0.473011
0.472371
0.471753
0.471154
0.470549
0.469989
0.469473
0.468993
0.468636
0.468314
0.467961
0.467504
0.466917
0.466214
0.465421
0.464545
0.463598
0.462537
0.461341
0.459857
0.458408
0.456724
0.501908
0.914293
1.4856
1.91361
2.19769
2.32484
2.37207
2.38668
2.39419
2.4027
2.41086
2.41896
2.43059
2.43639
2.44697
2.45746
2.4665
2.47762
2.48532
2.49402
2.50557
2.51535
2.5298
2.54834
2.56431
2.57787
2.59006
2.59842
2.60497
2.61428
2.62311
2.63196
2.63967
2.64528
2.6465
2.64593
2.64419
2.64223
2.63916
2.63458
2.63223
2.63025
2.623
2.61059
2.59338
2.57089
2.5427
2.50899
2.4643
2.408
2.33846
2.26037
2.1268
0.47996
0.479763
0.479554
0.479323
0.479063
0.478778
0.478472
0.478147
0.477814
0.477475
0.477129
0.476775
0.476407
0.476027
0.475635
0.475219
0.474771
0.474299
0.473801
0.473295
0.472775
0.472238
0.471696
0.471172
0.470658
0.470167
0.469697
0.469259
0.468844
0.468411
0.468036
0.46772
0.467406
0.467092
0.466788
0.466386
0.465815
0.465085
0.464184
0.463167
0.462139
0.461018
0.459829
0.45855
0.457351
0.456231
0.45546
0.455055
0.454832
0.45425
0.615731
1.17682
1.6629
2.01936
2.2159
2.30578
2.34591
2.37012
2.37731
2.38938
2.39188
2.40683
2.41692
2.42626
2.43871
2.44431
2.45607
2.46848
2.47435
2.48325
2.49811
2.50979
2.5246
2.54179
2.55492
2.5642
2.57598
2.58596
2.5947
2.606
2.61784
2.62569
2.63186
2.63574
2.63465
2.63231
2.63098
2.62758
2.6242
2.61832
2.60958
2.60435
2.59771
2.58848
2.57476
2.55687
2.53106
2.49237
2.44303
2.35822
0.477259
0.477034
0.476788
0.476511
0.476204
0.475877
0.475537
0.475178
0.474807
0.474435
0.47408
0.473706
0.473328
0.472955
0.472579
0.472198
0.471806
0.471404
0.470995
0.47058
0.470182
0.469804
0.469411
0.469001
0.468609
0.468258
0.467934
0.467635
0.467327
0.466957
0.46655
0.466174
0.46574
0.465244
0.464717
0.464073
0.463269
0.462322
0.461261
0.46021
0.459192
0.458168
0.457185
0.456275
0.45552
0.454907
0.454706
0.454463
0.454215
0.453806
0.453028
0.451238
0.462354
0.820567
1.39481
1.8089
2.09438
2.24013
2.30638
2.33782
2.344
2.36861
2.36714
2.37526
2.39252
2.3963
2.41333
2.43034
2.43238
2.44018
2.45389
2.45835
2.46935
2.48746
2.50022
2.51124
2.52601
2.53753
2.54731
2.56119
2.57735
2.58836
2.59765
2.60565
2.60967
2.61367
2.61932
2.62171
2.61934
2.61586
2.61047
2.60291
2.59695
2.58984
2.57997
2.5694
2.55725
2.53712
2.51168
2.4703
0.474346
0.474077
0.473802
0.473528
0.473197
0.47284
0.472491
0.472135
0.471794
0.47149
0.471213
0.470929
0.470638
0.470369
0.470095
0.469824
0.469561
0.469303
0.469057
0.468782
0.468498
0.468244
0.467952
0.467608
0.467234
0.466864
0.46649
0.466107
0.465706
0.465211
0.464622
0.463978
0.463237
0.462483
0.461712
0.460913
0.46007
0.459177
0.458352
0.457634
0.456961
0.456342
0.455746
0.455235
0.454734
0.454572
0.454372
0.45412
0.453674
0.452891
0.451699
0.450228
0.448069
0.44607
0.443348
0.573827
1.095
1.60743
1.94974
2.14968
2.24379
2.30983
2.31136
2.32253
2.33552
2.33163
2.35521
2.37804
2.37912
2.3914
2.40909
2.40632
2.41396
2.43282
2.43867
2.44761
2.46444
2.47679
2.48619
2.50284
2.52001
2.5316
2.54327
2.55536
2.56359
2.57138
2.5819
2.5903
2.59505
2.5996
2.60105
2.59855
2.59282
2.58715
2.58023
2.57298
2.56468
2.55137
2.5347
2.51257
0.470684
0.470499
0.470319
0.470134
0.469935
0.469721
0.469509
0.469305
0.469138
0.469023
0.468926
0.468811
0.468683
0.468557
0.46841
0.468238
0.46806
0.467893
0.467695
0.467418
0.467134
0.466861
0.466526
0.466108
0.465648
0.465144
0.464558
0.463916
0.463233
0.462526
0.4618
0.461026
0.460196
0.459422
0.458702
0.458076
0.457567
0.457116
0.456824
0.456551
0.456238
0.455866
0.455442
0.454939
0.454535
0.454204
0.453771
0.453124
0.452139
0.450643
0.448863
0.446977
0.444995
0.443336
0.44187
0.441316
0.440527
0.457308
0.804165
1.35131
1.7646
2.02378
2.15169
2.22333
2.26316
2.25643
2.28055
2.2981
2.29791
2.3187
2.34371
2.33938
2.35029
2.37188
2.36825
2.37409
2.39306
2.40233
2.411
2.42887
2.4455
2.45496
2.46725
2.48156
2.49179
2.5027
2.51709
2.53035
2.54044
2.55124
2.56007
2.56529
2.5686
2.5703
2.56956
2.56493
2.55677
2.54763
2.5384
2.52802
0.46828
0.468257
0.468223
0.468164
0.468073
0.467957
0.46785
0.467748
0.467652
0.467583
0.467518
0.467439
0.467337
0.467201
0.46701
0.466764
0.46652
0.466262
0.465935
0.46557
0.465195
0.464767
0.464262
0.463737
0.463263
0.462584
0.461774
0.460996
0.460258
0.459614
0.45907
0.458599
0.458116
0.4577
0.457312
0.456985
0.456797
0.456666
0.456603
0.456464
0.456229
0.45584
0.455321
0.454724
0.454053
0.453185
0.45209
0.450692
0.449156
0.447312
0.445509
0.443911
0.442896
0.441878
0.441446
0.44152
0.442622
0.443354
0.444472
0.444764
0.586994
1.06479
1.52528
1.82513
1.9915
2.0977
2.17052
2.19073
2.20239
2.21913
2.23354
2.23348
2.25501
2.28345
2.28079
2.28795
2.30812
2.30953
2.31622
2.3364
2.3538
2.36078
2.37199
2.38588
2.39565
2.4076
2.42389
2.43823
2.45156
2.46683
2.48159
2.49367
2.50435
2.51366
2.52224
2.52844
2.52934
2.52742
2.52328
2.51765
0.467581
0.467459
0.467358
0.467243
0.467104
0.46695
0.466784
0.466604
0.466425
0.466243
0.466046
0.465836
0.465612
0.465341
0.465023
0.464676
0.464289
0.463849
0.463387
0.462952
0.462412
0.461741
0.461106
0.460634
0.460203
0.459655
0.459072
0.458659
0.45837
0.458161
0.458005
0.457862
0.457743
0.457649
0.45746
0.457191
0.457036
0.456918
0.456765
0.456431
0.455825
0.454979
0.453982
0.452892
0.451677
0.450295
0.448787
0.447216
0.445883
0.444932
0.443774
0.44265
0.442766
0.443826
0.445419
0.447241
0.449093
0.449853
0.450713
0.450573
0.450207
0.44975
0.471756
0.775144
1.22422
1.58149
1.79742
1.9297
2.02459
2.0889
2.09593
2.10986
2.12952
2.14491
2.1518
2.16707
2.19312
2.19626
2.20496
2.22292
2.23634
2.24337
2.25595
2.27229
2.28048
2.29063
2.30411
2.31637
2.33006
2.34805
2.36564
2.38099
2.3952
2.40662
2.41777
2.43264
2.44903
2.46485
2.47382
2.47404
0.466662
0.466499
0.46633
0.466159
0.466021
0.46587
0.465536
0.465133
0.464774
0.464306
0.463757
0.463306
0.462911
0.462435
0.461963
0.461534
0.461098
0.460675
0.460282
0.459773
0.459247
0.458773
0.458525
0.458451
0.458391
0.458262
0.458108
0.458118
0.458118
0.458107
0.45814
0.458187
0.458154
0.458009
0.457714
0.457246
0.4567
0.456008
0.455074
0.454023
0.452883
0.45176
0.450724
0.449753
0.44896
0.448006
0.446782
0.445512
0.44485
0.445227
0.446635
0.448833
0.451208
0.453233
0.454203
0.454883
0.454558
0.45448
0.454488
0.454121
0.454244
0.455224
0.45584
0.457619
0.458227
0.552996
0.895103
1.28416
1.55437
1.72681
1.84166
1.92424
1.9914
1.99223
2.00603
2.01902
2.03049
2.04187
2.06159
2.08204
2.09553
2.10662
2.1201
2.13222
2.14074
2.15263
2.16687
2.17716
2.18653
2.20079
2.21611
2.23369
2.25211
2.26542
2.27657
2.28938
2.30589
2.32722
2.34842
2.37726
0.461298
0.46105
0.460792
0.460602
0.460511
0.460356
0.460131
0.459943
0.459747
0.459506
0.459294
0.459165
0.459043
0.45889
0.458721
0.458605
0.458511
0.458431
0.458332
0.458212
0.458188
0.458189
0.458211
0.458318
0.458459
0.458424
0.45828
0.458159
0.458072
0.457942
0.457683
0.457303
0.456809
0.456169
0.455447
0.454632
0.453793
0.452873
0.452157
0.451431
0.450506
0.449705
0.449098
0.448613
0.448724
0.449315
0.45048
0.452292
0.454323
0.456373
0.458064
0.459333
0.460121
0.460071
0.459795
0.459218
0.458293
0.458094
0.458297
0.459161
0.461008
0.462767
0.464655
0.46561
0.466557
0.466418
0.465804
0.464795
0.625662
0.969179
1.2957
1.50775
1.64
1.74137
1.81668
1.87337
1.87833
1.88869
1.90434
1.91071
1.92294
1.93992
1.96065
1.97434
1.9861
1.99955
2.00956
2.01647
2.02608
2.04033
2.0557
2.07246
2.08847
2.09885
2.10829
2.12132
2.13767
2.15893
2.1797
2.21424
0.458824
0.458876
0.458944
0.459
0.458991
0.458983
0.459002
0.459037
0.459038
0.459035
0.459065
0.459072
0.459031
0.458934
0.458847
0.4588
0.458736
0.458606
0.458493
0.458509
0.458462
0.458269
0.457945
0.457674
0.457475
0.457292
0.457079
0.456827
0.456517
0.456126
0.455605
0.455021
0.454379
0.45376
0.453165
0.452542
0.452092
0.451844
0.451961
0.452455
0.453525
0.454967
0.456858
0.458795
0.460757
0.462261
0.463542
0.464234
0.464723
0.464667
0.464505
0.464174
0.463793
0.463468
0.463261
0.463367
0.463757
0.464694
0.465987
0.468046
0.469512
0.470605
0.470948
0.470744
0.470793
0.470117
0.469924
0.470774
0.472611
0.473691
0.493043
0.686937
0.979073
1.27199
1.4461
1.5582
1.64545
1.70661
1.76473
1.76211
1.76963
1.77667
1.78616
1.79581
1.81345
1.83216
1.8456
1.85424
1.86272
1.87233
1.88435
1.90126
1.91847
1.92957
1.93906
1.94852
1.95938
1.97605
1.99501
2.02903
0.460241
0.460204
0.460153
0.460079
0.45998
0.459848
0.459715
0.459605
0.459498
0.459358
0.45919
0.459011
0.458861
0.458723
0.458585
0.458425
0.458262
0.458091
0.457924
0.457729
0.457515
0.457309
0.457183
0.457119
0.457065
0.457014
0.456979
0.457041
0.45718
0.457436
0.457842
0.45843
0.459182
0.460156
0.461263
0.462538
0.46379
0.465123
0.466322
0.467468
0.468383
0.469222
0.469762
0.47019
0.470168
0.470041
0.469752
0.469295
0.46878
0.468195
0.467656
0.467238
0.467506
0.468203
0.469581
0.471158
0.472922
0.474201
0.475338
0.476004
0.476103
0.475997
0.475503
0.475255
0.475093
0.475766
0.477366
0.479363
0.480622
0.481667
0.481091
0.481357
0.481827
0.521501
0.715221
0.985655
1.23044
1.3859
1.47717
1.55099
1.60831
1.64661
1.65536
1.65497
1.66152
1.66776
1.67635
1.68892
1.70379
1.71565
1.72663
1.73994
1.75173
1.76053
1.76992
1.77999
1.79038
1.8038
1.81801
1.84585
0.463508
0.463537
0.463583
0.463622
0.463652
0.463666
0.46369
0.463781
0.463944
0.464118
0.464282
0.46448
0.464704
0.464966
0.465318
0.465715
0.466118
0.466539
0.46699
0.467484
0.468009
0.468519
0.469048
0.469568
0.470086
0.470585
0.471121
0.471644
0.47214
0.472526
0.47295
0.473332
0.473637
0.473836
0.474021
0.474153
0.474285
0.474279
0.474256
0.474217
0.474149
0.47405
0.473849
0.473601
0.47326
0.473028
0.472658
0.472723
0.472912
0.47352
0.474347
0.475678
0.477019
0.478639
0.479825
0.480818
0.481355
0.481694
0.48164
0.481337
0.481122
0.480543
0.480676
0.48111
0.481934
0.483376
0.48516
0.486328
0.487243
0.48777
0.488218
0.489317
0.491522
0.49287
0.493363
0.493562
0.543241
0.745691
0.973227
1.19553
1.33283
1.41511
1.46997
1.51037
1.55549
1.55328
1.55256
1.55498
1.56144
1.56887
1.58114
1.5975
1.60888
1.61688
1.62239
1.62857
1.63577
1.64619
1.65864
1.68093
0.474983
0.475072
0.475189
0.475317
0.475468
0.475643
0.475754
0.47584
0.475965
0.476114
0.476254
0.47637
0.47647
0.476576
0.476685
0.476811
0.476915
0.477003
0.477088
0.477186
0.477289
0.477397
0.477494
0.477604
0.477719
0.477853
0.477958
0.478053
0.478133
0.47822
0.47827
0.478263
0.478268
0.47827
0.478259
0.478184
0.478141
0.478141
0.478236
0.478374
0.478656
0.47899
0.479507
0.480073
0.480868
0.481654
0.482726
0.483622
0.484569
0.48518
0.485807
0.486223
0.486644
0.487028
0.487022
0.486936
0.486661
0.486495
0.486156
0.486272
0.486443
0.487102
0.48837
0.489783
0.491014
0.492263
0.493131
0.49405
0.494888
0.495727
0.496589
0.49756
0.498826
0.500097
0.501036
0.502891
0.505452
0.505384
0.505522
0.572975
0.769758
0.992687
1.16366
1.28521
1.3571
1.40331
1.43913
1.46765
1.47335
1.46838
1.47298
1.47895
1.48603
1.4949
1.50461
1.51158
1.5163
1.52138
1.52876
1.54509
0.483005
0.483018
0.483026
0.483049
0.483102
0.483179
0.483252
0.483288
0.483317
0.48336
0.483428
0.483512
0.4836
0.483669
0.483732
0.483798
0.483873
0.483953
0.484038
0.484127
0.484226
0.484342
0.484472
0.484619
0.484779
0.484964
0.485181
0.48544
0.485713
0.486018
0.48635
0.486714
0.487058
0.487448
0.487801
0.48824
0.488665
0.489161
0.489593
0.490036
0.490404
0.490859
0.491181
0.491548
0.491816
0.492102
0.492338
0.492406
0.492356
0.492164
0.491909
0.491513
0.491365
0.491187
0.491279
0.491433
0.49189
0.492549
0.493658
0.494881
0.496076
0.497505
0.498914
0.49966
0.500387
0.500611
0.500928
0.501499
0.50203
0.502757
0.503931
0.505244
0.506589
0.508142
0.510156
0.5122
0.51241
0.513137
0.514741
0.515967
0.517126
0.517545
0.596988
0.798916
0.988014
1.15637
1.26444
1.32153
1.36055
1.38125
1.41232
1.41085
1.40744
1.40908
1.41295
1.41809
1.42429
1.43171
1.43751
1.44662
0.492926
0.493018
0.493117
0.493199
0.493286
0.493411
0.493554
0.493655
0.493731
0.493819
0.493935
0.494066
0.494192
0.494299
0.494395
0.494497
0.49461
0.494723
0.494838
0.494944
0.495063
0.495171
0.495285
0.49539
0.495503
0.495626
0.495759
0.495883
0.496035
0.496156
0.496296
0.496411
0.496529
0.496619
0.496722
0.496798
0.496893
0.496957
0.496996
0.496976
0.496941
0.496901
0.496873
0.496895
0.496964
0.497083
0.497156
0.497317
0.497536
0.497828
0.498048
0.498382
0.498873
0.4997
0.500746
0.502109
0.503437
0.504714
0.505707
0.506239
0.50669
0.507157
0.507471
0.507661
0.507652
0.507748
0.50824
0.509081
0.510209
0.51157
0.513043
0.514671
0.51606
0.517218
0.518506
0.518892
0.519507
0.520431
0.521819
0.522986
0.523649
0.524433
0.52513
0.525697
0.528203
0.64376
0.846229
1.0272
1.16831
1.26357
1.31278
1.33137
1.35205
1.36851
1.36561
1.36174
1.36246
1.36642
1.37242
1.3809
0.501894
0.5019
0.501918
0.50196
0.502045
0.502128
0.502142
0.502159
0.502209
0.502293
0.502363
0.502422
0.502465
0.502518
0.502584
0.502662
0.502736
0.502795
0.50285
0.502905
0.502955
0.503009
0.503046
0.50309
0.503122
0.503169
0.503227
0.503304
0.503393
0.503491
0.5036
0.503719
0.50383
0.503958
0.5041
0.504279
0.504482
0.504707
0.504937
0.505144
0.505373
0.505662
0.506004
0.506437
0.507003
0.507607
0.508202
0.508901
0.509664
0.510331
0.510845
0.511276
0.511733
0.51208
0.512493
0.512888
0.513451
0.513906
0.513924
0.513791
0.51379
0.513896
0.514401
0.515033
0.515653
0.516454
0.517574
0.518831
0.520049
0.520972
0.521805
0.522792
0.523579
0.524083
0.524523
0.525242
0.526065
0.526883
0.527441
0.527809
0.528245
0.528865
0.529483
0.530005
0.530391
0.530823
0.530867
0.55378
0.69374
0.927733
1.08916
1.19831
1.27465
1.30002
1.3148
1.33107
1.33335
1.33175
1.33263
1.33598
0.511968
0.512025
0.512103
0.512218
0.512363
0.512502
0.512604
0.512672
0.512759
0.512895
0.513052
0.513182
0.513283
0.51338
0.513493
0.51362
0.513751
0.513877
0.51401
0.514142
0.514284
0.514417
0.514545
0.514662
0.514753
0.514835
0.514915
0.515006
0.515135
0.515282
0.515444
0.515628
0.515812
0.516013
0.516249
0.516483
0.51671
0.51692
0.517108
0.517239
0.517344
0.517442
0.517518
0.517632
0.517861
0.518165
0.518438
0.518745
0.519133
0.519362
0.519352
0.519329
0.519274
0.519304
0.519415
0.51974
0.52036
0.521033
0.521509
0.521903
0.522281
0.523105
0.524272
0.525386
0.526039
0.52654
0.527103
0.527633
0.527944
0.528111
0.528407
0.528858
0.529323
0.529728
0.53013
0.530697
0.531055
0.531187
0.531287
0.531544
0.531832
0.532128
0.532419
0.532784
0.533056
0.533285
0.533428
0.533426
0.533484
0.533689
0.59636
0.820318
1.01657
1.14076
1.23761
1.28103
1.29592
1.30644
1.31568
1.31358
0.523279
0.523335
0.523374
0.523402
0.523433
0.523498
0.523629
0.523694
0.523701
0.523735
0.523808
0.523904
0.523991
0.524052
0.524091
0.524136
0.524208
0.524305
0.524411
0.52452
0.524645
0.524792
0.524934
0.525054
0.52512
0.525162
0.525192
0.525207
0.525232
0.525271
0.525325
0.525404
0.525487
0.525576
0.525711
0.525854
0.52597
0.526105
0.526254
0.526333
0.526355
0.526325
0.526248
0.52624
0.526399
0.526711
0.527061
0.52739
0.527843
0.528249
0.528543
0.528741
0.528886
0.529062
0.529408
0.530036
0.530906
0.531685
0.532048
0.532062
0.53215
0.532397
0.532953
0.533088
0.533022
0.532914
0.532899
0.532909
0.532889
0.532924
0.533056
0.533345
0.533691
0.533878
0.533928
0.534062
0.53405
0.534015
0.534111
0.53418
0.534211
0.534237
0.534373
0.53473
0.534783
0.534793
0.534783
0.534742
0.534805
0.535218
0.535489
0.535458
0.549309
0.710822
0.924979
1.09628
1.20804
1.27206
1.28713
1.29684
0.534341
0.534426
0.534505
0.534583
0.534654
0.534714
0.53481
0.534934
0.535012
0.535063
0.535111
0.53517
0.535257
0.535335