/*--------------------------------*- C++ -*----------------------------------*\
  =========                 |
  \\      /  F ield         | OpenFOAM: The Open Source CFD Toolbox
   \\    /   O peration     | Website:  https://openfoam.org
    \\  /    A nd           | Version:  7
     \\/     M anipulation  |
\*---------------------------------------------------------------------------*/
FoamFile
{
    version     2.0;
    format      ascii;
    class       volVectorField;
    location    "13.5";
    object      U;
}
// * * * * * * * * * * * * * * * * * * * * * * * * * * * * * * * * * * * * * //

dimensions      [0 1 -1 0 0 0 0];

internalField   nonuniform List<vector> 
90000
(
(0.931838 -0.366674 0)
(0.999657 -0.218235 0)
(1.09201 -0.0862784 0)
(1.18996 0.0128488 0)
(1.25191 0.102617 0)
(1.32137 0.187266 0)
(1.40966 0.260723 0)
(1.5023 0.315757 0)
(1.59212 0.366045 0)
(1.68418 0.408409 0)
(1.77794 0.438618 0)
(1.86534 0.458321 0)
(1.9461 0.479979 0)
(2.02171 0.48985 0)
(2.09147 0.493057 0)
(2.15393 0.501172 0)
(2.21469 0.503189 0)
(2.27039 0.495539 0)
(2.32118 0.49485 0)
(2.36577 0.489384 0)
(2.4076 0.482654 0)
(2.44549 0.472576 0)
(2.48081 0.46526 0)
(2.51322 0.45724 0)
(2.54364 0.448898 0)
(2.57165 0.442578 0)
(2.59843 0.435346 0)
(2.62344 0.428933 0)
(2.64714 0.423344 0)
(2.66893 0.415794 0)
(2.68924 0.409805 0)
(2.70787 0.401381 0)
(2.72433 0.393205 0)
(2.73805 0.38362 0)
(2.74844 0.37745 0)
(2.75661 0.372002 0)
(2.76389 0.370664 0)
(2.76994 0.373481 0)
(2.77503 0.377712 0)
(2.77878 0.383722 0)
(2.7822 0.388221 0)
(2.78371 0.394385 0)
(2.78513 0.399582 0)
(2.78423 0.408261 0)
(2.78338 0.416303 0)
(2.78366 0.426235 0)
(2.78263 0.434319 0)
(2.78234 0.441766 0)
(2.78332 0.450849 0)
(2.78257 0.45312 0)
(2.78653 0.4601 0)
(2.78763 0.461233 0)
(2.78805 0.465202 0)
(2.78504 0.459643 0)
(2.78275 0.452915 0)
(2.7811 0.445927 0)
(2.77983 0.43711 0)
(2.78077 0.429365 0)
(2.78015 0.421299 0)
(2.78231 0.418181 0)
(2.78337 0.418601 0)
(2.78493 0.419461 0)
(2.78771 0.422989 0)
(2.79068 0.427271 0)
(2.78987 0.429503 0)
(2.78832 0.428241 0)
(2.78608 0.424706 0)
(2.78326 0.416152 0)
(2.78037 0.401607 0)
(2.77749 0.390797 0)
(2.77741 0.38531 0)
(2.77873 0.385052 0)
(2.77933 0.383299 0)
(2.77904 0.38208 0)
(2.77743 0.377105 0)
(2.77469 0.365241 0)
(2.77162 0.353256 0)
(2.76936 0.346346 0)
(2.7679 0.340816 0)
(2.76766 0.336384 0)
(2.7662 0.333665 0)
(2.76268 0.321838 0)
(2.75937 0.313035 0)
(2.75665 0.300037 0)
(2.75672 0.299161 0)
(2.75768 0.291094 0)
(2.75698 0.286979 0)
(2.75304 0.276101 0)
(2.75055 0.272237 0)
(2.75068 0.262354 0)
(2.75129 0.257575 0)
(2.75196 0.252075 0)
(2.75181 0.244956 0)
(2.75062 0.242618 0)
(2.74721 0.233666 0)
(2.74614 0.227005 0)
(2.74742 0.221521 0)
(2.74966 0.214848 0)
(2.75141 0.210974 0)
(2.75187 0.203667 0)
(0.431763 -0.494943 0)
(0.420102 -0.470897 0)
(0.410239 -0.437653 0)
(0.403565 -0.392676 0)
(0.403298 -0.33125 0)
(0.414492 -0.254638 0)
(0.44185 -0.167917 0)
(0.487294 -0.0795618 0)
(0.546196 0.00539795 0)
(0.61919 0.0784292 0)
(0.700969 0.142039 0)
(0.793356 0.185255 0)
(0.887384 0.225411 0)
(0.985537 0.249406 0)
(1.08163 0.271901 0)
(1.17751 0.285839 0)
(1.27082 0.297933 0)
(1.35966 0.305562 0)
(1.44545 0.314632 0)
(1.52572 0.320941 0)
(1.60404 0.330862 0)
(1.67832 0.338063 0)
(1.7497 0.3493 0)
(1.81814 0.357103 0)
(1.88405 0.36786 0)
(1.94848 0.376042 0)
(2.01172 0.386873 0)
(2.07386 0.395196 0)
(2.1349 0.406366 0)
(2.19484 0.41364 0)
(2.25374 0.42327 0)
(2.31185 0.43025 0)
(2.36846 0.438481 0)
(2.42211 0.444736 0)
(2.47238 0.452871 0)
(2.5187 0.458884 0)
(2.55964 0.465737 0)
(2.59557 0.472137 0)
(2.62667 0.481589 0)
(2.65352 0.490103 0)
(2.67683 0.499912 0)
(2.69648 0.506286 0)
(2.71291 0.512881 0)
(2.72543 0.515553 0)
(2.7341 0.519283 0)
(2.74049 0.518518 0)
(2.74461 0.517631 0)
(2.74662 0.510675 0)
(2.74871 0.503842 0)
(2.74841 0.49017 0)
(2.74953 0.476137 0)
(2.75024 0.460042 0)
(2.75501 0.447144 0)
(2.75981 0.436668 0)
(2.7618 0.424429 0)
(2.76305 0.417756 0)
(2.76277 0.412096 0)
(2.76409 0.410459 0)
(2.7668 0.412069 0)
(2.77152 0.413538 0)
(2.77853 0.417609 0)
(2.78489 0.42386 0)
(2.78903 0.43087 0)
(2.78937 0.431665 0)
(2.78819 0.429492 0)
(2.78624 0.422968 0)
(2.78382 0.411989 0)
(2.78057 0.401918 0)
(2.77904 0.394602 0)
(2.77604 0.388685 0)
(2.77719 0.385657 0)
(2.77821 0.384031 0)
(2.7789 0.381656 0)
(2.77791 0.376544 0)
(2.77556 0.36741 0)
(2.77265 0.354934 0)
(2.7711 0.347177 0)
(2.76879 0.339949 0)
(2.7676 0.336768 0)
(2.76697 0.3335 0)
(2.7642 0.32657 0)
(2.76014 0.312984 0)
(2.75664 0.304659 0)
(2.756 0.296758 0)
(2.7565 0.294626 0)
(2.75694 0.28818 0)
(2.75535 0.282026 0)
(2.75143 0.272792 0)
(2.74924 0.26988 0)
(2.74805 0.259262 0)
(2.74852 0.254559 0)
(2.74903 0.247823 0)
(2.74907 0.242964 0)
(2.74819 0.24056 0)
(2.74494 0.231128 0)
(2.74394 0.226259 0)
(2.74527 0.219521 0)
(2.7477 0.213663 0)
(2.74936 0.210943 0)
(2.74989 0.203675 0)
(0.414665 -0.402264 0)
(0.406472 -0.393955 0)
(0.395477 -0.383804 0)
(0.388952 -0.364568 0)
(0.382813 -0.338712 0)
(0.37551 -0.308303 0)
(0.371819 -0.274288 0)
(0.368183 -0.238798 0)
(0.369966 -0.200878 0)
(0.372709 -0.15937 0)
(0.379669 -0.11376 0)
(0.394541 -0.065581 0)
(0.420791 -0.0189941 0)
(0.454933 0.0247254 0)
(0.4957 0.0642855 0)
(0.543639 0.0955539 0)
(0.595086 0.123359 0)
(0.65209 0.140126 0)
(0.711454 0.154083 0)
(0.773624 0.159392 0)
(0.836689 0.164384 0)
(0.900512 0.163544 0)
(0.964516 0.164797 0)
(1.02944 0.165092 0)
(1.0951 0.169342 0)
(1.16253 0.174938 0)
(1.23163 0.184663 0)
(1.3026 0.197306 0)
(1.37508 0.217097 0)
(1.44961 0.239531 0)
(1.52692 0.266817 0)
(1.60815 0.292064 0)
(1.69257 0.316945 0)
(1.77901 0.336782 0)
(1.86678 0.353662 0)
(1.95324 0.365569 0)
(2.03697 0.372619 0)
(2.11644 0.373073 0)
(2.1919 0.371386 0)
(2.26257 0.367242 0)
(2.32868 0.364827 0)
(2.38994 0.362327 0)
(2.44603 0.362497 0)
(2.49702 0.359786 0)
(2.54247 0.36179 0)
(2.58269 0.361527 0)
(2.61795 0.365748 0)
(2.64825 0.36608 0)
(2.67385 0.369003 0)
(2.69466 0.36713 0)
(2.70998 0.366924 0)
(2.71945 0.362662 0)
(2.7256 0.362972 0)
(2.73331 0.365772 0)
(2.74088 0.373385 0)
(2.74793 0.379707 0)
(2.7519 0.391059 0)
(2.75797 0.403253 0)
(2.76195 0.415064 0)
(2.76249 0.423282 0)
(2.76898 0.433069 0)
(2.77576 0.439015 0)
(2.77679 0.436085 0)
(2.7751 0.425521 0)
(2.77535 0.416695 0)
(2.77556 0.407318 0)
(2.77596 0.398775 0)
(2.7736 0.389237 0)
(2.77253 0.387122 0)
(2.77332 0.386459 0)
(2.77488 0.385169 0)
(2.77614 0.382446 0)
(2.77606 0.375639 0)
(2.77402 0.365313 0)
(2.77118 0.349113 0)
(2.77021 0.344839 0)
(2.76843 0.338409 0)
(2.76879 0.337676 0)
(2.76784 0.334232 0)
(2.76607 0.329125 0)
(2.76231 0.317182 0)
(2.75925 0.308147 0)
(2.7558 0.297745 0)
(2.75623 0.29579 0)
(2.75538 0.29058 0)
(2.75504 0.283246 0)
(2.75312 0.275789 0)
(2.75071 0.271844 0)
(2.74824 0.267086 0)
(2.74685 0.256827 0)
(2.74641 0.25206 0)
(2.74696 0.244343 0)
(2.74733 0.241577 0)
(2.74562 0.238756 0)
(2.74293 0.229995 0)
(2.742 0.225201 0)
(2.74335 0.217621 0)
(2.74576 0.21305 0)
(2.74746 0.211969 0)
(2.74823 0.206143 0)
(0.483868 -0.363794 0)
(0.499379 -0.36056 0)
(0.495166 -0.339675 0)
(0.482263 -0.298204 0)
(0.458494 -0.255009 0)
(0.434608 -0.238166 0)
(0.426084 -0.227394 0)
(0.421197 -0.220012 0)
(0.420139 -0.211551 0)
(0.422609 -0.199608 0)
(0.4284 -0.183953 0)
(0.43454 -0.166386 0)
(0.442073 -0.147003 0)
(0.449826 -0.12608 0)
(0.458748 -0.104006 0)
(0.469842 -0.082315 0)
(0.481713 -0.0598976 0)
(0.496167 -0.0375046 0)
(0.509877 -0.0121629 0)
(0.528532 0.011603 0)
(0.548641 0.0360986 0)
(0.573254 0.0568117 0)
(0.599791 0.0757973 0)
(0.629353 0.0914761 0)
(0.660184 0.107044 0)
(0.69395 0.119644 0)
(0.730505 0.131513 0)
(0.771756 0.136514 0)
(0.816169 0.139734 0)
(0.86411 0.139392 0)
(0.916122 0.141163 0)
(0.973216 0.14492 0)
(1.03583 0.154026 0)
(1.10521 0.164755 0)
(1.18066 0.179612 0)
(1.26163 0.194132 0)
(1.3453 0.215856 0)
(1.43086 0.240593 0)
(1.51948 0.268052 0)
(1.61061 0.289524 0)
(1.70232 0.31155 0)
(1.79582 0.327518 0)
(1.88724 0.345055 0)
(1.97722 0.358549 0)
(2.06679 0.368006 0)
(2.15336 0.375939 0)
(2.23631 0.384499 0)
(2.31375 0.396577 0)
(2.38549 0.409023 0)
(2.4508 0.421744 0)
(2.50882 0.435054 0)
(2.55759 0.448572 0)
(2.59672 0.45893 0)
(2.62747 0.467913 0)
(2.65309 0.474474 0)
(2.67443 0.476928 0)
(2.69151 0.476889 0)
(2.70543 0.473996 0)
(2.71596 0.467099 0)
(2.72231 0.454748 0)
(2.72983 0.442102 0)
(2.73753 0.423883 0)
(2.75039 0.406733 0)
(2.75631 0.394368 0)
(2.75737 0.38727 0)
(2.75799 0.381433 0)
(2.75748 0.382501 0)
(2.7611 0.380179 0)
(2.76622 0.382778 0)
(2.77122 0.385896 0)
(2.77115 0.384437 0)
(2.76983 0.375969 0)
(2.76767 0.364386 0)
(2.76627 0.353951 0)
(2.76659 0.344396 0)
(2.76685 0.340099 0)
(2.76633 0.336131 0)
(2.76639 0.335138 0)
(2.7652 0.32909 0)
(2.76302 0.320414 0)
(2.76013 0.304802 0)
(2.75756 0.302484 0)
(2.75623 0.295412 0)
(2.75558 0.293211 0)
(2.75454 0.28504 0)
(2.754 0.277967 0)
(2.7526 0.271385 0)
(2.75085 0.270699 0)
(2.7469 0.264199 0)
(2.744 0.253278 0)
(2.74456 0.248842 0)
(2.74597 0.24203 0)
(2.74647 0.240789 0)
(2.74405 0.2365 0)
(2.74113 0.229541 0)
(2.74007 0.223666 0)
(2.74142 0.215132 0)
(2.74337 0.212429 0)
(2.74543 0.212753 0)
(2.74672 0.208404 0)
(0.913571 -0.831372 0)
(0.793379 -0.625547 0)
(0.704608 -0.415883 0)
(0.642023 -0.242712 0)
(0.579238 -0.168873 0)
(0.549085 -0.20685 0)
(0.568378 -0.241421 0)
(0.586155 -0.235018 0)
(0.586452 -0.214603 0)
(0.568929 -0.188344 0)
(0.555674 -0.165508 0)
(0.543304 -0.15966 0)
(0.542344 -0.15271 0)
(0.539988 -0.144632 0)
(0.538604 -0.134827 0)
(0.538662 -0.122618 0)
(0.540004 -0.107104 0)
(0.543815 -0.0891928 0)
(0.54807 -0.0718295 0)
(0.555609 -0.0573416 0)
(0.562664 -0.044101 0)
(0.571644 -0.0323573 0)
(0.580509 -0.0206888 0)
(0.590038 -0.00996665 0)
(0.600593 -4.48969e-06 0)
(0.611729 0.00925955 0)
(0.622961 0.0193624 0)
(0.633071 0.0339579 0)
(0.645008 0.051189 0)
(0.661241 0.0666413 0)
(0.680174 0.0815424 0)
(0.702424 0.0949713 0)
(0.727016 0.10914 0)
(0.755796 0.121757 0)
(0.788606 0.135268 0)
(0.828254 0.144124 0)
(0.874013 0.145178 0)
(0.924652 0.142517 0)
(0.980183 0.142622 0)
(1.04091 0.146216 0)
(1.10787 0.152657 0)
(1.18106 0.163111 0)
(1.26028 0.17223 0)
(1.342 0.192113 0)
(1.42902 0.22235 0)
(1.52321 0.247497 0)
(1.62169 0.274868 0)
(1.72575 0.291609 0)
(1.82816 0.314408 0)
(1.93295 0.324759 0)
(2.03847 0.334898 0)
(2.14171 0.334853 0)
(2.23715 0.342638 0)
(2.32201 0.339857 0)
(2.39706 0.343807 0)
(2.46318 0.342435 0)
(2.52089 0.346657 0)
(2.57045 0.343055 0)
(2.61185 0.347449 0)
(2.64532 0.342134 0)
(2.67119 0.346399 0)
(2.68811 0.34012 0)
(2.7049 0.349332 0)
(2.7233 0.351414 0)
(2.73463 0.363057 0)
(2.74281 0.371088 0)
(2.74537 0.384011 0)
(2.74854 0.39176 0)
(2.75161 0.396106 0)
(2.75534 0.391405 0)
(2.75574 0.374212 0)
(2.75709 0.357853 0)
(2.75837 0.348284 0)
(2.75963 0.339642 0)
(2.75943 0.337886 0)
(2.76146 0.336292 0)
(2.76253 0.333933 0)
(2.76213 0.330926 0)
(2.75998 0.320312 0)
(2.75751 0.309027 0)
(2.75668 0.300937 0)
(2.75556 0.29801 0)
(2.75494 0.293707 0)
(2.7541 0.289872 0)
(2.7524 0.277241 0)
(2.75323 0.272304 0)
(2.7527 0.269137 0)
(2.75011 0.269124 0)
(2.74594 0.259654 0)
(2.74249 0.250641 0)
(2.74409 0.245315 0)
(2.74566 0.241166 0)
(2.74585 0.241051 0)
(2.74268 0.235327 0)
(2.73966 0.228824 0)
(2.73794 0.221482 0)
(2.73858 0.213173 0)
(2.74058 0.211013 0)
(2.74297 0.210996 0)
(2.74446 0.207562 0)
(2.67165 -1.87458 0)
(2.57851 -1.81712 0)
(2.41892 -1.67004 0)
(2.13407 -1.48414 0)
(1.9507 -1.21794 0)
(1.17173 -0.881639 0)
(0.967122 -0.624012 0)
(0.860074 -0.395773 0)
(0.778766 -0.209375 0)
(0.707226 -0.108597 0)
(0.675504 -0.119941 0)
(0.681213 -0.141583 0)
(0.695542 -0.134796 0)
(0.696056 -0.115539 0)
(0.683049 -0.0939621 0)
(0.668897 -0.0766069 0)
(0.656907 -0.0699046 0)
(0.655435 -0.0631447 0)
(0.649541 -0.0585159 0)
(0.64509 -0.0533637 0)
(0.639754 -0.0510861 0)
(0.637718 -0.0474611 0)
(0.636479 -0.0417505 0)
(0.637087 -0.0347801 0)
(0.638934 -0.0270519 0)
(0.643236 -0.0187606 0)
(0.647973 -0.00854567 0)
(0.655039 0.000387818 0)
(0.661827 0.00901351 0)
(0.669183 0.0176544 0)
(0.675216 0.026317 0)
(0.682817 0.0337329 0)
(0.691403 0.0411116 0)
(0.70128 0.0480626 0)
(0.711925 0.0546241 0)
(0.722694 0.0639386 0)
(0.731665 0.0799231 0)
(0.748001 0.0922769 0)
(0.76723 0.103412 0)
(0.789618 0.113028 0)
(0.814951 0.123624 0)
(0.84473 0.133389 0)
(0.880419 0.145034 0)
(0.923847 0.141785 0)
(0.973673 0.140449 0)
(1.02988 0.14361 0)
(1.09444 0.152075 0)
(1.16822 0.165735 0)
(1.25068 0.176459 0)
(1.33741 0.206042 0)
(1.43558 0.242293 0)
(1.54367 0.277366 0)
(1.65991 0.301434 0)
(1.77431 0.324768 0)
(1.89108 0.337104 0)
(2.00525 0.343366 0)
(2.11442 0.351516 0)
(2.21451 0.361418 0)
(2.30683 0.370978 0)
(2.3895 0.379667 0)
(2.46191 0.394801 0)
(2.52199 0.403672 0)
(2.56885 0.415756 0)
(2.60974 0.418497 0)
(2.64317 0.422874 0)
(2.66931 0.416286 0)
(2.68614 0.412119 0)
(2.69812 0.394534 0)
(2.70892 0.375386 0)
(2.72216 0.345208 0)
(2.73059 0.326236 0)
(2.73711 0.320595 0)
(2.74605 0.319278 0)
(2.75228 0.322432 0)
(2.75328 0.331058 0)
(2.75523 0.334627 0)
(2.75558 0.331787 0)
(2.75256 0.32095 0)
(2.751 0.308366 0)
(2.75203 0.297329 0)
(2.75073 0.297195 0)
(2.75219 0.29491 0)
(2.75201 0.291518 0)
(2.74918 0.282288 0)
(2.74987 0.27326 0)
(2.75264 0.267736 0)
(2.75187 0.268013 0)
(2.74928 0.266929 0)
(2.74268 0.253022 0)
(2.74148 0.247782 0)
(2.74366 0.243083 0)
(2.74523 0.240864 0)
(2.74523 0.240492 0)
(2.74185 0.233314 0)
(2.73853 0.227217 0)
(2.7358 0.218053 0)
(2.73641 0.210907 0)
(2.73897 0.208468 0)
(2.74128 0.207907 0)
(2.74175 0.204958 0)
(2.6835 -1.91833 0)
(2.68459 -1.91906 0)
(2.6859 -1.91967 0)
(2.68722 -1.92052 0)
(2.68889 -1.92138 0)
(2.69016 -1.92217 0)
(2.62013 -1.87058 0)
(2.4502 -1.7192 0)
(2.19005 -1.50731 0)
(1.9037 -1.18068 0)
(1.47327 -0.829625 0)
(1.10177 -0.5377 0)
(0.995051 -0.315218 0)
(0.897501 -0.145938 0)
(0.829074 -0.0513269 0)
(0.801614 -0.0495017 0)
(0.793586 -0.0686446 0)
(0.805861 -0.0655186 0)
(0.807246 -0.0535522 0)
(0.798502 -0.0398478 0)
(0.785373 -0.0308402 0)
(0.777736 -0.0243779 0)
(0.773332 -0.0184649 0)
(0.766907 -0.0116357 0)
(0.758151 -0.00643304 0)
(0.750454 -0.00150555 0)
(0.74343 0.00322582 0)
(0.738179 0.00834911 0)
(0.73238 0.0108579 0)
(0.728013 0.0128114 0)
(0.725613 0.0160677 0)
(0.725513 0.020065 0)
(0.726013 0.0248856 0)
(0.728434 0.0301826 0)
(0.731897 0.0365707 0)
(0.737428 0.0436445 0)
(0.743807 0.050221 0)
(0.749718 0.0562323 0)
(0.753708 0.0619879 0)
(0.760582 0.0653059 0)
(0.768235 0.0695189 0)
(0.777537 0.0728116 0)
(0.786988 0.0789323 0)
(0.794974 0.0928198 0)
(0.810914 0.103746 0)
(0.830021 0.114094 0)
(0.852724 0.126205 0)
(0.880992 0.13772 0)
(0.915997 0.153415 0)
(0.960985 0.150484 0)
(1.01545 0.150045 0)
(1.07985 0.152831 0)
(1.15516 0.164343 0)
(1.24193 0.168897 0)
(1.33284 0.198349 0)
(1.437 0.223324 0)
(1.5498 0.246469 0)
(1.66764 0.256035 0)
(1.78512 0.277183 0)
(1.90629 0.283554 0)
(2.02648 0.294187 0)
(2.14032 0.297105 0)
(2.24472 0.302263 0)
(2.33857 0.304897 0)
(2.42108 0.315621 0)
(2.4899 0.318924 0)
(2.54447 0.317432 0)
(2.58572 0.317277 0)
(2.61687 0.311328 0)
(2.64106 0.312471 0)
(2.6714 0.325527 0)
(2.69363 0.340821 0)
(2.70977 0.351276 0)
(2.72146 0.358723 0)
(2.72739 0.358629 0)
(2.72788 0.342746 0)
(2.73207 0.318776 0)
(2.73561 0.29827 0)
(2.73671 0.287469 0)
(2.74466 0.285343 0)
(2.74682 0.293188 0)
(2.74728 0.293833 0)
(2.74381 0.285726 0)
(2.74242 0.27315 0)
(2.74647 0.26625 0)
(2.75008 0.266545 0)
(2.74929 0.26739 0)
(2.7438 0.261716 0)
(2.73917 0.249599 0)
(2.74133 0.244311 0)
(2.74365 0.240985 0)
(2.74434 0.239578 0)
(2.74376 0.238262 0)
(2.74081 0.231415 0)
(2.7366 0.224932 0)
(2.73427 0.214076 0)
(2.73606 0.208842 0)
(2.73809 0.205271 0)
(2.73964 0.203906 0)
(2.74006 0.200107 0)
(2.70296 -1.93394 0)
(2.70475 -1.93543 0)
(2.70711 -1.93632 0)
(2.70918 -1.9379 0)
(2.71166 -1.93891 0)
(2.7142 -1.94068 0)
(2.71592 -1.94139 0)
(2.71775 -1.94162 0)
(2.71931 -1.94245 0)
(2.72142 -1.94285 0)
(2.72271 -1.94376 0)
(2.64665 -1.87474 0)
(2.46552 -1.70303 0)
(2.21609 -1.44375 0)
(1.92062 -1.09155 0)
(1.67478 -0.746536 0)
(1.23868 -0.427975 0)
(1.09936 -0.205139 0)
(0.993462 -0.0692429 0)
(0.940754 -0.00544019 0)
(0.920797 -0.00601202 0)
(0.913295 -0.0107646 0)
(0.920606 -0.00203569 0)
(0.91687 0.00732793 0)
(0.906431 0.0150773 0)
(0.896572 0.0222903 0)
(0.890532 0.0204417 0)
(0.884107 0.0230163 0)
(0.873461 0.025534 0)
(0.862374 0.0298508 0)
(0.851347 0.035265 0)
(0.841588 0.0421885 0)
(0.831586 0.0473344 0)
(0.822937 0.0521561 0)
(0.814845 0.0537721 0)
(0.807706 0.055002 0)
(0.801996 0.0520023 0)
(0.796791 0.0501393 0)
(0.793603 0.0515201 0)
(0.792533 0.0537478 0)
(0.792055 0.0568908 0)
(0.794034 0.059876 0)
(0.797051 0.0657503 0)
(0.802359 0.0707547 0)
(0.804377 0.076213 0)
(0.809481 0.0797571 0)
(0.816459 0.0844053 0)
(0.825476 0.0890652 0)
(0.835793 0.0957132 0)
(0.845219 0.110287 0)
(0.862591 0.121833 0)
(0.884146 0.132086 0)
(0.91108 0.142216 0)
(0.946388 0.154094 0)
(0.990315 0.147378 0)
(1.04434 0.147679 0)
(1.10892 0.154705 0)
(1.18539 0.162438 0)
(1.27256 0.168061 0)
(1.37046 0.188917 0)
(1.48014 0.219538 0)
(1.59827 0.248327 0)
(1.72329 0.282459 0)
(1.85541 0.285674 0)
(1.98542 0.292257 0)
(2.1059 0.305153 0)
(2.21185 0.322687 0)
(2.30443 0.335565 0)
(2.38303 0.339117 0)
(2.44745 0.341022 0)
(2.507 0.332259 0)
(2.55893 0.323475 0)
(2.60241 0.312224 0)
(2.63861 0.295493 0)
(2.66785 0.28513 0)
(2.68812 0.269277 0)
(2.6981 0.264924 0)
(2.71112 0.266306 0)
(2.71881 0.28383 0)
(2.72702 0.297163 0)
(2.73269 0.30572 0)
(2.73039 0.292388 0)
(2.73024 0.271139 0)
(2.73561 0.258175 0)
(2.74208 0.261958 0)
(2.74673 0.269039 0)
(2.74319 0.267015 0)
(2.73687 0.254589 0)
(2.73494 0.245262 0)
(2.73984 0.243231 0)
(2.74187 0.238875 0)
(2.74349 0.237163 0)
(2.74283 0.234642 0)
(2.73955 0.229872 0)
(2.73429 0.222134 0)
(2.73227 0.211549 0)
(2.73444 0.207012 0)
(2.73776 0.202272 0)
(2.7399 0.200138 0)
(2.74002 0.196111 0)
(2.7261 -1.94296 0)
(2.72785 -1.94396 0)
(2.72972 -1.94498 0)
(2.73164 -1.94604 0)
(2.73359 -1.94717 0)
(2.73561 -1.94827 0)
(2.73759 -1.94953 0)
(2.7397 -1.9507 0)
(2.74165 -1.95219 0)
(2.74389 -1.9532 0)
(2.74589 -1.95522 0)
(2.74754 -1.95552 0)
(2.7485 -1.95665 0)
(2.75015 -1.95688 0)
(2.7511 -1.95873 0)
(2.75118 -1.95661 0)
(2.65586 -1.85588 0)
(2.43484 -1.62907 0)
(2.17614 -1.30543 0)
(1.89047 -0.91169 0)
(1.65858 -0.56003 0)
(1.28619 -0.263675 0)
(1.1528 -0.0738037 0)
(1.05414 0.0172284 0)
(1.02596 0.0293243 0)
(1.01965 0.0299994 0)
(1.02128 0.0419761 0)
(1.01824 0.0533156 0)
(1.01046 0.063147 0)
(1.00085 0.0650495 0)
(0.995691 0.0601794 0)
(0.988919 0.0578607 0)
(0.976278 0.0558669 0)
(0.96401 0.0556587 0)
(0.951698 0.0595157 0)
(0.939601 0.0617003 0)
(0.927897 0.0664828 0)
(0.915224 0.0693407 0)
(0.902762 0.07306 0)
(0.890261 0.0753565 0)
(0.878003 0.0771496 0)
(0.866787 0.0775483 0)
(0.856026 0.0771315 0)
(0.848457 0.0718373 0)
(0.842998 0.0692701 0)
(0.840914 0.0697224 0)
(0.840437 0.0719157 0)
(0.841959 0.075923 0)
(0.845077 0.0837302 0)
(0.851243 0.0906705 0)
(0.854337 0.096994 0)
(0.860316 0.100221 0)
(0.868174 0.102933 0)
(0.877894 0.105536 0)
(0.88567 0.118753 0)
(0.90258 0.124668 0)
(0.92231 0.133322 0)
(0.948106 0.13978 0)
(0.980908 0.148083 0)
(1.02889 0.141907 0)
(1.08893 0.138131 0)
(1.1612 0.141135 0)
(1.24512 0.161058 0)
(1.33644 0.201563 0)
(1.45018 0.22463 0)
(1.57779 0.21997 0)
(1.70794 0.217802 0)
(1.83611 0.23651 0)
(1.95704 0.253948 0)
(2.07036 0.265577 0)
(2.17636 0.26211 0)
(2.27391 0.261068 0)
(2.36112 0.268818 0)
(2.43494 0.283747 0)
(2.49915 0.297661 0)
(2.55476 0.312557 0)
(2.5963 0.322379 0)
(2.63009 0.330182 0)
(2.65331 0.321122 0)
(2.67056 0.29864 0)
(2.68837 0.278324 0)
(2.69955 0.248267 0)
(2.71215 0.243182 0)
(2.72224 0.256383 0)
(2.72901 0.269767 0)
(2.7339 0.271114 0)
(2.73499 0.255764 0)
(2.7291 0.240414 0)
(2.73399 0.245443 0)
(2.73681 0.242114 0)
(2.73816 0.23528 0)
(2.7407 0.232417 0)
(2.74059 0.230861 0)
(2.73788 0.227956 0)
(2.73255 0.219328 0)
(2.73103 0.211267 0)
(2.73329 0.207408 0)
(2.73712 0.202211 0)
(2.73932 0.19962 0)
(2.73907 0.193661 0)
(2.74274 -1.95687 0)
(2.74423 -1.95764 0)
(2.74573 -1.9585 0)
(2.74724 -1.9594 0)
(2.74885 -1.96019 0)
(2.75029 -1.9613 0)
(2.75207 -1.96196 0)
(2.75344 -1.96326 0)
(2.75534 -1.9638 0)
(2.75664 -1.96528 0)
(2.75873 -1.96556 0)
(2.75988 -1.96729 0)
(2.76219 -1.9673 0)
(2.76321 -1.96931 0)
(2.76567 -1.96898 0)
(2.76675 -1.97151 0)
(2.76858 -1.97041 0)
(2.76922 -1.97157 0)
(2.77132 -1.97041 0)
(2.77167 -1.97247 0)
(2.75845 -1.93151 0)
(2.59389 -1.75412 0)
(2.31939 -1.4325 0)
(2.02535 -1.0165 0)
(1.78896 -0.631051 0)
(1.51221 -0.298048 0)
(1.28488 -0.065333 0)
(1.15116 0.0457226 0)
(1.11268 0.0587533 0)
(1.10472 0.066138 0)
(1.10408 0.0813191 0)
(1.10336 0.0942917 0)
(1.09251 0.101479 0)
(1.08805 0.0963949 0)
(1.08608 0.0893877 0)
(1.0777 0.0871562 0)
(1.06547 0.0877886 0)
(1.05211 0.0912031 0)
(1.03854 0.0932736 0)
(1.02463 0.093919 0)
(1.01041 0.0915969 0)
(0.996089 0.0881585 0)
(0.981619 0.0829739 0)
(0.966912 0.0814933 0)
(0.952001 0.0835523 0)
(0.937559 0.0875633 0)
(0.923924 0.0921118 0)
(0.911341 0.0946606 0)
(0.900017 0.0954945 0)
(0.891987 0.0908328 0)
(0.887172 0.0874344 0)
(0.885743 0.0879329 0)
(0.885711 0.0901615 0)
(0.887516 0.0955388 0)
(0.890478 0.101892 0)
(0.891956 0.102776 0)
(0.895368 0.103909 0)
(0.900228 0.103182 0)
(0.905009 0.110386 0)
(0.913738 0.116664 0)
(0.929422 0.119397 0)
(0.953465 0.116387 0)
(0.986 0.118684 0)
(1.02932 0.116969 0)
(1.0759 0.149269 0)
(1.14274 0.178939 0)
(1.23322 0.179648 0)
(1.33944 0.164628 0)
(1.45333 0.163841 0)
(1.57021 0.195943 0)
(1.68884 0.233412 0)
(1.81376 0.247857 0)
(1.93686 0.239026 0)
(2.05392 0.22907 0)
(2.16309 0.241185 0)
(2.26406 0.249177 0)
(2.35546 0.254563 0)
(2.43569 0.242688 0)
(2.50225 0.233074 0)
(2.55193 0.23235 0)
(2.59126 0.240449 0)
(2.62067 0.263303 0)
(2.64848 0.288399 0)
(2.67038 0.287861 0)
(2.68668 0.267225 0)
(2.70291 0.242133 0)
(2.71406 0.229928 0)
(2.71678 0.246741 0)
(2.72274 0.250192 0)
(2.72546 0.240574 0)
(2.73233 0.223666 0)
(2.7352 0.228661 0)
(2.73573 0.231158 0)
(2.73362 0.228832 0)
(2.73007 0.221079 0)
(2.73053 0.216175 0)
(2.73313 0.211824 0)
(2.73704 0.207247 0)
(2.73933 0.20567 0)
(2.73826 0.197896 0)
(2.75986 -1.96335 0)
(2.76111 -1.96376 0)
(2.76202 -1.96476 0)
(2.76342 -1.96507 0)
(2.76429 -1.96619 0)
(2.7658 -1.96638 0)
(2.76664 -1.9676 0)
(2.76826 -1.96764 0)
(2.769 -1.96903 0)
(2.77073 -1.96893 0)
(2.77142 -1.97042 0)
(2.77325 -1.97016 0)
(2.77391 -1.9717 0)
(2.77574 -1.97134 0)
(2.77645 -1.97267 0)
(2.77794 -1.97265 0)
(2.77916 -1.97307 0)
(2.7801 -1.97395 0)
(2.78155 -1.97402 0)
(2.7825 -1.97514 0)
(2.78365 -1.97451 0)
(2.78401 -1.9751 0)
(2.78538 -1.97421 0)
(2.78542 -1.97617 0)
(2.77975 -1.95319 0)
(2.67823 -1.80531 0)
(2.40662 -1.48156 0)
(2.08627 -1.03387 0)
(1.82511 -0.613708 0)
(1.55928 -0.264596 0)
(1.35103 -0.0330595 0)
(1.21867 0.0796409 0)
(1.18545 0.0819275 0)
(1.1756 0.0950774 0)
(1.17536 0.11315 0)
(1.17221 0.124524 0)
(1.16905 0.120195 0)
(1.16877 0.110931 0)
(1.16191 0.103379 0)
(1.15114 0.102667 0)
(1.13898 0.104433 0)
(1.12662 0.109813 0)
(1.11327 0.112645 0)
(1.09951 0.114457 0)
(1.08443 0.112185 0)
(1.06834 0.107725 0)
(1.05158 0.102743 0)
(1.0337 0.10015 0)
(1.01591 0.0976302 0)
(0.998604 0.10015 0)
(0.982037 0.104045 0)
(0.96649 0.107742 0)
(0.951934 0.109747 0)
(0.938354 0.109244 0)
(0.927422 0.103824 0)
(0.919763 0.0984739 0)
(0.914975 0.0941332 0)
(0.913038 0.09392 0)
(0.912671 0.0961649 0)
(0.907333 0.0985497 0)
(0.902877 0.102155 0)
(0.904484 0.102765 0)
(0.913204 0.100464 0)
(0.927797 0.0929977 0)
(0.941768 0.0892639 0)
(0.95379 0.11058 0)
(0.97325 0.146614 0)
(1.02069 0.158393 0)
(1.08704 0.139533 0)
(1.16419 0.107562 0)
(1.25021 0.118757 0)
(1.33906 0.167745 0)
(1.43987 0.207808 0)
(1.56025 0.2143 0)
(1.68706 0.192038 0)
(1.81531 0.18203 0)
(1.94348 0.200535 0)
(2.06471 0.229975 0)
(2.17929 0.25761 0)
(2.28059 0.266438 0)
(2.36562 0.2758 0)
(2.43161 0.263563 0)
(2.49142 0.236094 0)
(2.54927 0.215603 0)
(2.59504 0.215338 0)
(2.6317 0.224104 0)
(2.65443 0.262022 0)
(2.67 0.264362 0)
(2.6805 0.249982 0)
(2.69764 0.214188 0)
(2.71273 0.228509 0)
(2.72106 0.235587 0)
(2.72314 0.233974 0)
(2.72386 0.234155 0)
(2.7235 0.226965 0)
(2.72447 0.219656 0)
(2.72951 0.213918 0)
(2.73525 0.210798 0)
(2.73839 0.212941 0)
(2.73782 0.207988 0)
(2.77005 -1.973 0)
(2.7706 -1.9738 0)
(2.77172 -1.97378 0)
(2.77228 -1.97465 0)
(2.77348 -1.97455 0)
(2.77402 -1.97549 0)
(2.77528 -1.97531 0)
(2.77589 -1.97616 0)
(2.77711 -1.97601 0)
(2.77781 -1.97669 0)
(2.7789 -1.97678 0)
(2.77984 -1.97712 0)
(2.78083 -1.97744 0)
(2.78207 -1.97728 0)
(2.78279 -1.97793 0)
(2.78404 -1.97756 0)
(2.78467 -1.9782 0)
(2.78604 -1.97748 0)
(2.78642 -1.9785 0)
(2.78787 -1.97743 0)
(2.78818 -1.97834 0)
(2.78975 -1.97701 0)
(2.78979 -1.97822 0)
(2.79147 -1.97671 0)
(2.79139 -1.97864 0)
(2.79193 -1.97871 0)
(2.79307 -1.97743 0)
(2.79301 -1.97868 0)
(2.78414 -1.94918 0)
(2.66235 -1.77518 0)
(2.37786 -1.40984 0)
(2.04588 -0.919797 0)
(1.77308 -0.485473 0)
(1.52031 -0.156162 0)
(1.35144 0.0354123 0)
(1.2626 0.094699 0)
(1.24332 0.107209 0)
(1.23869 0.125224 0)
(1.23006 0.140877 0)
(1.23111 0.137159 0)
(1.23372 0.127199 0)
(1.22855 0.12086 0)
(1.21714 0.116988 0)
(1.20738 0.118011 0)
(1.19519 0.122026 0)
(1.18169 0.123772 0)
(1.16823 0.126755 0)
(1.15341 0.12798 0)
(1.13793 0.127664 0)
(1.12016 0.127222 0)
(1.10136 0.124387 0)
(1.08192 0.120311 0)
(1.06232 0.116835 0)
(1.04328 0.111063 0)
(1.02416 0.109304 0)
(1.00467 0.109314 0)
(0.984886 0.111931 0)
(0.966385 0.111449 0)
(0.949434 0.10672 0)
(0.934881 0.100939 0)
(0.922446 0.0972637 0)
(0.914935 0.0973717 0)
(0.912229 0.0979122 0)
(0.913562 0.0967719 0)
(0.916229 0.0950619 0)
(0.919603 0.0951599 0)
(0.920064 0.104157 0)
(0.918049 0.125927 0)
(0.931366 0.141081 0)
(0.962286 0.139283 0)
(1.00298 0.106752 0)
(1.05214 0.07417 0)
(1.10581 0.0841257 0)
(1.16482 0.131867 0)
(1.2427 0.172373 0)
(1.34518 0.172585 0)
(1.46082 0.151844 0)
(1.58547 0.140117 0)
(1.71666 0.160504 0)
(1.84626 0.191243 0)
(1.9751 0.208059 0)
(2.091 0.203344 0)
(2.19499 0.200006 0)
(2.29321 0.213741 0)
(2.38222 0.226315 0)
(2.45519 0.249109 0)
(2.51104 0.235915 0)
(2.55564 0.221761 0)
(2.5942 0.192897 0)
(2.62866 0.22226 0)
(2.65803 0.228814 0)
(2.67989 0.218214 0)
(2.69669 0.205505 0)
(2.70184 0.216652 0)
(2.70365 0.21487 0)
(2.70705 0.202925 0)
(2.71855 0.20111 0)
(2.72697 0.203984 0)
(2.73198 0.212469 0)
(2.73425 0.213568 0)
(2.78111 -1.97459 0)
(2.78182 -1.97459 0)
(2.78231 -1.97498 0)
(2.78297 -1.97511 0)
(2.78363 -1.97525 0)
(2.78418 -1.9756 0)
(2.78494 -1.97559 0)
(2.78552 -1.97592 0)
(2.78636 -1.97578 0)
(2.78695 -1.97605 0)
(2.78768 -1.97608 0)
(2.78835 -1.97621 0)
(2.78915 -1.97607 0)
(2.7898 -1.97618 0)
(2.79075 -1.97572 0)
(2.79101 -1.9764 0)
(2.79198 -1.97568 0)
(2.79225 -1.97609 0)
(2.793 -1.97556 0)
(2.7934 -1.97556 0)
(2.79383 -1.97543 0)
(2.79439 -1.97506 0)
(2.7947 -1.97502 0)
(2.79527 -1.97463 0)
(2.79519 -1.97508 0)
(2.79593 -1.97436 0)
(2.79507 -1.97586 0)
(2.79591 -1.97458 0)
(2.79528 -1.97604 0)
(2.79464 -1.97716 0)
(2.79535 -1.97569 0)
(2.79487 -1.97693 0)
(2.76089 -1.90964 0)
(2.56528 -1.64899 0)
(2.24073 -1.18351 0)
(1.94076 -0.690664 0)
(1.66142 -0.276771 0)
(1.43898 -0.0102269 0)
(1.32217 0.103631 0)
(1.29066 0.115744 0)
(1.27973 0.130454 0)
(1.2737 0.147311 0)
(1.27183 0.146659 0)
(1.27586 0.139758 0)
(1.27203 0.136521 0)
(1.26107 0.134164 0)
(1.25102 0.136099 0)
(1.23974 0.140124 0)
(1.22899 0.143581 0)
(1.21646 0.142981 0)
(1.20266 0.140127 0)
(1.18816 0.136599 0)
(1.17156 0.133623 0)
(1.15382 0.134468 0)
(1.13461 0.136721 0)
(1.11343 0.134078 0)
(1.0907 0.127074 0)
(1.06656 0.11887 0)
(1.04187 0.11062 0)
(1.01733 0.108882 0)
(0.991743 0.111291 0)
(0.967129 0.114404 0)
(0.945901 0.112152 0)
(0.933014 0.106886 0)
(0.928451 0.0987919 0)
(0.927932 0.0923326 0)
(0.927408 0.0925167 0)
(0.921028 0.0958732 0)
(0.912587 0.104418 0)
(0.90732 0.115787 0)
(0.915934 0.114818 0)
(0.935228 0.0990516 0)
(0.956897 0.0799993 0)
(0.978384 0.0684616 0)
(1.00505 0.0926057 0)
(1.04472 0.128501 0)
(1.10545 0.148274 0)
(1.18646 0.132992 0)
(1.28106 0.10703 0)
(1.38931 0.10524 0)
(1.50943 0.147175 0)
(1.6332 0.191479 0)
(1.75932 0.208134 0)
(1.88621 0.193818 0)
(2.01084 0.180099 0)
(2.13178 0.17451 0)
(2.23756 0.194672 0)
(2.32617 0.209997 0)
(2.40151 0.237011 0)
(2.46753 0.220438 0)
(2.53016 0.205744 0)
(2.58216 0.202664 0)
(2.61922 0.225272 0)
(2.63938 0.21818 0)
(2.65452 0.196897 0)
(2.67042 0.182681 0)
(2.69035 0.179494 0)
(2.70879 0.172945 0)
(2.71793 0.187156 0)
(2.72423 0.200741 0)
(2.78637 -1.97941 0)
(2.78692 -1.97922 0)
(2.78729 -1.97941 0)
(2.78785 -1.97925 0)
(2.7883 -1.97926 0)
(2.78883 -1.97912 0)
(2.78931 -1.97906 0)
(2.78983 -1.97896 0)
(2.79039 -1.97882 0)
(2.79099 -1.9786 0)
(2.79137 -1.97883 0)
(2.79205 -1.97832 0)
(2.79246 -1.97825 0)
(2.79293 -1.97802 0)
(2.79358 -1.9775 0)
(2.79367 -1.97781 0)
(2.79413 -1.97751 0)
(2.79433 -1.97755 0)
(2.79447 -1.97753 0)
(2.79486 -1.97702 0)
(2.79484 -1.97698 0)
(2.79481 -1.97693 0)
(2.7952 -1.97628 0)
(2.79462 -1.97699 0)
(2.79502 -1.97622 0)
(2.79492 -1.97608 0)
(2.79447 -1.97642 0)
(2.79455 -1.97591 0)
(2.7943 -1.9758 0)
(2.79412 -1.97577 0)
(2.79447 -1.97459 0)
(2.7948 -1.97482 0)
(2.79495 -1.97314 0)
(2.79564 -1.97167 0)
(2.79586 -1.97149 0)
(2.79296 -1.96121 0)
(2.67143 -1.78403 0)
(2.3467 -1.33813 0)
(2.02648 -0.804042 0)
(1.71686 -0.332845 0)
(1.45315 -0.0242187 0)
(1.34261 0.0988319 0)
(1.32108 0.124096 0)
(1.31023 0.139658 0)
(1.3065 0.155882 0)
(1.30582 0.156855 0)
(1.3059 0.151377 0)
(1.30027 0.145414 0)
(1.29194 0.145155 0)
(1.28278 0.150368 0)
(1.2724 0.151196 0)
(1.26256 0.152116 0)
(1.24969 0.151174 0)
(1.23794 0.147999 0)
(1.22493 0.145684 0)
(1.2095 0.144476 0)
(1.19117 0.145044 0)
(1.16971 0.144133 0)
(1.14627 0.141431 0)
(1.12091 0.136529 0)
(1.09358 0.129754 0)
(1.06338 0.123958 0)
(1.0325 0.119798 0)
(1.00618 0.11606 0)
(0.985099 0.112331 0)
(0.96814 0.105291 0)
(0.955635 0.0967454 0)
(0.942983 0.0924406 0)
(0.929455 0.0934496 0)
(0.917716 0.0951631 0)
(0.910433 0.100109 0)
(0.909006 0.0970977 0)
(0.915414 0.0861295 0)
(0.925222 0.0741697 0)
(0.936754 0.0637243 0)
(0.945746 0.0643182 0)
(0.955283 0.0916817 0)