/*--------------------------------*- C++ -*----------------------------------*\
  =========                 |
  \\      /  F ield         | OpenFOAM: The Open Source CFD Toolbox
   \\    /   O peration     | Website:  https://openfoam.org
    \\  /    A nd           | Version:  7
     \\/     M anipulation  |
\*---------------------------------------------------------------------------*/
FoamFile
{
    version     2.0;
    format      ascii;
    class       volScalarField;
    location    "1";
    object      T;
}
// * * * * * * * * * * * * * * * * * * * * * * * * * * * * * * * * * * * * * //

dimensions      [0 0 0 1 0 0 0];

internalField   nonuniform List<scalar> 
90000
(
0.864317
0.872878
0.881162
0.889013
0.896038
0.901616
0.90695
0.91212
0.917023
0.921873
0.927097
0.93317
0.939625
0.946654
0.953657
0.960781
0.967488
0.974314
0.980638
0.987074
0.993096
0.999127
1.00479
1.01045
1.0157
1.021
1.02585
1.03061
1.03496
1.03909
1.04302
1.04626
1.04929
1.0521
1.05392
1.05589
1.05729
1.05763
1.05808
1.05789
1.05747
1.05656
1.05527
1.0535
1.05171
1.04892
1.04619
1.04439
1.04299
1.04305
1.04346
1.0444
1.04551
1.04661
1.04755
1.04767
1.04756
1.04737
1.04673
1.0457
1.04451
1.0433
1.04253
1.04193
1.04213
1.04273
1.04374
1.04496
1.04564
1.04536
1.04468
1.04351
1.04204
1.04082
1.04092
1.04223
1.0458
1.05184
1.05996
1.06783
1.06916
1.06912
1.06952
1.07078
1.07297
1.07368
1.07357
1.07219
1.06802
1.06196
1.05698
1.05397
1.05213
1.05092
1.05033
1.04942
1.04749
1.0437
1.0375
1.02932
0.85528
0.855514
0.855875
0.856521
0.85753
0.858618
0.859866
0.861484
0.863374
0.865356
0.867462
0.869876
0.872529
0.875589
0.878913
0.882792
0.88684
0.891489
0.896231
0.901583
0.907021
0.913023
0.918959
0.925462
0.931788
0.938592
0.945249
0.952175
0.958912
0.965771
0.972334
0.978987
0.985273
0.991327
0.997477
1.00248
1.00816
1.01271
1.01717
1.02086
1.02396
1.02676
1.02859
1.03037
1.03265
1.03661
1.03959
1.04173
1.04283
1.04274
1.04211
1.04101
1.03987
1.03888
1.03764
1.03723
1.03742
1.03747
1.03742
1.03755
1.03819
1.0389
1.0397
1.04054
1.04053
1.04023
1.03944
1.03882
1.03823
1.03791
1.03764
1.03762
1.03822
1.0386
1.03906
1.04013
1.04233
1.04657
1.05444
1.06447
1.06666
1.06672
1.06696
1.0678
1.06986
1.07176
1.07174
1.07
1.06517
1.05962
1.05453
1.05096
1.04873
1.04731
1.04668
1.04585
1.04381
1.03982
1.03386
1.02593
0.851832
0.851815
0.8518
0.851763
0.851718
0.851672
0.851625
0.851579
0.851547
0.851524
0.8515
0.851487
0.8515
0.851543
0.851621
0.851735
0.851902
0.852149
0.852479
0.852964
0.853615
0.854537
0.855687
0.857238
0.859112
0.861534
0.864345
0.867936
0.871903
0.876915
0.882235
0.888817
0.895664
0.903794
0.911967
0.921347
0.930576
0.941011
0.950909
0.961636
0.971392
0.981767
0.990367
0.999894
1.00702
1.01192
1.01503
1.01803
1.02027
1.02219
1.02296
1.02399
1.02484
1.02471
1.0244
1.02419
1.02468
1.02562
1.02708
1.02866
1.03043
1.03189
1.03283
1.03294
1.03228
1.03101
1.029
1.02756
1.02648
1.02694
1.0286
1.03073
1.03252
1.03264
1.03254
1.03299
1.03438
1.03833
1.04752
1.05812
1.06074
1.06081
1.06096
1.06223
1.0646
1.06705
1.06698
1.06511
1.06088
1.05485
1.04901
1.04544
1.04331
1.04198
1.04126
1.04037
1.03835
1.03459
1.02882
1.02111
0.847495
0.847496
0.847494
0.847492
0.847487
0.847472
0.84745
0.847432
0.847412
0.847378
0.847335
0.847296
0.847261
0.847222
0.847178
0.847144
0.847094
0.84702
0.846935
0.846842
0.846737
0.846614
0.846443
0.846247
0.846054
0.845887
0.845886
0.84594
0.84608
0.846329
0.846692
0.847259
0.848107
0.84947
0.851327
0.853961
0.857354
0.862092
0.867938
0.875216
0.884673
0.894596
0.907273
0.919431
0.932999
0.945863
0.957388
0.96862
0.976872
0.986269
0.991637
0.998182
1.00189
1.0051
1.00753
1.00917
1.01333
1.01634
1.01942
1.02164
1.0227
1.02386
1.02439
1.02418
1.023
1.02139
1.01951
1.01926
1.01973
1.02115
1.0225
1.0238
1.02407
1.0235
1.02349
1.02427
1.02712
1.03332
1.04141
1.05045
1.05393
1.05443
1.0552
1.05642
1.0585
1.06073
1.06066
1.05911
1.05506
1.04877
1.04303
1.03976
1.03785
1.03663
1.0358
1.03487
1.03299
1.0294
1.02408
1.0165
0.843452
0.843471
0.843499
0.843535
0.843561
0.843576
0.843599
0.84363
0.843656
0.843671
0.843685
0.843701
0.843706
0.84371
0.843723
0.843744
0.843744
0.843729
0.843696
0.843669
0.843629
0.843567
0.843507
0.843463
0.843407
0.843315
0.843217
0.843163
0.843137
0.843111
0.843071
0.842993
0.842926
0.84292
0.842964
0.843114
0.843344
0.843631
0.843965
0.844432
0.845376
0.846817
0.849429
0.852804
0.85851
0.865573
0.876419
0.888085
0.903389
0.918159
0.935419
0.950915
0.965012
0.978683
0.989652
0.997969
1.00529
1.00833
1.01106
1.01309
1.0139
1.01498
1.01497
1.01335
1.0116
1.01214
1.01377
1.01565
1.01743
1.01854
1.01796
1.01802
1.01724
1.01643
1.0168
1.0184
1.02296
1.02985
1.03676
1.04415
1.04762
1.04913
1.05031
1.05188
1.05389
1.0553
1.05511
1.05396
1.05048
1.04404
1.03823
1.03498
1.03368
1.03303
1.03219
1.03101
1.02923
1.0259
1.02057
1.01296
0.8412
0.841227
0.841265
0.84131
0.841353
0.841391
0.84144
0.841502
0.841567
0.841633
0.841697
0.841758
0.841802
0.841836
0.841891
0.841971
0.84204
0.842078
0.842106
0.842138
0.84217
0.8422
0.84222
0.842221
0.842221
0.842233
0.842254
0.842285
0.842334
0.842345
0.842343
0.842346
0.842363
0.842413
0.842472
0.842528
0.84259
0.842754
0.843009
0.843156
0.843225
0.84332
0.843508
0.8438
0.844195
0.8447
0.845609
0.847051
0.84995
0.853992
0.86152
0.870821
0.885319
0.900793
0.919517
0.938693
0.954955
0.968725
0.98016
0.987997
0.993452
0.997392
1.00191
1.00306
1.00809
1.0121
1.01579
1.01764
1.01829
1.01819
1.01676
1.014
1.01231
1.01271
1.01435
1.01745
1.02263
1.02867
1.0367
1.04228
1.04459
1.04637
1.04797
1.04975
1.05192
1.05241
1.05221
1.05119
1.04773
1.0414
1.03564
1.03256
1.03168
1.03128
1.03039
1.02895
1.02713
1.02415
1.01888
1.01132
0.840232
0.840294
0.840376
0.840453
0.840525
0.840591
0.84067
0.840747
0.840817
0.840887
0.840964
0.84105
0.84114
0.841241
0.841371
0.841456
0.841503
0.841542
0.841608
0.841678
0.841714
0.841756
0.841832
0.84188
0.841886
0.841899
0.841963
0.842033
0.842071
0.842105
0.842159
0.84226
0.842345
0.842406
0.842473
0.842571
0.842709
0.84294
0.843315
0.843648
0.843807
0.84391
0.844056
0.844296
0.844615
0.844927
0.845032
0.845118
0.845252
0.845346
0.845525
0.845966
0.847174
0.849701
0.854463
0.863195
0.874145
0.892244
0.910458
0.931022
0.951897
0.968568
0.985087
0.998443
1.00917
1.01291
1.01608
1.0181
1.0179
1.01546
1.01014
1.01021
1.01143
1.01434
1.01719
1.01938
1.02227
1.02583
1.03267
1.04056
1.0453
1.04662
1.04755
1.04895
1.05086
1.05164
1.05171
1.0504
1.04592
1.03974
1.03442
1.03205
1.03137
1.03084
1.02992
1.02847
1.02652
1.02362
1.01853
1.01076
0.840284
0.840343
0.840416
0.840479
0.840541
0.840614
0.840708
0.840794
0.840865
0.840936
0.841013
0.841094
0.841184
0.8413
0.841418
0.841478
0.841518
0.841564
0.841617
0.841671
0.841714
0.841758
0.841818
0.841911
0.842043
0.842182
0.842305
0.842438
0.842578
0.8427
0.842794
0.84292
0.843099
0.84326
0.843389
0.843514
0.84366
0.843873
0.844216
0.844633
0.84495
0.845106
0.845154
0.845172
0.845192
0.845222
0.845275
0.845268
0.845175
0.845173
0.845219
0.845274
0.845277
0.845188
0.845188
0.845376
0.846027
0.847865
0.851542
0.859107
0.870454
0.888362
0.907779
0.932716
0.953188
0.971692
0.985594
0.99522
1.00126
1.0052
1.00903
1.01605
1.01853
1.01951
1.02006
1.02076
1.01982
1.02289
1.03067
1.04236
1.0473
1.04784
1.04802
1.0486
1.05002
1.05182
1.05241
1.05062
1.04539
1.0385
1.03355
1.03198
1.03168
1.0311
1.02961
1.02817
1.02657
1.02365
1.0182
1.01027
0.841178
0.841247
0.841319
0.841374
0.841446
0.841533
0.841634
0.841736
0.841833
0.841933
0.842038
0.842148
0.842262
0.842377
0.842457
0.84252
0.842581
0.842656
0.842739
0.842824
0.842919
0.843019
0.843106
0.843205
0.843341
0.843491
0.843614
0.843722
0.84384
0.843946
0.844023
0.844107
0.844246
0.844446
0.844639
0.844788
0.844911
0.845025
0.845132
0.845243
0.845353
0.845417
0.84542
0.845399
0.845368
0.845353
0.845376
0.845402
0.845385
0.845304
0.84531
0.845318
0.845264
0.845077
0.844808
0.844537
0.844217
0.843949
0.843962
0.844146
0.844731
0.846555
0.850259
0.859255
0.872526
0.894431
0.918544
0.945605
0.968019
0.99256
1.008
1.01752
1.0189
1.0198
1.0184
1.01463
1.01587
1.02187
1.03385
1.04349
1.04745
1.04736
1.04744
1.04851
1.05064
1.05342
1.05301
1.04974
1.044
1.03759
1.03349
1.03232
1.03189
1.03092
1.02958
1.02829
1.02685
1.02374
1.01799
1.01008
0.84199
0.842071
0.842147
0.84223
0.842323
0.842414
0.842502
0.842601
0.842719
0.84284
0.842958
0.843077
0.84319
0.843293
0.843397
0.843504
0.843604
0.843699
0.843798
0.843895
0.843994
0.844108
0.844233
0.844362
0.844501
0.844638
0.844747
0.844825
0.844902
0.844969
0.844972
0.844973
0.844992
0.845059
0.845126
0.845152
0.845169
0.845202
0.84524
0.845292
0.845398
0.845473
0.845475
0.845464
0.845449
0.845409
0.84535
0.845365
0.845389
0.845347
0.845138
0.844803
0.844496
0.844245
0.844034
0.843837
0.8436
0.843459
0.843452
0.8435
0.843603
0.843805
0.844177
0.844736
0.84589
0.848643
0.85506
0.866545
0.88737
0.911383
0.940064
0.965929
0.981172
0.997048
1.00032
1.00739
1.0152
1.02713
1.03989
1.04353
1.04422
1.04561
1.04765
1.0503
1.0536
1.05423
1.05232
1.04832
1.04255
1.03743
1.03393
1.03267
1.03176
1.03076
1.02977
1.02886
1.02721
1.02352
1.01778
1.01013
0.84305
0.843126
0.843206
0.843288
0.843374
0.843464
0.843553
0.843645
0.843745
0.843848
0.843956
0.844064
0.84416
0.844251
0.844349
0.844454
0.844562
0.84467
0.844771
0.844855
0.844917
0.844966
0.845017
0.845074
0.845142
0.84519
0.845187
0.845189
0.845202
0.845194
0.845123
0.845091
0.845094
0.845118
0.845132
0.845126
0.845128
0.845166
0.845199
0.8452
0.84516
0.845056
0.844922
0.844793
0.844708
0.844647
0.844564
0.844453
0.844338
0.844234
0.844077
0.843793
0.843471
0.843282
0.843253
0.843272
0.843324
0.843304
0.843264
0.84329
0.843469
0.843838
0.844266
0.844624
0.844817
0.844906
0.845096
0.845674
0.847744
0.852122
0.864391
0.881917
0.912351
0.94221
0.969573
1.0002
1.01377
1.02522
1.03777
1.03732
1.03966
1.0439
1.04914
1.0533
1.05433
1.053
1.05033
1.04665
1.04213
1.03755
1.03435
1.03239
1.03109
1.03067
1.03035
1.02932
1.0271
1.02309
1.0176
1.0104
0.843321
0.843385
0.84345
0.843517
0.843591
0.84367
0.843749
0.843827
0.843903
0.843981
0.84406
0.844141
0.844222
0.844309
0.844404
0.844508
0.844619
0.844722
0.844799
0.844849
0.844885
0.844907
0.844919
0.844937
0.844973
0.845012
0.845012
0.845006
0.845002
0.844983
0.844919
0.84484
0.844826
0.844834
0.844833
0.844814
0.844771
0.844701
0.84461
0.844497
0.844352
0.844161
0.843943
0.843752
0.843596
0.843489
0.843449
0.843433
0.843404
0.843314
0.843176
0.84308
0.84305
0.843068
0.843093
0.84313
0.843209
0.843342
0.843527
0.843762
0.844053
0.844352
0.844582
0.844674
0.844672
0.844603
0.844477
0.844332
0.844016
0.843727
0.844005
0.845465
0.851403
0.862662
0.889104
0.917666
0.95505
0.984115
1.01212
1.02528
1.04185
1.04777
1.05098
1.05379
1.05234
1.05075
1.04864
1.04608
1.04232
1.03781
1.03311
1.03126
1.03092
1.0311
1.03077
1.02949
1.02668
1.02303
1.01786
1.01076
0.843134
0.843194
0.843255
0.843323
0.843397
0.843468
0.843539
0.843611
0.843681
0.843753
0.843826
0.843899
0.843978
0.844064
0.844159
0.844265
0.844379
0.844483
0.844553
0.844592
0.844619
0.844644
0.844638
0.844609
0.844584
0.844585
0.844596
0.844592
0.844553
0.844464
0.844381
0.844301
0.844212
0.84415
0.844113
0.844067
0.843996
0.843899
0.843787
0.843666
0.843524
0.84334
0.843127
0.842933
0.842808
0.842757
0.842743
0.842745
0.842799
0.842879
0.842873
0.842873
0.842936
0.843061
0.843213
0.843368
0.843519
0.843688
0.84392
0.844201
0.844394
0.844467
0.844465
0.844424
0.844388
0.844288
0.843967
0.843464
0.843015
0.842827
0.842756
0.842778
0.842936
0.843567
0.846512
0.853646
0.874912
0.90806
0.956189
1.00631
1.03947
1.04681
1.05077
1.04755
1.04719
1.04822
1.04847
1.04625
1.04193
1.03603
1.03122
1.03064
1.03152
1.03161
1.0309
1.0286
1.02621
1.02307
1.01828
1.01089
0.842752
0.842821
0.842891
0.842962
0.843039
0.843113
0.843176
0.843232
0.843288
0.843345
0.843401
0.843461
0.843528
0.843599
0.84368
0.843798
0.843937
0.84399
0.843984
0.843967
0.84395
0.843949
0.843945
0.843911
0.843868
0.843848
0.843851
0.843858
0.843829
0.84375
0.843729
0.843732
0.843733
0.843726
0.843709
0.843688
0.843656
0.843605
0.84353
0.843438
0.843322
0.843158
0.842952
0.842765
0.842645
0.842599
0.842584
0.842582
0.842606
0.842702
0.842911
0.84314
0.843336
0.843525
0.843681
0.84386
0.844006
0.844036
0.844014
0.844014
0.844055
0.844126
0.844146
0.844131
0.843974
0.843629
0.84311
0.842664
0.842503
0.842445
0.842453
0.842527
0.842685
0.842926
0.843168
0.843762
0.845664
0.853111
0.874189
0.921837
0.973454
1.0083
1.03075
1.03642
1.04645
1.05118
1.04965
1.04571
1.03854
1.03295
1.03099
1.03157
1.03271
1.03223
1.03002
1.02798
1.0262
1.02372
1.01868
1.01092
0.842435
0.842499
0.842549
0.842617
0.842704
0.842757
0.842783
0.842802
0.842825
0.842859
0.842909
0.842973
0.843034
0.843079
0.84312
0.843173
0.843228
0.843268
0.843291
0.843296
0.843296
0.843292
0.843292
0.843298
0.8433
0.843283
0.843259
0.84325
0.843248
0.843252
0.843268
0.843286
0.843294
0.843311
0.843377
0.843458
0.843468
0.843461
0.843423
0.843376
0.843306
0.843192
0.84308
0.843027
0.843014
0.843013
0.843029
0.843093
0.843201
0.843347
0.843537
0.843727
0.84389
0.844054
0.844105
0.844089
0.844052
0.843986
0.843848
0.843623
0.843484
0.843425
0.843396
0.843344
0.843161
0.84288
0.842591
0.842383
0.842266
0.842214
0.842257
0.84243
0.842711
0.842939
0.843039
0.84318
0.843833
0.845957
0.850917
0.86465
0.891725
0.940509
0.987053
1.02291
1.04443
1.0475
1.04548
1.03855
1.03078
1.03071
1.03241
1.0337
1.03323
1.03124
1.02888
1.0278
1.02696
1.02417
1.01854
1.0106
0.842335
0.84237
0.842394
0.842423
0.842449
0.842471
0.842495
0.842531
0.842581
0.842643
0.842697
0.842733
0.842768
0.842808
0.842859
0.842908
0.84294
0.842966
0.842997
0.843008
0.843008
0.843008
0.84301
0.843033
0.843047
0.843039
0.84302
0.843001
0.842996
0.843007
0.843054
0.843052
0.843031
0.843037
0.84312
0.843307
0.843456
0.843515
0.843565
0.843631
0.843638
0.843581
0.843477
0.843472
0.843483
0.843475
0.843445
0.843449
0.843517
0.8436
0.843677
0.84372
0.843734
0.843757
0.843776
0.843758
0.843716
0.843635
0.843478
0.843128
0.842728
0.842585
0.8426
0.842643
0.842615
0.842508
0.842361
0.842294
0.842268
0.842285
0.842402
0.842623
0.842674
0.842661
0.842716
0.842936
0.843696
0.845516
0.849706
0.857696
0.867501
0.882763
0.907302
0.947222
0.983793
1.01169
1.02189
1.02549
1.02939
1.03504
1.03536
1.03448
1.03096
1.02933
1.02901
1.02915
1.02774
1.02367
1.01752
1.01024
0.842273
0.842297
0.842313
0.842333
0.842355
0.842388
0.842438
0.842507
0.842594
0.842664
0.842703
0.842732
0.842763
0.84281
0.84286
0.842915
0.842959
0.842951
0.84292
0.842908
0.842939
0.842967
0.842957
0.842952
0.842982
0.843006
0.842995
0.842947
0.842898
0.842905
0.842987
0.84315
0.843296
0.84341
0.843549
0.843649
0.843715
0.84378
0.843869
0.843973
0.843993
0.843926
0.843776
0.843742
0.843735
0.843706
0.843647
0.843551
0.843355
0.843067
0.842994
0.842994
0.843007
0.84302
0.843095
0.843231
0.84324
0.843254
0.843202
0.842808
0.842336
0.842225
0.842231
0.842296
0.842339
0.842347
0.842373
0.84243
0.842482
0.842489
0.842411
0.842364
0.842372
0.842393
0.84242
0.842663
0.843477
0.845262
0.84915
0.85674
0.867492
0.874614
0.878061
0.886529
0.906331
0.939667
0.973072
1.01223
1.02714
1.03498
1.03433
1.02873
1.02617
1.02818
1.03095
1.0304
1.02746
1.02188
1.01662
1.01009
0.842331
0.84236
0.842386
0.842428
0.842497
0.84258
0.842692
0.842802
0.842867
0.84291
0.842949
0.842987
0.843039
0.843055
0.843072
0.843152
0.843227
0.843198
0.843132
0.843107
0.843127
0.843215
0.843222
0.843182
0.843177
0.843194
0.843174
0.843091
0.842964
0.842824
0.842747
0.842773
0.842855
0.842961
0.843093
0.843285
0.843469
0.843567
0.843628
0.843724
0.843779
0.843749
0.843546
0.843386
0.843363
0.843354
0.843313
0.843231
0.843075
0.842772
0.842426
0.842321
0.842296
0.842308
0.842494
0.842938
0.843
0.843
0.842984
0.842735
0.842312
0.842154
0.842133
0.842155
0.842269
0.842434
0.842545
0.842565
0.842522
0.842456
0.842352
0.842147
0.842067
0.842056
0.842072
0.842395
0.84335
0.845179
0.848709
0.855594
0.866527
0.874328
0.876057
0.876061
0.876996
0.8812
0.899278
0.928757
0.963605
1.00235
1.01159
1.01773
1.02546
1.0323
1.03205
1.03031
1.02449
1.02037
1.01673
1.01077
0.842303
0.842345
0.84238
0.842452
0.842545
0.842625
0.842738
0.842836
0.842903
0.842966
0.843022
0.8431
0.843178
0.843182
0.843197
0.843305
0.843352
0.843297
0.843233
0.843216
0.843238
0.843398
0.843476
0.843421
0.84337
0.843312
0.843263
0.843226
0.843155
0.842984
0.842655
0.842374
0.842376
0.842454
0.842526
0.842611
0.842722
0.842845
0.842989
0.843182
0.843312
0.843294
0.843053
0.842708
0.842667
0.842785
0.842955
0.842988
0.842984
0.842786
0.84233
0.842142
0.842112
0.842138
0.8423
0.842722
0.842885
0.842883
0.842866
0.842735
0.842515
0.842357
0.842302
0.842342
0.842443
0.842463
0.842388
0.842348
0.842394
0.842373
0.842267
0.842107
0.841994
0.842014
0.84211
0.842498
0.84347
0.84523
0.848315
0.854237
0.864002
0.872849
0.875661
0.875565
0.8751
0.873169
0.872529
0.875577
0.894323
0.925685
0.96659
1.00903
1.02375
1.03143
1.0303
1.02488
1.02152
1.01929
1.01686
1.01106
0.841557
0.84164
0.841729
0.841843
0.841957
0.842049
0.842139
0.842233
0.842344
0.842471
0.842574
0.842689
0.842757
0.842753
0.842759
0.842819
0.84283
0.842764
0.842692
0.842677
0.842702
0.842862
0.842936
0.842849
0.842606
0.842535
0.842594
0.842612
0.842558
0.842316
0.841951
0.841891
0.841997
0.842069
0.842084
0.842179
0.842246
0.842208
0.842176
0.842237
0.842362
0.842338
0.842148
0.842038
0.842068
0.842333
0.842676
0.842805
0.842809
0.842673
0.842367
0.842227
0.842238
0.842301
0.842435
0.842681
0.842907
0.842956
0.842905
0.842789
0.842675
0.842531
0.842437
0.842382
0.842314
0.842138
0.842109
0.842156
0.84236
0.842451
0.84236
0.842196
0.842192
0.842302
0.842484
0.842896
0.843787
0.845362
0.848005
0.852829
0.861217
0.870715
0.875351
0.875662
0.87511
0.87316
0.870615
0.868497
0.869118
0.87395
0.896246
0.93195
0.96829
1.00028
1.01037
1.01812
1.02351
1.02205
1.01771
1.00953
0.839551
0.839601
0.839667
0.839768
0.839815
0.83989
0.840002
0.840207
0.840783
0.841424
0.841512
0.841466
0.841455
0.841562
0.841633
0.841538
0.841392
0.841338
0.841346
0.841393
0.841538
0.84168
0.841648
0.841336
0.840933
0.840844
0.84093
0.841266
0.841498
0.841522
0.841581
0.841907
0.842243
0.842327
0.842361
0.842367
0.84235
0.842207
0.841992
0.84189
0.841801
0.841627
0.84152
0.841542
0.84169
0.842144
0.842585
0.84273
0.842685
0.842485
0.842296
0.842246
0.84227
0.842397
0.84263
0.842715
0.842696
0.842589
0.842408
0.842209
0.842098
0.842123
0.842269
0.842353
0.842345
0.842214
0.842183
0.842244
0.842466
0.842642
0.84256
0.842382
0.84241
0.842641
0.843007
0.843519
0.84433
0.845679
0.847867
0.851662
0.85867
0.86857
0.875407
0.875851
0.875009
0.872665
0.869918
0.868184
0.867282
0.866687
0.868189
0.875233
0.89931
0.933842
0.979225
1.01232
1.02326
1.02113
1.01183
1.00539
0.836757
0.83683
0.837089
0.837379
0.837433
0.837467
0.837607
0.837984
0.838546
0.838855
0.838858
0.838747
0.838706
0.838894
0.839237
0.839216
0.839208
0.839234
0.839254
0.839316
0.839521
0.83972
0.839683
0.839474
0.839167
0.839015
0.839017
0.839165
0.839515
0.839958
0.840537
0.841278
0.84169
0.841693
0.841554
0.841427
0.84143
0.8414
0.841277
0.841065
0.84084
0.840549
0.840413
0.840433
0.840636
0.841209
0.841738
0.841731
0.841438
0.841225
0.841213
0.841299
0.841452
0.841701
0.842053
0.842185
0.842152
0.841967
0.841561
0.841204
0.841155
0.841301
0.841809
0.842273
0.842402
0.842366
0.842321
0.842371
0.842568
0.842761
0.842707
0.842494
0.842492
0.842787
0.843338
0.843966
0.844844
0.846143
0.847931
0.850883
0.856733
0.866832
0.874978
0.875489
0.874425
0.872009
0.869533
0.868124
0.867192
0.866514
0.866372
0.866579
0.868496
0.877492
0.903944
0.942305
0.983543
0.992817
0.997745
1.00498
0.837685
0.837509
0.837416
0.837372
0.837368
0.837521
0.837899
0.837981
0.837978
0.838008
0.838022
0.838001
0.837986
0.838182
0.838787
0.838925
0.838907
0.83882
0.838617
0.838563
0.838604
0.838627
0.838486
0.838322
0.838371
0.838383
0.838124
0.837601
0.837489
0.837559
0.837907
0.838203
0.838226
0.838025
0.837735
0.837619
0.837683
0.838128
0.838544
0.838551
0.838494
0.838221
0.83793
0.837931
0.838104
0.838591
0.838771
0.838587
0.838116
0.837931
0.838045
0.83841
0.838982
0.839716
0.840399
0.840606
0.840601
0.840616
0.840563
0.840355
0.840221
0.840309
0.840691
0.841314
0.842036
0.842348
0.842347
0.842422
0.842413
0.842351
0.842306
0.842363
0.842382
0.842499
0.843088
0.844028
0.845061
0.846345
0.847998
0.850459
0.855447
0.86498
0.873872
0.874558
0.873588
0.871445
0.869505
0.868447
0.867854
0.867008
0.866528
0.86661
0.866703
0.866808
0.868753
0.881497
0.907053
0.941573
0.978448
1.00423
0.835151
0.834861
0.834833
0.834898
0.83529
0.835448
0.835447
0.835259
0.834833
0.834709
0.834719
0.834785
0.835002
0.835316
0.835821
0.836469
0.836862
0.837055
0.837429
0.837705
0.837812
0.83803
0.838158
0.83822
0.838368
0.838381
0.838074
0.837097
0.836231
0.836037
0.836047
0.836007
0.835582
0.834676
0.834331
0.834371
0.834742
0.835573
0.836496
0.836875
0.836874
0.836747
0.836617
0.83666
0.837055
0.837712
0.837738
0.837323
0.836368
0.835574
0.835631
0.836185
0.837103
0.837942
0.838589
0.838857
0.838806
0.838835
0.838908
0.838905
0.838759
0.83873
0.83883
0.839045
0.839429
0.840049
0.840395
0.840436
0.840538
0.840693
0.840866
0.84105
0.841165
0.841353
0.841873
0.842861
0.844112
0.845619
0.847393
0.849791
0.853814
0.861081
0.870453
0.873526
0.872843
0.871138
0.869503
0.869281
0.868987
0.86833
0.867804
0.867554
0.867432
0.867118
0.86651
0.864158
0.866071
0.87735
0.898668
0.955081
0.836037
0.836002
0.836021
0.836099
0.836278
0.836327
0.836312
0.836144
0.835919
0.835873
0.835848
0.835845
0.835915
0.836175
0.836654
0.837244
0.837836
0.838397
0.838945
0.839522
0.840231
0.841037
0.841422
0.841505
0.841505
0.841316
0.840612
0.839356
0.83797
0.837287
0.837173
0.837152
0.836981
0.83633
0.835393
0.835164
0.835432
0.836211
0.83694
0.837066
0.837256
0.837581
0.837688
0.838052
0.839259
0.84055
0.840792
0.840584
0.839888
0.838906
0.838397
0.838448
0.838594
0.838669
0.838875
0.839207
0.839155
0.839148
0.839279
0.839389
0.839208
0.838341
0.837879
0.837948
0.838137
0.838434
0.838627
0.838748
0.838957
0.839174
0.839283
0.839429
0.839611
0.839865
0.840373
0.84132
0.842488
0.843706
0.845187
0.847201
0.85032
0.856108
0.865371
0.871635
0.871961
0.871303
0.870485
0.870272
0.869682
0.868936
0.868347
0.868007
0.867764
0.867418
0.866898
0.864857
0.860841
0.854028
0.855009
0.891245
0.845286
0.845149
0.844709
0.844282
0.844349
0.844706
0.844725
0.844689
0.844365
0.843971
0.843923
0.844064
0.844551
0.844927
0.844811
0.844702
0.844772
0.845158
0.845809
0.846486
0.846975
0.847493
0.848363
0.849439
0.849824
0.849785
0.849367
0.848584
0.848391
0.848636
0.849216
0.849325
0.848887
0.84751
0.845507
0.84389
0.843703
0.843846
0.843663
0.841932
0.84032
0.840371
0.840856
0.841395
0.842254
0.843245
0.843663
0.843693
0.84339
0.842513
0.841516
0.840819
0.84039
0.83999
0.839464
0.839224
0.839174
0.838953
0.838814
0.838685
0.83871
0.838733
0.838615
0.838351
0.838342
0.838562
0.839069
0.839486
0.839752
0.83985
0.839894
0.840026
0.840189
0.840377
0.840735
0.841235
0.841713
0.842214
0.843127
0.844592
0.846857
0.851241
0.858673
0.866344
0.870426
0.871737
0.87156
0.871295
0.870631
0.869902
0.869367
0.869078
0.868764
0.868316
0.867439
0.865137
0.860137
0.85354
0.847175
0.852865
0.861187
0.861754
0.861934
0.86144
0.859521
0.857924
0.857624
0.857702
0.857876
0.858366
0.859196
0.85934
0.85919
0.858339
0.857138
0.855639
0.854396
0.853892
0.853627
0.852861
0.851683
0.851513
0.851758
0.852895
0.853794
0.853775
0.853203
0.85289
0.853141
0.854557
0.856183
0.856344
0.855762
0.853984
0.853543
0.854071
0.854458
0.854307
0.853293
0.850502
0.847856
0.847449
0.847536
0.847654
0.847437
0.845932
0.844285
0.84397
0.844248
0.84524
0.845857
0.845814
0.845442
0.845025
0.84464
0.844125
0.843156
0.841614
0.841064
0.841071
0.841387
0.842658
0.843774
0.843804
0.843506
0.843044
0.84309
0.843502
0.843602
0.843535
0.84327
0.842881
0.842707
0.842588
0.842383
0.841933
0.841703
0.842017
0.842836
0.844079
0.845631
0.848225
0.8529
0.859243
0.865658
0.870889
0.871792
0.87116
0.870288
0.869599
0.869144
0.868908
0.868656
0.868214
0.867201
0.864755
0.859386
0.851825
0.845883
0.845455
0.878561
0.875206
0.874654
0.874883
0.875019
0.875103
0.875989
0.876865
0.877749
0.878808
0.878972
0.878977
0.878973
0.879067
0.878843
0.877217
0.876941
0.876961
0.876815
0.875424
0.873445
0.873166
0.873596
0.874538
0.874788
0.874792
0.87448
0.873431
0.87231
0.871723
0.871538
0.87148
0.870843
0.868526
0.867391
0.867666
0.867802
0.867527
0.8673
0.86647
0.865879
0.865925
0.866202
0.866518
0.866382
0.865576
0.863779
0.861148
0.85954
0.859521
0.860075
0.86034
0.859646
0.858533
0.858545
0.858746
0.858794
0.857897
0.85603
0.854817
0.854073
0.853349
0.852656
0.851784
0.850625
0.84989
0.84961
0.849153
0.84827
0.847172
0.845853
0.844513
0.844063
0.844209
0.844569
0.844648
0.844195
0.843947
0.844018
0.844315
0.845228
0.847328
0.850827
0.855663
0.860882
0.86686
0.870831
0.870851
0.870321
0.869977
0.869709
0.869479
0.869258
0.868757
0.867565
0.864984
0.859253
0.85116
0.845591
0.845244
0.898593
0.898542
0.898507
0.898926
0.899681
0.899664
0.898861
0.897391
0.896196
0.895731
0.896008
0.896882
0.897031
0.89662
0.896126
0.89627
0.895941
0.895447
0.895488
0.895399
0.893171
0.890315
0.889981
0.890435
0.892457
0.893732
0.893502
0.893217
0.893286
0.893591
0.893597
0.893351
0.892317
0.890046
0.889558
0.889366
0.88873
0.887382
0.886175
0.884847
0.882331
0.880409
0.880408
0.880338
0.879994
0.880293
0.880316
0.879149
0.878065
0.878117
0.878589
0.878478
0.876393
0.871556
0.868953
0.868979
0.869572
0.869455
0.868915
0.868291
0.866998
0.86439
0.861801
0.860551
0.859814
0.859044
0.8582
0.856977
0.854445
0.852386
0.852513
0.852727
0.851679
0.849697
0.848753
0.848377
0.848673
0.849457
0.849928
0.850223
0.85058
0.851213
0.852846
0.855718
0.859668
0.865172
0.87038
0.871441
0.871867
0.872939
0.873019
0.872954
0.87286
0.872262
0.870363
0.866287
0.859599
0.851586
0.847319
0.847606
0.922461
0.922629
0.922953
0.923574
0.923852
0.923775
0.923308
0.922229
0.921213
0.920933
0.920789
0.92055
0.920546
0.92057
0.920407
0.920189
0.920282
0.919919
0.918382
0.917627
0.917185
0.916052
0.914991
0.914841
0.914741
0.914284
0.91362
0.913496
0.913367
0.91291
0.91182
0.910012
0.908791
0.908735
0.909096
0.909093
0.908212
0.907655
0.907797
0.907724
0.907024
0.905688
0.904417
0.903222
0.901918
0.900974
0.900218
0.898698
0.896292
0.895556
0.895999
0.896532
0.896017
0.894068
0.892767
0.891839
0.889651
0.886828
0.88626
0.886281
0.886122
0.884738
0.882456
0.881216
0.880452
0.879354
0.878204
0.8775
0.875847
0.8724
0.869825
0.867716
0.866108
0.86553
0.864619
0.861767
0.857047
0.854092
0.853987
0.854294
0.854687
0.855302
0.856076
0.857581
0.859742
0.863551
0.869
0.872036
0.875031
0.876991
0.876918
0.876652
0.876323
0.875881
0.874395
0.870299
0.863384
0.857852
0.856305
0.857061
0.945018
0.945012
0.945031
0.945398
0.945656
0.945439
0.943666
0.942299
0.942218
0.942387
0.94277
0.942783
0.942259
0.941793
0.941805
0.941637
0.940791
0.940247
0.94037
0.940504
0.940401
0.939235
0.938269
0.938307
0.938261
0.937775
0.937693
0.937615
0.937417
0.936988
0.936159
0.934923
0.93387
0.933211
0.932619
0.931547
0.930104
0.928969
0.928345
0.927805
0.926846
0.925857
0.925132
0.924178
0.922861
0.922636
0.922606
0.921942
0.919736
0.918579
0.918082
0.916555
0.913546
0.912581
0.912624
0.912221
0.910346
0.908499
0.907441
0.905681
0.903235
0.901308
0.899986
0.898572
0.897076
0.895223
0.893018
0.8909
0.888744
0.887002
0.884938
0.880955
0.877836
0.877631
0.877612
0.876741
0.874253
0.871505
0.869537
0.866806
0.863132
0.862179
0.862132
0.862605
0.864412
0.866651
0.870644
0.876259
0.881547
0.881996
0.881614
0.880923
0.880117
0.879541
0.878054
0.873538
0.866545
0.862186
0.86113
0.861602
0.968358
0.968353
0.968359
0.968527
0.969055
0.969224
0.968994
0.967634
0.966963
0.966925
0.966689
0.965877
0.965141
0.965178
0.965584
0.965659
0.965387
0.964559
0.963803
0.9636
0.963536
0.963131
0.962023
0.961306
0.960847
0.960399
0.959526
0.95811
0.957881
0.957874
0.957682
0.956593
0.955445
0.955146
0.954866
0.954291
0.953155
0.952089
0.951593
0.951173
0.950496
0.949492
0.948257
0.946974
0.945421
0.944212
0.943363
0.941478
0.939497
0.939427
0.939591
0.93897
0.93705
0.935032
0.9336
0.932119
0.929425
0.928225
0.927663
0.926768
0.924815
0.921528
0.919737
0.918825
0.91758
0.9155
0.913165
0.910963
0.907696
0.905946
0.904607
0.902012
0.899674
0.897793
0.894133
0.890844
0.88867
0.886384
0.884561
0.882475
0.880662
0.880218
0.879724
0.877904
0.876739
0.877032
0.878018
0.880069
0.882072
0.882022
0.882379
0.882821
0.882641
0.881744
0.879644
0.875052
0.868596
0.865735
0.866196
0.869112
0.991895
0.991709
0.991667
0.991681
0.992091
0.992811
0.99291
0.992523
0.991206
0.990756
0.9908
0.990541
0.989363
0.988467
0.98845
0.988948
0.989112
0.988745
0.98771
0.986737
0.98662
0.986587
0.986368
0.985761
0.984814
0.983877
0.983197
0.98265
0.982161
0.981665
0.981163
0.980471
0.979472
0.978497
0.977839
0.97721
0.976297
0.975195
0.974131
0.97302
0.971915
0.971025
0.970173
0.969223
0.967788
0.966637
0.96592
0.964965
0.963716
0.962362
0.96093
0.959357
0.957785
0.956259
0.954891
0.953481
0.951768
0.950057
0.948448
0.946688
0.945012
0.943121
0.940664
0.938424
0.93656
0.934024
0.931468
0.930144
0.928246
0.925721
0.923116
0.918855
0.915829
0.914518
0.912663
0.909548
0.906701
0.903717
0.899559
0.895534
0.893901
0.893378
0.892431
0.890737
0.888984
0.888884
0.888783
0.88813
0.888243
0.889417
0.892507
0.894911
0.895149
0.894907
0.893253
0.888879
0.884189
0.883487
0.884197
0.888043
1.01782
1.0171
1.01703
1.01706
1.01744
1.01767
1.01751
1.01695
1.01665
1.01614
1.01503
1.01482
1.0148
1.0146
1.01406
1.01324
1.01316
1.01319
1.01303
1.01216
1.01051
1.01017
1.01015
1.01001
1.0092
1.00777
1.00724
1.00707
1.0067
1.00537
1.00409
1.00353
1.00303
1.00214
1.00133
1.00074
0.999997
0.998862
0.997662
0.996607
0.995537
0.994432
0.993218
0.992043
0.99092
0.989699
0.988515
0.987281
0.985661
0.984006
0.982594
0.981391
0.980106
0.978627
0.976826
0.974944
0.973005
0.971175
0.969676
0.968095
0.965723
0.963414
0.961575
0.959404
0.95718
0.955115
0.952503
0.949752
0.947197
0.944428
0.942342
0.939981
0.93682
0.933268