/*--------------------------------*- C++ -*----------------------------------*\
  =========                 |
  \\      /  F ield         | OpenFOAM: The Open Source CFD Toolbox
   \\    /   O peration     | Website:  https://openfoam.org
    \\  /    A nd           | Version:  7
     \\/     M anipulation  |
\*---------------------------------------------------------------------------*/
FoamFile
{
    version     2.0;
    format      ascii;
    class       volVectorField;
    location    "4.5";
    object      U;
}
// * * * * * * * * * * * * * * * * * * * * * * * * * * * * * * * * * * * * * //

dimensions      [0 1 -1 0 0 0 0];

internalField   nonuniform List<vector> 
90000
(
(5.03864 -0.311831 0)
(5.0371 -0.297042 0)
(5.03492 -0.282294 0)
(5.03233 -0.269081 0)
(5.02918 -0.255034 0)
(5.02717 -0.248617 0)
(5.02382 -0.237666 0)
(5.02115 -0.231103 0)
(5.01797 -0.222132 0)
(5.01551 -0.217967 0)
(5.01225 -0.209763 0)
(5.0097 -0.206157 0)
(5.00652 -0.198827 0)
(5.0041 -0.194615 0)
(5.00089 -0.185844 0)
(4.99866 -0.179708 0)
(4.99651 -0.167773 0)
(4.99573 -0.161958 0)
(4.99424 -0.148323 0)
(4.99372 -0.141827 0)
(4.99239 -0.129296 0)
(4.99145 -0.120023 0)
(4.99078 -0.112943 0)
(4.98918 -0.0999821 0)
(4.98866 -0.0955704 0)
(4.98686 -0.0831434 0)
(4.98587 -0.0765805 0)
(4.98489 -0.0700803 0)
(4.98286 -0.0561667 0)
(4.98321 -0.056745 0)
(4.98035 -0.0410011 0)
(4.97963 -0.0375317 0)
(4.97881 -0.0319286 0)
(4.97617 -0.0188203 0)
(4.97786 -0.0200511 0)
(4.97369 -0.00643296 0)
(4.97431 -0.00513848 0)
(4.97184 0.00211376 0)
(4.97118 0.00578792 0)
(4.97129 0.00828524 0)
(4.97201 0.010535 0)
(4.97216 0.0139055 0)
(4.97205 0.0144195 0)
(4.97186 0.0132413 0)
(4.97219 0.00723568 0)
(4.97116 0.00350164 0)
(4.97188 -0.00815077 0)
(4.97021 -0.0114624 0)
(4.9697 -0.0206914 0)
(4.96942 -0.0236417 0)
(4.96803 -0.0244975 0)
(4.96651 -0.0240692 0)
(4.96507 -0.0212916 0)
(4.96559 -0.0201779 0)
(4.96268 -0.013425 0)
(4.96327 -0.00955985 0)
(4.96285 -0.00379752 0)
(4.96296 -0.00140943 0)
(4.96347 0.00192406 0)
(4.96339 0.00242636 0)
(4.96374 0.00029232 0)
(4.96357 -0.00363313 0)
(4.96347 -0.008249 0)
(4.96388 -0.0116442 0)
(4.96441 -0.0145789 0)
(4.96468 -0.0166572 0)
(4.96614 -0.017456 0)
(4.96505 -0.0138156 0)
(4.96469 -0.00780839 0)
(4.96438 -0.00290846 0)
(4.96532 0.00154556 0)
(4.96551 0.00173159 0)
(4.96609 -0.00190719 0)
(4.96655 -0.00550764 0)
(4.96688 -0.00838718 0)
(4.96857 -0.0100926 0)
(4.96936 -0.0091418 0)
(4.96853 -0.00570231 0)
(4.96859 -0.00229877 0)
(4.96822 -0.00226413 0)
(4.96876 -0.00545317 0)
(4.9685 -0.00734237 0)
(4.96997 -0.00869964 0)
(4.97094 -0.00830782 0)
(4.97023 -0.00466533 0)
(4.96994 -0.00233831 0)
(4.96925 -0.00362908 0)
(4.96951 -0.00482307 0)
(4.96987 -0.00578749 0)
(4.97105 -0.00463013 0)
(4.97123 -0.00428987 0)
(4.97166 -0.0037189 0)
(4.9713 -0.00522539 0)
(4.97149 -0.00556734 0)
(4.97182 -0.00546755 0)
(4.97212 -0.00514878 0)
(4.97243 -0.00363028 0)
(4.972 -0.00474719 0)
(4.97194 -0.00540105 0)
(4.97252 -0.00615656 0)
(5.0393 -0.323237 0)
(5.03919 -0.322796 0)
(5.03898 -0.322059 0)
(5.03867 -0.320893 0)
(5.03814 -0.319172 0)
(5.03758 -0.317471 0)
(5.03687 -0.315193 0)
(5.03609 -0.312801 0)
(5.03515 -0.309405 0)
(5.03427 -0.306537 0)
(5.03322 -0.302782 0)
(5.03216 -0.29903 0)
(5.031 -0.294549 0)
(5.02992 -0.290598 0)
(5.02868 -0.285359 0)
(5.02737 -0.281003 0)
(5.02492 -0.274776 0)
(5.02233 -0.270096 0)
(5.01901 -0.262272 0)
(5.01614 -0.256789 0)
(5.0125 -0.246013 0)
(5.00967 -0.238921 0)
(5.00625 -0.226486 0)
(5.00341 -0.216731 0)
(5.00037 -0.204053 0)
(4.99746 -0.191276 0)
(4.99446 -0.176315 0)
(4.99282 -0.167113 0)
(4.98864 -0.143309 0)
(4.98892 -0.140169 0)
(4.98413 -0.11491 0)
(4.98278 -0.103143 0)
(4.9825 -0.0952221 0)
(4.97804 -0.0657118 0)
(4.98068 -0.0689372 0)
(4.97544 -0.0412249 0)
(4.97633 -0.039537 0)
(4.97313 -0.0190706 0)
(4.97479 -0.0205057 0)
(4.97073 -0.00169387 0)
(4.97136 -0.00131495 0)
(4.96908 0.00801836 0)
(4.96959 0.0114474 0)
(4.96934 0.012833 0)
(4.96879 0.0161703 0)
(4.96768 0.0134782 0)
(4.96888 0.0133188 0)
(4.9708 0.00546805 0)
(4.9714 0.00236564 0)
(4.9722 -0.0016234 0)
(4.97292 -0.00487818 0)
(4.97333 -0.0088797 0)
(4.97346 -0.0084944 0)
(4.97211 -0.0104021 0)
(4.97192 -0.00725577 0)
(4.97196 -0.00631339 0)
(4.97173 -0.00473877 0)
(4.97086 -0.00428435 0)
(4.97024 -0.00137664 0)
(4.96943 -0.00267386 0)
(4.96968 -0.00023612 0)
(4.96802 -0.00486207 0)
(4.96802 -0.00707161 0)
(4.96801 -0.0093425 0)
(4.96845 -0.0108181 0)
(4.96916 -0.0122382 0)
(4.96973 -0.0118124 0)
(4.97018 -0.00705209 0)
(4.97022 -0.00565552 0)
(4.97007 -0.00272289 0)
(4.9695 -0.0018896 0)
(4.96852 -0.000127367 0)
(4.96812 -0.00189769 0)
(4.96824 -0.00372512 0)
(4.96843 -0.00497429 0)
(4.96906 -0.00803606 0)
(4.97005 -0.00468866 0)
(4.97011 -0.00428446 0)
(4.97009 -0.00451962 0)
(4.96965 -0.00401848 0)
(4.96949 -0.00352904 0)
(4.96934 -0.00389388 0)
(4.96956 -0.00495631 0)
(4.96997 -0.0045941 0)
(4.96997 -0.00482092 0)
(4.96988 -0.00566588 0)
(4.96911 -0.0032591 0)
(4.96908 -0.00321111 0)
(4.96853 -0.00268465 0)
(4.9697 -0.00428666 0)
(4.96992 -0.00489506 0)
(4.97017 -0.00512819 0)
(4.97015 -0.00491756 0)
(4.96997 -0.00487329 0)
(4.97041 -0.0051006 0)
(4.97056 -0.00488322 0)
(4.9709 -0.00479226 0)
(4.97089 -0.00418731 0)
(4.97085 -0.00461632 0)
(4.97113 -0.00534951 0)
(5.03709 -0.323635 0)
(5.03705 -0.323661 0)
(5.03701 -0.32361 0)
(5.037 -0.323694 0)
(5.03687 -0.323484 0)
(5.03686 -0.323341 0)
(5.0369 -0.323301 0)
(5.0369 -0.323106 0)
(5.03681 -0.322715 0)
(5.0368 -0.322513 0)
(5.03678 -0.322351 0)
(5.03673 -0.322108 0)
(5.03662 -0.321632 0)
(5.03652 -0.321134 0)
(5.03638 -0.320544 0)
(5.03621 -0.319768 0)
(5.03596 -0.318618 0)
(5.0356 -0.317436 0)
(5.0352 -0.316278 0)
(5.0347 -0.314584 0)
(5.03403 -0.312493 0)
(5.03328 -0.310422 0)
(5.03232 -0.30718 0)
(5.03144 -0.304442 0)
(5.03013 -0.298811 0)
(5.02903 -0.295428 0)
(5.02722 -0.287611 0)
(5.02566 -0.281609 0)
(5.02376 -0.273676 0)
(5.02154 -0.261955 0)
(5.01962 -0.254016 0)
(5.01673 -0.238794 0)
(5.01421 -0.226159 0)
(5.01122 -0.211688 0)
(5.00851 -0.196284 0)
(5.00427 -0.171646 0)
(5.0038 -0.167557 0)
(4.99792 -0.132071 0)
(4.99684 -0.127852 0)
(4.99213 -0.102893 0)
(4.9891 -0.0859991 0)
(4.98756 -0.0785806 0)
(4.98337 -0.0513809 0)
(4.98338 -0.0555709 0)
(4.97925 -0.0401785 0)
(4.97838 -0.0316851 0)
(4.98079 -0.024755 0)
(4.97695 -0.017873 0)
(4.97704 -0.0135943 0)
(4.97681 -0.00861643 0)
(4.97644 -0.00336599 0)
(4.97525 -0.00285016 0)
(4.97556 -0.00148996 0)
(4.97672 -0.00252607 0)
(4.97774 -0.00301126 0)
(4.9773 -0.00511579 0)
(4.97663 -0.00644238 0)
(4.9764 -0.00834394 0)
(4.97612 -0.00980971 0)
(4.97574 -0.010167 0)
(4.9753 -0.0125199 0)
(4.97426 -0.0103852 0)
(4.97415 -0.00834092 0)
(4.97422 -0.00775455 0)
(4.9744 -0.00622795 0)
(4.97493 -0.00689288 0)
(4.97501 -0.00523282 0)
(4.9759 -0.00902399 0)
(4.97525 -0.0101708 0)
(4.97434 -0.0109108 0)
(4.97378 -0.010582 0)
(4.97289 -0.00789813 0)
(4.97266 -0.00514178 0)
(4.9718 0.000237411 0)
(4.97173 0.000815877 0)
(4.97272 0.000307026 0)
(4.97246 -0.00392378 0)
(4.97317 -0.00968644 0)
(4.97352 -0.0108215 0)
(4.97265 -0.00863363 0)
(4.97255 -0.00661316 0)
(4.97184 -0.00353681 0)
(4.97204 -0.00451821 0)
(4.97141 -0.00724362 0)
(4.97141 -0.009351 0)
(4.97118 -0.00798657 0)
(4.97103 -0.00576094 0)
(4.97074 -0.00260224 0)
(4.97054 -0.0036273 0)
(4.97069 -0.00498258 0)
(4.97088 -0.00579643 0)
(4.9709 -0.00520564 0)
(4.97086 -0.00491027 0)
(4.97077 -0.00521901 0)
(4.97083 -0.00556353 0)
(4.97089 -0.00550358 0)
(4.97103 -0.00473373 0)
(4.97122 -0.00467239 0)
(4.97122 -0.00504722 0)
(4.97123 -0.00576305 0)
(5.03543 -0.32168 0)
(5.0354 -0.321678 0)
(5.03537 -0.321699 0)
(5.03531 -0.321733 0)
(5.03531 -0.321746 0)
(5.0353 -0.321772 0)
(5.03533 -0.321765 0)
(5.03535 -0.321749 0)
(5.03543 -0.321747 0)
(5.03546 -0.321752 0)
(5.03549 -0.321785 0)
(5.03551 -0.321827 0)
(5.03551 -0.321879 0)
(5.03546 -0.321855 0)
(5.03533 -0.322134 0)
(5.03524 -0.322192 0)
(5.03514 -0.322274 0)
(5.03523 -0.32226 0)
(5.03529 -0.322158 0)
(5.0353 -0.321849 0)
(5.03529 -0.321578 0)
(5.03519 -0.321742 0)
(5.03517 -0.321888 0)
(5.03514 -0.32162 0)
(5.03511 -0.321191 0)
(5.03508 -0.320749 0)
(5.03501 -0.320338 0)
(5.03487 -0.319719 0)
(5.03473 -0.319187 0)
(5.03451 -0.317854 0)
(5.03416 -0.31648 0)
(5.03366 -0.314518 0)
(5.03302 -0.311892 0)
(5.03211 -0.307807 0)
(5.031 -0.302885 0)
(5.0295 -0.295645 0)
(5.02787 -0.286716 0)
(5.02573 -0.276045 0)
(5.02323 -0.261813 0)
(5.02045 -0.247079 0)
(5.01612 -0.221287 0)
(5.01476 -0.212201 0)
(5.00719 -0.166823 0)
(5.00753 -0.164416 0)
(4.99841 -0.117652 0)
(4.99538 -0.098815 0)
(4.99516 -0.0876121 0)
(4.98839 -0.0421764 0)
(4.98992 -0.0557257 0)
(4.98329 -0.0269326 0)
(4.98129 -0.023 0)
(4.98057 -0.0206201 0)
(4.97988 -0.0148177 0)
(4.97979 -0.0131009 0)
(4.97815 -0.00866526 0)
(4.97771 -0.0078413 0)
(4.97756 -0.0092816 0)
(4.9776 -0.0105722 0)
(4.97771 -0.0107324 0)
(4.97784 -0.0114131 0)
(4.97761 -0.0101332 0)
(4.97763 -0.00890575 0)
(4.9774 -0.00721726 0)
(4.9771 -0.00393792 0)
(4.97696 -0.00114179 0)
(4.97658 0.00104473 0)
(4.9764 0.000411909 0)
(4.97643 -0.00194809 0)
(4.9764 -0.0054461 0)
(4.9763 -0.00860855 0)
(4.97615 -0.0108774 0)
(4.97615 -0.0104575 0)
(4.97582 -0.00631516 0)
(4.97533 -0.00461817 0)
(4.97473 -0.00142311 0)
(4.9764 0.00335746 0)
(4.9749 -0.00070933 0)
(4.9753 -0.00254599 0)
(4.97545 -0.00567511 0)
(4.97544 -0.00665627 0)
(4.97542 -0.00602919 0)
(4.97505 -0.0051416 0)
(4.97587 -0.0031215 0)
(4.97391 -0.0040999 0)
(4.97426 -0.00506368 0)
(4.97376 -0.00715144 0)
(4.9741 -0.00549281 0)
(4.97393 -0.00468992 0)
(4.97384 -0.00215253 0)
(4.97372 -0.00270585 0)
(4.9737 -0.00364663 0)
(4.97364 -0.00444698 0)
(4.97363 -0.00419468 0)
(4.97354 -0.00412532 0)
(4.97347 -0.00454795 0)
(4.97351 -0.00544508 0)
(4.97347 -0.00545232 0)
(4.9736 -0.00490172 0)
(4.97322 -0.00433744 0)
(4.97318 -0.00472404 0)
(5.03536 -0.321489 0)
(5.03533 -0.32151 0)
(5.0353 -0.321511 0)
(5.03526 -0.321445 0)
(5.03525 -0.321414 0)
(5.03524 -0.321448 0)
(5.03524 -0.321458 0)
(5.03528 -0.321398 0)
(5.0353 -0.321362 0)
(5.03535 -0.321374 0)
(5.03545 -0.321489 0)
(5.03546 -0.321543 0)
(5.03543 -0.321546 0)
(5.03534 -0.321575 0)
(5.03522 -0.321713 0)
(5.03521 -0.321828 0)
(5.03533 -0.321982 0)
(5.03543 -0.322169 0)
(5.03547 -0.322315 0)
(5.03553 -0.322376 0)
(5.03558 -0.322327 0)
(5.03548 -0.322553 0)
(5.03543 -0.322891 0)
(5.03549 -0.323113 0)
(5.03554 -0.323107 0)
(5.03553 -0.323201 0)
(5.03551 -0.323192 0)
(5.03542 -0.323331 0)
(5.03531 -0.323754 0)
(5.03517 -0.32348 0)
(5.03524 -0.323724 0)
(5.03531 -0.323818 0)
(5.03536 -0.323853 0)
(5.03536 -0.323688 0)
(5.03533 -0.323523 0)
(5.03524 -0.323209 0)
(5.0351 -0.322828 0)
(5.03491 -0.322209 0)
(5.03467 -0.320812 0)
(5.03429 -0.318781 0)
(5.03354 -0.315012 0)
(5.03249 -0.309642 0)
(5.03084 -0.30233 0)
(5.02882 -0.290362 0)
(5.02601 -0.276308 0)
(5.02239 -0.255087 0)
(5.01905 -0.23591 0)
(5.01263 -0.196815 0)
(5.01206 -0.18736 0)
(5.00317 -0.135975 0)
(4.99931 -0.115048 0)
(4.99976 -0.10776 0)
(4.99227 -0.0515762 0)
(4.99241 -0.0692423 0)
(4.9869 -0.0440627 0)
(4.98541 -0.0428116 0)
(4.98529 -0.0370998 0)
(4.98248 -0.029124 0)
(4.98136 -0.0237854 0)
(4.98138 -0.0197087 0)
(4.98196 -0.0145737 0)
(4.98139 -0.0101938 0)
(4.97874 -0.00824694 0)
(4.97741 -0.00169543 0)
(4.97695 -0.00131342 0)
(4.97662 -0.00287019 0)
(4.97604 -0.00405829 0)
(4.97465 -0.00659745 0)
(4.97562 -0.0065091 0)
(4.97601 -0.00650572 0)
(4.97682 -0.00545435 0)
(4.97834 -0.00505367 0)
(4.9781 -0.00521587 0)
(4.97774 -0.00533164 0)
(4.977 -0.00602039 0)
(4.97606 -0.00670818 0)
(4.97629 -0.00464253 0)
(4.97643 -0.0032617 0)
(4.9769 -0.00267217 0)
(4.97729 -0.0027138 0)
(4.97798 -0.00701729 0)
(4.97768 -0.00808272 0)
(4.97751 -0.00896698 0)
(4.97695 -0.00690215 0)
(4.97697 -0.00433692 0)
(4.97704 -0.00417045 0)
(4.97695 -0.00501809 0)
(4.97721 -0.006187 0)
(4.9771 -0.00613828 0)
(4.97686 -0.00427778 0)
(4.97696 -0.00420908 0)
(4.97695 -0.00484748 0)
(4.97718 -0.00593316 0)
(4.97683 -0.00533345 0)
(4.97689 -0.00450584 0)
(4.97683 -0.0044325 0)
(4.97681 -0.005201 0)
(4.97671 -0.00547281 0)
(4.97622 -0.00518411 0)
(4.97621 -0.00502065 0)
(5.03644 -0.32089 0)
(5.03642 -0.320889 0)
(5.03638 -0.320949 0)
(5.0363 -0.321065 0)
(5.03629 -0.321163 0)
(5.03629 -0.321224 0)
(5.03626 -0.321213 0)
(5.03626 -0.321117 0)
(5.03627 -0.321043 0)
(5.03625 -0.321021 0)
(5.03624 -0.320983 0)
(5.03624 -0.320896 0)
(5.03628 -0.320773 0)
(5.03621 -0.320988 0)
(5.03604 -0.321369 0)
(5.03601 -0.321774 0)
(5.03617 -0.322068 0)
(5.03621 -0.322079 0)
(5.03612 -0.321612 0)
(5.03634 -0.321287 0)
(5.03629 -0.321497 0)
(5.03608 -0.322097 0)
(5.03622 -0.322575 0)
(5.03631 -0.322464 0)
(5.03631 -0.322401 0)
(5.03622 -0.322643 0)
(5.03622 -0.322593 0)
(5.03619 -0.322731 0)
(5.03609 -0.323546 0)
(5.03618 -0.323531 0)
(5.03628 -0.323611 0)
(5.03629 -0.323929 0)
(5.03627 -0.324478 0)
(5.03634 -0.324662 0)
(5.03634 -0.324936 0)
(5.03633 -0.32508 0)
(5.03636 -0.325151 0)
(5.03633 -0.325234 0)
(5.0365 -0.325628 0)
(5.03652 -0.325586 0)
(5.03654 -0.32547 0)
(5.03653 -0.325377 0)
(5.03645 -0.325324 0)
(5.03629 -0.324895 0)
(5.03605 -0.32397 0)
(5.03552 -0.32165 0)
(5.03464 -0.317794 0)
(5.03316 -0.31144 0)
(5.03102 -0.299251 0)
(5.02824 -0.286351 0)
(5.02407 -0.260925 0)
(5.02058 -0.237198 0)
(5.01339 -0.194885 0)
(5.01348 -0.178967 0)
(5.00286 -0.115141 0)
(5.00125 -0.102746 0)
(4.99644 -0.0708737 0)
(4.99115 -0.0433265 0)
(4.98926 -0.030443 0)
(4.98637 -0.0084233 0)
(4.98818 -0.0101755 0)
(4.98413 8.77596e-05 0)
(4.9816 0.00446292 0)
(4.9804 0.00163544 0)
(4.97972 -0.00460064 0)
(4.97927 -0.0069853 0)
(4.97685 -0.00865201 0)
(4.97582 -0.00876313 0)
(4.97607 -0.00744346 0)
(4.97761 -0.004356 0)
(4.97979 -0.000182837 0)
(4.97911 -0.000166239 0)
(4.97875 -0.0022356 0)
(4.97855 -0.00425924 0)
(4.97852 -0.00613366 0)
(4.97906 -0.00774218 0)
(4.97857 -0.00675972 0)
(4.97889 -0.00458274 0)
(4.9794 -0.0024941 0)
(4.9798 -0.0016946 0)
(4.97915 -0.00396605 0)
(4.97917 -0.00582958 0)
(4.97919 -0.00780905 0)
(4.97976 -0.00754742 0)
(4.97952 -0.00645047 0)
(4.97952 -0.00472065 0)
(4.97955 -0.00398181 0)
(4.97969 -0.00458923 0)
(4.97968 -0.00513463 0)
(4.97976 -0.00467174 0)
(4.9796 -0.003748 0)
(4.97975 -0.00316862 0)
(4.97994 -0.00395357 0)
(4.97966 -0.004741 0)
(4.97968 -0.00530018 0)
(4.97964 -0.00537731 0)
(4.97968 -0.00507803 0)
(4.97951 -0.00512002 0)
(4.97937 -0.00448084 0)
(4.97949 -0.00449683 0)
(5.03736 -0.322885 0)
(5.03734 -0.322924 0)
(5.03726 -0.323155 0)
(5.03724 -0.323215 0)
(5.03729 -0.323119 0)
(5.03724 -0.323211 0)
(5.03717 -0.323475 0)
(5.03715 -0.323509 0)
(5.03711 -0.323417 0)
(5.03703 -0.323425 0)
(5.03692 -0.323475 0)
(5.03688 -0.323351 0)
(5.03697 -0.323346 0)
(5.03685 -0.323627 0)
(5.03682 -0.323944 0)
(5.03689 -0.32414 0)
(5.03691 -0.32416 0)
(5.0368 -0.324293 0)
(5.03675 -0.324505 0)
(5.03678 -0.324229 0)
(5.03698 -0.323957 0)
(5.03695 -0.324314 0)
(5.03698 -0.324678 0)
(5.037 -0.324529 0)
(5.03707 -0.324435 0)
(5.03715 -0.324344 0)
(5.03721 -0.324239 0)
(5.03714 -0.324712 0)
(5.03721 -0.325165 0)
(5.03732 -0.32497 0)
(5.03742 -0.324897 0)
(5.03736 -0.32532 0)
(5.03737 -0.325711 0)
(5.03738 -0.325882 0)
(5.03737 -0.325968 0)
(5.03748 -0.326079 0)
(5.03773 -0.32623 0)
(5.03786 -0.326318 0)
(5.03789 -0.326373 0)
(5.0379 -0.326377 0)
(5.03792 -0.326305 0)
(5.03791 -0.326288 0)
(5.0378 -0.326346 0)
(5.03773 -0.326315 0)
(5.03776 -0.326289 0)
(5.0378 -0.326186 0)
(5.03782 -0.326043 0)
(5.03782 -0.325856 0)
(5.0378 -0.325455 0)
(5.03776 -0.324446 0)
(5.03753 -0.322318 0)
(5.03686 -0.317731 0)
(5.03563 -0.310602 0)
(5.03337 -0.294885 0)
(5.03024 -0.277725 0)
(5.02655 -0.253227 0)
(5.0197 -0.210297 0)
(5.01459 -0.178706 0)
(5.01189 -0.154663 0)
(5.00411 -0.105995 0)
(5.00005 -0.0704637 0)
(5.00023 -0.0778509 0)
(4.9978 -0.0533573 0)
(4.99779 -0.0461207 0)
(4.99806 -0.0392414 0)
(4.99119 -0.0279416 0)
(4.9879 -0.0182911 0)
(4.98461 -0.0112156 0)
(4.97838 -0.00434124 0)
(4.98158 -0.00174649 0)
(4.98307 -0.00153551 0)
(4.98131 -0.00403159 0)
(4.98028 -0.00587187 0)
(4.97975 -0.0097016 0)
(4.98 -0.00908731 0)
(4.98071 -0.00744957 0)
(4.98072 -0.00689576 0)
(4.98212 -0.00391329 0)
(4.98172 -0.00316845 0)
(4.98061 -0.00516479 0)
(4.98066 -0.00579083 0)
(4.98062 -0.00597875 0)
(4.98074 -0.00625506 0)
(4.98115 -0.00575888 0)
(4.98126 -0.00556768 0)
(4.9812 -0.00546611 0)
(4.98122 -0.00612428 0)
(4.98134 -0.00571323 0)
(4.98128 -0.00558567 0)
(4.9814 -0.00520915 0)
(4.98134 -0.00483615 0)
(4.98156 -0.00436491 0)
(4.98145 -0.00391151 0)
(4.98163 -0.00395786 0)
(4.98164 -0.00426291 0)
(4.98168 -0.0052843 0)
(4.9818 -0.00578741 0)
(4.98191 -0.00545338 0)
(4.98199 -0.00508607 0)
(4.98241 -0.00439563 0)
(5.03853 -0.32531 0)
(5.0385 -0.325363 0)
(5.03853 -0.325325 0)
(5.03845 -0.325468 0)
(5.03844 -0.325709 0)
(5.03846 -0.325698 0)
(5.03846 -0.325645 0)
(5.03842 -0.325744 0)
(5.03835 -0.325701 0)
(5.0383 -0.32552 0)
(5.03818 -0.325603 0)
(5.03802 -0.325841 0)
(5.03808 -0.326071 0)
(5.03816 -0.326113 0)
(5.03823 -0.326089 0)
(5.03826 -0.326142 0)
(5.03826 -0.326172 0)
(5.03821 -0.326382 0)
(5.03818 -0.326424 0)
(5.03816 -0.326261 0)
(5.0381 -0.326276 0)
(5.03798 -0.326503 0)
(5.03793 -0.326753 0)
(5.03796 -0.326963 0)
(5.03803 -0.326942 0)
(5.03813 -0.326893 0)
(5.03819 -0.326887 0)
(5.03821 -0.327052 0)
(5.03831 -0.327269 0)
(5.03843 -0.32741 0)
(5.03854 -0.327407 0)
(5.03861 -0.327376 0)
(5.03862 -0.327502 0)
(5.03863 -0.327791 0)
(5.0387 -0.328104 0)
(5.03886 -0.328112 0)
(5.03911 -0.327964 0)
(5.03927 -0.327877 0)
(5.03933 -0.327825 0)
(5.03937 -0.327821 0)
(5.03943 -0.327858 0)
(5.03946 -0.327763 0)
(5.03941 -0.327612 0)
(5.0394 -0.327549 0)
(5.03942 -0.327486 0)
(5.03953 -0.327319 0)
(5.03966 -0.327247 0)
(5.03979 -0.32722 0)
(5.03993 -0.327206 0)
(5.04019 -0.326902 0)
(5.04067 -0.326576 0)
(5.04083 -0.326422 0)
(5.04109 -0.3259 0)
(5.04128 -0.324998 0)
(5.04115 -0.322964 0)
(5.04055 -0.319141 0)
(5.03915 -0.311938 0)
(5.03706 -0.299568 0)
(5.03285 -0.272038 0)
(5.02969 -0.254257 0)
(5.02108 -0.203062 0)
(5.01752 -0.170488 0)
(5.00905 -0.116863 0)
(5.00522 -0.0795644 0)
(5.00825 -0.0558455 0)
(4.99859 -0.0128788 0)
(4.99787 0.00215203 0)
(4.99396 0.0215293 0)
(4.99115 0.0184361 0)
(4.98848 0.00423129 0)
(4.98568 -0.00426518 0)
(4.98458 -0.00885924 0)
(4.98272 -0.00996011 0)
(4.98301 -0.00965462 0)
(4.98324 -0.00661888 0)
(4.98379 -0.000974809 0)
(4.98387 -0.00110264 0)
(4.98383 -0.00240748 0)
(4.98301 -0.00498123 0)
(4.98257 -0.00764277 0)
(4.98264 -0.00701122 0)
(4.98271 -0.0058187 0)
(4.98304 -0.00390921 0)
(4.98263 -0.00370143 0)
(4.98303 -0.0050316 0)
(4.98306 -0.00567002 0)
(4.98359 -0.00641641 0)
(4.98337 -0.00607395 0)
(4.98308 -0.00559851 0)
(4.98304 -0.00501446 0)
(4.98312 -0.00515141 0)
(4.98299 -0.00494661 0)
(4.98275 -0.00447503 0)
(4.98309 -0.00388245 0)
(4.98328 -0.00417708 0)
(4.98341 -0.00483367 0)
(4.98353 -0.00515054 0)
(4.98399 -0.0054449 0)
(4.9842 -0.00487903 0)
(4.9843 -0.00461933 0)
(5.04009 -0.327611 0)
(5.04008 -0.327701 0)
(5.04005 -0.327748 0)
(5.04 -0.327836 0)
(5.04003 -0.328021 0)
(5.04011 -0.328136 0)
(5.04002 -0.32799 0)
(5.03998 -0.32777 0)
(5.03988 -0.327808 0)
(5.03972 -0.328032 0)
(5.03971 -0.328064 0)
(5.03971 -0.328004 0)
(5.03978 -0.328076 0)
(5.03988 -0.328268 0)
(5.03984 -0.328374 0)
(5.03977 -0.328485 0)
(5.03987 -0.328648 0)
(5.03991 -0.328683 0)
(5.03987 -0.328544 0)
(5.03981 -0.328212 0)
(5.03978 -0.327991 0)
(5.03975 -0.327994 0)
(5.0398 -0.328104 0)
(5.03989 -0.328144 0)
(5.04006 -0.327919 0)
(5.04025 -0.327739 0)
(5.03992 -0.32805 0)
(5.03985 -0.328272 0)
(5.03989 -0.328351 0)
(5.03995 -0.328422 0)
(5.04001 -0.328474 0)
(5.04004 -0.328519 0)
(5.04005 -0.328568 0)
(5.04007 -0.328722 0)
(5.04018 -0.328975 0)
(5.0404 -0.329127 0)
(5.04067 -0.329095 0)
(5.0409 -0.328924 0)
(5.04097 -0.328803 0)
(5.04098 -0.32876 0)
(5.04101 -0.328724 0)
(5.04105 -0.3286 0)
(5.04108 -0.328416 0)
(5.04111 -0.32832 0)
(5.04122 -0.328056 0)
(5.04133 -0.32767 0)
(5.04144 -0.327312 0)
(5.04155 -0.327087 0)
(5.04171 -0.326817 0)
(5.04183 -0.326395 0)
(5.04232 -0.325455 0)
(5.04272 -0.325041 0)
(5.04278 -0.325037 0)
(5.04291 -0.32498 0)
(5.04302 -0.32494 0)
(5.04311 -0.324942 0)
(5.04311 -0.32461 0)
(5.04299 -0.323606 0)
(5.04275 -0.321561 0)
(5.04215 -0.316811 0)
(5.04045 -0.307263 0)
(5.03828 -0.295128 0)
(5.03237 -0.262704 0)
(5.02998 -0.244896 0)
(5.02066 -0.17322 0)
(5.02159 -0.171005 0)
(5.01284 -0.107935 0)
(5.01295 -0.0955589 0)
(5.00901 -0.0652194 0)
(5.01401 -0.0609992 0)
(5.00246 -0.0359461 0)
(4.99768 -0.0250438 0)
(4.996 -0.0186661 0)
(4.98951 -0.00907507 0)
(4.98564 -0.00170141 0)
(4.98516 -0.00214139 0)
(4.98483 -0.00495765 0)
(4.98413 -0.0093709 0)
(4.98419 -0.00993427 0)
(4.98433 -0.0095008 0)
(4.98467 -0.00741159 0)
(4.98571 -0.00372375 0)
(4.9857 -0.00324231 0)
(4.98547 -0.00401036 0)
(4.98537 -0.00523923 0)
(4.98518 -0.00723854 0)
(4.9853 -0.00685638 0)
(4.98544 -0.00613574 0)
(4.98549 -0.00525491 0)
(4.98517 -0.00519435 0)
(4.98503 -0.00566077 0)
(4.9848 -0.00526325 0)
(4.98471 -0.00473475 0)
(4.98468 -0.00411813 0)
(4.98485 -0.00439895 0)
(4.98506 -0.00482648 0)
(4.98532 -0.00519646 0)
(4.98551 -0.00504085 0)
(4.98563 -0.00473826 0)
(4.98535 -0.00473058 0)
(5.04171 -0.329874 0)
(5.04168 -0.329798 0)
(5.0416 -0.329776 0)
(5.04158 -0.329784 0)
(5.04156 -0.329802 0)
(5.04149 -0.329733 0)
(5.04139 -0.329663 0)
(5.04138 -0.329571 0)
(5.0414 -0.329514 0)
(5.0414 -0.32951 0)
(5.04139 -0.329574 0)
(5.04143 -0.329533 0)
(5.04163 -0.329179 0)
(5.04166 -0.329068 0)
(5.04171 -0.329012 0)
(5.04176 -0.328908 0)
(5.0418 -0.328878 0)
(5.04187 -0.328929 0)
(5.04183 -0.329005 0)
(5.04176 -0.329067 0)
(5.04161 -0.329115 0)
(5.0415 -0.32913 0)
(5.04134 -0.329301 0)
(5.04136 -0.329624 0)
(5.04135 -0.329639 0)
(5.04118 -0.329392 0)
(5.04111 -0.329248 0)
(5.04108 -0.329221 0)
(5.04111 -0.329255 0)
(5.04113 -0.329249 0)
(5.04116 -0.329177 0)
(5.04115 -0.329274 0)
(5.04116 -0.329396 0)
(5.04121 -0.32958 0)
(5.04137 -0.32972 0)
(5.04161 -0.32955 0)
(5.0419 -0.329377 0)
(5.0422 -0.329241 0)
(5.04241 -0.329014 0)
(5.04252 -0.328807 0)
(5.04255 -0.328685 0)
(5.04256 -0.32861 0)
(5.04264 -0.328587 0)
(5.04284 -0.328191 0)
(5.04289 -0.327758 0)
(5.04282 -0.327617 0)
(5.04283 -0.327306 0)
(5.04289 -0.326977 0)
(5.04294 -0.326932 0)
(5.04303 -0.326566 0)
(5.04351 -0.325439 0)
(5.04375 -0.324864 0)
(5.04376 -0.324819 0)
(5.04378 -0.324777 0)
(5.04378 -0.324617 0)
(5.04379 -0.324632 0)
(5.04381 -0.324745 0)
(5.04387 -0.324672 0)
(5.04387 -0.324642 0)
(5.04394 -0.324028 0)
(5.04396 -0.323263 0)
(5.04371 -0.322063 0)
(5.04301 -0.319597 0)
(5.04177 -0.313604 0)
(5.03891 -0.300412 0)
(5.03641 -0.281643 0)
(5.02808 -0.230146 0)
(5.02848 -0.214245 0)
(5.01308 -0.118379 0)
(5.02266 -0.114049 0)
(5.00738 -0.0246415 0)
(5.01088 -0.0270251 0)
(5.0007 0.0151298 0)
(4.99479 0.0197645 0)
(4.98985 0.00940556 0)
(4.98823 -0.00270077 0)
(4.98613 -0.0115597 0)
(4.98621 -0.0117785 0)
(4.98656 -0.0107002 0)
(4.98726 -0.00738151 0)
(4.98854 -0.000756111 0)
(4.98835 -0.00101568 0)
(4.98766 -0.0034302 0)
(4.98753 -0.00512221 0)
(4.98664 -0.00642243 0)
(4.98658 -0.00630377 0)
(4.98692 -0.00491167 0)
(4.98682 -0.00517423 0)
(4.98676 -0.00539809 0)
(4.98658 -0.005632 0)
(4.98632 -0.0057945 0)
(4.98643 -0.00540467 0)
(4.98652 -0.00492754 0)
(4.98637 -0.00477065 0)
(4.98634 -0.00465994 0)
(4.98635 -0.00470421 0)
(4.98646 -0.00465739 0)
(4.98639 -0.00428129 0)
(4.98625 -0.00444725 0)
(4.98621 -0.00465573 0)
(5.04293 -0.329872 0)
(5.04289 -0.329865 0)
(5.04284 -0.329841 0)
(5.0428 -0.329873 0)
(5.04281 -0.330001 0)
(5.04278 -0.330043 0)
(5.04271 -0.330013 0)
(5.04272 -0.33012 0)
(5.0427 -0.330307 0)
(5.04256 -0.330429 0)
(5.04271 -0.330162 0)
(5.04284 -0.329707 0)
(5.04288 -0.329592 0)
(5.04308 -0.329799 0)
(5.04307 -0.330059 0)
(5.04292 -0.330279 0)
(5.0427 -0.330394 0)
(5.0427 -0.330199 0)
(5.04276 -0.329988 0)
(5.04281 -0.329906 0)
(5.04281 -0.32967 0)
(5.04275 -0.329513 0)
(5.04268 -0.32952 0)
(5.04258 -0.329586 0)
(5.0425 -0.329558 0)
(5.0424 -0.32941 0)
(5.04226 -0.329206 0)
(5.04206 -0.329091 0)
(5.04198 -0.329123 0)
(5.04197 -0.329109 0)
(5.04199 -0.329058 0)
(5.042 -0.32899 0)
(5.04205 -0.328902 0)
(5.04214 -0.328796 0)
(5.04231 -0.328645 0)
(5.04254 -0.32857 0)
(5.04278 -0.328502 0)
(5.04309 -0.328369 0)
(5.04337 -0.32816 0)
(5.04362 -0.327865 0)
(5.04369 -0.327818 0)
(5.04367 -0.327926 0)
(5.04398 -0.327667 0)
(5.04397 -0.327224 0)
(5.04379 -0.32716 0)
(5.04363 -0.327135 0)
(5.04351 -0.326992 0)
(5.0435 -0.32699 0)
(5.04351 -0.327147 0)
(5.04367 -0.326751 0)
(5.04406 -0.325617 0)
(5.0441 -0.324986 0)
(5.04408 -0.324922 0)
(5.044 -0.324843 0)
(5.0439 -0.324581 0)
(5.04391 -0.324347 0)
(5.04395 -0.324402 0)
(5.04397 -0.324576 0)
(5.04401 -0.324642 0)
(5.04404 -0.324512 0)
(5.04404 -0.32434 0)
(5.04392 -0.324017 0)
(5.04377 -0.323736 0)
(5.04362 -0.323637 0)
(5.04326 -0.323247 0)
(5.04269 -0.321391 0)
(5.0416 -0.316866 0)
(5.03966 -0.304283 0)
(5.03533 -0.28135 0)
(5.03177 -0.253227 0)
(5.0225 -0.18951 0)
(5.02379 -0.174109 0)
(5.0135 -0.0927582 0)
(5.02198 -0.105599 0)
(5.00846 -0.0599073 0)
(5.0088 -0.0479853 0)
(5.00024 -0.029396 0)
(4.99826 -0.0165319 0)
(4.99036 -0.00892619 0)
(4.99089 -0.00131467 0)
(4.99006 -0.00330591 0)
(4.9885 -0.00501273 0)
(4.98798 -0.0105586 0)
(4.98759 -0.00853419 0)
(4.98784 -0.00681569 0)
(4.98752 -0.00521182 0)
(4.988 -0.00402891 0)
(4.98791 -0.00470277 0)
(4.9877 -0.00616909 0)
(4.98772 -0.00644444 0)
(4.98776 -0.006003 0)
(4.98783 -0.00527142 0)
(4.98772 -0.00519594 0)
(4.98769 -0.00591238 0)
(4.98737 -0.00521452 0)
(4.9874 -0.00476067 0)
(4.98733 -0.00420967 0)
(4.98702 -0.0034858 0)
(4.98713 -0.00447181 0)
(4.98712 -0.0050879 0)
(5.04292 -0.330229 0)
(5.04291 -0.330194 0)
(5.04291 -0.330158 0)
(5.0429 -0.330168 0)
(5.04295 -0.330131 0)
(5.04303 -0.330012 0)
(5.04304 -0.329894 0)
(5.0431 -0.329933 0)
(5.04319 -0.330141 0)
(5.04323 -0.330255 0)
(5.04345 -0.329956 0)
(5.04366 -0.329728 0)
(5.04378 -0.329429 0)
(5.04373 -0.329183 0)
(5.04369 -0.329055 0)
(5.04369 -0.329134 0)
(5.04367 -0.329367 0)
(5.0436 -0.329517 0)
(5.04349 -0.329568 0)
(5.04344 -0.329508 0)
(5.04339 -0.329298 0)
(5.04334 -0.329163 0)
(5.04328 -0.329288 0)
(5.04317 -0.329346 0)
(5.0432 -0.328964 0)
(5.04311 -0.328478 0)
(5.04287 -0.328255 0)
(5.04257 -0.328143 0)
(5.0424 -0.328141 0)
(5.0423 -0.328176 0)
(5.04222 -0.32816 0)
(5.0422 -0.328111 0)
(5.04225 -0.328005 0)
(5.04235 -0.327872 0)
(5.04239 -0.327725 0)
(5.04259 -0.3275 0)
(5.04305 -0.327445 0)
(5.04319 -0.327311 0)
(5.04332 -0.327088 0)
(5.04357 -0.326938 0)
(5.04382 -0.326838 0)
(5.04393 -0.326661 0)
(5.04403 -0.326544 0)
(5.04412 -0.32643 0)
(5.04392 -0.326522 0)
(5.04368 -0.326649 0)
(5.04365 -0.32669 0)
(5.04363 -0.326871 0)
(5.04364 -0.327235 0)
(5.04386 -0.326976 0)
(5.0441 -0.326029 0)
(5.04397 -0.325357 0)
(5.04393 -0.325207 0)
(5.04382 -0.325048 0)
(5.04372 -0.324841 0)
(5.04373 -0.324836 0)
(5.04377 -0.324951 0)
(5.04382 -0.325138 0)
(5.04383 -0.325261 0)
(5.04388 -0.325215 0)
(5.04393 -0.325163 0)
(5.04397 -0.325023 0)
(5.04378 -0.324889 0)
(5.04351 -0.324914 0)
(5.0433 -0.324989 0)
(5.04297 -0.325273 0)
(5.04289 -0.325113 0)
(5.04296 -0.324284 0)
(5.04272 -0.322122 0)
(5.04168 -0.316788 0)
(5.03868 -0.303808 0)
(5.03468 -0.279261 0)
(5.02524 -0.228085 0)
(5.0262 -0.190699 0)
(5.01206 -0.0895766 0)
(5.01852 -0.0773378 0)
(5.00444 -0.0071871 0)
(5.00312 0.00433888 0)
(4.99818 0.0246577 0)
(4.99224 0.00602806 0)
(4.98913 -0.00763372 0)
(4.98853 -0.01039 0)
(4.98876 -0.0105327 0)
(4.98952 -0.00747267 0)
(4.99041 -0.000640606 0)
(4.99004 -0.000827579 0)
(4.98948 -0.0027761 0)
(4.98876 -0.00551855 0)
(4.98857 -0.00602282 0)
(4.98853 -0.00561716 0)
(4.98852 -0.00506726 0)
(4.98838 -0.00512834 0)
(4.98794 -0.00582578 0)
(4.98837 -0.00669542 0)
(4.98792 -0.0056086 0)
(4.98821 -0.00455219 0)
(4.98817 -0.00312061 0)
(4.98796 -0.00345783 0)
(4.98771 -0.00429065 0)
(4.98757 -0.00513308 0)
(5.04249 -0.329171 0)
(5.04253 -0.329176 0)
(5.04257 -0.329185 0)
(5.0426 -0.329207 0)
(5.04263 -0.329207 0)
(5.04268 -0.329191 0)
(5.04273 -0.329203 0)
(5.04284 -0.329216 0)
(5.04307 -0.329045 0)
(5.04331 -0.32901 0)
(5.04342 -0.329008 0)
(5.04368 -0.328827 0)
(5.04377 -0.328566 0)
(5.04381 -0.328477 0)
(5.04389 -0.328518 0)
(5.04398 -0.328641 0)
(5.04399 -0.328742 0)
(5.04406 -0.328603 0)
(5.04406 -0.328274 0)
(5.04385 -0.32815 0)
(5.04358 -0.327945 0)
(5.04355 -0.327776 0)
(5.04352 -0.327805 0)
(5.04341 -0.327658 0)
(5.0433 -0.32731 0)
(5.0431 -0.327032 0)
(5.04286 -0.326914 0)
(5.04259 -0.326627 0)
(5.0424 -0.326501 0)
(5.04225 -0.326948 0)
(5.04205 -0.327232 0)
(5.04194 -0.327264 0)
(5.04195 -0.327165 0)
(5.04204 -0.327018 0)
(5.04214 -0.326828 0)
(5.04237 -0.326556 0)
(5.04272 -0.326359 0)
(5.04284 -0.326182 0)
(5.04295 -0.326006 0)
(5.04312 -0.325998 0)
(5.04337 -0.326039 0)
(5.0435 -0.325811 0)
(5.04359 -0.325531 0)
(5.04369 -0.325392 0)
(5.0437 -0.325451 0)
(5.04357 -0.32578 0)
(5.04355 -0.326011 0)
(5.04358 -0.326155 0)
(5.04369 -0.326563 0)
(5.04394 -0.326715 0)
(5.04406 -0.326271 0)
(5.04387 -0.325802 0)
(5.04375 -0.32563 0)
(5.04369 -0.325565 0)
(5.04356 -0.325288 0)
(5.04356 -0.324972 0)
(5.04365 -0.324922 0)
(5.04373 -0.325111 0)
(5.04376 -0.325516 0)
(5.04376 -0.325904 0)
(5.04379 -0.325953 0)
(5.04382 -0.325844 0)
(5.04371 -0.325717 0)
(5.04344 -0.325722 0)
(5.04321 -0.325798 0)
(5.04281 -0.32595 0)
(5.04282 -0.326117 0)
(5.04314 -0.3261 0)
(5.04324 -0.326019 0)
(5.04315 -0.32587 0)
(5.04282 -0.325281 0)
(5.04202 -0.322782 0)
(5.04028 -0.316014 0)
(5.03734 -0.297885 0)
(5.03242 -0.267726 0)
(5.02673 -0.221488 0)
(5.01861 -0.159948 0)
(5.01515 -0.12438 0)
(5.01189 -0.0840175 0)
(5.02152 -0.0700381 0)
(5.00318 -0.037096 0)
(4.99802 -0.0235613 0)
(4.99596 -0.0137508 0)
(4.99181 -0.00441086 0)
(4.99076 -0.00431174 0)
(4.98942 -0.00557463 0)
(4.98922 -0.0089675 0)
(4.98822 -0.00780959 0)
(4.98837 -0.00626491 0)
(4.98834 -0.00430335 0)
(4.98817 -0.00447436 0)
(4.98777 -0.00577698 0)
(4.98742 -0.00738829 0)
(4.98766 -0.00690508 0)
(4.98807 -0.00547464 0)
(4.98823 -0.00369676 0)
(4.98812 -0.00361138 0)
(4.98825 -0.00394703 0)
(4.98722 -0.00514603 0)
(4.98732 -0.00528589 0)
(5.04186 -0.326969 0)
(5.04181 -0.327097 0)