/*--------------------------------*- C++ -*----------------------------------*\
  =========                 |
  \\      /  F ield         | OpenFOAM: The Open Source CFD Toolbox
   \\    /   O peration     | Website:  https://openfoam.org
    \\  /    A nd           | Version:  7
     \\/     M anipulation  |
\*---------------------------------------------------------------------------*/
FoamFile
{
    version     2.0;
    format      ascii;
    class       volScalarField;
    location    "4.5";
    object      rho;
}
// * * * * * * * * * * * * * * * * * * * * * * * * * * * * * * * * * * * * * //

dimensions      [1 -3 0 0 0 0 0];

internalField   nonuniform List<scalar> 
24000
(
0.26282
0.305149
0.334078
0.36976
0.408121
0.434427
0.468264
0.512215
0.554616
0.606056
0.664968
0.725769
0.790467
0.852075
0.906787
0.945085
0.966546
0.978387
0.981133
0.978162
0.965373
0.963263
0.966018
0.968426
0.964252
0.951423
0.935223
0.943948
0.965364
0.992977
1.01101
1.00378
0.987394
0.977002
0.982624
0.996365
1.00695
1.00591
0.998499
0.996178
1.00257
1.01143
1.01117
1.01166
1.01466
1.02139
1.02613
1.02829
1.03025
1.03164
0.229346
0.229363
0.22939
0.229415
0.229473
0.229521
0.229553
0.229598
0.230213
0.233762
0.242404
0.259923
0.287765
0.333049
0.394138
0.475566
0.568166
0.664436
0.736887
0.802148
0.839746
0.874682
0.898749
0.918965
0.922381
0.918536
0.919672
0.927854
0.933212
0.945462
0.943499
0.928261
0.925923
0.93067
0.942627
0.952973
0.955304
0.947421
0.944191
0.949199
0.959957
0.962513
0.960696
0.962794
0.969767
0.977572
0.980632
0.984736
0.986975
0.98929
0.230011
0.230125
0.230246
0.230397
0.230592
0.230768
0.230911
0.231055
0.231284
0.231374
0.231495
0.231658
0.231883
0.232156
0.232553
0.232845
0.237484
0.254628
0.291999
0.34633
0.428747
0.522785
0.625036
0.720995
0.806784
0.875391
0.927782
0.941313
0.935121
0.922798
0.899523
0.871998
0.880623
0.905064
0.920218
0.926463
0.917906
0.903393
0.904336
0.916339
0.925723
0.923983
0.922958
0.925909
0.932427
0.940646
0.94596
0.948506
0.952101
0.957085
0.231831
0.231902
0.231981
0.232093
0.232219
0.232347
0.232453
0.232557
0.232639
0.232721
0.232865
0.233081
0.233343
0.233608
0.233916
0.234302
0.234564
0.234712
0.234844
0.235044
0.235163
0.235887
0.250216
0.288266
0.363495
0.482648
0.618891
0.746218
0.81003
0.860665
0.8695
0.882351
0.891156
0.910738
0.918304
0.913627
0.894198
0.889162
0.897322
0.907887
0.907277
0.901427
0.900927
0.906685
0.914578
0.9204
0.92174
0.925521
0.928252
0.933918
0.233135
0.233141
0.233167
0.233218
0.233285
0.233375
0.233455
0.233531
0.233611
0.233686
0.233791
0.233948
0.234108
0.234282
0.234514
0.234752
0.234867
0.234929
0.234977
0.235083
0.235026
0.234907
0.234825
0.234889
0.235123
0.235211
0.250407
0.305025
0.419526
0.580982
0.737628
0.856728
0.889064
0.904244
0.908981
0.895927
0.87409
0.883059
0.898485
0.904059
0.897975
0.891444
0.894037
0.898824
0.906188
0.911918
0.914515
0.917977
0.921436
0.926018
0.233921
0.233949
0.233972
0.234
0.234023
0.234068
0.234148
0.234238
0.234355
0.234423
0.234463
0.234504
0.23456
0.234646
0.234803
0.234852
0.234839
0.234837
0.234833
0.234734
0.234547
0.234555
0.234649
0.23487
0.235165
0.235806
0.236125
0.236459
0.236928
0.243657
0.304183
0.437275
0.612164
0.749838
0.823843
0.856564
0.876615
0.900093
0.913744
0.905419
0.88835
0.887215
0.892751
0.903407
0.910434
0.910503
0.912494
0.915064
0.918808
0.923985
0.234918
0.234948
0.234957
0.23497
0.235017
0.235022
0.235005
0.235019
0.235092
0.235109
0.235092
0.235025
0.234997
0.234992
0.235026
0.235097
0.235072
0.234893
0.234666
0.234452
0.234415
0.234497
0.23475
0.235325
0.236388
0.237151
0.237191
0.237283
0.237797
0.238538
0.23851
0.237459
0.254963
0.330284
0.492814
0.692099
0.842447
0.890895
0.90741
0.902985
0.884054
0.889067
0.905141
0.91128
0.914417
0.914051
0.915906
0.918419
0.921207
0.925411
0.236103
0.236164
0.236158
0.236076
0.236071
0.236099
0.236022
0.235941
0.235925
0.235872
0.235784
0.235637
0.235443
0.235403
0.235387
0.235317
0.234992
0.234353
0.234237
0.234305
0.234376
0.234623
0.235429
0.236879
0.237961
0.237901
0.237638
0.237501
0.237696
0.237749
0.237486
0.236656
0.235526
0.234423
0.234054
0.277453
0.430305
0.633347
0.80617
0.85864
0.890741
0.904824
0.92223
0.916492
0.91977
0.919313
0.921251
0.924064
0.924716
0.928265
0.236968
0.236961
0.236893
0.236671
0.236579
0.236599
0.236572
0.236355
0.236291
0.236267
0.236144
0.235918
0.235646
0.235388
0.235218
0.234975
0.234469
0.233965
0.233894
0.234036
0.234429
0.235123
0.236813
0.238514
0.238585
0.238185
0.23771
0.237465
0.236817
0.236178
0.235856
0.235486
0.235062
0.234314
0.234236
0.235754
0.236628
0.265018
0.385118
0.623388
0.834817
0.89548
0.929204
0.92377
0.935343
0.930663
0.937165
0.93901
0.938847
0.944498
0.235707
0.23559
0.235455
0.235325
0.235297
0.235345
0.235446
0.235409
0.235343
0.235451
0.235765
0.235778
0.235596
0.235223
0.234936
0.234672
0.234283
0.234086
0.234154
0.234624
0.235432
0.236449
0.238223
0.238815
0.238657
0.237948
0.23711
0.236504
0.235787
0.23506
0.234978
0.235075
0.235019
0.234751
0.236077
0.241024
0.243644
0.24272
0.243616
0.270506
0.406946
0.645442
0.861168
0.909959
0.954079
0.949569
0.966128
0.958061
0.960212
0.968794
0.233768
0.233691
0.233677
0.233765
0.233921
0.234163
0.234787
0.235108
0.234995
0.234914
0.235184
0.235569
0.236011
0.236396
0.236412
0.236314
0.23633
0.236402
0.236479
0.236837
0.237433
0.238109
0.238441
0.238397
0.238146
0.237079
0.235888
0.235629
0.235321
0.234794
0.234821
0.235477
0.236656
0.239582
0.244435
0.248744
0.253344
0.253312
0.255027
0.258791
0.263475
0.297579
0.441129
0.709072
0.909265
0.952637
1.00874
0.990162
1.00251
1.00282
0.232348
0.23233
0.232398
0.233181
0.233641
0.233739
0.234127
0.23469
0.234993
0.235454
0.23632
0.237274
0.238336
0.239355
0.239624
0.239577
0.239519
0.239548
0.239714
0.239709
0.239617
0.239386
0.238278
0.237597
0.237268
0.23635
0.235557
0.235553
0.235553
0.235731
0.237003
0.241052
0.248
0.255338
0.260005
0.261007
0.263089
0.266407
0.26992
0.274484
0.283399
0.2873
0.29033
0.336567
0.516983
0.796123
0.978068
1.00254
1.05565
1.0445
0.2358
0.235854
0.236665
0.238703
0.239022
0.238844
0.238724
0.238877
0.239337
0.239696
0.239971
0.240675
0.241717
0.241764
0.241747
0.241682
0.241602
0.241682
0.24174
0.24162
0.240999
0.239811
0.23777
0.237222
0.237617
0.237999
0.239308
0.242186
0.246285
0.250856
0.256341
0.262302
0.268568
0.273318
0.27357
0.272547
0.272758
0.277725
0.286216
0.296061
0.301974
0.305004
0.310271
0.315702
0.320139
0.390456
0.608131
0.884489
1.03002
1.06991
0.241038
0.240724
0.24071
0.240967
0.240864
0.240717
0.240785
0.240728
0.240881
0.240972
0.240763
0.240923
0.241657
0.241746
0.241655
0.241715
0.241737
0.242256
0.242581
0.242788
0.243426
0.245326
0.248401
0.251572
0.255699
0.261524
0.267734
0.272955
0.276697
0.279603
0.281631
0.282023
0.283227
0.284954
0.284448
0.285331
0.290337
0.299915
0.310504
0.319539
0.32089
0.323023
0.326904
0.334715
0.346258
0.350148
0.35252
0.460458
0.699968
1.0102
0.25238
0.252332
0.252515
0.253112
0.254008
0.254942
0.255652
0.256207
0.256681
0.257397
0.258794
0.260482
0.261847
0.262688
0.263339
0.264354
0.266184
0.268532
0.271001
0.273732
0.277061
0.280612
0.284022
0.287377
0.289923
0.291856
0.29409
0.296043
0.296987
0.297384
0.29689
0.294314
0.294296
0.297271
0.305495
0.31497
0.323963
0.33121
0.337365
0.338472
0.340844
0.345121
0.350732
0.359933
0.368317
0.371781
0.374615
0.377896
0.386777
0.662539
0.291862
0.292186
0.292597
0.293044
0.293517
0.293972
0.294258
0.294552
0.295053
0.295525
0.296115
0.296824
0.297913
0.29921
0.299965
0.300732
0.301945
0.303283
0.304963
0.306888
0.307601
0.307513
0.307711
0.307645
0.30672
0.30666
0.307752
0.308932
0.309738
0.312185
0.317019
0.323348
0.329787
0.337862
0.345945
0.353797
0.358061
0.360198
0.359603
0.360477
0.363234
0.36967
0.378772
0.386389
0.389348
0.391916
0.395039
0.400292
0.406814
0.419458
0.323399
0.323194
0.323225
0.323586
0.324193
0.324766
0.325038
0.325197
0.325575
0.326589
0.326983
0.327053
0.327543
0.328476
0.32967
0.330401
0.331006
0.33168
0.332311
0.333974
0.3349
0.33574
0.337774
0.341575
0.345851
0.348725
0.350818
0.353623
0.358178
0.363847
0.369444
0.37439
0.37898
0.382393
0.381882
0.38147
0.381459
0.380978
0.381713
0.385624
0.39251
0.400719
0.408026
0.408684
0.411211
0.416954
0.42372
0.428745
0.432926
0.441258
0.37105
0.371518
0.37211
0.372753
0.37317
0.373709
0.374429
0.37471
0.375214
0.375974
0.376495
0.37694
0.377541
0.378756
0.379166
0.379444
0.380202
0.381534
0.383587
0.385675
0.387483
0.38997
0.392382
0.393949
0.395494
0.397119
0.398757
0.400533
0.40319
0.403925
0.403129
0.402114
0.402452
0.403199
0.402415
0.40206
0.404034
0.409724
0.418133
0.426597
0.433424
0.438786
0.4399
0.44182
0.444037
0.446369
0.450563
0.455017
0.457714
0.462997
0.424783
0.425032
0.425381
0.425474
0.42559
0.426193
0.426481
0.426431
0.426641
0.427487
0.427966
0.428159
0.428652
0.429518
0.430108
0.430608
0.431262
0.432119
0.433227
0.433472
0.433269
0.433493
0.433549
0.433276
0.433779
0.435317
0.436407
0.437413
0.439031
0.439903
0.440264
0.441279
0.443705
0.447881
0.45365
0.459578
0.464253
0.468301
0.471516
0.474082
0.473842
0.472388
0.472431
0.473328
0.474957
0.478295
0.481553
0.485292
0.489078
0.493196
0.486907
0.486915
0.486951
0.487378
0.487584
0.487572
0.487671
0.488139
0.488265
0.488252
0.488465
0.488737
0.488893
0.489076
0.489292
0.489529
0.48977
0.489982
0.490331
0.4909
0.491651
0.492538
0.493603
0.494657
0.495627
0.496403
0.496891
0.497453
0.498594
0.500222
0.501698
0.503046
0.50434
0.505523
0.506295
0.507022
0.506871
0.506027
0.504545
0.503065
0.50242
0.503043
0.505083
0.507608
0.510994
0.514407
0.515385
0.516364
0.51787
0.519315
0.541684
0.541667
0.541714
0.541757
0.541679
0.5417
0.541705
0.541657
0.541666
0.541687
0.54165
0.541605
0.541537
0.541492
0.541524
0.541557
0.541571
0.541617
0.541691
0.541776
0.541873
0.541986
0.542044
0.542021
0.541965
0.541979
0.542135
0.542289
0.542272
0.542093
0.541699
0.541434
0.541269
0.540938
0.540736
0.540774
0.540707
0.540739
0.541042
0.541732
0.542859
0.544168
0.545028
0.545443
0.545352
0.544761
0.545018
0.545596
0.545261
0.545048
0.568842
0.568804
0.568757
0.568756
0.568765
0.568749
0.568732
0.568709
0.568638
0.568608
0.56863
0.56864
0.568623
0.568613
0.568615
0.568609
0.568584
0.568581
0.568608
0.568623
0.56861
0.568648
0.568736
0.568737
0.568701
0.568707
0.568816
0.568982
0.569001
0.568996
0.568972
0.568825
0.568497
0.568358
0.568455
0.568605
0.568644
0.568535
0.568211
0.567828
0.567605
0.567406
0.567146
0.566874
0.566953
0.567298
0.567942
0.5684
0.568153
0.566974
0.573533
0.573593
0.573662
0.573792
0.573956
0.573983
0.573974
0.574018
0.574226
0.574468
0.574494
0.574511
0.574606
0.574662
0.574657
0.574563
0.574365
0.574241
0.574171
0.574008
0.57382
0.573786
0.5739
0.574153
0.574458
0.57482
0.575136
0.575223
0.575164
0.575022
0.574826
0.57451
0.574136
0.574017
0.574083
0.57412
0.574044
0.573896
0.573767
0.573638
0.573605
0.573604
0.573673
0.573954
0.574531
0.575082
0.575717
0.575622
0.574895
0.573448
0.575593
0.575904
0.57604
0.576012
0.576016
0.576167
0.57633
0.57636
0.57641
0.5766
0.576663
0.576728
0.576941
0.577071
0.577055
0.576938
0.576688
0.576488
0.576319
0.575954
0.575275
0.574615
0.574074
0.573762
0.573887
0.574507
0.574954
0.574869
0.574727
0.57474
0.574627
0.574129
0.573775
0.573844
0.573954
0.573857
0.573691
0.573696
0.573738
0.573929
0.574263
0.5746
0.575191
0.576077
0.576891
0.576872
0.576536
0.575437
0.573346
0.572548
0.57744
0.577444
0.577415
0.577482
0.577684
0.578345
0.578716
0.578665
0.578394
0.577733
0.577504
0.577501
0.577727
0.578047
0.577852
0.577529
0.577618
0.57765
0.57744
0.57731
0.577629
0.5782
0.578123
0.577493
0.576947
0.576626
0.576315
0.57577
0.57543
0.575421
0.575907
0.576698
0.577097
0.576929
0.576802
0.577047
0.577787
0.57842
0.578965
0.57993
0.580737
0.580961
0.580976
0.580686
0.58002
0.578767
0.576926
0.5751
0.573415
0.574472
0.593388
0.59336
0.593317
0.593461
0.593674
0.593426
0.592431
0.592073
0.592154
0.59271
0.592814
0.592037
0.591738
0.592012
0.592203
0.59211
0.592026
0.59248
0.593713
0.594108
0.593641
0.593399
0.593769
0.593769
0.593621
0.593841
0.594063
0.59427
0.594915
0.594991
0.594437
0.593741
0.593845
0.594937
0.595122
0.59444
0.5938
0.593614
0.593375
0.592642
0.591455
0.590215
0.588841
0.586898
0.584655
0.582444
0.581663
0.582856
0.585866
0.590648
0.627977
0.62792
0.6274
0.627184
0.627272
0.627222
0.626864
0.626775
0.626979
0.627325
0.627413
0.627367
0.627271
0.627267
0.62734
0.627544
0.627612
0.627293
0.626463
0.625961
0.62537
0.624609
0.623913
0.623127
0.622775
0.622675
0.622609
0.622846
0.622853
0.62185
0.620622
0.619995
0.618969
0.617795
0.616382
0.615364
0.614792
0.6141
0.612964
0.611458
0.610253
0.609735
0.609318
0.609691
0.610689
0.612958
0.615218
0.617124
0.616761
0.613417
0.690964
0.690201
0.689655
0.689791
0.690174
0.689928
0.689531
0.689515
0.689012
0.688547
0.688407
0.687932
0.687389
0.687192
0.686908
0.686361
0.68574
0.685215
0.684765
0.684241
0.683742
0.683664
0.683518
0.68297
0.681969
0.681417
0.680577
0.679743
0.678669
0.676731
0.676101
0.676143
0.675551
0.674047
0.672155
0.671618
0.67112
0.669699
0.668241
0.667346
0.66618
0.665056
0.663743
0.662085
0.659809
0.657083
0.653449
0.64869
0.643407
0.635081
0.775711
0.775676
0.775658
0.774853
0.774241
0.774282
0.774005
0.773553
0.773081
0.772369
0.772116
0.771684
0.770804
0.770202
0.769791
0.768754
0.767995
0.767645
0.767008
0.765813
0.764452
0.763642
0.762774
0.761597
0.760156
0.75792
0.756658
0.755826
0.754591
0.752344
0.749761
0.747655
0.745603
0.743614
0.741318
0.738456
0.73559
0.732691
0.729513
0.726029
0.722536
0.718593
0.714513
0.709976
0.705449
0.700503
0.696023
0.692083
0.68972
0.687982
0.878754
0.878428
0.877747
0.877405
0.877311
0.876436
0.875975
0.876018
0.875163
0.874159
0.873616
0.872946
0.872315
0.87144
0.87016
0.868708
0.867534
0.866501
0.865703
0.86451
0.862529
0.860395
0.858746
0.857192
0.855485
0.853499
0.850378
0.847799
0.845825
0.843395
0.839743
0.836571
0.83377
0.830401
0.826703
0.822827
0.818704
0.814422
0.810079
0.805482
0.800616
0.795917
0.790922
0.785987
0.781109
0.776296
0.771482
0.766142
0.761091
0.750707
1.00033
0.99945
0.999618
0.999275
0.997326
0.996406
0.996407
0.996069
0.994447
0.993739
0.993546
0.992571
0.990478
0.98905
0.987994
0.986685
0.985187
0.983159
0.981152
0.979439
0.97734
0.974736
0.972302
0.969713
0.966845
0.963998
0.960641
0.956683
0.953205
0.949769
0.945585
0.940921
0.936324
0.931573
0.926418
0.920914
0.915171
0.90916
0.902798
0.896249
0.889283
0.882146
0.874757
0.867049
0.858859
0.850459
0.841569
0.832203
0.823263
0.808342
1.14267
1.1418
1.14119
1.14052
1.13844
1.13758
1.13735
1.13661
1.13438
1.13263
1.1325
1.13192
1.12959
1.12714
1.12558
1.12376
1.12186
1.11977
1.1172
1.11437
1.11145
1.10837
1.10528
1.10191
1.09807
1.09404
1.08967
1.08474
1.07994
1.07499
1.06939
1.06335
1.05717
1.05053
1.0435
1.03613
1.02835
1.02016
1.01164
1.00262
0.993488
0.98369
0.973864
0.963423
0.952987
0.942086
0.931113
0.919655
0.909745
0.8926
1.28311
1.2835
1.28377
1.28272
1.28133
1.28003
1.27869
1.27854
1.27804
1.27605
1.27398
1.27329
1.27238
1.27058
1.26845
1.26646
1.2645
1.26231
1.25976
1.25698
1.25409
1.25091
1.24747
1.24382
1.23978
1.2354
1.23072
1.22557
1.22001
1.21417
1.20777
1.20086
1.19345
1.1856
1.17709
1.16806
1.15848
1.14828
1.13751
1.12615
1.11422
1.10181
1.08874
1.07537
1.06138
1.04702
1.03246
1.01703
1.00308
0.978875
1.37345
1.37312
1.37322
1.37323
1.37277
1.37211
1.37126
1.37108
1.37098
1.37041
1.36925
1.36865
1.3682
1.36746
1.36648
1.36541
1.36433
1.36322
1.36191
1.36039
1.35875
1.35697
1.35499
1.3528
1.35036
1.34765
1.34462
1.34124
1.33748
1.33331
1.32869
1.32349
1.31773
1.31132
1.30424
1.29637
1.28769
1.27814
1.26764
1.25623
1.24374
1.23034
1.21588
1.20046
1.18416
1.16696
1.14913
1.13015
1.11279
1.0827
1.39794
1.39791
1.39786
1.39782
1.39776
1.39768
1.39764
1.39759
1.3975
1.39741
1.39733
1.39722
1.39711
1.39699
1.39684
1.39668
1.3965
1.39629
1.39606
1.39579
1.39548
1.39514
1.39473
1.39427
1.39374
1.39312
1.39239
1.39154
1.39054
1.38937
1.38799
1.38634
1.38439
1.38208
1.37931
1.37603
1.3721
1.36745
1.36191
1.35536
1.34767
1.33863
1.32818
1.31611
1.30238
1.28692
1.26978
1.25047
1.23199
1.19785
1.39995
1.39995
1.39995
1.39995
1.39995
1.39995
1.39994
1.39994
1.39994
1.39994
1.39993
1.39993
1.39992
1.39992
1.39991
1.39991
1.3999
1.39989
1.39988
1.39987
1.39985
1.39983
1.39981
1.39979
1.39976
1.39972
1.39967
1.39961
1.39954
1.39945
1.39933
1.39918
1.39899
1.39873
1.3984
1.39796
1.39738
1.39661
1.39557
1.39418
1.39232
1.38984
1.38653
1.38218
1.37648
1.36913
1.35985
1.34793
1.33518
1.30758
1.4
1.4
1.4
1.4
1.4
1.4
1.4
1.4
1.4
1.4
1.4
1.4
1.4
1.4
1.4
1.4
1.4
1.4
1.4
1.4
1.4
1.4
1.4
1.4
1.4
1.4
1.4
1.4
1.4
1.4
1.39999
1.39999
1.39998
1.39998
1.39996
1.39995
1.39993
1.39989
1.39984
1.39976
1.39963
1.39943
1.39911
1.39861
1.39783
1.39659
1.3947
1.3917
1.38786
1.37654
1.40001
1.40001
1.40001
1.40001
1.40001
1.40001
1.40001
1.40001
1.40001
1.40001
1.40001
1.40001
1.40001
1.40001
1.40001
1.40001
1.40001
1.40001
1.40001
1.40001
1.40001
1.40001
1.40001
1.40001
1.40001
1.40001
1.4
1.4
1.4
1.4
1.4
1.4
1.4
1.4
1.4
1.4
1.4
1.4
1.4
1.4
1.4
1.39999
1.39998
1.39997
1.39994
1.39988
1.39977
1.39954
1.39918
1.39749
1.40001
1.40001
1.40001
1.40001
1.40001
1.40001
1.40001
1.40001
1.40001
1.40001
1.40001
1.40001
1.40001
1.40001
1.40001
1.40001
1.40001
1.40001
1.40001
1.40001
1.40001
1.40001
1.40001
1.40001
1.40001
1.40001
1.40001
1.40001
1.40001
1.40001
1.40001
1.40001
1.40001
1.40001
1.40001
1.40001
1.40001
1.40001
1.40001
1.40001
1.4
1.4
1.4
1.4
1.4
1.4
1.4
1.4
1.39999
1.3999
1.40001
1.40001
1.40001
1.40001
1.40001
1.40001
1.40001
1.40001
1.40001
1.40001
1.40001
1.40001
1.40001
1.40001
1.40001
1.40001
1.40001
1.40001
1.40001
1.40001
1.40001
1.40001
1.40001
1.40001
1.40001
1.40001
1.40001
1.40001
1.40001
1.40001
1.40001
1.40001
1.40001
1.40001
1.40001
1.40001
1.40001
1.40001
1.40001
1.40001
1.40001
1.40001
1.40001
1.40001
1.40001
1.40001
1.4
1.4
1.4
1.4
0.229602
0.22934
0.229901
0.231764
0.23312
0.233868
0.234873
0.236059
0.236979
0.235811
0.2338
0.232339
0.235664
0.242
0.25245
0.291587
0.323682
0.370796
0.424633
0.486841
0.541828
0.568839
0.573454
0.575503
0.57719
0.5934
0.627727
0.691209
0.776309
0.879399
1.00267
1.14241
1.28384
1.37427
1.39797
1.39996
1.4
1.40001
1.40001
1.40001
0.229588
0.22936
0.229948
0.23187
0.233161
0.233889
0.234905
0.23611
0.236986
0.235799
0.233699
0.232285
0.235816
0.243203
0.253932
0.292515
0.325011
0.372425
0.426693
0.488836
0.543088
0.569186
0.573368
0.575436
0.57697
0.593759
0.628157
0.692154
0.777811
0.881755
1.00439
1.14319
1.28709
1.37499
1.39805
1.39996
1.4
1.40001
1.40001
1.40001
0.229557
0.22937
0.229968
0.231922
0.23316
0.233867
0.234899
0.236143
0.237002
0.235817
0.233599
0.232108
0.236029
0.243787
0.254705
0.29289
0.325571
0.373352
0.427989
0.490085
0.543908
0.569422
0.57317
0.575151
0.57681
0.593945
0.629129
0.693126
0.778754
0.883026
1.00453
1.14656
1.28862
1.37545
1.39813
1.39996
1.4
1.40001
1.40001
1.40001
0.229524
0.229358
0.230027
0.231984
0.233149
0.233815
0.234853
0.236194
0.237003
0.235816
0.233457
0.231951
0.236235
0.24413
0.255463
0.293316
0.326399
0.374377
0.42919
0.491792
0.545028
0.569706
0.573146
0.574936
0.576803
0.594345
0.630181
0.694228
0.780556
0.884468
1.00508
1.14974
1.28986
1.37599
1.39821
1.39996
1.4
1.40001
1.40001
1.40001
0.229515
0.229351
0.230051
0.232028
0.233147
0.233815
0.234841
0.236261
0.237006
0.235804
0.233283
0.23186
0.23617
0.244379
0.256025
0.294223
0.327234
0.37556
0.43063
0.493087
0.546035
0.569988
0.573162
0.574926
0.577003
0.594908
0.630847
0.695352
0.782178
0.885939
1.00866
1.15135
1.29129
1.37662
1.39828
1.39997
1.4
1.40001
1.40001
1.40001
0.229513
0.229354
0.230068
0.232067
0.233152
0.233848
0.234912
0.236313
0.237007
0.235793
0.233075
0.231814
0.235736
0.244712
0.256464
0.29528
0.328395
0.376486
0.432259
0.494662
0.547105
0.570266
0.573178
0.574997
0.577316
0.595517
0.631748
0.69665
0.78349
0.887428
1.01138
1.1534
1.29292
1.37737
1.39835
1.39997
1.4
1.40001
1.40001
1.40001
0.229499
0.229385
0.230102
0.23212
0.233175
0.233847
0.234938
0.236326
0.237007
0.235792
0.232878
0.231809
0.235449
0.245474
0.257053
0.295782
0.329818
0.377724
0.434084
0.496406
0.548126
0.570536
0.573137
0.575061
0.577722
0.596123
0.63277
0.697884
0.785023
0.889684
1.01312
1.15554
1.29497
1.37804
1.39843
1.39997
1.4
1.40001
1.40001
1.40001
0.229419
0.229468
0.230193
0.232189
0.233201
0.233824
0.234934
0.236323
0.237005
0.235758
0.232707
0.231989
0.235425
0.246307
0.257868
0.295805
0.331049
0.379096
0.435808
0.498162
0.549203
0.570809
0.573041
0.575059
0.578122
0.596829
0.633832
0.699148
0.786399
0.891653
1.01503
1.15782
1.29686
1.3787
1.39851
1.39997
1.4
1.40001
1.40001
1.40001
0.2293
0.229492
0.230325
0.232269
0.233225
0.233753
0.234928
0.236323
0.236992
0.235574
0.232598
0.232434
0.235576
0.247132
0.258779
0.295241
0.332198
0.380511
0.437584
0.500017
0.550337
0.571075
0.573028
0.575162
0.578281
0.597673
0.634924
0.700434
0.787753
0.893442
1.01694
1.16026
1.29872
1.37941
1.39859
1.39997
1.4
1.40001
1.40001
1.40001
0.229218
0.229487
0.230437
0.232346
0.233251
0.233722
0.234926
0.236325
0.236896
0.235485
0.23258
0.232783
0.236101
0.248078
0.259589
0.294858
0.333475
0.382066
0.439514
0.501898
0.551491
0.571333
0.573039
0.575836
0.578264
0.598433
0.63601
0.701716
0.789464
0.895359
1.01908
1.16267
1.30073
1.38016
1.39866
1.39998
1.4
1.40001
1.40001
1.40001
0.22918
0.22949
0.230527
0.232421
0.233271
0.233727
0.234926
0.23633
0.236633
0.235475
0.23267
0.232844
0.236823
0.24909
0.260391
0.295527
0.335103
0.383669
0.441569
0.503875
0.552663
0.571583
0.573051
0.576307
0.578301
0.598933
0.637028
0.703011
0.791624
0.897475
1.02175
1.1653
1.30291
1.38091
1.39874
1.39998
1.4
1.40001
1.40001
1.40001
0.229132
0.229542
0.230627
0.232505
0.233289
0.233715
0.234922
0.23633
0.236425
0.235633
0.232813
0.232819
0.237296
0.250008
0.261179
0.297601
0.337017
0.385392
0.443751
0.505968
0.553846
0.571829
0.573081
0.576377
0.579256
0.599141
0.637979
0.704404
0.793818
0.899936
1.02464
1.16838
1.30517
1.38167
1.39882
1.39998
1.4
1.40001
1.40001
1.40001
0.229049
0.229576
0.230732
0.232604
0.233319
0.233677
0.234909
0.236244
0.236296
0.235857
0.233112
0.232721
0.237501
0.250798
0.261994
0.298941
0.3388
0.387265
0.446035
0.508164
0.555045
0.57207
0.573297
0.576202
0.580478
0.599089
0.638918
0.706059
0.795968
0.902538
1.02751
1.17173
1.30747
1.38244
1.39889
1.39998
1.4
1.40001
1.40001
1.40001
0.228941
0.229577
0.230812
0.232687
0.233375
0.233657
0.234833
0.236029
0.236201
0.235881
0.23359
0.23266
0.237741
0.251533
0.262852
0.299774
0.340441
0.389305
0.448431
0.510454
0.556259
0.57232
0.573572
0.576101
0.580822
0.598394
0.639935
0.708063
0.79823
0.905066
1.03049
1.175
1.30983
1.38323
1.39897
1.39998
1.4
1.40001
1.40001
1.40001
0.228815
0.229569
0.230873
0.232726
0.23341
0.233646
0.234674
0.235856
0.236122
0.235793
0.233833
0.232956
0.23815
0.252256
0.263779
0.300904
0.34218
0.391505
0.450969
0.512822
0.557482
0.572598
0.57365
0.576121
0.580943
0.59791
0.641114
0.710099
0.800593
0.907628
1.03366
1.17823
1.31228
1.38402
1.39904
1.39999
1.4
1.40001
1.40001
1.40001
0.228668
0.229543
0.230926
0.232735
0.233412
0.233631
0.23454
0.235735
0.236027
0.235666
0.233886
0.233466
0.238308
0.252931
0.264805
0.302332
0.344062
0.393874
0.453653
0.515271
0.558704
0.572891
0.57366
0.576269
0.581091
0.598021
0.642564
0.712151
0.803001
0.910338
1.03707
1.18156
1.31485
1.38483
1.39912
1.39999
1.4
1.40001
1.40001
1.40001
0.228536
0.229501
0.230988
0.23274
0.23339
0.23354
0.234383
0.235608
0.235891
0.235562
0.233849
0.233565
0.238305
0.253531
0.265914
0.303882
0.346024
0.396414
0.456503
0.517809
0.559911
0.573179
0.573604
0.576544
0.581321
0.598956
0.644318
0.714348
0.805499
0.913307
1.04073
1.18513
1.31751
1.38564
1.39919
1.39999
1.4
1.40001
1.40001
1.40001
0.228439
0.229497
0.23107
0.232816
0.233321
0.233391
0.234243
0.23546
0.235742
0.235428
0.233822
0.233541
0.238255
0.254065
0.267058
0.305588
0.348059
0.39912
0.459523
0.52044
0.561092
0.573436
0.57357
0.576787
0.58185
0.600372
0.646257
0.716655
0.808141
0.916645
1.04454
1.18899
1.32025
1.38646
1.39926
1.39999
1.4
1.40001
1.40001
1.40001
0.228347
0.229517
0.23114
0.232949
0.233297
0.233347
0.234176
0.235332
0.235648
0.235355
0.233864
0.233127
0.238105
0.254538
0.268216
0.30751
0.350203
0.402027
0.462698
0.523154
0.562238
0.57364
0.573658
0.576948
0.582546
0.601882
0.648198
0.71904
0.810961
0.920213
1.04838
1.19309
1.32307
1.38728
1.39932
1.39999
1.4
1.40001
1.40001
1.40001
0.228236
0.229524
0.23119
0.233031
0.233297
0.233344
0.234145
0.235242
0.235636
0.235365
0.233909
0.232237
0.237791
0.254932
0.269435
0.30977
0.352496
0.405166
0.46605
0.525945
0.563355
0.573848
0.573809
0.577032
0.58309
0.602999
0.650047
0.721529
0.814038
0.923934
1.05226
1.19744
1.32599
1.38811
1.39939
1.39999
1.4
1.40001
1.40001
1.40001
0.228103
0.229512
0.231235
0.233099
0.233366
0.233369
0.234132
0.235182
0.235648
0.235384
0.23391
0.231897
0.237615
0.255264
0.270838
0.312455
0.354987
0.408539
0.469617
0.528801
0.564461
0.574054
0.573883
0.577069
0.583625
0.603996
0.651871
0.724182
0.817441
0.927749
1.05638
1.20205
1.32899
1.38892
1.39945
1.4
1.4
1.40001
1.40001
1.40001
0.227976
0.229406
0.231256
0.233143
0.23356
0.233558
0.234164
0.235144
0.235673
0.235407
0.233914
0.23183
0.237486
0.255627
0.272625
0.315578
0.357738
0.412089
0.473406
0.531723
0.565562
0.574227
0.573893
0.577122
0.584241
0.605414
0.653802
0.727086
0.821075
0.931677
1.061
1.20685
1.33207
1.38974
1.39951
1.4
1.4
1.40001
1.40001
1.40001
0.227908
0.229338
0.231269
0.233085
0.23364
0.233728
0.234392
0.235124
0.235789
0.235527
0.234056
0.231796
0.236919
0.256141
0.274929
0.318894
0.360767
0.415801
0.47741
0.534723
0.56665
0.574339
0.573876
0.577401
0.584851
0.607156
0.655946
0.730286
0.824851
0.935784
1.06605
1.21173
1.33523
1.39054
1.39956
1.4
1.4
1.40001
1.40001
1.40001
0.227884
0.229336
0.231316
0.233015
0.233643
0.233777
0.2345
0.235096
0.235993
0.235787
0.234595
0.23175
0.235384
0.256847
0.277538
0.322053
0.364027
0.41972
0.481638
0.537798
0.567703
0.574399
0.57383
0.577609
0.585404
0.608825
0.658334
0.733759
0.828744
0.940122
1.07122
1.21679
1.33846
1.39133
1.39962
1.4
1.4
1.40001
1.40001
1.40001
0.227865
0.229351
0.23138
0.232995
0.233638
0.233813
0.234511
0.23504
0.236044
0.235918
0.235085
0.231731
0.234592
0.257727
0.280139
0.324893
0.36752
0.423891
0.486096
0.54093
0.568707
0.574425
0.573768
0.577587
0.585819
0.610531
0.660987
0.737397
0.832749
0.944782
1.07659
1.22215
1.34176
1.3921
1.39967
1.4
1.4
1.40001
1.40001
1.40001
0.227847
0.229349
0.231422
0.23297
0.233653
0.233917
0.234515
0.234844
0.236016
0.235955
0.235428
0.231828
0.234505
0.258879
0.282738
0.327422
0.371268
0.428353
0.490798
0.544101
0.569652
0.574433
0.573708
0.577386
0.585881
0.612401
0.663876
0.741179
0.836982
0.949842
1.08233
1.22783
1.34512
1.39285
1.39971
1.4
1.40001
1.40001
1.40001
1.40001
0.227862
0.229236
0.231433
0.23296
0.233722
0.234094
0.23471
0.234644
0.235696
0.235958
0.235709
0.232513
0.234705
0.260571
0.285639
0.329846
0.375296
0.433083
0.495759
0.547284
0.570534
0.574416
0.573649
0.577247
0.585661
0.614476
0.667008
0.74513
0.841571
0.955221
1.08841
1.23372
1.34853
1.39358
1.39975
1.4
1.40001
1.40001
1.40001
1.40001
0.227878
0.229049
0.231387
0.232963
0.233867
0.234297
0.234918
0.234613
0.235387
0.235891
0.235969
0.233259
0.235782
0.262958
0.289029
0.332414
0.379678
0.438126
0.500967
0.550453
0.571341
0.574339
0.573624
0.577356
0.585753
0.616777
0.670332
0.749294
0.846555
0.96085
1.09477
1.2399
1.35198
1.39428
1.39979
1.4
1.40001
1.40001
1.40001
1.40001
0.227869
0.228855
0.231303
0.232943
0.233962
0.234543
0.235051
0.234617
0.235155
0.235388
0.236264
0.234046
0.237052
0.265531
0.292745
0.335371
0.384438
0.443528
0.50639
0.55356
0.572061
0.574321
0.57364
0.578243
0.58733
0.619206
0.673815
0.753727
0.851838
0.966767
1.10157
1.24637
1.35545
1.39495
1.39983
1.4
1.40001
1.40001
1.40001
1.40001
0.227868
0.228625
0.231127
0.232878
0.234047
0.2348
0.235197
0.234556
0.234834
0.234795
0.236583
0.23489
0.237975
0.26807
0.296642
0.338843
0.389561
0.449319
0.511967
0.556571
0.572696
0.574347
0.573689
0.579312
0.589231
0.621464
0.677478
0.758465
0.857401
0.973106
1.10886
1.25308
1.35893
1.39558
1.39986
1.4
1.40001
1.40001
1.40001
1.40001
0.227913
0.228465
0.230828
0.232756
0.234164
0.235086
0.235369
0.234445
0.234423
0.234186
0.236834
0.235595
0.239009
0.270999
0.300664
0.342904
0.394966
0.455483
0.517679
0.559445
0.573229
0.574548
0.574046
0.579603
0.590163
0.623406
0.681388
0.76353
0.863306
0.979949
1.11657
1.26004
1.36239
1.39617
1.39988
1.4
1.40001
1.40001
1.40001
1.40001
0.227953
0.228391
0.230605
0.232671
0.234317
0.235401
0.235572
0.2344
0.234125
0.233627
0.236971
0.236167
0.240205
0.274336
0.304596
0.347491
0.400662
0.462085
0.523493
0.562136
0.573626
0.574918
0.574528
0.579385
0.590928
0.62527
0.685592
0.768935
0.869587
0.98725
1.12467
1.26727
1.36583
1.39672
1.39991
1.4
1.40001
1.40001
1.40001
1.40001
0.228011
0.228367
0.230393
0.232659
0.234481
0.235718
0.235804
0.2345
0.233924
0.23308
0.237025
0.236657
0.241552
0.277739
0.308323
0.352631
0.406755
0.469215
0.529344
0.564587
0.573893
0.575127
0.574649
0.5789
0.592023
0.627416
0.690174
0.774743
0.876293
0.994968
1.13317
1.27473
1.36921
1.39723
1.39993
1.4
1.40001
1.40001
1.40001
1.40001
0.228135
0.228372
0.230136
0.232681
0.234645
0.236004
0.236049
0.235032
0.233714
0.232426
0.236771
0.237146
0.243173
0.281171
0.312129
0.358505
0.413414
0.476856
0.535174
0.566766
0.574069
0.575193
0.574571
0.578872
0.593736
0.630282
0.695219
0.781007
0.883427
1.00311
1.14213
1.28241
1.37252
1.39769
1.39994
1.4
1.40001
1.40001
1.40001
1.40001
0.228301
0.228379
0.2299
0.232688
0.234784
0.236224
0.236234
0.235325
0.233361
0.231679
0.235758
0.237842
0.245455
0.284592
0.316522
0.365178
0.420837
0.484922
0.540876
0.568653
0.574178
0.575221
0.574414
0.579299
0.596069
0.634117
0.700723
0.787644
0.890956
1.01179
1.15169
1.29034
1.37574
1.3981
1.39996
1.4
1.40001
1.40001
1.40001
1.40001
0.228423
0.228357
0.229754
0.232698
0.234857
0.236324
0.236358
0.235398
0.232871
0.231045
0.234503
0.239662
0.248743
0.287872
0.32188
0.372427
0.42903
0.493348
0.546376
0.570245
0.574243
0.575337
0.574423
0.580396
0.598614