/*--------------------------------*- C++ -*----------------------------------*\
  =========                 |
  \\      /  F ield         | OpenFOAM: The Open Source CFD Toolbox
   \\    /   O peration     | Website:  https://openfoam.org
    \\  /    A nd           | Version:  7
     \\/     M anipulation  |
\*---------------------------------------------------------------------------*/
FoamFile
{
    version     2.0;
    format      ascii;
    class       volScalarField;
    location    "3";
    object      p;
}
// * * * * * * * * * * * * * * * * * * * * * * * * * * * * * * * * * * * * * //

dimensions      [1 -1 -2 0 0 0 0];

internalField   nonuniform List<scalar> 
90000
(
0.711002
0.716335
0.722035
0.728138
0.734079
0.740265
0.746059
0.752062
0.757676
0.763542
0.768945
0.774479
0.779543
0.784697
0.789379
0.794173
0.79859
0.803475
0.80815
0.813973
0.821212
0.830881
0.842172
0.85548
0.868975
0.883395
0.897022
0.911021
0.923954
0.937007
0.949017
0.960671
0.971199
0.980955
0.989365
0.997451
1.00233
1.00835
1.01183
1.01303
1.01309
1.01459
1.01828
1.01803
1.01551
1.00512
0.991755
0.980552
0.973245
0.968659
0.96826
0.970857
0.975465
0.980964
0.986436
0.990925
0.994617
0.996075
0.997041
0.997502
0.995961
0.992559
0.987279
0.98244
0.979885
0.978823
0.980196
0.984661
0.986697
0.989925
0.994286
0.994621
0.992232
0.987995
0.983148
0.980588
0.981131
0.983416
0.987188
0.9882
0.987932
0.986035
0.984986
0.984796
0.986603
0.990459
0.990266
0.989809
0.987812
0.987128
0.987125
0.98799
0.987788
0.986949
0.986527
0.986844
0.988341
0.988048
0.986927
0.985616
0.707081
0.707403
0.707981
0.708849
0.709941
0.711532
0.713481
0.715841
0.718538
0.721639
0.725089
0.72888
0.733038
0.737519
0.742211
0.747111
0.752104
0.757186
0.762651
0.768081
0.773472
0.779073
0.785373
0.792411
0.800236
0.80895
0.818374
0.828953
0.839867
0.851995
0.864219
0.877285
0.890134
0.903544
0.916392
0.929684
0.941958
0.953944
0.964483
0.97542
0.982696
0.988919
0.995095
0.997487
0.999524
1.00088
1.00496
1.00684
1.00545
1.00034
0.992845
0.985007
0.979559
0.976022
0.976373
0.977893
0.980311
0.983416
0.986587
0.990588
0.994556
0.997911
0.997559
0.994615
0.989872
0.984824
0.98246
0.980407
0.981736
0.984685
0.987044
0.989913
0.992938
0.991419
0.98886
0.984608
0.981898
0.981057
0.982061
0.985024
0.988509
0.988374
0.986725
0.984506
0.984856
0.987019
0.989924
0.99049
0.989625
0.987858
0.986983
0.987353
0.987589
0.987224
0.986617
0.986497
0.987369
0.988219
0.987993
0.986606
0.708201
0.708163
0.70815
0.708166
0.708257
0.708296
0.708307
0.70831
0.708345
0.70844
0.708591
0.70878
0.709056
0.709488
0.710057
0.710694
0.711421
0.712548
0.714093
0.71603
0.718243
0.720682
0.723407
0.72651
0.72997
0.733855
0.738195
0.743354
0.749076
0.756138
0.763651
0.773105
0.782982
0.794898
0.807721
0.822035
0.837755
0.854153
0.871416
0.889631
0.907469
0.924989
0.940672
0.954025
0.967756
0.977195
0.984533
0.987764
0.991004
0.992614
0.994125
0.998161
0.999228
0.997821
0.994462
0.990344
0.986671
0.983583
0.983791
0.984975
0.98705
0.989901
0.992369
0.994523
0.994149
0.992814
0.989603
0.985537
0.982539
0.979707
0.980352
0.982551
0.986634
0.991735
0.994493
0.99232
0.986973
0.981894
0.981254
0.982543
0.985521
0.989104
0.989311
0.987578
0.985634
0.986107
0.98838
0.990508
0.990399
0.988606
0.986779
0.98684
0.987141
0.987353
0.987115
0.986835
0.987278
0.987879
0.987689
0.986635
0.7087
0.708685
0.708652
0.708616
0.708576
0.708522
0.708491
0.708467
0.708434
0.708406
0.708395
0.708381
0.708372
0.708398
0.708493
0.708622
0.708845
0.708896
0.708964
0.709102
0.709307
0.709592
0.709939
0.71031
0.710702
0.711156
0.7117
0.712399
0.713289
0.714448
0.716302
0.718787
0.721862
0.725804
0.730766
0.736945
0.744907
0.753802
0.76593
0.778756
0.79572
0.813375
0.834155
0.856158
0.879317
0.901355
0.924004
0.940915
0.956619
0.970472
0.979767
0.985164
0.986678
0.988008
0.989209
0.989216
0.988214
0.987568
0.986993
0.986564
0.986244
0.986811
0.988246
0.990132
0.991842
0.992713
0.99148
0.989538
0.985802
0.982032
0.978826
0.979262
0.981347
0.984765
0.988082
0.990425
0.991449
0.989708
0.986189
0.983083
0.982803
0.984564
0.986697
0.989016
0.988273
0.986454
0.985982
0.987361
0.989146
0.990186
0.98912
0.987493
0.987237
0.98746
0.987449
0.987051
0.987166
0.987658
0.988037
0.987443
0.70985
0.709873
0.709917
0.709967
0.710007
0.710044
0.710113
0.710172
0.71018
0.710187
0.710214
0.710281
0.710368
0.710401
0.710398
0.710402
0.710466
0.710491
0.710489
0.710537
0.710711
0.710979
0.711241
0.711464
0.711675
0.71191
0.712166
0.71252
0.712962
0.713678
0.713761
0.713823
0.713967
0.714191
0.714498
0.714919
0.715534
0.716418
0.718236
0.720913
0.725044
0.730683
0.73846
0.749917
0.762952
0.782289
0.801971
0.827013
0.852713
0.879734
0.903799
0.928352
0.94297
0.957311
0.971158
0.974541
0.980607
0.981475
0.981889
0.982926
0.985331
0.986747
0.988425
0.989807
0.989838
0.988818
0.98666
0.986244
0.986525
0.987273
0.986197
0.984282
0.982307
0.981499
0.981979
0.984243
0.986119
0.988592
0.990695
0.989425
0.986489
0.983741
0.984296
0.986108
0.98817
0.988856
0.988107
0.986726
0.987299
0.988749
0.988882
0.98792
0.987026
0.987233
0.98769
0.987419
0.986938
0.987029
0.987496
0.987409
0.711983
0.712072
0.712184
0.7123
0.712342
0.712332
0.7123
0.712313
0.712432
0.712669
0.712821
0.712921
0.713019
0.713029
0.713021
0.713016
0.713078
0.713268
0.713321
0.713355
0.713403
0.71349
0.713656
0.713739
0.713712
0.713644
0.713654
0.713867
0.714125
0.714211
0.714278
0.714408
0.714639
0.71489
0.715124
0.715327
0.715489
0.715763
0.71563
0.715526
0.715563
0.715724
0.716105
0.717003
0.718625
0.721774
0.726503
0.734613
0.745738
0.76154
0.783476
0.807137
0.837457
0.86624
0.896188
0.91997
0.943433
0.958193
0.967588
0.976578
0.982965
0.983937
0.985179
0.986778
0.986194
0.981611
0.979991
0.981216
0.984761
0.988102
0.988346
0.987737
0.986103
0.983023
0.98103
0.981614
0.983147
0.98649
0.988609
0.988943
0.988509
0.986969
0.985203
0.985374
0.985877
0.986524
0.986868
0.987224
0.987719
0.988427
0.989132
0.988729
0.987892
0.987119
0.987328
0.987726
0.98741
0.987168
0.987392
0.987626
0.713644
0.713725
0.713813
0.713888
0.714027
0.714142
0.714175
0.714308
0.714516
0.714534
0.714534
0.714567
0.714658
0.714774
0.714871
0.714945
0.715053
0.715286
0.715406
0.715424
0.715434
0.715478
0.715594
0.715734
0.715836
0.715911
0.716055
0.716244
0.716255
0.716219
0.716215
0.716302
0.716507
0.716616
0.716665
0.716677
0.716648
0.716555
0.716407
0.7163
0.716256
0.71625
0.716299
0.716274
0.716269
0.716329
0.716521
0.71691
0.71766
0.719282
0.722759
0.72867
0.739378
0.754658
0.774437
0.803634
0.83169
0.863006
0.894804
0.918433
0.942839
0.954218
0.959205
0.967778
0.974663
0.976701
0.980408
0.984417
0.987684
0.988371
0.987921
0.985637
0.983492
0.983446
0.98399
0.984587
0.985272
0.985704
0.986271
0.986967
0.987534
0.988688
0.988207
0.987021
0.985523
0.985534
0.985806
0.986432
0.98716
0.98766
0.988126
0.988526
0.988516
0.987988
0.987399
0.987274
0.987263
0.987099
0.987066
0.987228
0.714845
0.714892
0.714962
0.715019
0.715103
0.715201
0.715259
0.715302
0.715362
0.715373
0.715366
0.715387
0.715503
0.715601
0.715618
0.715643
0.715753
0.71592
0.715948
0.715927
0.71591
0.715918
0.715961
0.715965
0.715975
0.716058
0.716211
0.716289
0.716276
0.716261
0.716272
0.716389
0.716596
0.716706
0.716759
0.716756
0.716709
0.716627
0.716591
0.716582
0.716574
0.716566
0.716548
0.716506
0.716438
0.716359
0.71624
0.715963
0.71545
0.715251
0.715274
0.715532
0.716285
0.717968
0.721095
0.727112
0.737166
0.754104
0.776998
0.805146
0.837549
0.876616
0.908136
0.928492
0.953435
0.97317
0.979526
0.982199
0.98619
0.985625
0.979515
0.978656
0.980588
0.984766
0.988082
0.987686
0.986932
0.984857
0.983138
0.983997
0.986142
0.988719
0.988674
0.988106
0.986702
0.985454
0.985556
0.986136
0.986731
0.987186
0.98751
0.988111
0.988513
0.988358
0.987831
0.987208
0.987355
0.987246
0.987168
0.987322
0.715681
0.715687
0.715702
0.715724
0.715723
0.715687
0.715607
0.71554
0.715496
0.715474
0.715467
0.715463
0.715474
0.715484
0.715491
0.715515
0.715616
0.715775
0.715815
0.715819
0.715825
0.715833
0.715836
0.715835
0.715853
0.715947
0.716054
0.716057
0.716039
0.716038
0.71607
0.716209
0.71638
0.716483
0.716554
0.716538
0.716421
0.716347
0.716344
0.716341
0.716313
0.716266
0.716213
0.716108
0.715908
0.715663
0.715392
0.714954
0.714271
0.713797
0.713724
0.713706
0.713728
0.713861
0.714099
0.714432
0.715095
0.716679
0.719857
0.72763
0.739931
0.760423
0.791558
0.828349
0.859138
0.894722
0.927406
0.942268
0.955095
0.964028
0.969583
0.978494
0.985565
0.989784
0.989796
0.988172
0.984113
0.982359
0.982931
0.9852
0.987996
0.988644
0.988037
0.986849
0.986147
0.986079
0.986304
0.986404
0.986351
0.986488
0.986932
0.987634
0.988165
0.988263
0.988026
0.987629
0.987486
0.987173
0.987093
0.987296
0.715945
0.715936
0.715914
0.71589
0.715818
0.715642
0.715526
0.715505
0.715516
0.715549
0.715552
0.715529
0.715466
0.71542
0.715419
0.715436
0.715485
0.715517
0.715527
0.715525
0.715509
0.715504
0.71551
0.715538
0.71558
0.71559
0.71556
0.715382
0.715161
0.715129
0.71515
0.715189
0.715228
0.715233
0.715138
0.714784
0.714547
0.714532
0.714598
0.714649
0.714636
0.714597
0.714538
0.714444
0.714392
0.714337
0.714212
0.713848
0.713259
0.71291
0.712879
0.712858
0.712819
0.71286
0.713003
0.713018
0.712965
0.712996
0.713179
0.713678
0.714866
0.717735
0.723724
0.736464
0.756163
0.785598
0.82085
0.864386
0.898749
0.932427
0.962575
0.976715
0.982282
0.987384
0.985583
0.977328
0.977936
0.980978
0.985619
0.988731
0.988551
0.987321
0.984699
0.985148
0.986061
0.987368
0.98723
0.986804
0.985982
0.986084
0.986484
0.987019
0.98749
0.987946
0.987992
0.987976
0.987673
0.987149
0.987086
0.987323
0.715774
0.71575
0.715706
0.715632
0.715411
0.715312
0.715309
0.715281
0.71527
0.715291
0.715319
0.71532
0.715296
0.71526
0.715247
0.715237
0.715204
0.715132
0.71503
0.714923
0.714831
0.71474
0.714651
0.714576
0.714529
0.714478
0.714343
0.714106
0.713904
0.713761
0.713635
0.713542
0.713463
0.713306
0.712846
0.712417
0.712363
0.712382
0.712511
0.712682
0.712708
0.712702
0.712706
0.712759
0.712883
0.712922
0.71285
0.712504
0.712171
0.712046
0.712048
0.71206
0.712023
0.711998
0.71205
0.712081
0.712109
0.712169
0.712328
0.712623
0.712793
0.712877
0.713131
0.714089
0.716891
0.72281
0.735584
0.756146
0.787946
0.824835
0.868054
0.906826
0.931776
0.950712
0.960983
0.968761
0.981023
0.989082
0.989747
0.98928
0.985382
0.982554
0.982775
0.984616
0.98786
0.988262
0.987648
0.986388
0.985794
0.986204
0.986981
0.98703
0.98683
0.987032
0.987637
0.988137
0.98793
0.987671
0.987486
0.987621
0.714967
0.714704
0.714558
0.714529
0.71452
0.714523
0.714574
0.714633
0.71464
0.714623
0.714583
0.714535
0.714513
0.714508
0.714498
0.714476
0.714441
0.71438
0.714271
0.714138
0.713974
0.713665
0.713405
0.713406
0.713441
0.71343
0.7133
0.713062
0.712903
0.712717
0.712469
0.712247
0.71202
0.711602
0.710965
0.710684
0.710653
0.710655
0.710718
0.710929
0.711145
0.711162
0.711183
0.711302
0.711371
0.711348
0.711183
0.711008
0.711037
0.711102
0.711131
0.711189
0.711216
0.711163
0.711121
0.711172
0.711291
0.711474
0.711803
0.712321
0.71284
0.713021
0.713124
0.713085
0.713188
0.713654
0.71496
0.717791
0.724473
0.73789
0.762526
0.797314
0.844207
0.884393
0.928187
0.961254
0.978006
0.985131
0.986464
0.980414
0.976844
0.979279
0.984289
0.987923
0.988415
0.987729
0.98546
0.985576
0.986363
0.987311
0.987023
0.986436
0.986213
0.986369
0.987038
0.988018
0.987914
0.987869
0.987947
0.987877
0.713876
0.713862
0.713868
0.713883
0.713916
0.713931
0.713936
0.713951
0.713959
0.713947
0.713897
0.713813
0.713727
0.713659
0.713568
0.713442
0.713385
0.713381
0.713376
0.713341
0.713199
0.71294
0.712676
0.712541
0.712532
0.712536
0.712515
0.712392
0.712188
0.711917
0.711614
0.711278
0.710854
0.710304
0.709874
0.709773
0.709781
0.70978
0.709775
0.709817
0.710013
0.710092
0.710108
0.710198
0.710274
0.710265
0.710137
0.71002
0.710047
0.710121
0.710149
0.710244
0.71035
0.710291
0.710136
0.710102
0.710176
0.710499
0.711102
0.711882
0.712599
0.712882
0.712937
0.712986
0.713231
0.713561
0.713611
0.713685
0.713923
0.715076
0.718368
0.727967
0.745056
0.776376
0.816243
0.86213
0.90576
0.931544
0.954059
0.961419
0.977143
0.985424
0.989299
0.988953
0.985673
0.983458
0.984203
0.986542
0.988475
0.988193
0.986917
0.985652
0.985715
0.986472
0.987118
0.987584
0.987811
0.988446
0.988773
0.988324
0.712201
0.712199
0.712219
0.712257
0.712292
0.712356
0.712473
0.712525
0.712538
0.712556
0.712565
0.712542
0.712436
0.712334
0.712294
0.712294
0.712321
0.712373
0.712377
0.712335
0.712179
0.712117
0.712104
0.712044
0.712036
0.712065
0.712083
0.712053
0.711889
0.711605
0.711287
0.710925
0.710479
0.709999
0.709683
0.7096
0.709622
0.709643
0.709634
0.709641
0.70977
0.709863
0.709879
0.709908
0.709947
0.709949
0.709851
0.709719
0.709744
0.710057
0.710251
0.71025
0.710128
0.709935
0.709773
0.709718
0.709782
0.710081
0.710613
0.711247
0.712046
0.712543
0.712554
0.712631
0.712924
0.713206
0.713216
0.71314
0.712917
0.712805
0.71292
0.713622
0.715722
0.721819
0.733842
0.760609
0.797626
0.847696
0.897498
0.941122
0.972331
0.981083
0.986363
0.981881
0.975278
0.978979
0.985669
0.988896
0.988641
0.986939
0.985165
0.985214
0.986246
0.987052
0.98679
0.986901
0.987697
0.989147
0.989126
0.988419
0.711583
0.711578
0.711575
0.711579
0.711604
0.711647
0.711736
0.711857
0.711936
0.711993
0.71209
0.712135
0.712085
0.712028
0.711968
0.711909
0.711896
0.711914
0.711994
0.712017
0.71198
0.711986
0.71203
0.712001
0.711917
0.711877
0.7119
0.711948
0.711899
0.711635
0.711263
0.710935
0.710644
0.710502
0.710467
0.710432
0.710397
0.710385
0.710302
0.710158
0.71014
0.710205
0.710163
0.709968
0.709897
0.709884
0.709855
0.70979
0.709909
0.710405
0.710847
0.711126
0.711212
0.711157
0.710952
0.710702
0.710549
0.710612
0.710951
0.711404
0.711719
0.712059
0.712324
0.712356
0.712492
0.712588
0.712593
0.712506
0.712204
0.712015
0.712031
0.712214
0.712502
0.712892
0.713982
0.717692
0.727417
0.75007
0.78499
0.83522
0.882708
0.91942
0.94861
0.959921
0.973773
0.988142
0.989149
0.988284
0.984742
0.983645
0.984611
0.987022
0.987751
0.987212
0.986403
0.986658
0.988061
0.989476
0.989291
0.988349
0.711291
0.711291
0.711298
0.711382
0.711468
0.711473
0.711473
0.711512
0.711625
0.711738
0.711819
0.711895
0.711888
0.711774
0.71168
0.711665
0.711638
0.711607
0.711611
0.711816
0.711959
0.711997
0.712038
0.712038
0.711995
0.711955
0.711988
0.712113
0.712117
0.711953
0.711788
0.711648
0.711508
0.711526
0.711659
0.71172
0.711723
0.711824
0.71187
0.711862
0.71185
0.711797
0.711604
0.711345
0.711022
0.710648
0.710413
0.71037
0.710488
0.711004
0.711743
0.712084
0.712128
0.712067
0.711861
0.711439
0.711204
0.711258
0.711502
0.71159
0.711578
0.711648
0.711798
0.711855
0.711877
0.711941
0.711987
0.71192
0.711552
0.711267
0.711281
0.711459
0.711629
0.711644
0.711623
0.711749
0.712569
0.715683
0.723809
0.74396
0.776848
0.828365
0.879658
0.933198
0.969061
0.983043
0.985888
0.976032
0.976461
0.980438
0.986697
0.988312
0.98769
0.985539
0.985834
0.987472
0.988879
0.988992
0.98841
0.988009
0.710754
0.710754
0.710776
0.710838
0.710854
0.710857
0.710858
0.710846
0.71085
0.710934
0.711196
0.711582
0.711725
0.711672
0.711572
0.711565
0.711583
0.711498
0.711413
0.711453
0.711594
0.711634
0.711651
0.711649
0.71161
0.711574
0.711626
0.711844
0.711964
0.711912
0.711852
0.711798
0.711836
0.712094
0.712293
0.712398
0.712615
0.713019
0.713259
0.713281
0.713236
0.712993
0.712888
0.712857
0.712532
0.711847
0.711306
0.711213
0.711413
0.712346
0.712708
0.712768
0.712948
0.713016
0.71281
0.712252
0.712053
0.712121
0.712192
0.712178
0.711992
0.711786
0.71175
0.711687
0.711514
0.711487
0.711544
0.711607
0.711485
0.711143
0.711098
0.711286
0.711628
0.711757
0.711725
0.711701
0.71176
0.712075
0.712822
0.714947
0.721903
0.738746
0.772476
0.822712
0.875167
0.918369
0.947511
0.958858
0.97617
0.9877
0.988645
0.98722
0.983766
0.98429
0.9872
0.989486
0.989287
0.987866
0.987261
0.988065
0.710782
0.710746
0.710749
0.710763
0.710768
0.710765
0.710758
0.710758
0.710721
0.71056
0.71051
0.710669
0.71108
0.711151
0.711179
0.711211
0.711134
0.710903
0.71084
0.710875
0.71109
0.711174
0.711169
0.71118
0.711164
0.711132
0.711209
0.711388
0.711401
0.711374
0.711352
0.711382
0.711824
0.712449
0.712522
0.712611
0.712962
0.713523
0.713793
0.713823
0.713757
0.713657
0.713629
0.713431
0.71278
0.71236
0.712174
0.712181
0.712597
0.713168
0.713151
0.713163
0.713351
0.713333
0.713039
0.712805
0.712615
0.712569
0.712643
0.712623
0.71236
0.712308
0.71233
0.71217
0.711749
0.711433
0.711501
0.711816
0.711839
0.711581
0.711364
0.711436
0.71165
0.711717
0.711619
0.711496
0.711502
0.711599
0.711769
0.711891
0.712279
0.713938
0.72025
0.736954
0.771734
0.823611
0.879584
0.940173
0.97029
0.984308
0.983002
0.973873
0.977569
0.984917
0.989881
0.989736
0.987806
0.986152
0.986964
0.988521
0.711465
0.711341
0.711282
0.711287
0.711326
0.711401
0.711496
0.711535
0.711539
0.711442
0.711245
0.711252
0.711612
0.712056
0.712128
0.712116
0.712026
0.71185
0.711789
0.711823
0.712026
0.712145
0.712128
0.711993
0.711864
0.711825
0.711741
0.711552
0.711436
0.711418
0.711444
0.711588
0.712105
0.712479
0.712586
0.712865
0.713283
0.713334
0.713334
0.71346
0.713601
0.713636
0.713616
0.7133
0.712649
0.712486
0.712371
0.712378
0.712709
0.7131
0.713101
0.713184
0.713333
0.713207
0.712851
0.712799
0.712731
0.712646
0.71282
0.713048
0.712973
0.712805
0.71268
0.712446
0.712074
0.711971
0.712233
0.712753
0.712809
0.712568
0.712052
0.711851
0.71184
0.71179
0.711594
0.711373
0.71128
0.711313
0.711395
0.711557
0.711608
0.711635
0.711913
0.71355
0.720215
0.737007
0.773371
0.827136
0.881997
0.925845
0.951646
0.962162
0.985569
0.989383
0.989262
0.986215
0.984398
0.985747
0.98822
0.989094
0.712417
0.712397
0.712326
0.712306
0.712305
0.712388
0.712511
0.712573
0.712678
0.712699
0.712618
0.712568
0.712665
0.712756
0.712762
0.712715
0.712697
0.712682
0.712643
0.712634
0.712693
0.712746
0.71281
0.712861
0.712842
0.712606
0.712222
0.712156
0.712154
0.712152
0.712197
0.712382
0.712512
0.712583
0.712848
0.713028
0.713026
0.712842
0.712844
0.712996
0.713148
0.713216
0.713204
0.713042
0.712453
0.712118
0.711979
0.711903
0.711971
0.711979
0.712026
0.712481
0.712914
0.712829
0.712401
0.712299
0.71234
0.712237
0.712285
0.712666
0.712821
0.7128
0.7129
0.712883
0.712665
0.712559
0.71288
0.713302
0.713358
0.713227
0.712822
0.712375
0.712171
0.712026
0.711803
0.711565
0.71138
0.711344
0.711383
0.71145
0.71157
0.711657
0.711751
0.711805
0.712195
0.713997
0.720393
0.739705
0.779344
0.833372
0.905401
0.951641
0.981403
0.984073
0.978477
0.977426
0.981848
0.988379
0.989261
0.988767
0.713032
0.713021
0.71294
0.712856
0.712851
0.712871
0.712886
0.713021
0.71326
0.713385
0.713414
0.71336
0.713219
0.713128
0.713057
0.712918
0.71277
0.71279
0.712893
0.712954
0.71292
0.712875
0.712897
0.713052
0.713151
0.713051
0.712748
0.712646
0.712655
0.712805
0.713083
0.713136
0.71312
0.713146
0.713168
0.713151
0.713089
0.712859
0.712435
0.712113
0.712129
0.712319
0.712496
0.712439
0.71199
0.711388
0.71125
0.711367
0.711477
0.711407
0.711474
0.712186
0.713104
0.713103
0.712606
0.712288
0.712341
0.712345
0.712186
0.712389
0.712584
0.712574
0.712866
0.713248
0.713215
0.713033
0.713069
0.713338
0.713412
0.713354
0.713109
0.71274
0.712557
0.712469
0.712351
0.71215
0.711932
0.711829
0.711797
0.711763
0.711752
0.71177
0.711717
0.711673
0.711688
0.71175
0.711992
0.714046
0.721125
0.745645
0.787308
0.846696
0.911514
0.934826
0.957096
0.973185
0.989374
0.990145
0.988479
0.986801
0.712455
0.712426
0.71231
0.711989
0.711858
0.711859
0.71188
0.711978
0.712066
0.712054
0.711933
0.711662
0.711479
0.711381
0.71126
0.711175
0.711229
0.711526
0.712012
0.712229
0.712168
0.711977
0.711918
0.712043
0.712311
0.712331
0.712131
0.711951
0.71195
0.712085
0.712503
0.712722
0.712684
0.712427
0.71205
0.711623
0.711257
0.711269
0.711277
0.710926
0.710435
0.710443
0.710734
0.711034
0.71095
0.710722
0.710723
0.711094
0.711163
0.711107
0.711305
0.712445
0.713399
0.713489
0.71328
0.713148
0.713181
0.713075
0.712508
0.712339
0.712383
0.712254
0.712367
0.712966
0.71319
0.712964
0.712794
0.712773
0.712776
0.712777
0.712692
0.712545
0.712503
0.712501
0.71248
0.712447
0.712453
0.712483
0.71247
0.712399
0.712279
0.71216
0.712025
0.711858
0.711644
0.711686
0.711846
0.71192
0.712307
0.71515
0.723941
0.755388
0.800322
0.865255
0.940346
0.966274
0.98534
0.98243
0.977811
0.982814
0.706773
0.706628
0.706378
0.705981
0.705326
0.704775
0.704691
0.704701
0.704766
0.704779
0.704662
0.704561
0.704569
0.704642
0.704614
0.704606
0.705158
0.706662
0.707823
0.708636
0.70909
0.708954
0.70855
0.708477
0.708774
0.709526
0.7096
0.709632
0.709769
0.70999
0.710191
0.71041
0.710743
0.710918
0.710843
0.710627
0.710535
0.710738
0.711001
0.710987
0.710547
0.710436
0.710738
0.710879
0.710666
0.710508
0.710639
0.711116
0.711098
0.711055
0.711401
0.712571
0.713148
0.713397
0.713564
0.713666
0.713785
0.713678
0.713011
0.712163
0.711624
0.711401
0.711742
0.71273
0.712934
0.712668
0.712284
0.71225
0.712279
0.712275
0.712279
0.712313
0.712462
0.71263
0.712646
0.712649
0.712733
0.712783
0.712761
0.712741
0.712738
0.712696
0.712609
0.712459
0.712274
0.71211
0.712037
0.712041
0.712002
0.711954
0.712459
0.716458
0.728497
0.767282
0.820265
0.87959
0.936805
0.950873
0.973281
0.986199
0.700811
0.700463
0.699885
0.699782
0.699608
0.698693
0.697426
0.697208
0.697297
0.69735
0.697158
0.69698
0.697004
0.697249
0.697728
0.698301
0.699671
0.70143
0.701571
0.701443
0.70228
0.704522
0.704863
0.704867
0.704961
0.705693
0.706496
0.706526
0.706404
0.706445
0.70653
0.706684
0.707182
0.708232
0.708957
0.709037
0.709233
0.70978
0.709915
0.709768
0.709286
0.709306
0.710062
0.710489
0.710387
0.710211
0.710412
0.710935
0.710841
0.710585
0.710643
0.710874
0.711326
0.712191
0.712843
0.713181
0.713399
0.713321
0.712499
0.71074
0.709717
0.709778
0.71054
0.711804
0.712254
0.712026
0.711815
0.711863
0.712092
0.712175
0.712208
0.712246
0.712456
0.712721
0.712757
0.712728
0.712697
0.712694
0.712649
0.712632
0.712772
0.713029
0.713058
0.713028
0.712925
0.712751
0.712538
0.712306
0.712071
0.711881
0.711818
0.71193
0.712965
0.719237
0.737433
0.784843
0.843823
0.912984
0.965101
0.983231
0.704197
0.703754
0.703416
0.703177
0.702873
0.702648
0.702285
0.70163
0.70105
0.700488
0.699907
0.699793
0.69986
0.700006
0.700808
0.702664
0.703424
0.70333
0.702574
0.702121
0.702149
0.702992
0.703882
0.703973
0.704237
0.70475
0.704668
0.704424
0.704643
0.704694
0.704438
0.704214
0.704242
0.704452
0.704385
0.704103
0.704208
0.704163
0.703573
0.702667
0.702461
0.702795
0.704724
0.706184
0.706449
0.706693
0.706997
0.707185
0.7067
0.704584
0.703519
0.703467
0.703546
0.704261
0.706229
0.708821
0.71064
0.710861
0.710274
0.709215
0.708886
0.709186
0.71007
0.710821
0.711267
0.711541
0.711642
0.712024
0.712274
0.71227
0.712141
0.71215
0.71238
0.712656
0.712681
0.712659
0.712555
0.712438
0.712299
0.712333
0.712643
0.71313
0.713357
0.713372
0.713286
0.713162
0.712963
0.712725
0.712466
0.712211
0.712107
0.712149
0.712228
0.712596
0.714791
0.724021
0.750537
0.806493
0.863706
0.932692
0.708748
0.708523
0.708484
0.708477
0.708455
0.708561
0.708983
0.708981
0.708733
0.707834
0.705534
0.704573
0.704528
0.704371
0.704073
0.703554
0.703165
0.702836
0.701455
0.699621
0.699419
0.69967
0.699752
0.699499
0.698766
0.698782
0.69968
0.701231
0.70279
0.703827
0.704094
0.703879
0.703553
0.703453
0.703161
0.702018
0.700437
0.69807
0.694908
0.693752
0.693852
0.69498
0.698491
0.701922
0.70267
0.703152
0.703834
0.704311
0.703967
0.702114
0.699364
0.697428
0.696825
0.697512
0.69993
0.703501
0.70653
0.707174
0.706444
0.705979
0.706101
0.706699
0.707496
0.707965
0.708187
0.708495
0.709659
0.711059
0.711302
0.711228
0.710813
0.710747
0.711127
0.711729
0.711925
0.71191
0.711739
0.711667
0.711694
0.711974
0.71265
0.713251
0.713439
0.71342
0.713227
0.712834
0.712454
0.712439
0.71252
0.7129
0.712884
0.712806
0.712753
0.712779
0.712798
0.713294
0.716834
0.73184
0.765557
0.858982
0.709925
0.709895
0.709853
0.709889
0.710709
0.711329
0.711257
0.711256
0.711708
0.712526
0.712233
0.711144
0.710957
0.711861
0.711686
0.708514
0.705862
0.705357
0.704917
0.704365
0.703889
0.703683
0.703593
0.702712
0.701441
0.701386
0.701832
0.703851
0.708181
0.711426
0.711703
0.71092
0.70857
0.706703
0.705369
0.703323
0.701459
0.698873
0.695672
0.69479
0.695044
0.696562
0.700056
0.704104
0.705582
0.705693
0.706073
0.70727
0.708613
0.708221
0.706031
0.702962
0.700808
0.700689
0.701945
0.704461
0.706271
0.706035
0.704147
0.703356
0.703619
0.704678
0.705218
0.705109
0.704252
0.703486
0.703478
0.704094
0.704895
0.705277
0.705516
0.705946
0.70702
0.708555
0.709943
0.710745
0.711315
0.711548
0.711738
0.712117
0.712675
0.713207
0.71319
0.712874
0.71203
0.711876
0.711955
0.712239
0.712868
0.71331
0.713333
0.713268
0.713184
0.712988
0.712573
0.712656
0.712807
0.714122
0.719971
0.767252
0.740434
0.740026
0.739991
0.740297
0.740579
0.741392
0.743677
0.74509
0.745203
0.74397
0.73945
0.738422
0.738525
0.736305
0.730909
0.729626
0.729764
0.730966
0.731338
0.732003
0.732244
0.731041
0.730584
0.730365
0.728122
0.723128
0.721976
0.722616
0.726024
0.728613
0.729567
0.72999
0.729858
0.729902
0.729751
0.728294
0.725121
0.721804
0.719837
0.717864
0.714843
0.712797
0.712809
0.714012
0.714321
0.713985
0.713268
0.713384
0.714391
0.715377
0.714884
0.711695
0.70799
0.707164
0.707537
0.707921
0.707497
0.70589
0.703611
0.700741
0.699708
0.699833
0.701111
0.703004
0.703221
0.702593
0.700999
0.700489
0.700773
0.701523
0.702252
0.702894
0.703891
0.70527
0.706421
0.707177
0.707895
0.708687
0.7091
0.70937
0.709573
0.710058
0.71047
0.710723
0.710879
0.711467
0.712193
0.712819
0.71315
0.713249
0.713238
0.713092
0.712658
0.712238
0.712354
0.712536
0.71283
0.71294
0.713204
0.724752
0.792627
0.791696
0.790425
0.790233
0.790496
0.790789
0.790765
0.790978
0.790694
0.786722
0.784928
0.785611
0.784865
0.780059
0.779068
0.778726
0.776758
0.774047
0.772052
0.771259
0.770449
0.768131
0.765035
0.761662
0.757149
0.750623
0.745227
0.744044
0.744389
0.744642
0.744446
0.744819
0.746851
0.748593
0.74973
0.748354
0.746637
0.746614
0.747058
0.746699
0.744585
0.741012
0.737152
0.733529
0.730495
0.729091
0.728054
0.725964
0.721914
0.718704
0.718181
0.716688
0.714085
0.713837
0.71562
0.718185
0.718222
0.716343
0.711609
0.705107
0.702615
0.702707
0.703857
0.706636
0.708332
0.707821
0.705896
0.704838
0.705299
0.706516
0.707137
0.70702
0.707114
0.707249
0.706923
0.706356
0.706096
0.705764
0.705407
0.705464
0.705771
0.706529
0.707757
0.709097
0.710334
0.71112
0.71197
0.712599
0.712796
0.7126
0.712309
0.711822
0.711671
0.711769
0.712274
0.712992
0.713334
0.713354
0.7133
0.714499
0.846271
0.846216
0.844642
0.842946
0.842986
0.843169
0.84178
0.838217
0.835677
0.834808
0.835024
0.834827
0.83455
0.834514
0.83478
0.835307
0.834872
0.833316
0.831308
0.830229
0.830137
0.830019
0.829454
0.827185
0.821809
0.820328
0.820523
0.819642
0.816679
0.811782
0.808647
0.808667
0.808766
0.807354
0.803801
0.800517
0.796298
0.78861
0.78536
0.784684
0.781872
0.778427
0.778147
0.777004
0.776831
0.777706
0.777782
0.776507
0.771999
0.766804
0.760987
0.750722
0.742859
0.741895
0.744441
0.747682
0.747553
0.74653
0.744278
0.738006
0.730203
0.725327
0.724133
0.724641
0.725098
0.724019
0.719821
0.714766
0.713456
0.713172
0.711933
0.709319
0.70725
0.706128
0.704883
0.704046
0.704088
0.703983
0.703741
0.703815
0.704133
0.704919
0.706158
0.707154
0.707982
0.708247
0.708742
0.709213
0.709141
0.709053
0.709244
0.709806
0.710884
0.711665
0.712848
0.713316
0.713298
0.713208
0.712877
0.712682
0.920523
0.920582
0.919073
0.914096
0.912147
0.912045
0.912272
0.91299
0.912469
0.908885
0.906136
0.905255
0.903543
0.902528
0.902732
0.901373
0.897375
0.895809
0.894804
0.89332
0.888702
0.883135
0.882614
0.882752
0.88151
0.880518
0.880037
0.878559
0.874927
0.868923
0.867148
0.867164
0.866314
0.863874
0.863419
0.864315
0.86423
0.860816
0.854849
0.851111
0.847509
0.842595
0.836156
0.826012
0.817312
0.816317
0.815866
0.81224
0.80795
0.808965
0.8097
0.807134
0.801632
0.797723
0.792284
0.78146
0.770324
0.76858
0.76912
0.766798
0.760801
0.757421
0.753114
0.746863
0.741677
0.73759
0.734035
0.729251
0.724177
0.721347
0.719598
0.716511
0.712228
0.709861
0.709691
0.708657
0.707909
0.70808
0.709165
0.710141
0.710336
0.710887
0.710794
0.710335
0.70932
0.708075
0.707183
0.706539
0.706399
0.706466
0.706812
0.707885
0.709291
0.711214
0.712683
0.713047
0.71283
0.712335
0.711734
0.712029
0.992905
0.992934
0.991828
0.987939
0.98621
0.986408
0.987103
0.986886
0.984209
0.979619
0.978772
0.979404
0.979394
0.978918
0.978266
0.975581
0.97204
0.971811
0.972515
0.97119
0.966216
0.963592
0.962049
0.96033
0.958729
0.955307
0.952875
0.951784
0.950169
0.946152
0.939794
0.936322
0.934974
0.933426
0.930564
0.927389
0.924441
0.918208
0.913858
0.91403
0.91392
0.911678
0.906519
0.899849
0.894658
0.890939
0.888047
0.884652
0.877469
0.869047
0.864108
0.859402
0.856579
0.854691
0.851182
0.845055
0.837563
0.832919
0.829528
0.821064
0.812547
0.810417
0.807751
0.803923
0.797852
0.787257
0.779764
0.777711
0.775352
0.76962
0.763416
0.758294
0.752058
0.745092
0.740862
0.736415
0.731298
0.726284
0.722609
0.719474
0.71606
0.712886
0.710568
0.708233
0.707054
0.706333
0.70591
0.705647
0.705783
0.706735
0.708271
0.70979
0.710121
0.710064
0.709767
0.709598
0.709559
0.709735
0.710379
0.711943
1.07544
1.07445
1.07134
1.06712
1.06594
1.06611
1.06774
1.06836
1.06776
1.06541
1.06021
1.05819
1.05838
1.05834
1.05771
1.05432
1.04983
1.04943
1.04931
1.04876
1.04623
1.04121
1.03982
1.03934
1.03843
1.03634
1.03292
1.02988
1.02628
1.02258
1.01928
1.01598
1.01307
1.01086
1.00842
1.00524
1.00203
0.998259
0.993957
0.988844
0.984482
0.980952
0.977232
0.968705
0.959972
0.957954
0.957006
0.955266
0.950773
0.944046
0.938459
0.933569
0.929208
0.922145
0.910215
0.902763
0.897998
0.893776
0.889709
0.884672
0.87938
0.869488
0.854152
0.849498
0.847126
0.84347
0.835338
0.822911
0.813624
0.807975
0.801841
0.79369
0.784463
0.776465
0.768811
0.761539
0.753531
0.745551
0.738218
0.731903
0.726188
0.720226
0.716617
0.713031
0.712047
0.711064
0.711361
0.711796
0.712339
0.713503
0.713202
0.712418
0.711065
0.709368
0.708547
0.708183
0.708146
0.708387
0.709104
0.711542
1.1642