/*--------------------------------*- C++ -*----------------------------------*\
  =========                 |
  \\      /  F ield         | OpenFOAM: The Open Source CFD Toolbox
   \\    /   O peration     | Website:  https://openfoam.org
    \\  /    A nd           | Version:  7
     \\/     M anipulation  |
\*---------------------------------------------------------------------------*/
FoamFile
{
    version     2.0;
    format      ascii;
    class       volScalarField;
    location    "3";
    object      rho;
}
// * * * * * * * * * * * * * * * * * * * * * * * * * * * * * * * * * * * * * //

dimensions      [1 -3 0 0 0 0 0];

internalField   nonuniform List<scalar> 
90000
(
1.04717
1.05031
1.05388
1.05797
1.06218
1.06678
1.07126
1.0761
1.08078
1.08584
1.09065
1.09571
1.10047
1.10543
1.11006
1.1149
1.11934
1.12413
1.12858
1.13399
1.14068
1.14959
1.15997
1.17215
1.18449
1.19764
1.21007
1.2228
1.23456
1.24638
1.25729
1.26781
1.27735
1.28617
1.29378
1.30111
1.30552
1.31105
1.31427
1.31536
1.31553
1.31713
1.32136
1.32138
1.31914
1.3092
1.29686
1.28704
1.28094
1.27736
1.27806
1.28091
1.28575
1.29156
1.29734
1.30221
1.30598
1.30758
1.3086
1.30928
1.30798
1.30497
1.30009
1.29567
1.29338
1.29293
1.29446
1.29924
1.30123
1.3044
1.30861
1.30928
1.30731
1.30351
1.299
1.2971
1.29803
1.30064
1.30459
1.3058
1.30572
1.30413
1.30336
1.30369
1.30573
1.30969
1.30963
1.30944
1.30777
1.30746
1.30785
1.30898
1.30898
1.30839
1.30841
1.30891
1.31061
1.31053
1.30971
1.30888
1.04596
1.04627
1.04682
1.04763
1.04864
1.05015
1.05199
1.05423
1.05679
1.05974
1.06303
1.06666
1.07066
1.07498
1.07951
1.08425
1.08921
1.09436
1.09998
1.10561
1.11124
1.11708
1.12361
1.13086
1.13885
1.14767
1.15715
1.16769
1.17851
1.19041
1.20235
1.21497
1.22733
1.24009
1.25222
1.26467
1.27599
1.287
1.29647
1.30627
1.31241
1.31743
1.32243
1.32342
1.32423
1.32474
1.32808
1.32932
1.32789
1.32292
1.3158
1.30848
1.30355
1.3005
1.30092
1.30247
1.30478
1.3077
1.31066
1.31442
1.31816
1.32133
1.321
1.31822
1.31368
1.30897
1.30683
1.30514
1.30651
1.30945
1.31168
1.31442
1.31726
1.31588
1.31359
1.30978
1.30726
1.30697
1.30801
1.31093
1.3144
1.31438
1.31289
1.311
1.31144
1.31367
1.31645
1.31725
1.31651
1.31491
1.31437
1.31484
1.31521
1.31496
1.31455
1.31464
1.31559
1.31658
1.31648
1.31542
1.04976
1.04976
1.04979
1.04985
1.05
1.0501
1.05017
1.05023
1.05033
1.05049
1.05072
1.05099
1.05135
1.05187
1.05255
1.0533
1.05414
1.05543
1.05715
1.05929
1.06172
1.06439
1.06736
1.07075
1.0745
1.07869
1.08336
1.08886
1.09495
1.10241
1.11031
1.12018
1.13047
1.14281
1.15603
1.17072
1.18673
1.20336
1.22069
1.23891
1.25653
1.27374
1.28893
1.30156
1.31441
1.32277
1.32909
1.33103
1.3331
1.33341
1.33388
1.33721
1.33734
1.33574
1.33217
1.32787
1.32416
1.32111
1.3213
1.32243
1.32439
1.32702
1.32929
1.33125
1.33083
1.3294
1.32626
1.32233
1.31945
1.31674
1.31739
1.31948
1.32328
1.32804
1.33063
1.32857
1.32348
1.31886
1.318
1.31931
1.3222
1.32568
1.32569
1.32402
1.32212
1.32259
1.32476
1.32678
1.32666
1.32488
1.32314
1.32318
1.32344
1.32362
1.32337
1.32313
1.32356
1.32419
1.324
1.32303
1.05394
1.05396
1.05395
1.05395
1.05394
1.05392
1.05392
1.05393
1.05394
1.05396
1.05399
1.05403
1.05408
1.05416
1.05431
1.05452
1.05484
1.05496
1.05511
1.05531
1.05559
1.05596
1.05641
1.05688
1.05738
1.05793
1.05857
1.05938
1.0604
1.06171
1.06378
1.06651
1.06987
1.07414
1.07947
1.08608
1.09452
1.10393
1.11664
1.1301
1.14773
1.16605
1.18746
1.20997
1.23361
1.25587
1.27861
1.29534
1.31066
1.32387
1.3323
1.33704
1.3376
1.33819
1.33859
1.3381
1.33675
1.33573
1.33487
1.33436
1.33402
1.33452
1.33582
1.33748
1.33901
1.33934
1.338
1.33603
1.33245
1.32881
1.32561
1.32598
1.32796
1.33118
1.33421
1.33631
1.33717
1.33546
1.33199
1.32898
1.32852
1.33012
1.33205
1.33411
1.33336
1.33162
1.33097
1.33218
1.33381
1.33466
1.33352
1.33185
1.33145
1.33159
1.33146
1.33099
1.33105
1.33147
1.33172
1.33105
1.05825
1.05829
1.05835
1.05842
1.05849
1.05854
1.05864
1.05872
1.05874
1.05877
1.0588
1.05889
1.05902
1.05907
1.05909
1.0591
1.05919
1.05923
1.05924
1.0593
1.0595
1.05982
1.06014
1.06042
1.06068
1.06096
1.06125
1.06165
1.06215
1.06296
1.06311
1.06323
1.06344
1.06373
1.0641
1.06458
1.06527
1.06626
1.06825
1.07114
1.07556
1.08156
1.08978
1.10181
1.1155
1.13559
1.15606
1.18183
1.20818
1.23573
1.26016
1.2849
1.29949
1.31359
1.32701
1.32997
1.33572
1.33601
1.33602
1.3367
1.33877
1.33989
1.34124
1.34224
1.34222
1.34124
1.33913
1.33866
1.33893
1.33961
1.33842
1.33637
1.33435
1.33349
1.33386
1.33594
1.33757
1.33981
1.34164
1.34024
1.33723
1.33442
1.3349
1.33656
1.3385
1.33898
1.33815
1.3367
1.3372
1.33852
1.33844
1.33744
1.33644
1.33658
1.33689
1.33656
1.33599
1.336
1.33634
1.33609
1.06215
1.06225
1.06237
1.0625
1.06256
1.06255
1.06253
1.06255
1.06268
1.06294
1.06311
1.06322
1.06333
1.06335
1.06335
1.06335
1.06342
1.06363
1.0637
1.06375
1.06381
1.06391
1.06411
1.06422
1.06421
1.06415
1.06417
1.0644
1.06468
1.06479
1.06487
1.06502
1.06527
1.06555
1.06581
1.06602
1.0662
1.06651
1.06637
1.06627
1.06631
1.06648
1.06688
1.06783
1.06955
1.07286
1.07785
1.08635
1.09799
1.11445
1.13714
1.16158
1.19258
1.22187
1.25219
1.27602
1.29946
1.31412
1.32337
1.33212
1.33826
1.33902
1.34006
1.34139
1.34083
1.33654
1.33497
1.33612
1.3394
1.34253
1.3425
1.34182
1.3401
1.33692
1.33475
1.33528
1.33672
1.33986
1.34183
1.34182
1.34135
1.33972
1.3379
1.338
1.33839
1.33889
1.33917
1.33947
1.33987
1.3405
1.34106
1.34064
1.33976
1.33892
1.33909
1.33938
1.33903
1.33869
1.33886
1.33897
1.06448
1.06457
1.06467
1.06475
1.0649
1.06503
1.06507
1.06522
1.06544
1.06546
1.06546
1.0655
1.0656
1.06572
1.06582
1.0659
1.06601
1.06625
1.06638
1.0664
1.06641
1.06646
1.06657
1.06671
1.06682
1.06689
1.06704
1.06724
1.06726
1.06722
1.06721
1.0673
1.06752
1.06763
1.06767
1.06768
1.06764
1.06753
1.06736
1.06722
1.06716
1.06714
1.06718
1.06714
1.06713
1.06718
1.06737
1.06777
1.06856
1.07027
1.07393
1.08012
1.09128
1.10714
1.1276
1.15748
1.18616
1.2179
1.24986
1.2735
1.29779
1.30927
1.31435
1.32277
1.32973
1.33167
1.3351
1.33897
1.34202
1.34264
1.34215
1.33988
1.33764
1.33745
1.33786
1.33836
1.33888
1.33928
1.33986
1.34046
1.34091
1.34192
1.3414
1.34014
1.3386
1.33858
1.33881
1.33937
1.34004
1.34048
1.34088
1.34126
1.34117
1.34061
1.34001
1.33982
1.33977
1.33957
1.33951
1.33961
1.06578
1.06583
1.06591
1.06596
1.06605
1.06615
1.0662
1.06624
1.0663
1.06631
1.0663
1.06632
1.06644
1.06653
1.06654
1.06656
1.06668
1.06684
1.06686
1.06684
1.06681
1.06681
1.06685
1.06685
1.06685
1.06693
1.06709
1.06717
1.06715
1.06713
1.06714
1.06725
1.06746
1.06757
1.06761
1.06761
1.06756
1.06747
1.06742
1.0674
1.06738
1.06736
1.06733
1.06727
1.06718
1.06709
1.06695
1.06664
1.06609
1.06586
1.06588
1.06614
1.06691
1.06867
1.07193
1.0782
1.08866
1.1062
1.12978
1.15862
1.1915
1.23076
1.26226
1.28256
1.30716
1.32628
1.33259
1.3353
1.3393
1.33881
1.33296
1.33219
1.33402
1.33805
1.34123
1.34083
1.34012
1.33809
1.33644
1.33731
1.33938
1.34184
1.34176
1.34119
1.33978
1.33852
1.3386
1.33914
1.3397
1.34012
1.34041
1.34098
1.34132
1.34115
1.3406
1.33995
1.34007
1.33996
1.33986
1.34
1.06634
1.06634
1.06635
1.06636
1.06636
1.06632
1.06623
1.06615
1.06609
1.06606
1.06605
1.06605
1.06606
1.06607
1.06607
1.06609
1.0662
1.06636
1.0664
1.0664
1.0664
1.0664
1.0664
1.0664
1.06642
1.06652
1.06666
1.06666
1.06665
1.06665
1.06668
1.06683
1.06701
1.06711
1.06718
1.06716
1.06704
1.06695
1.06694
1.06693
1.06689
1.06682
1.06675
1.06661
1.06638
1.0661
1.0658
1.06533
1.0646
1.06409
1.064
1.06397
1.06399
1.06411
1.06435
1.06469
1.06537
1.06702
1.07033
1.07844
1.09125
1.11243
1.14432
1.18178
1.21295
1.2483
1.28062
1.29531
1.3081
1.31687
1.32233
1.33102
1.33806
1.34226
1.34229
1.3407
1.33683
1.33511
1.33569
1.33795
1.34064
1.34143
1.34082
1.33965
1.339
1.33891
1.33913
1.3392
1.33914
1.33927
1.33969
1.34038
1.34091
1.34101
1.34077
1.34036
1.34021
1.3399
1.33983
1.34002
1.06629
1.06628
1.06626
1.06623
1.06615
1.06597
1.06584
1.06582
1.06583
1.06587
1.06587
1.06585
1.06578
1.06572
1.06572
1.06574
1.06579
1.06581
1.06581
1.06581
1.06579
1.06578
1.06579
1.06582
1.06587
1.06588
1.06584
1.06565
1.06542
1.06539
1.06541
1.06546
1.06551
1.06551
1.06541
1.06503
1.06478
1.06476
1.06484
1.06489
1.06488
1.06483
1.06475
1.06463
1.06456
1.06449
1.06434
1.06394
1.06331
1.06295
1.06293
1.06291
1.06286
1.06291
1.06306
1.06309
1.06303
1.06307
1.06326
1.06378
1.06504
1.06807
1.07436
1.08765
1.10815
1.13846
1.17433
1.21818
1.25249
1.28574
1.31509
1.32875
1.33429
1.33946
1.33777
1.32984
1.33045
1.33343
1.33795
1.341
1.34084
1.33969
1.3372
1.33766
1.33855
1.33987
1.33976
1.33937
1.3386
1.33872
1.33913
1.33968
1.34015
1.34059
1.34066
1.34066
1.34038
1.33987
1.33981
1.34005
1.06598
1.06595
1.0659
1.06582
1.06558
1.06548
1.06549
1.06547
1.06546
1.06548
1.06551
1.06551
1.06548
1.06544
1.06542
1.0654
1.06536
1.06527
1.06515
1.06504
1.06495
1.06486
1.06478
1.06472
1.06467
1.06462
1.06447
1.0642
1.06398
1.06383
1.0637
1.0636
1.06352
1.06335
1.06285
1.0624
1.06235
1.06237
1.06251
1.0627
1.06273
1.06272
1.06273
1.06279
1.06293
1.06297
1.06289
1.06251
1.06215
1.06204
1.06205
1.06207
1.06204
1.06202
1.06208
1.06214
1.06218
1.06225
1.06243
1.06276
1.06299
1.06311
1.06341
1.06445
1.06744
1.07368
1.08705
1.10841
1.14115
1.17881
1.22221
1.26076
1.28542
1.30411
1.31415
1.32168
1.33346
1.34125
1.34192
1.34149
1.33772
1.33504
1.33527
1.33711
1.34024
1.34068
1.34009
1.33892
1.33839
1.33882
1.33963
1.3397
1.33954
1.33974
1.34033
1.34087
1.34068
1.34044
1.34028
1.34042
1.06519
1.06489
1.06474
1.06471
1.06471
1.06471
1.06477
1.06484
1.06485
1.06483
1.06479
1.06474
1.06471
1.0647
1.06469
1.06466
1.06463
1.06456
1.06445
1.06433
1.06418
1.06388
1.06361
1.06361
1.06365
1.06363
1.06349
1.06322
1.06304
1.06283
1.06256
1.06232
1.06208
1.06163
1.06094
1.06067
1.06065
1.06065
1.06072
1.06094
1.06118
1.06121
1.06124
1.06138
1.06148
1.06146
1.06129
1.0611
1.06114
1.06123
1.06128
1.06137
1.06141
1.06136
1.06133
1.06139
1.06152
1.06173
1.06209
1.06266
1.06326
1.06352
1.06367
1.06366
1.06378
1.0643
1.06572
1.06873
1.07577
1.08982
1.1154
1.15115
1.19881
1.2391
1.28251
1.31467
1.33091
1.3377
1.33917
1.33331
1.32985
1.33228
1.33714
1.34077
1.3411
1.34042
1.33826
1.33838
1.33919
1.34018
1.3399
1.33932
1.3392
1.33936
1.34001
1.34097
1.34088
1.34085
1.34097
1.34092
1.06419
1.06418
1.06418
1.0642
1.06424
1.06425
1.06426
1.06427
1.06428
1.06427
1.06422
1.06413
1.06404
1.06397
1.06387
1.06374
1.06371
1.06372
1.06374
1.06372
1.0636
1.06334
1.06307
1.06291
1.0629
1.06289
1.06287
1.06273
1.06251
1.06222
1.0619
1.06154
1.06109
1.0605
1.06006
1.05998
1.05999
1.05999
1.05999
1.06004
1.06026
1.06036
1.06038
1.06049
1.06058
1.06058
1.06044
1.06034
1.06038
1.06049
1.06056
1.0607
1.06084
1.06078
1.06063
1.0606
1.06068
1.06102
1.06166
1.06249
1.06329
1.06367
1.06376
1.06383
1.06408
1.06447
1.06457
1.06467
1.06495
1.06619
1.06968
1.07979
1.09767
1.1301
1.17101
1.21729
1.26102
1.28654
1.30876
1.31589
1.33099
1.3388
1.34245
1.34213
1.33881
1.33684
1.33759
1.33992
1.34177
1.34148
1.34022
1.33908
1.33916
1.33992
1.34054
1.341
1.34123
1.34185
1.3422
1.34177
1.06266
1.06266
1.06268
1.06272
1.06276
1.06283
1.06295
1.06301
1.06302
1.06304
1.06306
1.06303
1.06292
1.06282
1.0628
1.0628
1.06284
1.06291
1.06292
1.06288
1.06272
1.06266
1.06265
1.06259
1.06258
1.06262
1.06264
1.06261
1.06244
1.06215
1.06183
1.06146
1.06099
1.06047
1.06015
1.06008
1.06011
1.06014
1.06014
1.06016
1.06031
1.06042
1.06045
1.06049
1.06054
1.06054
1.06043
1.06032
1.06036
1.06072
1.06094
1.06094
1.06082
1.06062
1.06046
1.06043
1.06051
1.06085
1.06143
1.06213
1.06301
1.0636
1.06364
1.06373
1.06405
1.0644
1.06443
1.06438
1.06419
1.06412
1.06426
1.06505
1.06732
1.0738
1.08647
1.11435
1.15258
1.2035
1.2535
1.29651
1.32692
1.33528
1.34034
1.33597
1.32954
1.33323
1.33982
1.34282
1.34252
1.3408
1.33919
1.33925
1.34028
1.34108
1.34083
1.34096
1.34174
1.34316
1.34315
1.34245
1.06239
1.06238
1.06238
1.06239
1.06242
1.06246
1.06256
1.06269
1.06277
1.06283
1.06294
1.06299
1.06294
1.06288
1.06283
1.06276
1.06275
1.06277
1.06285
1.06287
1.06283
1.06283
1.06287
1.06283
1.06276
1.06274
1.06277
1.06283
1.06279
1.06253
1.06217
1.06185
1.06157
1.06143
1.06139
1.06134
1.0613
1.06129
1.0612
1.06106
1.06104
1.06111
1.06106
1.06085
1.0608
1.0608
1.0608
1.06076
1.0609
1.06146
1.06195
1.06225
1.06234
1.06228
1.06207
1.06181
1.06169
1.06177
1.06216
1.06268
1.06306
1.06346
1.06377
1.06383
1.06399
1.06413
1.06415
1.06409
1.06382
1.06367
1.06371
1.06394
1.06431
1.06479
1.066
1.06997
1.08025
1.10395
1.14017
1.19138
1.23938
1.27598
1.30487
1.31587
1.32925
1.34299
1.34378
1.34288
1.33931
1.33844
1.3394
1.34175
1.34238
1.34186
1.34116
1.34142
1.3428
1.34416
1.34398
1.34307
1.06254
1.06254
1.06254
1.06263
1.06272
1.06273
1.06273
1.06277
1.06289
1.063
1.06309
1.06317
1.06316
1.06304
1.06295
1.06294
1.06291
1.06288
1.06288
1.0631
1.06324
1.06327
1.06331
1.06331
1.06327
1.06324
1.06329
1.06345
1.06347
1.0633
1.06316
1.06308
1.06298
1.06301
1.06314
1.06318
1.06317
1.06327
1.06333
1.06333
1.06332
1.06327
1.06306
1.06278
1.06244
1.06205
1.06185
1.06183
1.06197
1.06254
1.06335
1.06376
1.06383
1.06377
1.06356
1.06311
1.06287
1.06294
1.0632
1.06333
1.06335
1.06346
1.06367
1.06376
1.06381
1.0639
1.06396
1.06391
1.06356
1.06332
1.06335
1.06357
1.0638
1.06385
1.06389
1.06405
1.06497
1.06832
1.07696
1.09812
1.13233
1.18512
1.23692
1.29004
1.3251
1.33867
1.34133
1.33181
1.3322
1.33611
1.34224
1.34363
1.343
1.34096
1.34127
1.3429
1.34433
1.34435
1.3438
1.34344
1.06242
1.06242
1.06245
1.06251
1.06253
1.06253
1.06254
1.06253
1.06253
1.06263
1.06292
1.06333
1.06348
1.06342
1.06331
1.06331
1.06333
1.06324
1.06315
1.06319
1.06334
1.06339
1.06341
1.06341
1.06337
1.06334
1.0634
1.06365
1.06378
1.06373
1.06369
1.06369
1.06375
1.06405
1.06426
1.06435
1.06455
1.06497
1.06528
1.06531
1.06528
1.06504
1.06493
1.06489
1.06453
1.0638
1.06327
1.06319
1.06341
1.06441
1.06483
1.06493
1.06515
1.06524
1.06502
1.06445
1.06426
1.06433
1.06442
1.06442
1.06424
1.06405
1.06404
1.064
1.06385
1.06386
1.06394
1.06403
1.06391
1.06359
1.06357
1.06379
1.06421
1.06439
1.06439
1.06439
1.06449
1.06489
1.06576
1.06807
1.07548
1.09321
1.12833
1.17989
1.233
1.27624
1.30515
1.31618
1.3329
1.34382
1.34467
1.34322
1.33998
1.34051
1.34337
1.34553
1.34533
1.34391
1.34341
1.3442
1.06284
1.06281
1.06281
1.06283
1.06284
1.06284
1.06284
1.06284
1.06281
1.06265
1.06261
1.06279
1.06323
1.0633
1.06332
1.06335
1.06327
1.06302
1.06296
1.063
1.06324
1.06334
1.06334
1.06336
1.06335
1.06333
1.06342
1.06363
1.06365
1.06363
1.06362
1.06365
1.06414
1.06483
1.06491
1.06501
1.06538
1.06595
1.06628
1.06632
1.06627
1.06618
1.06616
1.06596
1.06526
1.06482
1.06464
1.06465
1.06509
1.06573
1.06574
1.06577
1.066
1.06599
1.06569
1.06546
1.06528
1.06524
1.06534
1.06534
1.06509
1.06506
1.06509
1.06494
1.06453
1.06424
1.06433
1.0647
1.06474
1.0645
1.06431
1.06441
1.06469
1.06479
1.06471
1.06462
1.06464
1.0648
1.06505
1.06525
1.06572
1.06755
1.07428
1.09189
1.12816
1.18152
1.23813
1.29803
1.32753
1.34107
1.33978
1.33099
1.33465
1.34185
1.34657
1.34638
1.34443
1.34291
1.34371
1.34526
1.06404
1.06392
1.06386
1.06387
1.06391
1.064
1.06412
1.06417
1.06418
1.06408
1.06389
1.06391
1.06431
1.06478
1.06486
1.06484
1.06474
1.06455
1.0645
1.06455
1.06478
1.06493
1.06491
1.06478
1.06464
1.0646
1.0645
1.06429
1.06417
1.06415
1.06418
1.06434
1.06489
1.0653
1.06544
1.06577
1.06624
1.0663
1.0663
1.06644
1.06659
1.06663
1.06662
1.06629
1.06561
1.06541
1.06528
1.06528
1.06563
1.06611
1.06615
1.06627
1.06647
1.06635
1.06599
1.06592
1.06584
1.06575
1.06594
1.06622
1.06616
1.06604
1.06597
1.06576
1.06539
1.0653
1.06559
1.06619
1.06627
1.06605
1.06555
1.06537
1.06538
1.06534
1.06515
1.06494
1.06487
1.06492
1.06504
1.06527
1.06538
1.06547
1.06582
1.06762
1.07474
1.09246
1.13037
1.18542
1.24095
1.28476
1.31024
1.32046
1.34296
1.3466
1.34641
1.34338
1.34171
1.34304
1.34545
1.34628
1.06568
1.06566
1.0656
1.06559
1.06558
1.06567
1.06581
1.06589
1.06602
1.06605
1.06597
1.06593
1.06604
1.06614
1.06614
1.06608
1.06605
1.06604
1.06601
1.06601
1.06608
1.06615
1.06622
1.06628
1.06626
1.06601
1.06557
1.06547
1.06546
1.06546
1.06551
1.06572
1.06586
1.06594
1.06623
1.06646
1.06647
1.06629
1.0663
1.06647
1.06662
1.06667
1.06665
1.06648
1.06585
1.06548
1.06532
1.06524
1.06533
1.06537
1.06545
1.06599
1.0665
1.06642
1.06599
1.06589
1.06592
1.0658
1.06584
1.06626
1.06648
1.06651
1.06669
1.0667
1.0665
1.06639
1.06673
1.06722
1.0673
1.0672
1.06682
1.06637
1.06616
1.06601
1.06579
1.06554
1.06535
1.06534
1.0654
1.0655
1.06568
1.06582
1.06598
1.06609
1.06656
1.06853
1.07534
1.09566
1.13694
1.19228
1.26475
1.31012
1.33915
1.34172
1.33633
1.33536
1.33969
1.34604
1.34681
1.34633
1.06679
1.06678
1.0667
1.06662
1.06662
1.06664
1.06666
1.06681
1.06707
1.0672
1.06724
1.06718
1.06703
1.06694
1.06687
1.06673
1.06658
1.0666
1.06671
1.06677
1.06673
1.06668
1.0667
1.06687
1.06697
1.06685
1.06651
1.06637
1.06638
1.06652
1.06683
1.06689
1.06689
1.06693
1.06698
1.06698
1.06694
1.06673
1.06631
1.06597
1.06599
1.06619
1.06637
1.06631
1.06581
1.06514
1.06499
1.06511
1.06524
1.06519
1.06528
1.06608
1.06712
1.06713
1.06663
1.0663
1.06636
1.06636
1.06619
1.0664
1.06664
1.06666
1.06702
1.06749
1.06747
1.06728
1.0673
1.0676
1.0677
1.06765
1.06742
1.06706
1.06688
1.06679
1.06668
1.06648
1.06627
1.06618
1.06617
1.06617
1.06619
1.06625
1.06623
1.06622
1.06628
1.06638
1.06665
1.06884
1.07634
1.1021
1.14546
1.20587
1.27122
1.29436
1.31621
1.33183
1.34736
1.34802
1.34634
1.3448
1.06659
1.06656
1.06644
1.0661
1.06597
1.06597
1.06599
1.0661
1.06619
1.06617
1.06604
1.06573
1.06551
1.06542
1.06533
1.06529
1.06536
1.06569
1.06622
1.06643
1.06636
1.06615
1.0661
1.06623
1.06652
1.06654
1.06633
1.06613
1.06613
1.06627
1.06673
1.06699
1.06696
1.06669
1.06628
1.06581
1.06541
1.06542
1.06543
1.06507
1.06455
1.06456
1.06488
1.06522
1.06514
1.0649
1.0649
1.0653
1.06536
1.0653
1.0655
1.0667
1.06775
1.06788
1.06769
1.0676
1.06764
1.06753
1.0669
1.06669
1.06675
1.06663
1.06677
1.06748
1.06777
1.06753
1.06733
1.0673
1.06731
1.06731
1.06725
1.06713
1.06711
1.06712
1.0671
1.06709
1.06711
1.06716
1.06717
1.06712
1.06703
1.06693
1.06681
1.06665
1.06642
1.06646
1.06664
1.06674
1.06718
1.07024
1.07959
1.11255
1.15923
1.2252
1.29973
1.32508
1.34361
1.34074
1.33628
1.34121
1.06088
1.06072
1.06045
1.06002
1.05932
1.0587
1.05859
1.05859
1.05866
1.05867
1.05854
1.05845
1.05846
1.05856
1.05854
1.05854
1.05914
1.06077
1.06206
1.06297
1.06346
1.06331
1.06288
1.06282
1.06314
1.06397
1.06407
1.06411
1.06425
1.06449
1.06472
1.06496
1.06532
1.06549
1.06541
1.06512
1.06497
1.06515
1.06541
1.06539
1.06492
1.06481
1.06515
1.06535
1.06516
1.06504
1.06519
1.06569
1.06566
1.06559
1.06592
1.0671
1.0677
1.068
1.06821
1.06835
1.0685
1.06839
1.06769
1.06681
1.06623
1.066
1.06638
1.0675
1.06778
1.06752
1.06709
1.06703
1.06704
1.06704
1.06707
1.06714
1.06733
1.06752
1.06754
1.06753
1.06762
1.06768
1.06767
1.06767
1.0677
1.06768
1.06762
1.06748
1.06728
1.06711
1.06704
1.06705
1.06703
1.06702
1.06758
1.07185
1.08461
1.1251
1.1797
1.23968
1.29676
1.31056
1.33231
1.3447
1.05458
1.05419
1.05356
1.05343
1.05323
1.05223
1.05083
1.05059
1.05069
1.05075
1.05056
1.05038
1.05041
1.05068
1.05121
1.05185
1.05335
1.05532
1.05551
1.05539
1.05626
1.05871
1.05918
1.0592
1.05932
1.06013
1.06102
1.06106
1.06094
1.06098
1.06104
1.06116
1.06163
1.06272
1.06348
1.06355
1.06373
1.06428
1.06442
1.06427
1.06377
1.06379
1.0646
1.06518
1.06512
1.06499
1.06522
1.06576
1.06563
1.06529
1.06533
1.06555
1.06602
1.06699
1.06775
1.06814
1.06838
1.06829
1.0674
1.06551
1.06443
1.06451
1.06537
1.06683
1.06735
1.06709
1.06679
1.06682
1.06703
1.06714
1.0672
1.06725
1.0675
1.06779
1.06782
1.06778
1.06774
1.06774
1.06771
1.06771
1.06789
1.06821
1.06826
1.06825
1.06815
1.06797
1.06774
1.06749
1.06724
1.06704
1.06698
1.0671
1.06821
1.07488
1.09411
1.14343
1.20385
1.27308
1.32435
1.34185
1.05834
1.05785
1.05749
1.05724
1.05692
1.05668
1.05629
1.05557
1.05494
1.05433
1.05375
1.05367
1.05374
1.05391
1.05479
1.0568
1.05766
1.05757
1.05679
1.05635
1.05639
1.05733
1.05835
1.05849
1.0588
1.05937
1.05929
1.05908
1.05934
1.05935
1.059
1.05865
1.05861
1.05877
1.05869
1.0584
1.05852
1.05847
1.05786
1.05694
1.05674
1.05709
1.05911
1.06074
1.06111
1.06143
1.06176
1.06191
1.06134
1.05893
1.05782
1.05783
1.05793
1.05873
1.06091
1.06371
1.0656
1.0658
1.06514
1.064
1.06369
1.06404
1.06509
1.06601
1.06653
1.06678
1.06678
1.06707
1.06738
1.0674
1.06729
1.0673
1.06754
1.06784
1.06788
1.06785
1.06774
1.06762
1.0675
1.06754
1.0679
1.06844
1.06871
1.06871
1.06861
1.06847
1.06825
1.068
1.06772
1.06745
1.06734
1.06738
1.06747
1.06787
1.07022
1.08001
1.1079
1.16561
1.22406
1.29236
1.06345
1.0633
1.06331
1.06332
1.0633
1.06342
1.06387
1.06387
1.06361
1.06265
1.06018
1.0592
1.05917
1.05901
1.0587
1.05814
1.05771
1.05733
1.05577
1.05381
1.05364
1.05395
1.05408
1.05385
1.05308
1.05309
1.05403
1.05572
1.05753
1.05859
1.05871
1.05842
1.05798
1.05783
1.0575
1.05627
1.05458
1.05209
1.04877
1.04758
1.04769
1.04888
1.05258
1.05627
1.05713
1.05769
1.05843
1.05885
1.05845
1.05638
1.05338
1.05137
1.05078
1.05155
1.0542
1.05805
1.06123
1.06187
1.06105
1.0606
1.06076
1.06146
1.0624
1.063
1.06327
1.06358
1.06474
1.06619
1.06647
1.0664
1.06596
1.06589
1.0663
1.06695
1.06717
1.06714
1.06695
1.06688
1.06691
1.06723
1.06796
1.06862
1.06882
1.0688
1.06858
1.06815
1.06774
1.06772
1.06781
1.06822
1.0682
1.06812
1.06806
1.06809
1.06811
1.06865
1.07242
1.08825
1.12365
1.21814
1.06508
1.06508
1.06505
1.06509
1.06599
1.06667
1.0666
1.0666
1.06709
1.06797
1.06766
1.06647
1.06624
1.06719
1.06702
1.0637
1.06072
1.06
1.05939
1.05869
1.05818
1.05806
1.05805
1.05723
1.05585
1.05577
1.05625
1.05846
1.0632
1.06673
1.06701
1.06615
1.06355
1.06145
1.05995
1.05772
1.05575
1.05309
1.04978
1.04884
1.0491
1.05069
1.05435
1.05869
1.06035
1.06049
1.06089
1.0621
1.06342
1.06298
1.06063
1.05743
1.0552
1.05509
1.05645
1.05914
1.06101
1.06073
1.05865
1.05787
1.05819
1.0594
1.06007
1.05997
1.05909
1.0582
1.05817
1.0588
1.05965
1.06006
1.06031
1.06077
1.06192
1.06358
1.06507
1.06591
1.06651
1.06676
1.06697
1.06738
1.06799
1.06856
1.06855
1.06821
1.0673
1.06713
1.06722
1.06752
1.0682
1.06868
1.0687
1.06862
1.06853
1.06832
1.06787
1.06798
1.06815
1.06955
1.07578
1.12479
1.09737
1.09703
1.097
1.09733
1.09764
1.09852
1.10096
1.10251
1.10265
1.10136
1.09658
1.09547
1.09558
1.09327
1.08755
1.08607
1.08621
1.08747
1.08786
1.08859
1.08889
1.08766
1.08726
1.08707
1.0847
1.07945
1.07837
1.07909
1.08279
1.08543
1.08633
1.08667
1.08647
1.08644
1.08623
1.08459
1.08117
1.0777
1.07569
1.07364
1.07042
1.06813
1.06812
1.06943
1.06987
1.06954
1.06874
1.06881
1.06974
1.07075
1.07024
1.06693
1.06302
1.06213
1.06251
1.0629
1.06243
1.06067
1.05816
1.05505
1.05407
1.05424
1.05568
1.05775
1.05797
1.05727
1.0555
1.05493
1.05524
1.05604
1.0568
1.05748
1.05855
1.06003
1.06128
1.06208
1.06285
1.0637
1.06414
1.06443
1.06466
1.06519
1.06563
1.0659
1.06607
1.0667
1.06747
1.06814
1.0685
1.06861
1.0686
1.06844
1.06797
1.06752
1.06765
1.06786
1.06819
1.06832
1.06859
1.08079
1.15254
1.15158
1.15027
1.15007
1.15034
1.15064
1.15061
1.15083
1.15054
1.14644
1.14448
1.14513
1.14427
1.13912
1.13803
1.13765
1.13555
1.13268
1.13059
1.12978
1.12896
1.12659
1.12342
1.11995
1.11523
1.10833
1.10262
1.10139
1.10176
1.10204
1.10184
1.10223
1.10438
1.10624
1.10748
1.10606
1.10436
1.10437
1.10484
1.10444
1.10209
1.09808
1.09379
1.08993
1.08685
1.08544
1.08435
1.08208
1.07769
1.07431
1.07382
1.07231
1.06953
1.06922
1.07108
1.07381
1.07385
1.07184
1.06673
1.05969
1.05713
1.05726
1.05857
1.06161
1.0634
1.06281
1.06067
1.05955
1.06007
1.06141
1.06205
1.06191
1.062
1.06216
1.06181
1.0612
1.06093
1.06058
1.06019
1.06025
1.06058
1.0614
1.06273
1.06417
1.0655
1.06633
1.06724
1.06791
1.06813
1.06792
1.06762
1.0671
1.06695
1.06705
1.0676
1.06839
1.06877
1.06878
1.06872
1.07
1.20742
1.20737
1.20577
1.20403
1.20407
1.20424
1.20279
1.19911
1.19647
1.19566
1.19593
1.19578
1.19554
1.19552
1.19581
1.19639
1.19596
1.19441
1.19243
1.19136
1.19123
1.19107
1.19044
1.18806
1.18246
1.18089
1.1811
1.18024
1.17732
1.17242
1.16906
1.16902
1.16907
1.1675
1.16369
1.16025
1.15592
1.14804
1.14472
1.14402
1.14106
1.13745
1.13733
1.1363
1.13614
1.13704
1.13709
1.13568
1.13078
1.12513
1.11892
1.10819
1.10005
1.09909
1.10182
1.10539
1.1053
1.10422
1.10172
1.09489
1.08657
1.08157
1.08043
1.08099
1.08146
1.08025
1.07563
1.0702
1.06889
1.06861
1.06728
1.06442
1.06216
1.06096
1.05964
1.05873
1.05878
1.05867
1.0584
1.05848
1.05882
1.05966
1.06101
1.0621
1.063
1.06328
1.06382
1.06433
1.06426
1.06419
1.0644
1.065
1.06616
1.067
1.06825
1.06878
1.06877
1.06868
1.06831
1.06812
1.28213
1.28219
1.28065
1.27566
1.27377
1.27369
1.27392
1.27466
1.27414
1.27059
1.26789
1.26703
1.26534
1.2643
1.26449
1.26312
1.2591
1.25756
1.25658
1.2551
1.25047
1.2449
1.24441
1.24456
1.24332
1.24231
1.2418
1.24027
1.23659
1.23052
1.22876
1.2288
1.22797
1.22552
1.22506
1.22599
1.22592
1.22249
1.21641
1.21248
1.20869
1.20359
1.197
1.18668
1.17779
1.17677
1.17632
1.1726
1.16824
1.16932
1.17013
1.16752
1.16176
1.15755
1.15178
1.14053
1.12898
1.12717
1.12773
1.12532
1.11905
1.11544
1.11087
1.10431
1.09885
1.09453
1.09073
1.08562
1.08023
1.07724
1.07537
1.07206
1.06746
1.06491
1.06472
1.06362
1.06286
1.06305
1.06423
1.0653
1.06553
1.06614
1.06605
1.06557
1.06449
1.06318
1.06223
1.06154
1.06141
1.06148
1.06185
1.063
1.0645
1.06656
1.06813
1.06857
1.06835
1.06783
1.06719
1.0675
1.35352
1.35355
1.35249
1.3487
1.34698
1.34717
1.34783
1.34761
1.34497
1.34047
1.33965
1.34028
1.34028
1.33983
1.3392
1.3366
1.33315
1.33292
1.33362
1.33236
1.32754
1.3249
1.32328
1.32153
1.31995
1.31659
1.31423
1.31319
1.31162
1.30767
1.30139
1.29795
1.29663
1.29511
1.29229
1.28915
1.28619
1.27993
1.27561
1.2758
1.27571
1.27352
1.26843
1.26178
1.2565
1.25268
1.24971
1.24625
1.23899
1.23053
1.22559
1.22087
1.21802
1.21613
1.21263
1.20642
1.19868
1.19378
1.19021
1.18152
1.17288
1.17084
1.1682
1.16425
1.15783
1.14669
1.13899
1.13697
1.13454
1.12852
1.122
1.11665
1.1101
1.10273
1.09825
1.09354
1.08812
1.08278
1.07886
1.07552
1.07186
1.06846
1.06595
1.06342
1.06214
1.06137
1.06092
1.06064
1.06078
1.06181
1.06347
1.06511
1.06546
1.0654
1.0651
1.06494
1.06492
1.06511
1.0658
1.06747
1.43299
1.43204
1.42907
1.42507
1.42396
1.42413
1.42569
1.42629
1.42572
1.42348
1.41851
1.41657
1.41675
1.41672
1.41611
1.41287
1.40858
1.40822
1.40811
1.40759
1.40516
1.40034
1.39903
1.39858
1.39771
1.39571
1.39243
1.38948
1.38599
1.3824
1.37921
1.37601
1.3732
1.37107
1.36871
1.36561
1.36247
1.3588
1.35459
1.34961
1.34538
1.34194
1.3383
1.32994
1.32135
1.31939
1.31848
1.3168
1.31242
1.30581
1.30026
1.29539
1.29101
1.28393
1.27203
1.26461
1.25988
1.25568
1.25163
1.24659
1.2412
1.23111
1.21555
1.2109
1.20856
1.20484
1.1965
1.18376
1.17424
1.16843
1.16207
1.1536
1.14398
1.1356
1.12758
1.11997
1.11155
1.10313
1.09537
1.08868
1.08259
1.07623
1.07236
1.06851
1.06749
1.06648
1.06682
1.06731
1.0679
1.06916
1.06885
1.06802
1.06656
1.06472
1.06383
1.06346
1.06342
1.06368
1.06444
1.06704
1.51662
1.51611
1.51544
1.51422
1.51122
1.5071
1.50601
1.50667
1.50701
1.50637
1.50477
1.5007
1.49812
1.49799
1.49719
1.49523
1.49337
1.48969
1.48783
1.4874
1.4866
1.4834
1.47876
1.47637
1.47499
1.47301
1.47011
1.4668
1.46352
1.46054
1.45804
1.45544
1.45183
1.44773
1.44462
1.44134
1.43731
1.43371
1.43058
1.42702
1.4221
1.41741
1.41388
1.40971
1.40389
1.39772
1.39234
1.38719
1.38196
1.3761
1.37006
1.36491
1.36068
1.35553
1.34828
1.3408
1.33394
1.32692
1.31682
1.30837
1.30506
1.30006
1.29095
1.28269
1.27361
1.26592
1.25933
1.25156
1.23987
1.22862
1.22139
1.21463
1.20525
1.19656
1.18811
1.17983
1.17095
1.16239
1.15278
1.14386
1.13625
1.12746
1.11868
1.10936
1.10142
1.09345
1.08709
1.081
1.07582
1.0712
1.06791
1.06555
1.06432
1.06392
1.06394
1.06399
1.0648
1.0658
1.06624
1.06611
1.60463
1.60425
1.6023
1.60068
1.60067
1.60056
1.59832
1.59268
1.58984
1.59019
1.59137
1.59131
1.59016
1.58489
1.58195
1.58154
1.58105
1.57884
1.5743
1.57251
1.57198
1.57097
1.56634
1.56196
1.56046
1.55916
1.5567
1.55297
1.54899
1.54499
1.54194
1.53917
1.53593
1.53132
1.52705
1.52354
1.51911
1.51473
1.51127
1.50791
1.50406
1.49928
1.49354
1.48807
1.48324
1.47812
1.47247
1.4662
1.46029
1.45532
1.44977
1.4431
1.43634
1.42962
1.4214
1.41379
1.40776
1.40171
1.39404
1.38578
1.37799
1.36889
1.3579
1.35097
1.34404
1.33628
1.32549
1.31481
1.30557
1.29553
1.28552
1.27569
1.26514
1.25356
1.24335
1.23309
1.22161
1.21059
1.1998
1.18858
1.1767
1.16546
1.15387
1.14314
1.13171
1.12057
1.10876
1.09819
1.08898
1.07983
1.07502
1.07067
1.06977
1.07014
1.07121
1.07221
1.07175
1.07013
1.06845
1.06563
1.70103
1.69987
1.69627
1.69348
1.69357
1.69399
1.69291
1.69061
1.68882
1.68594
1.68219
1.68108
1.68166
1.68154
1.67995
1.67444
1.669
1.66828
1.66781
1.66638
1.6634
1.65968
1.65652
1.65423
1.65234
1.64942
1.64529
1.64138
1.63784
1.63442
1.63131
1.62833
1.62456
1.61929
1.61505
1.61173
1.60722
1.60189
1.59778
1.594
1.58924
1.58427
1.57923
1.573
1.56618
1.56023
1.55487
1.54905
1.54192
1.53537
1.52994
1.52337
1.51556
1.50855
1.50131
1.49333
1.48521
1.47735
1.46901
1.45962
1.45182
1.44446
1.43498
1.42484
1.41405
1.40401
1.39635
1.38706
1.3746
1.36242
1.35329
1.34295
1.33146
1.31929
1.30741
1.29679
1.28561
1.27329
1.26191
1.25043
1.23829
1.2268
1.21493
1.20368
1.19217
1.18126
1.16902
1.15728
1.14559
1.13272
1.12118
1.10942
1.09924
1.0906
1.08395
1.0777
1.07216
1.06772
1.06619
1.06533
1.80215
1.80116
1.80006
1.79868
1.79498
1.79214
1.79236
1.79243
1.79078
1.78827
1.78514
1.78112
1.77817
1.77811
1.77849
1.7777
1.77366
1.76549
1.76284
1.76272
1.76214
1.75943
1.752
1.74865
1.74832
1.74732
1.74394
1.7382
1.7331
1.72923
1.72555
1.72221
1.71886
1.71402
1.70895
1.70491
1.70038
1.69437
1.68926
1.6851
1.68031
1.67467
1.66932
1.6638
1.656
1.64725
1.64159
1.63666
1.62983
1.62225
1.6157
1.60891
1.60034
1.59129
1.58359
1.576
1.56759
1.55843
1.54942
1.54048
1.53162
1.52235
1.51144
1.50105
1.49178
1.48108
1.46979
1.45978
1.44871
1.43574
1.42473
1.41464
1.40199
1.38859
1.37514
1.36271
1.35151
1.33916
1.32559
1.31151
1.29878
1.28564
1.27197
1.25743
1.24358
1.22956
1.21498
1.20076
1.18629
1.17258
1.15792
1.14391
1.1286
1.11453
1.10171
1.08937
1.07991
1.07364
1.07108
1.07094
1.91005
1.90914
1.90803
1.90731
1.90575
1.90096
1.8975
1.89769
1.89826
1.89757
1.89465
1.88917
1.88479
1.88233
1.88187
1.88227
1.88161