/*--------------------------------*- C++ -*----------------------------------*\
  =========                 |
  \\      /  F ield         | OpenFOAM: The Open Source CFD Toolbox
   \\    /   O peration     | Website:  https://openfoam.org
    \\  /    A nd           | Version:  7
     \\/     M anipulation  |
\*---------------------------------------------------------------------------*/
FoamFile
{
    version     2.0;
    format      ascii;
    class       volScalarField;
    location    "10";
    object      T;
}
// * * * * * * * * * * * * * * * * * * * * * * * * * * * * * * * * * * * * * //

dimensions      [0 0 0 1 0 0 0];

internalField   nonuniform List<scalar> 
90000
(
0.911076
0.917073
0.923277
0.928957
0.934127
0.938671
0.943004
0.94682
0.950367
0.953447
0.95643
0.95902
0.96169
0.964361
0.967462
0.971038
0.97579
0.981334
0.987505
0.993745
1.00005
1.00608
1.0121
1.0177
1.02333
1.02847
1.03363
1.03835
1.0429
1.04717
1.05102
1.05468
1.05798
1.06062
1.06335
1.06509
1.06647
1.06773
1.06828
1.06812
1.06776
1.0674
1.06686
1.06581
1.0638
1.06081
1.05742
1.05491
1.05341
1.05273
1.05321
1.0542
1.05546
1.05652
1.05712
1.0576
1.0577
1.05784
1.05774
1.05728
1.0565
1.05553
1.05467
1.05413
1.0542
1.05436
1.05481
1.0546
1.05487
1.05511
1.05504
1.05456
1.05404
1.05292
1.05182
1.05129
1.05097
1.05087
1.05112
1.05179
1.05152
1.05076
1.05012
1.04972
1.04983
1.05028
1.05063
1.05018
1.04954
1.04894
1.04871
1.04869
1.04857
1.04821
1.04778
1.04775
1.04771
1.04756
1.04708
1.04654
0.904934
0.905107
0.905441
0.905962
0.906698
0.907615
0.908744
0.91009
0.911605
0.913278
0.91511
0.917123
0.919156
0.921247
0.923401
0.925706
0.928125
0.930835
0.933769
0.937152
0.940769
0.944818
0.949144
0.953748
0.958796
0.963782
0.969308
0.974681
0.980353
0.986073
0.991672
0.997423
1.003
1.0085
1.01375
1.0188
1.0238
1.02779
1.03203
1.03597
1.03875
1.0409
1.04375
1.04595
1.04754
1.05045
1.05193
1.05271
1.05238
1.05143
1.04997
1.04805
1.04644
1.04522
1.04466
1.04492
1.04542
1.04638
1.04766
1.04909
1.05027
1.05095
1.0507
1.05011
1.04918
1.04809
1.04697
1.04549
1.04522
1.0457
1.04717
1.0492
1.04959
1.04872
1.04718
1.04568
1.04433
1.04461
1.04563
1.04691
1.04705
1.04648
1.04554
1.04457
1.04497
1.04599
1.0465
1.04618
1.04542
1.04507
1.04511
1.04525
1.04502
1.04466
1.04437
1.04412
1.04439
1.04434
1.04407
1.0436
0.902575
0.902525
0.902472
0.902436
0.902373
0.902304
0.902228
0.902147
0.902077
0.902032
0.901966
0.901897
0.901905
0.90196
0.902069
0.902215
0.902376
0.902644
0.903017
0.903514
0.904162
0.904964
0.905971
0.907197
0.90877
0.910636
0.912999
0.915685
0.91904
0.922738
0.927235
0.932185
0.937839
0.943931
0.950913
0.958001
0.965352
0.973726
0.98152
0.989026
0.997853
1.0049
1.01149
1.01834
1.02367
1.02725
1.02988
1.03179
1.03333
1.03443
1.03583
1.0359
1.03615
1.03634
1.03613
1.03613
1.03637
1.03674
1.0378
1.03884
1.03988
1.04076
1.04104
1.04074
1.04002
1.03872
1.03721
1.03613
1.03629
1.03697
1.03792
1.03911
1.0397
1.04011
1.03974
1.03815
1.03742
1.03747
1.03784
1.03822
1.03871
1.03902
1.03884
1.03857
1.03844
1.03853
1.03898
1.03942
1.03932
1.03908
1.03889
1.03894
1.03895
1.03893
1.03878
1.0387
1.03884
1.03906
1.03904
1.03872
0.899082
0.899045
0.899004
0.898957
0.8989
0.89881
0.898714
0.898642
0.898571
0.898495
0.898422
0.898358
0.898303
0.898252
0.898212
0.898171
0.898148
0.898068
0.897993
0.897919
0.897836
0.897746
0.897664
0.897606
0.89758
0.897596
0.897645
0.897744
0.897917
0.898169
0.898722
0.899516
0.900694
0.902291
0.904407
0.907322
0.910921
0.915527
0.921137
0.928371
0.935526
0.945119
0.954676
0.964811
0.975019
0.984824
0.992854
1.00103
1.00739
1.01172
1.01687
1.01933
1.02154
1.02302
1.02396
1.02567
1.02729
1.02905
1.03035
1.03123
1.03176
1.03176
1.03161
1.03116
1.03066
1.02995
1.02999
1.02999
1.02997
1.0298
1.02957
1.02925
1.02934
1.02982
1.03045
1.03155
1.03254
1.03207
1.0312
1.03047
1.03063
1.03122
1.03222
1.03256
1.03209
1.03145
1.03154
1.03211
1.03302
1.03315
1.03296
1.03281
1.03295
1.03306
1.03292
1.03279
1.03298
1.03333
1.03359
1.03343
0.896361
0.896337
0.896311
0.89629
0.896259
0.896214
0.896176
0.896147
0.8961
0.896059
0.89606
0.896064
0.89606
0.896044
0.896014
0.895976
0.895933
0.895893
0.895868
0.895853
0.895843
0.895823
0.895809
0.895815
0.895834
0.89586
0.89589
0.895935
0.895993
0.89612
0.896073
0.896056
0.896074
0.896118
0.896207
0.896352
0.896578
0.896917
0.897489
0.898521
0.899979
0.902341
0.90571
0.910279
0.917218
0.924643
0.935503
0.946303
0.958493
0.970791
0.982136
0.992064
1.00161
1.00889
1.01353
1.0183
1.0201
1.02184
1.02278
1.02366
1.02428
1.02399
1.02278
1.02245
1.02296
1.02405
1.02541
1.02653
1.02726
1.02705
1.02621
1.02505
1.02405
1.02425
1.02511
1.02647
1.02749
1.0281
1.02781
1.02712
1.02663
1.02677
1.02726
1.02761
1.02805
1.02783
1.02736
1.02748
1.02802
1.02863
1.02874
1.02861
1.02851
1.02858
1.02876
1.02879
1.02882
1.02899
1.02932
1.0293
0.894985
0.894996
0.895012
0.895027
0.895033
0.895036
0.895042
0.895053
0.895053
0.895066
0.895128
0.89514
0.895145
0.895168
0.895212
0.895245
0.895272
0.895308
0.895316
0.89532
0.895336
0.895371
0.895425
0.895473
0.895509
0.895548
0.895596
0.895647
0.895686
0.895727
0.89579
0.89588
0.895971
0.896058
0.896142
0.896225
0.896293
0.896424
0.896463
0.896481
0.896512
0.896592
0.896772
0.897098
0.897714
0.898677
0.900469
0.903174
0.907645
0.914387
0.922491
0.934847
0.946865
0.960448
0.974571
0.986187
0.995198
1.0039
1.00767
1.0114
1.01543
1.01573
1.01612
1.01921
1.02192
1.02373
1.02495
1.02559
1.02539
1.02416
1.02273
1.02251
1.02269
1.02351
1.02478
1.02524
1.02515
1.02519
1.02523
1.02554
1.02585
1.02576
1.02549
1.02517
1.02527
1.02545
1.02572
1.02591
1.02602
1.02629
1.02661
1.02693
1.02674
1.02647
1.0264
1.02654
1.02674
1.02689
1.0271
1.02701
0.894598
0.89463
0.894653
0.894678
0.894702
0.894729
0.894756
0.894787
0.894818
0.894877
0.894956
0.895004
0.895033
0.895071
0.895119
0.895178
0.895244
0.895303
0.89535
0.895412
0.895489
0.895564
0.895629
0.895692
0.895764
0.895857
0.895959
0.896033
0.89608
0.896142
0.896244
0.896336
0.896394
0.896433
0.896459
0.896484
0.896515
0.89656
0.896621
0.896654
0.896666
0.896692
0.896761
0.896872
0.896962
0.897031
0.897123
0.897295
0.897588
0.898106
0.89901
0.900817
0.903847
0.909158
0.917388
0.927812
0.9424
0.956525
0.971978
0.985177
0.997534
1.00773
1.01484
1.02005
1.02265
1.02386
1.025
1.02454
1.0216
1.02058
1.02134
1.02289
1.02431
1.02521
1.02528
1.02489
1.02388
1.02344
1.02384
1.0249
1.02596
1.02594
1.02565
1.02496
1.02452
1.02465
1.02504
1.02538
1.02541
1.02544
1.02565
1.02594
1.02616
1.02606
1.02584
1.02585
1.02591
1.02597
1.02594
1.02598
0.894836
0.894869
0.8949
0.894923
0.894954
0.894992
0.895007
0.895023
0.895068
0.895156
0.895212
0.895243
0.895277
0.895325
0.895371
0.895426
0.895476
0.895518
0.895576
0.895671
0.895774
0.895858
0.895907
0.895948
0.896014
0.896121
0.896218
0.89628
0.896329
0.896387
0.896465
0.896546
0.896598
0.896631
0.896634
0.896634
0.896638
0.896661
0.896702
0.896715
0.896717
0.896731
0.896789
0.896884
0.896935
0.896944
0.896961
0.897018
0.897095
0.89711
0.897121
0.897129
0.897183
0.897354
0.897901
0.899176
0.901921
0.906759
0.915846
0.928156
0.941936
0.959498
0.976225
0.989365
0.999195
1.00685
1.01175
1.01569
1.01723
1.02253
1.02451
1.026
1.02643
1.02631
1.02504
1.02328
1.02333
1.02375
1.02505
1.02625
1.02626
1.02599
1.02532
1.02472
1.0247
1.02493
1.02523
1.02537
1.0253
1.02531
1.02545
1.02565
1.02587
1.02585
1.02586
1.02589
1.02584
1.02571
1.02555
1.0256
0.895487
0.895492
0.895499
0.895516
0.895552
0.895567
0.895565
0.895571
0.895638
0.895755
0.895786
0.895776
0.895769
0.89579
0.895847
0.895902
0.895937
0.895972
0.896045
0.896133
0.89618
0.896209
0.896238
0.896275
0.896352
0.896431
0.896477
0.896512
0.89655
0.896603
0.89667
0.89673
0.896753
0.896754
0.896751
0.896735
0.896711
0.896711
0.896718
0.896714
0.896707
0.896709
0.896724
0.896719
0.896671
0.896544
0.896462
0.896451
0.896461
0.896499
0.896513
0.8965
0.896475
0.896442
0.896361
0.89619
0.8962
0.896346
0.896947
0.898524
0.90213
0.908299
0.919482
0.93334
0.950508
0.969798
0.984846
1.00119
1.01406
1.02277
1.02448
1.02602
1.02572
1.02365
1.02107
1.02189
1.02368
1.02579
1.02698
1.02691
1.02629
1.02504
1.02492
1.02524
1.02572
1.02574
1.0256
1.02538
1.02524
1.02533
1.02552
1.02561
1.02576
1.02582
1.02603
1.02603
1.02593
1.02575
1.02549
1.02552
0.896181
0.896135
0.896115
0.896105
0.896091
0.896092
0.896128
0.896201
0.896222
0.896228
0.896255
0.896267
0.89626
0.896251
0.89626
0.896285
0.896303
0.896322
0.896356
0.89637
0.896364
0.896364
0.896378
0.89641
0.896462
0.896505
0.896526
0.896546
0.896574
0.896621
0.896694
0.896753
0.896763
0.896747
0.896705
0.896673
0.896662
0.896647
0.896611
0.896562
0.896518
0.896475
0.896422
0.896355
0.896239
0.896014
0.895824
0.895786
0.895783
0.895795
0.895827
0.895874
0.895916
0.895925
0.895891
0.895802
0.895675
0.895525
0.895427
0.895435
0.895551
0.895925
0.897145
0.899537
0.905233
0.913624
0.928955
0.945652
0.965768
0.985107
0.996565
1.00876
1.01227
1.01599
1.02035
1.02535
1.0277
1.02766
1.02734
1.02554
1.02445
1.02452
1.02528
1.02652
1.02655
1.02631
1.02554
1.02526
1.02531
1.02553
1.02562
1.02555
1.02559
1.02585
1.02627
1.02623
1.02608
1.02564
1.02544
1.02554
0.896484
0.896475
0.896472
0.896459
0.896449
0.896459
0.896526
0.896551
0.89655
0.896542
0.896512
0.896469
0.896439
0.896411
0.896399
0.8964
0.896406
0.896442
0.896476
0.896475
0.896453
0.896427
0.896425
0.896446
0.896471
0.896472
0.896465
0.896457
0.896457
0.896457
0.896466
0.896502
0.896522
0.896496
0.896433
0.896382
0.896342
0.896292
0.896226
0.896157
0.896096
0.896038
0.895966
0.895864
0.895701
0.895463
0.895252
0.895168
0.895149
0.895141
0.895148
0.895192
0.895264
0.895314
0.895321
0.895308
0.895261
0.895191
0.895103
0.895009
0.894985
0.895002
0.895082
0.895313
0.895832
0.896731
0.899109
0.903273
0.913608
0.926914
0.948293
0.969085
0.988315
1.009
1.01877
1.02413
1.02636
1.0261
1.02275
1.02173
1.02281
1.02506
1.02679
1.02699
1.02658
1.02547
1.0252
1.0253
1.02564
1.02562
1.02552
1.02535
1.02546
1.02593
1.02629
1.02623
1.02585
1.02554
1.02549
1.02564
0.89658
0.896588
0.896614
0.896632
0.89663
0.896625
0.896621
0.896613
0.896597
0.896578
0.896541
0.896468
0.896404
0.89638
0.896371
0.896334
0.896279
0.896271
0.896267
0.896256
0.896224
0.896169
0.896113
0.896075
0.896051
0.896019
0.895963
0.895904
0.895867
0.895841
0.89582
0.895814
0.895794
0.895726
0.895635
0.895582
0.895545
0.895543
0.895558
0.895569
0.895569
0.895559
0.895509
0.8954
0.895224
0.894995
0.894758
0.894633
0.894602
0.894583
0.89457
0.894585
0.894639
0.894669
0.894687
0.89472
0.894764
0.894791
0.894779
0.894693
0.894603
0.894597
0.894643
0.894799
0.894999
0.895145
0.895228
0.895425
0.896151
0.898079
0.904044
0.913475
0.932061
0.952276
0.974415
0.992893
1.00346
1.01207
1.01465
1.02253
1.02518
1.02726
1.02717
1.02604
1.02451
1.02461
1.02512
1.02596
1.02608
1.02569
1.02499
1.02508
1.02563
1.02611
1.0261
1.02575
1.02543
1.02545
1.02561
1.02567
0.896513
0.896503
0.896496
0.896486
0.896477
0.896472
0.89646
0.896421
0.896369
0.896332
0.8963
0.896246
0.896197
0.896149
0.896083
0.895976
0.895932
0.895928
0.895913
0.895868
0.895792
0.895706
0.895627
0.895562
0.895499
0.895432
0.895373
0.895319
0.895253
0.895173
0.895135
0.895107
0.89504
0.894945
0.894869
0.894861
0.894883
0.894946
0.895023
0.895109
0.895175
0.895184
0.895167
0.895076
0.894888
0.894669
0.89446
0.894335
0.894288
0.894253
0.89421
0.894189
0.894195
0.894225
0.894268
0.894354
0.894478
0.894541
0.894534
0.894466
0.894353
0.894319
0.894349
0.894482
0.894766
0.895023
0.895072
0.895014
0.894815
0.894688
0.894882
0.895737
0.898793
0.905082
0.919608
0.938844
0.963305
0.987144
1.00672
1.02037
1.02337
1.02587
1.02444
1.02072
1.02165
1.02365
1.02573
1.02599
1.02561
1.02444
1.02451
1.02521
1.02585
1.0258
1.02529
1.02476
1.02491
1.02542
1.02558
1.02551
0.896463
0.896457
0.896453
0.896445
0.896433
0.896398
0.896327
0.896296
0.896287
0.89628
0.896266
0.896233
0.896191
0.896143
0.896076
0.895999
0.895926
0.895828
0.895697
0.895569
0.895466
0.895386
0.895317
0.89525
0.895179
0.895114
0.895065
0.895007
0.894922
0.89485
0.894816
0.894766
0.894654
0.894566
0.894546
0.894559
0.894604
0.894687
0.894774
0.894858
0.894932
0.894949
0.894937
0.894858
0.894681
0.894497
0.894367
0.894268
0.894194
0.894128
0.894059
0.894015
0.893998
0.894002
0.894028
0.894126
0.894387
0.89458
0.894598
0.89457
0.894475
0.89436
0.894344
0.894394
0.894518
0.894641
0.894657
0.894583
0.894478
0.894389
0.894286
0.894257
0.894317
0.89466
0.896149
0.900262
0.911102
0.92805
0.95345
0.977013
0.993545
1.00867
1.01206
1.01856
1.02304
1.02606
1.026
1.02492
1.02329
1.02353
1.0248
1.02588
1.02578
1.02485
1.02414
1.02423
1.02484
1.02533
1.02532
1.02521
0.895459
0.895461
0.895468
0.895474
0.895466
0.895412
0.895378
0.895378
0.895386
0.895424
0.895499
0.895514
0.895511
0.895497
0.895485
0.895461
0.895413
0.895396
0.895385
0.895338
0.895238
0.895148
0.895094
0.895032
0.89495
0.894872
0.894815
0.89474
0.894646
0.894583
0.894537
0.894466
0.894381
0.894345
0.894345
0.894368
0.894431
0.894523
0.894605
0.894712
0.894821
0.894828
0.894815
0.894763
0.894659
0.89455
0.894491
0.894476
0.894467
0.894426
0.894315
0.89415
0.894013
0.893943
0.893937
0.894013
0.894258
0.894459
0.894485
0.894469
0.894385
0.894261
0.894227
0.89425
0.894263
0.89425
0.89418
0.894044
0.894017
0.894008
0.893972
0.893907
0.893847
0.893835
0.89386
0.894032
0.894921
0.897546
0.906059
0.920257
0.945783
0.971482
0.995229
1.0159
1.02149
1.02467
1.02329
1.01915
1.02061
1.02376
1.02588
1.02577
1.0247
1.02321
1.02338
1.02431
1.02482
1.02487
1.02477
1.02482
0.894599
0.894616
0.894628
0.894635
0.894645
0.894657
0.894669
0.894673
0.894671
0.894666
0.894677
0.894775
0.894819
0.89482
0.894834
0.894852
0.894858
0.894873
0.89489
0.894886
0.894847
0.894815
0.894802
0.894781
0.894732
0.894676
0.894647
0.894616
0.894561
0.894475
0.894356
0.894205
0.894075
0.894043
0.894064
0.894143
0.894279
0.8944
0.894454
0.894509
0.894558
0.894554
0.894552
0.894568
0.894559
0.894517
0.894524
0.894554
0.894575
0.894568
0.894512
0.894428
0.894259
0.894068
0.894017
0.894033
0.894175
0.894369
0.894397
0.894374
0.894276
0.894163
0.894138
0.894127
0.894092
0.894027
0.893918
0.893774
0.893723
0.893723
0.89372
0.893681
0.893634
0.893635
0.893673
0.893677
0.893679
0.893718
0.894131
0.895912
0.902134
0.915243
0.939995
0.965468
0.98866
1.00407
1.01094
1.01546
1.02421
1.02553
1.02537
1.02368
1.02234
1.02263
1.0239
1.02469
1.02449
1.02409
1.02413
1.02446
0.894192
0.894232
0.894231
0.894199
0.894171
0.894162
0.894161
0.894186
0.894226
0.894241
0.894249
0.894264
0.894286
0.894308
0.894329
0.894354
0.894372
0.894383
0.894408
0.894465
0.894487
0.894493
0.894521
0.894529
0.894522
0.894499
0.894502
0.894501
0.894449
0.894325
0.894197
0.894076
0.893983
0.893984
0.894032
0.894124
0.894256
0.894282
0.894265
0.894258
0.894239
0.894175
0.894143
0.894136
0.894156
0.894308
0.8944
0.894399
0.894453
0.894598
0.894601
0.894579
0.894451
0.894221
0.894166
0.894174
0.894269
0.894355
0.894338
0.894294
0.894216
0.894201
0.894184
0.894132
0.894047
0.893949
0.893827
0.893694
0.89361
0.893608
0.893609
0.893574
0.893496
0.893476
0.893497
0.893518
0.893513
0.893488
0.893385
0.893246
0.893441
0.894768
0.89992
0.91249
0.936692
0.963255
0.993808
1.01273
1.0222
1.02376
1.02078
1.01846
1.02015
1.02336
1.02483
1.02444
1.02339
1.0234
1.02382
1.0242
0.893643
0.89383
0.893869
0.893871
0.893864
0.893811
0.89378
0.893785
0.893809
0.893826
0.893848
0.893857
0.893848
0.893844
0.893865
0.893906
0.893938
0.893976
0.894057
0.894177
0.894223
0.894229
0.894248
0.894269
0.894265
0.894249
0.894245
0.89423
0.894152
0.894089
0.894066
0.894055
0.89401
0.894003
0.894071
0.894218
0.894227
0.894213
0.894167
0.894095
0.893932
0.893754
0.893729
0.89372
0.893735
0.893844
0.893941
0.894023
0.894293
0.89453
0.894516
0.894495
0.894402
0.894149
0.894032
0.894041
0.894062
0.894139
0.894134
0.894088
0.893977
0.893942
0.893957
0.893974
0.893949
0.893855
0.893677
0.893551
0.89351
0.893508
0.893519
0.893515
0.893457
0.893394
0.893347
0.893295
0.893244
0.893188
0.893088
0.892981
0.892846
0.892846
0.893
0.894257
0.89845
0.911974
0.934306
0.96323
0.989741
1.00186
1.01042
1.01648
1.0239
1.02477
1.02422
1.02244
1.02253
1.02321
1.02396
1.02388
0.893454
0.893629
0.893688
0.893688
0.893687
0.893659
0.893611
0.893595
0.893598
0.893611
0.893616
0.8936
0.893557
0.893542
0.893555
0.893601
0.89364
0.893677
0.893728
0.893795
0.893847
0.893886
0.89392
0.893949
0.893984
0.894001
0.89399
0.89396
0.893925
0.893878
0.893854
0.893863
0.893861
0.893856
0.893911
0.894078
0.89409
0.894079
0.89408
0.89407
0.893934
0.893639
0.893595
0.893589
0.893548
0.893502
0.893516
0.893659
0.894091
0.894277
0.894259
0.89425
0.894191
0.893953
0.893655
0.893602
0.893604
0.893681
0.893683
0.893629
0.893488
0.893424
0.893458
0.893611
0.893728
0.893708
0.893577
0.893396
0.893351
0.893377
0.893434
0.893481
0.893476
0.893421
0.893283
0.89312
0.893032
0.892981
0.892921
0.892841
0.892752
0.892734
0.892789
0.892792
0.892919
0.89404
0.897922
0.912445
0.934766
0.964343
1.00015
1.01415
1.02317
1.02272
1.01925
1.01963
1.02163
1.02393
1.02379
1.0232
0.893341
0.89339
0.893437
0.893457
0.893455
0.893446
0.893452
0.893471
0.893473
0.893476
0.893462
0.893377
0.893319
0.893325
0.893357
0.89341
0.893438
0.893425
0.893389
0.893388
0.893394
0.893402
0.893423
0.893501
0.893611
0.893671
0.893677
0.893683
0.893709
0.893712
0.893689
0.893683
0.893758
0.89378
0.89376
0.893772
0.893843
0.893886
0.89391
0.893906
0.893789
0.893508
0.893442
0.89341
0.89333
0.893248
0.893239
0.893384
0.893612
0.893603
0.893568
0.89363
0.893701
0.893583
0.893236
0.893032
0.893025
0.893138
0.893309
0.893326
0.893231
0.893059
0.893051
0.893182
0.893381
0.893411
0.893343
0.893202
0.893124
0.89314
0.893194
0.893281
0.893313
0.893272
0.893122
0.892951
0.892885
0.892892
0.892918
0.892886
0.892769
0.892665
0.892638
0.892619
0.892574
0.89246
0.892512
0.89365
0.897782
0.913802
0.938399
0.967872
0.998585
1.00459
1.01281
1.01898
1.02388
1.02384
1.02222
1.02223
0.893387
0.893395
0.893398
0.893392
0.893373
0.893386
0.893465
0.893511
0.893527
0.893547
0.893617
0.893667
0.893664
0.893669
0.893713
0.89375
0.893752
0.893695
0.893548
0.893508
0.893514
0.893497
0.893393
0.893276
0.893232
0.893202
0.893125
0.893076
0.893092
0.893156
0.893173
0.893213
0.893354
0.893447
0.893442
0.893442
0.89348
0.893577
0.893643
0.893655
0.8936
0.89339
0.89322
0.893113
0.892951
0.892911
0.892972
0.89297
0.892955
0.892894
0.892903
0.893061
0.893184
0.893089
0.89271
0.892437
0.892454
0.892655
0.893061
0.893328
0.893284
0.893042
0.892822
0.892854
0.893021
0.893127
0.893093
0.892991
0.892876
0.892853
0.89286
0.892885
0.892936
0.892934
0.892816
0.892648
0.892634
0.892732
0.892903
0.8929
0.892854
0.892779
0.892685
0.892535
0.892387
0.892294
0.892161
0.892087
0.892228
0.893811
0.899171
0.918016
0.944545
0.97718
1.00871
1.0174
1.02274
1.01969
1.01895
1.02108
0.892972
0.892932
0.89289
0.892869
0.892862
0.892866
0.892908
0.892934
0.892933
0.892938
0.893016
0.893114
0.893131
0.893128
0.893112
0.893115
0.893099
0.892989
0.892835
0.892809
0.892809
0.892785
0.892687
0.892595
0.892575
0.892542
0.892388
0.892246
0.892179
0.892144
0.892129
0.892072
0.89182
0.891623
0.891613
0.891612
0.891639
0.891777
0.892098
0.892499
0.892661
0.892629
0.892581
0.892511
0.892304
0.892168
0.892267
0.892397
0.892443
0.892438
0.892521
0.892729
0.892733
0.892506
0.89206
0.891928
0.892028
0.892372
0.892843
0.893177
0.893197
0.893046
0.892733
0.892551
0.892611
0.892732
0.892709
0.892619
0.89249
0.892445
0.892474
0.892507
0.892544
0.892539
0.892469
0.892426
0.892465
0.892611
0.892807
0.892817
0.89281
0.892772
0.892648
0.892482
0.892375
0.892239
0.892105
0.892039
0.892062
0.892192
0.892571
0.894692
0.901627
0.923971
0.95289
0.981206
1.00329
1.0084
1.01864
1.02264
0.889689
0.889683
0.88962
0.88955
0.889518
0.889517
0.889604
0.889726
0.889706
0.889674
0.889699
0.889828
0.890103
0.890368
0.890502
0.890597
0.890645
0.890613
0.890546
0.890559
0.890712
0.890818
0.890808
0.890786
0.890735
0.890579
0.890434
0.890451
0.890525
0.890564
0.890514
0.890271
0.889711
0.889482
0.889486
0.889497
0.889533
0.889697
0.89013
0.890824
0.891419
0.891616
0.891617
0.891481
0.891208
0.891195
0.891423
0.891939
0.892184
0.892272
0.892513
0.892608
0.892566
0.892253
0.891824
0.891756
0.891864
0.892205
0.892604
0.892879
0.892931
0.892811
0.892569
0.892368
0.89222
0.892098
0.891953
0.891887
0.891914
0.892017
0.892186
0.892366
0.892417
0.8924
0.892375
0.892372
0.892435
0.892559
0.89269
0.892676
0.892591
0.892421
0.892206
0.892092
0.892118
0.892114
0.892163
0.892205
0.892275
0.892428
0.892427
0.89244
0.892747
0.895608
0.905397
0.931074
0.962339
0.995566
1.01571
1.02154
0.885597
0.885603
0.885603
0.885602
0.885601
0.885606
0.88566
0.885835
0.885951
0.885926
0.885864
0.885884
0.886052
0.886504
0.887078
0.887402
0.887501
0.887478
0.887469
0.887504
0.887723
0.88846
0.888734
0.888741
0.888798
0.888814
0.888866
0.888999
0.889039
0.889112
0.889122
0.888953
0.888425
0.887878
0.887629
0.887544
0.887503
0.887528
0.887751
0.888437
0.889577
0.890141
0.890139
0.889869
0.88964
0.889651
0.889896
0.890391
0.89075
0.891028
0.8915
0.891734
0.891708
0.891525
0.891422
0.8914
0.891196
0.890848
0.890747
0.890776
0.891001
0.891427
0.891845
0.892002
0.891927
0.891564
0.89134
0.89141
0.891628
0.891893
0.892161
0.892474
0.892547
0.892509
0.892387
0.892328
0.89235
0.89243
0.892386
0.892171
0.891963
0.891789
0.891824
0.891918
0.892054
0.892222
0.892331
0.892361
0.892464
0.892511
0.89249
0.892379
0.892119
0.892138
0.892896
0.897175
0.911576
0.941722
0.970429
1.00167
0.885569
0.885638
0.885739
0.885852
0.885933
0.885981
0.886023
0.886073
0.886143
0.886246
0.886388
0.886492
0.886613
0.886937
0.887056
0.88704
0.887125
0.887232
0.887238
0.887293
0.887521
0.888251
0.889223
0.889427
0.889521
0.889836
0.890105
0.890173
0.890378
0.891032
0.891262
0.891151
0.890277
0.889735
0.889671
0.889436
0.888652
0.887965
0.887892
0.888027
0.888854
0.889458
0.889457
0.889247
0.889183
0.889084
0.888912
0.888693
0.888187
0.887844
0.887833
0.887979
0.888584
0.889334
0.889497
0.889481
0.889157
0.88853
0.888274
0.88828
0.888473
0.888983
0.889706
0.890371
0.890861
0.891093
0.89121
0.891344
0.891495
0.89164
0.891857
0.892207
0.892327
0.892293
0.892145
0.892045
0.89198
0.891904
0.891687
0.891405
0.891389
0.891442
0.891626
0.891959
0.89222
0.892337
0.892376
0.892423
0.892504
0.892498
0.892365
0.892109
0.891978
0.891936
0.891991
0.892233
0.893716
0.90111
0.918601
0.96913
0.892454
0.892284
0.892031
0.891737
0.89148
0.891285
0.891118
0.89093
0.890672
0.890313
0.889984
0.889728
0.889337
0.888792
0.888513
0.888511
0.888614
0.88865
0.888636
0.888643
0.888726
0.889068
0.889529
0.889646
0.889486
0.889484
0.889693
0.889698
0.889853
0.890685
0.891308
0.891299
0.890494
0.889706
0.889417
0.888524
0.886645
0.886056
0.886141
0.88664
0.887482
0.888111
0.888756
0.88908
0.889103
0.88906
0.888812
0.888216
0.886981
0.885789
0.885593
0.885675
0.886276
0.887844
0.888984
0.889051
0.888727
0.887755
0.887011
0.886901
0.887011
0.8875
0.888158
0.888628
0.888952
0.889364
0.889826
0.889866
0.889795
0.889664
0.889755
0.890183
0.890439
0.890405
0.890295
0.890314
0.890461
0.890662
0.890814
0.890971
0.891209
0.891512
0.891831
0.892149
0.89228
0.892303
0.892316
0.892334
0.89231
0.892195
0.892046
0.891913
0.891931
0.892048
0.892226
0.892379
0.892395
0.892788
0.894993
0.920061
0.897542
0.897285
0.897287
0.897285
0.89766
0.898444
0.898693
0.898643
0.898292
0.897271
0.89568
0.895045
0.895032
0.89519
0.894984
0.89388
0.893119
0.893135
0.893383
0.893377
0.893308
0.892926
0.892551
0.89256
0.89249
0.891891
0.8912
0.891106
0.891212
0.891687
0.891823
0.891748
0.891115
0.890105
0.889736
0.888864
0.887324
0.887043
0.887322
0.888646
0.889397
0.889515
0.889739
0.890653
0.891984
0.892254
0.891899
0.890645
0.888421
0.886523
0.886194
0.886392
0.88714
0.888526
0.889937
0.890857
0.890964
0.890735
0.890372
0.890037
0.889581
0.889029
0.888706
0.888669
0.888791
0.889152
0.889383
0.889346
0.888993
0.888477
0.888381
0.888459
0.888598
0.888631
0.888682
0.888784
0.888998
0.889345
0.889807
0.890378
0.890837
0.891333
0.891681
0.891944
0.89204
0.891992
0.891779
0.891542
0.891551
0.891629
0.891714
0.89186
0.892047
0.892293
0.892411
0.892414
0.892395
0.892303
0.892239
0.897063
0.910487
0.910438
0.910448
0.910754
0.911533
0.91169
0.911696
0.911356
0.911052
0.9109
0.910512
0.910285
0.910292
0.910538
0.910448
0.909609
0.909327
0.909395
0.909274
0.908897
0.908875
0.908901
0.908413
0.908038
0.907826
0.90721
0.905999
0.905259
0.905263
0.905316
0.90503
0.904872
0.905106
0.905189
0.904516
0.903528
0.902841
0.901318
0.900056
0.899981
0.899765
0.898662
0.898185
0.898465
0.899175
0.899468
0.899404
0.899058
0.897844
0.896116
0.895387
0.895358
0.89517
0.894308
0.893212
0.892984
0.893092
0.893205
0.893121
0.892742
0.891921
0.890892
0.889999
0.889047
0.88854
0.888442
0.888252
0.888119
0.888103
0.888063
0.887944
0.887873
0.887934
0.888149
0.888418
0.88855
0.888614
0.888697
0.888892
0.889159
0.889424
0.88972
0.889941
0.890003
0.89008
0.890119
0.890157
0.890285
0.890602
0.891123
0.891587
0.891877
0.89209
0.892261
0.892333
0.892291
0.892147
0.891914
0.891803
0.89243
0.931426
0.931435
0.93148
0.931506
0.931426
0.931008
0.92999
0.929386
0.929377
0.929553
0.92943
0.928321
0.926531
0.924991
0.924102
0.924025
0.924156
0.923921
0.923141
0.923071
0.922921
0.92175
0.920865
0.920779
0.920712
0.920305
0.919521
0.919126
0.919165
0.919366
0.919728
0.919893
0.919791
0.919839
0.920069
0.919968
0.919131
0.916152
0.914587
0.914277
0.913623
0.911622
0.908701
0.907587
0.90707
0.906069
0.905728
0.906297
0.906364
0.905272
0.904876
0.904952
0.904962
0.90435
0.902559
0.899561
0.896686
0.895863
0.895618
0.895165
0.894987
0.895164
0.895665
0.895526
0.894105
0.891361
0.890045
0.8901
0.890666
0.890858
0.890455
0.890301
0.890492
0.890873
0.89121
0.891294
0.891146
0.890639
0.890135
0.889874
0.889783
0.889627
0.889386
0.8892
0.889069
0.889093
0.889132
0.88924
0.889558
0.890108
0.891032
0.891671
0.891928
0.891904
0.891739
0.891432
0.891357
0.891416
0.891729
0.892049
0.95252
0.952583
0.952567
0.952126
0.951412
0.951322
0.951363
0.951543
0.951958
0.952104
0.951747
0.949908
0.948908
0.948935
0.948879
0.948062
0.94753
0.947458
0.947046
0.946397
0.946246
0.9457
0.944176
0.943478
0.94354
0.943588
0.943009
0.941279
0.940495
0.940554
0.94037
0.939182
0.938737
0.93866
0.938519
0.938308
0.937468
0.935343
0.934531
0.934747
0.934743
0.933964
0.932153
0.930357
0.928281
0.927432
0.927557
0.927532
0.926451
0.923007
0.920228
0.919925
0.920187
0.920055
0.91916
0.917676
0.916577
0.915655
0.913778
0.910753
0.909415
0.909238
0.909227
0.908856
0.907374
0.904427
0.90153
0.900404
0.900214
0.899709
0.898081
0.895979
0.895012
0.894557
0.894021
0.893299
0.89246
0.891361
0.889964
0.889382
0.889355
0.889257
0.889145
0.889063
0.889024
0.889129
0.889397
0.889873
0.890327
0.890721
0.89064
0.890416
0.890221
0.890202
0.890138
0.890174
0.890455
0.890958
0.891669
0.892024
0.974203
0.974191
0.974093
0.973974
0.973813
0.973489
0.973439
0.973701
0.97393
0.973572
0.971993
0.970661
0.970352
0.970371
0.970539
0.97042
0.9694
0.968509
0.968542
0.968672
0.968173
0.966139
0.964871
0.964898
0.965118
0.96491
0.96385
0.962663
0.962149
0.961865
0.961524
0.960957
0.95974
0.95836
0.958151
0.958261
0.95789
0.95635
0.955521
0.955129
0.954468
0.953115
0.951308
0.949363
0.947048
0.945808
0.945757
0.945941
0.945623
0.94369
0.94086
0.940107
0.939493
0.937288
0.932857
0.931206
0.931429
0.931308
0.929725
0.927473
0.92638
0.924697
0.921529
0.91851
0.916835
0.915927
0.914587
0.912113
0.909341
0.907874
0.906913
0.904936
0.902171
0.900469
0.899259
0.897786
0.896257
0.895141
0.894271
0.892822
0.892401
0.891864
0.891474
0.891534
0.89166
0.891743
0.891961
0.892088
0.89187
0.891508
0.890908
0.890125
0.889728
0.889588
0.889544
0.889613
0.889881
0.890381
0.891183
0.891744
0.996701
0.995564
0.99536
0.995288
0.994937
0.99478
0.994891
0.995418
0.995688
0.995655
0.995409
0.994982
0.993974
0.992901
0.992794
0.992643
0.991736
0.990499
0.990399
0.990519
0.990453
0.98964
0.98799
0.987653
0.987651
0.987579
0.987055
0.985629
0.984489
0.983938
0.983679
0.983275
0.982407
0.980977
0.98003
0.97957
0.978346
0.976943
0.976447
0.976004
0.975363
0.974385
0.97316
0.971819
0.970495
0.968998
0.967745
0.967008
0.965578
0.962572
0.961328
0.961498
0.961275
0.959336
0.956009
0.954248
0.953034
0.951407
0.948894
0.947239
0.946522
0.945318
0.943555
0.941296
0.938096
0.936021
0.934944
0.933936
0.931415
0.928268
0.926624
0.925378
0.922885
0.919974
0.917548
0.915291
0.912788
0.910418
0.908249
0.905771
0.90317
0.900771
0.898603
0.89687
0.895426
0.89387
0.893023
0.891924
0.891293
0.890702
0.890204
0.889967
0.889679
0.889572
0.889838
0.890411
0.890876
0.890998
0.890809
0.890607
1.02091
1.02071
1.02027
1.01946
1.01916
1.01924
1.01933
1.019
1.01786
1.01727
1.01736
1.01752
1.01748
1.01715
1.0166
1.01561
1.01431
1.01416
1.0141
1.01318
1.01257
1.01246
1.01215
1.01129
1.00969
1.00899
1.00904
1.00904
1.00858
1.00699
1.00545
1.00489
1.00457
1.00349
1.00224
1.00209
1.00189
1.0011
0.999979
0.998532
0.996906
0.995754
0.994778
0.993751
0.992289
0.990216
0.988954
0.988323
0.987566
0.986203
0.984455
0.98279
0.981604
0.979572
0.975971
0.974628
0.973953
0.972878
0.970841
0.968105
0.965778
0.963402
0.961361
0.959414
0.95715
0.955099
0.952562
0.949746
0.947289
0.945064
0.942624
0.940107
0.937462
0.934485
0.931502
0.928569
0.925816
0.923152
0.920171
0.917207
0.914106
0.911303
0.908313
0.905352
0.902678
0.900109
0.897807
0.895478
0.89423
0.893171
0.89242
0.892108
0.8924
0.892597
0.892949
0.892867
0.892501
0.891879
0.891272
0.890533
1.04437
1.04436
1.04395
1.04377
1.04371
1.04349
1.04248
1.04173
1.04179
1.04178
1.04156
1.04125
1.04034
1.03978
1.03972
1.03956
1.03889
1.0375
1.03695
1.0368
1.03658
1.03574
1.03486
1.03443
1.034
1.03303
1.03185
1.03149
1.03124
1.03064
1.02929
1.02797
1.02724
1.02667
1.02567
1.02439
1.02319
1.02244
1.02183
1.02095
1.01922
1.01775
1.01689
1.01607
1.01503
1.01361
1.01195
1.01019
1.00846
1.00704
1.00554
1.00375
1.00253
1.00127
0.999238
0.996769
0.994696
0.993026
0.991289
0.989176
0.987044
0.984939
0.982743
0.980465
0.977593
0.975317
0.973531
0.971205
0.96758
0.964815
0.963084
0.961012
0.958343
0.955223
0.952056
0.9489
0.9461
0.943568
0.941007
0.937927