/*--------------------------------*- C++ -*----------------------------------*\
  =========                 |
  \\      /  F ield         | OpenFOAM: The Open Source CFD Toolbox
   \\    /   O peration     | Website:  https://openfoam.org
    \\  /    A nd           | Version:  7
     \\/     M anipulation  |
\*---------------------------------------------------------------------------*/
FoamFile
{
    version     2.0;
    format      ascii;
    class       volScalarField;
    location    "6.8";
    object      rho;
}
// * * * * * * * * * * * * * * * * * * * * * * * * * * * * * * * * * * * * * //

dimensions      [1 -3 0 0 0 0 0];

internalField   nonuniform List<scalar> 
1750
(
0.424187
0.59194
0.73522
0.855745
0.951113
0.949926
0.944053
0.955213
0.986448
1.00498
0.275138
0.350533
0.479554
0.634713
0.757926
0.830195
0.889738
0.95527
1.01839
1.01897
0.287309
0.291627
0.290073
0.306126
0.369518
0.480967
0.667285
0.84919
0.961566
1.0278
0.341876
0.33947
0.31483
0.305983
0.322109
0.344307
0.367835
0.456016
0.625531
0.921741
0.435385
0.434199
0.411325
0.404834
0.417797
0.453546
0.480813
0.509604
0.502158
0.595681
0.573513
0.607851
0.615493
0.603365
0.594064
0.589322
0.582326
0.568375
0.548841
0.555759
0.7578
0.756039
0.771555
0.764218
0.730677
0.702541
0.692413
0.672715
0.669375
0.667006
1.0931
1.02601
0.960922
0.939831
0.916187
0.886272
0.871738
0.853061
0.827049
0.787966
1.39537
1.34673
1.25729
1.17835
1.13509
1.09213
1.04596
1.00825
0.972584
0.91204
1.83443
1.72869
1.62823
1.51861
1.42136
1.34499
1.27499
1.20352
1.15173
1.07876
2.2764
2.19564
2.09356
1.98858
1.86689
1.72847
1.60554
1.49186
1.40349
1.28343
2.31103
2.2956
2.27144
2.25665
2.22403
2.15189
2.04789
1.92169
1.79782
1.60113
1.98963
2.06412
2.13221
2.2134
2.21371
2.20719
2.19881
2.17731
2.14017
1.99917
1.49854
1.56432
1.64365
1.75486
1.87428
1.97682
2.05237
2.12166
2.12265
2.13397
1.40287
1.4067
1.41525
1.43247
1.471
1.5338
1.63129
1.77269
1.92962
2.21554
0.278266
0.248869
0.254268
0.327992
0.418695
0.552654
0.821041
1.13676
1.44388
1.9747
2.33155
2.3086
1.85543
1.45295
1.40125
0.27595
0.234263
0.234935
0.341098
0.447107
0.636823
0.980401
1.25255
1.63812
2.1767
2.3787
2.23719
1.71301
1.42432
1.40042
0.272284
0.225918
0.228125
0.358108
0.500775
0.765809
1.06788
1.33788
1.8124
2.31099
2.40234
2.15326
1.61033
1.41047
1.40015
0.276963
0.226312
0.253679
0.417342
0.587737
0.842622
1.12382
1.49022
2.00847
2.41779
2.41122
2.04659
1.51036
1.40358
1.40005
0.286069
0.23511
0.277342
0.443174
0.634262
0.900899
1.21331
1.7163
2.23604
2.47111
2.39501
1.83488
1.44413
1.40104
1.40002
0.283313
0.243259
0.279085
0.440859
0.671186
1.02162
1.48091
1.95201
2.41254
2.48213
2.23538
1.65084
1.41668
1.40029
1.40001
0.25102
0.243334
0.27214
0.450263
0.839452
1.25848
1.70988
2.17803
2.52384
2.47436
2.07352
1.53844
1.40566
1.40008
1.40001
0.189039
0.228642
0.30575
0.657359
1.0812
1.49164
1.91579
2.41734
2.57139
2.43256
1.87566
1.45231
1.40134
1.40002
1.40001
0.120212
0.227726
0.463438
0.869119
1.2823
1.71778
2.19176
2.58971
2.58126
2.30296
1.63131
1.41358
1.40027
1.40001
1.40001
0.0872161
0.294179
0.647598
1.04773
1.50952
2.01773
2.51474
2.65802
2.55511
1.97574
1.48506
1.40324
1.40005
1.40001
1.40001
0.0795569
0.412545
0.833902
1.31756
1.90116
2.36695
2.70331
2.67545
2.36092
1.70105
1.4257
1.40061
1.40001
1.40001
1.40001
0.0810099
0.570666
1.15363
1.78965
2.29297
2.62061
2.76517
2.62548
2.05297
1.50742
1.40444
1.40009
1.40001
1.40001
1.40001
0.255297
0.945448
1.6839
2.23673
2.612
2.76266
2.77695
2.39652
1.69068
1.42416
1.40064
1.40001
1.40001
1.40001
1.40001
0.730839
1.57342
2.22379
2.58469
2.81197
2.81234
2.62001
1.95095
1.47344
1.40295
1.40006
1.40001
1.40001
1.40001
1.40001
1.6486
2.32169
2.64823
2.78681
2.85782
2.82141
2.23838
1.55696
1.40771
1.40014
1.40001
1.40001
1.40001
1.40001
1.40001
2.89227
2.84939
2.80634
2.83403
2.86371
2.54281
1.64035
1.38964
1.39864
1.39998
1.4
1.40001
1.40001
1.40001
1.40001
2.89126
2.85173
2.80314
2.82674
2.83458
2.31824
1.5729
1.40567
1.40006
1.40001
1.40001
1.40001
1.40001
1.40001
1.40001
2.83009
2.86609
2.88954
2.86578
2.80463
1.97203
1.43026
1.40013
1.40001
1.40001
1.40001
1.40001
1.40001
1.40001
1.40001
2.78826
2.87467
2.96888
2.87229
2.5061
1.62385
1.40446
1.40002
1.40001
1.40001
1.40001
1.40001
1.40001
1.40001
1.40001
2.77475
2.89493
3.01669
2.82833
2.15427
1.47328
1.40054
1.40001
1.40001
1.40001
1.40001
1.40001
1.40001
1.40001
1.40001
2.80708
2.94677
3.04803
2.72017
1.76251
1.41017
1.40004
1.40001
1.40001
1.40001
1.40001
1.40001
1.40001
1.40001
1.40001
2.91038
2.97133
3.04888
2.30099
1.49235
1.40077
1.40001
1.40001
1.40001
1.40001
1.40001
1.40001
1.40001
1.40001
1.40001
3.14104
3.00193
2.78204
1.80932
1.41475
1.40005
1.40001
1.40001
1.40001
1.40001
1.40001
1.40001
1.40001
1.40001
1.40001
3.38259
2.90813
2.3422
1.512
1.40098
1.40001
1.40001
1.40001
1.40001
1.40001
1.40001
1.40001
1.40001
1.40001
1.40001
3.49533
2.72081
1.8323
1.41485
1.40006
1.40001
1.40001
1.40001
1.40001
1.40001
1.40001
1.40001
1.40001
1.40001
1.40001
3.4512
2.35093
1.54822
1.40192
1.40001
1.40001
1.40001
1.40001
1.40001
1.40001
1.40001
1.40001
1.40001
1.40001
1.40001
3.14519
1.96185
1.43578
1.4002
1.40001
1.40001
1.40001
1.40001
1.40001
1.40001
1.40001
1.40001
1.40001
1.40001
1.40001
2.75121
1.66499
1.40694
1.40003
1.40001
1.40001
1.40001
1.40001
1.40001
1.40001
1.40001
1.40001
1.40001
1.40001
1.40001
2.26279
1.49222
1.40095
1.40001
1.40001
1.40001
1.40001
1.40001
1.40001
1.40001
1.40001
1.40001
1.40001
1.40001
1.40001
1.76616
1.41529
1.40006
1.40001
1.40001
1.40001
1.40001
1.40001
1.40001
1.40001
1.40001
1.40001
1.40001
1.40001
1.40001
1.40001
1.40001
1.40001
1.40001
1.40001
1.40001
1.40001
1.40001
1.40001
1.40001
1.40001
1.40001
1.40001
1.40001
1.40001
1.40001
1.40001
1.40001
1.40001
1.40001
1.40001
1.40001
1.40001
1.40001
1.40001
1.40001
1.40001
1.40001
1.40001
1.40001
1.40001
1.40001
1.40001
1.40001
1.40001
1.40001
1.40001
1.40001
1.40001
1.40001
1.40001
1.40001
1.40001
1.40001
1.40001
1.40001
1.40001
1.40001
1.40001
1.40001
1.40001
1.40001
1.40001
1.40001
1.40001
1.40001
1.40001
1.40001
1.40001
1.40001
1.40001
1.40001
1.40001
1.40001
1.40001
1.40001
1.40001
1.40001
1.40001
1.40001
1.40001
1.40001
1.40001
1.40001
1.40001
1.40001
1.40001
1.40001
1.40001
1.40001
1.40001
1.40001
1.40001
1.40001
1.40001
1.40001
1.40001
1.40001
1.40001
1.40001
1.40001
1.40001
1.40001
1.40001
1.40001
1.40001
1.40001
1.40001
1.40001
1.40001
1.40001
1.40001
1.40001
1.40001
1.40001
1.40001
1.40001
1.40001
1.40001
1.40001
1.40001
1.40001
1.40001
1.40001
1.40001
1.40001
1.40001
1.40001
1.40001
1.40001
1.40001
1.40001
1.40001
1.40001
1.40001
1.40001
1.40001
1.40001
1.40001
1.40001
1.40001
1.40001
1.40001
1.40001
1.40001
1.40001
1.40001
1.40001
1.40001
1.40001
1.40001
1.40001
1.40001
1.40001
1.40001
1.40001
1.40001
1.40001
1.40001
1.40001
1.40001
1.40001
1.40001
1.40001
1.40001
1.40001
1.40001
1.40001
1.40001
1.40001
1.40001
1.40001
1.40001
1.40001
1.40001
1.40001
1.40001
1.40001
1.40001
1.40001
1.40001
1.40001
1.40001
1.40001
1.40001
1.40001
1.40001
1.40001
1.40001
1.40001
1.40001
1.40001
1.40001
1.40001
1.40001
1.40001
1.40001
1.40001
1.40001
1.40001
1.40001
1.40001
1.40001
1.40001
1.40001
1.40001
1.40001
1.40001
1.40001
1.40001
1.40001
1.40001
1.40001
1.40001
1.40001
1.40001
1.40001
1.40001
1.40001
1.40001
1.40001
1.40001
1.40001
1.40001
1.40001
1.40001
1.40001
1.40001
1.40001
1.40001
1.40001
1.40001
1.40001
1.40001
1.40001
1.40001
1.40001
1.40001
1.40001
1.40001
1.40001
1.40001
1.40001
1.40001
1.40001
1.40001
1.40001
1.40001
1.40001
1.40001
1.40001
1.40001
1.40001
1.40001
1.40001
1.40001
1.40001
1.40001
1.40001
1.40001
1.40001
1.40001
1.40001
1.40001
1.40001
1.40001
1.40001
1.40001
1.40001
1.40001
1.40001
1.40001
1.40001
1.40001
1.40001
1.40001
1.40001
1.40001
1.40001
1.40001
1.40001
1.40001
1.40001
1.40001
1.40001
1.40001
1.40001
1.40001
1.40001
1.40001
1.40001
1.40001
1.40001
1.40001
1.40001
1.40001
1.40001
1.40001
1.40001
1.40001
1.40001
1.40001
1.40001
1.40001
1.40001
1.40001
1.40001
1.40001
1.40001
1.40001
1.40001
1.40001
1.40001
1.40001
1.40001
1.40001
1.40001
1.40001
1.40001
1.40001
1.40001
1.40001
1.40001
1.40001
1.40001
1.40001
1.40001
1.40001
1.40001
1.40001
1.40001
1.40001
1.40001
1.40001
1.40001
1.40001
1.40001
1.40001
1.40001
1.40001
1.40001
1.40001
1.40001
1.40001
1.40001
1.40001
1.40001
1.40001
1.40001
1.40001
1.40001
1.40001
1.40001
1.40001
1.40001
1.40001
1.40001
1.40001
1.40001
1.40001
2.09548
1.4126
1.40001
1.40001
1.40001
1.40001
1.40001
1.40001
1.40001
1.40001
1.40001
1.40001
1.40001
1.40001
1.40001
1.40001
1.40001
1.40001
1.40001
1.40001
3.01359
1.59445
1.39943
1.40001
1.40001
1.40001
1.40001
1.40001
1.40001
1.40001
1.40001
1.40001
1.40001
1.40001
1.40001
1.40001
1.40001
1.40001
1.40001
1.40001
4.0435
2.1279
1.41278
1.39997
1.40001
1.40001
1.40001
1.40001
1.40001
1.40001
1.40001
1.40001
1.40001
1.40001
1.40001
1.40001
1.40001
1.40001
1.40001
1.40001
4.46717
3.08733
1.76812
1.40069
1.40001
1.40001
1.40001
1.40001
1.40001
1.40001
1.40001
1.40001
1.40001
1.40001
1.40001
1.40001
1.40001
1.40001
1.40001
1.40001
4.29953
3.70397
2.88182
1.58177
1.39975
1.4
1.40001
1.40001
1.40001
1.40001
1.40001
1.40001
1.40001
1.40001
1.40001
1.40001
1.40001
1.40001
1.40001
1.40001
3.84108
3.69591
3.56963
2.497
1.49769
1.39979
1.4
1.40001
1.40001
1.40001
1.40001
1.40001
1.40001
1.40001
1.40001
1.40001
1.40001
1.40001
1.40001
1.40001
3.4615
3.57242
3.71188
3.36142
2.06237
1.4175
1.39996
1.4
1.40001
1.40001
1.40001
1.40001
1.40001
1.40001
1.40001
1.40001
1.40001
1.40001
1.40001
1.40001
3.42662
3.50015
3.64259
3.56358
3.01889
1.70999
1.40117
1.40001
1.40001
1.40001
1.40001
1.40001
1.40001
1.40001
1.40001
1.40001
1.40001
1.40001
1.40001
1.40001
3.45162
3.48929
3.53581
3.48743
3.37749
2.49654
1.50496
1.39996
1.4
1.40001
1.40001
1.40001
1.40001
1.40001
1.40001
1.40001
1.40001
1.40001
1.40001
1.40001
3.50084
3.48483
3.44008
3.44655
3.46002
3.19077
1.93746
1.40924
1.39999
1.4
1.40001
1.40001
1.40001
1.40001
1.40001
1.40001
1.40001
1.40001
1.40001
1.40001
3.51842
3.49757
3.46242
3.46189
3.4711
3.42417
2.69144
1.56638
1.40028
1.4
1.40001
1.40001
1.40001
1.40001
1.40001
1.40001
1.40001
1.40001
1.40001
1.40001
3.53412
3.52454
3.50689
3.48546
3.44832
3.40915
3.18405
2.07975
1.42584
1.39999
1.40001
1.40001
1.40001
1.40001
1.40001
1.40001
1.40001
1.40001
1.40001
1.40001
3.54363
3.5371
3.51702
3.47633
3.42745
3.43479
3.45978
2.85702
1.62393
1.40085
1.40001
1.40001
1.40001
1.40001
1.40001
1.40001
1.40001
1.40001
1.40001
1.40001
3.5466
3.53777
3.51556
3.47654
3.44477
3.46704
3.48612
3.25616
2.18607
1.46532
1.40069
1.40001
1.40001
1.40001
1.40001
1.40001
1.40001
1.40001
1.40001
1.40001
3.54703
3.53411
3.50298
3.47804
3.47114
3.47277
3.46804
3.36497
2.77864
1.51355
1.39013
1.39915
1.4
1.4
1.40001
1.40001
1.40001
1.40001
1.40001
1.40001
1.72246
2.58837
3.05695
3.26638
3.37604
3.4322
3.45677
3.39254
3.40383
2.55182
1.63947
1.41479
1.40038
1.40001
1.40001
1.40001
1.40001
1.40001
1.40001
1.40001
0.459827
1.493
2.25541
2.73691
3.03261
3.22885
3.35822
3.39288
3.43369
3.33049
2.44109
1.61849
1.41378
1.40033
1.40001
1.40001
1.40001
1.40001
1.40001
1.40001
0.205803
0.84681
1.43462
2.01515
2.50201
2.82647
3.09842
3.26907
3.40014
3.39829
3.18552
2.27724
1.54928
1.40733
1.40015
1.40001
1.40001
1.40001
1.40001
1.40001
0.225354
0.610957
1.01419
1.41143
1.88448
2.32925
2.68269
2.98377
3.21322
3.35409
3.35254
2.99795
2.03792
1.47526
1.40246
1.40004
1.40001
1.40001
1.40001
1.40001
0.25023
0.457818
0.726836
1.09367
1.45404
1.87252
2.24489
2.62849
2.90933
3.17668
3.31368
3.26614
2.71655
1.77239
1.4263
1.40056
1.40001
1.40001
1.40001
1.40001
0.331559
0.367299
0.453718
0.806425
1.16306
1.51829
1.89262
2.24298
2.61935
2.88121
3.15842
3.24426
3.13432
2.35165
1.56479
1.40652
1.4001
1.40001
1.40001
1.40001
0.432608
0.381113
0.395959
0.618876
0.915257
1.2274
1.58179
1.89722
2.30878
2.56648
2.88431
3.15665
3.1605
2.85724
1.93875
1.44796
1.401
1.40002
1.40001
1.40001
0.47984
0.417457
0.421385
0.575688
0.771215
1.01041
1.29531
1.64942
1.99029
2.32789
2.59114
2.94117
3.12775
3.08729
2.43463
1.61262
1.4092
1.40013
1.40001
1.40001
0.473028
0.423802
0.439102
0.534985
0.657686
0.875349
1.09794
1.44973
1.76158
2.10146
2.36825
2.69993
3.01798
3.08344
2.87234
1.94966
1.45034
1.40103
1.40002
1.40001
0.449911
0.424371
0.451333
0.489458
0.547306
0.760248
0.969902
1.24317
1.57721
1.82041
2.13032
2.43022
2.78523
3.03004
3.00356
2.43826
1.59237
1.40739
1.40009
1.40001
0.444028
0.439008
0.474986
0.483801
0.499881
0.669681
0.874627
1.05978
1.39549
1.61903
1.92891
2.2212
2.54557
2.88063
2.98006
2.763
1.8981
1.43624
1.4006
1.40001
0.44307
0.462198
0.498351
0.480753
0.490347
0.627023
0.811773
0.982082
1.24575
1.51077
1.76622
2.05589
2.3611
2.71476
2.9318
2.85379
2.2664
1.53687
1.40366
1.40004
0.427889
0.462182
0.497872
0.482003
0.484264
0.585915
0.737851
0.915006
1.09858
1.38241
1.60116
1.89787
2.16148
2.50486
2.84668
2.8669
2.50742
1.70877
1.41615
1.4002
0.416322
0.456356
0.496601
0.485676
0.486265
0.557861
0.650361
0.840981
0.996912
1.24669
1.47389
1.72991
1.98736
2.28521
2.68594
2.86366
2.72585
1.96192
1.44998
1.40088
0.417137
0.440744
0.483832
0.489226
0.498089
0.551744
0.591705
0.737615
0.90428
1.08681
1.35766
1.58057
1.86748
2.13011
2.49748
2.82694
2.81872
2.32828
1.56005
1.40495
0.50669
0.450776
0.488631
0.506828
0.522359
0.557645
0.592249
0.71944
0.891467
1.04761
1.30581
1.51847
1.77852
2.04015
2.34037
2.73926
2.81705
2.50166
1.72543
1.41652
0.601243
0.49749
0.505127
0.517825
0.530025
0.554182
0.600323
0.713883
0.872595
1.01358
1.22868
1.4584
1.64651
1.91129
2.20371
2.58853
2.78753
2.63286
1.92912
1.44698
0.717098
0.587981
0.519153
0.512679
0.527146
0.53791
0.604905
0.714153
0.82514
0.981603
1.13113
1.38318
1.58282
1.79407
2.07954
2.43985
2.73252
2.7159
2.19698
1.52976
0.836207
0.719158
0.546653
0.510969
0.519732
0.519414
0.606416
0.71156
0.775132
0.951018
1.10148
1.27949
1.51775
1.72471
1.94277
2.27635
2.63553
2.71477
2.41113
1.70787
0.969666
0.862809
0.598505
0.512508
0.513153
0.51569
0.607827
0.701061
0.747175
0.891866
1.07485
1.22511
1.41221
1.63895
1.83709
2.08841
2.46461
2.67629
2.54568
1.99619
1.02427
0.982807
0.768296
0.531001
0.513504
0.517683
0.604761
0.683624
0.746513
0.86506
1.01882
1.18697
1.34189
1.52916
1.74209
1.96652
2.28988
2.60299
2.56986
2.36759
1.02666
1.09634
0.989699
0.614351
0.516648
0.522349
0.594029
0.661357
0.746921
0.864266
0.969674
1.13287
1.29433
1.45903
1.64791
1.85907
2.14238
2.49253
2.60938
2.79447
1.00568
1.09699
1.05656
0.810631
0.54324
0.527038
0.584994
0.634239
0.733241
0.849384
0.936422
1.07528
1.2365
1.39884
1.56631
1.75142
1.9978
2.34356
2.69104
3.17265
1.00827
1.07656
1.10549
1.01317
0.62766
0.526918
0.577392
0.623238
0.718169
0.817961
0.906012
1.03591
1.17642
1.33161
1.49264
1.66279
1.8612
2.18387
2.7081
3.53672
1.02993
1.08391
1.14947
1.12165
0.898565
0.605653
0.573719
0.616601
0.698085
0.767988
0.852768
0.969597
1.0801
1.21656
1.36179
1.51907
1.68894
2.01847
2.7253
3.84247
)
;

boundaryField
{
    inlet
    {
        type            calculated;
        value           uniform 1.40001;
    }
    outlet
    {
        type            calculated;
        value           nonuniform List<scalar> 
35
(
1.02988
1.08382
1.14926
1.12149
0.898618
0.605812
0.573771
0.616589
0.698126
0.768068
0.852821
0.969676
1.08031
1.21677
1.36192
1.51911
1.68901
2.01864
2.72565
3.84323
1.00504
1.01906
1.02794
0.921819
0.595567
0.555698
0.666968
0.787948
0.912094
1.07872
1.28336
1.60111
1.99915
2.13394
2.21555
)
;
    }
    airfoil
    {
        type            calculated;
        value           nonuniform List<scalar> 
60
(
0.278266
0.27595
0.272284
0.276963
0.286069
0.283313
0.25102
0.189039
0.120212
0.0872161
0.0795569
0.0810099
0.255297
0.730839
1.6486
2.89227
2.89126
2.83009
2.78826
2.77475
2.80708
2.91038
3.14104
3.38259
3.49533
3.4512
3.14519
2.75121
2.26279
1.76616
2.09548
3.01359
4.0435
4.46717
4.29953
3.84108
3.4615
3.42662
3.45162
3.50084
3.51842
3.53412
3.54363
3.5466
3.54703
1.72246
0.459827
0.205803
0.225354
0.25023
0.331559
0.432608
0.47984
0.473028
0.449911
0.444028
0.44307
0.427889
0.416322
0.417137
)
;
    }
    top
    {
        type            symmetryPlane;
    }
    bottom
    {
        type            symmetryPlane;
    }
    defaultFaces
    {
        type            empty;
    }
}


// ************************************************************************* //
