/*--------------------------------*- C++ -*----------------------------------*\
  =========                 |
  \\      /  F ield         | OpenFOAM: The Open Source CFD Toolbox
   \\    /   O peration     | Website:  https://openfoam.org
    \\  /    A nd           | Version:  7
     \\/     M anipulation  |
\*---------------------------------------------------------------------------*/
FoamFile
{
    version     2.0;
    format      ascii;
    class       volScalarField;
    location    "4";
    object      T;
}
// * * * * * * * * * * * * * * * * * * * * * * * * * * * * * * * * * * * * * //

dimensions      [0 0 0 1 0 0 0];

internalField   nonuniform List<scalar> 
32400
(
0.895061
0.904461
0.914334
0.923712
0.932675
0.941062
0.949201
0.956845
0.964402
0.971476
0.978545
0.985086
0.991625
0.997565
1.00341
1.0086
1.01359
1.01758
1.02183
1.02421
1.02641
1.02847
1.02836
1.02761
1.02642
1.02459
1.02145
1.01901
1.01912
1.01969
1.02049
1.02125
1.02208
1.02233
1.02176
1.02067
1.01964
1.01901
1.01933
1.02026
1.02105
1.02071
1.01964
1.0189
1.01903
1.01978
1.01976
1.01941
1.01895
1.01871
1.01862
1.01808
1.01701
1.01572
1.01343
1.0105
1.00898
1.00799
1.00719
1.00573
0.88689
0.887369
0.888333
0.889886
0.892041
0.894895
0.89836
0.902595
0.907395
0.913013
0.91907
0.925898
0.932986
0.940655
0.94844
0.956409
0.964455
0.972176
0.979785
0.986818
0.9935
0.999155
1.00443
1.00808
1.01112
1.01309
1.01718
1.01974
1.02157
1.02255
1.02242
1.02162
1.02104
1.01988
1.01868
1.0182
1.01827
1.01871
1.01947
1.01943
1.01932
1.01868
1.01802
1.01798
1.01851
1.01885
1.01866
1.01828
1.01806
1.01809
1.01791
1.0173
1.01639
1.01498
1.01262
1.01003
1.00849
1.00749
1.0067
1.00523
0.885439
0.885403
0.885365
0.885334
0.885316
0.885333
0.885391
0.88553
0.885782
0.88622
0.886894
0.887946
0.889444
0.891648
0.894561
0.898656
0.903714
0.910477
0.918227
0.927876
0.938369
0.950037
0.962457
0.974409
0.986951
0.997289
1.00592
1.01002
1.0129
1.01413
1.01511
1.01512
1.0141
1.01291
1.01346
1.01472
1.01633
1.01721
1.01699
1.01604
1.01514
1.01462
1.01511
1.01614
1.01635
1.01601
1.01554
1.01569
1.01598
1.01597
1.01573
1.0153
1.01447
1.01293
1.01054
1.00854
1.00698
1.00597
1.00517
1.00383
0.883527
0.883497
0.883458
0.883411
0.883357
0.883312
0.883271
0.88323
0.883185
0.88314
0.883089
0.88304
0.883004
0.883024
0.883125
0.88334
0.883713
0.884418
0.885563
0.887602
0.890627
0.895644
0.902343
0.91231
0.924132
0.939051
0.954312
0.968252
0.981553
0.989304
0.996773
1.00024
1.00299
1.00571
1.01031
1.01292
1.01459
1.01445
1.0135
1.01202
1.01064
1.01132
1.01243
1.01352
1.01299
1.01208
1.01209
1.01253
1.01302
1.01295
1.01268
1.0124
1.01172
1.00999
1.00768
1.00608
1.00476
1.00363
1.00286
1.00164
0.881945
0.881939
0.88193
0.881919
0.881907
0.881892
0.881874
0.881849
0.881821
0.881794
0.881766
0.881731
0.881701
0.881664
0.881599
0.88154
0.881472
0.881421
0.88137
0.88134
0.881383
0.881614
0.882139
0.883378
0.885592
0.890238
0.897203
0.909391
0.924094
0.942488
0.960761
0.976113
0.991318
0.999632
1.00474
1.00685
1.00908
1.00855
1.00681
1.00724
1.00858
1.00992
1.01025
1.00999
1.00939
1.00912
1.00956
1.01004
1.01015
1.01
1.00997
1.00985
1.0091
1.00717
1.00492
1.00381
1.00265
1.00136
1.00055
0.999342
0.881089
0.881088
0.881085
0.881082
0.881077
0.88107
0.881062
0.88105
0.881036
0.881022
0.881
0.880974
0.880946
0.880919
0.880888
0.88085
0.880805
0.880751
0.880693
0.880636
0.88056
0.880458
0.880367
0.880287
0.880292
0.8804
0.880815
0.882141
0.884912
0.891501
0.901551
0.918504
0.938012
0.958097
0.976401
0.985586
0.995197
0.997526
1.00197
1.00574
1.00951
1.01008
1.0095
1.0069
1.00684
1.00754
1.00868
1.00898
1.00858
1.00817
1.00845
1.00836
1.00748
1.00525
1.00339
1.0022
1.00099
0.999738
0.998923
0.997657
0.88078
0.880777
0.880774
0.880771
0.880766
0.880759
0.880757
0.880755
0.880741
0.880721
0.880701
0.880683
0.880664
0.880639
0.880608
0.880572
0.880527
0.880467
0.880396
0.880326
0.880252
0.880169
0.88007
0.87992
0.879832
0.879796
0.879793
0.879815
0.879894
0.880214
0.88112
0.883908
0.889431
0.902007
0.919166
0.942174
0.964653
0.982177
0.998373
1.00346
1.00796
1.0079
1.00603
1.00518
1.00647
1.00814
1.00834
1.00792
1.00722
1.00748
1.00804
1.00768
1.00646
1.00436
1.00285
1.00145
1.00005
0.998879
0.998089
0.996706
0.880557
0.880551
0.880543
0.880533
0.880523
0.880517
0.880513
0.8805
0.880486
0.88047
0.880455
0.880446
0.880435
0.880418
0.880392
0.880361
0.880318
0.88026
0.880194
0.880127
0.880054
0.879971
0.879876
0.87977
0.879701
0.87967
0.879649
0.879626
0.879618
0.87964
0.87973
0.879915
0.880286
0.881451
0.884295
0.892456
0.905844
0.928851
0.953558
0.972892
0.990883
0.995831
1.00076
1.00503
1.00939
1.00924
1.00826
1.00634
1.00666
1.00795
1.00823
1.00739
1.00553
1.00425
1.0029
1.00111
0.999482
0.99852
0.997798
0.996377
0.880395
0.880382
0.880367
0.880353
0.880343
0.880334
0.880323
0.880308
0.88029
0.880277
0.880277
0.880274
0.880264
0.880245
0.880223
0.880198
0.88016
0.880111
0.880067
0.88002
0.879961
0.879892
0.879821
0.879753
0.879685
0.8796
0.879518
0.879489
0.879489
0.87952
0.879612
0.879779
0.880075
0.880316
0.880502
0.880947
0.882296
0.887314
0.897616
0.919302
0.945223
0.970887
0.99409
1.00322
1.00798
1.00776
1.00471
1.00556
1.00782
1.00892
1.00821
1.00642
1.00503
1.00468
1.00328
1.00111
0.999194
0.998434
0.99768
0.9962
0.88032
0.880314
0.880311
0.880318
0.880334
0.880327
0.880314
0.880307
0.880301
0.880288
0.880259
0.880216
0.880193
0.880183
0.880173
0.880154
0.880124
0.88009
0.880068
0.880051
0.880032
0.880007
0.879968
0.879909
0.879828
0.87972
0.879596
0.879542
0.879558
0.8796
0.879659
0.879748
0.879911
0.880119
0.880316
0.880333
0.880276
0.880367
0.880958
0.884207
0.893001
0.914446
0.941852
0.96879
0.987763
0.996213
1.00057
1.00764
1.01009
1.00951
1.00679
1.00564
1.00579
1.00536
1.00348
1.00075
0.999191
0.998467
0.99753
0.996018
0.879803
0.879809
0.879819
0.879833
0.87985
0.87987
0.879895
0.879924
0.879959
0.880002
0.880051
0.880102
0.880144
0.880178
0.880207
0.880235
0.880263
0.880289
0.880316
0.880353
0.880376
0.880377
0.88037
0.88034
0.88029
0.880212
0.880096
0.879981
0.879895
0.879811
0.879742
0.879736
0.879784
0.879892
0.880029
0.88009
0.880054
0.87998
0.879778
0.879574
0.879964
0.882815
0.89182
0.913109
0.941464
0.972184
0.994747
1.00534
1.0085
1.00569
1.00497
1.00635
1.00665
1.00551
1.00277
1.00035
0.999602
0.99857
0.997206
0.995805
0.879426
0.87944
0.87946
0.879483
0.879509
0.879548
0.879598
0.879651
0.879707
0.879764
0.879832
0.879914
0.880001
0.880085
0.88017
0.880257
0.88034
0.880417
0.880489
0.880553
0.880608
0.880641
0.880642
0.880633
0.880613
0.880572
0.880485
0.880335
0.880149
0.879975
0.879832
0.87969
0.879622
0.879624
0.879713
0.879922
0.879978
0.879924
0.879817
0.879661
0.87938
0.879377
0.879937
0.882899
0.892886
0.914534
0.946033
0.97384
0.991036
0.997659
1.00475
1.00849
1.00748
1.00438
1.00211
1.00072
0.999757
0.998302
0.996891
0.995848
0.879107
0.879126
0.879149
0.879175
0.879209
0.879259
0.879316
0.879382
0.879478
0.879599
0.879706
0.87979
0.879869
0.87996
0.880062
0.880165
0.88026
0.880344
0.880416
0.880472
0.880519
0.880561
0.880584
0.880583
0.880572
0.880544
0.880469
0.880326
0.88014
0.879949
0.879743
0.879501
0.879331
0.879307
0.879336
0.879467
0.879688
0.879907
0.880018
0.880001
0.879847
0.879613
0.879495
0.879555
0.880292
0.883469
0.89539
0.919177
0.951717
0.985216
1.00147
1.00688
1.00519
1.00179
1.00174
1.00124
0.999738
0.99752
0.996598
0.995955
0.879355
0.879357
0.879364
0.879378
0.879412
0.879458
0.879466
0.87947
0.879479
0.879501
0.879547
0.879604
0.879663
0.879729
0.879808
0.879895
0.879983
0.880063
0.880127
0.880174
0.880225
0.880279
0.880266
0.880229
0.880198
0.880149
0.880044
0.879908
0.879789
0.879696
0.879584
0.879384
0.879146
0.879069
0.879088
0.879199
0.879449
0.879877
0.880146
0.880158
0.880077
0.879892
0.8796
0.879381
0.879358
0.879475
0.88041
0.884526
0.8999
0.929593
0.962193
0.986899
0.99471
0.99989
1.00309
1.00187
0.998761
0.996893
0.997054
0.996337
0.879624
0.879621
0.879615
0.879608
0.879603
0.879581
0.879564
0.879557
0.879534
0.879469
0.879386
0.879326
0.879283
0.879245
0.879235
0.879246
0.879263
0.879288
0.879326
0.879361
0.879409
0.879466
0.879446
0.879406
0.879413
0.879414
0.879365
0.879346
0.879409
0.879517
0.879572
0.879549
0.879416
0.879286
0.879237
0.879209
0.879306
0.879672
0.880009
0.880084
0.88004
0.879918
0.879614
0.879217
0.879081
0.8791
0.879246
0.879562
0.881067
0.887869
0.908691
0.940976
0.977165
0.995542
1.00139
0.999697
0.996534
0.99709
0.997506
0.996317
0.879539
0.87959
0.87965
0.879665
0.879638
0.879556
0.879446
0.879348
0.879265
0.879183
0.879093
0.878996
0.878907
0.878833
0.878752
0.878655
0.878622
0.878651
0.878722
0.878776
0.878786
0.878776
0.878745
0.87875
0.87881
0.87893
0.879073
0.879144
0.879267
0.879538
0.879836
0.880036
0.880084
0.880017
0.879808
0.879478
0.879354
0.879455
0.879575
0.879643
0.879639
0.879558
0.879342
0.879034
0.878939
0.878995
0.87926
0.879704
0.879768
0.8801
0.882417
0.893807
0.92044
0.953122
0.980612
0.98789
0.993885
0.999
0.998194
0.995623
0.879015
0.879048
0.879133
0.879179
0.879225
0.879251
0.879229
0.879151
0.879058
0.878957
0.878855
0.878771
0.878715
0.878671
0.878613
0.878523
0.87848
0.878512
0.87861
0.87874
0.87879
0.878755
0.878689
0.8787
0.878777
0.878891
0.87907
0.879159
0.879304
0.879585
0.879936
0.88026
0.880414
0.880383
0.880163
0.879694
0.879334
0.879118
0.878971
0.87892
0.878938
0.879039
0.879069
0.879009
0.879025
0.879197
0.879488
0.879711
0.879743
0.879685
0.879351
0.879992
0.884367
0.902117
0.932517
0.968479
0.989344
0.997345
0.996269
0.99397
0.878827
0.878867
0.878928
0.878977
0.879033
0.879106
0.87919
0.879284
0.879331
0.879377
0.87945
0.87944
0.879398
0.879424
0.879484
0.879487
0.879446
0.879372
0.879307
0.879252
0.87916
0.87903
0.878972
0.879044
0.879212
0.879205
0.879134
0.878976
0.878965
0.879118
0.879464
0.879854
0.880015
0.879985
0.87976
0.879284
0.878945
0.878737
0.878563
0.878522
0.878577
0.878786
0.879093
0.879329
0.87954
0.879689
0.879683
0.879669
0.879599
0.879378
0.878945
0.878199
0.877749
0.87927
0.88865
0.914206
0.947496
0.975536
0.984839
0.992052
0.880014
0.880134
0.880259
0.880379
0.880488
0.880601
0.880754
0.880919
0.880967
0.880943
0.880944
0.880952
0.880674
0.880358
0.880299
0.88032
0.88033
0.880313
0.880238
0.880114
0.880021
0.879955
0.879923
0.879882
0.879769
0.879568
0.879259
0.878671
0.878048
0.878014
0.878066
0.87832
0.878634
0.87865
0.878556
0.878413
0.878372
0.878341
0.878355
0.878395
0.878541
0.878925
0.879255
0.879548
0.879822
0.879838
0.879697
0.879335
0.879023
0.878715
0.878462
0.877891
0.877275
0.876536
0.876938
0.88081
0.897311
0.928254
0.964542
0.989553
0.881491
0.881771
0.882003
0.882134
0.882162
0.882142
0.882084
0.882059
0.882023
0.881784
0.881652
0.881578
0.881138
0.880283
0.879655
0.879475
0.879375
0.879312
0.879288
0.879246
0.879041
0.878878
0.878992
0.879282
0.879379
0.879282
0.879007
0.878638
0.877952
0.877569
0.877552
0.877745
0.878001
0.878026
0.878038
0.878096
0.878255
0.878734
0.879238
0.879385
0.879456
0.879408
0.879245
0.879301
0.87946
0.879407
0.879095
0.878576
0.878319
0.878188
0.878148
0.877848
0.877589
0.877088
0.876293
0.875433
0.8764
0.885413
0.90875
0.958149
0.884327
0.884345
0.884484
0.884553
0.88452
0.88437
0.884141
0.883918
0.883709
0.883307
0.88287
0.882756
0.88252
0.881816
0.880774
0.88043
0.880421
0.88047
0.880699
0.880885
0.880853
0.880836
0.881032
0.881407
0.881424
0.881361
0.881636
0.882074
0.881922
0.881771
0.881613
0.881088
0.879956
0.879143
0.879015
0.879069
0.879519
0.88029
0.880887
0.881066
0.880995
0.880302
0.879045
0.878598
0.878577
0.878545
0.878421
0.878134
0.877945
0.877916
0.878002
0.878223
0.878026
0.877233
0.875999
0.874744
0.873239
0.873347
0.876955
0.912754
0.899939
0.899846
0.899786
0.899538
0.899048
0.898958
0.898801
0.898271
0.897935
0.897769
0.897357
0.89653
0.89623
0.895928
0.894925
0.893595
0.89324
0.893176
0.89312
0.892716
0.891604
0.891337
0.890993
0.890187
0.889944
0.889986
0.889998
0.890089
0.890435
0.890433
0.889992
0.888847
0.887073
0.885062
0.88362
0.883034
0.882821
0.882509
0.881919
0.881636
0.881232
0.880073
0.878647
0.878303
0.87838
0.878451
0.878417
0.878291
0.878308
0.878533
0.879148
0.878948
0.878164
0.876867
0.875139
0.873813
0.872923
0.872102
0.871361
0.880239
0.916034
0.915581
0.915614
0.915498
0.915371
0.915539
0.915482
0.914868
0.914729
0.914723
0.914514
0.914596
0.914702
0.914393
0.913598
0.91281
0.912688
0.912498
0.911917
0.910931
0.909876
0.90867
0.907356
0.905973
0.904546
0.90327
0.901591
0.898919
0.898145
0.897963
0.896971
0.895312
0.894527
0.894349
0.893896
0.892635
0.890822
0.88884
0.886502
0.884678
0.884331
0.883938
0.883529
0.882834
0.881971
0.88143
0.881579
0.881827
0.881645
0.881213
0.88064
0.879708
0.878021
0.876126
0.874488
0.873573
0.872868
0.872933
0.872556
0.871927
0.945198
0.944812
0.944429
0.943953
0.943511
0.943147
0.942766
0.942205
0.941742
0.941254
0.940168
0.939444
0.938878
0.938072
0.93691
0.935733
0.935357
0.934918
0.933344
0.932109
0.932099
0.931738
0.930511
0.929507
0.928798
0.927758
0.926271
0.924395
0.92269
0.920855
0.918803
0.915914
0.912932
0.912447
0.912252
0.910562
0.908739
0.907269
0.904818
0.901427
0.899463
0.898442
0.897014
0.894782
0.892456
0.890104
0.888168
0.8863
0.884656
0.882636
0.880721
0.87895
0.877645
0.876124
0.874799
0.8745
0.874585
0.874401
0.873376
0.870447
0.974999
0.974604
0.974358
0.97408
0.973588
0.973052
0.972618
0.971971
0.971039
0.970816
0.970641
0.970116
0.969089
0.968135
0.967422
0.966588
0.965548
0.964393
0.963203
0.961972
0.960614
0.959263
0.957753
0.955933
0.954233
0.952721
0.950705
0.948055
0.946821
0.945716
0.944103
0.942045
0.93964
0.93751
0.935073
0.930355
0.927389
0.925625
0.923232
0.921005
0.917585
0.913947
0.910881
0.907946
0.9045
0.901306
0.898322
0.895278
0.892235
0.889148
0.886864
0.884501
0.882839
0.881088
0.879987
0.878982
0.877674
0.876289
0.873666
0.870052
1.0077
1.00695
1.00642
1.00633
1.0061
1.00553
1.00482
1.00414
1.00339
1.00268
1.00192
1.00113
1.00033
0.999332
0.998373
0.997366
0.996256
0.995117
0.993782
0.992542
0.99125
0.98986
0.988472
0.986804
0.98502
0.983313
0.981485
0.979428
0.977236
0.97482
0.972325
0.969744
0.967004
0.964479
0.962279
0.959498
0.956341
0.952937
0.948308
0.945432
0.9429
0.939372
0.934909
0.931283
0.927715
0.924007
0.920199
0.916507
0.912395
0.908301
0.90404
0.899653
0.895102
0.890363
0.886347
0.882216
0.879132
0.876035
0.874089
0.871358
1.04193
1.04148
1.04084
1.04029
1.03988
1.03935
1.03854
1.03781
1.03721
1.03654
1.03574
1.03467
1.0338
1.03294
1.03178
1.03068
1.0295
1.02829
1.02704
1.02549
1.02394
1.02238
1.02066
1.01892
1.01704
1.01503
1.01298
1.01078
1.0085
1.0061
1.00356
1.00092
0.998043
0.995007
0.991699
0.988258
0.984638
0.981284
0.977906
0.97396
0.96916
0.965184
0.961187
0.956415
0.951733
0.947054
0.942106
0.937075
0.93175
0.926475
0.920655
0.914935
0.908803
0.902988
0.897312
0.891849
0.887837
0.883382
0.881522
0.878505
1.07665
1.07624
1.07563
1.07502
1.07451
1.07385
1.07308
1.07252
1.07195
1.07119
1.07008
1.0691
1.06834
1.06745
1.06614
1.06488
1.06381
1.06254
1.06119
1.05969
1.05794
1.05623
1.05454
1.05261
1.05061
1.0485
1.0463
1.04401
1.04153
1.03899
1.03613
1.03318
1.03006
1.02675
1.02346
1.01976
1.01611
1.01214
1.00751
1.00362
0.99953
0.994528
0.989822
0.984968
0.97983
0.974423
0.969034
0.963443
0.957795
0.951791
0.945657
0.939322
0.932779
0.926488
0.919836
0.913732
0.907068
0.900723
0.894772
0.886116
1.10751
1.10719
1.10671
1.10604
1.10557
1.10513
1.10459
1.10406
1.10353
1.10279
1.1019
1.10126
1.10058
1.09962
1.09862
1.09766
1.09662
1.09547
1.09427
1.09294
1.09143
1.08987
1.0882
1.08636
1.08433
1.08221
1.07989
1.07747
1.07495
1.0723
1.06954
1.06647
1.06336
1.05997
1.05636
1.05261
1.04849
1.04436
1.03991
1.0351
1.03022
1.02533
1.02027
1.01493
1.00927
1.0034
0.997394
0.991109
0.984787
0.977938
0.97095
0.963453
0.956003
0.948144
0.940587
0.932803
0.925194
0.917419
0.910281
0.899405
1.12796
1.12777
1.12751
1.12726
1.12693
1.12659
1.1264
1.12619
1.12574
1.12537
1.12507
1.12465
1.12413
1.12357
1.12301
1.12239
1.12168
1.1209
1.12007
1.11914
1.11814
1.11715
1.11609
1.11483
1.1134
1.11176
1.10991
1.10792
1.10579
1.10366
1.10126
1.09864
1.09582
1.09269
1.0893
1.0856
1.08178
1.07775
1.07294
1.06785
1.06267
1.05719
1.05181
1.04644
1.04045
1.03409
1.0274
1.02074
1.01369
1.00651
0.998774
0.990886
0.982741
0.974475
0.966307
0.958166
0.950318
0.942083
0.934881
0.922646
1.13185
1.13189
1.13192
1.13193
1.13196
1.13197
1.13191
1.13188
1.13189
1.13186
1.13182
1.1318
1.13181
1.13183
1.13181
1.13174
1.13161
1.13147
1.13127
1.13094
1.13086
1.13086
1.13069
1.13031
1.12989
1.12931
1.12856
1.1276
1.12637
1.12509
1.12369
1.12209
1.12043
1.1186
1.11641
1.11375
1.111
1.10826
1.10484
1.10027
1.09503
1.08967
1.08422
1.07853
1.07256
1.06612
1.05911
1.05171
1.04411
1.03632
1.02816
1.01957
1.01068
1.00176
0.992705
0.983844
0.974875
0.965685
0.957245
0.943204
1.13071
1.1307
1.1307
1.13069
1.13064
1.13062
1.13068
1.13071
1.1307
1.13077
1.13091
1.13089
1.13086
1.13098
1.13101
1.131
1.13111
1.13115
1.13115
1.13129
1.13133
1.13127
1.13135
1.13151
1.13169
1.13187
1.13192
1.13187
1.13169
1.13143
1.13115
1.13081
1.13052
1.13021
1.12944
1.1282
1.12743
1.12677
1.12563
1.12363
1.12101
1.11776
1.11366
1.10895
1.10372
1.09788
1.09139
1.08409
1.07619
1.06778
1.05909
1.04985
1.04031
1.03055
1.02096
1.01137
1.00188
0.992075
0.983175
0.968541
1.12397
1.1241
1.12428
1.12449
1.12467
1.12482
1.12496
1.12512
1.12529
1.12556
1.12593
1.12606
1.12619
1.12653
1.12668
1.12669
1.12685
1.12688
1.12689
1.12723
1.12737
1.12749
1.12785
1.12834
1.12897
1.12932
1.12946
1.12974
1.1299
1.1299
1.13008
1.13044
1.13047
1.13041
1.13046
1.1304
1.13028
1.13002
1.12981
1.12977
1.12967
1.1293
1.12847
1.12703
1.1249
1.12198
1.11821
1.11343
1.1073
1.09995
1.09146
1.08207
1.07197
1.06149
1.05096
1.04046
1.03018
1.01956
1.00998
0.994014
1.09057
1.09089
1.09138
1.09195
1.0925
1.09313
1.09403
1.09459
1.09494
1.0955
1.0965
1.09749
1.09812
1.09896
1.09997
1.10085
1.10189
1.10291
1.10394
1.10514
1.10624
1.1075
1.1089
1.11036
1.11188
1.1132
1.11453
1.11585
1.11701
1.11821
1.11973
1.12098
1.12196
1.12302
1.12405
1.12509
1.12652
1.12767
1.12772
1.12783
1.12829
1.12877
1.12877
1.1287
1.12856
1.12827
1.12772
1.12682
1.12528
1.12252
1.11812
1.11189
1.10374
1.09409
1.08336
1.07216
1.06081
1.04917
1.03864
1.02135
1.03215
1.03253
1.03288
1.03334
1.03401
1.0347
1.03533
1.03614
1.03692
1.0376
1.03842
1.03964
1.04066
1.0416
1.04282
1.04419
1.04562
1.04714
1.04876
1.05052
1.05247
1.05449
1.05669
1.059
1.06145
1.06406
1.06678
1.06969
1.07275
1.07601
1.07941
1.08314
1.0867
1.09043
1.09423
1.09779
1.10173
1.10528
1.10847
1.11245
1.11522
1.11776
1.12053
1.12241
1.12405
1.12557
1.12625
1.12655
1.12645
1.12618
1.12554
1.12412
1.12172
1.11753
1.11126
1.10297
1.09296
1.0815
1.07043
1.0516
1.00295
1.00303
1.00311
1.00322
1.00333
1.00343
1.00357
1.00373
1.0039
1.00407
1.00425
1.00448
1.00474
1.00501
1.0053
1.00565
1.00605
1.00648
1.00698
1.00755
1.00819
1.00892
1.00974
1.01067
1.01173
1.01294
1.01433
1.01594
1.01779
1.0199
1.02233
1.02507
1.02824
1.03172
1.03573
1.04016
1.04503
1.05053
1.05635
1.06254
1.06928
1.07606
1.08294
1.08996
1.09656
1.10273
1.10825
1.11327
1.11723
1.11975
1.12223
1.12265
1.12202
1.12085
1.1191
1.1164
1.11279
1.10717
1.10004
1.08391
1.00006
1.00006
1.00006
1.00007
1.00007
1.00007
1.00008
1.00008
1.00009
1.0001
1.0001
1.00011
1.00012
1.00013
1.00014
1.00016
1.00017
1.00019
1.00021
1.00024
1.00027
1.00031
1.00036
1.00042
1.00049
1.00058
1.00069
1.00082
1.00099
1.00121
1.00149
1.00183
1.00229
1.00287
1.00362
1.00458
1.00586
1.00745
1.00958
1.0122
1.01562
1.01978
1.02506
1.03124
1.03868
1.04705
1.05641
1.0662
1.07663
1.08635
1.09582
1.10345
1.10931
1.11367
1.11554
1.11504
1.11359
1.11181
1.10947
1.10305
1
1
1
1
1
1
1
1
1
1
1
1
1
1
1
1
1
1
1
1
1
1
1
1
1.00001
1.00001
1.00001
1.00001
1.00001
1.00002
1.00002
1.00003
1.00004
1.00006
1.00008
1.00011
1.00016
1.00024
1.00035
1.00052
1.00079
1.00119
1.00183
1.00278
1.00426
1.0064
1.00961
1.01408
1.02026
1.02843
1.03835
1.05027
1.06294
1.07538
1.08664
1.09552
1.10163
1.10487
1.10585
1.10356
1
1
1
1
1
1
1
1
1
1
1
1
1
1
1
1
1
1
1
1
1
1
1
1
1
1
1
1
1
1
1
1
1
1
1
1
1
1
1
1.00001
1.00001
1.00002
1.00003
1.00006
1.0001
1.00019
1.00036
1.00067
1.00126
1.00235
1.00424
1.00757
1.01273
1.02054
1.03093
1.04343
1.05699
1.06985
1.07998
1.09044
1
1
1
1
1
1
1
1
1
1
1
1
1
1
1
1
1
1
1
1
1
1
1
1
1
1
1
1
1
1
1
1
1
1
1
1
1
1
1
1
1
1
1
1
1
1
1
1.00001
1.00002
1.00004
1.00011
1.00025
1.00059
1.00134
1.00291
1.00594
1.01112
1.01926
1.02891
1.04837
1
1
1
1
1
1
1
1
1
1
1
1
1
1
1
1
1
1
1
1
1
1
1
1
1
1
1
1
1
1
1
1
1
1
1
1
1
1
1
1
1
1
1
1
1
1
1
1
1
1
1
1
1.00001
1.00002
1.00006
1.00019
1.0005
1.00132
1.00283
1.0094
1
1
1
1
1
1
1
1
1
1
1
1
1
1
1
1
1
1
1
1
1
1
1
1
1
1
1
1
1
1
1
1
1
1
1
1
1
1
1
1
1
1
1
1
1
1
1
1
1
1
1
1
1
1
1
1
1.00001
1.00002
1.00007
1.0005
1
1
1
1
1
1
1
1
1
1
1
1
1
1
1
1
1
1
1
1
1
1
1
1
1
1
1
1
1
1
1
1
1
1
1
1
1
1
1
1
1
1
1
1
1
1
1
1
1
1
1
1
1
1
1
1
1
1
1
1.00001
1
1
1
1
1
1
1
1
1
1
1
1
1
1
1
1
1
1
1
1
1
1
1
1
1
1
1
1
1
1
1
1
1
1
1
1
1
1
1
1
1
1
1
1
1
1
1
1
1
1
1
1
1
1
1
1
1
1
1
1
1
1
1
1
1
1
1
1
1
1
1
1
1
1
1
1
1
1
1
1
1
1
1
1
1
1
1
1
1
1
1
1
1
1
1
1
1
1
1
1
1
1
1
1
1
1
1
1
1
1
1
1
1
1
1
1
1
1
1
1
0.887182
0.886726
0.885475
0.883549
0.88195
0.881091
0.880781
0.880559
0.880399
0.880329
0.879797
0.879411
0.87909
0.879358
0.879637
0.879525
0.87901
0.878785
0.879845
0.881366
0.884445
0.900237
0.917065
0.94578
0.975693
1.00838
1.04256
1.07715
1.10793
1.12803
1.13181
1.13066
1.12386
1.09013
1.03144
1.00284
1.00006
1
1
1
1
1
1
1
1
0.887198
0.886729
0.885456
0.883526
0.881929
0.881083
0.880774
0.880551
0.88039
0.880332
0.879785
0.879388
0.879073
0.879374
0.879673
0.879529
0.879015
0.878736
0.879633
0.881372
0.884979
0.900878
0.917979
0.946675
0.976596
1.00939
1.04355
1.07797
1.10857
1.12806
1.13177
1.13056
1.12371
1.08923
1.03049
1.00268
1.00005
1
1
1
1
1
1
1
1
0.887203
0.886725
0.885449
0.88352
0.881921
0.881082
0.880762
0.880535
0.880385
0.880338
0.879778
0.879369
0.87906
0.879401
0.879731
0.879568
0.87903
0.878689
0.879413
0.881525
0.885674
0.901515
0.918685
0.947506
0.977393
1.01033
1.04446
1.07893
1.10923
1.12806
1.13172
1.13057
1.12345
1.08814
1.02963
1.00254
1.00005
1
1
1
1
1
1
1
1
0.887204
0.886718
0.885444
0.883513
0.881912
0.881081
0.880747
0.880522
0.880388
0.880344
0.879775
0.879353
0.879051
0.879436
0.879818
0.879653
0.87908
0.87864
0.879216
0.881646
0.886294
0.9021
0.919313
0.948363
0.978155
1.0112
1.04531
1.07999
1.11
1.12828
1.13166
1.13068
1.12291
1.08719
1.0288
1.00241
1.00004
1
1
1
1
1
1
1
1
0.887189
0.886718
0.885444
0.883505
0.8819
0.881077
0.88073
0.880512
0.880396
0.880352
0.879775
0.87934
0.879047
0.879472
0.87991
0.8798
0.879155
0.878589
0.879052
0.881629
0.886861
0.902539
0.919629
0.949198
0.978914
1.01205
1.04615
1.08095
1.11075
1.12866
1.13158
1.13075
1.12246
1.08631
1.02797
1.00227
1.00004
1
1
1
1
1
1
1
1
0.887177
0.886719
0.885449
0.883497
0.881887
0.881063
0.880712
0.880502
0.880408
0.880361
0.879775
0.879331
0.879045
0.879502
0.879997
0.879925
0.879208
0.878536
0.878916
0.881531
0.887153
0.902866
0.919792
0.950056
0.9798
1.01294
1.04719
1.08193
1.11145
1.12894
1.13156
1.13079
1.12208
1.08528
1.02703
1.00213
1.00004
1
1
1
1
1
1
1
1
0.88717
0.886716
0.885452
0.883492
0.881872
0.881047
0.880692
0.880492
0.880422
0.88037
0.879776
0.879323
0.879044
0.879529
0.880075
0.879997
0.879234
0.878484
0.8788
0.881417
0.887162
0.903161
0.920718
0.950985
0.980833
1.01399
1.04842
1.08298
1.11218
1.12913
1.13157
1.13088
1.12167
1.08406
1.02604
1.00199
1.00003
1
1
1
1
1
1
1
1
0.887166
0.886704
0.88545
0.883486
0.881854
0.881028
0.88067
0.880484
0.880434
0.88038
0.879776
0.879316
0.879042
0.879555
0.880145
0.880017
0.879228
0.87842
0.878685
0.881276
0.886944
0.903552
0.922597
0.951985
0.981984
1.01516
1.0496
1.08408
1.11297
1.12924
1.13161
1.13098
1.12124
1.08285
1.02508
1.00186
1.00003
1
1
1
1
1
1
1
1
0.887164
0.886695
0.885431
0.883476
0.881835
0.881007
0.880646
0.880476
0.880447
0.88039
0.879776
0.879308
0.879036
0.87958
0.880207
0.880013
0.879202
0.878315
0.878561
0.881126
0.886837
0.904327
0.923753
0.953001
0.983147
1.01629
1.05077
1.08521
1.11377
1.12928
1.13164
1.13097
1.12079
1.08166
1.02413
1.00173
1.00003
1
1
1
1
1
1
1
1
0.887166
0.886681
0.885413
0.883462
0.881821
0.880986
0.880621
0.88047
0.88046
0.880399
0.879776
0.879304
0.879031
0.879607
0.880254
0.880033
0.87917
0.878162
0.878422
0.880915
0.887033
0.905192
0.924609
0.953994
0.9842
1.01738
1.05204
1.0864
1.11455
1.12933
1.13164
1.13093
1.12033
1.08039
1.02313
1.0016
1.00003
1
1
1
1
1
1
1
1
0.887183
0.886663
0.885384
0.88345
0.881812
0.880966
0.880598
0.880464
0.880469
0.88041
0.879789
0.879308
0.879042
0.879646
0.880289
0.880072
0.879087
0.877982
0.878269
0.880727
0.887571
0.90549
0.925549
0.954997
0.985238
1.01858
1.05338
1.08761
1.11534
1.12954
1.1316
1.13106
1.11986
1.079
1.02212
1.00148
1.00002
1
1
1
1
1
1
1
1
0.887203
0.886649
0.885337
0.883436
0.881803
0.880946
0.880578
0.880461
0.880477
0.880435
0.879822
0.879339
0.879093
0.879703
0.880314
0.880087
0.878957
0.877783
0.878112
0.88068
0.88815
0.905242
0.926688
0.956016
0.986383
1.01996
1.05471
1.0888
1.11617
1.1298
1.13154
1.13116
1.11935
1.07754
1.0211
1.00136
1.00002
1
1
1
1
1
1
1
1
0.887209
0.886639
0.885284
0.883421
0.881791
0.880926
0.880559
0.880462
0.880497
0.880465
0.879861
0.879391
0.879172
0.879775
0.880333
0.880089
0.878835
0.877575
0.877966
0.880835
0.888744
0.904713
0.928
0.957109
0.987764
1.02145
1.05601
1.09005
1.11703
1.12998
1.13152
1.13111
1.11869
1.07606
1.02008
1.00124
1.00002
1
1
1
1
1
1
1
1
0.88721
0.886625
0.885235
0.883407
0.881777
0.880906
0.880543
0.880469
0.880534
0.880488
0.879902
0.879449
0.879261
0.879852
0.880352
0.880085
0.878724
0.877376
0.877845
0.881151
0.889274
0.904756
0.929273
0.958337
0.989261
1.02288
1.05736
1.09142
1.11789
1.13012
1.13153
1.13109
1.11786
1.07456
1.01905
1.00113
1.00002
1
1
1
1
1
1
1
1
0.88718
0.886604
0.885198
0.883389
0.88177
0.880892
0.880528
0.880478
0.880556
0.880505
0.879953
0.879509
0.879352
0.879921
0.88037
0.880082
0.878636
0.877205
0.877766
0.881555
0.889821
0.905567
0.93067
0.95961
0.990682
1.02428
1.05889
1.09285
1.11875
1.13025
1.13157
1.13121
1.11695
1.07297
1.01801
1.00103
1.00001
1
1
1
1
1
1
1
1
0.887153
0.886583
0.885172
0.88337
0.881771
0.880884
0.880514
0.880479
0.880564
0.88052
0.880013
0.879576
0.879434
0.879962
0.880377
0.880093
0.878592
0.877077
0.877743
0.882111
0.890752
0.907327
0.932306
0.960834
0.992093
1.02573
1.06059
1.09425
1.11961
1.1304
1.13162
1.13116
1.11598
1.07124
1.01697
1.00093
1.00001
1
1
1
1
1
1
1
1
0.887124
0.886557
0.885151
0.883357
0.881771
0.880881
0.880503
0.880471
0.880565
0.880539
0.880083
0.879648
0.879501
0.87997
0.880377
0.880127
0.87858
0.877005
0.877751
0.882918
0.892103
0.909371
0.933907
0.962009
0.993583
1.02731
1.06232
1.09564
1.12049
1.13058
1.13173
1.13085
1.11497
1.0694
1.01593
1.00083
1.00001
1
1
1
1
1
1
1
1
0.887087
0.886525
0.885133
0.883349
0.881771
0.88088
0.880497
0.880464
0.880567
0.880568
0.880162
0.879722
0.879552
0.879965
0.880376
0.880155
0.878583
0.876983
0.877834
0.884101
0.893344
0.910528
0.935358
0.963212
0.995201
1.02902
1.06399
1.09706
1.12139
1.13075
1.13194
1.13057
1.114
1.06749
1.01489
1.00074
1.00001
1
1
1
1
1
1
1
1
0.887041
0.886492
0.885118
0.883345
0.88178
0.88088
0.880495
0.880462
0.880577
0.880604
0.880248
0.879795
0.879588
0.879956
0.880348
0.88017
0.878624
0.876986
0.878189
0.885509
0.894246
0.910859
0.93668
0.964586
0.996919
1.0308
1.06567
1.0986
1.1223
1.13091
1.13217
1.13041
1.11313
1.06549
1.01384
1.00065
1.00001
1
1
1
1
1
1
1
1
0.886993
0.886455
0.885104
0.883343
0.881797
0.880886
0.880496
0.880462
0.880592
0.880645
0.880337
0.879863
0.87962
0.879939
0.880328
0.880214
0.878681
0.877033
0.878577
0.886698
0.894768
0.910692
0.93794
0.966132
0.998699
1.03263
1.06751
1.10021
1.1232
1.13104
1.13241
1.13026
1.11228
1.06341
1.0128
1.00057
1.00001
1
1
1
1
1
1
1
1
0.886946
0.886415
0.885093
0.883344
0.881827
0.880896
0.880498
0.880474
0.880614
0.880689
0.880425
0.879928
0.879648
0.879878
0.880328
0.880251
0.878774
0.877236
0.878692
0.887302
0.895011
0.910578
0.939288
0.967701
1.00053
1.03454
1.06951
1.10179
1.12409
1.13114
1.13265
1.13002
1.1114
1.06124
1.01178
1.0005
1.00001
1
1
1
1
1
1
1
1
0.886898
0.886375
0.885086
0.883372
0.881859
0.880906
0.880498
0.880501
0.880653
0.880737
0.880502
0.880001
0.879673
0.879759
0.880303
0.880234
0.878808
0.877358
0.878588
0.887397
0.895113
0.911605
0.940827
0.969331
1.00245
1.03658
1.07154
1.10338
1.12499
1.13129
1.13283
1.1297
1.11043
1.05894
1.01077
1.00043
1
1
1
1
1
1
1
1
1
0.886852
0.886339
0.885084
0.883393
0.881882
0.880913
0.880497
0.880541
0.880713
0.880788
0.880562
0.88008
0.879695
0.879661
0.8801
0.880122
0.878781
0.877357
0.87851
0.88731
0.895217
0.913708
0.942498
0.971236
1.00451
1.03876
1.07359
1.10504
1.12588
1.13154
1.1329
1.12934
1.10935
1.05652
1.00979
1.00037
1
1
1
1
1
1
1
1
1
0.886802
0.88631
0.885083
0.883403
0.881897
0.880922
0.880515
0.880596
0.880783
0.880833
0.880613
0.880159
0.879708
0.879612
0.879866
0.879924
0.878762
0.877353
0.878762
0.887679
0.8955
0.915977
0.944201
0.973447
1.00669
1.04105
1.07571
1.10679
1.12671
1.13181
1.13289
1.1289
1.10802
1.05403
1.00886
1.00032
1
1
1
1
1
1
1
1
1
0.886747
0.886294
0.885079
0.883411
0.881913
0.880938
0.880565
0.880659
0.880846
0.880868
0.880657
0.880231
0.879711
0.879589
0.879704
0.879705
0.878752
0.877565
0.879372
0.888567
0.896154
0.918284
0.945898
0.975752
1.00893
1.04337
1.07797
1.10856
1.12748
1.13205
1.13272
1.12822
1.10638
1.05149
1.00797
1.00027
1
1
1
1
1
1
1
1
1
0.886695
0.886286
0.885077
0.883421
0.881935
0.880975
0.88062
0.880716
0.880886
0.880891
0.880689
0.880298
0.879713
0.879513
0.87958
0.879586
0.878828
0.878146
0.879911
0.889152
0.897456
0.920371
0.947534
0.978036
1.0112
1.0458
1.08037
1.11034
1.1282
1.13223
1.13249
1.12723
1.10448
1.04892
1.00712
1.00023
1
1
1
1
1
1
1
1
1
0.886649
0.886287
0.885089
0.883447
0.881963
0.881017
0.880683
0.880769
0.880904
0.880899
0.880706
0.880356
0.879714
0.879373
0.879447
0.879549
0.879171
0.878566
0.880282
0.889337
0.898271
0.922148
0.949103
0.980373
1.01362
1.04838
1.08284
1.11216
1.12885
1.13233
1.13246
1.12625
1.1024
1.04625
1.00631
1.00019
1
1
1
1
1
1
1
1
1
0.886615
0.886302
0.885126
0.883493
0.88199