/*--------------------------------*- C++ -*----------------------------------*\
  =========                 |
  \\      /  F ield         | OpenFOAM: The Open Source CFD Toolbox
   \\    /   O peration     | Website:  https://openfoam.org
    \\  /    A nd           | Version:  7
     \\/     M anipulation  |
\*---------------------------------------------------------------------------*/
FoamFile
{
    version     2.0;
    format      ascii;
    class       volScalarField;
    location    "1.5";
    object      rho;
}
// * * * * * * * * * * * * * * * * * * * * * * * * * * * * * * * * * * * * * //

dimensions      [1 -3 0 0 0 0 0];

internalField   nonuniform List<scalar> 
11200
(
0.182
0.257894
0.346037
0.428321
0.511581
0.593307
0.669887
0.733451
0.751993
0.772144
0.813984
0.842736
0.862299
0.894179
1.0182
1.10219
1.14541
1.20019
1.26549
1.33387
1.3524
1.27693
1.21409
1.21682
1.25822
1.27219
1.26889
1.23624
1.19643
1.18648
0.120497
0.122976
0.136296
0.1732
0.224486
0.323212
0.452221
0.577389
0.693686
0.775417
0.824023
0.84902
0.843713
0.847944
0.938332
1.01217
1.06359
1.14587
1.24065
1.32945
1.32979
1.2574
1.17232
1.15744
1.1977
1.21126
1.19975
1.17797
1.14854
1.14712
0.132484
0.135135
0.138181
0.140913
0.144172
0.147608
0.168438
0.223736
0.34348
0.51179
0.639697
0.787857
0.819548
0.81268
0.871557
0.910101
1.00447
1.17493
1.27569
1.31456
1.30257
1.23736
1.14204
1.10657
1.12201
1.13877
1.12103
1.09901
1.06972
1.08564
0.141326
0.143541
0.145978
0.149172
0.152426
0.155591
0.157481
0.158855
0.15918
0.179384
0.249994
0.428487
0.636275
0.69718
0.747211
0.783312
0.930365
1.22775
1.32371
1.32631
1.30733
1.23149
1.12712
1.08832
1.08923
1.07751
1.05271
1.04041
1.03173
1.06028
0.151264
0.152214
0.153741
0.15602
0.158283
0.15945
0.160362
0.160563
0.160292
0.158803
0.156847
0.158316
0.226428
0.39583
0.53106
0.597606
0.703788
0.966384
1.17801
1.30513
1.31089
1.23674
1.13201
1.09635
1.09579
1.08166
1.05122
1.03357
1.02012
1.04468
0.157352
0.1576
0.158322
0.159398
0.16015
0.160191
0.159867
0.159082
0.157563
0.155355
0.153559
0.153431
0.154099
0.164312
0.213249
0.228734
0.23448
0.315141
0.551572
0.957341
1.24776
1.22957
1.14282
1.12131
1.12669
1.10134
1.04424
1.02022
1.01561
1.0703
0.156935
0.157289
0.157899
0.158332
0.158301
0.158019
0.157356
0.156202
0.154401
0.152784
0.152413
0.152576
0.153845
0.155949
0.159883
0.170302
0.198945
0.260353
0.312122
0.398435
0.732861
1.1436
1.16553
1.16739
1.16714
1.14467
1.09223
1.06022
1.05341
1.09352
0.155494
0.156606
0.157696
0.157813
0.157743
0.157479
0.156912
0.155862
0.154144
0.15386
0.154726
0.155706
0.158244
0.161782
0.165522
0.172972
0.198154
0.253214
0.31597
0.348421
0.36642
0.628028
1.05178
1.21897
1.24776
1.20916
1.14666
1.1021
1.09717
1.12678
0.152835
0.155112
0.157013
0.158073
0.159018
0.15998
0.161053
0.161644
0.16197
0.163001
0.165135
0.168274
0.172696
0.178032
0.18468
0.1953
0.216173
0.260634
0.322141
0.369778
0.387704
0.410344
0.623653
1.02934
1.19394
1.20528
1.18854
1.14975
1.14138
1.15481
0.156198
0.158468
0.161235
0.1646
0.167807
0.17063
0.174282
0.176403
0.17607
0.176125
0.177149
0.180311
0.185699
0.193027
0.20368
0.220065
0.250012
0.29737
0.351116
0.392174
0.419211
0.445424
0.462075
0.550995
0.79754
1.04775
1.12755
1.12773
1.13109
1.14708
0.171893
0.173331
0.176372
0.180576
0.184103
0.188043
0.192641
0.19353
0.191727
0.191509
0.193121
0.197104
0.204341
0.213789
0.224188
0.239201
0.26638
0.308074
0.359207
0.400654
0.42946
0.460039
0.490978
0.496637
0.503167
0.580012
0.737982
0.905481
1.02925
1.10663
0.190896
0.193284
0.197715
0.20356
0.209395
0.214934
0.222512
0.227992
0.230385
0.231972
0.233901
0.237603
0.24374
0.249343
0.254522
0.2625
0.277225
0.307816
0.355426
0.402986
0.434417
0.464902
0.503692
0.516058
0.52766
0.533904
0.533344
0.565488
0.667143
0.895279
0.22714
0.228944
0.231889
0.237329
0.245847
0.255187
0.263468
0.266855
0.266321
0.26317
0.262179
0.264393
0.272153
0.281815
0.291064
0.301797
0.319183
0.346957
0.384678
0.431373
0.468109
0.488908
0.516378
0.556116
0.574494
0.577368
0.574892
0.568418
0.570468
0.652855
0.271221
0.272357
0.274061
0.276481
0.28185
0.291125
0.297945
0.299428
0.298123
0.293798
0.294005
0.298309
0.308753
0.320741
0.330629
0.342987
0.364155
0.399361
0.445677
0.490301
0.52625
0.55307
0.574613
0.599168
0.611225
0.614009
0.60929
0.600162
0.60635
0.655743
0.326685
0.327362
0.328034
0.329043
0.331505
0.336311
0.344294
0.352933
0.355082
0.354369
0.353753
0.354586
0.358288
0.365969
0.374235
0.382826
0.397979
0.427618
0.467606
0.510776
0.550991
0.581622
0.611865
0.639708
0.647488
0.649498
0.646405
0.634517
0.636283
0.679699
0.39183
0.391002
0.390752
0.390845
0.391174
0.392455
0.395753
0.403608
0.409318
0.410045
0.407904
0.407434
0.410571
0.419259
0.428388
0.43689
0.450718
0.472028
0.493715
0.522608
0.560098
0.591681
0.619125
0.64812
0.670043
0.681945
0.686634
0.687476
0.691058
0.73515
0.471033
0.473594
0.473819
0.467229
0.459934
0.459385
0.461287
0.467543
0.478044
0.482701
0.482372
0.48003
0.479125
0.482041
0.490152
0.500224
0.51385
0.535291
0.564474
0.598464
0.636843
0.670828
0.695128
0.7219
0.743025
0.748817
0.74633
0.74602
0.756863
0.804892
0.560541
0.564226
0.56775
0.568776
0.562675
0.547958
0.542933
0.544583
0.552843
0.562166
0.563304
0.561332
0.559054
0.561075
0.566917
0.571034
0.576653
0.592552
0.620504
0.65348
0.688239
0.718826
0.744147
0.773826
0.794344
0.800512
0.800574
0.799418
0.808696
0.864468
0.660015
0.665321
0.670746
0.673701
0.674929
0.671337
0.657232
0.645023
0.644003
0.649988
0.654368
0.65375
0.650912
0.649762
0.652907
0.65712
0.662001
0.670859
0.686239
0.708059
0.734023
0.759371
0.783482
0.813924
0.843042
0.852695
0.8563
0.864228
0.877789
0.937124
0.784638
0.785327
0.784454
0.783485
0.784778
0.78697
0.786172
0.777333
0.762618
0.758145
0.757767
0.756213
0.7508
0.74805
0.749955
0.752969
0.753511
0.756997
0.768605
0.790722
0.819586
0.84711
0.873862
0.907729
0.930597
0.934798
0.936524
0.947543
0.964135
1.02813
0.938003
0.938173
0.937214
0.927053
0.910403
0.907978
0.908957
0.904194
0.896359
0.888059
0.87967
0.874486
0.866087
0.858793
0.859375
0.863523
0.865065
0.864836
0.868991
0.88163
0.900849
0.921941
0.947519
0.983741
1.00536
1.01015
1.01602
1.03024
1.04966
1.1211
1.10731
1.10726
1.10717
1.10051
1.0886
1.07896
1.06388
1.04727
1.04473
1.04128
1.03213
1.0239
1.01461
1.00307
1.00145
1.00296
1.00309
1.00175
1.00348
1.01069
1.02262
1.03848
1.06145
1.09208
1.1056
1.10813
1.11283
1.12863
1.15109
1.22396
1.35791
1.3493
1.33985
1.3251
1.3157
1.30734
1.29388
1.27456
1.26569
1.25865
1.24203
1.22971
1.2212
1.20987
1.20285
1.19887
1.19409
1.18861
1.18574
1.18583
1.1871
1.18867
1.19676
1.21056
1.21799
1.21831
1.21744
1.22924
1.25291
1.31556
1.63904
1.63122
1.62116
1.60467
1.59242
1.58291
1.56867
1.55114
1.53783
1.52553
1.50846
1.48892
1.47364
1.46011
1.44616
1.43301
1.42035
1.40804
1.39769
1.38845
1.37956
1.36951
1.35854
1.3475
1.33538
1.32038
1.31435
1.32152
1.33956
1.37468
1.73954
1.73199
1.72623
1.7192
1.7069
1.69651
1.68638
1.6738
1.6608
1.64818
1.6351
1.61976
1.60436
1.59064
1.57608
1.56066
1.54473
1.52817
1.51258
1.49721
1.48133
1.46568
1.44944
1.43138
1.40873
1.38589
1.37767
1.37982
1.38665
1.3962
1.71971
1.71405
1.70695
1.7025
1.69716
1.68947
1.68089
1.67039
1.66008
1.64946
1.63785
1.62582
1.61202
1.59749
1.58284
1.56628
1.54924
1.53191
1.51408
1.49705
1.47987
1.46166
1.44333
1.42573
1.41164
1.40157
1.39785
1.39797
1.39882
1.39976
1.57486
1.57457
1.57478
1.575
1.5745
1.57271
1.57003
1.56685
1.56285
1.55843
1.55356
1.54784
1.54081
1.53201
1.5221
1.51155
1.50009
1.48778
1.47465
1.46096
1.44717
1.43369
1.42135
1.41114
1.40411
1.40065
1.39997
1.39994
1.39997
1.4
1.43061
1.43137
1.43222
1.43306
1.43377
1.43426
1.43469
1.43514
1.43536
1.43545
1.43534
1.43492
1.43405
1.43262
1.43066
1.42828
1.42544
1.42206
1.41822
1.41413
1.41013
1.40649
1.4035
1.40146
1.40039
1.40006
1.40001
1.4
1.4
1.4
1.4011
1.40114
1.4012
1.40127
1.40135
1.40143
1.4015
1.40159
1.40166
1.40173
1.40179
1.40184
1.40186
1.40184
1.40179
1.40169
1.40154
1.40133
1.40108
1.4008
1.40053
1.40031
1.40014
1.40005
1.40001
1.40001
1.40001
1.40001
1.40001
1.40001
1.40002
1.40002
1.40002
1.40002
1.40002
1.40002
1.40002
1.40002
1.40002
1.40002
1.40003
1.40003
1.40003
1.40003
1.40003
1.40003
1.40003
1.40002
1.40002
1.40002
1.40001
1.40001
1.40001
1.40001
1.40001
1.40001
1.40001
1.40001
1.40001
1.40001
1.40001
1.40001
1.40001
1.40001
1.40001
1.40001
1.40001
1.40001
1.40001
1.40001
1.40001
1.40001
1.40001
1.40001
1.40001
1.40001
1.40001
1.40001
1.40001
1.40001
1.40001
1.40001
1.40001
1.40001
1.40001
1.40001
1.40001
1.40001
1.40001
1.40001
1.40001
1.40001
1.40001
1.40001
1.40001
1.40001
1.40001
1.40001
1.40001
1.40001
1.40001
1.40001
1.40001
1.40001
1.40001
1.40001
1.40001
1.40001
1.40001
1.40001
1.40001
1.40001
1.40001
1.40001
1.40001
1.40001
1.40001
1.40001
1.40001
1.40001
1.40001
1.40001
1.40001
1.40001
1.40001
1.40001
1.40001
1.40001
1.40001
1.40001
1.40001
1.40001
1.40001
1.40001
1.40001
1.40001
1.40001
1.40001
1.40001
1.40001
1.40001
1.40001
1.40001
1.40001
1.40001
1.40001
1.40001
1.40001
1.40001
1.40001
1.40001
1.40001
1.40001
1.40001
1.40001
1.40001
1.40001
1.40001
1.40001
1.40001
1.40001
1.40001
1.40001
1.40001
1.40001
1.40001
1.40001
1.40001
1.40001
1.40001
1.40001
1.40001
1.40001
1.40001
1.40001
1.40001
1.40001
1.40001
1.40001
1.40001
1.40001
1.40001
1.40001
1.40001
1.40001
1.40001
1.40001
1.40001
1.40001
1.40001
1.40001
1.40001
1.40001
1.40001
1.40001
1.40001
1.40001
1.40001
1.40001
1.40001
1.40001
1.40001
1.40001
1.40001
1.40001
1.40001
1.40001
1.40001
1.40001
1.40001
0.115115
0.119425
0.129368
0.138319
0.150308
0.157271
0.156969
0.154657
0.150353
0.153027
0.17108
0.189619
0.225953
0.27039
0.3257
0.391406
0.468233
0.555679
0.656533
0.790317
0.942491
1.12135
1.37644
1.65763
1.7536
1.72707
1.57528
1.42899
1.40106
1.40001
1.40001
1.40001
1.40001
1.40001
1.40001
0.115675
0.122841
0.130291
0.139014
0.153154
0.157837
0.157094
0.152868
0.147844
0.152574
0.176333
0.197956
0.239627
0.284243
0.337558
0.40015
0.475271
0.563363
0.677265
0.827327
0.979225
1.17205
1.43465
1.70502
1.77255
1.73198
1.55843
1.42185
1.40062
1.40001
1.40001
1.40001
1.40001
1.40001
1.40001
0.118563
0.12453
0.129705
0.138818
0.153684
0.157848
0.157128
0.151608
0.146776
0.154009
0.182835
0.207393
0.249796
0.291929
0.343161
0.404101
0.47785
0.577171
0.716113
0.854315
1.00759
1.20877
1.48185
1.74168
1.78848
1.73412
1.54521
1.41737
1.40043
1.40001
1.40001
1.40001
1.40001
1.40001
1.40001
0.120553
0.125753
0.129605
0.138836
0.153603
0.157024
0.15644
0.149879
0.146642
0.157657
0.187258
0.213874
0.256193
0.299377
0.352067
0.415714
0.501513
0.621904
0.745711
0.878042
1.04244
1.24658
1.53054
1.77261
1.80306
1.73293
1.52982
1.41324
1.40028
1.40001
1.40001
1.40001
1.40001
1.40001
1.40001
0.121812
0.125907
0.129325
0.139101
0.153451
0.155325
0.15453
0.147264
0.14681
0.16051
0.188169
0.217925
0.26091
0.30865
0.367984
0.444279
0.538305
0.643939
0.760703
0.902711
1.07391
1.28503
1.57879
1.79741
1.81675
1.72824
1.51414
1.40992
1.40018
1.40001
1.40001
1.40001
1.40001
1.40001
1.40001
0.12223
0.125345
0.128235
0.139901
0.154042
0.154328
0.152216
0.145169
0.146102
0.16313
0.187515
0.222212
0.266803
0.320871
0.385687
0.462842
0.551123
0.651561
0.774943
0.931867
1.10472
1.3321
1.62871
1.81947
1.82875
1.71824
1.49848
1.40727
1.40012
1.40001
1.40001
1.40001
1.40001
1.40001
1.40001
0.122053
0.124276
0.127717
0.140503
0.154829
0.154137
0.150111
0.143907
0.145806
0.166689
0.187932
0.226052
0.271762
0.32702
0.392548
0.468532
0.555553
0.657536
0.797346
0.961361
1.14375
1.38543
1.68034
1.84133
1.83681
1.70467
1.48282
1.40518
1.40008
1.40001
1.40001
1.40001
1.40001
1.40001
1.40001
0.120911
0.123278
0.127885
0.141055
0.154814
0.153722
0.148801
0.143156
0.145973
0.170198
0.189877
0.227699
0.273039
0.3282
0.393872
0.469578
0.558308
0.678366
0.839109
1.00105
1.19599
1.43909
1.73071
1.8598
1.84126
1.68565
1.46834
1.40361
1.40005
1.40001
1.40001
1.40001
1.40001
1.40001
1.40001
0.11957
0.122341
0.128065
0.141199
0.15352
0.152385
0.148134
0.142735
0.145813
0.171786
0.190422
0.227722
0.272772
0.327303
0.392643
0.472326
0.583368
0.733894
0.879897
1.04904
1.24146
1.49417
1.77727
1.87366
1.84402
1.6651
1.45481
1.40244
1.40003
1.40001
1.40001
1.40001
1.40001
1.40001
1.40001
0.118604
0.121996
0.127616
0.140226
0.152946
0.151821
0.148073
0.14303
0.145839
0.173448
0.193139
0.230318
0.277612
0.337031
0.413768
0.513802
0.635838
0.766286
0.913416
1.08487
1.28407
1.55323
1.81735
1.8843
1.84425
1.64066
1.44274
1.40161
1.40002
1.40001
1.40001
1.40001
1.40001
1.40001
1.40001
0.118467
0.122033
0.127393
0.139487
0.152718
0.151751
0.148778
0.145354
0.148287
0.180237
0.207261
0.24791
0.301244
0.368127
0.45063
0.548039
0.657279
0.784527
0.940853
1.11853
1.33521
1.61165
1.85254
1.89416
1.83568
1.61444
1.43247
1.40103
1.40001
1.40001
1.40001
1.40001
1.40001
1.40001
1.40001
0.118694
0.122362
0.127276
0.138931
0.152455
0.151985
0.150164
0.149152
0.153478
0.19
0.221758
0.264191
0.318722
0.385081
0.463514
0.558512
0.668134
0.801615
0.970069
1.15845
1.3924
1.67183
1.88326
1.90398
1.82539
1.58853
1.42422
1.40065
1.40001
1.40001
1.40001
1.40001
1.40001
1.40001
1.40001
0.11974
0.123559
0.126785
0.137979
0.150451
0.152057
0.151369
0.152592
0.159034
0.194537
0.228299
0.271075
0.32561
0.390942
0.468665
0.562539
0.679697
0.831889
1.01105
1.21652
1.45297
1.73506
1.90785
1.91311
1.81345
1.56137
1.41724
1.40039
1.40001
1.40001
1.40001
1.40001
1.40001
1.40001
1.40001
0.122552
0.124398
0.125464
0.137827
0.148461
0.15104
0.15156
0.153778
0.162998
0.195231
0.230642
0.274327
0.329382
0.394442
0.473549
0.573708
0.716071
0.889219
1.07033
1.27645
1.51849
1.79135
1.92583
1.91984
1.79074
1.53319
1.41194
1.40024
1.40001
1.40001
1.40001
1.40001
1.40001
1.40001
1.40001
0.125706
0.12529
0.124659
0.138506
0.148357
0.148963
0.14802
0.151583
0.165212
0.194047
0.231296
0.276441
0.334269
0.405365
0.504497
0.632654
0.778551
0.937721
1.12183
1.32727
1.57928
1.84014
1.93957
1.92152
1.76292
1.50831
1.40804
1.40014
1.40001
1.40001
1.40001
1.40001
1.40001
1.40001
1.40001
0.127552
0.12649
0.125072
0.141353
0.148482
0.146101
0.143716
0.145656
0.166948
0.192803
0.233612
0.28807
0.361816
0.450271
0.555642
0.676194
0.809643
0.972848
1.1627
1.37921
1.64347
1.88596
1.94867
1.91503
1.73347
1.48528
1.40524
1.40008
1.40001
1.40001
1.40001
1.40001
1.40001
1.40001
1.40001
0.127902
0.126903
0.128133
0.145078
0.147553
0.14466
0.142401
0.144218
0.171992
0.204215
0.252984
0.309346
0.386399
0.475675
0.575755
0.695569
0.837603
1.00896
1.20974
1.4466
1.71391
1.92216
1.95429
1.90765
1.6993
1.46514
1.40329
1.40005
1.40001
1.40001
1.40001
1.40001
1.40001
1.40001
1.40001
0.127309
0.126208
0.133649
0.148994
0.14752
0.144149
0.14273
0.148757
0.184125
0.220764
0.264897
0.316502
0.392675
0.483361
0.586126
0.709426
0.870209
1.05967
1.27309
1.51814
1.77909
1.94655
1.9592
1.89695
1.6625
1.44816
1.40201
1.40003
1.40001
1.40001
1.40001
1.40001
1.40001
1.40001
1.40001
0.124505
0.125407
0.137415
0.15162
0.148771
0.144033
0.146915
0.158472
0.191248
0.226405
0.269496
0.321202
0.396263
0.486945
0.596636
0.740982
0.925216
1.1243
1.3452
1.58772
1.83984
1.96421
1.96525
1.87398
1.62401
1.43414
1.40117
1.40002
1.40001
1.40001
1.40001
1.40001
1.40001
1.40001
1.40001
0.120111
0.124211
0.138741
0.15218
0.149355
0.14413
0.150149
0.162816
0.192096
0.230147
0.275039
0.33049
0.405318
0.505386
0.647229
0.818439
0.996285
1.19288
1.4139
1.66298
1.89453
1.9767
1.96798
1.85001
1.58747
1.42374
1.40067
1.40001
1.40001
1.40001
1.40001
1.40001
1.40001
1.40001
1.40001
0.117234
0.124073
0.138721
0.149588
0.146647
0.141572
0.150683
0.164672
0.190161
0.235806
0.290213
0.360561
0.454573
0.575415
0.716277
0.870851
1.04355
1.24951
1.48305
1.73576
1.93481
1.98475
1.96264
1.8213
1.5515
1.41557
1.40037
1.40001
1.40001
1.40001
1.40001
1.40001
1.40001
1.40001
1.40001
0.116696
0.125087
0.136578
0.143421
0.139893
0.137764
0.150121
0.166514
0.196221
0.253102
0.324821
0.404505
0.501374
0.615882
0.748109
0.902182
1.08976
1.31084
1.55494
1.80305
1.96589
1.98935
1.9558
1.78105
1.51774
1.40987
1.4002
1.40001
1.40001
1.40001
1.40001
1.40001
1.40001
1.40001
1.40001
0.11778
0.125569
0.13497
0.1394
0.135779
0.136141
0.14922
0.168823
0.219818
0.27766
0.345064
0.425556
0.520607
0.633536
0.771254
0.938644
1.1497
1.3855
1.63662
1.87095
1.98803
1.99198
1.94488
1.74108
1.48979
1.40608
1.4001
1.40001
1.40001
1.40001
1.40001
1.40001
1.40001
1.40001
1.40001
0.118803
0.125754
0.135496
0.138604
0.135106
0.138357
0.156075
0.182617
0.235766
0.285488
0.34844
0.429029
0.528145
0.648504
0.806448
1.01025
1.23809
1.4756
1.72349
1.92677
1.99975
1.99391
1.92174
1.69707
1.46457
1.40349
1.40005
1.40001
1.40001
1.40001
1.40001
1.40001
1.40001
1.40001
1.40001
0.118681
0.125183
0.13989
0.141131
0.136696
0.144751
0.167138
0.192653
0.238302
0.285687
0.344967
0.425677
0.54051
0.701257
0.893469
1.1042
1.32354
1.56412
1.8001
1.96597
2.00534
1.99453
1.89711
1.64994
1.44489
1.40194
1.40003
1.40001
1.40001
1.40001
1.40001
1.40001
1.40001
1.40001
1.40001
0.115752
0.121819
0.14327
0.144447
0.139718
0.145862
0.169726
0.195263
0.234939
0.284342
0.348205
0.449462
0.618335
0.791834
0.971674
1.17136
1.39756
1.64417
1.86776
1.99271
2.00735
1.99309
1.86992
1.60498
1.42978
1.40103
1.40002
1.40001
1.40001
1.40001
1.40001
1.40001
1.40001
1.40001
1.40001
0.110583
0.118609
0.143896
0.143639
0.140163
0.144612
0.166862
0.198225
0.236782
0.302426
0.403315
0.541022
0.690251
0.845729
1.0253
1.23584
1.48094
1.7307
1.92996
2.00903
2.0093
1.97544
1.82484
1.5595
1.41835
1.40051
1.40001
1.40001
1.40001
1.40001
1.40001
1.40001
1.40001
1.40001
1.40001
0.108466
0.118268
0.143193
0.137369
0.135654
0.144121
0.161349
0.202447
0.267002
0.356673
0.468863
0.589628
0.725214
0.887536
1.08758
1.32679
1.58319
1.81996
1.97604
2.01799
2.01474
1.9625
1.78093
1.52218
1.41129
1.40026
1.40001
1.40001
1.40001
1.40001
1.40001
1.40001
1.40001
1.40001
1.40001
0.108995
0.119338
0.140211
0.131466
0.12877
0.149937
0.171034
0.229185
0.314565
0.398284
0.495348
0.608821
0.757601
0.95417
1.1848
1.43757
1.6838
1.8929
2.00349
2.02236
2.01773
1.95427
1.73993
1.48902
1.40624
1.40012
1.40001
1.40001
1.40001
1.40001
1.40001
1.40001
1.40001
1.40001
1.40001
0.111865
0.124434
0.137109
0.129253
0.1278
0.159367
0.198839
0.262956
0.33789
0.413292
0.503877
0.631457
0.83639
1.06226
1.29539
1.53873
1.7744
1.94984
2.01897
2.02355
2.01426
1.92608
1.68049
1.45728
1.40307
1.40005
1.40001
1.40001
1.40001
1.40001
1.40001
1.40001
1.40001
1.40001
1.40001
0.124626
0.131926
0.135147
0.12758
0.12868
0.164452
0.210035
0.269716
0.338326
0.418619
0.522978
0.724362
0.95271
1.16065
1.38965
1.63593
1.85972
1.99261
2.02748
2.0245
1.99627
1.87213
1.62154
1.43774
1.40161
1.40003
1.40001
1.40001
1.40001
1.40001
1.40001
1.40001
1.40001
1.40001
1.40001
0.138339
0.136472
0.13177
0.12431
0.132466
0.165119
0.210486
0.269496
0.331217
0.443899
0.633238
0.842437
1.03515
1.24437
1.49078
1.74251
1.93373
2.01896
2.03181
2.0262
1.98307
1.83936
1.58124
1.42428
1.40078
1.40001
1.40001
1.40001
1.40001
1.40001
1.40001
1.40001
1.40001
1.40001
1.40001
0.141482
0.137083
0.126193
0.120069
0.135209
0.164368
0.207417
0.273024
0.383298
0.551745
0.732631
0.907633
1.10555
1.35107
1.61176
1.84296
1.98657
2.03109
2.03351
2.02882
1.97889
1.8019
1.53122
1.41253
1.40031
1.40001
1.40001
1.40001
1.40001
1.40001
1.40001
1.40001
1.40001
1.40001
1.40001
0.140001
0.133018
0.119915
0.116119
0.138889
0.17351
0.237157
0.334583
0.479358
0.627427
0.781635
0.966041
1.21677
1.48331
1.73101
1.92312
2.01766
2.03468
2.03344
2.02427
1.95711
1.72833
1.4832
1.40608
1.40013
1.40001
1.40001
1.40001
1.40001
1.40001
1.40001
1.40001
1.40001
1.40001
1.40001
0.133528
0.123196
0.11655
0.115165
0.156679
0.209086
0.297821
0.40285
0.52859
0.665233
0.829533
1.08256
1.36741
1.61428
1.83415
1.98274
2.03355
2.03648
2.03193
2.00632
1.89595
1.6592
1.45473
1.40308
1.40005
1.40001
1.40001
1.40001
1.40001
1.40001
1.40001
1.40001
1.40001
1.40001
1.40001
0.125265
0.114661
0.116366
0.128048
0.187537
0.2473
0.331099
0.430274
0.555127
0.716871
0.959828
1.25429
1.50709
1.73422
1.91956
2.02044
2.04109
2.03978
2.03031
1.98985
1.85983
1.61187
1.43417
1.40139
1.40002
1.40001
1.40001
1.40001
1.40001
1.40001
1.40001
1.40001
1.40001
1.40001
1.40001
0.120871
0.112414
0.125492
0.149622
0.202436
0.258851
0.340839
0.452801
0.614166
0.857379
1.14156
1.39526
1.63367
1.8422
1.98163
2.03835
2.04506
2.04366
2.03362
1.9852
1.82519
1.55563
1.41761
1.40053
1.40001
1.40001
1.40001
1.40001
1.40001
1.40001
1.40001
1.40001
1.40001
1.40001
1.40001
0.120891
0.113091
0.137513
0.160821
0.196164
0.25571
0.351767
0.530536
0.771944
1.02961
1.27547
1.52072
1.76352
1.93023
2.01906
2.04432
2.04669
2.0458
2.03593
1.9794
1.7587
1.49585
1.40768
1.40018
1.40001
1.40001
1.40001
1.40001
1.40001
1.40001
1.40001
1.40001
1.40001
1.40001
1.40001
0.122277
0.112858
0.139571
0.161427
0.181048
0.262759
0.453226
0.681872
0.917453
1.15397
1.40291
1.67155
1.88053
1.99075
2.03806
2.0461
2.04678
2.04509
2.02551
1.91501
1.66687
1.45646
1.40331
1.40006
1.40001
1.40001
1.40001
1.40001
1.40001
1.40001
1.40001
1.40001
1.40001
1.40001
1.40001
0.1262
0.107877
0.125393
0.156965
0.20127
0.380446
0.592215
0.801796
1.03389
1.29252
1.58159
1.82108
1.96865
2.02344
2.04704
2.04738
2.04708
2.03996
2.00029
1.85803
1.60527
1.43329
1.40141
1.40002
1.40001
1.40001
1.40001
1.40001
1.40001
1.40001
1.40001
1.40001
1.40001
1.40001
1.40001
0.124982
0.0979971
0.10331
0.152416
0.305429
0.506171
0.694026
0.922452
1.19767
1.49872
1.76192
1.93373
2.02073
2.03749
2.0521
2.05131
2.0492
2.03387
1.97984
1.81181
1.54655
1.41607
1.40048
1.40001
1.40001
1.40001
1.40001
1.40001
1.40001
1.40001
1.40001
1.40001
1.40001
1.40001
1.40001
0.108546
0.0864209
0.0982455
0.204357
0.414472
0.592424
0.814922
1.11523
1.43018
1.70037
1.89467
2.00563
2.04407
2.04364
2.05576
2.05503
2.05245
2.03569
1.96395
1.73805
1.48253
1.40596
1.40013
1.40001
1.40001
1.40001
1.40001
1.40001
1.40001
1.40001
1.40001
1.40001
1.40001
1.40001
1.40001
0.0877568
0.0776022
0.144862
0.309056
0.498673
0.713353
1.03998
1.36586
1.64267
1.85163
1.98627
2.04368
2.05209
2.04686
2.0586
2.05629
2.05264
2.03558
1.91157
1.63261
1.44029
1.40201
1.40004
1.40001
1.40001
1.40001
1.40001
1.40001
1.40001
1.40001
1.40001
1.40001
1.40001
1.40001
1.40001
0.0563677
0.0903997
0.223598
0.393159
0.608699
0.960322
1.30494
1.59482
1.8167
1.96581
2.03957
2.05854
2.0555
2.04839
2.06137
2.05573
2.04607
1.9966
1.81757
1.55444
1.41928
1.40065
1.40001
1.40001
1.40001
1.40001
1.40001
1.40001
1.40001
1.40001
1.40001
1.40001
1.40001
1.40001
1.40001
0.0380179
0.115959
0.29194
0.529098
0.877747
1.24918
1.55507
1.79659
1.9529
2.03429
2.06137
2.06276
2.05782
2.0501
2.06573
2.05389
2.03517
1.95623
1.74539
1.49603
1.40765
1.40018
1.40001
1.40001
1.40001
1.40001
1.40001
1.40001
1.40001
1.40001
1.40001
1.40001
1.40001
1.40001
1.40001
0.0266409
0.167681
0.413344
0.788286
1.20491
1.53526
1.79157
1.95203
2.03016
2.06171
2.06785
2.06545
2.05867
2.05361
2.07119
2.05153
2.02588
1.92164
1.66055
1.44569
1.40228
1.40004
1.40001
1.40001
1.40001
1.40001
1.40001
1.40001
1.40001
1.40001
1.40001
1.40001
1.40001
1.40001
1.40001
0.0442968
0.2903
0.691358
1.15356
1.53059
1.80247
1.96215
2.03482
2.0612
2.07009
2.07093
2.06739
2.0581
2.0593
2.07558
2.05163
2.02035
1.85267
1.55054
1.41627
1.40052
1.40001
1.40001
1.40001
1.40001
1.40001
1.40001
1.40001
1.40001
1.40001
1.40001
1.40001
1.40001
1.40001
1.40001
0.149017
0.537739
1.11629
1.55886
1.83403
1.98175
2.04556
2.06487
2.07101
2.07415
2.07358
2.06899
2.05867
2.06377
2.07734
2.05432
1.98456
1.72139
1.47165
1.4047
1.4001
1.40001
1.40001
1.40001
1.40001
1.40001
1.40001
1.40001
1.40001
1.40001
1.40001
1.40001
1.40001
1.40001
1.40001
0.498179
1.05956
1.58766
1.87653
2.0121
2.05932
2.07222
2.07242
2.07496
2.07787
2.07709
2.0719
2.06284
2.06916
2.07762
2.04428
1.89798
1.60627
1.42889
1.40101
1.40002
1.40001
1.40001
1.40001
1.40001
1.40001
1.40001
1.40001
1.40001
1.40001
1.40001
1.40001
1.40001
1.40001
1.40001
1.16663
1.66055
1.94865
2.04765
2.07586
2.07935
2.0774
2.07475
2.07776
2.08189
2.08105
2.07508
2.06694
2.0739
2.07538
2.0062
1.80525
1.50815
1.40703
1.40008
1.40001
1.40001
1.40001
1.40001
1.40001
1.40001
1.40001
1.40001
1.40001
1.40001
1.40001
1.40001
1.40001
1.40001
1.40001
2.08065
2.08444
2.08788
2.08867
2.08713
2.08292
2.07816
2.07601
2.08142
2.08623
2.08458
2.07716
2.06993
2.07688
2.07173
1.96353
1.67997
1.4278
1.39961
1.39996
1.4
1.40001
1.40001
1.40001
1.40001
1.40001
1.40001
1.40001
1.40001
1.40001
1.40001
1.40001
1.40001
1.40001
1.40001
2.08248
2.08618
2.09025
2.09239
2.09119
2.08741
2.08134
2.07816
2.08232
2.09127
2.09105
2.08508
2.07246
2.07689
2.07784
1.96719
1.6501
1.43339
1.40092
1.40001
1.40001
1.40001
1.40001
1.40001
1.40001
1.40001
1.40001
1.40001
1.40001
1.40001
1.40001
1.40001
1.40001
1.40001
1.40001
2.08956
2.0919
2.09507
2.09633
2.09516
2.09163
2.08638
2.08541
2.08694
2.09708
2.09734
2.09406
2.07815
2.0778
2.07862
1.91546
1.57459
1.41263
1.40018
1.40001
1.40001
1.40001
1.40001
1.40001
1.40001
1.40001
1.40001
1.40001
1.40001
1.40001
1.40001
1.40001
1.40001
1.40001
1.40001
2.09827
2.09816
2.09931
2.09963
2.09861
2.09651
2.09412
2.09401
2.09698
2.104
2.10572
2.10675
2.09258
2.08095
2.07701
1.86299
1.52119
1.40625
1.40007
1.40001
1.40001
1.40001
1.40001
1.40001
1.40001
1.40001
1.40001
1.40001
1.40001
1.40001
1.40001
1.40001
1.40001
1.40001
1.40001
2.10843
2.10572
2.10504
2.10438
2.10476
2.10567
2.10593
2.10597
2.10582
2.11002
2.11663
2.12164
2.11246
2.0936
2.0718
1.7845
1.47316
1.40262
1.40003
1.40001
1.40001
1.40001
1.40001
1.40001
1.40001
1.40001
1.40001
1.40001
1.40001
1.40001
1.40001
1.40001
1.40001
1.40001
1.40001
2.12108
2.11698
2.11401
2.11206
2.11249
2.11545
2.11778
2.11855
2.11667
2.11638
2.12458
2.13444
2.13016
2.10143
2.02694
1.70333
1.44076
1.401
1.40001
1.40001
1.40001
1.40001
1.40001
1.40001
1.40001
1.40001
1.40001
1.40001
1.40001
1.40001
1.40001
1.40001
1.40001
1.40001
1.40001
2.13298
2.12825
2.12361
2.12055
2.12063
2.12507
2.12892
2.13025
2.12609
2.1219
2.12694
2.1426
2.13988
2.10439
1.97349
1.62362
1.41978
1.40034
1.40001
1.40001
1.40001
1.40001
1.40001
1.40001
1.40001
1.40001
1.40001
1.40001
1.40001
1.40001
1.40001
1.40001
1.40001
1.40001
1.40001
2.14183
2.13717
2.13191
2.12864
2.12834
2.1332
2.13819
2.13994
2.13429
2.12595
2.12868
2.14643
2.14538
2.10254
1.90924
1.55015
1.40902
1.40011
1.40001
1.40001
1.40001
1.40001
1.40001
1.40001
1.40001
1.40001
1.40001
1.40001
1.40001
1.40001
1.40001
1.40001
1.40001
1.40001
1.40001
2.14719
2.1434
2.13874
2.13575
2.13557
2.14012
2.1453
2.14692
2.14168
2.13181
2.13227
2.14919
2.14839
2.08081
1.82996
1.48965
1.40357
1.40004
1.40001
1.40001
1.40001
1.40001
1.40001
1.40001
1.40001
1.40001
1.40001
1.40001
1.40001
1.40001
1.40001
1.40001
1.40001
1.40001
1.40001
2.15006
2.14766
2.14436
2.14205
2.14218
2.14471
2.14884
2.15057
2.14792
2.13927
2.13743
2.15234
2.14932
2.04149
1.73792
1.44867
1.40129
1.40001
1.40001
1.40001
1.40001
1.40001
1.40001
1.40001
1.40001
1.40001
1.40001
1.40001
1.40001
1.40001
1.40001
1.40001
1.40001
1.40001
1.40001
2.15089
2.14977
2.14861
2.14752
2.14732
2.14725
2.14937
2.15132
2.15135
2.14712
2.14489
2.15392
2.14871
1.99187
1.64172
1.42308
1.40042
1.40001
1.40001
1.40001
1.40001
1.40001
1.40001
1.40001
1.40001
1.40001
1.40001
1.40001
1.40001
1.40001
1.40001
1.40001
1.40001
1.40001
1.40001
2.15015
2.15049
2.15159
2.1518
2.15125
2.14918
2.14769
2.14946
2.15298
2.15644
2.15089
2.14843
2.13145
1.91459
1.55408
1.40968
1.40013
1.40001
1.40001
1.40001
1.40001
1.40001
1.40001
1.40001
1.40001
1.40001
1.40001
1.40001
1.40001
1.40001
1.40001
1.40001
1.40001
1.40001
1.40001
2.14923
2.15044
2.15325
2.15455
2.15371
2.15024
2.14683
2.14655
2.15439
2.16348
2.15668
2.13421
2.08915
1.82828
1.49028
1.40362
1.40004
1.40001
1.40001
1.40001
1.40001
1.40001
1.40001
1.40001
1.40001
1.40001
1.40001
1.40001
1.40001
1.40001
1.40001
1.40001
1.40001
1.40001
1.40001
2.14913
2.15033
2.15364
2.15547
2.15453
2.15059
2.14546
2.14516
2.15453
2.16609
2.16039
2.12324
2.04588
1.73991
1.44791
1.40128
1.40001
1.40001
1.40001
1.40001
1.40001
1.40001
1.40001
1.40001
1.40001
1.40001
1.40001
1.40001
1.40001
1.40001
1.40001
1.40001
1.40001
1.40001
1.40001
2.14917
2.14998
2.15334
2.15543
2.1546
2.15086
2.14473
2.14392
2.15252
2.16615
2.16026
2.11677
1.99464
1.63631
1.422
1.40039
1.40001
1.40001
1.40001
1.40001
1.40001
1.40001
1.40001
1.40001
1.40001
1.40001
1.40001
1.40001
1.40001
1.40001
1.40001
1.40001
1.40001
1.40001
1.40001
2.14975
2.14939
2.15114
2.15317
2.15353
2.15136
2.14511
2.14354
2.14988
2.16237
2.15553
2.09368
1.91861
1.54872
1.40926
1.40012
1.40001
1.40001
1.40001
1.40001
1.40001
1.40001
1.40001
1.40001
1.40001
1.40001
1.40001
1.40001
1.40001
1.40001
1.40001
1.40001
1.40001
1.40001
1.40001
2.15117
2.14958
2.14963
2.15024
2.15124
2.15165
2.14673
2.14441
2.14881
2.16144
2.15369
2.0648
1.82023
1.48343
1.40317
1.40003
1.40001
1.40001
1.40001
1.40001
1.40001
1.40001
1.40001
1.40001
1.40001
1.40001
1.40001
1.40001
1.40001
1.40001
1.40001
1.40001
1.40001
1.40001
1.40001
2.15268
2.15032
2.1488
2.14825
2.14956
2.15088
2.14903
2.14559
2.14666
2.16051
2.15277
2.03242
1.71322
1.44174
1.40104
1.40001
1.40001
1.40001
1.40001
1.40001
1.40001
1.40001
1.40001
1.40001
1.40001
1.40001
1.40001
1.40001
1.40001
1.40001
1.40001
1.40001
1.40001
1.40001
1.40001
2.15367
2.15136
2.14856
2.14699
2.1473
2.15005
2.1517
2.15054
2.14292
2.144
2.14004
1.97899
1.60542
1.41693
1.40028
1.40001
1.40001
1.40001
1.40001
1.40001
1.40001
1.40001
1.40001
1.40001
1.40001
1.40001
1.40001
1.40001
1.40001
1.40001
1.40001
1.40001
1.40001
1.40001
1.40001
2.15415
2.15312
2.1497
2.14649
2.1452
2.14824
2.15326
2.15771
2.14277
2.12549
2.10655
1.88181
1.52477
1.40643
1.40008
1.40001
1.40001
1.40001
1.40001
1.40001
1.40001
1.40001
1.40001
1.40001
1.40001
1.40001
1.40001
1.40001
1.40001
1.40001
1.40001
1.40001
1.40001
1.40001
1.40001
2.15312
2.15368
2.15122
2.14855
2.14444
2.14543
2.15374
2.16144
2.15379
2.11973
2.07269
1.78801
1.46688
1.40215
1.40002
1.40001
1.40001
1.40001
1.40001
1.40001
1.40001
1.40001
1.40001
1.40001
1.40001
1.40001
1.40001
1.40001
1.40001
1.40001
1.40001
1.40001
1.40001
1.40001
1.40001
2.15155
2.15357
2.15234
2.15061
2.14492
2.14427
2.15166
2.16225
2.15745
2.1185
2.03026
1.66515
1.42797
1.40058
1.40001
1.40001