/*--------------------------------*- C++ -*----------------------------------*\
  =========                 |
  \\      /  F ield         | OpenFOAM: The Open Source CFD Toolbox
   \\    /   O peration     | Website:  https://openfoam.org
    \\  /    A nd           | Version:  7
     \\/     M anipulation  |
\*---------------------------------------------------------------------------*/
FoamFile
{
    version     2.0;
    format      ascii;
    class       volScalarField;
    location    "5.4";
    object      T;
}
// * * * * * * * * * * * * * * * * * * * * * * * * * * * * * * * * * * * * * //

dimensions      [0 0 0 1 0 0 0];

internalField   nonuniform List<scalar> 
1750
(
1.36545
1.51596
1.47394
1.41989
1.38313
1.40719
1.43813
1.45588
1.45386
1.44899
0.418258
0.836002
1.51294
1.84449
1.83029
1.79997
1.751
1.6605
1.62528
1.58034
0.347155
0.351167
0.439977
0.940839
1.34831
1.50559
1.65631
1.65606
1.64693
1.60113
0.385943
0.405653
0.421041
0.440419
0.454286
0.61209
0.886364
1.19259
1.29745
1.35088
0.460849
0.485518
0.513205
0.51834
0.529293
0.531051
0.536691
0.574109
0.680864
0.918319
0.557033
0.570498
0.58197
0.585128
0.590529
0.605218
0.617637
0.627869
0.629173
0.632918
0.679237
0.678878
0.68205
0.687694
0.690078
0.690521
0.690116
0.691423
0.690834
0.68856
0.814595
0.806295
0.798557
0.788128
0.779317
0.77257
0.765831
0.757917
0.751455
0.744102
0.942467
0.927866
0.914262
0.899574
0.88351
0.868849
0.856158
0.842179
0.830081
0.814888
1.01082
1.00433
0.99623
0.986698
0.974813
0.960824
0.945661
0.929856
0.914724
0.890225
1.02058
1.02015
1.0193
1.01788
1.01546
1.01151
1.00548
0.997094
0.987285
0.966701
1.01457
1.01561
1.01644
1.01698
1.01693
1.01675
1.01638
1.01559
1.01425
1.00836
1.00344
1.0047
1.0061
1.0078
1.00954
1.01103
1.01234
1.01333
1.01377
1.01353
1.00017
1.00031
1.00054
1.00091
1.00151
1.00238
1.00352
1.00501
1.00662
1.00897
1
1.00001
1.00001
1.00002
1.00005
1.00012
1.00024
1.00049
1.0009
1.00232
0.507936
0.417043
0.362043
0.378989
0.44985
0.555903
0.682485
0.826547
0.955047
1.01459
1.02079
1.01306
1.00252
1.00011
1
0.520103
0.42412
0.36927
0.391606
0.485115
0.604762
0.737678
0.877458
0.984354
1.02146
1.021
1.0105
1.00138
1.00004
1
0.519653
0.423472
0.377386
0.399339
0.514027
0.640329
0.774912
0.91241
1.00228
1.02376
1.0206
1.00796
1.00072
1.00002
1
0.516315
0.412241
0.375574
0.452213
0.555485
0.677134
0.819021
0.950754
1.0164
1.02497
1.01885
1.00513
1.00033
1.00001
1
0.495236
0.392249
0.368423
0.476233
0.577299
0.715604
0.871357
0.983154
1.02403
1.02536
1.01556
1.00301
1.00015
1
1
0.487959
0.379063
0.380322
0.487116
0.634494
0.788997
0.921806
1.00543
1.02737
1.02538
1.01152
1.00156
1.00005
1
1
0.487082
0.372655
0.420582
0.533955
0.695456
0.8477
0.961699
1.02079
1.02877
1.02244
1.00754
1.00067
1.00002
1
1
0.441231
0.375007
0.447084
0.615774
0.769672
0.901649
0.996136
1.02927
1.02913
1.01856
1.00426
1.00025
1.00001
1
1
0.434774
0.371105
0.471885
0.68042
0.838756
0.955602
1.01949
1.03201
1.02872
1.01334
1.0019
1.00008
1
1
1
0.44006
0.434005
0.600616
0.771955
0.905849
0.997964
1.03092
1.03259
1.02381
1.00753
1.0007
1.00002
1
1
1
0.398034
0.495786
0.706299
0.864898
0.96893
1.02306
1.03489
1.03215
1.01781
1.00355
1.00023
1.00001
1
1
1
0.089038
0.537254
0.794212
0.936747
1.01116
1.03546
1.0357
1.02779
1.01017
1.00124
1.00005
1
1
1
1
0.225507
0.693453
0.898081
0.995525
1.03345
1.03898
1.03569
1.01991
1.00442
1.00034
1.00001
1
1
1
1
0.469958
0.810721
0.978926
1.02922
1.04148
1.03962
1.02837
1.00993
1.0013
1.00006
1
1
1
1
1
0.813092
0.973896
1.02919
1.04061
1.04269
1.03542
1.01719
1.00355
1.00027
1.00001
1
1
1
1
1
1.04117
1.04206
1.0427
1.04202
1.04048
1.02421
1.00642
1.00045
1.00001
1
1
1
1
1
1
1.04115
1.04245
1.04316
1.0411
1.03771
1.02156
1.00634
1.00068
1.00003
1
1
1
1
1
1
1.04135
1.04336
1.04382
1.04125
1.03369
1.01425
1.00212
1.0001
1
1
1
1
1
1
1
1.04132
1.04379
1.0439
1.03981
1.02711
1.0087
1.00093
1.00004
1
1
1
1
1
1
1
1.04113
1.04393
1.04355
1.03636
1.02026
1.00456
1.00034
1.00001
1
1
1
1
1
1
1
1.04173
1.04403
1.04296
1.03159
1.01355
1.00202
1.0001
1
1
1
1
1
1
1
1
1.04441
1.0443
1.04217
1.02521
1.00708
1.00072
1.00003
1
1
1
1
1
1
1
1
1.04826
1.04124
1.03651
1.01655
1.00339
1.00024
1.00001
1
1
1
1
1
1
1
1
1.05174
1.03799
1.0286
1.01002
1.00132
1.00006
1
1
1
1
1
1
1
1
1
1.05359
1.03463
1.01951
1.00462
1.00042
1.00002
1
1
1
1
1
1
1
1
1
1.0533
1.02812
1.01173
1.00187
1.00011
1
1
1
1
1
1
1
1
1
1
1.04667
1.02074
1.00596
1.00061
1.00002
1
1
1
1
1
1
1
1
1
1
1.03888
1.01333
1.00229
1.00014
1
1
1
1
1
1
1
1
1
1
1
1.02719
1.00609
1.00058
1.00002
1
1
1
1
1
1
1
1
1
1
1
1.01227
1.00174
1.00008
1
1
1
1
1
1
1
1
1
1
1
1
1
1
1
1
1
1
1
1
1
1
1
1
1
1
1
1
1
1
1
1
1
1
1
1
1
1
1
1
1
1
1
1
1
1
1
1
1
1
1
1
1
1
1
1
1
1
1
1
1
1
1
1
1
1
1
1
1
1
1
1
1
1
1
1
1
1
1
1
1
1
1
1
1
1
1
1
1
1
1
1
1
1
1
1
1
1
1
1
1
1
1
1
1
1
1
1
1
1
1
1
1
1
1
1
1
1
1
1
1
1
1
1
1
1
1
1
1
1
1
1
1
1
1
1
1
1
1
1
1
1
1
1
1
1
1
1
1
1
1
1
1
1
1
1
1
1
1
1
1
1
1
1
1
1
1
1
1
1
1
1
1
1
1
1
1
1
1
1
1
1
1
1
1
1
1
1
1
1
1
1
1
1
1
1
1
1
1
1
1
1
1
1
1
1
1
1
1
1
1
1
1
1
1
1
1
1
1
1
1
1
1
1
1
1
1
1
1
1
1
1
1
1
1
1
1
1
1
1
1
1
1
1
1
1
1
1
1
1
1
1
1
1
1
1
1
1
1
1
1
1
1
1
1
1
1
1
1
1
1
1
1
1
1
1
1
1
1
1
1
1
1
1
1
1
1
1
1
1
1
1
1
1
1
1
1
1
1
1
1
1
1
1
1
1
1
1
1
1
1
1
1
1
1
1
1
1
1
1
1
1
1
1
1
1
1
1
1
1
1
1
1
1
1
1
1
1
1
1
1
1
1
1
1
1
1
1
1
1
1
1
1
1
1
1
1
1
1
1
1
1
2.40904
1.8581
1.10933
0.999999
1
1
1
1
1
1
1
1
1
1
1
1
1
1
1
1
2.54388
2.41794
2.22612
1.4845
0.999827
1
1
1
1
1
1
1
1
1
1
1
1
1
1
1
2.46216
2.39772
2.40771
2.23854
1.68865
1.01393
1
1
1
1
1
1
1
1
1
1
1
1
1
1
2.41829
2.39188
2.38268
2.34719
2.22341
1.77605
1.04567
0.999937
1
1
1
1
1
1
1
1
1
1
1
1
2.40075
2.3889
2.37459
2.33614
2.31488
2.25465
1.80567
1.05028
0.999838
1
1
1
1
1
1
1
1
1
1
1
2.38972
2.38011
2.36319
2.33457
2.30934
2.28841
2.20373
1.67703
1.01649
0.999942
1
1
1
1
1
1
1
1
1
1
2.37955
2.37004
2.35425
2.32928
2.30663
2.2839
2.26526
2.18359
1.55094
1.00093
1
1
1
1
1
1
1
1
1
1
2.36968
2.35983
2.34516
2.32288
2.3006
2.2754
2.25758
2.25432
2.15729
1.45792
0.998436
1.00001
1
1
1
1
1
1
1
1
2.36011
2.35072
2.33753
2.31584
2.29364
2.26811
2.2515
2.24004
2.21212
1.97539
1.20434
0.99917
1
1
1
1
1
1
1
1
2.35168
2.34292
2.33093
2.30942
2.28515
2.26007
2.24268
2.2274
2.21427
2.17887
1.70463
1.02977
1
1
1
1
1
1
1
1
2.3444
2.33578
2.3242
2.30273
2.27815
2.25318
2.23419
2.22217
2.21057
2.20565
2.08065
1.42624
0.999676
1
1
1
1
1
1
1
2.33783
2.32894
2.31733
2.29655
2.27269
2.24756
2.23054
2.22013
2.21178
2.20569
2.17226
1.85555
1.11618
0.999476
1
1
1
1
1
1
2.33007
2.32164
2.31105
2.29172
2.26869
2.24428
2.22745
2.21555
2.20761
2.19752
2.17842
2.11426
1.55082
1.00854
0.999964
0.999999
1
1
1
1
2.32223
2.31444
2.3043
2.28563
2.26357
2.24052
2.22276
2.20829
2.19804
2.1868
2.1711
2.14242
1.90659
1.19257
1.00047
1
1
1
1
1
2.30121
2.28275
2.26863
2.25032
2.23166
2.21409
2.19943
2.18726
2.17889
2.16914
2.15509
2.13583
2.08864
1.57007
0.990917
0.999639
0.999999
1
1
1
1.70026
1.90947
1.98717
2.0399
2.06917
2.08388
2.09454
2.09802
2.10318
2.10717
2.10904
2.10718
2.10772
2.00493
1.42539
1.01967
1.00012
1
1
1
1.27989
1.60858
1.72299
1.81332
1.89146
1.9367
1.97081
1.9905
2.00894
2.02429
2.03986
2.04946
2.07402
2.07604
1.9008
1.28759
1.00872
1.00005
1
1
1.31445
1.47263
1.54502
1.62824
1.71471
1.7962
1.84682
1.89166
1.91606
1.94588
1.96781
1.98851
2.01719
2.04998
2.01617
1.7054
1.12795
1.00202
1.00001
1
1.37604
1.3955
1.41945
1.5158
1.59229
1.67532
1.73819
1.79728
1.83585
1.86927
1.902
1.93099
1.95884
1.99995
1.99578
1.9168
1.44599
1.03018
1.00023
1
1.42586
1.3726
1.3306
1.39261
1.47962
1.56601
1.64667
1.70122
1.76088
1.78959
1.83661
1.86849
1.90112
1.93215
1.9647
1.94847
1.72556
1.18294
1.00398
1.00002
1.44071
1.36784
1.31345
1.33871
1.38885
1.46116
1.55729
1.62273
1.6855
1.72676
1.76794
1.81133
1.83795
1.87002
1.91218
1.93306
1.85502
1.45605
1.037
1.00029
1.42921
1.37021
1.32843
1.31695
1.33787
1.4033
1.48434
1.56174
1.61767
1.67715
1.71339
1.7631
1.78469
1.82302
1.86357
1.9062
1.88045
1.64889
1.16263
1.00353
1.41255
1.37225
1.33363
1.29964
1.29578
1.35353
1.41773
1.50131
1.55639
1.62262
1.66564
1.70946
1.74096
1.77076
1.81257
1.86398
1.86926
1.7533
1.34221
1.02167
1.40971
1.37937
1.3328
1.28677
1.26814
1.2995
1.34604
1.42484
1.49429
1.54975
1.60905
1.64603
1.69117
1.71447
1.75728
1.8109
1.84857
1.80808
1.54679
1.10031
1.41304
1.387
1.33512
1.28628
1.2672
1.28722
1.31238
1.3688
1.44596
1.50168
1.56179
1.6016
1.6462
1.67896
1.72067
1.76968
1.81789
1.80626
1.65601
1.25725
1.41014
1.38343
1.33167
1.28362
1.26912
1.27183
1.28812
1.33657
1.40741
1.46786
1.52099
1.56504
1.60643
1.64578
1.68564
1.7295
1.77818
1.79111
1.69148
1.41816
1.40025
1.37424
1.32507
1.28441
1.26718
1.25918
1.26537
1.30032
1.35781
1.42559
1.4714
1.52346
1.55866
1.60508
1.64172
1.68178
1.73235
1.76842
1.70596
1.56716
1.37922
1.35777
1.32082
1.28391
1.26178
1.25038
1.25136
1.26862
1.29735
1.37187
1.42318
1.47334
1.51
1.56009
1.60674
1.65107
1.69966
1.7395
1.72131
1.69583
1.35982
1.34393
1.31526
1.28222
1.25944
1.24637
1.24594
1.26421
1.28355
1.3364
1.39388
1.44008
1.48428
1.52571
1.57904
1.62329
1.66845
1.71076
1.73794
1.79628
1.34647
1.3387
1.3102
1.28113
1.25709
1.24276
1.24423
1.25816
1.27138
1.31068
1.36793
1.41284
1.46069
1.4994
1.54599
1.59189
1.6269
1.67674
1.75446
1.87995
1.32757
1.31995
1.29876
1.27601
1.25203
1.23835
1.24143
1.24268
1.25123
1.27953
1.3344
1.38072
1.42377
1.4718
1.50753
1.55871
1.60066
1.64773
1.75727
1.95124
1.2945
1.27878
1.27893
1.26926
1.24951
1.23967
1.23867
1.23768
1.24102
1.25768
1.28719
1.3453
1.38311
1.43873
1.4847
1.52791
1.57514
1.62586
1.7577
2.00815
1.23421
1.22326
1.24565
1.25795
1.24974
1.24266
1.23927
1.23714
1.24018
1.25559
1.26342
1.31299
1.3583
1.40384
1.45841
1.49952
1.53805
1.60033
1.77489
2.05505
1.16742
1.16886
1.20504
1.2369
1.24666
1.24121
1.23663
1.23056
1.23325
1.2456
1.25072
1.28133
1.33196
1.37298
1.42073
1.4684
1.50684
1.57573
1.77347
2.07056
1.14716
1.13241
1.15747
1.20273
1.23282
1.23628
1.23048
1.22308
1.22246
1.22966
1.23994
1.26452
1.29927
1.34286
1.38597
1.42852
1.47621
1.57192
1.78357
2.08867
1.14583
1.10169
1.11751
1.16566
1.20539
1.2256
1.22704
1.22272
1.21869
1.21777
1.22566
1.25007
1.2762
1.31263
1.35478
1.39534
1.4458
1.57205
1.78467
2.08418
1.16528
1.09514
1.08519
1.12417
1.16649
1.20466
1.22213
1.22096
1.21633
1.21174
1.21091
1.22967
1.2506
1.28219
1.31802
1.36107
1.42147
1.58306
1.77334
2.05146
1.21406
1.12056
1.08578
1.08799
1.12184
1.1737
1.20751
1.21618
1.21295
1.20649
1.20189
1.20767
1.21986
1.25058
1.28477
1.32744
1.4051
1.60959
1.76405
2.01261
1.25436
1.15577
1.09522
1.07754
1.08723
1.13425
1.17694
1.20271
1.20699
1.20241
1.19879
1.19557
1.19484
1.21994
1.25245
1.2972
1.40959
1.63769
1.74522
1.96473
1.30437
1.20944
1.15651
1.10688
1.08624
1.09771
1.12382
1.16192
1.1823
1.18612
1.18455
1.17417
1.16452
1.179
1.20739
1.2826
1.45274
1.65239
1.69627
1.86434
)
;

boundaryField
{
    inlet
    {
        type            fixedValue;
        value           uniform 1;
    }
    outlet
    {
        type            inletOutlet;
        inletValue      uniform 1;
        value           nonuniform List<scalar> 
35
(
1.30436
1.20941
1.15649
1.10677
1.08604
1.09753
1.1236
1.16162
1.18194
1.18574
1.1842
1.1739
1.16432
1.17872
1.20705
1.28185
1.45106
1.6511
1.69564
1.86443
1.4488
1.58015
1.60072
1.3498
0.91723
0.632775
0.688561
0.744131
0.814925
0.890209
0.9667
1.00836
1.01352
1.00897
1.00232
)
;
    }
    airfoil
    {
        type            zeroGradient;
    }
    top
    {
        type            symmetryPlane;
    }
    bottom
    {
        type            symmetryPlane;
    }
    defaultFaces
    {
        type            empty;
    }
}


// ************************************************************************* //
