/*--------------------------------*- C++ -*----------------------------------*\
  =========                 |
  \\      /  F ield         | OpenFOAM: The Open Source CFD Toolbox
   \\    /   O peration     | Website:  https://openfoam.org
    \\  /    A nd           | Version:  7
     \\/     M anipulation  |
\*---------------------------------------------------------------------------*/
FoamFile
{
    version     2.0;
    format      ascii;
    class       volScalarField;
    location    "6.5";
    object      T;
}
// * * * * * * * * * * * * * * * * * * * * * * * * * * * * * * * * * * * * * //

dimensions      [0 0 0 1 0 0 0];

internalField   nonuniform List<scalar> 
90000
(
1.10335
1.34764
1.48375
1.49568
1.96179
2.3099
2.31493
2.30963
2.26675
2.20721
2.13153
2.05907
1.99506
1.93456
1.87409
1.81603
1.76366
1.71619
1.67256
1.63037
1.59162
1.55652
1.52406
1.49482
1.46835
1.44411
1.42139
1.39959
1.37867
1.35895
1.34015
1.32277
1.30648
1.29107
1.27798
1.26588
1.25494
1.2464
1.23929
1.23254
1.22596
1.21931
1.21299
1.20714
1.20209
1.19752
1.19385
1.1908
1.18779
1.18502
1.1827
1.18081
1.18076
1.18116
1.18219
1.18436
1.18768
1.19222
1.1965
1.20006
1.20229
1.20453
1.20617
1.20637
1.20706
1.20751
1.20744
1.2073
1.20787
1.20956
1.21175
1.21455
1.21547
1.21757
1.21666
1.21606
1.21607
1.2179
1.22095
1.22425
1.22777
1.22878
1.23262
1.23484
1.23823
1.24076
1.24158
1.2444
1.2445
1.2479
1.25068
1.25142
1.25349
1.25231
1.25263
1.2552
1.25581
1.25619
1.25687
1.2556
0.516803
0.516569
0.516314
0.515874
1.61854
2.53347
2.72219
2.74279
2.69576
2.62909
2.58512
2.54774
2.50714
2.45913
2.40631
2.35259
2.31297
2.26871
2.22127
2.17032
2.12282
2.07599
2.03049
1.98531
1.9419
1.89982
1.86036
1.82182
1.78486
1.74759
1.71031
1.67215
1.63362
1.59407
1.55484
1.51656
1.47957
1.44502
1.41356
1.38495
1.35901
1.33524
1.31363
1.29398
1.2764
1.26089
1.2475
1.23618
1.22649
1.21824
1.21123
1.20544
1.20149
1.1997
1.20041
1.20145
1.20255
1.20396
1.20547
1.20656
1.20685
1.20715
1.20762
1.20734
1.20736
1.20771
1.20829
1.20944
1.21183
1.21473
1.21783
1.21981
1.22042
1.22049
1.22
1.22049
1.22207
1.22565
1.22939
1.23226
1.23396
1.23534
1.2388
1.24143
1.24633
1.24719
1.24817
1.24925
1.2496
1.25442
1.25587
1.25677
1.25763
1.25639
1.25758
1.26013
1.26023
1.2613
1.26176
1.26021
0.515321
0.515024
0.514679
0.514347
0.513757
0.512671
0.790968
1.8274
2.33319
2.59471
2.73978
2.73431
2.70959
2.68255
2.65578
2.63388
2.60998
2.58607
2.56071
2.53697
2.51701
2.4921
2.46478
2.4313
2.39151
2.351
2.31175
2.27396
2.23813
2.20166
2.16418
2.12471
2.08191
2.03569
1.98676
1.93684
1.88754
1.83842
1.79034
1.74263
1.69576
1.65023
1.60606
1.56313
1.52215
1.48379
1.44838
1.41665
1.38801
1.3625
1.33955
1.31919
1.30154
1.28616
1.27311
1.26162
1.25165
1.24309
1.23567
1.22959
1.22438
1.21918
1.21522
1.21281
1.21146
1.2112
1.21195
1.21426
1.21785
1.21992
1.22164
1.22213
1.22253
1.22247
1.2229
1.2254
1.22883
1.23367
1.2357
1.23827
1.23927
1.24131
1.24526
1.24803
1.25313
1.25269
1.25373
1.25417
1.25614
1.2608
1.26059
1.26163
1.26162
1.26101
1.26265
1.264
1.26392
1.26535
1.26496
1.26407
0.511892
0.511404
0.510869
0.510283
0.509638
0.509001
0.508023
0.506362
0.615789
0.966876
1.54225
2.10615
2.34817
2.51235
2.63326
2.66759
2.65812
2.63707
2.62205
2.61166
2.59536
2.58142
2.57277
2.56638
2.55841
2.54896
2.53632
2.52169
2.50516
2.4877
2.46929
2.44915
2.42574
2.39375
2.35429
2.31351
2.27459
2.23668
2.19708
2.15577
2.10849
2.05896
2.00823
1.95756
1.90458
1.85044
1.79455
1.73966
1.68611
1.63326
1.5817
1.53288
1.4878
1.44576
1.40783
1.3743
1.3456
1.32087
1.30026
1.28306
1.26887
1.25714
1.24746
1.24023
1.23442
1.23096
1.22969
1.22941
1.22949
1.22887
1.22803
1.22659
1.22538
1.22563
1.22775
1.23232
1.23656
1.24018
1.2408
1.24281
1.24377
1.24654
1.25087
1.2543
1.2579
1.25695
1.25785
1.26041
1.26322
1.2659
1.26483
1.26597
1.26593
1.26592
1.26776
1.26762
1.26702
1.26757
1.26661
1.26666
0.506771
0.506126
0.505422
0.504675
0.503874
0.503028
0.502126
0.501295
0.500014
0.498722
0.496721
0.544821
0.770476
1.1515
1.55179
1.96445
2.20759
2.37146
2.50405
2.57399
2.58739
2.58431
2.57509
2.57191
2.56852
2.56467
2.55982
2.55437
2.54725
2.54173
2.53635
2.53155
2.5272
2.524
2.51579
2.50364
2.48893
2.47315
2.45525
2.43509
2.41203
2.37962
2.33978
2.30299
2.26476
2.22384
2.17968
2.12734
2.07433
2.02148
1.96645
1.90946
1.84798
1.78615
1.72502
1.66485
1.60682
1.55368
1.50581
1.46376
1.42658
1.39366
1.36441
1.3396
1.31778
1.30034
1.28481
1.2716
1.25865
1.24899
1.24176
1.23716
1.23499
1.23626
1.23967
1.24287
1.24583
1.24711
1.24685
1.24833
1.2495
1.25337
1.25698
1.26068
1.2616
1.26126
1.26418
1.26675
1.26976
1.2698
1.26883
1.27025
1.27052
1.27156
1.27338
1.27165
1.27038
1.27025
1.26899
1.26922
0.500101
0.499372
0.498596
0.497784
0.496927
0.49604
0.49511
0.494151
0.49315
0.492115
0.491131
0.489769
0.488164
0.486689
0.484411
0.517942
0.739755
1.11791
1.52445
1.84115
2.10382
2.27233
2.39139
2.46623
2.51115
2.52772
2.53332
2.54297
2.5452
2.54568
2.54419
2.54399
2.541
2.53459
2.53067
2.52879
2.52513
2.51993
2.51314
2.50548
2.49969
2.49652
2.48724
2.47529
2.46077
2.44375
2.42424
2.39999
2.3642
2.32427
2.2879
2.24707
2.19904
2.14205
2.08527
2.02555
1.96157
1.89313
1.82522
1.75896
1.69315
1.6298
1.57214
1.51948
1.47281
1.43153
1.396
1.36532
1.34021
1.319
1.30187
1.28789
1.27905
1.2738
1.27017
1.26662
1.26469
1.26101
1.2591
1.25945
1.26012
1.26413
1.2666
1.26764
1.26646
1.26694
1.27123
1.27327
1.27469
1.27366
1.27342
1.27511
1.27523
1.27756
1.27787
1.27579
1.27476
1.27393
1.27298
1.27318
0.492914
0.492203
0.491434
0.49063
0.489787
0.488911
0.487986
0.487033
0.486026
0.485
0.483904
0.482775
0.481597
0.480392
0.479205
0.477693
0.475836
0.474129
0.471506
0.49544
0.70491
1.09518
1.4808
1.75776
1.97111
2.17788
2.32782
2.41345
2.45404
2.47493
2.48522
2.50046
2.50942
2.50777
2.50607
2.51045
2.51721
2.51943
2.51663
2.51401
2.51056
2.50511
2.50492
2.50195
2.49737
2.49204
2.48502
2.47785
2.47463
2.46464
2.45298
2.43724
2.41701
2.39191
2.35348
2.3095
2.26566
2.21943
2.16346
2.106
2.04653
1.98382
1.91582
1.84856
1.78182
1.71545
1.65226
1.59543
1.54284
1.49474
1.45206
1.414
1.38125
1.35359
1.33196
1.3144
1.30304
1.2946
1.29118
1.28786
1.28811
1.28802
1.28573
1.2807
1.27629
1.27886
1.28339
1.28281
1.2816
1.28043
1.28228
1.28379
1.28281
1.28459
1.2848
1.28358
1.28275
1.28143
1.28034
1.27873
0.485705
0.484957
0.48417
0.483337
0.482473
0.481558
0.480612
0.479625
0.478613
0.477545
0.476436
0.475272
0.474062
0.472814
0.471514
0.470194
0.46882
0.467441
0.466073
0.464507
0.462489
0.460665
0.457975
0.478943
0.640074
1.01375
1.44202
1.73074
1.92165
2.05777
2.22731
2.34307
2.39262
2.42082
2.42312
2.43451
2.46041
2.46687
2.45663
2.45902
2.47192
2.48666
2.49101
2.49027
2.49326
2.49634
2.49476
2.48851
2.48276
2.48537
2.48235
2.47554
2.46759
2.46091
2.45475
2.44138
2.42479
2.40574
2.38109
2.34314
2.29992
2.2603
2.21577
2.16023
2.10382
2.04357
1.97906
1.90795
1.83834
1.76715
1.699
1.63711
1.58248
1.53391
1.49195
1.4566
1.428
1.40496
1.38674
1.36846
1.35234
1.33276
1.31811
1.31231
1.3107
1.30991
1.30621
1.29795
1.29589
1.29729
1.29877
1.29757
1.29474
1.29516
1.29493
1.29405
1.29363
1.29258
1.29062
1.28824
0.477954
0.477174
0.47635
0.475479
0.474575
0.473627
0.472659
0.471666
0.470663
0.469613
0.46855
0.467428
0.466282
0.465081
0.463865
0.462603
0.461333
0.46002
0.458703
0.457336
0.455894
0.454494
0.453134
0.45151
0.449446
0.4476
0.444813
0.464558
0.621744
0.921714
1.3368
1.65802
1.8673
1.99924
2.11656
2.2519
2.32968
2.37194
2.36155
2.36855
2.40791
2.43528
2.4185
2.4194
2.43257
2.44858
2.45431
2.45378
2.46224
2.47293
2.47703
2.4745
2.47168
2.46871
2.46104
2.45811
2.45309
2.44608
2.43671
2.42802
2.4161
2.40239
2.3855
2.36265
2.32715
2.28581
2.24668
2.19822
2.13878
2.08334
2.02236
1.95565
1.89017
1.8246
1.7599
1.7011
1.64966
1.601
1.55681
1.51657
1.47757
1.44645
1.42426
1.40724
1.39271
1.37376
1.35593
1.34521
1.33974
1.33403
1.32749
1.31924
1.3137
1.31061
1.30825
1.30984
1.31227
1.31116
1.30698
1.30309
0.469466
0.468683
0.467863
0.467027
0.466165
0.46528
0.464364
0.463435
0.462485
0.461506
0.460504
0.459467
0.458405
0.457306
0.456209
0.455062
0.453904
0.452674
0.451452
0.450165
0.448868
0.447485
0.446117
0.444671
0.443209
0.441707
0.440262
0.438577
0.436442
0.434478
0.431652
0.43994
0.590202
0.894683
1.25368
1.57281
1.81494
1.96966
2.07761
2.17459
2.27045
2.33311
2.32122
2.31572
2.34077
2.37234
2.37409
2.37552
2.39114
2.4104
2.42415
2.42426
2.42769
2.43852
2.44408
2.44601
2.44697
2.44689
2.44127
2.42803
2.43044
2.42802
2.42179
2.41407
2.40682
2.39475
2.37978
2.35802
2.33208
2.29298
2.255
2.21274
2.16289
2.11299
2.05923
2.00433
1.9475
1.89381
1.8357
1.77428
1.7165
1.6645
1.61764
1.57697
1.54089
1.51284
1.48742
1.46309
1.43773
1.41147
1.39527
1.38285
1.37372
1.36481
1.3553
1.34805
1.34216
1.3359
1.32864
1.3239
0.460944
0.460209
0.459424
0.458624
0.457825
0.457035
0.456231
0.455423
0.454573
0.453706
0.4528
0.451888
0.450922
0.449943
0.448939
0.447912
0.44684
0.445737
0.444594
0.443419
0.44218
0.440881
0.439576
0.438209
0.436875
0.435432
0.434034
0.432525
0.431042
0.429475
0.427981
0.426204
0.4242
0.422222
0.420492
0.41852
0.563831
0.897189
1.27153
1.55535
1.78365
1.95411
2.06773
2.15154
2.21635
2.26916
2.28214
2.27967
2.28961
2.31289
2.32461
2.33098
2.34735
2.37338
2.38589
2.38651
2.39274
2.40237
2.40223
2.40668
2.41684
2.42166
2.42123
2.41786
2.40875
2.40999
2.40572
2.39487
2.38687
2.38222
2.37078
2.35555
2.33595
2.303
2.26929
2.23783
2.20044
2.15504
2.10999
2.05594
1.99605
1.93832
1.8837
1.83275
1.78766
1.74385
1.69641
1.65029
1.60894
1.57412
1.54655
1.52039
1.49779
1.47788
1.46083
1.44506
1.42995
1.41512
1.40129
1.38357
0.4529
0.452261
0.451592
0.450886
0.450183
0.449463
0.448732
0.447995
0.447235
0.446449
0.445649
0.444822
0.443942
0.443044
0.442132
0.441192
0.440197
0.439166
0.438082
0.436968
0.435769
0.434539
0.43323
0.431937
0.430614
0.429304
0.427988
0.426642
0.425273
0.423827
0.422386
0.420894
0.419491
0.418113
0.416777
0.415426
0.413682
0.412174
0.410149
0.415656
0.57712
0.936615
1.32044
1.61997
1.81937
1.97403
2.07112
2.14473
2.18224
2.22769
2.23468
2.24419
2.25391
2.27378
2.28102
2.28892
2.30666
2.32478
2.33698
2.34705
2.35734
2.36553
2.37475
2.38059
2.39032
2.40009
2.39933
2.39468
2.39422
2.39043
2.39073
2.38718
2.38031
2.37262
2.36506
2.35545
2.34054
2.32005
2.28649
2.24929
2.20989
2.17225
2.13489
2.09468
2.04967
2.00246
1.95297
1.89937
1.84858
1.8035
1.76183
1.72142
1.6845
1.65292
1.62796
1.60636
1.58599
1.56344
1.5378
1.50107
0.445505
0.444946
0.444362
0.443737
0.443106
0.442449
0.441779
0.44111
0.440421
0.439703
0.438983
0.438226
0.437408
0.436541
0.43569
0.434787
0.43384
0.432843
0.431823
0.430743
0.429604
0.428411
0.427181
0.425948
0.424714
0.423498
0.4223
0.42113
0.419925
0.418722
0.417486
0.4163
0.415177
0.414099
0.412982
0.411696
0.410421
0.409218
0.40809
0.406682
0.40494
0.403371
0.401246
0.443395
0.689666
1.08903
1.42982
1.69541
1.87629
2.01145
2.09173
2.14528
2.16765
2.19412
2.19794
2.20203
2.21533
2.2256
2.23717
2.2503
2.26649
2.2819
2.29998
2.31595
2.32894
2.34095
2.3476
2.35317
2.36472
2.37667
2.38555
2.38768
2.38475
2.37477
2.37649
2.37415
2.36739
2.36462
2.35453
2.33861
2.32196
2.30569
2.28345
2.26024
2.23715
2.20605
2.1716
2.12967
2.08172
2.03966
2.0006
1.96273
1.91913
1.87673
1.84488
1.81914
1.79149
1.75579
1.71547
1.6661
0.438603
0.438116
0.437591
0.437028
0.43645
0.435843
0.435203
0.434567
0.433893
0.433197
0.432495
0.431779
0.431016
0.430203
0.429378
0.42853
0.427627
0.426689
0.425732
0.424728
0.423675
0.422573
0.421464
0.420376
0.419301
0.418236
0.417217
0.41621
0.41523
0.414249
0.413266
0.412337
0.411451
0.410555
0.409539
0.408367
0.407133
0.405878
0.404635
0.40331
0.401925
0.400604
0.399313
0.397812
0.3964
0.395239
0.393691
0.527216
0.892982
1.29269
1.60877
1.82485
1.96575
2.04263
2.0919
2.11619
2.15296
2.15215
2.15471
2.16113
2.17225
2.18949
2.2089
2.22489
2.23744
2.25109
2.26556
2.28305
2.30293
2.31878
2.33285
2.34508
2.35046
2.35881
2.36822
2.36842
2.36618
2.36001
2.35674
2.35373
2.34946
2.34284
2.33876
2.32997
2.31583
2.30095
2.28079
2.26233
2.23967
2.20809
2.17593
2.14627
2.11938
2.08629
2.05418
2.0285
2.00319
1.96758
1.9239
1.86616
0.432036
0.431565
0.43108
0.430567
0.430034
0.429475
0.428884
0.428277
0.427631
0.426955
0.42627
0.425575
0.424864
0.424109
0.423329
0.42254
0.42172
0.420892
0.420044
0.419172
0.418277
0.417355
0.41644
0.41558
0.414734
0.413894
0.413039
0.412182
0.411349
0.410512
0.409671
0.408894
0.408148
0.407346
0.40635
0.405206
0.40395
0.402677
0.401414
0.400116
0.398881
0.397666
0.396483
0.395438
0.394542
0.393507
0.39264
0.391764
0.390954
0.389367
0.463921
0.792174
1.2343
1.52545
1.75931
1.91374
2.02005
2.0638
2.0839
2.10036
2.11032
2.12156
2.12824
2.13701
2.15058
2.16415
2.17869
2.19555
2.21164
2.22745
2.24818
2.27021
2.28641
2.30163
2.31418
2.32078
2.32709
2.33468
2.34273
2.34757
2.34918
2.34659
2.33759
2.33325
2.32593
2.31774
2.30821
2.29973
2.29173
2.28045
2.26325
2.24377
2.2212
2.20804
2.1911
2.16253
2.13213
2.1045
2.07897
2.03507
0.42559
0.425146
0.424679
0.424192
0.42369
0.423178
0.42264
0.422075
0.421484
0.420879
0.420266
0.419639
0.419016
0.418369
0.417716
0.417059
0.416391
0.415718
0.415047
0.41437
0.413698
0.412996
0.412317
0.411669
0.411036
0.410391
0.40966
0.408859
0.408075
0.407258
0.406438
0.405669
0.404934
0.404072
0.403067
0.401922
0.400671
0.399427
0.398218
0.397098
0.396052
0.39506
0.394168
0.39341
0.392635
0.391726
0.390976
0.390255
0.389482
0.388313
0.38687
0.385596
0.384224
0.415885
0.718839
1.17617
1.51911
1.76247
1.90619
1.99155
2.02703
2.05662
2.07566
2.07912
2.08473
2.08945
2.10059
2.11726
2.13197
2.14718
2.16462
2.17972
2.19401
2.21156
2.22928
2.24478
2.26144
2.27614
2.28634
2.29865
2.30965
2.31617
2.3191
2.32204
2.31887
2.31394
2.31096
2.30472
2.29595
2.28804
2.27983
2.26882
2.25388
2.2422
2.23303
2.22071
2.20107
2.17575
2.15553
2.1302
0.419759
0.419338
0.418897
0.418444
0.417985
0.417527
0.417059
0.416587
0.416105
0.415609
0.415091
0.414575
0.41408
0.413583
0.413081
0.412587
0.412074
0.411559
0.411035
0.410524
0.410009
0.409471
0.408932
0.408388
0.407836
0.407271
0.406592
0.40581
0.404975
0.4041
0.403207
0.402382
0.401566
0.40068
0.399715
0.398665
0.397592
0.396512
0.395554
0.39469
0.393903
0.393139
0.392414
0.391777
0.39106
0.390318
0.389504
0.388782
0.387887
0.386689
0.385554
0.384475
0.383825
0.383119
0.382345
0.381241
0.417966
0.770515
1.20289
1.54359
1.74926
1.8951
1.97108
1.99865
2.02495
2.03475
2.04712
2.05585
2.05912
2.07243
2.08821
2.10083
2.1139
2.12863
2.14135
2.15437
2.16982
2.18398
2.19803
2.21802
2.23669
2.24991
2.25856
2.26723
2.27216
2.27638
2.28345
2.28283
2.28027
2.27754
2.27443
2.26745
2.25928
2.2483
2.23533
2.22492
2.21347
2.19739
2.18137
2.15984
0.414381
0.414047
0.413695
0.413332
0.412966
0.412618
0.412282
0.411953
0.411635
0.411311
0.41097
0.410626
0.410277
0.409896
0.409497
0.409099
0.408674
0.408217
0.407735
0.407241
0.406732
0.406234
0.405744
0.405191
0.404579
0.403929
0.403204
0.402398
0.401526
0.400619
0.399702
0.398873
0.398094
0.397349
0.396603
0.395883
0.395102
0.394348
0.393635
0.392997
0.392328
0.391624
0.390924
0.390235
0.389515
0.388752
0.38806
0.387367
0.386463
0.385522
0.384477
0.383637
0.383
0.382339
0.381661
0.381074
0.380693
0.380436
0.379534
0.45179
0.829594
1.24868
1.57243
1.7547
1.87714
1.93603
1.97455
2.00231
1.9991
2.00698
2.01394
2.02155
2.03766
2.04909
2.05808
2.06917
2.08144
2.09153
2.10336
2.11923
2.13449
2.14706
2.16053
2.17575
2.18967
2.20354
2.21739
2.22593
2.22666
2.22849
2.23187
2.23272
2.23129
2.22305
2.21698
2.21032
2.20381
2.19373
2.1835
2.16451
0.410273
0.410062
0.409839
0.409616
0.409385
0.40917
0.408949
0.408711
0.408487
0.408257
0.408005
0.407731
0.407422
0.407055
0.406632
0.40617
0.405667
0.40513
0.404577
0.403995
0.4034
0.402826
0.402289
0.4017
0.401025
0.400292
0.399527
0.398727
0.397937
0.397156
0.396417
0.395763
0.395248
0.394778
0.394359
0.393928
0.393453
0.392877
0.392321
0.391725
0.391059
0.390322
0.389597
0.388862
0.388136
0.38747
0.386852
0.386089
0.385269
0.384265
0.383297
0.382622
0.38209
0.381639
0.38124
0.380856
0.380524
0.380016
0.379229
0.378985
0.37846
0.377331
0.523167
0.934311
1.30219
1.59664
1.76129
1.85457
1.89745
1.93053
1.93912
1.94368
1.95763
1.96192
1.96981
1.98197
1.99308
1.99969
2.00839
2.0176
2.02725
2.0392
2.05355
2.06598
2.07863
2.0918
2.10571
2.11993
2.13236
2.14134
2.15007
2.15846
2.16351
2.16156
2.15782
2.15353
2.15219
2.15053
2.14762
2.13597
0.407713
0.407536
0.407345
0.407141
0.406914
0.406689
0.406445
0.406177
0.405891
0.405591
0.405267
0.404903
0.404495
0.404025
0.403492
0.402899
0.40225
0.401565
0.400857
0.400161
0.399509
0.398926
0.398415
0.397884
0.397285
0.396685
0.396114
0.395581
0.395076
0.394597
0.394137
0.393778
0.393513
0.393276
0.393021
0.392763
0.392404
0.391917
0.391351
0.39071
0.389961
0.389155
0.388393
0.387574
0.386805
0.38614
0.385427
0.384612
0.383623
0.382572
0.38188
0.381495
0.381308
0.381028
0.38078
0.380431
0.380153
0.379736
0.379882
0.379653
0.3785
0.378596
0.37949
0.381641
0.383088
0.635733
1.03321
1.34509
1.57539
1.69745
1.78085
1.83015
1.8738
1.86781
1.87554
1.88068
1.88646
1.8952
1.90828
1.91638
1.92352
1.93343
1.94054
1.94705
1.95753
1.97057
1.98286
1.99601
2.0072
2.01524
2.02354
2.03341
2.04344
2.05288
2.05752
2.05717
2.05655
2.06009
2.0654
2.06415
0.405021
0.404775
0.404505
0.404207
0.403877
0.403521
0.403156
0.402775
0.402358
0.401927
0.401493
0.401045
0.400571
0.400062
0.399518
0.398953
0.398383
0.397794
0.397201
0.396642
0.396149
0.395738
0.395425
0.395121
0.394783
0.394469
0.394217
0.393977
0.393717
0.39342
0.39313
0.392879
0.392681
0.392478
0.392235
0.391984
0.391656
0.391169
0.390523
0.38977
0.388828
0.38782
0.386884
0.385954
0.385149
0.384483
0.383753
0.383012
0.382118
0.381553
0.381175
0.38101
0.380972
0.3808
0.380675
0.380815
0.381116
0.381952
0.382209
0.382106
0.382661
0.384352
0.38706
0.389815
0.392378
0.3941
0.395131
0.418331
0.709205
1.05932
1.35008
1.53996
1.63474
1.704
1.75413
1.78509
1.7844
1.7903
1.79444
1.79801
1.80788
1.82187
1.82898
1.83366
1.84144
1.84861
1.85494
1.86357
1.87379
1.88333
1.89215
1.901
1.90849
1.91553
1.92038
1.92125
1.92183
1.9269
1.93669
1.94442
0.400229
0.399934
0.399631
0.399338
0.399035
0.398719
0.398417
0.398136
0.397864
0.397593
0.39736
0.39715
0.396951
0.396754
0.396531
0.396287
0.396022
0.39571
0.395375
0.395076
0.394799
0.394552
0.394397
0.394245
0.394064
0.393907
0.393764
0.393583
0.39333
0.39302
0.392698
0.392374
0.392051
0.391685
0.391255
0.39076
0.390177
0.389406
0.388527
0.387585
0.386526
0.385351
0.384411
0.383786
0.383421
0.383027
0.382644
0.382256
0.381672
0.381677
0.381833
0.382356
0.382725
0.383039
0.383318
0.383439
0.383693
0.384156
0.384609
0.386107
0.38856
0.391741
0.394859
0.397133
0.399552
0.401062
0.40216
0.40254
0.404144
0.406054
0.47863
0.788367
1.079
1.32718
1.47333
1.56403
1.63141
1.66978
1.6983
1.69175
1.69774
1.70127
1.70553
1.71196
1.72387
1.73154
1.73854
1.74542
1.74975
1.75412
1.7604
1.76696
1.77295
1.77746
1.78185
1.78436
1.78624
1.79065
1.79831
1.80548
0.39626
0.396188
0.396136
0.396112
0.396102
0.396078
0.396026
0.395964
0.395923
0.395878
0.395851
0.395858
0.395889
0.395898
0.39586
0.395769
0.395626
0.395414
0.395176
0.394962
0.394746
0.394547
0.394413
0.394251
0.394059
0.393865
0.393614
0.393232
0.392702
0.39208
0.391412
0.390731
0.390041
0.389332
0.388591
0.387867
0.387115
0.386308
0.385514
0.384845
0.384134
0.383457
0.382907
0.382701
0.382667
0.382466
0.382542
0.382888
0.383843
0.384926
0.386118
0.38704
0.387273
0.387329
0.387144
0.387268
0.387701
0.388651
0.391003
0.393932
0.39717
0.400255
0.4023
0.404029
0.405383
0.406143
0.406927
0.409175
0.412491
0.417229
0.418832
0.419757
0.420833
0.537812
0.820481
1.10252
1.3098
1.41959
1.49621
1.54913
1.59636
1.60153
1.60625
1.60414
1.60844
1.61409
1.624
1.63276
1.63802
1.64063
1.64403
1.64689
1.65037
1.65477
1.65789
1.65995
1.66107
1.66354
1.66681
1.6694
0.395946
0.396007
0.396102
0.396275
0.396372
0.396364
0.396307
0.396214
0.396179
0.39615
0.396083
0.395977
0.395894
0.395799
0.395659
0.395477
0.395224
0.394894
0.39451
0.39409
0.393648
0.393224
0.39281
0.392299
0.391658
0.390985
0.390282
0.389507
0.388746
0.38807
0.387493
0.386985
0.386577
0.386145
0.385707
0.38539
0.38506
0.384626
0.384152
0.383756
0.383465
0.383662
0.38413
0.384858
0.385494
0.386325
0.387161
0.388077
0.388871
0.389545
0.390295
0.390558
0.390939
0.3912
0.39196
0.393419
0.395641
0.398677
0.401634
0.404025
0.406217
0.407342
0.408221
0.409049
0.409818
0.411467
0.414551
0.418091
0.421489
0.42441
0.426529
0.427918
0.429899
0.431537
0.434117
0.436377
0.59223
0.85781
1.08121
1.27668
1.38445
1.44
1.48512
1.51198
1.52831
1.52074
1.52536
1.52706
1.53096
1.53568
1.54143
1.54485
1.54739
1.55055
1.55013
1.55041
1.55145
1.55388
1.55705
1.55646
0.396839
0.396845
0.396777
0.396591
0.396282
0.395893
0.39548
0.395069
0.394637
0.394091
0.393461
0.392879
0.392452
0.392051
0.391655
0.391312
0.390912
0.390467
0.39005
0.38963
0.389195
0.3888
0.388465
0.388079
0.387583
0.387185
0.386949
0.386564
0.386131
0.38577
0.385547
0.385409
0.385342
0.38517
0.385125
0.385179
0.385455
0.385962
0.386812
0.387789
0.389016
0.39015
0.391213
0.391951
0.392399
0.392805
0.392977
0.39325
0.393302
0.393598
0.394013
0.394971
0.396347
0.398394
0.401064
0.403855
0.406652
0.409113
0.410602
0.412003
0.412668
0.413094
0.41375
0.414793
0.416906
0.419887
0.423546
0.426785
0.429003
0.430881
0.433317
0.4352
0.436967
0.43961
0.443558
0.448265
0.450483
0.45164
0.46069
0.652531
0.903571
1.1203
1.25921
1.34611
1.39225
1.41739
1.45484
1.44909
1.4487
1.44786
1.44858
1.45108
1.45637
1.46251
1.46372
1.46275
1.461
1.46158
1.46295
1.46266
0.390871
0.390595
0.390348
0.390014
0.389625
0.389296
0.389054
0.388958
0.388896
0.388719
0.388358
0.388049
0.387954
0.387911
0.387846
0.387748
0.387609
0.387441
0.38724
0.387082
0.386929
0.386807
0.386746
0.386741
0.386713
0.386751
0.386874
0.3872
0.38767
0.388314
0.389009
0.389776
0.390484
0.391231
0.391932
0.392706
0.39349
0.394314
0.39508
0.395745
0.396312
0.396676
0.397037
0.397232
0.397536
0.397809
0.398297
0.398999
0.400141
0.401707
0.403699
0.406025
0.408259
0.410517
0.41227
0.413775
0.415006
0.415784
0.416539
0.417249
0.417936
0.419177
0.420757
0.423262
0.426443
0.429641
0.432428
0.434712
0.436498
0.438205
0.440053
0.442354
0.445279
0.448714
0.452671
0.455717
0.458034
0.460389
0.462487
0.465428
0.467628
0.517985
0.706537
0.95864
1.1233
1.24794
1.30745
1.33973
1.37043
1.39044
1.38785
1.38142
1.38563
1.38732
1.38849
1.38973
1.39117
1.392
1.39123
1.38937
0.387591
0.387676
0.387772
0.387841
0.387938
0.388075
0.388181
0.388273
0.388403
0.388552
0.388751
0.388964
0.38919
0.389479
0.389848
0.390237
0.390625
0.391029
0.391518
0.392043
0.392595
0.393168
0.393768
0.39434
0.394941
0.395587
0.39626
0.396827
0.397304
0.397746
0.398173
0.398553
0.398845
0.399124
0.399396
0.399755
0.4001
0.400502
0.400813
0.401178
0.401528
0.402068
0.402763
0.403707
0.404935
0.406392
0.408254
0.410182
0.412328
0.41424
0.416069
0.417415
0.418518
0.419288
0.41978
0.42027
0.420562
0.421084
0.422061
0.423409
0.425685
0.42847
0.431531
0.434725
0.437099
0.439467
0.441075
0.442291
0.443939
0.445401
0.447538
0.45139
0.455437
0.458883
0.461346
0.463091
0.465464
0.468597
0.472427
0.475376
0.47939
0.480982
0.482969
0.484724
0.567589
0.799099
0.978418
1.14119
1.24185
1.28379
1.31056
1.3249
1.3422
1.33708
1.33188
1.33188
1.33321
1.33533
1.33756
1.33648
0.397762
0.397874
0.398
0.398121
0.398238
0.398367
0.39851
0.398676
0.398853
0.399012
0.399161
0.399332
0.399515
0.399691
0.399866
0.40005
0.400263
0.4005
0.400734
0.400976
0.401234
0.401492
0.401775
0.402088
0.402432
0.402753
0.403085
0.403442
0.403845
0.40424
0.404655
0.405072
0.405564
0.406131
0.406827
0.407609
0.408486
0.409442
0.410496
0.411683
0.412924
0.414281
0.415587
0.416971
0.418186
0.419353
0.420302
0.421236
0.422099
0.422871
0.423647
0.424137
0.424666
0.425052
0.425701
0.426471
0.427809
0.429806
0.432219
0.435024
0.437931
0.440274
0.442578
0.444239
0.44554
0.44684
0.448051
0.449723
0.451905
0.454946
0.458735
0.462181
0.465478
0.467815
0.469419
0.471921
0.475056
0.478276
0.480842
0.483613
0.48663
0.489006
0.491722
0.495183
0.496981
0.498665
0.502192
0.66228
0.873681
1.04524
1.1744
1.24093
1.2739
1.28202
1.2955
1.30236
1.30017
1.2986
1.29841
1.29779
0.405619
0.405782
0.405932
0.40605
0.406163
0.406308
0.406499
0.406714
0.40691
0.407086
0.407273
0.407478
0.407701
0.407933
0.408178
0.408443
0.408721
0.409023
0.409363
0.409733
0.410134
0.410585
0.411096
0.411641
0.412215
0.412835
0.413493
0.414153
0.414847
0.415587
0.416379
0.417167
0.417991
0.418828
0.419679
0.420481
0.421288
0.422065
0.422841
0.423551
0.424239
0.424911
0.425557
0.426167
0.426615
0.427049
0.427428
0.427935
0.428414
0.4291
0.429794
0.430773
0.431971
0.433623
0.435677
0.437987
0.440594
0.443069
0.445404
0.447432
0.448836
0.450045
0.451168
0.452109
0.453401
0.45489
0.457219
0.460578
0.464074
0.467512
0.470424
0.472532
0.474577
0.47646
0.478711
0.48128
0.483854
0.486403
0.489357
0.492438
0.494712
0.49729
0.49968
0.50169
0.503559
0.505494
0.50758
0.508936
0.509703
0.5682
0.755916
0.970181
1.11249
1.19641
1.24312
1.25607
1.27095
1.27933
1.27624
1.27293
0.417575
0.41773
0.417933
0.418145
0.418341
0.418542
0.41874
0.418949
0.41919
0.419442
0.419694
0.41996
0.420241
0.420541
0.420863
0.4212
0.421549
0.421908
0.422278
0.422662
0.423055
0.423451
0.42384
0.424226
0.424606
0.424972
0.425339
0.425715
0.426086
0.426449
0.426808
0.427175
0.427555
0.427931
0.428325
0.428729
0.429163
0.429592
0.430064
0.43056
0.431155
0.431776
0.432478
0.43321
0.434092
0.435091
0.436285
0.437611
0.439089
0.440746
0.442515
0.444423
0.446287
0.448161
0.449779
0.451362
0.452777
0.454144
0.455333
0.45645
0.45728
0.458358
0.459676
0.461587
0.464126
0.466999
0.470335
0.47326
0.476107
0.478466
0.480151
0.481738
0.483216
0.485431
0.488076
0.4907
0.493105
0.495808
0.498428
0.500327
0.502187
0.503941
0.505787
0.507559
0.509152
0.510524
0.511697
0.512743
0.513767
0.514512
0.51489
0.526179
0.650888
0.893789
1.07295
1.16625
1.23594
1.24793
1.25339
1.26015
0.427806
0.427945
0.428071
0.428194
0.42833
0.428541
0.428784
0.428971
0.429127
0.429343
0.429609
0.429867
0.430096
0.43032
0.430561
0.430828
0.431106
0.431384
0.431653
0.43193
0.432213
0.432507
0.432806
0.433117
0.433443
0.433793
0.434168
0.434574
0.435009
0.435482
0.435984
0.436529
0.437115
0.437747
0.438427
0.439163
0.439946
0.440778
0.441669
0.442609
0.443612
0.44466
0.4458
0.447009
0.448303
0.449603
0.450944
0.452231
0.453507
0.454739
0.455957
0.457081
0.458123
0.459087
0.459986
0.460932
0.461834
0.462966
0.464247
0.465914
0.467894
0.47018
0.472727
0.475629
0.478291
0.480929
0.483193
0.484939
0.48649
0.487848
0.489372
0.491171
0.49337
0.495578
0.497801
0.499936
0.502053
0.503619
0.504805
0.506241
0.507956
0.509635
0.51097
0.51207
0.512935
0.513612
0.51424
0.515056
0.515893
0.516431
0.517008
0.516962
0.516904
0.516982
0.588079
0.837389
1.03139
1.1397
1.21477
1.24586
0.440197
0.44038
0.440578
0.440756
0.440901
0.441044
0.441237
0.441462
0.441682
0.441885
0.442092
0.442317
0.44257
0.442837
0.44311
0.443397
0.443715
0.444058
0.444416
0.444792
0.445188
0.445606
0.446046
0.446514
0.447015
0.447534
0.448072
0.448626
0.449186
0.449749
0.450309
0.450872
0.451445
0.452033
0.452631
0.453263
0.453937
0.45467
0.455442
0.456257
0.457096
0.457947
0.458808
0.459663
0.460506
0.461312
0.462127
0.462927
0.463799
0.464719
0.46577
0.466857
0.468125
0.469473
0.47105
0.472695
0.474707
0.476771
0.479132
0.481285
0.483447
0.485418
0.487237
0.488802
0.490185
0.491555
0.492753
0.494151
0.495487
0.497057
0.498805
0.500686
0.502626
0.504358
0.50571
0.506974
0.508216
0.509268
0.51045
0.511759
0.512787
0.513564
0.514162
0.514722
0.515315
0.515795
0.516212
0.516746
0.517316
0.517489
0.517779
0.517838
0.517837
0.51807
0.518481
0.518581
0.550266
0.776701
0.963004
1.1813
0.453225
0.453369
0.453512
0.453648
0.453803
0.454006
0.454224
0.454433
0.454634
0.454838
0.455066
0.455324
0.455601
0.45588
0.456169
0.456466
0.456781
0.457106
0.45745
0.457804
0.458166
0.45854
0.458925
0.45932
0.45972
0.460127
0.460543
0.460966
0.461396
0.461849
0.462319
0.46282
0.463356
0.463937
0.464561
0.465246
0.465964
0.466732
0.467521
0.468366
0.469225
0.470122
0.471047
0.472052
0.473115
0.474265
0.475495
0.476801
0.478136
0.47953
0.48092
0.482394
0.483846
0.485408
0.486958
0.48863
0.4902
0.491791
0.493191
0.494428
0.495491
0.49633
0.497207
0.498065
0.499133
0.500249
0.501635
0.503202
0.504998
0.506619
0.507926
0.509001
0.509924
0.510833
0.511675
0.512396
0.513108
0.513888
0.514558
0.515047
0.515432
0.515929
0.516365
0.516714
0.51698
0.517232
0.517491
0.517881
0.518267
0.518323
0.518301
0.518454
0.518795
0.519219
0.519902
0.519939
0.519895
0.52021
0.524943
0.873409
0.46784
0.468034
0.468255
0.468488
0.468702
0.468888
0.469091
0.469354
0.469638
0.469899
0.470144
0.470396
0.470674
0.470982
0.471295
0.471608
0.471918
0.472249
0.472607
0.47299
0.473391
0.473809
0.474251
0.474717
0.475212
0.47573
0.476272
0.47683
0.477417
0.47803
0.478648
0.479265
0.479903
0.480543
0.481198
0.481871
0.482574
0.483276
0.483998
0.484749
0.485576
0.486475
0.487436
0.488426
0.489385
0.490329
0.491272
0.492225
0.493184
0.494141
0.495091
0.495978
0.496853
0.497698
0.498558
0.49942
0.500336
0.501376
0.502425
0.503463
0.504397
0.505292
0.506155
0.507137
0.50819
0.509306
0.510362
0.511356
0.512264
0.51312
0.513642
0.513923
0.514201
0.514596
0.51513
0.515663
0.516158
0.516552
0.516784
0.516948
0.517206
0.517462
0.517642
0.517732
0.517865
0.518161
0.518564
0.518832
0.519057
0.519043
0.518876
0.519054
0.519836
0.520307
0.520895
0.52118
0.52156
0.522681
0.522858
0.523771
0.48454
0.484728
0.484921
0.485097
0.485264
0.485491
0.485766
0.485996
0.486181
0.486379
0.486614
0.486872
0.48713
0.487375
0.487619
0.487879
0.488167
0.488477
0.488806
0.489151
0.489515
0.489898
0.490295
0.4907
0.491109
0.491523
0.491939
0.492361
0.492801
0.493266
0.493724
0.494181
0.494656
0.495153
0.495662
0.496196
0.496749
0.497319
0.4979
0.498503
0.499116
0.499715
0.500297
0.500862
0.501426
0.50204
0.502731
0.503492
0.504289
0.505087
0.505795
0.506439
0.50705
0.507695
0.50838
0.509096
0.509883
0.510744
0.511665
0.51253
0.513208
0.513682
0.513975
0.514213
0.514522
0.514884
0.515233
0.515506
0.515749
0.516107
0.516415
0.51658