/*--------------------------------*- C++ -*----------------------------------*\
  =========                 |
  \\      /  F ield         | OpenFOAM: The Open Source CFD Toolbox
   \\    /   O peration     | Website:  https://openfoam.org
    \\  /    A nd           | Version:  7
     \\/     M anipulation  |
\*---------------------------------------------------------------------------*/
FoamFile
{
    version     2.0;
    format      ascii;
    class       volVectorField;
    location    "8.5";
    object      U;
}
// * * * * * * * * * * * * * * * * * * * * * * * * * * * * * * * * * * * * * //

dimensions      [0 1 -1 0 0 0 0];

internalField   nonuniform List<vector> 
90000
(
(3.00655 -0.033323 0)
(3.00816 -0.031358 0)
(3.01183 -0.0272492 0)
(3.01245 -0.0248638 0)
(3.01235 -0.0234123 0)
(3.01164 -0.0222641 0)
(3.01093 -0.0208792 0)
(3.01021 -0.0206776 0)
(3.00897 -0.0185122 0)
(3.00814 -0.0181038 0)
(3.00717 -0.0164024 0)
(3.00618 -0.0160284 0)
(3.00501 -0.0148019 0)
(3.00415 -0.0146887 0)
(3.00328 -0.0137844 0)
(3.00266 -0.0133908 0)
(3.00199 -0.0125499 0)
(3.00137 -0.0120892 0)
(3.00072 -0.0114243 0)
(3.00019 -0.0109423 0)
(2.99983 -0.0104531 0)
(2.99919 -0.00898073 0)
(2.99892 -0.00840752 0)
(2.99816 -0.00646272 0)
(2.99783 -0.00557551 0)
(2.99733 -0.00406481 0)
(2.9968 -0.00239723 0)
(2.99647 -0.00134884 0)
(2.99599 0.000137405 0)
(2.99558 0.00148212 0)
(2.99513 0.00265596 0)
(2.99458 0.00351311 0)
(2.99404 0.00436398 0)
(2.99343 0.00445113 0)
(2.99341 0.00384653 0)
(2.99352 0.0025305 0)
(2.9949 -0.000914959 0)
(2.99476 -0.00431032 0)
(2.99468 -0.00879111 0)
(2.99388 -0.0106175 0)
(2.99205 -0.0124745 0)
(2.9908 -0.0121278 0)
(2.98923 -0.0110363 0)
(2.98757 -0.00936786 0)
(2.98581 -0.00706295 0)
(2.98476 -0.00480048 0)
(2.98381 -0.0029366 0)
(2.98442 -0.000602175 0)
(2.98484 -0.000503289 0)
(2.98572 -0.00164183 0)
(2.98709 -0.00424807 0)
(2.98775 -0.00570848 0)
(2.98773 -0.00820472 0)
(2.98735 -0.00845116 0)
(2.98642 -0.00781559 0)
(2.98479 -0.00579598 0)
(2.98392 -0.00420583 0)
(2.98369 -0.00147737 0)
(2.98395 -0.00135315 0)
(2.98464 -0.00246765 0)
(2.98555 -0.00480984 0)
(2.98686 -0.0057434 0)
(2.98592 -0.00677275 0)
(2.9851 -0.00615842 0)
(2.98395 -0.00478821 0)
(2.98368 -0.00325494 0)
(2.98376 -0.00231002 0)
(2.98408 -0.00286482 0)
(2.98458 -0.00425776 0)
(2.98491 -0.00419187 0)
(2.98446 -0.00401434 0)
(2.98373 -0.00380815 0)
(2.98364 -0.00280875 0)
(2.98376 -0.00277856 0)
(2.98396 -0.00291276 0)
(2.98434 -0.00386001 0)
(2.98422 -0.00385304 0)
(2.98395 -0.00360659 0)
(2.98371 -0.00332707 0)
(2.98358 -0.00342769 0)
(2.98351 -0.00359615 0)
(2.9834 -0.00348023 0)
(2.98335 -0.00321005 0)
(2.98317 -0.00330508 0)
(2.98319 -0.00336918 0)
(2.98315 -0.00348263 0)
(2.98303 -0.00348128 0)
(2.98287 -0.00344582 0)
(2.98286 -0.00340772 0)
(2.98284 -0.0036333 0)
(2.9829 -0.00398286 0)
(2.98287 -0.00408843 0)
(2.98282 -0.00409516 0)
(2.98269 -0.00385069 0)
(2.98249 -0.00347487 0)
(2.98236 -0.00314614 0)
(2.98236 -0.00317023 0)
(2.98238 -0.00318521 0)
(2.98246 -0.00328826 0)
(2.98256 -0.00374196 0)
(3.00275 -0.0369347 0)
(3.00274 -0.0369371 0)
(3.00272 -0.036914 0)
(3.0027 -0.0368483 0)
(3.00267 -0.0367226 0)
(3.00256 -0.0365123 0)
(3.00252 -0.0363045 0)
(3.00247 -0.0360605 0)
(3.00225 -0.0355671 0)
(3.00204 -0.0349797 0)
(3.00191 -0.034406 0)
(3.00172 -0.0334153 0)
(3.00145 -0.032273 0)
(3.00111 -0.030753 0)
(3.00089 -0.0296472 0)
(3.00058 -0.0279834 0)
(3.00039 -0.0269896 0)
(2.99987 -0.025311 0)
(2.99956 -0.0244796 0)
(2.99901 -0.022804 0)
(2.99879 -0.021978 0)
(2.99833 -0.0203731 0)
(2.99808 -0.0196751 0)
(2.99755 -0.0180474 0)
(2.99729 -0.0171334 0)
(2.99674 -0.0153996 0)
(2.99644 -0.0142235 0)
(2.99587 -0.0122991 0)
(2.9956 -0.0111149 0)
(2.99496 -0.00880149 0)
(2.99479 -0.00751549 0)
(2.99396 -0.00508113 0)
(2.99371 -0.00367726 0)
(2.99304 -0.00190595 0)
(2.99284 -0.000105602 0)
(2.99205 0.00163523 0)
(2.99186 0.00258919 0)
(2.99148 0.00210646 0)
(2.99173 0.00125899 0)
(2.99226 -1.59296e-05 0)
(2.99316 -0.00267109 0)
(2.99336 -0.0039134 0)
(2.99381 -0.00616237 0)
(2.9929 -0.00615777 0)
(2.99243 -0.0057062 0)
(2.99175 -0.00469173 0)
(2.99107 -0.00318074 0)
(2.99042 -0.00206055 0)
(2.98989 -0.000930524 0)
(2.98939 -4.53661e-05 0)
(2.98944 -0.000483182 0)
(2.98983 -0.00200026 0)
(2.99043 -0.00409566 0)
(2.9909 -0.00600954 0)
(2.99071 -0.00748318 0)
(2.99021 -0.00694317 0)
(2.98934 -0.00540632 0)
(2.9885 -0.00376372 0)
(2.98787 -0.00184221 0)
(2.98755 -0.000842128 0)
(2.98791 -0.00189645 0)
(2.98883 -0.00384219 0)
(2.98945 -0.00616698 0)
(2.98912 -0.00688703 0)
(2.98851 -0.0059392 0)
(2.98774 -0.00453694 0)
(2.98702 -0.00234396 0)
(2.98689 -0.00235944 0)
(2.98714 -0.00301015 0)
(2.98782 -0.00462808 0)
(2.98765 -0.00512792 0)
(2.98718 -0.00446647 0)
(2.98666 -0.00352113 0)
(2.98645 -0.00290431 0)
(2.98649 -0.00328933 0)
(2.98678 -0.00396521 0)
(2.98678 -0.00448388 0)
(2.98662 -0.00435735 0)
(2.98632 -0.00402387 0)
(2.98605 -0.00407527 0)
(2.98595 -0.00412407 0)
(2.98586 -0.00405228 0)
(2.98577 -0.0037602 0)
(2.98549 -0.00347153 0)
(2.98544 -0.00359333 0)
(2.98533 -0.00385681 0)
(2.9852 -0.00385569 0)
(2.98498 -0.00379263 0)
(2.98487 -0.00389983 0)
(2.98478 -0.00420648 0)
(2.98472 -0.00445561 0)
(2.98466 -0.00444712 0)
(2.98459 -0.00430149 0)
(2.98445 -0.00400738 0)
(2.98423 -0.00359496 0)
(2.98404 -0.00329078 0)
(2.98387 -0.00329909 0)
(2.98385 -0.00344792 0)
(2.98384 -0.00384194 0)
(2.98381 -0.00436666 0)
(3.00133 -0.0366868 0)
(3.0013 -0.0366766 0)
(3.00128 -0.0366675 0)
(3.00125 -0.0366628 0)
(3.00122 -0.0366532 0)
(3.00118 -0.0366335 0)
(3.00115 -0.0366219 0)
(3.00111 -0.0365937 0)
(3.00108 -0.0365575 0)
(3.00104 -0.0364812 0)
(3.00098 -0.0364078 0)
(3.00088 -0.0363125 0)
(3.0007 -0.0361148 0)
(3.00042 -0.0358481 0)
(3.0001 -0.0354738 0)
(2.99971 -0.0348978 0)
(2.99934 -0.0342735 0)
(2.99886 -0.0333467 0)
(2.99848 -0.0324826 0)
(2.998 -0.0311597 0)
(2.99766 -0.0300758 0)
(2.99711 -0.0284766 0)
(2.99671 -0.0273136 0)
(2.99608 -0.0255756 0)
(2.99568 -0.0243509 0)
(2.99499 -0.0222979 0)
(2.99462 -0.021223 0)
(2.99381 -0.0188562 0)
(2.99347 -0.0178207 0)
(2.99249 -0.0151267 0)
(2.99209 -0.0139929 0)
(2.9912 -0.0113258 0)
(2.99087 -0.0102081 0)
(2.9901 -0.00763112 0)
(2.98992 -0.00661884 0)
(2.98947 -0.00475337 0)
(2.98921 -0.00372974 0)
(2.98871 -0.00216702 0)
(2.98841 -0.00107183 0)
(2.98829 0.000174943 0)
(2.98819 1.28309e-05 0)
(2.98846 -0.000468069 0)
(2.98907 -0.00143913 0)
(2.98975 -0.00257624 0)
(2.99093 -0.00437847 0)
(2.99134 -0.00542357 0)
(2.99192 -0.00680523 0)
(2.99155 -0.00687477 0)
(2.99077 -0.00630377 0)
(2.98983 -0.00531973 0)
(2.98915 -0.00390251 0)
(2.98891 -0.00279061 0)
(2.98885 -0.00210766 0)
(2.98902 -0.0026034 0)
(2.98972 -0.0042568 0)
(2.99013 -0.00517102 0)
(2.99061 -0.00678408 0)
(2.99025 -0.00648308 0)
(2.9894 -0.00556532 0)
(2.98864 -0.004013 0)
(2.98806 -0.00182093 0)
(2.98802 -0.00174218 0)
(2.98852 -0.00277765 0)
(2.98918 -0.00446093 0)
(2.9895 -0.00609957 0)
(2.98924 -0.00568847 0)
(2.98849 -0.00462804 0)
(2.98796 -0.00301627 0)
(2.98761 -0.00181837 0)
(2.98795 -0.00256159 0)
(2.98832 -0.00374037 0)
(2.98827 -0.00435082 0)
(2.98798 -0.00383143 0)
(2.98767 -0.00310444 0)
(2.98735 -0.00253915 0)
(2.98744 -0.00297318 0)
(2.98762 -0.00387478 0)
(2.98751 -0.00398789 0)
(2.98736 -0.00388437 0)
(2.98705 -0.00346269 0)
(2.98693 -0.00349906 0)
(2.98684 -0.00350131 0)
(2.98678 -0.00339411 0)
(2.98661 -0.0032579 0)
(2.98652 -0.00327122 0)
(2.98642 -0.00337451 0)
(2.98628 -0.00348388 0)
(2.9861 -0.00344786 0)
(2.98599 -0.00340434 0)
(2.98586 -0.00344417 0)
(2.98577 -0.00367919 0)
(2.98577 -0.00392652 0)
(2.98565 -0.00400673 0)
(2.98556 -0.00390069 0)
(2.98537 -0.00361229 0)
(2.98519 -0.00322022 0)
(2.98493 -0.00313193 0)
(2.98488 -0.00316073 0)
(2.98482 -0.00323407 0)
(2.98473 -0.00359798 0)
(2.99895 -0.0364901 0)
(2.99896 -0.0364916 0)
(2.99896 -0.036488 0)
(2.99896 -0.0364804 0)
(2.99896 -0.0364768 0)
(2.99896 -0.0364738 0)
(2.99895 -0.0364777 0)
(2.99895 -0.0364804 0)
(2.99895 -0.0364801 0)
(2.99898 -0.0364903 0)
(2.999 -0.0365102 0)
(2.99901 -0.0365121 0)
(2.99901 -0.0364962 0)
(2.99898 -0.0364582 0)
(2.99893 -0.0363769 0)
(2.99889 -0.0363005 0)
(2.99882 -0.0361664 0)
(2.99873 -0.0360294 0)
(2.99858 -0.0358146 0)
(2.99836 -0.0355716 0)
(2.99809 -0.0352354 0)
(2.99776 -0.0347539 0)
(2.9974 -0.0341576 0)
(2.99697 -0.0333286 0)
(2.99655 -0.032438 0)
(2.99604 -0.0311553 0)
(2.99564 -0.030039 0)
(2.995 -0.0283265 0)
(2.99452 -0.0270918 0)
(2.99368 -0.0249122 0)
(2.99311 -0.023545 0)
(2.99212 -0.0209911 0)
(2.99153 -0.0196681 0)
(2.9904 -0.0167471 0)
(2.98969 -0.0152513 0)
(2.98845 -0.0120187 0)
(2.98795 -0.0106045 0)
(2.98721 -0.00785551 0)
(2.98699 -0.00665763 0)
(2.98652 -0.00516759 0)
(2.9867 -0.00429322 0)
(2.98596 -0.00330384 0)
(2.98603 -0.00240145 0)
(2.98596 -0.00183273 0)
(2.98614 -0.00194073 0)
(2.98643 -0.00245573 0)
(2.9868 -0.0031121 0)
(2.9873 -0.00402559 0)
(2.98757 -0.00474464 0)
(2.98751 -0.00534331 0)
(2.98734 -0.00552075 0)
(2.98687 -0.00512359 0)
(2.98638 -0.00451752 0)
(2.98616 -0.00376189 0)
(2.98636 -0.00308113 0)
(2.98654 -0.00328128 0)
(2.98716 -0.00430073 0)
(2.98754 -0.00502578 0)
(2.98775 -0.00592464 0)
(2.98751 -0.00570975 0)
(2.98675 -0.00464629 0)
(2.98639 -0.00320407 0)
(2.98616 -0.0022128 0)
(2.98637 -0.00250034 0)
(2.98693 -0.00361344 0)
(2.9876 -0.0054808 0)
(2.98737 -0.00537691 0)
(2.98705 -0.00478212 0)
(2.98661 -0.003472 0)
(2.98636 -0.00203706 0)
(2.98655 -0.00247674 0)
(2.98688 -0.00343338 0)
(2.98701 -0.00429486 0)
(2.98687 -0.00390371 0)
(2.98663 -0.00322463 0)
(2.98646 -0.00280649 0)
(2.98661 -0.00337965 0)
(2.98672 -0.00444824 0)
(2.98667 -0.00440655 0)
(2.98648 -0.00415079 0)
(2.98633 -0.00375526 0)
(2.98632 -0.00385372 0)
(2.98627 -0.00385194 0)
(2.9862 -0.00370699 0)
(2.98612 -0.00354087 0)
(2.98609 -0.00362596 0)
(2.98607 -0.00376407 0)
(2.98593 -0.00380651 0)
(2.98584 -0.00377058 0)
(2.98577 -0.00384036 0)
(2.98575 -0.00406847 0)
(2.98579 -0.00435022 0)
(2.98575 -0.00431466 0)
(2.98569 -0.0042254 0)
(2.98557 -0.00395141 0)
(2.98541 -0.00355678 0)
(2.98521 -0.00329521 0)
(2.98516 -0.00337983 0)
(2.98512 -0.00363446 0)
(2.98505 -0.00406602 0)
(2.99638 -0.0363231 0)
(2.99639 -0.0363317 0)
(2.9964 -0.0363394 0)
(2.99641 -0.0363432 0)
(2.99641 -0.0363458 0)
(2.99641 -0.0363497 0)
(2.99642 -0.036355 0)
(2.99642 -0.0363581 0)
(2.99642 -0.0363615 0)
(2.99643 -0.0363711 0)
(2.99644 -0.0363839 0)
(2.99645 -0.0364013 0)
(2.99648 -0.036414 0)
(2.99653 -0.0364409 0)
(2.99663 -0.0364584 0)
(2.99666 -0.0364811 0)
(2.9967 -0.0364829 0)
(2.99673 -0.0364894 0)
(2.99674 -0.0364804 0)
(2.99671 -0.0364396 0)
(2.99666 -0.0363704 0)
(2.99661 -0.0362964 0)
(2.99656 -0.0361806 0)
(2.99651 -0.0360533 0)
(2.99643 -0.0358365 0)
(2.99626 -0.0355481 0)
(2.99602 -0.0352188 0)
(2.99569 -0.0346469 0)
(2.99535 -0.0339661 0)
(2.99487 -0.0328613 0)
(2.99446 -0.0318258 0)
(2.9938 -0.0300894 0)
(2.99333 -0.0287981 0)
(2.99237 -0.0262109 0)
(2.99181 -0.0247839 0)
(2.9905 -0.021309 0)
(2.9899 -0.0199095 0)
(2.98836 -0.0157837 0)
(2.98779 -0.0146344 0)
(2.98612 -0.0102504 0)
(2.98588 -0.00934465 0)
(2.98496 -0.00605451 0)
(2.98474 -0.00543548 0)
(2.98444 -0.00409978 0)
(2.98471 -0.0038286 0)
(2.98423 -0.00339424 0)
(2.98438 -0.00315543 0)
(2.9844 -0.00338061 0)
(2.98453 -0.0037855 0)
(2.98468 -0.00420037 0)
(2.98486 -0.00462 0)
(2.98493 -0.0050081 0)
(2.98491 -0.00496989 0)
(2.98475 -0.00481008 0)
(2.9845 -0.00454296 0)
(2.98434 -0.00407708 0)
(2.98448 -0.00383387 0)
(2.98462 -0.00406167 0)
(2.98489 -0.00453418 0)
(2.98526 -0.00523605 0)
(2.98528 -0.00514397 0)
(2.98504 -0.00456816 0)
(2.98482 -0.00394967 0)
(2.98451 -0.00295276 0)
(2.9845 -0.00279313 0)
(2.98487 -0.00339186 0)
(2.98522 -0.00412822 0)
(2.98547 -0.00475688 0)
(2.98532 -0.0045454 0)
(2.98489 -0.00375892 0)
(2.98475 -0.00262441 0)
(2.9848 -0.00263508 0)
(2.9851 -0.00310345 0)
(2.98533 -0.00398051 0)
(2.98527 -0.00385444 0)
(2.9851 -0.00348575 0)
(2.98505 -0.00303204 0)
(2.98515 -0.00342574 0)
(2.98529 -0.0041396 0)
(2.98527 -0.00404312 0)
(2.98522 -0.00379423 0)
(2.98518 -0.0034498 0)
(2.98516 -0.00351514 0)
(2.98516 -0.00352641 0)
(2.98516 -0.0033897 0)
(2.98516 -0.00339428 0)
(2.98518 -0.00347648 0)
(2.98513 -0.00357155 0)
(2.98511 -0.00347568 0)
(2.98508 -0.00343368 0)
(2.98511 -0.0035412 0)
(2.9852 -0.00380273 0)
(2.98526 -0.00400143 0)
(2.98528 -0.00397969 0)
(2.98524 -0.00384318 0)
(2.98513 -0.00347594 0)
(2.98499 -0.00321895 0)
(2.98491 -0.0031382 0)
(2.98491 -0.00323435 0)
(2.98494 -0.00356175 0)
(2.99476 -0.0362197 0)
(2.99477 -0.0362214 0)
(2.99478 -0.0362252 0)
(2.99478 -0.0362309 0)
(2.99479 -0.0362335 0)
(2.9948 -0.036239 0)
(2.9948 -0.0362472 0)
(2.99481 -0.0362517 0)
(2.99481 -0.0362577 0)
(2.99482 -0.0362673 0)
(2.99483 -0.0362783 0)
(2.99484 -0.0362939 0)
(2.99485 -0.0363117 0)
(2.99486 -0.0363227 0)
(2.99488 -0.0363491 0)
(2.9949 -0.0363671 0)
(2.99491 -0.0363898 0)
(2.99492 -0.0364202 0)
(2.99496 -0.0364633 0)
(2.99499 -0.0365033 0)
(2.99508 -0.0365506 0)
(2.99512 -0.0366014 0)
(2.99517 -0.0366513 0)
(2.99521 -0.0367083 0)
(2.99522 -0.0366907 0)
(2.99525 -0.0366986 0)
(2.99523 -0.0366556 0)
(2.9952 -0.0365786 0)
(2.99516 -0.0364627 0)
(2.9951 -0.0362735 0)
(2.99501 -0.0360427 0)
(2.99485 -0.0356642 0)
(2.99459 -0.03519 0)
(2.99417 -0.034293 0)
(2.99376 -0.0332507 0)
(2.99313 -0.0314877 0)
(2.99258 -0.030004 0)
(2.99152 -0.0271543 0)
(2.99088 -0.0254363 0)
(2.98936 -0.021269 0)
(2.98876 -0.0197281 0)
(2.98704 -0.0147455 0)
(2.98663 -0.013959 0)
(2.98493 -0.00931956 0)
(2.98474 -0.00899641 0)
(2.98398 -0.00615793 0)
(2.98405 -0.00617264 0)
(2.98361 -0.00521137 0)
(2.98366 -0.00468887 0)
(2.98365 -0.00443192 0)
(2.9837 -0.00420905 0)
(2.98384 -0.0041583 0)
(2.98381 -0.00426063 0)
(2.98371 -0.00460737 0)
(2.9837 -0.00477353 0)
(2.98363 -0.004836 0)
(2.98353 -0.00474738 0)
(2.98351 -0.00439416 0)
(2.98358 -0.00421239 0)
(2.98382 -0.00432995 0)
(2.98408 -0.00470168 0)
(2.98408 -0.00482299 0)
(2.98401 -0.00459517 0)
(2.98379 -0.00411467 0)
(2.98372 -0.0037535 0)
(2.98379 -0.0030981 0)
(2.98393 -0.00320292 0)
(2.98416 -0.00361177 0)
(2.98436 -0.00445365 0)
(2.98431 -0.0043904 0)
(2.98397 -0.00373854 0)
(2.98401 -0.00309304 0)
(2.98401 -0.00258827 0)
(2.98409 -0.00297887 0)
(2.98427 -0.00379433 0)
(2.98426 -0.00382008 0)
(2.98415 -0.0036762 0)
(2.98417 -0.00333179 0)
(2.98425 -0.00357423 0)
(2.9844 -0.00412087 0)
(2.98444 -0.00408711 0)
(2.98443 -0.00399409 0)
(2.98438 -0.0037829 0)
(2.98442 -0.00374537 0)
(2.98449 -0.00380302 0)
(2.9845 -0.00366613 0)
(2.98452 -0.00366228 0)
(2.98454 -0.00373145 0)
(2.98453 -0.00374165 0)
(2.98455 -0.00367579 0)
(2.9846 -0.00372581 0)
(2.98472 -0.00395588 0)
(2.98482 -0.00421361 0)
(2.98495 -0.0042504 0)
(2.98494 -0.00416222 0)
(2.98487 -0.0039003 0)
(2.98477 -0.00344237 0)
(2.98466 -0.003406 0)
(2.9847 -0.00352625 0)
(2.98479 -0.00378046 0)
(2.99462 -0.036228 0)
(2.99463 -0.0362352 0)
(2.99464 -0.0362354 0)
(2.99465 -0.0362311 0)
(2.99465 -0.0362374 0)
(2.99466 -0.0362515 0)
(2.99466 -0.0362539 0)
(2.99467 -0.0362492 0)
(2.99467 -0.0362588 0)
(2.99468 -0.036278 0)
(2.99469 -0.0363014 0)
(2.9947 -0.036323 0)
(2.99472 -0.0363246 0)
(2.99474 -0.036324 0)
(2.99474 -0.0363473 0)
(2.99474 -0.0363872 0)
(2.99476 -0.0364119 0)
(2.99477 -0.036416 0)
(2.99477 -0.0364459 0)
(2.99476 -0.0364887 0)
(2.99478 -0.0365148 0)
(2.99479 -0.0365565 0)
(2.99481 -0.0366073 0)
(2.99481 -0.0366701 0)
(2.99482 -0.036746 0)
(2.99485 -0.036786 0)
(2.99489 -0.0368466 0)
(2.99492 -0.0369184 0)
(2.99495 -0.0369632 0)
(2.99496 -0.0369934 0)
(2.99495 -0.0369985 0)
(2.9949 -0.0369944 0)
(2.9949 -0.0369014 0)
(2.99489 -0.0367787 0)
(2.99486 -0.0366288 0)
(2.99476 -0.0363402 0)
(2.99459 -0.0358672 0)
(2.99427 -0.0350109 0)
(2.99389 -0.0338707 0)
(2.99319 -0.0319453 0)
(2.99251 -0.030083 0)
(2.9912 -0.026581 0)
(2.99051 -0.0244027 0)
(2.98865 -0.0192034 0)
(2.98811 -0.0176304 0)
(2.98611 -0.0118731 0)
(2.98577 -0.011167 0)
(2.98436 -0.00686796 0)
(2.98421 -0.00659215 0)
(2.98364 -0.00470297 0)
(2.98346 -0.00446711 0)
(2.98344 -0.00407982 0)
(2.98348 -0.00420784 0)
(2.9834 -0.00456257 0)
(2.98349 -0.0046532 0)
(2.98354 -0.00460416 0)
(2.98363 -0.00447463 0)
(2.98371 -0.00427366 0)
(2.98381 -0.00405313 0)
(2.98379 -0.00394978 0)
(2.98387 -0.00414415 0)
(2.98391 -0.00438125 0)
(2.98395 -0.00472796 0)
(2.98399 -0.00467274 0)
(2.98385 -0.00424313 0)
(2.98381 -0.00379401 0)
(2.98393 -0.00314975 0)
(2.98394 -0.00314878 0)
(2.98399 -0.00349362 0)
(2.98408 -0.00410508 0)
(2.98407 -0.00407358 0)
(2.98401 -0.00378285 0)
(2.9839 -0.00340628 0)
(2.98399 -0.00284153 0)
(2.98398 -0.00307908 0)
(2.98407 -0.00364778 0)
(2.98408 -0.00369685 0)
(2.98407 -0.0036353 0)
(2.98414 -0.00349476 0)
(2.9842 -0.0036231 0)
(2.9843 -0.00398829 0)
(2.98434 -0.00399789 0)
(2.98434 -0.00392542 0)
(2.98436 -0.00371411 0)
(2.98443 -0.00351605 0)
(2.98447 -0.00351716 0)
(2.98448 -0.00349577 0)
(2.9845 -0.00351734 0)
(2.98451 -0.00355273 0)
(2.98454 -0.00353086 0)
(2.98458 -0.00352829 0)
(2.98467 -0.00362561 0)
(2.9848 -0.00390298 0)
(2.98497 -0.00405478 0)
(2.985 -0.00404182 0)
(2.98499 -0.00386386 0)
(2.98491 -0.00353072 0)
(2.98476 -0.00321203 0)
(2.9848 -0.00333714 0)
(2.98488 -0.00352084 0)
(2.99568 -0.0363211 0)
(2.99568 -0.0363275 0)
(2.99568 -0.0363364 0)
(2.99569 -0.0363508 0)
(2.99569 -0.0363633 0)
(2.99569 -0.0363632 0)
(2.99569 -0.0363596 0)
(2.9957 -0.0363634 0)
(2.9957 -0.0363518 0)
(2.99571 -0.0363332 0)
(2.99571 -0.0363489 0)
(2.99572 -0.0363879 0)
(2.99574 -0.036429 0)
(2.99575 -0.0364764 0)
(2.99576 -0.0365099 0)
(2.99576 -0.0365038 0)
(2.99576 -0.0365036 0)
(2.99575 -0.0365444 0)
(2.99576 -0.0365623 0)
(2.99577 -0.0365676 0)
(2.99577 -0.0366001 0)
(2.99578 -0.0366196 0)
(2.99579 -0.0366595 0)
(2.99577 -0.0367335 0)
(2.99578 -0.0367892 0)
(2.99581 -0.0368111 0)
(2.99579 -0.0368625 0)
(2.9958 -0.0369101 0)
(2.99582 -0.0369459 0)
(2.9958 -0.0369979 0)
(2.9958 -0.0370593 0)
(2.99581 -0.0370802 0)
(2.99579 -0.037147 0)
(2.99577 -0.0371614 0)
(2.99576 -0.0372135 0)
(2.99566 -0.0371278 0)
(2.99573 -0.0371031 0)
(2.99577 -0.0370727 0)
(2.99576 -0.0369501 0)
(2.99568 -0.0366818 0)
(2.99551 -0.036113 0)
(2.99515 -0.0350669 0)
(2.99465 -0.0335851 0)
(2.99367 -0.0311063 0)
(2.99283 -0.0287158 0)
(2.9912 -0.0241644 0)
(2.99043 -0.021779 0)
(2.98847 -0.0159539 0)
(2.98793 -0.0145691 0)
(2.98637 -0.00988044 0)
(2.98596 -0.00926797 0)
(2.9851 -0.00706995 0)
(2.98525 -0.00674469 0)
(2.98466 -0.00574764 0)
(2.98455 -0.00526238 0)
(2.98447 -0.00482494 0)
(2.98442 -0.00444337 0)
(2.98448 -0.00412931 0)
(2.98447 -0.0041131 0)
(2.98441 -0.00420394 0)
(2.9845 -0.00437017 0)
(2.98459 -0.00439845 0)
(2.98468 -0.00435189 0)
(2.98474 -0.00432308 0)
(2.98465 -0.00422141 0)
(2.98451 -0.00409201 0)
(2.98439 -0.00392337 0)
(2.98439 -0.00367718 0)
(2.98448 -0.00332324 0)
(2.98453 -0.00344796 0)
(2.98467 -0.00390059 0)
(2.98466 -0.00394829 0)
(2.98463 -0.00381227 0)
(2.98457 -0.00362835 0)
(2.98453 -0.00316088 0)
(2.98453 -0.00329103 0)
(2.98458 -0.00366365 0)
(2.98459 -0.00376733 0)
(2.98464 -0.00375062 0)
(2.98467 -0.00378946 0)
(2.98471 -0.00388663 0)
(2.98479 -0.00413816 0)
(2.98482 -0.00412578 0)
(2.98485 -0.00399066 0)
(2.98491 -0.00378301 0)
(2.98497 -0.00363445 0)
(2.98492 -0.00370598 0)
(2.98492 -0.00373533 0)
(2.98495 -0.00372388 0)
(2.98498 -0.00370376 0)
(2.98501 -0.00366652 0)
(2.98508 -0.00370741 0)
(2.98519 -0.00389095 0)
(2.98533 -0.00419546 0)
(2.98541 -0.00421309 0)
(2.98542 -0.00414563 0)
(2.98535 -0.00382559 0)
(2.9852 -0.00348709 0)
(2.98519 -0.00350143 0)
(2.98525 -0.00366166 0)
(2.99718 -0.0365176 0)
(2.99718 -0.0365342 0)
(2.99718 -0.0365434 0)
(2.99718 -0.0365339 0)
(2.99718 -0.0365265 0)
(2.99718 -0.0365449 0)
(2.99718 -0.0365503 0)
(2.99718 -0.0365322 0)
(2.99719 -0.0365429 0)
(2.99718 -0.0365844 0)
(2.99719 -0.0366111 0)
(2.9972 -0.0366415 0)
(2.9972 -0.0366596 0)
(2.9972 -0.0366378 0)
(2.99721 -0.0366237 0)
(2.9972 -0.0366606 0)
(2.9972 -0.0366962 0)
(2.9972 -0.0367187 0)
(2.9972 -0.0367445 0)
(2.9972 -0.0367476 0)
(2.99721 -0.0367349 0)
(2.99721 -0.0367377 0)
(2.99721 -0.0367729 0)
(2.99722 -0.0368136 0)
(2.99723 -0.0368569 0)
(2.99725 -0.036907 0)
(2.99725 -0.0369126 0)
(2.99726 -0.036905 0)
(2.99725 -0.0369327 0)
(2.99725 -0.0369741 0)
(2.99726 -0.0370016 0)
(2.99727 -0.0370477 0)
(2.99725 -0.0371257 0)
(2.99727 -0.0371549 0)
(2.99728 -0.0372138 0)
(2.99727 -0.0372373 0)
(2.99723 -0.037255 0)
(2.99719 -0.0372698 0)
(2.99715 -0.0372625 0)
(2.99705 -0.037248 0)
(2.99713 -0.0371553 0)
(2.99716 -0.0370665 0)
(2.99713 -0.0369188 0)
(2.99695 -0.0364372 0)
(2.99665 -0.0356375 0)
(2.996 -0.0339512 0)
(2.99532 -0.0320723 0)
(2.99384 -0.0280607 0)
(2.99312 -0.0256058 0)
(2.99094 -0.0191929 0)
(2.99059 -0.0176628 0)
(2.98836 -0.011185 0)
(2.98823 -0.0104212 0)
(2.98688 -0.00627239 0)
(2.98658 -0.00600266 0)
(2.98602 -0.00441179 0)
(2.98571 -0.00435655 0)
(2.98551 -0.00442969 0)
(2.98547 -0.00456345 0)
(2.98534 -0.00449062 0)
(2.98537 -0.00442722 0)
(2.9854 -0.00420519 0)
(2.9856 -0.003987 0)
(2.9857 -0.00394497 0)
(2.98569 -0.00402602 0)
(2.98561 -0.00412046 0)
(2.98557 -0.00421151 0)
(2.9855 -0.00399958 0)
(2.98548 -0.00368958 0)
(2.98554 -0.00336673 0)
(2.98553 -0.00346007 0)
(2.98562 -0.00369842 0)
(2.98568 -0.00385031 0)
(2.98563 -0.00374923 0)
(2.98555 -0.00361103 0)
(2.98549 -0.00331029 0)
(2.98546 -0.00339897 0)
(2.98547 -0.00357477 0)
(2.9855 -0.00369389 0)
(2.98552 -0.00370882 0)
(2.98554 -0.00377167 0)
(2.98555 -0.00387107 0)
(2.98564 -0.00399359 0)
(2.98567 -0.00396042 0)
(2.98572 -0.00386439 0)
(2.98575 -0.00375718 0)
(2.98567 -0.00358929 0)
(2.98565 -0.0035953 0)
(2.98566 -0.00358756 0)
(2.98567 -0.00357347 0)
(2.9857 -0.00355145 0)
(2.98574 -0.00356856 0)
(2.98582 -0.00369279 0)
(2.98589 -0.0039355 0)
(2.98603 -0.00409943 0)
(2.98604 -0.00409579 0)
(2.98599 -0.00394133 0)
(2.98588 -0.00349845 0)
(2.98577 -0.00337551 0)
(2.98579 -0.00348922 0)
(2.99855 -0.0367936 0)
(2.99855 -0.0368068 0)
(2.99855 -0.0367988 0)
(2.99855 -0.0367986 0)
(2.99854 -0.0368288 0)
(2.99854 -0.0368474 0)
(2.99854 -0.0368449 0)
(2.99854 -0.0368471 0)
(2.99854 -0.0368561 0)
(2.99854 -0.0368575 0)
(2.99854 -0.0368412 0)
(2.99855 -0.0368244 0)
(2.99855 -0.0368472 0)
(2.99854 -0.0368955 0)
(2.99855 -0.0369456 0)
(2.99855 -0.0369623 0)
(2.99854 -0.0369392 0)
(2.99853 -0.0369366 0)
(2.99853 -0.0369533 0)
(2.99853 -0.0369497 0)
(2.99853 -0.0369398 0)
(2.99853 -0.036957 0)
(2.99853 -0.0369843 0)
(2.99854 -0.0370095 0)
(2.99855 -0.0370287 0)
(2.99855 -0.0370274 0)
(2.99855 -0.037004 0)
(2.99855 -0.0369936 0)
(2.99856 -0.037009 0)
(2.99857 -0.0370079 0)
(2.99858 -0.0370171 0)
(2.99858 -0.0370577 0)
(2.99858 -0.0371159 0)
(2.99861 -0.0371369 0)
(2.99862 -0.037169 0)
(2.99862 -0.0371973 0)
(2.99863 -0.0372409 0)
(2.99864 -0.0372727 0)
(2.99866 -0.037301 0)
(2.99865 -0.0372952 0)
(2.99858 -0.037282 0)
(2.99851 -0.0372688 0)
(2.99842 -0.0372216 0)
(2.99845 -0.0371792 0)
(2.99842 -0.0370635 0)
(2.99838 -0.0368997 0)
(2.99824 -0.0364963 0)
(2.9979 -0.0356182 0)
(2.99735 -0.0340833 0)
(2.99626 -0.0312869 0)
(2.99536 -0.0284389 0)
(2.99345 -0.0228601 0)
(2.9928 -0.0204687 0)
(2.99076 -0.0138364 0)
(2.99048 -0.0131749 0)
(2.98913 -0.00873653 0)
(2.98914 -0.0086776 0)
(2.98816 -0.00679129 0)
(2.98789 -0.00601097 0)
(2.98739 -0.0051446 0)
(2.98718 -0.00434043 0)
(2.98669 -0.00387048 0)
(2.98659 -0.00354841 0)
(2.98662 -0.00372729 0)
(2.98671 -0.00397247 0)
(2.98684 -0.00436629 0)
(2.98691 -0.00433637 0)
(2.98683 -0.00418444 0)
(2.98665 -0.00385651 0)
(2.9866 -0.00369845 0)
(2.98653 -0.00347429 0)
(2.98665 -0.00367691 0)
(2.9867 -0.00384615 0)
(2.98674 -0.00392665 0)
(2.98668 -0.00383919 0)
(2.98654 -0.00375997 0)
(2.98646 -0.00349184 0)
(2.98646 -0.00359103 0)
(2.98649 -0.0036868 0)
(2.98649 -0.00378975 0)
(2.9865 -0.00383946 0)
(2.9865 -0.00392056 0)
(2.98652 -0.00400243 0)
(2.98659 -0.00408749 0)
(2.9866 -0.00408132 0)
(2.98659 -0.00398946 0)
(2.98654 -0.00382895 0)
(2.98649 -0.00364584 0)
(2.98646 -0.00364462 0)
(2.98645 -0.00364991 0)
(2.98645 -0.0036552 0)
(2.98648 -0.00367616 0)
(2.98653 -0.00374462 0)
(2.98659 -0.00392371 0)
(2.98671 -0.00417447 0)
(2.98672 -0.00420138 0)
(2.98667 -0.00412157 0)
(2.98653 -0.00386075 0)
(2.98638 -0.0035135 0)
(2.98639 -0.00362024 0)
(2.99947 -0.0370561 0)
(2.99947 -0.0370623 0)
(2.99947 -0.0370568 0)
(2.99947 -0.0370551 0)
(2.99947 -0.0370591 0)
(2.99947 -0.0370504 0)
(2.99947 -0.0370387 0)
(2.99947 -0.0370522 0)
(2.99947 -0.0370762 0)
(2.99948 -0.0370965 0)
(2.99947 -0.0371263 0)
(2.99948 -0.037156 0)
(2.99948 -0.037159 0)
(2.99947 -0.0371268 0)
(2.99947 -0.0370919 0)
(2.99947 -0.0370738 0)
(2.99946 -0.0371015 0)
(2.99946 -0.0371442 0)
(2.99947 -0.0371649 0)
(2.99946 -0.0371583 0)
(2.99946 -0.0371419 0)
(2.99947 -0.0371402 0)
(2.99947 -0.0371457 0)
(2.99947 -0.0371507 0)
(2.99946 -0.0371402 0)
(2.99945 -0.0371208 0)
(2.99945 -0.037109 0)
(2.99946 -0.0370942 0)
(2.99946 -0.0370765 0)
(2.99946 -0.0370683 0)
(2.99946 -0.0370638 0)
(2.99946 -0.037073 0)
(2.99946 -0.0370876 0)
(2.99946 -0.0370894 0)
(2.99947 -0.0370974 0)
(2.99947 -0.0371098 0)
(2.99949 -0.0371354 0)
(2.9995 -0.0371505 0)
(2.99952 -0.0371711 0)
(2.99954 -0.0371945 0)
(2.99955 -0.0372151 0)
(2.99954 -0.0372152 0)
(2.99953 -0.0372101 0)
(2.99949 -0.0371974 0)
(2.99943 -0.0371913 0)
(2.99933 -0.0371131 0)
(2.99935 -0.0370882 0)
(2.99932 -0.0370111 0)
(2.99924 -0.0367906 0)
(2.99906 -0.0362923 0)
(2.99869 -0.0352727 0)
(2.99785 -0.0331422 0)
(2.99701 -0.030639 0)
(2.9952 -0.0254713 0)
(2.99455 -0.0227514 0)
(2.99224 -0.0154753 0)
(2.99214 -0.014023 0)
(2.99046 -0.00839163 0)
(2.99002 -0.00719593 0)
(2.9896 -0.00539006 0)
(2.98891 -0.00414833 0)
(2.98835 -0.00379463 0)
(2.98793 -0.00396048 0)
(2.98755 -0.00422691 0)
(2.98758 -0.0042227 0)
(2.98763 -0.00414201 0)
(2.98782 -0.00407729 0)
(2.9878 -0.00390819 0)
(2.98774 -0.00391633 0)
(2.98764 -0.00388726 0)
(2.98753 -0.00380924 0)
(2.98753 -0.00367403 0)
(2.98753 -0.00364329 0)
(2.98758 -0.00372557 0)
(2.9876 -0.00382584 0)
(2.98753 -0.00376814 0)
(2.98742 -0.00370231 0)
(2.98732 -0.00349298 0)
(2.98734 -0.0035268 0)
(2.98733 -0.00362604 0)
(2.98733 -0.00371599 0)
(2.98733 -0.00378435 0)
(2.98734 -0.00387411 0)
(2.98739 -0.00399098 0)
(2.98742 -0.00402032 0)
(2.9874 -0.00397196 0)
(2.98735 -0.0038086 0)
(2.98729 -0.00360699 0)
(2.98719 -0.00355372 0)
(2.98717 -0.00356192 0)
(2.98716 -0.00358232 0)
(2.98717 -0.00358602 0)
(2.98719 -0.00364115 0)
(2.98723 -0.0037413 0)
(2.98732 -0.00394002 0)
(2.98736 -0.00410539 0)
(2.98733 -0.00412072 0)
(2.98721 -0.00396324 0)
(2.98702 -0.00357918 0)
(2.98697 -0.00354321 0)
(2.99989 -0.0372909 0)
(2.99989 -0.0372933 0)
(2.99988 -0.0372841 0)
(2.99988 -0.0372899 0)
(2.99988 -0.0373046 0)
(2.99988 -0.0373021 0)
(2.99988 -0.0372982 0)
(2.99988 -0.0373109 0)
(2.99989 -0.0373208 0)
(2.99989 -0.0373033 0)
(2.9999 -0.0372813 0)
(2.9999 -0.0372797 0)
(2.99991 -0.0372778 0)
(2.99991 -0.0372659 0)
(2.99991 -0.0372702 0)
(2.99991 -0.0373006 0)
(2.99992 -0.0373262 0)
(2.99992 -0.0373211 0)
(2.99992 -0.0372942 0)
(2.99992 -0.0372791 0)
(2.99993 -0.0372924 0)
(2.99994 -0.0373059 0)
(2.99995 -0.0373014 0)
(2.99995 -0.0372909 0)
(2.99994 -0.0372802 0)
(2.99994 -0.0372585 0)
(2.99995 -0.0372289 0)
(2.99994 -0.0372104 0)
(2.99993 -0.0371894 0)
(2.99993 -0.0371574 0)
(2.99993 -0.0371429 0)
(2.99992 -0.0371311 0)
(2.99991 -0.0371261 0)
(2.9999 -0.0371122 0)
(2.99989 -0.0370967 0)
(2.99988 -0.0370882 0)
(2.99988 -0.0370882 0)
(2.99989 -0.0370897 0)
(2.99989 -0.037093 0)
(2.9999 -0.0370932 0)
(2.99991 -0.0371022 0)
(2.99993 -0.0371186 0)
(2.99994 -0.0371403 0)
(2.99995 -0.0371625 0)
(2.99996 -0.0371705 0)
(2.99996 -0.0371698 0)
(2.99993 -0.0371518 0)
(2.99987 -0.0371185 0)
(2.99981 -0.0370292 0)
(2.99982 -0.036982 0)
(2.99976 -0.0367915 0)
(2.99965 -0.0364685 0)
(2.99939 -0.035753 0)
(2.99876 -0.0342267 0)
(2.99798 -0.0319861 0)
(2.99645 -0.0277005 0)
(2.99563 -0.0246042 0)
(2.99356 -0.0176678 0)
(2.99326 -0.0162909 0)
(2.99163 -0.0104301 0)
(2.99138 -0.0100019 0)
(2.99056 -0.00764012 0)
(2.99017 -0.00663898 0)
(2.98938 -0.00534189 0)
(2.98888 -0.00422508 0)
(2.98837 -0.00350337 0)
(2.9883 -0.00358028 0)
(2.98827 -0.00392585 0)
(2.98836 -0.00419811 0)
(2.98833 -0.00432585 0)
(2.9883 -0.00422097 0)
(2.98811 -0.00393434 0)
(2.98811 -0.00369588 0)
(2.98806 -0.00370566 0)
(2.98812 -0.00389954 0)
(2.98814 -0.00394981 0)
(2.98809 -0.00386472 0)
(2.98796 -0.00377931 0)
(2.9879 -0.00357051 0)
(2.98788 -0.0037197 0)
(2.98791 -0.00379161 0)
(2.98791 -0.00383061 0)
(2.98792 -0.00391043 0)
(2.98796 -0.00402055 0)
(2.988 -0.00409409 0)
(2.98799 -0.00403822 0)
(2.98796 -0.00395471 0)
(2.98787 -0.00380735 0)
(2.98777 -0.00368228 0)
(2.98772 -0.00364744 0)
(2.9877 -0.00365611 0)
(2.9877 -0.00365703 0)
(2.98773 -0.0036907 0)
(2.98775 -0.00374094 0)
(2.98781 -0.00393037 0)
(2.98786 -0.0041561 0)
(2.98784 -0.00422946 0)
(2.98776 -0.00417819 0)
(2.98754 -0.00386569 0)
(2.98744 -0.00365446 0)
(2.99993 -0.0373217 0)
(2.99993 -0.0373259 0)
(2.99993 -0.0373255 0)
(2.99993 -0.0373328 0)
(2.99992 -0.0373517 0)
(2.99993 -0.0373666 0)
(2.99993 -0.0373698 0)
(2.99993 -0.0373824 0)
(2.99993 -0.037394 0)
(2.99993 -0.0373895 0)
(2.99994 -0.0373852 0)
(2.99995 -0.0373893 0)
(2.99996 -0.0373878 0)
(2.99997 -0.0373724 0)
(2.99998 -0.037355 0)
(2.99998 -0.0373515 0)
(2.99999 -0.0373611 0)
(2.99999 -0.0373721 0)
(3 -0.0373765 0)
(3.00002 -0.0373774 0)
(3.00003 -0.0373764 0)
(3.00005 -0.0373742 0)
(3.00007 -0.0373639 0)
(3.00008 -0.0373499 0)
(3.00009 -0.0373361 0)
(3.0001 -0.0373061 0)
(3.0001 -0.037282 0)
(3.00009 -0.0372743 0)
(3.00009 -0.0372526 0)
(3.00009 -0.0372181 0)
(3.00009 -0.0371783 0)
(3.00008 -0.0371509 0)
(3.00005 -0.0371346 0)
(3.00004 -0.0371041 0)
(3.00002 -0.0370776 0)
(3.00001 -0.037058 0)
(3 -0.03704 0)
(2.99999 -0.0370261 0)
(2.99998 -0.0370132 0)
(2.99996 -0.0370031 0)
(2.99996 -0.0370073 0)
(2.99996 -0.0370202 0)
(2.99996 -0.0370341 0)
(2.99998 -0.0370498 0)
(3.00001 -0.0370685 0)
(3.00004 -0.037091 0)
(3.00007 -0.0370943 0)
(3.00009 -0.0370849 0)
(3.0001 -0.0370372 0)
(3.00007 -0.0370141 0)
(3.00004 -0.0369324 0)
(3 -0.0368663 0)
(2.99991 -0.0366091 0)
(2.99983 -0.0363673 0)
(2.99963 -0.0358963 0)
(2.99913 -0.0347603 0)
(2.9985 -0.0329733 0)