/*--------------------------------*- C++ -*----------------------------------*\
  =========                 |
  \\      /  F ield         | OpenFOAM: The Open Source CFD Toolbox
   \\    /   O peration     | Website:  https://openfoam.org
    \\  /    A nd           | Version:  7
     \\/     M anipulation  |
\*---------------------------------------------------------------------------*/
FoamFile
{
    version     2.0;
    format      ascii;
    class       volScalarField;
    location    "10";
    object      p;
}
// * * * * * * * * * * * * * * * * * * * * * * * * * * * * * * * * * * * * * //

dimensions      [1 -1 -2 0 0 0 0];

internalField   nonuniform List<scalar> 
57600
(
0.642761
0.660826
0.680717
0.70065
0.720471
0.739877
0.759207
0.778064
0.796951
0.815219
0.833617
0.851148
0.868912
0.885469
0.902347
0.917573
0.933194
0.946625
0.960484
0.971579
0.982933
0.991356
0.99888
1.00443
1.00868
1.00954
1.00923
1.00777
1.00488
0.997733
0.98847
0.985679
0.986199
0.988114
0.990929
0.993846
0.996245
0.99875
1.00114
1.00095
0.999579
0.996818
0.99437
0.992527
0.992471
0.993862
0.996945
1.0008
1.00168
1.0011
0.999288
0.997713
0.997373
0.998252
1
1.00006
0.999256
0.997786
0.996972
0.99745
0.998479
0.999082
0.99846
0.997759
0.997764
0.998199
0.998251
0.998064
0.997951
0.998068
0.998223
0.998442
0.998951
0.999495
0.999847
0.999664
0.999398
0.999028
0.99877
0.99869
0.628779
0.629841
0.631888
0.635083
0.639432
0.645102
0.651971
0.660294
0.669764
0.680833
0.692987
0.706827
0.72153
0.737907
0.754817
0.773208
0.791723
0.81125
0.83051
0.850014
0.869059
0.887153
0.905098
0.920374
0.935957
0.947269
0.958669
0.966395
0.97225
0.977064
0.986855
0.99367
0.998932
1.003
1.00434
1.00377
1.00184
1.00092
0.998686
0.995508
0.994448
0.994109
0.994278
0.995419
0.997377
0.999357
1.00004
0.999897
0.999216
0.998338
0.997828
0.997894
0.998842
1.00011
0.999995
0.999107
0.99806
0.997178
0.997655
0.998574
0.998973
0.998612
0.997782
0.997825
0.998183
0.998108
0.998055
0.99804
0.998094
0.998173
0.99815
0.998574
0.998961
0.999524
0.999844
0.999711
0.999435
0.998985
0.998707
0.998689
0.628539
0.628553
0.628572
0.628603
0.628647
0.628744
0.628927
0.629274
0.629852
0.63075
0.632025
0.633855
0.636324
0.639778
0.644262
0.650362
0.657897
0.667839
0.679634
0.694748
0.711864
0.732849
0.755681
0.782053
0.809793
0.839362
0.869626
0.898488
0.928559
0.952283
0.971747
0.980492
0.988665
0.992389
0.994344
0.994442
0.994515
0.992413
0.987469
0.988134
0.990306
0.994147
0.998961
1.0027
1.00292
1.00173
0.998998
0.995912
0.994533
0.994683
0.997094
1.00055
1.0013
1.00036
0.998456
0.996458
0.99691
0.998472
0.999572
0.999033
0.998099
0.99732
0.997866
0.998545
0.998372
0.997961
0.997976
0.998124
0.998178
0.99812
0.998268
0.998621
0.999111
0.999366
0.999631
0.999548
0.999335
0.998966
0.998768
0.998777
0.628752
0.628724
0.628683
0.628664
0.628662
0.628661
0.628643
0.628619
0.628606
0.628608
0.628629
0.62866
0.628699
0.628751
0.628869
0.629074
0.629509
0.630268
0.631416
0.633228
0.635874
0.640021
0.645784
0.654542
0.66595
0.682461
0.7024
0.72881
0.758922
0.794314
0.830888
0.86429
0.898302
0.92128
0.94405
0.954638
0.967047
0.971561
0.979283
0.986817
0.996576
1.00199
1.0059
1.00558
1.00448
1.00125
0.997584
0.993168
0.993632
0.996738
1.00044
1.00238
1.00159
0.998951
0.995989
0.996347
0.998186
1.00021
1.00017
0.998816
0.997253
0.997613
0.99851
0.998707
0.998287
0.997872
0.997961
0.998157
0.998199
0.998222
0.998396
0.998776
0.999097
0.999269
0.999489
0.999494
0.999376
0.999154
0.998873
0.998844
0.628905
0.628906
0.628897
0.628884
0.628873
0.628872
0.628876
0.628861
0.628826
0.628782
0.628746
0.62872
0.628702
0.628694
0.628697
0.628733
0.628728
0.628738
0.628754
0.628783
0.628825
0.628937
0.629133
0.629514
0.630335
0.631915
0.63452
0.639291
0.64648
0.659036
0.676121
0.702624
0.734198
0.774804
0.817396
0.859776
0.901557
0.933377
0.964689
0.978455
0.98836
0.993147
0.99797
0.997343
0.993882
0.990016
0.991762
0.995606
0.999806
1.00249
1.00126
0.999477
0.996947
0.995965
0.996657
0.999026
1.00012
0.999752
0.998585
0.997671
0.997735
0.998353
0.998595
0.998434
0.998042
0.997859
0.998061
0.998201
0.998257
0.998349
0.998618
0.998833
0.998947
0.999064
0.999265
0.999355
0.9993
0.999155
0.998961
0.998837
0.629025
0.629024
0.629026
0.629027
0.629026
0.629024
0.62902
0.629015
0.629008
0.628998
0.62899
0.628981
0.62897
0.628958
0.628944
0.628934
0.628925
0.628897
0.628877
0.628863
0.628864
0.628884
0.62894
0.629073
0.629095
0.629112
0.629168
0.629292
0.629553
0.630141
0.631473
0.634516
0.639964
0.651114
0.667773
0.696146
0.730771
0.776755
0.824993
0.868601
0.909813
0.931994
0.955484
0.964232
0.973528
0.983369
0.996395
1.00517
1.00657
1.00546
1.0008
0.993691
0.993078
0.994815
0.998391
1.00208
1.00159
0.999806
0.996944
0.997052
0.998199
0.999375
0.998958
0.99809
0.997881
0.99807
0.998219
0.998201
0.998193
0.998453
0.998954
0.999014
0.998959
0.998962
0.999055
0.99917
0.999148
0.999162
0.999101
0.99897
0.629137
0.629134
0.629131
0.629129
0.629126
0.629122
0.629116
0.629109
0.629103
0.6291
0.629097
0.629096
0.629096
0.629096
0.629097
0.6291
0.629105
0.629107
0.62911
0.629116
0.629123
0.629132
0.629143
0.62916
0.629185
0.629221
0.629272
0.629342
0.629439
0.629676
0.629702
0.629753
0.629895
0.630298
0.631318
0.634132
0.639776
0.652687
0.672649
0.70801
0.751057
0.804492
0.858569
0.904174
0.950487
0.97399
0.989029
0.99659
1.00011
0.995886
0.98847
0.989609
0.993942
0.998602
1.00111
1.00115
0.999219
0.996738
0.996699
0.998363
0.999537
0.999131
0.998526
0.997808
0.997969
0.998374
0.998309
0.99821
0.998347
0.998744
0.998968
0.998925
0.998824
0.998819
0.99885
0.998972
0.999063
0.999156
0.99914
0.998991
0.629238
0.629235
0.629233
0.62923
0.629227
0.629224
0.62922
0.629215
0.629215
0.629218
0.629221
0.629225
0.62923
0.629236
0.629242
0.62925
0.629261
0.62927
0.62928
0.629295
0.62931
0.629327
0.629347
0.629375
0.629409
0.629449
0.62949
0.629534
0.629579
0.629625
0.629693
0.629777
0.629862
0.630029
0.630063
0.630065
0.630135
0.630542
0.63187
0.636032
0.644711
0.664934
0.694664
0.743106
0.798399
0.853744
0.905973
0.932551
0.960714
0.96919
0.984612
0.994379
1.00383
1.00369
1.00243
0.99767
0.993799
0.994658
0.997739
1.00107
1.00061
0.999053
0.997462
0.997708
0.998507
0.998564
0.998242
0.998132
0.99855
0.999182
0.999133
0.998888
0.998725
0.998705
0.99866
0.998804
0.999017
0.999147
0.999209
0.999073
0.629334
0.629334
0.629333
0.629332
0.629331
0.629331
0.629332
0.629335
0.629339
0.629344
0.62935
0.629358
0.629367
0.629373
0.629375
0.629381
0.62939
0.629399
0.629408
0.629418
0.629432
0.629449
0.629471
0.629498
0.629527
0.629562
0.629602
0.629635
0.629669
0.629714
0.629764
0.629808
0.629845
0.629888
0.629957
0.629984
0.629991
0.629946
0.62986
0.629827
0.630008
0.631057
0.634122
0.643568
0.661345
0.698497
0.747662
0.810642
0.875356
0.926462
0.973297
0.986811
0.998575
0.997923
0.992241
0.989765
0.993007
0.998285
1.00151
1.00104
0.998368
0.996697
0.997109
0.999077
0.999173
0.998612
0.997964
0.998211
0.999083
0.99922
0.999026
0.998834
0.99868
0.998593
0.998477
0.998583
0.998927
0.999216
0.999289
0.999135
0.629499
0.629502
0.629504
0.629505
0.629508
0.629511
0.629517
0.629523
0.629529
0.629533
0.629538
0.629545
0.629546
0.629543
0.629539
0.629538
0.629537
0.629536
0.629536
0.629537
0.629538
0.629535
0.629534
0.629536
0.629543
0.629554
0.629566
0.629572
0.629587
0.629615
0.629651
0.629687
0.62972
0.629752
0.629791
0.629831
0.629838
0.629818
0.629762
0.629702
0.62959
0.629404
0.629321
0.629541
0.630582
0.634677
0.644611
0.67025
0.70962
0.771584
0.8412
0.893301
0.945278
0.95778
0.973154
0.985399
1.00149
1.00453
1.00339
0.997672
0.994025
0.995362
0.999123
1.00061
0.999529
0.997699
0.9978
0.998974
0.99983
0.999404
0.998697
0.998722
0.998669
0.998482
0.998316
0.998424
0.998768
0.999175
0.999353
0.999216
0.629757
0.62976
0.629764
0.62977
0.629773
0.629777
0.629783
0.62979
0.629793
0.629792
0.629791
0.629788
0.629783
0.629773
0.629758
0.629743
0.629727
0.629709
0.629687
0.62966
0.629629
0.629595
0.629558
0.629523
0.629497
0.629478
0.629457
0.629439
0.62941
0.629378
0.629367
0.629367
0.629382
0.62942
0.629484
0.629576
0.629663
0.629674
0.629649
0.62962
0.629555
0.62944
0.62934
0.629169
0.629027
0.629097
0.629493
0.631401
0.636864
0.654091
0.684914
0.743956
0.814943
0.882662
0.951036
0.976259
0.99567
0.997587
0.992857
0.9901
0.994253
0.999988
1.00146
1.00017
0.99701
0.997143
0.998962
1.00012
0.999691
0.998775
0.998496
0.998777
0.99867
0.998321
0.99821
0.998396
0.998672
0.999039
0.9993
0.999225
0.629939
0.629943
0.629948
0.629953
0.629955
0.629958
0.629963
0.629964
0.629962
0.629961
0.629957
0.629948
0.629935
0.62992
0.629906
0.629889
0.629864
0.62983
0.62979
0.629745
0.629688
0.629618
0.629543
0.629473
0.629402
0.629321
0.629242
0.629168
0.629091
0.629016
0.628967
0.628952
0.62895
0.628966
0.629015
0.629113
0.629265
0.629431
0.629559
0.629632
0.629635
0.629605
0.629531
0.629386
0.629176
0.628995
0.628955
0.628992
0.629191
0.630211
0.633535
0.645527
0.669952
0.724842
0.795515
0.86388
0.929745
0.951088
0.970252
0.985549
1.00411
1.00521
1.00232
0.9953
0.995586
0.99831
1.00148
1.0009
0.998611
0.998334
0.998808
0.998993
0.99861
0.998098
0.99818
0.998482
0.99864
0.998906
0.999234
0.999181
0.629923
0.629947
0.629971
0.629985
0.629989
0.629991
0.629991
0.629989
0.629986
0.629982
0.629977
0.629966
0.629952
0.629939
0.629922
0.629896
0.629866
0.629833
0.629789
0.629727
0.629651
0.629567
0.629479
0.629385
0.629284
0.629181
0.629081
0.628986
0.6289
0.628818
0.628737
0.628681
0.628666
0.628667
0.628688
0.628766
0.628929
0.629166
0.629417
0.629608
0.629713
0.629731
0.62972
0.629637
0.629448
0.629169
0.628912
0.628787
0.628783
0.628869
0.629163
0.629938
0.632085
0.640892
0.661724
0.71384
0.784383
0.863736
0.943264
0.974853
0.997925
0.997805
0.988742
0.991026
0.997561
1.00236
1.0018
0.9989
0.997599
0.998486
0.999492
0.999047
0.997997
0.997935
0.998373
0.998574
0.998564
0.998764
0.999119
0.999089
0.629891
0.629916
0.629945
0.629957
0.629951
0.629942
0.629933
0.629921
0.629906
0.629887
0.629867
0.629856
0.629849
0.62984
0.629825
0.629803
0.629777
0.629748
0.62971
0.629659
0.6296
0.629531
0.62945
0.629353
0.629243
0.629128
0.629019
0.628921
0.628833
0.628749
0.628661
0.628569
0.628511
0.628504
0.628518
0.628582
0.628724
0.628947
0.629225
0.629497
0.629684
0.629759
0.629764
0.629732
0.629615
0.629347
0.628959
0.628663
0.628589
0.628592
0.628714
0.629082
0.629414
0.62978
0.631186
0.638409
0.657853
0.70975
0.783409
0.860778
0.929672
0.954226
0.972029
0.995158
1.00533
1.0044
0.99809
0.996145
0.997523
1.00045
1.00012
0.998107
0.997683
0.998258
0.998745
0.998586
0.998534
0.998712
0.998966
0.998908
0.629497
0.629517
0.62954
0.629563
0.62959
0.629624
0.62967
0.629731
0.629797
0.629849
0.629862
0.62986
0.629858
0.629852
0.629838
0.629815
0.629784
0.629744
0.629701
0.629662
0.629628
0.629598
0.629564
0.629519
0.629453
0.629364
0.629256
0.629134
0.629015
0.628895
0.628757
0.628609
0.628509
0.628487
0.628499
0.628561
0.628673
0.628809
0.628987
0.629231
0.629508
0.629675
0.629693
0.629668
0.629588
0.629394
0.629038
0.628633
0.628464
0.62846
0.628546
0.628816
0.629237
0.629631
0.629599
0.629714
0.6308
0.63764
0.65818
0.711916
0.787907
0.875755
0.952658
0.985521
0.99989
0.994466
0.989469
0.994995
1.00139
1.00129
0.998666
0.996898
0.997852
0.999017
0.998801
0.998379
0.998565
0.998765
0.998737
0.998696
0.628992
0.62901
0.629031
0.629056
0.629086
0.629121
0.629163
0.629213
0.629271
0.629335
0.629398
0.629456
0.629513
0.629562
0.629597
0.629628
0.629664
0.629695
0.629729
0.629772
0.629794
0.629812
0.62984
0.629857
0.629859
0.629844
0.629801
0.629733
0.629638
0.629513
0.629346
0.629147
0.628948
0.628775
0.628669
0.628654
0.628675
0.6287
0.628735
0.62883
0.629027
0.629272
0.629443
0.629495
0.629474
0.629372
0.629147
0.628806
0.628512
0.628438
0.628486
0.628716
0.629109
0.629487
0.629594
0.629605
0.62939
0.629424
0.630681
0.638139
0.661582
0.719076
0.803611
0.882982
0.941773
0.964975
0.985807
1.00482
1.00425
0.999339
0.99539
0.99694
0.999859
0.99966
0.998327
0.998269
0.998842
0.998815
0.998323
0.998463
0.62881
0.628819
0.628832
0.628849
0.628866
0.628887
0.628911
0.62894
0.62898
0.629029
0.629084
0.629154
0.629238
0.629316
0.629394
0.629479
0.629557
0.629644
0.629764
0.629855
0.629906
0.629952
0.63001
0.630072
0.630115
0.630126
0.630122
0.630097
0.630037
0.629941
0.629806
0.629648
0.629488
0.629308
0.629099
0.628902
0.628737
0.628648
0.628629
0.628626
0.628649
0.628751
0.628929
0.629133
0.629292
0.62936
0.629367
0.629265
0.62902
0.628785
0.628734
0.628819
0.62902
0.629264
0.629455
0.629473
0.629388
0.62914
0.629024
0.629266
0.631157
0.640162
0.669814
0.733738
0.821776
0.919716
0.973657
0.998389
0.996783
0.988695
0.993632
1.00106
1.00078
0.999061
0.9977
0.998556
0.99922
0.998685
0.997961
0.998447
0.628752
0.628755
0.628758
0.628765
0.628776
0.62879
0.628807
0.628829
0.628861
0.628902
0.628959
0.62903
0.629089
0.629143
0.629214
0.629296
0.629379
0.629471
0.629576
0.629667
0.629751
0.629843
0.629936
0.630009
0.630067
0.630101
0.630096
0.630064
0.630012
0.62994
0.629833
0.629737
0.629652
0.629532
0.629348
0.62912
0.628887
0.628687
0.6286
0.628591
0.628588
0.628596
0.628667
0.628844
0.629138
0.629463
0.629677
0.629722
0.629659
0.629459
0.629241
0.629091
0.629047
0.629041
0.629099
0.629214
0.629261
0.629206
0.629094
0.629065
0.629172
0.629637
0.632421
0.643669
0.681874
0.756713
0.848069
0.925441
0.958072
0.978168
1.0037
1.00435
1.00075
0.996252
0.99755
1.00003
0.999579
0.997719
0.997762
0.998731
0.629216
0.629176
0.629139
0.629134
0.629121
0.629097
0.629067
0.629036
0.629004
0.628974
0.628947
0.628933
0.62893
0.628935
0.628954
0.62898
0.629019
0.629036
0.629033
0.629028
0.629045
0.629101
0.629183
0.629267
0.629346
0.629422
0.629484
0.629515
0.629528
0.629543
0.629561
0.629561
0.629529
0.629445
0.629316
0.629182
0.629075
0.628976
0.628877
0.628789
0.628707
0.628654
0.628656
0.628786
0.629098
0.62952
0.629847
0.629939
0.629899
0.629771
0.629617
0.629374
0.629053
0.628949
0.62894
0.629032
0.629234
0.629371
0.629392
0.629413
0.629483
0.629665
0.629808
0.630391
0.634121
0.650757
0.70135
0.784882
0.892233
0.960781
0.997562
0.996973
0.989055
0.994581
1.00074
1.00063
0.998019
0.997007
0.998097
0.9992
0.629472
0.629414
0.629375
0.629309
0.62928
0.629268
0.629231
0.62917
0.629109
0.62905
0.628983
0.628911
0.628842
0.628797
0.628783
0.628763
0.628721
0.62865
0.628565
0.628467
0.628326
0.62822
0.628205
0.62821
0.628253
0.628319
0.628399
0.628494
0.628599
0.628746
0.628993
0.629162
0.629185
0.629219
0.629267
0.629351
0.629473
0.629601
0.62966
0.629648
0.629541
0.62931
0.629074
0.629
0.629085
0.629339
0.629613
0.629807
0.629817
0.629731
0.629668
0.629528
0.629162
0.628926
0.628918
0.62902
0.629373
0.629716
0.629772
0.629791
0.629781
0.629725
0.629685
0.629517
0.629438
0.630396
0.636586
0.663967
0.729599
0.825167
0.917173
0.95358
0.976657
1.00403
1.00375
0.999029
0.995738
0.997173
0.999737
0.999601
0.629432
0.629334
0.629289
0.629261
0.629217
0.629127
0.629031
0.629027
0.629081
0.6291
0.629083
0.62904
0.628998
0.628951
0.62889
0.628805
0.628705
0.628598
0.628494
0.628393
0.628257
0.62805
0.62788
0.627831
0.627828
0.627885
0.627999
0.628076
0.628142
0.628232
0.628449
0.628783
0.629039
0.629247
0.629467
0.629683
0.629882
0.630074
0.630227
0.630229
0.630132
0.629941
0.629646
0.629243
0.629046
0.629054
0.629088
0.629159
0.629272
0.62939
0.629509
0.629516
0.629329
0.629124
0.629132
0.629326
0.629702
0.629935
0.62997
0.62996
0.629924
0.629787
0.629446
0.629095
0.628931
0.628973
0.629183
0.63151
0.643264
0.687112
0.767753
0.878344
0.957677
0.997076
0.996345
0.989197
0.994681
1.00069
1.00037
0.999327
0.629359
0.62938
0.629393
0.629381
0.629299
0.629189
0.629148
0.629167
0.629259
0.629397
0.629454
0.629467
0.629491
0.629557
0.62961
0.629631
0.629631
0.629581
0.629475
0.629334
0.629169
0.628943
0.628615
0.628313
0.628202
0.628217
0.628283
0.62835
0.628378
0.628375
0.628443
0.628734
0.629171
0.629572
0.629836
0.629981
0.630066
0.630157
0.630275
0.630247
0.630118
0.629975
0.629765
0.629316
0.628914
0.628823
0.628786
0.628758
0.628804
0.629046
0.629373
0.629575
0.629613
0.629638
0.629727
0.629945
0.630011
0.629967
0.629951
0.629917
0.629765
0.629443
0.629055
0.628855
0.628875
0.628997
0.629341
0.629512
0.630223
0.634935
0.657314
0.720211
0.818167
0.910818
0.953067
0.97826
1.00373
1.00359
1.00061
0.998181
0.629317
0.629371
0.629404
0.629403
0.629344
0.6293
0.629312
0.629378
0.629477
0.629591
0.629709
0.629813
0.629959
0.630227
0.630367
0.630427
0.630545
0.630702
0.630769
0.630793
0.630772
0.630648
0.630381
0.630046
0.629821
0.62969
0.629599
0.629495
0.62931
0.629012
0.628822
0.628876
0.629165
0.629556
0.629745
0.629707
0.629618
0.629582
0.629628
0.62957
0.62953
0.629545
0.629505
0.629219
0.628879
0.628827
0.628809
0.628777
0.628821
0.629096
0.629519
0.629842
0.629888
0.629954
0.630142
0.630181
0.630113
0.629832
0.629508
0.629338
0.62919
0.629035
0.628908
0.628876
0.62898
0.629369
0.629787
0.629883
0.629875
0.62999
0.631462
0.641584
0.682432
0.764367
0.882427
0.958827
0.998375
0.996428
0.993426
0.997399
0.629434
0.62944
0.629441
0.629441
0.629448
0.629453
0.629462
0.629485
0.629527
0.629599
0.629671
0.629753
0.629873
0.630097
0.630233
0.630247
0.630293
0.630421
0.63049
0.63056
0.630616
0.630612
0.630543
0.630415
0.630308
0.630153
0.629908
0.629566
0.629107
0.628714
0.628442
0.628456
0.628683
0.628921
0.628914
0.62874
0.628598
0.628527
0.628346
0.628256
0.628309
0.628531
0.6288
0.629058
0.629328
0.629533
0.629661
0.629678
0.629749
0.630034
0.630118
0.630005
0.629973
0.630066
0.630219
0.630192
0.629927
0.629394
0.628875
0.628723
0.628741
0.628828
0.628992
0.629226
0.629546
0.62992
0.630017
0.629994
0.629799
0.629432
0.629139
0.629638
0.633976
0.657533
0.722697
0.822337
0.927195
0.955052
0.986833
1.00075
0.629539
0.62933
0.629105
0.628872
0.628661
0.628551
0.628519
0.628483
0.628418
0.628397
0.628389
0.628356
0.628279
0.628171
0.628127
0.628122
0.628126
0.628145
0.628201
0.628328
0.628527
0.628795
0.62923
0.629696
0.629832
0.629857
0.62981
0.629303
0.628333
0.627986
0.627953
0.62803
0.62814
0.6282
0.628141
0.627985
0.627911
0.62789
0.627825
0.627763
0.627805
0.628031
0.628565
0.629316
0.629708
0.629932
0.630185
0.630465
0.630595
0.630613
0.630469
0.629959
0.629469
0.629368
0.629363
0.629315
0.629171
0.628929
0.628655
0.628612
0.628676
0.629066
0.629675
0.629984
0.630129
0.630125
0.630054
0.629829
0.62938
0.628918
0.62882
0.628895
0.629254
0.631409
0.642744
0.689302
0.779118
0.892312
0.970686
0.99563
0.629023
0.628647
0.628388
0.628213
0.628012
0.627821
0.627754
0.627737
0.627714
0.627583
0.627382
0.627326
0.62718
0.626755
0.626511
0.626496
0.626502
0.626476
0.626484
0.626607
0.626806
0.627042
0.627391
0.627942
0.628518
0.628715
0.628663
0.628289
0.628055
0.627966
0.627943
0.628001
0.628375
0.629066
0.629415
0.629413
0.629389
0.629348
0.629144
0.628808
0.628779
0.629197
0.629734
0.629678
0.62956
0.629543
0.629776
0.630275
0.630435
0.630392
0.629988
0.629081
0.628294
0.628088
0.628082
0.628193
0.628498
0.628584
0.628572
0.628648
0.629092
0.629803
0.630244
0.630301
0.630256
0.629998
0.629563
0.629096
0.628793
0.628724
0.628824
0.629315
0.629982
0.630069
0.630638
0.635769
0.662028
0.740595
0.840977
0.943711
0.633802
0.633738
0.63364
0.633565
0.633443
0.633414
0.633425
0.633397
0.633291
0.633191
0.632925
0.632626
0.63232
0.631633
0.630565
0.629783
0.629402
0.629171
0.629139
0.629173
0.629221
0.62936
0.629719
0.630334
0.63063
0.630589
0.630639
0.630717
0.630551
0.630446
0.630498
0.63095
0.632323
0.633214
0.633565
0.633642
0.633617
0.633398
0.632859
0.632184
0.631678
0.631382
0.631217
0.630716
0.62934
0.628396
0.628342
0.628632
0.629216
0.629283
0.629024
0.628426
0.627815
0.627564
0.627576
0.627781
0.628206
0.628758
0.629404
0.629889
0.630264
0.630222
0.630214
0.630065
0.629684
0.629145
0.628675
0.628527
0.628581
0.628824
0.629568
0.630133
0.630378
0.630252
0.629719
0.629591
0.631721
0.648292
0.698773
0.847884
0.651742
0.652128
0.652522
0.652555
0.652343
0.652409
0.652847
0.65301
0.652822
0.651943
0.650499
0.650188
0.649966
0.648528
0.645846
0.644958
0.644767
0.644521
0.64425
0.643787
0.643177
0.6428
0.642224
0.641348
0.641196
0.640963
0.640193
0.638817
0.636915
0.635625
0.635313
0.635521
0.636593
0.637466
0.637568
0.637572
0.637201
0.636024
0.634445
0.632652
0.631693
0.6317
0.631761
0.631342
0.629487
0.628141
0.628082
0.628273
0.628896
0.629142
0.629092
0.62868
0.628229
0.628326
0.62869
0.629137
0.629565
0.630264
0.630857
0.630915
0.630649
0.629869
0.628947
0.628526
0.628252
0.628108
0.628082
0.628144
0.628627
0.629635
0.630466
0.630446
0.630255
0.629676
0.628992
0.6287
0.628846
0.630156
0.637422
0.716341
0.668054
0.667694
0.6672
0.666587
0.665878
0.664812
0.663832
0.663655
0.664142
0.663797
0.662657
0.662221
0.661678
0.660678
0.660072
0.659945
0.659782
0.660169
0.660999
0.661077
0.66072
0.660671
0.661184
0.660926
0.659698
0.658272
0.656857
0.654945
0.652461
0.650169
0.647859
0.646702
0.646628
0.64649
0.645564
0.643575
0.641577
0.640002
0.638157
0.637443
0.637443
0.637752
0.63868
0.639244
0.638717
0.637207
0.635694
0.634074
0.63287
0.63281
0.633224
0.63364
0.634015
0.634755
0.634761
0.634077
0.632653
0.632019
0.631655
0.631312
0.630454
0.629123
0.627959
0.627848
0.627913
0.628028
0.628311
0.628987
0.62992
0.630632
0.630544
0.630114
0.629182
0.628616
0.628499
0.628568
0.629355
0.630352
0.630793
0.650215
0.714827
0.714266
0.713624
0.712894
0.711857
0.710642
0.70953
0.708395
0.707174
0.705701
0.704353
0.703239
0.701388
0.699771
0.699717
0.699387
0.698171
0.696963
0.695898
0.694918
0.693113
0.69197
0.692077
0.691089
0.690427
0.690683
0.689129
0.687547
0.686704
0.68553
0.684626
0.683629
0.682214
0.680811
0.679
0.676866
0.674186
0.66943
0.666116
0.665935
0.665221
0.662789
0.660618
0.659901
0.659765
0.658889
0.65643
0.652707
0.64859
0.646186
0.645032
0.643591
0.64136
0.640001
0.638546
0.636507
0.634038
0.631623
0.630534
0.63042
0.630176
0.629303
0.628462
0.628544
0.629163
0.630215
0.631481
0.631697
0.631399
0.630736
0.629717
0.628627
0.627959
0.627982
0.628131
0.629129
0.630407
0.63042
0.629812
0.632082
0.763258
0.763744
0.764132
0.764005
0.762711
0.761101
0.761073
0.761252
0.760659
0.75906
0.757939
0.757605
0.757337
0.756559
0.754724
0.753634
0.752001
0.749868
0.749366
0.748974
0.747521
0.744824
0.74224
0.740536
0.738754
0.736518
0.73371
0.730707
0.727979
0.724667
0.721622
0.719271
0.716108
0.711731
0.71028
0.710902
0.710566
0.707859
0.704449
0.702005
0.69985
0.696139
0.689827
0.683792
0.681333
0.67935
0.675554
0.671939
0.669682
0.667016
0.664054
0.660777
0.656091
0.651815
0.649067
0.646272
0.644466
0.643535
0.641244
0.638983
0.638477
0.638108
0.637663
0.637418
0.636905
0.636132
0.635377
0.634066
0.632139
0.629934
0.628708
0.628125
0.62795
0.628275
0.629291
0.630865
0.630842
0.63009
0.628727
0.628824
0.831061
0.830448
0.829434
0.827355
0.82634
0.825755
0.825094
0.824284
0.822885
0.820956
0.819917
0.818971
0.816664
0.815024
0.814704
0.813347
0.81059
0.80788
0.806154
0.805187
0.803744
0.800045
0.798539
0.798554
0.797457
0.794259
0.792272
0.790593
0.788554
0.785754
0.782431
0.779119
0.775549
0.771726
0.767868
0.764224
0.760446
0.756748
0.752337
0.747629
0.746136
0.74439
0.740114
0.734867
0.731158
0.727343
0.720744
0.715085
0.71198
0.708286
0.704898
0.701484
0.695868
0.688843
0.684631
0.681213
0.676706
0.672412
0.66796
0.662755
0.657508
0.653454
0.649436
0.645983
0.641922
0.638783
0.635782
0.63345
0.631898
0.630798
0.630051
0.630449
0.631256
0.632487
0.632354
0.631932
0.630472
0.628544
0.628043
0.628315
0.901966
0.901475
0.900852
0.899933
0.898889
0.897812
0.896609
0.894346
0.892979
0.892339
0.891547
0.890346
0.888505
0.886167
0.884833
0.883482
0.881573
0.879369
0.877491
0.875856
0.873855
0.870743
0.867876
0.865825
0.863687
0.860457
0.856416
0.853775
0.851406
0.848245
0.843747
0.840139
0.83699
0.833773
0.830556
0.826702
0.82286
0.819341
0.815263
0.809908
0.804363
0.79947
0.792793
0.784643
0.7812
0.778531
0.773696
0.768023
0.762627
0.753425
0.746028
0.740776
0.73601
0.729883
0.721944
0.714756
0.709123
0.702476
0.6956
0.688563
0.68224
0.67587
0.669898
0.663882
0.658091
0.653719
0.64943
0.64633
0.643378
0.642365
0.641258
0.640631
0.639365
0.637496
0.634895
0.631449
0.629429
0.628378
0.628465
0.629598
0.981673
0.979194
0.977114
0.977043
0.976688
0.975786
0.974527
0.972675
0.971089
0.969248
0.967819
0.966642
0.965246
0.962262
0.958854
0.958525
0.958032
0.955658
0.9523
0.949676
0.947597
0.945418
0.942251
0.939066
0.936957
0.93455
0.930173
0.926199
0.923875
0.921188
0.917141
0.91258
0.908688
0.904338
0.899619
0.895406
0.890392
0.884895
0.880537
0.875671
0.869833
0.864671
0.859625
0.853539
0.847017
0.840396
0.832886
0.825309
0.820286
0.814104
0.807298
0.799092
0.789758
0.783274
0.776845
0.768488
0.760231
0.752871
0.74534
0.737212
0.729841
0.721868
0.714289
0.705989
0.698446
0.690326
0.682694
0.674963
0.667156
0.660319
0.653552
0.64849
0.643354
0.638783
0.635476
0.633186
0.631743
0.632176
0.633548
0.632954
1.06763
1.06684
1.0652
1.06285
1.06161
1.06038
1.05903
1.05775
1.05613
1.05418
1.05206
1.05035
1.04894
1.04741
1.04428
1.0405
1.03915
1.03767
1.0355
1.03287
1.03038
1.02694
1.02188
1.01924
1.01761
1.01491
1.01032
1.00538
1.00207
0.998628
0.994229
0.989821
0.985395
0.980619
0.975297
0.97017
0.9656
0.960479
0.954601
0.948621
0.94238
0.935799
0.92929
0.922685
0.915852
0.908889
0.901865
0.894294
0.886419
0.877536
0.868507
0.861128
0.85367
0.844109
0.833918
0.825431
0.81625
0.80637
0.796417
0.786831
0.776762
0.766704
0.756554
0.746199
0.736151
0.725781
0.715979
0.705599
0.696181
0.686378
0.677491
0.669501
0.661777
0.655696
0.650504
0.648398
0.646253
0.644306
0.641599
0.636111
1.16198
1.16129
1.16036
1.15777
1.155
1.15368
1.15264
1.15156
1.14976
1.14752
1.14511
1.14297
1.14133
1.13961
1.13675
1.13257
1.12997
1.12802
1.12586
1.12319
1.11993
1.1166
1.11212
1.10743
1.1049
1.10235
1.09831
1.09233
1.08842
1.08502
1.08004
1.07439
1.06958
1.06429
1.0583
1.0528
1.04709
1.04102
1.03479
1.02811
1.02128
1.01424
1.00718
0.99974
0.991914
0.983838
0.97522
0.966838
0.958171
0.949472
0.94088
0.930569
0.920018
0.911296
0.901458
0.890333
0.879913
0.869509
0.858247
0.847363
0.836035
0.82475
0.813237
0.80223
0.790651
0.779403
0.768265
0.756937
0.746066
0.734526
0.723818
0.711833
0.7014
0.689841
0.67928
0.66927
0.66015
0.65293
0.64607
0.638562
1.26436
1.26338
1.26281
1.26185
1.25977
1.25785
1.2562
1.25406
1.2517
1.24979
1.24711
1.24419
1.24256
1.24076
1.23733
1.23377
1.2315
1.22873
1.22542
1.22233
1.2188
1.2145
1.21046
1.20664
1.20241
1.19786
1.19391
1.18972
1.18442
1.17914
1.17393
1.16804
1.16217
1.15648
1.15005
1.1432
1.13701
1.13027
1.12291
1.11532
1.10788
1.10011
1.09163
1.08326
1.07445
1.06551
1.05643
1.04667
1.03727
1.02694
1.01612
1.00617
0.9956
0.983862
0.972733
0.961209
0.949551
0.937412
0.925105
0.912413
0.899872
0.886986
0.873672
0.860625
0.847211
0.833764
0.819994
0.806628
0.792678
0.779422
0.765551
0.751939
0.738586
0.725002
0.71236
0.699211
0.687874
0.676467
0.667963
0.658295
1.37279
1.37031
1.36928
1.36859
1.36744
1.36512
1.36297
1.36118
1.35897
1.35679
1.35483
1.35266
1.34913
1.3467
1.34476
1.3418
1.33778
1.33469
1.33152
1.32787
1.32438
1.32055
1.31646
1.31202
1.30725
1.30307
1.29869
1.29297
1.28751
1.28232
1.27656
1.27027
1.26382
1.25715
1.2502
1.24318
1.23573
1.22808
1.21999
1.21165
1.20312
1.19417
1.18494
1.17521
1.16545
1.15554
1.14497
1.13441
1.12332
1.11184
1.10046
1.08839
1.07601
1.06401
1.05141
1.03807
1.02528
1.01191
0.998052
0.983969
0.969976
0.955592
0.941342
0.926336
0.911797
0.896607
0.881707
0.866622
0.851534
0.836798
0.821879
0.807164
0.792275
0.778222
0.763515
0.749102
0.734632
0.719678
0.706871
0.686355
1.46521
1.46421
1.46298
1.46075
1.45947
1.4588
1.45776
1.45633
1.45464
1.45275
1.4497
1.44785
1.44695
1.44546
1.4422
1.43917
1.43722
1.43479
1.43183
1.42891
1.426
1.42266
1.41886
1.41526
1.41156
1.40751
1.40294
1.39807
1.39296
1.3877
1.38187
1.37576
1.36919
1.36231
1.35543
1.34813
1.34053
1.33232
1.3241
1.31508
1.30593
1.29644
1.28593
1.27594
1.26499
1.25413
1.24279
1.23041
1.21843
1.20555
1.19196
1.17919
1.16514
1.1512
1.13762
1.12298
1.10789
1.09333
1.07771
1.06199
1.04618
1.03034
1.01425
0.99783
0.981242
0.964451
0.947802
0.930741
0.913818
0.896626
0.879724
0.862271
0.845275
0.828058
0.811107
0.794113
0.777182
0.76028
0.745282
0.721003
1.51569
1.51529
1.51484
1.51436
1.51383
1.51369
1.51365
1.51327
1.51255
1.51169
1.51037
1.50956
1.50911
1.50819
1.50683
1.50583
1.50461
1.50323
1.50198
1.50047
1.49889
1.49727
1.49521
1.49316
1.49099
1.48843
1.48559
1.48243
1.47885
1.47496
1.47075
1.4661
1.46129
1.45599
1.45047
1.44461
1.43835
1.43149
1.42417
1.41621
1.40771
1.39928
1.38967
1.37973
1.36946
1.35829
1.34689
1.33392
1.32062
1.30678
1.29216
1.2778
1.26289
1.24718
1.23187
1.21596
1.19938
1.18263
1.16521
1.14761
1.12981
1.11204
1.0939
1.07576
1.05708
1.03859
1.01982
1.0013
0.982193
0.963436
0.944558
0.925485
0.906702
0.887928
0.869442
0.850986
0.833213
0.814835
0.799161
0.772224
1.52652
1.52646
1.5264
1.52635
1.5263
1.52625
1.52621
1.52614
1.52599
1.52598
1.52596
1.52592
1.52587
1.52568
1.52563
1.52563
1.52545
1.52535
1.52543
1.52536
1.52518
1.52507
1.52487
1.52463
1.5244
1.52407
1.52347
1.5226
1.52152
1.52029
1.51885
1.51703
1.51475
1.5124
1.51012
1.50764
1.5047
1.50115
1.49703
1.49223
1.48671
1.48119
1.47502
1.46798
1.46053
1.45221
1.44321
1.43258
1.42093
1.40875
1.39504
1.38082
1.36571
1.34932
1.33309
1.31592
1.29806
1.28023
1.26165
1.24181
1.2218
1.20148
1.18141
1.16095
1.14039
1.11947
1.09872
1.07793
1.05679
1.03571
1.01463
0.993679
0.97251
0.951771
0.930666
0.909897
0.889304
0.868427
0.849935
0.81906
1.53005
1.53008
1.53017
1.53021
1.53022
1.53023
1.5302
1.53005
1.52994
1.53
1.52998
1.52964
1.52913
1.52876
1.52829
1.52755
1.52665
1.52617
1.52621
1.52638
1.52629
1.52593
1.5255
1.52512
1.52495
1.5248
1.52466
1.52468
1.52501
1.52557
1.52622
1.52689
1.52751
1.52813
1.52852
1.52844
1.52795
1.52735
1.52691
1.52609
1.52447
1.52224
1.51959
1.51647
1.51272
1.50882
1.50533
1.50105
1.49467
1.48694
1.47862
1.46965
1.4592
1.44624
1.43086
1.41478
1.39818
1.3808
1.36226
1.34262
1.32184
1.29961
1.27707
1.25445
1.2318
1.20867
1.18532
1.16184
1.13848
1.11473
1.09155
1.06806
1.0449
1.02159
0.998593
0.97551
0.952927
0.929954
0.909779
0.876414
1.5234
1.52371