/*--------------------------------*- C++ -*----------------------------------*\
  =========                 |
  \\      /  F ield         | OpenFOAM: The Open Source CFD Toolbox
   \\    /   O peration     | Website:  https://openfoam.org
    \\  /    A nd           | Version:  7
     \\/     M anipulation  |
\*---------------------------------------------------------------------------*/
FoamFile
{
    version     2.0;
    format      ascii;
    class       volScalarField;
    location    "6.1";
    object      p;
}
// * * * * * * * * * * * * * * * * * * * * * * * * * * * * * * * * * * * * * //

dimensions      [1 -1 -2 0 0 0 0];

internalField   nonuniform List<scalar> 
8400
(
0.160815
0.273402
0.374976
0.478904
0.563502
0.631437
0.699661
0.725035
0.753548
0.76256
0.765135
0.778411
0.801395
0.822095
0.855645
0.882338
0.89279
0.898329
0.894808
0.877309
0.86283
0.857585
0.859713
0.870743
0.886707
0.899876
0.912662
0.928087
0.930475
0.919986
0.05533
0.0567694
0.0656957
0.0886922
0.137247
0.204595
0.294889
0.414355
0.526646
0.643213
0.754779
0.833016
0.905265
0.938453
0.973676
0.95655
0.929671
0.890542
0.859558
0.829908
0.821876
0.84219
0.87508
0.905268
0.924006
0.925929
0.92378
0.915232
0.913852
0.917304
0.0577383
0.0574596
0.0574591
0.0576264
0.057167
0.0567148
0.0560591
0.0628759
0.0833484
0.133713
0.220095
0.341735
0.469158
0.590595
0.71654
0.782891
0.839581
0.8594
0.868521
0.866168
0.870769
0.866954
0.870857
0.881013
0.905348
0.932918
0.953531
0.943011
0.928103
0.92251
0.05377
0.0539917
0.053682
0.0532803
0.0529491
0.0525041
0.0524416
0.0525123
0.0522697
0.0524768
0.0529866
0.0526886
0.0599198
0.0909401
0.152636
0.267067
0.419589
0.592836
0.762811
0.855608
0.909126
0.90416
0.897115
0.880113
0.886553
0.914107
0.934525
0.934161
0.932351
0.932703
0.0524781
0.0522768
0.0516599
0.0510868
0.051033
0.0509777
0.0509752
0.0509886
0.0511513
0.0519086
0.0539599
0.0560848
0.0557789
0.0552865
0.0557505
0.0582642
0.0653506
0.105337
0.198988
0.363538
0.558615
0.707667
0.805118
0.840834
0.880637
0.929445
0.920631
0.923464
0.954904
0.95373
0.0523686
0.0515925
0.0510086
0.0510015
0.0514641
0.0523137
0.0530499
0.053446
0.0539381
0.0561551
0.06115
0.0684357
0.0719438
0.0717895
0.0718607
0.0732453
0.0775991
0.0804952
0.0802788
0.0806204
0.106697
0.199609
0.348059
0.536865
0.677692
0.754858
0.817196
0.880446
0.968445
0.959262
0.0571275
0.0580569
0.0597258
0.0619413
0.064425
0.0670424
0.0692878
0.0710459
0.072717
0.0750544
0.0775298
0.0817173
0.0848482
0.0846814
0.0841335
0.0843758
0.0879342
0.0914421
0.0938198
0.0982714
0.106281
0.111862
0.11375
0.137941
0.20794
0.327962
0.498663
0.656368
0.755504
0.858221
0.0792153
0.0800474
0.0803749
0.0805005
0.081193
0.0829255
0.0851771
0.0880245
0.0892894
0.0884462
0.0882823
0.0901674
0.0946437
0.095931
0.0972462
0.100702
0.108123
0.116848
0.122807
0.127222
0.131646
0.133446
0.132834
0.133179
0.133584
0.134891
0.15155
0.215053
0.313274
0.585514
0.099787
0.0986711
0.0971039
0.0963677
0.0967687
0.0987849
0.103162
0.108275
0.111258
0.112879
0.114934
0.118762
0.123993
0.128792
0.133283
0.138173
0.144205
0.146192
0.145436
0.144298
0.144814
0.14489
0.143645
0.144679
0.149408
0.158426
0.166699
0.169936
0.170415
0.218427
0.133485
0.131736
0.130991
0.131026
0.132079
0.134918
0.140865
0.148656
0.153802
0.154528
0.154136
0.154417
0.156805
0.159248
0.159791
0.161057
0.161634
0.161485
0.158854
0.157637
0.159498
0.165372
0.174806
0.182797
0.188762
0.191427
0.193461
0.192553
0.191996
0.193166
0.179198
0.179082
0.174397
0.17107
0.17099
0.171994
0.176021
0.183711
0.188389
0.18817
0.185488
0.182446
0.182787
0.184721
0.18607
0.187951
0.191322
0.19541
0.200175
0.205126
0.209776
0.214118
0.218011
0.218879
0.217907
0.21493
0.212046
0.210967
0.213799
0.221601
0.236342
0.237297
0.235636
0.227819
0.222833
0.222909
0.225112
0.23167
0.238183
0.239222
0.237673
0.235959
0.2365
0.238687
0.240639
0.241903
0.244264
0.247847
0.248223
0.247601
0.24619
0.244555
0.242175
0.239905
0.236841
0.238058
0.241688
0.248147
0.253991
0.257203
0.304182
0.307342
0.308745
0.306468
0.295711
0.287393
0.287155
0.290213
0.296423
0.298797
0.297579
0.293778
0.292101
0.291945
0.291475
0.289057
0.286908
0.286435
0.285815
0.283215
0.280239
0.280372
0.281966
0.284247
0.287315
0.290167
0.292137
0.292399
0.290679
0.28587
0.388823
0.393749
0.396897
0.397115
0.392034
0.37723
0.36705
0.366222
0.369879
0.373297
0.372103
0.366031
0.362557
0.363083
0.362623
0.357497
0.353043
0.352922
0.352856
0.351571
0.349364
0.347705
0.346566
0.344502
0.34165
0.337516
0.332857
0.327408
0.322397
0.318449
0.495583
0.499312
0.503749
0.504372
0.503179
0.494276
0.475585
0.463622
0.463902
0.466413
0.465327
0.457764
0.44788
0.447566
0.447097
0.440919
0.430088
0.42581
0.423179
0.419053
0.413052
0.40661
0.400521
0.39577
0.390899
0.385308
0.381727
0.378308
0.377941
0.376108
0.627903
0.626716
0.631238
0.631977
0.631715
0.629167
0.6166
0.595041
0.579014
0.57786
0.578469
0.572514
0.553887
0.547107
0.546299
0.541505
0.527749
0.51707
0.510779
0.504198
0.496762
0.488892
0.480743
0.473644
0.46694
0.460704
0.453399
0.446285
0.439698
0.427136
0.81456
0.791651
0.77883
0.777275
0.783612
0.785061
0.775489
0.751543
0.724458
0.714866
0.715036
0.709764
0.686137
0.667102
0.664223
0.659521
0.644886
0.627019
0.615602
0.60578
0.595124
0.582957
0.569967
0.557034
0.546204
0.53534
0.523731
0.511717
0.501046
0.484248
1.03458
0.99989
0.966751
0.956969
0.962477
0.969848
0.961428
0.932529
0.896651
0.874554
0.875225
0.871513
0.845792
0.813091
0.804076
0.797006
0.781713
0.759358
0.739251
0.72336
0.708359
0.693301
0.675589
0.657604
0.642221
0.626567
0.611327
0.595395
0.582173
0.56133
1.2916
1.25927
1.20604
1.17706
1.17913
1.18603
1.17529
1.14536
1.10177
1.06961
1.06722
1.05815
1.02494
0.984336
0.969837
0.957516
0.936641
0.911035
0.884259
0.859961
0.839185
0.818468
0.796625
0.773453
0.751204
0.731218
0.710622
0.689353
0.671202
0.641584
1.56562
1.54653
1.51884
1.47559
1.45735
1.44685
1.4264
1.3949
1.35846
1.32054
1.29785
1.27569
1.23859
1.19499
1.16942
1.14576
1.11461
1.08266
1.05075
1.01906
0.990533
0.96235
0.933352
0.904645
0.877109
0.850613
0.824667
0.797921
0.774865
0.737951
1.73486
1.73178
1.725
1.71062
1.69283
1.67814
1.66421
1.64576
1.62465
1.59583
1.56424
1.53604
1.50161
1.45851
1.41763
1.38016
1.33885
1.29672
1.25463
1.21221
1.17162
1.13319
1.09544
1.05806
1.02299
0.988164
0.954611
0.921624
0.893021
0.846351
1.73529
1.73645
1.73559
1.73244
1.73196
1.73233
1.73028
1.7282
1.72448
1.7179
1.71066
1.70402
1.69171
1.67371
1.65225
1.62425
1.58881
1.54771
1.50343
1.45537
1.40475
1.35262
1.30062
1.25011
1.20082
1.15366
1.10874
1.06488
1.02831
0.969998
1.59561
1.61339
1.63921
1.66646
1.67729
1.67157
1.66777
1.67874
1.69268
1.70242
1.70225
1.69867
1.70174
1.70525
1.70369
1.69684
1.68986
1.68291
1.67315
1.65574
1.62786
1.59021
1.54439
1.49194
1.43324
1.37122
1.30977
1.2489
1.19744
1.11815
1.25692
1.27529
1.3137
1.3502
1.3703
1.39215
1.41957
1.44686
1.47753
1.52463
1.54912
1.56038
1.58328
1.62728
1.64595
1.65179
1.65988
1.67194
1.67322
1.67267
1.6704
1.66629
1.65985
1.64795
1.62586
1.59027
1.54152
1.4807
1.41929
1.31357
1.03357
1.03868
1.0462
1.05711
1.0689
1.08205
1.09746
1.11515
1.13608
1.16431
1.19779
1.23136
1.26509
1.31095
1.36038
1.4079
1.44949
1.49535
1.53728
1.57275
1.60462
1.62039
1.63558
1.64429
1.64388
1.64172
1.63541
1.62172
1.59968
1.52779
1.00093
1.00117
1.00149
1.002
1.0027
1.00368
1.00498
1.00675
1.0091
1.01267
1.01793
1.02546
1.03457
1.0474
1.06616
1.09037
1.12142
1.15815
1.20654
1.25849
1.3194
1.37989
1.43889
1.49789
1.54038
1.57833
1.60287
1.61182
1.61153
1.6046
1.00001
1.00001
1.00001
1.00002
1.00003
1.00004
1.00006
1.00008
1.00013
1.0002
1.00033
1.00055
1.00089
1.00146
1.00253
1.00428
1.00737
1.01223
1.02051
1.03354
1.05299
1.08287
1.12174
1.17471
1.23954
1.30978
1.38354
1.45553
1.50924
1.5598
1
1
1
1
1
1
1
1
1
1
1
1
1.00001
1.00001
1.00002
1.00005
1.00009
1.00019
1.0004
1.00086
1.00183
1.00386
1.00789
1.01568
1.02982
1.05419
1.09172
1.1477
1.213
1.33635
1
1
1
1
1
1
1
1
1
1
1
1
1
1
1
1
1
1
1
1.00001
1.00002
1.00004
1.00011
1.00029
1.00077
1.00202
1.00501
1.01224
1.02494
1.0779
1
1
1
1
1
1
1
1
1
1
1
1
1
1
1
1
1
1
1
1
1
1
1
1
1.00001
1.00002
1.00006
1.00023
1.00065
1.00527
0.0551318
0.0559247
0.0585713
0.0539891
0.0524474
0.0531365
0.056576
0.078033
0.100394
0.13336
0.177048
0.233408
0.301128
0.385289
0.496132
0.653617
0.850181
1.06733
1.32083
1.59189
1.73999
1.73141
1.57237
1.22997
1.02688
1.00074
1.00001
1
1
1
0.0554224
0.0562914
0.0589337
0.0536393
0.0516694
0.054079
0.0593211
0.0809765
0.105312
0.138875
0.183136
0.238936
0.310622
0.406702
0.547335
0.718806
0.905741
1.1211
1.37999
1.64378
1.75139
1.71942
1.5278
1.17692
1.0153
1.00029
1
1
1
1
0.0557697
0.0565403
0.0594273
0.0533222
0.0509412
0.0542429
0.0600655
0.0812268
0.106044
0.139602
0.185005
0.241542
0.327025
0.450167
0.592344
0.750441
0.932621
1.15547
1.43002
1.6858
1.75781
1.70941
1.48204
1.13073
1.00873
1.00014
1
1
1
1
0.0561547
0.0567699
0.0596842
0.0525608
0.0496063
0.0537988
0.0601784
0.0808947
0.105624
0.140062
0.192837
0.269936
0.370373
0.485443
0.615126
0.771326
0.962145
1.20733
1.50384
1.73033
1.7614
1.70686
1.41306
1.08885
1.00456
1.00006
1
1
1
1
0.0560063
0.0562151
0.0586122
0.051222
0.0483838
0.0536011
0.0605996
0.082797
0.110677
0.156101
0.21961
0.298027
0.389109
0.498452
0.632219
0.808784
1.04241
1.30406
1.58634
1.75911
1.76348
1.67416
1.33812
1.0586
1.00233
1.00003
1
1
1
1
0.0558802
0.0555056
0.0570703
0.0497111
0.0471722
0.0541615
0.0648774
0.0918987
0.126198
0.172837
0.231809
0.306626
0.396615
0.509621
0.67178
0.887613
1.11907
1.37359
1.63742
1.76926
1.76284
1.60884
1.27124
1.03737
1.00114
1.00001
1
1
1
1
0.0565146
0.0556144
0.0559177
0.0486533
0.0466966
0.056456
0.0712756
0.100017
0.132273
0.176532
0.235095
0.30906
0.406048
0.550541
0.745362
0.943844
1.16577
1.42597
1.67955
1.77403
1.7472
1.5652
1.21269
1.02237
1.00053
1
1
1
1
1
0.057412
0.055899
0.0552413
0.0483179
0.0470485
0.0583694
0.074744
0.102808
0.134277
0.176774
0.237367
0.317132
0.448517
0.618925
0.789954
0.978855
1.2124
1.49701
1.72736
1.77781
1.73137
1.51846
1.15659
1.01268
1.00024
1
1
1
1
1
0.0580751
0.0563752
0.0548849
0.0485928
0.0477299
0.0587031
0.0753496
0.1027
0.1363
0.179743
0.25468
0.371337
0.508124
0.653551
0.819045
1.02977
1.30101
1.58899
1.7642
1.78117
1.72227
1.44407
1.10655
1.00646
1.0001
1
1
1
1
1
0.058788
0.057984
0.0545936
0.0486923
0.0481159
0.0575766
0.075005
0.101713
0.144128
0.210258
0.300241
0.409931
0.532207
0.676264
0.869571
1.12769
1.39538
1.65405
1.78428
1.78459
1.69697
1.35845
1.06779
1.00307
1.00004
1
1
1
1
1
0.0598453
0.0587877
0.0536109
0.0480187
0.0484536
0.0569961
0.0761539
0.114343
0.170019
0.237364
0.319293
0.422173
0.547184
0.716347
0.958412
1.20285
1.46133
1.70192
1.79471
1.78524
1.6258
1.28391
1.0416
1.00144
1.00002
1
1
1
1
1
0.0604335
0.0586663
0.0521981
0.0461239
0.04909
0.0604662
0.0882129
0.131182
0.182379
0.246551
0.326283
0.428686
0.57968
0.801229
1.0242
1.26335
1.53187
1.74844
1.79878
1.76637
1.57075
1.21518
1.02358
1.00062
1.00001
1
1
1
1
1
0.0603446
0.0573134
0.0518514
0.0454668
0.0501358
0.0671235
0.0951228
0.136585
0.18568
0.248485
0.332999
0.463392
0.665502
0.867081
1.07879
1.34474
1.6161
1.78354
1.79936
1.74293
1.51355
1.15245
1.01265
1.00025
1
1
1
1
1
1
0.0588967
0.0563463
0.0520446
0.0456529
0.0520177
0.0702655
0.0962409
0.138179
0.187754
0.254779
0.375404
0.548821
0.726854
0.916167
1.15876
1.44644
1.68441
1.8024
1.79582
1.7196
1.42998
1.10101
1.00622
1.0001
1
1
1
1
1
1
0.0575445
0.0567575
0.0535125
0.0465144
0.0525472
0.0714984
0.095858
0.140062
0.204228
0.307189
0.444153
0.595844
0.76437
0.984124
1.26255
1.52777
1.73899
1.81009
1.80079
1.68836
1.33842
1.0614
1.00272
1.00004
1
1
1
1
1
1
0.0573734
0.0574733
0.0544967
0.0471695
0.0507056
0.0732091
0.106005
0.165014
0.249325
0.349407
0.472794
0.62124
0.817015
1.08839
1.34652
1.60261
1.78467
1.81264
1.79957
1.61283
1.25484
1.03382
1.00112
1.00001
1
1
1
1
1
1
0.0579616
0.0573671
0.0540775
0.0475847
0.0496558
0.077956
0.129338
0.193605
0.272436
0.367097
0.490447
0.660681
0.920502
1.17723
1.43198
1.68191
1.80783
1.81249
1.763
1.53067
1.1765
1.0171
1.00042
1
1
1
1
1
1
1
0.0584159
0.0558302
0.0514447
0.0472189
0.0549463
0.0927945
0.142283
0.203053
0.280889
0.381751
0.529317
0.767656
1.01682
1.26326
1.53466
1.74045
1.81547
1.81249
1.72205
1.45037
1.11653
1.00849
1.00016
1
1
1
1
1
1
1
0.0585447
0.0528385
0.0498003
0.0476156
0.0645082
0.0998349
0.143749
0.206142
0.289053
0.425079
0.63478
0.862964
1.093
1.36856
1.62323
1.78015
1.8212
1.79778
1.6843
1.36313
1.07255
1.0038
1.00006
1
1
1
1
1
1
1
0.0585615
0.0503992
0.0489628
0.0509868
0.0692383
0.100177
0.141162
0.216205
0.347001
0.519303
0.714119
0.924092
1.18276
1.47638
1.69857
1.81024
1.82562
1.7946
1.63915
1.27153
1.03966
1.00144
1.00002
1
1
1
1
1
1
1
0.0599155
0.0494026
0.0482215
0.0530465
0.0698992
0.0987056
0.160401
0.277401
0.419296
0.576009
0.761621
1.00088
1.31004
1.57376
1.76587
1.82847
1.82957
1.79731
1.54963
1.18034
1.01789
1.00048
1.00001
1
1
1
1
1
1
1
0.0626632
0.0488166
0.0472301
0.0529836
0.0703344
0.110222
0.208738
0.32854
0.458261
0.615139
0.828343
1.13949
1.42881
1.66428
1.80969
1.83586
1.82995
1.74059
1.43153
1.10742
1.00767
1.00015
1
1
1
1
1
1
1
1
0.0639161
0.0469753
0.0443921
0.0516611
0.0734747
0.149158
0.245732
0.352325
0.48716
0.683301
0.975956
1.27588
1.53553
1.73679
1.82748
1.83645
1.81179
1.6527
1.33002
1.06329
1.0033
1.00005
1
1
1
1
1
1
1
1
0.0633323
0.0433816
0.0411066
0.0525918
0.0934089
0.178989
0.260866
0.373019
0.55981
0.826134
1.1143
1.38673
1.63427
1.78552
1.83284
1.82724
1.7778
1.58931
1.24324
1.03303
1.00117
1.00001
1
1
1
1
1
1
1
1
0.0616472
0.0407891
0.039126
0.064335
0.120601
0.191026
0.271663
0.44553
0.696467
0.953214
1.22051
1.50166
1.71846
1.81704
1.83406
1.81709
1.74752
1.51501
1.15651
1.01474
1.00038
1
1
1
1
1
1
1
1
1
0.0602054
0.0392562
0.0381039
0.0777087
0.129967
0.196982
0.333219
0.569178
0.805309
1.05452
1.34638
1.62611
1.7827
1.83349
1.83505
1.82149
1.72543
1.39033
1.0839
1.00529
1.0001
1
1
1
1
1
1
1
1
1
0.0585897
0.0379925
0.0391676
0.0848278
0.139103
0.230482
0.442137
0.665048
0.89994
1.19034
1.50301
1.72214
1.8213
1.83888
1.83905
1.82131
1.63377
1.26036
1.03932
1.00166
1.00002
1
1
1
1
1
1
1
1
1
0.0570497
0.0357762
0.0473764
0.0882105
0.162082
0.330246
0.527854
0.751449
1.04298
1.36864
1.62833
1.78446
1.83906
1.8422
1.83679
1.76274
1.49696
1.16452
1.01749
1.00052
1.00001
1
1
1
1
1
1
1
1
1
0.0531123
0.0342733
0.0551617
0.10077
0.213727
0.402474
0.605557
0.895303
1.23246
1.518
1.71959
1.82201
1.84667
1.84401
1.8218
1.69265
1.39813
1.09829
1.00693
1.00014
1
1
1
1
1
1
1
1
1
1
0.0448014
0.0347438
0.0590641
0.140559
0.293137
0.477411
0.737646
1.09121
1.40441
1.64087
1.78626
1.84267
1.85044
1.83829
1.79574
1.63551
1.29657
1.04765
1.00225
1.00004
1
1
1
1
1
1
1
1
1
1
0.0370122
0.0374195
0.0679311
0.188159
0.361379
0.58717
0.94279
1.27853
1.56058
1.73927
1.82407
1.85165
1.85191
1.83558
1.77413
1.54208
1.16837
1.01755
1.00055
1.00001
1
1
1
1
1
1
1
1
1
1
0.0278241
0.0437348
0.105784
0.248125
0.461942
0.792816
1.14467
1.45568
1.69892
1.79704
1.83996
1.85297
1.85328
1.84247
1.73167
1.3687
1.07776
1.00533
1.00012
1
1
1
1
1
1
1
1
1
1
1
0.0175079
0.0490384
0.157308
0.342348
0.63276
1.00272
1.34595
1.62476
1.7907
1.82164
1.84491
1.84971
1.84851
1.81033
1.57905
1.22677
1.03371
1.00144
1.00002
1
1
1
1
1
1
1
1
1
1
1
0.00782334
0.058017
0.218921
0.497454
0.867516
1.22776
1.55048
1.74755
1.83629
1.82815
1.84676
1.84491
1.8293
1.72531
1.4485
1.13496
1.01261
1.00035
1
1
1
1
1
1
1
1
1
1
1
1
0.00386703
0.103331
0.341396
0.702972
1.11219
1.46978
1.708
1.81815
1.84939
1.82936
1.84747
1.84178
1.80025
1.65259
1.33283
1.06263
1.00351
1.00007
1
1
1
1
1
1
1
1
1
1
1
1
0.0107957
0.181339
0.530791
0.98391
1.38252
1.66691
1.80066
1.84767
1.85248
1.82516
1.84702
1.84417
1.77702
1.55865
1.18358
1.02004
1.00072
1.00001
1
1
1
1
1
1
1
1
1
1
1
1
0.0231876
0.294487
0.810297
1.30554
1.62961
1.78509
1.83996
1.85527
1.85151
1.8232
1.84487
1.84454
1.74544
1.36961
1.07117
1.00464
1.00011
1
1
1
1
1
1
1
1
1
1
1
1
1
0.107861
0.559869
1.18519
1.59115
1.77307
1.83449
1.85024
1.85564
1.84741
1.82161
1.84003
1.80211
1.5726
1.19268
1.02295
1.00083
1.00001
1
1
1
1
1
1
1
1
1
1
1
1
1
0.378201
1.01307
1.55471
1.77339
1.83231
1.84572
1.85088
1.85374
1.84513
1.8209
1.845
1.71528
1.38808
1.08646
1.00555
1.00011
1
1
1
1
1
1
1
1
1
1
1
1
1
1
1.00014
1.53224
1.78634
1.84069
1.84594
1.84653
1.84651
1.85291
1.84517
1.82204
1.83582
1.60947
1.22045
1.02342
1.00063
1.00001
1
1
1
1
1
1
1
1
1
1
1
1
1
1
1.84535
1.84907
1.85192
1.85145
1.84643
1.84338
1.84471
1.85467
1.84864
1.82484
1.76202
1.42294
1.0613
0.999329
0.999924
0.999999
1
1
1
1
1
1
1
1
1
1
1
1
1
1
1.84333
1.84857
1.85285
1.85288
1.84473
1.83914
1.84277
1.85928
1.85617
1.8181
1.71918
1.35709
1.05941
1.00255
1.00003
1
1
1
1
1
1
1
1
1
1
1
1
1
1
1
1.84309
1.84822
1.85325
1.85354
1.84475
1.83681
1.84104
1.85992
1.85684
1.80525
1.64702
1.25012
1.02254
1.00034
1
1
1
1
1
1
1
1
1
1
1
1
1
1
1
1
1.84342
1.84792
1.85324
1.85364
1.8453
1.83628
1.83983
1.85931
1.85556
1.78194
1.57669
1.16889
1.01017
1.00012
1
1
1
1
1
1
1
1
1
1
1
1
1
1
1
1
1.84566
1.84743
1.85167
1.85265
1.8467
1.83835
1.84107
1.86002
1.85755
1.76557
1.47804
1.09266
1.00361
1.00003
1
1
1
1
1
1
1
1
1
1
1
1
1
1
1
1
1.84871
1.84717
1.84901
1.84993
1.8481
1.84208
1.84207
1.85723
1.85642
1.71923
1.35674
1.05028
1.0013
1.00001
1
1
1
1
1
1
1
1
1
1
1
1
1
1
1
1
1.85093
1.84745
1.84619
1.84726
1.84903
1.85026
1.84108
1.84583
1.84141
1.65074
1.2541
1.02314
1.00039
1
1
1
1
1
1
1
1
1
1
1
1
1
1
1
1
1
1.85228
1.84696
1.84239
1.84246
1.85007
1.85777
1.84259
1.83068
1.81524
1.57796
1.16361
1.00945
1.00011
1
1
1
1
1
1
1
1
1
1
1
1
1
1
1
1
1
1.85315
1.84643
1.83982
1.83847
1.84943
1.86236
1.85412
1.81883
1.78546
1.48457
1.09198
1.00346
1.00003
1
1
1
1
1
1
1
1
1
1
1
1
1
1
1
1
1
1.85353
1.84649
1.83911
1.83663
1.84661
1.8643
1.86203
1.81528
1.74122
1.35597
1.04739
1.00114
1.00001
1
1
1
1
1
1
1
1
1
1
1
1
1
1
1
1
1
1.85269
1.84684
1.84029
1.8366
1.84515
1.86615
1.86573
1.80837
1.67433
1.24103
1.02058
1.00032
1
1
1
1
1
1
1
1
1
1
1
1
1
1
1
1
1
1
1.8495
1.84713
1.84328
1.83872
1.84264
1.8672
1.86788
1.78759
1.56552
1.14896
1.00803
1.00009
1
1
1
1
1
1
1
1
1
1
1
1
1
1
1
1
1
1
1.84695
1.8466
1.84714
1.84161
1.83786
1.86371
1.87047
1.77244
1.45239
1.08053
1.00262
1.00002
1
1
1
1
1
1
1
1
1
1
1
1
1
1
1
1
1
1
1.84505
1.84478
1.85027
1.84554
1.83217
1.85302
1.87077
1.74286
1.32304
1.0367
1.00077
1
1
1
1
1
1
1
1
1
1
1
1
1
1
1
1
1
1
1
1.84314
1.84256
1.85054
1.851
1.83061
1.84186
1.84989
1.63751
1.2102
1.01497
1.0002
1
1
1
1
1
1
1
1
1
1
1
1
1
1
1
1
1
1
1
1.84148
1.83902
1.84632
1.85925
1.84575
1.8354
1.82838
1.54075
1.12589
1.0055
1.00005
1
1
1
1
1
1
1
1
1
1
1
1
1
1
1
1
1
1
1
1.84159
1.83637
1.83691
1.86578
1.86949
1.83608
1.80523
1.40899
1.05829
1.00156
1.00001
1
1
1
1
1
1
1
1
1
1
1
1
1
1
1
1
1
1
1
1.84375
1.83309
1.83024
1.87087
1.88696
1.83598
1.71173
1.26498
1.02432
1.00041
1
1
1
1
1
1
1
1
1
1
1
1
1
1
1
1
1
1
1
1
1.8439
1.83251
1.82609
1.87577
1.89352
1.82017
1.59509
1.16588
1.00916
1.0001
1
1
1
1
1
1
1
1
1
1
1
1
1
1
1
1
1
1
1
1
1.84203
1.83388
1.82307
1.87773
1.89911
1.81289
1.47143
1.08237
1.0026
1.00002
1
1
1
1
1
1
1
1
1
1
1
1
1
1
1
1
1
1
1
1
1.83278
1.83626
1.82743
1.87741
1.90027
1.75918
1.32289
1.03396
1.00067
1
1
1
1
1
1
1
1
1
1
1
1
1
1
1
1
1
1
1
1
1
1.82358
1.84095
1.8514
1.87328
1.88424
1.64238
1.20205
1.0131
1.00016
1
1
1
1
1
1
1
1
1
1
1
1
1
1
1
1
1
1
1
1
1
1.81763
1.855
1.8871
1.87019
1.86484
1.52655
1.10459
1.00381
1.00003
1
1
1
1
1
1
1
1
1
1
1
1
1
1
1
1
1
1
1
1
1
1.81304
1.86868
1.91008
1.87135
1.81207
1.35779
1.04103
1.0009
1.00001
1
1
1
1
1
1
1
1
1
1
1
1
1
1
1
1
1
1
1
1
1
1.81245
1.88165
1.92848
1.86338
1.67817
1.21945
1.01559
1.0002
1
1
1
1
1
1
1
1
1
1
1
1
1
1
1
1
1
1
1
1
1
1
1.8214
1.89708
1.9375
1.84482
1.54696
1.11668
1.00447
1.00004
1
1
1
1
1
1
1
1
1
1
1
1
1
1
1
1
1
1
1
1
1
1
1.83034
1.90345
1.93987
1.8169
1.37817
1.04424
1.00099
1.00001
1
1
1
1
1
1
1
1
1
1
1
1
1
1
1
1
1
1
1
1
1
1
1.84523
1.91032
1.92472
1.67637
1.22328
1.01582
1.00021
1
1
1
1
1
1
1
1
1
1
1
1
1
1
1
1
1
1
1
1
1
1
1
1.90693
1.92158
1.89606
1.54228
1.11565
1.00453
1.00004
1
1
1
1
1
1
1
1
1
1
1
1
1
1
1
1
1
1
1
1
1
1
1
1.99534
1.90773
1.83201
1.36245
1.04172
1.00097
1.00001
1
1
1
1
1
1
1
1
1
1
1
1
1
1
1
1
1
1
1
1
1
1
1
2.07896
1.83712
1.68675
1.2049
1.01446
1.00021
1
1
1
1
1
1
1
1
1
1
1
1
1
1
1
1
1
1
1
1
1
1
1
1
2.14404
1.78281
1.51322
1.1023
1.00424
1.00004
1
1
1
1
1
1
1
1
1
1
1
1
1
1
1
1
1
1
1
1
1
1
1
1
2.175
1.71117
1.32656
1.03836
1.00101
1.00001
1
1
1
1
1
1
1
1
1
1
1
1
1
1
1
1
1
1
1
1
1
1
1
1
2.14574
1.58265
1.19572
1.01524
1.00026
1
1
1
1
1
1
1
1
1
1
1
1
1
1
1
1
1
1
1
1
1
1
1
1
1
2.06731
1.46357
1.10115
1.0047
1.00005
1
1
1
1
1
1
1
1
1
1
1
1
1
1
1
1
1
1
1
1
1
1
1
1
1
1.98216
1.32258
1.04343
1.00119
1.00001
1
1
1
1
1
1
1
1
1
1
1
1
1
1
1
1
1
1
1
1
1
1
1
1
1
1.78928
1.19845
1.01623
1.00026
1
1
1
1
1
1
1
1
1
1
1
1
1
1
1
1
1
1
1
1
1
1
1
1
1
1
1.57809
1.11391
1.00519
1.00005
1
1
1
1
1
1
1
1
1
1
1
1
1
1
1
1
1
1
1
1
1
1
1
1
1
1
1.37081
1.04196
1.00094
1.00001
1
1
1
1
1
1
1
1
1
1
1
1
1
1
1
1
1
1
1
1
1
1
1
1
1
1
1.13675
1.00761
1.00006
1
1
1
1
1
1
1
1
1
1
1
1
1
1
1
1
1
1
1
1
1
1
1
1
1
1
1
1
1
1
1
1
1
1
1
1
1
1
1
1
1
1
1
1
1
1
1
1
1
1
1
1
1
1
1
1
1
1
1
1
1
1
1
1
1
1
1
1
1
1
1
1
1
1
1
1
1
1
1
1
1
1
1
1
1
1
1
1
1
1
1
1
1
1
1
1
1
1
1
1
1
1
1
1
1
1
1
1
1
1
1
1
1
1
1
1
1
1
1
1
1
1
1
1
1
1
1
1
1
1
1
1
1
1
1
1
1
1
1
1
1
1
1
1
1
1
1
1
1
1
1
1
1
1
1
1
1
1
1
1
1
1
1
1
1
1
1
1
1
1
1
1
1
1
1
1
1
1
1
1
1
1
1
1
1
1
1
1
1
1
1
1
1
1
1
1
1
1
1
1
1
1
1
1
1
1
1
1
1
1
1
1
1
1
1
1
1
1
1
1
1
1
1
1
1
1
1
1
1
1
1
1
1
1
1
1
1
1
1
1
1
1
1
1
1
1
1
1
1
1
1
1
1
1
1
1
1
1
1
1
1
1
1
1
1
1
1
1
1
1
1
1
1
1
1
1
1
1
1
1
1
1
1
1
1
1
1
1
1
1
1
1
1
1
1
1
1
1
1
1
1
1
1
1
1
1
1
1
1
1
1
1
1
1
1
1
1
1
1
1
1
1
1
1
1
1
1
1
1
1
1
1
1
1
1
1
1
1
1
1
1
1
1
1
1
1
1
1
1
1
1
1
1
1
1
1
1
1
1
1
1
1
1
1
1
1
1
1
1
1
1
1
1
1
1
1
1
1
1
1
1
1
1
1
1
1
1
1
1
1
1
1
1
1
1
1
1
1
1
1
1
1
1
1
1
1
1
1
1
1
1
1
1
1
1
1
1
1
1
1
1
1
1
1
1
1
1
1
1
1
1
1
1
1
1
1
1
1
1
1
1
1
1
1
1
1
1
1
1
1
1
1
1
1
1
1
1
1
1
1
1
1
1
1
1
1
1
1
1
1
1
1
1
1
1
1
1
1
1
1
1
1
1
1
1
1
1
1
1
1
1
1
1
1
1
1
1
1
1
1
1
1
1
1
1
1
1
1
1
1
1
1
1
1
1
1
1
1
1
1
1
1
1
1
1
1
1
1
1
1
1
1
1
1
1
1
1
1
1
1
1
1
1
1
1
1
1
1
1
1
1
1
1
1
1
1
1
1
1
1
1
1
1
1
1
1
1
1
1
1
1
1
1
1
1
1
1
1
1
1
1
1
1
1
1
1
1
1
1
1
1
1
1
1
1
1
1
1
1
1
1
1
1
1
1
1
1
1
1
1
1
1
1
1
1
1
1
1
1
1
1
1
1
1
1
1
1
1
1
1
1
1
1
1
1
1
1
1
1
1
1
1
1
1
1
1
1
1
1
1
1
1
1
1
1
1
1
1
1
1
1
1
1
1
1
1
1
1
1
1
1
1
1
1
1
1
1
1
1
1
1
1
1
1
1
1
1
1
1
1
1
1
1
1
1
1
1
1
1
1
1
1
1
1
1
1
1
1
1
1
1
1
1
1
1
1
1
1
1
1
1
1
1
1
1
1
1
1
1
1
1
1
1
1
1
1
1
1
1
1
1
1
1
1
1
1
1
1
1
1
1
1
1
1
1
1
1
1
1
1
1
1
1
1
1
1
1
1
1
1
1
1
1
1
1
1
1
1
1
1
1
1
1
1
1
1
1
1
1
1
1
1
1
1
1
1
1
1
1
1
1
1
1
1
1
1
1
1
1
1
1
1
1
1
1
1
1
1
1
1
1
1
1
1
1
1
1
1
1
1
1
1
1
1
1
1
1
1
1
1
1
1
1
1
1
1
1
1
1
1
1
1
1
1
1
1
1
1
1
1
1
1
1
1
1
1
1
1
1
1
1
1
1
1
1
1
1
1
1
1
1
1
1
1
1
1
1
1
1
1
1
1
1
1
1
1
1
1
1
1
1
1
1
1
1
1
1
1
1
1
1
1
1
1
1
1
1
1
1
1
1
1
1
1
1
1
1
1
1
1
1
1
1
1
1
1
1
1
1
1
1
1
1
1
1
1
1
1
1
1
1
1
1
1
1
1
1
1
1
1
1
1
1
1
1
1
1
1
1
1
1
1
1
1
1
1
1
1
1
1
1
1
1
1
1
1
1
1
1
1
1
1
1
1
1
1
1
1
1
1
1
1
1
1
1
1
1
1
1
1
1
1
1
1
1
1
1
1
1
1
1
1
1
1
1
1
1
1
1
1
1
1
1
1
1
1
1
1
1
1
1
1
1
1
1
1
1
1
1
1
1
1
1
1
1
1
1
1
1
1
1
1
1
1
1
1
1
1
1
1
1
1
1
1
1
1
1
1
1
1
1
1
1
1
1
1
1
1
1
1
1
1
1
1
1
1
1
1
1
1
1
1
1
1
1
1
1
1
1
1
1
1
1
1
1
1
1
1
1
1
1
1
1
1
1
1
1
1
1
1
1
1
1
1
1
1
1
1
1
1
1
1
1
1
1
1
1
1
1
1
1
1
1
1
1
1
1
1
1
1
1
1
1
1
1
1
1
1
1
1
1
1
1
1
1
1
1
1
1
1
1
1
1
1
1
1
1
1
1
1
1
1
1
1
1
1
1
1
1
1
1
1
1
1
1
1
1
1
1
1
1
1
1
1
1
1
1
1
1
1
1
1
1
1
1
1
1
1
1
1
1
1
1
1
1
1
1
1
1
1
1
1
1
1
1
1
1
1
1
1
1
1
1
1
1
1
1
1
1
1
1
1
1
1
1
1
1
1
1
1
1
1
1
1
1
1
1
1
1
1
1
1
1
1
1
1
1
1
1
1
1
1
1
1
1
1
1
1
1
1
1
1
1
1
1
1
1
1
1
1
1
1
1
1
1
1
1
1
1
1
1
1
1
1
1
1
1
1
1
1
1
1
1
1
1
1
1
1
1
1
1
1
1
1
1
1
1
1
1
1
1
1
1
1
1
1
1
1
1
1
1
1
1
1
1
1
1
1
1
1
1
1
1
1
1
1
1
1
1
1
1
1
1
1
1
1
1
1
1
1
1
1
1
1
1
1
1
1
1
1
1
1
1
1
1
1
1
1
1
1
1
1
1
1
1
1
1
1
1
1
1
1
1
1
1
1
1
1
1
1
1
1
1
1
1
1
1
1
1
1
1
1
1
1
1
1
1
1
1
1
1
1
1
1
1
1
1
1
1
1
1
1
1
1
1
1
1
1
1
1
1
1
1
1
1
1
1
1
1
1
1
1
1
1
1
1
1
1
1
1
1
1
1
1
1
1
1
1
1
1
1
1
1
1
1
1
1
1
1
1
1
1
1
1
1
1
1
1
1
1
1
1
1
1
1
1
1
1
1
1
1
1
1
1
1
1
1
1
1
1
1
1
1
1
1
1
1
1
1
1
1
1
1
1
1
1
1
1
1
1
1
1
1
1
1
1
1
1
1
1
1
1
1
1
1
1
1
1
1
1
1
1
1
1
1
1
1
1
1
1
1
1
1
1
1
1
1
1
1
1
1
1
1
1
1
1
1
1
1
1
1
1
1
1
1
1
1
1
1
1
1
1
1
1
1
1
1
1
1
1
1
1
1
1
1
1
1
1
1
1
1
1
1
1
1
1
1
1
1
1
1
1
1
1
1
1
1
1
1
1
1
1
1
1
1
1
1
1
1
1
1
1
1
1
1
1
1
1
1
1
1
1
1
1
1
1
1
1
1
1
1
1
1
1
1
1
1
1
1
1
1
1
1
1
1
1
1
1
1
1
1
1
1
1
1
1
1
1
1
1
1
1
1
1
1
1
1
1
1
1
1
1
1
1
1
1
1
1
1
1
1
1
1
1
1
1
1
1
1
1
1
1
1
1
1
1
1
1
1
1
1
1
1
1
1
1
1
1
1
1
1
1
1
1
1
1
1
1
1
1
1
1
1
1
1
1
1
1
1
1
1
1
1
1
1
1
1
1
1
1
1
1
1
1
1
1
1
1
1
1
1
1
1
1
1
1
1
1
1
1
1
1
1
1
1
1
1
1.4212
1
1
1
1
1
1
1
1
1
1
1
1
1
1
1
1
1
1
1
1
1
1
1
1
1
1
1
1
1
2.36475
0.998517
1
1
1
1
1
1
1
1
1
1
1
1
1
1
1
1
1
1
1
1
1
1
1
1
1
1
1
1
3.60552
1.07683
1
1
1
1
1
1
1
1
1
1
1
1
1
1
1
1
1
1
1
1
1
1
1
1
1
1
1
1
5.22088
1.36396
1
1
1
1
1
1
1
1
1
1
1
1
1
1
1
1
1
1
1
1
1
1
1
1
1
1
1
1
6.88348
2.16739
0.998802
1
1
1
1
1
1
1
1
1
1
1
1
1
1
1
1
1
1
1
1
1
1
1
1
1
1
1
8.62135
3.8507
1.11442
0.999853
1
1
1
1
1
1
1
1
1
1
1
1
1
1
1
1
1
1
1
1
1
1
1
1
1
1
9.50374
6.33634
2.62123
1.00558
1
1
1
1
1
1
1
1
1
1
1
1
1
1
1
1
1
1
1
1
1
1
1
1
1
1
8.53122
6.66274
5.68239
1.77472
0.999282
1
1
1
1
1
1
1
1
1
1
1
1
1
1
1
1
1
1
1
1
1
1
1
1
1
7.04884
6.33515
6.94369
4.4681
1.24873
0.999675
1
1
1
1
1
1
1
1
1
1
1
1
1
1
1
1
1
1
1
1
1
1
1
1
6.15839
6.00025
6.71831
6.41172
2.74031
1.00965
1
1
1
1
1
1
1
1
1
1
1
1
1
1
1
1
1
1
1
1
1
1
1
1
5.80233
5.86976
6.37263
6.19638
4.76145
1.46741
0.99943
1
1
1
1
1
1
1
1
1
1
1
1
1
1
1
1
1
1
1
1
1
1
1
5.64265
5.77927
6.00777
5.91775
5.94359
2.79914
1.0215
1
1
1
1
1
1
1
1
1
1
1
1
1
1
1
1
1
1
1
1
1
1
1
5.58862
5.68684
5.75399
5.82562
6.1225
4.7768
1.45821
0.999398
1
1
1
1
1
1
1
1
1
1
1
1
1
1
1
1
1
1
1
1
1
1
5.57398
5.66133
5.67561
5.81004
6.03457
5.56792
2.69415
1.01917
1
1
1
1
1
1
1
1
1
1
1
1
1
1
1
1
1
1
1
1
1
1
5.59605
5.67985
5.696
5.78979
5.91736
5.70736
4.10164
1.27835
0.999945
1
1
1
1
1
1
1
1
1
1
1
1
1
1
1
1
1
1
1
1
1
5.64632
5.72306
5.73522
5.75798
5.81282
5.68584
5.28199
2.1338
0.999678
1
1
1
1
1
1
1
1
1
1
1
1
1
1
1
1
1
1
1
1
1
5.71414
5.77759
5.77431
5.76725
5.73711
5.70086
5.70094
3.64675
1.13472
1
1
1
1
1
1
1
1
1
1
1
1
1
1
1
1
1
1
1
1
1
5.78184
5.82559
5.79189
5.77359
5.71452
5.69504
5.68631
4.7732
1.73257
0.999078
1
1
1
1
1
1
1
1
1
1
1
1
1
1
1
1
1
1
1
1
5.83624
5.8587
5.80103
5.78526
5.73852
5.72564
5.71049
5.32819
2.72423
1.0286
1
1
1
1
1
1
1
1
1
1
1
1
1
1
1
1
1
1
1
1
5.87123
5.88021
5.80787
5.81261
5.79372
5.75329
5.74829
5.70039
4.2107
1.30517
0.999579
1
1
1
1
1
1
1
1
1
1
1
1
1
1
1
1
1
1
1
5.89689
5.88966
5.82113
5.83852
5.84363
5.78913
5.77485
5.79277
5.16554
2.15874
1.00239
1
1
1
1
1
1
1
1
1
1
1
1
1
1
1
1
1
1
1
5.91215
5.88814
5.84642
5.86044
5.87636
5.82648
5.79852
5.80539
5.47171
3.2603
1.09265
1
1
1
1
1
1
1
1
1
1
1
1
1
1
1
1
1
1
1
5.91576
5.88368
5.87063
5.87817
5.89276
5.86131
5.82959
5.83075
5.73011
4.63144
1.52043
0.999255
1
1
1
1
1
1
1
1
1
1
1
1
1
1
1
1
1
1
5.90974
5.87526
5.8763
5.88331
5.89669
5.87913
5.85479
5.85216
5.85752
5.49726
2.59714
1.02013
0.999999
1
1
1
1
1
1
1
1
1
1
1
1
1
1
1
1
1
5.89454
5.86279
5.8732
5.8795
5.89295
5.88298
5.871
5.87255
5.90334
5.64524
3.74672
1.19857
1
1
1
1
1
1
1
1
1
1
1
1
1
1
1
1
1
1
5.87348
5.85047
5.8652
5.86961
5.88168
5.87976
5.87497
5.88062
5.90825
5.77108
5.00149
1.79337
0.998966
1
1
1
1
1
1
1
1
1
1
1
1
1
1
1
1
1
5.85199
5.8426
5.85662
5.85842
5.8649
5.87159
5.87251
5.88305
5.89448
5.82902
5.72601
3.07915
1.0561
1
1
1
1
1
1
1
1
1
1
1
1
1
1
1
1
1
5.83712
5.84102
5.85007
5.8483
5.84638
5.85948
5.86304
5.87513
5.88455
5.86135
5.78381
4.18209
1.35373
0.999503
1
1
1
1
1
1
1
1
1
1
1
1
1
1
1
1
5.83403
5.84173
5.8442
5.84306
5.83656
5.84826
5.8542
5.86896
5.88181
5.89137
5.80909
5.25237
2.10582
1.00383
1
1
1
1
1
1
1
1
1
1
1
1
1
1
1
1
5.837
5.84566
5.84383
5.84347
5.83555
5.84147
5.84744
5.86331
5.88478
5.88468
5.83246
5.85169
3.54945
1.11882
1
1
1
1
1
1
1
1
1
1
1
1
1
1
1
1
5.84235
5.85372
5.84934
5.84608
5.84063
5.8404
5.84398
5.85611
5.88544
5.8759
5.82407
5.88941
4.55155
1.55931
0.999229
1
1
1
1
1
1
1
1
1
1
1
1
1
1
1
5.84803
5.8599
5.85597
5.85017
5.84933
5.84658
5.8453
5.84893
5.88404
5.88105
5.81918
5.83101
5.33867
2.40654
1.01497
1
1
1
1
1
1
1
1
1
1
1
1
1
1
1
5.8526
5.86328
5.86006
5.85331
5.85724
5.85496
5.85065
5.84337
5.87955
5.88033
5.82522
5.82063
5.88489
3.92698
1.19744
0.999725
1
1
1
1
1
1
1
1
1
1
1
1
1
1
5.85529
5.86371
5.862
5.85364
5.86111
5.86059
5.85713
5.84201
5.87279
5.8768
5.83798
5.81984
5.94881
4.83429
1.77101
1.00087
1
1
1
1
1
1
1
1
1
1
1
1
1
1
5.85866
5.85942
5.8617
5.85181
5.86197
5.8631
5.86183
5.84095
5.86345
5.87087
5.84992
5.81031
5.89684
5.3787
2.66287
1.03315
1
1
1
1
1
1
1
1
1
1
1
1
1
1
5.86302
5.85271
5.85779
5.8498
5.86137
5.86281
5.86232
5.83951
5.85216
5.86799
5.86141
5.80686
5.83801
5.84567
4.18965
1.28194
0.999584
0.999998
1
1
1
1
1
1
1
1
1
1
1
1
5.867
5.84683
5.85055
5.84862
5.86162
5.86202
5.86159
5.83933
5.84379
5.86494
5.87159
5.82093
5.84031
5.95352
5.0273
1.95211
1.00449
0.999999
1
1
1
1
1
1
1
1
1
1
1
1
5.86988
5.84439
5.84421
5.84891
5.86093
5.86244
5.86139
5.84147
5.84031
5.86442
5.87746
5.83955
5.83688
5.95053
5.44167
2.88601
1.05375
0.999909
0.999999
1
1
1
1
1
1
1
1
1
1
1
5.8683
5.84514
5.84162
5.85135
5.85998
5.85852
5.86144
5.84586
5.84242
5.86277
5.8784
5.84832
5.8246
5.8816
5.78337
4.4162
1.40175
1.00116
0.999999
1
1
1
1
1
1
1
1
1
1
1
5.8708
5.86367
5.85528
5.86608
5.86859
5.86101
5.86659
5.8561
5.84788
5.8667
5.87635
5.84984
5.81865
5.87517
5.9122
5.03721
1.90809
0.972915
0.999647
1
1
1
1
1
1
1
1
1
1
1
2.78527
4.32507
4.98381
5.43107
5.64054
5.75836
5.81556
5.83737
5.8482
5.86151
5.87753
5.87253
5.83122
5.84052
5.92564
5.58844
3.74924
1.28659
1.00411
1.00002
1
1
1
1
1
1
1
1
1
1
1.05092
2.70636
3.73888
4.4663
5.00727
5.34084
5.56127
5.69748
5.77209
5.81061
5.84522
5.87148
5.86005
5.82896
5.89851
5.88408
5.14152
2.37565
1.07839
1.00082
1
1
1
1
1
1
1
1
1
1
0.40417
1.67768
2.71409
3.48645
4.1588
4.64728
5.05733
5.34374
5.54225
5.66855
5.74693
5.82102
5.85599
5.82487
5.8451