/*--------------------------------*- C++ -*----------------------------------*\
  =========                 |
  \\      /  F ield         | OpenFOAM: The Open Source CFD Toolbox
   \\    /   O peration     | Website:  https://openfoam.org
    \\  /    A nd           | Version:  7
     \\/     M anipulation  |
\*---------------------------------------------------------------------------*/
FoamFile
{
    version     2.0;
    format      ascii;
    class       volVectorField;
    location    "0.5";
    object      U;
}
// * * * * * * * * * * * * * * * * * * * * * * * * * * * * * * * * * * * * * //

dimensions      [0 1 -1 0 0 0 0];

internalField   nonuniform List<vector> 
8400
(
(2.11614 -0.682421 0)
(2.22997 -0.371573 0)
(2.2677 -0.0596489 0)
(2.32224 0.0312067 0)
(2.35161 0.109351 0)
(2.37171 0.225197 0)
(2.40286 0.262183 0)
(2.43099 0.25792 0)
(2.47279 0.248427 0)
(2.51021 0.229345 0)
(2.52418 0.181545 0)
(2.52832 0.152174 0)
(2.51023 0.130409 0)
(2.50054 0.0809809 0)
(2.53438 0.057133 0)
(2.56725 0.0621542 0)
(2.60714 0.0765224 0)
(2.65811 0.0811785 0)
(2.71211 0.0659478 0)
(2.76332 0.0396463 0)
(2.81322 0.0193844 0)
(2.86072 0.00758762 0)
(2.90901 0.000896216 0)
(2.95643 -0.000537192 0)
(2.98924 -0.000340717 0)
(2.99912 -3.48464e-05 0)
(2.99998 -7.68728e-07 0)
(3 -6.41349e-09 0)
(3 -2.33196e-10 0)
(3 -1.01766e-10 0)
(2.09611 -1.40803 0)
(2.10975 -1.40735 0)
(2.10618 -1.33464 0)
(2.08 -1.17855 0)
(2.07329 -0.907432 0)
(2.08011 -0.687484 0)
(2.09422 -0.503404 0)
(2.10673 -0.390539 0)
(2.10916 -0.248524 0)
(2.13726 -0.139691 0)
(2.17318 -0.0649813 0)
(2.21516 0.0115701 0)
(2.25561 0.0875053 0)
(2.29507 0.10773 0)
(2.34336 0.104212 0)
(2.40521 0.0997979 0)
(2.47847 0.0919967 0)
(2.55886 0.0773258 0)
(2.63962 0.0554865 0)
(2.71435 0.0268012 0)
(2.78185 0.00111499 0)
(2.84332 -0.0147422 0)
(2.90341 -0.0181373 0)
(2.95846 -0.0113237 0)
(2.9916 -0.00265386 0)
(2.99947 -0.000179539 0)
(2.99999 -3.25508e-06 0)
(3 -2.34091e-08 0)
(3 6.99531e-10 0)
(3 4.75011e-10 0)
(2.31298 -1.317 0)
(2.34681 -1.29721 0)
(2.36062 -1.31065 0)
(2.41161 -1.28488 0)
(2.40265 -1.36305 0)
(2.40928 -1.31714 0)
(2.42121 -1.28909 0)
(2.41854 -1.2569 0)
(2.37332 -1.16309 0)
(2.29758 -0.965153 0)
(2.29086 -0.755512 0)
(2.29649 -0.593267 0)
(2.31723 -0.42199 0)
(2.35134 -0.286131 0)
(2.38892 -0.211021 0)
(2.43931 -0.177131 0)
(2.50699 -0.152767 0)
(2.58572 -0.12936 0)
(2.66317 -0.110159 0)
(2.72531 -0.0953676 0)
(2.78407 -0.084097 0)
(2.8473 -0.0675315 0)
(2.91378 -0.0414359 0)
(2.9705 -0.0147589 0)
(2.99573 -0.00214281 0)
(2.99982 -9.03538e-05 0)
(3 -1.1514e-06 0)
(3 -4.00602e-09 0)
(3 2.03065e-09 0)
(3 8.53419e-10 0)
(2.35563 -1.38275 0)
(2.36559 -1.35892 0)
(2.38279 -1.32044 0)
(2.39404 -1.31491 0)
(2.41398 -1.25639 0)
(2.43025 -1.2197 0)
(2.44744 -1.18814 0)
(2.46736 -1.12811 0)
(2.48944 -1.08014 0)
(2.52933 -1.01098 0)
(2.53511 -0.982744 0)
(2.54979 -0.950891 0)
(2.5624 -0.884126 0)
(2.57359 -0.783997 0)
(2.58033 -0.680402 0)
(2.57407 -0.570755 0)
(2.57323 -0.445776 0)
(2.60775 -0.3353 0)
(2.66969 -0.258136 0)
(2.7439 -0.198883 0)
(2.81493 -0.144517 0)
(2.88313 -0.091542 0)
(2.94512 -0.0422862 0)
(2.98588 -0.0104237 0)
(2.99868 -0.000910867 0)
(2.99997 -2.19323e-05 0)
(3 -1.82055e-07 0)
(3 4.12423e-09 0)
(3 3.30303e-09 0)
(3 8.25507e-10 0)
(2.44604 -1.17845 0)
(2.45998 -1.14007 0)
(2.47079 -1.14198 0)
(2.48185 -1.09925 0)
(2.49456 -1.04854 0)
(2.50419 -1.02966 0)
(2.51593 -0.996756 0)
(2.52845 -0.947292 0)
(2.5424 -0.900691 0)
(2.55404 -0.89024 0)
(2.57149 -0.837803 0)
(2.5944 -0.765118 0)
(2.61921 -0.72795 0)
(2.6497 -0.711588 0)
(2.68661 -0.667652 0)
(2.71946 -0.585093 0)
(2.74237 -0.481329 0)
(2.75824 -0.371145 0)
(2.78328 -0.273035 0)
(2.82459 -0.19543 0)
(2.87738 -0.1289 0)
(2.93165 -0.06865 0)
(2.9756 -0.0229599 0)
(2.99615 -0.00330718 0)
(2.99982 -0.000143495 0)
(3 -1.85963e-06 0)
(3 -4.28482e-09 0)
(3 4.56683e-09 0)
(3 2.4941e-09 0)
(3 2.98973e-10 0)
(2.49652 -1.0508 0)
(2.50589 -1.04623 0)
(2.51656 -0.990226 0)
(2.52694 -0.955116 0)
(2.5364 -0.947222 0)
(2.54904 -0.899118 0)
(2.56415 -0.852973 0)
(2.57897 -0.827565 0)
(2.59699 -0.789487 0)
(2.61752 -0.727816 0)
(2.63943 -0.683625 0)
(2.66407 -0.651723 0)
(2.69205 -0.596381 0)
(2.72035 -0.522298 0)
(2.75129 -0.46023 0)
(2.78622 -0.417616 0)
(2.82358 -0.377138 0)
(2.8559 -0.318701 0)
(2.88285 -0.240728 0)
(2.90998 -0.157958 0)
(2.94239 -0.0845371 0)
(2.97487 -0.0309939 0)
(2.99463 -0.00569178 0)
(2.99961 -0.000360703 0)
(2.99999 -6.7575e-06 0)
(3 -4.51905e-08 0)
(3 4.64866e-09 0)
(3 3.46461e-09 0)
(3 8.92631e-10 0)
(3 3.8549e-11 0)
(2.5541 -0.889817 0)
(2.56471 -0.850894 0)
(2.57398 -0.834827 0)
(2.58632 -0.809685 0)
(2.60033 -0.763789 0)
(2.61508 -0.733218 0)
(2.63141 -0.701654 0)
(2.64937 -0.656204 0)
(2.66914 -0.613602 0)
(2.69105 -0.577942 0)
(2.71553 -0.534515 0)
(2.7412 -0.483576 0)
(2.76753 -0.435679 0)
(2.79493 -0.387749 0)
(2.82419 -0.333538 0)
(2.85554 -0.276175 0)
(2.8873 -0.220212 0)
(2.91659 -0.165093 0)
(2.9421 -0.110207 0)
(2.96483 -0.059982 0)
(2.98438 -0.0228395 0)
(2.99627 -0.00467843 0)
(2.99967 -0.000368768 0)
(2.99999 -9.1888e-06 0)
(3 -8.59219e-08 0)
(3 2.60478e-09 0)
(3 2.61556e-09 0)
(3 1.01624e-09 0)
(3 8.66196e-11 0)
(3 1.15196e-12 0)
(2.62154 -0.719507 0)
(2.63282 -0.698195 0)
(2.64577 -0.666817 0)
(2.65991 -0.634171 0)
(2.67529 -0.605373 0)
(2.69214 -0.570944 0)
(2.71047 -0.533535 0)
(2.73041 -0.49774 0)
(2.75209 -0.460423 0)
(2.77508 -0.419247 0)
(2.79895 -0.375956 0)
(2.82339 -0.330568 0)
(2.84793 -0.281819 0)
(2.87241 -0.230756 0)
(2.89729 -0.179974 0)
(2.92278 -0.132088 0)
(2.94756 -0.0892706 0)
(2.969 -0.0532376 0)
(2.98484 -0.0258759 0)
(2.99451 -0.00894598 0)
(2.99882 -0.0017728 0)
(2.99989 -0.000153364 0)
(3 -4.85119e-06 0)
(3 -6.28107e-08 0)
(3 7.74435e-10 0)
(3 1.26817e-09 0)
(3 6.02576e-10 0)
(3 7.28069e-11 0)
(3 1.64114e-12 0)
(3 5.30213e-15 0)
(2.70366 -0.546385 0)
(2.71623 -0.5206 0)
(2.73047 -0.493233 0)
(2.74607 -0.464333 0)
(2.76281 -0.432849 0)
(2.78068 -0.400413 0)
(2.79968 -0.36734 0)
(2.81959 -0.332615 0)
(2.84008 -0.295805 0)
(2.8608 -0.256989 0)
(2.88146 -0.216573 0)
(2.90197 -0.175734 0)
(2.92219 -0.135977 0)
(2.94169 -0.098578 0)
(2.95978 -0.0650301 0)
(2.97563 -0.0374505 0)
(2.98797 -0.0178317 0)
(2.9956 -0.00656043 0)
(2.99891 -0.00171286 0)
(2.99983 -0.000280765 0)
(2.99999 -2.44981e-05 0)
(3 -1.00355e-06 0)
(3 -1.92769e-08 0)
(3 3.27987e-10 0)
(3 4.89422e-10 0)
(3 2.00478e-10 0)
(3 2.20174e-11 0)
(3 6.26254e-13 0)
(3 -3.14907e-16 0)
(3 -2.59491e-15 0)
(2.79702 -0.365484 0)
(2.81014 -0.341836 0)
(2.82465 -0.31601 0)
(2.83996 -0.288926 0)
(2.85586 -0.261098 0)
(2.87212 -0.232505 0)
(2.8885 -0.202899 0)
(2.90472 -0.172365 0)
(2.92059 -0.141562 0)
(2.93596 -0.111558 0)
(2.95061 -0.0835045 0)
(2.9642 -0.0584746 0)
(2.97619 -0.0374488 0)
(2.98598 -0.0212135 0)
(2.99306 -0.0101127 0)
(2.99733 -0.00377815 0)
(2.99928 -0.0010146 0)
(2.99988 -0.000182666 0)
(2.99999 -2.17998e-05 0)
(3 -1.7551e-06 0)
(3 -8.66616e-08 0)
(3 5.92448e-10 0)
(3 2.0005e-09 0)
(3 9.45768e-10 0)
(3 1.75343e-10 0)
(3 7.53765e-12 0)
(3 -8.02236e-15 0)
(3 -5.34392e-14 0)
(3 -1.10767e-14 0)
(3 -3.06661e-16 0)
(2.89197 -0.191192 0)
(2.903 -0.172071 0)
(2.9146 -0.151813 0)
(2.92617 -0.131272 0)
(2.93744 -0.110742 0)
(2.94825 -0.0905194 0)
(2.95846 -0.0711572 0)
(2.96794 -0.0533814 0)
(2.97652 -0.0378492 0)
(2.98396 -0.025013 0)
(2.99 -0.0151015 0)
(2.99449 -0.00810264 0)
(2.99742 -0.00372319 0)
(2.99902 -0.00139579 0)
(2.99972 -0.00040142 0)
(2.99994 -8.25944e-05 0)
(2.99999 -1.15427e-05 0)
(3 -1.10664e-06 0)
(3 -7.10479e-08 0)
(3 3.75442e-09 0)
(3 6.19847e-09 0)
(3 4.45978e-09 0)
(3 1.82584e-09 0)
(3 2.92542e-10 0)
(3 8.95807e-12 0)
(3 -1.02769e-13 0)
(3 -1.09663e-13 0)
(3 -3.96264e-14 0)
(3 -2.42631e-15 0)
(3 -2.09482e-15 0)
(2.9647 -0.0617356 0)
(2.97039 -0.0515079 0)
(2.97595 -0.0413631 0)
(2.98107 -0.0319186 0)
(2.98566 -0.0235239 0)
(2.98965 -0.0164407 0)
(2.99297 -0.0108031 0)
(2.99559 -0.00659391 0)
(2.99749 -0.00367548 0)
(2.99873 -0.00182952 0)
(2.99945 -0.000791045 0)
(2.9998 -0.000287672 0)
(2.99994 -8.49318e-05 0)
(2.99999 -1.96471e-05 0)
(3 -3.44977e-06 0)
(3 -4.44219e-07 0)
(3 -3.51138e-08 0)
(3 4.70473e-09 0)
(3 6.92341e-09 0)
(3 6.44728e-09 0)
(3 4.56334e-09 0)
(3 1.80957e-09 0)
(3 2.51332e-10 0)
(3 8.91356e-12 0)
(3 -7.44247e-15 0)
(3 -7.20879e-14 0)
(3 -3.22015e-14 0)
(3 -8.88591e-15 0)
(3 -2.24113e-15 0)
(3 -1.27081e-15 0)
(2.99519 -0.00838423 0)
(2.9964 -0.00606149 0)
(2.99745 -0.00411987 0)
(2.9983 -0.00263561 0)
(2.99895 -0.00158075 0)
(2.9994 -0.000881611 0)
(2.99969 -0.000451375 0)
(2.99986 -0.000208642 0)
(2.99994 -8.55331e-05 0)
(2.99998 -3.05746e-05 0)
(2.99999 -9.36973e-06 0)
(3 -2.41731e-06 0)
(3 -5.13815e-07 0)
(3 -8.61252e-08 0)
(3 -8.62616e-09 0)
(3 2.66862e-09 0)
(3 4.2182e-09 0)
(3 4.46573e-09 0)
(3 3.93061e-09 0)
(3 2.32521e-09 0)
(3 7.3489e-10 0)
(3 9.50108e-11 0)
(3 3.52434e-12 0)
(3 1.6118e-14 0)
(3 -2.46845e-14 0)
(3 -1.45309e-14 0)
(3 -3.65629e-15 0)
(3 -1.22795e-15 0)
(3 1.81329e-15 0)
(3 1.42493e-15 0)
(2.99982 -0.000303625 0)
(2.99989 -0.000174271 0)
(2.99994 -9.54992e-05 0)
(2.99997 -4.93938e-05 0)
(2.99998 -2.38358e-05 0)
(2.99999 -1.0632e-05 0)
(3 -4.35416e-06 0)
(3 -1.61987e-06 0)
(3 -5.38526e-07 0)
(3 -1.57073e-07 0)
(3 -3.88107e-08 0)
(3 -7.06209e-09 0)
(3 1.18137e-10 0)
(3 1.46622e-09 0)
(3 1.79784e-09 0)
(3 1.97637e-09 0)
(3 1.82989e-09 0)
(3 1.17264e-09 0)
(3 4.90239e-10 0)
(3 1.17396e-10 0)
(3 1.21591e-11 0)
(3 4.75463e-13 0)
(3 -6.7375e-16 0)
(3 -7.77122e-15 0)
(3 -6.94054e-15 0)
(3 -5.09067e-15 0)
(3 -5.25682e-15 0)
(3 -2.32048e-15 0)
(3 -3.48692e-15 0)
(3 -1.30706e-15 0)
(3 -2.20811e-06 0)
(3 -9.32139e-07 0)
(3 -4.46475e-07 0)
(3 -2.1687e-07 0)
(3 -9.75481e-08 0)
(3 -3.89479e-08 0)
(3 -1.38647e-08 0)
(3 -4.11264e-09 0)
(3 -6.27249e-10 0)
(3 4.38579e-10 0)
(3 7.0044e-10 0)
(3 7.58043e-10 0)
(3 7.80936e-10 0)
(3 7.72018e-10 0)
(3 6.26792e-10 0)
(3 3.57685e-10 0)
(3 1.4769e-10 0)
(3 4.06407e-11 0)
(3 6.57345e-12 0)
(3 5.98316e-13 0)
(3 3.1745e-14 0)
(3 1.78993e-15 0)
(3 -8.53507e-16 0)
(3 -6.87107e-16 0)
(3 -1.18607e-16 0)
(3 2.2873e-16 0)
(3 -1.07793e-15 0)
(3 -2.25838e-15 0)
(3 -3.53715e-15 0)
(3 -9.90379e-16 0)
(3 1.42503e-09 0)
(3 9.02236e-10 0)
(3 5.52164e-10 0)
(3 4.76568e-10 0)
(3 4.66332e-10 0)
(3 4.37296e-10 0)
(3 3.98393e-10 0)
(3 3.64393e-10 0)
(3 3.46382e-10 0)
(3 3.31123e-10 0)
(3 2.87344e-10 0)
(3 2.19724e-10 0)
(3 1.4079e-10 0)
(3 6.9293e-11 0)
(3 2.78932e-11 0)
(3 7.38848e-12 0)
(3 1.29997e-12 0)
(3 1.63567e-13 0)
(3 1.39228e-14 0)
(3 2.74441e-15 0)
(3 2.5747e-15 0)
(3 2.6933e-15 0)
(3 3.77881e-15 0)
(3 2.05661e-15 0)
(3 1.77627e-15 0)
(3 1.03295e-15 0)
(3 3.66932e-16 0)
(3 -6.74196e-16 0)
(3 -3.61356e-16 0)
(3 2.23495e-16 0)
(3 2.39053e-10 0)
(3 2.22743e-10 0)
(3 1.85031e-10 0)
(3 1.47548e-10 0)
(3 1.22941e-10 0)
(3 1.03703e-10 0)
(3 8.44093e-11 0)
(3 6.42556e-11 0)
(3 4.31181e-11 0)
(3 2.31378e-11 0)
(3 1.28549e-11 0)
(3 6.30994e-12 0)
(3 2.19984e-12 0)
(3 5.93314e-13 0)
(3 1.37878e-13 0)
(3 2.3377e-14 0)
(3 3.61351e-15 0)
(3 -7.34184e-16 0)
(3 -1.47681e-15 0)
(3 -1.10879e-15 0)
(3 -5.44926e-16 0)
(3 -7.96042e-16 0)
(3 -1.28361e-16 0)
(3 -4.99472e-16 0)
(3 1.25424e-16 0)
(3 -6.89474e-16 0)
(3 -2.392e-16 0)
(3 1.2695e-15 0)
(3 1.01813e-15 0)
(3 -7.0803e-16 0)
(3 1.50176e-12 0)
(3 1.77131e-12 0)
(3 1.97263e-12 0)
(3 2.05224e-12 0)
(3 1.87146e-12 0)
(3 1.48762e-12 0)
(3 1.08024e-12 0)
(3 6.70688e-13 0)
(3 3.11835e-13 0)
(3 1.26464e-13 0)
(3 5.6848e-14 0)
(3 1.92037e-14 0)
(3 2.20999e-15 0)
(3 -1.61972e-15 0)
(3 -1.60244e-15 0)
(3 -1.1539e-15 0)
(3 -1.85828e-15 0)
(3 -1.94221e-15 0)
(3 -1.87089e-15 0)
(3 -2.11713e-15 0)
(3 -1.10988e-15 0)
(3 -1.42437e-15 0)
(3 -2.50606e-15 0)
(3 -1.21095e-16 0)
(3 8.59611e-16 0)
(3 -2.48539e-16 0)
(3 -2.87952e-16 0)
(3 1.67798e-15 0)
(3 8.48637e-16 0)
(3 -1.06582e-15 0)
(3 4.71689e-15 0)
(3 4.3997e-15 0)
(3 4.59571e-15 0)
(3 4.69163e-15 0)
(3 3.66874e-15 0)
(3 2.97256e-15 0)
(3 1.84635e-15 0)
(3 -4.49389e-17 0)
(3 -7.58608e-16 0)
(3 -8.98967e-16 0)
(3 -7.67934e-16 0)
(3 -9.7862e-17 0)
(3 -1.30676e-16 0)
(3 -5.03403e-16 0)
(3 -1.83568e-16 0)
(3 -2.49034e-16 0)
(3 -4.95712e-16 0)
(3 -2.36406e-16 0)
(3 -9.0521e-16 0)
(3 -1.09065e-15 0)
(3 -4.95247e-16 0)
(3 2.34139e-16 0)
(3 4.90156e-16 0)
(3 1.37012e-15 0)
(3 -6.88931e-16 0)
(3 -1.18476e-15 0)
(3 -9.33733e-16 0)
(3 -1.25952e-15 0)
(3 -3.26143e-17 0)
(3 1.27342e-15 0)
(3 2.95817e-15 0)
(3 2.9222e-15 0)
(3 2.8391e-15 0)
(3 2.83356e-15 0)
(3 3.60955e-15 0)
(3 3.84817e-15 0)
(3 3.76852e-15 0)
(3 3.96291e-15 0)
(3 4.29664e-15 0)
(3 4.27466e-15 0)
(3 3.84791e-15 0)
(3 3.99956e-15 0)
(3 2.42253e-15 0)
(3 2.05248e-15 0)
(3 1.02933e-15 0)
(3 -7.33367e-16 0)
(3 -1.84964e-15 0)
(3 -2.14472e-15 0)
(3 -1.61258e-15 0)
(3 -1.04094e-15 0)
(3 -7.69633e-16 0)
(3 3.98085e-16 0)
(3 1.73591e-15 0)
(3 1.09055e-15 0)
(3 4.62205e-16 0)
(3 1.81291e-15 0)
(3 1.28457e-15 0)
(3 5.65953e-16 0)
(3 9.67815e-16 0)
(3 1.54344e-15 0)
(3 -2.24055e-15 0)
(3 -2.37158e-15 0)
(3 -2.55843e-15 0)
(3 -9.85906e-16 0)
(3 -5.96388e-16 0)
(3 -4.86198e-16 0)
(3 -4.76145e-17 0)
(3 1.44249e-15 0)
(3 2.04364e-15 0)
(3 2.15099e-15 0)
(3 2.43343e-15 0)
(3 2.55345e-15 0)
(3 1.60603e-15 0)
(3 1.21777e-15 0)
(3 3.54575e-16 0)
(3 -1.72419e-15 0)
(3 -3.41529e-15 0)
(3 -3.44994e-15 0)
(3 -2.62599e-15 0)
(3 -6.26129e-16 0)
(3 -6.27744e-16 0)
(3 -1.60701e-15 0)
(3 3.04979e-16 0)
(3 9.22134e-16 0)
(3 2.52892e-15 0)
(3 3.48039e-15 0)
(3 3.14682e-15 0)
(3 2.20395e-15 0)
(3 1.09472e-15 0)
(3 -4.38846e-16 0)
(3 2.92731e-16 0)
(3 2.70617e-16 0)
(3 1.94156e-16 0)
(3 2.09258e-16 0)
(3 4.79047e-16 0)
(3 7.14319e-18 0)
(3 -2.96743e-16 0)
(3 -4.83139e-16 0)
(3 -2.85543e-16 0)
(3 -7.83202e-17 0)
(3 3.68269e-16 0)
(3 5.75273e-16 0)
(3 2.34977e-15 0)
(3 2.73018e-15 0)
(3 2.35689e-15 0)
(3 7.98394e-16 0)
(3 1.05026e-16 0)
(3 4.38476e-16 0)
(3 6.57222e-16 0)
(3 -2.92073e-16 0)
(3 -5.05727e-16 0)
(3 -6.28499e-16 0)
(3 -1.73999e-15 0)
(3 -1.58509e-15 0)
(3 -4.0783e-16 0)
(3 -1.37447e-16 0)
(3 9.54765e-16 0)
(3 2.87788e-16 0)
(3 9.47313e-16 0)
(3 1.30139e-15 0)
(3 3.26545e-15 0)
(3 2.98345e-15 0)
(3 2.45723e-15 0)
(3 2.08711e-15 0)
(3 1.14973e-15 0)
(3 6.51386e-16 0)
(3 2.88703e-18 0)
(3 -8.58108e-16 0)
(3 -1.19423e-15 0)
(3 -1.10888e-15 0)
(3 -1.09086e-15 0)
(3 -9.13919e-16 0)
(3 -6.50417e-16 0)
(3 3.85641e-16 0)
(3 8.251e-16 0)
(3 3.37205e-15 0)
(3 5.9411e-15 0)
(3 4.07471e-15 0)
(3 2.87019e-15 0)
(3 1.49622e-15 0)
(3 -9.5359e-16 0)
(3 -8.79508e-16 0)
(3 -2.10354e-15 0)
(3 -2.08009e-15 0)
(3 -1.69636e-15 0)
(3 -2.0756e-15 0)
(3 -1.74972e-15 0)
(3 -2.05717e-15 0)
(3 9.90232e-17 0)
(3 1.40766e-15 0)
(3 -3.23772e-15 0)
(3 -2.53906e-15 0)
(3 -1.77468e-15 0)
(3 -9.67e-16 0)
(3 -8.6954e-16 0)
(3 -8.65603e-16 0)
(3 -8.40028e-16 0)
(3 -6.89277e-16 0)
(3 -6.76047e-16 0)
(3 -2.45572e-16 0)
(3 -5.99017e-16 0)
(3 -1.12077e-15 0)
(3 -1.4396e-15 0)
(3 -1.62169e-15 0)
(3 -5.59302e-16 0)
(3 1.17993e-15 0)
(3 2.83331e-15 0)
(3 4.079e-15 0)
(3 4.20629e-15 0)
(3 3.31997e-15 0)
(3 1.42415e-15 0)
(3 3.84865e-16 0)
(3 -2.82033e-16 0)
(3 -8.27412e-17 0)
(3 -5.79477e-16 0)
(3 -9.90727e-16 0)
(3 -4.89645e-16 0)
(3 -4.50866e-16 0)
(3 -4.21908e-16 0)
(3 -4.72363e-16 0)
(3 -7.84387e-17 0)
(3 5.28037e-17 0)
(3 6.72897e-17 0)
(3 4.77272e-17 0)
(3 -1.65872e-16 0)
(3 -7.56967e-16 0)
(3 -6.91606e-16 0)
(3 2.3268e-16 0)
(3 8.34597e-16 0)
(3 4.58086e-18 0)
(3 -1.12074e-15 0)
(3 -1.4246e-15 0)
(3 -1.03965e-15 0)
(3 -5.42144e-16 0)
(3 -4.53816e-16 0)
(3 -1.49155e-15 0)
(3 -1.08368e-15 0)
(3 -8.19443e-16 0)
(3 1.80107e-16 0)
(3 5.47882e-16 0)
(3 7.95328e-16 0)
(3 6.08644e-16 0)
(3 5.16634e-16 0)
(3 -1.32124e-15 0)
(3 -1.21793e-15 0)
(3 -1.20932e-15 0)
(3 -1.2017e-15 0)
(3 9.42167e-16 0)
(3 -9.32773e-16 0)
(3 -1.93773e-15 0)
(3 -4.62045e-16 0)
(3 -5.19434e-16 0)
(3 -5.22149e-16 0)
(3 -8.43995e-16 0)
(3 -1.59085e-15 0)
(3 -1.83454e-15 0)
(3 -1.70924e-15 0)
(3 -1.04712e-15 0)
(3 -7.10802e-16 0)
(3 -4.89617e-16 0)
(3 1.0083e-16 0)
(3 1.53437e-16 0)
(3 -7.30425e-17 0)
(3 -8.38747e-16 0)
(3 -9.71323e-16 0)
(3 -1.40411e-15 0)
(3 -2.28163e-15 0)
(3 -2.34807e-15 0)
(3 -2.65049e-15 0)
(3 -2.77303e-15 0)
(3 -1.73716e-15 0)
(3 -1.22176e-15 0)
(3 -1.08566e-15 0)
(3 -9.15468e-16 0)
(3 -8.23469e-16 0)
(3 -1.1444e-15 0)
(3 -1.22067e-16 0)
(3 1.15066e-15 0)
(3 7.63546e-16 0)
(3 1.56116e-15 0)
(3 -2.15099e-16 0)
(3 -4.70646e-16 0)
(3 -4.44341e-16 0)
(3 -3.81925e-16 0)
(3 7.83639e-18 0)
(3 4.29255e-16 0)
(3 3.81241e-16 0)
(3 9.53329e-17 0)
(3 -2.33367e-16 0)
(3 2.10585e-16 0)
(3 3.15783e-16 0)
(3 2.37631e-16 0)
(3 1.26866e-16 0)
(3 -4.23438e-17 0)
(3 2.41008e-16 0)
(3 1.03762e-15 0)
(3 1.09024e-15 0)
(3 7.43828e-16 0)
(3 1.89564e-17 0)
(3 -3.69562e-16 0)
(3 -2.55141e-16 0)
(3 -1.67689e-16 0)
(3 -6.40667e-16 0)
(3 -5.99296e-16 0)
(3 -8.8196e-16 0)
(3 -3.86636e-16 0)
(3 -4.1689e-16 0)
(3 -8.56728e-16 0)
(3 -1.66023e-15 0)
(3 -6.90678e-16 0)
(3 -1.84753e-16 0)
(3 5.27204e-16 0)
(3 8.74466e-16 0)
(3 1.07834e-15 0)
(3 1.27388e-15 0)
(3 1.25611e-15 0)
(3 1.55934e-15 0)
(3 1.06791e-15 0)
(3 3.01224e-16 0)
(3 8.53894e-17 0)
(3 -1.29937e-16 0)
(3 1.76099e-18 0)
(3 2.11227e-17 0)
(3 5.93287e-16 0)
(3 5.7729e-16 0)
(3 6.41824e-16 0)
(3 7.40997e-16 0)
(3 -3.32439e-17 0)
(3 5.65274e-16 0)
(3 5.85944e-16 0)
(3 1.33606e-16 0)
(3 -4.20363e-16 0)
(3 -3.15604e-16 0)
(3 -6.11062e-17 0)
(3 4.78722e-16 0)
(3 4.40266e-16 0)
(3 -8.4764e-17 0)
(3 -6.61743e-16 0)
(3 -7.95694e-16 0)
(3 -8.82414e-16 0)
(3 8.56349e-16 0)
(3 1.02368e-15 0)
(3 1.15235e-15 0)
(3 1.25309e-15 0)
(3 1.3804e-15 0)
(3 1.63181e-15 0)
(3 1.7895e-15 0)
(3 2.01759e-15 0)
(3 2.18288e-15 0)
(3 2.28672e-15 0)
(3 2.69607e-15 0)
(3 2.69257e-15 0)
(3 2.59421e-15 0)
(3 2.0709e-15 0)
(3 1.06207e-15 0)
(3 -5.41297e-16 0)
(3 -1.52621e-15 0)
(3 -1.784e-15 0)
(3 -1.60823e-15 0)
(3 -9.29837e-16 0)
(3 -3.18324e-16 0)
(3 -5.43017e-16 0)
(3 -2.76874e-16 0)
(3 -3.83467e-16 0)
(3 -1.03974e-16 0)
(3 -7.67616e-17 0)
(3 7.03678e-17 0)
(3 5.47192e-17 0)
(3 9.63041e-16 0)
(3 4.78452e-16 0)
(3 1.25064e-15 0)
(3 1.38157e-15 0)
(3 1.4207e-15 0)
(3 1.05481e-15 0)
(3 9.76144e-16 0)
(3 9.42287e-16 0)
(3 8.59103e-16 0)
(3 1.43663e-15 0)
(3 1.51645e-15 0)
(3 2.03772e-15 0)
(3 2.20735e-15 0)
(3 2.35821e-15 0)
(3 1.97091e-15 0)
(3 1.48548e-15 0)
(3 9.96158e-16 0)
(3 4.4358e-16 0)
(3 1.04526e-16 0)
(3 -1.75128e-16 0)
(3 -4.43811e-16 0)
(3 -3.23292e-16 0)
(3 3.0641e-17 0)
(3 -2.45768e-16 0)
(3 -5.24078e-16 0)
(3 -9.29148e-16 0)
(3 -9.40379e-16 0)
(3 -7.05708e-16 0)
(3 -5.73383e-16 0)
(3 -3.46826e-16 0)
(3 -4.26372e-16 0)
(3 -6.00084e-16 0)
(1.9849 -1.26997 0)
(2.05154 -1.37987 0)
(2.27503 -1.3115 0)
(2.34669 -1.3937 0)
(2.43132 -1.22602 0)
(2.48762 -1.0742 0)
(2.54239 -0.920486 0)
(2.60869 -0.749774 0)
(2.68917 -0.57551 0)
(2.78189 -0.393545 0)
(2.8788 -0.214217 0)
(2.95739 -0.0747236 0)
(2.99333 -0.0119458 0)
(2.99967 -0.000624251 0)
(2.99999 -1.0581e-05 0)
(3 -9.10935e-08 0)
(3 -6.77593e-10 0)
(3 -3.96837e-12 0)
(3 -1.66843e-14 0)
(3 3.05756e-15 0)
(3 -3.39803e-15 0)
(3 1.61168e-16 0)
(3 3.87312e-15 0)
(3 -3.6414e-15 0)
(3 -3.46056e-16 0)
(3 -1.0886e-16 0)
(3 -4.67983e-17 0)
(3 -6.00487e-16 0)
(3 4.65858e-16 0)
(3 1.07862e-15 0)
(1.99292 -1.26897 0)
(2.06636 -1.38272 0)
(2.29158 -1.31082 0)
(2.35228 -1.39266 0)
(2.43558 -1.20506 0)
(2.48969 -1.06948 0)
(2.54543 -0.908511 0)
(2.61199 -0.7416 0)
(2.69257 -0.568054 0)
(2.78493 -0.38769 0)
(2.88083 -0.210498 0)
(2.95834 -0.0727825 0)
(2.99371 -0.0111531 0)
(2.99973 -0.00050365 0)
(3 -6.25735e-06 0)
(3 -3.58124e-08 0)
(3 -1.52087e-10 0)
(3 -5.4833e-13 0)
(3 -2.0135e-15 0)
(3 3.06497e-15 0)
(3 -4.38982e-15 0)
(3 7.15492e-17 0)
(3 4.22365e-15 0)
(3 -4.14942e-15 0)
(3 -4.65575e-16 0)
(3 1.11333e-16 0)
(3 1.91028e-16 0)
(3 -6.22923e-16 0)
(3 1.49309e-16 0)
(3 5.45079e-16 0)
(1.99334 -1.27154 0)
(2.06905 -1.37634 0)
(2.29191 -1.31299 0)
(2.34935 -1.39827 0)
(2.43249 -1.20934 0)
(2.48613 -1.0763 0)
(2.54143 -0.916679 0)
(2.60725 -0.751353 0)
(2.6869 -0.579387 0)
(2.77838 -0.400307 0)
(2.87426 -0.222613 0)
(2.95395 -0.0805365 0)
(2.99247 -0.0133294 0)
(2.99964 -0.000669896 0)
(3 -9.26104e-06 0)
(3 -5.71165e-08 0)
(3 -2.54266e-10 0)
(3 -9.4222e-13 0)
(3 -3.1742e-15 0)
(3 2.96299e-15 0)
(3 -4.50886e-15 0)
(3 3.18264e-17 0)
(3 4.60115e-15 0)
(3 -4.36561e-15 0)
(3 -4.17251e-16 0)
(3 9.6564e-16 0)
(3 5.31943e-17 0)
(3 -5.04135e-16 0)
(3 -2.34049e-16 0)
(3 -1.48114e-16 0)
(1.99854 -1.26698 0)
(2.07285 -1.37217 0)
(2.29209 -1.31469 0)
(2.3476 -1.40138 0)
(2.43077 -1.21172 0)
(2.48414 -1.08026 0)
(2.5392 -0.921341 0)
(2.60456 -0.756922 0)
(2.68365 -0.58586 0)
(2.77462 -0.407553 0)
(2.87045 -0.229702 0)
(2.95133 -0.0852439 0)
(2.99169 -0.0147229 0)
(2.99958 -0.000780955 0)
(2.99999 -1.11376e-05 0)
(3 -6.73031e-08 0)
(3 -2.84249e-10 0)
(3 -1.00166e-12 0)
(3 -3.02844e-15 0)
(3 2.92165e-15 0)
(3 -3.00905e-15 0)
(3 -3.11049e-16 0)
(3 4.21603e-15 0)
(3 -4.41664e-15 0)
(3 -3.06329e-16 0)
(3 1.46387e-15 0)
(3 -2.03388e-16 0)
(3 -3.19037e-16 0)
(3 -8.14427e-16 0)
(3 -1.41705e-16 0)
(1.99862 -1.27001 0)
(2.07552 -1.36709 0)
(2.2924 -1.31649 0)
(2.34569 -1.40523 0)
(2.42886 -1.21451 0)
(2.4819 -1.08483 0)
(2.53663 -0.926714 0)
(2.60145 -0.763347 0)
(2.67987 -0.593345 0)
(2.77023 -0.415922 0)
(2.866 -0.237898 0)
(2.94821 -0.0908005 0)
(2.99071 -0.0164611 0)
(2.9995 -0.000934658 0)
(2.99999 -1.42693e-05 0)
(3 -9.12236e-08 0)
(3 -4.1099e-10 0)
(3 -1.56663e-12 0)
(3 -3.77197e-15 0)
(3 2.79843e-15 0)
(3 -2.47156e-15 0)
(3 -1.17917e-15 0)
(3 4.06396e-15 0)
(3 -3.37075e-15 0)
(3 -4.74435e-17 0)
(3 1.04786e-15 0)
(3 -8.12364e-17 0)
(3 -3.83067e-17 0)
(3 -9.68341e-16 0)
(3 -1.37483e-16 0)
(2.00328 -1.26598 0)
(2.08001 -1.3626 0)
(2.29275 -1.31853 0)
(2.34378 -1.4089 0)
(2.42702 -1.21707 0)
(2.47958 -1.08918 0)
(2.53386 -0.931811 0)
(2.598 -0.769478 0)
(2.67569 -0.600551 0)
(2.76547 -0.424105 0)
(2.86126 -0.246072 0)
(2.94492 -0.0964804 0)
(2.98965 -0.0183086 0)
(2.9994 -0.0011066 0)
(2.99999 -1.78263e-05 0)
(3 -1.15681e-07 0)
(3 -5.11286e-10 0)
(3 -1.87293e-12 0)
(3 -4.37135e-15 0)
(3 1.81105e-15 0)
(3 -2.00779e-15 0)
(3 -1.54001e-15 0)
(3 3.21166e-15 0)
(3 -2.01138e-15 0)
(3 -8.4807e-17 0)
(3 6.53393e-16 0)
(3 1.00259e-16 0)
(3 -7.99022e-17 0)
(3 -1.10728e-15 0)
(3 1.10677e-16 0)
(2.00378 -1.26792 0)
(2.08364 -1.3584 0)
(2.29318 -1.32085 0)
(2.34189 -1.41225 0)
(2.42488 -1.2199 0)
(2.47684 -1.0938 0)
(2.53054 -0.937265 0)
(2.59393 -0.776035 0)
(2.67085 -0.608213 0)
(2.76003 -0.432743 0)
(2.8559 -0.254719 0)
(2.94116 -0.10262 0)
(2.98841 -0.0203943 0)
(2.99929 -0.00131363 0)
(2.99999 -2.24253e-05 0)
(3 -1.50343e-07 0)
(3 -6.83728e-10 0)
(3 -2.57555e-12 0)
(3 -6.74126e-15 0)
(3 1.10802e-15 0)
(3 -2.64184e-15 0)
(3 -1.43176e-15 0)
(3 3.3148e-15 0)
(3 6.58128e-16 0)
(3 -7.27499e-16 0)
(3 2.01491e-16 0)
(3 3.54458e-16 0)
(3 -8.15806e-17 0)
(3 -8.61893e-16 0)
(3 4.74617e-16 0)
(2.0075 -1.26494 0)
(2.08818 -1.3548 0)
(2.2935 -1.32332 0)
(2.33962 -1.41613 0)
(2.42243 -1.22233 0)
(2.47364 -1.09839 0)
(2.52679 -0.942633 0)
(2.5895 -0.782547 0)
(2.66569 -0.615919 0)
(2.75424 -0.441574 0)
(2.85007 -0.263754 0)
(2.93693 -0.109258 0)
(2.98693 -0.0227734 0)
(2.99914 -0.00156681 0)
(2.99999 -2.83754e-05 0)
(3 -1.94996e-07 0)
(3 -8.86895e-10 0)
(3 -3.3331e-12 0)
(3 -1.13266e-14 0)
(3 5.61466e-16 0)
(3 -1.60763e-15 0)
(3 -7.7218e-16 0)
(3 2.68284e-15 0)
(3 5.09356e-17 0)
(3 -1.20313e-15 0)
(3 -6.59604e-16 0)
(3 7.24743e-16 0)
(3 -7.74701e-17 0)
(3 -5.48405e-16 0)
(3 8.74916e-16 0)
(2.00839 -1.26541 0)
(2.09146 -1.34969 0)
(2.29352 -1.32563 0)
(2.33709 -1.41955 0)
(2.41961 -1.22517 0)
(2.47038 -1.10313 0)
(2.52328 -0.948223 0)
(2.58559 -0.789247 0)
(2.6612 -0.623745 0)
(2.74902 -0.450498 0)
(2.84445 -0.273024 0)
(2.93248 -0.116352 0)
(2.98523 -0.0254908 0)
(2.99895 -0.00188204 0)
(2.99998 -3.63585e-05 0)
(3 -2.5688e-07 0)
(3 -1.17892e-09 0)
(3 -4.4722e-12 0)
(3 -1.53695e-14 0)
(3 6.44056e-16 0)
(3 -1.65198e-15 0)
(3 2.07756e-16 0)
(3 2.43429e-15 0)
(3 -2.0894e-16 0)
(3 -1.04968e-15 0)
(3 -5.14537e-16 0)
(3 9.95063e-16 0)
(3 -1.53801e-16 0)
(3 -3.23371e-16 0)
(3 1.04992e-15 0)
(2.01129 -1.26263 0)
(2.09654 -1.34554 0)
(2.29354 -1.32772 0)
(2.33444 -1.42283 0)
(2.41716 -1.2278 0)
(2.46792 -1.10784 0)
(2.521 -0.953755 0)
(2.58323 -0.795874 0)
(2.65849 -0.631437 0)
(2.74557 -0.4592 0)
(2.84011 -0.28215 0)
(2.92848 -0.123634 0)
(2.98346 -0.0284963 0)
(2.99873 -0.00226861 0)
(2.99998 -4.71961e-05 0)
(3 -3.45181e-07 0)
(3 -1.59222e-09 0)
(3 -5.98605e-12 0)
(3 -2.16346e-14 0)
(3 1.26872e-15 0)
(3 -1.22174e-15 0)
(3 5.28569e-16 0)
(3 2.10615e-15 0)
(3 -1.29393e-15 0)
(3 -6.06079e-16 0)
(3 -5.02762e-16 0)
(3 1.16555e-15 0)
(3 -4.40146e-16 0)
(3 7.61454e-17 0)
(3 1.02091e-15 0)
(2.0129 -1.26195 0)
(2.10041 -1.34041 0)
(2.29368 -1.32988 0)
(2.33249 -1.42622 0)
(2.41577 -1.23087 0)
(2.46681 -1.113 0)
(2.52043 -0.9597 0)
(2.58294 -0.802866 0)
(2.65817 -0.639328 0)
(2.74475 -0.467771 0)
(2.83813 -0.290836 0)
(2.92572 -0.130661 0)
(2.98191 -0.0315946 0)
(2.99849 -0.0027123 0)
(2.99997 -6.11913e-05 0)
(3 -4.68178e-07 0)
(3 -2.1889e-09 0)
(3 -8.31889e-12 0)
(3 -2.78014e-14 0)
(3 1.35915e-15 0)
(3 -1.7224e-15 0)
(3 1.25621e-15 0)
(3 1.63749e-15 0)
(3 -1.8338e-15 0)
(3 1.44802e-15 0)
(3 -2.53121e-16 0)
(3 1.18016e-15 0)
(3 -1.01333e-15 0)
(3 6.19281e-17 0)
(3 1.10732e-15 0)
(2.01596 -1.25952 0)
(2.10483 -1.3361 0)
(2.29426 -1.33237 0)
(2.33155 -1.42984 0)
(2.41575 -1.23443 0)
(2.46713 -1.11882 0)
(2.52165 -0.966383 0)
(2.58491 -0.810564 0)
(2.6607 -0.647705 0)
(2.74716 -0.476424 0)
(2.83925 -0.298997 0)
(2.92495 -0.137023 0)
(2.9809 -0.0344975 0)
(2.99828 -0.00317149 0)
(2.99996 -7.76311e-05 0)
(3 -6.27681e-07 0)
(3 -3.00798e-09 0)
(3 -1.15119e-11 0)
(3 -4.02896e-14 0)
(3 1.22424e-15 0)
(3 -1.65029e-15 0)
(3 8.00694e-16 0)
(3 2.08418e-15 0)
(3 -1.92591e-15 0)
(3 1.93353e-15 0)
(3 -1.7135e-16 0)
(3 9.29996e-16 0)
(3 -1.52386e-15 0)
(3 -1.53769e-16 0)
(3 1.05944e-15 0)
(2.01811 -1.25854 0)
(2.10787 -1.33134 0)
(2.29537 -1.33483 0)
(2.33165 -1.4336 0)
(2.4167 -1.2379 0)
(2.46857 -1.12369 0)
(2.52371 -0.971006 0)
(2.58745 -0.815163 0)
(2.66387 -0.652491 0)
(2.75106 -0.481717 0)
(2.84279 -0.304942 0)
(2.92635 -0.142041 0)
(2.98064 -0.0368954 0)
(2.99814 -0.00358693 0)
(2.99995 -9.45197e-05 0)
(3 -8.09929e-07 0)
(3 -4.00964e-09 0)
(3 -1.57172e-11 0)
(3 -5.48867e-14 0)
(3 1.72565e-15 0)
(3 -8.94997e-16 0)
(3 -1.40266e-15 0)
(3 2.60108e-15 0)
(3 -1.1746e-15 0)
(3 2.70529e-15 0)
(3 -1.94787e-16 0)
(3 2.57708e-16 0)
(3 -1.79794e-15 0)
(3 -4.57481e-16 0)
(3 9.28124e-16 0)
(2.02035 -1.25658 0)
(2.11119 -1.32805 0)
(2.2967 -1.3372 0)
(2.33168 -1.43664 0)
(2.41759 -1.23929 0)
(2.47017 -1.12604 0)
(2.52714 -0.974018 0)
(2.59317 -0.81885 0)
(2.67028 -0.65597 0)
(2.75574 -0.484309 0)
(2.84541 -0.306737 0)
(2.92799 -0.144057 0)
(2.98105 -0.0384424 0)
(2.99809 -0.00390715 0)
(2.99995 -0.000109466 0)
(3 -9.91176e-07 0)
(3 -5.08039e-09 0)
(3 -2.03751e-11 0)
(3 -6.99129e-14 0)
(3 1.67441e-15 0)
(3 -8.06402e-16 0)
(3 -1.69481e-15 0)
(3 2.82686e-15 0)
(3 2.87667e-16 0)
(3 4.77003e-15 0)
(3 -6.48451e-16 0)
(3 -5.96715e-17 0)
(3 -2.97257e-15 0)
(3 -5.39407e-16 0)
(3 7.36479e-16 0)
(2.0218 -1.25589 0)
(2.11328 -1.32434 0)
(2.29902 -1.33972 0)
(2.33465 -1.44182 0)
(2.43062 -1.24445 0)
(2.49512 -1.13349 0)
(2.56472 -0.98246 0)
(2.63951 -0.826794 0)
(2.71532 -0.660324 0)
(2.79014 -0.485699 0)
(2.8637 -0.307218 0)
(2.9329 -0.144714 0)
(2.98157 -0.038871 0)
(2.99812 -0.00408761 0)
(2.99995 -0.000120723 0)
(3 -1.14548e-06 0)
(3 -6.11827e-09 0)
(3 -2.50992e-11 0)
(3 -8.82501e-14 0)
(3 1.34085e-15 0)
(3 -1.89431e-15 0)
(3 -1.96438e-15 0)
(3 2.99776e-15 0)
(3 2.81322e-16 0)
(3 5.70144e-15 0)
(3 -4.90632e-16 0)
(3 -6.9808e-16 0)
(3 -2.7536e-15 0)
(3 -4.8717e-16 0)
(3 5.78266e-16 0)
(2.02686 -1.25594 0)
(2.11321 -1.32155 0)
(2.31542 -1.34514 0)
(2.37191 -1.46375 0)
(2.50366 -1.26909 0)
(2.59061 -1.15278 0)
(2.66811 -0.993028 0)
(2.74101 -0.830832 0)
(2.80434 -0.656847 0)
(2.85908 -0.476676 0)
(2.90803 -0.297841 0)
(2.95218 -0.139808 0)
(2.98518 -0.0381968 0)
(2.99827 -0.00411103 0)
(2.99995 -0.000125866 0)
(3 -1.24771e-06 0)
(3 -7.05765e-09 0)
(3 -4.03248e-11 0)
(3 -5.39198e-13 0)
(3 -2.34586e-15 0)
(3 -3.6532e-15 0)
(3 -2.79072e-15 0)
(3 3.68656e-15 0)
(3 -4.56165e-16 0)
(3 5.49493e-15 0)
(3 -5.27268e-16 0)
(3 -6.05204e-16 0)
(3 -2.20456e-15 0)
(3 -6.50623e-16 0)
(3 4.02336e-16 0)
(2.04531 -1.26301 0)
(2.11989 -1.33232 0)
(2.37691 -1.38192 0)
(2.46535 -1.52228 0)
(2.6171 -1.32122 0)
(2.71225 -1.19385 0)
(2.78285 -1.00873 0)
(2.83959 -0.827499 0)
(2.88972 -0.64426 0)
(2.92725 -0.457653 0)
(2.95549 -0.277831 0)
(2.97717 -0.126108 0)
(2.99249 -0.03358 0)
(2.99898 -0.00366054 0)
(2.99996 -0.000118099 0)
(3 -1.2211e-06 0)
(3 -6.91084e-09 0)
(3 -2.55036e-10 0)
(3 -4.15923e-11 0)
(3 -6.29656e-13 0)
(3 -3.78483e-15 0)
(3 -2.88575e-15 0)
(3 3.47862e-15 0)
(3 -7.57151e-16 0)
(3 5.18707e-15 0)
(3 -8.35107e-16 0)
(3 -1.10404e-16 0)
(3 -1.35027e-15 0)
(3 -1.15048e-15 0)
(3 1.52118e-16 0)
(2.09331 -1.28158 0)
(2.17888 -1.37886 0)
(2.45885 -1.45458 0)
(2.55513 -1.59434 0)
(2.70098 -1.36631 0)
(2.80032 -1.23812 0)
(2.87616 -1.03543 0)
(2.91845 -0.826641 0)
(2.95808 -0.627259 0)
(2.98378 -0.431468 0)
(2.99542 -0.249252 0)
(2.99803 -0.105359 0)
(2.99887 -0.0256401 0)
(2.99978 -0.00256773 0)
(2.99999 -7.91187e-05 0)
(3 -6.74351e-07 0)
(3 6.48844e-09 0)
(3 -1.26535e-09 0)
(3 -5.51336e-10 0)
(3 -1.42974e-11 0)
(3 -3.13724e-14 0)
(3 -2.17999e-15 0)
(3 2.84082e-15 0)
(3 -7.95207e-16 0)
(3 3.75402e-15 0)
(3 -1.45847e-15 0)
(3 4.45699e-16 0)
(3 -1.10009e-15 0)
(3 -1.40238e-15 0)
(3 6.56731e-17 0)
(2.16237 -1.31276 0)
(2.2414 -1.42329 0)
(2.52011 -1.49953 0)
(2.60052 -1.64028 0)
(2.74131 -1.38476 0)
(2.84846 -1.26331 0)
(2.93461 -1.05242 0)
(2.9898 -0.831303 0)
(3.01909 -0.607834 0)
(3.03401 -0.396102 0)
(3.02885 -0.210461 0)
(3.01326 -0.0786035 0)
(3.00296 -0.0161294 0)
(3.00034 -0.00128563 0)
(3.00003 -2.2785e-05 0)
(3 8.47908e-07 0)
(3 6.10326e-08 0)
(3 -4.6155e-09 0)
(3 -1.79895e-09 0)
(3 -5.78378e-11 0)
(3 -1.87865e-13 0)
(3 -1.55276e-15 0)
(3 2.43721e-15 0)
(3 -2.52142e-16 0)
(3 2.4009e-15 0)
(3 -1.66193e-15 0)
(3 1.06707e-15 0)
(3 -1.23702e-15 0)
(3 -1.9099e-15 0)
(3 -5.79049e-17 0)
(2.19566 -1.33491 0)
(2.29038 -1.44319 0)
(2.55552 -1.51561 0)
(2.63166 -1.67142 0)
(2.79355 -1.40774 0)
(2.90794 -1.2885 0)
(3.00032 -1.06473 0)