/*--------------------------------*- C++ -*----------------------------------*\
  =========                 |
  \\      /  F ield         | OpenFOAM: The Open Source CFD Toolbox
   \\    /   O peration     | Website:  https://openfoam.org
    \\  /    A nd           | Version:  7
     \\/     M anipulation  |
\*---------------------------------------------------------------------------*/
FoamFile
{
    version     2.0;
    format      ascii;
    class       volVectorField;
    location    "1";
    object      U;
}
// * * * * * * * * * * * * * * * * * * * * * * * * * * * * * * * * * * * * * //

dimensions      [0 1 -1 0 0 0 0];

internalField   nonuniform List<vector> 
90000
(
(5.12643 -0.145315 0)
(5.1235 -0.134834 0)
(5.12622 -0.130956 0)
(5.12268 -0.120637 0)
(5.11971 -0.112966 0)
(5.11935 -0.110825 0)
(5.11743 -0.10606 0)
(5.11477 -0.100271 0)
(5.11273 -0.0976456 0)
(5.11041 -0.0943409 0)
(5.10832 -0.0920111 0)
(5.10583 -0.0876367 0)
(5.1039 -0.086826 0)
(5.10144 -0.082496 0)
(5.09963 -0.0817617 0)
(5.09754 -0.0792622 0)
(5.09562 -0.0768381 0)
(5.09381 -0.0745361 0)
(5.09229 -0.0735194 0)
(5.09047 -0.0699076 0)
(5.08915 -0.0691434 0)
(5.08757 -0.0659218 0)
(5.08621 -0.062159 0)
(5.08522 -0.0587273 0)
(5.08458 -0.055921 0)
(5.08383 -0.051269 0)
(5.08355 -0.0475831 0)
(5.08343 -0.0432549 0)
(5.08352 -0.039116 0)
(5.08372 -0.0346208 0)
(5.08344 -0.0290781 0)
(5.08278 -0.0242879 0)
(5.08155 -0.0173214 0)
(5.08011 -0.0111276 0)
(5.07913 -0.00747461 0)
(5.07678 0.00359065 0)
(5.07691 0.00307837 0)
(5.07461 0.0128457 0)
(5.07407 0.0166058 0)
(5.07536 0.0167191 0)
(5.07302 0.0262974 0)
(5.07246 0.0274597 0)
(5.07031 0.0300831 0)
(5.07092 0.0316807 0)
(5.06558 0.0305239 0)
(5.06538 0.0276636 0)
(5.06522 0.0196448 0)
(5.0642 0.00648709 0)
(5.06193 -0.00319007 0)
(5.05882 -0.0148679 0)
(5.05816 -0.0205723 0)
(5.05453 -0.0258077 0)
(5.05019 -0.0258985 0)
(5.04622 -0.0224324 0)
(5.04286 -0.0201528 0)
(5.03804 -0.0147561 0)
(5.03314 -0.00946338 0)
(5.03224 -0.00505614 0)
(5.03159 -0.00119272 0)
(5.03295 0.0053354 0)
(5.03331 0.0100597 0)
(5.03436 0.00977413 0)
(5.03465 0.00926444 0)
(5.03618 0.000883683 0)
(5.03441 -0.000734466 0)
(5.03594 -0.00985345 0)
(5.03566 -0.0113538 0)
(5.03444 -0.0108146 0)
(5.03259 -0.0086208 0)
(5.02917 -0.00116065 0)
(5.02952 0.000821499 0)
(5.02981 0.0111001 0)
(5.03052 0.0117769 0)
(5.03064 0.00957357 0)
(5.02749 0.0010878 0)
(5.02406 -0.000835556 0)
(5.01462 -0.00159764 0)
(4.99846 -0.00415011 0)
(4.98245 -0.0120524 0)
(4.96256 -0.0048584 0)
(4.93807 -0.00260681 0)
(4.92349 -0.00113699 0)
(4.9122 0.00488996 0)
(4.90183 0.010874 0)
(4.89273 0.0162912 0)
(4.88631 0.0215562 0)
(4.88653 0.0210527 0)
(4.89173 0.015244 0)
(4.90282 0.0115265 0)
(4.91739 0.013756 0)
(4.9301 0.0148501 0)
(4.9387 0.0157315 0)
(4.94747 0.0128239 0)
(4.96056 0.00667512 0)
(4.96974 -0.00438416 0)
(4.97086 -0.0125558 0)
(4.96893 -0.0168657 0)
(4.96095 -0.0223989 0)
(4.94477 -0.0242747 0)
(4.92353 -0.0186833 0)
(5.12712 -0.150103 0)
(5.12724 -0.150168 0)
(5.1274 -0.150002 0)
(5.12745 -0.149845 0)
(5.12745 -0.149667 0)
(5.12728 -0.148862 0)
(5.12705 -0.147574 0)
(5.12691 -0.146009 0)
(5.12663 -0.144298 0)
(5.12626 -0.142814 0)
(5.12602 -0.141237 0)
(5.12571 -0.138707 0)
(5.12537 -0.137109 0)
(5.12486 -0.134826 0)
(5.12443 -0.132417 0)
(5.12409 -0.130473 0)
(5.12351 -0.127536 0)
(5.12284 -0.124529 0)
(5.12233 -0.122951 0)
(5.12132 -0.119312 0)
(5.12049 -0.117684 0)
(5.11931 -0.114601 0)
(5.11827 -0.112557 0)
(5.11699 -0.108944 0)
(5.11604 -0.108361 0)
(5.11444 -0.104305 0)
(5.11314 -0.102804 0)
(5.11137 -0.0989724 0)
(5.10972 -0.0961525 0)
(5.10762 -0.0924929 0)
(5.10578 -0.0883419 0)
(5.10395 -0.0826563 0)
(5.10259 -0.0783524 0)
(5.10012 -0.0676349 0)
(5.09941 -0.0654009 0)
(5.0962 -0.050993 0)
(5.09567 -0.0484116 0)
(5.09319 -0.0372335 0)
(5.09123 -0.0294373 0)
(5.09072 -0.0264601 0)
(5.08715 -0.0131277 0)
(5.08817 -0.0104328 0)
(5.08466 -0.000402419 0)
(5.08706 0.00497022 0)
(5.08289 0.0137673 0)
(5.08144 0.0189325 0)
(5.08133 0.0228966 0)
(5.08127 0.0270635 0)
(5.08175 0.0270383 0)
(5.08276 0.0253102 0)
(5.08469 0.0183498 0)
(5.08457 0.0157558 0)
(5.08625 0.00411606 0)
(5.0844 0.000680845 0)
(5.08388 -0.00364711 0)
(5.08305 -0.00375839 0)
(5.08069 -0.00279463 0)
(5.07775 -9.49336e-05 0)
(5.07522 0.00112576 0)
(5.0733 0.00521899 0)
(5.07186 0.00816596 0)
(5.07076 0.012363 0)
(5.06909 0.0138172 0)
(5.0688 0.0123365 0)
(5.06812 0.00788671 0)
(5.06797 -0.000181931 0)
(5.06705 -0.00288951 0)
(5.06717 -0.0113215 0)
(5.06585 -0.00906318 0)
(5.06519 -0.00688746 0)
(5.06311 -1.35179e-05 0)
(5.0619 0.00497138 0)
(5.06038 0.010758 0)
(5.05941 0.0123033 0)
(5.05508 0.00936701 0)
(5.05152 0.00121357 0)
(5.04386 -0.00159119 0)
(5.02835 -0.00825042 0)
(5.00932 -0.0134124 0)
(4.99696 -0.0015367 0)
(4.96351 0.00254979 0)
(4.95138 0.00454707 0)
(4.93732 0.00840104 0)
(4.92246 0.0170225 0)
(4.91631 0.0211195 0)
(4.9096 0.0236735 0)
(4.90899 0.0196457 0)
(4.91669 0.0141377 0)
(4.93238 0.0125198 0)
(4.95138 0.0146476 0)
(4.96853 0.0178474 0)
(4.9804 0.0170379 0)
(4.98899 0.0136914 0)
(5.00151 0.00592392 0)
(5.00832 -0.00427185 0)
(5.00837 -0.0117952 0)
(5.00391 -0.0156401 0)
(4.9933 -0.0185609 0)
(4.97638 -0.0198176 0)
(4.95493 -0.0165451 0)
(5.12662 -0.150034 0)
(5.12684 -0.150251 0)
(5.12706 -0.150235 0)
(5.12731 -0.15026 0)
(5.12758 -0.150312 0)
(5.12788 -0.150398 0)
(5.12814 -0.150571 0)
(5.12837 -0.15049 0)
(5.12859 -0.150164 0)
(5.12881 -0.149984 0)
(5.12903 -0.149899 0)
(5.12921 -0.149558 0)
(5.12937 -0.149325 0)
(5.12953 -0.149175 0)
(5.12969 -0.14866 0)
(5.1299 -0.148162 0)
(5.1301 -0.147228 0)
(5.13021 -0.145879 0)
(5.13031 -0.14459 0)
(5.13031 -0.143209 0)
(5.13022 -0.141445 0)
(5.13008 -0.139567 0)
(5.12986 -0.137278 0)
(5.12961 -0.134934 0)
(5.12937 -0.13283 0)
(5.12898 -0.130455 0)
(5.12848 -0.127436 0)
(5.12789 -0.124137 0)
(5.12733 -0.12127 0)
(5.12635 -0.116834 0)
(5.12565 -0.114655 0)
(5.124 -0.108213 0)
(5.12308 -0.105155 0)
(5.12114 -0.0974339 0)
(5.12013 -0.0934449 0)
(5.11806 -0.0847366 0)
(5.11706 -0.0800784 0)
(5.11476 -0.0696086 0)
(5.11353 -0.0651079 0)
(5.11061 -0.0529551 0)
(5.10785 -0.0441314 0)
(5.10658 -0.0378125 0)
(5.10268 -0.0194754 0)
(5.10186 -0.0170916 0)
(5.10038 -0.00987742 0)
(5.09702 0.0060528 0)
(5.09832 0.000393194 0)
(5.09326 0.00962288 0)
(5.09325 0.0121301 0)
(5.09284 0.015865 0)
(5.0928 0.0157379 0)
(5.09278 0.018162 0)
(5.09325 0.013327 0)
(5.0946 0.01202 0)
(5.09737 0.00906892 0)
(5.10076 0.00561544 0)
(5.10339 0.000745738 0)
(5.10313 -0.00259996 0)
(5.10325 -0.00657584 0)
(5.10264 -0.00646103 0)
(5.10048 -0.00544116 0)
(5.09787 -0.00327274 0)
(5.09566 -0.000882418 0)
(5.09334 0.00195733 0)
(5.09228 0.00503933 0)
(5.09086 0.00753306 0)
(5.09082 0.00623536 0)
(5.09088 0.00289815 0)
(5.09094 0.000350298 0)
(5.09294 -0.00342884 0)
(5.09255 -0.0031504 0)
(5.09147 -0.00149414 0)
(5.08908 0.00159358 0)
(5.08675 0.00656278 0)
(5.08211 0.0108737 0)
(5.08222 0.0144527 0)
(5.07077 0.00982616 0)
(5.05652 -0.000477249 0)
(5.03863 -0.0111649 0)
(5.02081 -0.0164364 0)
(4.99748 0.0067829 0)
(4.9801 0.0145879 0)
(4.9694 0.016903 0)
(4.95485 0.017556 0)
(4.95114 0.0184257 0)
(4.94652 0.0192742 0)
(4.94506 0.0169431 0)
(4.95098 0.0126931 0)
(4.96489 0.00776304 0)
(4.98295 0.00888285 0)
(4.99967 0.0122289 0)
(5.01081 0.0118401 0)
(5.01741 0.0098364 0)
(5.02805 0.00319316 0)
(5.03245 -0.00598634 0)
(5.03039 -0.0130605 0)
(5.02316 -0.0173896 0)
(5.01048 -0.0209242 0)
(4.99325 -0.0227268 0)
(4.97205 -0.0171588 0)
(5.12645 -0.148691 0)
(5.12666 -0.148543 0)
(5.1269 -0.148473 0)
(5.12704 -0.148982 0)
(5.1273 -0.149342 0)
(5.12758 -0.149096 0)
(5.12787 -0.14917 0)
(5.12817 -0.149316 0)
(5.12848 -0.149329 0)
(5.12881 -0.149431 0)
(5.12914 -0.149358 0)
(5.12951 -0.14906 0)
(5.12982 -0.149248 0)
(5.13012 -0.1495 0)
(5.1304 -0.149699 0)
(5.13065 -0.149967 0)
(5.13085 -0.149964 0)
(5.13098 -0.149723 0)
(5.13104 -0.149832 0)
(5.13113 -0.149944 0)
(5.13124 -0.14993 0)
(5.13129 -0.149678 0)
(5.13132 -0.149336 0)
(5.1313 -0.149248 0)
(5.13119 -0.148949 0)
(5.13107 -0.148545 0)
(5.13096 -0.14785 0)
(5.13091 -0.147215 0)
(5.13082 -0.146278 0)
(5.13069 -0.14541 0)
(5.13045 -0.144043 0)
(5.13015 -0.142494 0)
(5.12967 -0.13966 0)
(5.12935 -0.137621 0)
(5.12887 -0.134056 0)
(5.12858 -0.131764 0)
(5.12796 -0.127165 0)
(5.12749 -0.12401 0)
(5.12651 -0.118384 0)
(5.12547 -0.113767 0)
(5.12371 -0.105734 0)
(5.12187 -0.0973859 0)
(5.12028 -0.0897662 0)
(5.11785 -0.0764803 0)
(5.11679 -0.071057 0)
(5.11354 -0.0515148 0)
(5.11405 -0.0520994 0)
(5.10945 -0.0292966 0)
(5.10755 -0.02829 0)
(5.10517 -0.0194174 0)
(5.10462 -0.0155364 0)
(5.10363 -0.009348 0)
(5.10246 -0.00321252 0)
(5.10213 0.00106676 0)
(5.10212 0.00485179 0)
(5.10159 0.00717976 0)
(5.10172 0.00861171 0)
(5.10266 0.0094083 0)
(5.10407 0.00781426 0)
(5.10453 0.00607478 0)
(5.10444 0.00382397 0)
(5.10433 -0.000567342 0)
(5.10396 -0.00168804 0)
(5.10279 -0.00234995 0)
(5.10195 -0.00311376 0)
(5.10147 -0.00235575 0)
(5.10155 0.000819176 0)
(5.10133 0.00297719 0)
(5.10108 0.00559457 0)
(5.10219 0.00350015 0)
(5.10337 0.0020309 0)
(5.10528 -0.00349056 0)
(5.10489 -0.00382591 0)
(5.10311 -0.00310125 0)
(5.09957 0.000167528 0)
(5.09547 0.00611319 0)
(5.08645 0.016169 0)
(5.07352 0.00903406 0)
(5.05778 -0.0113893 0)
(5.03613 -0.00906514 0)
(5.0144 -0.00223985 0)
(5.00462 0.00968387 0)
(4.99008 0.0254976 0)
(4.98646 0.0278694 0)
(4.98304 0.0212814 0)
(4.98131 0.0194874 0)
(4.98088 0.0153378 0)
(4.98529 0.0108074 0)
(4.99395 0.0108568 0)
(5.00549 0.012428 0)
(5.01858 0.0122087 0)
(5.02735 0.00965102 0)
(5.03171 0.00799666 0)
(5.04 0.00238527 0)
(5.04207 -0.00441362 0)
(5.03826 -0.0107493 0)
(5.02933 -0.0149595 0)
(5.01599 -0.0170226 0)
(4.99957 -0.0196358 0)
(4.97915 -0.0180033 0)
(5.1266 -0.150464 0)
(5.1268 -0.150343 0)
(5.12712 -0.150112 0)
(5.1272 -0.150758 0)
(5.12746 -0.151329 0)
(5.12773 -0.151147 0)
(5.12802 -0.151079 0)
(5.12831 -0.151292 0)
(5.12863 -0.151439 0)
(5.12898 -0.151461 0)
(5.12934 -0.151422 0)
(5.12975 -0.151517 0)
(5.13018 -0.151478 0)
(5.13061 -0.151266 0)
(5.13096 -0.151387 0)
(5.13123 -0.151812 0)
(5.13144 -0.151978 0)
(5.13158 -0.151703 0)
(5.13164 -0.151787 0)
(5.13172 -0.152021 0)
(5.13188 -0.15209 0)
(5.13206 -0.151944 0)
(5.1322 -0.151617 0)
(5.13229 -0.151376 0)
(5.13217 -0.15176 0)
(5.13208 -0.151937 0)
(5.13204 -0.151961 0)
(5.13217 -0.152193 0)
(5.13227 -0.15234 0)
(5.13242 -0.152374 0)
(5.13255 -0.15233 0)
(5.13259 -0.152004 0)
(5.13261 -0.151575 0)
(5.13266 -0.151124 0)
(5.13274 -0.150708 0)
(5.13281 -0.150166 0)
(5.13282 -0.149415 0)
(5.13273 -0.148409 0)
(5.13246 -0.147229 0)
(5.13188 -0.145281 0)
(5.13111 -0.142768 0)
(5.12999 -0.137979 0)
(5.12927 -0.134394 0)
(5.12784 -0.126244 0)
(5.1271 -0.121326 0)
(5.12491 -0.108893 0)
(5.12406 -0.101796 0)
(5.12086 -0.0837092 0)
(5.12018 -0.0768512 0)
(5.11605 -0.0529416 0)
(5.11465 -0.0429255 0)
(5.11296 -0.0306333 0)
(5.11075 -0.0150652 0)
(5.10832 -0.00555091 0)
(5.10877 -0.00584457 0)
(5.10557 0.00796271 0)
(5.1036 0.00634751 0)
(5.10362 0.00947424 0)
(5.10348 0.00882601 0)
(5.10284 0.00684403 0)
(5.10259 0.00367692 0)
(5.10293 0.00223317 0)
(5.10337 0.00117171 0)
(5.10398 0.000572251 0)
(5.10419 -0.000941625 0)
(5.10507 0.00112688 0)
(5.1047 0.000545481 0)
(5.10595 0.00367098 0)
(5.10606 0.00420312 0)
(5.10591 0.00543843 0)
(5.10761 0.00370235 0)
(5.10862 0.00246969 0)
(5.11008 0.000973445 0)
(5.10911 -0.00150354 0)
(5.10775 -0.0013441 0)
(5.10218 0.00234829 0)
(5.09235 0.00793857 0)
(5.07886 0.00770504 0)
(5.06694 0.000277611 0)
(5.0424 -0.0053224 0)
(5.02528 -0.000368264 0)
(5.01335 0.00756681 0)
(5.00764 0.0180509 0)
(5.00402 0.027896 0)
(5.00416 0.0272177 0)
(5.00463 0.0223699 0)
(5.00591 0.01525 0)
(5.0098 0.00769244 0)
(5.01396 0.0050287 0)
(5.01784 0.0126973 0)
(5.02586 0.0159349 0)
(5.0321 0.0138814 0)
(5.03522 0.0118354 0)
(5.04172 0.00518336 0)
(5.04288 -0.00310861 0)
(5.03832 -0.00882739 0)
(5.0294 -0.0130404 0)
(5.01622 -0.0146872 0)
(5.00029 -0.0162444 0)
(4.98064 -0.0155067 0)
(5.12726 -0.152084 0)
(5.12747 -0.152201 0)
(5.12777 -0.152115 0)
(5.12794 -0.152558 0)
(5.12817 -0.153097 0)
(5.12844 -0.153112 0)
(5.12872 -0.153048 0)
(5.12894 -0.153359 0)
(5.12923 -0.153659 0)
(5.1296 -0.153748 0)
(5.12999 -0.153949 0)
(5.13043 -0.154236 0)
(5.13084 -0.154058 0)
(5.13129 -0.153624 0)
(5.13166 -0.153704 0)
(5.13195 -0.154166 0)
(5.13224 -0.154197 0)
(5.13256 -0.154019 0)
(5.13281 -0.154226 0)
(5.13311 -0.15459 0)
(5.13351 -0.154766 0)
(5.13386 -0.154694 0)
(5.13402 -0.154422 0)
(5.13405 -0.154219 0)
(5.13409 -0.154208 0)
(5.13412 -0.154229 0)
(5.13417 -0.154314 0)
(5.13424 -0.154607 0)
(5.13446 -0.154977 0)
(5.13489 -0.155033 0)
(5.13506 -0.155001 0)
(5.13517 -0.154973 0)
(5.13533 -0.154996 0)
(5.13546 -0.154906 0)
(5.13554 -0.154846 0)
(5.13558 -0.154843 0)
(5.13571 -0.154903 0)
(5.13593 -0.154876 0)
(5.13604 -0.154829 0)
(5.13606 -0.154758 0)
(5.13584 -0.154371 0)
(5.13547 -0.153635 0)
(5.13517 -0.152694 0)
(5.13503 -0.151825 0)
(5.13487 -0.150015 0)
(5.13468 -0.147941 0)
(5.13419 -0.143776 0)
(5.13351 -0.139254 0)
(5.13218 -0.131203 0)
(5.13041 -0.122399 0)
(5.12807 -0.109685 0)
(5.12589 -0.0981378 0)
(5.12228 -0.0778429 0)
(5.12058 -0.0679148 0)
(5.11819 -0.0535543 0)
(5.11496 -0.0280163 0)
(5.11592 -0.0364168 0)
(5.11183 -0.0163324 0)
(5.11265 -0.0183307 0)
(5.11016 -0.0100152 0)
(5.1089 -0.0058657 0)
(5.10849 -0.00361859 0)
(5.10796 -0.00138471 0)
(5.10753 0.000898803 0)
(5.10644 0.00259588 0)
(5.10652 0.00355325 0)
(5.10722 0.0018691 0)
(5.10779 0.00102877 0)
(5.10839 0.000603267 0)
(5.1095 2.84731e-05 0)
(5.10992 0.000199695 0)
(5.11072 0.00148822 0)
(5.1111 0.00295289 0)
(5.1114 0.00264673 0)
(5.11083 0.00206105 0)
(5.1065 0.0026762 0)
(5.09685 0.00414135 0)
(5.08226 0.00155218 0)
(5.07045 -0.000421711 0)
(5.047 0.0028387 0)
(5.03232 0.0033496 0)
(5.02264 0.0101196 0)
(5.01798 0.015928 0)
(5.01445 0.022859 0)
(5.01492 0.0259384 0)
(5.01698 0.0253378 0)
(5.01855 0.0149949 0)
(5.02235 0.00632772 0)
(5.0246 0.00378862 0)
(5.02397 0.00855809 0)
(5.02797 0.0136571 0)
(5.03207 0.0122168 0)
(5.0346 0.00992487 0)
(5.03985 0.00352621 0)
(5.04123 -0.00349576 0)
(5.03722 -0.0078869 0)
(5.02878 -0.011863 0)
(5.0158 -0.0146696 0)
(4.99989 -0.0160639 0)
(4.98033 -0.0151193 0)
(5.12978 -0.153856 0)
(5.13007 -0.153859 0)
(5.13037 -0.153849 0)
(5.13061 -0.154271 0)
(5.13089 -0.154475 0)
(5.13111 -0.154161 0)
(5.13129 -0.154016 0)
(5.13135 -0.154493 0)
(5.13162 -0.154677 0)
(5.132 -0.154645 0)
(5.1324 -0.154917 0)
(5.13289 -0.155221 0)
(5.13333 -0.155076 0)
(5.13375 -0.154713 0)
(5.13408 -0.154694 0)
(5.13427 -0.154984 0)
(5.13462 -0.155079 0)
(5.13511 -0.155177 0)
(5.13559 -0.155465 0)
(5.13606 -0.155771 0)
(5.13651 -0.155925 0)
(5.13697 -0.155861 0)
(5.13733 -0.155668 0)
(5.13742 -0.155545 0)
(5.13756 -0.155332 0)
(5.13775 -0.155246 0)
(5.13767 -0.155658 0)
(5.13764 -0.155911 0)
(5.13762 -0.156077 0)
(5.13779 -0.156118 0)
(5.13804 -0.156078 0)
(5.13818 -0.156046 0)
(5.13843 -0.156106 0)
(5.13872 -0.155915 0)
(5.1387 -0.155904 0)
(5.13847 -0.156184 0)
(5.1384 -0.15647 0)
(5.1383 -0.156197 0)
(5.13842 -0.156005 0)
(5.1386 -0.155797 0)
(5.13871 -0.155665 0)
(5.13871 -0.15522 0)
(5.13871 -0.155134 0)
(5.13887 -0.155159 0)
(5.13914 -0.154942 0)
(5.13937 -0.154394 0)
(5.13956 -0.153625 0)
(5.13969 -0.153058 0)
(5.13971 -0.151638 0)
(5.13978 -0.149864 0)
(5.1394 -0.146437 0)
(5.13817 -0.141267 0)
(5.1366 -0.135074 0)
(5.13402 -0.121556 0)
(5.13216 -0.11155 0)
(5.12855 -0.0920933 0)
(5.12738 -0.0778432 0)
(5.12249 -0.0473834 0)
(5.12565 -0.0501557 0)
(5.11922 -0.0138881 0)
(5.12042 -0.0171675 0)
(5.11573 0.00360097 0)
(5.11526 0.00328662 0)
(5.11328 0.0118388 0)
(5.11155 0.0100899 0)
(5.10962 0.00399982 0)
(5.10974 0.00148596 0)
(5.11021 -0.000942054 0)
(5.11109 -0.00100923 0)
(5.11222 -0.000956994 0)
(5.11278 0.000214715 0)
(5.11474 0.00426418 0)
(5.115 0.00516799 0)
(5.11496 0.00545469 0)
(5.11356 0.00470328 0)
(5.10999 0.00393985 0)
(5.10111 0.0026371 0)
(5.08762 -0.00146913 0)
(5.07266 -0.00136489 0)
(5.05613 0.00373017 0)
(5.03636 0.00809286 0)
(5.0298 0.0119098 0)
(5.02497 0.0182098 0)
(5.02398 0.021037 0)
(5.02387 0.0235655 0)
(5.02456 0.0222111 0)
(5.02632 0.0160809 0)
(5.0282 0.00728985 0)
(5.02857 0.00369405 0)
(5.02652 0.00736518 0)
(5.02852 0.0113835 0)
(5.03173 0.0103728 0)
(5.0341 0.00813743 0)
(5.03854 0.00288217 0)
(5.04006 -0.00369632 0)
(5.03624 -0.00785725 0)
(5.02795 -0.0115541 0)
(5.01519 -0.0147133 0)
(4.99955 -0.0165938 0)
(4.98009 -0.015856 0)
(5.13298 -0.156586 0)
(5.13323 -0.156595 0)
(5.13347 -0.157174 0)
(5.13371 -0.157299 0)
(5.13395 -0.156622 0)
(5.1343 -0.156479 0)
(5.13445 -0.157022 0)
(5.13471 -0.157369 0)
(5.13502 -0.157501 0)
(5.13528 -0.157826 0)
(5.13561 -0.158361 0)
(5.13592 -0.158291 0)
(5.13618 -0.157451 0)
(5.13668 -0.156679 0)
(5.13709 -0.156867 0)
(5.13759 -0.157725 0)
(5.1382 -0.15772 0)
(5.13883 -0.157372 0)
(5.13926 -0.157653 0)
(5.13958 -0.158025 0)
(5.13987 -0.158161 0)
(5.14014 -0.158142 0)
(5.14025 -0.157872 0)
(5.14036 -0.157648 0)
(5.1405 -0.157537 0)
(5.14059 -0.157573 0)
(5.14055 -0.157726 0)
(5.14051 -0.157849 0)
(5.14064 -0.157476 0)
(5.14098 -0.157245 0)
(5.14121 -0.157077 0)
(5.14124 -0.156997 0)
(5.14137 -0.156758 0)
(5.14152 -0.156549 0)
(5.14172 -0.156104 0)
(5.14185 -0.156023 0)
(5.14194 -0.1562 0)
(5.142 -0.156324 0)
(5.14211 -0.156112 0)
(5.14234 -0.155963 0)
(5.14262 -0.155628 0)
(5.14297 -0.155422 0)
(5.14337 -0.15523 0)
(5.14374 -0.154989 0)
(5.14404 -0.154779 0)
(5.14424 -0.154288 0)
(5.14442 -0.153789 0)
(5.14454 -0.153569 0)
(5.14455 -0.153263 0)
(5.1448 -0.152365 0)
(5.14496 -0.151732 0)
(5.145 -0.151357 0)
(5.1448 -0.150285 0)
(5.1446 -0.148804 0)
(5.14399 -0.144855 0)
(5.1432 -0.140429 0)
(5.14174 -0.131725 0)
(5.13954 -0.119755 0)
(5.13829 -0.109963 0)
(5.13348 -0.0810223 0)
(5.13398 -0.0790441 0)
(5.12886 -0.0466196 0)
(5.1287 -0.0469067 0)
(5.12555 -0.0245156 0)
(5.12787 -0.0301998 0)
(5.12374 -0.0197416 0)
(5.12149 -0.0106392 0)
(5.12077 -0.00727664 0)
(5.12027 -0.00381292 0)
(5.11909 -0.000292094 0)
(5.11937 0.00292041 0)
(5.12051 0.00414149 0)
(5.12036 0.00340967 0)
(5.11942 0.00196147 0)
(5.11758 0.00133391 0)
(5.11297 0.00408334 0)
(5.1046 0.00453929 0)
(5.09266 0.00175242 0)
(5.07654 -0.000860814 0)
(5.06147 -0.00127918 0)
(5.04057 0.012192 0)
(5.03505 0.0161549 0)
(5.03213 0.0192861 0)
(5.03115 0.0218658 0)
(5.03167 0.0224495 0)
(5.03189 0.0202383 0)
(5.0316 0.0140114 0)
(5.03126 0.00797597 0)
(5.02869 0.00630218 0)
(5.0266 0.00938532 0)
(5.0291 0.0107352 0)
(5.03115 0.00972498 0)
(5.03362 0.0074193 0)
(5.03756 0.0022768 0)
(5.03866 -0.00331537 0)
(5.03468 -0.00746578 0)
(5.02645 -0.0108356 0)
(5.01403 -0.0142555 0)
(4.99885 -0.0167593 0)
(4.97977 -0.0162298 0)
(5.13641 -0.158136 0)
(5.13672 -0.158058 0)
(5.13689 -0.15857 0)
(5.13733 -0.159143 0)
(5.13748 -0.158606 0)
(5.13782 -0.15798 0)
(5.13804 -0.158347 0)
(5.1383 -0.158461 0)
(5.1386 -0.158207 0)
(5.13891 -0.158294 0)
(5.13923 -0.158681 0)
(5.13955 -0.158715 0)
(5.13987 -0.158179 0)
(5.14031 -0.15798 0)
(5.14082 -0.158525 0)
(5.1414 -0.158734 0)
(5.14187 -0.15793 0)
(5.14238 -0.157323 0)
(5.14266 -0.158277 0)
(5.14311 -0.158999 0)
(5.1435 -0.159106 0)
(5.14367 -0.15922 0)
(5.14372 -0.159268 0)
(5.14374 -0.159158 0)
(5.14381 -0.158968 0)
(5.14391 -0.158954 0)
(5.14401 -0.159268 0)
(5.14416 -0.159384 0)
(5.14422 -0.158654 0)
(5.14454 -0.158069 0)
(5.14485 -0.15809 0)
(5.14506 -0.15805 0)
(5.14512 -0.157755 0)
(5.14521 -0.157433 0)
(5.14545 -0.157285 0)
(5.14588 -0.157273 0)
(5.14633 -0.157023 0)
(5.14652 -0.156232 0)
(5.14665 -0.155561 0)
(5.14678 -0.155101 0)
(5.14694 -0.154665 0)
(5.14718 -0.154191 0)
(5.14752 -0.153738 0)
(5.14798 -0.153323 0)
(5.14847 -0.152989 0)
(5.14882 -0.152615 0)
(5.14908 -0.152229 0)
(5.14924 -0.152099 0)
(5.14926 -0.151975 0)
(5.14879 -0.151772 0)
(5.14859 -0.151623 0)
(5.14862 -0.152009 0)
(5.14887 -0.152359 0)
(5.14911 -0.152518 0)
(5.14932 -0.152137 0)
(5.14932 -0.151805 0)
(5.14933 -0.151191 0)
(5.14906 -0.149247 0)
(5.14836 -0.145749 0)
(5.14669 -0.138757 0)
(5.14492 -0.128795 0)
(5.14108 -0.108672 0)
(5.14021 -0.0990068 0)
(5.13402 -0.0649141 0)
(5.13683 -0.0591762 0)
(5.13137 -0.0194807 0)
(5.1346 -0.0229987 0)
(5.12861 0.000443348 0)
(5.12906 0.00645362 0)
(5.12743 0.0130539 0)
(5.12642 0.00714504 0)
(5.12543 0.00533981 0)
(5.12434 0.00119759 0)
(5.12311 0.000863585 0)
(5.12137 0.000354695 0)
(5.11642 0.00551678 0)
(5.10816 0.00893283 0)
(5.09486 0.00500023 0)
(5.07803 0.000876712 0)
(5.06406 -0.00227799 0)
(5.04745 0.00891437 0)
(5.03869 0.0182536 0)
(5.03668 0.02166 0)
(5.03729 0.0232493 0)
(5.03752 0.0228796 0)
(5.03706 0.0197917 0)
(5.03582 0.0133211 0)
(5.03328 0.00810958 0)
(5.02858 0.00886562 0)
(5.02677 0.0117337 0)
(5.02969 0.0110099 0)
(5.03099 0.00973865 0)
(5.03358 0.00669177 0)
(5.03671 0.00182115 0)
(5.03699 -0.00297943 0)
(5.033 -0.00714525 0)
(5.0249 -0.0105465 0)
(5.01285 -0.0136947 0)
(4.99819 -0.0162932 0)
(4.97954 -0.0165272 0)
(5.13944 -0.157696 0)
(5.1396 -0.158051 0)
(5.13986 -0.158274 0)
(5.14014 -0.158331 0)
(5.14042 -0.158346 0)
(5.14061 -0.157678 0)
(5.141 -0.157125 0)
(5.14117 -0.157668 0)
(5.14149 -0.158168 0)
(5.14176 -0.157764 0)
(5.14211 -0.15749 0)
(5.14247 -0.157561 0)
(5.14286 -0.157773 0)
(5.1433 -0.157699 0)
(5.14382 -0.157128 0)
(5.14446 -0.156669 0)
(5.14499 -0.156956 0)
(5.14553 -0.157715 0)
(5.1462 -0.157819 0)
(5.14699 -0.157153 0)
(5.14787 -0.156468 0)
(5.14827 -0.156823 0)
(5.14869 -0.157545 0)
(5.14883 -0.157402 0)
(5.14851 -0.156797 0)
(5.14859 -0.156181 0)
(5.14868 -0.156103 0)
(5.14872 -0.156262 0)
(5.14877 -0.156083 0)
(5.14889 -0.155675 0)
(5.14903 -0.155632 0)
(5.14912 -0.155601 0)
(5.14911 -0.155288 0)
(5.14911 -0.154876 0)
(5.14924 -0.154593 0)
(5.14945 -0.154475 0)
(5.14968 -0.154229 0)
(5.14983 -0.153666 0)
(5.14999 -0.153045 0)
(5.15018 -0.152551 0)
(5.15034 -0.152079 0)
(5.15041 -0.151674 0)
(5.15042 -0.151408 0)
(5.15044 -0.151244 0)
(5.15061 -0.151195 0)
(5.1509 -0.151189 0)
(5.15099 -0.151183 0)
(5.15117 -0.15125 0)
(5.15137 -0.151408 0)
(5.15147 -0.151478 0)
(5.15146 -0.151585 0)
(5.15154 -0.152184 0)
(5.1515 -0.153023 0)
(5.1514 -0.152903 0)
(5.15118 -0.152468 0)
(5.15113 -0.152685 0)
(5.1515 -0.15326 0)
(5.15156 -0.153425 0)
(5.15167 -0.153637 0)
(5.15163 -0.153315 0)
(5.15128 -0.151868 0)
(5.1505 -0.149085 0)
(5.1491 -0.142536 0)
(5.1468 -0.132089 0)
(5.14492 -0.118935 0)
(5.14181 -0.0972615 0)
(5.14037 -0.0780804 0)
(5.1382 -0.055429 0)
(5.13778 -0.0419887 0)
(5.13894 -0.0338355 0)
(5.14097 -0.0288082 0)
(5.13469 -0.011107 0)
(5.13379 -0.0115481 0)
(5.13035 -0.00390993 0)
(5.12505 0.0031178 0)
(5.12066 0.00738416 0)
(5.11089 0.00950462 0)
(5.09512 0.00355197 0)
(5.08051 -0.00545231 0)
(5.06545 -0.00249875 0)
(5.05245 0.00857607 0)
(5.04299 0.0173164 0)
(5.0408 0.0228361 0)
(5.04131 0.0243033 0)
(5.04145 0.0236912 0)
(5.04008 0.0193179 0)
(5.03792 0.0124287 0)
(5.03418 0.0083444 0)
(5.02894 0.00893906 0)
(5.02761 0.0117397 0)
(5.03049 0.0109767 0)
(5.03149 0.00984416 0)
(5.03394 0.00639372 0)
(5.03612 0.00162221 0)
(5.03582 -0.00236045 0)
(5.03166 -0.00587432 0)
(5.02369 -0.00970602 0)
(5.01211 -0.0128079 0)
(4.99779 -0.0155839 0)
(4.97939 -0.016352 0)
(5.14195 -0.158151 0)
(5.14219 -0.157702 0)
(5.14252 -0.157449 0)
(5.14262 -0.15796 0)
(5.143 -0.158794 0)
(5.14315 -0.158498 0)
(5.1434 -0.157257 0)
(5.14376 -0.157144 0)
(5.14411 -0.157511 0)
(5.14444 -0.157434 0)
(5.14477 -0.157292 0)
(5.14512 -0.157018 0)
(5.1455 -0.156813 0)
(5.14587 -0.15686 0)
(5.14629 -0.156983 0)
(5.14684 -0.156959 0)
(5.14753 -0.156702 0)
(5.14828 -0.156545 0)
(5.14903 -0.156433 0)
(5.14984 -0.156114 0)
(5.15075 -0.155919 0)
(5.15152 -0.15605 0)
(5.15194 -0.156123 0)
(5.15199 -0.155862 0)
(5.15192 -0.155357 0)
(5.15193 -0.155051 0)
(5.15193 -0.155244 0)
(5.15206 -0.15548 0)
(5.15214 -0.155097 0)
(5.15215 -0.154271 0)
(5.15212 -0.153816 0)
(5.15202 -0.15355 0)
(5.15188 -0.153063 0)
(5.15185 -0.152542 0)
(5.15194 -0.152278 0)
(5.15206 -0.152146 0)
(5.15216 -0.151972 0)
(5.15224 -0.151715 0)
(5.15231 -0.151354 0)
(5.15239 -0.151092 0)
(5.15239 -0.150961 0)
(5.1524 -0.150917 0)
(5.15239 -0.150893 0)
(5.15238 -0.150873 0)
(5.15252 -0.150901 0)
(5.15259 -0.150916 0)
(5.15273 -0.151034 0)
(5.15294 -0.151323 0)
(5.15312 -0.151553 0)
(5.15328 -0.151808 0)
(5.15327 -0.152097 0)
(5.15302 -0.152516 0)
(5.15259 -0.153202 0)
(5.15219 -0.15373 0)
(5.15198 -0.153672 0)
(5.15192 -0.153643 0)
(5.15201 -0.153925 0)
(5.15215 -0.154758 0)
(5.15219 -0.15552 0)
(5.15225 -0.155825 0)
(5.15244 -0.156299 0)
(5.15247 -0.156078 0)
(5.15229 -0.155079 0)
(5.15204 -0.153393 0)
(5.1516 -0.150137 0)
(5.15046 -0.142739 0)
(5.14916 -0.132657 0)
(5.14579 -0.110261 0)
(5.14509 -0.0967683 0)
(5.13988 -0.0554637 0)
(5.14427 -0.0540162 0)
(5.13586 -0.00692961 0)
(5.13897 -0.0121952 0)
(5.13412 0.0114086 0)
(5.12772 0.0122533 0)
(5.12142 0.012077 0)
(5.11123 0.00982475 0)
(5.09699 -0.00112081 0)
(5.08749 -0.00586359 0)
(5.06707 0.0087791 0)
(5.05387 0.0130252 0)
(5.04685 0.0178344 0)
(5.04425 0.0227181 0)
(5.04348 0.0241494 0)
(5.04244 0.0240427 0)
(5.03988 0.0208475 0)
(5.03699 0.0153495 0)
(5.0332 0.0117086 0)
(5.02923 0.0100544 0)
(5.02892 0.0109811 0)
(5.03126 0.0105344 0)
(5.03212 0.00946824 0)
(5.03431 0.00561595 0)
(5.03582 0.00139328 0)
(5.03495 -0.00174814 0)
(5.03052 -0.00498887 0)
(5.02269 -0.0088478 0)
(5.01146 -0.0123302 0)
(4.99755 -0.0148508 0)
(4.97937 -0.015851 0)
(5.14382 -0.154031 0)
(5.14401 -0.153836 0)
(5.14422 -0.153658 0)
(5.14446 -0.153463 0)
(5.14468 -0.153587 0)
(5.14491 -0.153802 0)
(5.14511 -0.153402 0)
(5.14539 -0.153229 0)
(5.14574 -0.153464 0)
(5.14607 -0.153153 0)
(5.14641 -0.152867 0)
(5.14674 -0.152912 0)
(5.14706 -0.15263 0)
(5.14738 -0.152464 0)
(5.1477 -0.152692 0)
(5.14804 -0.152467 0)
(5.14851 -0.151952 0)
(5.14907 -0.151971 0)
(5.14968 -0.152117 0)
(5.15036 -0.151767 0)
(5.15105 -0.151469 0)
(5.15154 -0.151879 0)
(5.15193 -0.152319 0)
(5.15212 -0.152188 0)
(5.15223 -0.151673 0)
(5.15241 -0.151316 0)
(5.15243 -0.151614 0)
(5.1526 -0.152009 0)
(5.1528 -0.152047 0)
(5.15281 -0.151494 0)
(5.15286 -0.150965 0)
(5.15288 -0.150869 0)
(5.15285 -0.151055 0)
(5.15293 -0.151227 0)
(5.153 -0.151281 0)
(5.15305 -0.151371 0)
(5.15313 -0.151552 0)
(5.15323 -0.151605 0)
(5.15324 -0.151574 0)
(5.15324 -0.151475 0)
(5.15324 -0.151206 0)
(5.15318 -0.151031 0)
(5.15311 -0.150973 0)
(5.15309 -0.150878 0)
(5.15316 -0.150657 0)
(5.15319 -0.150324 0)
(5.15314 -0.150259 0)
(5.15334 -0.150686 0)
(5.15346 -0.15133 0)
(5.15324 -0.152114 0)
(5.15276 -0.152614 0)
(5.15238 -0.153312 0)
(5.15201 -0.154115 0)
(5.15159 -0.154569 0)
(5.15127 -0.154635 0)
(5.15125 -0.154782 0)
(5.15156 -0.155294 0)
(5.15186 -0.155894 0)
(5.15189 -0.156203 0)
(5.15192 -0.15652 0)
(5.15217 -0.157184 0)
(5.15251 -0.157108 0)
(5.15267 -0.156181 0)
(5.15288 -0.155155 0)
(5.1531 -0.154112 0)
(5.15314 -0.152939 0)
(5.15276 -0.15102 0)
(5.15196 -0.147382 0)
(5.15067 -0.139683 0)
(5.14816 -0.124936 0)
(5.14643 -0.110932 0)
(5.14146 -0.0777959 0)
(5.14229 -0.0732567 0)
(5.13738 -0.0346893 0)
(5.14038 -0.0486878 0)
(5.12899 -0.0161513 0)
(5.11632 -0.0043225 0)
(5.1094 -0.0164827 0)
(5.08617 0.00589585 0)
(5.06664 0.0119609 0)
(5.05443 0.0118845 0)
(5.04821 0.0144582 0)
(5.04456 0.0203415 0)
(5.0435 0.0231998 0)
(5.04132 0.0241755 0)
(5.03801 0.0222815 0)
(5.03458 0.0194739 0)
(5.03142 0.0135948 0)
(5.02948 0.0100732 0)
(5.03064 0.0104452 0)
(5.03201 0.0103815 0)
(5.03278 0.0092255 0)
(5.03469 0.00504557 0)
(5.03573 0.00158942 0)
(5.03424 -0.000846129 0)
(5.02988 -0.00397134 0)
(5.02227 -0.00777873 0)
(5.0113 -0.0114482 0)
(4.99755 -0.0142255 0)
(4.97944 -0.0152307 0)
(5.14407 -0.150283 0)
(5.14422 -0.15027 0)
(5.1444 -0.150361 0)
(5.14457 -0.150132 0)
(5.14477 -0.149973 0)
(5.14496 -0.150079 0)
(5.14518 -0.149907 0)
(5.1454 -0.14995 0)
(5.14566 -0.150213 0)
(5.1459 -0.149955 0)
(5.14617 -0.149792 0)
(5.14646 -0.149808 0)
(5.14678 -0.149422 0)
(5.14713 -0.149307 0)
(5.1474 -0.14984 0)
(5.14774 -0.150168 0)
(5.14809 -0.149947 0)
(5.14846 -0.149869 0)
(5.14884 -0.14997 0)
(5.14929 -0.149794 0)
(5.14983 -0.149734 0)
(5.15034 -0.150214 0)
(5.15083 -0.150854 0)
(5.15113 -0.150941 0)
(5.15129 -0.150586 0)
(5.15151 -0.150415 0)
(5.15154 -0.150705 0)
(5.15167 -0.151129 0)
(5.15193 -0.151377 0)
(5.15207 -0.151237 0)
(5.15223 -0.150961 0)
(5.15245 -0.150906 0)
(5.15255 -0.151376 0)
(5.15264 -0.151744 0)
(5.15267 -0.151763 0)
(5.15288 -0.152054 0)
(5.15297 -0.152336 0)
(5.15306 -0.152328 0)
(5.15307 -0.152142 0)
(5.15291 -0.151963 0)
(5.15273 -0.152001 0)
(5.15268 -0.152119 0)
(5.15251 -0.152392 0)
(5.15229 -0.152568 0)
(5.15209 -0.152688 0)
(5.15208 -0.15295 0)
(5.15217 -0.153317 0)
(5.15219 -0.153552 0)
(5.15205 -0.153662 0)
(5.15177 -0.153888 0)
(5.15147 -0.154305 0)
(5.15121 -0.154936 0)
(5.15088 -0.155723 0)
(5.15049 -0.156442 0)
(5.15022 -0.156953 0)
(5.15005 -0.157105 0)
(5.15037 -0.157049 0)
(5.15068 -0.157004 0)
(5.15085 -0.156939 0)
(5.15108 -0.156825 0)
(5.15122 -0.156734 0)
(5.1514 -0.156141 0)
(5.1521 -0.155621 0)
(5.15257 -0.1545 0)
(5.15262 -0.153388 0)
(5.15265 -0.152826 0)
(5.15228 -0.152409 0)
(5.15187 -0.15208 0)
(5.15131 -0.151544 0)
(5.15057 -0.14919 0)
(5.14981 -0.144119 0)
(5.1478 -0.132357 0)
(5.14628 -0.121083 0)
(5.14016 -0.0899998 0)
(5.13994 -0.0771243 0)
(5.12947 -0.0255576 0)
(5.11778 -0.00611002 0)
(5.10881 -0.00674058 0)
(5.08719 0.0211439 0)
(5.06786 0.0115491 0)
(5.0571 0.0114227 0)
(5.04687 0.0144029 0)
(5.04392 0.0183357 0)
(5.04223 0.0240334 0)
(5.03947 0.0246094 0)
(5.03559 0.023244 0)
(5.03226 0.0193865 0)
(5.0305 0.0136343 0)
(5.03049 0.0103283 0)
(5.03214 0.0104658 0)
(5.03265 0.0105751 0)
(5.03364 0.00947163 0)
(5.03534 0.00548271 0)
(5.03552 0.00216784 0)
(5.03355 -0.00045364 0)
(5.02915 -0.00328466 0)
(5.02197 -0.00702914 0)
(5.01129 -0.010424 0)
(4.99762 -0.013765 0)
(4.9795 -0.0150525 0)
(5.14359 -0.149123 0)
(5.14374 -0.149157 0)
(5.14387 -0.148799 0)
(5.14403 -0.148728 0)
(5.14416 -0.148946 0)
(5.14433 -0.148979 0)
(5.14451 -0.148947 0)
(5.14467 -0.14908 0)
(5.14485 -0.149254 0)
(5.14504 -0.149203 0)
(5.14524 -0.149218 0)
(5.14546 -0.149455 0)
(5.14567 -0.149306 0)
(5.14596 -0.148981 0)
(5.14609 -0.149335 0)
(5.14632 -0.149894 0)