/*--------------------------------*- C++ -*----------------------------------*\
  =========                 |
  \\      /  F ield         | OpenFOAM: The Open Source CFD Toolbox
   \\    /   O peration     | Website:  https://openfoam.org
    \\  /    A nd           | Version:  7
     \\/     M anipulation  |
\*---------------------------------------------------------------------------*/
FoamFile
{
    version     2.0;
    format      ascii;
    class       volVectorField;
    location    "7.6";
    object      U;
}
// * * * * * * * * * * * * * * * * * * * * * * * * * * * * * * * * * * * * * //

dimensions      [0 1 -1 0 0 0 0];

internalField   nonuniform List<vector> 
8400
(
(2.41419 -0.583234 0)
(2.45547 -0.283616 0)
(2.43065 0.0901013 0)
(2.47277 0.127699 0)
(2.46559 0.250928 0)
(2.47023 0.378973 0)
(2.49225 0.368994 0)
(2.5054 0.424309 0)
(2.53239 0.453387 0)
(2.52616 0.385451 0)
(2.57816 0.363849 0)
(2.6254 0.364949 0)
(2.64806 0.333964 0)
(2.65387 0.263899 0)
(2.68309 0.238983 0)
(2.6949 0.182452 0)
(2.7068 0.156853 0)
(2.71821 0.132197 0)
(2.73724 0.158611 0)
(2.74273 0.184622 0)
(2.74446 0.212382 0)
(2.75397 0.227859 0)
(2.76035 0.226471 0)
(2.76053 0.203404 0)
(2.76612 0.180881 0)
(2.77423 0.153657 0)
(2.78632 0.135998 0)
(2.79069 0.108113 0)
(2.7983 0.104413 0)
(2.8066 0.114161 0)
(2.57165 -1.39098 0)
(2.59613 -1.39875 0)
(2.59914 -1.34236 0)
(2.6014 -1.17659 0)
(2.57343 -1.0227 0)
(2.52064 -0.725948 0)
(2.50139 -0.567241 0)
(2.46568 -0.349584 0)
(2.43833 -0.10249 0)
(2.46932 -0.122628 0)
(2.43216 0.00769679 0)
(2.43702 0.0894894 0)
(2.45847 0.124669 0)
(2.47132 0.0961308 0)
(2.49807 0.0932059 0)
(2.53098 0.119904 0)
(2.54026 0.127377 0)
(2.54355 0.127968 0)
(2.55678 0.147223 0)
(2.56668 0.151275 0)
(2.57451 0.15485 0)
(2.5797 0.160998 0)
(2.58271 0.154431 0)
(2.59544 0.144947 0)
(2.61129 0.134857 0)
(2.62814 0.122303 0)
(2.64625 0.123428 0)
(2.66027 0.112593 0)
(2.67058 0.118795 0)
(2.68774 0.10488 0)
(2.83812 -1.47344 0)
(2.87457 -1.50387 0)
(2.90724 -1.54 0)
(2.9415 -1.57011 0)
(2.96453 -1.60115 0)
(2.99126 -1.62767 0)
(3.01843 -1.64967 0)
(3.00351 -1.62162 0)
(2.93952 -1.46058 0)
(2.87143 -1.30654 0)
(2.72531 -1.00459 0)
(2.61662 -0.706297 0)
(2.50406 -0.349386 0)
(2.4648 -0.137612 0)
(2.38598 0.0937058 0)
(2.40122 0.179774 0)
(2.39205 0.305812 0)
(2.39405 0.299999 0)
(2.39919 0.266317 0)
(2.43409 0.197394 0)
(2.45739 0.133431 0)
(2.47638 0.105777 0)
(2.48694 0.0978524 0)
(2.4966 0.117677 0)
(2.50397 0.126262 0)
(2.51682 0.128293 0)
(2.52965 0.147735 0)
(2.55062 0.144726 0)
(2.55995 0.12188 0)
(2.58288 0.0990994 0)
(2.97298 -1.63355 0)
(2.98992 -1.6689 0)
(3.00958 -1.68972 0)
(3.03238 -1.69678 0)
(3.03985 -1.69462 0)
(3.05029 -1.69888 0)
(3.05935 -1.71457 0)
(3.07294 -1.72243 0)
(3.08476 -1.72451 0)
(3.08532 -1.72434 0)
(3.07979 -1.72555 0)
(3.07456 -1.72905 0)
(3.02724 -1.61777 0)
(2.93727 -1.40311 0)
(2.7939 -1.03478 0)
(2.70336 -0.722048 0)
(2.60796 -0.331192 0)
(2.57823 -0.13171 0)
(2.53391 0.021178 0)
(2.51144 0.070423 0)
(2.49466 0.105266 0)
(2.49559 0.106706 0)
(2.5088 0.108676 0)
(2.51559 0.10453 0)
(2.50685 0.0839842 0)
(2.50563 0.0864067 0)
(2.50563 0.107837 0)
(2.51451 0.11471 0)
(2.52246 0.102594 0)
(2.54583 0.0856492 0)
(3.06787 -1.73362 0)
(3.07239 -1.74076 0)
(3.07557 -1.74129 0)
(3.07582 -1.74124 0)
(3.07617 -1.73692 0)
(3.07598 -1.72979 0)
(3.0696 -1.73657 0)
(3.0717 -1.73308 0)
(3.08744 -1.71474 0)
(3.08871 -1.71125 0)
(3.07955 -1.71031 0)
(3.06419 -1.69165 0)
(3.06735 -1.68311 0)
(3.07598 -1.66203 0)
(3.08579 -1.6471 0)
(3.07789 -1.66014 0)
(3.01432 -1.50721 0)
(2.92742 -1.20875 0)
(2.79109 -0.715947 0)
(2.72026 -0.399749 0)
(2.63208 -0.1176 0)
(2.60475 0.0168491 0)
(2.57559 0.103936 0)
(2.54972 0.0968914 0)
(2.54325 0.0749634 0)
(2.56644 0.0934093 0)
(2.5621 0.0950037 0)
(2.55111 0.0797544 0)
(2.55202 0.056219 0)
(2.5725 0.0489347 0)
(3.0613 -1.76407 0)
(3.07238 -1.75393 0)
(3.08269 -1.74244 0)
(3.07951 -1.73555 0)
(3.0718 -1.72738 0)
(3.06912 -1.70613 0)
(3.05925 -1.68141 0)
(3.03988 -1.65651 0)
(3.05246 -1.59825 0)
(3.08181 -1.56403 0)
(3.07781 -1.57075 0)
(3.06457 -1.60986 0)
(3.07414 -1.60189 0)
(3.07499 -1.56811 0)
(3.09198 -1.54376 0)
(3.09937 -1.54071 0)
(3.10359 -1.5455 0)
(3.09016 -1.52314 0)
(3.09213 -1.50537 0)
(3.06577 -1.42448 0)
(2.9794 -1.12999 0)
(2.88439 -0.744758 0)
(2.82531 -0.441844 0)
(2.76833 -0.228293 0)
(2.74266 -0.0590092 0)
(2.68448 0.0834818 0)
(2.65048 0.0811774 0)
(2.61887 0.0994899 0)
(2.65121 0.124958 0)
(2.65233 0.108931 0)
(3.08925 -1.58667 0)
(3.09672 -1.57219 0)
(3.10106 -1.55203 0)
(3.10029 -1.54107 0)
(3.08769 -1.55105 0)
(3.07647 -1.55742 0)
(3.06826 -1.55113 0)
(3.06779 -1.54019 0)
(3.08128 -1.51528 0)
(3.11457 -1.48645 0)
(3.1129 -1.49998 0)
(3.09586 -1.54776 0)
(3.099 -1.56678 0)
(3.07626 -1.52816 0)
(3.08731 -1.48872 0)
(3.1059 -1.47715 0)
(3.12523 -1.47466 0)
(3.11712 -1.43513 0)
(3.11093 -1.38226 0)
(3.11499 -1.36925 0)
(3.118 -1.36606 0)
(3.11691 -1.37885 0)
(3.09616 -1.29841 0)
(3.04169 -1.04083 0)
(3.00476 -0.762212 0)
(2.90994 -0.438881 0)
(2.90957 -0.258929 0)
(2.81376 -0.0284131 0)
(2.77438 0.0514482 0)
(2.73715 0.0982962 0)
(3.0904 -1.54717 0)
(3.0994 -1.53823 0)
(3.10091 -1.53934 0)
(3.10306 -1.53503 0)
(3.10148 -1.53369 0)
(3.08396 -1.55079 0)
(3.07198 -1.5626 0)
(3.07232 -1.52937 0)
(3.09295 -1.48492 0)
(3.09978 -1.47582 0)
(3.13381 -1.43752 0)
(3.15355 -1.40471 0)
(3.1347 -1.41219 0)
(3.11152 -1.38899 0)
(3.11115 -1.3496 0)
(3.1262 -1.32811 0)
(3.13879 -1.31654 0)
(3.13315 -1.31491 0)
(3.1171 -1.32117 0)
(3.11467 -1.30164 0)
(3.12084 -1.28977 0)
(3.13052 -1.27214 0)
(3.13794 -1.25268 0)
(3.1372 -1.24925 0)
(3.13633 -1.2401 0)
(3.11361 -1.16491 0)
(3.08762 -0.971243 0)
(3.03262 -0.627103 0)
(3.02293 -0.503066 0)
(2.89545 -0.138692 0)
(3.13788 -1.37207 0)
(3.14222 -1.3574 0)
(3.14556 -1.34569 0)
(3.15292 -1.33704 0)
(3.15452 -1.33448 0)
(3.14768 -1.33878 0)
(3.13108 -1.35784 0)
(3.12494 -1.35307 0)
(3.12588 -1.29728 0)
(3.14241 -1.25101 0)
(3.16155 -1.23554 0)
(3.16535 -1.23767 0)
(3.14499 -1.26233 0)
(3.12876 -1.26005 0)
(3.12385 -1.24077 0)
(3.12817 -1.24049 0)
(3.14097 -1.23694 0)
(3.13815 -1.23843 0)
(3.13433 -1.23497 0)
(3.13201 -1.22836 0)
(3.13247 -1.21521 0)
(3.13819 -1.19601 0)
(3.13979 -1.16277 0)
(3.14117 -1.15167 0)
(3.13959 -1.13523 0)
(3.13124 -1.14268 0)
(3.12934 -1.13068 0)
(3.13053 -1.13163 0)
(3.12802 -1.08621 0)
(3.05919 -0.682089 0)
(3.15164 -1.24859 0)
(3.15234 -1.21663 0)
(3.15401 -1.20844 0)
(3.15552 -1.20877 0)
(3.16223 -1.21092 0)
(3.16228 -1.21205 0)
(3.14725 -1.23392 0)
(3.12713 -1.25979 0)
(3.11796 -1.2412 0)
(3.13313 -1.21671 0)
(3.14513 -1.2104 0)
(3.14784 -1.21004 0)
(3.1452 -1.21341 0)
(3.13861 -1.21445 0)
(3.12213 -1.19946 0)
(3.12872 -1.1792 0)
(3.14431 -1.16818 0)
(3.15208 -1.14312 0)
(3.14992 -1.12941 0)
(3.15065 -1.0998 0)
(3.14703 -1.09313 0)
(3.13942 -1.08655 0)
(3.13655 -1.08011 0)
(3.13274 -1.0889 0)
(3.1309 -1.08252 0)
(3.13332 -1.08192 0)
(3.13542 -1.06431 0)
(3.13767 -1.05471 0)
(3.14091 -1.03573 0)
(3.13964 -1.02885 0)
(3.14937 -1.13063 0)
(3.14448 -1.11261 0)
(3.15032 -1.09228 0)
(3.15294 -1.0827 0)
(3.16194 -1.07519 0)
(3.17019 -1.07556 0)
(3.16892 -1.07806 0)
(3.16029 -1.09059 0)
(3.14705 -1.09108 0)
(3.15142 -1.06358 0)
(3.15885 -1.05494 0)
(3.16946 -1.04278 0)
(3.16931 -1.02415 0)
(3.16462 -1.0215 0)
(3.15307 -1.01438 0)
(3.1489 -1.00009 0)
(3.15087 -0.998687 0)
(3.15423 -0.999669 0)
(3.15098 -1.00729 0)
(3.15034 -1.00081 0)
(3.14424 -1.00717 0)
(3.14218 -1.00212 0)
(3.13896 -1.00676 0)
(3.1408 -0.996854 0)
(3.14301 -0.991675 0)
(3.14741 -0.976117 0)
(3.14591 -0.96478 0)
(3.14313 -0.94495 0)
(3.13958 -0.942041 0)
(3.12998 -0.945584 0)
(3.16899 -0.972701 0)
(3.16238 -0.974328 0)
(3.15481 -0.958493 0)
(3.1553 -0.932144 0)
(3.15837 -0.924215 0)
(3.16687 -0.925403 0)
(3.17296 -0.932309 0)
(3.17137 -0.9355 0)
(3.16293 -0.948929 0)
(3.14871 -0.947999 0)
(3.14644 -0.928839 0)
(3.15301 -0.927539 0)
(3.15668 -0.931971 0)
(3.15748 -0.939472 0)
(3.15189 -0.938689 0)
(3.14319 -0.931503 0)
(3.14454 -0.925668 0)
(3.14599 -0.92595 0)
(3.14638 -0.924039 0)
(3.14553 -0.922199 0)
(3.14386 -0.919503 0)
(3.14648 -0.909904 0)
(3.14702 -0.901776 0)
(3.14845 -0.893484 0)
(3.14755 -0.885417 0)
(3.14486 -0.879078 0)
(3.14067 -0.879972 0)
(3.13539 -0.88318 0)
(3.12806 -0.894372 0)
(3.12847 -0.897941 0)
(3.16486 -0.794006 0)
(3.16431 -0.798151 0)
(3.15688 -0.811052 0)
(3.14925 -0.814458 0)
(3.1476 -0.801612 0)
(3.15055 -0.787756 0)
(3.1549 -0.7747 0)
(3.16408 -0.778832 0)
(3.15911 -0.791934 0)
(3.15178 -0.796026 0)
(3.14116 -0.797401 0)
(3.14172 -0.795984 0)
(3.14778 -0.793908 0)
(3.1536 -0.788683 0)
(3.15003 -0.790944 0)
(3.14637 -0.79303 0)
(3.1432 -0.792208 0)
(3.14328 -0.789967 0)
(3.14381 -0.789818 0)
(3.14379 -0.790081 0)
(3.14259 -0.791671 0)
(3.14032 -0.793665 0)
(3.14009 -0.795302 0)
(3.13901 -0.798902 0)
(3.13756 -0.802148 0)
(3.13302 -0.809844 0)
(3.13179 -0.812919 0)
(3.13077 -0.820106 0)
(3.13268 -0.8198 0)
(3.13684 -0.814091 0)
(3.13991 -0.58586 0)
(3.15084 -0.606507 0)
(3.1443 -0.628371 0)
(3.13928 -0.635823 0)
(3.13018 -0.643663 0)
(3.12478 -0.648643 0)
(3.1261 -0.647729 0)
(3.13254 -0.639714 0)
(3.14593 -0.632785 0)
(3.14394 -0.64158 0)
(3.13713 -0.64748 0)
(3.12808 -0.657691 0)
(3.12657 -0.65955 0)
(3.13155 -0.659496 0)
(3.13856 -0.668508 0)
(3.13646 -0.673061 0)
(3.13346 -0.672476 0)
(3.13171 -0.67808 0)
(3.13214 -0.686733 0)
(3.13262 -0.691729 0)
(3.13303 -0.694667 0)
(3.13094 -0.697914 0)
(3.13194 -0.709253 0)
(3.13117 -0.714727 0)
(3.13064 -0.722214 0)
(3.13101 -0.726832 0)
(3.13319 -0.726341 0)
(3.13325 -0.728612 0)
(3.1356 -0.719885 0)
(3.13226 -0.723634 0)
(3.10252 -0.447218 0)
(3.1069 -0.428192 0)
(3.11623 -0.426011 0)
(3.12492 -0.453071 0)
(3.11061 -0.475622 0)
(3.10598 -0.483049 0)
(3.09674 -0.496155 0)
(3.09447 -0.503523 0)
(3.10851 -0.498554 0)
(3.12432 -0.489068 0)
(3.12548 -0.499024 0)
(3.11978 -0.519879 0)
(3.11115 -0.529025 0)
(3.11017 -0.527554 0)
(3.1169 -0.535253 0)
(3.1197 -0.545269 0)
(3.11902 -0.54955 0)
(3.12006 -0.555224 0)
(3.12072 -0.562649 0)
(3.11946 -0.571814 0)
(3.12012 -0.580396 0)
(3.12224 -0.586198 0)
(3.12324 -0.594193 0)
(3.12333 -0.594536 0)
(3.12325 -0.599903 0)
(3.1234 -0.600926 0)
(3.12303 -0.605713 0)
(3.12108 -0.617008 0)
(3.12341 -0.6294 0)
(3.12137 -0.647753 0)
(3.06408 -0.303662 0)
(3.06847 -0.294044 0)
(3.07588 -0.273938 0)
(3.08895 -0.273307 0)
(3.08912 -0.305907 0)
(3.08126 -0.321977 0)
(3.07671 -0.341075 0)
(3.06808 -0.363822 0)
(3.07425 -0.364469 0)
(3.09281 -0.351274 0)
(3.10015 -0.357238 0)
(3.09942 -0.370976 0)
(3.09164 -0.390875 0)
(3.08781 -0.389571 0)
(3.09557 -0.405078 0)
(3.09913 -0.420681 0)
(3.09917 -0.421479 0)
(3.10205 -0.432164 0)
(3.10347 -0.441896 0)
(3.10318 -0.457261 0)
(3.10373 -0.466189 0)
(3.10669 -0.47487 0)
(3.10848 -0.484249 0)
(3.10959 -0.502341 0)
(3.10956 -0.512849 0)
(3.11145 -0.527619 0)
(3.11309 -0.545016 0)
(3.1133 -0.553767 0)
(3.11466 -0.567821 0)
(3.11724 -0.580085 0)
(3.02206 -0.154485 0)
(3.0253 -0.148972 0)
(3.03235 -0.135632 0)
(3.04645 -0.124369 0)
(3.05796 -0.145379 0)
(3.04996 -0.169777 0)
(3.04839 -0.186071 0)
(3.03973 -0.219262 0)
(3.04031 -0.224897 0)
(3.05449 -0.21293 0)
(3.06825 -0.217903 0)
(3.07137 -0.231552 0)
(3.06502 -0.255222 0)
(3.05997 -0.256086 0)
(3.06686 -0.271387 0)
(3.07325 -0.294289 0)
(3.07401 -0.300653 0)
(3.07671 -0.306238 0)
(3.08125 -0.325547 0)
(3.08097 -0.337597 0)
(3.08269 -0.354562 0)
(3.08607 -0.364545 0)
(3.08988 -0.377129 0)
(3.09206 -0.394683 0)
(3.09264 -0.404705 0)
(3.09529 -0.417948 0)
(3.09767 -0.427433 0)
(3.09944 -0.441721 0)
(3.10054 -0.449553 0)
(3.10257 -0.466115 0)
(2.9773 -0.0135557 0)
(2.9749 -0.0173574 0)
(2.97981 -0.0136881 0)
(2.99276 0.000356945 0)
(3.00835 0.00736572 0)
(3.00936 -0.0117331 0)
(3.00202 -0.0357152 0)
(3.00408 -0.0664153 0)
(2.99835 -0.0896952 0)
(3.00978 -0.0877021 0)
(3.02552 -0.0821961 0)
(3.03387 -0.101379 0)
(3.02848 -0.121653 0)
(3.02324 -0.122635 0)
(3.03246 -0.14625 0)
(3.03723 -0.165516 0)
(3.03999 -0.178105 0)
(3.0443 -0.185317 0)
(3.05117 -0.204056 0)
(3.0533 -0.221954 0)
(3.05491 -0.237194 0)
(3.05944 -0.252183 0)
(3.06471 -0.267641 0)
(3.06776 -0.28169 0)
(3.07108 -0.303909 0)
(3.07384 -0.316253 0)
(3.07813 -0.333712 0)
(3.08149 -0.350227 0)
(3.08421 -0.366528 0)
(3.08853 -0.394298 0)
(2.92248 0.135642 0)
(2.91944 0.126365 0)
(2.92039 0.125198 0)
(2.92862 0.134314 0)
(2.941 0.144825 0)
(2.94856 0.134954 0)
(2.95487 0.10395 0)
(2.95714 0.0659374 0)
(2.94961 0.0465255 0)
(2.95563 0.0500491 0)
(2.96658 0.05061 0)
(2.98195 0.0270499 0)
(2.98141 0.005179 0)
(2.98098 0.00127199 0)
(2.99031 -0.016893 0)
(2.99662 -0.0419563 0)
(2.99864 -0.054513 0)
(3.00532 -0.0687114 0)
(3.01325 -0.0845164 0)
(3.0191 -0.10495 0)
(3.02235 -0.122974 0)
(3.02666 -0.138673 0)
(3.03338 -0.157529 0)
(3.03909 -0.175764 0)
(3.04375 -0.195194 0)
(3.04775 -0.21181 0)
(3.05318 -0.231986 0)
(3.05795 -0.250493 0)
(3.06202 -0.267496 0)
(3.06803 -0.29404 0)
(2.85745 0.291252 0)
(2.85843 0.27454 0)
(2.85837 0.270016 0)
(2.85938 0.279269 0)
(2.86927 0.275523 0)
(2.88664 0.247395 0)
(2.88748 0.234753 0)
(2.89106 0.216557 0)
(2.89599 0.192326 0)
(2.89887 0.193561 0)
(2.90815 0.184497 0)
(2.92374 0.151014 0)
(2.9256 0.139538 0)
(2.93106 0.128954 0)
(2.94415 0.101085 0)
(2.94854 0.0856032 0)
(2.95346 0.0693068 0)
(2.96176 0.0511106 0)
(2.97138 0.0300096 0)
(2.97811 0.01297 0)
(2.98415 -0.00651332 0)
(2.99126 -0.0292402 0)
(2.99826 -0.0490147 0)
(3.00544 -0.0679192 0)
(3.01257 -0.0894985 0)
(3.01866 -0.109671 0)
(3.02502 -0.130087 0)
(3.03157 -0.152032 0)
(3.0372 -0.172162 0)
(3.04595 -0.20458 0)
(2.81848 0.369651 0)
(2.82037 0.367154 0)
(2.82104 0.366523 0)
(2.82169 0.366435 0)
(2.82583 0.361587 0)
(2.82985 0.356185 0)
(2.83526 0.347539 0)
(2.84059 0.33741 0)
(2.84485 0.325622 0)
(2.84875 0.313746 0)
(2.85149 0.309881 0)
(2.86043 0.294864 0)
(2.87254 0.26826 0)
(2.8787 0.255972 0)
(2.88705 0.241693 0)
(2.89687 0.218417 0)
(2.90524 0.194786 0)
(2.91346 0.174715 0)
(2.92368 0.152808 0)
(2.93429 0.12911 0)
(2.94373 0.10549 0)
(2.95078 0.0868441 0)
(2.96149 0.058324 0)
(2.96956 0.0372833 0)
(2.97846 0.0146561 0)
(2.98709 -0.00860181 0)
(2.99534 -0.0326592 0)
(3.00289 -0.054685 0)
(3.01032 -0.0771968 0)
(3.02139 -0.112676 0)
(2.82125 0.376279 0)
(2.82122 0.377664 0)
(2.8189 0.377484 0)
(2.81898 0.376128 0)
(2.81949 0.371751 0)
(2.81934 0.367779 0)
(2.82205 0.366847 0)
(2.82294 0.367569 0)
(2.82302 0.369375 0)
(2.82281 0.370889 0)
(2.82445 0.369373 0)
(2.8289 0.361369 0)
(2.83124 0.3543 0)
(2.83319 0.352682 0)
(2.83945 0.345727 0)
(2.84866 0.329869 0)
(2.85482 0.316093 0)
(2.86212 0.301234 0)
(2.87324 0.278675 0)
(2.8829 0.257491 0)
(2.89449 0.231717 0)
(2.90594 0.205457 0)
(2.91716 0.179277 0)
(2.92878 0.1509 0)
(2.94023 0.122648 0)
(2.95025 0.0982704 0)
(2.96167 0.068633 0)
(2.97137 0.0425381 0)
(2.98042 0.0182678 0)
(2.99448 -0.0211525 0)
(2.85154 0.33834 0)
(2.84997 0.339347 0)
(2.84537 0.332148 0)
(2.84081 0.325861 0)
(2.8401 0.331629 0)
(2.83897 0.34098 0)
(2.83749 0.354147 0)
(2.83662 0.356063 0)
(2.83187 0.357841 0)
(2.83012 0.364493 0)
(2.83061 0.364992 0)
(2.83022 0.361406 0)
(2.83011 0.360059 0)
(2.83152 0.361069 0)
(2.83184 0.361488 0)
(2.83241 0.360679 0)
(2.83345 0.358753 0)
(2.83545 0.35605 0)
(2.83854 0.351086 0)
(2.84264 0.344199 0)
(2.84936 0.333736 0)
(2.85856 0.318538 0)
(2.86949 0.297367 0)
(2.88016 0.273568 0)
(2.89321 0.244076 0)
(2.90594 0.215441 0)
(2.92029 0.182407 0)
(2.93321 0.150439 0)
(2.94521 0.120139 0)
(2.96314 0.0741409 0)
(2.92959 0.161726 0)
(2.92466 0.183562 0)
(2.92157 0.189293 0)
(2.92034 0.180413 0)
(2.90433 0.2 0)
(2.89598 0.230873 0)
(2.89703 0.233344 0)
(2.88956 0.245143 0)
(2.88036 0.261835 0)
(2.87097 0.286601 0)
(2.86611 0.298217 0)
(2.86667 0.294352 0)
(2.85723 0.308538 0)
(2.84937 0.333546 0)
(2.84693 0.336424 0)
(2.84555 0.333729 0)
(2.84067 0.34445 0)
(2.83985 0.348631 0)
(2.83946 0.348396 0)
(2.83965 0.348385 0)
(2.84023 0.348218 0)
(2.8416 0.347393 0)
(2.84392 0.344499 0)
(2.84712 0.340013 0)
(2.85289 0.330854 0)
(2.86131 0.316624 0)
(2.87307 0.29483 0)
(2.88586 0.267838 0)
(2.89982 0.236781 0)
(2.92227 0.184277 0)
(2.98993 0.022477 0)
(2.98852 0.0263361 0)
(2.98703 0.0306512 0)
(2.98454 0.0357985 0)
(2.98104 0.0400815 0)
(2.97533 0.0512024 0)
(2.97257 0.0576826 0)
(2.96562 0.0737009 0)
(2.96146 0.0826187 0)
(2.953 0.101112 0)
(2.94738 0.11319 0)
(2.93617 0.137527 0)
(2.92823 0.15274 0)
(2.91673 0.178029 0)
(2.90571 0.204364 0)
(2.89792 0.220076 0)
(2.8828 0.252389 0)
(2.8789 0.263693 0)
(2.86534 0.291554 0)
(2.85998 0.303171 0)
(2.85382 0.316608 0)
(2.84911 0.329186 0)
(2.84821 0.329887 0)
(2.84699 0.334766 0)
(2.84708 0.335486 0)
(2.84792 0.334938 0)
(2.84988 0.332684 0)
(2.85361 0.328043 0)
(2.85961 0.319284 0)
(2.87656 0.288478 0)
(2.99971 0.000628375 0)
(2.99963 0.00079443 0)
(2.99953 0.00101059 0)
(2.99939 0.00128907 0)
(2.99918 0.0016203 0)
(2.99879 0.00228727 0)
(2.99837 0.00305135 0)
(2.99774 0.00434182 0)
(2.99704 0.00576526 0)
(2.99583 0.00819315 0)
(2.99439 0.0110357 0)
(2.99208 0.0155757 0)
(2.98923 0.0208991 0)
(2.98481 0.0294919 0)
(2.97914 0.041878 0)
(2.97401 0.0519863 0)
(2.96263 0.0755353 0)
(2.95503 0.0914857 0)
(2.93996 0.123522 0)
(2.92753 0.150812 0)
(2.916 0.17564 0)
(2.89545 0.222245 0)
(2.89089 0.234346 0)
(2.87155 0.273325 0)
(2.86302 0.294821 0)
(2.86139 0.300541 0)
(2.85264 0.318533 0)
(2.85155 0.325564 0)
(2.85254 0.323108 0)
(2.85534 0.319856 0)
(3 5.35397e-06 0)
(3 6.74019e-06 0)
(3 8.95366e-06 0)
(2.99999 1.19637e-05 0)
(2.99999 1.65664e-05 0)
(2.99999 2.3237e-05 0)
(2.99998 3.5933e-05 0)
(2.99997 5.20716e-05 0)
(2.99995 8.41098e-05 0)
(2.99993 0.000124206 0)
(2.99989 0.000208244 0)
(2.99982 0.000322826 0)
(2.99969 0.000543409 0)
(2.99948 0.000920065 0)
(2.99914 0.00154778 0)
(2.99856 0.00268142 0)
(2.99761 0.00430566 0)
(2.99586 0.00779667 0)
(2.9934 0.0122952 0)
(2.98921 0.0205958 0)
(2.98302 0.0328652 0)
(2.97469 0.0490306 0)
(2.96266 0.0749533 0)
(2.94854 0.103395 0)
(2.93243 0.137777 0)
(2.91307 0.180825 0)
(2.89813 0.213426 0)
(2.88229 0.248528 0)
(2.87075 0.276114 0)
(2.86159 0.29954 0)
(3 2.81181e-08 0)
(3 3.53304e-08 0)
(3 4.66978e-08 0)
(3 6.34907e-08 0)
(3 8.69769e-08 0)
(3 1.26936e-07 0)
(3 1.8551e-07 0)
(3 2.92514e-07 0)
(3 4.46711e-07 0)
(3 7.46844e-07 0)
(3 1.20496e-06 0)
(3 2.15286e-06 0)
(3 3.74078e-06 0)
(3 7.2005e-06 0)
(2.99999 1.37932e-05 0)
(2.99998 2.68967e-05 0)
(2.99997 5.55165e-05 0)
(2.99993 0.000115056 0)
(2.99986 0.000245248 0)
(2.9997 0.000526812 0)
(2.99938 0.00109938 0)
(2.99867 0.00241308 0)
(2.99738 0.00476222 0)
(2.99474 0.00983416 0)
(2.99029 0.0183178 0)
(2.98252 0.033629 0)
(2.97174 0.0553183 0)
(2.955 0.0899517 0)
(2.9388 0.124174 0)
(2.90814 0.1914 0)
(3 1.20795e-10 0)
(3 1.54427e-10 0)
(3 2.05232e-10 0)
(3 2.79714e-10 0)
(3 3.90344e-10 0)
(3 5.54838e-10 0)
(3 8.26394e-10 0)
(3 1.23886e-09 0)
(3 1.96408e-09 0)
(3 3.1065e-09 0)
(3 5.2691e-09 0)
(3 9.00556e-09 0)
(3 1.65149e-08 0)
(3 3.13543e-08 0)
(3 6.23473e-08 0)
(3 1.28259e-07 0)
(3 2.76146e-07 0)
(3 6.34798e-07 0)
(3 1.47976e-06 0)
(3 3.66941e-06 0)
(2.99999 9.28165e-06 0)
(2.99999 2.44944e-05 0)
(2.99996 6.52258e-05 0)
(2.9999 0.000177894 0)
(2.99973 0.000470384 0)
(2.99929 0.00127124 0)
(2.99831 0.00308491 0)
(2.99586 0.00774317 0)
(2.9919 0.015347 0)
(2.97594 0.0481907 0)
(3 4.03016e-13 0)
(3 5.17129e-13 0)
(3 6.99885e-13 0)
(3 9.61645e-13 0)
(3 1.35357e-12 0)
(3 1.93367e-12 0)
(3 2.86321e-12 0)
(3 4.30323e-12 0)
(3 6.71937e-12 0)
(3 1.06435e-11 0)
(3 1.77487e-11 0)
(3 3.03028e-11 0)
(3 5.49232e-11 0)
(3 1.03571e-10 0)
(3 2.06688e-10 0)
(3 4.22811e-10 0)
(3 9.37571e-10 0)
(3 2.14632e-09 0)
(3 5.26803e-09 0)
(3 1.32656e-08 0)
(3 3.62264e-08 0)
(3 1.00285e-07 0)
(3 3.03028e-07 0)
(3 9.14289e-07 0)
(3 3.01096e-06 0)
(2.99999 9.71814e-06 0)
(2.99997 3.32804e-05 0)
(2.99991 0.000111901 0)
(2.99974 0.000332282 0)
(2.99798 0.0024837 0)
(2.42102 -1.32008 0)
(2.53563 -1.38519 0)
(2.79095 -1.44377 0)
(2.94948 -1.60502 0)
(3.05294 -1.71748 0)
(3.0566 -1.77231 0)
(3.07627 -1.6028 0)
(3.07969 -1.55795 0)
(3.12632 -1.40047 0)
(3.15098 -1.2706 0)
(3.16435 -1.13773 0)
(3.17511 -0.974718 0)
(3.16802 -0.770647 0)
(3.13075 -0.586044 0)
(3.0933 -0.46093 0)
(3.06002 -0.309482 0)
(3.02594 -0.152323 0)
(2.98394 0.0101934 0)
(2.92128 0.166688 0)
(2.84958 0.31271 0)
(2.81601 0.371523 0)
(2.82065 0.36888 0)
(2.85162 0.324494 0)
(2.93845 0.138249 0)
(2.99207 0.0176041 0)
(2.99977 0.000495738 0)
(3 4.44494e-06 0)
(3 2.31935e-08 0)
(3 9.89423e-11 0)
(3 3.26534e-13 0)
(2.41944 -1.3059 0)
(2.56128 -1.39268 0)
(2.80788 -1.45555 0)
(2.96766 -1.61997 0)
(3.04766 -1.72436 0)
(3.04386 -1.76897 0)
(3.06816 -1.59902 0)
(3.07886 -1.54521 0)
(3.12601 -1.38998 0)
(3.15864 -1.26528 0)
(3.19015 -1.0981 0)
(3.18982 -0.899532 0)
(3.15318 -0.694963 0)
(3.12304 -0.583005 0)
(3.09963 -0.430291 0)
(3.07274 -0.258401 0)
(3.03064 -0.0826916 0)
(2.96706 0.0872737 0)
(2.89329 0.233809 0)
(2.83395 0.342741 0)
(2.81298 0.377233 0)
(2.82193 0.362364 0)
(2.86599 0.281344 0)
(2.95262 0.104773 0)
(2.9955 0.00986351 0)
(2.99991 0.000182152 0)
(3 1.38393e-06 0)
(3 7.78686e-09 0)
(3 3.72879e-11 0)
(3 1.30573e-13 0)
(2.41113 -1.30621 0)
(2.56404 -1.39256 0)
(2.80076 -1.45412 0)
(2.93988 -1.60374 0)
(3.04644 -1.71807 0)
(3.04042 -1.76873 0)
(3.06618 -1.59648 0)
(3.08385 -1.53797 0)
(3.13365 -1.37611 0)
(3.18006 -1.22572 0)
(3.18681 -0.999764 0)
(3.15743 -0.809536 0)
(3.14531 -0.712421 0)
(3.12399 -0.571166 0)
(3.09556 -0.349714 0)
(3.0485 -0.164934 0)
(2.99255 -0.00248225 0)
(2.93152 0.142942 0)
(2.86817 0.268324 0)
(2.82151 0.36084 0)
(2.81216 0.382564 0)
(2.82446 0.356304 0)
(2.89392 0.237443 0)
(2.96799 0.0764243 0)
(2.99776 0.00518293 0)
(2.99996 8.44927e-05 0)
(3 5.97376e-07 0)
(3 3.29759e-09 0)
(3 1.57032e-11 0)
(3 5.53187e-14 0)
(2.40655 -1.30446 0)
(2.5639 -1.38934 0)
(2.79331 -1.46238 0)
(2.9284 -1.61424 0)
(3.05174 -1.70959 0)
(3.04052 -1.76769 0)
(3.06906 -1.5862 0)
(3.09427 -1.5115 0)
(3.14035 -1.34955 0)
(3.16081 -1.10928 0)
(3.15443 -0.947779 0)
(3.1532 -0.838843 0)
(3.13945 -0.72409 0)
(3.12267 -0.479335 0)
(3.06455 -0.273676 0)
(3.02469 -0.128502 0)
(2.98194 -0.000577758 0)
(2.92668 0.132853 0)
(2.86194 0.268564 0)
(2.81675 0.368772 0)
(2.81154 0.386516 0)
(2.82986 0.361451 0)
(2.90169 0.229797 0)
(2.97728 0.0575438 0)
(2.99872 0.00316645 0)
(2.99998 3.96257e-05 0)
(3 2.59177e-07 0)
(3 1.38993e-09 0)
(3 6.48331e-12 0)
(3 2.34759e-14 0)
(2.39656 -1.30625 0)
(2.54952 -1.38552 0)
(2.78826 -1.47153 0)
(2.9287 -1.62308 0)
(3.06882 -1.70476 0)
(3.05556 -1.76986 0)
(3.09066 -1.54403 0)
(3.10946 -1.47062 0)
(3.13873 -1.28417 0)
(3.14971 -1.08452 0)
(3.14978 -0.994438 0)
(3.14846 -0.860471 0)
(3.15521 -0.646723 0)
(3.09856 -0.413589 0)
(3.06293 -0.294949 0)
(3.02104 -0.149843 0)
(2.97565 -0.0105431 0)
(2.92073 0.135107 0)
(2.85642 0.28656 0)
(2.81401 0.375601 0)
(2.81381 0.386726 0)
(2.83658 0.36586 0)
(2.90844 0.223625 0)
(2.98232 0.0426188 0)
(2.99926 0.00168426 0)
(2.99999 1.80772e-05 0)
(3 1.11939e-07 0)
(3 5.86475e-10 0)
(3 2.66278e-12 0)
(3 1.05854e-14 0)
(2.37521 -1.30279 0)
(2.53329 -1.38049 0)
(2.7874 -1.4747 0)
(2.92039 -1.63948 0)
(3.0739 -1.70867 0)
(3.06693 -1.77487 0)
(3.10835 -1.50823 0)
(3.10883 -1.45831 0)
(3.13608 -1.28062 0)
(3.15793 -1.13231 0)
(3.15428 -1.00707 0)
(3.17592 -0.813181 0)
(3.12894 -0.536487 0)
(3.09735 -0.442028 0)
(3.05928 -0.294564 0)
(3.02389 -0.125744 0)
(2.97693 0.0472913 0)
(2.91047 0.205922 0)
(2.84064 0.335103 0)
(2.80993 0.381681 0)
(2.8136 0.378889 0)
(2.84101 0.330678 0)
(2.92313 0.168642 0)
(2.98865 0.024719 0)
(2.99963 0.000777156 0)
(3 7.45216e-06 0)
(3 4.56139e-08 0)
(3 2.38607e-10 0)
(3 1.07726e-12 0)
(3 5.61092e-15 0)
(2.36269 -1.29737 0)
(2.5281 -1.37645 0)
(2.78759 -1.47989 0)
(2.91214 -1.66724 0)
(3.07929 -1.71073 0)
(3.06005 -1.77359 0)
(3.10976 -1.52606 0)
(3.10873 -1.47302 0)
(3.14058 -1.2947 0)
(3.16159 -1.15082 0)
(3.20018 -0.94948 0)
(3.16987 -0.676589 0)
(3.13031 -0.549577 0)
(3.09668 -0.426834 0)
(3.06733 -0.22366 0)
(3.01358 -0.0262806 0)
(2.94086 0.144454 0)
(2.87176 0.275521 0)
(2.82227 0.36381 0)
(2.80645 0.384668 0)
(2.81463 0.371594 0)
(2.87107 0.280079 0)
(2.95414 0.109398 0)
(2.99435 0.0131296 0)
(2.99985 0.000326566 0)
(3 2.86885e-06 0)
(3 1.7563e-08 0)
(3 9.25333e-11 0)
(3 4.247e-13 0)
(3 3.78898e-15 0)
(2.35484 -1.29166 0)
(2.5181 -1.36902 0)
(2.78115 -1.491 0)
(2.91318 -1.69032 0)
(3.07913 -1.71237 0)
(3.05495 -1.76636 0)
(3.10894 -1.54773 0)
(3.12559 -1.46713 0)
(3.16903 -1.27513 0)
(3.20577 -1.09868 0)
(3.19717 -0.799912 0)
(3.15347 -0.648905 0)
(3.12231 -0.565087 0)
(3.09693 -0.329597 0)
(3.03082 -0.119351 0)
(2.97898 0.0333646 0)
(2.92137 0.165179 0)
(2.8599 0.284606 0)
(2.81488 0.372752 0)
(2.80584 0.388448 0)
(2.81702 0.364429 0)
(2.88253 0.265339 0)
(2.96373 0.0935695 0)
(2.99693 0.00796032 0)
(2.99994 0.000147025 0)
(3 1.15019e-06 0)
(3 6.7791e-09 0)
(3 3.52944e-11 0)
(3 1.65563e-13 0)
(3 3.43071e-15 0)
(2.3479 -1.28675 0)
(2.50811 -1.3559 0)
(2.77285 -1.49639 0)
(2.92432 -1.69311 0)
(3.07513 -1.71161 0)
(3.06939 -1.734 0)
(3.11133 -1.55358 0)
(3.16442 -1.38995 0)
(3.19697 -1.18298 0)
(3.19349 -0.939168 0)
(3.16652 -0.771159 0)
(3.14274 -0.688672 0)
(3.12947 -0.500836 0)
(3.05243 -0.233567 0)
(3.01666 -0.108539 0)
(2.96949 0.0188396 0)
(2.9133 0.153699 0)
(2.85193 0.291621 0)
(2.81019 0.383053 0)
(2.80446 0.395594 0)
(2.82375 0.370434 0)
(2.89019 0.270395 0)
(2.97108 0.0761907 0)
(2.99817 0.00461338 0)
(2.99997 6.78262e-05 0)
(3 4.73371e-07 0)
(3 2.67386e-09 0)
(3 1.35689e-11 0)
(3 6.69451e-14 0)
(3 3.65221e-15 0)
(2.34049 -1.27964 0)
(2.50581 -1.34812 0)
(2.76553 -1.50574 0)
(2.93676 -1.69482 0)
(3.07632 -1.70671 0)
(3.08917 -1.6795 0)
(3.12911 -1.52724 0)
(3.14277 -1.30969 0)
(3.16532 -1.11796 0)
(3.16831 -0.902909 0)
(3.15472 -0.823542 0)
(3.14303 -0.675911 0)
(3.09405 -0.378086 0)
(3.05589 -0.252106 0)
(3.00675 -0.117207 0)
(2.96089 0.0337719 0)
(2.90612 0.191422 0)
(2.83923 0.330746 0)
(2.80643 0.390937 0)
(2.80863 0.398535 0)
(2.8315 0.37837 0)
(2.90445 0.223429 0)
(2.98112 0.0448475 0)
(2.99907 0.00212941 0)
(2.99999 2.67077e-05 0)
(3 1.82511e-07 0)
(3 1.02249e-09 0)
(3 5.1364e-12 0)
(3 3.03844e-14 0)
(3 3.91265e-15 0)
(2.33669 -1.27726 0)
(2.50177 -1.34336 0)
(2.75098 -1.5356 0)
(2.96222 -1.69311 0)
(3.08012 -1.70209 0)
(3.08276 -1.66255 0)
(3.09472 -1.42335 0)
(3.11876 -1.25154 0)
(3.14481 -1.15501 0)
(3.16734 -0.956677 0)
(3.15794 -0.828392 0)
(3.1491 -0.552485 0)
(3.09408 -0.369969 0)
(3.04858 -0.255447 0)
(3.00651 -0.0635586 0)
(2.94759 0.12178 0)
(2.87784 0.272736 0)
(2.82199 0.363628 0)
(2.8039 0.391995 0)
(2.80664 0.392663 0)
(2.83599 0.339754 0)
(2.93165 0.15626 0)
(2.98878 0.0260977 0)
(2.99958 0.000939897 0)
(3 1.00675e-05 0)
(3 6.69976e-08 0)
(3 3.75478e-10 0)
(3 1.88623e-12 0)
(3 1.52201e-14 0)
(3 4.20361e-15 0)
(2.33301 -1.27725 0)
(2.49754 -1.3352 0)
(2.73255 -1.53202 0)
(2.97033 -1.6881 0)
(3.07292 -1.71027 0)
(3.06787 -1.59152 0)
(3.09029 -1.43117 0)
(3.12263 -1.30923 0)
(3.14817 -1.15007 0)
(3.16648 -0.976496 0)
(3.2005 -0.721694 0)
(3.12016 -0.448371 0)
(3.08632 -0.383941 0)
(3.05207 -0.176974 0)
(2.97681 0.0475112 0)
(2.91107 0.19893 0)
(2.85357 0.309428 0)
(2.81155 0.378016 0)
(2.80177 0.390703 0)
(2.80846 0.374278 0)
(2.86959 0.279649 0)
(2.94554 0.127753 0)
(2.99351 0.0156308 0)
(2.99982 0.000398156 0)
(3 3.74009e-06 0)
(3 2.40853e-08 0)
(3 1.33923e-10 0)
(3 6.73424e-13 0)
(3 8.03886e-15 0)
(3 4.25111e-15 0)
(2.33065 -1.27621 0)
(2.48108 -1.32368 0)
(2.71667 -1.52075 0)
(2.97629 -1.68378 0)
(3.05687 -1.73409 0)
(3.07337 -1.58791 0)
(3.08986 -1.48218 0)
(3.12558 -1.33311 0)
(3.17937 -1.08857 0)
(3.21788 -0.904286 0)
(3.15267 -0.554755 0)
(3.1214 -0.476229 0)
(3.08727 -0.308134 0)
(3.00642 -0.0540214 0)
(2.95878 0.0843934 0)
(2.90033 0.206203 0)
(2.84182 0.319899 0)
(2.80536 0.390347 0)
(2.80028 0.391244 0)
(2.81576 0.362478 0)
(2.88315 0.263417 0)
(2.96281 0.0957613 0)
(2.99689 0.00788844 0)
(2.99993 0.000161397 0)
(3 1.35404e-06 0)
(3 8.47117e-09 0)
(3 4.6613e-11 0)
(3 2.34804e-13 0)
(3 6.63118e-15 0)
(3 4.04795e-15 0)
(2.32131 -1.27057 0)
(2.45839 -1.3214 0)
(2.70157 -1.51544 0)
(2.97615 -1.68079 0)
(3.05362 -1.74082 0)
(3.08365 -1.61023 0)
(3.11759 -1.48226 0)
(3.18946 -1.28148 0)
(3.19891 -1.01269 0)
(3.17909 -0.710048 0)
(3.14441 -0.56578 0)
(3.1089 -0.4736 0)
(3.0389 -0.17556 0)
(2.99665 -0.0367021 0)
(2.94701 0.0813627 0)
(2.88746 0.222559 0)
(2.82949 0.347257 0)
(2.80114 0.400326 0)
(2.79727 0.398698 0)
(2.82292 0.366702 0)
(2.89406 0.262418 0)
(2.97686 0.0616896 0)
(2.9985 0.00395363 0)
(2.99997 6.24821e-05 0)
(3 4.79646e-07 0)
(3 2.92134e-09 0)
(3 1.58556e-11 0)
(3 8.05412e-14 0)
(3 6.60492e-15 0)
(3 4.09844e-15 0)
(2.31059 -1.26294 0)
(2.43895 -1.3237 0)
(2.68734 -1.51571 0)
(2.96464 -1.69106 0)
(3.07146 -1.71794 0)
(3.13144 -1.57955 0)
(3.18698 -1.3852 0)
(3.21176 -1.10517 0)
(3.19491 -0.916134 0)
(3.15577 -0.689198 0)
(3.12876 -0.613453 0)
(3.1008 -0.365369 0)
(3.03607 -0.157532 0)
(2.98621 -0.0416439 0)
(2.93405 0.127856 0)
(2.86897 0.281184 0)
(2.81765 0.374199 0)
(2.79833 0.405129 0)
(2.80199 0.407143 0)
(2.83265 0.377884 0)
(2.91492 0.205031 0)
(2.9836 0.0418521 0)
(2.99924 0.00192118 0)
(2.99999 2.39596e-05 0)
(3 1.70286e-07 0)
(3 1.00601e-09 0)
(3 5.34878e-12 0)
(3 2.82045e-14 0)
(3 6.49216e-15 0)
(3 4.38231e-15 0)
(2.30613 -1.25714 0)
(2.4268 -1.32399 0)
(2.67565 -1.53084 0)
(2.95433 -1.71329 0)
(3.09014 -1.66273 0)
(3.1576 -1.4683 0)
(3.15667 -1.23313 0)
(3.15423 -1.01385 0)
(3.15848 -0.938377 0)
(3.1509 -0.747502 0)
(3.13977 -0.571951 0)
(3.06865 -0.252278 0)
(3.0307 -0.1701 0)
(2.97605 0.0285113 0)
(2.90448 0.215624 0)
(2.84762 0.328738 0)
(2.80867 0.387443 0)
(2.80005 0.402825 0)
(2.8055 0.405519 0)
(2.8426 0.336877 0)
(2.9387 0.145162 0)
(2.99053 0.0233745 0)
(2.99968 0.000753815 0)
(3 8.31203e-06 0)
(3 5.75494e-08 0)
(3 3.3686e-10 0)
(3 1.76932e-12 0)
(3 1.02013e-14 0)
(3 5.90361e-15 0)
(3 4.63299e-15 0)
(2.30387 -1.25471 0)
(2.42025 -1.32163 0)
(2.66435 -1.5592 0)
(2.95606 -1.71482 0)
(3.09128 -1.61737 0)
(3.11216 -1.45884 0)
(3.12713 -1.27009 0)
(3.14405 -1.09414 0)
(3.15386 -0.954055 0)
(3.16166 -0.74037 0)
(3.13148 -0.390047 0)
(3.07675 -0.258995 0)
(3.02269 -0.0876345 0)
(2.93466 0.137574 0)
(2.88262 0.260591 0)