/*--------------------------------*- C++ -*----------------------------------*\
  =========                 |
  \\      /  F ield         | OpenFOAM: The Open Source CFD Toolbox
   \\    /   O peration     | Website:  https://openfoam.org
    \\  /    A nd           | Version:  7
     \\/     M anipulation  |
\*---------------------------------------------------------------------------*/
FoamFile
{
    version     2.0;
    format      ascii;
    class       volScalarField;
    location    "6.5";
    object      p;
}
// * * * * * * * * * * * * * * * * * * * * * * * * * * * * * * * * * * * * * //

dimensions      [1 -1 -2 0 0 0 0];

internalField   nonuniform List<scalar> 
32400
(
0.644322
0.662596
0.683
0.703748
0.72464
0.745359
0.766242
0.786791
0.807665
0.827899
0.84863
0.868194
0.888395
0.906788
0.925786
0.942487
0.958952
0.973676
0.986007
0.996671
1.00663
1.00984
1.01251
1.01204
1.0095
1.00279
0.990487
0.985818
0.987277
0.990374
0.993938
0.997195
1.00055
1.00177
0.99963
0.99626
0.992757
0.991863
0.993525
0.997222
1.0005
0.99961
0.996531
0.995015
0.995803
0.998704
0.999613
0.998753
0.997585
0.997454
0.997793
0.998039
0.998132
0.998633
0.998875
0.998534
0.998299
0.998575
0.999008
0.999229
0.630043
0.631109
0.633217
0.636583
0.641267
0.647486
0.655176
0.664655
0.675699
0.688877
0.703522
0.720519
0.738595
0.759037
0.779995
0.802789
0.825803
0.84881
0.872817
0.893562
0.915747
0.933428
0.950053
0.962344
0.971949
0.976897
0.9887
0.996612
1.00213
1.00514
1.00475
1.00199
1.00074
0.997209
0.993561
0.993186
0.993655
0.995629
0.99859
0.99891
0.9987
0.996994
0.995133
0.995309
0.997506
0.999246
0.998864
0.997776
0.99745
0.997894
0.998159
0.998081
0.998233
0.99872
0.998762
0.998451
0.998392
0.99862
0.999085
0.999261
0.629453
0.629466
0.6295
0.629559
0.629652
0.629818
0.630094
0.630582
0.631339
0.632536
0.634275
0.636929
0.640604
0.646002
0.653098
0.66308
0.675688
0.692625
0.712886
0.738391
0.767222
0.800585
0.836979
0.872997
0.91189
0.944201
0.972157
0.983997
0.991941
0.994754
0.995916
0.995342
0.991331
0.986973
0.989202
0.993868
0.999746
1.00234
1.0012
0.997704
0.994721
0.993236
0.994854
0.998579
0.999401
0.998294
0.996575
0.997008
0.998124
0.998353
0.997909
0.997847
0.998305
0.998503
0.998444
0.998376
0.998514
0.998764
0.998934
0.999095
0.62905
0.629027
0.629
0.628965
0.62893
0.62892
0.628942
0.628975
0.628985
0.628997
0.629029
0.629084
0.62917
0.629351
0.629773
0.63052
0.631652
0.633565
0.636533
0.641654
0.649188
0.661697
0.678604
0.704088
0.735645
0.77693
0.821969
0.864492
0.90679
0.931564
0.955521
0.966009
0.973479
0.980846
0.994275
1.00167
1.00595
1.00513
1.00164
0.996793
0.992034
0.994245
0.99802
1.00162
0.999679
0.996461
0.995925
0.997325
0.998894
0.998505
0.99778
0.998205
0.998693
0.998591
0.998252
0.998409
0.998873
0.998949
0.998902
0.999044
0.629014
0.629027
0.629041
0.629055
0.629071
0.629088
0.629109
0.629104
0.629092
0.629082
0.629078
0.629073
0.629076
0.629101
0.629036
0.628988
0.628945
0.62893
0.628936
0.629011
0.629274
0.629953
0.631326
0.634439
0.639933
0.651382
0.668783
0.699727
0.7391
0.790653
0.845556
0.89353
0.942458
0.969648
0.98628
0.992246
0.998178
0.996043
0.989858
0.991098
0.995567
1.00031
1.00064
0.999516
0.99722
0.995735
0.99696
0.998229
0.998353
0.997637
0.99772
0.998547
0.998686
0.998145
0.997991
0.99843
0.998861
0.998821
0.998812
0.998944
0.629302
0.629303
0.629308
0.629313
0.629319
0.629327
0.629333
0.629326
0.629314
0.629306
0.629286
0.629249
0.629206
0.629165
0.629118
0.629052
0.628976
0.628885
0.628781
0.628681
0.628529
0.628381
0.628245
0.628181
0.628235
0.628566
0.629641
0.632903
0.639659
0.655701
0.680858
0.724699
0.778888
0.838062
0.896133
0.926354
0.958636
0.966397
0.980886
0.992375
1.00488
1.00547
1.00326
0.994472
0.993457
0.995511
0.999217
0.999665
0.998299
0.99694
0.997973
0.999165
0.998665
0.997814
0.997996
0.998763
0.999081
0.998916
0.998826
0.998919
0.629615
0.629609
0.629605
0.629602
0.629595
0.629589
0.629595
0.629583
0.629558
0.629531
0.629497
0.629462
0.629426
0.629377
0.629315
0.629244
0.62915
0.629019
0.62886
0.62869
0.628512
0.62834
0.628119
0.627783
0.62765
0.627626
0.62765
0.627753
0.628005
0.628866
0.631124
0.637842
0.651233
0.682286
0.727157
0.790962
0.858793
0.914119
0.967228
0.984343
0.999438
0.998965
0.992816
0.989819
0.993771
0.999534
1.00002
0.998482
0.996085
0.996916
0.999336
0.999129
0.998278
0.997578
0.998119
0.99878
0.998842
0.998831
0.998841
0.998823
0.629596
0.629587
0.62958
0.62957
0.62956
0.629565
0.629555
0.629522
0.629496
0.629464
0.629436
0.629416
0.629385
0.629328
0.629253
0.629178
0.629081
0.62894
0.62877
0.628595
0.628413
0.628221
0.627994
0.627742
0.62763
0.627607
0.627586
0.627561
0.627571
0.627697
0.628003
0.628475
0.629345
0.632094
0.638921
0.658753
0.692494
0.753106
0.824253
0.883232
0.942303
0.957951
0.97564
0.988816
1.00402
1.00392
1.00055
0.994039
0.994895
0.998709
1.00065
0.999062
0.997154
0.997555
0.998733
0.999005
0.998646
0.998765
0.998885
0.998776
0.629611
0.629591
0.629573
0.629557
0.629545
0.629535
0.629511
0.62947
0.629417
0.62939
0.629375
0.629352
0.629313
0.629242
0.629164
0.629078
0.62896
0.62881
0.628664
0.628522
0.628371
0.628206
0.628034
0.627863
0.627681
0.627507
0.627404
0.627376
0.627396
0.627533
0.627831
0.628307
0.629079
0.629647
0.630054
0.631104
0.634363
0.646544
0.672029
0.727916
0.80087
0.876604
0.95239
0.980033
0.998339
0.997481
0.988041
0.991184
0.998281
1.00167
0.999969
0.99625
0.996464
0.998449
0.999172
0.998719
0.998424
0.998752
0.998893
0.998653
0.629674
0.629693
0.629729
0.629722
0.629696
0.629681
0.629675
0.629651
0.629618
0.629575
0.629485
0.629414
0.629379
0.629343
0.629301
0.629236
0.629139
0.629043
0.628976
0.628919
0.628854
0.628772
0.628652
0.628486
0.628271
0.627998
0.627746
0.627705
0.627788
0.627944
0.628156
0.628467
0.628952
0.629507
0.629939
0.629955
0.629793
0.630032
0.631484
0.639556
0.661035
0.71586
0.791365
0.868142
0.936265
0.957254
0.973988
0.997545
1.00515
1.00319
0.994437
0.994793
0.997427
1.00022
0.999538
0.997934
0.998272
0.998936
0.998873
0.998505
0.62864
0.628666
0.628704
0.628748
0.628801
0.62887
0.628944
0.629021
0.629111
0.629215
0.629337
0.629452
0.629553
0.629642
0.629722
0.629795
0.629858
0.629919
0.629995
0.630074
0.630099
0.630095
0.630047
0.629948
0.629816
0.629605
0.629299
0.629078
0.628931
0.628777
0.628687
0.62869
0.628872
0.629225
0.62958
0.629653
0.629552
0.629331
0.628763
0.628489
0.629537
0.636826
0.658298
0.7135
0.791433
0.880247
0.955827
0.987961
0.999739
0.990567
0.988872
0.994722
1.00071
1.00034
0.997773
0.997476
0.998736
0.998999
0.998525
0.998335
0.62805
0.628101
0.628164
0.628238
0.628341
0.628472
0.628605
0.628743
0.628881
0.62903
0.629214
0.629425
0.629628
0.629827
0.630033
0.630238
0.630433
0.630616
0.630786
0.630943
0.631081
0.631144
0.63114
0.631121
0.631079
0.630968
0.630726
0.630349
0.629918
0.629504
0.629149
0.628851
0.628728
0.628741
0.629003
0.629423
0.629465
0.629371
0.629163
0.628831
0.628351
0.628442
0.629908
0.637525
0.660837
0.718619
0.804347
0.885032
0.943865
0.964924
0.98806
1.00412
1.00334
0.997586
0.996104
0.997642
0.999726
0.998966
0.998042
0.998357
0.627522
0.627584
0.627656
0.627745
0.627871
0.628014
0.628169
0.628379
0.628675
0.628972
0.629202
0.629388
0.62958
0.629799
0.630035
0.630269
0.630487
0.630686
0.630857
0.630996
0.631118
0.631215
0.631247
0.631241
0.631222
0.631152
0.630947
0.63057
0.630113
0.62966
0.629148
0.628569
0.628252
0.628214
0.628285
0.628608
0.629096
0.629662
0.63
0.629987
0.629717
0.62929
0.629088
0.629267
0.630988
0.639166
0.66742
0.730735
0.821913
0.922828
0.97681
0.998639
0.995846
0.990074
0.995447
1.00077
0.999995
0.997423
0.9976
0.998536
0.628374
0.628405
0.628453
0.628531
0.628667
0.628736
0.62876
0.628784
0.628817
0.628897
0.629026
0.629175
0.629332
0.629503
0.629695
0.629897
0.630097
0.630284
0.630441
0.630572
0.63073
0.630816
0.630745
0.630666
0.630596
0.630457
0.630179
0.629844
0.629571
0.629362
0.629039
0.628487
0.627975
0.627872
0.627938
0.628287
0.628962
0.629969
0.630621
0.63068
0.630542
0.630209
0.629535
0.629032
0.628987
0.629294
0.631617
0.641957
0.679454
0.757775
0.853112
0.932081
0.963052
0.984267
1.00394
1.00306
0.997313
0.996527
0.998191
0.998894
0.629514
0.629502
0.629455
0.629413
0.629368
0.629334
0.629313
0.629254
0.629096
0.628883
0.628723
0.628622
0.628531
0.628443
0.62843
0.628461
0.628511
0.628592
0.62871
0.628841
0.629008
0.629076
0.628987
0.628954
0.629011
0.629004
0.628912
0.628893
0.629068
0.629232
0.629291
0.629158
0.628779
0.628503
0.628371
0.628353
0.628859
0.629925
0.630596
0.63069
0.630587
0.63035
0.629656
0.628763
0.62854
0.628636
0.629023
0.629762
0.633414
0.650362
0.702549
0.79171
0.904961
0.968183
0.998444
0.994579
0.991816
0.996593
0.999823
0.99862
0.629879
0.629969
0.629994
0.629948
0.629762
0.629465
0.629142
0.628872
0.628653
0.62843
0.628183
0.627939
0.627724
0.627509
0.627248
0.627031
0.627022
0.627125
0.627349
0.627477
0.627501
0.627483
0.627486
0.627592
0.627858
0.628253
0.628531
0.628672
0.629015
0.629697
0.630352
0.63076
0.630788
0.630472
0.629771
0.629093
0.629151
0.629667
0.629871
0.629858
0.629755
0.629614
0.629186
0.628541
0.628395
0.628564
0.629277
0.630318
0.630535
0.631471
0.637337
0.666271
0.736883
0.833975
0.932551
0.956749
0.986902
1.00259
1.00096
0.996638
0.628743
0.628894
0.628987
0.629081
0.629131
0.629087
0.628878
0.628612
0.628354
0.628091
0.62784
0.627636
0.627459
0.627275
0.627048
0.626831
0.626813
0.62695
0.627275
0.627604
0.62765
0.627516
0.627469
0.627577
0.627848
0.628252
0.628697
0.628941
0.629368
0.630079
0.630873
0.631574
0.631784
0.631566
0.630712
0.629669
0.629215
0.628947
0.628545
0.62836
0.628402
0.628678
0.62876
0.628667
0.62876
0.629288
0.630001
0.630565
0.630704
0.630602
0.63063
0.632448
0.644417
0.692845
0.783479
0.89502
0.972553
0.997134
0.990561
0.993596
0.62861
0.628667
0.628741
0.628852
0.628988
0.629076
0.629174
0.629285
0.629393
0.6295
0.629467
0.629165
0.629101
0.629216
0.62927
0.629225
0.629047
0.628912
0.62887
0.628786
0.628604
0.628417
0.628461
0.628742
0.629187
0.629279
0.62902
0.628629
0.628672
0.629141
0.629972
0.630779
0.631
0.630791
0.629893
0.628959
0.628462
0.628133
0.627748
0.627639
0.627806
0.628372
0.629108
0.629684
0.630264
0.63073
0.630646
0.630629
0.630538
0.63014
0.629336
0.628802
0.629434
0.635191
0.661864
0.73938
0.844198
0.928404
0.966342
0.993735
0.632123
0.632337
0.632537
0.632735
0.632974
0.633298
0.633547
0.633591
0.633532
0.63349
0.633556
0.633113
0.63203
0.631728
0.631725
0.631838
0.631895
0.631878
0.631725
0.63151
0.631313
0.631194
0.631145
0.631043
0.630728
0.630295
0.629481
0.627747
0.626435
0.62642
0.626653
0.627343
0.627783
0.62764
0.627303
0.627467
0.627508
0.627386
0.627386
0.627451
0.627839
0.628876
0.629712
0.630464
0.631157
0.631181
0.630802
0.629924
0.629232
0.628847
0.628424
0.628311
0.628416
0.629099
0.631837
0.647221
0.696426
0.796746
0.916947
0.985751
0.636688
0.636961
0.637062
0.637133
0.637272
0.637319
0.637307
0.637225
0.636645
0.635914
0.635779
0.635113
0.633304
0.631173
0.630209
0.629937
0.629905
0.629958
0.629973
0.629812
0.629088
0.628867
0.629376
0.629931
0.63008
0.629759
0.629109
0.627843
0.625897
0.625208
0.625354
0.626103
0.626314
0.62629
0.626425
0.626824
0.627575
0.628932
0.629931
0.630128
0.630278
0.630144
0.629852
0.630047
0.630455
0.630291
0.629416
0.628209
0.627677
0.627729
0.628035
0.628234
0.629106
0.630495
0.630847
0.631772
0.637367
0.670867
0.748504
0.892682
0.643473
0.643761
0.643799
0.643715
0.64334
0.642711
0.642004
0.641346
0.640426
0.639162
0.638758
0.63834
0.637206
0.634517
0.632925
0.63274
0.632822
0.633589
0.634306
0.634418
0.634009
0.633982
0.634701
0.635314
0.635184
0.635317
0.63656
0.636809
0.635924
0.635721
0.635498
0.634063
0.630859
0.629411
0.629259
0.629618
0.631278
0.633323
0.634464
0.634636
0.634303
0.632514
0.629485
0.628492
0.628455
0.628307
0.627842
0.627192
0.626956
0.627103
0.627774
0.629233
0.630543
0.631107
0.630812
0.629738
0.629431
0.632431
0.649458
0.76436
0.684281
0.684009
0.683612
0.681814
0.681054
0.681046
0.680188
0.678491
0.677412
0.676633
0.675122
0.673629
0.67291
0.671269
0.668158
0.665837
0.665549
0.665693
0.665632
0.664661
0.661581
0.660511
0.660332
0.658964
0.658137
0.658254
0.658448
0.658954
0.659361
0.658906
0.657275
0.65404
0.649058
0.644824
0.641761
0.640067
0.639438
0.638543
0.637199
0.63629
0.634921
0.631994
0.628575
0.627859
0.628053
0.628146
0.62793
0.62773
0.627935
0.628884
0.630918
0.631581
0.631174
0.630431
0.629203
0.627876
0.627583
0.627785
0.629335
0.666703
0.729267
0.727791
0.726407
0.726322
0.726834
0.726422
0.725069
0.724883
0.725462
0.724993
0.724585
0.725123
0.725061
0.723868
0.721766
0.719592
0.718835
0.717914
0.715889
0.711958
0.709018
0.707354
0.705065
0.700256
0.695186
0.691721
0.686392
0.680879
0.680275
0.679068
0.675359
0.671539
0.67018
0.669498
0.668121
0.66465
0.659162
0.653698
0.648079
0.643763
0.643058
0.642225
0.640703
0.638903
0.63685
0.63563
0.635959
0.636811
0.636494
0.635815
0.635167
0.633612
0.631484
0.62901
0.627871
0.627363
0.627496
0.628837
0.630398
0.636817
0.811964
0.810721
0.809463
0.808291
0.807073
0.805753
0.80457
0.802888
0.800873
0.798928
0.795681
0.794094
0.793231
0.791113
0.787289
0.784877
0.782151
0.778985
0.777583
0.774713
0.77161
0.771738
0.771464
0.768493
0.764553
0.761133
0.756558
0.751081
0.746002
0.740948
0.734736
0.725283
0.719549
0.719507
0.718443
0.713272
0.70809
0.703591
0.696667
0.687648
0.682952
0.680542
0.676531
0.670264
0.664054
0.658122
0.65323
0.648661
0.64419
0.639854
0.635413
0.631871
0.630528
0.62924
0.628486
0.629038
0.630797
0.632789
0.631956
0.62969
0.905892
0.904664
0.902441
0.901171
0.900405
0.899065
0.897016
0.895634
0.894275
0.891665
0.889556
0.88855
0.88696
0.884145
0.880927
0.878008
0.875109
0.871057
0.866778
0.86303
0.859044
0.8548
0.850607
0.845078
0.839262
0.834566
0.828863
0.820368
0.816561
0.814016
0.809458
0.802839
0.795704
0.789727
0.781635
0.766721
0.759512
0.754858
0.748377
0.742102
0.732091
0.721688
0.713366
0.704994
0.695798
0.687177
0.679089
0.671096
0.663486
0.656362
0.650568
0.646283
0.643433
0.641785
0.640502
0.639935
0.638617
0.636968
0.632327
0.628629
1.0161
1.0147
1.01257
1.01044
1.00885
1.00713
1.00547
1.00339
1.00083
0.997411
0.993026
0.991762
0.990838
0.988094
0.982904
0.978438
0.975484
0.972021
0.967218
0.963279
0.959212
0.954168
0.949357
0.944263
0.938259
0.932017
0.92587
0.919328
0.912043
0.904175
0.896334
0.887894
0.879166
0.871627
0.864609
0.855344
0.845538
0.834789
0.820552
0.812881
0.805544
0.794887
0.781453
0.770664
0.760334
0.749873
0.739131
0.728465
0.717954
0.707146
0.697082
0.686299
0.676497
0.66609
0.657604
0.648983
0.642169
0.636117
0.632883
0.63066
1.14096
1.13938
1.13776
1.13461
1.13051
1.12948
1.12839
1.12632
1.12336
1.12001
1.11538
1.1126
1.11076
1.10737
1.10278
1.09845
1.09407
1.08965
1.08468
1.07899
1.07378
1.06806
1.06146
1.05518
1.04846
1.04101
1.03326
1.02553
1.01796
1.00972
1.00078
0.991368
0.981493
0.971112
0.959816
0.948078
0.936172
0.925303
0.914182
0.901032
0.885558
0.873076
0.860552
0.84618
0.831346
0.81688
0.801956
0.787295
0.771871
0.75744
0.742247
0.727705
0.712765
0.698941
0.6859
0.673058
0.663712
0.653675
0.650501
0.646389
1.27894
1.27705
1.27522
1.27336
1.2699
1.26655
1.26472
1.26249
1.25963
1.25621
1.25205
1.24838
1.24494
1.2409
1.23643
1.23153
1.22627
1.22131
1.21595
1.20948
1.20297
1.19648
1.18953
1.18186
1.17384
1.16525
1.15638
1.14759
1.13806
1.12833
1.11801
1.1073
1.0956
1.08325
1.07122
1.0577
1.04445
1.03045
1.01429
1.00022
0.985846
0.96876
0.952926
0.936866
0.920258
0.902234
0.884873
0.867237
0.850016
0.832398
0.815136
0.79808
0.780709
0.764875
0.747884
0.732407
0.715608
0.699571
0.68529
0.665359
1.41091
1.40858
1.40757
1.40653
1.40456
1.40218
1.39999
1.39735
1.39379
1.39112
1.38859
1.38482
1.38071
1.37708
1.37305
1.36835
1.36335
1.35828
1.35302
1.34718
1.34077
1.33406
1.32664
1.31881
1.31025
1.30156
1.29184
1.28168
1.27088
1.25959
1.24835
1.23594
1.22338
1.2096
1.19536
1.18117
1.16478
1.14926
1.13266
1.11431
1.09573
1.07714
1.05848
1.03964
1.02
0.999401
0.978484
0.95734
0.936582
0.914927
0.893982
0.871827
0.850563
0.828734
0.807888
0.786292
0.765359
0.744565
0.726035
0.698483
1.49927
1.49872
1.49825
1.49764
1.49729
1.49727
1.49692
1.49587
1.49394
1.49239
1.4911
1.48936
1.48765
1.48575
1.48314
1.48037
1.47726
1.47396
1.47041
1.46619
1.46166
1.45671
1.45106
1.44505
1.4387
1.43158
1.42345
1.41422
1.40405
1.39253
1.38102
1.36936
1.35684
1.34363
1.32949
1.31446
1.29802
1.28118
1.26333
1.24362
1.22192
1.19894
1.17623
1.15529
1.13318
1.11009
1.08525
1.06097
1.036
1.01143
0.986406
0.961787
0.936497
0.911726
0.887545
0.863163
0.839978
0.816166
0.796254
0.762538
1.51895
1.51873
1.51848
1.51815
1.51773
1.51738
1.51709
1.51699
1.51711
1.51731
1.51758
1.51797
1.51842
1.51881
1.51926
1.51954
1.51951
1.51942
1.51962
1.51947
1.51875
1.51808
1.51712
1.51589
1.51497
1.51357
1.5105
1.50573
1.50038
1.49365
1.48649
1.47903
1.47059
1.46098
1.45034
1.43862
1.42427
1.40862
1.395
1.37909
1.35893
1.33436
1.30901
1.28406
1.25916
1.23339
1.20655
1.17796
1.14895
1.11992
1.09099
1.06246
1.03305
1.00395
0.974751
0.946275
0.917671
0.889062
0.86375
0.822029
1.52299
1.52337
1.52327
1.52265
1.52203
1.52166
1.52119
1.52059
1.51995
1.51917
1.518
1.51703
1.51682
1.51674
1.51666
1.51684
1.51696
1.5172
1.51732
1.51733
1.51794
1.51843
1.51802
1.51812
1.51919
1.51983
1.5198
1.5204
1.52152
1.52194
1.52146
1.52028
1.51849
1.51645
1.51439
1.51058
1.50305
1.49559
1.48994
1.48277
1.47165
1.45683
1.43894
1.41799
1.39356
1.36648
1.33861
1.30892
1.27701
1.24339
1.20988
1.17609
1.14256
1.1084
1.07499
1.04173
1.00933
0.976345
0.947477
0.900723
1.48521
1.48626
1.48742
1.48833
1.48918
1.49002
1.49079
1.49201
1.49281
1.49345
1.49532
1.49871
1.49961
1.50018
1.50142
1.50302
1.50343
1.5033
1.50337
1.50436
1.50628
1.50718
1.5073
1.50784
1.50863
1.50796
1.50799
1.50993
1.51165
1.51305
1.51468
1.51538
1.51614
1.51671
1.51639
1.51653
1.51728
1.51671
1.51419
1.51208
1.51109
1.50967
1.50653
1.50085
1.49135
1.47729
1.45886
1.43698
1.41044
1.37929
1.34421
1.30699
1.26829
1.22889
1.18963
1.15043
1.1124
1.07388
1.04035
0.985269
1.33917
1.34141
1.34464
1.34625
1.34733
1.34928
1.35279
1.35602
1.35863
1.36066
1.36352
1.36846
1.37336
1.37646
1.37976
1.38457
1.38905
1.39344
1.39812
1.40234
1.40746
1.41352
1.41965
1.42475
1.43001
1.43632
1.44293
1.44954
1.45601
1.46168
1.46704
1.4732
1.4787
1.4838
1.48797
1.49128
1.49547
1.50065
1.5058
1.50685
1.50644
1.50737
1.50791
1.50812
1.50789
1.5069
1.50448
1.50023
1.49313
1.48122
1.4627
1.43734
1.4049
1.36648
1.32351
1.27843
1.23283
1.18676
1.14671
1.08218
1.11016
1.11171
1.11431
1.11666
1.11808
1.11989
1.12261
1.12527
1.12825
1.1318
1.13464
1.13773
1.14213
1.14638
1.15037
1.15505
1.16044
1.16622
1.1725
1.17885
1.18597
1.19397
1.20259
1.21167
1.22138
1.23186
1.2428
1.25443
1.26646
1.2797
1.29322
1.30784
1.32371
1.33902
1.35594
1.37173
1.38699
1.40397
1.41802
1.43275
1.44844
1.46053
1.47129
1.47986
1.48709
1.49434
1.4983
1.49863
1.49859
1.49836
1.49707
1.49348
1.48636
1.47212
1.44803
1.41405
1.37156
1.32204
1.27508
1.19687
1.00998
1.01025
1.01052
1.0109
1.01137
1.01173
1.01213
1.01265
1.0132
1.01384
1.01454
1.01522
1.01603
1.01701
1.01804
1.01917
1.02049
1.02198
1.02367
1.02558
1.02773
1.03021
1.03301
1.03626
1.03993
1.04419
1.04897
1.05447
1.06074
1.06803
1.07646
1.08616
1.09731
1.11018
1.12438
1.14094
1.15883
1.17914
1.2019
1.22628
1.25234
1.28019
1.30882
1.33672
1.36679
1.39179
1.41763
1.43908
1.45564
1.47078
1.47922
1.48664
1.48645
1.48605
1.48412
1.47841
1.46677
1.44373
1.4113
1.33519
1.00021
1.00021
1.00022
1.00023
1.00025
1.00026
1.00027
1.00029
1.00031
1.00033
1.00035
1.00038
1.00041
1.00045
1.00049
1.00054
1.00059
1.00066
1.00074
1.00083
1.00095
1.00108
1.00124
1.00144
1.00169
1.00199
1.00236
1.00282
1.0034
1.00413
1.00506
1.00626
1.00779
1.00977
1.01232
1.0156
1.01991
1.02534
1.03254
1.04155
1.05339
1.06764
1.0863
1.10833
1.13503
1.16687
1.20136
1.24126
1.28119
1.3231
1.36114
1.39765
1.42722
1.44793
1.46387
1.47362
1.47286
1.47102
1.46703
1.44065
1
1
1
1
1
1
1
1
1
1
1
1
1
1
1
1
1.00001
1.00001
1.00001
1.00001
1.00001
1.00001
1.00001
1.00002
1.00002
1.00002
1.00003
1.00004
1.00005
1.00006
1.00008
1.00011
1.00014
1.0002
1.00028
1.00039
1.00057
1.00082
1.00121
1.0018
1.00271
1.0041
1.00622
1.00953
1.01437
1.02188
1.03248
1.0481
1.06933
1.09755
1.13421
1.17684
1.22727
1.28026
1.33011
1.37748
1.41456
1.43758
1.45528
1.45449
1
1
1
1
1
1
1
1
1
1
1
1
1
1
1
1
1
1
1
1
1
1
1
1
1
1
1
1
1
1
1
1
1
1
1
1
1.00001
1.00001
1.00001
1.00002
1.00004
1.00006
1.00011
1.00019
1.00035
1.00065
1.00123
1.0023
1.00431
1.00794
1.01436
1.0253
1.04277
1.06977
1.10769
1.15677
1.216
1.2781
1.33502
1.39872
1
1
1
1
1
1
1
1
1
1
1
1
1
1
1
1
1
1
1
1
1
1
1
1
1
1
1
1
1
1
1
1
1
1
1
1
1
1
1
1
1
1
1
1
1
1.00001
1.00001
1.00003
1.00007
1.00015
1.00036
1.00085
1.00196
1.00448
1.00975
1.02028
1.03938
1.072
1.1148
1.21197
1
1
1
1
1
1
1
1
1
1
1
1
1
1
1
1
1
1
1
1
1
1
1
1
1
1
1
1
1
1
1
1
1
1
1
1
1
1
1
1
1
1
1
1
1
1
1
1
1
1
1
1.00001
1.00002
1.00007
1.00022
1.00064
1.00178
1.00499
1.01132
1.0442
1
1
1
1
1
1
1
1
1
1
1
1
1
1
1
1
1
1
1
1
1
1
1
1
1
1
1
1
1
1
1
1
1
1
1
1
1
1
1
1
1
1
1
1
1
1
1
1
1
1
1
1
1
1
1
1.00001
1.00002
1.00009
1.00028
1.00293
1
1
1
1
1
1
1
1
1
1
1
1
1
1
1
1
1
1
1
1
1
1
1
1
1
1
1
1
1
1
1
1
1
1
1
1
1
1
1
1
1
1
1
1
1
1
1
1
1
1
1
1
1
1
1
1
1
1
1
1.00007
1
1
1
1
1
1
1
1
1
1
1
1
1
1
1
1
1
1
1
1
1
1
1
1
1
1
1
1
1
1
1
1
1
1
1
1
1
1
1
1
1
1
1
1
1
1
1
1
1
1
1
1
1
1
1
1
1
1
1
1
1
1
1
1
1
1
1
1
1
1
1
1
1
1
1
1
1
1
1
1
1
1
1
1
1
1
1
1
1
1
1
1
1
1
1
1
1
1
1
1
1
1
1
1
1
1
1
1
1
1
1
1
1
1
1
1
1
1
1
1
0.629868
0.629666
0.629464
0.629044
0.628997
0.629303
0.629625
0.629611
0.629629
0.629669
0.628612
0.627999
0.627459
0.628361
0.629528
0.629742
0.628664
0.628554
0.631811
0.636292
0.643044
0.684815
0.730818
0.813604
0.907362
1.01797
1.14303
1.28136
1.41376
1.49995
1.51923
1.52208
1.48374
1.33638
1.10809
1.00962
1.0002
1
1
1
1
1
1
1
1
0.629875
0.629691
0.629472
0.629022
0.628983
0.629314
0.629637
0.629622
0.629629
0.62966
0.62857
0.627936
0.627397
0.628375
0.629588
0.629666
0.62865
0.628478
0.63135
0.635685
0.643083
0.686148
0.733077
0.816164
0.909978
1.02088
1.14631
1.28481
1.41694
1.50084
1.51958
1.5209
1.48189
1.33255
1.10512
1.00912
1.00018
1
1
1
1
1
1
1
1
0.629868
0.62969
0.629472
0.629003
0.628964
0.629325
0.629636
0.62961
0.629596
0.629657
0.628537
0.62788
0.627346
0.628413
0.6297
0.629688
0.628695
0.62831
0.630675
0.635378
0.643758
0.687616
0.734679
0.818547
0.91257
1.02366
1.14975
1.28854
1.41977
1.50164
1.51991
1.52042
1.48044
1.32947
1.10236
1.00868
1.00017
1
1
1
1
1
1
1
1
0.629862
0.629678
0.629457
0.628991
0.62895
0.629333
0.629614
0.629574
0.629572
0.629651
0.628512
0.627824
0.627305
0.628471
0.629876
0.629813
0.62875
0.628129
0.629966
0.635429
0.644865
0.689308
0.735487
0.82106
0.915207
1.02682
1.15386
1.2929
1.42252
1.50246
1.52028
1.52085
1.47902
1.32649
1.09946
1.00819
1.00016
1
1
1
1
1
1
1
1
0.629829
0.629647
0.629439
0.628979
0.628932
0.629331
0.629591
0.629545
0.629567
0.629644
0.628492
0.627776
0.627277
0.628548
0.630082
0.630054
0.628844
0.627978
0.629363
0.635732
0.646328
0.690857
0.735745
0.823721
0.917801
1.03039
1.15799
1.29694
1.42556
1.5032
1.52068
1.52174
1.47735
1.32234
1.09612
1.00769
1.00014
1
1
1
1
1
1
1
1
0.629793
0.629627
0.629429
0.628961
0.62891
0.629314
0.629566
0.629521
0.629573
0.629642
0.628477
0.627737
0.627261
0.628625
0.630299
0.630363
0.628935
0.627803
0.628866
0.635782
0.647983
0.69227
0.737637
0.826607
0.920626
1.0342
1.16197
1.30077
1.42918
1.50391
1.52115
1.52189
1.47537
1.31695
1.09269
1.00724
1.00013
1
1
1
1
1
1
1
1
0.629773
0.62961
0.629414
0.628929
0.628888
0.629291
0.629532
0.629499
0.629583
0.629647
0.628466
0.627704
0.62725
0.628693
0.630497
0.630585
0.628993
0.627582
0.628502
0.635551
0.649688
0.693737
0.743002
0.829682
0.924118
1.03816
1.16611
1.30492
1.43268
1.50475
1.52166
1.52144
1.47313
1.31211
1.0895
1.0068
1.00012
1
1
1
1
1
1
1
1
0.62976
0.629573
0.629375
0.62891
0.628873
0.629266
0.629485
0.629477
0.629596
0.629656
0.628462
0.627674
0.627242
0.628755
0.630663
0.630688
0.629007
0.627313
0.628241
0.635411
0.650905
0.695207
0.746222
0.832696
0.928047
1.04196
1.17041
1.30953
1.43595
1.50573
1.52219
1.52093
1.4707
1.30738
1.08628
1.00635
1.00011
1
1
1
1
1
1
1
1
0.629757
0.629532
0.629343
0.628907
0.628862
0.629246
0.62943
0.629454
0.629612
0.629667
0.628461
0.627644
0.627227
0.628813
0.630805
0.630696
0.628931
0.626997
0.627998
0.635285
0.651212
0.696607
0.748064
0.835598
0.931596
1.04548
1.17477
1.31442
1.43937
1.50666
1.52277
1.52081
1.46809
1.30225
1.0829
1.0059
1.0001
1
1
1
1
1
1
1
1
0.629767
0.629492
0.629306
0.628904
0.628854
0.629232
0.629374
0.629429
0.62963
0.629681
0.628462
0.627615
0.627197
0.628865
0.630916
0.630674
0.628809
0.626633
0.627688
0.635073
0.650932
0.69777
0.749904
0.83857
0.935002
1.04928
1.17944
1.31939
1.44302
1.50757
1.52334
1.52086
1.46547
1.29676
1.07942
1.00548
1.00009
1
1
1
1
1
1
1
1
0.629812
0.629453
0.629226
0.628889
0.628858
0.629213
0.629322
0.629406
0.629646
0.629697
0.628463
0.627598
0.62718
0.62892
0.630984
0.630679
0.628611
0.626183
0.6273
0.634798
0.650667
0.698513
0.752353
0.841857
0.938629
1.05403
1.18459
1.32433
1.44674
1.50859
1.52394
1.52081
1.46303
1.29113
1.07593
1.00506
1.00008
1
1
1
1
1
1
1
1
0.629837
0.629436
0.629115
0.628886
0.628876
0.629179
0.629274
0.629391
0.62966
0.629716
0.628469
0.627598
0.627206
0.629009
0.631016
0.630669
0.62828
0.625634
0.626859
0.634365
0.651199
0.698615
0.756786
0.845499
0.942655
1.05927
1.19004
1.32932
1.4505
1.5098
1.52462
1.52019
1.46092
1.28535
1.07237
1.00465
1.00007
1
1
1
1
1
1
1
1
0.629841
0.629432
0.629007
0.628892
0.628887
0.629151
0.62923
0.62939
0.629685
0.629761
0.628516
0.627663
0.627344
0.629152
0.631036
0.630662
0.627951
0.625034
0.6264
0.634103
0.652441
0.698494
0.761291
0.849225
0.9471
1.06449
1.19552
1.33451
1.45438
1.51116
1.52541
1.51916
1.4591
1.27928
1.06873
1.00425
1.00006
1
1
1
1
1
1
1
1
0.629823
0.629408
0.628938
0.62887
0.628887
0.629132
0.62919
0.629399
0.629757
0.629827
0.628609
0.627795
0.627554
0.629336
0.631063
0.630667
0.627658
0.624456
0.625981
0.634363
0.653909
0.698878
0.764806
0.852816
0.951827
1.06968
1.20096
1.34002
1.45839
1.51262
1.5264
1.51815
1.45713
1.27284
1.06506
1.00387
1.00006
1
1
1
1
1
1
1
1
0.629748
0.629343
0.628895
0.628853
0.62889
0.629115
0.629151
0.629412
0.629821
0.629874
0.628714
0.627943
0.627792
0.629537
0.631114
0.63068
0.627393
0.623958
0.625663
0.635046
0.656022
0.699855
0.768762
0.85645
0.956661
1.0749
1.20665
1.34583
1.46249
1.51415
1.52757
1.51724
1.45429
1.26611
1.06139
1.0035
1.00005
1
1
1
1
1
1
1
1
0.629678
0.629299
0.628862
0.628848
0.628921
0.629106
0.629114
0.629415
0.629845
0.629904
0.628839
0.628101
0.628028
0.629713
0.631174
0.630697
0.627216
0.623588
0.625525
0.636037
0.658397
0.702518
0.773339
0.860249
0.961632
1.08025
1.21298
1.35192
1.46663
1.5157
1.52873
1.51647
1.45089
1.2591
1.05773
1.00316
1.00004
1
1
1
1
1
1
1
1
0.629612
0.629254
0.628836
0.628846
0.62896
0.629104
0.629087
0.629401
0.62985
0.629936
0.628992
0.628276
0.628234
0.629807
0.631196
0.630715
0.627141
0.623371
0.625521
0.637985
0.661041
0.707771
0.778061
0.864051
0.966766
1.08598
1.21995
1.35823
1.47081
1.51724
1.5295
1.51577
1.4478
1.25177
1.05406
1.00283
1.00004
1
1
1
1
1
1
1
1
0.629545
0.629192
0.628814
0.62885
0.628988
0.629105
0.629076
0.629382
0.629852
0.629987
0.629168
0.628461
0.6284
0.629818
0.631184
0.630726
0.627126
0.623292
0.625627
0.641226
0.665107
0.71195
0.782588
0.867917
0.9723
1.0924
1.22712
1.36462
1.47504
1.51875
1.52968
1.51501
1.44501
1.24418
1.05041
1.00252
1.00003
1
1
1
1
1
1
1
1
0.62947
0.629126
0.628799
0.62887
0.62901
0.629111
0.629075
0.62938
0.629875
0.630066
0.629364
0.628642
0.628528
0.629799
0.631126
0.630781
0.627159
0.623289
0.626224
0.645058
0.66928
0.714146
0.78672
0.872238
0.978348
1.09921
1.23417
1.37117
1.47928
1.52027
1.52935
1.51404
1.44221
1.23635
1.04681
1.00223
1.00003
1
1
1
1
1
1
1
1
0.629376
0.629058
0.628786
0.628893
0.629036
0.629124
0.629076
0.62939
0.629929
0.630168
0.629581
0.628811
0.628624
0.629764
0.631099
0.630937
0.627312
0.623396
0.62735
0.648319
0.671266
0.714652
0.790636
0.876944
0.984598
1.1059
1.24137
1.37815
1.48339
1.52177
1.52845
1.51233
1.43867
1.22827
1.04332
1.00196
1.00002
1
1
1
1
1
1
1
1
0.629271
0.62897
0.628765
0.628907
0.629091
0.629152
0.629075
0.629419
0.630004
0.630288
0.62981
0.628974
0.628701
0.629677
0.631113
0.631087
0.627688
0.623924
0.627789
0.650097
0.671733
0.714025
0.79466
0.881746
0.990922
1.11272
1.24921
1.38549
1.48735
1.52317
1.52728
1.50964
1.43335
1.21991
1.0399
1.00172
1.00002
1
1
1
1
1
1
1
1
0.629159
0.628877
0.628742
0.628926
0.629183
0.629174
0.629074
0.629472
0.630098
0.630414
0.630028
0.629152
0.628774
0.629417
0.631073
0.631107
0.627857
0.624381
0.627674
0.650494
0.671728
0.714453
0.799124
0.886911
0.997494
1.12028
1.25762
1.39296
1.49118
1.52437
1.52676
1.50697
1.4267
1.21123
1.03657
1.00149
1.00002
1
1
1
1
1
1
1
1
0.629037
0.628792
0.628737
0.628971
0.629264
0.62919
0.629079
0.629564
0.630226
0.630539
0.630206
0.629362
0.628852
0.629142
0.630697
0.630915
0.627827
0.624414
0.627311
0.650238
0.671673
0.718908
0.804265
0.892945
1.0045
1.12869
1.26626
1.40062
1.49489
1.52529
1.52676
1.50462
1.41971
1.20219
1.03333
1.00129
1.00001
1
1
1
1
1
1
1
1
0.6289
0.628713
0.628755
0.629065
0.62933
0.629213
0.629144
0.629691
0.630379
0.630656
0.630353
0.629583
0.628915
0.628992
0.630084
0.630477
0.627792
0.624442
0.627528
0.650467
0.672198
0.725527
0.809697
0.899884
1.01198
1.1375
1.27517
1.40857
1.49845
1.52592
1.52682
1.50246
1.41249
1.19284
1.0302
1.0011
1.00001
1
1
1
1
1
1
1
1
0.628739
0.628657
0.628764
0.629117
0.629382
0.62927
0.62925
0.629821
0.630518
0.630746
0.630489
0.629794
0.628949
0.62894
0.629629
0.629909
0.627769
0.624898
0.628807
0.652453
0.67418
0.732383
0.814881
0.907188
1.0198
1.14661
1.28459
1.41674
1.50185
1.52643
1.52675
1.50032
1.4049
1.18323
1.02717
1.00093
1.00001
1
1
1
1
1
1
1
1
0.628568
0.628606
0.628762
0.62915
0.62944
0.629356
0.629351
0.629936
0.630607
0.630811
0.630597
0.629987
0.628975
0.628845
0.629315
0.629561
0.627878
0.626271
0.630273
0.65459
0.676826
0.738746
0.819616
0.914594
1.02797
1.15615
1.29456
1.42497
1.50511
1.52705
1.52603
1.4975
1.39673
1.17333
1.02425
1.00078
1.00001
1
1