/*--------------------------------*- C++ -*----------------------------------*\
  =========                 |
  \\      /  F ield         | OpenFOAM: The Open Source CFD Toolbox
   \\    /   O peration     | Website:  https://openfoam.org
    \\  /    A nd           | Version:  7
     \\/     M anipulation  |
\*---------------------------------------------------------------------------*/
FoamFile
{
    version     2.0;
    format      ascii;
    class       volVectorField;
    location    "7.5";
    object      U;
}
// * * * * * * * * * * * * * * * * * * * * * * * * * * * * * * * * * * * * * //

dimensions      [0 1 -1 0 0 0 0];

internalField   nonuniform List<vector> 
90000
(
(4.07188 -1.0638 0)
(4.04669 -1.00861 0)
(4.01863 -0.894633 0)
(4.00131 -0.796116 0)
(3.99242 -0.75374 0)
(3.98811 -0.718602 0)
(3.97435 -0.618061 0)
(3.97317 -0.577089 0)
(3.97133 -0.529064 0)
(3.97241 -0.499013 0)
(3.96728 -0.429802 0)
(3.96963 -0.408453 0)
(3.96784 -0.354879 0)
(3.97113 -0.336054 0)
(3.96764 -0.281246 0)
(3.97184 -0.267318 0)
(3.96845 -0.212963 0)
(3.97235 -0.205959 0)
(3.96827 -0.152189 0)
(3.97221 -0.146312 0)
(3.96813 -0.0968213 0)
(3.97216 -0.0959086 0)
(3.96891 -0.0496696 0)
(3.97438 -0.0521625 0)
(3.97422 -0.00863742 0)
(3.97764 -0.0129073 0)
(3.97284 0.01616 0)
(3.97624 0.00811995 0)
(3.96555 0.0273336 0)
(3.96295 0.028557 0)
(3.95939 0.0366183 0)
(3.95777 0.0373955 0)
(3.95714 0.0377241 0)
(3.95669 0.0355014 0)
(3.95582 0.0360673 0)
(3.95564 0.0335832 0)
(3.95529 0.0321872 0)
(3.95572 0.0365875 0)
(3.95507 0.0385173 0)
(3.95338 0.0413349 0)
(3.95148 0.0428864 0)
(3.94892 0.0468292 0)
(3.94572 0.0497558 0)
(3.93925 0.0518997 0)
(3.93557 0.0593046 0)
(3.93518 0.0577077 0)
(3.93455 0.0569105 0)
(3.93167 0.0515199 0)
(3.92999 0.0476673 0)
(3.92813 0.0390929 0)
(3.92747 0.0374879 0)
(3.92622 0.0319877 0)
(3.92596 0.0314728 0)
(3.92497 0.0252609 0)
(3.92531 0.0240639 0)
(3.92643 0.0267639 0)
(3.92857 0.0344429 0)
(3.93075 0.0423735 0)
(3.93207 0.0474447 0)
(3.93135 0.0465452 0)
(3.93027 0.0432366 0)
(3.92918 0.0412527 0)
(3.92826 0.0391703 0)
(3.92676 0.0359663 0)
(3.92611 0.0355976 0)
(3.92461 0.0308793 0)
(3.92517 0.0325833 0)
(3.92701 0.0396615 0)
(3.92859 0.0455311 0)
(3.92994 0.0508778 0)
(3.92993 0.0507018 0)
(3.92878 0.0450744 0)
(3.92763 0.0411024 0)
(3.92722 0.0342334 0)
(3.92701 0.0381015 0)
(3.92781 0.0413186 0)
(3.92897 0.046013 0)
(3.93135 0.0488936 0)
(3.93149 0.048128 0)
(3.93089 0.0461104 0)
(3.92998 0.0414057 0)
(3.93079 0.041334 0)
(3.93155 0.0421727 0)
(3.93321 0.045635 0)
(3.9337 0.0464878 0)
(3.93335 0.0440667 0)
(3.93266 0.0410181 0)
(3.93298 0.0387974 0)
(3.93368 0.0408453 0)
(3.93509 0.0446456 0)
(3.93571 0.0451003 0)
(3.93633 0.0448355 0)
(3.93737 0.0451255 0)
(3.93803 0.0467714 0)
(3.93875 0.0473528 0)
(3.93925 0.0462801 0)
(3.93968 0.0449584 0)
(3.94036 0.0449725 0)
(3.94099 0.0451242 0)
(3.94178 0.0439694 0)
(4.10067 -1.15314 0)
(4.10063 -1.15312 0)
(4.10061 -1.15301 0)
(4.10056 -1.15301 0)
(4.10054 -1.15286 0)
(4.10046 -1.1529 0)
(4.10043 -1.15273 0)
(4.10034 -1.15283 0)
(4.10032 -1.15257 0)
(4.10021 -1.15274 0)
(4.09984 -1.15182 0)
(4.09913 -1.14956 0)
(4.09748 -1.14458 0)
(4.09516 -1.13795 0)
(4.09189 -1.12542 0)
(4.08795 -1.11191 0)
(4.08285 -1.08809 0)
(4.07719 -1.06614 0)
(4.06937 -1.02571 0)
(4.06201 -0.993261 0)
(4.05184 -0.933037 0)
(4.0431 -0.890612 0)
(4.02972 -0.805892 0)
(4.02166 -0.757702 0)
(4.00638 -0.650441 0)
(4.00094 -0.600734 0)
(3.98305 -0.475541 0)
(3.98228 -0.433807 0)
(3.96368 -0.307627 0)
(3.96831 -0.283079 0)
(3.94969 -0.173277 0)
(3.957 -0.158615 0)
(3.93982 -0.0698432 0)
(3.94624 -0.0621824 0)
(3.93158 0.00538674 0)
(3.93623 0.0086464 0)
(3.92623 0.0542305 0)
(3.92957 0.0547047 0)
(3.92312 0.0810034 0)
(3.92518 0.0833653 0)
(3.92007 0.0998075 0)
(3.91786 0.103003 0)
(3.91781 0.114159 0)
(3.91584 0.111031 0)
(3.91371 0.101863 0)
(3.91538 0.0849519 0)
(3.91552 0.0632999 0)
(3.91756 0.0466319 0)
(3.92039 0.0389368 0)
(3.92126 0.0309131 0)
(3.92282 0.0272849 0)
(3.92255 0.0202033 0)
(3.922 0.0209664 0)
(3.92244 0.0257423 0)
(3.92461 0.0373774 0)
(3.92572 0.053748 0)
(3.9229 0.0666308 0)
(3.92149 0.0731927 0)
(3.91852 0.072872 0)
(3.91378 0.0673673 0)
(3.91177 0.0603515 0)
(3.90677 0.0468968 0)
(3.90621 0.0426332 0)
(3.90695 0.0333515 0)
(3.9081 0.0360699 0)
(3.90972 0.0405559 0)
(3.9126 0.0483555 0)
(3.91465 0.0500728 0)
(3.91572 0.0551183 0)
(3.91503 0.0546669 0)
(3.91314 0.0504439 0)
(3.91227 0.0479903 0)
(3.912 0.0396844 0)
(3.91283 0.038752 0)
(3.91461 0.040889 0)
(3.91602 0.0435623 0)
(3.91797 0.0483266 0)
(3.91791 0.047752 0)
(3.91694 0.0430693 0)
(3.91657 0.0388074 0)
(3.91695 0.0404435 0)
(3.9178 0.0431443 0)
(3.92024 0.0492623 0)
(3.92077 0.0492692 0)
(3.92091 0.046268 0)
(3.91959 0.0420441 0)
(3.92019 0.0399001 0)
(3.92097 0.0411555 0)
(3.9226 0.0435602 0)
(3.92402 0.0444755 0)
(3.92481 0.0446149 0)
(3.9256 0.0436198 0)
(3.92672 0.0443898 0)
(3.9277 0.0447026 0)
(3.92863 0.0447686 0)
(3.92925 0.0449199 0)
(3.9299 0.0460399 0)
(3.93089 0.0462389 0)
(3.93172 0.046665 0)
(3.9329 0.0451488 0)
(4.0986 -1.15287 0)
(4.09849 -1.1529 0)
(4.09838 -1.15284 0)
(4.09824 -1.15288 0)
(4.09814 -1.15276 0)
(4.09799 -1.15282 0)
(4.0979 -1.15264 0)
(4.09769 -1.15285 0)
(4.09761 -1.15258 0)
(4.09738 -1.15276 0)
(4.09727 -1.15252 0)
(4.09699 -1.15268 0)
(4.09691 -1.15264 0)
(4.09684 -1.15255 0)
(4.09679 -1.15234 0)
(4.09671 -1.15226 0)
(4.09664 -1.15206 0)
(4.09655 -1.15195 0)
(4.09645 -1.15175 0)
(4.09628 -1.15177 0)
(4.09617 -1.15154 0)
(4.09598 -1.15167 0)
(4.0959 -1.1514 0)
(4.09569 -1.15163 0)
(4.09564 -1.15126 0)
(4.09548 -1.15168 0)
(4.09409 -1.14752 0)
(4.09117 -1.13845 0)
(4.08458 -1.11386 0)
(4.07635 -1.08297 0)
(4.06322 -1.02237 0)
(4.05147 -0.968463 0)
(4.03439 -0.870272 0)
(4.02313 -0.806391 0)
(4.00445 -0.679745 0)
(3.99726 -0.621793 0)
(3.97856 -0.485539 0)
(3.97776 -0.44552 0)
(3.95908 -0.316894 0)
(3.96222 -0.293673 0)
(3.94527 -0.18673 0)
(3.94585 -0.171783 0)
(3.93609 -0.101122 0)
(3.93926 -0.0940194 0)
(3.93061 -0.0583995 0)
(3.93786 -0.0506584 0)
(3.92504 -0.0175359 0)
(3.92587 -0.0124949 0)
(3.92219 -0.00146542 0)
(3.92231 0.00568521 0)
(3.9212 0.0118697 0)
(3.91937 0.0178724 0)
(3.91604 0.0258225 0)
(3.90818 0.0407376 0)
(3.90493 0.0561426 0)
(3.90467 0.0611705 0)
(3.90155 0.059976 0)
(3.89712 0.0545924 0)
(3.89536 0.0492264 0)
(3.89409 0.0433407 0)
(3.89501 0.0404351 0)
(3.89528 0.0375399 0)
(3.89692 0.0328225 0)
(3.89798 0.0333889 0)
(3.90105 0.0393231 0)
(3.903 0.0438407 0)
(3.90569 0.0542067 0)
(3.9057 0.0549895 0)
(3.90561 0.0522393 0)
(3.90467 0.0463502 0)
(3.90306 0.0391672 0)
(3.90413 0.030921 0)
(3.90326 0.0358652 0)
(3.90423 0.0408266 0)
(3.9063 0.046142 0)
(3.90754 0.0511248 0)
(3.90706 0.0500726 0)
(3.90546 0.047005 0)
(3.9039 0.0437599 0)
(3.90557 0.037508 0)
(3.9068 0.0391832 0)
(3.90758 0.0426232 0)
(3.91033 0.0455909 0)
(3.90929 0.046157 0)
(3.90844 0.0434366 0)
(3.90717 0.0373751 0)
(3.90953 0.0389114 0)
(3.91039 0.0412798 0)
(3.91255 0.0456201 0)
(3.9132 0.0459444 0)
(3.91399 0.0450953 0)
(3.91506 0.0460188 0)
(3.91597 0.0471917 0)
(3.91698 0.0482906 0)
(3.91791 0.0473139 0)
(3.91835 0.044435 0)
(3.91932 0.0437317 0)
(3.92038 0.0448582 0)
(3.92125 0.0441136 0)
(3.92253 0.0429946 0)
(4.09635 -1.15153 0)
(4.0963 -1.15143 0)
(4.09619 -1.1515 0)
(4.09612 -1.15144 0)
(4.096 -1.15154 0)
(4.09593 -1.15145 0)
(4.09585 -1.15138 0)
(4.09572 -1.15148 0)
(4.09562 -1.15143 0)
(4.09556 -1.15124 0)
(4.09543 -1.1513 0)
(4.09534 -1.15123 0)
(4.09524 -1.15123 0)
(4.09516 -1.15114 0)
(4.09505 -1.15119 0)
(4.09494 -1.15117 0)
(4.09483 -1.15116 0)
(4.09478 -1.15097 0)
(4.09465 -1.15103 0)
(4.09455 -1.15101 0)
(4.09445 -1.15106 0)
(4.09437 -1.15103 0)
(4.09426 -1.15108 0)
(4.09421 -1.15102 0)
(4.09408 -1.15116 0)
(4.09402 -1.15105 0)
(4.09396 -1.15109 0)
(4.09392 -1.15112 0)
(4.09389 -1.15108 0)
(4.09386 -1.15107 0)
(4.09383 -1.15108 0)
(4.09379 -1.15106 0)
(4.09378 -1.15099 0)
(4.09371 -1.15097 0)
(4.09363 -1.15094 0)
(4.09356 -1.15101 0)
(4.09152 -1.14391 0)
(4.08704 -1.12749 0)
(4.07665 -1.08198 0)
(4.06514 -1.03089 0)
(4.04577 -0.924882 0)
(4.0318 -0.847035 0)
(4.00626 -0.684375 0)
(3.99866 -0.607157 0)
(3.96666 -0.411032 0)
(3.97412 -0.359036 0)
(3.94146 -0.184403 0)
(3.95494 -0.155216 0)
(3.92254 -0.0255124 0)
(3.9326 -0.0034323 0)
(3.90593 0.0745671 0)
(3.91133 0.0983182 0)
(3.89271 0.138312 0)
(3.88914 0.142826 0)
(3.88314 0.127319 0)
(3.88524 0.0885605 0)
(3.88591 0.0571296 0)
(3.89071 0.0458188 0)
(3.89183 0.0377049 0)
(3.89128 0.0347242 0)
(3.89302 0.033141 0)
(3.89379 0.0336902 0)
(3.89573 0.0360684 0)
(3.89918 0.0430493 0)
(3.90202 0.0585984 0)
(3.90293 0.0580716 0)
(3.90205 0.0571256 0)
(3.90023 0.0532779 0)
(3.89671 0.0429141 0)
(3.89718 0.0390822 0)
(3.8968 0.0324418 0)
(3.89725 0.0319574 0)
(3.89948 0.0408813 0)
(3.8999 0.0443565 0)
(3.9022 0.0523437 0)
(3.90221 0.0509371 0)
(3.90083 0.0462367 0)
(3.89982 0.0380209 0)
(3.89843 0.0385275 0)
(3.89966 0.0411119 0)
(3.90221 0.0469915 0)
(3.90311 0.0504739 0)
(3.90339 0.0505967 0)
(3.90224 0.0427896 0)
(3.90018 0.0398079 0)
(3.90158 0.0381931 0)
(3.90262 0.0419675 0)
(3.9042 0.043972 0)
(3.9047 0.0451305 0)
(3.90513 0.0446178 0)
(3.90596 0.0433485 0)
(3.90683 0.0438115 0)
(3.90733 0.0448412 0)
(3.90787 0.0443413 0)
(3.90842 0.0449374 0)
(3.90884 0.046152 0)
(3.90992 0.0464666 0)
(3.91084 0.0454832 0)
(3.91134 0.0454023 0)
(3.91226 0.0435375 0)
(4.0946 -1.15113 0)
(4.09458 -1.15112 0)
(4.09457 -1.15105 0)
(4.09454 -1.15104 0)
(4.09449 -1.15111 0)
(4.09445 -1.1511 0)
(4.09443 -1.15101 0)
(4.09436 -1.15107 0)
(4.09431 -1.15109 0)
(4.09429 -1.15098 0)
(4.09426 -1.15096 0)
(4.09421 -1.15099 0)
(4.09415 -1.15106 0)
(4.09411 -1.15106 0)
(4.09405 -1.15106 0)
(4.09396 -1.15113 0)
(4.09391 -1.15111 0)
(4.09389 -1.15105 0)
(4.09387 -1.15102 0)
(4.09382 -1.1511 0)
(4.09378 -1.15116 0)
(4.09374 -1.15123 0)
(4.0937 -1.15125 0)
(4.09364 -1.15126 0)
(4.09357 -1.15131 0)
(4.09355 -1.15128 0)
(4.09354 -1.15127 0)
(4.09348 -1.1513 0)
(4.09346 -1.1513 0)
(4.09345 -1.1513 0)
(4.09343 -1.15131 0)
(4.09341 -1.15129 0)
(4.09339 -1.15123 0)
(4.09332 -1.15125 0)
(4.09327 -1.15129 0)
(4.09322 -1.1513 0)
(4.09311 -1.15131 0)
(4.09276 -1.15123 0)
(4.09266 -1.1512 0)
(4.09254 -1.15114 0)
(4.09239 -1.15111 0)
(4.09226 -1.15112 0)
(4.09219 -1.15116 0)
(4.09201 -1.15102 0)
(4.08824 -1.13728 0)
(4.08078 -1.10514 0)
(4.06371 -1.02705 0)
(4.04846 -0.935598 0)
(4.02502 -0.788629 0)
(4.01266 -0.676485 0)
(3.99053 -0.505997 0)
(3.98837 -0.423106 0)
(3.97024 -0.279296 0)
(3.97688 -0.220481 0)
(3.95089 -0.138593 0)
(3.95833 -0.0954418 0)
(3.93184 -0.0320814 0)
(3.93315 -0.0224115 0)
(3.91935 0.00169618 0)
(3.91538 0.0124909 0)
(3.91327 0.0263784 0)
(3.90798 0.0389434 0)
(3.90059 0.0518029 0)
(3.89859 0.0679731 0)
(3.89725 0.0688335 0)
(3.89345 0.0630711 0)
(3.89054 0.047725 0)
(3.89153 0.0371066 0)
(3.88716 0.025195 0)
(3.88936 0.0245275 0)
(3.89112 0.0284667 0)
(3.89639 0.0405661 0)
(3.89659 0.0470443 0)
(3.89984 0.0532878 0)
(3.89916 0.0525258 0)
(3.89693 0.0436016 0)
(3.89522 0.0383367 0)
(3.89623 0.0322064 0)
(3.89681 0.0347514 0)
(3.89872 0.0418916 0)
(3.90015 0.0493872 0)
(3.90019 0.0492516 0)
(3.89964 0.0458723 0)
(3.89818 0.0373714 0)
(3.89861 0.0354174 0)
(3.89934 0.0387005 0)
(3.8996 0.0424752 0)
(3.90075 0.0477037 0)
(3.9009 0.0459021 0)
(3.90041 0.04438 0)
(3.90081 0.0453066 0)
(3.90159 0.0472911 0)
(3.90167 0.0472259 0)
(3.90183 0.0468975 0)
(3.90186 0.043821 0)
(3.90248 0.0434749 0)
(3.90297 0.0445891 0)
(3.90345 0.0447081 0)
(3.90335 0.0427888 0)
(3.90398 0.0426277 0)
(4.09378 -1.15159 0)
(4.09376 -1.15161 0)
(4.09374 -1.15164 0)
(4.09373 -1.1516 0)
(4.09372 -1.15158 0)
(4.09368 -1.15161 0)
(4.09366 -1.15161 0)
(4.09364 -1.15157 0)
(4.09361 -1.15158 0)
(4.09357 -1.15162 0)
(4.09355 -1.1516 0)
(4.09352 -1.15161 0)
(4.09349 -1.15163 0)
(4.09345 -1.15161 0)
(4.09339 -1.15161 0)
(4.09331 -1.15166 0)
(4.09324 -1.15174 0)
(4.09322 -1.15173 0)
(4.09318 -1.15176 0)
(4.09316 -1.15177 0)
(4.09313 -1.15177 0)
(4.0931 -1.15182 0)
(4.09307 -1.15178 0)
(4.09303 -1.15173 0)
(4.09305 -1.15171 0)
(4.09307 -1.15168 0)
(4.09309 -1.15166 0)
(4.09307 -1.15165 0)
(4.09306 -1.15164 0)
(4.09306 -1.1516 0)
(4.09306 -1.15156 0)
(4.09303 -1.15154 0)
(4.093 -1.15147 0)
(4.09298 -1.15141 0)
(4.09295 -1.15142 0)
(4.09285 -1.15144 0)
(4.09262 -1.15132 0)
(4.09241 -1.15122 0)
(4.09236 -1.15115 0)
(4.09228 -1.15103 0)
(4.09217 -1.15094 0)
(4.09205 -1.15093 0)
(4.09193 -1.15092 0)
(4.09177 -1.15087 0)
(4.09166 -1.15082 0)
(4.09158 -1.1508 0)
(4.09141 -1.15076 0)
(4.09099 -1.15065 0)
(4.09082 -1.15062 0)
(4.09077 -1.15052 0)
(4.08826 -1.13976 0)
(4.08113 -1.10601 0)
(4.06313 -0.998473 0)
(4.0506 -0.889234 0)
(4.01318 -0.623131 0)
(4.02028 -0.533357 0)
(3.97381 -0.258196 0)
(3.99821 -0.234023 0)
(3.94861 -0.036123 0)
(3.95847 -0.0222971 0)
(3.92444 0.0754711 0)
(3.91355 0.0977694 0)
(3.90366 0.126567 0)
(3.89459 0.104639 0)
(3.88946 0.0712163 0)
(3.89057 0.0540953 0)
(3.88921 0.0419486 0)
(3.88818 0.0324932 0)
(3.89014 0.03192 0)
(3.89087 0.0317538 0)
(3.89713 0.0464975 0)
(3.89805 0.0565686 0)
(3.89757 0.0568895 0)
(3.89619 0.0532563 0)
(3.89343 0.0426714 0)
(3.89241 0.0360532 0)
(3.89244 0.0339236 0)
(3.89365 0.0357241 0)
(3.8981 0.0452585 0)
(3.89952 0.0521482 0)
(3.89921 0.0521892 0)
(3.89741 0.0460047 0)
(3.89686 0.0402717 0)
(3.89462 0.0344848 0)
(3.89568 0.0361715 0)
(3.89734 0.0421847 0)
(3.89865 0.0465189 0)
(3.89847 0.0465728 0)
(3.89895 0.0450232 0)
(3.89766 0.0433909 0)
(3.8981 0.0446277 0)
(3.89889 0.0463889 0)
(3.89895 0.046492 0)
(3.89904 0.0450705 0)
(3.89874 0.0451948 0)
(3.89895 0.0456207 0)
(3.89892 0.0452281 0)
(3.89862 0.0444757 0)
(3.89834 0.0434624 0)
(3.89885 0.0420591 0)
(4.09361 -1.15127 0)
(4.0936 -1.15125 0)
(4.09359 -1.15124 0)
(4.09356 -1.15121 0)
(4.09352 -1.15118 0)
(4.0935 -1.15117 0)
(4.09348 -1.15116 0)
(4.09346 -1.15118 0)
(4.09344 -1.15118 0)
(4.09338 -1.15115 0)
(4.09336 -1.15114 0)
(4.09334 -1.15113 0)
(4.09332 -1.15111 0)
(4.09331 -1.1511 0)
(4.09322 -1.15112 0)
(4.09311 -1.15119 0)
(4.09302 -1.15128 0)
(4.09299 -1.15133 0)
(4.09296 -1.15134 0)
(4.09289 -1.15132 0)
(4.09278 -1.1513 0)
(4.09272 -1.15128 0)
(4.09267 -1.15127 0)
(4.09262 -1.15126 0)
(4.0926 -1.15126 0)
(4.09258 -1.15125 0)
(4.09257 -1.15125 0)
(4.09251 -1.15122 0)
(4.09246 -1.15119 0)
(4.09244 -1.15115 0)
(4.09243 -1.15112 0)
(4.09237 -1.15104 0)
(4.09226 -1.15099 0)
(4.09219 -1.15097 0)
(4.0921 -1.15099 0)
(4.09191 -1.1509 0)
(4.09162 -1.15076 0)
(4.09156 -1.15071 0)
(4.09151 -1.15059 0)
(4.09147 -1.15041 0)
(4.09142 -1.15026 0)
(4.09135 -1.1503 0)
(4.09119 -1.15033 0)
(4.0909 -1.15022 0)
(4.09074 -1.15021 0)
(4.09058 -1.15017 0)
(4.09031 -1.15013 0)
(4.08997 -1.15013 0)
(4.08971 -1.15007 0)
(4.08962 -1.15002 0)
(4.08967 -1.14995 0)
(4.08967 -1.14982 0)
(4.0896 -1.14973 0)
(4.08954 -1.14956 0)
(4.08943 -1.14968 0)
(4.08785 -1.14389 0)
(4.07554 -1.08607 0)
(4.06391 -0.998313 0)
(4.03579 -0.797292 0)
(4.03022 -0.677989 0)
(3.99517 -0.414174 0)
(4.00387 -0.362617 0)
(3.96865 -0.159694 0)
(3.98573 -0.148854 0)
(3.93587 -0.0433147 0)
(3.93511 -0.0296197 0)
(3.91984 0.00353935 0)
(3.91463 0.0247096 0)
(3.90974 0.0406164 0)
(3.90039 0.0537259 0)
(3.89848 0.0701789 0)
(3.89359 0.0667109 0)
(3.89031 0.0507095 0)
(3.88858 0.0365915 0)
(3.88758 0.0196329 0)
(3.88837 0.021521 0)
(3.89132 0.0309914 0)
(3.89586 0.0457272 0)
(3.89734 0.0553553 0)
(3.89684 0.0544407 0)
(3.89505 0.0464661 0)
(3.89253 0.0354272 0)
(3.89072 0.0286735 0)
(3.89174 0.0333269 0)
(3.89358 0.0417908 0)
(3.89593 0.0486401 0)
(3.89624 0.0479977 0)
(3.89592 0.0447492 0)
(3.89525 0.0423165 0)
(3.89581 0.0441827 0)
(3.89686 0.04714 0)
(3.89706 0.047401 0)
(3.89703 0.0455982 0)
(3.89715 0.0436141 0)
(3.89697 0.0440758 0)
(3.89739 0.0453077 0)
(3.89728 0.0451488 0)
(3.8967 0.0436587 0)
(3.89678 0.0424083 0)
(3.89648 0.0421462 0)
(4.09322 -1.15082 0)
(4.09317 -1.1508 0)
(4.09315 -1.15079 0)
(4.09312 -1.15079 0)
(4.09308 -1.15077 0)
(4.09305 -1.15076 0)
(4.09304 -1.15075 0)
(4.09302 -1.15075 0)
(4.09291 -1.15073 0)
(4.09287 -1.15073 0)
(4.09283 -1.15072 0)
(4.09282 -1.15069 0)
(4.09282 -1.15065 0)
(4.09278 -1.15057 0)
(4.09254 -1.15072 0)
(4.09234 -1.15084 0)
(4.09231 -1.15085 0)
(4.09225 -1.15087 0)
(4.09224 -1.15088 0)
(4.09219 -1.1509 0)
(4.09208 -1.1509 0)
(4.09202 -1.15091 0)
(4.09195 -1.15091 0)
(4.09186 -1.15093 0)
(4.09185 -1.15095 0)
(4.09193 -1.15096 0)
(4.09201 -1.15098 0)
(4.09204 -1.15098 0)
(4.09205 -1.15094 0)
(4.09203 -1.15088 0)
(4.09203 -1.15083 0)
(4.09199 -1.15076 0)
(4.09185 -1.15071 0)
(4.09167 -1.1507 0)
(4.09145 -1.15066 0)
(4.09107 -1.15055 0)
(4.09101 -1.15052 0)
(4.09097 -1.15045 0)
(4.09097 -1.15028 0)
(4.0909 -1.1501 0)
(4.09084 -1.1499 0)
(4.09076 -1.14977 0)
(4.09047 -1.14979 0)
(4.09034 -1.14983 0)
(4.09013 -1.14992 0)
(4.08994 -1.14996 0)
(4.0897 -1.15 0)
(4.08923 -1.15001 0)
(4.08902 -1.14997 0)
(4.08897 -1.14992 0)
(4.089 -1.14985 0)
(4.08901 -1.14979 0)
(4.08902 -1.14964 0)
(4.08904 -1.14944 0)
(4.08901 -1.14934 0)
(4.0887 -1.14949 0)
(4.08848 -1.14981 0)
(4.08852 -1.15002 0)
(4.08864 -1.15018 0)
(4.08873 -1.15017 0)
(4.08272 -1.11886 0)
(4.0731 -1.0451 0)
(4.03696 -0.814208 0)
(4.03928 -0.65653 0)
(3.98182 -0.306204 0)
(4.00847 -0.258257 0)
(3.94871 -0.0171683 0)
(3.94884 0.0105521 0)
(3.91879 0.0921321 0)
(3.91061 0.122715 0)
(3.89662 0.102035 0)
(3.89535 0.0652132 0)
(3.89287 0.0429312 0)
(3.89022 0.0311488 0)
(3.89088 0.0285252 0)
(3.89212 0.0321817 0)
(3.89712 0.0517318 0)
(3.89695 0.0612558 0)
(3.89513 0.0595115 0)
(3.89084 0.0474269 0)
(3.8896 0.0402806 0)
(3.88788 0.0311565 0)
(3.8887 0.0332457 0)
(3.89222 0.0421973 0)
(3.89401 0.0501838 0)
(3.89412 0.0496952 0)
(3.89295 0.0459867 0)
(3.89207 0.0410147 0)
(3.89253 0.0432431 0)
(3.89331 0.0462429 0)
(3.89523 0.0489765 0)
(3.89469 0.0471425 0)
(3.89435 0.0443586 0)
(3.89439 0.044143 0)
(3.89497 0.0455185 0)
(3.89601 0.0459733 0)
(3.89581 0.0444406 0)
(3.89524 0.0416267 0)
(3.89563 0.0413172 0)
(3.89543 0.0418315 0)
(4.09267 -1.15066 0)
(4.09266 -1.15066 0)
(4.09265 -1.15066 0)
(4.09262 -1.15064 0)
(4.0926 -1.15062 0)
(4.09259 -1.15061 0)
(4.09257 -1.1506 0)
(4.09255 -1.15058 0)
(4.09254 -1.15055 0)
(4.09249 -1.15055 0)
(4.09247 -1.15056 0)
(4.0924 -1.15052 0)
(4.09229 -1.15034 0)
(4.09198 -1.15036 0)
(4.0917 -1.15051 0)
(4.09163 -1.15057 0)
(4.09159 -1.15058 0)
(4.09157 -1.15056 0)
(4.09155 -1.15057 0)
(4.09151 -1.15061 0)
(4.09149 -1.15063 0)
(4.09146 -1.15067 0)
(4.09143 -1.15072 0)
(4.0914 -1.15076 0)
(4.09135 -1.15078 0)
(4.09132 -1.15073 0)
(4.09125 -1.15067 0)
(4.09116 -1.15066 0)
(4.09104 -1.1506 0)
(4.09098 -1.15043 0)
(4.09097 -1.15036 0)
(4.0909 -1.15033 0)
(4.09084 -1.15039 0)
(4.09083 -1.15047 0)
(4.09074 -1.15042 0)
(4.09041 -1.15031 0)
(4.0903 -1.1503 0)
(4.09018 -1.15019 0)
(4.09018 -1.14999 0)
(4.09014 -1.14984 0)
(4.09005 -1.1497 0)
(4.08997 -1.14949 0)
(4.08985 -1.14945 0)
(4.08966 -1.14964 0)
(4.08954 -1.1498 0)
(4.08942 -1.14979 0)
(4.0891 -1.14988 0)
(4.08845 -1.15006 0)
(4.08832 -1.15007 0)
(4.08827 -1.15005 0)
(4.08832 -1.14999 0)
(4.08848 -1.14994 0)
(4.08877 -1.14968 0)
(4.08891 -1.1494 0)
(4.08905 -1.14927 0)
(4.08882 -1.14943 0)
(4.08869 -1.1498 0)
(4.08877 -1.15008 0)
(4.08897 -1.15036 0)
(4.08928 -1.15053 0)
(4.08939 -1.15038 0)
(4.08943 -1.15019 0)
(4.08941 -1.15008 0)
(4.08938 -1.15025 0)
(4.08072 -1.10864 0)
(4.0692 -1.01153 0)
(4.03593 -0.77277 0)
(4.02832 -0.612588 0)
(3.98271 -0.32152 0)
(3.99547 -0.239744 0)
(3.9463 -0.103213 0)
(3.9551 -0.0647191 0)
(3.93003 -0.0122695 0)
(3.92033 0.0199884 0)
(3.91558 0.0390974 0)
(3.89639 0.0577793 0)
(3.89601 0.0731008 0)
(3.88919 0.0635331 0)
(3.88643 0.0464731 0)
(3.88231 0.0203485 0)
(3.88328 0.0196482 0)
(3.88577 0.0270979 0)
(3.89068 0.0422076 0)
(3.89362 0.0540816 0)
(3.89333 0.0527548 0)
(3.89122 0.0461034 0)
(3.88953 0.0382995 0)
(3.8901 0.0407201 0)
(3.89135 0.0452384 0)
(3.893 0.0498845 0)
(3.89269 0.0479245 0)
(3.89174 0.0436706 0)
(3.89189 0.0422384 0)
(3.89257 0.0448752 0)
(3.8936 0.0468271 0)
(3.89355 0.0455 0)
(3.89322 0.0429353 0)
(3.8931 0.0419357 0)
(3.8933 0.042228 0)
(3.89366 0.0416856 0)
(4.09221 -1.15067 0)
(4.09218 -1.15067 0)
(4.09214 -1.15066 0)
(4.09212 -1.15066 0)
(4.0921 -1.15066 0)
(4.09207 -1.15067 0)
(4.09206 -1.15067 0)
(4.09205 -1.15067 0)
(4.09205 -1.15059 0)
(4.09203 -1.15047 0)
(4.09197 -1.15045 0)
(4.09175 -1.15041 0)
(4.09136 -1.15034 0)
(4.09103 -1.15025 0)
(4.09097 -1.15027 0)
(4.09089 -1.15036 0)
(4.09082 -1.15037 0)
(4.09081 -1.15024 0)
(4.09076 -1.15016 0)
(4.0907 -1.15022 0)
(4.09063 -1.15029 0)
(4.09054 -1.15033 0)
(4.09045 -1.15038 0)
(4.09037 -1.15044 0)
(4.09031 -1.15045 0)
(4.09032 -1.15037 0)
(4.09025 -1.15029 0)
(4.09013 -1.15029 0)
(4.09001 -1.15027 0)
(4.09004 -1.15024 0)
(4.09007 -1.15023 0)
(4.0901 -1.15026 0)
(4.09005 -1.15032 0)
(4.0899 -1.15034 0)
(4.08948 -1.15025 0)
(4.08936 -1.15023 0)
(4.08934 -1.1502 0)
(4.08931 -1.15012 0)
(4.08923 -1.14996 0)
(4.0892 -1.1498 0)
(4.08923 -1.14956 0)
(4.08916 -1.14932 0)
(4.08908 -1.14925 0)
(4.08903 -1.14955 0)
(4.08897 -1.14966 0)
(4.08884 -1.14964 0)
(4.08856 -1.14971 0)
(4.08807 -1.15008 0)
(4.088 -1.15019 0)
(4.08809 -1.15018 0)
(4.0882 -1.1502 0)
(4.0883 -1.15019 0)
(4.0886 -1.14988 0)
(4.08892 -1.14944 0)
(4.08911 -1.14928 0)
(4.08922 -1.14933 0)
(4.08907 -1.14961 0)
(4.08907 -1.14999 0)
(4.08925 -1.1504 0)
(4.08961 -1.1508 0)
(4.08993 -1.15066 0)
(4.08992 -1.15039 0)
(4.08987 -1.15037 0)
(4.08977 -1.15049 0)
(4.08967 -1.15075 0)
(4.0897 -1.1508 0)
(4.08977 -1.15105 0)
(4.08952 -1.14813 0)
(4.07424 -1.06576 0)
(4.06026 -0.910474 0)
(3.99458 -0.494976 0)
(4.02925 -0.395113 0)
(3.95393 -0.0474892 0)
(3.97404 -0.0179081 0)
(3.92506 0.122372 0)
(3.90667 0.121925 0)
(3.8927 0.0840977 0)
(3.89109 0.0508801 0)
(3.88643 0.0295492 0)
(3.88654 0.0263844 0)
(3.88775 0.0262783 0)
(3.89432 0.046801 0)
(3.8949 0.0565546 0)
(3.89378 0.0554763 0)
(3.891 0.0477992 0)
(3.88873 0.0404098 0)
(3.88885 0.0401053 0)
(3.89109 0.0463978 0)
(3.89289 0.0525727 0)
(3.89266 0.0506858 0)
(3.89129 0.0462012 0)
(3.89041 0.0431074 0)
(3.89085 0.0442224 0)
(3.89223 0.0474586 0)
(3.89224 0.0470173 0)
(3.89153 0.0440343 0)
(3.89085 0.0409106 0)
(3.89104 0.0413276 0)
(3.89151 0.042133 0)
(3.89151 0.0411384 0)
(4.09131 -1.15065 0)
(4.09127 -1.15064 0)
(4.09121 -1.15067 0)
(4.09113 -1.15067 0)
(4.0911 -1.15069 0)
(4.09108 -1.15074 0)
(4.09103 -1.1508 0)
(4.09103 -1.15075 0)
(4.0911 -1.15045 0)
(4.09109 -1.15036 0)
(4.09097 -1.15033 0)
(4.09078 -1.15026 0)
(4.09039 -1.14994 0)
(4.09022 -1.14985 0)
(4.09015 -1.14984 0)
(4.09007 -1.14991 0)
(4.08998 -1.1499 0)
(4.08994 -1.14979 0)
(4.08989 -1.14979 0)
(4.08984 -1.14984 0)
(4.08985 -1.14987 0)
(4.08989 -1.14995 0)
(4.08988 -1.15003 0)
(4.08982 -1.15009 0)
(4.08973 -1.15008 0)
(4.08967 -1.14996 0)
(4.08959 -1.14987 0)
(4.08958 -1.14996 0)
(4.0896 -1.15015 0)
(4.08957 -1.15018 0)
(4.08947 -1.15017 0)
(4.08933 -1.15009 0)
(4.08909 -1.15003 0)
(4.08875 -1.15001 0)
(4.08862 -1.15004 0)
(4.08857 -1.15015 0)
(4.08857 -1.15026 0)
(4.08857 -1.15013 0)
(4.08855 -1.14991 0)
(4.08854 -1.14981 0)
(4.08875 -1.14964 0)
(4.08892 -1.14935 0)
(4.08895 -1.14922 0)
(4.08893 -1.14932 0)
(4.08886 -1.14938 0)
(4.08868 -1.14938 0)
(4.08844 -1.14949 0)
(4.08829 -1.15003 0)
(4.08828 -1.1504 0)
(4.08846 -1.15043 0)
(4.08876 -1.15046 0)
(4.08889 -1.1504 0)
(4.08893 -1.15029 0)
(4.08919 -1.14979 0)
(4.08949 -1.14928 0)
(4.08956 -1.14921 0)
(4.08945 -1.14937 0)
(4.08936 -1.14978 0)
(4.08948 -1.15032 0)
(4.08981 -1.15085 0)
(4.09018 -1.15092 0)
(4.09011 -1.15057 0)
(4.09007 -1.15051 0)
(4.09004 -1.1506 0)
(4.09 -1.1509 0)
(4.09001 -1.15101 0)
(4.09001 -1.15097 0)
(4.09034 -1.15091 0)
(4.09069 -1.1509 0)
(4.09142 -1.15083 0)
(4.09096 -1.14719 0)
(4.08414 -1.09808 0)
(4.05129 -0.892906 0)
(4.04151 -0.681882 0)
(3.98833 -0.32561 0)
(4.01292 -0.250527 0)
(3.94706 -0.0869758 0)
(3.95302 -0.0542838 0)
(3.92394 -0.00569502 0)
(3.91811 0.025328 0)
(3.90159 0.046262 0)
(3.89863 0.0655413 0)
(3.89455 0.06101 0)
(3.88908 0.0461372 0)
(3.88764 0.0289979 0)
(3.88728 0.031936 0)
(3.88985 0.0420161 0)
(3.8927 0.0511141 0)
(3.89286 0.0514394 0)
(3.89133 0.045279 0)
(3.88949 0.0392522 0)
(3.88997 0.0414695 0)
(3.89108 0.0469858 0)
(3.89181 0.0483805 0)
(3.89109 0.0454344 0)
(3.88974 0.0416855 0)
(3.88981 0.0413619 0)
(3.89012 0.0425247 0)
(3.89049 0.0422768 0)
(3.88983 0.0400005 0)
(4.09001 -1.15028 0)
(4.09 -1.15032 0)
(4.08984 -1.15041 0)
(4.08975 -1.15042 0)
(4.0897 -1.15047 0)
(4.08964 -1.15054 0)
(4.08954 -1.15057 0)
(4.0895 -1.15044 0)
(4.08951 -1.15019 0)
(4.08951 -1.15014 0)
(4.08948 -1.15013 0)
(4.08946 -1.15012 0)
(4.08946 -1.14999 0)
(4.08941 -1.14962 0)
(4.08931 -1.14944 0)
(4.08928 -1.14943 0)
(4.08924 -1.14941 0)
(4.08923 -1.14928 0)
(4.08919 -1.1492 0)
(4.08917 -1.14918 0)
(4.08915 -1.14914 0)
(4.0891 -1.14922 0)
(4.08902 -1.14947 0)
(4.08892 -1.14962 0)
(4.08889 -1.14963 0)
(4.08892 -1.14962 0)
(4.08888 -1.14965 0)
(4.08871 -1.14972 0)
(4.08859 -1.14981 0)
(4.08848 -1.14991 0)
(4.08836 -1.14993 0)
(4.08829 -1.14981 0)
(4.08827 -1.14969 0)
(4.08827 -1.14966 0)
(4.08811 -1.14989 0)
(4.08806 -1.15016 0)
(4.08814 -1.15028 0)
(4.08822 -1.15022 0)
(4.08825 -1.15015 0)
(4.08849 -1.14998 0)
(4.0888 -1.14982 0)
(4.089 -1.14948 0)
(4.0891 -1.14908 0)
(4.08927 -1.14893 0)
(4.0893 -1.14898 0)
(4.08923 -1.14911 0)
(4.08921 -1.14937 0)
(4.08912 -1.14994 0)
(4.08904 -1.15018 0)
(4.08918 -1.15033 0)
(4.08942 -1.15043 0)
(4.08954 -1.15044 0)
(4.08957 -1.15032 0)
(4.08968 -1.14998 0)
(4.08974 -1.14949 0)
(4.08963 -1.14915 0)
(4.08959 -1.14924 0)
(4.08951 -1.14958 0)
(4.08957 -1.15026 0)
(4.08996 -1.15096 0)
(4.09044 -1.15108 0)
(4.0904 -1.15062 0)
(4.09037 -1.15055 0)
(4.09041 -1.15068 0)
(4.09041 -1.15098 0)
(4.09016 -1.15107 0)
(4.09019 -1.15105 0)
(4.09059 -1.15066 0)
(4.09102 -1.1505 0)
(4.09197 -1.15013 0)
(4.09213 -1.15 0)
(4.09173 -1.14999 0)
(4.09155 -1.14998 0)
(4.09106 -1.15075 0)
(4.07519 -1.07415 0)
(4.06343 -0.875346 0)
(3.9911 -0.424685 0)
(4.02514 -0.298446 0)
(3.95033 0.0121654 0)
(3.94263 0.0737024 0)
(3.92122 0.147418 0)
(3.8955 0.0911377 0)
(3.89103 0.0556537 0)
(3.89048 0.0387115 0)
(3.89053 0.0349663 0)
(3.8937 0.0432756 0)
(3.89632 0.0607993 0)
(3.89537 0.0586475 0)
(3.89244 0.0495201 0)
(3.88928 0.0400049 0)
(3.88926 0.0399885 0)
(3.8911 0.0465722 0)
(3.89188 0.0526201 0)
(3.89097 0.0490932 0)
(3.88973 0.0437724 0)
(3.88849 0.039777 0)
(3.88916 0.0414734 0)
(3.88966 0.043475 0)
(3.88937 0.0424726 0)
(3.88833 0.0392859 0)
(4.0889 -1.14996 0)
(4.08886 -1.14994 0)
(4.08883 -1.14992 0)
(4.08878 -1.14993 0)
(4.08875 -1.14996 0)
(4.08874 -1.15 0)
(4.08875 -1.15005 0)
(4.08877 -1.15008 0)
(4.08878 -1.15006 0)
(4.08879 -1.15001 0)
(4.08882 -1.14991 0)
(4.08886 -1.14985 0)
(4.0888 -1.14971 0)
(4.08876 -1.14958 0)
(4.08879 -1.14943 0)
(4.08888 -1.14929 0)
(4.08893 -1.14915 0)
(4.089 -1.14908 0)
(4.08908 -1.14904 0)
(4.08914 -1.14902 0)
(4.08917 -1.149 0)
(4.08922 -1.14891 0)
(4.08921 -1.14878 0)
(4.08916 -1.14878 0)
(4.08908 -1.14893 0)
(4.08896 -1.149 0)
(4.08888 -1.14895 0)
(4.08886 -1.1489 0)
(4.08884 -1.14889 0)
(4.08851 -1.14905 0)
(4.08833 -1.14942 0)
(4.08836 -1.14955 0)
(4.08838 -1.14965 0)
(4.0882 -1.14978 0)
(4.08811 -1.14994 0)
(4.08815 -1.15015 0)
(4.08827 -1.15022 0)
(4.08836 -1.15022 0)
(4.08858 -1.15015 0)
(4.0888 -1.15011 0)
(4.08899 -1.14996 0)
(4.08898 -1.14961 0)
(4.08911 -1.14909 0)
(4.0894 -1.14885 0)
(4.08945 -1.14892 0)
(4.08949 -1.14901 0)
(4.0896 -1.14919 0)
(4.08952 -1.14975 0)
(4.08944 -1.15002 0)
(4.0895 -1.15022 0)
(4.08984 -1.15051 0)
(4.09002 -1.1507 0)
(4.09045 -1.15074 0)
(4.09033 -1.15007 0)
(4.09021 -1.1496 0)
(4.08988 -1.1492 0)
(4.08966 -1.14918 0)
(4.08955 -1.14964 0)
(4.08961 -1.15045 0)
(4.09011 -1.15119 0)
(4.09062 -1.1513 0)
(4.09064 -1.1508 0)
(4.09062 -1.15068 0)
(4.09064 -1.15075 0)
(4.09073 -1.15105 0)
(4.09078 -1.15098 0)
(4.09098 -1.15063 0)
(4.09111 -1.15043 0)
(4.09169 -1.1502 0)
(4.09254 -1.14984 0)
(4.09193 -1.14996 0)
(4.0916 -1.15014 0)
(4.09076 -1.15032 0)
(4.08945 -1.15129 0)
(4.08939 -1.1509 0)
(4.08862 -1.15203 0)
(4.08489 -1.1387 0)
(4.07297 -1.04132 0)
(4.03617 -0.761812 0)
(4.02359 -0.514989 0)
(3.9803 -0.20151 0)
(3.99856 -0.129535 0)
(3.93556 -0.0166066 0)
(3.91937 0.0105268 0)
(3.91512 0.032201 0)
(3.89734 0.0587694 0)
(3.89585 0.060424 0)
(3.88782 0.0484587 0)
(3.88573 0.0310979 0)
(3.88597 0.0335832 0)
(3.88887 0.0425539 0)
(3.89158 0.0518145 0)
(3.89124 0.0511241 0)
(3.88849 0.0431942 0)
(3.88736 0.0381528 0)
(3.88788 0.0397213 0)
(3.88862 0.0436798 0)
(3.88847 0.0438177 0)
(3.88756 0.0402194 0)
(3.88704 0.0372907 0)
(4.0884 -1.14979 0)
(4.08837 -1.14991 0)
(4.08839 -1.15 0)
(4.0884 -1.15001 0)
(4.08839 -1.15002 0)
(4.08842 -1.15009 0)
(4.08843 -1.15026 0)
(4.08847 -1.15039 0)
(4.08852 -1.15038 0)
(4.08853 -1.15015 0)
(4.08857 -1.14984 0)
(4.08858 -1.14979 0)
(4.08867 -1.14969 0)
(4.08875 -1.14961 0)
(4.0888 -1.14961 0)
(4.08886 -1.14952 0)
(4.0889 -1.14947 0)
(4.089 -1.14933 0)
(4.0891 -1.14923 0)
(4.0892 -1.14921 0)
(4.08927 -1.14905 0)
(4.08927 -1.14887 0)
(4.08928 -1.14884 0)
(4.08928 -1.14879 0)
(4.08931 -1.14884 0)
(4.08933 -1.1489 0)
(4.08946 -1.14885 0)
(4.08953 -1.14875 0)
(4.08956 -1.14867 0)
(4.08933 -1.14897 0)
(4.08908 -1.14947 0)
(4.089 -1.14958 0)
(4.08896 -1.14967 0)
(4.08889 -1.14985 0)
(4.08878 -1.15003 0)
(4.08873 -1.1502 0)
(4.08861 -1.15044 0)
(4.08852 -1.15049 0)
(4.08884 -1.15027 0)
(4.08904 -1.15022 0)
(4.0891 -1.1501 0)
(4.08913 -1.14975 0)
(4.08935 -1.14945 0)
(4.0895 -1.1492 0)
(4.08953 -1.14902 0)
(4.08965 -1.14887 0)
(4.08974 -1.149 0)
(4.0897 -1.14956 0)
(4.08968 -1.14985 0)
(4.08997 -1.15037 0)
(4.09059 -1.15084 0)
(4.09088 -1.15124 0)
(4.09131 -1.1514 0)
(4.09094 -1.1504 0)
(4.09042 -1.14982 0)
(4.09008 -1.14944 0)
(4.08932 -1.14917 0)
(4.08932 -1.1501 0)
(4.08968 -1.1512 0)
(4.09014 -1.15173 0)
(4.09082 -1.15172 0)
(4.0908 -1.15101 0)
(4.09074 -1.15082 0)
(4.09097 -1.15099 0)
(4.09171 -1.15114 0)
(4.09202 -1.15081 0)
(4.09179 -1.15019 0)
(4.0914 -1.15021 0)
(4.09173 -1.14989 0)
(4.09158 -1.14985 0)
(4.09134 -1.14996 0)
(4.09057 -1.15025 0)
(4.08916 -1.15091 0)
(4.08829 -1.15182 0)
(4.08788 -1.15195 0)
(4.08721 -1.15209 0)
(4.08637 -1.15177 0)
(4.08505 -1.15217 0)