/*--------------------------------*- C++ -*----------------------------------*\
  =========                 |
  \\      /  F ield         | OpenFOAM: The Open Source CFD Toolbox
   \\    /   O peration     | Website:  https://openfoam.org
    \\  /    A nd           | Version:  7
     \\/     M anipulation  |
\*---------------------------------------------------------------------------*/
FoamFile
{
    version     2.0;
    format      ascii;
    class       volScalarField;
    location    "2.5";
    object      rho;
}
// * * * * * * * * * * * * * * * * * * * * * * * * * * * * * * * * * * * * * //

dimensions      [1 -3 0 0 0 0 0];

internalField   nonuniform List<scalar> 
90000
(
1.27954
1.27476
1.27014
1.2674
1.26634
1.26481
1.26441
1.26458
1.26582
1.26742
1.26932
1.27083
1.27299
1.27498
1.27751
1.27967
1.28195
1.28384
1.28599
1.28771
1.28955
1.29111
1.29266
1.29397
1.2955
1.29701
1.29871
1.30047
1.3025
1.3045
1.30665
1.30881
1.31109
1.3134
1.31554
1.31766
1.31926
1.32056
1.32021
1.31863
1.3157
1.31162
1.30667
1.30259
1.29959
1.29775
1.29808
1.2993
1.30223
1.30552
1.3091
1.31294
1.31639
1.31911
1.32156
1.32214
1.31992
1.31573
1.31072
1.30658
1.30505
1.30595
1.30866
1.31234
1.31557
1.31824
1.31777
1.31464
1.30909
1.30506
1.30346
1.30456
1.30815
1.30947
1.30772
1.30401
1.29834
1.29246
1.29292
1.29414
1.2967
1.29606
1.29367
1.28967
1.28729
1.28744
1.28835
1.28751
1.28449
1.28254
1.28195
1.28118
1.27993
1.27786
1.27501
1.27295
1.27153
1.27115
1.26985
1.26835
1.28381
1.2839
1.28399
1.2841
1.28424
1.28434
1.28447
1.28466
1.28482
1.28506
1.2853
1.28551
1.28591
1.2863
1.28665
1.28716
1.28769
1.28826
1.28901
1.28983
1.29068
1.29174
1.29287
1.294
1.29522
1.29661
1.29816
1.2999
1.3019
1.30402
1.30637
1.30882
1.31149
1.31415
1.31679
1.31927
1.32163
1.32354
1.32544
1.32696
1.32866
1.33033
1.33037
1.32954
1.32742
1.32374
1.31988
1.31631
1.31431
1.31358
1.31436
1.31587
1.31858
1.3213
1.32475
1.32792
1.33031
1.3324
1.3307
1.32643
1.32125
1.3171
1.31575
1.31671
1.31909
1.32264
1.32633
1.32749
1.32498
1.31954
1.31453
1.31181
1.31245
1.31343
1.31421
1.31248
1.30792
1.30248
1.30024
1.29936
1.30047
1.30134
1.29994
1.29662
1.29368
1.29197
1.2922
1.29166
1.28955
1.2865
1.28522
1.28455
1.28363
1.28128
1.27764
1.27508
1.27375
1.273
1.27149
1.26963
1.28509
1.28515
1.28521
1.28528
1.28536
1.28544
1.28555
1.28566
1.28577
1.28588
1.28598
1.2861
1.28629
1.28653
1.28682
1.28716
1.28756
1.28802
1.28858
1.28921
1.28989
1.29069
1.29159
1.29257
1.29362
1.29481
1.2961
1.29749
1.29907
1.30077
1.30273
1.30482
1.30723
1.30975
1.31253
1.31538
1.31845
1.32134
1.32434
1.32693
1.32908
1.33126
1.33181
1.33253
1.33274
1.33287
1.33353
1.33333
1.33238
1.33055
1.32829
1.32627
1.32559
1.326
1.32743
1.32911
1.33169
1.33416
1.33565
1.33796
1.3376
1.33526
1.33145
1.32805
1.32672
1.32766
1.32975
1.33199
1.33478
1.3341
1.32976
1.32428
1.31982
1.31799
1.31859
1.31924
1.31821
1.31361
1.30852
1.30569
1.30577
1.30694
1.30736
1.30511
1.3009
1.29815
1.29784
1.29723
1.29539
1.29258
1.29086
1.28983
1.28875
1.28659
1.28299
1.28003
1.27808
1.27653
1.27453
1.27235
1.28663
1.28666
1.28668
1.28671
1.28675
1.28679
1.28684
1.2869
1.28697
1.28702
1.28704
1.28707
1.2871
1.28716
1.28727
1.28737
1.28746
1.28755
1.28767
1.28782
1.28805
1.28836
1.28877
1.28925
1.2898
1.29045
1.29116
1.29194
1.29283
1.29384
1.29503
1.29631
1.29786
1.29953
1.30162
1.30384
1.30647
1.30931
1.31234
1.31577
1.31911
1.32249
1.32571
1.32892
1.33137
1.33364
1.33497
1.33551
1.33584
1.33629
1.33669
1.33663
1.33601
1.33506
1.33393
1.33278
1.33322
1.33397
1.33617
1.33902
1.34024
1.34154
1.34226
1.34111
1.33845
1.33575
1.33418
1.33461
1.33644
1.33775
1.33763
1.33618
1.33108
1.32518
1.32201
1.3212
1.32131
1.32094
1.31836
1.31451
1.31194
1.31128
1.312
1.31209
1.30945
1.30558
1.30429
1.30337
1.30179
1.29978
1.29754
1.29657
1.29554
1.29383
1.29006
1.2859
1.28351
1.28169
1.28004
1.27745
1.28827
1.28828
1.28829
1.2883
1.28832
1.28833
1.28835
1.28837
1.2884
1.28844
1.28849
1.28852
1.28855
1.28858
1.28862
1.28868
1.28869
1.28871
1.28873
1.28878
1.28877
1.28879
1.28884
1.28888
1.28891
1.28902
1.28916
1.28924
1.28942
1.28974
1.29021
1.29078
1.29143
1.29222
1.29321
1.29448
1.29597
1.29788
1.29991
1.30259
1.30545
1.30889
1.3128
1.31668
1.32122
1.32525
1.32897
1.33209
1.33441
1.33656
1.33722
1.33759
1.3376
1.33749
1.33709
1.33644
1.33611
1.33635
1.33723
1.33829
1.33999
1.34199
1.34305
1.34332
1.34383
1.34345
1.34162
1.33963
1.33879
1.33853
1.3387
1.33806
1.33655
1.33245
1.32693
1.32303
1.32198
1.3216
1.32135
1.32091
1.3184
1.31544
1.31462
1.31448
1.31423
1.31195
1.30896
1.3075
1.30633
1.30493
1.30299
1.30148
1.30074
1.29937
1.29644
1.29258
1.28956
1.28694
1.28547
1.28264
1.28959
1.28956
1.2895
1.28948
1.28948
1.28948
1.28949
1.2895
1.28952
1.28953
1.28955
1.28956
1.28957
1.28958
1.28958
1.28958
1.28959
1.2896
1.28963
1.28963
1.2896
1.28957
1.28953
1.28948
1.28947
1.28948
1.28951
1.28951
1.28946
1.28944
1.28946
1.28946
1.28948
1.28952
1.28963
1.28986
1.29027
1.29094
1.29181
1.29293
1.29434
1.29624
1.29862
1.30149
1.30511
1.30897
1.31343
1.31824
1.3224
1.32705
1.32993
1.33298
1.33462
1.33596
1.33639
1.33695
1.3379
1.33853
1.33905
1.33926
1.33959
1.34047
1.34167
1.34322
1.34411
1.34471
1.34497
1.34449
1.34302
1.34083
1.33938
1.33801
1.33675
1.33478
1.33142
1.32657
1.32316
1.32115
1.32137
1.32147
1.32147
1.32004
1.31734
1.31581
1.31517
1.31486
1.31285
1.31023
1.30896
1.30848
1.30734
1.30557
1.304
1.30301
1.30071
1.29714
1.29437
1.2915
1.29001
1.28756
1.29023
1.29021
1.29018
1.29012
1.29008
1.29008
1.29008
1.29009
1.29009
1.29009
1.29008
1.29008
1.29006
1.29003
1.29
1.28997
1.28995
1.28994
1.28994
1.28993
1.2899
1.28986
1.28983
1.28977
1.28974
1.28971
1.28967
1.28961
1.28955
1.2895
1.28947
1.28942
1.28937
1.28935
1.28928
1.28914
1.28906
1.28906
1.28912
1.28929
1.28957
1.29007
1.29086
1.29209
1.29361
1.29582
1.29852
1.30199
1.30628
1.31078
1.31614
1.3213
1.32562
1.33026
1.33336
1.33598
1.33746
1.33804
1.33861
1.3389
1.33876
1.33893
1.33943
1.3406
1.34236
1.34437
1.34515
1.34491
1.34437
1.34299
1.34058
1.33821
1.33622
1.3347
1.33235
1.32932
1.32483
1.32206
1.32078
1.3208
1.32157
1.3212
1.31963
1.31718
1.31545
1.31496
1.31436
1.31239
1.31038
1.30933
1.30865
1.30719
1.30613
1.30545
1.30374
1.30024
1.29704
1.29453
1.29263
1.29036
1.29036
1.29035
1.29034
1.29031
1.29028
1.29028
1.29028
1.29027
1.29027
1.29027
1.29026
1.29025
1.29022
1.29018
1.29014
1.2901
1.29007
1.29005
1.29002
1.29
1.28998
1.28993
1.28988
1.28982
1.28976
1.28972
1.28969
1.28964
1.28958
1.2895
1.28941
1.28932
1.28924
1.28917
1.28909
1.28898
1.28888
1.28871
1.28865
1.28862
1.28862
1.28864
1.28871
1.28889
1.28922
1.28977
1.29063
1.29188
1.29383
1.29633
1.30007
1.30426
1.30963
1.31475
1.32014
1.32518
1.32951
1.33209
1.33468
1.33652
1.33709
1.33841
1.33964
1.34066
1.34157
1.34255
1.34391
1.34433
1.344
1.34296
1.34124
1.33885
1.33631
1.33412
1.3318
1.32921
1.32615
1.32283
1.32122
1.32091
1.32091
1.32093
1.3199
1.31795
1.31596
1.31474
1.31431
1.31339
1.31156
1.30983
1.30903
1.30786
1.30668
1.30559
1.30389
1.3017
1.29873
1.29615
1.29427
1.29209
1.29038
1.29036
1.29034
1.29033
1.29032
1.29032
1.2903
1.29029
1.29027
1.29026
1.29024
1.29021
1.29017
1.29013
1.2901
1.29006
1.29002
1.28997
1.28994
1.28992
1.2899
1.28987
1.28984
1.28976
1.2897
1.28968
1.28965
1.2896
1.28953
1.28945
1.28935
1.28925
1.28917
1.28909
1.289
1.2889
1.28878
1.28861
1.28845
1.28836
1.28836
1.28839
1.28845
1.28851
1.2886
1.2887
1.28881
1.28898
1.28926
1.28973
1.29075
1.29237
1.29514
1.29871
1.30363
1.309
1.31487
1.32122
1.32619
1.331
1.33467
1.33692
1.33835
1.33932
1.33978
1.33943
1.33994
1.34158
1.34225
1.34194
1.34098
1.33918
1.33679
1.33371
1.33101
1.32839
1.32581
1.32371
1.32223
1.32104
1.32021
1.31996
1.31948
1.31817
1.31653
1.31497
1.31405
1.31338
1.31212
1.31048
1.3091
1.30799
1.30673
1.30531
1.30356
1.30161
1.29974
1.29747
1.29545
1.29298
1.29039
1.29036
1.29033
1.2903
1.29027
1.29026
1.29025
1.29025
1.29023
1.2902
1.29017
1.29014
1.29012
1.29009
1.29005
1.29001
1.28997
1.28992
1.28986
1.28984
1.28985
1.28985
1.28983
1.28979
1.28976
1.28975
1.28973
1.28971
1.28966
1.28958
1.28951
1.28944
1.28937
1.2893
1.28925
1.28917
1.28905
1.2889
1.28876
1.28863
1.28858
1.28859
1.2886
1.28863
1.28869
1.28878
1.28889
1.28904
1.28923
1.28959
1.28972
1.28987
1.29016
1.29092
1.29249
1.29495
1.29869
1.30383
1.30973
1.31606
1.32242
1.32716
1.33106
1.33372
1.33565
1.33644
1.33792
1.34003
1.34105
1.34109
1.34021
1.33838
1.3359
1.33295
1.33017
1.32784
1.32573
1.32347
1.32236
1.32128
1.32023
1.31963
1.31891
1.31785
1.31642
1.31499
1.31411
1.3133
1.31221
1.31065
1.30906
1.30804
1.30688
1.30538
1.30281
1.30084
1.29985
1.2985
1.29628
1.29348
1.29067
1.29064
1.29062
1.2906
1.29057
1.2905
1.29047
1.29047
1.29046
1.29044
1.29037
1.29031
1.29031
1.2903
1.29025
1.2902
1.29019
1.2902
1.29018
1.29015
1.29014
1.29014
1.29017
1.29021
1.29019
1.29017
1.29017
1.29018
1.29016
1.29012
1.29008
1.29006
1.29002
1.28998
1.28994
1.28988
1.28977
1.28966
1.28954
1.28941
1.28933
1.28927
1.28918
1.2891
1.28908
1.28909
1.28915
1.28924
1.28937
1.28958
1.28991
1.2902
1.29045
1.29036
1.29034
1.29047
1.29109
1.29252
1.29535
1.29943
1.30545
1.3119
1.31895
1.32497
1.33052
1.33425
1.33663
1.33846
1.33895
1.3385
1.33685
1.33557
1.33408
1.33221
1.33003
1.3278
1.32533
1.32291
1.32217
1.32151
1.32044
1.31954
1.31861
1.31756
1.31607
1.31507
1.31417
1.31315
1.31204
1.31065
1.3092
1.30831
1.30716
1.30554
1.30287
1.30019
1.2997
1.29864
1.29667
1.29391
1.29128
1.29126
1.29125
1.29123
1.29119
1.29113
1.2911
1.29109
1.29108
1.29107
1.291
1.29095
1.29094
1.29093
1.29086
1.2908
1.29079
1.29079
1.2908
1.29079
1.29077
1.29077
1.29079
1.29082
1.29083
1.29084
1.29087
1.29088
1.29087
1.29087
1.29086
1.29085
1.29083
1.2908
1.29076
1.29072
1.29066
1.29057
1.29045
1.29031
1.29017
1.29003
1.28986
1.28968
1.28962
1.28963
1.28964
1.28969
1.28981
1.28999
1.29028
1.29058
1.29077
1.2908
1.29082
1.29084
1.29062
1.2905
1.29072
1.29158
1.29353
1.29708
1.30244
1.3088
1.3154
1.32208
1.32668
1.33001
1.33315
1.33363
1.33361
1.33365
1.33331
1.33203
1.3296
1.32741
1.32416
1.32223
1.32184
1.32154
1.3209
1.31982
1.3185
1.31733
1.31599
1.3152
1.3141
1.313
1.31177
1.31062
1.30955
1.30872
1.30756
1.30589
1.30324
1.30029
1.29929
1.29854
1.29673
1.2943
1.29177
1.29176
1.29176
1.29175
1.29173
1.29171
1.29169
1.29168
1.29168
1.29168
1.29167
1.29164
1.29163
1.29163
1.2916
1.29158
1.29158
1.29159
1.29159
1.29159
1.29162
1.29163
1.29164
1.29166
1.29175
1.29184
1.2919
1.29194
1.29197
1.29201
1.29206
1.2921
1.29213
1.29214
1.29214
1.29212
1.29208
1.292
1.29188
1.29173
1.29155
1.29134
1.29109
1.29081
1.2906
1.29053
1.29052
1.29053
1.29061
1.29074
1.29093
1.29117
1.29139
1.29146
1.29143
1.29134
1.29115
1.29089
1.29059
1.29058
1.29077
1.29148
1.29301
1.29603
1.30002
1.30577
1.31249
1.31827
1.32435
1.32857
1.33189
1.33198
1.33148
1.32994
1.32686
1.32483
1.32244
1.32182
1.32167
1.32144
1.32105
1.32009
1.31876
1.31756
1.31626
1.31536
1.31403
1.31293
1.31172
1.31059
1.30991
1.30913
1.30799
1.30628
1.30369
1.30074
1.29945
1.29871
1.29677
1.29461
1.29219
1.29218
1.29217
1.29216
1.29214
1.29214
1.29214
1.29213
1.29212
1.29211
1.29211
1.29212
1.29213
1.29215
1.29217
1.29218
1.29219
1.29222
1.29224
1.2923
1.29236
1.29241
1.29246
1.29255
1.29267
1.29274
1.29279
1.29285
1.29292
1.293
1.29309
1.29319
1.29328
1.29335
1.29341
1.29349
1.29356
1.29358
1.29354
1.29344
1.29327
1.29304
1.29275
1.2924
1.29205
1.29175
1.29157
1.29153
1.29153
1.29155
1.29162
1.29174
1.29193
1.2921
1.29211
1.29202
1.29182
1.29149
1.29107
1.29085
1.29088
1.29108
1.29152
1.29211
1.29309
1.29493
1.29785
1.30287
1.3089
1.31413
1.31952
1.32296
1.32428
1.32439
1.32313
1.32262
1.3226
1.32211
1.32145
1.32112
1.32085
1.3201
1.31945
1.31821
1.31677
1.31531
1.31398
1.31306
1.31214
1.31082
1.3102
1.30951
1.30848
1.30675
1.30414
1.30096
1.29966
1.29884
1.29698
1.29491
1.29299
1.29299
1.29298
1.29297
1.29295
1.29294
1.29291
1.29289
1.29287
1.29284
1.29283
1.29283
1.29282
1.29283
1.29284
1.29284
1.29283
1.29283
1.29286
1.2929
1.29294
1.29298
1.29305
1.29313
1.29321
1.29327
1.29334
1.29342
1.29352
1.29363
1.29376
1.2939
1.29405
1.29419
1.29434
1.29449
1.29463
1.29475
1.29479
1.29478
1.29473
1.29463
1.29445
1.29418
1.29384
1.29347
1.29311
1.29291
1.29281
1.29272
1.29264
1.29263
1.29269
1.2929
1.29304
1.29302
1.29288
1.2926
1.29221
1.29183
1.29165
1.29167
1.29181
1.29224
1.29238
1.29229
1.29255
1.29373
1.29579
1.2994
1.30397
1.31014
1.31457
1.31897
1.32037
1.32123
1.32106
1.32091
1.31944
1.31972
1.32002
1.32019
1.31973
1.31852
1.31719
1.31547
1.31445
1.31363
1.31261
1.31118
1.31054
1.30994
1.30895
1.30722
1.30438
1.30119
1.30006
1.29923
1.29736
1.29546
1.2936
1.29361
1.29363
1.29363
1.29363
1.29363
1.29363
1.29362
1.29359
1.29358
1.29357
1.29356
1.29354
1.29352
1.29352
1.29351
1.29349
1.29349
1.29349
1.2935
1.29352
1.29355
1.2936
1.29365
1.2937
1.29375
1.2938
1.29386
1.29394
1.29404
1.29414
1.29425
1.29435
1.29446
1.29457
1.2947
1.29485
1.29503
1.29525
1.29544
1.2955
1.2955
1.29548
1.2954
1.29524
1.29499
1.29468
1.29441
1.2942
1.29401
1.29388
1.29383
1.29381
1.29385
1.29398
1.29408
1.29405
1.29391
1.29364
1.29327
1.29283
1.29262
1.29258
1.29264
1.29268
1.29257
1.29229
1.29173
1.29105
1.29104
1.29209
1.2948
1.29901
1.30333
1.30718
1.31077
1.31224
1.31477
1.3156
1.31845
1.32069
1.32049
1.31956
1.31833
1.31737
1.31644
1.31548
1.31434
1.31296
1.31161
1.311
1.31049
1.30946
1.30779
1.30459
1.30144
1.30044
1.29959
1.29771
1.29597
1.29433
1.29435
1.29437
1.29438
1.29439
1.29441
1.29443
1.29445
1.29445
1.29445
1.29445
1.29446
1.29447
1.29447
1.29445
1.29444
1.29444
1.29443
1.29441
1.29438
1.29438
1.2944
1.29441
1.29442
1.29445
1.29446
1.29445
1.29444
1.29447
1.29451
1.29454
1.29458
1.29463
1.29468
1.29476
1.29487
1.29502
1.2952
1.29542
1.29562
1.29579
1.29592
1.296
1.29603
1.29602
1.29594
1.29578
1.2956
1.29541
1.29521
1.29502
1.29495
1.29495
1.29498
1.29506
1.29519
1.29534
1.29537
1.29529
1.29508
1.29468
1.29418
1.29376
1.2936
1.29344
1.29313
1.29275
1.2921
1.29125
1.28969
1.28784
1.28643
1.28751
1.28877
1.29251
1.29664
1.30154
1.30719
1.31272
1.31674
1.31965
1.31938
1.31836
1.31794
1.31781
1.31711
1.3161
1.3148
1.31335
1.31243
1.31182
1.3111
1.30992
1.30814
1.30474
1.3018
1.30087
1.30001
1.29815
1.29648
1.29499
1.29501
1.29503
1.29504
1.29507
1.2951
1.29512
1.29514
1.29516
1.29518
1.29523
1.29527
1.29529
1.2953
1.29531
1.29533
1.29535
1.29537
1.29537
1.29536
1.29536
1.29536
1.29536
1.29537
1.29537
1.29535
1.29531
1.29528
1.29524
1.29519
1.29512
1.29506
1.29502
1.29499
1.295
1.29503
1.29512
1.29528
1.29547
1.29566
1.29583
1.29596
1.29607
1.29615
1.29623
1.29628
1.29628
1.29626
1.2962
1.29611
1.29595
1.29579
1.29578
1.29583
1.29593
1.29612
1.29641
1.29666
1.29668
1.29662
1.29644
1.29602
1.29537
1.29485
1.29443
1.29404
1.2935
1.29281
1.29159
1.29002
1.28798
1.2856
1.28313
1.28089
1.28146
1.28259
1.28598
1.29075
1.29785
1.30469
1.31109
1.31375
1.31707
1.31888
1.31821
1.31708
1.31605
1.31488
1.3143
1.31353
1.31267
1.31159
1.31025
1.30836
1.30542
1.30259
1.30144
1.30045
1.29855
1.29692
1.29557
1.29558
1.29559
1.29561
1.29564
1.29566
1.29567
1.2957
1.29575
1.29581
1.29588
1.29596
1.29602
1.29606
1.2961
1.29614
1.29619
1.29625
1.29629
1.2963
1.2963
1.29631
1.29632
1.29632
1.29629
1.29626
1.29621
1.29614
1.29604
1.29592
1.2958
1.29567
1.29554
1.29543
1.29533
1.29531
1.29533
1.2954
1.29553
1.29567
1.2958
1.29591
1.29603
1.29619
1.29637
1.29649
1.29661
1.29672
1.29676
1.29677
1.29673
1.2966
1.29644
1.29637
1.29638
1.29646
1.29665
1.29699
1.29742
1.29766
1.29764
1.29744
1.29696
1.29625
1.29563
1.29519
1.2946
1.29382
1.29243
1.2908
1.28841
1.2861
1.28308
1.28002
1.27675
1.2744
1.27467
1.27625
1.2815
1.28935
1.2983
1.30714
1.31528
1.31774
1.31719
1.31548
1.3152
1.3154
1.31495
1.31397
1.31311
1.31204
1.31072
1.30888
1.30642
1.30349
1.30192
1.30062
1.29871
1.29712
1.29632
1.29634
1.29635
1.29637
1.29638
1.2964
1.29642
1.29647
1.29652
1.29657
1.29662
1.29668
1.29677
1.29683
1.29683
1.29685
1.29695
1.29705
1.29707
1.29707
1.2971
1.29716
1.29721
1.29721
1.2972
1.29717
1.29714
1.29708
1.29701
1.29695
1.29686
1.29675
1.29661
1.29647
1.29636
1.29624
1.29613
1.29604
1.296
1.29599
1.29601
1.29607
1.29621
1.29639
1.29648
1.29657
1.2967
1.29687
1.29705
1.29714
1.29716
1.29714
1.29702
1.2968
1.29665
1.29665
1.29675
1.29705
1.29748
1.29774
1.2978
1.29777
1.29756
1.29704
1.29651
1.29617
1.29572
1.295
1.29374
1.29198
1.28953
1.28687
1.28362
1.28048
1.27658
1.27329
1.26926
1.26817
1.26913
1.27223
1.27967
1.28903
1.30015
1.30654
1.31161
1.31322
1.31612
1.31594
1.31475
1.31373
1.31298
1.31233
1.31124
1.30938
1.30689
1.304
1.30229
1.30067
1.29879
1.29731
1.29659
1.29658
1.29657
1.29656
1.29655
1.29654
1.29654
1.29655
1.29659
1.29666
1.29673
1.29674
1.29675
1.2968
1.2969
1.29707
1.29731
1.29758
1.29775
1.29781
1.29788
1.29796
1.29799
1.29803
1.29808
1.29813
1.29819
1.29821
1.29821
1.29822
1.2982
1.29814
1.29803
1.29793
1.29785
1.29776
1.29764
1.29747
1.29727
1.29707
1.29686
1.29676
1.29673
1.29667
1.29663
1.29667
1.29681
1.29702
1.29725
1.29746
1.29756
1.29756
1.29748
1.29725
1.29694
1.29677
1.29675
1.29684
1.29714
1.29752
1.29775
1.29776
1.29765
1.2973
1.29684
1.29649
1.2961
1.29543
1.29431
1.29271
1.29053
1.28782
1.28472
1.28121
1.27736
1.27369
1.27002
1.2669
1.26311
1.26326
1.26465
1.2704
1.27935
1.29115
1.30416
1.31091
1.31518
1.31483
1.31233
1.31267
1.3125
1.31241
1.31142
1.30936
1.30669
1.30394
1.30233
1.30051
1.2988
1.29753
1.29663
1.29663
1.29663
1.29664
1.29665
1.29665
1.29662
1.29662
1.29667
1.29678
1.29683
1.29683
1.29683
1.2969
1.29705
1.29727
1.29743
1.2975
1.29755
1.29763
1.29776
1.2979
1.29804
1.29816
1.29826
1.29837
1.29847
1.29853
1.29858
1.29864
1.29871
1.29877
1.29881
1.29886
1.2989
1.29891
1.2989
1.29882
1.29867
1.29845
1.29818
1.29787
1.29757
1.29733
1.29725
1.29726
1.29735
1.2975
1.29767
1.29787
1.29801
1.29801
1.29796
1.29774
1.29738
1.29709
1.29699
1.29699
1.29703
1.29724
1.2975
1.2976
1.29758
1.29739
1.29696
1.29651
1.29603
1.29533
1.29422
1.29262
1.29063
1.28821
1.28543
1.28201
1.27843
1.27467
1.27132
1.2676
1.2642
1.26087
1.25829
1.25897
1.26206
1.27014
1.28115
1.29186
1.30449
1.30652
1.30822
1.31202
1.31258
1.31233
1.3112
1.30901
1.30612
1.30365
1.30218
1.30059
1.29883
1.29763
1.29721
1.29712
1.29704
1.29699
1.29695
1.29693
1.29695
1.29703
1.29711
1.29712
1.2971
1.29711
1.29718
1.29734
1.29742
1.29745
1.29745
1.29744
1.29743
1.29748
1.2976
1.29776
1.29793
1.29803
1.29805
1.29809
1.29818
1.29831
1.29842
1.29851
1.29861
1.29872
1.29884
1.29899
1.29917
1.29932
1.29936
1.2993
1.29917
1.29901
1.29884
1.29863
1.29835
1.29802
1.29785
1.29785
1.29786
1.29788
1.29797
1.29815
1.29837
1.29847
1.29844
1.29835
1.29812
1.29784
1.29765
1.29752
1.2975
1.2975
1.29751
1.29754
1.29753
1.29736
1.29693
1.29645
1.29587
1.29504
1.29377
1.29204
1.29001
1.28775
1.28524
1.28231
1.27905
1.27579
1.27272
1.26921
1.26577
1.2616
1.25829
1.25518
1.25458
1.25609
1.26044
1.27089
1.28383
1.29478
1.30569
1.31035
1.31091
1.31101
1.31005
1.30783
1.30477
1.30311
1.30186
1.30036
1.29871
1.29757
1.29805
1.298
1.29794
1.29786
1.29785
1.29787
1.29787
1.29787
1.29786
1.29782
1.29778
1.2978
1.2979
1.29792
1.29791
1.29783
1.29767
1.29756
1.29756
1.29764
1.29772
1.29772
1.29772
1.29774
1.29779
1.29785
1.2979
1.2979
1.2979
1.29794
1.29808
1.2983
1.29849
1.29871
1.29894
1.29909
1.29906
1.29892
1.29884
1.29882
1.29881
1.2988
1.29874
1.29854
1.29827
1.29804
1.29793
1.2979
1.29794
1.2981
1.29841
1.29873
1.29885
1.29884
1.29874
1.29859
1.29851
1.29838
1.29824
1.29819
1.29807
1.29783
1.29761
1.2973
1.29681
1.29632
1.29575
1.29479
1.29323
1.29121
1.2891
1.28705
1.2848
1.28208
1.27913
1.27634
1.27367
1.27076
1.26733
1.26342
1.25943
1.25611
1.25356
1.2507
1.25092
1.25371
1.2599
1.27217
1.28618
1.29559
1.30128
1.30754
1.30904
1.30775
1.30458
1.30249
1.30153
1.29985
1.29839
1.29738
1.29865
1.29865
1.29868
1.29869
1.29866
1.29857
1.29855
1.29857
1.29862
1.29862
1.2986
1.29864
1.29865
1.29863
1.29856
1.29837
1.29807
1.29785
1.29775
1.29778
1.29783
1.29785
1.29781
1.29781
1.29784
1.29782
1.29782
1.29782
1.29775
1.29772
1.29774
1.29786
1.29803
1.29819
1.29839
1.29848
1.29846
1.29843
1.29839
1.29844
1.29871
1.29886
1.29888
1.29886
1.2987
1.29844
1.2983
1.29832
1.2984
1.29856
1.2988
1.29908
1.29918
1.29913
1.29903
1.29888
1.29877
1.29876
1.29874
1.29869
1.29857
1.29827
1.2979
1.2974
1.29667
1.2962
1.29569
1.29468
1.29294
1.29071
1.28864
1.28664
1.28438
1.28172
1.27904
1.27659
1.27422
1.27163
1.26853
1.26501
1.26093
1.25728
1.25386
1.25127
1.24893
1.24672
1.24752
1.25238
1.26104
1.27382
1.28955
1.30292
1.30672
1.3066
1.30481
1.30306
1.30134
1.29875
1.29776
1.297
1.29845
1.29843
1.29845
1.29846
1.29842
1.29834
1.29834
1.29836
1.29839
1.29837
1.29831
1.29825
1.29813
1.29805
1.29804
1.29797
1.29783
1.29773
1.29769
1.29771
1.29788
1.29804
1.29815
1.29831
1.29845
1.29853
1.29857
1.29853
1.29831
1.29817
1.29817
1.29818
1.29815
1.29815
1.29821
1.29829
1.29836
1.29839
1.29836
1.29846
1.29892
1.29915
1.29916
1.29905
1.29875
1.29849
1.29846
1.29861
1.29894
1.2992
1.2994
1.29962
1.29965
1.29944
1.29902
1.29866
1.29846
1.29846
1.29852
1.29862
1.29862
1.29843
1.29796
1.29719
1.29654
1.2963
1.2959
1.29485
1.29285
1.29049
1.2885
1.28657
1.28419
1.28151
1.27897
1.27674
1.27446
1.27195
1.26897
1.26557
1.26177
1.25805
1.25465
1.252
1.24928
1.24719
1.24411
1.24382
1.24545
1.25221
1.26459
1.2769
1.29067
1.29807
1.30266
1.30176
1.29842
1.29679
1.2963
1.29617
1.29707
1.29707
1.29708
1.29709
1.29708
1.29705
1.29703
1.29703
1.29701
1.29699
1.29698
1.29699
1.29701
1.2971
1.29715
1.29715
1.29721
1.29735
1.29751
1.29768
1.29796
1.29831
1.29871
1.29909
1.29939
1.29961
1.29982
1.30004
1.30003
1.29989
1.29976
1.29965
1.29948
1.29932
1.29927
1.29926
1.29921
1.29905
1.29905
1.29927
1.29945
1.29946
1.29939
1.29905
1.29861
1.29844
1.29846
1.29878
1.29946
1.29987
1.30003
1.30016
1.30012
1.29972
1.29895
1.29825
1.29793
1.29794
1.29816
1.29857
1.29866
1.29849
1.29795
1.29706
1.29663
1.29644
1.29597
1.2947
1.29258
1.29045
1.28863
1.28668
1.28419
1.2814
1.27891
1.27679
1.27463
1.27215
1.26926
1.26592
1.26225
1.25853
1.25522
1.25255
1.25017
1.24774
1.24498
1.24235
1.23964
1.24043
1.24419
1.25408
1.27017
1.28311
1.29173
1.29374
1.29487
1.29702
1.29659
1.29549
1.2956
1.29559
1.29556
1.2955
1.2954
1.2953
1.29526
1.29525
1.29525
1.29527
1.29534
1.29547
1.29561
1.29582
1.29605
1.29625
1.29651
1.29675
1.29695
1.29715
1.29751
1.29799
1.29843
1.29881
1.29916
1.29943
1.29966
1.29989
1.29991
1.2998
1.29962
1.29951
1.29946
1.29943
1.29945
1.29947
1.29943
1.29922
1.2991
1.29923
1.29928
1.29923
1.299
1.29842
1.29788
1.29776
1.29779
1.29818
1.29896
1.29944
1.29969
1.29987
1.29985
1.29951
1.29892
1.2983
1.29791
1.29791
1.29815
1.29854
1.29863
1.29845
1.29789
1.29709
1.29684
1.29664
1.296
1.29444
1.29208
1.28997
1.28836
1.28648
1.2839
1.2811
1.27873
1.27679
1.27487
1.27255
1.26979
1.26655
1.26292
1.2592
1.25578
1.25291
1.25049
1.24801
1.24538
1.24245
1.24001
1.2374
1.23699
1.23912
1.24517
1.25788
1.27037
1.28306
1.29175
1.29555
1.29467
1.29335
1.29583
1.29564
1.29538
1.29527
1.29522
1.29518
1.29511
1.29498
1.29479
1.2947
1.29462
1.29458
1.29458
1.29459
1.29459
1.29452
1.29448
1.29458
1.29483
1.29493
1.29516
1.29539
1.29544
1.29552
1.29589
1.29659
1.29713
1.2975
1.29776
1.29791
1.29808
1.29818
1.29816
1.29794
1.29779
1.29783
1.29793
1.29801
1.29798
1.29761
1.2972
1.29719
1.29723
1.29718
1.2969
1.2967
1.29667
1.29664
1.29673
1.29719
1.29815
1.29906
1.2993
1.29934
1.29927
1.29908
1.29882
1.29869
1.29876
1.29888
1.2988
1.29852
1.29784
1.29722
1.29706
1.29678
1.29591
1.29394
1.29131
1.28908
1.28741
1.28563
1.28337
1.28104
1.2789
1.27701
1.27521
1.27314
1.27061
1.26748
1.26387
1.25998
1.25636
1.25323
1.25065
1.24812
1.24546
1.24277
1.2403
1.23784
1.23616
1.2336
1.23438
1.23737
1.24612
1.25821
1.27061
1.2817
1.28581
1.29064
1.29532
1.29508
1.29482
1.29456
1.29434
1.29409
1.29371
1.29353
1.29352
1.29347
1.29331
1.29325
1.29326
1.29327
1.29322
1.29324
1.29351
1.29379
1.29381
1.29369
1.29341
1.29331
1.29323
1.29307
1.29293
1.29275
1.29267
1.29295
1.2936
1.29402
1.29402
1.29398
1.29405
1.29401
1.29389
1.29389
1.29414
1.29493
1.29529
1.29526
1.29502
1.29501
1.29522
1.29577
1.29607
1.29611
1.29603
1.29552
1.2951
1.29528
1.29612
1.29749
1.29862
1.2992
1.29924
1.29911
1.29901
1.299
1.29906
1.29906
1.29884
1.29804
1.29704
1.29676
1.29663
1.29623
1.2951
1.29302
1.29063
1.28852
1.28661
1.28471
1.28278
1.28093
1.27905
1.27726
1.27561
1.27376
1.27142
1.26851
1.26504
1.26108
1.25718
1.2537
1.25084
1.24829
1.24569
1.2432
1.2407
1.23829
1.23602
1.23386
1.23085
1.22924
1.23059
1.23549
1.24609
1.25974
1.27569
1.28884
1.29761
1.29732
1.29697
1.29668
1.29647
1.29603
1.29507
1.29468
1.29468
1.29462
1.29418
1.29384
1.29375
1.29373
1.29382
1.29446
1.29573
1.29684
1.29752
1.29781
1.29783
1.2978
1.29755
1.29678
1.29561
1.29435
1.29391
1.29423
1.29485
1.29512
1.29508
1.29485
1.29469
1.29429
1.29376
1.29363
1.29368
1.29454
1.29629
1.29673
1.29662
1.29641
1.29649
1.29693
1.29765
1.29832
1.29835
1.29769
1.29615
1.29534
1.29563
1.29606
1.29624
1.2964
1.29657
1.29681
1.29729
1.29775
1.29787
1.29778
1.2972
1.29618
1.29547
1.29522
1.29507
1.29472
1.29377
1.29216
1.29036
1.28864
1.28676
1.28464
1.28257
1.2808
1.27914
1.27754
1.27597
1.27425
1.27213
1.26948
1.2662
1.26233
1.25834
1.25461
1.2514
1.24883
1.24632
1.2438
1.2412
1.23869
1.23613
1.23402
1.23111
1.22801
1.22383
1.22408
1.22558
1.23381
1.24778
1.27083
1.30834
1.30802
1.30792
1.30786
1.30786
1.30782
1.30761
1.30736
1.30716
1.30663
1.30598
1.30588
1.30592
1.30611
1.3064
1.30689
1.30836
1.30927
1.30984
1.31064
1.31088
1.31072
1.31036
1.30991
1.30909
1.30791
1.30667
1.30556
1.30471
1.30387
1.30227
1.30063
1.29971
1.29828
1.29586
1.29522
1.29527
1.29583
1.29784
1.29947
1.29956
1.29927
1.29908
1.29895
1.29908
1.3
1.30021
1.29931
1.29744
1.29651
1.29635
1.29623
1.29599
1.29539
1.29464
1.29435
1.29435
1.29461
1.29523
1.29567
1.2956
1.29522
1.29465
1.29403
1.29368
1.29329
1.29233
1.29081
1.2896
1.28842
1.28671
1.28449
1.28212
1.2803
1.27889
1.27753
1.27606
1.27438
1.27239
1.27008
1.2673
1.2639
1.26013
1.25634
1.2529
1.2499
1.24706
1.2443
1.24161
1.239
1.23643
1.23413
1.23174
1.22849
1.22461
1.22004
1.21642
1.21745
1.22362
1.24688
1.32644
1.32604
1.32566
1.32503
1.32444
1.32409
1.32335
1.32186
1.32024
1.32001
1.32016
1.31955
1.31905
1.3191
1.31842
1.31589
1.31352
1.31293
1.31304
1.31395
1.31469
1.31475
1.31493
1.31582
1.31656
1.31622
1.3158
1.31594
1.31625
1.31618
1.31575
1.31552
1.31491
1.31284
1.30924
1.30601
1.30396
1.30347
1.3043
1.30495
1.30459
1.30176
1.29897
1.29859
1.29889
1.2999
1.30007
1.29986
1.29956
1.29964
1.3
1.30025
1.29974
1.29831
1.29647
1.29534
1.29523
1.29532
1.29565
1.29625
1.29718
1.29738
1.29686
1.29573
1.29421
1.29256
1.29081
1.28905
1.28767
1.28634
1.2846
1.28246
1.28024
1.27853
1.27753
1.27669
1.27569
1.2743
1.2725
1.27032
1.26795
1.26522
1.26184
1.25803
1.25417
1.25067
1.24765
1.24466
1.24195
1.23945
1.23699
1.23478
1.23236
1.22902
1.22472
1.22028
1.21494
1.21014
1.21094
1.22307
1.37734
1.37743
1.37737
1.37652
1.37561
1.37552
1.37583
1.37607
1.3754
1.37244
1.37087
1.37063
1.36957
1.36698
1.36407
1.36075
1.35674
1.35498
1.35357
1.3517
1.34919
1.346
1.34224
1.33926
1.33745
1.33519
1.33297
1.33278
1.33276
1.33204
1.33256
1.33498
1.33407
1.33327
1.33368
1.33293
1.33087
1.3292
1.32859
1.32861
1.32831
1.32611
1.32144
1.31605
1.3122
1.31044
1.30871
1.3073
1.30717
1.3079
1.30845
1.30873
1.30858
1.30869
1.30886
1.3072
1.30272
1.29917
1.29841
1.29848
1.29919
1.29938
1.29799
1.29533
1.2936
1.29221
1.29039
1.28827
1.28605
1.28433
1.28272
1.28097
1.27904
1.27748
1.27652
1.27586
1.27509
1.27381
1.27223
1.27032
1.26815
1.26551
1.26239
1.25902
1.25523
1.25163
1.24847
1.24539
1.24276
1.2406
1.23813
1.23552
1.23283
1.22928
1.22474
1.22073
1.21679
1.2105
1.2052
1.20856
1.42266
1.42403
1.42462
1.42454
1.42358
1.42193
1.41894
1.41489
1.41281
1.41061
1.40794
1.40772
1.40795
1.40631
1.40329
1.40286
1.40449
1.40531
1.40442
1.40289
1.40193
1.39986
1.3967
1.39594
1.3963
1.39563
1.39111
1.38682
1.3865
1.38619
1.38477
1.38207
1.37878
1.37603
1.37317
1.3666
1.35692
1.354
1.35283
1.35021
1.34857
1.34977
1.35066
1.34828
1.34395
1.34194
1.34045
1.338
1.33545
1.332
1.32535
1.31716
1.31447
1.31546
1.3181
1.31722
1.31379
1.31065
1.30725
1.30342
1.30252
1.30177
1.29977
1.29678
1.29505
1.29392
1.29235
1.29002
1.28721
1.28532
1.28385
1.28257
1.28122
1.27989
1.27859
1.27716
1.27568
1.27392
1.2721
1.26993
1.26759
1.26492
1.26203
1.25891
1.25566
1.25249
1.24957
1.24666
1.24408
1.24161
1.23902
1.23619
1.23322
1.22953
1.22519
1.22141
1.21794
1.21249
1.20528
1.20385
1.49611
1.49582
1.49612
1.49695
1.49715
1.49665
1.49453
1.49105
1.48781
1.48533
1.48322
1.48136
1.47915
1.47596
1.47363
1.47103
1.46658
1.46483
1.46499
1.46442
1.46151
1.45748
1.45307
1.45028
1.44997
1.44962
1.44792
1.44198
1.43801
1.43787
1.43689
1.4331
1.43193
1.43245
1.43197
1.42897
1.4231
1.41692
1.41304
1.40985
1.40719
1.40517
1.39908
1.38918
1.38435
1.38094
1.37559
1.37326
1.37432
1.37525
1.37096
1.36065
1.35427
1.35205
1.34932
1.34119
1.33382
1.33372
1.33345
1.33004
1.32654
1.32208
1.3151
1.31131
1.3095
1.30849
1.30628
1.30145
1.29536
1.29186
1.28951
1.28696
1.28412
1.28183
1.27943
1.27666
1.27446
1.27263
1.27114
1.26924
1.26694
1.26446
1.26205
1.25945
1.25694
1.2539
1.25088
1.24758
1.24463
1.24174
1.2391
1.23626
1.23325
1.23039
1.22661
1.22233
1.21833
1.21311
1.206
1.20248
1.56716
1.56593
1.56399
1.56089
1.55881
1.55817
1.55845
1.55927
1.55911
1.55784
1.5549
1.55151
1.54963
1.54981
1.54988
1.54846
1.54431
1.54353
1.54359
1.54222
1.53828
1.53279
1.53091
1.53051
1.52962
1.52702
1.52279
1.51798
1.51359
1.51005
1.50675
1.50289
1.49921
1.49618
1.49232
1.48758
1.48344
1.47955
1.47347
1.46554
1.46364
1.46439
1.46337
1.45834
1.45122
1.44479
1.43922
1.43426
1.43052
1.42621
1.41561
1.40505
1.40146
1.39985
1.39721
1.39043
1.38268
1.3772
1.36771
1.35777
1.3559
1.35273
1.34605
1.33957
1.32995
1.32292
1.31902
1.31516
1.30876
1.30044
1.29371
1.29
1.2871
1.28418
1.28129
1.2783
1.27607
1.27415
1.27266
1.27078
1.26902
1.26691
1.2648
1.26197
1.25879
1.25523
1.25176
1.24833
1.24505
1.24178
1.23927
1.23653
1.23401
1.23133
1.22764
1.22281
1.21816
1.21318
1.20639
1.20227
1.64991
1.64845
1.64689
1.645
1.64316
1.64122
1.63897
1.6382
1.6385
1.6383
1.636
1.63302
1.62903