/*--------------------------------*- C++ -*----------------------------------*\
  =========                 |
  \\      /  F ield         | OpenFOAM: The Open Source CFD Toolbox
   \\    /   O peration     | Website:  https://openfoam.org
    \\  /    A nd           | Version:  7
     \\/     M anipulation  |
\*---------------------------------------------------------------------------*/
FoamFile
{
    version     2.0;
    format      ascii;
    class       volScalarField;
    location    "1.4";
    object      rho;
}
// * * * * * * * * * * * * * * * * * * * * * * * * * * * * * * * * * * * * * //

dimensions      [1 -3 0 0 0 0 0];

internalField   nonuniform List<scalar> 
11200
(
0.235592
0.343631
0.470139
0.583212
0.670192
0.752592
0.763383
0.783257
0.799338
0.800114
0.824637
0.895492
0.983009
1.07715
1.15614
1.19826
1.28064
1.36364
1.37151
1.29788
1.20328
1.19066
1.22436
1.23038
1.22655
1.22029
1.19931
1.17432
1.16488
1.18261
0.14161
0.150502
0.173769
0.235316
0.337127
0.48128
0.614424
0.712561
0.822348
0.830486
0.837215
0.887862
0.946113
1.01647
1.13013
1.21497
1.29393
1.34119
1.34043
1.27988
1.17154
1.13473
1.15638
1.1719
1.16236
1.14604
1.12317
1.11131
1.11188
1.14399
0.145226
0.14964
0.154626
0.158768
0.164105
0.18359
0.250168
0.361965
0.538512
0.714502
0.772865
0.804466
0.86088
0.927867
1.09762
1.2455
1.31146
1.34802
1.34629
1.28415
1.16873
1.10448
1.09977
1.09787
1.07287
1.05164
1.03403
1.03531
1.04731
1.11123
0.150464
0.152398
0.154993
0.158604
0.162002
0.165646
0.171352
0.181396
0.205525
0.299529
0.460922
0.581155
0.674747
0.716172
0.824652
1.01543
1.17856
1.33416
1.35455
1.2998
1.16681
1.09765
1.08713
1.06686
1.03426
1.0086
0.996885
1.00087
1.02676
1.10497
0.156641
0.158185
0.159266
0.159571
0.160437
0.16203
0.163363
0.164688
0.168393
0.176948
0.182662
0.218232
0.270382
0.332598
0.360995
0.438496
0.648989
1.00449
1.28303
1.27578
1.16148
1.11965
1.09582
1.04949
1.02618
1.00033
0.981293
0.982889
1.01631
1.09373
0.161157
0.161108
0.160947
0.160303
0.159797
0.159835
0.160192
0.161086
0.161359
0.160937
0.160994
0.164155
0.182698
0.241533
0.31897
0.348491
0.352854
0.42403
0.749874
1.12431
1.14322
1.13982
1.12953
1.089
1.01509
0.984608
0.985967
1.00966
1.05089
1.12571
0.159685
0.158648
0.157056
0.155334
0.155127
0.155319
0.156532
0.158042
0.157939
0.157723
0.15864
0.161791
0.17417
0.211164
0.274077
0.327309
0.344803
0.35436
0.365243
0.603544
1.03742
1.16892
1.17194
1.13204
1.06166
1.02422
1.02169
1.03267
1.07331
1.14949
0.152931
0.151537
0.151004
0.151111
0.151743
0.153258
0.155733
0.156812
0.156621
0.156657
0.157884
0.161485
0.173575
0.202966
0.253147
0.309115
0.338237
0.350788
0.363254
0.384914
0.59573
0.990936
1.14125
1.16581
1.13438
1.08588
1.07595
1.07644
1.11042
1.17204
0.149392
0.149469
0.149793
0.150594
0.152113
0.154887
0.157467
0.158946
0.159303
0.15944
0.161554
0.166752
0.177329
0.200955
0.24688
0.301526
0.33608
0.350443
0.36547
0.391591
0.411262
0.52002
0.790115
1.04033
1.08608
1.07202
1.08261
1.0954
1.13168
1.17872
0.15575
0.157488
0.16008
0.16311
0.166333
0.169593
0.17329
0.175733
0.176844
0.177908
0.180445
0.184865
0.192581
0.211018
0.248578
0.301163
0.346623
0.378078
0.399682
0.418027
0.445481
0.456646
0.464505
0.558079
0.738621
0.910392
1.01376
1.07079
1.12183
1.1645
0.17654
0.176809
0.177268
0.178436
0.180667
0.184227
0.190437
0.195546
0.197886
0.200034
0.204246
0.212315
0.227174
0.251995
0.289406
0.340855
0.382312
0.410845
0.436717
0.459475
0.483045
0.491561
0.495867
0.49458
0.488683
0.529827
0.634654
0.812189
0.96889
1.08484
0.19592
0.196027
0.196547
0.198136
0.201388
0.207916
0.218962
0.224674
0.226011
0.22725
0.231097
0.239639
0.254365
0.277818
0.311653
0.357462
0.398637
0.428896
0.452728
0.475598
0.504209
0.513948
0.517168
0.519035
0.520198
0.504804
0.501844
0.53506
0.6235
0.848779
0.239449
0.239952
0.240631
0.242027
0.244083
0.247229
0.253699
0.260269
0.26299
0.263924
0.266097
0.270926
0.280624
0.298286
0.321081
0.356996
0.40074
0.433695
0.457365
0.478696
0.50538
0.534919
0.548379
0.556216
0.558741
0.548604
0.541753
0.550502
0.575619
0.691149
0.279704
0.279695
0.279417
0.279593
0.280484
0.283263
0.288474
0.297927
0.30826
0.310355
0.310367
0.312573
0.325062
0.348876
0.370462
0.396311
0.436434
0.47386
0.500908
0.524525
0.54464
0.565942
0.590255
0.600495
0.602496
0.595987
0.593322
0.607678
0.630396
0.712852
0.330842
0.332866
0.3332
0.332952
0.33309
0.334418
0.336915
0.342193
0.35372
0.358498
0.359284
0.363384
0.376691
0.395143
0.417252
0.449818
0.493517
0.534868
0.56629
0.591806
0.614253
0.63552
0.64633
0.649516
0.648101
0.636241
0.633417
0.645616
0.673817
0.757718
0.393738
0.39701
0.398841
0.39667
0.39176
0.390977
0.391571
0.396011
0.4083
0.419613
0.422309
0.423357
0.426894
0.439483
0.460021
0.48568
0.517741
0.554012
0.585348
0.608157
0.628853
0.655492
0.673182
0.681349
0.685438
0.680989
0.677006
0.687973
0.714808
0.811917
0.469387
0.472956
0.477121
0.478309
0.474654
0.464866
0.461242
0.462743
0.470581
0.484169
0.491763
0.494614
0.499498
0.510473
0.526202
0.542424
0.564086
0.596005
0.630581
0.656042
0.674171
0.695826
0.72436
0.738972
0.743294
0.741251
0.743416
0.761319
0.790785
0.884802
0.555834
0.559558
0.564831
0.568947
0.56969
0.565118
0.552999
0.547449
0.549802
0.559307
0.570527
0.575766
0.577009
0.579969
0.5912
0.612733
0.640039
0.672174
0.706022
0.732582
0.751822
0.773523
0.798082
0.808398
0.810027
0.80561
0.809728
0.827705
0.859386
0.965282
0.655844
0.657714
0.662426
0.668358
0.671108
0.671472
0.667724
0.656038
0.648878
0.651189
0.658269
0.663823
0.666395
0.669202
0.675825
0.688368
0.703777
0.722591
0.747463
0.773026
0.794661
0.819493
0.850062
0.864707
0.868649
0.869335
0.877149
0.899094
0.93466
1.04997
0.783468
0.780218
0.776074
0.774603
0.777558
0.779069
0.7791
0.776937
0.769673
0.762862
0.762826
0.766357
0.766828
0.766604
0.76947
0.778215
0.792141
0.8106
0.834165
0.859574
0.883481
0.911373
0.940475
0.950773
0.951627
0.95445
0.967674
0.993042
1.03351
1.15331
0.937726
0.933511
0.928774
0.919754
0.908952
0.90071
0.89912
0.899927
0.898901
0.895292
0.891665
0.890716
0.889936
0.887276
0.886887
0.891152
0.900478
0.914324
0.931477
0.950316
0.972606
1.00413
1.03009
1.03723
1.03806
1.04487
1.06144
1.0905
1.13918
1.25652
1.11533
1.11395
1.1121
1.10722
1.0985
1.08538
1.07168
1.06561
1.0652
1.06291
1.05787
1.0563
1.0537
1.04775
1.04856
1.05079
1.05302
1.05968
1.06997
1.08155
1.0982
1.12259
1.13691
1.14144
1.14123
1.14869
1.1671
1.19996
1.25367
1.34298
1.38258
1.36961
1.3635
1.35841
1.35243
1.34206
1.32342
1.31617
1.31195
1.30363
1.29093
1.28616
1.28112
1.2711
1.26611
1.26331
1.26016
1.25724
1.25401
1.25047
1.25095
1.25465
1.25779
1.25494
1.24804
1.25378
1.27158
1.30345
1.34707
1.38815
1.62899
1.61648
1.60977
1.60503
1.59506
1.58352
1.57333
1.56064
1.54798
1.5367
1.52347
1.50909
1.49661
1.48505
1.47422
1.46383
1.45306
1.44261
1.43213
1.42032
1.40502
1.38708
1.3689
1.3497
1.33906
1.34215
1.35378
1.37269
1.39082
1.39905
1.68033
1.67324
1.66132
1.65339
1.6478
1.63876
1.62852
1.61947
1.60836
1.59575
1.58442
1.57252
1.55911
1.54607
1.53292
1.51849
1.50348
1.48875
1.47312
1.45786
1.44408
1.42989
1.41353
1.39597
1.38798
1.38856
1.3919
1.39659
1.39939
1.39998
1.63806
1.6343
1.62973
1.62322
1.61708
1.61113
1.60359
1.59529
1.58667
1.57671
1.56578
1.55496
1.5434
1.53054
1.51732
1.50377
1.48936
1.47474
1.46058
1.44595
1.43153
1.41859
1.40781
1.4015
1.39925
1.39921
1.39949
1.39985
1.39999
1.4
1.49797
1.49762
1.49714
1.49621
1.49486
1.49337
1.49142
1.48892
1.48599
1.48241
1.47814
1.47341
1.46809
1.4619
1.45496
1.4475
1.43968
1.43167
1.42388
1.41652
1.40997
1.40487
1.40169
1.40027
1.4
1.39999
1.39999
1.4
1.4
1.40001
1.41085
1.41105
1.41123
1.41138
1.41145
1.41147
1.41147
1.41142
1.41132
1.4111
1.41073
1.41022
1.40955
1.40869
1.40765
1.40647
1.40521
1.40393
1.40272
1.40167
1.40086
1.40033
1.40009
1.40002
1.40001
1.4
1.4
1.40001
1.40001
1.40001
1.40024
1.40025
1.40026
1.40028
1.40029
1.40029
1.4003
1.40031
1.40031
1.40032
1.40031
1.4003
1.40029
1.40027
1.40023
1.4002
1.40016
1.40011
1.40007
1.40004
1.40002
1.40001
1.40001
1.40001
1.40001
1.40001
1.40001
1.40001
1.40001
1.40001
1.40001
1.40001
1.40001
1.40001
1.40001
1.40001
1.40001
1.40001
1.40001
1.40001
1.40001
1.40001
1.40001
1.40001
1.40001
1.40001
1.40001
1.40001
1.40001
1.40001
1.40001
1.40001
1.40001
1.40001
1.40001
1.40001
1.40001
1.40001
1.40001
1.40001
1.40001
1.40001
1.40001
1.40001
1.40001
1.40001
1.40001
1.40001
1.40001
1.40001
1.40001
1.40001
1.40001
1.40001
1.40001
1.40001
1.40001
1.40001
1.40001
1.40001
1.40001
1.40001
1.40001
1.40001
1.40001
1.40001
1.40001
1.40001
1.40001
1.40001
1.40001
1.40001
1.40001
1.40001
1.40001
1.40001
1.40001
1.40001
1.40001
1.40001
1.40001
1.40001
1.40001
1.40001
1.40001
1.40001
1.40001
1.40001
1.40001
1.40001
1.40001
1.40001
1.40001
1.40001
1.40001
1.40001
1.40001
1.40001
1.40001
1.40001
1.40001
1.40001
1.40001
1.40001
1.40001
1.40001
1.40001
1.40001
1.40001
1.40001
1.40001
1.40001
1.40001
1.40001
1.40001
1.40001
1.40001
1.40001
1.40001
1.40001
1.40001
1.40001
1.40001
1.40001
1.40001
1.40001
1.40001
1.40001
1.40001
1.40001
1.40001
1.40001
1.40001
1.40001
1.40001
1.40001
1.40001
1.40001
1.40001
1.40001
1.40001
1.40001
1.40001
1.40001
1.40001
1.40001
1.40001
1.40001
1.40001
1.40001
1.40001
1.40001
1.40001
1.40001
1.40001
1.40001
1.40001
1.40001
1.40001
1.40001
1.40001
1.40001
1.40001
1.40001
1.40001
1.40001
1.40001
1.40001
1.40001
1.40001
1.40001
1.40001
1.40001
1.40001
1.40001
1.40001
1.40001
1.40001
1.40001
1.40001
1.40001
1.40001
1.40001
1.40001
1.40001
1.40001
1.40001
1.40001
1.40001
1.40001
0.139569
0.135231
0.140736
0.146752
0.154544
0.161199
0.160573
0.15464
0.150069
0.154728
0.17648
0.196787
0.238921
0.279478
0.329633
0.391681
0.4665
0.552868
0.658432
0.801423
0.949237
1.13155
1.40651
1.6484
1.69118
1.6432
1.4982
1.41033
1.40024
1.40001
1.40001
1.40001
1.40001
1.40001
1.40001
0.129515
0.128574
0.137836
0.144425
0.15479
0.161039
0.1603
0.154795
0.153302
0.159517
0.18352
0.209587
0.250562
0.292812
0.342439
0.403102
0.477613
0.57416
0.705101
0.841431
0.984607
1.18521
1.46344
1.68293
1.70734
1.64401
1.48451
1.4073
1.40014
1.40001
1.40001
1.40001
1.40001
1.40001
1.40001
0.124262
0.122998
0.134341
0.141626
0.153437
0.160909
0.160137
0.156645
0.156513
0.163315
0.185938
0.214708
0.253983
0.298118
0.350072
0.41269
0.494089
0.610241
0.737046
0.862484
1.01382
1.22543
1.50948
1.70906
1.72237
1.643
1.47518
1.4056
1.40009
1.40001
1.40001
1.40001
1.40001
1.40001
1.40001
0.120159
0.120355
0.133064
0.140849
0.151654
0.159965
0.159367
0.157207
0.157439
0.164516
0.186194
0.216501
0.255374
0.301818
0.360559
0.434626
0.529002
0.636385
0.751826
0.883604
1.05232
1.2687
1.55758
1.7323
1.73619
1.63669
1.46478
1.40409
1.40006
1.40001
1.40001
1.40001
1.40001
1.40001
1.40001
0.118194
0.119203
0.132454
0.140769
0.150896
0.156697
0.156677
0.157232
0.157345
0.162788
0.186032
0.216723
0.257026
0.310449
0.376436
0.454088
0.543748
0.644591
0.763373
0.912899
1.08915
1.31482
1.6064
1.75338
1.74944
1.62877
1.45474
1.40292
1.40004
1.40001
1.40001
1.40001
1.40001
1.40001
1.40001
0.116709
0.119184
0.132382
0.141222
0.150983
0.154187
0.153607
0.156913
0.156073
0.159286
0.188566
0.21908
0.264879
0.320221
0.38513
0.460538
0.549042
0.65162
0.78241
0.949062
1.12635
1.3697
1.65645
1.77555
1.76025
1.61731
1.44504
1.40202
1.40003
1.40001
1.40001
1.40001
1.40001
1.40001
1.40001
0.116354
0.120316
0.133247
0.14363
0.153065
0.153769
0.151421
0.154643
0.154387
0.15875
0.192389
0.223407
0.268911
0.323192
0.388156
0.463454
0.552368
0.666618
0.824992
0.982436
1.16928
1.42611
1.70567
1.79773
1.76703
1.60209
1.43587
1.40135
1.40002
1.40001
1.40001
1.40001
1.40001
1.40001
1.40001
0.116599
0.123182
0.13504
0.146001
0.155263
0.153967
0.150137
0.152038
0.153011
0.159016
0.195618
0.225719
0.27114
0.324374
0.388725
0.465212
0.56809
0.715168
0.860216
1.01691
1.21657
1.48064
1.75049
1.81627
1.77007
1.58433
1.42789
1.40088
1.40001
1.40001
1.40001
1.40001
1.40001
1.40001
1.40001
0.117318
0.12513
0.13516
0.146596
0.155751
0.154534
0.149741
0.150399
0.152229
0.161622
0.200002
0.231373
0.27783
0.330729
0.399714
0.494882
0.617377
0.747751
0.885367
1.05221
1.25798
1.53715
1.78928
1.83175
1.77193
1.56505
1.42091
1.40056
1.40001
1.40001
1.40001
1.40001
1.40001
1.40001
1.40001
0.117838
0.125847
0.134891
0.146628
0.155797
0.154556
0.149844
0.148972
0.151934
0.168465
0.206758
0.244532
0.295952
0.358267
0.437813
0.533596
0.640699
0.76155
0.907721
1.08542
1.30331
1.59618
1.82233
1.84654
1.76772
1.54407
1.41531
1.40035
1.40001
1.40001
1.40001
1.40001
1.40001
1.40001
1.40001
0.11813
0.125771
0.133879
0.146425
0.15526
0.154195
0.150533
0.14833
0.15126
0.177822
0.215266
0.259035
0.313663
0.378511
0.454962
0.546006
0.650342
0.774922
0.936676
1.1222
1.35747
1.65381
1.85266
1.8617
1.75597
1.52337
1.4109
1.40021
1.40001
1.40001
1.40001
1.40001
1.40001
1.40001
1.40001
0.118458
0.124824
0.131833
0.145572
0.152496
0.151588
0.151196
0.148406
0.151112
0.186215
0.221141
0.266466
0.321576
0.385795
0.460527
0.550603
0.659665
0.800061
0.976949
1.16891
1.41468
1.71304
1.87793
1.87394
1.74218
1.50305
1.40754
1.40013
1.40001
1.40001
1.40001
1.40001
1.40001
1.40001
1.40001
0.119004
0.124066
0.130911
0.145344
0.150061
0.148631
0.150338
0.148885
0.151758
0.190213
0.22397
0.269251
0.324133
0.388218
0.464054
0.555386
0.685711
0.856526
1.02609
1.2262
1.47594
1.76945
1.89674
1.88032
1.72114
1.48302
1.40501
1.40007
1.40001
1.40001
1.40001
1.40001
1.40001
1.40001
1.40001
0.119279
0.123325
0.130966
0.145676
0.148414
0.145544
0.147017
0.147717
0.151124
0.190898
0.224853
0.270052
0.324372
0.390598
0.479276
0.599449
0.747328
0.902244
1.07433
1.27925
1.53843
1.81715
1.91031
1.8812
1.69338
1.46533
1.40327
1.40004
1.40001
1.40001
1.40001
1.40001
1.40001
1.40001
1.40001
0.11836
0.12228
0.131395
0.145969
0.147515
0.143216
0.144462
0.146914
0.150414
0.190045
0.225994
0.274811
0.339122
0.422516
0.52834
0.64802
0.779774
0.933914
1.11692
1.32911
1.60178
1.86027
1.92051
1.87458
1.66411
1.44994
1.40207
1.40003
1.40001
1.40001
1.40001
1.40001
1.40001
1.40001
1.40001
0.116503
0.121389
0.132956
0.147414
0.147418
0.1423
0.143322
0.148902
0.155557
0.19533
0.239761
0.295977
0.36839
0.453973
0.551549
0.668266
0.801787
0.965277
1.16184
1.38944
1.67319
1.89865
1.92814
1.86394
1.63317
1.43711
1.40127
1.40002
1.40001
1.40001
1.40001
1.40001
1.40001
1.40001
1.40001
0.114336
0.121046
0.135236
0.151338
0.149265
0.14258
0.143028
0.154798
0.168424
0.209031
0.253973
0.307001
0.377606
0.462964
0.560839
0.680237
0.830926
1.01287
1.21861
1.46304
1.74275
1.92667
1.93584
1.85169
1.60042
1.42654
1.40076
1.40001
1.40001
1.40001
1.40001
1.40001
1.40001
1.40001
1.40001
0.113234
0.121547
0.137191
0.154092
0.151818
0.143998
0.144696
0.15934
0.176776
0.215785
0.260819
0.31338
0.382889
0.467873
0.57046
0.701363
0.877851
1.07439
1.28637
1.53309
1.80541
1.94624
1.94447
1.83058
1.5662
1.41816
1.40044
1.40001
1.40001
1.40001
1.40001
1.40001
1.40001
1.40001
1.40001
0.113246
0.124123
0.138152
0.154851
0.152501
0.14554
0.145703
0.160445
0.180857
0.220536
0.267634
0.321514
0.390276
0.47909
0.606619
0.770352
0.94766
1.13572
1.35094
1.60407
1.8635
1.96174
1.94808
1.8006
1.53509
1.41216
1.40025
1.40001
1.40001
1.40001
1.40001
1.40001
1.40001
1.40001
1.40001
0.114697
0.126389
0.137824
0.151657
0.148895
0.14541
0.145755
0.158136
0.183187
0.227126
0.279986
0.340286
0.422595
0.537308
0.676969
0.827546
0.993606
1.18942
1.4163
1.67836
1.91015
1.9728
1.94421
1.76977
1.50663
1.4078
1.40014
1.40001
1.40001
1.40001
1.40001
1.40001
1.40001
1.40001
1.40001
0.11895
0.127135
0.134085
0.1444
0.142756
0.142782
0.146017
0.155045
0.187947
0.242074
0.309378
0.382937
0.472682
0.583267
0.711082
0.860345
1.03618
1.24682
1.48534
1.7489
1.94589
1.97958
1.93509
1.73159
1.48032
1.40476
1.40007
1.40001
1.40001
1.40001
1.40001
1.40001
1.40001
1.40001
1.40001
0.125164
0.127858
0.130763
0.140675
0.139203
0.14038
0.147713
0.160692
0.208457
0.263529
0.331115
0.40607
0.493816
0.601507
0.732252
0.890654
1.08958
1.31595
1.56187
1.81974
1.97242
1.98319
1.91997
1.68932
1.45936
1.40287
1.40004
1.40001
1.40001
1.40001
1.40001
1.40001
1.40001
1.40001
1.40001
0.128219
0.128576
0.130426
0.140512
0.138605
0.139855
0.152444
0.175926
0.222949
0.271739
0.335421
0.40948
0.500783
0.613709
0.758669
0.944748
1.16307
1.39434
1.64658
1.88323
1.9888
1.98519
1.89855
1.64733
1.4416
1.40162
1.40002
1.40001
1.40001
1.40001
1.40001
1.40001
1.40001
1.40001
1.40001
0.128397
0.127269
0.134998
0.145733
0.141069
0.141078
0.15759
0.184292
0.22451
0.272717
0.333042
0.405556
0.504362
0.645447
0.828323
1.03306
1.24778
1.47956
1.72727
1.93289
1.99872
1.98479
1.86757
1.60289
1.42797
1.40089
1.40001
1.40001
1.40001
1.40001
1.40001
1.40001
1.40001
1.40001
1.40001
0.124782
0.122778
0.141763
0.150048
0.143646
0.141464
0.158888
0.188355
0.222413
0.272803
0.333535
0.416289
0.560878
0.733477
0.911813
1.10514
1.31943
1.56043
1.80174
1.96975
2.0028
1.98039
1.8342
1.56345
1.41831
1.40047
1.40001
1.40001
1.40001
1.40001
1.40001
1.40001
1.40001
1.40001
1.40001
0.116277
0.119566
0.143604
0.150491
0.142813
0.139777
0.15618
0.190845
0.228262
0.290428
0.376198
0.496023
0.641201
0.793211
0.963791
1.16237
1.39348
1.64279
1.87161
1.99435
2.00393
1.9702
1.79405
1.52514
1.41104
1.40024
1.40001
1.40001
1.40001
1.40001
1.40001
1.40001
1.40001
1.40001
1.40001
0.111622
0.119316
0.14313
0.148982
0.137195
0.135869
0.153664
0.193033
0.258836
0.339676
0.439013
0.550473
0.67741
0.830023
1.01663
1.23695
1.48493
1.7322
1.93269
2.00991
2.00598
1.94687
1.74374
1.49189
1.40652
1.40012
1.40001
1.40001
1.40001
1.40001
1.40001
1.40001
1.40001
1.40001
1.40001
0.111073
0.121301
0.139979
0.142035
0.13258
0.133987
0.163893
0.214965
0.298922
0.379341
0.467428
0.568691
0.701775
0.87761
1.09364
1.33749
1.58679
1.81907
1.9772
2.0177
2.00852
1.93001
1.70055
1.46683
1.4037
1.40006
1.40001
1.40001
1.40001
1.40001
1.40001
1.40001
1.40001
1.40001
1.40001
0.11305
0.12635
0.137318
0.13359
0.131499
0.135996
0.191282
0.244729
0.315079
0.391301
0.47453
0.580911
0.75299
0.970803
1.19843
1.44018
1.682
1.8912
2.00387
2.01969
2.01107
1.91069
1.65018
1.44329
1.40185
1.40003
1.40001
1.40001
1.40001
1.40001
1.40001
1.40001
1.40001
1.40001
1.40001
0.120381
0.129028
0.13536
0.129946
0.131908
0.14959
0.205797
0.251821
0.313304
0.390576
0.478847
0.640982
0.863468
1.07024
1.29228
1.53392
1.77274
1.95014
2.01874
2.019
1.99705
1.85785
1.59146
1.42662
1.40091
1.40001
1.40001
1.40001
1.40001
1.40001
1.40001
1.40001
1.40001
1.40001
1.40001
0.126944
0.129066
0.13138
0.128469
0.135576
0.157682
0.206226
0.253171
0.305822
0.393033
0.553513
0.757337
0.949226
1.14868
1.38271
1.63463
1.85983
1.99333
2.02601
2.01954
1.97203
1.80956
1.55037
1.41692
1.40046
1.40001
1.40001
1.40001
1.40001
1.40001
1.40001
1.40001
1.40001
1.40001
1.40001
0.127898
0.123581
0.126868
0.126085
0.137372
0.161674
0.198561
0.25512
0.340654
0.482794
0.657327
0.824913
1.00915
1.23665
1.49277
1.74358
1.93319
2.01823
2.02961
2.02177
1.96009
1.77169
1.51158
1.40927
1.4002
1.40001
1.40001
1.40001
1.40001
1.40001
1.40001
1.40001
1.40001
1.40001
1.40001
0.119347
0.115448
0.125297
0.124046
0.136995
0.172106
0.208576
0.286347
0.42309
0.565852
0.708225
0.869962
1.09341
1.36075
1.617
1.84179
1.98487
2.02832
2.03043
2.02364
1.94885
1.71152
1.47121
1.40445
1.40008
1.40001
1.40001
1.40001
1.40001
1.40001
1.40001
1.40001
1.40001
1.40001
1.40001
0.109829
0.111466
0.125061
0.125922
0.138729
0.192629
0.261386
0.357062
0.475442
0.59944
0.742018
0.953303
1.2379
1.49481
1.7331
1.92152
2.01581
2.03173
2.02982
2.00942
1.89279
1.63947
1.44441
1.40216
1.40004
1.40001
1.40001
1.40001
1.40001
1.40001
1.40001
1.40001
1.40001
1.40001
1.40001
0.105354
0.111764
0.129284
0.135539
0.157934
0.218623
0.29821
0.385924
0.49644
0.631402
0.829447
1.11638
1.3798
1.61866
1.83504
1.98098
2.032
2.03533
2.02696
1.98435
1.84122
1.58939
1.42771
1.40101
1.40002
1.40001
1.40001
1.40001
1.40001
1.40001
1.40001
1.40001
1.40001
1.40001
1.40001
0.104634
0.115248
0.13446
0.145042
0.174282
0.229044
0.307054
0.401441
0.52606
0.731997
1.0045
1.26157
1.50286
1.73762
1.92043
2.01822
2.0395
2.03911
2.02723
1.97138
1.8043
1.54338
1.41531
1.40042
1.40001
1.40001
1.40001
1.40001
1.40001
1.40001
1.40001
1.40001
1.40001
1.40001
1.40001
0.10942
0.119513
0.134515
0.145526
0.175618
0.228213
0.306271
0.444781
0.652593
0.900409
1.13973
1.37668
1.63319
1.84742
1.98246
2.03588
2.04216
2.0412
2.03082
1.96647
1.74991
1.49214
1.40704
1.40015
1.40001
1.40001
1.40001
1.40001
1.40001
1.40001
1.40001
1.40001
1.40001
1.40001
1.40001
0.124229
0.121296
0.127884
0.13146
0.164572
0.228906
0.368673
0.574155
0.796393
1.01783
1.24573
1.51405
1.771
1.93626
2.01885
2.0419
2.04222
2.04036
2.0222
1.91832
1.66443
1.45327
1.40295
1.40005
1.40001
1.40001
1.40001
1.40001
1.40001
1.40001
1.40001
1.40001
1.40001
1.40001
1.40001
0.130964
0.120108
0.120747
0.121732
0.168765
0.303924
0.497863
0.687681
0.895072
1.12403
1.39644
1.68279
1.89048
1.99265
2.03593
2.04399
2.04177
2.03284
1.99214
1.84801
1.5974
1.43132
1.40129
1.40002
1.40001
1.40001
1.40001
1.40001
1.40001
1.40001
1.40001
1.40001
1.40001
1.40001
1.40001
0.127989
0.106807
0.11266
0.122352
0.246783
0.41872
0.584369
0.774925
1.00897
1.296
1.59651
1.82836
1.9755
2.02024
2.0427
2.04669
2.04197
2.02307
1.96724
1.80189
1.54647
1.41674
1.4005
1.40001
1.40001
1.40001
1.40001
1.40001
1.40001
1.40001
1.40001
1.40001
1.40001
1.40001
1.40001
0.11432
0.0862986
0.105852
0.174972
0.342577
0.486571
0.657646
0.908068
1.21335
1.51688
1.76159
1.93432
2.02441
2.03118
2.04591
2.04904
2.04449
2.02195
1.95061
1.74274
1.48982
1.40682
1.40015
1.40001
1.40001
1.40001
1.40001
1.40001
1.40001
1.40001
1.40001
1.40001
1.40001
1.40001
1.40001
0.104661
0.0788025
0.122504
0.254855
0.394826
0.548637
0.812349
1.13351
1.44213
1.69546
1.8875
2.005
2.04502
2.0354
2.04841
2.04887
2.0453
2.02627
1.91607
1.6479
1.44547
1.40237
1.40004
1.40001
1.40001
1.40001
1.40001
1.40001
1.40001
1.40001
1.40001
1.40001
1.40001
1.40001
1.40001
0.0995565
0.0824706
0.166017
0.306319
0.447355
0.712794
1.0562
1.36835
1.63587
1.84259
1.98186
2.04186
2.05028
2.03717
2.04933
2.04683
2.03993
1.99965
1.83012
1.56701
1.4226
1.40083
1.40002
1.40001
1.40001
1.40001
1.40001
1.40001
1.40001
1.40001
1.40001
1.40001
1.40001
1.40001
1.40001
0.0797474
0.119234
0.201086
0.357853
0.606582
0.97402
1.3
1.58652
1.81285
1.95938
2.03457
2.0549
2.05166
2.03782
2.05178
2.04393
2.02753
1.95616
1.75913
1.51002
1.41001
1.40025
1.40001
1.40001
1.40001
1.40001
1.40001
1.40001
1.40001
1.40001
1.40001
1.40001
1.40001
1.40001
1.40001
0.0575501
0.131149
0.252534
0.503083
0.892978
1.244
1.54879
1.79424
1.94841
2.02386
2.055
2.05825
2.05315
2.03878
2.05602
2.04174
2.01627
1.92381
1.68707
1.4593
1.40346
1.40007
1.40001
1.40001
1.40001
1.40001
1.40001
1.40001
1.40001
1.40001
1.40001
1.40001
1.40001
1.40001
1.40001
0.0277988
0.136067
0.402002
0.806695
1.19974
1.52929
1.78942
1.9486
2.01965
2.04968
2.06084
2.06045
2.05371
2.03999
2.0578
2.04267
2.01243
1.87382
1.58472
1.42442
1.40093
1.40002
1.40001
1.40001
1.40001
1.40001
1.40001
1.40001
1.40001
1.40001
1.40001
1.40001
1.40001
1.40001
1.40001
0.0234725
0.225263
0.712175
1.16215
1.52293
1.79849
1.95674
2.02678
2.04766
2.05861
2.0633
2.0617
2.05364
2.04175
2.05918
2.04607
1.99539
1.76349
1.49769
1.40818
1.40021
1.40001
1.40001
1.40001
1.40001
1.40001
1.40001
1.40001
1.40001
1.40001
1.40001
1.40001
1.40001
1.40001
1.40001
0.158868
0.584742
1.11417
1.54024
1.82536
1.97395
2.03645
2.05339
2.05678
2.06328
2.06485
2.0619
2.05146
2.04463
2.06046
2.03628
1.91666
1.6506
1.4463
1.40229
1.40004
1.40001
1.40001
1.40001
1.40001
1.40001
1.40001
1.40001
1.40001
1.40001
1.40001
1.40001
1.40001
1.40001
1.40001
0.490786
1.04774
1.57869
1.87057
2.00386
2.04946
2.06059
2.05921
2.06153
2.0674
2.06671
2.06149
2.04765
2.04861
2.05968
2.00231
1.83679
1.55747
1.41675
1.40046
1.40001
1.40001
1.40001
1.40001
1.40001
1.40001
1.40001
1.40001
1.40001
1.40001
1.40001
1.40001
1.40001
1.40001
1.40001
1.16799
1.64937
1.93792
2.03665
2.06358
2.06639
2.06438
2.06137
2.06624
2.07004
2.06883
2.06054
2.04639
2.05255
2.05497
1.96901
1.74078
1.47061
1.40357
1.40003
1.4
1.40001
1.40001
1.40001
1.40001
1.40001
1.40001
1.40001
1.40001
1.40001
1.40001
1.40001
1.40001
1.40001
1.40001
2.07366
2.07273
2.07376
2.0734
2.07189
2.06874
2.06589
2.06472
2.07094
2.07219
2.06968
2.05894
2.04708
2.05617
2.04763
1.91199
1.61108
1.41585
1.39975
1.39998
1.4
1.40001
1.40001
1.40001
1.40001
1.40001
1.40001
1.40001
1.40001
1.40001
1.40001
1.40001
1.40001
1.40001
1.40001
2.07608
2.07496
2.07605
2.07606
2.07524
2.07345
2.07081
2.06984
2.07214
2.07594
2.0746
2.06694
2.05097
2.05479
2.04999
1.91266
1.61242
1.42242
1.40047
1.40001
1.40001
1.40001
1.40001
1.40001
1.40001
1.40001
1.40001
1.40001
1.40001
1.40001
1.40001
1.40001
1.40001
1.40001
1.40001
2.07922
2.07772
2.07877
2.07853
2.07834
2.07754
2.07569
2.07514
2.07481
2.07947
2.07973
2.07464
2.06014
2.05455
2.04799
1.85769
1.536
1.40829
1.40011
1.40001
1.40001
1.40001
1.40001
1.40001
1.40001
1.40001
1.40001
1.40001
1.40001
1.40001
1.40001
1.40001
1.40001
1.40001
1.40001
2.08277
2.08032
2.08072
2.08076
2.08153
2.0814
2.08063
2.07888
2.07725
2.07997
2.08441
2.08382
2.07509
2.05616
2.03732
1.80798
1.49683
1.4045
1.40005
1.40001
1.40001
1.40001
1.40001
1.40001
1.40001
1.40001
1.40001
1.40001
1.40001
1.40001
1.40001
1.40001
1.40001
1.40001
1.40001
2.08804
2.08486
2.08401
2.08275
2.08476
2.08611
2.08609
2.08378
2.07993
2.07854
2.08667
2.09315
2.08963
2.06288
2.01367
1.74731
1.46108
1.40198
1.40002
1.40001
1.40001
1.40001
1.40001
1.40001
1.40001
1.40001
1.40001
1.40001
1.40001
1.40001
1.40001
1.40001
1.40001
1.40001
1.40001
2.09485
2.09163
2.08921
2.0855
2.08967
2.09187
2.0921
2.08961
2.08281
2.07923
2.08928
2.10402
2.10083
2.06444
1.98402
1.68295
1.43579
1.40083
1.40001
1.40001
1.40001
1.40001
1.40001
1.40001
1.40001
1.40001
1.40001
1.40001
1.40001
1.40001
1.40001
1.40001
1.40001
1.40001
1.40001
2.10199
2.09871
2.09575
2.09351
2.09716
2.09952
2.09997
2.09659
2.08906
2.08594
2.09719
2.11576
2.11244
2.06497
1.94779
1.6114
1.41879
1.40031
1.40001
1.40001
1.40001
1.40001
1.40001
1.40001
1.40001
1.40001
1.40001
1.40001
1.40001
1.40001
1.40001
1.40001
1.40001
1.40001
1.40001
2.10982
2.10719
2.10478
2.1038
2.10548
2.10805
2.10925
2.10701
2.10105
2.09911
2.10966
2.12828
2.12307
2.06176
1.89685
1.5445
1.40871
1.40011
1.40001
1.40001
1.40001
1.40001
1.40001
1.40001
1.40001
1.40001
1.40001
1.40001
1.40001
1.40001
1.40001
1.40001
1.40001
1.40001
1.40001
2.11869
2.11776
2.11681
2.11528
2.11523
2.11676
2.11925
2.12041
2.11691
2.11457
2.12106
2.13719
2.13012
2.05332
1.82264
1.4874
1.40353
1.40004
1.40001
1.40001
1.40001
1.40001
1.40001
1.40001
1.40001
1.40001
1.40001
1.40001
1.40001
1.40001
1.40001
1.40001
1.40001
1.40001
1.40001
2.12838
2.12883
2.12884
2.12763
2.12639
2.12542
2.12809
2.1321
2.13182
2.12929
2.12894
2.13988
2.13334
2.02969
1.72954
1.44802
1.40128
1.40001
1.40001
1.40001
1.40001
1.40001
1.40001
1.40001
1.40001
1.40001
1.40001
1.40001
1.40001
1.40001
1.40001
1.40001
1.40001
1.40001
1.40001
2.13634
2.13801
2.13878
2.13855
2.13578
2.13269
2.13301
2.13885
2.14235
2.14342
2.13525
2.13671
2.13364
1.9903
1.63714
1.42274
1.40042
1.40001
1.40001
1.40001
1.40001
1.40001
1.40001
1.40001
1.40001
1.40001
1.40001
1.40001
1.40001
1.40001
1.40001
1.40001
1.40001
1.40001
1.40001
2.14149
2.14406
2.14567
2.14618
2.14217
2.13698
2.13594
2.14164
2.1498
2.15457
2.14141
2.12825
2.11896
1.92487
1.55797
1.40992
1.40013
1.40001
1.40001
1.40001
1.40001
1.40001
1.40001
1.40001
1.40001
1.40001
1.40001
1.40001
1.40001
1.40001
1.40001
1.40001
1.40001
1.40001
1.40001
2.1447
2.14766
2.14944
2.14998
2.14607
2.14036
2.13914
2.14425
2.15446
2.16075
2.14872
2.11774
2.0945
1.84636
1.49297
1.40379
1.40004
1.40001
1.40001
1.40001
1.40001
1.40001
1.40001
1.40001
1.40001
1.40001
1.40001
1.40001
1.40001
1.40001
1.40001
1.40001
1.40001
1.40001
1.40001
2.14705
2.14937
2.15089
2.15122
2.14816
2.14315
2.1422
2.14652
2.15674
2.16319
2.15409
2.11466
2.06366
1.73401
1.44877
1.40132
1.40001
1.40001
1.40001
1.40001
1.40001
1.40001
1.40001
1.40001
1.40001
1.40001
1.40001
1.40001
1.40001
1.40001
1.40001
1.40001
1.40001
1.40001
1.40001
2.14944
2.14992
2.1511
2.15131
2.14946
2.14566
2.14408
2.14663
2.15633
2.16365
2.15753
2.11135
2.00668
1.63248
1.42228
1.4004
1.40001
1.40001
1.40001
1.40001
1.40001
1.40001
1.40001
1.40001
1.40001
1.40001
1.40001
1.40001
1.40001
1.40001
1.40001
1.40001
1.40001
1.40001
1.40001
2.15204
2.15061
2.15065
2.15076
2.15018
2.14917
2.14658
2.14596
2.15172
2.1631
2.15905
2.0978
1.9139
1.54715
1.40873
1.40012
1.40001
1.40001
1.40001
1.40001
1.40001
1.40001
1.40001
1.40001
1.40001
1.40001
1.40001
1.40001
1.40001
1.40001
1.40001
1.40001
1.40001
1.40001
1.40001
2.1546
2.15216
2.14961
2.14894
2.15042
2.15271
2.15184
2.14674
2.14535
2.15811
2.15691
2.08412
1.81592
1.48362
1.40315
1.40003
1.40001
1.40001
1.40001
1.40001
1.40001
1.40001
1.40001
1.40001
1.40001
1.40001
1.40001
1.40001
1.40001
1.40001
1.40001
1.40001
1.40001
1.40001
1.40001
2.15598
2.15288
2.14887
2.1471
2.14955
2.15486
2.15616
2.14959
2.13792
2.14306
2.14749
2.04908
1.70891
1.43995
1.40098
1.40001
1.40001
1.40001
1.40001
1.40001
1.40001
1.40001
1.40001
1.40001
1.40001
1.40001
1.40001
1.40001
1.40001
1.40001
1.40001
1.40001
1.40001
1.40001
1.40001
2.15638
2.1531
2.14858
2.14627
2.14802
2.15531
2.15778
2.15384
2.1345
2.13124
2.1301
1.97058
1.61119
1.41753
1.40029
1.40001
1.40001
1.40001
1.40001
1.40001
1.40001
1.40001
1.40001
1.40001
1.40001
1.40001
1.40001
1.40001
1.40001
1.40001
1.40001
1.40001
1.40001
1.40001
1.40001
2.15571
2.15332
2.14918
2.14665
2.1469
2.15344
2.15794
2.15797
2.1392
2.12692
2.11953
1.89327
1.52944
1.40673
1.40008
1.40001
1.40001
1.40001
1.40001
1.40001
1.40001
1.40001
1.40001
1.40001
1.40001
1.40001
1.40001
1.40001
1.40001
1.40001
1.40001
1.40001
1.40001
1.40001
1.40001
2.15216
2.15265
2.15012
2.14808
2.14604
2.14968
2.15686
2.15964
2.14701
2.12627
2.09914
1.77693
1.46302
1.40205
1.40002
1.40001
1.40001
1.40001
1.40001
1.40001
1.40001
1.40001
1.40001
1.40001
1.40001
1.40001
1.40001
1.40001
1.40001
1.40001
1.40001
1.40001
1.40001
1.40001
1.40001
2.14946
2.15112
2.15042
2.14939
2.14622
2.14579
2.15221
2.15969
2.15283
2.11527
2.01645
1.66014
1.4287
1.40059
1.40001
1.40001
1.40001
1.40001
1.40001
1.40001