/*--------------------------------*- C++ -*----------------------------------*\
  =========                 |
  \\      /  F ield         | OpenFOAM: The Open Source CFD Toolbox
   \\    /   O peration     | Website:  https://openfoam.org
    \\  /    A nd           | Version:  7
     \\/     M anipulation  |
\*---------------------------------------------------------------------------*/
FoamFile
{
    version     2.0;
    format      ascii;
    class       volScalarField;
    location    "0.4701";
    object      p;
}
// * * * * * * * * * * * * * * * * * * * * * * * * * * * * * * * * * * * * * //

dimensions      [1 -1 -2 0 0 0 0];

internalField   nonuniform List<scalar> 
324000
(
0.280376
0.409177
0.596379
0.808754
0.929293
0.920829
0.862722
0.825031
0.807636
0.81425
0.833979
0.844656
0.843511
0.839791
0.843046
0.851602
0.850763
0.846301
0.844851
0.84542
0.844664
0.842412
0.840029
0.84079
0.845188
0.848196
0.847875
0.846583
0.844978
0.846872
0.849706
0.848561
0.839528
0.826854
0.8173
0.812479
0.810084
0.80709
0.803194
0.800435
0.79951
0.801324
0.806986
0.808655
0.806967
0.811136
0.823523
0.84127
0.859183
0.864501
0.859188
0.849776
0.843197
0.882504
0.931561
0.952589
0.958345
0.956908
0.958965
0.962318
0.967723
0.976412
0.987187
0.996113
0.999738
1.00014
1.00009
1.00003
1
1
1
1
1
1
1
1
1
1
1
1
0.131404
0.132042
0.169307
0.348525
0.611531
0.845468
0.868537
0.871259
0.864319
0.856342
0.844426
0.835908
0.837073
0.838882
0.84509
0.850705
0.848068
0.84234
0.842468
0.845409
0.844537
0.841274
0.839452
0.841189
0.845937
0.847916
0.848544
0.847229
0.845632
0.84605
0.846771
0.844755
0.835138
0.823018
0.814635
0.810434
0.808126
0.805386
0.802366
0.799685
0.798215
0.798727
0.801828
0.803986
0.804954
0.810356
0.8232
0.842219
0.858457
0.863784
0.853766
0.847086
0.844014
0.882055
0.928105
0.951771
0.957218
0.955529
0.957548
0.960795
0.966351
0.975334
0.986439
0.995729
0.99963
1.00012
1.00008
1.00003
1
1
1
1
1
1
1
1
1
1
1
1
0.131742
0.131681
0.131617
0.13147
0.176961
0.333659
0.59325
0.806987
0.89942
0.890863
0.877599
0.866875
0.853781
0.851116
0.852049
0.848788
0.844409
0.841916
0.843362
0.843462
0.838457
0.836754
0.837005
0.840255
0.843299
0.844173
0.844053
0.842576
0.842464
0.843028
0.845831
0.845435
0.835479
0.823187
0.816024
0.812187
0.809027
0.80475
0.799906
0.796057
0.794515
0.795918
0.797346
0.799684
0.804938
0.81304
0.825476
0.842439
0.856473
0.862856
0.851693
0.842426
0.846503
0.881496
0.923335
0.950416
0.956058
0.954179
0.956092
0.959243
0.964973
0.974256
0.985693
0.995353
0.999527
1.00009
1.00007
1.00003
1
1
1
1
1
1
1
1
1
1
1
1
0.131679
0.131651
0.131646
0.131625
0.131632
0.131594
0.179938
0.335647
0.581583
0.768035
0.842833
0.882666
0.863954
0.855228
0.846711
0.841005
0.841272
0.843435
0.843919
0.841623
0.83741
0.837232
0.838487
0.840232
0.840793
0.840781
0.840043
0.840089
0.842119
0.843856
0.84718
0.844851
0.834257
0.822052
0.814065
0.807823
0.802637
0.798329
0.794065
0.791716
0.793038
0.798748
0.802051
0.803945
0.807574
0.814733
0.826714
0.843108
0.857885
0.854011
0.851216
0.842942
0.849842
0.881441
0.920329
0.94909
0.954533
0.952648
0.954518
0.957645
0.963596
0.973185
0.984953
0.994989
0.999429
1.00007
1.00006
1.00003
1
1
1
1
1
1
1
1
1
1
1
1
0.131658
0.131636
0.131631
0.131644
0.131634
0.131637
0.131724
0.131589
0.18036
0.338014
0.556655
0.761986
0.814651
0.840887
0.830872
0.832382
0.835864
0.840008
0.842363
0.843587
0.840303
0.839681
0.83996
0.840036
0.839699
0.839772
0.839617
0.840689
0.843599
0.846137
0.847854
0.84267
0.830353
0.817359
0.808298
0.801304
0.798252
0.798503
0.797845
0.798238
0.800189
0.802074
0.803967
0.807145
0.813424
0.81899
0.829482
0.840487
0.846931
0.854897
0.853678
0.8462
0.854386
0.879614
0.918174
0.947285
0.95218
0.95067
0.952678
0.955934
0.962207
0.97212
0.984225
0.994641
0.999338
1.00005
1.00005
1.00002
1
1
1
1
1
1
1
1
1
1
1
1
0.131648
0.131646
0.131645
0.131649
0.131639
0.131696
0.13163
0.131617
0.131641
0.131604
0.177333
0.334803
0.575362
0.766898
0.794657
0.832497
0.836035
0.840149
0.843528
0.843011
0.843208
0.844286
0.842584
0.839543
0.839597
0.840717
0.841221
0.842601
0.844842
0.846104
0.84549
0.838947
0.826234
0.813764
0.80586
0.801945
0.802827
0.805133
0.803921
0.800115
0.799897
0.800503
0.799188
0.801058
0.809237
0.816805
0.824979
0.844062
0.851361
0.847936
0.850102
0.844531
0.850118
0.88056
0.918285
0.945371
0.949077
0.948248
0.950532
0.954082
0.960787
0.971051
0.983511
0.994314
0.999255
1.00004
1.00004
1.00002
1
1
1
1
1
1
1
1
1
1
1
1
0.13165
0.131643
0.131648
0.131643
0.131665
0.131639
0.131628
0.131648
0.131615
0.131607
0.131625
0.131639
0.184796
0.360136
0.599672
0.784229
0.808417
0.836784
0.842017
0.842231
0.847329
0.845207
0.841339
0.838246
0.839034
0.841472
0.844441
0.848703
0.853404
0.853233
0.849403
0.839839
0.826008
0.814754
0.808781
0.806703
0.807253
0.807108
0.80229
0.795164
0.79478
0.795548
0.800742
0.811888
0.81767
0.823171
0.830555
0.842357
0.846677
0.849995
0.854958
0.854311
0.859164
0.883641
0.918654
0.943316
0.945921
0.945775
0.948202
0.952136
0.959325
0.969962
0.98281
0.99401
0.999181
1.00002
1.00004
1.00002
1
1
1
1
1
1
1
1
1
1
1
1
0.13163
0.131654
0.131675
0.131671
0.131663
0.131629
0.131617
0.131609
0.131612
0.131631
0.131647
0.131648
0.131642
0.131986
0.202506
0.403589
0.622612
0.79431
0.813807
0.836231
0.853112
0.845466
0.839289
0.839039
0.841452
0.845583
0.849431
0.853525
0.856107
0.854226
0.848866
0.838523
0.826279
0.817557
0.81157
0.808326
0.806772
0.803238
0.797574
0.798006
0.800904
0.803926
0.807636
0.810798
0.812799
0.816874
0.828759
0.843565
0.846261
0.850166
0.855534
0.856706
0.859393
0.87617
0.907729
0.935373
0.943131
0.943255
0.945719
0.950145
0.957823
0.968848
0.982125
0.993732
0.999117
1.00001
1.00003
1.00002
1
1
1
1
1
1
1
1
1
1
1
1
0.131685
0.131684
0.131678
0.13164
0.131617
0.131602
0.131592
0.131616
0.131648
0.131661
0.131662
0.13165
0.131636
0.131634
0.131636
0.135824
0.227231
0.446242
0.653163
0.802277
0.836989
0.831216
0.839235
0.841728
0.846158
0.848257
0.849902
0.853097
0.853543
0.851451
0.84664
0.837213
0.826363
0.818609
0.81169
0.807941
0.804111
0.800506
0.798668
0.801015
0.804964
0.80646
0.808663
0.809941
0.811707
0.816871
0.830227
0.839037
0.838701
0.845955
0.854371
0.858398
0.867745
0.886719
0.914171
0.935756
0.940268
0.940549
0.943353
0.948252
0.956314
0.96772
0.981461
0.993481
0.999063
0.999999
1.00003
1.00002
1
1
1
1
1
1
1
1
1
1
1
1
0.131671
0.131627
0.131611
0.131585
0.131588
0.131613
0.13163
0.131644
0.131656
0.131659
0.131651
0.131637
0.131636
0.131641
0.131655
0.131656
0.131645
0.141096
0.254125
0.482167
0.712969
0.778192
0.834978
0.842863
0.85363
0.853349
0.850061
0.852374
0.850939
0.845786
0.838913
0.833148
0.826027
0.817831
0.811356
0.806823
0.802932
0.799106
0.798135
0.801652
0.805768
0.806569
0.806051
0.804781
0.805638
0.812595
0.826173
0.832023
0.835119
0.844963
0.853622
0.861246
0.87109
0.88865
0.914623
0.93312
0.936631
0.937995
0.94107
0.946373
0.954796
0.966592
0.980822
0.993257
0.999019
0.99999
1.00002
1.00001
1
1
1
1
1
1
1
1
1
1
1
1
0.131577
0.131564
0.131582
0.131615
0.131638
0.131655
0.131659
0.131656
0.131648
0.13164
0.131641
0.131647
0.131658
0.131673
0.131674
0.131667
0.131667
0.131667
0.131613
0.149926
0.28937
0.553162
0.785294
0.829268
0.851913
0.850007
0.847891
0.843005
0.837948
0.837469
0.835485
0.832109
0.825267
0.816495
0.810793
0.80681
0.801878
0.797173
0.797209
0.801627
0.803562
0.802945
0.801291
0.799083
0.802495
0.81518
0.82911
0.831949
0.83613
0.846407
0.855318
0.863064
0.872617
0.889051
0.913549
0.929067
0.932755
0.935083
0.938641
0.94447
0.953278
0.965477
0.980238
0.993083
0.998989
0.999983
1.00002
1.00001
1
1
1
1
1
1
1
1
1
1
1
1
0.131605
0.131627
0.131644
0.131658
0.131664
0.131663
0.131644
0.131629
0.131632
0.131646
0.131662
0.131684
0.13169
0.131686
0.131685
0.131686
0.131684
0.131672
0.131636
0.131609
0.13152
0.181332
0.368813
0.609774
0.803522
0.814585
0.833714
0.828499
0.83235
0.838865
0.839847
0.833546
0.823064
0.815333
0.810593
0.806238
0.800486
0.79594
0.795916
0.796854
0.794059
0.794214
0.796245
0.798025
0.805478
0.821067
0.830734
0.83075
0.835639
0.845892
0.85569
0.864577
0.875271
0.891655
0.911978
0.924774
0.928866
0.931985
0.936124
0.942477
0.951701
0.964352
0.979665
0.992946
0.998976
0.999978
1.00001
1.00001
1
1
1
1
1
1
1
1
1
1
1
1
0.131646
0.131656
0.131658
0.13165
0.131635
0.131634
0.131638
0.131647
0.131659
0.131672
0.131692
0.131699
0.131692
0.131699
0.131724
0.131765
0.13178
0.131779
0.131764
0.131747
0.13171
0.131475
0.131827
0.227464
0.480072
0.700578
0.828744
0.823498
0.845007
0.854357
0.847033
0.834916
0.821926
0.814473
0.811365
0.806512
0.799381
0.796162
0.795149
0.791316
0.786472
0.788856
0.794109
0.801655
0.813774
0.825843
0.827451
0.826633
0.833308
0.844089
0.854405
0.865009
0.877311
0.892971
0.910269
0.920743
0.925457
0.928985
0.933547
0.940343
0.950013
0.963272
0.979158
0.992751
0.998951
0.999974
1.00001
1.00001
1
1
1
1
1
1
1
1
1
1
1
1
0.131654
0.13165
0.131639
0.131633
0.131637
0.131643
0.131655
0.131671
0.131686
0.131699
0.1317
0.131698
0.131702
0.131723
0.131775
0.131865
0.131943
0.131984
0.131998
0.131997
0.13195
0.131836
0.131584
0.131202
0.14865
0.310081
0.616532
0.788657
0.86114
0.866287
0.851508
0.83326
0.819619
0.815806
0.811353
0.80426
0.79853
0.796336
0.792192
0.786156
0.785612
0.792992
0.799064
0.808234
0.819125
0.825127
0.822136
0.822254
0.830445
0.841603
0.852137
0.863745
0.876987
0.892478
0.907609
0.91665
0.921737
0.925792
0.930936
0.938176
0.948277
0.962099
0.97869
0.992807
0.998989
0.999972
1.00001
1.00001
1
1
1
1
1
1
1
1
1
1
1
1
0.131642
0.131639
0.131639
0.131643
0.131652
0.131664
0.13168
0.131698
0.131703
0.131701
0.131701
0.131697
0.131712
0.131752
0.131825
0.131943
0.13208
0.132139
0.132151
0.132136
0.132072
0.132004
0.131872
0.131672
0.131378
0.130334
0.191795
0.44338
0.746703
0.847281
0.827887
0.826572
0.817317
0.814658
0.81099
0.802936
0.800389
0.800625
0.792818
0.786471
0.79168
0.799162
0.803916
0.812316
0.820469
0.81957
0.816736
0.820411
0.829326
0.839445
0.849653
0.861389
0.875235
0.890805
0.904319
0.912748
0.918205
0.922935
0.92849
0.935959
0.946566
0.961046
0.978108
0.992734
0.999014
0.999972
1.00001
1.00001
1
1
1
1
1
1
1
1
1
1
1
1
0.131639
0.131645
0.131649
0.131656
0.131669
0.131689
0.131702
0.131702
0.131699
0.131698
0.131694
0.131705
0.131731
0.131782
0.131864
0.131992
0.132135
0.132182
0.132182
0.132154
0.132089
0.132009
0.131895
0.131703
0.131149
0.130216
0.127516
0.142032
0.301951
0.63185
0.7646
0.821957
0.811996
0.821052
0.810618
0.798936
0.799786
0.799756
0.795467
0.794886
0.802618
0.800823
0.80075
0.807174
0.812428
0.811195
0.812823
0.820787
0.829049
0.837498
0.847383
0.85888
0.872674
0.888021
0.900329
0.908483
0.91419
0.919629
0.925993
0.933956
0.944853
0.959944
0.978017
0.992892
0.99906
0.999973
1.00001
1
1
1
1
1
1
1
1
1
1
1
1
1
0.131648
0.131655
0.131669
0.131681
0.131691
0.131701
0.131703
0.131703
0.131698
0.131679
0.131669
0.131683
0.131719
0.131786
0.131882
0.132007
0.132142
0.132182
0.132173
0.132132
0.132071
0.131969
0.131794
0.13125
0.129744
0.127565
0.125561
0.123871
0.123653
0.211288
0.523821
0.767187
0.788749
0.823303
0.811758
0.801833
0.805828
0.794648
0.79416
0.801396
0.807953
0.799555
0.797389
0.801226
0.801793
0.802033
0.811049
0.821197
0.827637
0.834905
0.845233
0.856933
0.86974
0.884104
0.895989
0.903886
0.909686
0.915468
0.922444
0.931378
0.943204
0.958798
0.977584
0.992988
0.999116
0.999975
1
1
1
1
1
1
1
1
1
1
1
1
1
1
0.131669
0.131685
0.13169
0.131694
0.131698
0.131703
0.131704
0.131695
0.131681
0.131657
0.131642
0.131647
0.131674
0.131715
0.131784
0.131924
0.132005
0.13199
0.131921
0.131746
0.131703
0.131496
0.130555
0.129094
0.127164
0.124881
0.123644
0.123295
0.123318
0.123855
0.16814
0.37578
0.634193
0.77825
0.781927
0.802161
0.81375
0.798202
0.798911
0.805795
0.798737
0.789195
0.790719
0.793741
0.791661
0.795666
0.810626
0.818984
0.824148
0.831688
0.842733
0.854976
0.86728
0.87954
0.890995
0.899858
0.906233
0.912037
0.919129
0.928474
0.941082
0.957995
0.977823
0.993238
0.999183
0.999978
1
1
1
1
1
1
1
1
1
1
1
1
1
1
0.131693
0.131702
0.131707
0.131709
0.13171
0.131705
0.131692
0.131675
0.131669
0.131649
0.131635
0.131633
0.131638
0.131634
0.131608
0.13159
0.131508
0.13131
0.131128
0.130811
0.130292
0.129629
0.128366
0.126575
0.124679
0.123273
0.123123
0.123258
0.123523
0.125256
0.128979
0.135568
0.254259
0.475975
0.674865
0.77497
0.783134
0.781082
0.797643
0.804521
0.788698
0.776399
0.785794
0.788562
0.788308
0.798892
0.8115
0.814556
0.819386
0.828613
0.83964
0.851539
0.864279
0.875497
0.885014
0.893526
0.901524
0.909209
0.916991
0.926481
0.93927
0.956747
0.97769
0.993507
0.999263
0.999981
1
1
1
1
1
1
1
1
1
1
1
1
1
1
0.131709
0.131713
0.131713
0.131701
0.131687
0.131691
0.131688
0.13167
0.131674
0.131666
0.131649
0.131635
0.131618
0.131571
0.131446
0.131256
0.131066
0.130724
0.130335
0.129824
0.128911
0.127751
0.126287
0.124354
0.123296
0.123001
0.12308
0.124009
0.126869
0.130702
0.13507
0.140599
0.144597
0.1701
0.314552
0.518998
0.655018
0.745605
0.785899
0.7901
0.766213
0.768851
0.793483
0.7931
0.795554
0.808706
0.809764
0.808668
0.814702
0.825547
0.835665
0.846566
0.859054
0.871315
0.880217
0.887318
0.895434
0.904245
0.913324
0.923667
0.937504
0.956722
0.978112
0.993863
0.999346
0.999984
1
1
1
1
1
1
1
1
1
1
1
1
1
1
0.131712
0.131695
0.13168
0.131678
0.131684
0.131697
0.131704
0.131697
0.131696
0.131727
0.131743
0.13171
0.131612
0.131514
0.131361
0.131123
0.130833
0.130464
0.129777
0.12898
0.127733
0.125947
0.124167
0.123165
0.123103
0.123408
0.124327
0.126555
0.130689
0.135065
0.139333
0.144471
0.150333
0.155948
0.160419
0.196437
0.317615
0.516632
0.649472
0.729318
0.747764
0.785123
0.80663
0.798135
0.805091
0.811306
0.804297
0.802038
0.812869
0.82156
0.829898
0.839945
0.851597
0.86419
0.875494
0.8845
0.891635
0.899389
0.909025
0.920649
0.935476
0.95577
0.97843
0.994292
0.999439
0.999987
1
1
1
1
1
1
1
1
1
1
1
1
1
1
0.131675
0.131672
0.13168
0.131696
0.131714
0.131723
0.13174
0.131775
0.131783
0.13181
0.131846
0.131835
0.13174
0.13159
0.13147
0.131271
0.130883
0.130411
0.129344
0.127623
0.125608
0.124054
0.123245
0.123461
0.123702
0.125231
0.12848
0.131022
0.134088
0.138871
0.144166
0.150294
0.156196
0.162019
0.168485
0.174844
0.179862
0.211969
0.317053
0.479588
0.653363
0.761089
0.783482
0.784529
0.807997
0.808848
0.793109
0.798314
0.810629
0.815522
0.822133
0.832902
0.84455
0.856119
0.867961
0.878538
0.887738
0.896528
0.905789
0.917635
0.934172
0.956084
0.979143
0.99478
0.99953
0.99999
1
1
1
1
1
1
1
1
1
1
1
1
1
1
0.131675
0.131694
0.131713
0.131742
0.131776
0.131781
0.131791
0.131836
0.131846
0.131834
0.131848
0.131833
0.131762
0.131626
0.131506
0.131298
0.130707
0.129308
0.12734
0.125256
0.124001
0.123641
0.123812
0.124838
0.12657
0.127981
0.130861
0.135268
0.139725
0.14467
0.150228
0.155799
0.161957
0.168481
0.174882
0.181403
0.188791
0.195418
0.202135
0.225829
0.315942
0.466741
0.608256
0.719904
0.791791
0.787132
0.777762
0.798712
0.804461
0.805762
0.813606
0.828223
0.84064
0.84994
0.860035
0.870635
0.880814
0.890966
0.902043
0.914897
0.931997
0.955611
0.979945
0.995345
0.999622
0.999993
1
1
1
1
1
1
1
1
1
1
1
1
1
1
0.131728
0.131761
0.131786
0.13179
0.131798
0.131804
0.131805
0.13183
0.131849
0.131771
0.131756
0.131759
0.131718
0.131526
0.130995
0.129926
0.128307
0.126253
0.124902
0.124052
0.123943
0.124584
0.125232
0.126097
0.12904
0.131713
0.134216
0.139234
0.144712
0.150227
0.156542
0.161602
0.167302
0.173858
0.18046
0.187045
0.194643
0.202514
0.210266
0.218801
0.227215
0.248157
0.326973
0.492143
0.638997
0.718869
0.766636
0.813748
0.802691
0.796987
0.807982
0.821987
0.834702
0.846529
0.855548
0.863941
0.873952
0.884893
0.897019
0.911748
0.931631
0.956307
0.981053
0.995942
0.999707
0.999995
1
1
1
1
1
1
1
1
1
1
1
1
1
1
0.131825
0.13182
0.131819
0.1318
0.131747
0.13174
0.131678
0.131529
0.131577
0.131609
0.131497
0.131241
0.130755
0.129788
0.128427
0.12667
0.125368
0.124299
0.123993
0.124388
0.124466
0.125094
0.127151
0.128293
0.1305
0.135616
0.140814
0.145554
0.151022
0.156534
0.162318
0.168831
0.174938
0.180763
0.187117
0.194221
0.200813
0.208547
0.217197
0.22594
0.234869
0.245606
0.255649
0.283396
0.367864
0.546634
0.71814
0.792247
0.782515
0.787926
0.803859
0.815494
0.825964
0.837701
0.848953
0.858819
0.868356
0.880017
0.893124
0.908357
0.929731
0.956788
0.982415
0.996585
0.999784
0.999997
1
1
1
1
1
1
1
1
1
1
1
1
1
1
0.131818
0.131758
0.131639
0.131487
0.131296
0.131144
0.131056
0.130897
0.130739
0.130593
0.13017
0.129358
0.128248
0.126927
0.125722
0.124484
0.123752
0.123799
0.123666
0.124262
0.125137
0.125643
0.128424
0.133073
0.136531
0.141106
0.14711
0.152451
0.158067
0.163475
0.16813
0.173871
0.179775
0.186014
0.192671
0.199999
0.207737
0.215669
0.224009
0.233411
0.243127
0.252958
0.263265
0.275834
0.289141
0.331254
0.460561
0.627414
0.723482
0.786415
0.799643
0.803153
0.810716
0.822282
0.835412
0.849044
0.861902
0.874075
0.887983
0.90608
0.930008
0.958124
0.984009
0.997222
0.999849
0.999998
1
1
1
1
1
1
1
1
1
1
1
1
1
1
0.131522
0.131402
0.131259
0.131087
0.130917
0.130733
0.130576
0.130359
0.129886
0.129209
0.128324
0.127141
0.125887
0.124722
0.123891
0.123494
0.123301
0.123612
0.123753
0.124228
0.126996
0.130554
0.133199
0.138286
0.144338
0.14904
0.15371
0.158669
0.163326
0.16894
0.174477
0.179849
0.185959
0.192526
0.199711
0.206922
0.214989
0.223583
0.232516
0.241737
0.251967
0.262714
0.273922
0.285144
0.297265
0.311437
0.335271
0.418077
0.600783
0.745626
0.776642
0.78365
0.796042
0.809077
0.821726
0.836094
0.852156
0.86788
0.883222
0.902441
0.929118
0.959761
0.985883
0.997849
0.999902
0.999999
1
1
1
1
1
1
1
1
1
1
1
1
1
1
0.131213
0.131181
0.131139
0.131042
0.130885
0.130631
0.130348
0.129879
0.128952
0.127525
0.126155
0.124861
0.124009
0.123557
0.123438
0.123457
0.123416
0.123827
0.126348
0.128962
0.131872
0.136973
0.142068
0.145707
0.150158
0.154809
0.159205
0.1644
0.1691
0.174096
0.18063
0.186745
0.193575
0.200824
0.207945
0.21573
0.223928
0.23234
0.241299
0.25086
0.260869
0.271552
0.283723
0.295725
0.308671
0.321431
0.336887
0.355968
0.419393
0.55797
0.689794
0.762525
0.793152
0.805426
0.816708
0.828486
0.842392
0.859632
0.878564
0.901644
0.929993
0.962083
0.987922
0.998423
0.999941
1
1
1
1
1
1
1
1
1
1
1
1
1
1
1
0.131314
0.13122
0.131185
0.131106
0.130875
0.13039
0.129362
0.127874
0.126384
0.12509
0.124229
0.123703
0.123577
0.12361
0.123773
0.124449
0.126697
0.129062
0.1319
0.136101
0.139708
0.142919
0.147241
0.151338
0.155516
0.160073
0.164858
0.169867
0.176131
0.181859
0.187786
0.194597
0.200991
0.207931
0.215309
0.222833
0.230976
0.239688
0.249127
0.258771
0.269021
0.280267
0.292413
0.305639
0.319427
0.333943
0.347775
0.363247
0.383809
0.432846
0.559189
0.698254
0.764265
0.785549
0.800742
0.818023
0.836069
0.852892
0.872286
0.898407
0.93083
0.965148
0.990146
0.998925
0.999968
1
1
1
1
1
1
1
1
1
1
1
1
1
1
1
0.130942
0.130535
0.129931
0.129118
0.128034
0.126821
0.125797
0.124981
0.124416
0.124013
0.123789
0.123975
0.124389
0.125136
0.126961
0.129073
0.131526
0.134782
0.137308
0.140623
0.144629
0.148316
0.152147
0.156975
0.161688
0.166883
0.17256
0.177941
0.183572
0.18987
0.195572
0.201844
0.208804
0.215576
0.22301
0.230958
0.239035
0.247827
0.25721
0.267443
0.278227
0.289497
0.300885
0.314496
0.329442
0.345247
0.361676
0.377123
0.392622
0.415676
0.461915
0.567487
0.681245
0.746896
0.779309
0.802891
0.824176
0.844723
0.868668
0.898647
0.933278
0.968947
0.992394
0.999329
0.999984
1
1
1
1
1
1
1
1
1
1
1
1
1
1
1
0.129111
0.128272
0.127214
0.126171
0.12547
0.124917
0.124655
0.12444
0.124418
0.124784
0.125146
0.125573
0.126934
0.128587
0.130362
0.132986
0.135183
0.138691
0.14243
0.145731
0.150071
0.154948
0.159747
0.16474
0.169658
0.174801
0.179962
0.185513
0.190684
0.196385
0.202865
0.209126
0.215681
0.223067
0.230914
0.239361
0.24851
0.258157
0.267779
0.278328
0.289636
0.301726
0.314747
0.327042
0.340331
0.355899
0.373479
0.391663
0.408671
0.426449
0.454221
0.501566
0.595663
0.69782
0.756999
0.787741
0.810586
0.83348
0.862365
0.897736
0.936944
0.973578
0.994547
0.999623
0.999993
1
1
1
1
1
1
1
1
1
1
1
1
1
1
1
0.126585
0.12565
0.124943
0.124337
0.124246
0.124243
0.124347
0.124776
0.12504
0.125549
0.126802
0.127835
0.129291
0.131834
0.134121
0.137262
0.141308
0.144819
0.149564
0.154192
0.158494
0.163123
0.16763
0.17201
0.177078
0.181722
0.18665
0.19183
0.197725
0.203384
0.209673
0.216809
0.224214
0.232059
0.239799
0.248227
0.257283
0.266594
0.277222
0.287852
0.299239
0.311565
0.325436
0.340004
0.354891
0.369911
0.386455
0.405034
0.425334
0.442328
0.462663
0.496279
0.548042
0.62848
0.70795
0.761181
0.796586
0.828593
0.862735
0.900208
0.942392
0.97875
0.996437
0.999815
0.999998
1
1
1
1
1
1
1
1
1
1
1
1
1
1
1
0.124389
0.124084
0.124114
0.124114
0.12407
0.124204
0.124279
0.124763
0.12589
0.126743
0.128611
0.131809
0.134255
0.137177
0.141658
0.145518
0.149671
0.153613
0.157517
0.161798
0.165825
0.169857
0.174342
0.178669
0.183297
0.188348
0.193743
0.199417
0.205492
0.212229
0.219068
0.22599
0.233482
0.241277
0.250138
0.258894
0.268097
0.277945
0.288034
0.299042
0.310724
0.323065
0.335514
0.350511
0.366849
0.383697
0.400985
0.419635
0.439779
0.461296
0.481547
0.507256
0.548738
0.603489
0.668199
0.727323
0.776933
0.820769
0.862071
0.904995
0.949692
0.984123
0.997931
0.999923
0.999999
1
1
1
1
1
1
1
1
1
1
1
1
1
1
1
0.123908
0.123941
0.124169
0.124385
0.124427
0.124981
0.126462
0.127712
0.129909
0.13348
0.136024
0.13903
0.143104
0.146529
0.149678
0.153356
0.156751
0.160613
0.16404
0.167907
0.17202
0.176161
0.180504
0.185721
0.190578
0.196129
0.201939
0.208084
0.214286
0.220958
0.227878
0.235386
0.242871
0.250728
0.258816
0.267954
0.277455
0.287756
0.298475
0.310091
0.322479
0.335677
0.34971
0.363537
0.378851
0.396545
0.415298
0.434795
0.455121
0.477523
0.499915
0.523157
0.55497
0.602208
0.659936
0.72039
0.775511
0.822207
0.865991
0.912849
0.958621
0.989279
0.998974
0.999974
1
1
1
1
1
1
1
1
1
1
1
1
1
1
1
1
0.124943
0.125744
0.126404
0.127557
0.129544
0.131141
0.133037
0.135838
0.13813
0.140879
0.144042
0.146515
0.149592
0.153138
0.156131
0.15943
0.162912
0.166867
0.170953
0.175021
0.1796
0.184493
0.189428
0.194423
0.200088
0.205629
0.21133
0.217321
0.223701
0.230108
0.236967
0.24404
0.251969
0.260479
0.269329
0.278415
0.288309
0.298544
0.309848
0.321666
0.334329
0.347918
0.362868
0.378781
0.394913
0.411401
0.429989
0.450185
0.472127
0.494611
0.518871
0.544461
0.572289
0.609174
0.659333
0.716917
0.771937
0.82214
0.871709
0.922951
0.96849
0.9937
0.999588
0.999993
1
1
1
1
1
1
1
1
1
1
1
1
1
1
1
1
0.127422
0.128502
0.129649
0.130841
0.133148
0.135316
0.136935
0.140013
0.14305
0.145071
0.148585
0.152271
0.155094
0.15863
0.162849
0.166603
0.170772
0.174724
0.179349
0.183763
0.188225
0.192863
0.197798
0.202816
0.207889
0.213321
0.219185
0.225181
0.231556
0.238576
0.246022
0.253822
0.261898
0.270341
0.279727
0.289619
0.300051
0.31115
0.322544
0.334793
0.347928
0.361889
0.376234
0.392129
0.409408
0.427878
0.446959
0.467677
0.489773
0.513849
0.538457
0.563935
0.592621
0.627342
0.671195
0.722801
0.775661
0.828026
0.882134
0.936292
0.978712
0.996967
0.999876
0.999999
1
1
1
1
1
1
1
1
1
1
1
1
1
1
1
1
0.130546
0.132242
0.134965
0.137467
0.139243
0.14258
0.146389
0.148671
0.151849
0.15556
0.158418
0.162087
0.165783
0.16898
0.172442
0.176331
0.180128
0.184002
0.187854
0.19222
0.196392
0.201117
0.205781
0.210952
0.216487
0.222284
0.228221
0.234921
0.241986
0.249251
0.256843
0.265048
0.273679
0.282731
0.29194
0.301986
0.312336
0.323444
0.335482
0.348346
0.361863
0.37605
0.391534
0.40771
0.425211
0.443944
0.463948
0.484898
0.507769
0.533026
0.560405
0.587563
0.613654
0.643199
0.682827
0.732468
0.786435
0.841804
0.898844
0.95269
0.987988
0.998898
0.999974
1
1
1
1
1
1
1
1
1
1
1
1
1
1
1
1
1
0.138579
0.140839
0.143259
0.146382
0.148921
0.151059
0.154256
0.15719
0.159638
0.162883
0.165843
0.168544
0.172133
0.175513
0.178668
0.182331
0.186169
0.19039
0.194424
0.198935
0.204026
0.208783
0.214455
0.220127
0.226005
0.232356
0.239094
0.245671
0.252697
0.260137
0.267996
0.275956
0.28448
0.293616
0.303505
0.313598
0.324679
0.336288
0.348529
0.361491
0.375641
0.390948
0.406771
0.423603
0.441411
0.460711
0.481668
0.503966
0.527051
0.551866
0.579531
0.60987
0.641224
0.672988
0.707728
0.748746
0.798465
0.856944
0.918461
0.969568
0.994772
0.999729
0.999997
1
1
1
1
1
1
1
1
1
1
1
1
1
1
1
1
1
0.145627
0.148091
0.150064
0.152454
0.15587
0.158294
0.160336
0.163657
0.166714
0.169541
0.173216
0.176528
0.179623
0.183606
0.187845
0.191702
0.195893
0.200252
0.205186
0.209764
0.214643
0.22007
0.225173
0.230869
0.236814
0.242706
0.249135
0.256106
0.263155
0.270632
0.278654
0.287315
0.296223
0.305756
0.315867
0.326869
0.338071
0.350192
0.363269
0.377086
0.391369
0.406479
0.42306
0.440899
0.459745
0.479332
0.500278
0.523271
0.548329
0.574877
0.60244
0.631016
0.661886
0.696662
0.735777
0.779724
0.829986
0.887159
0.944682
0.984882
0.998468
0.999961
1
1
1
1
1
1
1
1
1
1
1
1
1
1
1
1
1
1
0.154091
0.156768
0.15959
0.161724
0.164365
0.167741
0.170479
0.173154
0.17645
0.179467
0.182701
0.186481
0.189838
0.193249
0.197206
0.20136
0.205375
0.209637
0.214037
0.21899
0.223732
0.228911
0.23464
0.240183
0.246143
0.252837
0.259439
0.266398
0.274213
0.282456
0.290727
0.299527
0.309295
0.319436
0.329804
0.340765
0.352925
0.365454
0.378426
0.392409
0.407758
0.424053
0.440747
0.458436
0.477775
0.498772
0.521001
0.54428
0.56908
0.596272
0.626105
0.657778
0.690504
0.724834
0.762613
0.80692
0.860129
0.919056
0.969751
0.994903
0.999748
0.999997
1
1
1
1
1
1
1
1
1
1
1
1
1
1
1
1
1
1
0.162446
0.164571
0.167335
0.170258
0.172255
0.174831
0.178093
0.180847
0.183801
0.1871
0.190079
0.193383
0.197449
0.201196
0.204791
0.208968
0.213523
0.218104
0.222844
0.227744
0.233303
0.238901
0.244749
0.251156
0.257817
0.264505
0.271824
0.279532
0.287276
0.295381
0.304313
0.313632
0.322977
0.333115
0.344264
0.355837
0.367636
0.38049
0.394535
0.409264
0.424503
0.440918
0.458766
0.477714
0.497578
0.518689
0.541688
0.56664
0.593089
0.620879
0.650432
0.682676
0.718279
0.757046
0.799302
0.846948
0.900934
0.954156
0.988852
0.999067
0.999981
1
1
1
1
1
1
1
1
1
1
1
1
1
1
1
1
1
1
1
0.171092
0.173564
0.175711
0.17863
0.181833
0.184207
0.18702
0.190341
0.193481
0.197015
0.200691
0.204172
0.207839
0.212169
0.216575
0.220698
0.225265
0.230134
0.23516
0.240442
0.245785
0.251517
0.257471
0.26357
0.26997
0.276883
0.283975
0.291411
0.299563
0.308171
0.316893
0.32633
0.336768
0.3475
0.358543
0.370483
0.383455
0.396953
0.411088
0.426328
0.442551
0.459646
0.477767
0.497296
0.518252
0.540294
0.563548
0.588662
0.616158
0.645873
0.677369
0.710725
0.746849
0.787136
0.83318
0.885669
0.940052
0.981425
0.997713
0.999926
0.999999
1
1
1
1
1
1
1
1
1
1
1
1
1
1
1
1
1
1
1
0.179733
0.182441
0.185155
0.187314
0.190224
0.1936
0.196356
0.199434
0.202759
0.205989
0.209746
0.213675
0.217498
0.221276
0.225542
0.230305
0.234722
0.239461
0.244631
0.249923
0.255622
0.261589
0.26778
0.274355
0.281373
0.288564
0.296291
0.304568
0.313077
0.322023
0.331657
0.341747
0.352194
0.363337
0.375181
0.387609
0.400736
0.414755
0.429512
0.445168
0.461968
0.479982
0.498895
0.518708
0.539963
0.56317
0.588254
0.614813
0.642746
0.672316
0.704185
0.739426
0.778908
0.823361
0.873551
0.927322
0.973129
0.995573
0.999789
0.999998
1
1
1
1
1
1
1
1
1
1
1
1
1
1
1
1
1
1
1
1
0.189114
0.191486
0.194399
0.197483
0.199893
0.202802
0.206326
0.20954
0.21309
0.216754
0.220248
0.224257
0.228573
0.232975
0.237363
0.241863
0.247034
0.252246
0.257517
0.263219
0.269132
0.275302
0.281807
0.288616
0.295731
0.303244
0.311158
0.319507
0.328244
0.337417
0.347172
0.357557
0.368319
0.379719
0.391993
0.404933
0.418325
0.432711
0.448378
0.464921
0.481953
0.500027
0.519856
0.541318
0.563792
0.587197
0.61225
0.639737
0.669788
0.701937
0.736023
0.772912
0.814347
0.861941
0.914715
0.963682
0.99235
0.999485
0.999992
1
1
1
1
1
1
1
1
1
1
1
1
1
1
1
1
1
1
1
1
1
0.19889
0.201599
0.204082
0.20705
0.210543
0.21344
0.216477
0.220107
0.223593
0.227429
0.231568
0.235432
0.239556
0.244053
0.248775
0.253665
0.258548
0.263824
0.269438
0.275243
0.281292
0.287664
0.294435
0.301459
0.308811
0.316705
0.325033
0.333588
0.342754
0.352627
0.362701
0.373316
0.384875
0.397019
0.409418
0.422729
0.437283
0.45254
0.468213
0.484973
0.503303
0.522808
0.543036
0.564325
0.587423
0.612636
0.639594
0.667981
0.698033
0.73042
0.766134
0.806383
0.852279
0.903526
0.953878
0.987966
0.998878
0.999975
1
1
1
1
1
1
1
1
1
1
1
1
1
1
1
1
1
1
1
1
1
1
0.209129
0.211988
0.215054
0.217807
0.220702
0.224441
0.22795
0.231338
0.23517
0.238983
0.242936
0.247396
0.251908
0.25636
0.261147
0.26631
0.271606
0.277125
0.282977
0.288979
0.295421
0.302267
0.309136
0.316536
0.324526
0.332549
0.34109
0.350424
0.359897
0.369697
0.380493
0.391886
0.403382
0.415687
0.429166
0.443214
0.457643
0.473206
0.490164
0.507956
0.526377
0.546052
0.5675
0.590502
0.614673
0.640212
0.667731
0.697656
0.730024
0.764931
0.803167
0.846233
0.894887
0.944973
0.982919
0.997881
0.999931
0.999999
1
1
1
1
1
1
1
1
1
1
1
1
1
1
1
1
1
1
1
1
1
1
0.220215
0.222943
0.225963
0.229477
0.23271
0.235737
0.239514
0.243407
0.247199
0.251325
0.255597
0.259867
0.264414
0.269408
0.274449
0.279538
0.285129
0.290927
0.296861
0.303354
0.309977
0.316789
0.32429
0.33197
0.339839
0.348519
0.357584
0.366719
0.376664
0.38737
0.398226
0.409657
0.42213
0.435201
0.448648
0.463076
0.478717
0.495118
0.512179
0.530408
0.550088
0.57098
0.592959
0.616366
0.64162
0.668806
0.697803
0.728735
0.762197
0.799214
0.841015
0.888187
0.937662
0.977977
0.996572
0.999846
0.999998
1
1
1
1
1
1
1
1
1
1
1
1
1
1
1
1
1
1
1
1
1
1
1
0.231831
0.235019
0.238034
0.241087
0.24488
0.248604
0.252065
0.256011
0.260117
0.264257
0.268719
0.27335
0.278198
0.283069
0.288312
0.294013
0.299627
0.305613
0.312101
0.318594
0.325558
0.332999
0.34046
0.348482
0.357128
0.365869
0.375115
0.385148
0.395476
0.406206
0.417819
0.430063
0.442674
0.456089
0.470554
0.485754
0.50163
0.518563
0.536702
0.555868
0.576075
0.597642
0.620806
0.645557
0.6719
0.700053
0.730356
0.763193
0.799165
0.839284
0.884402
0.932478
0.973781
0.995155
0.999718
0.999996
1
1
1
1
1
1
1
1
1
1
1
1
1
1
1
1
1
1
1
1
1
1
1
1
0.244347
0.247359
0.250858
0.254425
0.257693
0.261461
0.265614
0.269552
0.2738
0.278217
0.282723
0.287587
0.292585
0.297894
0.303393
0.30899
0.315117
0.321469