/*--------------------------------*- C++ -*----------------------------------*\
  =========                 |
  \\      /  F ield         | OpenFOAM: The Open Source CFD Toolbox
   \\    /   O peration     | Website:  https://openfoam.org
    \\  /    A nd           | Version:  7
     \\/     M anipulation  |
\*---------------------------------------------------------------------------*/
FoamFile
{
    version     2.0;
    format      ascii;
    class       volScalarField;
    location    "0.4701";
    object      rho;
}
// * * * * * * * * * * * * * * * * * * * * * * * * * * * * * * * * * * * * * //

dimensions      [1 -3 0 0 0 0 0];

internalField   nonuniform List<scalar> 
324000
(
0.464988
0.624345
0.824814
1.02319
1.1194
1.113
1.06678
1.03776
1.02115
1.02819
1.04857
1.06137
1.06123
1.05908
1.06244
1.06992
1.06897
1.06494
1.06453
1.06628
1.06682
1.06603
1.06531
1.06695
1.07218
1.07545
1.07539
1.07544
1.07605
1.07976
1.08362
1.08271
1.07462
1.06395
1.05741
1.05728
1.05951
1.06079
1.06059
1.0613
1.0647
1.07178
1.08236
1.08801
1.09021
1.09591
1.10884
1.12381
1.14073
1.14992
1.15278
1.16135
1.17129
1.22028
1.28537
1.32169
1.34393
1.3536
1.35879
1.36321
1.3689
1.37704
1.38722
1.39604
1.39973
1.40014
1.4001
1.40003
1.40001
1.40001
1.40001
1.40001
1.40001
1.40001
1.40001
1.40001
1.40001
1.40001
1.40001
1.40001
0.328815
0.330221
0.375533
0.566703
0.820854
1.03289
1.05883
1.0583
1.05145
1.04628
1.03725
1.03112
1.03309
1.03506
1.04042
1.04467
1.04223
1.03759
1.03853
1.04225
1.04239
1.04016
1.03885
1.04058
1.04543
1.04777
1.04879
1.04847
1.04827
1.04991
1.05152
1.05002
1.04184
1.0318
1.02612
1.02555
1.02674
1.0273
1.02723
1.02734
1.02904
1.03334
1.03993
1.045
1.04943
1.0566
1.0711
1.09189
1.11424
1.12822
1.13078
1.14345
1.16074
1.21189
1.27568
1.31766
1.34219
1.35246
1.35755
1.36179
1.36753
1.3759
1.38642
1.39564
1.39962
1.40012
1.40009
1.40003
1.40001
1.40001
1.40001
1.40001
1.40001
1.40001
1.40001
1.40001
1.40001
1.40001
1.40001
1.40001
0.330448
0.331197
0.331746
0.331899
0.38545
0.554825
0.812697
0.996683
1.08106
1.07481
1.06214
1.0522
1.04133
1.03905
1.03946
1.03611
1.03224
1.03081
1.03258
1.03302
1.02898
1.02719
1.02731
1.03006
1.03324
1.0344
1.03456
1.03361
1.03378
1.03479
1.03789
1.0378
1.02944
1.01904
1.01384
1.01204
1.01069
1.00799
1.00428
1.00125
1.00053
1.003
1.00592
1.01008
1.01816
1.02977
1.04764
1.07458
1.10185
1.12134
1.12467
1.13336
1.15364
1.20264
1.26344
1.31307
1.34087
1.35153
1.35629
1.36032
1.36612
1.37473
1.38562
1.39525
1.39951
1.4001
1.40008
1.40003
1.40001
1.40001
1.40001
1.40001
1.40001
1.40001
1.40001
1.40001
1.40001
1.40001
1.40001
1.40001
0.331666
0.332116
0.332351
0.332403
0.332394
0.332213
0.389897
0.559936
0.804592
0.972194
1.03402
1.06693
1.05028
1.04213
1.03407
1.02849
1.02892
1.03162
1.03263
1.03092
1.02697
1.02644
1.0273
1.02884
1.02977
1.03001
1.02949
1.0295
1.03121
1.03291
1.0361
1.03422
1.02514
1.01466
1.00833
1.00348
0.998998
0.994534
0.989323
0.985395
0.985171
0.989871
0.994056
0.998028
1.00572
1.01914
1.04052
1.07236
1.10571
1.11805
1.12928
1.13577
1.15246
1.19624
1.2549
1.30965
1.3397
1.35046
1.35486
1.35876
1.36467
1.37355
1.38483
1.39488
1.39941
1.40008
1.40007
1.40003
1.40001
1.40001
1.40001
1.40001
1.40001
1.40001
1.40001
1.40001
1.40001
1.40001
1.40001
1.40001
0.332361
0.332443
0.33244
0.332416
0.332221
0.331892
0.331658
0.331098
0.390415
0.56469
0.785928
0.970841
1.01122
1.03013
1.0208
1.02216
1.0255
1.02996
1.03261
1.03372
1.03062
1.02958
1.02957
1.02969
1.02975
1.03005
1.02994
1.03084
1.03339
1.03573
1.03732
1.03278
1.02197
1.01071
1.00327
0.996925
0.993367
0.99209
0.988964
0.986295
0.985935
0.987391
0.990503
0.99687
1.00844
1.02235
1.0452
1.07607
1.10925
1.13781
1.14698
1.14628
1.15744
1.19253
1.25092
1.30748
1.33812
1.34884
1.35306
1.35702
1.36316
1.37238
1.38407
1.39453
1.39932
1.40006
1.40006
1.40003
1.40001
1.40001
1.40001
1.40001
1.40001
1.40001
1.40001
1.40001
1.40001
1.40001
1.40001
1.40001
0.332522
0.332487
0.332353
0.332082
0.331689
0.331404
0.330965
0.330696
0.330598
0.330465
0.387416
0.566319
0.806678
0.974918
0.995295
1.02615
1.02953
1.0339
1.03682
1.03604
1.03612
1.03644
1.0346
1.03187
1.03223
1.03344
1.03387
1.03496
1.03688
1.03802
1.03749
1.03177
1.02052
1.00946
1.00249
0.997899
0.997423
0.996899
0.992814
0.986136
0.984435
0.985303
0.98623
0.992887
1.0083
1.02669
1.05174
1.09761
1.14179
1.16251
1.16758
1.15905
1.16092
1.19611
1.25286
1.3071
1.3362
1.34661
1.35081
1.35504
1.36157
1.37121
1.38333
1.39421
1.39924
1.40004
1.40005
1.40003
1.40001
1.40001
1.40001
1.40001
1.40001
1.40001
1.40001
1.40001
1.40001
1.40001
1.40001
1.40001
0.332394
0.332153
0.331835
0.33146
0.331161
0.330847
0.330644
0.330563
0.330445
0.3304
0.33042
0.330442
0.39628
0.59582
0.831086
0.991833
1.01234
1.03723
1.04019
1.04003
1.04455
1.04184
1.03763
1.03464
1.03555
1.03798
1.04062
1.04419
1.04801
1.04768
1.04426
1.03582
1.02353
1.01305
1.00642
1.00306
1.00152
0.998286
0.99057
0.981086
0.980131
0.982021
0.990779
1.00914
1.02718
1.04915
1.0792
1.12434
1.16977
1.19461
1.19933
1.19079
1.18492
1.20837
1.25976
1.30924
1.33478
1.3442
1.34828
1.35288
1.3599
1.37001
1.38263
1.39392
1.39917
1.40003
1.40004
1.40002
1.40001
1.40001
1.40001
1.40001
1.40001
1.40001
1.40001
1.40001
1.40001
1.40001
1.40001
1.40001
0.33191
0.331602
0.331298
0.331004
0.33078
0.330579
0.330476
0.330418
0.330401
0.330427
0.33046
0.330463
0.330454
0.330977
0.416823
0.640723
0.854875
1.00718
1.02223
1.04125
1.05453
1.04683
1.04032
1.03982
1.0422
1.04618
1.04951
1.05296
1.05452
1.05257
1.04751
1.03815
1.02709
1.01793
1.01023
1.00505
1.00089
0.994301
0.985776
0.984482
0.98735
0.993314
1.00535
1.02299
1.04407
1.0697
1.10694
1.15386
1.19118
1.2141
1.22105
1.21614
1.20662
1.21718
1.26032
1.30811
1.33431
1.34175
1.34557
1.35061
1.35813
1.36879
1.38196
1.39366
1.39911
1.40001
1.40004
1.40002
1.40001
1.40001
1.40001
1.40001
1.40001
1.40001
1.40001
1.40001
1.40001
1.40001
1.40001
1.40001
0.331388
0.331093
0.33086
0.330638
0.330505
0.330424
0.330376
0.330403
0.330462
0.330487
0.330491
0.330473
0.330445
0.330436
0.330433
0.336256
0.445714
0.68622
0.884589
1.01878
1.04686
1.03918
1.04426
1.04648
1.05079
1.05278
1.05402
1.05669
1.05588
1.05359
1.04885
1.03994
1.02914
1.0197
1.01077
1.00464
0.997883
0.991276
0.987221
0.98919
0.995346
1.00417
1.02131
1.04405
1.06954
1.09812
1.13546
1.1698
1.19364
1.21757
1.23171
1.23452
1.2368
1.24798
1.28189
1.3177
1.33423
1.33918
1.34304
1.34837
1.35632
1.36755
1.38131
1.39344
1.39906
1.4
1.40003
1.40002
1.40001
1.40001
1.40001
1.40001
1.40001
1.40001
1.40001
1.40001
1.40001
1.40001
1.40001
1.40001
0.330872
0.330638
0.33051
0.330404
0.330378
0.330404
0.330433
0.330458
0.330481
0.33049
0.330477
0.33045
0.330442
0.330434
0.330432
0.330408
0.330357
0.343114
0.476484
0.723964
0.942826
0.99859
1.04476
1.05082
1.06011
1.05966
1.05664
1.05855
1.05639
1.05106
1.04394
1.03763
1.02902
1.01865
1.00977
1.00247
0.995901
0.989852
0.988611
0.993723
1.00398
1.01817
1.0386
1.06249
1.0879
1.11646
1.15002
1.1745
1.19442
1.2183
1.23564
1.24613
1.25531
1.26957
1.29813
1.32463
1.33341
1.33688
1.34063
1.34611
1.3545
1.36634
1.3807
1.39323
1.39902
1.39999
1.40003
1.40002
1.40001
1.40001
1.40001
1.40001
1.40001
1.40001
1.40001
1.40001
1.40001
1.40001
1.40001
1.40001
0.330458
0.330375
0.330375
0.330413
0.330451
0.330481
0.330489
0.330488
0.330475
0.33046
0.330459
0.330459
0.330458
0.330458
0.33043
0.330386
0.330355
0.330318
0.330185
0.354552
0.518152
0.792225
1.00194
1.03974
1.05947
1.05761
1.05585
1.05134
1.04585
1.04418
1.04077
1.03573
1.02698
1.01562
1.00701
1.00044
0.994341
0.989285
0.991329
1.00108
1.01456
1.03272
1.05495
1.07753
1.10291
1.13356
1.1636
1.18045
1.19767
1.22012
1.23842
1.2513
1.26401
1.28224
1.30855
1.32667
1.3317
1.33438
1.33801
1.34385
1.35276
1.36518
1.38014
1.39307
1.39899
1.39999
1.40002
1.40002
1.40001
1.40001
1.40001
1.40001
1.40001
1.40001
1.40001
1.40001
1.40001
1.40001
1.40001
1.40001
0.330414
0.330441
0.330468
0.33049
0.330501
0.330501
0.330471
0.330445
0.33045
0.330468
0.33048
0.330495
0.33048
0.330445
0.33041
0.33038
0.330345
0.330296
0.330198
0.330116
0.329912
0.392258
0.606802
0.845427
1.01505
1.02545
1.04267
1.03767
1.04011
1.0437
1.04227
1.03415
1.02145
1.01081
1.00368
0.998743
0.993308
0.991521
0.996995
1.00849
1.02247
1.04398
1.06902
1.09237
1.11775
1.14836
1.17111
1.18283
1.19874
1.21979
1.23879
1.25369
1.26908
1.28969
1.31227
1.3254
1.32883
1.33144
1.3353
1.34163
1.35108
1.36404
1.37957
1.39293
1.39898
1.39998
1.40002
1.40001
1.40001
1.40001
1.40001
1.40001
1.40001
1.40001
1.40001
1.40001
1.40001
1.40001
1.40001
1.40001
0.330473
0.33049
0.330495
0.330482
0.330457
0.330455
0.330464
0.330477
0.330486
0.33049
0.330501
0.330486
0.330444
0.330425
0.330437
0.330472
0.330461
0.330414
0.330346
0.330287
0.330196
0.329732
0.330171
0.445917
0.718116
0.925287
1.03535
1.0306
1.04834
1.05241
1.04371
1.03023
1.01543
1.00598
1.00254
0.998854
0.995009
0.998161
1.00741
1.01907
1.03385
1.05696
1.08215
1.1073
1.134
1.15901
1.17155
1.18127
1.19774
1.21829
1.23726
1.25415
1.27176
1.29218
1.31195
1.32199
1.32559
1.32841
1.33264
1.33946
1.34939
1.36296
1.37905
1.39273
1.39895
1.39998
1.40002
1.40001
1.40001
1.40001
1.40001
1.40001
1.40001
1.40001
1.40001
1.40001
1.40001
1.40001
1.40001
1.40001
0.330492
0.330487
0.33047
0.330458
0.330466
0.330475
0.330486
0.330496
0.330501
0.3305
0.330475
0.330437
0.330412
0.330421
0.330476
0.330596
0.330689
0.330716
0.330708
0.330677
0.330563
0.330324
0.329856
0.329133
0.352378
0.540119
0.840078
0.993374
1.05711
1.05742
1.04271
1.02355
1.00895
1.00525
1.00254
0.999418
1.00084
1.00902
1.01956
1.03183
1.05048
1.07579
1.0984
1.12201
1.14547
1.16232
1.16918
1.17894
1.19618
1.21638
1.23482
1.25251
1.27129
1.29157
1.30888
1.31742
1.32162
1.32511
1.33003
1.33734
1.34768
1.36178
1.37857
1.39278
1.39899
1.39998
1.40001
1.40001
1.40001
1.40001
1.40001
1.40001
1.40001
1.40001
1.40001
1.40001
1.40001
1.40001
1.40001
1.40001
0.330478
0.330473
0.330474
0.330478
0.330485
0.330491
0.330499
0.330508
0.330494
0.330459
0.330424
0.330382
0.330378
0.330413
0.330507
0.330681
0.330886
0.330957
0.330947
0.330894
0.330746
0.330594
0.330335
0.329952
0.329394
0.327472
0.401867
0.674792
0.952752
1.03407
1.01611
1.01343
1.00474
1.00471
1.00551
1.00577
1.01359
1.02784
1.03695
1.04903
1.07077
1.09314
1.11147
1.13181
1.15122
1.15974
1.16638
1.17895
1.19651
1.21505
1.23239
1.24975
1.26914
1.28914
1.30447
1.31278
1.31775
1.32216
1.32761
1.33516
1.34598
1.36071
1.37797
1.39271
1.39902
1.39998
1.40001
1.40001
1.40001
1.40001
1.40001
1.40001
1.40001
1.40001
1.40001
1.40001
1.40001
1.40001
1.40001
1.40001
0.330479
0.330485
0.330483
0.330481
0.330484
0.330498
0.3305
0.330475
0.330437
0.330402
0.330358
0.330344
0.330356
0.330412
0.330529
0.330727
0.33095
0.331013
0.33099
0.330917
0.330764
0.330593
0.330368
0.329999
0.328961
0.327251
0.32235
0.341555
0.525149
0.846049
0.957688
1.00726
1.00115
1.01587
1.01367
1.01411
1.02788
1.04377
1.05587
1.07126
1.0931
1.10348
1.11461
1.13113
1.14631
1.15418
1.16487
1.18128
1.19768
1.21397
1.23036
1.24714
1.26622
1.28551
1.29951
1.30792
1.31346
1.31875
1.32509
1.33316
1.34425
1.35959
1.37787
1.39286
1.39906
1.39998
1.40001
1.40001
1.40001
1.40001
1.40001
1.40001
1.40001
1.40001
1.40001
1.40001
1.40001
1.40001
1.40001
1.40001
0.330481
0.330481
0.330487
0.330489
0.330484
0.330477
0.330455
0.330422
0.33038
0.330313
0.330265
0.330264
0.330299
0.330394
0.330541
0.330737
0.330951
0.331006
0.330969
0.330864
0.330719
0.330501
0.330151
0.329134
0.326392
0.32244
0.318799
0.3157
0.315283
0.422308
0.743789
0.962166
0.990844
1.03252
1.02798
1.03094
1.05045
1.05496
1.06812
1.08842
1.10705
1.10895
1.11623
1.12919
1.13838
1.1478
1.16529
1.18367
1.1977
1.21221
1.22848
1.24536
1.26313
1.28115
1.29468
1.30297
1.30874
1.31446
1.32146
1.33053
1.34257
1.35842
1.37743
1.39296
1.39912
1.39998
1.40001
1.40001
1.40001
1.40001
1.40001
1.40001
1.40001
1.40001
1.40001
1.40001
1.40001
1.40001
1.40001
1.40001
0.330488
0.330496
0.330485
0.330468
0.330448
0.330429
0.330398
0.330351
0.330296
0.330224
0.330175
0.330164
0.330187
0.330237
0.330339
0.330561
0.330675
0.330634
0.330484
0.330127
0.330006
0.329592
0.327862
0.325211
0.321712
0.317558
0.315294
0.314635
0.31467
0.315631
0.373714
0.611439
0.868279
1.01055
1.02038
1.04767
1.07381
1.07148
1.08272
1.10083
1.10331
1.10434
1.11412
1.12525
1.13123
1.14375
1.16707
1.18314
1.19559
1.20975
1.22617
1.24367
1.26067
1.27634
1.28946
1.29878
1.30516
1.31092
1.31805
1.32755
1.34041
1.3576
1.37767
1.39321
1.39919
1.39998
1.40001
1.40001
1.40001
1.40001
1.40001
1.40001
1.40001
1.40001
1.40001
1.40001
1.40001
1.40001
1.40001
1.40001
0.330488
0.330481
0.330464
0.330442
0.330417
0.330375
0.33032
0.330261
0.330227
0.330171
0.330123
0.330095
0.330072
0.330035
0.329961
0.329892
0.329728
0.329351
0.328996
0.328392
0.327421
0.326197
0.323901
0.320646
0.317196
0.314617
0.31433
0.314565
0.315016
0.318128
0.324914
0.335522
0.481857
0.736463
0.940188
1.03933
1.06001
1.06876
1.09044
1.1051
1.09731
1.0967
1.11353
1.12347
1.1309
1.14875
1.16987
1.18015
1.19211
1.20716
1.22339
1.24044
1.25769
1.27205
1.28318
1.29222
1.30029
1.30798
1.31584
1.32551
1.33856
1.35633
1.37753
1.39348
1.39926
1.39999
1.40001
1.40001
1.40001
1.40001
1.40001
1.40001
1.40001
1.40001
1.40001
1.40001
1.40001
1.40001
1.40001
1.40001
0.330464
0.330445
0.330419
0.33037
0.330317
0.330294
0.330265
0.330212
0.330197
0.330159
0.330101
0.330041
0.329967
0.329851
0.329597
0.329234
0.328878
0.328247
0.327528
0.326586
0.324919
0.322804
0.320133
0.3166
0.314667
0.314113
0.314247
0.315904
0.321061
0.327961
0.335742
0.345565
0.352556
0.389239
0.566989
0.799051
0.94874
1.04587
1.08758
1.09719
1.08009
1.09296
1.12659
1.13169
1.14082
1.16172
1.16947
1.17574
1.18833
1.20448
1.2198
1.23558
1.25236
1.26762
1.27805
1.28571
1.29397
1.30286
1.31207
1.32263
1.33675
1.3563
1.37795
1.39383
1.39935
1.39999
1.40001
1.40001
1.40001
1.40001
1.40001
1.40001
1.40001
1.40001
1.40001
1.40001
1.40001
1.40001
1.40001
1.40001
0.330409
0.330352
0.3303
0.330272
0.330261
0.330256
0.330249
0.330217
0.33019
0.330207
0.330204
0.33012
0.329915
0.329713
0.329413
0.328967
0.32843
0.327755
0.326503
0.32505
0.322778
0.319524
0.316268
0.314427
0.314309
0.314838
0.316469
0.320492
0.327943
0.335741
0.343269
0.352229
0.362342
0.371926
0.379576
0.429834
0.582698
0.813057
0.95893
1.04426
1.07007
1.11225
1.14398
1.14026
1.15347
1.16716
1.16582
1.17081
1.18692
1.20102
1.21446
1.22901
1.24467
1.26014
1.27303
1.28267
1.28999
1.29784
1.30765
1.31954
1.33468
1.35533
1.37827
1.39426
1.39944
1.39999
1.40001
1.40001
1.40001
1.40001
1.40001
1.40001
1.40001
1.40001
1.40001
1.40001
1.40001
1.40001
1.40001
1.40001
0.330283
0.330256
0.330251
0.330254
0.330258
0.330254
0.330264
0.330299
0.330291
0.33031
0.330349
0.330316
0.33012
0.329829
0.329594
0.329215
0.328502
0.327636
0.325702
0.322576
0.318908
0.316062
0.314576
0.314955
0.315362
0.318113
0.323981
0.328537
0.334005
0.342456
0.351707
0.362297
0.372383
0.382219
0.393002
0.403502
0.411807
0.45672
0.591031
0.785966
0.976906
1.08562
1.12132
1.12923
1.16007
1.16593
1.15658
1.16786
1.18592
1.19572
1.20695
1.22196
1.23738
1.25168
1.26511
1.27638
1.28589
1.29487
1.30432
1.31645
1.33334
1.35564
1.37899
1.39475
1.39953
1.4
1.40001
1.40001
1.40001
1.40001
1.40001
1.40001
1.40001
1.40001
1.40001
1.40001
1.40001
1.40001
1.40001
1.40001
0.330235
0.330246
0.330257
0.330282
0.330314
0.330303
0.330306
0.330367
0.330371
0.330337
0.330343
0.330301
0.330146
0.329881
0.329647
0.329252
0.328161
0.325623
0.322059
0.318257
0.315975
0.315294
0.31559
0.317431
0.320542
0.323076
0.328257
0.336095
0.343954
0.352593
0.36218
0.371703
0.382108
0.393013
0.403605
0.414281
0.426206
0.436816
0.447587
0.481411
0.596059
0.777091
0.943383
1.06575
1.14608
1.14489
1.14287
1.16901
1.18013
1.18669
1.19809
1.21716
1.23336
1.24521
1.25679
1.2681
1.27865
1.28909
1.30046
1.31364
1.33112
1.35515
1.37979
1.39532
1.39963
1.4
1.40001
1.40001
1.40001
1.40001
1.40001
1.40001
1.40001
1.40001
1.40001
1.40001
1.40001
1.40001
1.40001
1.40001
0.330278
0.330311
0.330334
0.330321
0.330323
0.330319
0.330306
0.330332
0.330356
0.330197
0.33015
0.330135
0.33004
0.329662
0.328678
0.32674
0.323813
0.320083
0.317611
0.316049
0.315833
0.31698
0.318136
0.319689
0.325004
0.329783
0.334239
0.343094
0.352654
0.362181
0.372972
0.381516
0.391054
0.401915
0.412732
0.423405
0.435606
0.44808
0.460181
0.47352
0.486535
0.516183
0.619061
0.818922
0.988968
1.07849
1.13237
1.18713
1.17829
1.17778
1.19186
1.21047
1.22724
1.24172
1.25203
1.26106
1.27149
1.2828
1.29528
1.3104
1.33073
1.35585
1.38091
1.39592
1.39971
1.4
1.40001
1.40001
1.40001
1.40001
1.40001
1.40001
1.40001
1.40001
1.40001
1.40001
1.40001
1.40001
1.40001
1.40001
0.330393
0.330377
0.330362
0.330318
0.3302
0.330163
0.33002
0.329713
0.329787
0.329835
0.329621
0.329135
0.328238
0.326489
0.324039
0.320853
0.318469
0.316509
0.31593
0.316634
0.316755
0.317883
0.321609
0.32366
0.32762
0.336718
0.34586
0.354127
0.363551
0.372953
0.38273
0.39361
0.403702
0.413234
0.423534
0.434928
0.445392
0.457546
0.470989
0.484395
0.497922
0.514284
0.529218
0.567669
0.67712
0.891688
1.07873
1.16469
1.15819
1.16734
1.18801
1.20424
1.21832
1.23251
1.24508
1.25565
1.26563
1.27773
1.29125
1.30691
1.32879
1.35633
1.38228
1.39657
1.39979
1.4
1.40001
1.40001
1.40001
1.40001
1.40001
1.40001
1.40001
1.40001
1.40001
1.40001
1.40001
1.40001
1.40001
1.40001
0.330346
0.330219
0.329984
0.329692
0.329333
0.329037
0.328856
0.328548
0.328237
0.327949
0.327173
0.325715
0.323719
0.321328
0.319134
0.316864
0.315501
0.315575
0.315322
0.316389
0.317962
0.318874
0.323904
0.33221
0.338334
0.346382
0.356823
0.366005
0.375569
0.384678
0.392442
0.401943
0.411621
0.421746
0.432444
0.444109
0.456283
0.468623
0.481457
0.495769
0.510397
0.525022
0.540208
0.558615
0.577775
0.634241
0.793684
0.989531
1.09791
1.16654
1.1853
1.19208
1.20249
1.21631
1.2308
1.24536
1.25888
1.27155
1.28593
1.30455
1.32906
1.35769
1.38389
1.39721
1.39985
1.4
1.40001
1.40001
1.40001
1.40001
1.40001
1.40001
1.40001
1.40001
1.40001
1.40001
1.40001
1.40001
1.40001
1.40001
0.329766
0.32953
0.329253
0.328923
0.328605
0.328264
0.327966
0.327558
0.326691
0.325464
0.323867
0.321722
0.319434
0.3173
0.315779
0.315034
0.314665
0.315225
0.315453
0.316307
0.321327
0.327708
0.332426
0.341439
0.352022
0.360157
0.368167
0.376585
0.384423
0.393796
0.402942
0.411744
0.421656
0.432214
0.443653
0.455008
0.467579
0.480823
0.494421
0.50831
0.523563
0.53942
0.555776
0.571964
0.589237
0.609226
0.641468
0.747645
0.963028
1.12278
1.16108
1.17177
1.18727
1.20232
1.21629
1.23172
1.24867
1.26509
1.28099
1.3008
1.32814
1.35934
1.38578
1.39784
1.39991
1.4
1.40001
1.40001
1.40001
1.40001
1.40001
1.40001
1.40001
1.40001
1.40001
1.40001
1.40001
1.40001
1.40001
1.40001
0.329168
0.329097
0.329007
0.328814
0.328514
0.328045
0.327524
0.326671
0.324995
0.322413
0.319928
0.317565
0.315996
0.315161
0.314938
0.314955
0.314852
0.315589
0.320151
0.324851
0.330063
0.339136
0.348071
0.354403
0.362086
0.370037
0.37749
0.386229
0.394053
0.402313
0.413014
0.422928
0.433901
0.445418
0.456619
0.46874
0.481363
0.494172
0.507673
0.521921
0.536692
0.552306
0.569906
0.587056
0.605311
0.623045
0.644433
0.670186
0.751273
0.917814
1.06839
1.14938
1.18409
1.19833
1.21093
1.22368
1.23842
1.25648
1.27615
1.29997
1.32903
1.36169
1.38784
1.39842
1.39995
1.4
1.40001
1.40001
1.40001
1.40001
1.40001
1.40001
1.40001
1.40001
1.40001
1.40001
1.40001
1.40001
1.40001
1.40001
0.329314
0.329137
0.329057
0.328896
0.328457
0.327564
0.325711
0.323031
0.320334
0.31798
0.316397
0.31544
0.31519
0.315228
0.315483
0.316684
0.320761
0.325031
0.330129
0.337599
0.343944
0.349559
0.357065
0.364104
0.37124
0.378957
0.386985
0.395329
0.405662
0.415015
0.424619
0.435532
0.445683
0.456602
0.468089
0.479686
0.492109
0.505257
0.519346
0.533599
0.548599
0.564889
0.582308
0.601032
0.620294
0.640277
0.659086
0.679823
0.707062
0.769841
0.922076
1.07949
1.15276
1.17698
1.1939
1.21259
1.23176
1.24943
1.26961
1.29662
1.32988
1.3648
1.39008
1.39892
1.39997
1.4
1.40001
1.40001
1.40001
1.40001
1.40001
1.40001
1.40001
1.40001
1.40001
1.40001
1.40001
1.40001
1.40001
1.40001
0.328592
0.327846
0.326749
0.325283
0.32333
0.321134
0.319279
0.31778
0.316749
0.316007
0.315572
0.315889
0.316605
0.317937
0.321242
0.325052
0.329463
0.335259
0.339718
0.345549
0.352535
0.35891
0.365492
0.373714
0.381674
0.390371
0.399793
0.408631
0.417811
0.427977
0.437089
0.447039
0.45797
0.468502
0.479962
0.492088
0.504285
0.517419
0.531305
0.546285
0.561922
0.578107
0.594287
0.613399
0.634096
0.65567
0.677748
0.698231
0.718536
0.74842
0.806681
0.933056
1.06277
1.13559
1.17105
1.1965
1.21919
1.24084
1.26584
1.29687
1.33238
1.36865
1.39235
1.39933
1.39999
1.4
1.40001
1.40001
1.40001
1.40001
1.40001
1.40001
1.40001
1.40001
1.40001
1.40001
1.40001
1.40001
1.40001
1.40001
0.32528
0.323763
0.321847
0.319949
0.318672
0.317664
0.317187
0.316784
0.316728
0.317367
0.317996
0.318749
0.321204
0.324185
0.327382
0.332068
0.335962
0.342162
0.348701
0.354442
0.361932
0.370274
0.378409
0.386803
0.394993
0.403489
0.411942
0.420959
0.429279
0.438388
0.448648
0.458467
0.468664
0.480046
0.49202
0.504779
0.518449
0.532712
0.546775
0.562057
0.57828
0.595444
0.613717
0.630766
0.648965
0.670007
0.693449
0.717335
0.739355
0.762135
0.797278
0.855637
0.966762
1.08207
1.14704
1.18034
1.20479
1.22902
1.25926
1.29592
1.33612
1.37334
1.39452
1.39963
1.4
1.40001
1.40001
1.40001
1.40001
1.40001
1.40001
1.40001
1.40001
1.40001
1.40001
1.40001
1.40001
1.40001
1.40001
1.40001
0.320702
0.319002
0.317709
0.316598
0.316425
0.316416
0.316596
0.317363
0.317823
0.31873
0.320991
0.322849
0.325468
0.330018
0.334081
0.339643
0.346738
0.352859
0.361066
0.368989
0.376302
0.3841
0.391631
0.398895
0.407231
0.414811
0.422791
0.431117
0.440517
0.449459
0.459319
0.470411
0.481804
0.493762
0.505446
0.518034
0.531428
0.545054
0.560455
0.575707
0.591889
0.609235
0.628534
0.648523
0.668662
0.68872
0.710524
0.734706
0.760756
0.782273
0.807741
0.849217
0.911489
1.00467
1.09363
1.15182
1.1899
1.22386
1.25965
1.29846
1.34167
1.37857
1.39642
1.39982
1.4
1.40001
1.40001
1.40001
1.40001
1.40001
1.40001
1.40001
1.40001
1.40001
1.40001
1.40001
1.40001
1.40001
1.40001
1.40001
0.316697
0.31613
0.316185
0.316182
0.316095
0.31632
0.316435
0.317292
0.319325
0.320862
0.324236
0.329964
0.334311
0.339485
0.347355
0.354074
0.361259
0.368007
0.374653
0.381879
0.388623
0.395334
0.40274
0.40983
0.41737
0.425526
0.434177
0.443198
0.45278
0.463312
0.473905
0.484526
0.495924
0.507671
0.520885
0.533817
0.547263
0.561504
0.57596
0.591588
0.608023
0.625202
0.642349
0.662743
0.684659
0.706926
0.729483
0.753487
0.779098
0.806042
0.831091
0.86253
0.912302
0.976335
1.04977
1.11512
1.16886
1.21558
1.25894
1.30338
1.3491
1.384
1.39793
1.39993
1.4
1.40001
1.40001
1.40001
1.40001
1.40001
1.40001
1.40001
1.40001
1.40001
1.40001
1.40001
1.40001
1.40001
1.40001
1.40001
0.315801
0.315854
0.31626
0.316626
0.316674
0.317659
0.320338
0.322589
0.326549
0.332934
0.337449
0.342759
0.349895
0.355836
0.361274
0.367575
0.373355
0.379883
0.385637
0.392092
0.398911
0.405722
0.412828
0.421293
0.429108
0.437982
0.44719
0.456848
0.46651
0.476818
0.487414
0.49881
0.510063
0.521764
0.533708
0.547057
0.560804
0.575564
0.590773
0.607105
0.624353
0.642544
0.661636
0.68022
0.700537
0.723719
0.747943
0.77281
0.798372
0.826193
0.853617
0.881728
0.919683
0.97487
1.04057
1.10761
1.16738
1.21712
1.26302
1.31145
1.35817
1.38921
1.39897
1.39998
1.4
1.40001
1.40001
1.40001
1.40001
1.40001
1.40001
1.40001
1.40001
1.40001
1.40001
1.40001
1.40001
1.40001
1.40001
1.40001
0.317642
0.319084
0.320271
0.322349
0.32592
0.328786
0.332179
0.337143
0.341185
0.346023
0.351532
0.355813
0.361126
0.367206
0.372297
0.377888
0.383743
0.390362
0.397144
0.403855
0.411355
0.419317
0.427271
0.435273
0.444276
0.453005
0.461921
0.471217
0.481033
0.490813
0.501192
0.511807
0.523603
0.536154
0.549061
0.5622
0.576354
0.59086
0.606738
0.62319
0.640648
0.659172
0.679315
0.700448
0.721597
0.742936
0.766714
0.792205
0.819539
0.847147
0.876552
0.907159
0.939988
0.982828
1.03988
1.10383
1.16358
1.21707
1.26896
1.3218
1.36819
1.39367
1.39959
1.4
1.40001
1.40001
1.40001
1.40001
1.40001
1.40001
1.40001
1.40001
1.40001
1.40001
1.40001
1.40001
1.40001
1.40001
1.40001
1.40001
0.322133
0.324075
0.326123
0.32824
0.332378
0.336215
0.339057
0.344491
0.349789
0.353296
0.359382
0.365706
0.370523
0.376526
0.383638
0.389918
0.396847
0.40337
0.410954
0.418134
0.425345
0.432784
0.440652
0.448581
0.456547
0.465017
0.474089
0.483294
0.493006
0.50361
0.514767
0.526347
0.538231
0.550535
0.5641
0.578226
0.592995
0.608553
0.624385
0.641244
0.659143
0.677969
0.697067
0.717972
0.740389
0.764038
0.788157
0.814035
0.84127
0.870544
0.90005
0.930219
0.963753
1.0037
1.05321
1.11028
1.16757
1.22326
1.27977
1.33544
1.37854
1.39696
1.39988
1.4
1.40001
1.40001
1.40001
1.40001
1.40001
1.40001
1.40001
1.40001
1.40001
1.40001
1.40001
1.40001
1.40001
1.40001
1.40001
1.40001
0.32771
0.330751
0.335605
0.340027
0.343162
0.349012
0.355608
0.359557
0.365028
0.371345
0.376192
0.382386
0.388572
0.393894
0.399627
0.406024
0.412236
0.418528
0.424754
0.431761
0.438413
0.445908
0.453243
0.461334
0.469925
0.478857
0.48794
0.498107
0.508737
0.519582
0.53081
0.542845
0.555388
0.568421
0.58154
0.595733
0.610206
0.625609
0.642151
0.659672
0.677896
0.6968
0.717179
0.738187
0.760641
0.784384
0.80942
0.835302
0.863196
0.89358
0.926051
0.957811
0.987946
1.02166
1.0662
1.12093
1.17921
1.2378
1.29706
1.35216
1.38791
1.3989
1.39998
1.4
1.40001
1.40001
1.40001
1.40001
1.40001
1.40001
1.40001
1.40001
1.40001
1.40001
1.40001
1.40001
1.40001
1.40001
1.40001
1.40001
0.341993
0.345949
0.350179
0.355615
0.359982
0.36365
0.369133
0.37411
0.378245
0.383718
0.388661
0.393157
0.39911
0.404673
0.409838
0.415808
0.422023
0.428824
0.435269
0.442448
0.450484
0.457945
0.466781
0.47554
0.484562
0.494233
0.504401
0.514256
0.524698
0.535659
0.547147
0.558682
0.570926
0.583927
0.597878
0.611967
0.627304
0.643231
0.659886
0.677353
0.696216
0.716389
0.73698
0.75861
0.781201
0.805385
0.831329
0.85859
0.886446
0.916003
0.948527
0.983697
1.01949
1.0552
1.09371
1.13854
1.19196
1.25361
1.31723
1.36929
1.39475
1.39973
1.4
1.40001
1.40001
1.40001
1.40001
1.40001
1.40001
1.40001
1.40001
1.40001
1.40001
1.40001
1.40001
1.40001
1.40001
1.40001
1.40001
1.40001
0.354292
0.358553
0.361948
0.366054
0.371879
0.375984
0.379438
0.385021
0.390122
0.394826
0.40091
0.406346
0.411413
0.417894
0.42474
0.430936
0.437629
0.444545
0.452325
0.459488
0.467088
0.475466
0.483295
0.491982
0.500974
0.509823
0.519419
0.529731
0.54008
0.550976
0.562567
0.574975
0.587624
0.601037
0.615123
0.630319
0.645649
0.6621
0.679682
0.698085
0.716908
0.736585
0.757905
0.780548
0.804183
0.828464
0.854121
0.88193
0.911826
0.94306
0.975067
1.00784
1.04278
1.08159
1.12458
1.17208
1.22545
1.28505
1.34404
1.38478
1.39847
1.39997
1.4
1.40001
1.40001
1.40001
1.40001
1.40001
1.40001
1.40001
1.40001
1.40001
1.40001
1.40001
1.40001
1.40001
1.40001
1.40001
1.40001
1.40001
0.368845
0.373408
0.378181
0.381769
0.386207
0.391845
0.396383
0.400807
0.406228
0.41116
0.416426
0.422553
0.427952
0.433414
0.439722
0.4463
0.452622
0.459291
0.466142
0.473804
0.481087
0.489004
0.497687
0.506037
0.51496
0.524903
0.534632
0.544821
0.556164
0.568028
0.579838
0.592298
0.605997
0.620087
0.634363
0.649317
0.665762
0.68257
0.699827
0.718238
0.738211
0.759162
0.780372
0.802582
0.826569
0.85229
0.879187
0.907019
0.936306
0.968008
1.00232
1.03821
1.07475
1.11255
1.15359
1.20101
1.25699
1.31789
1.3695
1.39488
1.39975
1.4
1.40001
1.40001
1.40001
1.40001
1.40001
1.40001
1.40001
1.40001
1.40001
1.40001
1.40001
1.40001
1.40001
1.40001
1.40001
1.40001
1.40001
1.40001
0.382986
0.386546
0.391173
0.396022
0.39932
0.40357
0.408917
0.413409
0.418214
0.423545
0.428335
0.433629
0.440107
0.446038
0.451701
0.458249
0.465341
0.472437
0.479725
0.487223
0.495674
0.50411
0.512885
0.522421
0.532251
0.542062
0.55272
0.563837
0.574928
0.586452
0.599034
0.612048
0.624992
0.638907
0.654061
0.669666
0.685457
0.702512
0.720959
0.740112
0.759724
0.780595
0.802992
0.826474
0.850822
0.876419
0.903973
0.93347
0.964306
0.996283
1.02987
1.06604
1.10543
1.14766
1.19298
1.24325
1.29929
1.3537
1.38879
1.39907
1.39999
1.4
1.40001
1.40001
1.40001
1.40001
1.40001
1.40001
1.40001
1.40001
1.40001
1.40001
1.40001
1.40001
1.40001
1.40001
1.40001
1.40001
1.40001
1.40001
0.397408
0.401485
0.405013
0.409807
0.415022
0.41887
0.423421
0.428764
0.433788
0.439425
0.44525
0.450735
0.456492
0.463249
0.470084
0.476441
0.483449
0.490871
0.498492
0.506443
0.514437
0.522967
0.531752
0.540701
0.550035
0.560031
0.570213
0.580826
0.592358
0.604435
0.616586
0.629621
0.643895
0.658443
0.673302
0.689227
0.706372
0.724071
0.742447
0.762038
0.782629
0.804074
0.82656
0.850521
0.875921
0.902302
0.929808
0.959174
0.99093
1.0248
1.0602
1.09715
1.13661
1.17998
1.22879
1.28353
1.33935
1.3813
1.39771
1.39993
1.4
1.40001
1.40001
1.40001
1.40001
1.40001
1.40001
1.40001
1.40001
1.40001
1.40001
1.40001
1.40001
1.40001
1.40001
1.40001
1.40001
1.40001
1.40001
1.40001
0.411601
0.416018
0.420413
0.423893
0.428585
0.433983
0.438374
0.443262
0.448514
0.45359
0.459473
0.465591
0.471506
0.477329
0.48387
0.491127
0.497822
0.504967
0.512707
0.520594
0.529027
0.537792
0.546846
0.556382
0.566479
0.576771
0.587744
0.599386
0.61128
0.623696
0.636928
0.650667
0.664791
0.679718
0.695426
0.711796
0.728969
0.747135
0.766041
0.785894
0.806977
0.829314
0.852467
0.876439
0.901892
0.929383
0.958731
0.989393
1.02122
1.05448
1.08989
1.12853
1.17119
1.21847
1.27099
1.32636
1.37292
1.39556
1.39979
1.4
1.40001
1.40001
1.40001
1.40001
1.40001
1.40001
1.40001
1.40001
1.40001
1.40001
1.40001
1.40001
1.40001
1.40001
1.40001
1.40001
1.40001
1.40001
1.40001
1.40001
0.426797
0.430602
0.435271
0.440174
0.443989
0.44859
0.454125
0.459153
0.464686
0.470363
0.475752
0.481906
0.488504
0.495185
0.501812
0.50858
0.516303
0.524043
0.531833
0.540192
0.548816
0.557766
0.567117
0.576852
0.586966
0.597546
0.608616
0.620229
0.632268
0.6448
0.658041
0.672015
0.686349
0.701418
0.717539
0.734391
0.75167
0.770077
0.789935
0.810659
0.831728
0.853841
0.877852
0.903553
0.930143
0.957499
0.986445
1.01783
1.05172
1.08749
1.12488
1.16479
1.20896
1.25893
1.31346
1.36336
1.39231
1.39949
1.4
1.40001
1.40001