/*--------------------------------*- C++ -*----------------------------------*\
  =========                 |
  \\      /  F ield         | OpenFOAM: The Open Source CFD Toolbox
   \\    /   O peration     | Website:  https://openfoam.org
    \\  /    A nd           | Version:  7
     \\/     M anipulation  |
\*---------------------------------------------------------------------------*/
FoamFile
{
    version     2.0;
    format      ascii;
    class       volScalarField;
    location    "0.4701";
    object      T;
}
// * * * * * * * * * * * * * * * * * * * * * * * * * * * * * * * * * * * * * //

dimensions      [0 0 0 1 0 0 0];

internalField   nonuniform List<scalar> 
324000
(
0.844168
0.917521
1.01227
1.1066
1.16224
1.15828
1.13221
1.11302
1.10727
1.1087
1.11349
1.11415
1.11278
1.11012
1.11091
1.11433
1.11423
1.11258
1.1111
1.11002
1.10847
1.10633
1.10394
1.10324
1.10361
1.10416
1.10381
1.10208
1.09936
1.09805
1.09779
1.09724
1.09372
1.08802
1.0821
1.07585
1.07042
1.06518
1.06024
1.05589
1.0513
1.04672
1.04382
1.04055
1.03627
1.03621
1.03977
1.04803
1.05447
1.05251
1.04345
1.0244
1.00785
1.01248
1.01464
1.00903
0.99833
0.989712
0.988053
0.988293
0.989711
0.992695
0.996284
0.998945
0.999936
1.00004
1.00003
1.00001
1
1
1
1
1
1
1
1
1
1
1
1
0.559483
0.559805
0.631186
0.861008
1.043
1.14597
1.1484
1.15257
1.15083
1.14586
1.13975
1.13496
1.13437
1.13465
1.13716
1.14007
1.13919
1.13656
1.1357
1.13559
1.13427
1.13231
1.13128
1.13175
1.13285
1.13296
1.13271
1.13129
1.12937
1.12817
1.1274
1.12632
1.12224
1.11672
1.11146
1.10634
1.10192
1.09758
1.09354
1.08977
1.08597
1.08214
1.07946
1.07712
1.07386
1.07373
1.07598
1.07988
1.07862
1.07186
1.05703
1.03715
1.018
1.01897
1.01855
1.01125
0.998447
0.989123
0.987495
0.987761
0.989298
0.992422
0.996102
0.998846
0.999907
1.00003
1.00002
1.00001
1
1
1
1
1
1
1
1
1
1
1
1
0.558147
0.556629
0.555438
0.554563
0.642748
0.841931
1.02197
1.13355
1.16477
1.1604
1.15676
1.15342
1.14786
1.14679
1.14758
1.14689
1.14526
1.14346
1.14345
1.1431
1.14079
1.14045
1.14066
1.14203
1.14264
1.14254
1.1422
1.14125
1.14091
1.14056
1.14094
1.1405
1.13622
1.13094
1.12685
1.12354
1.12066
1.11773
1.11509
1.1131
1.11173
1.11095
1.10971
1.10839
1.10682
1.10535
1.10312
1.09757
1.08823
1.07729
1.0602
1.04062
1.02728
1.02616
1.02314
1.01334
0.998223
0.988405
0.986907
0.987227
0.988908
0.992168
0.995925
0.998747
0.999878
1.00003
1.00002
1.00001
1
1
1
1
1
1
1
1
1
1
1
1
0.555835
0.554964
0.554549
0.554375
0.554421
0.554561
0.646103
0.839217
1.01197
1.10601
1.14115
1.15822
1.15164
1.14892
1.14634
1.14479
1.14468
1.14462
1.14416
1.14294
1.1416
1.14194
1.14269
1.14336
1.14309
1.1428
1.14238
1.14243
1.14329
1.14376
1.14474
1.14366
1.13932
1.13425
1.13027
1.12704
1.12482
1.12381
1.12369
1.12483
1.12697
1.12969
1.12959
1.12775
1.12418
1.11921
1.11233
1.10071
1.08622
1.06938
1.05528
1.03905
1.03239
1.03158
1.02675
1.01457
0.997498
0.987597
0.98632
0.986711
0.988548
0.991926
0.995745
0.998649
0.99985
1.00002
1.00002
1.00001
1
1
1
1
1
1
1
1
1
1
1
1
0.554583
0.554356
0.554336
0.554432
0.554717
0.555277
0.556038
0.556408
0.646759
0.838021
0.991592
1.09883
1.12786
1.14281
1.13952
1.14008
1.14111
1.14181
1.14207
1.14251
1.14148
1.14178
1.14218
1.14215
1.14162
1.14139
1.1413
1.14176
1.14288
1.14373
1.14429
1.14229
1.13751
1.13218
1.12793
1.12529
1.12502
1.12682
1.12945
1.13306
1.13625
1.13725
1.13635
1.13356
1.12926
1.12153
1.11106
1.09351
1.06893
1.05189
1.042
1.0335
1.03344
1.03264
1.0276
1.01432
0.996218
0.98673
0.985733
0.986216
0.988215
0.991688
0.995559
0.998549
0.999824
1.00002
1.00002
1.00001
1
1
1
1
1
1
1
1
1
1
1
1
0.554271
0.554324
0.554544
0.555009
0.555628
0.556348
0.556804
0.557201
0.557469
0.557536
0.640829
0.827671
0.998551
1.10128
1.11778
1.1358
1.13689
1.13765
1.139
1.13917
1.13934
1.14044
1.14017
1.13907
1.13874
1.13892
1.13913
1.1398
1.14071
1.14116
1.14092
1.13836
1.13347
1.1286
1.12541
1.12509
1.12687
1.1307
1.13364
1.13591
1.13757
1.13742
1.13449
1.12952
1.12361
1.1138
1.09816
1.0766
1.0439
1.02116
1.01933
1.0201
1.02519
1.03067
1.02614
1.01256
0.9944
0.98585
0.985149
0.985742
0.987905
0.991446
0.995364
0.99845
0.999798
1.00001
1.00001
1.00001
1
1
1
1
1
1
1
1
1
1
1
1
0.554493
0.554867
0.55542
0.556027
0.556621
0.557038
0.557338
0.557556
0.557615
0.557661
0.557703
0.557722
0.652859
0.846216
1.01018
1.10696
1.11799
1.12946
1.13329
1.13374
1.13567
1.13577
1.13517
1.13426
1.13433
1.13496
1.13607
1.13791
1.14004
1.14017
1.13877
1.13511
1.12983
1.12597
1.12508
1.12594
1.12845
1.1319
1.1339
1.1347
1.13525
1.13416
1.13148
1.12635
1.11445
1.09845
1.07745
1.04889
1.01332
0.996136
0.998013
1.00441
1.01512
1.02378
1.02092
1.00872
0.992146
0.985036
0.984577
0.985301
0.987617
0.991198
0.995161
0.998351
0.999775
1.00001
1.00001
1.00001
1
1
1
1
1
1
1
1
1
1
1
1
0.555219
0.555834
0.556434
0.55691
0.557255
0.557451
0.557573
0.557638
0.55768
0.557714
0.557727
0.557726
0.557717
0.558289
0.680169
0.881857
1.01964
1.10411
1.11456
1.12435
1.1326
1.13071
1.12947
1.12968
1.13033
1.13157
1.13311
1.13484
1.13659
1.1362
1.13451
1.13079
1.12629
1.12442
1.12469
1.12597
1.12848
1.13098
1.13272
1.13482
1.13563
1.13308
1.12468
1.10961
1.08989
1.06911
1.04817
1.02352
0.994618
0.980343
0.980917
0.986227
0.997126
1.00777
1.00833
1.00108
0.989566
0.984209
0.983976
0.984897
0.987355
0.990945
0.994952
0.998255
0.999754
1
1.00001
1
1
1
1
1
1
1
1
1
1
1
1
1
0.556324
0.556814
0.557182
0.557396
0.557526
0.557599
0.557635
0.557691
0.557728
0.557739
0.557737
0.557719
0.557706
0.557711
0.557728
0.565506
0.713743
0.91041
1.03374
1.10249
1.11934
1.11983
1.12513
1.12608
1.12737
1.12803
1.12888
1.13027
1.13172
1.1314
1.13009
1.12709
1.12415
1.12391
1.12427
1.1259
1.12815
1.13058
1.13261
1.13368
1.13222
1.12436
1.10851
1.08608
1.0625
1.04144
1.02366
1.00415
0.983697
0.972708
0.971105
0.973464
0.982248
0.994739
0.998406
0.994208
0.986621
0.983271
0.983368
0.984565
0.987118
0.990685
0.994742
0.998165
0.999736
1
1.00001
1
1
1
1
1
1
1
1
1
1
1
1
1
0.557131
0.557341
0.557489
0.557559
0.557613
0.557678
0.5577
0.557719
0.557729
0.557726
0.557714
0.557702
0.557713
0.557748
0.557807
0.557854
0.557893
0.575712
0.746669
0.932417
1.05869
1.09101
1.11889
1.12294
1.12732
1.12743
1.1263
1.12732
1.12772
1.12659
1.12504
1.12411
1.12383
1.124
1.12491
1.12677
1.12873
1.13022
1.13027
1.12941
1.1236
1.10905
1.08653
1.06043
1.03677
1.01897
1.00576
0.991773
0.978864
0.970985
0.967174
0.967591
0.971496
0.979949
0.986402
0.986213
0.983411
0.982288
0.982752
0.98426
0.986872
0.990409
0.994536
0.998086
0.999721
0.999997
1.00001
1
1
1
1
1
1
1
1
1
1
1
1
1
0.557433
0.55752
0.557597
0.55767
0.557702
0.557723
0.557727
0.55772
0.557705
0.557696
0.557702
0.557728
0.557778
0.557841
0.557891
0.557936
0.557989
0.558053
0.558046
0.592007
0.781855
0.977537
1.09728
1.11661
1.12573
1.12519
1.12426
1.12258
1.1217
1.12285
1.12386
1.12477
1.12502
1.12552
1.12721
1.12904
1.12902
1.12813
1.12586
1.12107
1.10884
1.08851
1.06338
1.03822
1.01866
1.00679
0.997562
0.986689
0.977387
0.971194
0.966915
0.965632
0.966501
0.970707
0.977398
0.980421
0.980594
0.98107
0.982133
0.98394
0.986572
0.990108
0.99435
0.998028
0.999712
0.999995
1
1
1
1
1
1
1
1
1
1
1
1
1
1
0.557626
0.557674
0.557701
0.557724
0.557729
0.557724
0.557697
0.557678
0.557682
0.557708
0.557757
0.557826
0.557874
0.557919
0.557971
0.558028
0.558076
0.558108
0.558124
0.558147
0.558115
0.647191
0.85092
1.00977
1.10826
1.11212
1.11943
1.11779
1.12036
1.12524
1.1281
1.12843
1.12809
1.12926
1.13067
1.13016
1.12823
1.12385
1.11765
1.10621
1.08726
1.06506
1.04277
1.02277
1.00888
1.00099
0.993105
0.983284
0.975942
0.970863
0.967052
0.965479
0.96557
0.967925
0.972949
0.976829
0.978615
0.979976
0.981488
0.983483
0.986164
0.989781
0.994177
0.997988
0.999709
0.999994
1
1
1
1
1
1
1
1
1
1
1
1
1
1
0.557702
0.557716
0.557717
0.557702
0.557681
0.557679
0.557683
0.557699
0.557732
0.557783
0.557848
0.557901
0.557947
0.558006
0.558093
0.558206
0.558289
0.558364
0.558414
0.558443
0.55844
0.558227
0.558978
0.714148
0.935925
1.06001
1.12063
1.11867
1.12847
1.13654
1.13619
1.13459
1.13321
1.13348
1.13304
1.13042
1.12475
1.11668
1.10502
1.08712
1.06502
1.04489
1.02736
1.01356
1.00467
0.997561
0.988809
0.9797
0.974032
0.969986
0.966788
0.965607
0.965781
0.967481
0.971363
0.975078
0.97741
0.979054
0.98074
0.98285
0.98565
0.989457
0.994034
0.997935
0.999702
0.999992
1
1
1
1
1
1
1
1
1
1
1
1
1
1
0.557705
0.557694
0.557679
0.55767
0.557674
0.557686
0.557717
0.557768
0.557824
0.557879
0.557925
0.557981
0.558041
0.558116
0.558241
0.558421
0.558593
0.558722
0.558797
0.558841
0.558838
0.558755
0.558482
0.55808
0.590587
0.803739
1.02746
1.11149
1.14046
1.14694
1.14329
1.13972
1.13729
1.13616
1.13302
1.12662
1.117
1.10491
1.08779
1.06667
1.04701
1.03198
1.01848
1.00849
1.00114
0.993857
0.984443
0.976439
0.97195
0.968653
0.966131
0.965458
0.965781
0.967409
0.970799
0.974111
0.976406
0.978116
0.979912
0.982137
0.985095
0.989108
0.993908
0.997955
0.999713
0.999992
1
1
1
1
1
1
1
1
1
1
1
1
1
1
0.557675
0.55767
0.557671
0.557681
0.557706
0.557747
0.557802
0.55786
0.557908
0.557955
0.558015
0.558072
0.558141
0.558251
0.558402
0.558609
0.558842
0.558972
0.559039
0.559062
0.559045
0.559012
0.55889
0.558689
0.558387
0.557205
0.668167
0.919889
1.09723
1.14711
1.14067
1.14187
1.13885
1.13518
1.12917
1.11767
1.10553
1.09052
1.0704
1.0496
1.0351
1.0235
1.01261
1.00481
0.997779
0.98936
0.980327
0.97424
0.970369
0.967226
0.965212
0.964953
0.965484
0.967412
0.970546
0.973391
0.97552
0.977278
0.979122
0.981412
0.984558
0.9888
0.993747
0.997937
0.99972
0.999992
1
1
1
1
1
1
1
1
1
1
1
1
1
1
0.557664
0.557675
0.557695
0.55773
0.557781
0.557838
0.557894
0.557937
0.557986
0.558043
0.558099
0.558167
0.558258
0.558379
0.55853
0.558736
0.558965
0.559059
0.559094
0.559101
0.559085
0.559036
0.558934
0.558743
0.55815
0.557075
0.553815
0.582177
0.804977
1.04556
1.11774
1.14245
1.13549
1.13151
1.11957
1.10295
1.08934
1.07271
1.05473
1.03882
1.02797
1.01602
1.00578
0.999044
0.992232
0.983972
0.976899
0.972761
0.9691
0.965842
0.964224
0.964157
0.964877
0.967111
0.969953
0.972446
0.974428
0.976292
0.978342
0.980785
0.984039
0.98848
0.993727
0.997984
0.999734
0.999992
1
1
1
1
1
1
1
1
1
1
1
1
1
1
0.557694
0.557727
0.557774
0.557822
0.557871
0.557925
0.557975
0.558027
0.558076
0.558113
0.558149
0.558211
0.558303
0.558426
0.558585
0.558783
0.558995
0.559071
0.559094
0.559097
0.559086
0.559021
0.558872
0.558285
0.556516
0.553878
0.551402
0.549319
0.549075
0.700446
0.985968
1.1163
1.11446
1.11632
1.10554
1.08888
1.07398
1.05455
1.04092
1.03081
1.02176
1.0094
1.0001
0.993385
0.986063
0.978263
0.974408
0.971284
0.967432
0.964247
0.963251
0.963344
0.963983
0.966128
0.96888
0.971201
0.973119
0.975044
0.97727
0.980012
0.983552
0.988148
0.993605
0.998013
0.99975
0.999993
1
1
1
1
1
1
1
1
1
1
1
1
1
1
0.557774
0.557826
0.557867
0.557913
0.557962
0.558018
0.558071
0.558114
0.558147
0.558166
0.558189
0.558228
0.558302
0.558391
0.558513
0.558731
0.55888
0.558887
0.558847
0.558712
0.558731
0.558552
0.557483
0.555737
0.553383
0.55056
0.549018
0.548616
0.548657
0.549368
0.629885
0.860421
1.02257
1.07817
1.07283
1.07193
1.06094
1.04293
1.03303
1.02478
1.01353
1.00049
0.993615
0.987554
0.979755
0.973935
0.972417
0.969103
0.96506
0.962485
0.962206
0.962452
0.963133
0.964759
0.967377
0.969993
0.97209
0.974018
0.976279
0.979146
0.982926
0.987917
0.993677
0.998085
0.999769
0.999994
1
1
1
1
1
1
1
1
1
1
1
1
1
1
0.557876
0.557926
0.557975
0.558021
0.558067
0.558116
0.558152
0.55818
0.558214
0.558224
0.558244
0.558284
0.558345
0.558391
0.558406
0.558447
0.558377
0.558174
0.558001
0.557676
0.557111
0.556356
0.554841
0.552651
0.550296
0.54855
0.548383
0.548573
0.548966
0.551221
0.555752
0.565674
0.738734
0.90482
1.00492
1.04391
1.03432
1.02317
1.02409
1.01921
1.00626
0.991118
0.987952
0.982665
0.97589
0.973628
0.971141
0.966303
0.962282
0.960983
0.960859
0.961079
0.962079
0.963567
0.965586
0.968057
0.970662
0.973175
0.975642
0.978552
0.98239
0.987554
0.993641
0.998162
0.999791
0.999995
1
1
1
1
1
1
1
1
1
1
1
1
1
1
0.557984
0.558031
0.558078
0.55811
0.558138
0.558196
0.558232
0.558243
0.558284
0.558315
0.558341
0.558385
0.558438
0.558434
0.558333
0.558139
0.557937
0.557552
0.557114
0.556526
0.555448
0.554057
0.552277
0.549892
0.548563
0.548215
0.548335
0.549576
0.553218
0.557943
0.563226
0.569616
0.574199
0.611809
0.77669
0.909328
0.966574
0.998073
1.01166
1.00816
0.993164
0.984845
0.986058
0.981139
0.976298
0.974586
0.969387
0.962918
0.959824
0.959556
0.959119
0.959222
0.960332
0.962315
0.964207
0.966195
0.968808
0.971671
0.974535
0.977706
0.981866
0.987551
0.993766
0.998264
0.999815
0.999995
1
1
1
1
1
1
1
1
1
1
1
1
1
1
0.558087
0.558113
0.558139
0.558175
0.558221
0.558282
0.558326
0.558348
0.558391
0.558494
0.558568
0.558568
0.558501
0.558428
0.558282
0.558026
0.557704
0.557279
0.556466
0.555521
0.554024
0.551842
0.549642
0.548397
0.54833
0.548763
0.550004
0.552828
0.557918
0.563206
0.56826
0.574228
0.580851
0.587018
0.591682
0.639812
0.763111
0.88959
0.948207
0.977773
0.978324
0.988249
0.987159
0.97995
0.977163
0.973157
0.965864
0.959041
0.958802
0.95768
0.956686
0.956811
0.957877
0.960111
0.962819
0.965409
0.96768
0.97019
0.973225
0.976794
0.981262
0.987276
0.99386
0.998386
0.999841
0.999996
1
1
1
1
1
1
1
1
1
1
1
1
1
1
0.558146
0.558177
0.55822
0.558281
0.558351
0.558398
0.558454
0.55854
0.558589
0.55867
0.558759
0.558769
0.558698
0.558554
0.558442
0.558238
0.557796
0.557252
0.555978
0.553896
0.551417
0.5495
0.548494
0.548795
0.549159
0.551139
0.555193
0.558327
0.562038
0.567723
0.573869
0.580774
0.587231
0.593448
0.6002
0.606647
0.61147
0.64976
0.751018
0.854269
0.936335
0.981492
0.9782
0.972645
0.97511
0.971235
0.960032
0.957005
0.956967
0.954854
0.953637
0.954256
0.955545
0.957569
0.96051
0.963628
0.966523
0.969323
0.972234
0.975881
0.980878
0.987373
0.994068
0.998525
0.999867
0.999997
1
1
1
1
1
1
1
1
1
1
1
1
1
1
0.558226
0.558286
0.558351
0.558428
0.55852
0.558558
0.558595
0.558684
0.558721
0.558726
0.558776
0.558782
0.558743
0.558618
0.558503
0.558291
0.557624
0.555956
0.553554
0.550999
0.549416
0.549007
0.549249
0.55059
0.552806
0.554588
0.558117
0.56346
0.568725
0.574427
0.580706
0.586811
0.593393
0.60017
0.606622
0.613025
0.620144
0.626319
0.632257
0.656741
0.742074
0.840879
0.902668
0.945687
0.967222
0.962525
0.952751
0.956537
0.954345
0.950607
0.950722
0.952643
0.95422
0.955597
0.958037
0.961198
0.964409
0.967622
0.971089
0.97505
0.98023
0.987239
0.994301
0.998685
0.999893
0.999998
1
1
1
1
1
1
1
1
1
1
1
1
1
1
0.558378
0.558462
0.55853
0.558565
0.558598
0.558633
0.558655
0.558718
0.558757
0.558696
0.558714
0.558753
0.558738
0.558564
0.557974
0.556705
0.554734
0.552215
0.550558
0.549513
0.549407
0.550249
0.551104
0.552212
0.555859
0.559152
0.562184
0.56815
0.574492
0.580698
0.587603
0.593012
0.598955
0.605606
0.612129
0.618472
0.625567
0.632745
0.639689
0.646905
0.653811
0.673057
0.739447
0.841353
0.904578
0.933177
0.947831
0.959666
0.953732
0.947366
0.949089
0.950696
0.952207
0.954436
0.956663
0.959134
0.962285
0.965746
0.969545
0.974096
0.980127
0.987448
0.994621
0.998854
0.999917
0.999999
1
1
1
1
1
1
1
1
1
1
1
1
1
1
0.558595
0.5586
0.55862
0.558615
0.55859
0.558625
0.558603
0.558488
0.558569
0.558624
0.558508
0.558244
0.557699
0.556537
0.554867
0.552709
0.551124
0.54981
0.54946
0.549984
0.55012
0.550934
0.553506
0.554938
0.55766
0.563864
0.570001
0.575434
0.581574
0.587603
0.59375
0.600506
0.606671
0.612411
0.618521
0.625184
0.631218
0.638115
0.645612
0.653014
0.660379
0.668598
0.676298
0.698921
0.760591
0.858248
0.932022
0.952311
0.945891
0.944971
0.947302
0.948067
0.949137
0.951543
0.954585
0.957556
0.960549
0.964235
0.968347
0.973065
0.979562
0.987594
0.995012
0.999036
0.999939
0.999999
1
1
1
1
1
1
1
1
1
1
1
1
1
1
0.558644
0.558604
0.558496
0.558349
0.558145
0.557999
0.557931
0.557777
0.557633
0.557498
0.557009
0.556012
0.554641
0.553011
0.551528
0.55001
0.549139
0.549216
0.549066
0.549855
0.550985
0.55163
0.555086
0.5608
0.564955
0.570323
0.577191
0.583142
0.589225
0.594956
0.599791
0.605609
0.611452
0.617483
0.623757
0.630474
0.637396
0.644308
0.651385
0.659131
0.66689
0.674528
0.682278
0.691297
0.700617
0.731201
0.812398
0.887676
0.922549
0.943805
0.944494
0.943237
0.943881
0.946471
0.950258
0.95448
0.958528
0.96238
0.966759
0.972377
0.97965
0.987988
0.995469
0.999216
0.999957
0.999999
1
1
1
1
1
1
1
1
1
1
1
1
1
1
0.558368
0.558259
0.558121
0.557949
0.557764
0.557559
0.557397
0.557165
0.556615
0.555802
0.554718
0.553267
0.551732
0.550302
0.54927
0.548804
0.548589
0.548996
0.549227
0.549846
0.553317
0.557743
0.560962
0.567015
0.574036
0.579349
0.584504
0.589874
0.594807
0.600609
0.606214
0.611521
0.617432
0.623621
0.630215
0.636674
0.643711
0.651003
0.658394
0.665799
0.673759
0.681845
0.690011
0.697951
0.706291
0.715684
0.731729
0.782872
0.873391
0.929728
0.936458
0.936287
0.938673
0.942109
0.94584
0.950329
0.955438
0.960436
0.965281
0.971267
0.979389
0.988471
0.996004
0.999393
0.999972
1
1
1
1
1
1
1
1
1
1
1
1
1
1
1
0.558071
0.558054
0.55803
0.557944
0.557785
0.557496
0.557175
0.556621
0.555495
0.553746
0.552055
0.550455
0.549416
0.548862
0.548724
0.548779
0.548775
0.549317
0.552512
0.555785
0.559353
0.565444
0.571422
0.575589
0.580586
0.585706
0.590447
0.595919
0.600785
0.605835
0.612287
0.618178
0.624581
0.631216
0.637565
0.64433
0.651276
0.658225
0.665429
0.672909
0.680499
0.688339
0.696981
0.705243
0.713916
0.722266
0.731874
0.74361
0.781543
0.851111
0.903894
0.928795
0.937783
0.940977
0.944233
0.947868
0.952301
0.957826
0.963834
0.97103
0.979656
0.989151
0.996585
0.999555
0.999983
1
1
1
1
1
1
1
1
1
1
1
1
1
1
1
0.55825
0.558154
0.558141
0.558076
0.557837
0.557285
0.556038
0.554203
0.552354
0.550748
0.549695
0.549028
0.548901
0.548983
0.549262
0.550166
0.552987
0.555909
0.559358
0.564402
0.568675
0.572401
0.577315
0.581904
0.586476
0.591368
0.596412
0.60156
0.607856
0.61348
0.619145
0.625526
0.631366
0.637544
0.643966
0.650357
0.657106
0.664147
0.671573
0.678939
0.686531
0.694604
0.70303
0.711937
0.720947
0.730187
0.738731
0.748059
0.759954
0.787158
0.849027
0.905576
0.928183
0.934399
0.938978
0.944456
0.950266
0.955682
0.961871
0.970041
0.979913
0.990044
0.997216
0.999696
0.999991
1
1
1
1
1
1
1
1
1
1
1
1
1
1
1
0.557893
0.557428
0.556708
0.555718
0.554384
0.552884
0.551607
0.550613
0.549908
0.549414
0.549178
0.549453
0.55004
0.551024
0.553309
0.555921
0.558899
0.562833
0.565855
0.56974
0.574358
0.578539
0.582794
0.588057
0.593081
0.598498
0.604274
0.609642
0.615114
0.621106
0.62642
0.632122
0.638311
0.644196
0.650501
0.657082
0.663613
0.670557
0.677757
0.685397
0.693191
0.701075
0.708817
0.717797
0.727366
0.737181
0.747105
0.75616
0.764989
0.777569
0.801659
0.851487
0.897418
0.920809
0.931673
0.939449
0.946411
0.953074
0.960738
0.970117
0.980649
0.991147
0.997853
0.99981
0.999996
1
1
1
1
1
1
1
1
1
1
1
1
1
1
1
0.555695
0.554671
0.553371
0.552086
0.551218
0.550532
0.550206
0.549952
0.549954
0.550459
0.550964
0.551542
0.553258
0.555307
0.557476
0.560673
0.56333
0.567474
0.571844
0.575623
0.580497
0.585859
0.591019
0.596264
0.60133
0.606514
0.61161
0.616971
0.621876
0.627162
0.633039
0.638601
0.644287
0.650553
0.657049
0.663867
0.67107
0.678457
0.685642
0.693275
0.701204
0.709416
0.717998
0.725881
0.734193
0.743665
0.754018
0.764398
0.773838
0.783366
0.797604
0.820669
0.862603
0.902858
0.923946
0.934341
0.941924
0.94944
0.958749
0.969842
0.981746
0.992484
0.998461
0.999893
0.999998
1
1
1
1
1
1
1
1
1
1
1
1
1
1
1
0.5526
0.551442
0.550568
0.549823
0.549718
0.54972
0.549868
0.550432
0.550799
0.551466
0.553046
0.554345
0.556146
0.559266
0.562051
0.565792
0.570551
0.574585
0.579923
0.585028
0.589667
0.594568
0.599246
0.603706
0.608771
0.613319
0.618062
0.622948
0.62839
0.633512
0.639083
0.645252
0.651513
0.657975
0.664207
0.670841
0.677793
0.684764
0.692493
0.699999
0.707794
0.715967
0.72488
0.733988
0.74305
0.751942
0.761465
0.771805
0.782735
0.791619
0.801904
0.818157
0.841767
0.875781
0.906276
0.925198
0.937245
0.94785
0.958867
0.970608
0.983369
0.993969
0.998995
0.999948
0.999999
1
1
1
1
1
1
1
1
1
1
1
1
1
1
1
0.54988
0.549518
0.549553
0.549559
0.549516
0.549716
0.549849
0.550499
0.551936
0.553013
0.555325
0.559253
0.562224
0.565706
0.570948
0.575376
0.580027
0.584388
0.588612
0.593168
0.597381
0.60152
0.606046
0.610344
0.614841
0.619678
0.624726
0.629933
0.635386
0.641301
0.647168
0.652983
0.659126
0.665369
0.672305
0.678985
0.685843
0.693003
0.700133
0.707688
0.715458
0.723434
0.731257
0.740433
0.750139
0.759878
0.76956
0.779696
0.790264
0.80122
0.811184
0.823347
0.842085
0.865367
0.891132
0.913138
0.930573
0.945297
0.958665
0.972084
0.985528
0.995504
0.999416
0.999978
1
1
1
1
1
1
1
1
1
1
1
1
1
1
1
1
0.549306
0.54936
0.549668
0.549988
0.55009
0.550823
0.552689
0.554257
0.556954
0.561293
0.564337
0.567869
0.572588
0.576507
0.580031
0.584097
0.587786
0.591916
0.595527
0.599529
0.603716
0.607868
0.612137
0.617173
0.621777
0.626924
0.632206
0.637672
0.643076
0.648764
0.654535
0.660655
0.666625
0.672758
0.678917
0.685736
0.692647
0.699939
0.707321
0.71508
0.723104
0.73139
0.739977
0.748219
0.757124
0.7671
0.777357
0.787666
0.798089
0.809174
0.819904
0.830668
0.844814
0.864827
0.887889
0.910565
0.930045
0.945754
0.959914
0.974492
0.988147
0.996969
0.99971
0.999993
1
1
1
1
1
1
1
1
1
1
1
1
1
1
1
1
0.550685
0.551709
0.552553
0.553998
0.556461
0.558412
0.560699
0.564075
0.5668
0.569995
0.573661
0.576487
0.579934
0.583852
0.587122
0.590659
0.594349
0.598457
0.602639
0.606727
0.61125
0.61598
0.620684
0.625337
0.63052
0.635492
0.640505
0.64567
0.651062
0.656365
0.661933
0.667551
0.673712
0.680162
0.68674
0.693317
0.700323
0.70738
0.714952
0.722627
0.730607
0.738938
0.747837
0.757079
0.76619
0.775253
0.785152
0.795579
0.806527
0.8174
0.828727
0.840258
0.852359
0.867748
0.887671
0.909279
0.928782
0.945717
0.961726
0.977557
0.991014
0.99822
0.999883
0.999998
1
1
1
1
1
1
1
1
1
1
1
1
1
1
1
1
0.553782
0.555127
0.556568
0.55806
0.560831
0.563459
0.565419
0.569012
0.572547
0.574875
0.578827
0.58293
0.586016
0.589821
0.594284
0.59819
0.602455
0.606428
0.610993
0.61528
0.619535
0.623891
0.62843
0.632982
0.637492
0.642236
0.647264
0.652304
0.657556
0.663227
0.669101
0.675129
0.681229
0.687475
0.694238
0.701227
0.708393
0.715815
0.723213
0.730942
0.73899
0.747301
0.755638
0.764628
0.774151
0.784034
0.793934
0.804327
0.815059
0.82637
0.837556
0.848738
0.860877
0.875046
0.892204
0.911415
0.930075
0.947667
0.965013
0.981557
0.993954
0.999143
0.999965
1
1
1
1
1
1
1
1
1
1
1
1
1
1
1
1
1
0.557704
0.559753
0.563018
0.565998
0.568072
0.571935
0.576322
0.578878
0.582392
0.586477
0.589554
0.593439
0.597309
0.6006
0.604111
0.608004
0.611735
0.615499
0.619174
0.623282
0.627146
0.631443
0.635628
0.640174
0.64496
0.649879
0.654816
0.660281
0.665927
0.671602
0.677421
0.683564
0.689882
0.696357
0.70282
0.709684
0.716597
0.723811
0.731411
0.739286
0.747327
0.755557
0.764313
0.773241
0.782625
0.792372
0.802463
0.812712
0.823544
0.835112
0.847222
0.858823
0.869601
0.88139
0.896605
0.914825
0.933686
0.952117
0.970186
0.986403
0.9966
0.999688
0.999993
1
1
1
1
1
1
1
1
1
1
1
1
1
1
1
1
1
0.567296
0.569956
0.572746
0.576283
0.579166
0.581557
0.585043
0.588242
0.590871
0.594282
0.597386
0.600172
0.603812
0.607203
0.610329
0.613899
0.617591
0.621578
0.625347
0.629474
0.634069
0.638281
0.643211
0.64806
0.652979
0.658191
0.663624
0.668812
0.674247
0.679897
0.68573
0.691521
0.697593
0.703964
0.710694
0.717423
0.724612
0.731938
0.739435
0.747158
0.755367
0.764011
0.772723
0.781755
0.791062
0.800855
0.811155
0.821761
0.832396
0.843463
0.855375
0.867971
0.880552
0.892895
0.905925
0.920698
0.937827
0.957015
0.976175
0.991313
0.998522
0.999923
0.999999
1
1
1
1
1
1
1
1
1
1
1
1
1
1
1
1
1
0.575454
0.578237
0.580444
0.583074
0.5868
0.589418
0.591589
0.595087
0.598276
0.601171
0.604883
0.6082
0.611244
0.615107
0.619165
0.622793
0.626675
0.630653
0.635079
0.639124
0.643351
0.647995
0.652278
0.656971
0.661793
0.666486
0.671501
0.676852
0.682155
0.687664
0.693459
0.699583
0.705747
0.712201
0.718905
0.726011
0.733062
0.740478
0.748259
0.756245
0.76428
0.772582
0.781478
0.790805
0.800371
0.810014
0.820015
0.830658
0.841897
0.853424
0.864985
0.876555
0.888626
0.901752
0.915976
0.931349
0.948214
0.966518
0.984017
0.99571
0.999567
0.999989
1
1
1
1
1
1
1
1
1
1
1
1
1
1
1
1
1
1
0.584874
0.587763
0.590792
0.593067
0.595825
0.599315
0.602125
0.604822
0.608108
0.611088
0.614232
0.61785
0.621038
0.62423
0.627872
0.631649
0.635246
0.639011
0.642836
0.647076
0.651081
0.655366
0.660047
0.664492
0.66918
0.674358
0.679377
0.684554
0.690262
0.696163
0.701952
0.707988
0.71455
0.721209
0.727858
0.73473
0.742151
0.749575
0.757042
0.764892
0.773307
0.782016
0.790709
0.799685
0.809234
0.819303
0.829634
0.840108
0.850912
0.862373
0.874525
0.887
0.899473
0.91211
0.925511
0.940619
0.957989
0.97632
0.991351
0.998557
0.999929
0.999999
1
1
1
1
1
1
1
1
1
1
1
1
1
1
1
1
1
1
0.593822
0.596047
0.598891
0.601891
0.60392
0.606498
0.609734
0.612438
0.61529
0.618451
0.621269
0.624353
0.628098
0.631505
0.634731
0.638422
0.642395
0.646323
0.650335
0.654408
0.658952
0.663471
0.668083
0.673058
0.678148
0.683147
0.688513
0.694077
0.699544
0.705147
0.71121
0.717404
0.72348
0.729937
0.73689
0.743913
0.750874
0.758261
0.766133
0.774168
0.782267
0.790792
0.799852
0.809222
0.81875
0.828561
0.838926
0.849839
0.861062
0.872477
0.884198
0.896538
0.909689
0.923502
0.938012
0.953733
0.970771
0.986796
0.996837
0.999736
0.999995
1
1
1
1
1
1
1
1
1
1
1
1
1
1
1
1
1
1
1
0.60273
0.605229
0.607379
0.610245
0.613381
0.61568
0.618364
0.621504
0.624439
0.627688
0.631036
0.634167
0.637419
0.641205
0.645004
0.648512
0.652339
0.656361
0.660443
0.664677
0.668888
0.673321
0.677872
0.682445
0.687155
0.692172
0.697223
0.702408
0.708
0.713793
0.71953
0.725616
0.732228
0.738865
0.745523
0.752551
0.759996
0.767516
0.775173
0.783243
0.791657
0.800308
0.809228
0.818577
0.828335
0.838316
0.848531
0.859208
0.87052
0.882347
0.894477
0.90691
0.919922
0.933908
0.949269
0.966037
0.982622
0.994714
0.999353
0.999979
1
1
1
1
1
1
1
1
1
1
1
1
1
1
1
1
1
1
1
1
0.611336
0.613958
0.616581
0.618646
0.621381
0.624541
0.627088
0.629894
0.6329
0.635785
0.639092
0.64251
0.6458
0.649003
0.652572
0.656506
0.660099
0.663899
0.667993
0.672104
0.676472
0.68098
0.685557
0.69035
0.695389
0.700435
0.705764
0.711389
0.717034
0.722841
0.729001
0.735318
0.741697
0.748361
0.755299
0.762374
0.769624
0.777182
0.78497
0.793029
0.801458
0.81028
0.819334
0.828573
0.838183
0.848349
0.859008
0.869968
0.881153
0.892614
0.904553
0.917303
0.931086
0.94603
0.962223
0.978809
0.992328
0.998747
0.99994
0.999999
1
1
1
1
1
1
1
1
1
1
1
1
1
1
1
1
1
1
1
1
0.620343
0.622573
0.625265
0.628109
0.630312
0.632926
0.636076
0.63891
0.641998
0.645154
0.648129
0.651498
0.655069
0.658675
0.66222
0.665793
0.669856
0.673887
0.677892
0.682179
0.686543
0.691014
0.695678
0.700463
0.705363
0.710478
0.715759
0.721204
0.726818
0.732609
0.738621
0.744895
0.751292
0.757905
0.764825
0.771943
0.779142
0.786672
0.794662
0.802917
0.811246
0.819873
0.829071
0.838742
0.848592
0.858569
0.868932
0.879943
0.891594
0.903657
0.916037
0.928994
0.943033
0.958532
0.974986
0.989585
0.997834
0.999854
0.999998
1
1
1
1
1
1
1
1
1
1
1
1
1
1
1
1
1
1
1
1
1
0.629386
0.631843
0.634077
0.636702
0.639773
0.642302
0.644907
0.648005
0.650938
0.654124
0.657526
0.660659
0.66397
0.667521
0.6712
0.674976
0.678676
0.682621
0.686773
0.690977
0.695306
0.699805
0.704482
0.709268
0.714208
0.719392
0.724766
0.730211
0.735914
0.741923
0.747968
0.75421
0.760834
0.767636
0.77443
0.781525
0.789071
0.796802
0.804587
0.812725
0.821403
0.830409
0.839519
0.84885
0.858678
0.869083
0.879881
0.890918
0.902248
0.914069
0.926673
0.940383
0.955433
0.971553
0.98671
0.996586
0.999682
0.999993
1
1
1
1
1
1
1
1
1
1
1
1
1
1
1
1
1
1
1
1
1
1
0.638538
0.641027
0.643678
0.646046
0.648498
0.651631
0.654555
0.657328
0.660445
0.663508
0.666635
0.670134
0.673615
0.67702
0.680629
0.684452
0.688345
0.692335
0.696488
0.700711
0.705161
0.709801
0.71441
0.71928
0.724431
0.729541
0.734879
0.740581
0.746278
0.752074
0.758315
0.764765
0.771151
0.777818
0.784921
0.792144
0.799402
0.807052
0.815198
0.823559
0.832027
0.840845
0.850193
0.859936
0.869893
0.880117
0.89081
0.90208
0.913889
0.926219
0.93928
0.953471
0.968878
0.984075
0.995143
0.999401
0.99998
1
1
1
1
1
1
1
1
1
1
1
1
1
1
1
1
1
1
1
1
1
1
1
0.64808
0.650383
0.652899
0.655789
0.658447
0.660898
0.663911
0.667009
0.669971
0.673162
0.676439
0.679659
0.683058
0.686734
0.690396
0.694059
0.698009
0.702052
0.706145
0.710537
0.714956
0.719443
0.724283
0.729167
0.7341
0.739428
0.744893
0.750319
0.756107
0.762213
0.768301
0.77458
0.781261
0.788092
0.794957
0.802146
0.809758
0.817572
0.825538
0.833858
0.84262
0.851684
0.860971
0.870591
0.880677
0.89122
0.902138
0.913436
0.92528
0.937957
0.951778
0.966789
0.981894
0.993722
0.99903
0.999956
1
1
1
1
1
1
1
1
1
1
1
1
1
1
1
1
1
1
1
1
1
1
1
1
0.657723
0.660306
0.662736
0.66517
0.668142
0.671058
0.673735
0.676734
0.679847
0.682939
0.686218
0.689605
0.693093
0.696556
0.700239
0.704177
0.708019
0.712055
0.716354
0.720609
0.725097
0.729809
0.734474
0.739403
0.744617
0.749808
0.755203
0.760943
0.766752
0.772681
0.778964
0.785441
0.791964
0.798734
0.805856
0.813173
0.820659
0.82848
0.836676
0.84514
0.85385
0.862907
0.872373
0.882211
0.892391
0.902962
0.914006
0.925611
0.937925
0.951203
0.965598
0.980337
0.99251
0.998628
0.99992
0.999999
1
1
1
1
1
1
1
1
1
1
1
1
1
1
1
1
1
1
1
1
1
1
1
1
0.667734
0.670086
0.67279
0.67553
0.678019
0.680842
0.683929
0.686837
0.689918
0.693099
0.696314
0.699724
0.703195
0.706836
0.710557
0.714301
0.718336
0.722462
0.726624
0.731055
0.735557
0.740133
0.744995
0.749967
0.755033
0.760386
0.7659
0.771498
0.777368
0.783485
0.789699
0.796093
0.802767
0.809642
0.816693
0.82403
0.831691
0.839616
0.847801
0.856312
0.865177
0.874374
0.883907
0.893823
0.904159
0.914935
0.926213
0.93816
0.951042
0.965002
0.979384
0.991625
0.998266
0.999877
0.999998
1
1
1
1
1
1
1
1
1
1
1
1
1
1
1
1
1
1
1
1
1
1
1
1
1
0.677945
0.680462
0.682965
0.685635
0.688547
0.691274
0.694077
0.697195
0.700241
0.703439
0.706827
0.710154
0.713659
0.71729
0.72104
0.724965
0.728918
0.733029
0.737339
0.741702
0.746228
0.75094
0.755745
0.760748
0.765962
0.771281
0.776786
0.782537
0.788446
0.794514
0.800807
0.807296
0.813955
0.820851
0.828028
0.835459
0.843148
0.851139