/*--------------------------------*- C++ -*----------------------------------*\
  =========                 |
  \\      /  F ield         | OpenFOAM: The Open Source CFD Toolbox
   \\    /   O peration     | Website:  https://openfoam.org
    \\  /    A nd           | Version:  7
     \\/     M anipulation  |
\*---------------------------------------------------------------------------*/
FoamFile
{
    version     2.0;
    format      ascii;
    class       volScalarField;
    location    "7";
    object      p;
}
// * * * * * * * * * * * * * * * * * * * * * * * * * * * * * * * * * * * * * //

dimensions      [0 2 -2 0 0 0 0];

internalField   nonuniform List<scalar> 
8400
(
-0.207448
-0.198909
-0.191324
-0.184463
-0.177896
-0.17138
-0.164781
-0.158002
-0.150968
-0.143628
-0.13595
-0.127915
-0.119518
-0.110764
-0.10167
-0.0922654
-0.0825935
-0.0727143
-0.0627057
-0.0526658
-0.0427144
-0.0329948
-0.0236741
-0.0149374
-0.00704238
-4.10727e-06
0.00497005
0.0109371
0.00693381
0.0223413
-0.205735
-0.200243
-0.193968
-0.187795
-0.181595
-0.175227
-0.168649
-0.16183
-0.154736
-0.147336
-0.139607
-0.131531
-0.123098
-0.114307
-0.105172
-0.0957136
-0.0859721
-0.0760025
-0.0658793
-0.055698
-0.0455776
-0.0356614
-0.0261179
-0.0171379
-0.00896845
-0.00168508
0.00369038
0.00968357
0.00665366
0.0212978
-0.206804
-0.201864
-0.196578
-0.191023
-0.185193
-0.179081
-0.172682
-0.165983
-0.158969
-0.151621
-0.143924
-0.135864
-0.127433
-0.11863
-0.109464
-0.0999549
-0.0901387
-0.0800672
-0.069812
-0.0594672
-0.0491508
-0.039007
-0.0292059
-0.0199426
-0.0114578
-0.00387432
0.0019451
0.00804737
0.00606622
0.0198986
-0.20871
-0.203833
-0.199348
-0.194401
-0.188997
-0.183228
-0.17711
-0.170631
-0.163783
-0.15656
-0.148951
-0.140949
-0.132548
-0.123748
-0.114558
-0.104996
-0.0950951
-0.0849062
-0.074499
-0.0639664
-0.0534263
-0.0430236
-0.0329306
-0.0233458
-0.0145057
-0.00657028
-0.000262203
0.00601979
0.00520569
0.0181317
-0.212323
-0.207192
-0.203221
-0.19868
-0.193576
-0.18808
-0.182212
-0.175949
-0.169282
-0.162201
-0.154701
-0.146772
-0.138411
-0.129618
-0.1204
-0.110777
-0.100779
-0.0904559
-0.0798765
-0.0691331
-0.058344
-0.0476553
-0.0372408
-0.0273019
-0.0180724
-0.00973846
-0.00290542
0.003634
0.00407019
0.0160384
-0.216067
-0.211215
-0.207881
-0.203701
-0.198857
-0.193609
-0.187973
-0.181916
-0.175421
-0.168481
-0.161086
-0.153229
-0.144905
-0.136113
-0.12686
-0.117165
-0.107057
-0.096585
-0.0858173
-0.0748462
-0.0637904
-0.0527969
-0.0420412
-0.0317259
-0.0220829
-0.0133147
-0.00593156
0.000943153
0.00266514
0.0136877
-0.22312
-0.217061
-0.213712
-0.209729
-0.205011
-0.199879
-0.194373
-0.188448
-0.182076
-0.17524
-0.167926
-0.160124
-0.151823
-0.143021
-0.133724
-0.123948
-0.113722
-0.103093
-0.0921303
-0.0809254
-0.0695977
-0.0582947
-0.0471924
-0.0364937
-0.0264278
-0.0172054
-0.00926071
-0.00198456
0.00101634
0.0111629
-0.22929
-0.222874
-0.219705
-0.215935
-0.211364
-0.206358
-0.20098
-0.195176
-0.188911
-0.182163
-0.174916
-0.167155
-0.158867
-0.150048
-0.140702
-0.130842
-0.120498
-0.109717
-0.0985655
-0.0871364
-0.0755486
-0.0639495
-0.0525146
-0.0414449
-0.0309656
-0.0212899
-0.0127889
-0.00506662
-0.000831409
0.00855555
-0.235745
-0.229
-0.225918
-0.222272
-0.217776
-0.212834
-0.207526
-0.201795
-0.195596
-0.188905
-0.1817
-0.173962
-0.165676
-0.156836
-0.147442
-0.137507
-0.127058
-0.116143
-0.104827
-0.093202
-0.0813866
-0.0695266
-0.0577951
-0.0463899
-0.0355293
-0.0254249
-0.0163935
-0.00820844
-0.00281658
0.00595897
-0.241728
-0.234751
-0.231711
-0.228158
-0.223713
-0.218807
-0.21354
-0.207854
-0.201696
-0.195038
-0.187856
-0.180131
-0.171844
-0.162985
-0.153555
-0.143564
-0.13304
-0.122026
-0.110589
-0.098818
-0.0868303
-0.0747684
-0.0628011
-0.0511203
-0.0399354
-0.0294526
-0.0199399
-0.0113073
-0.00486445
0.00346079
-0.246822
-0.239718
-0.236665
-0.233156
-0.228733
-0.223832
-0.218574
-0.212902
-0.206759
-0.200114
-0.192944
-0.185226
-0.176941
-0.168079
-0.158636
-0.148624
-0.138068
-0.127012
-0.115518
-0.103674
-0.091593
-0.0794127
-0.0672954
-0.0554241
-0.0439968
-0.0332118
-0.0232915
-0.014258
-0.00689283
0.00113713
-0.250466
-0.243373
-0.24025
-0.236735
-0.232309
-0.227393
-0.222123
-0.216446
-0.210304
-0.203665
-0.196506
-0.188804
-0.18054
-0.171703
-0.162289
-0.15231
-0.141787
-0.130763
-0.119299
-0.107478
-0.0954061
-0.0832146
-0.0710563
-0.0591032
-0.0475386
-0.0365514
-0.0263202
-0.0169605
-0.00881954
-0.000951599
-0.252083
-0.245169
-0.241928
-0.238356
-0.233907
-0.228968
-0.223678
-0.217993
-0.211855
-0.205233
-0.198104
-0.190447
-0.182243
-0.173482
-0.164161
-0.154288
-0.143887
-0.132994
-0.121668
-0.109986
-0.0980463
-0.0859707
-0.0739
-0.0619925
-0.0504145
-0.0393437
-0.0289173
-0.0193282
-0.0105699
-0.00276377
-0.251093
-0.244558
-0.241168
-0.237497
-0.233023
-0.228072
-0.222779
-0.217105
-0.210999
-0.20443
-0.197376
-0.189818
-0.18174
-0.173131
-0.163989
-0.154322
-0.144149
-0.133506
-0.122445
-0.111034
-0.0993647
-0.0875453
-0.0757026
-0.0639793
-0.0525226
-0.0414978
-0.0310033
-0.0212945
-0.0120817
-0.0042795
-0.247021
-0.24107
-0.237537
-0.233752
-0.229273
-0.224353
-0.219101
-0.21349
-0.207472
-0.20102
-0.194114
-0.186738
-0.178876
-0.170518
-0.161663
-0.152317
-0.142496
-0.132233
-0.12157
-0.110571
-0.0993135
-0.0878923
-0.0764188
-0.0650181
-0.0538176
-0.042969
-0.0325353
-0.0228195
-0.0133107
-0.00549693
-0.239664
-0.234465
-0.230842
-0.226972
-0.222541
-0.217721
-0.212587
-0.207115
-0.201268
-0.195022
-0.18836
-0.181265
-0.173724
-0.165729
-0.157277
-0.148371
-0.139028
-0.12927
-0.119137
-0.108679
-0.097963
-0.0870694
-0.0760923
-0.0651392
-0.0543171
-0.0437637
-0.0335108
-0.0238942
-0.0142396
-0.0064214
-0.229246
-0.224881
-0.221262
-0.217382
-0.21308
-0.208449
-0.203524
-0.198286
-0.192706
-0.186765
-0.180445
-0.173734
-0.166619
-0.159091
-0.151147
-0.142789
-0.134028
-0.124883
-0.115383
-0.10557
-0.0954983
-0.0852331
-0.0748519
-0.0644445
-0.0540985
-0.0439372
-0.0339661
-0.0245398
-0.0148727
-0.00706892
-0.21644
-0.212886
-0.209383
-0.205601
-0.201518
-0.197164
-0.192539
-0.187624
-0.1824
-0.176849
-0.170959
-0.164716
-0.158108
-0.151127
-0.143768
-0.136031
-0.127924
-0.119459
-0.110659
-0.101556
-0.09219
-0.0826142
-0.07289
-0.0630905
-0.0532853
-0.0435833
-0.0339688
-0.0248026
-0.015233
-0.00746698
-0.202225
-0.199367
-0.196082
-0.192505
-0.188717
-0.184708
-0.180451
-0.175926
-0.17112
-0.166021
-0.160616
-0.154891
-0.148837
-0.142444
-0.135708
-0.128626
-0.1212
-0.113441
-0.105361
-0.0969855
-0.0883436
-0.0794754
-0.0704283
-0.0612604
-0.0520251
-0.0428178
-0.033606
-0.0247458
-0.0153573
-0.00765248
-0.187623
-0.185305
-0.182301
-0.179008
-0.175565
-0.171936
-0.16808
-0.163977
-0.159619
-0.154995
-0.150093
-0.144902
-0.13941
-0.13361
-0.127493
-0.121058
-0.114302
-0.107231
-0.0998538
-0.0921847
-0.0842458
-0.0760658
-0.0676801
-0.0591336
-0.0504661
-0.0417598
-0.0329699
-0.0244398
-0.0152901
-0.00766776
-0.173467
-0.171533
-0.168835
-0.165867
-0.162781
-0.159534
-0.156078
-0.152397
-0.148483
-0.144326
-0.139915
-0.13524
-0.130288
-0.125052
-0.119524
-0.113698
-0.107571
-0.101143
-0.0944196
-0.0874088
-0.0801248
-0.0725876
-0.0648223
-0.0568629
-0.0487376
-0.0405168
-0.032147
-0.0239532
-0.0150773
-0.00755611
-0.160289
-0.158616
-0.156218
-0.153578
-0.150835
-0.147947
-0.144869
-0.141583
-0.138085
-0.134364
-0.13041
-0.126212
-0.121758
-0.11704
-0.112049
-0.106777
-0.10122
-0.0953759
-0.0892439
-0.0828283
-0.0761373
-0.0691835
-0.061984
-0.0545635
-0.0469412
-0.0391765
-0.0312105
-0.0233466
-0.0147619
-0.00735751
-0.148351
-0.146853
-0.144732
-0.142398
-0.139968
-0.137403
-0.134664
-0.131736
-0.128612
-0.125284
-0.12174
-0.117969
-0.113961
-0.109705
-0.105192
-0.100414
-0.0953642
-0.0900368
-0.0844293
-0.0785418
-0.0723776
-0.0659436
-0.0592505
-0.0523157
-0.0451507
-0.0378059
-0.030219
-0.0226705
-0.0143812
-0.00710605
-0.13774
-0.136365
-0.134486
-0.132425
-0.130269
-0.127986
-0.125544
-0.122929
-0.120134
-0.117149
-0.113965
-0.110569
-0.106951
-0.1031
-0.0990055
-0.0946589
-0.0900515
-0.085176
-0.0800273
-0.0746021
-0.0688999
-0.0629234
-0.0566778
-0.0501747
-0.0434199
-0.0364557
-0.0292184
-0.021966
-0.0139663
-0.006829
-0.128463
-0.127181
-0.12551
-0.123683
-0.121761
-0.119718
-0.117529
-0.115182
-0.112669
-0.109979
-0.107103
-0.104029
-0.100746
-0.0972429
-0.093509
-0.0895337
-0.0853075
-0.0808217
-0.0760688
-0.0710433
-0.0657414
-0.0601624
-0.0543074
-0.0481834
-0.0417915
-0.0351672
-0.028247
-0.0212674
-0.0135434
-0.00654758
-0.120519
-0.119312
-0.117813
-0.116181
-0.114454
-0.112612
-0.110634
-0.108511
-0.106233
-0.10379
-0.101173
-0.0983688
-0.0953675
-0.0921572
-0.0887266
-0.0850645
-0.0811603
-0.077004
-0.0725865
-0.0679003
-0.0629392
-0.0576996
-0.0521796
-0.0463823
-0.0403054
-0.0339789
-0.0273398
-0.0206054
-0.0131356
-0.00627849
-0.113932
-0.112784
-0.111424
-0.109949
-0.108379
-0.106698
-0.104892
-0.102949
-0.100861
-0.098619
-0.0962114
-0.0936273
-0.0908552
-0.0878836
-0.0847007
-0.0812947
-0.0776542
-0.0737682
-0.0696264
-0.0652197
-0.0605401
-0.0555819
-0.0503405
-0.0448163
-0.0390044
-0.0329301
-0.0265318
-0.0200099
-0.0127647
-0.00603573
-0.108765
-0.107662
-0.106409
-0.105053
-0.103603
-0.102045
-0.10037
-0.0985656
-0.0966242
-0.0945358
-0.0922896
-0.0898746
-0.0872794
-0.084492
-0.0815006
-0.0782929
-0.074857
-0.0711811
-0.067254
-0.0630655
-0.0586062
-0.0538687
-0.0488468
-0.0435386
-0.0379373
-0.0320647
-0.0258608
-0.0195115
-0.0124522
-0.00583186
-0.105126
-0.104055
-0.102874
-0.101601
-0.100233
-0.0987611
-0.0971755
-0.0954671
-0.0936269
-0.0916448
-0.0895105
-0.0872128
-0.0847403
-0.082081
-0.0792229
-0.0761534
-0.0728603
-0.0693313
-0.0655546
-0.0615191
-0.0572148
-0.0526329
-0.0477662
-0.0426112
-0.03716
-0.0314317
-0.0253678
-0.019143
-0.0122199
-0.00567674
-0.103189
-0.102134
-0.100992
-0.0997618
-0.0984371
-0.0970098
-0.0954715
-0.0938134
-0.0920262
-0.0901
-0.0880245
-0.0857886
-0.0833808
-0.0807891
-0.0780014
-0.075005
-0.0717875
-0.0683363
-0.0646394
-0.0606853
-0.0564635
-0.0519647
-0.0471809
-0.0421082
-0.0367379
-0.0310874
-0.0251009
-0.0189414
-0.0121001
-0.00557411
-0.220003
-0.210026
-0.213451
-0.218209
-0.225055
-0.233686
-0.241778
-0.249302
-0.256824
-0.263276
-0.268221
-0.271075
-0.271237
-0.268143
-0.261429
-0.25114
-0.237835
-0.222513
-0.20636
-0.190442
-0.175504
-0.161928
-0.149823
-0.139163
-0.129885
-0.121954
-0.115379
-0.110221
-0.106588
-0.104653
-0.219297
-0.218069
-0.222562
-0.227707
-0.234481
-0.241401
-0.249188
-0.256535
-0.263598
-0.269643
-0.274218
-0.276765
-0.276669
-0.273346
-0.266404
-0.255871
-0.242308
-0.226724
-0.210313
-0.19414
-0.178944
-0.165108
-0.152749
-0.141849
-0.132356
-0.12424
-0.117514
-0.112239
-0.108524
-0.106546
-0.223444
-0.226578
-0.231774
-0.236821
-0.24274
-0.249065
-0.255893
-0.262606
-0.269051
-0.274658
-0.278964
-0.281396
-0.281288
-0.277985
-0.271026
-0.260396
-0.246655
-0.230838
-0.214171
-0.197739
-0.182285
-0.168194
-0.155589
-0.144458
-0.134757
-0.126464
-0.119591
-0.114203
-0.11041
-0.108391
-0.230862
-0.235888
-0.240588
-0.245525
-0.251113
-0.257158
-0.263427
-0.269629
-0.275556
-0.280735
-0.284708
-0.286884
-0.286563
-0.283045
-0.275845
-0.264945
-0.250918
-0.234822
-0.217889
-0.201202
-0.1855
-0.171165
-0.158323
-0.146972
-0.137076
-0.128613
-0.121602
-0.116107
-0.112241
-0.110183
-0.239503
-0.245049
-0.249125
-0.253912
-0.259189
-0.264838
-0.270666
-0.276434
-0.281922
-0.286727
-0.290388
-0.292302
-0.291739
-0.28797
-0.280498
-0.269313
-0.255003
-0.238637
-0.221454
-0.204529
-0.188594
-0.174028
-0.160962
-0.149402
-0.139317
-0.130694
-0.12355
-0.117953
-0.114016
-0.111921
-0.248467
-0.253781
-0.257481
-0.262026
-0.266943
-0.27217
-0.277553
-0.282907
-0.288004
-0.29248
-0.295869
-0.297544
-0.296748
-0.292727
-0.28498
-0.273506
-0.258914
-0.242289
-0.224868
-0.207719
-0.191564
-0.17678
-0.163503
-0.151743
-0.14148
-0.132702
-0.125433
-0.119738
-0.115734
-0.113603
-0.257304
-0.262174
-0.265619
-0.269882
-0.274437
-0.27928
-0.284251
-0.289217
-0.293958
-0.29813
-0.301257
-0.302691
-0.301647
-0.297355
-0.289313
-0.277538
-0.262661
-0.24578
-0.228131
-0.210769
-0.194408
-0.179418
-0.16594
-0.153992
-0.143559
-0.134636
-0.127247
-0.12146
-0.117391
-0.115227
-0.265818
-0.2703
-0.273526
-0.277503
-0.281713
-0.286221
-0.29083
-0.295443
-0.299855
-0.303736
-0.306599
-0.307776
-0.30646
-0.301869
-0.293509
-0.281416
-0.266249
-0.249113
-0.231243
-0.213679
-0.19712
-0.181937
-0.168269
-0.156144
-0.145552
-0.136492
-0.12899
-0.123116
-0.118987
-0.116791
-0.274006
-0.278186
-0.281223
-0.284942
-0.288933
-0.293049
-0.297329
-0.30162
-0.305727
-0.309323
-0.311916
-0.312817
-0.311201
-0.306282
-0.297576
-0.285148
-0.26968
-0.252289
-0.234202
-0.216443
-0.199699
-0.184333
-0.170488
-0.158197
-0.147455
-0.138266
-0.130659
-0.124703
-0.120519
-0.118293
-0.281914
-0.285868
-0.288744
-0.292237
-0.295963
-0.2998
-0.303787
-0.307782
-0.311599
-0.314915
-0.317226
-0.317829
-0.315884
-0.310603
-0.301523
-0.288738
-0.272957
-0.255308
-0.237006
-0.21906
-0.20214
-0.186602
-0.172591
-0.160145
-0.149265
-0.139957
-0.132252
-0.126221
-0.121984
-0.119731
-0.289595
-0.293388
-0.296129
-0.299433
-0.302917
-0.306519
-0.310239
-0.313958
-0.317496
-0.32053
-0.322546
-0.322825
-0.320518
-0.314842
-0.305356
-0.29219
-0.276081
-0.258168
-0.239653
-0.221526
-0.204438
-0.188739
-0.174575
-0.161987
-0.150979
-0.141562
-0.133767
-0.127667
-0.123382
-0.121103
-0.297107
-0.300792
-0.30342
-0.306563
-0.309853
-0.313238
-0.316713
-0.320173
-0.323439
-0.326187
-0.32789
-0.327818
-0.325114
-0.319004
-0.309078
-0.295504
-0.279051
-0.260867
-0.24214
-0.223836
-0.20659
-0.190742
-0.176436
-0.163718
-0.152594
-0.143077
-0.135201
-0.129038
-0.124709
-0.122408
-0.304506
-0.308124
-0.310658
-0.313663
-0.316792
-0.319984
-0.323234
-0.326447
-0.329446
-0.3319
-0.333272
-0.332818
-0.329678
-0.323094
-0.312689
-0.298679
-0.281865
-0.263401
-0.244461
-0.225986
-0.20859
-0.192605
-0.178171
-0.165334
-0.154107
-0.144501
-0.136551
-0.130332
-0.125965
-0.123643
-0.311846
-0.31543
-0.31789
-0.320812
-0.32377
-0.326785
-0.329827
-0.332803
-0.335534
-0.337683
-0.338701
-0.337832
-0.334215
-0.327112
-0.31619
-0.301713
-0.284518
-0.265765
-0.246611
-0.22797
-0.210435
-0.194324
-0.179775
-0.166834
-0.155514
-0.14583
-0.137817
-0.131549
-0.127148
-0.124808
-0.319174
-0.322749
-0.325151
-0.327978
-0.330813
-0.333669
-0.336514
-0.339259
-0.34172
-0.34355
-0.344188
-0.342866
-0.338726
-0.331056
-0.319574
-0.304598
-0.287003
-0.267953
-0.248585
-0.229784
-0.212119
-0.195895
-0.181245
-0.168214
-0.156815
-0.147063
-0.138995
-0.132685
-0.128255
-0.1259
-0.326536
-0.330122
-0.33248
-0.335227
-0.337956
-0.340664
-0.343321
-0.345835
-0.348018
-0.349512
-0.34974
-0.347922
-0.343208
-0.334921
-0.322833
-0.307326
-0.289311
-0.269956
-0.250375
-0.231421
-0.213638
-0.197315
-0.182578
-0.16947
-0.158005
-0.148198
-0.140084
-0.133739
-0.129286
-0.126918
-0.333974
-0.337588
-0.339913
-0.342599
-0.34523
-0.347796
-0.350268
-0.35255
-0.354444
-0.355579
-0.355361
-0.353
-0.347657
-0.338696
-0.325956
-0.309885
-0.291431
-0.271765
-0.251973
-0.232875
-0.214987
-0.198579
-0.183771
-0.170601
-0.159083
-0.149232
-0.141083
-0.13471
-0.130238
-0.12786
-0.341533
-0.345187
-0.3475
-0.350125
-0.352664
-0.355093
-0.357379
-0.359422
-0.361011
-0.361759
-0.361053
-0.358094
-0.35206
-0.342366
-0.328926
-0.312259
-0.293351
-0.27337
-0.253373
-0.234141
-0.216161
-0.199684
-0.18482
-0.171604
-0.160047
-0.150163
-0.141988
-0.135596
-0.13111
-0.128725
-0.349255
-0.35296
-0.355259
-0.357838
-0.360289
-0.362582
-0.364678
-0.366469
-0.367731
-0.368057
-0.366813
-0.363194
-0.356401
-0.345912
-0.331724
-0.31443
-0.295056
-0.274759
-0.254564
-0.235212
-0.217155
-0.200627
-0.185724
-0.172478
-0.160895
-0.150991
-0.1428
-0.136396
-0.131902
-0.129512
-0.357173
-0.36093
-0.363239
-0.365775
-0.368139
-0.370292
-0.372188
-0.373709
-0.374615
-0.374475
-0.372634
-0.368284
-0.360659
-0.349307
-0.334324
-0.316379
-0.296528
-0.275921
-0.255539
-0.236082
-0.217967
-0.201404
-0.18648
-0.173219
-0.161626
-0.151713
-0.143517
-0.137108
-0.132611
-0.13022
-0.365313
-0.369112
-0.371476
-0.373977
-0.376249
-0.37825
-0.37993
-0.381156
-0.381669
-0.381009
-0.378502
-0.37334
-0.364801
-0.352522
-0.336699
-0.31808
-0.297751
-0.276841
-0.256289
-0.236745
-0.218591
-0.202014
-0.187086
-0.173826
-0.162237
-0.152329
-0.144136
-0.137731
-0.133237
-0.130847
-0.373794
-0.377845
-0.380028
-0.38248
-0.384652
-0.386488
-0.387928
-0.388825
-0.388895
-0.387651
-0.384395
-0.37833
-0.368792
-0.355518
-0.338815
-0.319509
-0.298706
-0.277509
-0.256805
-0.237196
-0.219024
-0.202453
-0.187541
-0.174299
-0.162729
-0.152837
-0.144658
-0.138265
-0.133778
-0.131392
-0.382606
-0.386667
-0.388909
-0.391319
-0.393381
-0.395031
-0.396201
-0.396724
-0.39629
-0.394381
-0.390281
-0.383212
-0.372584
-0.358251
-0.340636
-0.320637
-0.299373
-0.27791
-0.25708
-0.23743
-0.219264
-0.20272
-0.187842
-0.174637
-0.163099
-0.153236
-0.145082
-0.138707
-0.134234
-0.131855
-0.39181
-0.395948
-0.398201
-0.400549
-0.402478
-0.403911
-0.404766
-0.404857
-0.403842
-0.401171
-0.396115
-0.387931
-0.376122
-0.360672
-0.342123
-0.321436
-0.299733
-0.278032
-0.257106
-0.237443
-0.219308
-0.202813
-0.18799
-0.174837
-0.163347
-0.153526
-0.145406
-0.139058
-0.134603
-0.132234
-0.401475
-0.405706
-0.40795
-0.410215
-0.411981
-0.413153
-0.413635
-0.413219
-0.411527
-0.407978
-0.401839
-0.392422
-0.379342
-0.362726
-0.343233
-0.321878
-0.299767
-0.277866
-0.256876
-0.237232
-0.219155
-0.202733
-0.187985
-0.174902
-0.163474
-0.153706
-0.14563
-0.139316
-0.134885
-0.132529
-0.411656
-0.415987
-0.41821
-0.420366
-0.421927
-0.42278
-0.422813
-0.421793
-0.419305
-0.41474
-0.407377
-0.396603
-0.382169
-0.364353
-0.343924
-0.321933
-0.299459
-0.277399
-0.256387
-0.236794
-0.218803
-0.202478
-0.187825
-0.174829
-0.163478
-0.153776
-0.145753
-0.139481
-0.13508
-0.132739
-0.422443
-0.426871
-0.429051
-0.431058
-0.432354
-0.432807
-0.432292
-0.430545
-0.427117
-0.421376
-0.412633
-0.400379
-0.384521
-0.365491
-0.344152
-0.321575
-0.298791
-0.276626
-0.255633
-0.236128
-0.218253
-0.202049
-0.187512
-0.17462
-0.16336
-0.153735
-0.145776
-0.139553
-0.135186
-0.132863
-0.433939
-0.438443
-0.440547
-0.442346
-0.443294
-0.443241
-0.442047
-0.439419
-0.434874
-0.427774
-0.417489
-0.403641
-0.38631
-0.366075
-0.343876
-0.320779
-0.297753
-0.275539
-0.254614
-0.235235
-0.217506
-0.201448
-0.187046
-0.174276
-0.163121
-0.153585
-0.145698
-0.139532
-0.135204
-0.132901
-0.446239
-0.4508
-0.452781
-0.454286
-0.454769
-0.454066
-0.452025
-0.448324
-0.442456
-0.433797
-0.421806
-0.406268
-0.387443
-0.366045
-0.34306
-0.319525
-0.296333
-0.274135
-0.253329
-0.234115
-0.216563
-0.200676
-0.186429
-0.173796
-0.16276
-0.153324
-0.14552
-0.139416
-0.135132
-0.132853
-0.459476
-0.464063
-0.465842
-0.466928
-0.466783
-0.465238
-0.462135
-0.457129
-0.449699
-0.439267
-0.425421
-0.40813
-0.38783
-0.365342
-0.341671
-0.317799
-0.294528
-0.272415
-0.25178
-0.232771
-0.215427
-0.199734
-0.185663
-0.173184
-0.16228
-0.152955
-0.145241
-0.139207
-0.134972
-0.132717
-0.473817
-0.478373
-0.479827
-0.480306
-0.479306
-0.476666
-0.47223
-0.465641
-0.456388
-0.443976
-0.428155
-0.409093
-0.387383
-0.363917
-0.339685
-0.315592
-0.292337
-0.270381
-0.249972
-0.231207
-0.214101
-0.198627
-0.18475
-0.17244
-0.16168
-0.152476
-0.144861
-0.138904
-0.134721
-0.132495
-0.489475
-0.493899
-0.494826
-0.49442
-0.492247
-0.488183
-0.482086
-0.473598
-0.46225
-0.447675
-0.429813
-0.409022
-0.38602
-0.361728
-0.337084
-0.312898
-0.28976
-0.268036
-0.247907
-0.229427
-0.212588
-0.197356
-0.183691
-0.171565
-0.160962
-0.15189
-0.144382
-0.138507
-0.134382
-0.132186
-0.506737
-0.510835
-0.510901
-0.509197
-0.505424
-0.499523
-0.491378
-0.480652
-0.46696
-0.450095
-0.430201
-0.407797
-0.383677
-0.358746
-0.333861
-0.30972
-0.286803
-0.265388
-0.245591
-0.227435
-0.210893
-0.195924
-0.182489
-0.170561
-0.160127
-0.151196
-0.143803
-0.138017
-0.133953
-0.131789
-0.526022
-0.529391
-0.528047
-0.524444
-0.518512
-0.510279
-0.499664
-0.486378
-0.470154
-0.45097
-0.429153
-0.405335
-0.380328
-0.354977
-0.330036
-0.306083
-0.283492
-0.262457
-0.243044
-0.225247
-0.209027
-0.19434
-0.181151
-0.169434
-0.159179
-0.150398
-0.143126
-0.137434
-0.133435
-0.131306
-0.547983
-0.549739
-0.546093
-0.539739
-0.530946
-0.51983
-0.506335
-0.490245
-0.471432
-0.45005
-0.426551
-0.401611
-0.376003
-0.350479
-0.325675
-0.30205
-0.279881
-0.259291
-0.240303
-0.222892
-0.207012
-0.192623
-0.17969
-0.168193
-0.158125
-0.1495
-0.142355
-0.13676
-0.13283
-0.130736
-0.57343
-0.571676
-0.564353
-0.554125
-0.541666
-0.527153
-0.510504
-0.491563
-0.470331
-0.447068
-0.422275
-0.396595
-0.370718
-0.345286
-0.320813
-0.297652
-0.275992
-0.255902
-0.237375
-0.220372
-0.204851
-0.190771
-0.178105
-0.166837
-0.156963
-0.1485
-0.141488
-0.135995
-0.132136
-0.13008
-0.602843
-0.593922
-0.581074
-0.565893
-0.549144
-0.531012
-0.511273
-0.489752
-0.466506
-0.441825
-0.416181
-0.390148
-0.364319
-0.339224
-0.315268
-0.292706
-0.271655
-0.252137
-0.234125
-0.217576
-0.202449
-0.18871
-0.176338
-0.165321
-0.155662
-0.147379
-0.140512
-0.135133
-0.131352
-0.129337
-0.637948
-0.615367
-0.594616
-0.574056
-0.552994
-0.531439
-0.508958
-0.485257
-0.460378
-0.434604
-0.408374
-0.382204
-0.356611
-0.332024
-0.308743
-0.286922
-0.266603
-0.247764
-0.230359
-0.214342
-0.199676
-0.186338
-0.174311
-0.16359
-0.154183
-0.146109
-0.139413
-0.134165
-0.130475
-0.128508
-0.683448
-0.638108
-0.605401
-0.579062
-0.553945
-0.529221
-0.504307
-0.478777
-0.452613
-0.426066
-0.399537
-0.373487
-0.348351
-0.324458
-0.30199
-0.281004
-0.261473
-0.243344
-0.226558
-0.211075
-0.196869
-0.183925
-0.172237
-0.161805
-0.152643
-0.144773
-0.138241
-0.13312
-0.129518
-0.127597
-0.695076
-0.632224
-0.59281
-0.56415
-0.538321
-0.513531
-0.489097
-0.464551
-0.439748
-0.414799
-0.389966
-0.365587
-0.341983
-0.319402
-0.297988
-0.277803
-0.258858
-0.241145
-0.224657
-0.209392
-0.195347
-0.182528
-0.170938
-0.160585
-0.151487
-0.143671
-0.137183
-0.132096
-0.128517
-0.12661
-0.476912
-0.488165
-0.487245
-0.481245
-0.47195
-0.460168
-0.446492
-0.431193
-0.414434
-0.396406
-0.377358
-0.357592
-0.337442
-0.317247
-0.297324
-0.277948
-0.259346
-0.24169
-0.2251
-0.209655
-0.195401
-0.182369
-0.170576
-0.160039
-0.150778
-0.142823
-0.136223
-0.131049
-0.127412
-0.125475
-0.455625
-0.470825
-0.475292
-0.472805
-0.466015
-0.45594
-0.443285
-0.428518
-0.411966
-0.393938
-0.374783
-0.35489
-0.334658
-0.314458
-0.29461
-0.275367
-0.256926
-0.239434
-0.222993
-0.20768
-0.193539
-0.180606
-0.1689
-0.15844
-0.149248
-0.141356
-0.134809
-0.129678
-0.126073
-0.124153
-0.443879
-0.454873
-0.458954
-0.458181
-0.45359
-0.445602
-0.434714
-0.421364
-0.405919
-0.388743
-0.370236
-0.350838
-0.330992
-0.311107
-0.291527
-0.272521
-0.254291
-0.236983
-0.220704
-0.205529
-0.191509
-0.178682
-0.167071
-0.156697
-0.147584
-0.139761
-0.133275
-0.128194
-0.124625
-0.122725
-0.428698
-0.437036
-0.441089
-0.441901
-0.439453
-0.43368
-0.424807
-0.413145
-0.399035
-0.382873
-0.365119
-0.346279
-0.32686
-0.307323
-0.288043
-0.269307
-0.25132
-0.234231
-0.218144
-0.203138
-0.189265
-0.176568
-0.165072
-0.154801
-0.14578
-0.13804
-0.131623
-0.126599
-0.12307
-0.121192
-0.415068
-0.421815
-0.425582
-0.427066
-0.425879
-0.42167
-0.414411
-0.404236
-0.391402
-0.376281
-0.359349
-0.341151
-0.32224
-0.303118
-0.284191
-0.265763
-0.248051
-0.231205
-0.215334
-0.200518
-0.186813
-0.174265
-0.162902
-0.152751
-0.143837
-0.13619
-0.129853
-0.124893
-0.12141
-0.119557
-0.402745
-0.408398
-0.41174
-0.413424
-0.412957
-0.409836
-0.403838
-0.394936
-0.383271
-0.36916
-0.353064
-0.335546
-0.317187
-0.298524
-0.279988
-0.2619
-0.24449
-0.227912
-0.212279
-0.197674
-0.184158
-0.171779
-0.160567
-0.15055
-0.141757
-0.134215
-0.127967
-0.123079
-0.119648
-0.117822
-0.391292
-0.39616
-0.399113
-0.400813
-0.400755
-0.398378
-0.39334
-0.385483
-0.37484
-0.361661
-0.346372
-0.329537
-0.311751
-0.293573
-0.275456
-0.257735
-0.240651
-0.224362
-0.208988
-0.194614
-0.181305
-0.169113
-0.158068
-0.148202
-0.139542
-0.132117
-0.125969
-0.121159
-0.117785
-0.11599
-0.380605
-0.384882
-0.387497
-0.389123
-0.38928
-0.387398
-0.383068
-0.376043
-0.366264
-0.353911
-0.339373
-0.323197
-0.305982
-0.288301
-0.27062
-0.253283
-0.236544
-0.220563
-0.205467
-0.191343
-0.178259
-0.166272
-0.155411
-0.145709
-0.137197
-0.1299
-0.12386
-0.119136
-0.115824
-0.114062
-0.37061
-0.374417
-0.376734
-0.378243
-0.378491
-0.376925
-0.373107
-0.366729
-0.357656
-0.346009
-0.332143
-0.316588
-0.299928
-0.282744
-0.265509
-0.248567
-0.232184
-0.216526
-0.201726
-0.187867
-0.175027
-0.163261
-0.152598
-0.143076
-0.134724
-0.127567
-0.121644
-0.117014
-0.113768
-0.112042
-0.361239
-0.364653
-0.366704
-0.368075
-0.368336
-0.366963
-0.363501
-0.357603
-0.349085
-0.338023
-0.324744
-0.309761
-0.293637
-0.276945
-0.260152
-0.243607
-0.227589
-0.212264
-0.197772
-0.184193
-0.171612
-0.160084
-0.149635
-0.140306
-0.132127
-0.12512
-0.119325
-0.114795
-0.11162
-0.109933
-0.352432
-0.355507
-0.357316
-0.358539
-0.358762
-0.35749
-0.354254
-0.348686
-0.340584
-0.330035
-0.317239
-0.302765
-0.28715
-0.270929
-0.254561
-0.238418
-0.222782
-0.207793
-0.193619
-0.180327
-0.168021
-0.156746
-0.146525
-0.137404
-0.12941
-0.122564
-0.116904
-0.112482
-0.109384
-0.107737
-0.344144
-0.346918
-0.348503
-0.349573
-0.349716
-0.348461
-0.345327
-0.340025
-0.332216
-0.322167
-0.309742
-0.295672
-0.280472
-0.264671
-0.248712
-0.232986
-0.217767
-0.203119
-0.189279
-0.176284
-0.164261
-0.153253
-0.143273
-0.134373
-0.126577
-0.119903
-0.114387
-0.110078
-0.107062
-0.105459
-0.336335
-0.338838
-0.340211
-0.341117
-0.34113
-0.339845
-0.336723
-0.331786
-0.324132
-0.314257
-0.302188
-0.288472
-0.27365
-0.258243
-0.242689
-0.227354
-0.212482
-0.198219
-0.18475
-0.172073
-0.160345
-0.149614
-0.139883
-0.131216
-0.123631
-0.117139
-0.111776
-0.107588
-0.104659
-0.103101
-0.328976
-0.33123
-0.332392
-0.333099
-0.332992
-0.33174
-0.328678
-0.323626
-0.316159
-0.306428
-0.294614
-0.281189
-0.266699
-0.251655
-0.236484
-0.22153
-0.207024
-0.193131
-0.179984
-0.167685
-0.156269
-0.145839
-0.136363
-0.127941
-0.120577
-0.114277
-0.109076
-0.105015
-0.102177
-0.100668
-0.322045
-0.324055
-0.324997
-0.325499
-0.325489
-0.323971
-0.32085
-0.315734
-0.30833
-0.298683
-0.287033
-0.273837
-0.259631
-0.244915
-0.230105
-0.21552
-0.201384
-0.187859
-0.175065
-0.163104
-0.152012
-0.141925
-0.132726
-0.124554
-0.11742
-0.111321
-0.10629
-0.102362
-0.09962
-0.0981618
-0.315537
-0.317284
-0.318072
-0.318539
-0.318164
-0.316536
-0.313306
-0.30809
-0.300648
-0.291012
-0.27945
-0.266421
-0.252452
-0.238032
-0.223558
-0.209331
-0.195563
-0.182409
-0.169979
-0.15837
-0.147624
-0.13783
-0.128964
-0.121061
-0.114166
-0.108277
-0.103422
-0.0996339
-0.0969923
-0.0955872
-0.30946
-0.310947
-0.311604
-0.311819
-0.311229
-0.30944
-0.306041
-0.300665
-0.293106
-0.283407
-0.271864
-0.258942
-0.245166
-0.231009
-0.216849
-0.202969
-0.189565
-0.176784
-0.164728
-0.153482
-0.143092
-0.13362
-0.125066
-0.117455
-0.110819
-0.105151
-0.100477
-0.0968341
-0.0942976
-0.0929477
-0.303776
-0.305035
-0.305467
-0.305463
-0.304664
-0.30266
-0.299037
-0.293439
-0.285687
-0.275854
-0.264263
-0.251394
-0.237768
-0.223844
-0.209979
-0.196435
-0.183395
-0.170991
-0.159315
-0.148444
-0.13842
-0.129288
-0.121059
-0.113743
-0.107368
-0.101943
-0.0974637
-0.0939682
-0.0915401
-0.0902473
-0.2985
-0.299479
-0.299705
-0.299478
-0.298439
-0.296176
-0.292274
-0.286389
-0.278372
-0.268334
-0.256632
-0.243766
-0.230251
-0.216533
-0.202947
-0.189732
-0.177054
-0.165031
-0.153745
-0.14326
-0.133614
-0.124838
-0.116945
-0.109938
-0.103837
-0.0986389
-0.0943857
-0.0910405
-0.0887247
-0.0874906
-0.293634
-0.294286
-0.294317
-0.293847
-0.292537
-0.289971
-0.28573
-0.27949
-0.271134
-0.260823
-0.248952
-0.23604
-0.222605
-0.209069
-0.195748
-0.182857
-0.170543
-0.158908
-0.148022
-0.137935
-0.128678
-0.120273
-0.112727
-0.106041
-0.100226
-0.0952766
-0.0912269
-0.0880518
-0.0858554
-0.0846818
-0.289153
-0.289486
-0.289297
-0.288563
-0.286946
-0.284025
-0.279382
-0.272712
-0.263943
-0.25329
-0.241194
-0.228198
-0.214811
-0.201442
-0.188376
-0.175808
-0.163862
-0.152624
-0.142148
-0.132472
-0.123618
-0.115597
-0.108412
-0.102058
-0.0965376
-0.0918474
-0.0880096
-0.0850097
-0.0829314
-0.081824
-0.285074
-0.285086
-0.284647
-0.283618
-0.281652
-0.278319
-0.273201
-0.266022
-0.256762
-0.245701
-0.233329
-0.220211
-0.206852
-0.193636
-0.180823
-0.16858
-0.15701
-0.146179
-0.136126
-0.126876
-0.118439
-0.110816
-0.104004
-0.0979926
-0.0927784
-0.0883551
-0.0847374
-0.081917
-0.0799609
-0.0789208
-0.281418
-0.281097
-0.280372
-0.279013
-0.276645
-0.27283
-0.267156
-0.259379
-0.249548
-0.238013
-0.225319
-0.212051
-0.198704
-0.185635
-0.173077
-0.161166
-0.149984
-0.139574
-0.12996
-0.121151
-0.113146
-0.105935
-0.0995092
-0.0938514
-0.088953
-0.0848048
-0.0814146
-0.0787779
-0.0769482
-0.0759768
-0.27821
-0.277538
-0.276483
-0.274744
-0.271912
-0.267533
-0.261207
-0.252736
-0.242248
-0.230176
-0.21712
-0.203681
-0.190338
-0.17742
-0.165125
-0.15356
-0.142781
-0.132811
-0.123653
-0.115302
-0.107743
-0.10096
-0.0949324
-0.0896396
-0.0850666
-0.0812014
-0.0780458
-0.075597
-0.0738975
-0.0729964
-0.275485
-0.274435
-0.272995
-0.270815
-0.267438
-0.262397
-0.255307
-0.246035
-0.234803
-0.222133
-0.208682
-0.19506
-0.181725
-0.168969
-0.156953
-0.145755
-0.1354
-0.125888
-0.117207
-0.109332
-0.102237
-0.0958958
-0.0902796
-0.0853626
-0.0811245
-0.07755
-0.0746357
-0.0723789
-0.0708133
-0.069984
-0.273288
-0.271822
-0.269927
-0.267227
-0.263204
-0.25738
-0.249397
-0.239205
-0.227138
-0.213816
-0.199948
-0.186143
-0.172829
-0.160257
-0.148547
-0.13774
-0.127835
-0.118808
-0.110625
-0.103246
-0.0966332
-0.0907484
-0.0855566
-0.0810262
-0.0771321
-0.0738557
-0.071189
-0.0691283
-0.0676998
-0.0669438
-0.271685
-0.269737
-0.267302
-0.26398
-0.259186
-0.252429
-0.243402
-0.232159
-0.219166
-0.205148
-0.190853
-0.17688
-0.163614
-0.151258
-0.139888
-0.129508
-0.120085
-0.111571
-0.10391
-0.0970494
-0.0909364
-0.0855238
-0.0807694
-0.0766362
-0.073095
-0.0701237
-0.0677105
-0.0658499
-0.0645615
-0.0638803
-0.270771