/*--------------------------------*- C++ -*----------------------------------*\
  =========                 |
  \\      /  F ield         | OpenFOAM: The Open Source CFD Toolbox
   \\    /   O peration     | Website:  https://openfoam.org
    \\  /    A nd           | Version:  7
     \\/     M anipulation  |
\*---------------------------------------------------------------------------*/
FoamFile
{
    version     2.0;
    format      ascii;
    class       volScalarField;
    location    "4.3";
    object      p;
}
// * * * * * * * * * * * * * * * * * * * * * * * * * * * * * * * * * * * * * //

dimensions      [1 -1 -2 0 0 0 0];

internalField   nonuniform List<scalar> 
8400
(
0.145467
0.239647
0.331425
0.425026
0.497947
0.568612
0.628727
0.667002
0.715558
0.733535
0.738612
0.756606
0.764301
0.77823
0.803794
0.822482
0.829977
0.847048
0.847365
0.827787
0.811285
0.816752
0.827444
0.837292
0.841239
0.842858
0.840164
0.836255
0.828557
0.818623
0.0541013
0.0552335
0.0612622
0.0803384
0.120514
0.173084
0.247909
0.346223
0.439158
0.542087
0.638198
0.728546
0.798524
0.863647
0.895625
0.903805
0.899468
0.877634
0.839283
0.790442
0.770703
0.779905
0.80669
0.837421
0.867706
0.876661
0.861675
0.848665
0.844044
0.831809
0.0574482
0.0569355
0.0563522
0.0560635
0.0556463
0.0552812
0.0546939
0.0560568
0.0635889
0.0906386
0.14399
0.216144
0.319788
0.436667
0.551312
0.634977
0.716494
0.784438
0.804702
0.807145
0.818572
0.828424
0.828581
0.827715
0.844809
0.853789
0.852001
0.849132
0.84662
0.833517
0.0530024
0.0529401
0.0532659
0.0536322
0.0536755
0.0536345
0.0532614
0.0525371
0.0513092
0.0506719
0.0506772
0.0507198
0.0509025
0.0570102
0.0834515
0.140027
0.232684
0.369827
0.533529
0.6879
0.77495
0.825212
0.838288
0.838547
0.856944
0.84778
0.859888
0.872387
0.864251
0.842775
0.0499386
0.0504762
0.0514419
0.052879
0.0530881
0.0529738
0.0525172
0.0516793
0.0506721
0.0509105
0.0529217
0.0535984
0.0534465
0.0545619
0.0583096
0.0628777
0.0657011
0.0661886
0.0910212
0.169627
0.29816
0.449664
0.5944
0.71724
0.75872
0.793036
0.84581
0.868426
0.854562
0.831833
0.0515141
0.0529115
0.0544476
0.0554066
0.0556714
0.0549935
0.0532888
0.0530681
0.0545543
0.0582009
0.0637326
0.0684943
0.0707808
0.0719352
0.0730057
0.0765534
0.0808275
0.0811132
0.0812638
0.0820157
0.0845509
0.0968034
0.14588
0.253535
0.390591
0.543334
0.654164
0.707169
0.750124
0.805059
0.058082
0.0597388
0.0616381
0.064546
0.067775
0.0686079
0.0691873
0.0701169
0.0720354
0.0744426
0.0775665
0.0827027
0.0853518
0.0847851
0.0842872
0.0852744
0.0889839
0.0914307
0.0925769
0.0967033
0.104645
0.113671
0.1218
0.120707
0.121284
0.149081
0.21648
0.335034
0.462006
0.644911
0.0734835
0.0745475
0.0762915
0.0791547
0.0836084
0.0886163
0.091014
0.0905938
0.0883142
0.0876252
0.0884901
0.0934755
0.0964407
0.0963333
0.0971199
0.100339
0.107719
0.115941
0.122889
0.12853
0.13134
0.133201
0.135446
0.137074
0.138453
0.141281
0.142993
0.144817
0.153412
0.249517
0.0973803
0.0974778
0.0977634
0.0989638
0.102763
0.109332
0.111674
0.110487
0.107986
0.108479
0.112277
0.120322
0.127759
0.131854
0.134495
0.137954
0.142554
0.145162
0.146507
0.147683
0.147344
0.144228
0.143915
0.146287
0.152676
0.159767
0.165313
0.168466
0.168993
0.168008
0.131268
0.131211
0.131384
0.131762
0.133469
0.138986
0.146164
0.14897
0.149473
0.149719
0.150864
0.154124
0.159216
0.161864
0.16161
0.161529
0.161688
0.161409
0.15989
0.160298
0.163331
0.167808
0.172379
0.177611
0.183567
0.188373
0.188616
0.18746
0.186098
0.187184
0.179013
0.175721
0.174138
0.174305
0.175531
0.178377
0.184653
0.188907
0.188967
0.186244
0.182532
0.182081
0.18394
0.187327
0.188962
0.18991
0.191833
0.195367
0.199637
0.204021
0.208886
0.214494
0.218637
0.219883
0.219236
0.217054
0.215235
0.213551
0.214408
0.217234
0.239982
0.238115
0.229237
0.224867
0.224929
0.2267
0.231841
0.238012
0.239789
0.238572
0.235775
0.235813
0.238039
0.240944
0.242725
0.243784
0.245513
0.248542
0.249313
0.24911
0.24821
0.247059
0.245405
0.244005
0.243292
0.242355
0.242969
0.244714
0.246544
0.246127
0.310867
0.311505
0.306863
0.29519
0.290231
0.290396
0.293152
0.298395
0.301136
0.300665
0.296053
0.292495
0.293138
0.293613
0.292577
0.289994
0.288389
0.287646
0.286635
0.284178
0.282425
0.28174
0.281785
0.282244
0.283148
0.285243
0.287177
0.286626
0.283926
0.277369
0.399711
0.400512
0.399538
0.390298
0.375136
0.368985
0.369457
0.374255
0.377369
0.376118
0.37034
0.364959
0.365201
0.364784
0.359795
0.354786
0.354578
0.35467
0.353897
0.350967
0.348789
0.347614
0.346446
0.344522
0.34156
0.337034
0.331302
0.324053
0.317168
0.309339
0.510118
0.51095
0.510538
0.506633
0.487875
0.469407
0.467411
0.472871
0.474994
0.472468
0.462062
0.451525
0.45146
0.451296
0.445261
0.433949
0.429976
0.428222
0.425158
0.419948
0.413158
0.406989
0.401991
0.397781
0.392542
0.38647
0.380239
0.372968
0.368683
0.363165
0.647195
0.649323
0.648846
0.645402
0.63038
0.603962
0.58879
0.589074
0.592896
0.59046
0.577217
0.55792
0.555887
0.555711
0.548764
0.531552
0.522481
0.518366
0.512829
0.505382
0.496553
0.487583
0.47954
0.472412
0.464222
0.455402
0.446302
0.437575
0.42912
0.413859
0.812748
0.820155
0.819552
0.809326
0.789373
0.76285
0.743187
0.733758
0.735012
0.732728
0.716333
0.687527
0.681917
0.681235
0.672902
0.650038
0.634429
0.626877
0.618722
0.607266
0.594521
0.580983
0.568449
0.556963
0.545695
0.531766
0.51678
0.502384
0.489536
0.469371
1.01717
1.01985
1.01658
1.00203
0.980481
0.952079
0.922252
0.903973
0.904934
0.90231
0.882158
0.844663
0.832046
0.829675
0.818848
0.790674
0.767797
0.754924
0.743007
0.727391
0.709279
0.690372
0.672562
0.656203
0.638866
0.620197
0.601513
0.582469
0.567336
0.543876
1.25653
1.25207
1.2457
1.23243
1.21087
1.18047
1.1413
1.10899
1.10567
1.10035
1.07666
1.03013
1.00954
1.0027
0.986488
0.954331
0.925063
0.903082
0.884219
0.864515
0.841288
0.816765
0.792629
0.77034
0.747705
0.722723
0.698135
0.674651
0.65448
0.622129
1.55435
1.53201
1.51216
1.49576
1.47853
1.44724
1.40475
1.37836
1.35793
1.33636
1.30853
1.26072
1.2278
1.20783
1.18007
1.14171
1.10908
1.07923
1.04929
1.02167
0.991658
0.960162
0.930159
0.90027
0.871571
0.841287
0.809877
0.780444
0.755993
0.716285
1.73246
1.725
1.71607
1.70688
1.69899
1.6872
1.6673
1.64612
1.62228
1.59555
1.56953
1.53324
1.49266
1.46002
1.42448
1.38142
1.33749
1.29616
1.25353
1.21248
1.17319
1.13146
1.09154
1.053
1.01397
0.976316
0.939449
0.90194
0.871112
0.82259
1.73137
1.72783
1.72972
1.73211
1.73266
1.73192
1.72648
1.72428
1.72336
1.72159
1.71573
1.70464
1.69136
1.67483
1.65076
1.62118
1.58844
1.5501
1.5055
1.45557
1.40372
1.35072
1.29661
1.24376
1.19118
1.13918
1.09102
1.044
1.00439
0.943595
1.61696
1.61372
1.61615
1.63367
1.65377
1.66886
1.68516
1.69485
1.69168
1.69521
1.70482
1.70477
1.69987
1.69828
1.6989
1.69827
1.69473
1.6859
1.67249
1.65339
1.62635
1.58959
1.54148
1.484
1.42097
1.35501
1.28945
1.22522
1.17137
1.09004
1.27612
1.29275
1.30811
1.32983
1.36261
1.39029
1.42032
1.45833
1.48531
1.50841
1.5379
1.5831
1.60009
1.6107
1.63201
1.65491
1.66863
1.67364
1.67172
1.67114
1.67015
1.66626
1.65678
1.63944
1.61209
1.57145
1.51769
1.45226
1.38837
1.28302
1.03508
1.04224
1.04922
1.05647
1.06672
1.0797
1.09595
1.11688
1.14087
1.16594
1.19301
1.22915
1.27368
1.31261
1.35463
1.40441
1.45206
1.49864
1.53717
1.57246
1.60379
1.62116
1.6346
1.6363
1.63227
1.6232
1.60822
1.58426
1.55605
1.48337
1.00098
1.00125
1.00161
1.00205
1.00267
1.00356
1.00484
1.00676
1.00949
1.01312
1.01789
1.02452
1.03509
1.04875
1.06622
1.08964
1.12114
1.15883
1.20671
1.25877
1.31897
1.38137
1.43885
1.49691
1.53592
1.56262
1.57963
1.57733
1.56799
1.54222
1.00001
1.00001
1.00001
1.00002
1.00003
1.00004
1.00006
1.00008
1.00013
1.00021
1.00033
1.00053
1.0009
1.00152
1.00256
1.00426
1.00734
1.01231
1.02047
1.03362
1.05314
1.0829
1.12288
1.17494
1.23958
1.30662
1.37319
1.43194
1.47393
1.50037
1
1
1
1
1
1
1
1
1
1
1
1
1.00001
1.00001
1.00002
1.00004
1.00009
1.00019
1.00041
1.00087
1.00184
1.00388
1.00798
1.01583
1.03025
1.05426
1.09073
1.14178
1.19838
1.29426
1
1
1
1
1
1
1
1
1
1
1
1
1
1
1
1
1
1
1
1.00001
1.00002
1.00004
1.00011
1.00029
1.00079
1.00206
1.00504
1.01184
1.02328
1.06457
1
1
1
1
1
1
1
1
1
1
1
1
1
1
1
1
1
1
1
1
1
1
1
1
1.00001
1.00002
1.00006
1.00022
1.0006
1.00383
0.0539502
0.0541072
0.057947
0.0532425
0.0495095
0.0501969
0.056666
0.0728188
0.0978449
0.13269
0.179425
0.238836
0.309137
0.397074
0.506649
0.642558
0.810894
1.01908
1.28227
1.58896
1.74138
1.73667
1.60677
1.23805
1.02682
1.00074
1.00001
1
1
1
0.0540416
0.0545611
0.0580924
0.0524265
0.0489193
0.0500268
0.0585934
0.0793259
0.106269
0.141251
0.186852
0.246304
0.318704
0.409639
0.52994
0.684723
0.880382
1.10854
1.38262
1.6561
1.75419
1.73649
1.53154
1.16978
1.01443
1.00027
1
1
1
1
0.0547078
0.0548916
0.057813
0.052085
0.0489494
0.0505789
0.062279
0.0835744
0.108164
0.142424
0.189055
0.24761
0.32442
0.427795
0.571868
0.748955
0.952498
1.18634
1.4536
1.69581
1.7578
1.71287
1.45935
1.1258
1.00859
1.00013
1
1
1
1
0.0551803
0.0553837
0.0578025
0.0518152
0.049102
0.052664
0.0655508
0.0854072
0.10935
0.142996
0.193215
0.258756
0.357205
0.483312
0.629501
0.79909
0.996769
1.23218
1.50286
1.7226
1.75848
1.6821
1.40758
1.09261
1.00485
1.00006
1
1
1
1
0.0556998
0.0559636
0.0580276
0.0517486
0.0493066
0.0539491
0.0662542
0.0859966
0.111922
0.15317
0.213025
0.297556
0.396146
0.512941
0.653421
0.82368
1.0278
1.27689
1.55969
1.74867
1.75685
1.66081
1.35361
1.06136
1.00241
1.00003
1
1
1
1
0.056313
0.0567469
0.0584912
0.0512882
0.0490652
0.0540748
0.0663321
0.086834
0.123691
0.175689
0.238754
0.317245
0.41031
0.526326
0.670816
0.851561
1.0753
1.35009
1.63829
1.76873
1.75918
1.63835
1.27597
1.0367
1.00112
1.00001
1
1
1
1
0.0567696
0.0571015
0.0589191
0.0504028
0.0478566
0.0535951
0.0670276
0.0962037
0.137362
0.186137
0.246358
0.32262
0.41755
0.539665
0.706317
0.925035
1.17468
1.45025
1.70027
1.77796
1.76288
1.57452
1.20592
1.02184
1.00053
1
1
1
1
1
0.0568019
0.0566362
0.0585692
0.0496406
0.0468987
0.0536444
0.071308
0.103975
0.141163
0.187591
0.248597
0.324234
0.433316
0.591793
0.790051
1.00732
1.2475
1.51264
1.73421
1.78217
1.7433
1.49818
1.15309
1.01238
1.00023
1
1
1
1
1
0.0561191
0.0554081
0.0565552
0.0485643
0.0466797
0.0563408
0.0753956
0.105921
0.141647
0.18617
0.251356
0.351716
0.497733
0.661967
0.843915
1.05407
1.29919
1.5682
1.76025
1.78276
1.70812
1.439
1.10756
1.00637
1.0001
1
1
1
1
1
0.0557855
0.0551071
0.0547856
0.0473603
0.0475006
0.0603299
0.0763836
0.10695
0.142181
0.19802
0.28723
0.407982
0.542163
0.69484
0.87672
1.09893
1.36753
1.64106
1.78247
1.78115
1.68287
1.37161
1.06878
1.00314
1.00004
1
1
1
1
1
0.0559763
0.0551151
0.0535783
0.0464695
0.0482668
0.0628965
0.0763703
0.110988
0.160393
0.233735
0.325371
0.43321
0.560946
0.719593
0.923251
1.18292
1.4681
1.70764
1.79459
1.77466
1.64729
1.28579
1.04188
1.00145
1.00002
1
1
1
1
1
0.0561338
0.0559568
0.0528256
0.0458677
0.0475767
0.0639553
0.081728
0.125688
0.187157
0.253507
0.338177
0.444715
0.579096
0.772083
1.01986
1.28061
1.54742
1.75096
1.79892
1.77376
1.57824
1.21343
1.02392
1.00062
1.00001
1
1
1
1
1
0.0568898
0.0577666
0.0523623
0.0454243
0.0455928
0.0640675
0.094187
0.141993
0.196681
0.259691
0.344183
0.460701
0.641563
0.870325
1.10385
1.35022
1.61138
1.78272
1.80106
1.75984
1.49948
1.15103
1.01221
1.00025
1
1
1
1
1
1
0.058179
0.0580247
0.0515052
0.0450271
0.0452543
0.0661805
0.102478
0.146004
0.197704
0.263626
0.364651
0.531603
0.732226
0.936499
1.16369
1.42488
1.68384
1.80077
1.80171
1.70961
1.42337
1.0978
1.00585
1.00009
1
1
1
1
1
1
0.0587865
0.0574392
0.0500376
0.0443842
0.0481882
0.0725809
0.10477
0.146907
0.200512
0.294795
0.436793
0.602733
0.780873
0.984854
1.24281
1.52735
1.74357
1.80799
1.7955
1.66868
1.33763
1.05952
1.00269
1.00003
1
1
1
1
1
1
0.0588039
0.0562866
0.0499381
0.0441773
0.0529264
0.0744345
0.103419
0.150644
0.239366
0.35281
0.483539
0.635169
0.818228
1.06163
1.35518
1.61296
1.77847
1.81302
1.77984
1.61873
1.25447
1.03489
1.00115
1.00001
1
1
1
1
1
1
0.0581191
0.0550473
0.0507191
0.0450042
0.0558496
0.0750188
0.107062
0.180651
0.279257
0.380522
0.505497
0.666024
0.89437
1.17955
1.44745
1.67942
1.80358
1.81694
1.7689
1.54379
1.18271
1.0182
1.00045
1
1
1
1
1
1
1
0.0564511
0.054161
0.0515931
0.0465483
0.0564165
0.0795612
0.130675
0.214089
0.29668
0.39283
0.528167
0.742388
1.01808
1.27488
1.5279
1.74569
1.81992
1.81919
1.75743
1.45469
1.11704
1.00808
1.00015
1
1
1
1
1
1
1
0.0556586
0.0527323
0.0518015
0.0474424
0.0557817
0.0906219
0.15653
0.227083
0.302867
0.414953
0.610924
0.863057
1.10878
1.36013
1.62105
1.79449
1.82577
1.81686
1.6869
1.35613
1.06692
1.00338
1.00005
1
1
1
1
1
1
1
0.0566371
0.0508563
0.050125
0.0475894
0.0595644
0.109429
0.168668
0.23177
0.325197
0.503166
0.717433
0.940694
1.18672
1.46736
1.69978
1.81546
1.82557
1.79142
1.6056
1.25605
1.03674
1.00137
1.00002
1
1
1
1
1
1
1
0.0579311
0.0481724
0.0472883
0.0482418
0.0726068
0.121223
0.171783
0.243804
0.409036
0.586666
0.778955
1.00676
1.29701
1.57346
1.75404
1.82361
1.81831
1.75624
1.53486
1.18272
1.01955
1.00051
1.00001
1
1
1
1
1
1
1
0.0592085
0.0455224
0.0449644
0.0542421
0.0831503
0.122916
0.174912
0.311006
0.474457
0.63592
0.839482
1.12153
1.42769
1.66304
1.79466
1.82811
1.81011
1.72546
1.45123
1.11674
1.00851
1.00017
1
1
1
1
1
1
1
1
0.060217
0.0443257
0.0427939
0.0599111
0.0866107
0.125827
0.214145
0.371232
0.515058
0.686514
0.954759
1.27238
1.53993
1.73924
1.8227
1.83236
1.81596
1.6967
1.34036
1.06259
1.00312
1.00005
1
1
1
1
1
1
1
1
0.0640746
0.0441547
0.0413936
0.061967
0.0880066
0.141306
0.277067
0.410833
0.55768
0.805205
1.10854
1.39234
1.63766
1.79353
1.83639
1.83829
1.81477
1.60287
1.23096
1.02993
1.00108
1.00001
1
1
1
1
1
1
1
1
0.0680202
0.0443252
0.0411218
0.0617724
0.0984552
0.192445
0.31374
0.446109
0.669889
0.948173
1.22855
1.50186
1.72178
1.82312
1.84056
1.83786
1.75681
1.47827
1.14374
1.01315
1.00033
1
1
1
1
1
1
1
1
1
0.0675495
0.0416838
0.0423328
0.0621529
0.119229
0.231233
0.344504
0.529021
0.801654
1.06604
1.35017
1.61935
1.78089
1.83705
1.84029
1.81846
1.68352
1.38085
1.08699
1.00563
1.0001
1
1
1
1
1
1
1
1
1
0.0631335
0.0383477
0.042396
0.0772324
0.155642
0.258569
0.394212
0.661846
0.920119
1.19477
1.50083
1.7169
1.81735
1.84303
1.83308
1.78688
1.62506
1.28534
1.04472
1.00195
1.00003
1
1
1
1
1
1
1
1
1
0.0581937
0.0365587
0.0413952
0.0989421
0.181609
0.294667
0.51798
0.780098
1.0479
1.36326
1.63076
1.78464
1.83709
1.84405
1.8309
1.76567
1.54348
1.17464
1.01836
1.00055
1.00001
1
1
1
1
1
1
1
1
1
0.0505529
0.0351521
0.0470788
0.117153
0.213788
0.375048
0.636133
0.906528
1.2283
1.51783
1.72209
1.82628
1.84566
1.84409
1.83689
1.74408
1.39624
1.08877
1.00622
1.00014
1
1
1
1
1
1
1
1
1
1
0.0402015
0.0368754
0.0682225
0.13684
0.268147
0.503573
0.763279
1.0784
1.40353
1.64286
1.78477
1.84401
1.84814
1.84221
1.81168
1.61387
1.25903
1.04134
1.00186
1.00003
1
1
1
1
1
1
1
1
1
1
0.0304545
0.0384766
0.0873373
0.176966
0.36034
0.618404
0.919632
1.27537
1.56228
1.74067
1.8197
1.84755
1.84797
1.83405
1.74312
1.48767
1.16434
1.01773
1.00055
1.00001
1
1
1
1
1
1
1
1
1
1
0.023485
0.0428927
0.101487
0.248992
0.482855
0.768587
1.1391
1.46017
1.69847
1.79861
1.8358
1.84764
1.84202
1.81453
1.68816
1.39199
1.09161
1.00627
1.00013
1
1
1
1
1
1
1
1
1
1
1
0.0203773
0.0539502
0.135319
0.339007
0.633326
0.99007
1.3543
1.62516
1.79071
1.82237
1.84388
1.84709
1.83373
1.79148
1.62633
1.26403
1.03809
1.00169
1.00003
1
1
1
1
1
1
1
1
1
1
1
0.0179145
0.0685231
0.217345
0.483998
0.839509
1.24008
1.55217
1.74742
1.83576
1.82903
1.84805
1.85012
1.83864
1.77556
1.48752
1.12977
1.01183
1.00035
1
1
1
1
1
1
1
1
1
1
1
1
0.00945973
0.0891841
0.341915
0.711984
1.11903
1.46982
1.7065
1.81647
1.84889
1.83133
1.84981
1.85175
1.84207
1.67871
1.29641
1.05273
1.00303
1.00006
1
1
1
1
1
1
1
1
1
1
1
1
0.00351069
0.160046
0.537658
0.982924
1.39238
1.66408
1.79816
1.84616
1.85254
1.82756
1.84818
1.84497
1.78381
1.50593
1.16614
1.019
1.00064
1.00001
1
1
1
1
1
1
1
1
1
1
1
1
0.0278195
0.335267
0.817685
1.30113
1.62211
1.78451
1.83867
1.85515
1.8528
1.82394
1.8407
1.82115
1.68261
1.3659
1.08172
1.00526
1.00011
1
1
1
1
1
1
1
1
1
1
1
1
1
0.109206
0.552874
1.17907
1.59603
1.77378
1.83416
1.85062
1.85639
1.84976
1.82203
1.83769
1.78762
1.58252
1.22498
1.02731
1.00101
1.00001
1
1
1
1
1
1
1
1
1
1
1
1
1
0.375586
0.999477
1.55577
1.77404
1.83255
1.84658
1.85255
1.85522
1.84602
1.82114
1.84456
1.74801
1.41741
1.08495
1.00535
1.00012
1
1
1
1
1
1
1
1
1
1
1
1
1
1
1.00283
1.53824
1.78274
1.83762
1.84563
1.8478
1.84968
1.85387
1.84432
1.82136
1.83736
1.61674
1.20074
1.0191
1.00052
1.00001
1
1
1
1
1
1
1
1
1
1
1
1
1
1
1.84641
1.8483
1.85018
1.85038
1.84701
1.8456
1.84554
1.85375
1.84446
1.82107
1.75622
1.39949
1.06555
0.999785
0.999968
0.999999
1
1
1
1
1
1
1
1
1
1
1
1
1
1
1.84393
1.84804
1.85207
1.85259
1.84596
1.84014
1.84251
1.85794
1.85533
1.81333
1.71755
1.37459
1.06662
1.00267
1.00003
1
1
1
1
1
1
1
1
1
1
1
1
1
1
1
1.84349
1.84769
1.85317
1.85421
1.84667
1.83722
1.84051
1.85985
1.8586
1.81641
1.66062
1.24701
1.02064
1.00033
1
1
1
1
1
1
1
1
1
1
1
1
1
1
1
1
1.84345
1.84741
1.85344
1.8545
1.84688
1.83561
1.83795
1.85852
1.85894
1.80061
1.56807
1.16115
1.00988
1.00012
1
1
1
1
1
1
1
1
1
1
1
1
1
1
1
1
1.84411
1.84708
1.85289
1.8542
1.84756
1.83606
1.83723
1.85588
1.85305
1.75115
1.47185
1.0983
1.00382
1.00003
1
1
1
1
1
1
1
1
1
1
1
1
1
1
1
1
1.84709
1.84708
1.85032
1.85125
1.84802
1.83965
1.83986
1.85477
1.84934
1.71312
1.37119
1.05048
1.00128
1.00001
1
1
1
1
1
1
1
1
1
1
1
1
1
1
1
1
1.84972
1.84728
1.84735
1.84817
1.84824
1.84697
1.84215
1.85128
1.84857
1.66648
1.25305
1.02271
1.00039
1
1
1
1
1
1
1
1
1
1
1
1
1
1
1
1
1
1.85173
1.84713
1.84365
1.84347
1.84878
1.85636
1.84486
1.8382
1.82307
1.57231
1.15855
1.00951
1.00011
1
1
1
1
1
1
1
1
1
1
1
1
1
1
1
1
1
1.85299
1.84723
1.84113
1.83885
1.84869
1.86188
1.85461
1.8208
1.77543
1.46986
1.09351
1.00344
1.00003
1
1
1
1
1
1
1
1
1
1
1
1
1
1
1
1
1
1.85353
1.84737
1.83988
1.83647
1.84554
1.86431
1.86337
1.81462
1.73425
1.36605
1.04816
1.00115
1.00001
1
1
1
1
1
1
1
1
1
1
1
1
1
1
1
1
1
1.85338
1.84707
1.8397
1.83583
1.84374
1.86641
1.86635
1.81215
1.67875
1.24074
1.02016
1.00032
1
1
1
1
1
1
1
1
1
1
1
1
1
1
1
1
1
1
1.85078
1.84619
1.84121
1.83714
1.84199
1.86742
1.86765
1.78681
1.56327
1.14679
1.00804
1.00008
1
1
1
1
1
1
1
1
1
1
1
1
1
1
1
1
1
1
1.8466
1.84506
1.84467
1.83991
1.83897
1.86598
1.8694
1.76179
1.45295
1.08252
1.0027
1.00002
1
1
1
1
1
1
1
1
1
1
1
1
1
1
1
1
1
1
1.84456
1.8433
1.84793
1.84372
1.83439
1.85701
1.87092
1.74053
1.32682
1.03683
1.00077
1
1
1
1
1
1
1
1
1
1
1
1
1
1
1
1
1
1
1
1.8436
1.8409
1.84874
1.84984
1.83285
1.84482
1.85334
1.64385
1.20741
1.01474
1.0002
1
1
1
1
1
1
1
1
1
1
1
1
1
1
1
1
1
1
1
1.84309
1.83863
1.8456
1.85781
1.84915
1.83502
1.82456
1.53474
1.12501
1.0055
1.00005
1
1
1
1
1
1
1
1
1
1
1
1
1
1
1
1
1
1
1
1.84331
1.83849
1.83853
1.86462
1.87501
1.83422
1.79531
1.41371
1.0599
1.00159
1.00001
1
1
1
1
1
1
1
1
1
1
1
1
1
1
1
1
1
1
1
1.84379
1.83636
1.8334
1.87485
1.889
1.83673
1.72119
1.2659
1.02398
1.0004
1
1
1
1
1
1
1
1
1
1
1
1
1
1
1
1
1
1
1
1
1.84207
1.83346
1.8293
1.88059
1.89453
1.81943
1.59421
1.16371
1.00918
1.0001
1
1
1
1
1
1
1
1
1
1
1
1
1
1
1
1
1
1
1
1
1.83778
1.83359
1.82639
1.8823
1.8989
1.80377
1.47172
1.08343
1.00263
1.00002
1
1
1
1
1
1
1
1
1
1
1
1
1
1
1
1
1
1
1
1
1.83034
1.83535
1.8266
1.87931
1.90093
1.76415
1.3224
1.0335
1.00066
1
1
1
1
1
1
1
1
1
1
1
1
1
1
1
1
1
1
1
1
1
1.82248
1.83946
1.8483
1.87208
1.88353
1.64215
1.19971
1.01295
1.00016
1
1
1
1
1
1
1
1
1
1
1
1
1
1
1
1
1
1
1
1
1
1.81862
1.85537
1.8878
1.86605
1.85869
1.52659
1.1057
1.00386
1.00003
1
1
1
1
1
1
1
1
1
1
1
1
1
1
1
1
1
1
1
1
1
1.81698
1.87471
1.91304
1.86936
1.81257
1.36016
1.04104
1.0009
1.00001
1
1
1
1
1
1
1
1
1
1
1
1
1
1
1
1
1
1
1
1
1
1.81825
1.88743
1.9284
1.8629
1.68085
1.21614
1.01532
1.0002
1
1
1
1
1
1
1
1
1
1
1
1
1
1
1
1
1
1
1
1
1
1
1.82288
1.89233
1.93531
1.83659
1.54579
1.11705
1.00453
1.00004
1
1
1
1
1
1
1
1
1
1
1
1
1
1
1
1
1
1
1
1
1
1
1.82431
1.8962
1.94049
1.81643
1.37941
1.04473
1.001
1.00001
1
1
1
1
1
1
1
1
1
1
1
1
1
1
1
1
1
1
1
1
1
1
1.84463
1.91354
1.93459
1.68565
1.2209
1.01543
1.00021
1
1
1
1
1
1
1
1
1
1
1
1
1
1
1
1
1
1
1
1
1
1
1
1.90285
1.92065
1.89342
1.53775
1.1158
1.00456
1.00004
1
1
1
1
1
1
1
1
1
1
1
1
1
1
1
1
1
1
1
1
1
1
1
1.98929
1.89986
1.83077
1.3665
1.04287
1.001
1.00001
1
1
1
1
1
1
1
1
1
1
1
1
1
1
1
1
1
1
1
1
1
1
1
2.07994
1.84022
1.6892
1.20219
1.01402
1.0002
1
1
1
1
1
1
1
1
1
1
1
1
1
1
1
1
1
1
1
1
1
1
1
1
2.14669
1.78295
1.51177
1.1024
1.00428
1.00004
1
1
1
1
1
1
1
1
1
1
1
1
1
1
1
1
1
1
1
1
1
1
1
1
2.1792
1.71114
1.32765
1.03861
1.00101
1.00001
1
1
1
1
1
1
1
1
1
1
1
1
1
1
1
1
1
1
1
1
1
1
1
1
2.15433
1.5837
1.19394
1.01488
1.00025
1
1
1
1
1
1
1
1
1
1
1
1
1
1
1
1
1
1
1
1
1
1
1
1
1
2.05671
1.46019
1.1022
1.00482
1.00005
1
1
1
1
1
1
1
1
1
1
1
1
1
1
1
1
1
1
1
1
1
1
1
1
1
1.97124
1.32798
1.04425
1.00122
1.00001
1
1
1
1
1
1
1
1
1
1
1
1
1
1
1
1
1
1
1
1
1
1
1
1
1
1.80403
1.19597
1.01577
1.00026
1
1
1
1
1
1
1
1
1
1
1
1
1
1
1
1
1
1
1
1
1
1
1
1
1
1
1.57799
1.11162
1.00507
1.00005
1
1
1
1
1
1
1
1
1
1
1
1
1
1
1
1
1
1
1
1
1
1
1
1
1
1
1.3673
1.04348
1.00097
1.00001
1
1
1
1
1
1
1
1
1
1
1
1
1
1
1
1
1
1
1
1
1
1
1
1
1
1
1.13724
1.00762
1.00006
1
1
1
1
1
1
1
1
1
1
1
1
1
1
1
1
1
1
1
1
1
1
1
1
1
1
1
1
1
1
1
1
1
1
1
1
1
1
1
1
1
1
1
1
1
1
1
1
1
1
1
1
1
1
1
1
1
1
1
1
1
1
1
1
1
1
1
1
1
1
1
1
1
1
1
1
1
1
1
1
1
1
1
1
1
1
1
1
1
1
1
1
1
1
1
1
1
1
1
1
1
1
1
1
1
1
1
1
1
1
1
1
1
1
1
1
1
1
1
1
1
1
1
1
1
1
1
1
1
1
1
1
1
1
1
1
1
1
1
1
1
1
1
1
1
1
1
1
1
1
1
1
1
1
1
1
1
1
1
1
1
1
1
1
1
1
1
1
1
1
1
1
1
1
1
1
1
1
1
1
1
1
1
1
1
1
1
1
1
1
1
1
1
1
1
1
1
1
1
1
1
1
1
1
1
1
1
1
1
1
1
1
1
1
1
1
1
1
1
1
1
1
1
1
1
1
1
1
1
1
1
1
1
1
1
1
1
1
1
1
1
1
1
1
1
1
1
1
1
1
1
1
1
1
1
1
1
1
1
1
1
1
1
1
1
1
1
1
1
1
1
1
1
1
1
1
1
1
1
1
1
1
1
1
1
1
1
1
1
1
1
1
1
1
1
1
1
1
1
1
1
1
1
1
1
1
1
1
1
1
1
1
1
1
1
1
1
1
1
1
1
1
1
1
1
1
1
1
1
1
1
1
1
1
1
1
1
1
1
1
1
1
1
1
1
1
1
1
1
1
1
1
1
1
1
1
1
1
1
1
1
1
1
1
1
1
1
1
1
1
1
1
1
1
1
1
1
1
1
1
1
1
1
1
1
1
1
1
1
1
1
1
1
1
1
1
1
1
1
1
1
1
1
1
1
1
1
1
1
1
1
1
1
1
1
1
1
1
1
1
1
1
1
1
1
1
1
1
1
1
1
1
1
1
1
1
1
1
1
1
1
1
1
1
1
1
1
1
1
1
1
1
1
1
1
1
1
1
1
1
1
1
1
1
1
1
1
1
1
1
1
1
1
1
1
1
1
1
1
1
1
1
1
1
1
1
1
1
1
1
1
1
1
1
1
1
1
1
1
1
1
1
1
1
1
1
1
1
1
1
1
1
1
1
1
1
1
1
1
1
1
1
1
1
1
1
1
1
1
1
1
1
1
1
1
1
1
1
1
1
1
1
1
1
1
1
1
1
1
1
1
1
1
1
1
1
1
1
1
1
1
1
1
1
1
1
1
1
1
1
1
1
1
1
1
1
1
1
1
1
1
1
1
1
1
1
1
1
1
1
1
1
1
1
1
1
1
1
1
1
1
1
1
1
1
1
1
1
1
1
1
1
1
1
1
1
1
1
1
1
1
1
1
1
1
1
1
1
1
1
1
1
1
1
1
1
1
1
1
1
1
1
1
1
1
1
1
1
1
1
1
1
1
1
1
1
1
1
1
1
1
1
1
1
1
1
1
1
1
1
1
1
1
1
1
1
1
1
1
1
1
1
1
1
1
1
1
1
1
1
1
1
1
1
1
1
1
1
1
1
1
1
1
1
1
1
1
1
1
1
1
1
1
1
1
1
1
1
1
1
1
1
1
1
1
1
1
1
1
1
1
1
1
1
1
1
1
1
1
1
1
1
1
1
1
1
1
1
1
1
1
1
1
1
1
1
1
1
1
1
1
1
1
1
1
1
1
1
1
1
1
1
1
1
1
1
1
1
1
1
1
1
1
1
1
1
1
1
1
1
1
1
1
1
1
1
1
1
1
1
1
1
1
1
1
1
1
1
1
1
1
1
1
1
1
1
1
1
1
1
1
1
1
1
1
1
1
1
1
1
1
1
1
1
1
1
1
1
1
1
1
1
1
1
1
1
1
1
1
1
1
1
1
1
1
1
1
1
1
1
1
1
1
1
1
1
1
1
1
1
1
1
1
1
1
1
1
1
1
1
1
1
1
1
1
1
1
1
1
1
1
1
1
1
1
1
1
1
1
1
1
1
1
1
1
1
1
1
1
1
1
1
1
1
1
1
1
1
1
1
1
1
1
1
1
1
1
1
1
1
1
1
1
1
1
1
1
1
1
1
1
1
1
1
1
1
1
1
1
1
1
1
1
1
1
1
1
1
1
1
1
1
1
1
1
1
1
1
1
1
1
1
1
1
1
1
1
1
1
1
1
1
1
1
1
1
1
1
1
1
1
1
1
1
1
1
1
1
1
1
1
1
1
1
1
1
1
1
1
1
1
1
1
1
1
1
1
1
1
1
1
1
1
1
1
1
1
1
1
1
1
1
1
1
1
1
1
1
1
1
1
1
1
1
1
1
1
1
1
1
1
1
1
1
1
1
1
1
1
1
1
1
1
1
1
1
1
1
1
1
1
1
1
1
1
1
1
1
1
1
1
1
1
1
1
1
1
1
1
1
1
1
1
1
1
1
1
1
1
1
1
1
1
1
1
1
1
1
1
1
1
1
1
1
1
1
1
1
1
1
1
1
1
1
1
1
1
1
1
1
1
1
1
1
1
1
1
1
1
1
1
1
1
1
1
1
1
1
1
1
1
1
1
1
1
1
1
1
1
1
1
1
1
1
1
1
1
1
1
1
1
1
1
1
1
1
1
1
1
1
1
1
1
1
1
1
1
1
1
1
1
1
1
1
1
1
1
1
1
1
1
1
1
1
1
1
1
1
1
1
1
1
1
1
1
1
1
1
1
1
1
1
1
1
1
1
1
1
1
1
1
1
1
1
1
1
1
1
1
1
1
1
1
1
1
1
1
1
1
1
1
1
1
1
1
1
1
1
1
1
1
1
1
1
1
1
1
1
1
1
1
1
1
1
1
1
1
1
1
1
1
1
1
1
1
1
1
1
1
1
1
1
1
1
1
1
1
1
1
1
1
1
1
1
1
1
1
1
1
1
1
1
1
1
1
1
1
1
1
1
1
1
1
1
1
1
1
1
1
1
1
1
1
1
1
1
1
1
1
1
1
1
1
1
1
1
1
1
1
1
1
1
1
1
1
1
1
1
1
1
1
1
1
1
1
1
1
1
1
1
1
1
1
1
1
1
1
1
1
1
1
1
1
1
1
1
1
1
1
1
1
1
1
1
1
1
1
1
1
1
1
1
1
1
1
1
1
1
1
1
1
1
1
1
1
1
1
1
1
1
1
1
1
1
1
1
1
1
1
1
1
1
1
1
1
1
1
1
1
1
1
1
1
1
1
1
1
1
1
1
1
1
1
1
1
1
1
1
1
1
1
1
1
1
1
1
1
1
1
1
1
1
1
1
1
1
1
1
1
1
1
1
1
1
1
1
1
1
1
1
1
1
1
1
1
1
1
1
1
1
1
1
1
1
1
1
1
1
1
1
1
1
1
1
1
1
1
1
1
1
1
1
1
1
1
1
1
1
1
1
1
1
1
1
1
1
1
1
1
1
1
1
1
1
1
1
1
1
1
1
1
1
1
1
1
1
1
1
1
1
1
1
1
1
1
1
1
1
1
1
1
1
1
1
1
1
1
1
1
1
1
1
1
1
1
1
1
1
1
1
1
1
1
1
1
1
1
1
1
1
1
1
1
1
1
1
1
1
1
1
1
1
1
1
1
1
1
1
1
1
1
1
1
1
1
1
1
1
1
1
1
1
1
1
1
1
1
1
1
1
1
1
1
1
1
1
1
1
1
1
1
1
1
1
1
1
1
1
1
1
1
1
1
1
1
1
1
1
1
1
1
1
1
1
1
1
1
1
1
1
1
1
1
1
1
1
1
1
1
1
1
1
1
1
1
1
1
1
1
1
1
1
1
1
1
1
1
1
1
1
1
1
1
1
1
1
1
1
1
1
1
1
1
1
1
1
1
1
1
1
1
1
1
1
1
1
1
1
1
1
1
1
1
1
1
1
1
1
1
1
1
1
1
1
1
1
1
1
1
1
1
1
1
1
1
1
1
1
1
1
1
1
1
1
1
1
1
1
1
1
1
1
1
1
1
1
1
1
1
1
1
1
1
1
1
1
1
1
1
1
1
1
1
1
1
1
1
1
1
1
1
1
1
1
1
1
1
1
1
1
1
1
1
1
1
1
1
1.42129
1
1
1
1
1
1
1
1
1
1
1
1
1
1
1
1
1
1
1
1
1
1
1
1
1
1
1
1
1
2.36444
0.998518
1
1
1
1
1
1
1
1
1
1
1
1
1
1
1
1
1
1
1
1
1
1
1
1
1
1
1
1
3.60587
1.07657
1
1
1
1
1
1
1
1
1
1
1
1
1
1
1
1
1
1
1
1
1
1
1
1
1
1
1
1
5.22077
1.36422
1
1
1
1
1
1
1
1
1
1
1
1
1
1
1
1
1
1
1
1
1
1
1
1
1
1
1
1
6.88147
2.16606
0.998804
1
1
1
1
1
1
1
1
1
1
1
1
1
1
1
1
1
1
1
1
1
1
1
1
1
1
1
8.62257
3.85251
1.11461
0.999852
1
1
1
1
1
1
1
1
1
1
1
1
1
1
1
1
1
1
1
1
1
1
1
1
1
1
9.50942
6.32661
2.59663
1.00504
1
1
1
1
1
1
1
1
1
1
1
1
1
1
1
1
1
1
1
1
1
1
1
1
1
1
8.53556
6.68198
5.76035
1.7866
0.999252
1
1
1
1
1
1
1
1
1
1
1
1
1
1
1
1
1
1
1
1
1
1
1
1
1
7.05199
6.33495
6.90362
4.37378
1.24282
0.999688
1
1
1
1
1
1
1
1
1
1
1
1
1
1
1
1
1
1
1
1
1
1
1
1
6.15647
5.98181
6.67725
6.43464
2.73208
1.00936
1
1
1
1
1
1
1
1
1
1
1
1
1
1
1
1
1
1
1
1
1
1
1
1
5.789
5.87333
6.38752
6.28768
4.84308
1.47407
0.999419
1
1
1
1
1
1
1
1
1
1
1
1
1
1
1
1
1
1
1
1
1
1
1
5.63982
5.79374
6.0297
5.91519
5.81231
2.7979
1.02282
1
1
1
1
1
1
1
1
1
1
1
1
1
1
1
1
1
1
1
1
1
1
1
5.5999
5.6777
5.74814
5.83323
6.12126
4.70739
1.43307
0.999422
1
1
1
1
1
1
1
1
1
1
1
1
1
1
1
1
1
1
1
1
1
1
5.58182
5.66106
5.68514
5.83241
6.05098
5.67091
2.6982
1.01915
1
1
1
1
1
1
1
1
1
1
1
1
1
1
1
1
1
1
1
1
1
1
5.59836
5.68183
5.71358
5.81048
5.94685
5.70228
4.10779
1.28618
0.99976
1
1
1
1
1
1
1
1
1
1
1
1
1
1
1
1
1
1
1
1
1
5.64077
5.72402
5.75614
5.77098
5.79522
5.66966
5.22052
2.13721
1.00015
1
1
1
1
1
1
1
1
1
1
1
1
1
1
1
1
1
1
1
1
1
5.70382
5.77388
5.7849
5.76105
5.69817
5.67567
5.73354
3.63694
1.13491
1
1
1
1
1
1
1
1
1
1
1
1
1
1
1
1
1
1
1
1
1
5.76864
5.82
5.79707
5.76779
5.68227
5.67568
5.75382
4.82566
1.74704
0.999054
1
1
1
1
1
1
1
1
1
1
1
1
1
1
1
1
1
1
1
1
5.82311
5.85454
5.80598
5.7796
5.70902
5.70888
5.72253
5.31497
2.75739
1.03123
1
1
1
1
1
1
1
1
1
1
1
1
1
1
1
1
1
1
1
1
5.8627
5.87576
5.81222
5.80858
5.77591
5.74567
5.75625
5.67097
4.15566
1.29708
0.999597
1
1
1
1
1
1
1
1
1
1
1
1
1
1
1
1
1
1
1
5.89199
5.8871
5.82639
5.8396
5.83371
5.78168
5.78359
5.78865
5.22523
2.14818
1.00178
1
1
1
1
1
1
1
1
1
1
1
1
1
1
1
1
1
1
1
5.90076
5.88431
5.84958
5.86065
5.86706
5.82075
5.80955
5.82579
5.48954
3.28732
1.09573
1
1
1
1
1
1
1
1
1
1
1
1
1
1
1
1
1
1
1
5.9022
5.8791
5.8687
5.87905
5.88974
5.85978
5.83541
5.83953
5.70129
4.55266
1.50358
0.999281
1
1
1
1
1
1
1
1
1
1
1
1
1
1
1
1
1
1
5.89483
5.87351
5.8797
5.88822
5.89711
5.87905
5.86125
5.86593
5.83362
5.54105
2.58964
1.0186
1
1
1
1
1
1
1
1
1
1
1
1
1
1
1
1
1
1
5.88207
5.86549
5.88204
5.88525
5.89605
5.88666
5.87585
5.88275
5.89183
5.66948
3.76982
1.2059
1
1
1
1
1
1
1
1
1
1
1
1
1
1
1
1
1
1
5.86814
5.85817
5.87944
5.87773
5.88603
5.88403
5.87974
5.89087
5.9117
5.77592
4.94302
1.7823
0.99895
1
1
1
1
1
1
1
1
1
1
1
1
1
1
1
1
1
5.85709
5.85217
5.87142
5.86554
5.87153
5.87759
5.87796
5.89295
5.892
5.82692
5.73402
3.08928
1.05622
1
1
1
1
1
1
1
1
1
1
1
1
1
1
1
1
1
5.84656
5.84574
5.8597
5.8548
5.85695
5.86832
5.86861
5.8834
5.87862
5.83739
5.83619
4.20013
1.36003
0.999499
1
1
1
1
1
1
1
1
1
1
1
1
1
1
1
1
5.83494
5.84079
5.84951
5.85047
5.84443
5.85711
5.85888
5.87414
5.87822
5.86796
5.83566
5.23202
2.11381
1.0038
1
1
1
1
1
1
1
1
1
1
1
1
1
1
1
1
5.82686
5.84076
5.84584
5.84829
5.84239
5.84882
5.85169
5.86809
5.87833
5.87672
5.84602
5.84678
3.5602
1.1235
1
1
1
1
1
1
1
1
1
1
1
1
1
1
1
1
5.82764
5.84357
5.84541
5.8474
5.84426
5.84479
5.8477
5.86065
5.88106
5.86986
5.83427
5.91404
4.52479
1.54552
0.999233
1
1
1
1
1
1
1
1
1
1
1
1
1
1
1
5.83472
5.84982
5.84908
5.84771
5.84709
5.84484
5.84722
5.856
5.88506
5.87308
5.81931
5.85885
5.37936
2.4509
1.01593
1
1
1
1
1
1
1
1
1
1
1
1
1
1
1
5.84611
5.85893
5.85829
5.85202
5.8523
5.84929
5.84919
5.8521
5.88476
5.87373
5.81333
5.83633
5.87815
3.94023
1.21285
0.999765
1
1
1
1
1
1
1
1
1
1
1
1
1
1
5.85905
5.86306
5.86571
5.85846
5.85814
5.85483
5.85246
5.84653
5.87776
5.87085
5.81619
5.81311
5.92936
4.73172
1.73004
1.00054
1
1
1
1
1
1
1
1
1
1
1
1
1
1
5.86704
5.86454
5.86632
5.8586
5.8593
5.85583
5.85225
5.83934
5.86597
5.86289
5.82237
5.78834
5.87078
5.42686
2.71973
1.03473
1
1
1
1
1
1
1
1
1
1
1
1
1
1
5.86995
5.86205
5.86363
5.8544
5.85641
5.85316
5.84885
5.82969
5.84937
5.85155
5.82832
5.7715
5.81743
5.83445
4.1688
1.29747
0.999625
0.999998
1
1
1
1
1
1
1
1
1
1
1
1
5.86488
5.85314
5.85476
5.84785
5.85132
5.84867
5.84263
5.8179
5.83064
5.83937
5.82682
5.76284
5.77971
5.88021
4.8198
1.86599
1.00292
0.999999
1
1
1
1
1
1
1
1
1
1
1
1
5.85029
5.83948
5.84192
5.83891
5.84153
5.83859
5.83277
5.80537
5.81019
5.82434
5.81982
5.75892
5.73811
5.83341
5.38103
2.86547
1.04998
0.999915
0.999999
1
1
1
1
1
1
1
1
1
1
1
5.83246
5.82515
5.82981
5.82675
5.82554
5.82753
5.81686
5.79021
5.78603
5.79948
5.79951
5.74716
5.69902
5.76174
5.72315
4.16636
1.35348
1.00077
0.999999
1
1
1
1
1
1
1
1
1
1
1
5.82689
5.82465
5.83032
5.82243
5.81657
5.80891
5.79809
5.77383
5.76418
5.78062
5.77721
5.73308
5.6682
5.69928
5.75503
4.66511
1.73594
0.974951
0.999671
1
1
1
1
1
1
1
1
1
1
1
2.77556
4.26742
4.97855
5.38809
5.5926
5.68937
5.73627
5.7416
5.73316
5.74254
5.76007
5.73952
5.67656
5.64076
5.72862
5.45836
3.31642
1.21196
1.00274
1.00001
1
1
1
1
1
1
1
1
1
1
1.02615
2.64912
3.74309
4.47776
4.94161
5.28113
5.47679
5.59999
5.64611
5.66587
5.70215
5.71645
5.69298
5.62009
5.6256
5.69439
4.67965
1.99247
1.04521
1.00041
1
1
1
1
1
1
1
1
1
1
0.405756
1.61268
2.63416
3.51699
4.10269
4.62819
4.97605
5.25361
5.42973
5.52314
5.583
5.64922
5.66385
5.61916
5.56439
5.68932
5.54687