/*--------------------------------*- C++ -*----------------------------------*\
  =========                 |
  \\      /  F ield         | OpenFOAM: The Open Source CFD Toolbox
   \\    /   O peration     | Website:  https://openfoam.org
    \\  /    A nd           | Version:  7
     \\/     M anipulation  |
\*---------------------------------------------------------------------------*/
FoamFile
{
    version     2.0;
    format      ascii;
    class       volScalarField;
    location    "5.3";
    object      rho;
}
// * * * * * * * * * * * * * * * * * * * * * * * * * * * * * * * * * * * * * //

dimensions      [1 -3 0 0 0 0 0];

internalField   nonuniform List<scalar> 
11200
(
0.240387
0.347213
0.458864
0.552232
0.628257
0.686555
0.716927
0.740309
0.748749
0.773885
0.795379
0.813679
0.841208
0.870631
0.865933
0.851784
0.859175
0.874701
0.903014
0.917911
0.918699
0.917104
0.92085
0.933277
0.948695
0.959861
0.96947
0.980418
0.987855
0.986758
0.146284
0.151432
0.171972
0.218307
0.288977
0.389813
0.494904
0.595631
0.671254
0.739701
0.78258
0.812363
0.816624
0.805266
0.773789
0.765258
0.778811
0.807247
0.843252
0.839417
0.830607
0.833623
0.848078
0.867696
0.880574
0.888567
0.896774
0.910541
0.921157
0.921594
0.158719
0.161341
0.164917
0.166277
0.167124
0.170324
0.19116
0.237236
0.330648
0.440775
0.556646
0.658544
0.720925
0.756336
0.753452
0.759622
0.757841
0.762416
0.777118
0.779119
0.781791
0.789163
0.802083
0.818907
0.826973
0.826128
0.833507
0.850194
0.858983
0.863866
0.165461
0.167636
0.169293
0.171064
0.173277
0.176082
0.177777
0.179137
0.179839
0.182655
0.208803
0.27385
0.394715
0.546973
0.676374
0.754211
0.751521
0.74942
0.746173
0.746764
0.758832
0.767798
0.777255
0.78727
0.798609
0.802593
0.807167
0.820243
0.827776
0.831796
0.17316
0.174573
0.175994
0.17756
0.179451
0.181651
0.183006
0.183136
0.182993
0.182713
0.1818
0.180292
0.180083
0.203805
0.29385
0.471306
0.608108
0.688579
0.719225
0.740444
0.769488
0.769108
0.777123
0.781527
0.787662
0.793379
0.800076
0.808774
0.816379
0.822657
0.179134
0.179531
0.179941
0.180702
0.182024
0.183185
0.183333
0.182844
0.181977
0.180808
0.179502
0.178533
0.178833
0.180629
0.182113
0.187315
0.25427
0.38471
0.54991
0.693153
0.75263
0.774174
0.791044
0.788927
0.801995
0.803958
0.814568
0.818261
0.82347
0.830069
0.179511
0.179831
0.180106
0.180227
0.180298
0.180052
0.17934
0.178433
0.178011
0.177787
0.177667
0.17771
0.1783
0.18032
0.184001
0.184352
0.184888
0.186549
0.217124
0.331817
0.523011
0.700692
0.773263
0.809897
0.842221
0.828787
0.84279
0.834458
0.841697
0.850277
0.179484
0.179716
0.179723
0.179311
0.178441
0.177635
0.177102
0.177176
0.177562
0.179105
0.179518
0.178639
0.178455
0.181781
0.187114
0.189947
0.192116
0.196832
0.202657
0.207983
0.224616
0.3195
0.525201
0.72544
0.815653
0.861941
0.909734
0.886554
0.905506
0.902559
0.181515
0.181868
0.181689
0.181088
0.179971
0.179323
0.179743
0.180888
0.182885
0.187144
0.192354
0.192154
0.189976
0.190255
0.196747
0.204754
0.208072
0.211402
0.214864
0.21875
0.227737
0.238847
0.249544
0.332831
0.527773
0.760674
0.879025
0.923283
0.987047
0.970215
0.183718
0.183684
0.183505
0.183905
0.185402
0.187615
0.189175
0.190272
0.1925
0.197167
0.205268
0.211324
0.21306
0.215426
0.220332
0.227416
0.231858
0.234844
0.239428
0.243086
0.244676
0.248586
0.260645
0.275224
0.284229
0.357927
0.550638
0.808377
0.953693
1.00815
0.191368
0.192838
0.194875
0.197872
0.201285
0.204969
0.206654
0.20621
0.206764
0.21078
0.217887
0.226429
0.232002
0.235417
0.239284
0.247506
0.256813
0.263382
0.270717
0.280433
0.285845
0.284441
0.280497
0.284215
0.30231
0.313045
0.316399
0.392755
0.584292
0.921554
0.221209
0.222942
0.225197
0.228196
0.232266
0.237272
0.241273
0.242715
0.24389
0.246866
0.250737
0.256063
0.260235
0.26171
0.264239
0.270493
0.280087
0.287962
0.29552
0.30498
0.313893
0.319686
0.321534
0.31858
0.318669
0.329744
0.341461
0.347773
0.350955
0.550658
0.252742
0.253897
0.255944
0.260501
0.267821
0.275537
0.281361
0.282103
0.281006
0.28116
0.284346
0.291501
0.299606
0.303574
0.304731
0.306001
0.308319
0.311243
0.315125
0.3221
0.33252
0.343533
0.35335
0.357832
0.357879
0.360449
0.366222
0.373821
0.382144
0.38893
0.302066
0.302564
0.303103
0.304477
0.306843
0.311606
0.318625
0.320311
0.319174
0.319308
0.322391
0.329156
0.336842
0.339719
0.341072
0.345166
0.351523
0.353216
0.353028
0.353579
0.357319
0.366768
0.378833
0.386802
0.391091
0.395204
0.400285
0.404481
0.411214
0.421679
0.356405
0.356587
0.356812
0.357262
0.358863
0.362149
0.368679
0.374381
0.374636
0.372423
0.371826
0.37318
0.376658
0.380696
0.383632
0.387698
0.394595
0.400903
0.40735
0.411528
0.410616
0.408004
0.409137
0.416099
0.423886
0.428075
0.433716
0.439109
0.44235
0.450161
0.419887
0.417496
0.415818
0.415783
0.416955
0.418207
0.42137
0.426779
0.427587
0.426625
0.427215
0.430012
0.435363
0.440089
0.440133
0.440079
0.442204
0.445858
0.450669
0.455587
0.459525
0.460759
0.460871
0.46202
0.465792
0.469386
0.472654
0.47705
0.476533
0.478696
0.496713
0.496193
0.490276
0.48882
0.489839
0.491002
0.493305
0.498166
0.50051
0.500054
0.498133
0.496812
0.497249
0.49945
0.503339
0.50579
0.505321
0.502379
0.500283
0.500921
0.503898
0.508324
0.511372
0.511378
0.511344
0.512503
0.51297
0.514135
0.516254
0.518649
0.587211
0.587962
0.584194
0.573468
0.572161
0.572536
0.573975
0.577661
0.578412
0.577406
0.57477
0.572563
0.572315
0.571533
0.570665
0.569978
0.569581
0.569925
0.570666
0.570465
0.56857
0.564809
0.56435
0.565711
0.567002
0.565832
0.56493
0.56374
0.563438
0.563964
0.694733
0.69508
0.69122
0.675644
0.669047
0.66955
0.67573
0.676518
0.673884
0.668453
0.664201
0.664315
0.663966
0.660124
0.655496
0.653926
0.652401
0.649555
0.645231
0.642408
0.641028
0.639048
0.635139
0.630096
0.627326
0.624621
0.62054
0.618472
0.616973
0.612564
0.821603
0.820668
0.814759
0.79579
0.785935
0.78691
0.793593
0.793431
0.786083
0.773828
0.768889
0.769572
0.768681
0.762464
0.753187
0.747827
0.743787
0.738948
0.733535
0.726481
0.719656
0.714081
0.708699
0.702198
0.695713
0.691855
0.68616
0.680194
0.677204
0.669888
0.971808
0.968661
0.956944
0.933074
0.922417
0.924342
0.932048
0.930263
0.917987
0.899507
0.89252
0.893375
0.891126
0.879677
0.866847
0.859019
0.852589
0.844052
0.834909
0.825942
0.816898
0.806664
0.79786
0.790439
0.781118
0.771562
0.763687
0.753575
0.743221
0.727555
1.14656
1.13933
1.11884
1.09161
1.0817
1.0848
1.09238
1.08821
1.07056
1.04559
1.03761
1.03838
1.0333
1.01313
0.996546
0.988066
0.978744
0.966574
0.952277
0.938241
0.925276
0.91266
0.898871
0.88511
0.872035
0.857207
0.844443
0.831244
0.819027
0.799131
1.3434
1.33115
1.30342
1.27425
1.26337
1.26679
1.27399
1.26792
1.24552
1.21221
1.20316
1.20355
1.19411
1.16488
1.14538
1.13579
1.12327
1.10518
1.0855
1.06725
1.04956
1.03236
1.01423
0.994559
0.977131
0.959392
0.940127
0.921297
0.905234
0.878014
1.56215
1.54801
1.52012
1.48335
1.46472
1.46643
1.4742
1.4682
1.44329
1.40056
1.38842
1.38693
1.37149
1.33434
1.31291
1.3002
1.28296
1.25972
1.23421
1.21014
1.18878
1.16579
1.14143
1.11748
1.09291
1.0692
1.04532
1.02092
0.999697
0.963714
1.80611
1.79423
1.77549
1.7371
1.70995
1.70741
1.70414
1.68992
1.66414
1.62106
1.60108
1.59234
1.57131
1.53204
1.50338
1.48233
1.45779
1.42934
1.3994
1.36887
1.34083
1.31233
1.28194
1.25167
1.2219
1.1917
1.1627
1.13221
1.10559
1.06235
2.02357
2.01487
2.00057
1.98739
1.97399
1.95816
1.94342
1.92832
1.90855
1.87911
1.85417
1.83266
1.80303
1.76597
1.73238
1.69962
1.66457
1.62769
1.58945
1.55159
1.51429
1.47684
1.43904
1.40105
1.36476
1.32822
1.29196
1.25585
1.22432
1.17123
2.07057
2.07011
2.06898
2.06709
2.06594
2.06411
2.06061
2.05583
2.05057
2.04359
2.03436
2.02332
2.00865
1.98762
1.96187
1.9343
1.90199
1.86392
1.82107
1.77546
1.72777
1.67889
1.62899
1.57957
1.53128
1.48424
1.4392
1.39397
1.35532
1.29185
2.01231
2.01484
2.02123
2.03045
2.03996
2.0451
2.04508
2.04286
2.04455
2.04479
2.04314
2.04347
2.04416
2.04317
2.03941
2.03464
2.02844
2.01855
2.00283
1.97989
1.94813
1.90755
1.85862
1.8032
1.7432
1.68186
1.62109
1.56062
1.50963
1.42865
1.77746
1.78726
1.79717
1.81081
1.83138
1.86458
1.88206
1.88983
1.90454
1.92727
1.94468
1.96153
1.9771
1.98718
2.00068
2.01046
2.01641
2.01805
2.01763
2.01674
2.01418
2.00838
1.99721
1.97914
1.94797
1.90301
1.84542
1.77695
1.71116
1.60194
1.48269
1.48904
1.4978
1.50874
1.51917
1.53372
1.55292
1.57213
1.59076
1.6129
1.64172
1.67202
1.70491
1.73715
1.77432
1.81346
1.85015
1.88792
1.91766
1.94649
1.96844
1.98125
1.99215
1.99249
1.991
1.98544
1.97332
1.95017
1.91334
1.81475
1.40391
1.40451
1.40522
1.40623
1.40746
1.40902
1.41136
1.41442
1.41814
1.42264
1.42894
1.43756
1.44877
1.4633
1.48137
1.50602
1.5359
1.57309
1.6176
1.66701
1.72293
1.77855
1.83387
1.88246
1.91965
1.94551
1.96221
1.96175
1.95965
1.9387
1.40005
1.40006
1.40007
1.40008
1.40011
1.40014
1.40018
1.40025
1.40034
1.40048
1.40069
1.40102
1.40154
1.40237
1.40366
1.40579
1.40921
1.41479
1.42352
1.43742
1.45812
1.48882
1.53039
1.58538
1.65101
1.7213
1.79357
1.85442
1.8995
1.92609
1.40001
1.40001
1.40001
1.40001
1.40001
1.40001
1.40001
1.40001
1.40001
1.40001
1.40001
1.40001
1.40002
1.40003
1.40004
1.40007
1.40013
1.40026
1.4005
1.40103
1.4021
1.4044
1.40893
1.41796
1.43458
1.46313
1.50778
1.57217
1.64578
1.76617
1.40001
1.40001
1.40001
1.40001
1.40001
1.40001
1.40001
1.40001
1.40001
1.40001
1.40001
1.40001
1.40001
1.40001
1.40001
1.40001
1.40001
1.40001
1.40001
1.40001
1.40002
1.40005
1.40013
1.40036
1.40097
1.40264
1.40674
1.41699
1.4355
1.50786
1.40001
1.40001
1.40001
1.40001
1.40001
1.40001
1.40001
1.40001
1.40001
1.40001
1.40001
1.40001
1.40001
1.40001
1.40001
1.40001
1.40001
1.40001
1.40001
1.40001
1.40001
1.40001
1.40001
1.40001
1.40001
1.40003
1.4001
1.40038
1.40114
1.40984
0.141986
0.143826
0.155203
0.162791
0.171178
0.178356
0.178994
0.17925
0.18023
0.181895
0.190297
0.219718
0.252054
0.301476
0.355727
0.419482
0.494937
0.58599
0.694571
0.824462
0.977593
1.15572
1.35638
1.57806
1.82421
2.03466
2.0714
2.01233
1.75719
1.47076
1.40309
1.40004
1.40001
1.40001
1.40001
0.14186
0.145192
0.155115
0.16275
0.172316
0.178529
0.178652
0.179294
0.178375
0.179242
0.194544
0.225376
0.262558
0.312984
0.367156
0.430189
0.507068
0.600191
0.71199
0.844363
1.00206
1.18475
1.38868
1.61459
1.86582
2.0568
2.07299
2.00369
1.70586
1.44807
1.4016
1.40002
1.40001
1.40001
1.40001
0.142106
0.144162
0.15335
0.162094
0.172822
0.178418
0.178693
0.178619
0.176227
0.178114
0.19859
0.228254
0.266601
0.315722
0.371583
0.435402
0.515116
0.608745
0.722537
0.855828
1.01461
1.19994
1.40821
1.64459
1.90744
2.07151
2.07372
1.96591
1.6515
1.43351
1.40095
1.40001
1.40001
1.40001
1.40001
0.141002
0.143888
0.153146
0.162996
0.175053
0.179417
0.179145
0.178244
0.175716
0.17862
0.204596
0.230706
0.269676
0.318261
0.380051
0.447497
0.535122
0.638398
0.757945
0.89911
1.06049
1.24593
1.45877
1.7085
1.9623
2.08165
2.07115
1.92439
1.61068
1.4238
1.40056
1.40001
1.40001
1.40001
1.40001
0.139146
0.143837
0.152879
0.163949
0.177277
0.180105
0.179716
0.17821
0.175783
0.179807
0.20811
0.231978
0.276726
0.328194
0.397328
0.474641
0.565522
0.672674
0.798566
0.946947
1.12026
1.3181
1.53751
1.77677
2.00331
2.08714
2.06172
1.89989
1.57829
1.41612
1.40031
1.40001
1.40001
1.40001
1.40001
0.138146
0.144145
0.152749
0.164632
0.178715
0.180334
0.179892
0.177804
0.175847
0.179966
0.209596
0.235204
0.289291
0.349357
0.415073
0.489575
0.579304
0.688542
0.817689
0.970732
1.14977
1.35302
1.57534
1.81322
2.03034
2.09085
2.06027
1.8745
1.53904
1.40972
1.40016
1.40001
1.40001
1.40001
1.40001
0.138065
0.144716
0.152941
0.164851
0.179226
0.180282
0.179614
0.177124
0.176087
0.180604
0.212537
0.247925
0.300925
0.357217
0.421808
0.497382
0.588616
0.700232
0.832419
0.988119
1.17136
1.37793
1.60431
1.84997
2.05729
2.09423
2.05913
1.81442
1.49958
1.40572
1.40009
1.40001
1.40001
1.40001
1.40001
0.138353
0.145647
0.152455
0.163181
0.179167
0.17981
0.178847
0.176998
0.178992
0.188272
0.220776
0.260363
0.304321
0.357836
0.42522
0.503546
0.598306
0.712519
0.848581
1.00717
1.19272
1.40482
1.64605
1.90823
2.08115
2.09529
2.02819
1.753
1.47409
1.40353
1.40005
1.40001
1.40001
1.40001
1.40001
0.139943
0.14603
0.15014
0.160086
0.178721
0.180011
0.17902
0.178078
0.183664
0.198819
0.227356
0.265002
0.305376
0.356886
0.432208
0.52062
0.630423
0.757107
0.903847
1.07347
1.26569
1.48408
1.73049
1.96882
2.09426
2.09315
1.99359
1.71125
1.45488
1.40205
1.40003
1.40001
1.40001
1.40001
1.40001
0.141999
0.145514
0.147586
0.158859
0.177996
0.181407
0.180792
0.179636
0.185857
0.204098
0.229563
0.266902
0.311911
0.377483
0.463659
0.557549
0.668509
0.798705
0.951778
1.12958
1.33261
1.55497
1.78916
2.00574
2.10114
2.08911
1.97284
1.66876
1.43672
1.40109
1.40002
1.40001
1.40001
1.40001
1.40001
0.142534
0.143863
0.146264
0.1589
0.177823
0.182781
0.182354
0.180388
0.186034
0.205204
0.230159
0.270971
0.328281
0.404637
0.485034
0.574515
0.685103
0.818599
0.976314
1.15971
1.36676
1.5907
1.82575
2.03733
2.10699
2.09106
1.95447
1.61266
1.42312
1.40057
1.40001
1.40001
1.40001
1.40001
1.40001
0.142269
0.141962
0.146285
0.160798
0.178056
0.182795
0.181724
0.180129
0.184662
0.204046
0.230902
0.282891
0.348434
0.415617
0.49305
0.585188
0.696328
0.833642
0.994854
1.18298
1.39578
1.62696
1.873
2.0714
2.11157
2.0906
1.89907
1.5618
1.41429
1.40029
1.40001
1.40001
1.40001
1.40001
1.40001
0.141118
0.140642
0.14948
0.16557
0.178426
0.179684
0.175066
0.175013
0.184002
0.202143
0.239955
0.300865
0.357802
0.419277
0.497527
0.596751
0.711993
0.855281
1.02445
1.21899
1.44233
1.69304
1.94298
2.09625
2.11302
2.06678
1.83054
1.52194
1.40857
1.40015
1.40001
1.40001
1.40001
1.40001
1.40001
0.139151
0.140396
0.154882
0.169704
0.178394
0.175004
0.16782
0.169869
0.184843
0.208847
0.257372
0.308315
0.362343
0.425468
0.52238
0.632254
0.76999
0.926256
1.1074
1.31337
1.54192
1.78284
1.99677
2.10884
2.1111
2.03635
1.78626
1.49102
1.40501
1.40007
1.40001
1.40001
1.40001
1.40001
1.40001
0.137646
0.141738
0.158402
0.171935
0.177579
0.170701
0.163972
0.169312
0.19243
0.221449
0.266836
0.310295
0.37203
0.462492
0.567389
0.681428
0.817435
0.976715
1.16179
1.37298
1.60113
1.83191
2.03103
2.11603
2.10673
2.01669
1.74132
1.46348
1.40275
1.40004
1.40001
1.40001
1.40001
1.40001
1.40001
0.137408
0.144401
0.159576
0.173038
0.173761
0.166192
0.162948
0.171597
0.198331
0.226624
0.270038
0.317637
0.393931
0.48991
0.589766
0.702771
0.840005
1.00463
1.19552
1.41084
1.64039
1.87354
2.0656
2.12126
2.10841
2.00102
1.67569
1.44029
1.40135
1.40002
1.40001
1.40001
1.40001
1.40001
1.40001
0.138046
0.146394
0.159463
0.173459
0.169923
0.162478
0.16294
0.176585
0.199201
0.228965
0.272477
0.337872
0.416341
0.499254
0.597751
0.717149
0.85681
1.02801
1.22636
1.45038
1.69156
1.93486
2.09848
2.12515
2.1096
1.94958
1.61133
1.42461
1.40066
1.40001
1.40001
1.40001
1.40001
1.40001
1.40001
0.140222
0.146863
0.158177
0.172487
0.168095
0.161049
0.164422
0.178591
0.196297
0.234394
0.287136
0.362441
0.428202
0.501569
0.604355
0.735582
0.892951
1.07958
1.29353
1.53162
1.78428
2.00354
2.11757
2.12652
2.09054
1.8784
1.56142
1.41495
1.40033
1.40001
1.40001
1.40001
1.40001
1.40001
1.40001
0.142931
0.146437
0.155595
0.17088
0.167126
0.160914
0.168663
0.18181
0.196259
0.250797
0.311657
0.373779
0.438313
0.525574
0.657116
0.805297
0.979736
1.17717
1.39724
1.63197
1.86215
2.04515
2.12615
2.12433
2.05859
1.82995
1.52047
1.40849
1.40015
1.40001
1.40001
1.40001
1.40001
1.40001
1.40001
0.144062
0.145649
0.154113
0.170061
0.167213
0.16279
0.17066
0.185931
0.210223
0.266236
0.320334
0.378135
0.458798
0.586354
0.71715
0.862801
1.03397
1.23228
1.45349
1.68533
1.90816
2.0754
2.13093
2.11874
2.03608
1.78054
1.48344
1.40453
1.40007
1.40001
1.40001
1.40001
1.40001
1.40001
1.40001
0.143862
0.143773
0.154017
0.169688
0.167811
0.166246
0.171058
0.186659
0.219277
0.26927
0.322787
0.391856
0.500703
0.61989
0.744513
0.890731
1.06697
1.2736
1.50088
1.73659
1.96019
2.10612
2.13417
2.11901
2.0199
1.7099
1.45338
1.40221
1.40003
1.40001
1.40001
1.40001
1.40001
1.40001
1.40001
0.140157
0.140313
0.154117
0.169094
0.167823
0.168041
0.17133
0.184877
0.222696
0.265767
0.325791
0.4236
0.531448
0.631135
0.757865
0.915128
1.10183
1.32189
1.5661
1.81614
2.02664
2.12781
2.13642
2.12126
1.97744
1.63837
1.43186
1.40101
1.40002
1.40001
1.40001
1.40001
1.40001
1.40001
1.40001
0.134283
0.139149
0.154944
0.167525
0.166194
0.167825
0.171809
0.183427
0.228665
0.269638
0.348875
0.459096
0.548589
0.639185
0.786365
0.972998
1.18998
1.42838
1.67943
1.9108
2.07408
2.13634
2.13749
2.10299
1.89561
1.57705
1.41823
1.40046
1.40001
1.40001
1.40001
1.40001
1.40001
1.40001
1.40001
0.131742
0.139632
0.156133
0.164525
0.160766
0.162785
0.17355
0.183829
0.239614
0.307281
0.397646
0.479065
0.562506
0.705421
0.883783
1.07801
1.29209
1.52698
1.76272
1.96773
2.10024
2.13898
2.13351
2.06369
1.83644
1.52816
1.41001
1.4002
1.40001
1.40001
1.40001
1.40001
1.40001
1.40001
1.40001
0.132013
0.141951
0.156428
0.1606
0.156408
0.159849
0.177538
0.196599
0.259853
0.34134
0.415828
0.493396
0.609628
0.779507
0.950899
1.13827
1.35241
1.58731
1.81899
2.01368
2.121
2.14058
2.1229
2.03485
1.78126
1.4878
1.40521
1.40009
1.40001
1.40001
1.40001
1.40001
1.40001
1.40001
1.40001
0.136101
0.146876
0.156824
0.156204
0.154409
0.159987
0.188745
0.220693
0.282525
0.351988
0.418011
0.516151
0.672673
0.823318
0.990137
1.18407
1.41063
1.65617
1.89103
2.06716
2.13708
2.14204
2.11997
2.01397
1.70902
1.45417
1.40234
1.40004
1.40001
1.40001
1.40001
1.40001
1.40001
1.40001
1.40001
0.141551
0.147879
0.157481
0.154523
0.153765
0.166771
0.197711
0.239163
0.293056
0.350912
0.419916
0.565838
0.71412
0.849365
1.03191
1.25332
1.50435
1.76237
1.98106
2.10917
2.14462
2.14436
2.12377
1.97217
1.6288
1.42978
1.40096
1.40002
1.40001
1.40001
1.40001
1.40001
1.40001
1.40001
1.40001
0.143361
0.147225
0.154514
0.153514
0.154077
0.172291
0.199627
0.247762
0.298488
0.347185
0.467877
0.623927
0.74924
0.909966
1.13269
1.38287
1.63539
1.86854
2.04228
2.13019
2.14682
2.14468
2.10263
1.87645
1.55935
1.41561
1.40039
1.40001
1.40001
1.40001
1.40001
1.40001
1.40001
1.40001
1.40001
0.143512
0.142752
0.148574
0.1517
0.158035
0.175066
0.197806
0.250354
0.304033
0.390115
0.545486
0.667571
0.804438
1.01929
1.24882
1.48418
1.72222
1.93469
2.08067
2.14132
2.14722
2.13665
2.05009
1.80345
1.50945
1.40799
1.40016
1.40001
1.40001
1.40001
1.40001
1.40001
1.40001
1.40001
1.40001
0.141549
0.137747
0.147686
0.152901
0.163332
0.182434
0.208805
0.256715
0.324596
0.46245
0.582931
0.707413
0.896871
1.1032
1.32415
1.55979
1.79807
1.99845
2.11437
2.14736
2.14635
2.12096
2.01319
1.74178
1.47091
1.40381
1.40006
1.40001
1.40001
1.40001
1.40001
1.40001
1.40001
1.40001
1.40001
0.140294
0.137576
0.149463
0.158579
0.168408
0.188026
0.223472
0.276999
0.375307
0.497994
0.602229
0.763676
0.971352
1.17106
1.40506
1.65721
1.89606
2.06614
2.13768
2.14944
2.14658
2.11325
1.98216
1.66359
1.43915
1.40148
1.40002
1.40001
1.40001
1.40001
1.40001
1.40001
1.40001
1.40001
1.40001
0.141031
0.14102
0.154616
0.160717
0.171153
0.187083
0.226442
0.30099
0.413764
0.516808
0.638674
0.853098
1.04549
1.26684
1.53177
1.79092
1.99298
2.10902
2.14751
2.15024
2.1473
2.11501
1.92158
1.57635
1.41866
1.40052
1.40001
1.40001
1.40001
1.40001
1.40001
1.40001
1.40001
1.40001
1.40001
0.145133
0.150059
0.157117
0.158597
0.167827
0.177208
0.22863
0.334668
0.447056
0.545225
0.744956
0.945223
1.14641
1.4059
1.66869
1.89467
2.05334
2.13067
2.15057
2.1504
2.14169
2.07422
1.80631
1.51044
1.40861
1.40019
1.40001
1.40001
1.40001
1.40001
1.40001
1.40001
1.40001
1.40001
1.40001
0.149301
0.15379
0.154762
0.145669
0.159642
0.175667
0.263827
0.382308
0.480939
0.63136
0.839161
1.03493
1.27629
1.52746
1.77062
1.9706
2.09726
2.14411
2.15107
2.14867
2.12535
2.00121
1.72265
1.46911
1.40384
1.40007
1.40001
1.40001
1.40001
1.40001
1.40001
1.40001
1.40001
1.40001
1.40001
0.149862
0.152938
0.145197
0.136105
0.155369
0.203919
0.326926
0.421246
0.529209
0.727284
0.917753
1.1392
1.39397
1.6403
1.87432
2.0444
2.1299
2.15166
2.15096
2.14369
2.10462
1.95425
1.65427
1.43863
1.40154
1.40003
1.40001
1.40001
1.40001
1.40001
1.40001
1.40001
1.40001
1.40001
1.40001
0.146748
0.140151
0.138373
0.133881
0.163963
0.260672
0.3606
0.446624
0.604037
0.806082
1.00754
1.27375
1.52239
1.77279
1.98444
2.10053
2.14483
2.15443
2.15321
2.143
2.09416
1.9037
1.56968
1.41724
1.40049
1.40001
1.40001
1.40001
1.40001
1.40001
1.40001
1.40001
1.40001
1.40001
1.40001
0.134807
0.127523
0.136917
0.137746
0.198521
0.306481
0.373898
0.478755
0.693745
0.895972
1.15512
1.42096
1.67598
1.90203
2.0622
2.12954
2.14982
2.15516
2.15528
2.14615
2.08055
1.79735
1.49302
1.40649
1.40014
1.40001
1.40001
1.40001
1.40001
1.40001
1.40001
1.40001
1.40001
1.40001
1.40001
0.127792
0.120175
0.138423
0.162358
0.231477
0.32037
0.38849
0.58636
0.800099
1.02817
1.31139
1.57471
1.81839
1.99855
2.11029
2.14424
2.15195
2.15506
2.15472
2.13616
1.9867
1.67133
1.44861
1.40239
1.40004
1.40001
1.40001
1.40001
1.40001
1.40001
1.40001
1.40001
1.40001
1.40001
1.40001
0.126821
0.116776
0.140289
0.191928
0.247959
0.320622
0.466281
0.706724
0.92196
1.20151
1.47105
1.7305
1.93598
2.06921
2.14033
2.15065
2.15332
2.15381
2.14586
2.09475
1.89701
1.59389
1.4254
1.40086
1.40002
1.40001
1.40001
1.40001
1.40001
1.40001
1.40001
1.40001
1.40001
1.40001
1.40001
0.128988
0.115159
0.139062
0.205638
0.260994
0.340171
0.603747
0.8269
1.07926
1.36841
1.63874
1.87554
2.03449
2.11442
2.15363
2.15232
2.15434
2.154
2.13296
2.05554
1.82712
1.52651
1.4106
1.40026
1.40001
1.40001
1.40001
1.40001
1.40001
1.40001
1.40001
1.40001
1.40001
1.40001
1.40001
0.133071
0.111845
0.137249
0.206867
0.292354
0.495042
0.739733
0.967719
1.26923
1.55108
1.81216
1.99853
2.09958
2.13593
2.15708
2.1528
2.15461
2.15511
2.12913
2.02236
1.72701
1.46063
1.40327
1.40006
1.40001
1.40001
1.40001
1.40001
1.40001
1.40001
1.40001
1.40001
1.40001
1.40001
1.40001
0.128005
0.104292
0.1522
0.209151
0.369256
0.644692
0.876101
1.17429
1.47231
1.74767
1.9549
2.08298
2.1312
2.14356
2.15824
2.15102
2.15354
2.15301
2.12797
1.93911
1.59093
1.42343
1.40088
1.40002
1.40001
1.40001
1.40001
1.40001
1.40001
1.40001
1.40001
1.40001
1.40001
1.40001
1.40001
0.115327
0.100291
0.174499
0.281409
0.52395
0.789453
1.07181
1.39846
1.68364
1.9171
2.05909
2.12964
2.14289
2.14573
2.15886
2.14925
2.15062
2.14263
2.06759
1.79272
1.50593
1.40916
1.40023
1.40001
1.40001
1.40001
1.40001
1.40001
1.40001
1.40001
1.40001
1.40001
1.40001
1.40001
1.40001
0.0752584
0.112815
0.204294
0.417096
0.697251
0.977324
1.3365
1.63869
1.88353
2.03944
2.12015
2.14864
2.14543
2.14616
2.16023
2.14878
2.14701
2.12035
1.98555
1.69224
1.45836
1.4032
1.40006
1.40001
1.40001
1.40001
1.40001
1.40001
1.40001
1.40001
1.40001
1.40001
1.40001
1.40001
1.40001
0.0542741
0.115376
0.283232
0.585438
0.909936
1.28153
1.60745
1.85895
2.02597
2.112
2.14696
2.15208
2.14573
2.14638
2.1627
2.15088
2.14969
2.1005
1.91023
1.59406
1.42315
1.40081
1.40002
1.40001
1.40001
1.40001
1.40001
1.40001
1.40001
1.40001
1.40001
1.40001
1.40001
1.40001
1.40001
0.0442907
0.191468
0.466708
0.821221
1.21514
1.58994
1.85234
2.02199
2.10837
2.1435
2.15482
2.15202
2.14502
2.14665
2.16491
2.15407
2.15097
2.08257
1.79155
1.48583
1.40583
1.40015
1.40001
1.40001
1.40001
1.40001
1.40001
1.40001
1.40001
1.40001
1.40001
1.40001
1.40001
1.40001
1.40001
0.0505492
0.302384
0.713842
1.18622
1.59506
1.86438
2.02937
2.10945
2.14204
2.15337
2.15569
2.15039
2.14501
2.14876
2.16669
2.15534
2.12995
1.96397
1.62023
1.42999
1.40127
1.40003
1.40001
1.40001
1.40001
1.40001
1.40001
1.40001
1.40001
1.40001
1.40001
1.40001
1.40001
1.40001
1.40001
0.141209
0.543508
1.15062
1.61546
1.89858
2.051
2.11722
2.14165
2.15063
2.15535
2.15518
2.14936
2.14569
2.15251
2.16742
2.14719
2.07277
1.8201
1.51852
1.41058
1.40027
1.40001
1.40001
1.40001
1.40001
1.40001
1.40001
1.40001
1.40001
1.40001
1.40001
1.40001
1.40001
1.40001
1.40001
0.518425
1.11012
1.64809
1.94046
2.07636
2.12988
2.14463
2.14818
2.15158
2.15551
2.15509
2.14947
2.14672
2.156
2.16487
2.11876
2.00464
1.69506
1.45158
1.40235
1.40004
1.40001
1.40001
1.40001
1.40001
1.40001
1.40001
1.40001
1.40001
1.40001
1.40001
1.40001
1.40001
1.40001
1.40001
1.20206
1.71332
2.01331
2.11567
2.14376
2.14923
2.14849
2.14816
2.1515
2.15598
2.15576
2.15041
2.14733
2.15775
2.15923
2.0935
1.90456
1.54542
1.41067
1.40017
1.40001
1.40001
1.40001
1.40001
1.40001
1.40001
1.40001
1.40001
1.40001
1.40001
1.40001
1.40001
1.40001
1.40001
1.40001
2.14871
2.15044
2.15208
2.15308
2.15287
2.15003
2.14748
2.14756
2.15255
2.15862
2.15776
2.15103
2.14628
2.15739
2.14981
2.04586
1.72057
1.43603
1.39962
1.39995
1.4
1.40001
1.40001
1.40001
1.40001
1.40001
1.40001
1.40001
1.40001
1.40001
1.40001
1.40001
1.40001
1.40001
1.40001
2.14728
2.1491
2.15135
2.15245
2.15308
2.15047
2.14699
2.14621
2.15033
2.15943
2.16053
2.15499
2.14062
2.14288
2.14436
2.018
1.68419
1.44245
1.40138
1.40002
1.40001
1.40001
1.40001
1.40001
1.40001
1.40001
1.40001
1.40001
1.40001
1.40001
1.40001
1.40001
1.40001
1.40001
1.40001
2.14704
2.14816
2.15059
2.15201
2.15248
2.15064
2.14717
2.1461
2.14878
2.15827
2.16079
2.15887
2.13859
2.13317
2.1288
1.96139
1.59828
1.41449
1.40021
1.40001
1.40001
1.40001
1.40001
1.40001
1.40001
1.40001
1.40001
1.40001
1.40001
1.40001
1.40001
1.40001
1.40001
1.40001
1.40001
2.14758
2.14812
2.14998
2.15108
2.1516
2.15086
2.14778
2.14635
2.14766
2.15485
2.16034
2.16133
2.14299
2.12709
2.12277
1.90169
1.52692
1.40663
1.40008
1.40001
1.40001
1.40001
1.40001
1.40001
1.40001
1.40001
1.40001
1.40001
1.40001
1.40001
1.40001
1.40001
1.40001
1.40001
1.40001
2.1499
2.14936
2.14985
2.15026
2.15071
2.15154
2.15067
2.14849
2.14742
2.15028
2.1574
2.16222
2.15012
2.12658
2.10225
1.79414
1.47437
1.40267
1.40003
1.40001
1.40001
1.40001
1.40001
1.40001
1.40001
1.40001
1.40001
1.40001
1.40001
1.40001
1.40001
1.40001
1.40001
1.40001
1.40001
2.15287
2.15161
2.15045
2.14978
2.14989
2.15186
2.15366
2.15204
2.14817
2.14663
2.15326
2.16226
2.15584
2.11932
2.0397
1.7066
1.44188
1.40101
1.40001
1.40001
1.40001
1.40001
1.40001
1.40001
1.40001
1.40001
1.40001
1.40001
1.40001
1.40001
1.40001
1.40001
1.40001
1.40001
1.40001
2.15463
2.15288
2.1507
2.14929
2.14909
2.15212
2.15519
2.15533
2.1496
2.14476
2.14988
2.16424
2.15878
2.11006
1.98019
1.62667
1.41967
1.40034
1.40001
1.40001
1.40001
1.40001
1.40001
1.40001
1.40001
1.40001
1.40001
1.40001
1.40001
1.40001
1.40001
1.40001
1.40001
1.40001
1.40001
2.15528
2.15342
2.15079
2.14875
2.14804
2.15164
2.15592
2.15708
2.1512
2.14352
2.14628
2.16491
2.16009
2.1077
1.91288
1.54828
1.40875
1.40011
1.40001
1.40001
1.40001
1.40001
1.40001
1.40001
1.40001
1.40001
1.40001
1.40001
1.40001
1.40001
1.40001
1.40001
1.40001
1.40001
1.40001
2.15478
2.15326
2.15061
2.14856
2.14755
2.15049
2.15586
2.1576
2.15301
2.14276
2.14274
2.15764
2.15624
2.08532
1.82725
1.48835
1.40353
1.40004
1.40001
1.40001
1.40001
1.40001
1.40001
1.40001
1.40001
1.40001
1.40001
1.40001
1.40001
1.40001
1.40001
1.40001
1.40001
1.40001
1.40001
2.15173
2.1517
2.14996
2.14873
2.1474
2.14861
2.1533
2.15716
2.15489
2.145
2.14123
2.15313
2.14656
2.03266
1.73373
1.44811
1.40127
1.40001
1.40001
1.40001
1.40001
1.40001
1.40001
1.40001
1.40001
1.40001
1.40001
1.40001
1.40001
1.40001
1.40001
1.40001
1.40001
1.40001
1.40001
2.14905
2.1501
2.14944
2.14938
2.14806
2.14746
2.14914
2.1544
2.15596
2.1495
2.14321
2.15206
2.14381
1.98987
1.64345
1.42316
1.40042
1.40001
1.40001
1.40001
1.40001
1.40001
1.40001
1.40001
1.40001
1.40001
1.40001
1.40001
1.40001
1.40001
1.40001
1.40001
1.40001
1.40001
1.40001
2.14752
2.14938
2.14982
2.15035
2.14961
2.14719
2.14589
2.15053
2.15537
2.15608
2.14686
2.14667
2.13683
1.92457
1.55322
1.40962
1.40013
1.40001
1.40001
1.40001
1.40001
1.40001
1.40001
1.40001
1.40001
1.40001
1.40001
1.40001
1.40001
1.40001
1.40001
1.40001
1.40001
1.40001
1.40001
2.14705
2.14918
2.15059
2.15227
2.15141
2.14702
2.14497
2.14627
2.15493
2.16213
2.15127
2.12814
2.09271
1.82521
1.4899
1.40366
1.40004
1.40001
1.40001
1.40001
1.40001
1.40001
1.40001
1.40001
1.40001
1.40001
1.40001
1.40001
1.40001
1.40001
1.40001
1.40001
1.40001
1.40001
1.40001
2.14839
2.14956
2.15138
2.1534
2.15321
2.14903
2.14438
2.14409
2.15323
2.16458
2.15712
2.11662
2.04637
1.73989
1.44958
1.40131
1.40001
1.40001
1.40001
1.40001
1.40001
1.40001
1.40001
1.40001
1.40001
1.40001
1.40001
1.40001
1.40001
1.40001
1.40001
1.40001
1.40001
1.40001
1.40001
2.15138
2.15077
2.15233
2.15374
2.15401
2.15178
2.14528
2.14295
2.15042
2.16528
2.15918
2.11329
1.9995
1.63837
1.42187
1.4004
1.40001
1.40001
1.40001
1.40001
1.40001
1.40001
1.40001
1.40001
1.40001
1.40001
1.40001
1.40001
1.40001
1.40001
1.40001
1.40001
1.40001
1.40001
1.40001
2.15365
2.15224
2.15246
2.15306
2.15383
2.15337
2.14737
2.14345
2.14816
2.16253
2.15612
2.09709
1.91736
1.54625
1.40896
1.40012
1.40001
1.40001
1.40001
1.40001
1.40001
1.40001
1.40001
1.40001
1.40001
1.40001
1.40001
1.40001
1.40001
1.40001
1.40001
1.40001
1.40001
1.40001
1.40001
2.15521
2.153
2.15166
2.15114
2.15281
2.15405
2.14984
2.14581
2.1475
2.16097
2.15248
2.06308
1.81797
1.48588
1.40333
1.40003
1.40001
1.40001
1.40001
1.40001
1.40001
1.40001
1.40001
1.40001
1.40001
1.40001
1.40001
1.40001
1.40001
1.40001
1.40001
1.40001
1.40001
1.40001
1.40001
2.15563
2.15311
2.14985
2.14749
2.1497
2.15358
2.15318
2.14835
2.14666
2.16059
2.15284
2.0367
1.71458
1.44106
1.401
1.40001
1.40001
1.40001
1.40001
1.40001
1.40001
1.40001
1.40001
1.40001
1.40001
1.40001
1.40001
1.40001
1.40001
1.40001
1.40001
1.40001
1.40001
1.40001
1.40001
2.15404
2.15186
2.14831
2.14556
2.14587
2.15148
2.1544
2.15189
2.14253
2.14557
2.14585
1.97957
1.60386
1.41671
1.40028
1.40001
1.40001
1.40001
1.40001
1.40001
1.40001
1.40001
1.40001
1.40001
1.40001
1.40001
1.40001
1.40001
1.40001
1.40001
1.40001
1.40001
1.40001
1.40001
1.40001
2.15111
2.15073
2.14789
2.14504
2.1433
2.14805
2.1539
2.15797
2.14116
2.127
2.11117
1.87956
1.52566
1.40656
1.40008
1.40001
1.40001
1.40001
1.40001
1.40001
1.40001
1.40001
1.40001
1.40001
1.40001
1.40001
1.40001
1.40001
1.40001
1.40001
1.40001
1.40001
1.40001
1.40001
1.40001
2.14872
2.15026
2.14838
2.14615
2.1425
2.14361
2.15226
2.16063
2.15164
2.11931
2.07773
1.78832
1.46609
1.40209
1.40002
1.40001
1.40001
1.40001
1.40001
1.40001
1.40001
1.40001
1.40001
1.40001
1.40001
1.40001
1.40001
1.40001
1.40001
1.40001
1.40001
1.40001
1.40001
1.40001