/*--------------------------------*- C++ -*----------------------------------*\
  =========                 |
  \\      /  F ield         | OpenFOAM: The Open Source CFD Toolbox
   \\    /   O peration     | Website:  https://openfoam.org
    \\  /    A nd           | Version:  7
     \\/     M anipulation  |
\*---------------------------------------------------------------------------*/
FoamFile
{
    version     2.0;
    format      ascii;
    class       volScalarField;
    location    "3.2";
    object      rho;
}
// * * * * * * * * * * * * * * * * * * * * * * * * * * * * * * * * * * * * * //

dimensions      [1 -3 0 0 0 0 0];

internalField   nonuniform List<scalar> 
11200
(
0.226168
0.319317
0.41432
0.498924
0.566066
0.620295
0.655746
0.683303
0.706629
0.714025
0.73185
0.750362
0.763207
0.785309
0.793665
0.782484
0.764848
0.759627
0.764273
0.767875
0.766798
0.760016
0.756439
0.756221
0.762492
0.774087
0.776495
0.777757
0.799107
0.840192
0.145968
0.149209
0.163452
0.199872
0.255119
0.331071
0.422829
0.509846
0.593093
0.657533
0.710149
0.747689
0.764824
0.759477
0.736704
0.708417
0.694102
0.703198
0.71977
0.728
0.723038
0.712436
0.710075
0.713081
0.723322
0.73504
0.736483
0.739918
0.763016
0.810099
0.155029
0.157793
0.161748
0.162862
0.164183
0.16512
0.173807
0.200667
0.247951
0.336566
0.439473
0.539876
0.623084
0.662353
0.683227
0.696771
0.701488
0.704464
0.703237
0.700192
0.696868
0.691528
0.692546
0.698667
0.705759
0.714734
0.715214
0.718752
0.743752
0.793944
0.166528
0.1694
0.171395
0.172825
0.173957
0.17499
0.175697
0.175369
0.175399
0.176113
0.180224
0.204152
0.263745
0.358063
0.490095
0.615317
0.680128
0.701617
0.692759
0.689695
0.694556
0.695496
0.705861
0.701542
0.701798
0.705201
0.70705
0.713379
0.74403
0.796498
0.178074
0.179169
0.179831
0.18026
0.180243
0.180028
0.179546
0.179517
0.179775
0.180757
0.181748
0.181673
0.180485
0.17802
0.187183
0.245278
0.362855
0.510852
0.592953
0.649307
0.681812
0.70133
0.725601
0.713991
0.716987
0.71638
0.711175
0.71867
0.755562
0.808675
0.183574
0.183525
0.183443
0.183159
0.182526
0.181961
0.18145
0.18119
0.181194
0.181532
0.181806
0.181251
0.179311
0.177517
0.176491
0.175022
0.172712
0.190483
0.273127
0.398692
0.533887
0.654798
0.71089
0.726449
0.743898
0.746341
0.735194
0.740695
0.78387
0.845598
0.183471
0.183122
0.182795
0.182297
0.181838
0.181821
0.181788
0.181536
0.18128
0.181129
0.180924
0.180481
0.179163
0.177607
0.176583
0.175292
0.173317
0.17346
0.174884
0.177459
0.209443
0.304609
0.470283
0.642184
0.718108
0.772964
0.777306
0.79238
0.84296
0.897626
0.178643
0.178054
0.177844
0.17824
0.179252
0.180311
0.181694
0.182107
0.181277
0.180637
0.181022
0.182338
0.18284
0.181913
0.182274
0.184033
0.186787
0.190032
0.194548
0.199668
0.199514
0.202083
0.20704
0.272795
0.41978
0.633026
0.757155
0.79975
0.906722
0.971242
0.174875
0.174879
0.175052
0.175963
0.177931
0.181064
0.18448
0.185367
0.184645
0.182878
0.182552
0.183634
0.186002
0.189805
0.195347
0.201059
0.207523
0.213127
0.220293
0.227105
0.226684
0.225385
0.22638
0.230863
0.238153
0.27535
0.424263
0.605394
0.848667
0.990108
0.176663
0.17681
0.177662
0.179979
0.183287
0.188145
0.193021
0.193853
0.192574
0.18944
0.189067
0.189953
0.195046
0.204186
0.21088
0.215209
0.220178
0.225308
0.233088
0.243262
0.252183
0.257567
0.260144
0.256835
0.255842
0.262079
0.270907
0.285993
0.426249
0.840677
0.192529
0.193337
0.195375
0.19922
0.204281
0.210044
0.216781
0.219183
0.218409
0.216785
0.217395
0.221026
0.228866
0.236112
0.235552
0.234658
0.235625
0.239329
0.245776
0.255396
0.266324
0.275294
0.283655
0.291503
0.292618
0.289303
0.29259
0.306361
0.307594
0.594975
0.215053
0.216762
0.220028
0.225439
0.231278
0.236472
0.243312
0.248281
0.248431
0.248491
0.250378
0.255062
0.262163
0.266227
0.266595
0.267991
0.27159
0.275304
0.277165
0.278212
0.281323
0.289004
0.299684
0.310813
0.319576
0.322344
0.324391
0.32781
0.331511
0.421011
0.252167
0.253889
0.255586
0.257097
0.259142
0.263809
0.272046
0.280847
0.28406
0.28301
0.279156
0.278247
0.280831
0.288156
0.295014
0.299688
0.304707
0.311249
0.316319
0.31746
0.315853
0.315578
0.318506
0.327146
0.337478
0.343906
0.348307
0.352146
0.355423
0.364111
0.297581
0.299891
0.302036
0.304202
0.307392
0.312311
0.319281
0.32339
0.323616
0.319987
0.315327
0.31631
0.32219
0.331137
0.333103
0.332372
0.333786
0.339738
0.348557
0.355906
0.358601
0.35837
0.356801
0.357692
0.361923
0.369158
0.372944
0.379821
0.383247
0.387021
0.353121
0.355877
0.357075
0.356146
0.356183
0.359136
0.362892
0.368586
0.370681
0.370273
0.36916
0.369276
0.371686
0.375456
0.375676
0.375443
0.377389
0.379148
0.381389
0.386172
0.39251
0.398653
0.401693
0.40043
0.400545
0.403554
0.406491
0.407051
0.410799
0.418329
0.415164
0.419367
0.420526
0.416884
0.415214
0.416071
0.417162
0.420161
0.423988
0.42378
0.419917
0.416615
0.416542
0.418266
0.423261
0.430591
0.434639
0.434314
0.433172
0.432524
0.432689
0.43503
0.439938
0.444207
0.444512
0.443275
0.444396
0.44541
0.446117
0.448007
0.493675
0.496165
0.497447
0.49689
0.489169
0.482522
0.483017
0.486655
0.491635
0.493447
0.493294
0.490158
0.487953
0.48786
0.487343
0.487279
0.488072
0.490382
0.491251
0.489943
0.486375
0.482593
0.481495
0.482288
0.484096
0.4846
0.484239
0.484913
0.486129
0.485422
0.579242
0.582042
0.584573
0.585177
0.579078
0.567132
0.562392
0.561692
0.564893
0.567768
0.567708
0.562788
0.555303
0.554731
0.554945
0.554277
0.551917
0.549487
0.545565
0.543877
0.544072
0.54471
0.542945
0.53958
0.537894
0.538032
0.537742
0.53517
0.532453
0.531279
0.68331
0.687239
0.68744
0.685962
0.682299
0.66946
0.656091
0.656127
0.661153
0.661057
0.655291
0.646576
0.644379
0.644197
0.642128
0.636563
0.631663
0.629356
0.626222
0.621604
0.615088
0.611845
0.609424
0.605883
0.600704
0.593816
0.587814
0.582535
0.576961
0.572844
0.809286
0.809679
0.805313
0.803588
0.802745
0.788872
0.768259
0.766832
0.771259
0.769877
0.761407
0.747851
0.744558
0.744039
0.739959
0.730378
0.721019
0.715132
0.709371
0.702607
0.695129
0.687522
0.680136
0.672396
0.664879
0.658697
0.65213
0.646943
0.641081
0.628059
0.952763
0.956593
0.953836
0.94508
0.939529
0.925139
0.904207
0.896491
0.899164
0.898653
0.887226
0.866515
0.861556
0.860217
0.853958
0.841042
0.828147
0.818569
0.810147
0.799684
0.78873
0.77934
0.769947
0.759409
0.749031
0.740027
0.729471
0.718209
0.709331
0.691529
1.11999
1.12698
1.12618
1.11131
1.09688
1.079
1.05697
1.04793
1.05064
1.04841
1.03145
1.00527
0.998661
0.995995
0.985586
0.966947
0.95142
0.938614
0.926132
0.912463
0.897247
0.881839
0.86834
0.854308
0.838981
0.822877
0.808732
0.792634
0.777463
0.756387
1.31759
1.31875
1.31278
1.294
1.27689
1.25522
1.23115
1.22256
1.22382
1.21668
1.1904
1.16272
1.15741
1.15245
1.13558
1.10966
1.09051
1.07537
1.05906
1.04011
1.01927
0.999521
0.981562
0.963119
0.942668
0.922848
0.903729
0.884658
0.866901
0.836073
1.53483
1.53032
1.51837
1.5011
1.48149
1.45243
1.4232
1.41804
1.41723
1.40281
1.36784
1.34294
1.33729
1.32662
1.29938
1.26912
1.24775
1.22789
1.20635
1.18229
1.15513
1.13047
1.10689
1.08292
1.05739
1.03212
1.00763
0.981382
0.959283
0.922408
1.77879
1.76918
1.75602
1.74213
1.71925
1.67782
1.65361
1.651
1.64149
1.61639
1.57157
1.54884
1.53917
1.52022
1.48543
1.45139
1.42457
1.39845
1.36945
1.33891
1.30743
1.2762
1.24673
1.21616
1.18501
1.15346
1.12418
1.09388
1.06594
1.02058
1.9973
1.98969
1.978
1.96513
1.952
1.93203
1.91005
1.89321
1.87617
1.8528
1.82005
1.79245
1.76992
1.74201
1.70617
1.66993
1.63444
1.59904
1.56291
1.52419
1.48562
1.44678
1.40897
1.37044
1.33156
1.29389
1.25678
1.21875
1.18558
1.1303
2.04924
2.04767
2.04513
2.04094
2.03566
2.02979
2.02325
2.01645
2.00897
2.00048
1.98756
1.97401
1.96036
1.94213
1.91821
1.89126
1.86148
1.82767
1.79058
1.74935
1.70507
1.65914
1.61156
1.56251
1.51392
1.46446
1.41667
1.3685
1.32557
1.2562
2.00735
2.01446
2.01633
2.01432
2.00865
2.00727
2.00827
2.00715
2.00663
2.00389
1.99935
1.99467
1.99051
1.98395
1.97474
1.96625
1.9576
1.94593
1.93153
1.91352
1.89084
1.86183
1.82632
1.7838
1.73453
1.68039
1.62232
1.56085
1.50612
1.41682
1.76038
1.78293
1.81408
1.82035
1.82518
1.83705
1.84966
1.86435
1.88809
1.90438
1.90619
1.91269
1.92973
1.93826
1.94092
1.94334
1.94446
1.94219
1.93584
1.92919
1.92188
1.91234
1.90066
1.88623
1.86666
1.84232
1.80922
1.76459
1.71614
1.62129
1.47908
1.48571
1.49656
1.51165
1.52224
1.53287
1.54748
1.56366
1.58306
1.60769
1.62856
1.64929
1.67726
1.70759
1.73502
1.76152
1.78793
1.81216
1.83572
1.85238
1.86584
1.87387
1.87844
1.87715
1.87094
1.85914
1.84574
1.82812
1.80758
1.7586
1.40384
1.40437
1.40509
1.40627
1.40778
1.40941
1.41148
1.41408
1.41735
1.42208
1.42832
1.43522
1.44446
1.45662
1.47192
1.4898
1.51186
1.5375
1.56735
1.60069
1.63537
1.67172
1.70582
1.7391
1.76537
1.78472
1.79853
1.79828
1.79377
1.76845
1.40005
1.40006
1.40007
1.40009
1.40011
1.40014
1.40019
1.40025
1.40034
1.40047
1.40068
1.40098
1.40142
1.40211
1.40318
1.40479
1.40723
1.41091
1.41631
1.42431
1.43543
1.45077
1.47118
1.49628
1.52769
1.56173
1.59854
1.63354
1.66178
1.68664
1.40001
1.40001
1.40001
1.40001
1.40001
1.40001
1.40001
1.40001
1.40001
1.40001
1.40001
1.40001
1.40002
1.40002
1.40004
1.40006
1.4001
1.40018
1.40032
1.40059
1.40108
1.40196
1.40356
1.40628
1.41098
1.41835
1.42962
1.44587
1.46493
1.50118
1.40001
1.40001
1.40001
1.40001
1.40001
1.40001
1.40001
1.40001
1.40001
1.40001
1.40001
1.40001
1.40001
1.40001
1.40001
1.40001
1.40001
1.40001
1.40001
1.40001
1.40001
1.40002
1.40005
1.40009
1.4002
1.40043
1.40091
1.40192
1.40357
1.40937
1.40001
1.40001
1.40001
1.40001
1.40001
1.40001
1.40001
1.40001
1.40001
1.40001
1.40001
1.40001
1.40001
1.40001
1.40001
1.40001
1.40001
1.40001
1.40001
1.40001
1.40001
1.40001
1.40001
1.40001
1.40001
1.40001
1.40001
1.40003
1.40005
1.4002
0.142763
0.144732
0.152067
0.163167
0.176269
0.183616
0.18386
0.179181
0.175169
0.176746
0.192245
0.213865
0.250851
0.295632
0.351091
0.412254
0.489639
0.576753
0.679605
0.805561
0.946244
1.11509
1.31245
1.53997
1.79538
2.01113
2.05193
1.99312
1.73909
1.4692
1.40312
1.40004
1.40001
1.40001
1.40001
0.142738
0.144889
0.15346
0.164437
0.177999
0.183449
0.18378
0.177828
0.176226
0.182199
0.199988
0.221593
0.260929
0.304525
0.360203
0.421319
0.497786
0.592345
0.700497
0.832009
0.987786
1.16516
1.36091
1.58455
1.84724
2.03941
2.0569
1.97466
1.7003
1.45008
1.4017
1.40002
1.40001
1.40001
1.40001
0.140819
0.142909
0.153314
0.164169
0.178142
0.183266
0.183483
0.177279
0.177607
0.185914
0.202972
0.227199
0.266646
0.310811
0.366485
0.430946
0.509911
0.614701
0.740017
0.880119
1.04725
1.23119
1.43458
1.66184
1.90793
2.0594
2.06186
1.96365
1.66388
1.43543
1.40099
1.40001
1.40001
1.40001
1.40001
0.139248
0.14191
0.151858
0.162664
0.177701
0.183159
0.183429
0.177373
0.178884
0.187659
0.202926
0.232702
0.272559
0.321449
0.380252
0.45439
0.546911
0.652483
0.774992
0.917038
1.08253
1.2707
1.48152
1.71848
1.95555
2.07182
2.06475
1.94436
1.61417
1.42309
1.40054
1.40001
1.40001
1.40001
1.40001
0.138688
0.141371
0.150036
0.160288
0.175516
0.183004
0.183088
0.178217
0.181032
0.189973
0.202126
0.240424
0.281964
0.337187
0.40189
0.476487
0.566075
0.667689
0.790436
0.933141
1.10055
1.29528
1.51256
1.75339
1.98674
2.0794
2.06137
1.88831
1.56754
1.41526
1.4003
1.40001
1.40001
1.40001
1.40001
0.138655
0.1413
0.149208
0.159146
0.173467
0.181912
0.18146
0.179009
0.183047
0.192932
0.207405
0.249327
0.29363
0.3487
0.414049
0.484387
0.572293
0.676232
0.799213
0.94785
1.11519
1.31503
1.54086
1.7928
2.02091
2.08551
2.0495
1.84936
1.53705
1.41029
1.40017
1.40001
1.40001
1.40001
1.40001
0.13879
0.141396
0.149125
0.159005
0.172735
0.17989
0.179638
0.180346
0.18421
0.193961
0.214545
0.253591
0.297552
0.351421
0.417167
0.488715
0.574447
0.68606
0.8164
0.977
1.16614
1.373
1.60254
1.85619
2.05751
2.09053
2.04303
1.82127
1.50789
1.40621
1.40009
1.40001
1.40001
1.40001
1.40001
0.139057
0.141548
0.149229
0.159254
0.172715
0.17809
0.178232
0.182046
0.18468
0.193035
0.217526
0.253575
0.297787
0.350553
0.416575
0.493803
0.59505
0.725426
0.878383
1.04887
1.24105
1.45249
1.68512
1.92311
2.08115
2.09341
2.04059
1.77555
1.47461
1.40338
1.40005
1.40001
1.40001
1.40001
1.40001
0.139577
0.142065
0.150854
0.161845
0.173423
0.176614
0.176622
0.182614
0.184036
0.189574
0.219897
0.251241
0.296411
0.350568
0.424598
0.524887
0.644959
0.773088
0.918777
1.08688
1.27877
1.49265
1.72724
1.95962
2.09199
2.09409
2.00779
1.70204
1.45098
1.40195
1.40003
1.40001
1.40001
1.40001
1.40001
0.140078
0.144287
0.15514
0.166366
0.174948
0.175381
0.174021
0.181042
0.183417
0.188533
0.223917
0.254283
0.303964
0.375648
0.464944
0.56021
0.667612
0.791609
0.938046
1.10755
1.30307
1.52377
1.76425
1.99449
2.09967
2.09033
1.96126
1.65615
1.43712
1.40114
1.40002
1.40001
1.40001
1.40001
1.40001
0.140675
0.147455
0.158238
0.169257
0.175666
0.174538
0.171394
0.177622
0.183542
0.190938
0.232478
0.274856
0.332768
0.403731
0.484741
0.57134
0.676229
0.803274
0.953893
1.12923
1.33229
1.563
1.81606
2.03868
2.1063
2.08268
1.9352
1.61909
1.42476
1.4006
1.40001
1.40001
1.40001
1.40001
1.40001
0.1416
0.149738
0.158936
0.170698
0.175688
0.173912
0.170094
0.176073
0.184735
0.203862
0.247931
0.294255
0.348573
0.411724
0.489132
0.577328
0.68403
0.824507
0.993597
1.19304
1.4155
1.6529
1.89576
2.07675
2.11062
2.08284
1.91112
1.56936
1.41432
1.40029
1.40001
1.40001
1.40001
1.40001
1.40001
0.142833
0.150788
0.158829
0.171894
0.175431
0.172927
0.169826
0.175914
0.189775
0.217037
0.256301
0.301392
0.353026
0.413953
0.490622
0.590893
0.728072
0.891627
1.07143
1.27003
1.48715
1.72011
1.94734
2.09591
2.11275
2.07965
1.84701
1.51902
1.40826
1.40014
1.40001
1.40001
1.40001
1.40001
1.40001
0.144201
0.151054
0.158689
0.173067
0.174852
0.172386
0.171236
0.178143
0.191935
0.222516
0.258095
0.303024
0.355395
0.417592
0.512853
0.643171
0.785569
0.937346
1.1104
1.30736
1.52654
1.76113
1.9832
2.10754
2.11273
2.04275
1.77398
1.4877
1.40498
1.40007
1.40001
1.40001
1.40001
1.40001
1.40001
0.145425
0.150885
0.157947
0.173492
0.174498
0.172354
0.174879
0.179548
0.191672
0.223279
0.257563
0.303306
0.361849
0.450721
0.565095
0.680782
0.809142
0.958622
1.13478
1.33641
1.56442
1.80927
2.02628
2.11705
2.10816
2.00761
1.73007
1.46453
1.40278
1.40004
1.40001
1.40001
1.40001
1.40001
1.40001
0.146103
0.148415
0.154603
0.172992
0.175205
0.174142
0.174632
0.177411
0.189047
0.222633
0.257177
0.31762
0.395304
0.489478
0.587532
0.694031
0.822405
0.977884
1.16664
1.38871
1.63429
1.88496
2.07223
2.12254
2.1045
1.98677
1.68499
1.44186
1.40139
1.40002
1.40001
1.40001
1.40001
1.40001
1.40001
0.145451
0.144659
0.152485
0.172433
0.175895
0.17432
0.171212
0.173117
0.188986
0.22414
0.278665
0.34637
0.416229
0.499378
0.594051
0.70431
0.849132
1.03903
1.25444
1.49153
1.73206
1.95465
2.10091
2.12531
2.10724
1.96583
1.6179
1.42462
1.40066
1.40001
1.40001
1.40001
1.40001
1.40001
1.40001
0.142028
0.141443
0.151994
0.173157
0.17574
0.173955
0.169217
0.172368
0.199055
0.24145
0.296184
0.355361
0.420987
0.500377
0.60051
0.746894
0.931481
1.12685
1.33428
1.5575
1.78763
1.99532
2.11617
2.12696
2.09962
1.89072
1.55798
1.41453
1.40032
1.40001
1.40001
1.40001
1.40001
1.40001
1.40001
0.137905
0.139859
0.151798
0.173334
0.174935
0.173117
0.169272
0.174618
0.213847
0.252353
0.300522
0.35537
0.424465
0.506285
0.652884
0.822218
0.989378
1.17139
1.37611
1.60141
1.83511
2.03455
2.12571
2.12636
2.06253
1.81874
1.5179
1.40854
1.40015
1.40001
1.40001
1.40001
1.40001
1.40001
1.40001
0.135839
0.139879
0.151567
0.170068
0.171287
0.17054
0.170244
0.17877
0.2222
0.256152
0.305252
0.356357
0.437307
0.567555
0.71734
0.860067
1.01695
1.20167
1.41805
1.65769
1.90134
2.07795
2.13123
2.11941
2.02962
1.77165
1.48515
1.40459
1.40007
1.40001
1.40001
1.40001
1.40001
1.40001
1.40001
0.135808
0.141032
0.149733
0.162415
0.165884
0.167817
0.17062
0.181418
0.225516
0.25923
0.315695
0.395335
0.497527
0.621329
0.743424
0.878271
1.04512
1.25615
1.50284
1.75644
1.97842
2.10912
2.13407
2.11377
2.00857
1.71842
1.45434
1.40224
1.40003
1.40001
1.40001
1.40001
1.40001
1.40001
1.40001
0.136897
0.141694
0.147295
0.157961
0.162225
0.166033
0.17185
0.18389
0.227874
0.275008
0.344334
0.443663
0.536467
0.638883
0.758093
0.911826
1.12565
1.36644
1.60894
1.8386
2.02802
2.12676
2.13596
2.11668
1.98561
1.64121
1.43173
1.40101
1.40002
1.40001
1.40001
1.40001
1.40001
1.40001
1.40001
0.141437
0.143217
0.146861
0.157471
0.16145
0.165503
0.176238
0.193521
0.240489
0.303838
0.375109
0.461565
0.546087
0.645303
0.795263
1.00714
1.22185
1.44267
1.67218
1.89271
2.06518
2.13641
2.13837
2.11197
1.90651
1.57504
1.41812
1.40045
1.40001
1.40001
1.40001
1.40001
1.40001
1.40001
1.40001
0.146936
0.145514
0.147425
0.15902
0.166164
0.167979
0.17914
0.207474
0.253766
0.316054
0.383358
0.460651
0.550154
0.67735
0.885894
1.07933
1.27534
1.49444
1.73215
1.95443
2.10079
2.14033
2.13799
2.07198
1.83133
1.52731
1.40999
1.4002
1.40001
1.40001
1.40001
1.40001
1.40001
1.40001
1.40001
0.148262
0.145632
0.150044
0.165612
0.172497
0.171847
0.179408
0.214053
0.257844
0.316193
0.386194
0.455005
0.575858
0.771398
0.949597
1.12149
1.32326
1.56552
1.82241
2.02519
2.12495
2.14145
2.1265
2.03273
1.77602
1.48808
1.40511
1.40008
1.40001
1.40001
1.40001
1.40001
1.40001
1.40001
1.40001
0.147087
0.142877
0.156624
0.172371
0.173038
0.171648
0.175956
0.214984
0.261695
0.313795
0.389784
0.503184
0.672403
0.83212
0.985825
1.17168
1.41936
1.68532
1.91707
2.0747
2.13745
2.1419
2.115
2.00482
1.71354
1.45452
1.40238
1.40004
1.40001
1.40001
1.40001
1.40001
1.40001
1.40001
1.40001
0.140879
0.140755
0.163573
0.173689
0.167518
0.165707
0.173607
0.21334
0.266281
0.339495
0.434863
0.590496
0.729419
0.864394
1.03682
1.28513
1.54162
1.77923
1.9778
2.10646
2.1443
2.14336
2.11554
1.97345
1.63122
1.4304
1.40099
1.40002
1.40001
1.40001
1.40001
1.40001
1.40001
1.40001
1.40001
0.13619
0.141144
0.166829
0.172156
0.16183
0.160095
0.177536
0.225964
0.295086
0.395871
0.506208
0.632343
0.751584
0.90376
1.14986
1.39101
1.6233
1.84674
2.02974
2.13013
2.14722
2.14447
2.11088
1.88807
1.56024
1.41575
1.40039
1.40001
1.40001
1.40001
1.40001
1.40001
1.40001
1.40001
1.40001
0.135277
0.143499
0.167428
0.169969
0.160218
0.160443
0.199506
0.260466
0.336602
0.432848
0.531094
0.643624
0.779009
1.00662
1.24655
1.46549
1.69864
1.92568
2.08143
2.14264
2.14755
2.1396
2.05708
1.79918
1.50768
1.40777
1.40015
1.40001
1.40001
1.40001
1.40001
1.40001
1.40001
1.40001
1.40001
0.135849
0.148675
0.167721
0.16383
0.159133
0.167948
0.226422
0.282791
0.351441
0.441222
0.542981
0.660174
0.876667
1.11171
1.32023
1.55067
1.80577
2.01022
2.1156
2.14693
2.14543
2.12394
2.00688
1.73288
1.46929
1.40368
1.40006
1.40001
1.40001
1.40001
1.40001
1.40001
1.40001
1.40001
1.40001
0.138623
0.150787
0.165916
0.155909
0.153368
0.177674
0.238862
0.290787
0.359524
0.440249
0.566811
0.770793
0.996239
1.18793
1.4084
1.67776
1.91178
2.06735
2.13442
2.14794
2.14263
2.10564
1.97
1.66453
1.43977
1.40154
1.40002
1.40001
1.40001
1.40001
1.40001
1.40001
1.40001
1.40001
1.40001
0.141126
0.148738
0.15553
0.148953
0.148551
0.183877
0.24151
0.293459
0.374839
0.493103
0.671246
0.886197
1.0662
1.26569
1.5419
1.79132
1.98595
2.10511
2.146
2.14889
2.1445
2.10202
1.92616
1.58256
1.41967
1.40055
1.40001
1.40001
1.40001
1.40001
1.40001
1.40001
1.40001
1.40001
1.40001
0.139442
0.136813
0.146185
0.144407
0.152022
0.197598
0.246729
0.321661
0.436723
0.592884
0.765295
0.942382
1.12757
1.39294
1.66034
1.88245
2.04764
2.13208
2.15211
2.15223
2.14595
2.09569
1.82676
1.51289
1.40862
1.40019
1.40001
1.40001
1.40001
1.40001
1.40001
1.40001
1.40001
1.40001
1.40001
0.13097
0.128469
0.144503
0.143387
0.167172
0.228677
0.286446
0.378038
0.498201
0.650414
0.813166
0.994365
1.24896
1.52663
1.76768
1.9732
2.09726
2.14727
2.15429
2.1536
2.13744
2.01697
1.71945
1.46582
1.40357
1.40006
1.40001
1.40001
1.40001
1.40001
1.40001
1.40001
1.40001
1.40001
1.40001
0.124658
0.127579
0.146145
0.151509
0.182894
0.245943
0.310353
0.413637
0.538176
0.690188
0.875636
1.12447
1.41057
1.65267
1.88248
2.05076
2.12755
2.15405
2.1544
2.14939
2.10899
1.93973
1.64109
1.43709
1.40147
1.40002
1.40001
1.40001
1.40001
1.40001
1.40001
1.40001
1.40001
1.40001
1.40001
0.122196
0.129676
0.151016
0.162185
0.188614
0.242189
0.317897
0.439843
0.591231
0.767902
1.01415
1.30663
1.54696
1.77862
1.98465
2.10051
2.14424
2.15596
2.15233
2.13651
2.07656
1.88299
1.57163
1.4181
1.40052
1.40001
1.40001
1.40001
1.40001
1.40001
1.40001
1.40001
1.40001
1.40001
1.40001
0.123294
0.132496
0.151043
0.164986
0.189082
0.228991
0.328807
0.493642
0.686827
0.922506
1.18878
1.43587
1.66855
1.89865
2.0587
2.12929
2.15184
2.15581
2.15145
2.13078
2.05377
1.80923
1.50065
1.40722
1.40016
1.40001
1.40001
1.40001
1.40001
1.40001
1.40001
1.40001
1.40001
1.40001
1.40001
0.136159
0.136053
0.14322
0.154907
0.192063
0.257152
0.431425
0.609573
0.814279
1.05847
1.3088
1.55464
1.80749
1.99635
2.11027
2.14393
2.15333
2.1544
2.153
2.1362
2.02112
1.68661
1.44908
1.4024
1.40004
1.40001
1.40001
1.40001
1.40001
1.40001
1.40001
1.40001
1.40001
1.40001
1.40001
0.149219
0.13669
0.13635
0.136593
0.206017
0.359655
0.537009
0.710992
0.928406
1.17759
1.44379
1.72092
1.93818
2.07077
2.14072
2.14953
2.15238
2.15323
2.15248
2.11843
1.90465
1.5828
1.42249
1.40075
1.40001
1.40001
1.40001
1.40001
1.40001
1.40001
1.40001
1.40001
1.40001
1.40001
1.40001
0.151527
0.131872
0.134729
0.134108
0.256536
0.447326
0.600774
0.803328
1.06576
1.34905
1.64102
1.88487
2.03813
2.11561
2.15353
2.15131
2.15172
2.15074
2.14285
2.05446
1.80263
1.51621
1.40979
1.40024
1.40001
1.40001
1.40001
1.40001
1.40001
1.40001
1.40001
1.40001
1.40001
1.40001
1.40001
0.143745
0.11046
0.134385
0.18426
0.345628
0.507092
0.679765
0.95896
1.25978
1.56514
1.8242
2.00151
2.09942
2.13587
2.15694
2.15214
2.15317
2.14661
2.1188
2.00077
1.72106
1.46475
1.40355
1.40007
1.40001
1.40001
1.40001
1.40001
1.40001
1.40001
1.40001
1.40001
1.40001
1.40001
1.40001
0.133697
0.101666
0.142489
0.265477
0.41041
0.574196
0.868256
1.18184
1.48192
1.75317
1.95434
2.08129
2.13075
2.14335
2.15803
2.15191
2.15606
2.1476
2.09922
1.94068
1.615
1.42727
1.40101
1.40002
1.40001
1.40001
1.40001
1.40001
1.40001
1.40001
1.40001
1.40001
1.40001
1.40001
1.40001
0.124411
0.101187
0.152867
0.321591
0.494714
0.759106
1.09744
1.40259
1.68806
1.91253
2.05653
2.12945
2.14253
2.1453
2.15864
2.15088
2.15738
2.15356
2.0918
1.82616
1.50896
1.40896
1.40023
1.40001
1.40001
1.40001
1.40001
1.40001
1.40001
1.40001
1.40001
1.40001
1.40001
1.40001
1.40001
0.0973775
0.127104
0.20054
0.386976
0.654298
1.01646
1.33779
1.63731
1.87898
2.03984
2.12085
2.14841
2.14469
2.14538
2.16004
2.15185
2.15672
2.14718
2.01314
1.67672
1.44924
1.40264
1.40005
1.40001
1.40001
1.40001
1.40001
1.40001
1.40001
1.40001
1.40001
1.40001
1.40001
1.40001
1.40001
0.0613649
0.145753
0.29985
0.551993
0.915769
1.28385
1.60285
1.85905
2.02683
2.11253
2.14686
2.15147
2.14477
2.14568
2.16244
2.15548
2.14832
2.09645
1.87796
1.571
1.42081
1.4007
1.40001
1.40001
1.40001
1.40001
1.40001
1.40001
1.40001
1.40001
1.40001
1.40001
1.40001
1.40001
1.40001
0.030594
0.154403
0.432319
0.841426
1.25129
1.58303
1.85337
2.02149
2.10844
2.14333
2.15435
2.15127
2.14391
2.14596
2.16499
2.15681
2.13407
2.03206
1.77284
1.49441
1.40674
1.40016
1.40001
1.40001
1.40001
1.40001
1.40001
1.40001
1.40001
1.40001
1.40001
1.40001
1.40001
1.40001
1.40001
0.0240326
0.234718
0.736981
1.20672
1.58593
1.86802
2.02962
2.10906
2.14145
2.15319
2.15532
2.15014
2.14376
2.14839
2.16729
2.15256
2.12045
1.97107
1.65051
1.4358
1.40154
1.40003
1.40001
1.40001
1.40001
1.40001
1.40001
1.40001
1.40001
1.40001
1.40001
1.40001
1.40001
1.40001
1.40001
0.163016
0.622575
1.16705
1.60188
1.89026
2.04907
2.11773
2.14132
2.14996
2.15509
2.15501
2.14925
2.14453
2.15227
2.16809
2.13895
2.10222
1.85716
1.51629
1.40919
1.40025
1.40001
1.40001
1.40001
1.40001
1.40001
1.40001
1.40001
1.40001
1.40001
1.40001
1.40001
1.40001
1.40001
1.40001
0.502994
1.0836
1.63636
1.94546
2.08293
2.1313
2.14477
2.14765
2.15104
2.15536
2.15511
2.14924
2.14608
2.15508
2.16743
2.12545
2.01279
1.67424
1.44192
1.40182
1.40003
1.40001
1.40001
1.40001
1.40001
1.40001
1.40001
1.40001
1.40001
1.40001
1.40001
1.40001
1.40001
1.40001
1.40001
1.20864
1.71285
2.01158
2.11587
2.14463
2.14908
2.14828
2.14793
2.15132
2.15666
2.15645
2.15013
2.14719
2.15609
2.15984
2.09181
1.87933
1.54168
1.41149
1.4002
1.40001
1.40001
1.40001
1.40001
1.40001
1.40001
1.40001
1.40001
1.40001
1.40001
1.40001
1.40001
1.40001
1.40001
1.40001
2.14915
2.15081
2.15193
2.15273
2.15259
2.14938
2.14708
2.14774
2.15342
2.1595
2.1582
2.1511
2.14712
2.15568
2.14608
2.02764
1.73346
1.44222
1.39952
1.39995
1.4
1.40001
1.40001
1.40001
1.40001
1.40001
1.40001
1.40001
1.40001
1.40001
1.40001
1.40001
1.40001
1.40001
1.40001
2.14784
2.14943
2.15111
2.15196
2.15243
2.14969
2.14683
2.14648
2.15113
2.16016
2.16081
2.15541
2.14241
2.14584
2.14803
2.03373
1.688
1.44124
1.40139
1.40002
1.40001
1.40001
1.40001
1.40001
1.40001
1.40001
1.40001
1.40001
1.40001
1.40001
1.40001
1.40001
1.40001
1.40001
1.40001
2.14756
2.14836
2.15029
2.1515
2.15188
2.15002
2.14705
2.14637
2.14931
2.15846
2.16099
2.15859
2.14003
2.13659
2.13692
1.96305
1.58691
1.41391
1.4002
1.40001
1.40001
1.40001
1.40001
1.40001
1.40001
1.40001
1.40001
1.40001
1.40001
1.40001
1.40001
1.40001
1.40001
1.40001
1.40001
2.14798
2.14824
2.14966
2.15061
2.15127
2.1509
2.14839
2.14693
2.14779
2.15393
2.15951
2.16066
2.14055
2.12461
2.11708
1.88304
1.52867
1.40698
1.40008
1.40001
1.40001
1.40001
1.40001
1.40001
1.40001
1.40001
1.40001
1.40001
1.40001
1.40001
1.40001
1.40001
1.40001
1.40001
1.40001
2.15001
2.1494
2.14959
2.14991
2.15069
2.15193
2.15169
2.14921
2.14735
2.14895
2.15597
2.16163
2.14793
2.1212
2.09475
1.80551
1.47791
1.40265
1.40003
1.40001
1.40001
1.40001
1.40001
1.40001
1.40001
1.40001
1.40001
1.40001
1.40001
1.40001
1.40001
1.40001
1.40001
1.40001
1.40001
2.15295
2.15159
2.15025
2.14959
2.15003
2.15247
2.15437
2.15241
2.14767
2.14573
2.15263
2.16267
2.15642
2.12125
2.05449
1.70826
1.44008
1.401
1.40001
1.40001
1.40001
1.40001
1.40001
1.40001
1.40001
1.40001
1.40001
1.40001
1.40001
1.40001
1.40001
1.40001
1.40001
1.40001
1.40001
2.15467
2.15281
2.15052
2.14929
2.14949
2.15274
2.15559
2.15525
2.14883
2.14414
2.15001
2.16602
2.16057
2.11264
1.97336
1.61954
1.4196
1.40034
1.40001
1.40001
1.40001
1.40001
1.40001
1.40001
1.40001
1.40001
1.40001
1.40001
1.40001
1.40001
1.40001
1.40001
1.40001
1.40001
1.40001
2.1553
2.15339
2.15075
2.1488
2.14857
2.15232
2.15599
2.1567
2.15002
2.14323
2.14679
2.16606
2.16076
2.10266
1.91083
1.55272
1.4091
1.40011
1.40001
1.40001
1.40001
1.40001
1.40001
1.40001
1.40001
1.40001
1.40001
1.40001
1.40001
1.40001
1.40001
1.40001
1.40001
1.40001
1.40001
2.15468
2.15323
2.15072
2.14857
2.14782
2.15084
2.15566
2.15706
2.15169
2.14282
2.14375
2.15902
2.15611
2.08467
1.83237
1.48849
1.40347
1.40004
1.40001
1.40001
1.40001
1.40001
1.40001
1.40001
1.40001
1.40001
1.40001
1.40001
1.40001
1.40001
1.40001
1.40001
1.40001
1.40001
1.40001
2.15149
2.15164
2.1501
2.149
2.14757
2.14847
2.15232
2.15601
2.15393
2.14575
2.14305
2.15507
2.14785
2.03311
1.73113
1.44669
1.40126
1.40001
1.40001
1.40001
1.40001
1.40001
1.40001
1.40001
1.40001
1.40001
1.40001
1.40001
1.40001
1.40001
1.40001
1.40001
1.40001
1.40001
1.40001
2.14871
2.15008
2.14971
2.14981
2.14789
2.14728
2.14825
2.15358
2.1554
2.15042
2.14445
2.15308
2.14399
1.987
1.64188
1.42357
1.40043
1.40001
1.40001
1.40001
1.40001
1.40001
1.40001
1.40001
1.40001
1.40001
1.40001
1.40001
1.40001
1.40001
1.40001
1.40001
1.40001
1.40001
1.40001
2.14703
2.14931
2.15017
2.15119
2.14957
2.14688
2.14554
2.15028
2.15558
2.15762
2.1462
2.14411
2.13387
1.92556
1.55407
1.40958
1.40013
1.40001
1.40001
1.40001
1.40001
1.40001
1.40001
1.40001
1.40001
1.40001
1.40001
1.40001
1.40001
1.40001
1.40001
1.40001
1.40001
1.40001
1.40001
2.14653
2.14907
2.15094
2.15292
2.15199
2.14696
2.14473
2.14666
2.15601
2.16302
2.15076
2.12463
2.0909
1.82826
1.48986
1.40364
1.40004
1.40001
1.40001
1.40001
1.40001
1.40001
1.40001
1.40001
1.40001
1.40001
1.40001
1.40001
1.40001
1.40001
1.40001
1.40001
1.40001
1.40001
1.40001
2.14796
2.14949
2.15188
2.15403
2.15369
2.14906
2.14439
2.14471
2.15442
2.16482
2.15675
2.11549
2.04897
1.74022
1.44989
1.40133
1.40001
1.40001
1.40001
1.40001
1.40001
1.40001
1.40001
1.40001
1.40001
1.40001
1.40001
1.40001
1.40001
1.40001
1.40001
1.40001
1.40001
1.40001
1.40001
2.1512
2.15074
2.15277
2.15427
2.15419
2.15147
2.14558
2.14387
2.15203
2.16504
2.15895
2.11275
2.00258
1.63603
1.42185
1.40039
1.40001
1.40001
1.40001
1.40001
1.40001
1.40001
1.40001
1.40001
1.40001
1.40001
1.40001
1.40001
1.40001
1.40001
1.40001
1.40001
1.40001
1.40001
1.40001
2.1537
2.15232
2.15281
2.15347
2.15398
2.15296
2.14732
2.14454
2.15002
2.16308
2.15578
2.0923
1.91469
1.54647
1.40899
1.40012
1.40001
1.40001
1.40001
1.40001
1.40001
1.40001
1.40001
1.40001
1.40001
1.40001
1.40001
1.40001
1.40001
1.40001
1.40001
1.40001
1.40001
1.40001
1.40001
2.15559
2.15332
2.15177
2.15076
2.15238
2.15365
2.14991
2.14648
2.1484
2.16221
2.15383
2.06625
1.81867
1.48594
1.40332
1.40004
1.40001
1.40001
1.40001
1.40001
1.40001
1.40001
1.40001
1.40001
1.40001
1.40001
1.40001
1.40001
1.40001
1.40001
1.40001
1.40001
1.40001
1.40001
1.40001
2.15627
2.15347
2.14957
2.14688
2.14896
2.15286
2.1531
2.14806
2.14511
2.15837
2.1546
2.04516
1.71194
1.44014
1.40098
1.40001
1.40001
1.40001
1.40001
1.40001
1.40001
1.40001
1.40001
1.40001
1.40001
1.40001
1.40001
1.40001
1.40001
1.40001
1.40001
1.40001
1.40001
1.40001
1.40001
2.15498
2.15241
2.14827
2.14495
2.1452
2.15119
2.15426
2.15192
2.13986
2.14044
2.14156
1.9745
1.60484
1.41692
1.40028
1.40001
1.40001
1.40001
1.40001
1.40001
1.40001
1.40001
1.40001
1.40001
1.40001
1.40001
1.40001
1.40001
1.40001
1.40001
1.40001
1.40001
1.40001
1.40001
1.40001
2.15195
2.15111
2.14801
2.14434
2.14272
2.14783
2.15429
2.1581
2.1398
2.12489
2.11187
1.88412
1.52806
1.40665
1.40008
1.40001
1.40001
1.40001
1.40001
1.40001
1.40001
1.40001
1.40001
1.40001
1.40001
1.40001
1.40001
1.40001
1.40001
1.40001
1.40001
1.40001
1.40001
1.40001
1.40001
2.14912
2.15045
2.14845
2.14598
2.14208
2.14394
2.15301
2.16037
2.15109
2.11909
2.08514
1.78832
1.46478
1.40205
1.40002
1.40001
1.40001
1.40001
1.40001
1.40001
1.40001
1.40001
1.40001
1.40001
1.40001
1.40001
1.40001
1.40001
1.40001
1.40001
1.40001
1.40001