/*--------------------------------*- C++ -*----------------------------------*\
  =========                 |
  \\      /  F ield         | OpenFOAM: The Open Source CFD Toolbox
   \\    /   O peration     | Website:  https://openfoam.org
    \\  /    A nd           | Version:  7
     \\/     M anipulation  |
\*---------------------------------------------------------------------------*/
FoamFile
{
    version     2.0;
    format      ascii;
    class       volVectorField;
    location    "3.5";
    object      U;
}
// * * * * * * * * * * * * * * * * * * * * * * * * * * * * * * * * * * * * * //

dimensions      [0 1 -1 0 0 0 0];

internalField   nonuniform List<vector> 
90000
(
(5.06435 -0.911274 0)
(5.05091 -0.839339 0)
(5.04002 -0.780125 0)
(5.03059 -0.720264 0)
(5.02494 -0.688701 0)
(5.01477 -0.61165 0)
(5.01058 -0.583309 0)
(5.00516 -0.532695 0)
(5.00274 -0.510376 0)
(4.9964 -0.452955 0)
(4.99488 -0.437116 0)
(4.99014 -0.386032 0)
(4.98993 -0.374787 0)
(4.98472 -0.32415 0)
(4.98472 -0.316574 0)
(4.97991 -0.269061 0)
(4.9807 -0.262876 0)
(4.97595 -0.217679 0)
(4.977 -0.213936 0)
(4.97211 -0.170201 0)
(4.97359 -0.170484 0)
(4.96891 -0.12991 0)
(4.97022 -0.131128 0)
(4.96562 -0.0947566 0)
(4.96678 -0.0978858 0)
(4.96292 -0.0652947 0)
(4.96405 -0.069992 0)
(4.96109 -0.0425963 0)
(4.96215 -0.0486254 0)
(4.96003 -0.0262883 0)
(4.96055 -0.0322978 0)
(4.95953 -0.0161388 0)
(4.96028 -0.0223442 0)
(4.96027 -0.0103224 0)
(4.96119 -0.0162731 0)
(4.96155 -0.00858383 0)
(4.9629 -0.0137673 0)
(4.96194 -0.00612483 0)
(4.96281 -0.00795027 0)
(4.96186 -0.00309138 0)
(4.96284 -0.00460847 0)
(4.96081 -0.00171675 0)
(4.96023 0.000804934 0)
(4.95838 0.00327609 0)
(4.95651 0.00981464 0)
(4.95296 0.0104931 0)
(4.94765 0.0270212 0)
(4.94087 0.021549 0)
(4.94564 0.0361775 0)
(4.94567 0.0366715 0)
(4.94461 0.0337175 0)
(4.94368 0.0300319 0)
(4.94269 0.0246596 0)
(4.94255 0.0204734 0)
(4.94278 0.0155148 0)
(4.94337 0.013926 0)
(4.94377 0.0124191 0)
(4.94362 0.0126809 0)
(4.94372 0.0118436 0)
(4.94423 0.0132134 0)
(4.94522 0.0156316 0)
(4.94772 0.0251366 0)
(4.94864 0.025954 0)
(4.95016 0.0349791 0)
(4.95118 0.0337856 0)
(4.9512 0.0336563 0)
(4.95081 0.0290592 0)
(4.95007 0.0234046 0)
(4.94906 0.0166931 0)
(4.94798 0.0114822 0)
(4.94814 0.00890394 0)
(4.94885 0.0111438 0)
(4.95032 0.0153387 0)
(4.95204 0.0219261 0)
(4.95292 0.0269067 0)
(4.95262 0.0275796 0)
(4.95211 0.0260326 0)
(4.95089 0.0203277 0)
(4.95077 0.0187492 0)
(4.95123 0.0144314 0)
(4.95151 0.0167469 0)
(4.95251 0.0203103 0)
(4.95326 0.0200649 0)
(4.95337 0.0208419 0)
(4.95292 0.0208682 0)
(4.95253 0.0175936 0)
(4.95271 0.0156705 0)
(4.95314 0.0164672 0)
(4.95363 0.0186128 0)
(4.95424 0.0193979 0)
(4.95417 0.0188512 0)
(4.95388 0.0165533 0)
(4.95389 0.0164814 0)
(4.9542 0.017612 0)
(4.95459 0.0192775 0)
(4.95531 0.0211774 0)
(4.95545 0.021219 0)
(4.95573 0.0216659 0)
(4.95605 0.0221956 0)
(4.95634 0.02242 0)
(5.07564 -0.959388 0)
(5.0757 -0.959203 0)
(5.07573 -0.959214 0)
(5.07576 -0.959358 0)
(5.07581 -0.959148 0)
(5.07587 -0.95906 0)
(5.07588 -0.958998 0)
(5.07582 -0.958535 0)
(5.07563 -0.957571 0)
(5.07523 -0.955714 0)
(5.07459 -0.952669 0)
(5.07374 -0.948087 0)
(5.07265 -0.942857 0)
(5.07094 -0.933779 0)
(5.06895 -0.924624 0)
(5.06619 -0.909481 0)
(5.06328 -0.895767 0)
(5.05932 -0.87263 0)
(5.05547 -0.853431 0)
(5.05037 -0.821282 0)
(5.0459 -0.797637 0)
(5.03967 -0.754949 0)
(5.03487 -0.727798 0)
(5.02753 -0.673714 0)
(5.02303 -0.645431 0)
(5.0151 -0.582045 0)
(5.01159 -0.555765 0)
(5.0028 -0.484689 0)
(5.00067 -0.46224 0)
(4.99131 -0.385933 0)
(4.99137 -0.370215 0)
(4.98069 -0.289781 0)
(4.9825 -0.278591 0)
(4.97127 -0.20117 0)
(4.975 -0.193067 0)
(4.96333 -0.119192 0)
(4.96874 -0.11529 0)
(4.95694 -0.0493697 0)
(4.96324 -0.0464002 0)
(4.95207 0.00729197 0)
(4.95881 0.010161 0)
(4.94784 0.050642 0)
(4.95309 0.0581669 0)
(4.94382 0.0860453 0)
(4.94277 0.0945448 0)
(4.94054 0.112929 0)
(4.93619 0.11102 0)
(4.93311 0.100845 0)
(4.9366 0.077697 0)
(4.93465 0.0478546 0)
(4.93842 0.0366798 0)
(4.93829 0.0244234 0)
(4.94001 0.020332 0)
(4.9402 0.0158461 0)
(4.94085 0.010913 0)
(4.94128 0.0106302 0)
(4.94215 0.0105593 0)
(4.94292 0.0104969 0)
(4.94384 0.0128429 0)
(4.94585 0.0223837 0)
(4.94651 0.0280137 0)
(4.94803 0.037633 0)
(4.94807 0.0376965 0)
(4.94779 0.0372004 0)
(4.94686 0.0343024 0)
(4.94548 0.0278736 0)
(4.94479 0.0204831 0)
(4.9448 0.0145006 0)
(4.94547 0.010214 0)
(4.94582 0.00964914 0)
(4.94705 0.0125183 0)
(4.94899 0.0184454 0)
(4.95087 0.026503 0)
(4.95104 0.0282083 0)
(4.95091 0.0274696 0)
(4.95015 0.0244279 0)
(4.94918 0.0197517 0)
(4.94849 0.0122702 0)
(4.9483 0.0134299 0)
(4.94906 0.0167698 0)
(4.94874 0.0187834 0)
(4.95124 0.026852 0)
(4.95166 0.0270271 0)
(4.95083 0.0223194 0)
(4.95053 0.0160638 0)
(4.94961 0.0162656 0)
(4.95012 0.0180853 0)
(4.95092 0.0212642 0)
(4.95161 0.0240426 0)
(4.95151 0.0234117 0)
(4.95091 0.0202451 0)
(4.95067 0.0174713 0)
(4.95094 0.017525 0)
(4.95134 0.0195682 0)
(4.95204 0.021248 0)
(4.95231 0.0215198 0)
(4.9525 0.0208466 0)
(4.95269 0.0211385 0)
(4.95307 0.0216233 0)
(4.95326 0.0218229 0)
(5.07736 -0.959952 0)
(5.07747 -0.959785 0)
(5.07758 -0.959718 0)
(5.07761 -0.959987 0)
(5.07771 -0.960011 0)
(5.07787 -0.959799 0)
(5.07791 -0.960252 0)
(5.07809 -0.95995 0)
(5.07816 -0.960249 0)
(5.07835 -0.960083 0)
(5.07843 -0.960489 0)
(5.07861 -0.960514 0)
(5.07877 -0.960345 0)
(5.07893 -0.960049 0)
(5.07908 -0.96001 0)
(5.07927 -0.959835 0)
(5.0794 -0.959967 0)
(5.07956 -0.959893 0)
(5.07972 -0.959753 0)
(5.07989 -0.959568 0)
(5.07996 -0.959939 0)
(5.0801 -0.959719 0)
(5.08018 -0.959776 0)
(5.08036 -0.959496 0)
(5.08045 -0.959816 0)
(5.08047 -0.959302 0)
(5.08029 -0.958089 0)
(5.07978 -0.954861 0)
(5.07892 -0.950062 0)
(5.07713 -0.940326 0)
(5.07488 -0.928315 0)
(5.07103 -0.907072 0)
(5.06693 -0.88437 0)
(5.06065 -0.846576 0)
(5.05499 -0.8123 0)
(5.04675 -0.755335 0)
(5.04081 -0.713091 0)
(5.03126 -0.636543 0)
(5.02661 -0.594322 0)
(5.0166 -0.503227 0)
(5.0147 -0.470195 0)
(5.00459 -0.373515 0)
(5.0055 -0.353024 0)
(4.9966 -0.26249 0)
(4.99825 -0.250767 0)
(4.99246 -0.181204 0)
(4.99869 -0.169345 0)
(4.98716 -0.123551 0)
(4.99757 -0.105749 0)
(4.97926 -0.0561531 0)
(4.97958 -0.0495271 0)
(4.96952 -0.0263556 0)
(4.97065 -0.0206263 0)
(4.96493 -0.00851461 0)
(4.96216 4.23259e-05 0)
(4.9606 0.00784576 0)
(4.95899 0.0149455 0)
(4.95679 0.0229381 0)
(4.95102 0.031574 0)
(4.94881 0.0452653 0)
(4.94851 0.0454172 0)
(4.94749 0.0426788 0)
(4.94494 0.0352655 0)
(4.94431 0.0278774 0)
(4.94252 0.0153884 0)
(4.94345 0.0101811 0)
(4.94349 0.00297925 0)
(4.9438 0.00184533 0)
(4.94475 0.00494741 0)
(4.94658 0.0124493 0)
(4.94901 0.0234392 0)
(4.95032 0.0281779 0)
(4.9509 0.0320816 0)
(4.95046 0.030991 0)
(4.94928 0.0253834 0)
(4.94741 0.0160586 0)
(4.94691 0.00801019 0)
(4.94758 0.00702745 0)
(4.94866 0.0116604 0)
(4.95 0.018183 0)
(4.95048 0.0233619 0)
(4.95052 0.0243684 0)
(4.95013 0.0222367 0)
(4.94947 0.0183664 0)
(4.94917 0.0117892 0)
(4.94939 0.0130488 0)
(4.9501 0.0171949 0)
(4.95059 0.0215388 0)
(4.95065 0.0222265 0)
(4.95021 0.0201292 0)
(4.94972 0.0174435 0)
(4.94981 0.0157898 0)
(4.94995 0.0183785 0)
(4.95025 0.0206129 0)
(4.95099 0.0216019 0)
(4.95095 0.0213315 0)
(4.95109 0.0216329 0)
(4.95124 0.0220201 0)
(4.95155 0.0225387 0)
(4.95158 0.0221427 0)
(5.07959 -0.962282 0)
(5.07969 -0.962276 0)
(5.07984 -0.962093 0)
(5.07993 -0.96229 0)
(5.08007 -0.962216 0)
(5.0802 -0.962238 0)
(5.08033 -0.962378 0)
(5.08048 -0.962318 0)
(5.08065 -0.962174 0)
(5.08077 -0.962302 0)
(5.08093 -0.962286 0)
(5.0811 -0.962342 0)
(5.08131 -0.962228 0)
(5.08148 -0.962242 0)
(5.08163 -0.962412 0)
(5.08179 -0.962202 0)
(5.08192 -0.962143 0)
(5.082 -0.962442 0)
(5.08214 -0.962305 0)
(5.0823 -0.962195 0)
(5.08241 -0.962326 0)
(5.08252 -0.962211 0)
(5.08261 -0.962127 0)
(5.08269 -0.962158 0)
(5.08275 -0.962352 0)
(5.08291 -0.962026 0)
(5.08297 -0.96229 0)
(5.083 -0.962332 0)
(5.08303 -0.962261 0)
(5.08309 -0.962253 0)
(5.08318 -0.962308 0)
(5.0833 -0.962324 0)
(5.0834 -0.962291 0)
(5.08349 -0.962291 0)
(5.08362 -0.962312 0)
(5.08372 -0.962336 0)
(5.08383 -0.962304 0)
(5.08388 -0.962143 0)
(5.08375 -0.961096 0)
(5.08294 -0.956365 0)
(5.08137 -0.948116 0)
(5.07787 -0.926625 0)
(5.07367 -0.901925 0)
(5.0661 -0.845456 0)
(5.06032 -0.801443 0)
(5.04841 -0.697415 0)
(5.04542 -0.642409 0)
(5.029 -0.485679 0)
(5.03282 -0.446346 0)
(5.01292 -0.276824 0)
(5.02459 -0.272268 0)
(5.00008 -0.122853 0)
(5.00993 -0.123984 0)
(4.98944 -0.0256138 0)
(4.98837 -0.0103053 0)
(4.97696 0.0408245 0)
(4.98274 0.0502837 0)
(4.9631 0.0788938 0)
(4.95688 0.0949063 0)
(4.9536 0.0860482 0)
(4.95151 0.0536843 0)
(4.95053 0.0357284 0)
(4.9483 0.0239924 0)
(4.94745 0.0195568 0)
(4.94589 0.0118694 0)
(4.94633 0.0106554 0)
(4.94753 0.0106334 0)
(4.94823 0.0120548 0)
(4.95191 0.0298382 0)
(4.95064 0.0287231 0)
(4.95202 0.0370645 0)
(4.95155 0.0360315 0)
(4.95038 0.0318958 0)
(4.94833 0.0219638 0)
(4.94742 0.0163692 0)
(4.94683 0.0103535 0)
(4.94723 0.0101984 0)
(4.94877 0.0157242 0)
(4.94989 0.0187353 0)
(4.95203 0.0272684 0)
(4.95173 0.0264647 0)
(4.95064 0.0222417 0)
(4.94893 0.0148306 0)
(4.94834 0.0134372 0)
(4.94866 0.0138429 0)
(4.95009 0.0187125 0)
(4.95087 0.0229446 0)
(4.95078 0.0235496 0)
(4.95002 0.0210912 0)
(4.94933 0.0171368 0)
(4.94923 0.0152344 0)
(4.9498 0.0170405 0)
(4.94976 0.0188973 0)
(4.95076 0.0217306 0)
(4.95069 0.021555 0)
(4.95057 0.0210491 0)
(4.95069 0.0211418 0)
(4.9509 0.0219984 0)
(4.95099 0.022279 0)
(4.951 0.0219917 0)
(5.08259 -0.960203 0)
(5.08267 -0.960199 0)
(5.08276 -0.960115 0)
(5.08283 -0.960218 0)
(5.08291 -0.96014 0)
(5.08301 -0.960104 0)
(5.0831 -0.960126 0)
(5.08319 -0.96008 0)
(5.08325 -0.960154 0)
(5.08332 -0.960167 0)
(5.0834 -0.960188 0)
(5.08345 -0.960295 0)
(5.08353 -0.960311 0)
(5.08358 -0.960359 0)
(5.08363 -0.960461 0)
(5.08369 -0.960447 0)
(5.08374 -0.960441 0)
(5.08377 -0.960536 0)
(5.08381 -0.960472 0)
(5.08389 -0.960316 0)
(5.08394 -0.960373 0)
(5.084 -0.960426 0)
(5.08404 -0.960227 0)
(5.08399 -0.960148 0)
(5.0839 -0.960242 0)
(5.08388 -0.960182 0)
(5.08387 -0.960176 0)
(5.08382 -0.960285 0)
(5.08378 -0.960368 0)
(5.08375 -0.960485 0)
(5.08379 -0.960646 0)
(5.08392 -0.960797 0)
(5.08403 -0.960904 0)
(5.08406 -0.960949 0)
(5.08415 -0.961079 0)
(5.08425 -0.961197 0)
(5.08437 -0.961187 0)
(5.08446 -0.961134 0)
(5.08442 -0.961156 0)
(5.08465 -0.961274 0)
(5.08477 -0.961319 0)
(5.08485 -0.961374 0)
(5.08494 -0.961294 0)
(5.085 -0.961309 0)
(5.08499 -0.96147 0)
(5.08495 -0.961547 0)
(5.08485 -0.961505 0)
(5.08412 -0.958097 0)
(5.08237 -0.948816 0)
(5.07722 -0.918307 0)
(5.07205 -0.8782 0)
(5.06147 -0.794169 0)
(5.05562 -0.726352 0)
(5.04202 -0.586716 0)
(5.04028 -0.533018 0)
(5.02455 -0.377155 0)
(5.02378 -0.327189 0)
(5.01065 -0.222059 0)
(5.01536 -0.190233 0)
(4.99822 -0.129539 0)
(5.00652 -0.106085 0)
(4.98587 -0.0510638 0)
(4.98228 -0.0411284 0)
(4.97597 -0.0200636 0)
(4.97264 -0.00122772 0)
(4.96957 0.00950101 0)
(4.96509 0.0251158 0)
(4.9536 0.0321323 0)
(4.9547 0.0505172 0)
(4.9532 0.0476764 0)
(4.94968 0.0380408 0)
(4.94754 0.0231896 0)
(4.94758 0.0142892 0)
(4.94673 0.00116624 0)
(4.94656 -0.00011419 0)
(4.948 0.00546012 0)
(4.95096 0.0162517 0)
(4.95267 0.0303921 0)
(4.95303 0.0325918 0)
(4.95228 0.0302152 0)
(4.94973 0.0198721 0)
(4.94947 0.0153762 0)
(4.94729 0.00654082 0)
(4.94794 0.0103556 0)
(4.94874 0.0169349 0)
(4.9498 0.0227553 0)
(4.95067 0.0256953 0)
(4.95002 0.0221941 0)
(4.94901 0.0166529 0)
(4.94842 0.0117626 0)
(4.94898 0.01499 0)
(4.94961 0.0190571 0)
(4.95053 0.0226072 0)
(4.95055 0.0226179 0)
(4.95026 0.0209113 0)
(4.95038 0.0205924 0)
(4.95059 0.021788 0)
(4.95081 0.0229813 0)
(4.95079 0.0227909 0)
(4.95067 0.0216128 0)
(5.08402 -0.96104 0)
(5.08403 -0.961038 0)
(5.08403 -0.961043 0)
(5.08403 -0.961076 0)
(5.08402 -0.9611 0)
(5.08403 -0.961068 0)
(5.08402 -0.961 0)
(5.08399 -0.960955 0)
(5.08397 -0.960953 0)
(5.08397 -0.96096 0)
(5.08397 -0.960969 0)
(5.08398 -0.961001 0)
(5.08401 -0.961018 0)
(5.08403 -0.961004 0)
(5.08405 -0.961017 0)
(5.08411 -0.961065 0)
(5.08414 -0.961085 0)
(5.08416 -0.961096 0)
(5.08418 -0.961096 0)
(5.08423 -0.961084 0)
(5.08426 -0.96105 0)
(5.08433 -0.961041 0)
(5.08434 -0.96114 0)
(5.08433 -0.961211 0)
(5.08431 -0.961155 0)
(5.08427 -0.961173 0)
(5.08427 -0.961294 0)
(5.08436 -0.961399 0)
(5.08447 -0.961454 0)
(5.08454 -0.961482 0)
(5.08458 -0.961526 0)
(5.08464 -0.961588 0)
(5.08474 -0.961632 0)
(5.08478 -0.961695 0)
(5.08481 -0.96172 0)
(5.08486 -0.961753 0)
(5.08492 -0.961824 0)
(5.08501 -0.961904 0)
(5.0852 -0.962204 0)
(5.08564 -0.962506 0)
(5.08574 -0.962613 0)
(5.08573 -0.962643 0)
(5.08566 -0.962672 0)
(5.0855 -0.962607 0)
(5.08528 -0.962437 0)
(5.08501 -0.962293 0)
(5.0848 -0.962053 0)
(5.0846 -0.961896 0)
(5.08439 -0.961776 0)
(5.08419 -0.961826 0)
(5.08398 -0.961908 0)
(5.08379 -0.962113 0)
(5.08365 -0.962423 0)
(5.0834 -0.961271 0)
(5.08238 -0.954956 0)
(5.07805 -0.926365 0)
(5.07204 -0.883063 0)
(5.05917 -0.770927 0)
(5.05397 -0.688038 0)
(5.02925 -0.470144 0)
(5.03875 -0.414287 0)
(5.00902 -0.192212 0)
(5.02588 -0.185296 0)
(4.9946 -0.0157359 0)
(5.00398 -0.0182723 0)
(4.97746 0.062405 0)
(4.96778 0.0982684 0)
(4.96157 0.105009 0)
(4.95776 0.0752252 0)
(4.95254 0.044035 0)
(4.95295 0.0306854 0)
(4.94935 0.0160683 0)
(4.94999 0.0087042 0)
(4.94994 0.00729861 0)
(4.94978 0.0103672 0)
(4.95339 0.0281863 0)
(4.95363 0.0351178 0)
(4.95296 0.0350955 0)
(4.95103 0.0303201 0)
(4.94843 0.0198673 0)
(4.94628 0.00968511 0)
(4.94656 0.0095848 0)
(4.94741 0.0114895 0)
(4.94926 0.0165465 0)
(4.95162 0.0301524 0)
(4.9515 0.026977 0)
(4.95021 0.0228487 0)
(4.94899 0.0174849 0)
(4.94834 0.0132827 0)
(4.94856 0.0145711 0)
(4.9496 0.0190526 0)
(4.95054 0.0240115 0)
(4.95041 0.0233215 0)
(4.95014 0.0218859 0)
(4.94981 0.0199126 0)
(4.9502 0.0208088 0)
(4.95059 0.023434 0)
(4.95057 0.023278 0)
(4.95037 0.0221816 0)
(4.95024 0.0214478 0)
(5.08457 -0.96199 0)
(5.08455 -0.961984 0)
(5.08453 -0.961973 0)
(5.08453 -0.96193 0)
(5.08453 -0.961892 0)
(5.0845 -0.96187 0)
(5.08447 -0.961884 0)
(5.08456 -0.961933 0)
(5.08459 -0.961946 0)
(5.0846 -0.961977 0)
(5.08462 -0.961992 0)
(5.08466 -0.962007 0)
(5.08472 -0.962029 0)
(5.08478 -0.962044 0)
(5.08484 -0.962061 0)
(5.08499 -0.962109 0)
(5.08504 -0.962125 0)
(5.08506 -0.962144 0)
(5.08509 -0.962144 0)
(5.08517 -0.962117 0)
(5.08518 -0.962117 0)
(5.08518 -0.962094 0)
(5.08517 -0.961992 0)
(5.08507 -0.96203 0)
(5.08496 -0.962137 0)
(5.08492 -0.962172 0)
(5.08487 -0.96217 0)
(5.08485 -0.962114 0)
(5.08483 -0.962101 0)
(5.08476 -0.962129 0)
(5.08472 -0.962175 0)
(5.08473 -0.962215 0)
(5.08477 -0.962212 0)
(5.08479 -0.962301 0)
(5.08475 -0.962469 0)
(5.08473 -0.962513 0)
(5.08471 -0.96257 0)
(5.08474 -0.962644 0)
(5.0848 -0.962811 0)
(5.08481 -0.962877 0)
(5.0848 -0.962911 0)
(5.08477 -0.96283 0)
(5.08474 -0.962709 0)
(5.08474 -0.962659 0)
(5.08471 -0.962556 0)
(5.0846 -0.962437 0)
(5.08439 -0.962362 0)
(5.08426 -0.962154 0)
(5.08413 -0.961913 0)
(5.08392 -0.961818 0)
(5.08362 -0.961919 0)
(5.08331 -0.962138 0)
(5.08314 -0.962258 0)
(5.08307 -0.962312 0)
(5.083 -0.96228 0)
(5.0831 -0.961997 0)
(5.08323 -0.961724 0)
(5.08343 -0.961634 0)
(5.08336 -0.962028 0)
(5.08204 -0.956676 0)
(5.07914 -0.938822 0)
(5.06954 -0.872132 0)
(5.06271 -0.796285 0)
(5.04528 -0.623981 0)
(5.04541 -0.550204 0)
(5.02131 -0.331656 0)
(5.02698 -0.309972 0)
(5.00871 -0.155506 0)
(5.03064 -0.150451 0)
(4.9955 -0.0542631 0)
(4.99122 -0.0506786 0)
(4.97719 -0.0230306 0)
(4.97348 -0.000379758 0)
(4.9688 0.0164164 0)
(4.95028 0.0293583 0)
(4.95276 0.0494581 0)
(4.94967 0.0444436 0)
(4.94722 0.0275076 0)
(4.94577 0.0148764 0)
(4.94409 -0.00139242 0)
(4.9443 0.000159453 0)
(4.94628 0.00798666 0)
(4.94898 0.0194064 0)
(4.95094 0.0271584 0)
(4.95096 0.0277731 0)
(4.95026 0.0211172 0)
(4.94865 0.0135172 0)
(4.94749 0.00802169 0)
(4.94803 0.0116773 0)
(4.94895 0.0181692 0)
(4.95019 0.0239684 0)
(4.95021 0.0237711 0)
(4.94971 0.0207874 0)
(4.94933 0.0179885 0)
(4.94961 0.0199898 0)
(4.95003 0.0232002 0)
(4.95037 0.0235813 0)
(4.95009 0.0221855 0)
(4.94984 0.0206292 0)
(4.95007 0.0214395 0)
(5.08485 -0.96241 0)
(5.08482 -0.962376 0)
(5.08478 -0.962361 0)
(5.08474 -0.96237 0)
(5.08474 -0.96235 0)
(5.08476 -0.962304 0)
(5.08478 -0.962293 0)
(5.08479 -0.96232 0)
(5.08478 -0.962373 0)
(5.08477 -0.962431 0)
(5.08477 -0.962452 0)
(5.08479 -0.96245 0)
(5.08486 -0.962465 0)
(5.08497 -0.962486 0)
(5.08508 -0.962343 0)
(5.08507 -0.962218 0)
(5.08504 -0.96226 0)
(5.08498 -0.96233 0)
(5.08496 -0.962284 0)
(5.085 -0.962141 0)
(5.085 -0.962103 0)
(5.08498 -0.96209 0)
(5.08484 -0.962067 0)
(5.08478 -0.962055 0)
(5.08476 -0.962058 0)
(5.08474 -0.962078 0)
(5.08472 -0.962095 0)
(5.08468 -0.962069 0)
(5.08465 -0.962052 0)
(5.08453 -0.962094 0)
(5.08446 -0.962115 0)
(5.08447 -0.962085 0)
(5.08453 -0.962116 0)
(5.08437 -0.962205 0)
(5.08432 -0.962211 0)
(5.08423 -0.962176 0)
(5.08412 -0.962288 0)
(5.08429 -0.96267 0)
(5.08434 -0.962818 0)
(5.08437 -0.962945 0)
(5.08434 -0.963051 0)
(5.08434 -0.962976 0)
(5.08439 -0.962817 0)
(5.08437 -0.962741 0)
(5.08434 -0.962679 0)
(5.08422 -0.962538 0)
(5.08403 -0.962381 0)
(5.08395 -0.962049 0)
(5.08382 -0.961708 0)
(5.08362 -0.961559 0)
(5.08336 -0.96158 0)
(5.08307 -0.961859 0)
(5.08282 -0.962044 0)
(5.08275 -0.962078 0)
(5.08269 -0.96204 0)
(5.0828 -0.961634 0)
(5.08293 -0.961288 0)
(5.0829 -0.961093 0)
(5.08246 -0.96158 0)
(5.08248 -0.961936 0)
(5.08259 -0.962091 0)
(5.08285 -0.961594 0)
(5.08263 -0.960972 0)
(5.08232 -0.960567 0)
(5.08082 -0.954226 0)
(5.07324 -0.906774 0)
(5.06706 -0.838629 0)
(5.04039 -0.611096 0)
(5.05734 -0.526158 0)
(5.0178 -0.207446 0)
(5.04976 -0.218092 0)
(4.99883 0.0071358 0)
(4.99871 0.0155876 0)
(4.9813 0.107254 0)
(4.96532 0.102096 0)
(4.95344 0.0642553 0)
(4.95603 0.0368043 0)
(4.94914 0.0140222 0)
(4.94597 0.00521115 0)
(4.9464 0.00332701 0)
(4.94916 0.0135652 0)
(4.95148 0.0255802 0)
(4.95341 0.0403301 0)
(4.95228 0.035744 0)
(4.94977 0.0231891 0)
(4.95016 0.0186144 0)
(4.94721 0.00963741 0)
(4.94774 0.0110658 0)
(4.94945 0.0190258 0)
(4.95117 0.0287521 0)
(4.95079 0.0266977 0)
(4.95004 0.0228666 0)
(4.94937 0.0196819 0)
(4.94939 0.0198794 0)
(4.95014 0.0229512 0)
(4.95028 0.024771 0)
(4.94999 0.023259 0)
(4.94978 0.0214743 0)
(4.94983 0.0214353 0)
(4.95027 0.022371 0)
(5.0847 -0.962413 0)
(5.0847 -0.962411 0)
(5.08469 -0.962407 0)
(5.08469 -0.962393 0)
(5.08469 -0.962379 0)
(5.08467 -0.962377 0)
(5.0847 -0.962415 0)
(5.08475 -0.962445 0)
(5.08477 -0.962453 0)
(5.08478 -0.962502 0)
(5.08476 -0.962558 0)
(5.08478 -0.962635 0)
(5.08492 -0.962662 0)
(5.08509 -0.962524 0)
(5.0851 -0.962377 0)
(5.08503 -0.962306 0)
(5.08497 -0.962318 0)
(5.08491 -0.962326 0)
(5.0849 -0.962246 0)
(5.08491 -0.962164 0)
(5.0849 -0.962151 0)
(5.08486 -0.962155 0)
(5.08476 -0.96203 0)
(5.08467 -0.961881 0)
(5.08466 -0.961857 0)
(5.08467 -0.96184 0)
(5.08467 -0.961866 0)
(5.08461 -0.96188 0)
(5.08456 -0.961883 0)
(5.08446 -0.961929 0)
(5.08435 -0.961875 0)
(5.08429 -0.961805 0)
(5.08416 -0.96183 0)
(5.08386 -0.961841 0)
(5.0838 -0.961807 0)
(5.08366 -0.9617 0)
(5.08345 -0.96182 0)
(5.08334 -0.962208 0)
(5.08334 -0.962369 0)
(5.08323 -0.962582 0)
(5.08304 -0.962789 0)
(5.083 -0.962782 0)
(5.08311 -0.962729 0)
(5.08325 -0.962696 0)
(5.08334 -0.962431 0)
(5.08333 -0.962045 0)
(5.08322 -0.961789 0)
(5.08321 -0.961288 0)
(5.08308 -0.960671 0)
(5.08275 -0.960417 0)
(5.08235 -0.960626 0)
(5.08231 -0.961368 0)
(5.08233 -0.961659 0)
(5.0823 -0.961602 0)
(5.0822 -0.961403 0)
(5.08198 -0.960839 0)
(5.08205 -0.960311 0)
(5.08209 -0.960216 0)
(5.08226 -0.960982 0)
(5.08245 -0.961423 0)
(5.0829 -0.961239 0)
(5.08298 -0.961056 0)
(5.08298 -0.960817 0)
(5.0818 -0.961154 0)
(5.08138 -0.961181 0)
(5.0813 -0.961503 0)
(5.08157 -0.961526 0)
(5.08197 -0.961809 0)
(5.08156 -0.955205 0)
(5.07306 -0.896395 0)
(5.06858 -0.813186 0)
(5.04646 -0.588584 0)
(5.05459 -0.522896 0)
(5.02085 -0.231798 0)
(5.05961 -0.25811 0)
(5.00282 -0.103327 0)
(5.01283 -0.0831197 0)
(4.9874 -0.0354773 0)
(4.97376 -0.00875967 0)
(4.97045 0.00973296 0)
(4.95353 0.0272647 0)
(4.95506 0.0406987 0)
(4.95086 0.0314793 0)
(4.94958 0.0230364 0)
(4.94639 -0.00290764 0)
(4.94595 0.000720176 0)
(4.94727 0.00597433 0)
(4.94977 0.0183026 0)
(4.95148 0.0254484 0)
(4.95152 0.0262224 0)
(4.95015 0.0214111 0)
(4.94898 0.014616 0)
(4.94919 0.0164316 0)
(4.94972 0.0211301 0)
(4.95057 0.0246716 0)
(4.95043 0.0240666 0)
(4.94966 0.0207075 0)
(4.94974 0.0188973 0)
(4.9501 0.0210035 0)
(4.95054 0.0231662 0)
(5.08445 -0.961769 0)
(5.08432 -0.961914 0)
(5.08421 -0.96194 0)
(5.08417 -0.961931 0)
(5.08415 -0.961941 0)
(5.08411 -0.961969 0)
(5.08412 -0.9619 0)
(5.0841 -0.961719 0)
(5.08409 -0.961742 0)
(5.08432 -0.96205 0)
(5.08434 -0.962311 0)
(5.0845 -0.962354 0)
(5.08456 -0.962176 0)
(5.08452 -0.962147 0)
(5.08441 -0.962167 0)
(5.08435 -0.962186 0)
(5.08424 -0.962158 0)
(5.08418 -0.962077 0)
(5.08416 -0.962015 0)
(5.08412 -0.962028 0)
(5.0841 -0.962041 0)
(5.08405 -0.961897 0)
(5.08397 -0.961732 0)
(5.08392 -0.961693 0)
(5.08392 -0.961566 0)
(5.08394 -0.961402 0)
(5.08397 -0.961375 0)
(5.08403 -0.961302 0)
(5.08377 -0.961058 0)
(5.08363 -0.96097 0)
(5.08342 -0.960911 0)
(5.08333 -0.960922 0)
(5.08316 -0.9609 0)
(5.08284 -0.96066 0)
(5.08279 -0.960496 0)
(5.08262 -0.960156 0)
(5.08227 -0.96006 0)
(5.08211 -0.960982 0)
(5.08206 -0.961676 0)
(5.08213 -0.961912 0)
(5.08229 -0.962192 0)
(5.0825 -0.962332 0)
(5.08266 -0.962254 0)
(5.08277 -0.962209 0)
(5.08292 -0.96208 0)
(5.08298 -0.9615 0)
(5.08293 -0.961025 0)
(5.08306 -0.960592 0)
(5.0832 -0.960156 0)
(5.08318 -0.960039 0)
(5.08317 -0.960079 0)
(5.0832 -0.96029 0)
(5.08307 -0.960851 0)
(5.08259 -0.961051 0)
(5.08227 -0.960812 0)
(5.08219 -0.960498 0)
(5.08204 -0.959906 0)
(5.08168 -0.960298 0)
(5.08173 -0.960853 0)
(5.08219 -0.960868 0)
(5.08266 -0.960858 0)
(5.08309 -0.960746 0)
(5.08342 -0.960908 0)
(5.08223 -0.961133 0)
(5.08187 -0.961261 0)
(5.08144 -0.961573 0)
(5.08183 -0.961771 0)
(5.08215 -0.961653 0)
(5.08268 -0.961491 0)
(5.08273 -0.961521 0)
(5.08267 -0.961626 0)
(5.0824 -0.960107 0)
(5.08095 -0.944895 0)
(5.06541 -0.839144 0)
(5.07243 -0.710052 0)
(5.03054 -0.348137 0)
(5.06692 -0.319708 0)
(5.01095 -0.018319 0)
(5.01172 -0.00575374 0)
(4.99396 0.117931 0)
(4.96658 0.10028 0)
(4.95358 0.0522158 0)
(4.95304 0.0191476 0)
(4.95043 0.00569269 0)
(4.95035 0.00311399 0)
(4.95038 0.00582961 0)
(4.95248 0.019655 0)
(4.95449 0.0377709 0)
(4.95375 0.0345672 0)
(4.95175 0.0248519 0)
(4.9498 0.0171164 0)
(4.94962 0.0163064 0)
(4.95034 0.0209835 0)
(4.95169 0.0285652 0)
(4.95153 0.0268968 0)
(4.95089 0.0227251 0)
(4.95026 0.0197782 0)
(4.95036 0.0200624 0)
(4.95097 0.023866 0)
(4.95084 0.0235826 0)
(5.08355 -0.960521 0)
(5.08318 -0.960865 0)
(5.08308 -0.961152 0)
(5.08309 -0.961305 0)
(5.08306 -0.961391 0)
(5.083 -0.961447 0)
(5.08303 -0.961393 0)
(5.08312 -0.961261 0)
(5.08329 -0.961346 0)
(5.08348 -0.961467 0)
(5.08348 -0.961535 0)
(5.08342 -0.961806 0)
(5.08348 -0.961933 0)
(5.08357 -0.962012 0)
(5.08331 -0.962308 0)
(5.08318 -0.96248 0)
(5.08311 -0.96245 0)
(5.08306 -0.962303 0)
(5.08309 -0.962283 0)
(5.08313 -0.962295 0)
(5.08315 -0.962247 0)
(5.08317 -0.96216 0)
(5.08312 -0.962159 0)
(5.08304 -0.962158 0)
(5.08304 -0.961871 0)
(5.08312 -0.961632 0)
(5.08319 -0.961428 0)
(5.08328 -0.961355 0)
(5.08333 -0.961153 0)
(5.08314 -0.960919 0)
(5.08303 -0.960785 0)
(5.08294 -0.960706 0)
(5.08284 -0.960673 0)
(5.08271 -0.960591 0)
(5.08273 -0.96022 0)
(5.08266 -0.959697 0)
(5.08253 -0.95958 0)
(5.08264 -0.960349 0)
(5.08268 -0.960986 0)
(5.08249 -0.961324 0)
(5.08221 -0.961498 0)
(5.08214 -0.961601 0)
(5.08214 -0.961578 0)
(5.08224 -0.961392 0)
(5.08239 -0.961218 0)
(5.08245 -0.960626 0)
(5.08257 -0.959825 0)
(5.08283 -0.95949 0)
(5.08297 -0.959449 0)
(5.08284 -0.959851 0)
(5.08287 -0.960045 0)
(5.08297 -0.960252 0)
(5.08307 -0.960754 0)
(5.08293 -0.960876 0)
(5.08266 -0.960492 0)
(5.08258 -0.960229 0)
(5.08221 -0.959976 0)
(5.08139 -0.960774 0)
(5.0813 -0.960965 0)
(5.08187 -0.960946 0)
(5.08263 -0.960974 0)
(5.08312 -0.96088 0)
(5.08378 -0.96095 0)
(5.08266 -0.961196 0)
(5.08219 -0.961325 0)
(5.08171 -0.961667 0)
(5.08182 -0.961887 0)
(5.08228 -0.961762 0)
(5.08264 -0.961571 0)
(5.08282 -0.961528 0)
(5.0828 -0.961642 0)
(5.08299 -0.961753 0)
(5.08344 -0.961639 0)
(5.08372 -0.961235 0)
(5.08342 -0.960953 0)
(5.0803 -0.942509 0)
(5.07596 -0.883245 0)
(5.05679 -0.692433 0)
(5.05877 -0.566894 0)
(5.02624 -0.253609 0)
(5.06998 -0.267591 0)
(5.00146 -0.0906999 0)
(5.00307 -0.073076 0)
(4.9814 -0.0241597 0)
(4.9753 -0.00102339 0)
(4.95713 0.0189684 0)
(4.95634 0.037077 0)
(4.95379 0.0321457 0)
(4.95013 0.022543 0)
(4.94852 0.00658805 0)
(4.94869 0.00854296 0)
(4.95004 0.0170732 0)
(4.95212 0.0250845 0)
(4.95237 0.0262187 0)
(4.95155 0.0216109 0)
(4.9505 0.0156336 0)
(4.95075 0.0174361 0)
(4.9512 0.0219069 0)
(4.9518 0.0245786 0)
(4.95121 0.022198 0)
(5.08251 -0.960633 0)
(5.08246 -0.960981 0)
(5.08237 -0.961061 0)
(5.08235 -0.961068 0)
(5.08239 -0.961 0)
(5.08239 -0.96097 0)
(5.08242 -0.961158 0)
(5.08257 -0.961355 0)
(5.08262 -0.961327 0)
(5.08263 -0.961406 0)
(5.08242 -0.961856 0)
(5.08243 -0.962104 0)
(5.08248 -0.962105 0)
(5.08248 -0.96215 0)
(5.08235 -0.962273 0)
(5.08231 -0.962402 0)
(5.08229 -0.962436 0)
(5.08232 -0.96241 0)
(5.08237 -0.962353 0)
(5.08246 -0.962302 0)
(5.08251 -0.962194 0)
(5.08256 -0.961967 0)
(5.08263 -0.961775 0)
(5.08254 -0.961823 0)
(5.08241 -0.961939 0)
(5.08241 -0.961909 0)
(5.08279 -0.961524 0)
(5.08292 -0.961361 0)
(5.08305 -0.961243 0)
(5.08289 -0.960843 0)
(5.08281 -0.96064 0)
(5.08276 -0.960559 0)
(5.08273 -0.960431 0)
(5.08272 -0.960322 0)
(5.08291 -0.959801 0)
(5.08289 -0.959095 0)
(5.08275 -0.959098 0)
(5.08298 -0.959639 0)
(5.08289 -0.960318 0)
(5.08252 -0.960698 0)
(5.08216 -0.960938 0)
(5.08198 -0.96115 0)
(5.08186 -0.961152 0)
(5.08192 -0.96075 0)
(5.082 -0.960179 0)
(5.08219 -0.959743 0)
(5.08238 -0.959254 0)
(5.08241 -0.958922 0)
(5.0822 -0.959013 0)
(5.08205 -0.95972 0)
(5.08226 -0.960325 0)
(5.08244 -0.960466 0)
(5.08288 -0.960951 0)
(5.08316 -0.961132 0)
(5.08314 -0.960709 0)
(5.08316 -0.960344 0)
(5.08269 -0.960463 0)
(5.08151 -0.960989 0)
(5.08127 -0.961074 0)
(5.08169 -0.961265 0)
(5.08273 -0.961454 0)
(5.08324 -0.961401 0)
(5.084 -0.961309 0)
(5.08303 -0.961373 0)
(5.08246 -0.961492 0)
(5.08198 -0.961842 0)
(5.08172 -0.962102 0)
(5.08233 -0.962073 0)
(5.08277 -0.961817 0)
(5.08342 -0.961649 0)
(5.08361 -0.961683 0)
(5.08387 -0.961756 0)
(5.08397 -0.961281 0)
(5.08365 -0.960625 0)
(5.08293 -0.960475 0)
(5.08285 -0.960561 0)
(5.08268 -0.960609 0)
(5.08184 -0.962308 0)
(5.07962 -0.953591 0)
(5.06418 -0.861335 0)
(5.06882 -0.678711 0)
(5.02769 -0.339986 0)
(5.04201 -0.224396 0)
(4.99933 0.00718917 0)
(4.99527 0.0627632 0)
(4.98169 0.124597 0)
(4.95646 0.0619794 0)
(4.95124 0.0249623 0)
(4.95059 0.0143058 0)
(4.95077 0.0119427 0)
(4.95249 0.0189344 0)
(4.95541 0.0362608 0)
(4.95498 0.0340627 0)
(4.9538 0.0257569 0)
(4.95154 0.0178491 0)
(4.95131 0.0172281 0)
(4.95225 0.0225751 0)
(4.95296 0.0287256 0)
(4.95255 0.0259572 0)
(4.95146 0.0206752 0)
(5.08229 -0.960763 0)
(5.08224 -0.960856 0)
(5.08223 -0.960852 0)
(5.08214 -0.96086 0)
(5.08221 -0.961123 0)
(5.08234 -0.961235 0)
(5.08237 -0.96126 0)
(5.08238 -0.961207 0)
(5.08247 -0.961085 0)
(5.08238 -0.961252 0)
(5.08215 -0.961708 0)
(5.08212 -0.961837 0)
(5.08207 -0.961898 0)
(5.08209 -0.962041 0)
(5.08213 -0.96206 0)
(5.08212 -0.96219 0)
(5.08199 -0.962448 0)
(5.08194 -0.962512 0)
(5.0821 -0.962491 0)
(5.08217 -0.962499 0)
(5.08222 -0.962462 0)
(5.08225 -0.962278 0)
(5.08231 -0.962098 0)
(5.08219 -0.962216 0)
(5.08201 -0.962406 0)
(5.08194 -0.962435 0)
(5.08221 -0.962043 0)
(5.08248 -0.961756 0)
(5.08272 -0.961578 0)
(5.08278 -0.960831 0)
(5.08275 -0.960388 0)
(5.08268 -0.960272 0)
(5.08272 -0.960241 0)
(5.08313 -0.959839 0)
(5.08335 -0.959226 0)
(5.08318 -0.959052 0)
(5.08302 -0.959329 0)
(5.08302 -0.959621 0)
(5.0829 -0.960362 0)
(5.08261 -0.96076 0)
(5.08236 -0.96087 0)
(5.08231 -0.961209 0)
(5.0825 -0.96118 0)
(5.08278 -0.960213 0)
(5.08278 -0.959932 0)
(5.0827 -0.9598 0)
(5.08248 -0.959385 0)
(5.08208 -0.958899 0)
(5.08137 -0.959072 0)
(5.08107 -0.960069 0)
(5.08184 -0.961152 0)
(5.08217 -0.961458 0)
(5.08283 -0.961903 0)
(5.0835 -0.961813 0)
(5.08369 -0.961214 0)
(5.08376 -0.960909 0)
(5.08306 -0.960983 0)
(5.0817 -0.961073 0)
(5.08133 -0.961085 0)
(5.08141 -0.96196 0)
(5.08254 -0.962512 0)
(5.08303 -0.962535 0)
(5.08397 -0.962217 0)
(5.08317 -0.961755 0)
(5.08257 -0.9618 0)
(5.08208 -0.962229 0)
(5.0817 -0.962583 0)
(5.08262 -0.962222 0)
(5.08343 -0.96197 0)
(5.08367 -0.961627 0)
(5.08373 -0.961645 0)
(5.08354 -0.961685 0)
(5.08309 -0.961258 0)
(5.08229 -0.961267 0)
(5.08213 -0.961144 0)
(5.08169 -0.961305 0)
(5.08081 -0.962294 0)
(5.07976 -0.962997 0)
(5.07918 -0.963126 0)
(5.07841 -0.962988 0)
(5.07766 -0.963714 0)
(5.07265 -0.936376 0)
(5.06324 -0.828352 0)
(5.04483 -0.616303 0)
(5.03227 -0.401097 0)
(5.02181 -0.209208 0)
(5.04322 -0.134141 0)
(4.99399 -0.0334158 0)
(4.97599 -0.0147351 0)
(4.9731 0.00663375 0)
(4.95781 0.0301555 0)
(4.95739 0.0328933 0)
(4.95177 0.0254469 0)
(4.95152 0.00522755 0)
(4.94931 0.0108332 0)
(4.95119 0.018606 0)
(4.95309 0.0265104 0)
(4.95297 0.0267739 0)
(4.95157 0.0203734 0)
(4.95061 0.0168221 0)
(5.08255 -0.960397 0)
(5.08254 -0.96039 0)
(5.08262 -0.960652 0)
(5.08261 -0.960946 0)
(5.08251 -0.961046 0)
(5.08252 -0.960921 0)
(5.08254 -0.960825 0)
(5.08252 -0.960797 0)
(5.08228 -0.960974 0)
(5.08224 -0.96102 0)
(5.0822 -0.961068 0)
(5.0822 -0.961077 0)
(5.08216 -0.961176 0)
(5.08187 -0.961393 0)
(5.0818 -0.961418 0)
(5.08175 -0.961529 0)
(5.08178 -0.961766 0)
(5.08174 -0.961864 0)
(5.0817 -0.962011 0)
(5.08164 -0.962165 0)
(5.08168 -0.962116 0)
(5.08176 -0.961986 0)
(5.08182 -0.961935 0)
(5.08166 -0.962005 0)
(5.0816 -0.962073 0)
(5.08147 -0.962103 0)
(5.08189 -0.961815 0)
(5.08221 -0.961798 0)
(5.08241 -0.961648 0)
(5.08266 -0.961047 0)
(5.08255 -0.960396 0)
(5.08258 -0.960203 0)
(5.08262 -0.960231 0)
(5.08268 -0.960116 0)
(5.08267 -0.960006 0)
(5.08265 -0.959977 0)
(5.08269 -0.959927 0)
(5.08257 -0.960327 0)
(5.08234 -0.961291 0)
(5.08224 -0.961645 0)
(5.08225 -0.962009 0)