/*--------------------------------*- C++ -*----------------------------------*\
  =========                 |
  \\      /  F ield         | OpenFOAM: The Open Source CFD Toolbox
   \\    /   O peration     | Website:  https://openfoam.org
    \\  /    A nd           | Version:  7
     \\/     M anipulation  |
\*---------------------------------------------------------------------------*/
FoamFile
{
    version     2.0;
    format      ascii;
    class       volVectorField;
    location    "6.0001";
    object      U;
}
// * * * * * * * * * * * * * * * * * * * * * * * * * * * * * * * * * * * * * //

dimensions      [0 1 -1 0 0 0 0];

internalField   nonuniform List<vector> 
60000
(
(3.01951 -1.12825 0)
(2.96148 -0.935184 0)
(2.95287 -0.956067 0)
(2.86948 -0.787594 0)
(2.87379 -0.499344 0)
(2.94368 -0.470084 0)
(2.98487 -0.554218 0)
(2.85583 -0.456786 0)
(2.86837 -0.185993 0)
(2.93103 -0.245572 0)
(2.95346 -0.246814 0)
(2.90067 -0.116716 0)
(2.92887 -0.078782 0)
(2.93127 -0.00690862 0)
(2.91445 0.00178321 0)
(2.89648 0.0138009 0)
(2.92267 0.089272 0)
(2.92034 0.105681 0)
(2.90463 0.0858863 0)
(2.8863 0.0789329 0)
(2.88613 0.0908265 0)
(2.89713 0.0902042 0)
(2.8993 0.086512 0)
(2.89505 0.0849294 0)
(2.89398 0.0789433 0)
(2.89475 0.0762408 0)
(2.89644 0.0796186 0)
(2.89131 0.0841891 0)
(2.88199 0.084348 0)
(2.87705 0.082049 0)
(2.87791 0.0809743 0)
(2.87787 0.0837436 0)
(2.87299 0.0852688 0)
(2.86436 0.0918249 0)
(2.87083 0.0858973 0)
(2.87205 0.0792945 0)
(2.87208 0.0722251 0)
(2.86785 0.0711956 0)
(2.86338 0.0669836 0)
(2.86219 0.0598182 0)
(2.86059 0.0553933 0)
(2.85901 0.0539946 0)
(2.85997 0.056517 0)
(2.86336 0.0631937 0)
(2.86794 0.0721219 0)
(2.87132 0.0771113 0)
(2.87674 0.0840021 0)
(2.87714 0.0837379 0)
(2.8764 0.0815758 0)
(2.87426 0.0768829 0)
(2.87167 0.0706514 0)
(2.86967 0.0681844 0)
(2.86815 0.058763 0)
(2.86754 0.0625695 0)
(2.87041 0.0692276 0)
(2.87471 0.073278 0)
(2.88175 0.0812816 0)
(2.88471 0.0823146 0)
(2.88721 0.0801553 0)
(2.8878 0.0763077 0)
(2.88697 0.0711027 0)
(2.88566 0.0673056 0)
(2.8855 0.0691022 0)
(2.88768 0.0717594 0)
(2.89098 0.075385 0)
(2.89473 0.0771131 0)
(2.89747 0.0794506 0)
(2.89933 0.0792035 0)
(2.89907 0.0747138 0)
(2.89787 0.0696803 0)
(2.89913 0.0671547 0)
(2.90068 0.0689939 0)
(2.90347 0.0737915 0)
(2.90829 0.078766 0)
(2.90998 0.08 0)
(2.91039 0.0762069 0)
(2.90858 0.0704431 0)
(2.90942 0.066062 0)
(2.91132 0.0684714 0)
(2.91445 0.0740678 0)
(2.91586 0.0754271 0)
(2.91687 0.0735438 0)
(2.91519 0.0688504 0)
(2.91877 0.0688999 0)
(2.92044 0.0714887 0)
(2.924 0.0764464 0)
(2.92758 0.079448 0)
(2.9289 0.0784616 0)
(2.92896 0.069776 0)
(2.93166 0.0682623 0)
(2.93341 0.0693281 0)
(2.93643 0.0710575 0)
(2.93955 0.0706444 0)
(2.94099 0.0678252 0)
(2.94201 0.0609177 0)
(2.94307 0.0560265 0)
(2.94433 0.0548427 0)
(2.9455 0.0550591 0)
(2.947 0.0518781 0)
(2.94881 0.0459869 0)
(3.11463 -1.30366 0)
(3.11458 -1.30352 0)
(3.11447 -1.30351 0)
(3.11433 -1.30338 0)
(3.11437 -1.30333 0)
(3.11425 -1.30322 0)
(3.11415 -1.30395 0)
(3.10907 -1.30058 0)
(3.10473 -1.27214 0)
(3.10528 -1.27317 0)
(3.09432 -1.26238 0)
(3.06046 -1.14854 0)
(3.05201 -1.10382 0)
(3.04641 -1.05461 0)
(2.99584 -0.881429 0)
(2.96164 -0.78929 0)
(2.96525 -0.614082 0)
(2.9394 -0.432178 0)
(2.905 -0.435602 0)
(2.86164 -0.32812 0)
(2.87035 -0.115257 0)
(2.88076 -0.114494 0)
(2.84384 -0.0754817 0)
(2.83089 0.0279331 0)
(2.86055 0.0546382 0)
(2.83838 0.0669581 0)
(2.81945 0.0864717 0)
(2.8167 0.119321 0)
(2.8192 0.136327 0)
(2.81766 0.137206 0)
(2.81819 0.150445 0)
(2.82674 0.166224 0)
(2.82653 0.164069 0)
(2.8224 0.152685 0)
(2.82016 0.12746 0)
(2.82399 0.101876 0)
(2.82567 0.0811607 0)
(2.82449 0.067915 0)
(2.82274 0.0522342 0)
(2.82856 0.0402399 0)
(2.83122 0.0448767 0)
(2.83408 0.0583586 0)
(2.83806 0.0738962 0)
(2.84266 0.0890111 0)
(2.84072 0.100379 0)
(2.83776 0.105904 0)
(2.83469 0.105519 0)
(2.83133 0.100505 0)
(2.8275 0.0945091 0)
(2.82477 0.0854056 0)
(2.82382 0.0790607 0)
(2.82442 0.0741916 0)
(2.82936 0.0730972 0)
(2.83287 0.075254 0)
(2.8382 0.0787049 0)
(2.84747 0.087541 0)
(2.85134 0.0921917 0)
(2.85448 0.0927712 0)
(2.85515 0.0909813 0)
(2.85344 0.0844415 0)
(2.85296 0.0792723 0)
(2.85334 0.0716877 0)
(2.85469 0.0733297 0)
(2.85738 0.076152 0)
(2.86247 0.0812801 0)
(2.86546 0.083447 0)
(2.8679 0.0828378 0)
(2.86858 0.078341 0)
(2.86749 0.073687 0)
(2.86913 0.0688665 0)
(2.87123 0.0721357 0)
(2.87412 0.0767644 0)
(2.87921 0.0819555 0)
(2.88242 0.0820997 0)
(2.88465 0.077465 0)
(2.88539 0.0708851 0)
(2.88574 0.0659901 0)
(2.88792 0.0689388 0)
(2.89096 0.0749518 0)
(2.89418 0.0782678 0)
(2.89728 0.0792863 0)
(2.8983 0.0747905 0)
(2.89889 0.0695117 0)
(2.90324 0.0731158 0)
(2.90662 0.0761324 0)
(2.91201 0.0812352 0)
(2.91466 0.0816986 0)
(2.91707 0.0770086 0)
(2.91573 0.0707516 0)
(2.92222 0.0663846 0)
(2.92495 0.0674914 0)
(2.9282 0.0710319 0)
(2.93259 0.0719792 0)
(2.93333 0.0691528 0)
(2.93418 0.0649079 0)
(2.93628 0.0599159 0)
(2.93842 0.0565545 0)
(2.93946 0.0535611 0)
(2.94061 0.0486981 0)
(2.94257 0.0419803 0)
(3.11234 -1.30344 0)
(3.11208 -1.30322 0)
(3.11188 -1.30307 0)
(3.11118 -1.30284 0)
(3.11086 -1.3027 0)
(3.1108 -1.30236 0)
(3.11101 -1.30156 0)
(3.10932 -1.30193 0)
(3.10838 -1.30252 0)
(3.10834 -1.30278 0)
(3.1092 -1.302 0)
(3.10933 -1.30178 0)
(3.10908 -1.30131 0)
(3.10869 -1.30091 0)
(3.10839 -1.30061 0)
(3.10762 -1.29969 0)
(3.10708 -1.29943 0)
(3.10513 -1.295 0)
(3.09999 -1.28619 0)
(3.07663 -1.23855 0)
(3.0532 -1.13621 0)
(3.03479 -1.08072 0)
(2.98239 -0.966487 0)
(2.9433 -0.756959 0)
(2.96108 -0.686047 0)
(2.91053 -0.532143 0)
(2.87163 -0.441482 0)
(2.87214 -0.350634 0)
(2.84996 -0.186617 0)
(2.85059 -0.177869 0)
(2.82041 -0.0763043 0)
(2.82755 -0.0525553 0)
(2.82709 -0.00403194 0)
(2.82005 0.0242203 0)
(2.81321 0.0168577 0)
(2.81389 0.0345738 0)
(2.81486 0.0513583 0)
(2.81691 0.0504755 0)
(2.81673 0.0504042 0)
(2.81609 0.0580866 0)
(2.8115 0.063316 0)
(2.80499 0.084958 0)
(2.80729 0.0856553 0)
(2.8061 0.0876902 0)
(2.80295 0.0868576 0)
(2.79711 0.0828148 0)
(2.79343 0.0776257 0)
(2.79248 0.0735121 0)
(2.79113 0.0681642 0)
(2.79161 0.0648174 0)
(2.79325 0.0566766 0)
(2.79847 0.0603698 0)
(2.80278 0.0659413 0)
(2.80883 0.0736415 0)
(2.81324 0.080323 0)
(2.818 0.0793662 0)
(2.81805 0.0762778 0)
(2.81728 0.0707884 0)
(2.8159 0.0668108 0)
(2.8146 0.062522 0)
(2.81451 0.0649311 0)
(2.81643 0.0681206 0)
(2.81853 0.0712817 0)
(2.82502 0.0791806 0)
(2.82719 0.0812569 0)
(2.82898 0.0806517 0)
(2.82915 0.0747791 0)
(2.82924 0.0676701 0)
(2.83014 0.0624183 0)
(2.83279 0.069057 0)
(2.83575 0.0724713 0)
(2.84194 0.0773626 0)
(2.84506 0.0778649 0)
(2.84825 0.0785083 0)
(2.84982 0.0726954 0)
(2.85048 0.0658632 0)
(2.85443 0.0670975 0)
(2.85739 0.0687735 0)
(2.86057 0.0716274 0)
(2.86464 0.0732582 0)
(2.86854 0.0722194 0)
(2.86939 0.0679196 0)
(2.87366 0.0656411 0)
(2.87927 0.0717864 0)
(2.8842 0.0767768 0)
(2.88906 0.0801169 0)
(2.89314 0.0800068 0)
(2.89636 0.074851 0)
(2.895 0.0666903 0)
(2.90517 0.0699877 0)
(2.90919 0.0726048 0)
(2.91328 0.0729247 0)
(2.91687 0.0710404 0)
(2.91941 0.0664298 0)
(2.92018 0.0619385 0)
(2.9233 0.0618229 0)
(2.92598 0.0605391 0)
(2.92753 0.0573544 0)
(2.9286 0.0513069 0)
(2.93032 0.0441424 0)
(3.10819 -1.30219 0)
(3.10785 -1.30194 0)
(3.10752 -1.30181 0)
(3.10714 -1.30158 0)
(3.10642 -1.30109 0)
(3.10626 -1.30098 0)
(3.10622 -1.30052 0)
(3.10573 -1.29974 0)
(3.1043 -1.30015 0)
(3.10421 -1.30037 0)
(3.10438 -1.30049 0)
(3.10415 -1.30091 0)
(3.10379 -1.30091 0)
(3.10328 -1.3004 0)
(3.10273 -1.29949 0)
(3.10249 -1.29905 0)
(3.10247 -1.29877 0)
(3.10242 -1.29854 0)
(3.10231 -1.29848 0)
(3.10222 -1.29836 0)
(3.10216 -1.29843 0)
(3.10156 -1.29852 0)
(3.10119 -1.29855 0)
(3.10109 -1.29848 0)
(3.10091 -1.29877 0)
(3.09897 -1.29578 0)
(3.09056 -1.27566 0)
(3.07265 -1.22513 0)
(3.04538 -1.1283 0)
(3.01905 -1.0482 0)
(2.96762 -0.868239 0)
(2.93553 -0.716929 0)
(2.90511 -0.556647 0)
(2.8635 -0.373387 0)
(2.84466 -0.252034 0)
(2.85691 -0.17166 0)
(2.79717 0.0153287 0)
(2.80308 0.0479304 0)
(2.79017 0.0978027 0)
(2.77312 0.127116 0)
(2.76972 0.164435 0)
(2.76677 0.158966 0)
(2.76521 0.149074 0)
(2.77188 0.12733 0)
(2.77339 0.0942373 0)
(2.78068 0.0772668 0)
(2.78411 0.0662028 0)
(2.78633 0.0644087 0)
(2.786 0.0632037 0)
(2.7855 0.0609486 0)
(2.78604 0.061357 0)
(2.79122 0.0727836 0)
(2.79271 0.0838944 0)
(2.79215 0.0969533 0)
(2.78997 0.0959621 0)
(2.78717 0.0913717 0)
(2.78251 0.0844875 0)
(2.77926 0.0751787 0)
(2.77893 0.0729344 0)
(2.7815 0.0681744 0)
(2.78414 0.0717067 0)
(2.78824 0.0760998 0)
(2.79137 0.0826246 0)
(2.79622 0.0818382 0)
(2.79605 0.0810412 0)
(2.79468 0.076763 0)
(2.79306 0.0737512 0)
(2.79378 0.0712463 0)
(2.79802 0.0688085 0)
(2.80075 0.0717008 0)
(2.80678 0.0785867 0)
(2.80945 0.080596 0)
(2.81171 0.0789434 0)
(2.81326 0.0703796 0)
(2.81358 0.0667611 0)
(2.81544 0.0643094 0)
(2.82022 0.0710713 0)
(2.82472 0.0743993 0)
(2.82751 0.0770582 0)
(2.83097 0.0788414 0)
(2.83391 0.0752451 0)
(2.83458 0.0690699 0)
(2.84309 0.0702572 0)
(2.84743 0.0752952 0)
(2.85526 0.0796196 0)
(2.85931 0.0790471 0)
(2.86356 0.0761557 0)
(2.86614 0.0685714 0)
(2.86853 0.0661978 0)
(2.87899 0.0671127 0)
(2.88474 0.0702988 0)
(2.88933 0.0716875 0)
(2.89347 0.0704132 0)
(2.89663 0.065442 0)
(2.89842 0.062165 0)
(2.90265 0.0591194 0)
(2.90634 0.0597157 0)
(2.90823 0.0568185 0)
(2.90942 0.0522996 0)
(2.91119 0.0464514 0)
(3.10402 -1.30081 0)
(3.10385 -1.30032 0)
(3.10376 -1.29998 0)
(3.10356 -1.30003 0)
(3.10298 -1.30002 0)
(3.10275 -1.30024 0)
(3.10252 -1.30001 0)
(3.10211 -1.29958 0)
(3.10188 -1.29906 0)
(3.10187 -1.29898 0)
(3.10187 -1.29907 0)
(3.10183 -1.29947 0)
(3.10166 -1.29974 0)
(3.1012 -1.29979 0)
(3.10105 -1.29956 0)
(3.10115 -1.29898 0)
(3.1009 -1.29871 0)
(3.1007 -1.29856 0)
(3.10067 -1.29851 0)
(3.10051 -1.29818 0)
(3.10042 -1.29806 0)
(3.10003 -1.29846 0)
(3.09963 -1.2986 0)
(3.09949 -1.29843 0)
(3.09924 -1.29881 0)
(3.0989 -1.29899 0)
(3.09862 -1.29871 0)
(3.09854 -1.29838 0)
(3.0986 -1.29841 0)
(3.09854 -1.29914 0)
(3.09852 -1.29885 0)
(3.09838 -1.29893 0)
(3.09725 -1.29592 0)
(3.08696 -1.26911 0)
(3.06567 -1.20253 0)
(3.03159 -1.09243 0)
(2.98111 -0.894749 0)
(2.96171 -0.773977 0)
(2.91243 -0.543637 0)
(2.89019 -0.412052 0)
(2.86272 -0.246737 0)
(2.87581 -0.193272 0)
(2.82563 -0.0607942 0)
(2.82334 -0.043362 0)
(2.7983 -0.000122503 0)
(2.80152 0.0108051 0)
(2.79555 0.0293738 0)
(2.79448 0.0368787 0)
(2.78992 0.0464224 0)
(2.78345 0.0557844 0)
(2.77693 0.074126 0)
(2.77459 0.084943 0)
(2.77339 0.0954324 0)
(2.76835 0.0936741 0)
(2.76431 0.0876302 0)
(2.76242 0.0777484 0)
(2.76158 0.0677702 0)
(2.7615 0.0658024 0)
(2.76509 0.0655004 0)
(2.7678 0.0663065 0)
(2.77413 0.0713684 0)
(2.77898 0.0789695 0)
(2.77949 0.082786 0)
(2.77996 0.0833259 0)
(2.7785 0.0768662 0)
(2.77672 0.0699506 0)
(2.77671 0.061896 0)
(2.77767 0.0649268 0)
(2.78084 0.0693936 0)
(2.7841 0.0757877 0)
(2.78906 0.0794321 0)
(2.789 0.0789789 0)
(2.7873 0.0757693 0)
(2.78778 0.0718778 0)
(2.78784 0.0611407 0)
(2.7918 0.0616577 0)
(2.7945 0.0658387 0)
(2.79972 0.0717541 0)
(2.80163 0.0727616 0)
(2.80244 0.0674024 0)
(2.80346 0.066265 0)
(2.80552 0.0643621 0)
(2.81314 0.0709661 0)
(2.81881 0.0779293 0)
(2.82479 0.0822711 0)
(2.82942 0.0827878 0)
(2.8315 0.0747513 0)
(2.8322 0.0691765 0)
(2.84079 0.0647798 0)
(2.84751 0.068807 0)
(2.85455 0.0721091 0)
(2.86038 0.071877 0)
(2.86431 0.0666476 0)
(2.86745 0.0625462 0)
(2.87081 0.0594348 0)
(2.87552 0.0602969 0)
(2.88023 0.0578072 0)
(2.88228 0.053718 0)
(2.88383 0.0480242 0)
(2.88567 0.0421177 0)
(3.10115 -1.30018 0)
(3.10093 -1.29984 0)
(3.10084 -1.29981 0)
(3.10077 -1.29991 0)
(3.10061 -1.2996 0)
(3.10032 -1.29895 0)
(3.1003 -1.29884 0)
(3.1001 -1.29874 0)
(3.10025 -1.29866 0)
(3.10038 -1.29865 0)
(3.10047 -1.29868 0)
(3.10046 -1.29886 0)
(3.10037 -1.2988 0)
(3.10022 -1.29866 0)
(3.10007 -1.29864 0)
(3.10005 -1.2988 0)
(3.0999 -1.2988 0)
(3.09976 -1.29875 0)
(3.09969 -1.29853 0)
(3.09983 -1.29832 0)
(3.10005 -1.29786 0)
(3.10023 -1.29755 0)
(3.09957 -1.29793 0)
(3.09908 -1.29816 0)
(3.09884 -1.29816 0)
(3.09862 -1.29829 0)
(3.09846 -1.29812 0)
(3.09857 -1.29788 0)
(3.09846 -1.29839 0)
(3.09831 -1.29914 0)
(3.09819 -1.29913 0)
(3.09809 -1.29847 0)
(3.09834 -1.2984 0)
(3.09873 -1.29829 0)
(3.09881 -1.29836 0)
(3.09894 -1.29861 0)
(3.09897 -1.29857 0)
(3.09897 -1.29859 0)
(3.09706 -1.29301 0)
(3.08554 -1.25755 0)
(3.05339 -1.14068 0)
(3.01965 -0.993128 0)
(2.94776 -0.704569 0)
(2.93042 -0.556756 0)
(2.85962 -0.283685 0)
(2.87627 -0.208167 0)
(2.818 -0.0279913 0)
(2.82352 0.0207057 0)
(2.78481 0.110962 0)
(2.76975 0.12989 0)
(2.76894 0.154403 0)
(2.76006 0.140062 0)
(2.75531 0.110492 0)
(2.76304 0.0884171 0)
(2.76597 0.0785656 0)
(2.76312 0.0687117 0)
(2.76387 0.0657191 0)
(2.768 0.0664059 0)
(2.76783 0.0665494 0)
(2.77417 0.0758867 0)
(2.77813 0.0814745 0)
(2.77836 0.0829949 0)
(2.77699 0.0818458 0)
(2.77373 0.0772885 0)
(2.76967 0.0684884 0)
(2.77122 0.0640427 0)
(2.7724 0.0635278 0)
(2.77518 0.0669406 0)
(2.77906 0.0745493 0)
(2.78133 0.0817048 0)
(2.78124 0.0812303 0)
(2.78024 0.0764283 0)
(2.77817 0.0670831 0)
(2.77569 0.0630418 0)
(2.7777 0.0652791 0)
(2.78062 0.0684533 0)
(2.7839 0.0738533 0)
(2.78626 0.0769254 0)
(2.78589 0.075927 0)
(2.78444 0.0723014 0)
(2.78553 0.065409 0)
(2.78797 0.0660095 0)
(2.79325 0.0723859 0)
(2.80062 0.0794675 0)
(2.80274 0.0789785 0)
(2.80461 0.0740672 0)
(2.80417 0.0682259 0)
(2.80656 0.0625274 0)
(2.81455 0.0666061 0)
(2.82123 0.0720806 0)
(2.82655 0.0736257 0)
(2.83188 0.0717874 0)
(2.83534 0.0689143 0)
(2.83797 0.0630018 0)
(2.84262 0.0617499 0)
(2.84767 0.0574604 0)
(2.85253 0.0581534 0)
(2.85376 0.0521394 0)
(2.85588 0.0474528 0)
(2.85833 0.0449596 0)
(3.09998 -1.29842 0)
(3.09995 -1.2985 0)
(3.09983 -1.29865 0)
(3.09976 -1.29876 0)
(3.09959 -1.29861 0)
(3.09939 -1.29798 0)
(3.09962 -1.29686 0)
(3.0998 -1.2965 0)
(3.10016 -1.2972 0)
(3.1002 -1.29773 0)
(3.10023 -1.29786 0)
(3.10032 -1.29765 0)
(3.10016 -1.29731 0)
(3.10007 -1.29715 0)
(3.10006 -1.29715 0)
(3.10017 -1.29766 0)
(3.10021 -1.29763 0)
(3.10019 -1.29752 0)
(3.09982 -1.29776 0)
(3.09969 -1.29811 0)
(3.09957 -1.29794 0)
(3.09959 -1.29736 0)
(3.09983 -1.29673 0)
(3.09923 -1.29702 0)
(3.09862 -1.29766 0)
(3.09848 -1.29817 0)
(3.0983 -1.29819 0)
(3.09828 -1.29775 0)
(3.09857 -1.29755 0)
(3.09853 -1.29779 0)
(3.09849 -1.2981 0)
(3.09845 -1.29808 0)
(3.09857 -1.29795 0)
(3.09891 -1.29787 0)
(3.09919 -1.2979 0)
(3.0993 -1.29795 0)
(3.09946 -1.29792 0)
(3.09951 -1.29778 0)
(3.0995 -1.29764 0)
(3.09939 -1.29738 0)
(3.09938 -1.2973 0)
(3.09941 -1.29724 0)
(3.09961 -1.29717 0)
(3.09858 -1.29298 0)
(3.07918 -1.23573 0)
(3.04971 -1.12273 0)
(2.99658 -0.900108 0)
(2.97056 -0.736577 0)
(2.91662 -0.467584 0)
(2.92293 -0.374965 0)
(2.86958 -0.157274 0)
(2.87219 -0.114253 0)
(2.82012 -0.0208799 0)
(2.81979 0.00580287 0)
(2.79952 0.0366963 0)
(2.79626 0.0531138 0)
(2.78727 0.0646589 0)
(2.78433 0.0735422 0)
(2.77983 0.0831969 0)
(2.77926 0.0941756 0)
(2.77838 0.0933704 0)
(2.77353 0.0865268 0)
(2.77001 0.0737721 0)
(2.76661 0.0601828 0)
(2.7663 0.0553996 0)
(2.76914 0.0583646 0)
(2.77235 0.0633471 0)
(2.77869 0.0746828 0)
(2.78131 0.082776 0)
(2.78108 0.082786 0)
(2.77862 0.0786491 0)
(2.77529 0.0691288 0)
(2.77382 0.057001 0)
(2.77366 0.0595693 0)
(2.7756 0.0630624 0)
(2.77911 0.070116 0)
(2.78113 0.0742259 0)
(2.78133 0.0742745 0)
(2.77981 0.0705041 0)
(2.77817 0.0637712 0)
(2.77868 0.0647671 0)
(2.7819 0.0684917 0)
(2.78571 0.0782763 0)
(2.79107 0.08469 0)
(2.7905 0.082743 0)
(2.78878 0.0744201 0)
(2.78718 0.0673117 0)
(2.79252 0.0649326 0)
(2.79693 0.0668338 0)
(2.8047 0.0705264 0)
(2.80741 0.0697556 0)
(2.81049 0.0671159 0)
(2.8133 0.061748 0)
(2.81547 0.0609961 0)
(2.82035 0.0606287 0)
(2.8252 0.0616593 0)
(2.82822 0.0564501 0)
(2.82919 0.0516366 0)
(2.83207 0.0461557 0)
(2.83495 0.0422388 0)
(3.09979 -1.29726 0)
(3.09962 -1.29746 0)
(3.09958 -1.29746 0)
(3.09954 -1.29724 0)
(3.09957 -1.29715 0)
(3.09968 -1.2976 0)
(3.09986 -1.29717 0)
(3.09984 -1.29626 0)
(3.09978 -1.29559 0)
(3.10034 -1.29581 0)
(3.10063 -1.29659 0)
(3.10043 -1.29681 0)
(3.10014 -1.29696 0)
(3.10005 -1.29695 0)
(3.09992 -1.29686 0)
(3.09998 -1.29719 0)
(3.09989 -1.29732 0)
(3.09991 -1.29728 0)
(3.09986 -1.29721 0)
(3.09968 -1.29732 0)
(3.09945 -1.29793 0)
(3.09922 -1.29783 0)
(3.09907 -1.29707 0)
(3.09874 -1.29725 0)
(3.09864 -1.29764 0)
(3.09867 -1.29769 0)
(3.09843 -1.2978 0)
(3.09816 -1.29807 0)
(3.09824 -1.29814 0)
(3.09833 -1.2981 0)
(3.09857 -1.29809 0)
(3.09872 -1.29815 0)
(3.09881 -1.2982 0)
(3.09914 -1.29803 0)
(3.09941 -1.29793 0)
(3.09955 -1.29798 0)
(3.09975 -1.29786 0)
(3.09982 -1.29766 0)
(3.09993 -1.2974 0)
(3.09983 -1.2972 0)
(3.09985 -1.29683 0)
(3.09991 -1.29664 0)
(3.09997 -1.29662 0)
(3.10019 -1.29662 0)
(3.10115 -1.2962 0)
(3.10145 -1.29608 0)
(3.10137 -1.29615 0)
(3.1009 -1.29686 0)
(3.0945 -1.27705 0)
(3.07803 -1.20819 0)
(3.02424 -0.990831 0)
(2.99567 -0.787215 0)
(2.91761 -0.442092 0)
(2.92765 -0.331807 0)
(2.85113 -0.0814985 0)
(2.85767 -0.0346532 0)
(2.81273 0.0709985 0)
(2.78974 0.10312 0)
(2.78141 0.127406 0)
(2.77826 0.118756 0)
(2.77277 0.095961 0)
(2.77587 0.0824587 0)
(2.77196 0.0670761 0)
(2.773 0.0644464 0)
(2.7769 0.065236 0)
(2.77671 0.0649386 0)
(2.78189 0.0775583 0)
(2.78353 0.0870059 0)
(2.78216 0.0869909 0)
(2.77834 0.0810882 0)
(2.77344 0.0698658 0)
(2.77132 0.0617379 0)
(2.77111 0.0596721 0)
(2.7733 0.0612961 0)
(2.77869 0.0710144 0)
(2.78067 0.0769685 0)
(2.78051 0.0769032 0)
(2.77865 0.0722303 0)
(2.77645 0.0652285 0)
(2.77617 0.0609872 0)
(2.77755 0.063073 0)
(2.78226 0.0737631 0)
(2.78552 0.0812756 0)
(2.78612 0.0823375 0)
(2.7848 0.0777767 0)
(2.78292 0.0693783 0)
(2.78299 0.0624301 0)
(2.78628 0.0644414 0)
(2.78951 0.0705864 0)
(2.79633 0.074234 0)
(2.79711 0.0726453 0)
(2.79799 0.0681229 0)
(2.80131 0.0640377 0)
(2.80277 0.0599896 0)
(2.80695 0.0596623 0)
(2.80973 0.0567844 0)
(2.81177 0.0563337 0)
(2.81262 0.048622 0)
(2.81608 0.0454027 0)
(2.81902 0.0441547 0)
(3.0996 -1.29692 0)
(3.09955 -1.29705 0)
(3.09949 -1.29711 0)
(3.09937 -1.29697 0)
(3.09956 -1.2969 0)
(3.09961 -1.29693 0)
(3.09967 -1.29709 0)
(3.09965 -1.29689 0)
(3.09968 -1.29627 0)
(3.10001 -1.29582 0)
(3.1002 -1.29593 0)
(3.10019 -1.29634 0)
(3.09997 -1.29671 0)
(3.09988 -1.29709 0)
(3.10002 -1.2969 0)
(3.10006 -1.297 0)
(3.09927 -1.29786 0)
(3.09923 -1.29796 0)
(3.09945 -1.2979 0)
(3.09939 -1.29799 0)
(3.0992 -1.29825 0)
(3.0988 -1.29856 0)
(3.09854 -1.29779 0)
(3.09866 -1.29741 0)
(3.09863 -1.29768 0)
(3.09859 -1.29805 0)
(3.09852 -1.29816 0)
(3.09839 -1.29822 0)
(3.09833 -1.29825 0)
(3.09836 -1.29827 0)
(3.09859 -1.29824 0)
(3.09886 -1.29834 0)
(3.09903 -1.29837 0)
(3.0993 -1.2982 0)
(3.09955 -1.29803 0)
(3.09989 -1.29805 0)
(3.10015 -1.29798 0)
(3.10034 -1.29757 0)
(3.10048 -1.29722 0)
(3.10039 -1.29702 0)
(3.10036 -1.29673 0)
(3.10036 -1.29657 0)
(3.10034 -1.29665 0)
(3.10037 -1.29683 0)
(3.10137 -1.29618 0)
(3.10178 -1.29566 0)
(3.10179 -1.29558 0)
(3.10089 -1.29623 0)
(3.1006 -1.29685 0)
(3.10054 -1.29728 0)
(3.10081 -1.29689 0)
(3.1003 -1.29807 0)
(3.09538 -1.28404 0)
(3.07778 -1.21435 0)
(3.02761 -1.00937 0)
(2.99747 -0.815831 0)
(2.92999 -0.489449 0)
(2.93222 -0.370661 0)
(2.86295 -0.120915 0)
(2.86037 -0.088546 0)
(2.80915 -0.0073735 0)
(2.8141 0.0176028 0)
(2.79706 0.0444618 0)
(2.79619 0.0626571 0)
(2.79217 0.072688 0)
(2.78408 0.0861748 0)
(2.78154 0.0960754 0)
(2.77583 0.0912926 0)
(2.77022 0.0778139 0)
(2.76775 0.0631953 0)
(2.76502 0.0500315 0)
(2.76693 0.0531243 0)
(2.76973 0.0584366 0)
(2.77655 0.0695942 0)
(2.78027 0.0791809 0)
(2.78026 0.0797009 0)
(2.77819 0.0750889 0)
(2.77407 0.0648131 0)
(2.77232 0.0561352 0)
(2.77394 0.0593254 0)
(2.77966 0.0699871 0)
(2.7835 0.0799197 0)
(2.78569 0.0848245 0)
(2.7843 0.0815629 0)
(2.78079 0.0705585 0)
(2.78036 0.0634681 0)
(2.78132 0.0627317 0)
(2.7856 0.0671915 0)
(2.78834 0.07268 0)
(2.79105 0.0731003 0)
(2.79271 0.0699426 0)
(2.79415 0.0641794 0)
(2.79626 0.0615503 0)
(2.79697 0.0619145 0)
(2.80018 0.0603685 0)
(2.80111 0.0589824 0)
(2.8028 0.0529491 0)
(2.80511 0.0483566 0)
(2.80736 0.0451997 0)
(2.81028 0.0428221 0)
(3.09909 -1.29763 0)
(3.09908 -1.29763 0)
(3.099 -1.29765 0)
(3.09892 -1.29768 0)
(3.09892 -1.29777 0)
(3.09896 -1.29784 0)
(3.09896 -1.29784 0)
(3.09889 -1.29788 0)
(3.09897 -1.29779 0)
(3.09918 -1.29744 0)
(3.09944 -1.29722 0)
(3.0994 -1.29737 0)
(3.09934 -1.29772 0)
(3.09953 -1.29808 0)
(3.0996 -1.29796 0)
(3.09999 -1.2974 0)
(3.09933 -1.29756 0)
(3.09875 -1.29839 0)
(3.09879 -1.29859 0)
(3.09902 -1.29865 0)
(3.09903 -1.2986 0)
(3.09878 -1.29863 0)
(3.09839 -1.29863 0)
(3.09834 -1.29856 0)
(3.09834 -1.2985 0)
(3.09838 -1.29852 0)
(3.09854 -1.29852 0)
(3.09859 -1.29849 0)
(3.09862 -1.29846 0)
(3.09859 -1.29853 0)
(3.09863 -1.29868 0)
(3.09921 -1.29844 0)
(3.09951 -1.29831 0)
(3.09956 -1.29839 0)
(3.09979 -1.29833 0)
(3.10032 -1.298 0)
(3.10058 -1.29766 0)
(3.10071 -1.29724 0)
(3.10083 -1.29688 0)
(3.10074 -1.29663 0)
(3.10083 -1.29627 0)
(3.10082 -1.2962 0)
(3.10075 -1.29635 0)
(3.1007 -1.29664 0)
(3.10149 -1.29623 0)
(3.10202 -1.29548 0)
(3.10255 -1.29514 0)
(3.10176 -1.29563 0)
(3.10039 -1.29674 0)
(3.10015 -1.29721 0)
(3.10004 -1.29716 0)
(3.09963 -1.29713 0)
(3.09957 -1.29802 0)
(3.09997 -1.29877 0)
(3.1007 -1.29919 0)
(3.10148 -1.29937 0)
(3.09818 -1.28515 0)
(3.08128 -1.20841 0)
(3.01705 -0.949716 0)
(2.98374 -0.72069 0)
(2.88622 -0.34233 0)
(2.90431 -0.228934 0)
(2.82625 0.00494024 0)
(2.83032 0.0471464 0)
(2.79068 0.130158 0)
(2.78088 0.129736 0)
(2.77381 0.11334 0)
(2.77304 0.086886 0)
(2.77042 0.0727207 0)
(2.7683 0.0609528 0)
(2.77244 0.0611482 0)
(2.7718 0.0584622 0)
(2.77946 0.0711175 0)
(2.78218 0.0814356 0)
(2.78109 0.0822626 0)
(2.77735 0.0773509 0)
(2.77315 0.0681925 0)
(2.77047 0.0595567 0)
(2.77123 0.0594063 0)
(2.77734 0.0675443 0)
(2.78361 0.0790347 0)
(2.78574 0.0865985 0)
(2.7848 0.0839528 0)
(2.78111 0.0734137 0)
(2.77779 0.0639217 0)
(2.77796 0.062996 0)
(2.78173 0.0674077 0)
(2.78381 0.0714705 0)
(2.78825 0.0749825 0)
(2.78871 0.0728445 0)
(2.79049 0.0678844 0)
(2.79218 0.0617149 0)
(2.79322 0.0611643 0)
(2.79457 0.0606496 0)
(2.79632 0.0602051 0)
(2.79726 0.057152 0)
(2.7994 0.0507206 0)
(2.80183 0.0452599 0)
(2.80271 0.0457836 0)
(2.80612 0.0434453 0)
(3.09878 -1.2979 0)
(3.09882 -1.29785 0)
(3.09874 -1.29801 0)
(3.09871 -1.2981 0)
(3.09869 -1.29813 0)
(3.09863 -1.29821 0)
(3.0985 -1.29832 0)
(3.09861 -1.29826 0)
(3.09885 -1.29805 0)
(3.09895 -1.298 0)
(3.0989 -1.29807 0)
(3.0989 -1.29818 0)
(3.09908 -1.29831 0)
(3.09919 -1.29839 0)
(3.09921 -1.29841 0)
(3.09918 -1.29833 0)
(3.09929 -1.29796 0)
(3.09943 -1.29742 0)
(3.0994 -1.29767 0)
(3.09928 -1.29824 0)
(3.09916 -1.29843 0)
(3.09904 -1.29867 0)
(3.09901 -1.29863 0)
(3.09896 -1.29837 0)
(3.09898 -1.29818 0)
(3.09914 -1.29803 0)
(3.09926 -1.2979 0)
(3.09924 -1.29793 0)
(3.09925 -1.29792 0)
(3.09938 -1.29787 0)
(3.09957 -1.29797 0)
(3.10006 -1.29768 0)
(3.10032 -1.29737 0)
(3.10036 -1.29746 0)
(3.10042 -1.29756 0)
(3.10093 -1.29742 0)
(3.10126 -1.29702 0)
(3.10129 -1.29658 0)
(3.10151 -1.29608 0)
(3.10172 -1.29585 0)
(3.1019 -1.29562 0)
(3.10194 -1.29549 0)
(3.10188 -1.29581 0)
(3.10206 -1.296 0)
(3.10246 -1.2961 0)
(3.10263 -1.29591 0)
(3.10288 -1.29562 0)
(3.10174 -1.29605 0)
(3.10068 -1.29621 0)
(3.10015 -1.29683 0)
(3.09984 -1.297 0)
(3.09935 -1.29708 0)
(3.09949 -1.29784 0)
(3.09984 -1.29873 0)
(3.1005 -1.29946 0)
(3.1017 -1.29978 0)
(3.10287 -1.29847 0)
(3.10327 -1.29702 0)
(3.10332 -1.29607 0)
(3.10275 -1.29576 0)
(3.08897 -1.25511 0)
(3.05771 -1.1227 0)
(2.99157 -0.837201 0)
(2.95911 -0.594952 0)
(2.89485 -0.291688 0)
(2.88793 -0.173799 0)
(2.83012 -0.047333 0)
(2.82804 -0.0107461 0)
(2.80363 0.0283883 0)
(2.79329 0.0505627 0)
(2.79296 0.0659026 0)
(2.78775 0.0782533 0)
(2.78411 0.0882932 0)
(2.7805 0.0865239 0)
(2.7738 0.0771234 0)
(2.76779 0.0617454 0)
(2.76714 0.0507897 0)
(2.76833 0.0540448 0)
(2.7736 0.0643072 0)
(2.78281 0.0791485 0)
(2.78568 0.0870059 0)
(2.78451 0.0850923 0)
(2.78131 0.0741063 0)
(2.77726 0.062969 0)
(2.77403 0.0595629 0)
(2.77629 0.0639793 0)
(2.78048 0.0714383 0)
(2.78168 0.0766611 0)
(2.78618 0.0751112 0)
(2.78658 0.0695305 0)
(2.78695 0.0620454 0)
(2.78809 0.0610293 0)
(2.7904 0.0622673 0)
(2.79296 0.0614388 0)
(2.79378 0.0592981 0)
(2.79449 0.0539287 0)
(2.79676 0.0479187 0)
(2.79853 0.0457959 0)
(2.80069 0.045126 0)
(2.80424 0.0430752 0)
(3.09868 -1.29804 0)
(3.09887 -1.29794 0)
(3.09891 -1.29791 0)
(3.09893 -1.2979 0)
(3.09894 -1.29796 0)
(3.09899 -1.29797 0)
(3.09906 -1.29765 0)
(3.09906 -1.29759 0)
(3.09925 -1.29768 0)
(3.0994 -1.29774 0)
(3.09945 -1.29778 0)
(3.09939 -1.29778 0)
(3.09935 -1.29778 0)
(3.09945 -1.29765 0)
(3.09954 -1.29749 0)
(3.09959 -1.29746 0)
(3.09969 -1.29738 0)
(3.09975 -1.29729 0)
(3.09987 -1.29709 0)
(3.09991 -1.29707 0)
(3.09966 -1.2973 0)
(3.09959 -1.29744 0)
(3.09956 -1.29753 0)
(3.0995 -1.29758 0)
(3.09949 -1.2976 0)
(3.09968 -1.29749 0)
(3.09972 -1.29726 0)
(3.09968 -1.29707 0)
(3.09975 -1.29699 0)
(3.10048 -1.29667 0)
(3.10147 -1.2962 0)
(3.1016 -1.29592 0)
(3.10157 -1.29588 0)
(3.10123 -1.29609 0)
(3.10104 -1.29648 0)
(3.10109 -1.29654 0)
(3.1012 -1.29648 0)
(3.10145 -1.29636 0)
(3.10157 -1.29617 0)
(3.10173 -1.29586 0)
(3.10202 -1.29568 0)
(3.10214 -1.2957 0)
(3.10183 -1.2964 0)
(3.102 -1.29746 0)
(3.10232 -1.29765 0)
(3.1026 -1.29751 0)
(3.103 -1.29746 0)
(3.10231 -1.29649 0)
(3.10157 -1.29606 0)
(3.10064 -1.29602 0)
(3.10009 -1.29664 0)
(3.09932 -1.29698 0)
(3.09927 -1.29783 0)
(3.09981 -1.29886 0)
(3.10059 -1.2999 0)
(3.10174 -1.3005 0)
(3.10343 -1.29939 0)
(3.10391 -1.29675 0)
(3.1038 -1.29516 0)
(3.10331 -1.29389 0)
(3.10293 -1.29511 0)
(3.10277 -1.29812 0)
(3.10244 -1.29885 0)
(3.10088 -1.29581 0)
(3.06975 -1.18751 0)
(3.02871 -0.972956 0)
(2.92741 -0.547653 0)
(2.93409 -0.372863 0)
(2.84734 -0.0792177 0)
(2.83561 0.00745735 0)
(2.79953 0.0890626 0)
(2.79357 0.139293 0)
(2.77601 0.115995 0)
(2.77225 0.0860253 0)
(2.77543 0.0743638 0)
(2.76933 0.0590288 0)
(2.77044 0.056746 0)
(2.77558 0.0643405 0)
(2.78428 0.0875811 0)
(2.78504 0.0924128 0)
(2.78329 0.0893629 0)
(2.77886 0.0783524 0)
(2.77762 0.0688448 0)
(2.7707 0.0594864 0)
(2.77203 0.0616251 0)
(2.77771 0.0718269 0)
(2.78035 0.080281 0)
(2.78243 0.0774932 0)
(2.78131 0.0719924 0)
(2.78281 0.0664814 0)
(2.78325 0.0621312 0)
(2.78503 0.0619845 0)
(2.78759 0.0633336 0)
(2.79085 0.060909 0)
(2.79079 0.0565255 0)
(2.79129 0.0518392 0)
(2.79339 0.0467649 0)
(2.79554 0.0466392 0)
(2.7999 0.0465302 0)
(2.80239 0.0424834 0)
(3.09917 -1.29741 0)
(3.09916 -1.29739 0)
(3.09956 -1.29721 0)
(3.09968 -1.29709 0)
(3.09962 -1.29707 0)
(3.09958 -1.29707 0)
(3.0996 -1.29711 0)
(3.09961 -1.29716 0)
(3.09988 -1.29711 0)
(3.10006 -1.29707 0)
(3.10008 -1.29703 0)
(3.09993 -1.29699 0)
(3.09982 -1.29704 0)
(3.09993 -1.29685 0)
(3.10001 -1.29653 0)
(3.09994 -1.29652 0)
(3.09993 -1.29658 0)
(3.10016 -1.29647 0)
(3.10031 -1.29637 0)
(3.10034 -1.29634 0)
(3.10028 -1.29639 0)
(3.10076 -1.29593 0)
(3.1009 -1.29567 0)
(3.10043 -1.29579 0)
(3.10026 -1.29612 0)
(3.10076 -1.29626 0)
(3.10129 -1.29578 0)
(3.10126 -1.29541 0)
(3.10116 -1.2954 0)
(3.10124 -1.29569 0)
(3.10221 -1.29553 0)
(3.10272 -1.29513 0)
(3.10279 -1.295 0)
(3.10255 -1.29496 0)
(3.10163 -1.29564 0)
(3.10128 -1.29619 0)
(3.10125 -1.29622 0)
(3.10129 -1.29611 0)
(3.10131 -1.29614 0)
(3.10127 -1.29648 0)
(3.10141 -1.29665 0)
(3.10153 -1.29664 0)
(3.1012 -1.29729 0)
(3.10137 -1.29891 0)
(3.1016 -1.29926 0)
(3.10257 -1.29933 0)
(3.10337 -1.29892 0)
(3.10348 -1.29723 0)
(3.10277 -1.29607 0)
(3.10117 -1.29542 0)
(3.10031 -1.29628 0)
(3.09959 -1.29653 0)
(3.09876 -1.29708 0)
(3.09962 -1.29903 0)
(3.10108 -1.29991 0)
(3.10181 -1.30029 0)
(3.10334 -1.30045 0)
(3.10455 -1.29732 0)
(3.10427 -1.2945 0)
(3.104 -1.29387 0)
(3.10355 -1.29505 0)
(3.10298 -1.29803 0)
(3.10251 -1.29874 0)
(3.10161 -1.29869 0)
(3.1 -1.29899 0)
(3.10078 -1.29901 0)
(3.10164 -1.30138 0)
(3.08585 -1.23904 0)
(3.02566 -1.0137 0)
(2.97165 -0.725042 0)
(2.91568 -0.430506 0)
(2.86343 -0.15679 0)
(2.86305 -0.101271 0)
(2.80679 -0.00493942 0)
(2.80222 0.0204594 0)
(2.79919 0.0488804 0)
(2.7913 0.0714692 0)
(2.77937 0.0912776 0)
(2.78131 0.102051 0)
(2.775 0.0949163 0)
(2.76957 0.076825 0)
(2.76544 0.0523015 0)
(2.76505 0.0530332 0)
(2.76665 0.0574811 0)
(2.77326 0.0698876 0)
(2.77748 0.077956 0)
(2.7788 0.0786084 0)
(2.77842 0.0732037 0)
(2.77591 0.0658249 0)
(2.77774 0.0609538 0)
(2.78011 0.0621807 0)
(2.78341 0.0640561 0)
(2.78624 0.0627712 0)
(2.78694 0.0589556 0)
(2.78746 0.0529042 0)
(2.78822 0.0472214 0)
(2.79045 0.0470445 0)
(2.79318 0.0484097 0)
(2.79868 0.0471253 0)
(2.79975 0.0409494 0)
(3.09948 -1.29797 0)
(3.09986 -1.2977 0)
(3.09995 -1.2976 0)
(3.09998 -1.29734 0)
(3.10011 -1.29694 0)
(3.09993 -1.2968 0)
(3.10018 -1.29692 0)
(3.1005 -1.29673 0)
(3.1004 -1.29664 0)
(3.10027 -1.29643 0)
(3.10053 -1.29615 0)
(3.1005 -1.29608 0)
(3.10025 -1.29631 0)
(3.10087 -1.29587 0)
(3.10179 -1.29478 0)
(3.10144 -1.29464 0)
(3.10047 -1.29545 0)
(3.10056 -1.29577 0)
(3.10186 -1.29518 0)
(3.1019 -1.29512 0)
(3.1014 -1.29549 0)
(3.10197 -1.29532 0)
(3.10311 -1.29437 0)
(3.10261 -1.29419 0)
(3.10183 -1.29477 0)
(3.10196 -1.29501 0)
(3.10262 -1.29552 0)
(3.10259 -1.29541 0)
(3.10239 -1.29507 0)
(3.10243 -1.29464 0)
(3.1028 -1.29461 0)
(3.10301 -1.29501 0)
(3.10299 -1.29502 0)
(3.10278 -1.29489 0)
(3.10182 -1.29516 0)
(3.10074 -1.29608 0)
(3.10052 -1.29668 0)
(3.1006 -1.2968 0)
(3.10053 -1.29694 0)
(3.10024 -1.2974 0)
(3.10019 -1.29775 0)
(3.10032 -1.29788 0)
(3.10051 -1.29832 0)
(3.10104 -1.29982 0)
(3.10144 -1.30057 0)
(3.10253 -1.30075 0)
(3.10365 -1.30028 0)
(3.10448 -1.298 0)
(3.10377 -1.29593 0)
(3.10195 -1.29431 0)
(3.10088 -1.29517 0)
(3.1001 -1.29543 0)
(3.09881 -1.29569 0)
(3.09985 -1.29867 0)
(3.1013 -1.29976 0)
(3.10199 -1.30018 0)
(3.10317 -1.30054 0)
(3.10431 -1.29819 0)
(3.10423 -1.29445 0)
(3.1043 -1.29394 0)
(3.10433 -1.29504 0)
(3.1035 -1.29797 0)
(3.10258 -1.29885 0)
(3.10085 -1.29916 0)
(3.09753 -1.30031 0)
(3.09708 -1.3022 0)
(3.09832 -1.30191 0)
(3.09978 -1.30198 0)
(3.09787 -1.30199 0)
(3.09578 -1.30159 0)
(3.08006 -1.25496 0)
(3.02096 -1.02469 0)
(2.97512 -0.70619 0)
(2.86757 -0.277793 0)
(2.89076 -0.149415 0)