/*--------------------------------*- C++ -*----------------------------------*\
  =========                 |
  \\      /  F ield         | OpenFOAM: The Open Source CFD Toolbox
   \\    /   O peration     | Website:  https://openfoam.org
    \\  /    A nd           | Version:  7
     \\/     M anipulation  |
\*---------------------------------------------------------------------------*/
FoamFile
{
    version     2.0;
    format      ascii;
    class       volScalarField;
    location    "7.9";
    object      rho;
}
// * * * * * * * * * * * * * * * * * * * * * * * * * * * * * * * * * * * * * //

dimensions      [1 -3 0 0 0 0 0];

internalField   nonuniform List<scalar> 
1750
(
0.238325
0.437111
0.54497
0.549944
0.581766
0.649393
0.722184
0.776225
0.834867
0.888456
0.0652878
0.126858
0.315719
0.475135
0.599255
0.658032
0.685216
0.717202
0.767392
0.81442
0.0772472
0.0825919
0.110011
0.248477
0.441204
0.568795
0.677569
0.750787
0.798998
0.79188
0.109112
0.122609
0.154653
0.183363
0.212601
0.289039
0.448177
0.637209
0.734889
0.816752
0.205753
0.22
0.240113
0.258282
0.267869
0.283913
0.285877
0.335697
0.445714
0.714931
0.326818
0.339615
0.344515
0.353048
0.372338
0.391218
0.408442
0.431546
0.441363
0.483586
0.513431
0.519111
0.519344
0.521438
0.527866
0.539426
0.541413
0.541223
0.538133
0.53518
0.790656
0.772437
0.75508
0.739016
0.721785
0.701932
0.684525
0.667254
0.658047
0.649502
1.15116
1.11566
1.07417
1.03239
0.994291
0.956973
0.924846
0.890766
0.862886
0.824512
1.42155
1.39878
1.36942
1.3322
1.29132
1.24687
1.19754
1.14843
1.10325
1.03035
1.47155
1.46977
1.466
1.45939
1.44954
1.43453
1.41177
1.38009
1.3451
1.27247
1.45184
1.45557
1.45777
1.45875
1.45864
1.45809
1.45648
1.45297
1.4475
1.42491
1.41238
1.4166
1.42156
1.42732
1.43325
1.43869
1.44315
1.44634
1.44762
1.44676
1.40064
1.40109
1.40188
1.4032
1.40523
1.40829
1.41228
1.41743
1.42313
1.43133
1.40001
1.40002
1.40005
1.40009
1.40019
1.40041
1.40085
1.40172
1.40315
1.40808
0.0729824
0.0592735
0.0704636
0.103343
0.183355
0.314516
0.504954
0.810793
1.19403
1.43992
1.47249
1.44721
1.40947
1.40044
1.40001
0.0681577
0.05631
0.0779041
0.133777
0.213523
0.362412
0.609127
0.960433
1.31652
1.47308
1.47431
1.43876
1.40517
1.40016
1.40001
0.0650886
0.0553319
0.0841336
0.150556
0.231494
0.405723
0.705058
1.06826
1.38267
1.48291
1.47488
1.42888
1.40273
1.40007
1.40001
0.0647466
0.0548352
0.084788
0.156434
0.278992
0.50791
0.817209
1.17558
1.43754
1.48804
1.46713
1.41914
1.40136
1.40003
1.40001
0.0670718
0.0560504
0.0831949
0.155771
0.339925
0.604397
0.926497
1.28651
1.47648
1.48987
1.45664
1.41208
1.40062
1.40002
1.40001
0.0631013
0.0602098
0.0937258
0.200851
0.416549
0.697866
1.0688
1.39025
1.49513
1.49026
1.4446
1.40666
1.40026
1.40001
1.40001
0.0431784
0.0607298
0.125531
0.276807
0.507606
0.834072
1.22031
1.45848
1.50209
1.48316
1.43107
1.40309
1.4001
1.40001
1.40001
0.0310481
0.0542645
0.154733
0.345569
0.633528
1.02224
1.34664
1.49536
1.50439
1.47219
1.41879
1.40133
1.40004
1.40001
1.40001
0.0210046
0.062362
0.199795
0.448874
0.815058
1.19035
1.44233
1.51224
1.5052
1.45534
1.40952
1.40049
1.40002
1.40001
1.40001
0.0154787
0.105294
0.300709
0.619482
1.01807
1.34147
1.49963
1.51728
1.49348
1.43494
1.40417
1.40016
1.40001
1.40001
1.40001
0.0158503
0.153428
0.440357
0.850124
1.22806
1.45927
1.52211
1.51833
1.47497
1.41917
1.40156
1.40005
1.40001
1.40001
1.40001
0.0400475
0.26336
0.681693
1.10861
1.40077
1.51637
1.52747
1.50817
1.44925
1.40822
1.40045
1.40002
1.40001
1.40001
1.40001
0.181513
0.520887
0.996481
1.33363
1.49778
1.53295
1.52821
1.4862
1.42666
1.40284
1.40012
1.40001
1.40001
1.40001
1.40001
0.428922
0.872751
1.28092
1.48131
1.53674
1.5359
1.51455
1.45632
1.41114
1.40077
1.40003
1.40001
1.40001
1.40001
1.40001
0.90293
1.26722
1.47914
1.53807
1.5428
1.53193
1.48941
1.4288
1.40327
1.40015
1.40001
1.40001
1.40001
1.40001
1.40001
1.52807
1.53591
1.54548
1.54565
1.54351
1.51246
1.45133
1.40791
1.40025
1.40001
1.40001
1.40001
1.40001
1.40001
1.40001
1.52625
1.53333
1.54411
1.54428
1.53944
1.50635
1.44319
1.40823
1.40057
1.40002
1.40001
1.40001
1.40001
1.40001
1.40001
1.52643
1.53342
1.54524
1.54275
1.53019
1.48483
1.42681
1.40273
1.40009
1.40001
1.40001
1.40001
1.40001
1.40001
1.40001
1.52734
1.53357
1.54452
1.54124
1.52125
1.4687
1.41602
1.40117
1.40004
1.40001
1.40001
1.40001
1.40001
1.40001
1.40001
1.52958
1.5346
1.54344
1.53962
1.50962
1.4473
1.40782
1.40043
1.40001
1.40001
1.40001
1.40001
1.40001
1.40001
1.40001
1.53155
1.53455
1.53886
1.53189
1.49001
1.431
1.40373
1.40015
1.40001
1.40001
1.40001
1.40001
1.40001
1.40001
1.40001
1.5338
1.53384
1.53551
1.521
1.47109
1.41761
1.40143
1.40005
1.40001
1.40001
1.40001
1.40001
1.40001
1.40001
1.40001
1.53547
1.53413
1.53109
1.50483
1.44782
1.40833
1.40049
1.40002
1.40001
1.40001
1.40001
1.40001
1.40001
1.40001
1.40001
1.53564
1.53005
1.52155
1.48533
1.42888
1.40349
1.40015
1.40001
1.40001
1.40001
1.40001
1.40001
1.40001
1.40001
1.40001
1.53684
1.52553
1.51423
1.4643
1.41556
1.40123
1.40004
1.40001
1.40001
1.40001
1.40001
1.40001
1.40001
1.40001
1.40001
1.53871
1.52105
1.49753
1.44037
1.4062
1.40033
1.40001
1.40001
1.40001
1.40001
1.40001
1.40001
1.40001
1.40001
1.40001
1.53062
1.50756
1.47204
1.42226
1.4023
1.40009
1.40001
1.40001
1.40001
1.40001
1.40001
1.40001
1.40001
1.40001
1.40001
1.51635
1.49337
1.44966
1.40926
1.40058
1.40002
1.40001
1.40001
1.40001
1.40001
1.40001
1.40001
1.40001
1.40001
1.40001
1.50407
1.47366
1.42539
1.4029
1.40012
1.40001
1.40001
1.40001
1.40001
1.40001
1.40001
1.40001
1.40001
1.40001
1.40001
1.48203
1.44586
1.40873
1.40058
1.40002
1.40001
1.40001
1.40001
1.40001
1.40001
1.40001
1.40001
1.40001
1.40001
1.40001
1.44933
1.4171
1.40215
1.4001
1.40001
1.40001
1.40001
1.40001
1.40001
1.40001
1.40001
1.40001
1.40001
1.40001
1.40001
1.40001
1.40001
1.40001
1.40001
1.40001
1.40001
1.40001
1.40001
1.40001
1.40001
1.40001
1.40001
1.40001
1.40001
1.40001
1.40001
1.40001
1.40001
1.40001
1.40001
1.40001
1.40001
1.40001
1.40001
1.40001
1.40001
1.40001
1.40001
1.40001
1.40001
1.40001
1.40001
1.40001
1.40001
1.40001
1.40001
1.40001
1.40001
1.40001
1.40001
1.40001
1.40001
1.40001
1.40001
1.40001
1.40001
1.40001
1.40001
1.40001
1.40001
1.40001
1.40001
1.40001
1.40001
1.40001
1.40001
1.40001
1.40001
1.40001
1.40001
1.40001
1.40001
1.40001
1.40001
1.40001
1.40001
1.40001
1.40001
1.40001
1.40001
1.40001
1.40001
1.40001
1.40001
1.40001
1.40001
1.40001
1.40001
1.40001
1.40001
1.40001
1.40001
1.40001
1.40001
1.40001
1.40001
1.40001
1.40001
1.40001
1.40001
1.40001
1.40001
1.40001
1.40001
1.40001
1.40001
1.40001
1.40001
1.40001
1.40001
1.40001
1.40001
1.40001
1.40001
1.40001
1.40001
1.40001
1.40001
1.40001
1.40001
1.40001
1.40001
1.40001
1.40001
1.40001
1.40001
1.40001
1.40001
1.40001
1.40001
1.40001
1.40001
1.40001
1.40001
1.40001
1.40001
1.40001
1.40001
1.40001
1.40001
1.40001
1.40001
1.40001
1.40001
1.40001
1.60085
1.40001
1.40001
1.40001
1.40001
1.40001
1.40001
1.40001
1.40001
1.40001
1.4493
1.40001
1.40001
1.40001
1.40001
1.40001
1.40001
1.40001
1.40001
1.40001
1.41475
1.40001
1.40001
1.40001
1.40001
1.40001
1.40001
1.40001
1.40001
1.40001
1.40328
1.40001
1.40001
1.40001
1.40001
1.40001
1.40001
1.40001
1.40001
1.40001
1.40058
1.40001
1.40001
1.40001
1.40001
1.40001
1.40001
1.40001
1.40001
1.40001
1.40009
1.40001
1.40001
1.40001
1.40001
1.40001
1.40001
1.40001
1.40001
1.40001
1.40001
1.40001
1.40001
1.40001
1.40001
1.40001
1.40001
1.40001
1.40001
1.40001
1.40001
1.40001
1.40001
1.40001
1.40001
1.40001
1.40001
1.40001
1.40001
1.40001
1.40001
1.40001
1.40001
1.40001
1.40001
1.40001
1.40001
1.40001
1.40001
1.40001
1.40001
1.40001
1.40001
1.40001
1.40001
1.40001
1.40001
1.40001
1.40001
1.40001
1.40001
1.40001
1.40001
1.40001
1.40001
1.40001
1.40001
1.40001
1.40001
1.40001
1.40001
1.40001
1.40001
1.40001
1.40001
1.40001
1.40001
1.40001
1.40001
1.40001
1.40001
1.40001
1.40001
1.40001
1.40001
1.40001
1.40001
1.40001
1.40001
1.40001
1.40001
1.40001
1.40001
1.40001
1.40001
1.40001
1.40001
1.40001
1.40001
1.40001
1.40001
1.40001
1.40001
1.40001
1.40001
1.40001
1.40001
1.40001
1.40001
1.40001
1.40001
1.40001
1.40001
1.40001
1.40001
1.40001
1.40001
1.40001
1.40001
1.40001
1.40001
1.40001
1.40001
1.40001
1.40001
1.40001
1.40001
1.40001
1.40001
1.40001
1.40001
1.40001
1.40001
1.40001
1.40001
1.40001
1.40001
1.40001
1.40001
1.40001
1.40001
1.40001
1.40001
1.40001
1.40001
1.40001
1.40001
1.40001
1.40001
1.40001
1.40001
1.40001
1.40001
1.40001
1.40001
1.40001
1.40001
1.40001
1.40001
1.40001
4.61396
3.58836
1.91589
1.40167
1.40029
1.40006
1.40001
1.40001
1.40001
1.40001
1.40001
1.40001
1.40001
1.40001
1.40001
1.40001
1.40001
1.40001
1.40001
1.40001
4.86893
4.74128
4.63823
3.09561
1.46743
1.40003
1.40001
1.40001
1.40001
1.40001
1.40001
1.40001
1.40001
1.40001
1.40001
1.40001
1.40001
1.40001
1.40001
1.40001
4.76474
4.70939
4.91486
4.93236
3.78741
1.71325
1.39999
1.40001
1.40001
1.40001
1.40001
1.40001
1.40001
1.40001
1.40001
1.40001
1.40001
1.40001
1.40001
1.40001
4.68862
4.67862
4.82719
4.92427
4.90774
4.06787
1.9034
1.39951
1.40001
1.40001
1.40001
1.40001
1.40001
1.40001
1.40001
1.40001
1.40001
1.40001
1.40001
1.40001
4.67079
4.67802
4.79952
4.86435
4.92002
4.92845
4.24978
2.01857
1.39862
1.40001
1.40001
1.40001
1.40001
1.40001
1.40001
1.40001
1.40001
1.40001
1.40001
1.40001
4.66384
4.66873
4.76311
4.82929
4.88619
4.90051
4.87878
4.13914
1.91011
1.39871
1.40001
1.40001
1.40001
1.40001
1.40001
1.40001
1.40001
1.40001
1.40001
1.40001
4.65732
4.66028
4.73503
4.79143
4.8578
4.86431
4.85447
4.84743
3.90725
1.74857
1.39882
1.40001
1.40001
1.40001
1.40001
1.40001
1.40001
1.40001
1.40001
1.40001
4.64323
4.6424
4.70373
4.75534
4.81369
4.82833
4.82075
4.84433
4.72865
3.39698
1.55464
1.39937
1.40001
1.40001
1.40001
1.40001
1.40001
1.40001
1.40001
1.40001
4.62231
4.61894
4.67145
4.71544
4.7701
4.79694
4.79833
4.80052
4.79516
4.66617
2.77543
1.43397
1.39985
1.40001
1.40001
1.40001
1.40001
1.40001
1.40001
1.40001
4.60102
4.59874
4.64426
4.68615
4.73892
4.76521
4.78119
4.79326
4.80953
4.8734
4.6087
2.34861
1.40493
1.40001
1.40001
1.40001
1.40001
1.40001
1.40001
1.40001
4.58421
4.58175
4.62092
4.66211
4.71429
4.74419
4.76561
4.79104
4.81285
4.84319
4.80699
3.99762
1.82658
1.39846
1.40001
1.40001
1.40001
1.40001
1.40001
1.40001
4.57111
4.56719
4.60177
4.64224
4.69568
4.72493
4.75086
4.77384
4.7833
4.78959
4.76697
4.7166
3.25253
1.52213
1.39948
1.4
1.40001
1.40001
1.40001
1.40001
4.55414
4.54976
4.58152
4.6203
4.66979
4.69958
4.72589
4.74746
4.74088
4.72914
4.70018
4.71336
4.34326
2.31948
1.41124
1.39995
1.4
1.40001
1.40001
1.40001
4.52066
4.51038
4.53132
4.55544
4.59394
4.61803
4.6426
4.65678
4.65
4.64276
4.61733
4.63265
4.62336
3.80948
1.74961
1.40153
1.40001
1.40001
1.40001
1.40001
4.37195
4.29074
4.29664
4.30451
4.33627
4.36532
4.40422
4.43013
4.44894
4.46178
4.4734
4.51797
4.56486
4.41188
2.7194
1.41213
1.3998
1.39999
1.4
1.40001
1.99322
2.68236
3.00045
3.25554
3.4721
3.66593
3.81744
3.94954
4.04955
4.12773
4.19611
4.27882
4.35842
4.36318
4.11454
2.2905
1.44992
1.40047
1.40001
1.40001
0.764791
1.59099
2.08556
2.47639
2.75677
2.99794
3.21911
3.41662
3.58365
3.7369
3.84599
3.96885
4.06326
4.17811
4.2461
3.64147
1.95464
1.42129
1.40017
1.40001
0.763026
1.20684
1.47887
1.82539
2.19757
2.47352
2.73226
2.94681
3.16228
3.35422
3.51089
3.66094
3.78742
3.9304
4.11
3.99431
2.98881
1.63664
1.4051
1.40004
0.87019
1.08482
1.21633
1.47388
1.75127
2.04455
2.32113
2.57178
2.80584
3.00805
3.21517
3.37595
3.54393
3.68517
3.85556
3.9147
3.75038
2.3457
1.46492
1.40066
0.953345
0.969886
1.03324
1.26687
1.4825
1.73649
1.98474
2.24635
2.48273
2.70814
2.90873
3.10662
3.28762
3.45562
3.59207
3.74114
3.75431
3.15059
1.76476
1.41054
0.974613
0.965095
1.00202
1.10657
1.25986
1.48826
1.72015
1.96232
2.18721
2.43525
2.62298
2.85059
3.0468
3.22629
3.37655
3.52692
3.69439
3.58057
2.3576
1.47721
1.00686
0.990488
1.02977
1.08636
1.14556
1.30247
1.50877
1.73216
1.96616
2.18762
2.417
2.61353
2.84919
3.02216
3.18817
3.33988
3.56934
3.57906
2.98279
1.738
1.03498
1.03336
1.06349
1.06589
1.09018
1.22024
1.37659
1.56208
1.78835
1.99025
2.23534
2.42104
2.65129
2.84205
2.98891
3.13663
3.36653
3.54172
3.37065
2.27975
1.04218
1.04542
1.0617
1.05058
1.05482
1.12962
1.25429
1.42091
1.62436
1.82619
2.03932
2.24796
2.42946
2.65047
2.80609
2.97813
3.19057
3.44671
3.37668
3.00567
1.04109
1.04438
1.05685
1.05309
1.06025
1.09222
1.14038
1.28099
1.45406
1.67214
1.86731
2.1001
2.27129
2.48081
2.6588
2.84003
3.03493
3.28745
3.40953
3.84762
1.03521
1.03997
1.05741
1.0732
1.08518
1.09947
1.11709
1.22082
1.35987
1.55628
1.75061
1.96713
2.15488
2.33667
2.51835
2.69091
2.8553
3.11341
3.51089
4.62327
1.02294
1.03189
1.0622
1.08943
1.09561
1.09199
1.09359
1.17896
1.29341
1.46366
1.65017
1.82804
2.02877
2.19069
2.37954
2.5356
2.71063
2.94989
3.57816
5.32501
1.01009
1.02305
1.0632
1.09078
1.08986
1.07659
1.07301
1.1232
1.21387
1.35836
1.54915
1.6973
1.88135
2.05185
2.24684
2.42089
2.61241
2.83673
3.65719
5.91236
1.00542
1.02095
1.05826
1.08812
1.08792
1.07815
1.07517
1.10313
1.15106
1.26519
1.44176
1.61257
1.77356
1.95132
2.12209
2.31651
2.5036
2.77969
3.85341
6.34119
1.00789
1.02256
1.05158
1.08208
1.0884
1.08506
1.08841
1.10743
1.13816
1.23002
1.3614
1.5284
1.67666
1.87012
2.03066
2.20629
2.35945
2.7254
4.0569
6.51319
0.880758
1.00595
1.04492
1.07636
1.09133
1.09671
1.10007
1.09961
1.11449
1.19453
1.29507
1.45441
1.58677
1.75885
1.94474
2.08547
2.26684
2.74317
4.22051
6.48147
0.762129
0.936939
1.02274
1.06892
1.09743
1.10335
1.09999
1.09219
1.09742
1.15511
1.22289
1.35846
1.51379
1.6455
1.85062
2.00009
2.21077
2.8782
4.42091
6.36204
0.669441
0.84152
0.970982
1.04988
1.09575
1.10769
1.10286
1.09472
1.09968
1.14378
1.18847
1.27884
1.43849
1.57149
1.73159
1.91588
2.16737
3.12032
4.45769
6.05243
0.615941
0.754296
0.896305
1.0091
1.08097
1.10502
1.10217
1.09694
1.10292
1.12471
1.16109
1.23762
1.35534
1.51101
1.63649
1.81182
2.21701
3.39371
4.41356
5.64737
0.621705
0.706663
0.820075
0.944707
1.04383
1.09248
1.10184
1.10199
1.10217
1.10602
1.12427
1.19933
1.28506
1.41345
1.55051
1.75062
2.38707
3.65649
4.34381
5.22155
0.649766
0.673068
0.759306
0.878032
0.981716
1.06152
1.09795
1.10427
1.10136
1.09902
1.10244
1.14657
1.22288
1.32934
1.47747
1.79882
2.66799
3.80599
4.23564
4.75757
0.702185
0.683207
0.71865
0.805075
0.908476
1.0086
1.07708
1.09948
1.09727
1.08874
1.09136
1.11769
1.17086
1.27092
1.42946
1.93626
2.89069
3.77196
4.07787
4.29992
0.767994
0.733033
0.720819
0.745195
0.833048
0.935329
1.02693
1.07767
1.08817
1.08272
1.08655
1.1003
1.12436
1.22024
1.49104
2.18668
3.05592
3.70706
3.85576
3.86422
0.847903
0.810657
0.74096
0.747026
0.77568
0.855764
0.951942
1.0334
1.07115
1.07774
1.08308
1.08607
1.09832
1.25127
1.71437
2.5183
3.0512
3.54928
3.5853
3.53173
0.944953
0.927935
0.859057
0.784427
0.761769
0.782204
0.848499
0.932383
1.00633
1.05044
1.07298
1.10043
1.21734
1.57018
2.10176
2.60833
2.89544
3.16946
3.13573
3.06561
)
;

boundaryField
{
    inlet
    {
        type            calculated;
        value           uniform 1.40001;
    }
    outlet
    {
        type            calculated;
        value           nonuniform List<scalar> 
35
(
0.944951
0.927944
0.859086
0.784453
0.761766
0.782257
0.848504
0.932447
1.00644
1.05058
1.07317
1.10079
1.21837
1.57201
2.10331
2.60931
2.89581
3.16906
3.1356
3.06553
0.888414
0.814428
0.792102
0.81689
0.715076
0.483723
0.535234
0.649418
0.824506
1.03036
1.27247
1.42491
1.44676
1.43133
1.40808
)
;
    }
    airfoil
    {
        type            calculated;
        value           nonuniform List<scalar> 
60
(
0.0729824
0.0681577
0.0650886
0.0647466
0.0670718
0.0631013
0.0431784
0.0310481
0.0210046
0.0154787
0.0158503
0.0400475
0.181513
0.428922
0.90293
1.52807
1.52625
1.52643
1.52734
1.52958
1.53155
1.5338
1.53547
1.53564
1.53684
1.53871
1.53062
1.51635
1.50407
1.48203
4.61396
4.86893
4.76474
4.68862
4.67079
4.66384
4.65732
4.64323
4.62231
4.60102
4.58421
4.57111
4.55414
4.52066
4.37195
1.99322
0.764791
0.763026
0.87019
0.953345
0.974613
1.00686
1.03498
1.04218
1.04109
1.03521
1.02294
1.01009
1.00542
1.00789
)
;
    }
    top
    {
        type            symmetryPlane;
    }
    bottom
    {
        type            symmetryPlane;
    }
    defaultFaces
    {
        type            empty;
    }
}


// ************************************************************************* //
