/*--------------------------------*- C++ -*----------------------------------*\
  =========                 |
  \\      /  F ield         | OpenFOAM: The Open Source CFD Toolbox
   \\    /   O peration     | Website:  https://openfoam.org
    \\  /    A nd           | Version:  7
     \\/     M anipulation  |
\*---------------------------------------------------------------------------*/
FoamFile
{
    version     2.0;
    format      ascii;
    class       volVectorField;
    location    "4.2";
    object      U;
}
// * * * * * * * * * * * * * * * * * * * * * * * * * * * * * * * * * * * * * //

dimensions      [0 1 -1 0 0 0 0];

internalField   nonuniform List<vector> 
11200
(
(2.52187 -0.611322 0)
(2.54137 -0.293638 0)
(2.53556 -0.0366883 0)
(2.52868 0.160313 0)
(2.56425 0.183005 0)
(2.57069 0.286131 0)
(2.59455 0.299811 0)
(2.61236 0.290032 0)
(2.64502 0.317668 0)
(2.67451 0.30996 0)
(2.67069 0.233842 0)
(2.69987 0.167848 0)
(2.72342 0.133625 0)
(2.71702 0.066258 0)
(2.72445 0.0764309 0)
(2.74589 0.118464 0)
(2.75835 0.149607 0)
(2.75601 0.13796 0)
(2.764 0.114017 0)
(2.77139 0.0889734 0)
(2.77377 0.0955004 0)
(2.77749 0.104137 0)
(2.78166 0.101556 0)
(2.79458 0.09301 0)
(2.81207 0.0849773 0)
(2.82427 0.0740242 0)
(2.83067 0.0677806 0)
(2.84191 0.0591512 0)
(2.87041 0.0481658 0)
(2.89136 0.0353034 0)
(2.6661 -1.45799 0)
(2.68617 -1.46165 0)
(2.67381 -1.31032 0)
(2.64388 -1.11424 0)
(2.60297 -0.868607 0)
(2.56208 -0.613213 0)
(2.52189 -0.333946 0)
(2.5439 -0.256871 0)
(2.51132 -0.0444935 0)
(2.52693 0.0357296 0)
(2.55718 0.0219195 0)
(2.56359 0.0533729 0)
(2.59129 0.058604 0)
(2.59738 0.0689667 0)
(2.59974 0.0950076 0)
(2.61553 0.0812707 0)
(2.61761 0.0712035 0)
(2.62043 0.0592002 0)
(2.62883 0.0583865 0)
(2.6388 0.0924108 0)
(2.64554 0.0995201 0)
(2.651 0.092116 0)
(2.65961 0.0839381 0)
(2.67808 0.0735884 0)
(2.69572 0.0640165 0)
(2.70753 0.0568761 0)
(2.71995 0.0381963 0)
(2.73681 0.0398653 0)
(2.77005 0.0399795 0)
(2.79731 0.0222412 0)
(2.85106 -1.5514 0)
(2.90147 -1.56198 0)
(2.94335 -1.61558 0)
(2.96434 -1.62784 0)
(2.9863 -1.62351 0)
(2.99487 -1.6408 0)
(2.96962 -1.54287 0)
(2.90617 -1.39117 0)
(2.78415 -1.07944 0)
(2.67347 -0.69479 0)
(2.64552 -0.45332 0)
(2.50677 -0.0684907 0)
(2.52808 0.0898931 0)
(2.49853 0.190336 0)
(2.51435 0.203084 0)
(2.51069 0.178619 0)
(2.53282 0.106611 0)
(2.56428 0.050729 0)
(2.57061 0.0605157 0)
(2.57093 0.0913312 0)
(2.57765 0.116504 0)
(2.57729 0.106051 0)
(2.58882 0.0732548 0)
(2.60569 0.0602604 0)
(2.61283 0.0738972 0)
(2.6212 0.0731038 0)
(2.64638 0.058032 0)
(2.66662 0.0364082 0)
(2.70039 0.0219352 0)
(2.72845 0.0176105 0)
(2.99386 -1.63489 0)
(3.01806 -1.64354 0)
(3.03355 -1.65112 0)
(3.04754 -1.64468 0)
(3.04821 -1.65519 0)
(3.04937 -1.64858 0)
(3.05062 -1.65217 0)
(3.04891 -1.64703 0)
(3.04873 -1.63969 0)
(3.04697 -1.63619 0)
(3.02164 -1.57701 0)
(2.91318 -1.32371 0)
(2.82771 -0.931529 0)
(2.78337 -0.598633 0)
(2.70591 -0.250673 0)
(2.62314 -0.0324311 0)
(2.61096 0.00293066 0)
(2.59989 0.0321437 0)
(2.59212 0.0548421 0)
(2.56923 0.0960084 0)
(2.56985 0.106846 0)
(2.5602 0.0824544 0)
(2.57739 0.049019 0)
(2.58642 0.0469203 0)
(2.58881 0.0577454 0)
(2.59415 0.0512811 0)
(2.62116 0.0326203 0)
(2.6483 0.0309306 0)
(2.67527 0.038385 0)
(2.7032 0.0274444 0)
(3.06808 -1.64969 0)
(3.07422 -1.65237 0)
(3.06981 -1.65232 0)
(3.06619 -1.65201 0)
(3.06014 -1.65339 0)
(3.05615 -1.65297 0)
(3.04716 -1.64774 0)
(3.04603 -1.64274 0)
(3.04773 -1.63785 0)
(3.04866 -1.6336 0)
(3.04833 -1.63282 0)
(3.04917 -1.64183 0)
(3.05293 -1.64876 0)
(3.05083 -1.6368 0)
(2.97731 -1.39448 0)
(2.82117 -0.780612 0)
(2.81736 -0.48094 0)
(2.64985 -0.0504641 0)
(2.58532 0.0702047 0)
(2.57861 0.146296 0)
(2.56523 0.108059 0)
(2.58404 0.07255 0)
(2.60225 0.0324246 0)
(2.6002 0.0328922 0)
(2.59855 0.040909 0)
(2.59616 0.0309934 0)
(2.62914 0.0161425 0)
(2.65044 0.0210936 0)
(2.67517 0.0261486 0)
(2.70146 0.0148648 0)
(3.08085 -1.65207 0)
(3.07909 -1.65146 0)
(3.07538 -1.65013 0)
(3.06752 -1.64933 0)
(3.05842 -1.65072 0)
(3.05471 -1.65095 0)
(3.04471 -1.64776 0)
(3.04219 -1.64554 0)
(3.04456 -1.64208 0)
(3.04743 -1.64158 0)
(3.04601 -1.64801 0)
(3.04468 -1.65216 0)
(3.05033 -1.65437 0)
(3.05472 -1.65492 0)
(3.04715 -1.6525 0)
(3.0432 -1.65196 0)
(3.02176 -1.58195 0)
(2.90348 -1.18503 0)
(2.81374 -0.737653 0)
(2.72383 -0.280981 0)
(2.71922 -0.0994133 0)
(2.68843 0.0338118 0)
(2.63606 0.0415997 0)
(2.62942 0.0563112 0)
(2.62919 0.0504965 0)
(2.63832 0.0242868 0)
(2.65691 0.0255553 0)
(2.67626 0.0216735 0)
(2.69188 0.014683 0)
(2.72139 0.00208827 0)
(3.06783 -1.6602 0)
(3.06228 -1.65997 0)
(3.05686 -1.65779 0)
(3.04919 -1.6557 0)
(3.04226 -1.65571 0)
(3.03729 -1.65687 0)
(3.0305 -1.65919 0)
(3.02967 -1.65584 0)
(3.03485 -1.65143 0)
(3.03806 -1.65268 0)
(3.03809 -1.65405 0)
(3.03758 -1.65957 0)
(3.03985 -1.66579 0)
(3.04226 -1.65954 0)
(3.0447 -1.64687 0)
(3.0396 -1.64118 0)
(3.03198 -1.63142 0)
(3.03085 -1.62167 0)
(3.03454 -1.63513 0)
(2.97635 -1.34734 0)
(2.91683 -0.85584 0)
(2.83615 -0.412432 0)
(2.80578 -0.192473 0)
(2.69541 0.0239487 0)
(2.66478 0.0302991 0)
(2.69189 0.0414841 0)
(2.71568 0.0270667 0)
(2.72699 -0.00169028 0)
(2.73554 -0.0150673 0)
(2.76969 -0.0185027 0)
(3.04858 -1.65384 0)
(3.04552 -1.6528 0)
(3.04196 -1.65204 0)
(3.03895 -1.64971 0)
(3.03759 -1.64829 0)
(3.02828 -1.65143 0)
(3.02068 -1.65762 0)
(3.02021 -1.65692 0)
(3.02395 -1.65348 0)
(3.02736 -1.65217 0)
(3.03312 -1.65447 0)
(3.03206 -1.65919 0)
(3.02989 -1.66957 0)
(3.02988 -1.64509 0)
(3.04291 -1.61427 0)
(3.03843 -1.62175 0)
(3.03922 -1.59797 0)
(3.04093 -1.58827 0)
(3.05396 -1.58547 0)
(3.06115 -1.56661 0)
(3.06546 -1.54473 0)
(3.04091 -1.4077 0)
(2.98575 -1.02383 0)
(2.87437 -0.524101 0)
(2.87502 -0.275223 0)
(2.81476 -0.040515 0)
(2.77169 0.0197417 0)
(2.76339 0.0307195 0)
(2.78982 0.0352456 0)
(2.82616 0.00884253 0)
(3.03922 -1.65207 0)
(3.03817 -1.65037 0)
(3.03812 -1.64802 0)
(3.03869 -1.64632 0)
(3.039 -1.64303 0)
(3.03124 -1.64591 0)
(3.01985 -1.65089 0)
(3.01701 -1.64676 0)
(3.02347 -1.64078 0)
(3.02639 -1.63899 0)
(3.03582 -1.63166 0)
(3.03632 -1.63264 0)
(3.02487 -1.6564 0)
(3.0248 -1.62994 0)
(3.04226 -1.58187 0)
(3.04379 -1.59213 0)
(3.04839 -1.58454 0)
(3.05333 -1.54064 0)
(3.065 -1.52984 0)
(3.07473 -1.51282 0)
(3.08058 -1.48025 0)
(3.11527 -1.46348 0)
(3.10914 -1.44796 0)
(3.08316 -1.39457 0)
(3.04467 -1.08391 0)
(2.98287 -0.639422 0)
(2.96467 -0.378718 0)
(2.87746 -0.0984419 0)
(2.84462 0.0022724 0)
(2.8657 0.0157654 0)
(3.03782 -1.61531 0)
(3.03771 -1.61134 0)
(3.03571 -1.60274 0)
(3.03731 -1.59218 0)
(3.04037 -1.58547 0)
(3.04658 -1.5717 0)
(3.05071 -1.57101 0)
(3.05279 -1.58704 0)
(3.05124 -1.58919 0)
(3.04646 -1.58226 0)
(3.06223 -1.53927 0)
(3.0777 -1.50564 0)
(3.06698 -1.51962 0)
(3.05509 -1.54693 0)
(3.06308 -1.52882 0)
(3.06783 -1.53397 0)
(3.07065 -1.53744 0)
(3.06629 -1.49123 0)
(3.07809 -1.43879 0)
(3.08685 -1.42693 0)
(3.07863 -1.45646 0)
(3.08485 -1.42978 0)
(3.11109 -1.36315 0)
(3.12906 -1.33846 0)
(3.11637 -1.34955 0)
(3.09983 -1.35151 0)
(3.07695 -1.13666 0)
(3.01336 -0.644776 0)
(3.00415 -0.423583 0)
(2.94487 -0.119143 0)
(3.01126 -1.63397 0)
(3.01588 -1.62394 0)
(3.022 -1.61089 0)
(3.03372 -1.59809 0)
(3.04317 -1.59822 0)
(3.05634 -1.58127 0)
(3.07453 -1.55084 0)
(3.07407 -1.54749 0)
(3.07616 -1.54637 0)
(3.06573 -1.5217 0)
(3.05999 -1.50769 0)
(3.07374 -1.47433 0)
(3.08774 -1.46276 0)
(3.09241 -1.46509 0)
(3.09752 -1.44755 0)
(3.10174 -1.43142 0)
(3.10012 -1.42364 0)
(3.08611 -1.42998 0)
(3.08316 -1.40618 0)
(3.094 -1.37932 0)
(3.09938 -1.3632 0)
(3.09119 -1.37024 0)
(3.0894 -1.35326 0)
(3.11015 -1.31088 0)
(3.12357 -1.28289 0)
(3.12625 -1.26373 0)
(3.11011 -1.26613 0)
(3.10865 -1.24395 0)
(3.10982 -1.1155 0)
(3.04783 -0.524679 0)
(3.05756 -1.46658 0)
(3.05829 -1.45903 0)
(3.05896 -1.46276 0)
(3.07359 -1.45045 0)
(3.08449 -1.4498 0)
(3.08461 -1.46665 0)
(3.09498 -1.47338 0)
(3.08901 -1.49314 0)
(3.07744 -1.52213 0)
(3.06749 -1.50751 0)
(3.0566 -1.46881 0)
(3.07166 -1.4356 0)
(3.08612 -1.42248 0)
(3.09865 -1.41585 0)
(3.10157 -1.38431 0)
(3.10662 -1.36051 0)
(3.1094 -1.35714 0)
(3.11141 -1.34118 0)
(3.10371 -1.34046 0)
(3.1056 -1.33261 0)
(3.11194 -1.29877 0)
(3.11089 -1.28116 0)
(3.09924 -1.27809 0)
(3.09681 -1.26724 0)
(3.11014 -1.24675 0)
(3.12415 -1.22121 0)
(3.12773 -1.20394 0)
(3.12191 -1.18583 0)
(3.12809 -1.18011 0)
(3.13996 -1.14343 0)
(3.0718 -1.45905 0)
(3.0697 -1.44615 0)
(3.07247 -1.43739 0)
(3.08355 -1.43231 0)
(3.09688 -1.40447 0)
(3.10605 -1.37164 0)
(3.12597 -1.34722 0)
(3.13886 -1.336 0)
(3.12403 -1.34176 0)
(3.10463 -1.35238 0)
(3.09921 -1.34255 0)
(3.10781 -1.33322 0)
(3.11203 -1.3339 0)
(3.11053 -1.34994 0)
(3.10253 -1.3378 0)
(3.104 -1.30439 0)
(3.11216 -1.29464 0)
(3.1194 -1.2811 0)
(3.11895 -1.24961 0)
(3.12355 -1.23355 0)
(3.12662 -1.21903 0)
(3.12496 -1.20839 0)
(3.11536 -1.20741 0)
(3.10866 -1.18817 0)
(3.10868 -1.18502 0)
(3.11772 -1.17738 0)
(3.12766 -1.14499 0)
(3.13339 -1.14269 0)
(3.13151 -1.12117 0)
(3.14094 -1.10019 0)
(3.11299 -1.31595 0)
(3.11004 -1.31414 0)
(3.10774 -1.30692 0)
(3.10938 -1.29492 0)
(3.11445 -1.28849 0)
(3.12443 -1.27679 0)
(3.13623 -1.27032 0)
(3.13307 -1.27868 0)
(3.12893 -1.28954 0)
(3.12295 -1.28344 0)
(3.11774 -1.2573 0)
(3.11729 -1.23475 0)
(3.1321 -1.19447 0)
(3.14321 -1.1811 0)
(3.13056 -1.18977 0)
(3.12511 -1.2039 0)
(3.12679 -1.20083 0)
(3.1258 -1.19533 0)
(3.12199 -1.18138 0)
(3.12129 -1.17308 0)
(3.12635 -1.15236 0)
(3.13327 -1.13489 0)
(3.13219 -1.13031 0)
(3.1261 -1.124 0)
(3.12213 -1.10467 0)
(3.12123 -1.10407 0)
(3.12777 -1.09291 0)
(3.13575 -1.06729 0)
(3.13962 -1.06611 0)
(3.14673 -1.05289 0)
(3.13302 -1.22633 0)
(3.1325 -1.22235 0)
(3.12714 -1.22392 0)
(3.12515 -1.22756 0)
(3.12618 -1.20427 0)
(3.13977 -1.1696 0)
(3.14403 -1.1513 0)
(3.14698 -1.15054 0)
(3.14509 -1.15339 0)
(3.13547 -1.16528 0)
(3.12373 -1.18596 0)
(3.11576 -1.17105 0)
(3.12175 -1.15572 0)
(3.13489 -1.14732 0)
(3.13431 -1.12964 0)
(3.13 -1.10783 0)
(3.13473 -1.08976 0)
(3.13391 -1.08586 0)
(3.12697 -1.09411 0)
(3.124 -1.09655 0)
(3.12305 -1.0899 0)
(3.12817 -1.07164 0)
(3.13351 -1.05649 0)
(3.1353 -1.04756 0)
(3.13542 -1.04226 0)
(3.13332 -1.02523 0)
(3.1322 -1.02138 0)
(3.13641 -1.01152 0)
(3.14299 -1.00276 0)
(3.15058 -0.995578 0)
(3.14567 -1.06377 0)
(3.14702 -1.06906 0)
(3.1456 -1.0716 0)
(3.13781 -1.0843 0)
(3.13484 -1.08537 0)
(3.13924 -1.06226 0)
(3.1464 -1.04163 0)
(3.14732 -1.02913 0)
(3.14754 -1.02793 0)
(3.1449 -1.03168 0)
(3.14139 -1.03985 0)
(3.13208 -1.02648 0)
(3.13549 -1.00796 0)
(3.13916 -1.00334 0)
(3.1335 -1.01495 0)
(3.12938 -1.02795 0)
(3.12759 -1.01814 0)
(3.13364 -1.00911 0)
(3.1349 -0.999349 0)
(3.13613 -0.991008 0)
(3.13247 -0.988249 0)
(3.12748 -0.990333 0)
(3.12903 -0.98513 0)
(3.13169 -0.975084 0)
(3.13481 -0.970906 0)
(3.13638 -0.964017 0)
(3.13747 -0.955658 0)
(3.14049 -0.952978 0)
(3.14547 -0.949594 0)
(3.15361 -0.941617 0)
(3.14889 -0.930251 0)
(3.14799 -0.931654 0)
(3.14797 -0.932893 0)
(3.14234 -0.944209 0)
(3.13779 -0.958255 0)
(3.13465 -0.944601 0)
(3.14031 -0.924439 0)
(3.14197 -0.914086 0)
(3.14383 -0.915283 0)
(3.13974 -0.923062 0)
(3.13666 -0.934439 0)
(3.13307 -0.93382 0)
(3.13435 -0.922296 0)
(3.13605 -0.91919 0)
(3.13868 -0.915472 0)
(3.13794 -0.909652 0)
(3.13602 -0.90843 0)
(3.13415 -0.906987 0)
(3.13525 -0.904956 0)
(3.13601 -0.901833 0)
(3.1367 -0.896968 0)
(3.13733 -0.891427 0)
(3.13561 -0.891846 0)
(3.13282 -0.894587 0)
(3.13265 -0.894345 0)
(3.13551 -0.891406 0)
(3.13823 -0.890218 0)
(3.14381 -0.886409 0)
(3.14921 -0.880653 0)
(3.15692 -0.873416 0)
(3.14898 -0.78125 0)
(3.14464 -0.792925 0)
(3.14335 -0.795247 0)
(3.13964 -0.799773 0)
(3.13317 -0.814241 0)
(3.13079 -0.815754 0)
(3.13614 -0.803752 0)
(3.13899 -0.789973 0)
(3.14176 -0.779686 0)
(3.1386 -0.792117 0)
(3.13452 -0.800422 0)
(3.13156 -0.800675 0)
(3.13325 -0.796057 0)
(3.13614 -0.795306 0)
(3.13777 -0.798648 0)
(3.13564 -0.801281 0)
(3.13305 -0.799914 0)
(3.13428 -0.799255 0)
(3.1349 -0.800327 0)
(3.1338 -0.803828 0)
(3.13329 -0.805411 0)
(3.1357 -0.804446 0)
(3.13688 -0.802062 0)
(3.13463 -0.801111 0)
(3.13441 -0.804095 0)
(3.13542 -0.805951 0)
(3.14033 -0.80512 0)
(3.1461 -0.806699 0)
(3.14987 -0.809673 0)
(3.15575 -0.813284 0)
(3.12764 -0.613669 0)
(3.1406 -0.63264 0)
(3.13486 -0.652863 0)
(3.13317 -0.658682 0)
(3.12714 -0.666349 0)
(3.12222 -0.675004 0)
(3.12405 -0.673519 0)
(3.12972 -0.660457 0)
(3.13462 -0.649946 0)
(3.13212 -0.656992 0)
(3.12869 -0.666882 0)
(3.12346 -0.678291 0)
(3.12376 -0.678941 0)
(3.12973 -0.680956 0)
(3.13166 -0.684377 0)
(3.13115 -0.685111 0)
(3.12895 -0.690142 0)
(3.12747 -0.698436 0)
(3.12887 -0.700047 0)
(3.12997 -0.700431 0)
(3.13042 -0.706132 0)
(3.13102 -0.718637 0)
(3.12918 -0.726209 0)
(3.1303 -0.728419 0)
(3.13285 -0.733311 0)
(3.1367 -0.73337 0)
(3.14058 -0.732214 0)
(3.14486 -0.732573 0)
(3.1481 -0.734469 0)
(3.15359 -0.743125 0)
(3.10235 -0.458699 0)
(3.1267 -0.479801 0)
(3.1232 -0.503563 0)
(3.12119 -0.510393 0)
(3.11121 -0.522068 0)
(3.10314 -0.533268 0)
(3.10409 -0.533296 0)
(3.11451 -0.520381 0)
(3.12328 -0.513693 0)
(3.1215 -0.52285 0)
(3.11742 -0.539874 0)
(3.11133 -0.547744 0)
(3.11214 -0.54582 0)
(3.11969 -0.555192 0)
(3.12051 -0.561516 0)
(3.12037 -0.563242 0)
(3.12097 -0.570494 0)
(3.12005 -0.577335 0)
(3.12004 -0.585008 0)
(3.1217 -0.595616 0)
(3.12421 -0.596588 0)
(3.12469 -0.600172 0)
(3.12405 -0.606186 0)
(3.12442 -0.612116 0)
(3.1263 -0.621547 0)
(3.12943 -0.628236 0)
(3.13426 -0.637195 0)
(3.1387 -0.644618 0)
(3.14317 -0.660596 0)
(3.14994 -0.672097 0)
(3.0797 -0.30256 0)
(3.09795 -0.32652 0)
(3.09782 -0.350425 0)
(3.09696 -0.354047 0)
(3.08758 -0.37433 0)
(3.07862 -0.396459 0)
(3.08082 -0.396746 0)
(3.09433 -0.375425 0)
(3.1018 -0.371931 0)
(3.10206 -0.382584 0)
(3.09879 -0.404543 0)
(3.0929 -0.414108 0)
(3.09466 -0.412137 0)
(3.10352 -0.427568 0)
(3.10371 -0.437584 0)
(3.10318 -0.437603 0)
(3.10568 -0.449099 0)
(3.10679 -0.464743 0)
(3.10656 -0.471234 0)
(3.1088 -0.479959 0)
(3.11121 -0.492316 0)
(3.11224 -0.505492 0)
(3.11287 -0.517388 0)
(3.11479 -0.528691 0)
(3.11828 -0.54235 0)
(3.1225 -0.554677 0)
(3.12779 -0.560577 0)
(3.13329 -0.570432 0)
(3.13813 -0.579606 0)
(3.14537 -0.593187 0)
(3.0456 -0.151363 0)
(3.06248 -0.174466 0)
(3.06277 -0.200852 0)
(3.06209 -0.205295 0)
(3.05544 -0.227449 0)
(3.04737 -0.254346 0)
(3.05095 -0.255571 0)
(3.06614 -0.230873 0)
(3.07264 -0.228764 0)
(3.07455 -0.240771 0)
(3.07052 -0.269294 0)
(3.0653 -0.277702 0)
(3.07009 -0.278942 0)
(3.07975 -0.298333 0)
(3.07975 -0.307589 0)
(3.07999 -0.312689 0)
(3.08363 -0.326358 0)
(3.08499 -0.339799 0)
(3.08676 -0.356575 0)
(3.08927 -0.364424 0)
(3.09319 -0.380347 0)
(3.09436 -0.39108 0)
(3.09635 -0.407381 0)
(3.09972 -0.422402 0)
(3.10416 -0.432811 0)
(3.10931 -0.444196 0)
(3.11479 -0.456102 0)
(3.12131 -0.473845 0)
(3.12628 -0.486169 0)
(3.13379 -0.505224 0)
(3.0033 -0.00682433 0)
(3.01646 -0.0304337 0)
(3.01577 -0.054373 0)
(3.01662 -0.05975 0)
(3.01362 -0.0878118 0)
(3.00723 -0.113112 0)
(3.01322 -0.112028 0)
(3.02732 -0.0867691 0)
(3.03416 -0.0873549 0)
(3.03772 -0.1026 0)
(3.03254 -0.135702 0)
(3.02753 -0.142967 0)
(3.03459 -0.144747 0)
(3.04712 -0.170088 0)
(3.04693 -0.177627 0)
(3.04822 -0.183847 0)
(3.05356 -0.202472 0)
(3.05568 -0.220242 0)
(3.05828 -0.235126 0)
(3.06291 -0.248962 0)
(3.06731 -0.264209 0)
(3.07022 -0.282029 0)
(3.07385 -0.300625 0)
(3.07858 -0.315257 0)
(3.08497 -0.334401 0)
(3.09167 -0.349352 0)
(3.09914 -0.369301 0)
(3.10535 -0.380961 0)
(3.11146 -0.399683 0)
(3.12104 -0.429768 0)
(2.94707 0.136263 0)
(2.95652 0.115822 0)
(2.95729 0.092577 0)
(2.96469 0.076908 0)
(2.96373 0.0441362 0)
(2.95674 0.0266499 0)
(2.96117 0.028928 0)
(2.97405 0.0523128 0)
(2.98371 0.0516351 0)
(2.99059 0.033348 0)
(2.98567 -0.00430834 0)
(2.98085 -0.0121885 0)
(2.99006 -0.0171011 0)
(3.00258 -0.0399061 0)
(3.00406 -0.0503286 0)
(3.00758 -0.0591965 0)
(3.01427 -0.0785239 0)
(3.01757 -0.0991064 0)
(3.02127 -0.114324 0)
(3.02829 -0.131362 0)
(3.03426 -0.148848 0)
(3.03906 -0.169309 0)
(3.04434 -0.188379 0)
(3.05147 -0.207021 0)
(3.05972 -0.227541 0)
(3.06763 -0.244259 0)
(3.07573 -0.261922 0)
(3.08473 -0.286572 0)
(3.09183 -0.305416 0)
(3.10273 -0.332293 0)
(2.87183 0.268788 0)
(2.8827 0.253798 0)
(2.89539 0.236071 0)
(2.90047 0.216576 0)
(2.90001 0.196004 0)
(2.89652 0.178175 0)
(2.9 0.175557 0)
(2.90883 0.189407 0)
(2.91829 0.187543 0)
(2.93155 0.161342 0)
(2.92828 0.126931 0)
(2.92588 0.125194 0)
(2.93479 0.117219 0)
(2.94838 0.0895623 0)
(2.95204 0.0765797 0)
(2.95884 0.0645803 0)
(2.96759 0.0450347 0)
(2.97263 0.0242108 0)
(2.97861 0.00412022 0)
(2.98664 -0.0132448 0)
(2.99504 -0.0339184 0)
(3.00183 -0.0542063 0)
(3.00997 -0.0775312 0)
(3.01885 -0.0975452 0)
(3.02888 -0.118776 0)
(3.03911 -0.140439 0)
(3.0497 -0.164106 0)
(3.05955 -0.186033 0)
(3.06819 -0.208462 0)
(3.0823 -0.245761 0)
(2.82175 0.364502 0)
(2.82569 0.359651 0)
(2.83395 0.345793 0)
(2.83531 0.340047 0)
(2.83663 0.334932 0)
(2.83849 0.326697 0)
(2.84093 0.319378 0)
(2.84558 0.317181 0)
(2.8513 0.312748 0)
(2.86482 0.289142 0)
(2.86751 0.271897 0)
(2.86954 0.266605 0)
(2.87912 0.25102 0)
(2.88843 0.228849 0)
(2.89476 0.212385 0)
(2.90358 0.196029 0)
(2.91497 0.172004 0)
(2.92154 0.15417 0)
(2.93173 0.127945 0)
(2.94004 0.109107 0)
(2.95146 0.0826313 0)
(2.96059 0.060567 0)
(2.97099 0.036384 0)
(2.98256 0.0120782 0)
(2.99483 -0.0129872 0)
(3.00703 -0.0362752 0)
(3.01966 -0.0623841 0)
(3.03153 -0.0879343 0)
(3.04219 -0.113284 0)
(3.05867 -0.152604 0)
(2.81245 0.379608 0)
(2.81373 0.379213 0)
(2.81503 0.379276 0)
(2.81539 0.379666 0)
(2.81556 0.379999 0)
(2.8157 0.379878 0)
(2.81637 0.378095 0)
(2.8172 0.376744 0)
(2.81959 0.373769 0)
(2.82214 0.369669 0)
(2.82392 0.365672 0)
(2.82557 0.363022 0)
(2.83135 0.355183 0)
(2.83726 0.346159 0)
(2.84361 0.334918 0)
(2.85056 0.321448 0)
(2.85843 0.305327 0)
(2.86843 0.284072 0)
(2.87773 0.264233 0)
(2.88998 0.237659 0)
(2.901 0.212896 0)
(2.91354 0.185031 0)
(2.92782 0.154078 0)
(2.94083 0.12889 0)
(2.95709 0.0960704 0)
(2.9712 0.0697587 0)
(2.98652 0.0393526 0)
(3.0009 0.00981069 0)
(3.01323 -0.0171692 0)
(3.03273 -0.0608248 0)
(2.82871 0.353367 0)
(2.82829 0.35648 0)
(2.8261 0.36248 0)
(2.82619 0.375448 0)
(2.82683 0.380025 0)
(2.82209 0.374705 0)
(2.81903 0.365756 0)
(2.82167 0.364645 0)
(2.82355 0.365714 0)
(2.82518 0.36945 0)
(2.82363 0.374432 0)
(2.8228 0.37452 0)
(2.82342 0.37151 0)
(2.8239 0.369549 0)
(2.82465 0.369291 0)
(2.82642 0.368374 0)
(2.829 0.36536 0)
(2.83178 0.361168 0)
(2.83627 0.35401 0)
(2.84244 0.344413 0)
(2.85187 0.328471 0)
(2.86244 0.309555 0)
(2.87628 0.283859 0)
(2.89196 0.255032 0)
(2.90966 0.222358 0)
(2.92768 0.188503 0)
(2.94639 0.151865 0)
(2.96348 0.118125 0)
(2.97945 0.084286 0)
(3.00283 0.0342053 0)
(2.89527 0.222609 0)
(2.88684 0.237911 0)
(2.88695 0.242915 0)
(2.88593 0.25433 0)
(2.87852 0.277014 0)
(2.87742 0.295066 0)
(2.86963 0.293149 0)
(2.86331 0.282459 0)
(2.85865 0.288948 0)
(2.85175 0.313424 0)
(2.85362 0.333056 0)
(2.85333 0.330086 0)
(2.84438 0.336059 0)
(2.83896 0.344774 0)
(2.83767 0.346771 0)
(2.83457 0.354445 0)
(2.83499 0.358013 0)
(2.83413 0.357871 0)
(2.83417 0.35793 0)
(2.83461 0.357873 0)
(2.83591 0.357167 0)
(2.83865 0.354387 0)
(2.8434 0.349614 0)
(2.85087 0.341624 0)
(2.86304 0.326636 0)
(2.87833 0.305341 0)
(2.89708 0.274774 0)
(2.9169 0.240256 0)
(2.9363 0.2035 0)
(2.96521 0.144654 0)
(2.9761 0.0526186 0)
(2.97194 0.0632602 0)
(2.96998 0.0644231 0)
(2.96858 0.0660498 0)
(2.96197 0.0820465 0)
(2.96085 0.0929042 0)
(2.9585 0.0979211 0)
(2.95041 0.107313 0)
(2.94371 0.115038 0)
(2.93342 0.137345 0)
(2.92793 0.160652 0)
(2.9269 0.16317 0)
(2.91166 0.189464 0)
(2.9034 0.207534 0)
(2.89322 0.228142 0)
(2.88161 0.253725 0)
(2.87971 0.261802 0)
(2.86476 0.294232 0)
(2.86015 0.303042 0)
(2.85397 0.314406 0)
(2.84666 0.333431 0)
(2.84423 0.335972 0)
(2.84557 0.340139 0)
(2.84712 0.340008 0)
(2.85064 0.339751 0)
(2.85679 0.336511 0)
(2.86563 0.330757 0)
(2.87783 0.320098 0)
(2.89208 0.304127 0)
(2.92055 0.260375 0)
(2.99887 0.00238 0)
(2.99866 0.00274546 0)
(2.99831 0.00349129 0)
(2.99802 0.00390286 0)
(2.99744 0.0050648 0)
(2.99707 0.00615065 0)
(2.99659 0.00744111 0)
(2.9957 0.00901169 0)
(2.99429 0.0110364 0)
(2.99235 0.0142669 0)
(2.9901 0.0195765 0)
(2.98806 0.0243918 0)
(2.98466 0.0303424 0)
(2.97915 0.0414461 0)
(2.97383 0.0518915 0)
(2.96551 0.068973 0)
(2.95781 0.0849989 0)
(2.94517 0.111983 0)
(2.93525 0.133539 0)
(2.91867 0.167982 0)
(2.90541 0.197238 0)
(2.89322 0.224543 0)
(2.87502 0.265989 0)
(2.87138 0.276906 0)
(2.86149 0.30527 0)
(2.85711 0.313208 0)
(2.86665 0.319336 0)
(2.87067 0.318116 0)
(2.87679 0.316464 0)
(2.89355 0.305887 0)
(2.99999 2.68255e-05 0)
(2.99998 3.18668e-05 0)
(2.99998 3.98645e-05 0)
(2.99997 4.94385e-05 0)
(2.99997 6.39129e-05 0)
(2.99995 8.62974e-05 0)
(2.99994 0.000110484 0)
(2.99992 0.000149497 0)
(2.99989 0.000200042 0)
(2.99983 0.000290567 0)
(2.99975 0.000446974 0)
(2.99965 0.000634679 0)
(2.99948 0.000943899 0)
(2.99917 0.00146967 0)
(2.99871 0.00235749 0)
(2.99799 0.00364873 0)
(2.99676 0.00595034 0)
(2.99489 0.00938748 0)
(2.99186 0.015335 0)
(2.98735 0.0237702 0)
(2.98031 0.0376672 0)
(2.97086 0.0564924 0)
(2.95748 0.0833034 0)
(2.94219 0.115354 0)
(2.92352 0.156241 0)
(2.90841 0.191462 0)
(2.89338 0.231083 0)
(2.88825 0.258308 0)
(2.88105 0.278121 0)
(2.89331 0.28746 0)
(3 1.5918e-07 0)
(3 1.8882e-07 0)
(3 2.3603e-07 0)
(3 2.96793e-07 0)
(3 3.84573e-07 0)
(3 5.15318e-07 0)
(3 6.84617e-07 0)
(3 9.50586e-07 0)
(3 1.33122e-06 0)
(3 1.99627e-06 0)
(3 3.14293e-06 0)
(3 4.88928e-06 0)
(3 7.69767e-06 0)
(2.99999 1.34558e-05 0)
(2.99999 2.33957e-05 0)
(2.99997 4.30682e-05 0)
(2.99995 8.00411e-05 0)
(2.99991 0.000158899 0)
(2.99982 0.000313342 0)
(2.99963 0.000649489 0)
(2.99924 0.00133388 0)
(2.99843 0.00280107 0)
(2.99683 0.00572093 0)
(2.99369 0.0115837 0)
(2.98813 0.0220307 0)
(2.97908 0.0404007 0)
(2.96645 0.0664285 0)
(2.95084 0.103072 0)
(2.93578 0.139584 0)
(2.91936 0.196808 0)
(3 7.27027e-10 0)
(3 8.69735e-10 0)
(3 1.09413e-09 0)
(3 1.38671e-09 0)
(3 1.80985e-09 0)
(3 2.4072e-09 0)
(3 3.24825e-09 0)
(3 4.51741e-09 0)
(3 6.45174e-09 0)
(3 9.58468e-09 0)
(3 1.51329e-08 0)
(3 2.36873e-08 0)
(3 3.88439e-08 0)
(3 6.76128e-08 0)
(3 1.23213e-07 0)
(3 2.31486e-07 0)
(3 4.64353e-07 0)
(3 9.70688e-07 0)
(3 2.14667e-06 0)
(3 4.96071e-06 0)
(2.99999 1.21158e-05 0)
(2.99998 3.09957e-05 0)
(2.99995 8.20662e-05 0)
(2.99987 0.000224585 0)
(2.99965 0.00061495 0)
(2.99907 0.00167199 0)
(2.99773 0.00419128 0)
(2.9947 0.0102703 0)
(2.99 0.0201298 0)
(2.97608 0.0552591 0)
(3 2.54706e-12 0)
(3 3.07218e-12 0)
(3 3.89107e-12 0)
(3 4.97989e-12 0)
(3 6.55015e-12 0)
(3 8.77229e-12 0)
(3 1.19383e-11 0)
(3 1.67997e-11 0)
(3 2.40732e-11 0)
(3 3.59007e-11 0)
(3 5.62513e-11 0)
(3 8.85984e-11 0)
(3 1.46008e-10 0)
(3 2.5519e-10 0)
(3 4.65547e-10 0)
(3 8.85489e-10 0)
(3 1.7981e-09 0)
(3 3.8309e-09 0)
(3 8.72118e-09 0)
(3 2.08314e-08 0)
(3 5.38034e-08 0)
(3 1.4592e-07 0)
(3 4.29092e-07 0)
(3 1.31546e-06 0)
(3 4.37079e-06 0)
(2.99999 1.46663e-05 0)
(2.99996 5.08486e-05 0)
(2.99987 0.000174379 0)
(2.99963 0.000505884 0)
(2.99784 0.00315253 0)
(2.56458 -1.40622 0)
(2.63243 -1.43941 0)
(2.80533 -1.50605 0)
(2.95782 -1.62194 0)
(3.05756 -1.64835 0)
(3.08147 -1.65239 0)
(3.0743 -1.66001 0)
(3.05384 -1.65596 0)
(3.03341 -1.65552 0)
(3.03828 -1.61881 0)
(3.00521 -1.64771 0)
(3.05699 -1.47279 0)
(3.0755 -1.4628 0)
(3.11337 -1.32009 0)
(3.13425 -1.22291 0)
(3.1446 -1.05661 0)
(3.14014 -0.904715 0)
(3.1277 -0.75124 0)
(3.1137 -0.600025 0)
(3.09519 -0.454129 0)
(3.07279 -0.30697 0)
(3.03778 -0.155144 0)
(2.99175 -0.00493219 0)
(2.93415 0.140088 0)
(2.86671 0.271926 0)
(2.81902 0.36681 0)
(2.81222 0.380389 0)
(2.83228 0.343014 0)
(2.90726 0.205862 0)
(2.98117 0.0435476 0)
(2.99913 0.00193862 0)
(2.99999 2.34127e-05 0)
(3 1.38077e-07 0)
(3 6.23581e-10 0)
(3 2.17269e-12 0)
(2.5668 -1.39899 0)
(2.64688 -1.44439 0)
(2.82455 -1.51738 0)
(2.96946 -1.63158 0)
(3.06327 -1.64793 0)
(3.08304 -1.65239 0)
(3.07449 -1.66126 0)
(3.05477 -1.65791 0)
(3.03966 -1.64894 0)
(3.04469 -1.62712 0)
(3.02925 -1.63764 0)
(3.07637 -1.45838 0)
(3.09472 -1.42999 0)
(3.12658 -1.272 0)
(3.1357 -1.14544 0)
(3.13637 -0.989863 0)
(3.13409 -0.873503 0)
(3.12749 -0.751423 0)
(3.11623 -0.612404 0)
(3.09598 -0.468391 0)
(3.06824 -0.319028 0)
(3.03144 -0.166715 0)
(2.98349 -0.0142529 0)
(2.92482 0.134538 0)
(2.85889 0.277077 0)
(2.8146 0.37462 0)
(2.812 0.383399 0)
(2.83977 0.337391 0)
(2.91676 0.193991 0)
(2.98657 0.0321516 0)
(2.99954 0.00105362 0)
(3 9.88045e-06 0)
(3 5.82865e-08 0)
(3 2.87981e-10 0)
(3 1.0568e-12 0)
(2.56408 -1.39574 0)
(2.6406 -1.43538 0)
(2.8154 -1.50275 0)
(2.959 -1.63237 0)
(3.05886 -1.64528 0)
(3.08341 -1.6515 0)
(3.07726 -1.66127 0)
(3.0648 -1.66384 0)
(3.05232 -1.64586 0)
(3.0483 -1.64054 0)
(3.05848 -1.58605 0)
(3.08933 -1.47677 0)
(3.10863 -1.35322 0)
(3.12726 -1.24937 0)
(3.13559 -1.13645 0)
(3.13711 -1.02519 0)
(3.13108 -0.903816 0)
(3.12277 -0.771064 0)
(3.11286 -0.626209 0)
(3.09641 -0.470092 0)
(3.06999 -0.314588 0)
(3.03198 -0.160857 0)
(2.98165 -0.0121761 0)
(2.92175 0.13641 0)
(2.85468 0.290862 0)
(2.81286 0.379577 0)
(2.81321 0.386368 0)
(2.84434 0.347037 0)
(2.92532 0.17708 0)
(2.98953 0.0244491 0)
(2.9997 0.000655042 0)
(3 5.44751e-06 0)
(3 3.08265e-08 0)
(3 1.49124e-10 0)
(3 5.38375e-13 0)
(2.56142 -1.39165 0)
(2.63388 -1.42331 0)
(2.80907 -1.49802 0)
(2.95259 -1.63061 0)
(3.05329 -1.64316 0)
(3.08371 -1.64806 0)
(3.08057 -1.65882 0)
(3.06852 -1.66472 0)
(3.05987 -1.64765 0)
(3.04271 -1.66274 0)
(3.06163 -1.53597 0)
(3.09094 -1.47288 0)
(3.113 -1.3507 0)
(3.12348 -1.26951 0)
(3.13512 -1.16594 0)
(3.13736 -1.03706 0)
(3.1405 -0.894862 0)
(3.14206 -0.731876 0)
(3.13342 -0.572136 0)
(3.1124 -0.400669 0)
(3.0798 -0.238614 0)
(3.03681 -0.0870238 0)
(2.98314 0.0553754 0)
(2.91624 0.196718 0)
(2.84467 0.327892 0)
(2.81031 0.384667 0)
(2.81451 0.385905 0)
(2.84748 0.333217 0)
(2.93678 0.140301 0)
(2.99268 0.0159587 0)
(2.99983 0.00034939 0)
(3 2.78936e-06 0)
(3 1.56714e-08 0)
(3 7.53903e-11 0)
(3 2.70768e-13 0)
(2.56041 -1.38762 0)
(2.62787 -1.39942 0)
(2.79813 -1.49134 0)
(2.94524 -1.62563 0)
(3.05015 -1.63978 0)
(3.0809 -1.64332 0)
(3.07976 -1.65524 0)
(3.0697 -1.66503 0)
(3.05601 -1.65346 0)
(3.02331 -1.67669 0)
(3.06173 -1.48332 0)
(3.07778 -1.48666 0)
(3.11205 -1.36643 0)
(3.13064 -1.2716 0)
(3.1465 -1.15973 0)
(3.16152 -1.00045 0)
(3.15946 -0.816 0)
(3.13187 -0.639191 0)
(3.10732 -0.475212 0)
(3.07595 -0.315432 0)
(3.0386 -0.161468 0)
(2.99416 -0.0140482 0)
(2.94101 0.126882 0)
(2.87804 0.258157 0)
(2.82611 0.357591 0)
(2.8073 0.387381 0)
(2.81399 0.376017 0)
(2.86324 0.285775 0)
(2.95324 0.104175 0)
(2.99567 0.00960072 0)
(2.99991 0.000184055 0)
(3 1.39355e-06 0)
(3 7.78647e-09 0)
(3 3.73429e-11 0)
(3 1.34236e-13 0)
(2.55845 -1.37937 0)
(2.62651 -1.38072 0)
(2.77935 -1.48185 0)
(2.93604 -1.61247 0)
(3.04523 -1.63539 0)
(3.07304 -1.63986 0)
(3.07213 -1.65253 0)
(3.06547 -1.66151 0)
(3.05187 -1.65402 0)
(3.02211 -1.66747 0)
(3.07361 -1.48711 0)
(3.07554 -1.48622 0)
(3.12048 -1.36598 0)
(3.15489 -1.24374 0)
(3.17075 -1.09123 0)
(3.15534 -0.906438 0)
(3.12899 -0.736591 0)
(3.1147 -0.607373 0)
(3.09458 -0.455486 0)
(3.07162 -0.317719 0)
(3.03641 -0.166569 0)
(2.98989 -0.0148562 0)
(2.93301 0.131161 0)
(2.86952 0.263068 0)
(2.81913 0.364086 0)
(2.80572 0.388723 0)
(2.8161 0.369312 0)
(2.88421 0.257396 0)
(2.96304 0.0882818 0)
(2.99729 0.00635774 0)
(2.99995 9.93095e-05 0)
(3 7.03837e-07 0)
(3 3.85246e-09 0)
(3 1.82972e-11 0)
(3 6.57394e-14 0)
(2.55408 -1.37216 0)
(2.62534 -1.37677 0)
(2.77162 -1.49 0)
(2.94017 -1.60414 0)
(3.03838 -1.62801 0)
(3.05861 -1.63584 0)
(3.05624 -1.64764 0)
(3.05609 -1.65475 0)
(3.04422 -1.64953 0)
(3.0253 -1.65701 0)
(3.07318 -1.50846 0)
(3.09248 -1.45768 0)
(3.14067 -1.33712 0)
(3.1596 -1.16519 0)
(3.14216 -1.01325 0)
(3.13975 -0.883429 0)
(3.13142 -0.763092 0)
(3.11453 -0.639946 0)
(3.09604 -0.489999 0)
(3.06793 -0.342458 0)
(3.03185 -0.188703 0)
(2.98538 -0.0347938 0)
(2.92939 0.11435 0)
(2.86543 0.258311 0)
(2.81522 0.370919 0)
(2.80581 0.391688 0)
(2.82169 0.364648 0)
(2.88643 0.263106 0)
(2.97091 0.0716088 0)
(2.9983 0.00402586 0)
(2.99998 5.32197e-05 0)
(3 3.54623e-07 0)
(3 1.89835e-09 0)
(3 8.8997e-12 0)
(3 3.1854e-14 0)
(2.55282 -1.37039 0)
(2.62409 -1.38741 0)
(2.77863 -1.50964 0)
(2.94637 -1.60442 0)
(3.03514 -1.62345 0)
(3.04284 -1.62779 0)
(3.03889 -1.64104 0)
(3.04895 -1.64767 0)
(3.04274 -1.64459 0)
(3.0387 -1.61048 0)
(3.06576 -1.52228 0)
(3.09835 -1.42949 0)
(3.12767 -1.26878 0)
(3.13428 -1.11743 0)
(3.13906 -1.0396 0)
(3.13545 -0.913716 0)
(3.12663 -0.78617 0)
(3.11746 -0.636817 0)
(3.10142 -0.483232 0)
(3.07759 -0.315581 0)
(3.03991 -0.15694 0)
(2.98951 -0.00377403 0)
(2.92936 0.144896 0)
(2.85955 0.292662 0)
(2.81084 0.383137 0)
(2.8056 0.395213 0)
(2.82664 0.373105 0)
(2.89616 0.244067 0)
(2.97879 0.0503352 0)
(2.99899 0.00231101 0)
(2.99999 2.69611e-05 0)
(3 1.74466e-07 0)
(3 9.21999e-10 0)
(3 4.27652e-12 0)
(3 1.5082e-14 0)
(2.55279 -1.37178 0)
(2.62417 -1.4139 0)
(2.78237 -1.51954 0)
(2.95175 -1.60221 0)
(3.03103 -1.61105 0)
(3.03786 -1.62198 0)
(3.03506 -1.63757 0)
(3.04613 -1.64362 0)
(3.03929 -1.64602 0)
(3.04581 -1.5745 0)
(3.0647 -1.52183 0)
(3.09729 -1.37703 0)
(3.11413 -1.2411 0)
(3.13143 -1.15379 0)
(3.13623 -1.05736 0)
(3.14177 -0.908375 0)
(3.14428 -0.756341 0)
(3.13714 -0.562977 0)
(3.11692 -0.399307 0)
(3.07622 -0.221335 0)
(3.02969 -0.0631117 0)
(2.97298 0.0849548 0)
(2.90557 0.224288 0)
(2.8386 0.339846 0)
(2.8061 0.390949 0)
(2.80789 0.396107 0)
(2.83053 0.369009 0)
(2.91621 0.190527 0)
(2.98466 0.0354687 0)
(2.99942 0.00130651 0)
(2.99999 1.34589e-05 0)
(3 8.45049e-08 0)
(3 4.41381e-10 0)
(3 2.02527e-12 0)
(3 6.51147e-15 0)
(2.55244 -1.37793 0)
(2.62345 -1.43739 0)
(2.79035 -1.53044 0)
(2.96663 -1.59524 0)
(3.03848 -1.60883 0)
(3.0477 -1.62467 0)
(3.04316 -1.64064 0)
(3.04065 -1.64618 0)
(3.0257 -1.66002 0)
(3.04955 -1.56152 0)
(3.06905 -1.50083 0)
(3.0988 -1.33272 0)
(3.11545 -1.27852 0)
(3.13072 -1.16679 0)
(3.15824 -1.03283 0)
(3.16443 -0.837912 0)
(3.14456 -0.650073 0)
(3.10367 -0.466178 0)
(3.07134 -0.304064 0)
(3.03373 -0.150749 0)
(2.98549 0.000926415 0)
(2.93191 0.140287 0)