/*--------------------------------*- C++ -*----------------------------------*\
  =========                 |
  \\      /  F ield         | OpenFOAM: The Open Source CFD Toolbox
   \\    /   O peration     | Website:  https://openfoam.org
    \\  /    A nd           | Version:  7
     \\/     M anipulation  |
\*---------------------------------------------------------------------------*/
FoamFile
{
    version     2.0;
    format      ascii;
    class       volScalarField;
    location    "0.4";
    object      T;
}
// * * * * * * * * * * * * * * * * * * * * * * * * * * * * * * * * * * * * * //

dimensions      [0 0 0 1 0 0 0];

internalField   nonuniform List<scalar> 
1750
(
0.767198
0.95193
0.957057
0.943239
0.946427
0.976601
0.996777
0.999892
0.999999
1
0.644401
0.713727
0.815207
0.899404
0.954014
0.986488
0.998512
0.999957
1
1
0.746634
0.795303
0.852421
0.916858
0.970177
0.994955
0.999718
0.999995
1
1
0.888519
0.92369
0.953861
0.979317
0.995175
0.999601
0.99999
1
1
1
0.973865
0.986633
0.99483
0.998755
0.999864
0.999995
1
1
1
1
0.997897
0.999354
0.999869
0.999984
0.999999
1
1
1
1
1
0.999958
0.999992
0.999999
1
1
1
1
1
1
1
1
1
1
1
1
1
1
1
1
1
1
1
1
1
1
1
1
1
1
1
1
1
1
1
1
1
1
1
1
1
1
1
1
1
1
1
1
1
1
1
1
1
1
1
1
1
1
1
1
1
1
1
1
1
1
1
1
1
1
1
1
1
1
1
1
1
1
1
1
1
1
1
1
1
1
1
1
1
1
1
0.509494
0.592099
0.703218
0.850908
0.957826
0.99505
0.999823
0.999998
1
1
1
1
1
1
1
0.519647
0.607776
0.718677
0.862823
0.963051
0.996148
0.999888
0.999999
1
1
1
1
1
1
1
0.521707
0.604048
0.710641
0.85417
0.958671
0.995341
0.999851
0.999998
1
1
1
1
1
1
1
0.524275
0.602077
0.705737
0.848561
0.955681
0.994797
0.999829
0.999998
1
1
1
1
1
1
1
0.5271
0.600892
0.701568
0.843067
0.952132
0.994014
0.999789
0.999997
1
1
1
1
1
1
1
0.530291
0.600612
0.69935
0.839743
0.949499
0.993284
0.999746
0.999997
1
1
1
1
1
1
1
0.535575
0.60133
0.699273
0.838974
0.948501
0.992821
0.999705
0.999996
1
1
1
1
1
1
1
0.561374
0.628632
0.726605
0.853022
0.950733
0.992802
0.999687
0.999996
1
1
1
1
1
1
1
0.605494
0.700417
0.809954
0.904169
0.965892
0.994283
0.999706
0.999995
1
1
1
1
1
1
1
0.624368
0.753855
0.895864
0.962341
0.988459
0.997815
0.99981
0.999992
1
1
1
1
1
1
1
0.460287
0.783173
0.975118
1.01241
1.0087
1.00109
0.99995
0.999985
0.999999
1
1
1
1
1
1
0.315545
0.819556
1.05009
1.05252
1.02417
1.0025
1.00004
0.999995
0.999999
1
1
1
1
1
1
0.520801
1.01176
1.1119
1.08748
1.0294
1.00248
1.00005
0.999999
0.999999
1
1
1
1
1
1
0.851058
1.16995
1.16616
1.10394
1.02211
1.00106
1.00002
1
1
1
1
1
1
1
1
1.22168
1.25804
1.20609
1.06761
1.00483
1.00011
1
1
1
1
1
1
1
1
1
1.49005
1.28564
1.05233
0.9969
0.999925
1
1
1
1
1
1
1
1
1
1
1.48675
1.2789
1.08287
1.00138
1
1
1
1
1
1
1
1
1
1
1
1.4861
1.27625
1.07773
1.00114
1
1
1
1
1
1
1
1
1
1
1
1.48596
1.27307
1.07353
1.00107
1
1
1
1
1
1
1
1
1
1
1
1.48511
1.2704
1.06995
1.00094
1
1
1
1
1
1
1
1
1
1
1
1.48473
1.26777
1.06655
1.00085
1
1
1
1
1
1
1
1
1
1
1
1.48292
1.2646
1.06336
1.00079
1
1
1
1
1
1
1
1
1
1
1
1.47592
1.25885
1.05963
1.0007
1
1
1
1
1
1
1
1
1
1
1
1.46002
1.24788
1.05364
1.00062
1
1
1
1
1
1
1
1
1
1
1
1.4415
1.23103
1.0424
1.00043
1
1
1
1
1
1
1
1
1
1
1
1.42452
1.20623
1.02598
1.0002
1
1
1
1
1
1
1
1
1
1
1
1.40147
1.16179
1.01037
1.00005
1
1
1
1
1
1
1
1
1
1
1
1.34566
1.09196
1.00231
1.00001
1
1
1
1
1
1
1
1
1
1
1
1.23303
1.03132
1.00029
1
1
1
1
1
1
1
1
1
1
1
1
1.10222
1.00548
1.00002
1
1
1
1
1
1
1
1
1
1
1
1
1
1
1
1
1
1
1
1
1
1
1
1
1
1
1
1
1
1
1
1
1
1
1
1
1
1
1
1
1
1
1
1
1
1
1
1
1
1
1
1
1
1
1
1
1
1
1
1
1
1
1
1
1
1
1
1
1
1
1
1
1
1
1
1
1
1
1
1
1
1
1
1
1
1
1
1
1
1
1
1
1
1
1
1
1
1
1
1
1
1
1
1
1
1
1
1
1
1
1
1
1
1
1
1
1
1
1
1
1
1
1
1
1
1
1
1
1
1
1
1
1
1
1
1
1
1
1
1
1
1
1
1
1
1
1
1
1
1
1
1
1
1
1
1
1
1
1
1
1
1
1
1
1
1
1
1
1
1
1
1
1
1
1
1
1
1
1
1
1
1
1
1
1
1
1
1
1
1
1
1
1
1
1
1
1
1
1
1
1
1
1
1
1
1
1
1
1
1
1
1
1
1
1
1
1
1
1
1
1
1
1
1
1
1
1
1
1
1
1
1
1
1
1
1
1
1
1
1
1
1
1
1
1
1
1
1
1
1
1
1
1
1
1
1
1
1
1
1
1
1
1
1
1
1
1
1
1
1
1
1
1
1
1
1
1
1
1
1
1
1
1
1
1
1
1
1
1
1
1
1
1
1
1
1
1
1
1
1
1
1
1
1
1
1
1
1
1
1
1
1
1
1
1
1
1
1
1
1
1
1
1
1
1
1
1
1
1
1
1
1
1
1
1
1
1
1
1
1
1
1
1
1
1
1
1
1
1
1
1
1
1
1
1
1
1
1
1
1
1
1
1.19064
1.00594
1
1
1
1
1
1
1
1
1
1
1
1
1
1
1
1
1
1
1.43619
1.07872
0.999781
1
1
1
1
1
1
1
1
1
1
1
1
1
1
1
1
1
1.61308
1.24579
1.00512
1
1
1
1
1
1
1
1
1
1
1
1
1
1
1
1
1
1.65702
1.37273
1.05368
0.99999
1
1
1
1
1
1
1
1
1
1
1
1
1
1
1
1
1.65698
1.42888
1.14574
1.00013
1
1
1
1
1
1
1
1
1
1
1
1
1
1
1
1
1.66056
1.45909
1.22854
1.002
1
1
1
1
1
1
1
1
1
1
1
1
1
1
1
1
1.67381
1.48208
1.28188
1.00519
1
1
1
1
1
1
1
1
1
1
1
1
1
1
1
1
1.68996
1.49896
1.31164
1.00802
1
1
1
1
1
1
1
1
1
1
1
1
1
1
1
1
1.69333
1.50742
1.33147
1.01084
1
1
1
1
1
1
1
1
1
1
1
1
1
1
1
1
1.69196
1.51193
1.34815
1.01411
1
1
1
1
1
1
1
1
1
1
1
1
1
1
1
1
1.68815
1.51564
1.36526
1.01847
1
1
1
1
1
1
1
1
1
1
1
1
1
1
1
1
1.68364
1.5201
1.38369
1.02429
1
1
1
1
1
1
1
1
1
1
1
1
1
1
1
1
1.67889
1.52385
1.40303
1.03154
1
1
1
1
1
1
1
1
1
1
1
1
1
1
1
1
1.66821
1.52688
1.43176
1.04701
1
1
1
1
1
1
1
1
1
1
1
1
1
1
1
1
1.67338
1.54269
1.41244
0.972949
1
1
1
1
1
1
1
1
1
1
1
1
1
1
1
1
1.27161
1.43502
1.45809
1.34928
1.11068
1.00662
1.00011
1
1
1
1
1
1
1
1
1
1
1
1
1
0.765897
1.21927
1.38723
1.34328
1.1942
1.03697
1.00154
1.00002
1
1
1
1
1
1
1
1
1
1
1
1
0.388193
1.00433
1.27285
1.26461
1.18063
1.06098
1.00574
1.00011
0.999999
0.999999
1
1
1
1
1
1
1
1
1
1
0.460276
0.875377
1.12491
1.16006
1.12907
1.05732
1.00744
1.00016
0.999994
0.999997
1
1
1
1
1
1
1
1
1
1
0.711607
0.861657
0.994953
1.06558
1.06744
1.037
1.00519
1.00004
0.999972
0.999995
1
1
1
1
1
1
1
1
1
1
0.772131
0.828395
0.903585
0.98202
1.00733
1.00544
0.999854
0.999732
0.999973
0.999999
1
1
1
1
1
1
1
1
1
1
0.753468
0.779354
0.824153
0.899279
0.94394
0.977592
0.996029
0.999769
0.999994
1
1
1
1
1
1
1
1
1
1
1
0.711915
0.718093
0.744862
0.825999
0.901702
0.967254
0.995674
0.999837
0.999998
1
1
1
1
1
1
1
1
1
1
1
0.686869
0.690248
0.716653
0.805091
0.894914
0.967027
0.99587
0.999862
0.999999
1
1
1
1
1
1
1
1
1
1
1
0.680139
0.688098
0.716283
0.805167
0.895743
0.968061
0.996244
0.999883
0.999999
1
1
1
1
1
1
1
1
1
1
1
0.677848
0.688127
0.717278
0.806798
0.898248
0.969963
0.996671
0.999903
0.999999
1
1
1
1
1
1
1
1
1
1
1
0.675826
0.688446
0.719367
0.809786
0.901945
0.972145
0.997079
0.999919
0.999999
1
1
1
1
1
1
1
1
1
1
1
0.673831
0.689005
0.721977
0.813139
0.905431
0.973892
0.997364
0.999929
0.999999
1
1
1
1
1
1
1
1
1
1
1
0.671949
0.690865
0.726301
0.818395
0.910595
0.976448
0.997793
0.999946
1
1
1
1
1
1
1
1
1
1
1
1
0.668589
0.686832
0.718264
0.807768
0.902777
0.972684
0.997024
0.999908
0.999999
1
1
1
1
1
1
1
1
1
1
1
0.783223
0.688946
0.738756
0.841682
0.927661
0.983706
0.998865
0.999982
1
1
1
1
1
1
1
1
1
1
1
1
0.844952
0.725403
0.767685
0.87433
0.951529
0.992249
0.999691
0.999997
1
1
1
1
1
1
1
1
1
1
1
1
0.907847
0.815903
0.816337
0.905036
0.971771
0.997287
0.999944
1
1
1
1
1
1
1
1
1
1
1
1
1
0.939918
0.898694
0.886498
0.942438
0.98783
0.999399
0.999994
1
1
1
1
1
1
1
1
1
1
1
1
1
0.961025
0.950694
0.952188
0.979378
0.997348
0.999939
1
1
1
1
1
1
1
1
1
1
1
1
1
1
0.983281
0.985326
0.989781
0.997116
0.999816
0.999998
1
1
1
1
1
1
1
1
1
1
1
1
1
1
0.997405
0.998297
0.999255
0.999888
0.999997
1
1
1
1
1
1
1
1
1
1
1
1
1
1
1
0.999904
0.999947
0.999985
0.999999
1
1
1
1
1
1
1
1
1
1
1
1
1
1
1
1
0.999999
0.999999
1
1
1
1
1
1
1
1
1
1
1
1
1
1
1
1
1
1
1
1
1
1
1
1
1
1
1
1
1
1
1
1
1
1
1
1
1
1
)
;

boundaryField
{
    inlet
    {
        type            fixedValue;
        value           uniform 1;
    }
    outlet
    {
        type            inletOutlet;
        inletValue      uniform 1;
        value           nonuniform List<scalar> 
35
(
1
1
1
1
1
1
1
1
1
1
1
1
1
1
1
1
1
1
1
1
1
1
1
1
1
1
1
1
1
1
1
1
1
1
1
)
;
    }
    airfoil
    {
        type            zeroGradient;
    }
    top
    {
        type            symmetryPlane;
    }
    bottom
    {
        type            symmetryPlane;
    }
    defaultFaces
    {
        type            empty;
    }
}


// ************************************************************************* //
