/*--------------------------------*- C++ -*----------------------------------*\
  =========                 |
  \\      /  F ield         | OpenFOAM: The Open Source CFD Toolbox
   \\    /   O peration     | Website:  https://openfoam.org
    \\  /    A nd           | Version:  7
     \\/     M anipulation  |
\*---------------------------------------------------------------------------*/
FoamFile
{
    version     2.0;
    format      ascii;
    class       volVectorField;
    location    "0.09";
    object      U;
}
// * * * * * * * * * * * * * * * * * * * * * * * * * * * * * * * * * * * * * //

dimensions      [0 1 -1 0 0 0 0];

internalField   nonuniform List<vector> 
12750
(
(2.21569 0.520874 0)
(2.47541 0.606114 0)
(2.55984 0.545548 0)
(2.54626 0.32787 0)
(2.57059 0.165391 0)
(2.62987 0.0891598 0)
(2.70659 0.0452864 0)
(2.8151 0.0134414 0)
(2.92611 0.00121343 0)
(2.98631 -0.000237562 0)
(2.99918 -3.52105e-05 0)
(3 -3.00637e-06 0)
(3.00001 -9.33389e-07 0)
(3 -2.16202e-07 0)
(3 -6.65787e-09 0)
(3 1.14689e-11 0)
(3 4.27187e-13 0)
(3 2.72869e-15 0)
(3 4.71075e-16 0)
(3 9.7523e-17 0)
(3 -6.90048e-17 0)
(3 -2.84236e-17 0)
(3 -2.10669e-16 0)
(3 3.55668e-17 0)
(3 -3.6653e-17 0)
(3 -4.28834e-17 0)
(3 -2.9835e-16 0)
(3 -5.01731e-16 0)
(3 -1.15414e-16 0)
(3 -7.86491e-17 0)
(1.74062 -0.595125 0)
(1.94346 -0.547547 0)
(2.12895 -0.538756 0)
(2.29533 -0.562994 0)
(2.44029 -0.487554 0)
(2.58301 -0.33777 0)
(2.73686 -0.195487 0)
(2.87457 -0.0861104 0)
(2.96275 -0.023888 0)
(2.99495 -0.00307583 0)
(2.99979 -0.00014712 0)
(3.00001 -3.92968e-06 0)
(3.00001 3.20601e-08 0)
(3 3.37648e-07 0)
(3 2.40365e-08 0)
(3 3.09572e-10 0)
(3 1.86799e-12 0)
(3 5.39639e-15 0)
(3 -1.20139e-15 0)
(3 -1.1378e-16 0)
(3 -8.36579e-17 0)
(3 -8.24238e-17 0)
(3 -6.05194e-17 0)
(3 1.16937e-15 0)
(3 7.63207e-16 0)
(3 1.9944e-16 0)
(3 -1.12565e-16 0)
(3 -2.87525e-16 0)
(3 -1.48303e-16 0)
(3 7.2309e-17 0)
(2.38147 -1.01757 0)
(2.50173 -0.963851 0)
(2.60889 -0.860716 0)
(2.68984 -0.671456 0)
(2.74432 -0.440844 0)
(2.80681 -0.242471 0)
(2.89057 -0.10721 0)
(2.96186 -0.0327077 0)
(2.99378 -0.0053374 0)
(2.99972 -0.000382741 0)
(3.00005 -2.14136e-05 0)
(3.00003 -4.7415e-06 0)
(3 3.69521e-07 0)
(3 6.80722e-08 0)
(3 1.52902e-09 0)
(3 1.88552e-11 0)
(3 3.57084e-13 0)
(3 4.99738e-14 0)
(3 1.11432e-15 0)
(3 1.24492e-16 0)
(3 -1.95775e-16 0)
(3 -2.08213e-16 0)
(3 2.81532e-16 0)
(3 5.50377e-16 0)
(3 3.50214e-16 0)
(3 5.54103e-17 0)
(3 -2.62985e-18 0)
(3 1.31359e-16 0)
(3 2.98758e-16 0)
(3 1.68462e-16 0)
(2.67131 -0.686185 0)
(2.73608 -0.563097 0)
(2.79633 -0.427752 0)
(2.84967 -0.292242 0)
(2.89979 -0.170397 0)
(2.94716 -0.0768496 0)
(2.98252 -0.0225436 0)
(2.99759 -0.00332016 0)
(3.00012 -0.00016935 0)
(3.00016 6.62993e-06 0)
(3.00007 1.0437e-05 0)
(3.00001 2.85384e-06 0)
(3 1.43062e-07 0)
(3 1.71546e-09 0)
(3 2.78689e-11 0)
(3 2.39504e-12 0)
(3 -7.79852e-15 0)
(3 -4.33753e-15 0)
(3 -1.28095e-16 0)
(3 2.0928e-17 0)
(3 -1.9772e-16 0)
(3 -9.68676e-17 0)
(3 3.57116e-17 0)
(3 6.2517e-16 0)
(3 2.62135e-16 0)
(3 3.58176e-17 0)
(3 5.10434e-17 0)
(3 6.19899e-16 0)
(3 1.36726e-15 0)
(3 3.68546e-16 0)
(2.83719 -0.300939 0)
(2.87801 -0.216327 0)
(2.91639 -0.135465 0)
(2.95109 -0.0703728 0)
(2.97905 -0.0274735 0)
(2.995 -0.00668456 0)
(2.99976 -0.000719412 0)
(3.00022 3.98211e-05 0)
(3.00018 6.28496e-05 0)
(3.00007 3.44211e-05 0)
(3.00001 5.50424e-06 0)
(3 1.61911e-07 0)
(3 9.2279e-10 0)
(3 -1.73023e-10 0)
(3 -4.35521e-11 0)
(3 -2.56609e-12 0)
(3 -4.09755e-14 0)
(3 -1.41332e-16 0)
(3 -1.80895e-16 0)
(3 9.60943e-17 0)
(3 3.13219e-16 0)
(3 2.17706e-16 0)
(3 3.03392e-18 0)
(3 -3.64529e-16 0)
(3 -2.27576e-16 0)
(3 -4.28444e-17 0)
(3 1.95751e-16 0)
(3 2.74396e-15 0)
(3 8.6775e-16 0)
(3 6.65638e-17 0)
(2.94884 -0.0775695 0)
(2.96877 -0.0435379 0)
(2.98502 -0.0190949 0)
(2.9953 -0.00593603 0)
(2.99939 -0.00107656 0)
(3.00013 -5.12777e-05 0)
(3.00014 5.06144e-05 0)
(3.0001 5.54344e-05 0)
(3.00003 2.5244e-05 0)
(3 2.98082e-06 0)
(3 8.44476e-08 0)
(3 -1.47349e-09 0)
(3 -1.00928e-09 0)
(3 -1.54776e-10 0)
(3 -5.41731e-12 0)
(3 -3.58728e-14 0)
(3 -2.13301e-16 0)
(3 -8.0967e-17 0)
(3 -3.0538e-17 0)
(3 -6.86467e-17 0)
(3 2.51767e-16 0)
(3 1.87243e-16 0)
(3 1.11256e-16 0)
(3 -1.79548e-16 0)
(3 -5.80549e-19 0)
(3 -5.80922e-17 0)
(3 2.24539e-17 0)
(3 1.2383e-16 0)
(3 -8.21916e-16 0)
(3 -2.73906e-16 0)
(2.99417 -0.00782244 0)
(2.99799 -0.00273248 0)
(2.99971 -0.000688357 0)
(3.00009 -0.000110133 0)
(3.00009 3.7097e-06 0)
(3.00007 2.05027e-05 0)
(3.00003 2.19181e-05 0)
(3.00001 6.85254e-06 0)
(3 6.0409e-07 0)
(3 3.39822e-09 0)
(3 -5.85687e-09 0)
(3 -1.90328e-09 0)
(3 -1.87156e-10 0)
(3 -3.48534e-12 0)
(3 -2.43927e-14 0)
(3 -3.57336e-16 0)
(3 -1.85681e-16 0)
(3 -5.17046e-17 0)
(3 2.70823e-17 0)
(3 -2.43965e-16 0)
(3 -8.93173e-17 0)
(3 1.69704e-16 0)
(3 1.48908e-16 0)
(3 -1.33528e-16 0)
(3 -8.89756e-17 0)
(3 5.41213e-17 0)
(3 4.9836e-17 0)
(3 -2.38269e-15 0)
(3 -8.64849e-16 0)
(3 -1.06453e-16 0)
(3.00001 -0.000150033 0)
(3.00006 -4.83901e-05 0)
(3.00006 -2.16445e-05 0)
(3.00004 -5.10571e-06 0)
(3.00002 4.53218e-06 0)
(3 3.9772e-06 0)
(3 8.20096e-07 0)
(3 1.68618e-08 0)
(3 -1.85072e-08 0)
(3 -9.36462e-09 0)
(3 -1.7164e-09 0)
(3 -8.03478e-11 0)
(3 -1.09639e-12 0)
(3 -4.69448e-15 0)
(3 2.56475e-16 0)
(3 3.95407e-17 0)
(3 3.34923e-17 0)
(3 2.5338e-17 0)
(3 -2.53089e-17 0)
(3 -9.30057e-18 0)
(3 -6.61713e-18 0)
(3 2.85873e-16 0)
(3 2.35725e-16 0)
(3 6.33072e-17 0)
(3 0 0)
(3 1.52044e-16 0)
(3 5.34937e-17 0)
(3 -4.63474e-16 0)
(3 7.70083e-17 0)
(3 3.04737e-17 0)
(3.00003 -1.15298e-05 0)
(3.00002 -8.08417e-06 0)
(3.00001 -2.73269e-06 0)
(3 -5.17297e-08 0)
(3 2.90624e-07 0)
(3 9.67826e-09 0)
(3 -2.69466e-08 0)
(3 -1.92236e-08 0)
(3 -6.28063e-09 0)
(3 -6.74361e-10 0)
(3 -1.79397e-11 0)
(3 -2.0283e-13 0)
(3 3.40444e-15 0)
(3 5.22427e-15 0)
(3 1.73647e-16 0)
(3 1.7201e-16 0)
(3 1.6842e-16 0)
(3 5.5893e-17 0)
(3 1.85399e-16 0)
(3 8.17476e-17 0)
(3 2.86409e-17 0)
(3 -1.39589e-16 0)
(3 -2.89524e-16 0)
(3 1.49956e-16 0)
(3 2.08318e-16 0)
(3 -6.27289e-18 0)
(3 -2.50089e-16 0)
(3 -1.11019e-16 0)
(3 6.89767e-19 0)
(3 1.83599e-17 0)
(3.00001 -2.60961e-06 0)
(3 -7.86193e-07 0)
(3 -4.93184e-08 0)
(3 -9.99989e-09 0)
(3 -2.32582e-08 0)
(3 -1.986e-08 0)
(3 -9.83617e-09 0)
(3 -1.95494e-09 0)
(3 -1.09093e-10 0)
(3 -2.34346e-12 0)
(3 -3.31593e-15 0)
(3 1.25745e-14 0)
(3 2.81785e-15 0)
(3 3.67721e-16 0)
(3 -7.3465e-18 0)
(3 2.43382e-16 0)
(3 2.57955e-16 0)
(3 2.53318e-16 0)
(3 7.78356e-17 0)
(3 1.56521e-16 0)
(3 1.16694e-16 0)
(3 -1.98998e-16 0)
(3 -1.74553e-16 0)
(3 1.85198e-16 0)
(3 5.08021e-16 0)
(3 9.13403e-18 0)
(3 1.00487e-16 0)
(3 2.27505e-16 0)
(3 -1.60183e-16 0)
(3 -1.11666e-16 0)
(3 -4.27023e-08 0)
(3 -1.17923e-08 0)
(3 -1.44852e-08 0)
(3 -1.32895e-08 0)
(3 -8.35747e-09 0)
(3 -2.56958e-09 0)
(3 -2.72423e-10 0)
(3 -1.07407e-11 0)
(3 -1.68854e-13 0)
(3 2.12438e-14 0)
(3 1.1767e-14 0)
(3 1.60833e-15 0)
(3 5.34679e-17 0)
(3 9.24969e-18 0)
(3 2.6882e-16 0)
(3 1.07804e-16 0)
(3 -1.31986e-16 0)
(3 -5.54254e-17 0)
(3 -1.41147e-16 0)
(3 -6.76997e-18 0)
(3 -6.91644e-18 0)
(3 -2.07408e-17 0)
(3 3.4597e-17 0)
(3 -3.21653e-16 0)
(3 -2.64136e-16 0)
(3 -1.46894e-16 0)
(3 3.37734e-17 0)
(3 -8.40214e-17 0)
(3 -6.58615e-17 0)
(3 -5.07889e-17 0)
(3 -7.52227e-09 0)
(3 -7.01199e-09 0)
(3 -4.76178e-09 0)
(3 -1.81599e-09 0)
(3 -3.09722e-10 0)
(3 -2.24559e-11 0)
(3 -6.8874e-13 0)
(3 7.94223e-15 0)
(3 1.38163e-14 0)
(3 4.86688e-15 0)
(3 8.74771e-16 0)
(3 6.84792e-17 0)
(3 4.2948e-17 0)
(3 -6.76857e-17 0)
(3 -1.93903e-17 0)
(3 -1.73966e-16 0)
(3 -1.77109e-16 0)
(3 -2.65497e-16 0)
(3 -9.20528e-17 0)
(3 -1.97373e-16 0)
(3 -1.72656e-16 0)
(3 1.38705e-16 0)
(3 1.08326e-16 0)
(3 -3.18453e-16 0)
(3 -5.11597e-16 0)
(3 -3.16698e-17 0)
(3 -1.31856e-16 0)
(3 -2.13313e-16 0)
(3 -7.59978e-17 0)
(3 -1.41024e-16 0)
(3 -1.92072e-09 0)
(3 -8.14355e-10 0)
(3 -1.93515e-10 0)
(3 -2.10414e-11 0)
(3 -1.01096e-12 0)
(3 -5.55375e-15 0)
(3 1.41724e-14 0)
(3 7.05133e-15 0)
(3 8.3385e-16 0)
(3 -1.14743e-16 0)
(3 -2.56266e-17 0)
(3 -2.71366e-17 0)
(3 -2.70955e-17 0)
(3 -8.35928e-17 0)
(3 -3.79199e-16 0)
(3 -3.28226e-16 0)
(3 -1.68922e-16 0)
(3 -8.5784e-17 0)
(3 7.75875e-17 0)
(3 5.57198e-17 0)
(3 -1.80382e-17 0)
(3 1.48194e-16 0)
(3 -4.8689e-16 0)
(3 -7.95514e-17 0)
(3 1.19253e-17 0)
(3 1.77799e-16 0)
(3 1.30622e-16 0)
(3 7.52766e-17 0)
(3 3.60368e-17 0)
(3 9.19889e-16 0)
(3 -5.15016e-11 0)
(3 -7.31729e-12 0)
(3 -5.29915e-13 0)
(3 3.98603e-15 0)
(3 1.69997e-14 0)
(3 8.08956e-15 0)
(3 3.65414e-15 0)
(3 7.13076e-16 0)
(3 1.18597e-16 0)
(3 -4.72253e-18 0)
(3 -5.79043e-17 0)
(3 4.21872e-17 0)
(3 -8.39179e-18 0)
(3 1.63855e-16 0)
(3 1.09822e-16 0)
(3 1.67916e-17 0)
(3 1.85906e-17 0)
(3 2.24703e-17 0)
(3 1.69485e-17 0)
(3 3.89278e-17 0)
(3 1.32382e-16 0)
(3 -1.8563e-16 0)
(3 -1.05159e-16 0)
(3 5.75239e-17 0)
(3 8.89304e-17 0)
(3 1.52535e-16 0)
(3 2.82361e-17 0)
(3 -3.34439e-17 0)
(3 -3.36771e-17 0)
(3 1.35388e-16 0)
(3 6.23097e-14 0)
(3 3.32823e-14 0)
(3 1.37e-14 0)
(3 7.2937e-15 0)
(3 2.57713e-15 0)
(3 2.4288e-16 0)
(3 8.23574e-18 0)
(3 -7.9114e-18 0)
(3 -7.96333e-18 0)
(3 -7.96124e-18 0)
(3 4.65193e-17 0)
(3 1.49799e-16 0)
(3 -6.23496e-16 0)
(3 -4.73611e-16 0)
(3 -3.46292e-16 0)
(3 -1.97655e-16 0)
(3 -1.11785e-16 0)
(3 4.71329e-17 0)
(3 -1.59234e-17 0)
(3 -7.88599e-17 0)
(3 -4.32852e-17 0)
(3 -8.53691e-17 0)
(3 3.12391e-16 0)
(3 3.17987e-16 0)
(3 2.87088e-16 0)
(3 -5.0528e-17 0)
(3 4.66713e-18 0)
(3 9.46737e-17 0)
(3 5.45206e-17 0)
(3 -8.67732e-16 0)
(3 4.07936e-15 0)
(3 2.36212e-15 0)
(3 5.50108e-16 0)
(3 8.98518e-18 0)
(3 -7.94452e-17 0)
(3 -9.34347e-17 0)
(3 -9.57439e-17 0)
(3 -6.23696e-17 0)
(3 3.9048e-17 0)
(3 9.46166e-17 0)
(3 3.68999e-17 0)
(3 -8.24487e-17 0)
(3 -3.6835e-17 0)
(3 -9.28875e-17 0)
(3 -5.74158e-17 0)
(3 -5.01205e-17 0)
(3 -2.15238e-17 0)
(3 3.74482e-17 0)
(3 1.47224e-17 0)
(3 1.46953e-17 0)
(3 -9.02885e-17 0)
(3 4.09187e-17 0)
(3 6.77552e-17 0)
(3 4.57669e-17 0)
(3 3.08695e-17 0)
(3 -8.84456e-17 0)
(3 1.81087e-16 0)
(3 9.86234e-17 0)
(3 -1.09486e-17 0)
(3 1.09655e-16 0)
(3 -1.12071e-16 0)
(3 -9.13589e-17 0)
(3 -8.70864e-17 0)
(3 -7.34418e-17 0)
(3 -5.99677e-17 0)
(3 -2.35682e-17 0)
(3 -3.26059e-18 0)
(3 2.04619e-17 0)
(3 2.03728e-17 0)
(3 2.90202e-17 0)
(3 -4.81655e-17 0)
(3 -6.74428e-17 0)
(3 6.49988e-16 0)
(3 5.88383e-16 0)
(3 4.12583e-16 0)
(3 1.91578e-16 0)
(3 6.63257e-17 0)
(3 -2.28956e-16 0)
(3 -1.66506e-16 0)
(3 -3.85346e-17 0)
(3 1.21169e-17 0)
(3 -3.54413e-17 0)
(3 -1.37836e-17 0)
(3 -1.10904e-16 0)
(3 -1.91004e-16 0)
(3 -8.46059e-17 0)
(3 -2.00504e-16 0)
(3 -1.42556e-16 0)
(3 1.96543e-16 0)
(3 9.79948e-17 0)
(3 4.6992e-17 0)
(3 3.53237e-17 0)
(3 -2.69022e-17 0)
(3 -2.37116e-17 0)
(3 -1.0767e-17 0)
(3 -1.92112e-17 0)
(3 -1.92683e-17 0)
(3 -2.98834e-17 0)
(3 1.858e-17 0)
(3 1.88568e-17 0)
(3 5.78627e-17 0)
(3 4.50104e-17 0)
(3 -3.17237e-18 0)
(3 2.45728e-17 0)
(3 2.84902e-17 0)
(3 3.4912e-17 0)
(3 1.28827e-17 0)
(3 1.51848e-16 0)
(3 1.66594e-16 0)
(3 9.92227e-17 0)
(3 1.45671e-16 0)
(3 2.74008e-17 0)
(3 -1.28307e-17 0)
(3 0 0)
(3 -4.73073e-17 0)
(3 -9.68298e-17 0)
(3 -1.30972e-16 0)
(3 -5.77811e-17 0)
(3 -7.73063e-17 0)
(3 -3.25134e-17 0)
(3 2.91837e-17 0)
(3 4.50938e-17 0)
(3 3.91205e-17 0)
(3 3.91102e-17 0)
(3 4.50581e-17 0)
(3 -2.9922e-18 0)
(3 -3.5427e-17 0)
(3 -7.81327e-17 0)
(3 -5.67348e-17 0)
(3 -4.63322e-17 0)
(3 -4.32225e-17 0)
(3 1.35706e-17 0)
(3 5.9813e-18 0)
(3 6.00516e-18 0)
(3 -7.0999e-18 0)
(3 -1.08288e-16 0)
(3 -1.08276e-16 0)
(3 2.73458e-17 0)
(3 1.20802e-17 0)
(3 6.9216e-18 0)
(3 0 0)
(3 0 0)
(3 0 0)
(3 -1.37247e-17 0)
(3 -1.843e-16 0)
(3 -3.03706e-16 0)
(3 -1.3061e-16 0)
(3 1.92848e-17 0)
(3 -1.51263e-16 0)
(3 -6.47197e-17 0)
(3 4.68517e-17 0)
(3 2.84626e-17 0)
(3 2.25267e-17 0)
(3 5.95912e-19 0)
(3 -1.47698e-17 0)
(3 -1.67776e-17 0)
(3 3.83512e-18 0)
(3 -6.7956e-18 0)
(3 -1.35821e-16 0)
(3 -1.33411e-16 0)
(3 -1.07959e-16 0)
(3 -6.43569e-17 0)
(3 -2.44e-17 0)
(3 4.84872e-18 0)
(3 -8.29374e-20 0)
(3 0 0)
(3 1.12508e-17 0)
(3 1.1307e-17 0)
(3 -1.12288e-17 0)
(3 1.12639e-17 0)
(3 -7.54556e-17 0)
(3 -5.16655e-17 0)
(3 1.63028e-17 0)
(3 1.06342e-16 0)
(3 1.05199e-16 0)
(3 7.49372e-17 0)
(3 -9.85163e-18 0)
(3 -8.80422e-18 0)
(3 1.35846e-16 0)
(3 3.07404e-17 0)
(3 -5.87786e-17 0)
(3 -6.03778e-17 0)
(3 -5.75277e-17 0)
(3 -5.08627e-17 0)
(3 -5.09669e-17 0)
(3 9.50243e-18 0)
(3 9.95472e-17 0)
(3 1.04718e-16 0)
(3 1.20812e-16 0)
(3 1.27384e-16 0)
(3 1.14999e-16 0)
(3 5.58644e-17 0)
(3 4.58771e-18 0)
(3 -1.26287e-17 0)
(3 -3.87533e-19 0)
(3 7.34519e-17 0)
(3 7.08872e-17 0)
(3 4.25719e-17 0)
(3 -3.83633e-17 0)
(3 -2.37103e-17 0)
(3 -1.69428e-17 0)
(3 6.01974e-17 0)
(3 -1.18967e-16 0)
(3 1.89048e-16 0)
(3 7.17532e-17 0)
(3 3.65749e-16 0)
(3 2.02962e-16 0)
(3 -2.38548e-17 0)
(3 -2.1473e-17 0)
(3 2.66895e-17 0)
(3 -2.46602e-17 0)
(3 -1.07765e-17 0)
(3 1.7842e-18 0)
(3 5.64228e-17 0)
(3 4.17009e-17 0)
(3 9.62022e-18 0)
(3 6.38419e-17 0)
(3 6.38304e-17 0)
(3 5.63923e-17 0)
(3 1.42744e-17 0)
(3 3.50268e-17 0)
(3 8.13427e-18 0)
(3 -2.45352e-17 0)
(3 1.56834e-19 0)
(3 4.3314e-17 0)
(3 5.85399e-17 0)
(3 5.37008e-17 0)
(3 -1.08451e-18 0)
(3 2.46741e-17 0)
(3 -9.83704e-18 0)
(3 -9.80589e-18 0)
(3 -5.31811e-18 0)
(3 -1.943e-16 0)
(3 -2.19064e-16 0)
(3 -1.97432e-16 0)
(3 -1.32946e-16 0)
(3 -3.62025e-17 0)
(3 0 0)
(3 -1.38514e-16 0)
(3 6.25758e-17 0)
(3 1.12936e-16 0)
(3 1.03226e-16 0)
(3 1.15531e-16 0)
(3 8.2598e-17 0)
(3 7.824e-17 0)
(3 4.55738e-17 0)
(3 -4.91856e-17 0)
(3 -9.30457e-17 0)
(3 -9.47723e-17 0)
(3 -1.06415e-16 0)
(3 -8.51343e-17 0)
(3 -4.9475e-17 0)
(3 -1.35628e-16 0)
(3 -8.34317e-17 0)
(3 -1.00179e-16 0)
(3 -8.50298e-18 0)
(3 -9.1822e-18 0)
(3 8.58801e-18 0)
(3 8.86863e-18 0)
(3 4.26423e-17 0)
(3 7.12085e-17 0)
(3 -2.57812e-17 0)
(3 1.89359e-16 0)
(3 -9.1693e-17 0)
(3 5.50757e-17 0)
(3 -1.83139e-17 0)
(3 -5.74308e-18 0)
(3 0 0)
(3 -1.8352e-17 0)
(3 1.37964e-15 0)
(3 -4.84921e-17 0)
(3 -3.72905e-17 0)
(3 -3.12868e-17 0)
(3 -1.23094e-17 0)
(3 -7.06679e-18 0)
(3 -8.98324e-18 0)
(3 5.25313e-18 0)
(3 2.14488e-17 0)
(3 2.99975e-17 0)
(3 5.22638e-17 0)
(3 3.05464e-17 0)
(3 -5.57072e-17 0)
(3 -3.72567e-17 0)
(3 -5.47868e-17 0)
(3 -8.32452e-17 0)
(3 -8.63565e-17 0)
(3 -1.88889e-18 0)
(3 -4.21721e-17 0)
(3 -3.37962e-17 0)
(3 7.69357e-17 0)
(3 4.45864e-17 0)
(3 5.26129e-18 0)
(3 -8.09726e-17 0)
(3 -4.50114e-17 0)
(3 1.63787e-16 0)
(3 1.18588e-16 0)
(3 -8.53844e-18 0)
(3 4.3129e-17 0)
(3 -1.71503e-17 0)
(3 -1.01722e-16 0)
(3 -6.96764e-17 0)
(3 -2.84598e-17 0)
(3 -3.09242e-17 0)
(3 -1.15742e-17 0)
(3 2.19045e-18 0)
(3 1.92662e-17 0)
(3 2.73908e-17 0)
(3 2.51971e-17 0)
(3 1.78004e-17 0)
(3 6.28654e-18 0)
(3 -9.42064e-18 0)
(3 1.0802e-17 0)
(3 1.08782e-16 0)
(3 1.01055e-16 0)
(3 8.48879e-17 0)
(3 2.93759e-17 0)
(3 1.34155e-17 0)
(3 -8.01257e-18 0)
(3 -8.04641e-18 0)
(3 -1.06118e-16 0)
(3 -8.72985e-17 0)
(3 1.5259e-17 0)
(3 7.98674e-18 0)
(3 7.87472e-17 0)
(3 3.78914e-17 0)
(3 8.78681e-18 0)
(3 0 0)
(3 0 0)
(3 0 0)
(3 -1.27171e-15 0)
(3 -4.94817e-18 0)
(3 -1.31043e-17 0)
(3 -4.00006e-17 0)
(3 -8.55048e-17 0)
(3 -8.27668e-17 0)
(3 -7.03819e-17 0)
(3 -8.5498e-17 0)
(3 -7.90201e-17 0)
(3 -6.78736e-17 0)
(3 -4.80262e-17 0)
(3 -3.10409e-17 0)
(3 3.50158e-17 0)
(3 3.72317e-17 0)
(3 1.65669e-17 0)
(3 3.53557e-17 0)
(3 3.74536e-17 0)
(3 -1.35268e-17 0)
(3 -1.61077e-17 0)
(3 7.47931e-18 0)
(3 -5.16646e-17 0)
(3 -7.30397e-17 0)
(3 -5.36485e-17 0)
(3 6.94276e-17 0)
(3 1.49777e-17 0)
(3 -3.95555e-17 0)
(3 -5.01913e-17 0)
(3 2.17314e-18 0)
(3 -4.25067e-17 0)
(3 4.49334e-17 0)
(3 3.66409e-18 0)
(3 5.03658e-17 0)
(3 3.30792e-17 0)
(3 -3.88203e-18 0)
(3 -2.41109e-17 0)
(3 -2.97226e-17 0)
(3 -2.67418e-17 0)
(3 -2.56263e-17 0)
(3 -6.84008e-18 0)
(3 2.95116e-18 0)
(3 2.39188e-17 0)
(3 1.67028e-17 0)
(3 -2.00792e-17 0)
(3 -2.75627e-17 0)
(3 -2.59898e-17 0)
(3 -1.79142e-17 0)
(3 -7.00975e-18 0)
(3 -1.29494e-17 0)
(3 2.3149e-17 0)
(3 1.09729e-16 0)
(3 1.06282e-16 0)
(3 9.16292e-17 0)
(3 -2.10255e-18 0)
(3 -1.05583e-17 0)
(3 -7.07932e-17 0)
(3 -3.33716e-17 0)
(3 8.15228e-17 0)
(3 -3.69931e-17 0)
(3 -1.40135e-17 0)
(3 1.36641e-16 0)
(3 1.13516e-16 0)
(3 -2.48814e-17 0)
(3 -1.97058e-17 0)
(3 1.78264e-18 0)
(3 3.42892e-17 0)
(3 4.05305e-17 0)
(3 4.89956e-17 0)
(3 4.48461e-17 0)
(3 2.83022e-17 0)
(3 -1.96939e-17 0)
(3 -1.80471e-17 0)
(3 -1.70673e-17 0)
(3 -4.01001e-18 0)
(3 3.78876e-18 0)
(3 4.90461e-17 0)
(3 3.08771e-17 0)
(3 1.42601e-18 0)
(3 -2.20625e-17 0)
(3 -4.4445e-17 0)
(3 -5.93839e-17 0)
(3 -4.9272e-17 0)
(3 -3.38562e-18 0)
(3 4.0958e-17 0)
(3 2.45395e-17 0)
(3 2.77191e-17 0)
(3 1.30852e-17 0)
(3 8.63372e-17 0)
(3 -4.97908e-17 0)
(3 1.30615e-17 0)
(3 1.29853e-17 0)
(3 1.76111e-17 0)
(3 -3.51577e-17 0)
(3 -4.73677e-17 0)
(3 -3.9865e-17 0)
(3 -3.51484e-17 0)
(3 -5.04189e-17 0)
(3 -4.58334e-17 0)
(3 -3.88461e-17 0)
(3 -5.41163e-17 0)
(3 -1.81139e-17 0)
(3 -1.26071e-17 0)
(3 1.16758e-17 0)
(3 2.1369e-17 0)
(3 1.77826e-17 0)
(3 1.64497e-17 0)
(3 9.78373e-18 0)
(3 2.70692e-18 0)
(3 -1.04359e-16 0)
(3 -8.29627e-17 0)
(3 -9.75026e-17 0)
(3 -7.05386e-17 0)
(3 -3.79391e-17 0)
(3 4.31123e-17 0)
(3 5.37961e-17 0)
(3 3.47741e-17 0)
(3 -8.77996e-17 0)
(3 -1.21948e-16 0)
(3 1.01546e-17 0)
(3 8.94268e-17 0)
(3 -8.69328e-17 0)
(3 -4.34918e-17 0)
(3 2.17264e-17 0)
(3 2.1586e-17 0)
(3 1.82996e-17 0)
(3 7.31612e-18 0)
(3 -3.70508e-18 0)
(3 -1.29573e-17 0)
(3 -3.97617e-17 0)
(3 -3.52944e-17 0)
(3 -1.13304e-17 0)
(3 -1.67324e-17 0)
(3 1.18374e-17 0)
(3 1.89538e-17 0)
(3 1.65688e-17 0)
(3 -5.58794e-18 0)
(3 -1.71064e-17 0)
(3 -1.48667e-17 0)
(3 1.6428e-17 0)
(3 3.46645e-17 0)
(3 1.96896e-17 0)
(3 5.24072e-17 0)
(3 1.16962e-17 0)
(3 -1.85857e-17 0)
(3 2.85523e-17 0)
(3 1.14235e-17 0)
(3 4.66628e-17 0)
(3 -2.92736e-17 0)
(3 4.95284e-17 0)
(3 -2.07127e-18 0)
(3 0 0)
(3 -1.45463e-17 0)
(3 3.36687e-17 0)
(3 4.14227e-17 0)
(3 3.74186e-17 0)
(3 2.86921e-17 0)
(3 2.75473e-17 0)
(3 2.42579e-17 0)
(3 1.15933e-17 0)
(3 1.87054e-17 0)
(3 -1.2871e-17 0)
(3 -1.59003e-17 0)
(3 -3.05633e-18 0)
(3 4.02221e-18 0)
(3 -1.33609e-17 0)
(3 -1.33641e-17 0)
(3 -8.50501e-18 0)
(3 -5.34633e-18 0)
(3 9.26845e-17 0)
(3 4.47754e-17 0)
(3 5.34526e-17 0)
(3 7.93138e-17 0)
(3 6.07646e-17 0)
(3 -1.87239e-17 0)
(3 -1.00973e-17 0)
(3 -2.99512e-35 0)
(3 9.07744e-17 0)
(3 3.34068e-17 0)
(3 6.39004e-17 0)
(3 -2.35923e-17 0)
(3 3.03164e-18 0)
(3 -1.35501e-17 0)
(3 -4.36383e-17 0)
(3 -4.33845e-17 0)
(3 -3.61611e-17 0)
(3 -3.22332e-17 0)
(3 -6.67499e-18 0)
(3 3.49629e-18 0)
(3 3.7364e-17 0)
(3 6.23206e-17 0)
(3 6.84957e-17 0)
(3 6.22824e-17 0)
(3 4.34749e-18 0)
(3 1.06228e-17 0)
(3 3.68757e-18 0)
(3 -1.05968e-17 0)
(3 -5.00436e-18 0)
(3 5.48567e-17 0)
(3 4.45478e-17 0)
(3 2.82726e-17 0)
(3 1.18654e-17 0)
(3 -3.21122e-17 0)
(3 5.55289e-18 0)
(3 3.21673e-17 0)
(3 -6.73784e-17 0)
(3 8.67263e-17 0)
(3 1.70326e-17 0)
(3 0 0)
(3 4.21476e-17 0)
(3 2.08678e-17 0)
(3 1.36329e-17 0)
(3 -7.02853e-17 0)
(3 4.22302e-17 0)
(3 4.15331e-17 0)
(3 4.1127e-17 0)
(3 3.95114e-17 0)
(3 3.0581e-17 0)
(3 2.45578e-17 0)
(3 1.59335e-17 0)
(3 1.29189e-17 0)
(3 1.2265e-17 0)
(3 6.13751e-18 0)
(3 -2.03141e-18 0)
(3 6.52359e-18 0)
(3 1.90644e-17 0)
(3 3.27987e-17 0)
(3 2.806e-17 0)
(3 -1.84223e-18 0)
(3 -8.53739e-18 0)
(3 -4.66098e-18 0)
(3 -2.16512e-17 0)
(3 -5.84006e-17 0)
(3 -2.90215e-17 0)
(3 -2.8838e-17 0)
(3 -1.65797e-17 0)
(3 4.57743e-17 0)
(3 2.93165e-17 0)
(3 1.25774e-17 0)
(3 -4.05282e-17 0)
(3 -4.69894e-17 0)
(3 -3.85601e-17 0)
(3 -1.18732e-17 0)
(3 1.8069e-18 0)
(3 1.11411e-17 0)
(3 1.04157e-17 0)
(3 1.19681e-17 0)
(3 -1.02015e-17 0)
(3 -1.69414e-17 0)
(3 -2.05308e-17 0)
(3 -4.13448e-17 0)
(3 -4.03106e-17 0)
(3 -3.60866e-17 0)
(3 -2.71072e-17 0)
(3 -4.55906e-17 0)
(3 -3.6103e-17 0)
(3 -2.83374e-17 0)
(3 1.01548e-17 0)
(3 -2.01842e-17 0)
(3 -1.64776e-17 0)
(3 1.51693e-17 0)
(3 1.50406e-17 0)
(3 2.91679e-18 0)
(3 1.74821e-17 0)
(3 2.43137e-17 0)
(3 6.44791e-17 0)
(3 -5.37857e-17 0)
(3 -8.88144e-17 0)
(3 1.62085e-17 0)
(3 -2.61502e-17 0)
(3 8.6085e-18 0)
(3 8.64929e-18 0)
(3 7.59496e-17 0)
(3 -2.3411e-17 0)
(3 -2.34366e-17 0)
(3 -1.90196e-17 0)
(3 -1.38457e-17 0)
(3 -1.67916e-17 0)
(3 -1.45741e-17 0)
(3 -8.2754e-18 0)
(3 -1.50257e-17 0)
(3 -1.46284e-17 0)
(3 -1.06754e-17 0)
(3 -4.51772e-18 0)
(3 7.24062e-19 0)
(3 2.86878e-18 0)
(3 2.04832e-18 0)
(3 1.22227e-17 0)
(3 1.22329e-17 0)
(3 1.22216e-17 0)
(3 2.4589e-17 0)
(3 1.42088e-18 0)
(3 2.76618e-18 0)
(3 2.00673e-17 0)
(3 -3.9793e-18 0)
(3 -4.05744e-18 0)
(3 -3.99759e-17 0)
(3 -4.61285e-17 0)
(3 5.76795e-18 0)
(3 1.05627e-17 0)
(3 9.88485e-18 0)
(3 2.31223e-18 0)
(3 -8.14137e-18 0)
(0.704164 0.220063 0)
(1.4557 -0.562601 0)
(2.1905 -1.05991 0)
(2.58513 -0.831499 0)
(2.78562 -0.406535 0)
(2.92213 -0.124979 0)
(2.98691 -0.0192561 0)
(2.9994 -0.00113688 0)
(3.00003 -3.7397e-05 0)
(3.00001 -5.54914e-06 0)
(3 -3.62096e-07 0)
(3 -8.44034e-09 0)
(3 -3.0814e-09 0)
(3 -2.28754e-10 0)
(3 -2.23968e-12 0)
(3 -8.41119e-15 0)
(3 -5.49217e-17 0)
(3 2.65015e-16 0)
(3 -1.5438e-17 0)
(3 7.26413e-17 0)
(3 -2.79258e-17 0)
(3 -4.33484e-17 0)
(3 1.04405e-16 0)
(3 -4.40502e-17 0)
(3 -7.44163e-17 0)
(3 -1.1192e-17 0)
(3 2.97173e-17 0)
(3 -1.24791e-17 0)
(3 8.33881e-18 0)
(3 8.54289e-18 0)
(3 4.25821e-17 0)
(3 -4.22535e-17 0)
(3 4.33973e-17 0)
(3 -1.71843e-17 0)
(3 -2.64684e-17 0)
(0.943549 0.328961 0)
(1.6255 -0.561438 0)
(2.27362 -1.03212 0)
(2.62102 -0.768547 0)
(2.80446 -0.361459 0)
(2.93261 -0.102944 0)
(2.99065 -0.0131169 0)
(2.99975 -0.000542872 0)
(3.00003 -2.0429e-05 0)
(3.00001 -4.68313e-06 0)
(3 -1.43022e-07 0)
(3 -8.05189e-09 0)
(3 -2.86138e-09 0)
(3 -1.54518e-10 0)
(3 -9.89043e-13 0)
(3 -2.50024e-15 0)
(3 -5.61433e-17 0)
(3 9.49911e-17 0)
(3 -3.95719e-17 0)
(3 1.25664e-16 0)
(3 -3.90713e-17 0)
(3 -4.53606e-17 0)
(3 4.42515e-17 0)
(3 -9.4838e-17 0)
(3 -3.25598e-17 0)
(3 -1.87855e-17 0)
(3 5.78821e-17 0)
(3 -9.73408e-18 0)
(3 -9.24773e-18 0)
(3 7.90921e-18 0)
(3 4.82186e-17 0)
(3 -4.26009e-17 0)
(3 2.20622e-17 0)
(3 -5.16225e-17 0)
(3 -1.84098e-17 0)
(0.93901 0.330227 0)
(1.61862 -0.558967 0)
(2.2646 -1.03588 0)
(2.61382 -0.778904 0)
(2.79849 -0.371665 0)
(2.92883 -0.10842 0)
(2.98964 -0.0143972 0)
(2.99969 -0.000625493 0)
(3.00003 -2.15957e-05 0)
(3.00001 -4.99422e-06 0)
(3 -1.74434e-07 0)
(3 -8.06286e-09 0)
(3 -2.98895e-09 0)
(3 -1.79984e-10 0)
(3 -1.29782e-12 0)
(3 -3.28959e-15 0)
(3 -4.03852e-17 0)
(3 1.05777e-16 0)
(3 -9.10931e-17 0)
(3 1.7623e-16 0)
(3 -4.58167e-17 0)
(3 -3.7338e-17 0)
(3 1.31479e-17 0)
(3 -1.21333e-16 0)
(3 -1.02931e-17 0)
(3 -1.89262e-17 0)
(3 6.16381e-17 0)
(3 -9.81154e-18 0)
(3 -9.24004e-18 0)
(3 5.5868e-18 0)
(3 5.17094e-17 0)
(3 -4.07747e-17 0)
(3 5.56585e-18 0)
(3 -2.26137e-17 0)
(3 -7.4952e-18 0)
(0.936521 0.331513 0)
(1.61337 -0.557955 0)
(2.25884 -1.03855 0)
(2.60941 -0.785553 0)
(2.79486 -0.378089 0)
(2.92653 -0.111826 0)
(2.98903 -0.0151799 0)
(2.99965 -0.00067349 0)
(3.00003 -2.25051e-05 0)
(3.00001 -5.09824e-06 0)
(3 -1.9684e-07 0)
(3 -8.15561e-09 0)
(3 -3.06766e-09 0)
(3 -1.94105e-10 0)
(3 -1.44292e-12 0)
(3 -3.801e-15 0)
(3 -1.42656e-17 0)
(3 -2.85354e-17 0)
(3 1.7999e-17 0)
(3 1.28887e-16 0)
(3 6.22867e-17 0)
(3 -3.00381e-17 0)
(3 1.29731e-17 0)
(3 -1.41222e-16 0)
(3 -4.87147e-17 0)
(3 2.3988e-17 0)
(3 6.04111e-17 0)
(3 -1.90725e-17 0)
(3 3.0963e-18 0)
(3 -1.06573e-17 0)
(3 4.28347e-17 0)
(3 1.98502e-17 0)
(3 -2.74177e-17 0)
(3 -1.67912e-17 0)
(3 -1.44609e-17 0)
(0.93378 0.333016 0)
(1.60821 -0.556082 0)
(2.25259 -1.04113 0)
(2.60452 -0.792751 0)
(2.7908 -0.385278 0)
(2.92387 -0.115772 0)
(2.98827 -0.0161439 0)
(2.9996 -0.000738355 0)
(3.00003 -2.34144e-05 0)
(3.00001 -5.0324e-06 0)
(3 -2.20681e-07 0)
(3 -8.02718e-09 0)
(3 -3.13488e-09 0)
(3 -2.15548e-10 0)
(3 -1.73062e-12 0)
(3 -4.67605e-15 0)
(3 -2.24314e-17 0)
(3 -3.7546e-17 0)
(3 3.10825e-17 0)
(3 1.984e-16 0)
(3 1.70183e-17 0)
(3 -3.35155e-17 0)
(3 2.32377e-17 0)
(3 -1.45065e-16 0)
(3 -2.58242e-17 0)
(3 -1.4919e-17 0)
(3 6.2615e-17 0)
(3 -5.24989e-18 0)
(3 3.20347e-18 0)
(3 -2.38047e-17 0)
(3 4.62456e-17 0)
(3 3.25567e-17 0)
(3 -2.89688e-17 0)
(3 -2.17514e-17 0)
(3 -4.99335e-18 0)
(0.931139 0.334403 0)
(1.60291 -0.554755 0)
(2.2464 -1.04379 0)
(2.59969 -0.79979 0)
(2.78676 -0.392332 0)
(2.92121 -0.119681 0)
(2.98751 -0.0171133 0)
(2.99955 -0.000805459 0)
(3.00002 -2.47971e-05 0)
(3.00001 -5.09641e-06 0)
(3 -2.6014e-07 0)
(3 -8.19147e-09 0)
(3 -3.22586e-09 0)
(3 -2.34323e-10 0)
(3 -1.9795e-12 0)
(3 -5.19203e-15 0)
(3 -7.13176e-17 0)
(3 -3.30164e-17 0)
(3 3.11961e-17 0)
(3 -6.73639e-18 0)
(3 4.25064e-16 0)
(3 6.76098e-18 0)
(3 -6.55717e-17 0)
(3 -9.42083e-17 0)
(3 -7.01193e-17 0)
(3 4.24171e-17 0)
(3 2.41995e-17 0)
(3 2.77629e-17 0)
(3 6.1487e-18 0)
(3 -3.88994e-17 0)
(3 1.05695e-17 0)
(3 5.38962e-17 0)
(3 -1.67135e-17 0)
(3 -2.08387e-17 0)
(3 1.71499e-17 0)
(0.928376 0.33588 0)
(1.59772 -0.553076 0)
(2.24017 -1.04631 0)
(2.59482 -0.806947 0)
(2.78268 -0.399602 0)
(2.91847 -0.123771 0)
(2.9867 -0.0181603 0)
(2.99949 -0.000881789 0)
(3.00002 -2.62938e-05 0)
(3.00001 -5.14041e-06 0)
(3 -3.08268e-07 0)
(3 -8.3712e-09 0)
(3 -3.31146e-09 0)
(3 -2.57105e-10 0)
(3 -2.30098e-12 0)
(3 -6.49552e-15 0)
(3 -1.43257e-17 0)
(3 -3.79088e-17 0)
(3 3.20847e-17 0)
(3 -1.75396e-17 0)
(3 1.70436e-16 0)
(3 3.48746e-17 0)
(3 -7.70712e-17 0)
(3 -9.93242e-17 0)
(3 -4.26157e-17 0)
(3 2.4735e-17 0)
(3 4.49785e-17 0)
(3 2.75171e-17 0)
(3 -5.17392e-18 0)
(3 -4.12268e-17 0)
(3 6.52563e-18 0)
(3 6.29181e-17 0)
(3 -1.06194e-17 0)
(3 -3.03273e-17 0)
(3 1.95949e-17 0)
(0.925647 0.337325 0)
(1.59244 -0.551644 0)
(2.23391 -1.04889 0)
(2.58991 -0.814006 0)
(2.77853 -0.406854 0)
(2.91565 -0.127918 0)
(2.98584 -0.019246 0)
(2.99943 -0.000961592 0)
(3.00002 -2.75973e-05 0)
(3.00001 -5.07447e-06 0)
(3 -3.35786e-07 0)
(3 -8.28797e-09 0)
(3 -3.37612e-09 0)
(3 -2.8464e-10 0)
(3 -2.71544e-12 0)
(3 -7.96038e-15 0)
(3 1.08634e-17 0)
(3 -3.78034e-17 0)
(3 3.21963e-17 0)
(3 -3.06147e-17 0)
(3 -2.62468e-17 0)
(3 9.31736e-17 0)
(3 -2.6908e-17 0)
(3 -4.47882e-17 0)
(3 -2.84829e-17 0)
(3 2.7153e-17 0)
(3 5.07054e-17 0)
(3 -2.03875e-17 0)
(3 2.85035e-17 0)
(3 -4.89817e-17 0)
(3 1.05615e-17 0)
(3 6.51557e-17 0)
(3 8.64443e-18 0)
(3 -3.48291e-17 0)
(3 2.06285e-17 0)
(0.922825 0.338825 0)
(1.58724 -0.549997 0)
(2.22763 -1.05133 0)
(2.58497 -0.821159 0)
(2.77436 -0.414299 0)
(2.91278 -0.132236 0)
(2.98493 -0.0204117 0)
(2.99936 -0.00105391 0)
(3.00002 -2.97149e-05 0)
(3.00001 -5.1551e-06 0)
(3 -3.93494e-07 0)
(3 -8.72625e-09 0)
(3 -3.47384e-09 0)
(3 -3.11239e-10 0)
(3 -3.1233e-12 0)
(3 -9.3136e-15 0)
(3 -3.93236e-17 0)
(3 -3.76473e-17 0)
(3 1.5612e-17 0)
(3 -9.56844e-17 0)
(3 -5.44713e-18 0)
(3 1.58805e-16 0)
(3 -1.18075e-16 0)
(3 5.82851e-18 0)
(3 -3.22806e-17 0)
(3 8.22666e-17 0)
(3 -5.80486e-18 0)
(3 -3.44998e-17 0)
(3 2.48774e-17 0)
(3 -1.60879e-17 0)
(3 -7.10076e-18 0)
(3 2.99048e-17 0)
(3 3.42927e-17 0)
(3 -3.07215e-17 0)
(3 2.2353e-17 0)
(0.920024 0.340305 0)
(1.58197 -0.548545 0)
(2.22133 -1.05384 0)
(2.58001 -0.828222 0)
(2.77012 -0.421714 0)
(2.90981 -0.136605 0)
(2.98397 -0.0216168 0)
(2.99928 -0.00115004 0)
(3.00002 -3.13253e-05 0)
(3.00001 -5.09473e-06 0)
(3 -4.17345e-07 0)
(3 -8.6542e-09 0)
(3 -3.52736e-09 0)
(3 -3.49759e-10 0)
(3 -3.70802e-12 0)
(3 -1.10459e-14 0)
(3 -4.84315e-17 0)
(3 -3.18126e-17 0)
(3 1.20828e-17 0)
(3 5.95131e-18 0)
(3 -3.85066e-17 0)
(3 1.3428e-16 0)
(3 -1.39456e-16 0)
(3 1.90551e-17 0)
(3 -4.64313e-17 0)
(3 2.36778e-17 0)
(3 3.82663e-17 0)
(3 -4.03721e-17 0)
(3 1.13474e-17 0)
(3 -2.65356e-18 0)
(3 2.14287e-17 0)
(3 -1.89244e-19 0)
(3 2.47858e-17 0)
(3 -3.0702e-17 0)
(3 3.12165e-17 0)
(0.917135 0.341839 0)
(1.57676 -0.546906 0)
(2.215 -1.0562 0)
(2.575 -0.835375 0)
(2.76586 -0.429339 0)
(2.9068 -0.141165 0)
(2.98297 -0.0229132 0)
(2.99919 -0.00126059 0)
(3.00002 -3.40056e-05 0)
(3.00001 -5.17568e-06 0)
(3 -4.79412e-07 0)
(3 -9.31706e-09 0)
(3 -3.5773e-09 0)
(3 -3.86393e-10 0)
(3 -4.27983e-12 0)
(3 -1.30676e-14 0)
(3 -6.41131e-17 0)
(3 -7.80915e-18 0)
(3 6.32808e-18 0)
(3 5.84991e-18 0)
(3 -3.67487e-17 0)
(3 4.19919e-18 0)
(3 -6.68032e-17 0)
(3 2.94069e-17 0)
(3 -2.78383e-18 0)
(3 -5.38474e-18 0)
(3 2.17095e-17 0)
(3 -3.30629e-17 0)
(3 4.38576e-18 0)
(3 2.58585e-17 0)
(3 4.236e-17 0)
(3 -9.04863e-17 0)
(3 6.31513e-17 0)
(3 -5.49301e-17 0)
(3 6.29976e-19 0)
(0.914258 0.343355 0)
(1.5715 -0.545436 0)
(2.20864 -1.05862 0)
(2.56997 -0.842433 0)
(2.76153 -0.436922 0)
(2.90368 -0.145764 0)
(2.9819 -0.0242522 0)
(2.9991 -0.00137615 0)
(3.00002 -3.61142e-05 0)
(3.00001 -5.12592e-06 0)
(3 -5.00664e-07 0)
(3 -9.23599e-09 0)
(3 -3.53659e-09 0)
(3 -4.39086e-10 0)
(3 -5.16875e-12 0)
(3 -1.54191e-14 0)
(3 -4.55257e-17 0)
(3 -6.78677e-18 0)
(3 6.38813e-18 0)
(3 -1.08742e-17 0)
(3 5.43836e-18 0)
(3 7.3942e-17 0)
(3 -9.37851e-17 0)
(3 4.99411e-17 0)
(3 -3.36852e-17 0)
(3 -3.28967e-18 0)
(3 -1.88848e-18 0)
(3 -1.90122e-17 0)
(3 -1.1085e-17 0)
(3 4.53866e-17 0)
(3 7.75402e-17 0)
(3 -2.00198e-16 0)
(3 5.70407e-17 0)
(3 -2.80669e-17 0)
(3 -5.26857e-18 0)
(0.911298 0.344922 0)
(1.56629 -0.543809 0)
(2.20226 -1.06092 0)
(2.56491 -0.849573 0)
(2.75717 -0.444716 0)
(2.90052 -0.150567 0)
(2.98079 -0.0256884 0)
(2.99899 -0.00150826 0)
(3.00002 -3.94613e-05 0)
(3.00001 -5.20877e-06 0)
(3 -5.63809e-07 0)
(3 -1.01165e-08 0)
(3 -3.55703e-09 0)
(3 -4.80687e-10 0)
(3 -6.02165e-12 0)
(3 -1.84389e-14 0)
(3 -1.6123e-17 0)
(3 -6.8258e-18 0)
(3 -1.28427e-17 0)
(3 1.75985e-17 0)
(3 4.32569e-17 0)
(3 5.7713e-17 0)
(3 -9.87823e-17 0)
(3 4.98016e-17 0)
(3 -6.61283e-17 0)
(3 2.79178e-17 0)
(3 -1.82221e-17 0)
(3 -2.56749e-18 0)
(3 -2.11987e-17 0)
(3 6.41104e-17 0)
(3 2.01558e-16 0)
(3 -2.82071e-16 0)
(3 4.89049e-17 0)
(3 -2.95676e-17 0)
(3 -1.511e-17 0)
(0.908339 0.346477 0)
(1.56103 -0.542321 0)
(2.19586 -1.06326 0)
(2.55982 -0.856631 0)
(2.75275 -0.452472 0)
(2.89726 -0.155413 0)
(2.97961 -0.027172 0)
(2.99888 -0.00164712 0)
(3.00002 -4.22988e-05 0)
(3.00001 -5.1736e-06 0)
(3 -5.85049e-07 0)
(3 -9.97534e-09 0)
(3 -3.50906e-09 0)
(3 -5.32942e-10 0)
(3 -7.33434e-12 0)
(3 -2.37943e-14 0)
(3 2.6997e-17 0)
(3 -5.92535e-18 0)
(3 1.09452e-17 0)
(3 1.00133e-17 0)
(3 6.00805e-17 0)
(3 3.14942e-17 0)
(3 -6.71103e-17 0)
(3 3.63486e-17 0)
(3 -8.35603e-17 0)
(3 3.65707e-17 0)
(3 -5.79869e-17 0)
(3 3.39584e-17 0)
(3 -2.48776e-17 0)
(3 6.41796e-17 0)
(3 2.54212e-16 0)
(3 -3.5609e-16 0)
(3 6.33325e-17 0)
(3 -1.30693e-17 0)
(3 -3.58276e-17 0)
(0.905299 0.348078 0)
(1.55581 -0.540703 0)
(2.18943 -1.0655 0)