/*--------------------------------*- C++ -*----------------------------------*\
  =========                 |
  \\      /  F ield         | OpenFOAM: The Open Source CFD Toolbox
   \\    /   O peration     | Website:  https://openfoam.org
    \\  /    A nd           | Version:  7
     \\/     M anipulation  |
\*---------------------------------------------------------------------------*/
FoamFile
{
    version     2.0;
    format      ascii;
    class       volScalarField;
    location    "1";
    object      p;
}
// * * * * * * * * * * * * * * * * * * * * * * * * * * * * * * * * * * * * * //

dimensions      [1 -1 -2 0 0 0 0];

internalField   nonuniform List<scalar> 
90000
(
0.936627
0.942589
0.949839
0.957249
0.964276
0.971969
0.978902
0.985762
0.991995
0.99829
1.0038
1.00922
1.01411
1.01956
1.02475
1.0306
1.03647
1.04296
1.04967
1.05684
1.06413
1.07243
1.08044
1.08944
1.09711
1.10483
1.11149
1.11575
1.12176
1.12581
1.12909
1.13364
1.13307
1.12778
1.11652
1.10536
1.0976
1.09266
1.0888
1.08776
1.08802
1.08943
1.09119
1.09189
1.09322
1.09367
1.0932
1.09154
1.08851
1.0859
1.0836
1.08394
1.08435
1.08541
1.08726
1.08755
1.0864
1.08287
1.07808
1.07456
1.07094
1.06865
1.06804
1.06825
1.06668
1.06244
1.05675
1.0514
1.04555
1.03803
1.02923
1.01955
1.01237
1.00943
1.00927
1.00944
1.00925
1.00883
1.00861
1.00876
1.00884
1.00877
1.00867
1.00868
1.00864
1.00845
1.00738
1.00411
0.998011
0.989392
0.978431
0.967127
0.962955
0.961023
0.959434
0.958653
0.95799
0.95236
0.950766
0.95994
0.931686
0.932553
0.934146
0.936439
0.939297
0.942824
0.947008
0.951697
0.956753
0.962352
0.968076
0.974153
0.980125
0.985844
0.991284
0.996624
1.00204
1.00752
1.01343
1.01947
1.02597
1.03267
1.03935
1.04702
1.05475
1.06296
1.07237
1.08016
1.08905
1.09665
1.10218
1.10816
1.11163
1.11271
1.11421
1.11662
1.11614
1.11344
1.10829
1.10174
1.09605
1.09142
1.08763
1.08497
1.08393
1.08433
1.08547
1.08722
1.0892
1.08938
1.08874
1.08756
1.08599
1.08441
1.08404
1.08378
1.08291
1.08106
1.07838
1.07554
1.07123
1.06768
1.06634
1.06582
1.06515
1.06253
1.05682
1.04985
1.04332
1.03775
1.03049
1.02118
1.01266
1.00929
1.00892
1.00929
1.00926
1.00885
1.00845
1.00861
1.00878
1.00877
1.00859
1.00853
1.0084
1.0081
1.00705
1.00392
0.997924
0.989669
0.978859
0.966922
0.962992
0.961272
0.960195
0.959638
0.958107
0.952324
0.951286
0.959986
0.931908
0.931905
0.931874
0.931861
0.931905
0.93205
0.93234
0.932781
0.933492
0.934623
0.936131
0.938126
0.940584
0.943542
0.946966
0.950826
0.955089
0.95971
0.964698
0.970193
0.976003
0.982357
0.989035
0.995818
1.00361
1.01118
1.02026
1.02946
1.03893
1.04961
1.05977
1.06937
1.07855
1.08861
1.09555
1.10011
1.10313
1.10447
1.10671
1.10893
1.10913
1.10763
1.10403
1.09874
1.0931
1.08885
1.08611
1.0846
1.08486
1.0854
1.08618
1.08675
1.08745
1.08719
1.08648
1.08556
1.08401
1.082
1.07976
1.07682
1.07252
1.06767
1.06478
1.06321
1.06289
1.06226
1.05914
1.05181
1.04273
1.03489
1.02912
1.02279
1.01539
1.01021
1.00862
1.009
1.00944
1.00942
1.00887
1.00843
1.00854
1.00857
1.00836
1.00819
1.00807
1.00784
1.00699
1.00415
0.998338
0.990594
0.979669
0.967369
0.963992
0.961911
0.961117
0.960167
0.958038
0.952903
0.951873
0.959959
0.931744
0.931763
0.931778
0.931797
0.931824
0.931869
0.931919
0.932029
0.932011
0.931965
0.931943
0.931977
0.932072
0.932242
0.932517
0.933072
0.933866
0.935022
0.936578
0.938528
0.941036
0.94406
0.947954
0.952304
0.957644
0.963684
0.970455
0.978455
0.986747
0.996827
1.00717
1.01907
1.031
1.04459
1.0574
1.06994
1.0804
1.08879
1.09589
1.0997
1.10124
1.10159
1.10155
1.10119
1.10011
1.09762
1.0941
1.09019
1.0871
1.08522
1.08447
1.08389
1.08365
1.08318
1.08214
1.08109
1.081
1.08084
1.08024
1.07871
1.07574
1.07116
1.06619
1.06247
1.05976
1.0585
1.05647
1.05279
1.04536
1.03546
1.02706
1.02047
1.01555
1.01156
1.00939
1.00861
1.00873
1.00902
1.00909
1.0087
1.0084
1.00844
1.00842
1.00838
1.00836
1.00823
1.00755
1.00493
0.999163
0.991246
0.980641
0.968334
0.963633
0.961247
0.960749
0.959876
0.958034
0.953567
0.952547
0.959953
0.931811
0.931813
0.931807
0.931811
0.931825
0.931826
0.931808
0.931803
0.931824
0.931821
0.931806
0.931797
0.931803
0.931819
0.931894
0.931909
0.931924
0.931964
0.93206
0.932202
0.932341
0.932732
0.933366
0.934277
0.935534
0.937287
0.939627
0.942764
0.946712
0.951836
0.958028
0.965766
0.975034
0.98532
0.998516
1.01166
1.02668
1.04175
1.05623
1.06782
1.07815
1.08539
1.09126
1.09405
1.09604
1.09636
1.09684
1.09673
1.09588
1.09404
1.09128
1.08776
1.08447
1.08205
1.07999
1.07864
1.0782
1.07792
1.07736
1.07619
1.07422
1.07143
1.06807
1.0639
1.05945
1.05599
1.0534
1.04998
1.04504
1.03811
1.02896
1.02059
1.0143
1.0108
1.00966
1.00935
1.00911
1.00894
1.00884
1.00872
1.00849
1.00832
1.00822
1.00815
1.008
1.00777
1.00714
1.00473
0.999143
0.991812
0.981111
0.968166
0.963567
0.962034
0.961415
0.960294
0.958192
0.954171
0.9533
0.96008
0.931872
0.931877
0.93189
0.931892
0.93189
0.931898
0.931904
0.931895
0.931891
0.931888
0.931868
0.931846
0.931839
0.931826
0.931794
0.931774
0.931764
0.931759
0.931778
0.931825
0.931909
0.932027
0.932174
0.932329
0.932483
0.932645
0.93286
0.933244
0.933891
0.934841
0.936265
0.93824
0.941209
0.945143
0.951022
0.958394
0.968449
0.98051
0.994893
1.01148
1.02863
1.04468
1.06045
1.07263
1.08415
1.09066
1.09529
1.09679
1.09632
1.09535
1.09366
1.09107
1.08654
1.08299
1.08092
1.07939
1.07779
1.07651
1.07538
1.07439
1.07306
1.07094
1.06808
1.06513
1.06145
1.05608
1.05144
1.0475
1.04343
1.03778
1.03077
1.02279
1.01511
1.01032
1.0088
1.00862
1.00878
1.00885
1.00876
1.00856
1.00828
1.00802
1.00798
1.00808
1.00825
1.00815
1.0076
1.0052
0.99979
0.992401
0.981174
0.969068
0.964089
0.962357
0.961462
0.960338
0.958419
0.954955
0.954164
0.960341
0.932102
0.932114
0.932139
0.932147
0.932135
0.932136
0.932162
0.932161
0.932145
0.932161
0.932166
0.932137
0.932123
0.932136
0.932129
0.932112
0.932109
0.932108
0.932106
0.932123
0.932167
0.932215
0.932275
0.932353
0.932445
0.932549
0.932641
0.932728
0.932817
0.932867
0.932901
0.932994
0.933288
0.933768
0.934566
0.936066
0.938516
0.942219
0.947945
0.956457
0.967392
0.982084
0.999146
1.01742
1.03535
1.05372
1.06704
1.07774
1.08204
1.08694
1.0876
1.08758
1.08794
1.08731
1.08591
1.0831
1.07959
1.07615
1.07345
1.07204
1.07093
1.06944
1.06748
1.06511
1.06166
1.0576
1.05178
1.04654
1.04177
1.0366
1.03037
1.02353
1.01639
1.01086
1.00868
1.00839
1.00854
1.00873
1.00882
1.0087
1.00841
1.00819
1.00822
1.00843
1.00873
1.0087
1.00827
1.0061
1.00084
0.992988
0.98189
0.970405
0.963906
0.961999
0.961489
0.960642
0.959012
0.95602
0.955235
0.960775
0.932333
0.932364
0.932404
0.932444
0.932461
0.932453
0.932454
0.932461
0.932471
0.932491
0.93254
0.932558
0.932539
0.932537
0.93258
0.932597
0.932582
0.932625
0.932642
0.93258
0.932534
0.932551
0.93258
0.932618
0.932698
0.932782
0.932825
0.932853
0.932874
0.93288
0.932828
0.932784
0.932852
0.932886
0.93293
0.933094
0.933205
0.933394
0.934012
0.93543
0.938116
0.942445
0.949171
0.96
0.97349
0.99135
1.0105
1.03216
1.04963
1.06476
1.07659
1.08371
1.08818
1.08806
1.08643
1.08316
1.07826
1.07432
1.07221
1.07075
1.06929
1.06847
1.06714
1.0648
1.06163
1.05732
1.05258
1.04721
1.04154
1.03543
1.02924
1.02313
1.01654
1.0111
1.00876
1.00835
1.00843
1.00867
1.00884
1.00885
1.00875
1.00863
1.00856
1.0086
1.00871
1.00866
1.00824
1.00626
1.00139
0.993297
0.982856
0.970748
0.963556
0.962224
0.9621
0.96134
0.959987
0.957081
0.956197
0.961187
0.932538
0.932559
0.932582
0.93263
0.932675
0.932706
0.93273
0.932749
0.932768
0.932796
0.932846
0.932872
0.932851
0.932841
0.932933
0.933064
0.933083
0.933058
0.933037
0.933004
0.932975
0.932964
0.932958
0.932926
0.932912
0.932936
0.932947
0.932936
0.932927
0.932924
0.932874
0.9328
0.932748
0.932728
0.932807
0.932914
0.932946
0.932862
0.932841
0.932978
0.933141
0.933446
0.934218
0.935994
0.939395
0.945573
0.955886
0.969006
0.98895
1.00865
1.0311
1.04695
1.06294
1.07211
1.07598
1.07502
1.07453
1.07447
1.07416
1.07259
1.07018
1.06818
1.06529
1.062
1.05946
1.05663
1.05288
1.04772
1.04141
1.03517
1.02903
1.02283
1.01656
1.01112
1.00881
1.0084
1.00842
1.00859
1.00881
1.00885
1.00881
1.00873
1.0086
1.00857
1.00861
1.00856
1.00817
1.00636
1.00157
0.993748
0.983659
0.970835
0.963736
0.963058
0.963154
0.962302
0.960735
0.957985
0.957089
0.961625
0.932579
0.932598
0.93262
0.932649
0.932675
0.932697
0.93273
0.932767
0.932803
0.932855
0.9329
0.932883
0.932836
0.932846
0.932987
0.933184
0.933253
0.933247
0.933248
0.933245
0.93323
0.933222
0.933226
0.933203
0.933144
0.933102
0.933071
0.933051
0.933038
0.933016
0.932953
0.932879
0.932782
0.932775
0.932857
0.932934
0.932935
0.932903
0.932869
0.932853
0.932884
0.932892
0.932849
0.932835
0.932988
0.933557
0.935112
0.938189
0.944363
0.954683
0.969273
0.989847
1.01147
1.03133
1.05151
1.06314
1.07071
1.07386
1.0731
1.07128
1.06918
1.06521
1.06168
1.05922
1.05735
1.05533
1.052
1.04692
1.04114
1.03548
1.02969
1.02327
1.01614
1.01057
1.00848
1.00835
1.00845
1.00863
1.00878
1.00887
1.00885
1.00877
1.00862
1.00851
1.00846
1.00836
1.00796
1.00634
1.00178
0.994525
0.984545
0.971404
0.964488
0.964016
0.963968
0.963217
0.961739
0.958953
0.957913
0.962094
0.932469
0.93249
0.932503
0.93252
0.932551
0.932591
0.932644
0.932715
0.932794
0.932892
0.932966
0.932977
0.932967
0.933022
0.933176
0.933295
0.933293
0.933275
0.933272
0.933266
0.933237
0.933203
0.93319
0.933173
0.93314
0.93312
0.933115
0.933133
0.933142
0.933138
0.933134
0.933131
0.933121
0.933119
0.9331
0.93304
0.932989
0.932981
0.93304
0.933084
0.933059
0.932905
0.932706
0.932598
0.932616
0.932704
0.932733
0.932857
0.93328
0.934745
0.93792
0.944937
0.955991
0.973437
0.99341
1.01636
1.03343
1.04958
1.05646
1.05811
1.06055
1.06057
1.0604
1.05994
1.0582
1.0552
1.05057
1.04548
1.04122
1.03693
1.03171
1.02416
1.01582
1.00991
1.00802
1.00817
1.00843
1.00864
1.00867
1.00879
1.00882
1.00876
1.00862
1.00848
1.00836
1.00822
1.00785
1.00646
1.00221
0.995349
0.98578
0.973272
0.96555
0.964637
0.964417
0.963575
0.961935
0.959308
0.958383
0.962396
0.932427
0.932451
0.93247
0.932488
0.932507
0.932529
0.932559
0.932591
0.932617
0.932693
0.93283
0.932871
0.932846
0.932831
0.932845
0.932876
0.932925
0.932977
0.932997
0.933005
0.933002
0.932942
0.932926
0.932982
0.933023
0.933046
0.93307
0.933103
0.933136
0.933169
0.933198
0.933198
0.933198
0.933247
0.933332
0.933379
0.933398
0.933304
0.933145
0.933031
0.932962
0.932932
0.932861
0.932811
0.93273
0.932679
0.932538
0.932477
0.932422
0.932279
0.932403
0.932908
0.93457
0.938807
0.946549
0.960774
0.979331
0.999285
1.02089
1.0361
1.04888
1.05683
1.05921
1.05835
1.05665
1.05225
1.04798
1.04477
1.04175
1.03853
1.03342
1.02494
1.01565
1.00985
1.00819
1.00801
1.00813
1.00833
1.0085
1.00871
1.00875
1.00872
1.00864
1.00853
1.00843
1.00828
1.00793
1.00674
1.00295
0.996413
0.987431
0.975466
0.96664
0.964936
0.964703
0.963822
0.962236
0.95978
0.958925
0.962727
0.932581
0.932584
0.932592
0.932599
0.932601
0.932608
0.932616
0.932624
0.932639
0.932686
0.932742
0.932773
0.932785
0.932799
0.932823
0.932853
0.932924
0.933096
0.933267
0.933303
0.933311
0.933342
0.933461
0.933565
0.933626
0.933674
0.933726
0.933769
0.933803
0.933823
0.933832
0.933827
0.933833
0.933858
0.93388
0.93384
0.933728
0.933602
0.933495
0.9334
0.933282
0.933202
0.933131
0.933092
0.933004
0.932865
0.93268
0.932462
0.93233
0.932158
0.931983
0.931864
0.931572
0.931722
0.932458
0.934885
0.940577
0.95068
0.966093
0.986533
1.00488
1.02228
1.03771
1.04274
1.04464
1.04511
1.04565
1.04527
1.04299
1.03915
1.03217
1.02374
1.01587
1.01071
1.00862
1.008
1.00787
1.00801
1.00834
1.00861
1.00869
1.00868
1.00868
1.00866
1.00857
1.0084
1.00809
1.00714
1.00381
0.997363
0.988687
0.9768
0.967307
0.964936
0.96463
0.964021
0.962533
0.960232
0.959498
0.96312
0.932988
0.932977
0.932978
0.932986
0.932972
0.932946
0.932929
0.932914
0.932904
0.932917
0.932957
0.932957
0.932948
0.93296
0.93301
0.933085
0.933156
0.933227
0.933277
0.933303
0.933295
0.933322
0.933419
0.933495
0.933545
0.933583
0.93362
0.933645
0.933654
0.933653
0.933653
0.933659
0.933658
0.933634
0.933633
0.933662
0.933643
0.933565
0.933511
0.933504
0.933535
0.933579
0.933589
0.933542
0.933429
0.933244
0.932993
0.932724
0.932471
0.932274
0.931945
0.931766
0.931424
0.931161
0.930963
0.930627
0.930909
0.932315
0.935746
0.943877
0.956198
0.973757
0.995065
1.01485
1.02679
1.03905
1.04387
1.04315
1.04022
1.03436
1.02864
1.02276
1.01677
1.01167
1.00907
1.0078
1.00774
1.00786
1.00807
1.00831
1.00851
1.00865
1.00879
1.00878
1.00871
1.00854
1.00824
1.00737
1.0044
0.99796
0.98949
0.977567
0.967554
0.964865
0.964832
0.964451
0.963021
0.960841
0.960103
0.96349
0.933584
0.933597
0.933649
0.933669
0.933635
0.933607
0.933597
0.933604
0.93363
0.933638
0.933629
0.933614
0.933598
0.933603
0.933613
0.933624
0.933627
0.933614
0.933567
0.93356
0.93362
0.933678
0.933717
0.933746
0.933771
0.933791
0.933805
0.933808
0.933788
0.933761
0.933755
0.93377
0.933765
0.933676
0.933598
0.933645
0.933726
0.93382
0.93394
0.934052
0.93414
0.934162
0.934106
0.933965
0.93378
0.933522
0.933238
0.932945
0.932682
0.932481
0.932215
0.931903
0.931573
0.931146
0.930854
0.930424
0.930039
0.929789
0.929572
0.930083
0.932456
0.93861
0.948937
0.967154
0.987219
1.00483
1.02391
1.03058
1.03031
1.02879
1.02714
1.02392
1.01777
1.01184
1.00836
1.00781
1.00802
1.00818
1.00811
1.00805
1.00828
1.00868
1.0089
1.00886
1.00876
1.00859
1.00826
1.00745
1.00474
0.998494
0.990253
0.978573
0.967845
0.96522
0.965288
0.965028
0.963754
0.961736
0.960937
0.963994
0.934129
0.934159
0.93414
0.934116
0.934102
0.934114
0.934178
0.934246
0.934246
0.934236
0.934252
0.934272
0.934277
0.934277
0.934273
0.934272
0.934272
0.934267
0.934254
0.934244
0.934263
0.934299
0.934323
0.934337
0.934349
0.93436
0.934366
0.934355
0.934313
0.934302
0.934331
0.934356
0.93434
0.934257
0.93418
0.934146
0.934143
0.934166
0.934189
0.934166
0.93409
0.933975
0.933855
0.93371
0.933578
0.933417
0.933253
0.933081
0.932906
0.932673
0.932433
0.932139
0.931866
0.931504
0.931064
0.930639
0.930049
0.929641
0.929127
0.928729
0.927876
0.928238
0.929967
0.935138
0.945869
0.96228
0.983362
1.00688
1.02119
1.02607
1.02433
1.02107
1.0158
1.00882
1.00752
1.00816
1.0087
1.00847
1.00782
1.00782
1.00812
1.00861
1.00891
1.00885
1.00871
1.00856
1.00825
1.00749
1.00505
0.99926
0.99124
0.98007
0.968431
0.965827
0.966175
0.965934
0.964678
0.962715
0.961895
0.964628
0.934148
0.93418
0.93422
0.934276
0.934334
0.934399
0.934505
0.934572
0.934575
0.934584
0.93461
0.934619
0.934619
0.934617
0.93461
0.934598
0.934592
0.934594
0.934596
0.934604
0.934623
0.934645
0.93466
0.934681
0.9347
0.93471
0.934714
0.934709
0.934713
0.934745
0.934783
0.934799
0.9348
0.934802
0.934812
0.93484
0.934862
0.93483
0.934709
0.93452
0.934322
0.934114
0.933924
0.933764
0.933665
0.933589
0.933511
0.933381
0.933211
0.932968
0.932702
0.93238
0.932108
0.931844
0.931521
0.931096
0.930508
0.929814
0.929119
0.928622
0.927699
0.926938
0.926165
0.925877
0.926967
0.932264
0.942563
0.960896
0.980817
0.996216
1.0003
1.0046
1.00414
1.00498
1.00809
1.00913
1.00881
1.00761
1.00753
1.00776
1.00845
1.00882
1.00879
1.00867
1.00861
1.00854
1.00827
1.00755
1.00551
1.00029
0.992554
0.982088
0.969552
0.966709
0.967067
0.966765
0.965466
0.963489
0.962621
0.965132
0.934266
0.934387
0.934401
0.934388
0.934371
0.934371
0.934389
0.934418
0.934449
0.934455
0.934447
0.934449
0.934477
0.934533
0.934553
0.934562
0.93458
0.934604
0.934624
0.934649
0.934676
0.934692
0.934709
0.934744
0.934779
0.934806
0.934835
0.934873
0.934919
0.934976
0.935036
0.935083
0.9352
0.93534
0.935435
0.935467
0.935457
0.935399
0.935273
0.935109
0.934954
0.93479
0.934603
0.934392
0.934187
0.934025
0.933924
0.933842
0.933737
0.933545
0.933263
0.932885
0.932474
0.932053
0.931657
0.93125
0.930819
0.930177
0.929471
0.928717
0.927882
0.926877
0.925958
0.924888
0.923774
0.922688
0.923208
0.926931
0.938921
0.952355
0.964373
0.979875
0.990556
1.00145
1.00533
1.00763
1.00581
1.0062
1.00726
1.00829
1.00879
1.00868
1.00839
1.00847
1.0086
1.00854
1.00829
1.00764
1.00602
1.00138
0.993926
0.984089
0.971568
0.967586
0.967586
0.967189
0.965874
0.963979
0.963112
0.965488
0.934247
0.934306
0.934394
0.934498
0.934553
0.934567
0.934579
0.934604
0.93464
0.934691
0.934712
0.934717
0.934733
0.934758
0.934775
0.934795
0.93482
0.934846
0.934869
0.934894
0.934917
0.934932
0.934948
0.934966
0.934983
0.935006
0.935031
0.935052
0.935071
0.935087
0.935103
0.935127
0.935151
0.935162
0.935165
0.935138
0.935031
0.934984
0.935111
0.935267
0.935364
0.935396
0.935335
0.935183
0.935012
0.934861
0.934741
0.934611
0.934412
0.934129
0.933787
0.933383
0.93292
0.93243
0.931981
0.931548
0.931085
0.930471
0.929734
0.928907
0.928087
0.92708
0.926055
0.924692
0.923325
0.921668
0.91992
0.917074
0.915222
0.919219
0.925136
0.934368
0.95206
0.973233
0.984394
0.996245
1.00073
1.00666
1.00892
1.00864
1.0082
1.00794
1.00821
1.00862
1.00862
1.00846
1.00818
1.00773
1.00648
1.00237
0.995039
0.985956
0.974198
0.968385
0.967953
0.967424
0.966178
0.964444
0.963644
0.965892
0.935356
0.935415
0.935423
0.935409
0.935403
0.935407
0.935421
0.935445
0.935498
0.935535
0.935544
0.935554
0.935571
0.935587
0.9356
0.935614
0.935625
0.935626
0.935616
0.935598
0.935591
0.935603
0.935611
0.93561
0.935603
0.935603
0.935621
0.935635
0.935637
0.935633
0.935624
0.935605
0.93557
0.935519
0.935463
0.935415
0.935379
0.935359
0.935351
0.935398
0.935466
0.935524
0.935593
0.935644
0.935633
0.935556
0.93545
0.935287
0.935009
0.934643
0.934264
0.933902
0.933515
0.933051
0.93249
0.93188
0.9313
0.93079
0.930228
0.929442
0.928469
0.927373
0.926181
0.924869
0.923357
0.921542
0.9193
0.916048
0.911366
0.906069
0.901653
0.902178
0.911202
0.929411
0.952917
0.978122
0.994346
1.00389
1.00706
1.00548
1.00612
1.00758
1.00881
1.00879
1.00855
1.00815
1.00806
1.00783
1.00679
1.00314
0.995994
0.987654
0.976553
0.969204
0.968137
0.967668
0.966497
0.96493
0.964209
0.966303
0.93668
0.936681
0.936673
0.936671
0.93668
0.936697
0.936716
0.936725
0.936721
0.936691
0.93665
0.936685
0.936738
0.93676
0.936756
0.93674
0.936723
0.936694
0.936665
0.936622
0.93656
0.936609
0.93667
0.936691
0.936636
0.936628
0.936716
0.936772
0.936793
0.936799
0.936797
0.936781
0.93674
0.936692
0.936654
0.936618
0.936565
0.936478
0.936368
0.93625
0.936128
0.936022
0.935959
0.935935
0.935933
0.93593
0.935848
0.935639
0.935351
0.935029
0.934706
0.934412
0.934127
0.933776
0.933284
0.932641
0.931902
0.931149
0.930429
0.929749
0.928983
0.927986
0.926707
0.925238
0.923569
0.921639
0.919166
0.915832
0.910659
0.903147
0.894329
0.887799
0.888811
0.895232
0.912945
0.935998
0.960376
0.981334
0.993173
0.998265
1.00506
1.00912
1.00903
1.00854
1.00791
1.008
1.00833
1.00812
1.00704
1.00385
0.997152
0.989324
0.978694
0.969832
0.968431
0.968082
0.967065
0.965593
0.96491
0.966803
0.93731
0.937474
0.937524
0.937515
0.93749
0.9375
0.937527
0.937531
0.937514
0.93749
0.937471
0.937459
0.937448
0.937427
0.937323
0.937245
0.937286
0.937332
0.93736
0.937369
0.937322
0.937308
0.937382
0.937419
0.937391
0.937435
0.937553
0.937637
0.93771
0.93777
0.93781
0.937837
0.937859
0.937883
0.937905
0.937917
0.937897
0.937839
0.937753
0.937622
0.937449
0.937277
0.937124
0.936982
0.93682
0.936587
0.936254
0.935859
0.93548
0.935193
0.935002
0.934853
0.934681
0.934438
0.934065
0.9335
0.932762
0.931953
0.931155
0.930337
0.929424
0.928411
0.927209
0.925727
0.923973
0.921862
0.919181
0.9154
0.909785
0.901463
0.891554
0.88412
0.882355
0.883235
0.888261
0.898663
0.919952
0.94411
0.969592
0.989484
1.00219
1.00677
1.00616
1.00594
1.00719
1.00855
1.00864
1.00823
1.00711
1.00459
0.99881
0.991082
0.98092
0.970737
0.968981
0.968695
0.967796
0.966371
0.965689
0.967388
0.936917
0.936931
0.936907
0.936864
0.936883
0.936935
0.936954
0.936969
0.936956
0.936901
0.936934
0.937019
0.937041
0.937028
0.937098
0.93719
0.937216
0.937223
0.937295
0.937371
0.937442
0.937525
0.937564
0.937599
0.937731
0.937849
0.93788
0.937875
0.937975
0.938188
0.938327
0.938427
0.938525
0.938616
0.938688
0.938736
0.938759
0.938745
0.938682
0.938615
0.938565
0.938517
0.938426
0.938243
0.937955
0.937587
0.937176
0.936772
0.936431
0.936158
0.935902
0.935608
0.93524
0.93477
0.934223
0.933705
0.933257
0.932776
0.932113
0.931194
0.930064
0.928849
0.927667
0.926366
0.92461
0.922273
0.919114
0.91472
0.908176
0.898937
0.888911
0.882762
0.881345
0.881359
0.881873
0.88396
0.890912
0.904207
0.927642
0.953075
0.977434
0.988973
0.997595
1.00356
1.00909
1.00911
1.00848
1.00776
1.0071
1.00543
1.00062
0.992879
0.983375
0.97248
0.969999
0.969299
0.968308
0.966903
0.96633
0.967897
0.937696
0.937702
0.937688
0.937681
0.93767
0.937623
0.9376
0.937672
0.937721
0.937727
0.937782
0.93785
0.93788
0.937862
0.93788
0.937969
0.938018
0.938007
0.938034
0.938118
0.938157
0.938188
0.938286
0.938342
0.938346
0.938415
0.938486
0.938497
0.938483
0.938585
0.938705
0.93878
0.938831
0.938871
0.938906
0.938937
0.938962
0.938985
0.939012
0.939047
0.939105
0.939162
0.939158
0.939033
0.93882
0.938579
0.938323
0.938068
0.937822
0.937559
0.937226
0.936793
0.936258
0.935653
0.935046
0.934481
0.933932
0.933332
0.932613
0.931718
0.930621
0.929377
0.927959
0.926242
0.924205
0.921741
0.918399
0.913334
0.905613
0.89536
0.885979
0.881712
0.881049
0.881041
0.881078
0.881263
0.882156
0.88545
0.894147
0.912543
0.936527
0.962572
0.98868
0.999256
1.0071
1.00688
1.00618
1.00706
1.00747
1.00605
1.00193
0.994637
0.985969
0.975525
0.971012
0.969644
0.968462
0.967211
0.966834
0.96834
0.939623
0.939648
0.939651
0.939647
0.939639
0.939612
0.939556
0.939601
0.939722
0.939777
0.939804
0.939819
0.939819
0.939777
0.9398
0.939893
0.939948
0.939959
0.939949
0.939966
0.939997
0.940059
0.940109
0.94011
0.940054
0.940114
0.940195
0.940227
0.940235
0.940249
0.940259
0.940251
0.940238
0.940226
0.940217
0.940193
0.940131
0.940032
0.939911
0.939766
0.939607
0.939443
0.939268
0.939102
0.939005
0.938992
0.939002
0.938954
0.938803
0.9386
0.938304
0.937848
0.937255
0.936635
0.936049
0.935456
0.934802
0.934065
0.933242
0.932382
0.931504
0.930339
0.928598
0.926504
0.924246
0.921459
0.917429
0.911173
0.901925
0.891087
0.883416
0.881108
0.880908
0.880908
0.880921
0.880949
0.881014
0.881338
0.88272
0.888085
0.899334
0.921886
0.949021
0.970288
0.991187
0.996572
1.00317
1.00828
1.00779
1.00594
1.00283
0.996742
0.988655
0.978505
0.971391
0.969804
0.96872
0.967645
0.967391
0.968767
0.941345
0.941368
0.941371
0.941374
0.941375
0.941349
0.941324
0.941412
0.941575
0.94164
0.941661
0.941638
0.941651
0.941744
0.941815
0.941833
0.941805
0.941855
0.941989
0.942062
0.942104
0.942116
0.942075
0.942124
0.942242
0.942309
0.942356
0.942403
0.942438
0.942458
0.942468
0.942463
0.942429
0.942385
0.942331
0.942249
0.942134
0.94199
0.941812
0.941601
0.941357
0.941095
0.940851
0.940634
0.940425
0.940204
0.939952
0.939651
0.93929
0.938864
0.938386
0.937908
0.93751
0.937189
0.936824
0.936283
0.935562
0.934755
0.933907
0.932973
0.931855
0.930486
0.928847
0.926838
0.924342
0.920982
0.915904
0.907989
0.897184
0.886891
0.881832
0.880938
0.880911
0.880924
0.880946
0.880942
0.88093
0.880931
0.880993
0.881612
0.884046
0.892069
0.907493
0.933386
0.961116
0.983938
0.999465
1.00696
1.00603
1.0037
1.00219
0.998554
0.991086
0.980901
0.97229
0.970081
0.969176
0.968249
0.968084
0.96931
0.941816
0.941828
0.941828
0.941808
0.941798
0.94185
0.94196
0.942103
0.942256
0.942324
0.942347
0.942326
0.94233
0.942438
0.942566
0.942615
0.942676
0.942805
0.942936
0.942984
0.942966
0.942973
0.943101
0.943297
0.943387
0.943445
0.943519
0.943597
0.943669
0.943732
0.943781
0.943818
0.943842
0.943851
0.943826
0.943773
0.943722
0.943674
0.943619
0.943539
0.943411
0.943234
0.943027
0.942799
0.942531
0.942216
0.94187
0.94149
0.941045
0.940512
0.939939
0.939412
0.938957
0.938538
0.938109
0.937622
0.937025
0.936262
0.935294
0.934107
0.93274
0.931253
0.929596
0.927596
0.924763
0.920336
0.913371
0.903236
0.891631
0.883632
0.881363
0.881209
0.881221
0.88126
0.88129
0.88129
0.881279
0.881269
0.881285
0.881245
0.881371
0.882527
0.886743
0.89873
0.918195
0.947175
0.971922
0.991452
0.997032
1.00227
1.00277
1.00013
0.993703
0.984152
0.97476
0.970949
0.969729
0.968812
0.968673
0.969776
0.943204
0.943207
0.943208
0.943196
0.943167
0.943237
0.943446
0.943534
0.943551
0.943526
0.943538
0.943582
0.943595
0.943639
0.943754
0.943833
0.943868
0.943854
0.9438
0.943856
0.943948
0.944018
0.944078
0.944118
0.944134
0.94415
0.944176
0.944194
0.944208
0.94423
0.944246
0.944253
0.944256
0.944249
0.944238
0.944241
0.944254
0.94427
0.944301
0.944332
0.944345
0.944334
0.94428
0.944201
0.944107
0.943976
0.94378
0.943518
0.943201
0.94282
0.94239
0.941948
0.941469
0.940883
0.940189
0.939444
0.938649
0.937748
0.9367
0.9355
0.934161
0.932755
0.931071
0.928344
0.924197
0.917853
0.908401
0.896456
0.886203
0.881909
0.881329
0.881324
0.881367
0.88144
0.881476
0.881484
0.881488
0.881493
0.881501
0.881522
0.881605
0.881636
0.88197
0.884156
0.890895
0.907696
0.933008
0.961981
0.985607
1.00155
1.0008
0.998872
0.993884
0.986881
0.978593
0.972949
0.970309
0.969106
0.968997
0.970083
0.946875
0.946883
0.946888
0.946868
0.946856
0.946969
0.947096
0.947131
0.947144
0.947123
0.947147
0.947218
0.947255
0.947234
0.947252
0.94734
0.947397
0.947412
0.947387
0.947307
0.947353
0.947445
0.947488
0.947489
0.947482
0.947478
0.947464
0.94742
0.947372
0.947335
0.947289
0.947218
0.947117
0.946998
0.946873
0.946732
0.946574
0.946395
0.946206
0.946016
0.945807
0.945565
0.94529
0.944989
0.944707
0.944483
0.944299
0.94412
0.943977
0.943902
0.943847
0.943688
0.943285
0.94262
0.941799
0.940912
0.94
0.939065
0.938079
0.937013
0.93574
0.933697
0.930526
0.926317
0.920254
0.911465
0.90001
0.888699
0.882401
0.881061
0.88101
0.881059
0.881171
0.881255
0.881289
0.881306
0.881327
0.881351
0.881378
0.881409
0.881452
0.881511
0.881624
0.881868
0.882888
0.886884
0.897968
0.919729
0.948957
0.979605
0.986956
0.993088
0.992339
0.988422
0.981435
0.97502
0.970798
0.96931
0.96921
0.970186
0.950366
0.950375
0.950369
0.950341
0.95041
0.950611
0.950703
0.950734
0.950764
0.950786
0.950798
0.950859
0.950917
0.950919
0.950899
0.950985
0.951102
0.951162
0.951183
0.95115
0.951118
0.951205
0.951285
0.951332
0.95138
0.951418
0.951433
0.951437
0.951431
0.9514
0.95135
0.951279
0.951167
0.95102
0.950858
0.950683
0.950499
0.950307
0.950104
0.94989
0.949657
0.949389
0.949064
0.948681
0.948268
0.947867
0.947491
0.947079
0.946578
0.946008
0.945426
0.944864
0.944348
0.943892
0.943385
0.942633
0.941571
0.940315
0.938919
0.937198
0.935009
0.932287
0.928293
0.922146
0.913317
0.902013
0.890376
0.882774
0.880624
0.880485
0.880511
0.880613
0.880731
0.880773
0.880773
0.880769
0.88077
0.880774
0.88078
0.880791
0.880804
0.880828
0.880867
0.880942
0.8811
0.881547
0.883685
0.890578
0.908603
0.935099
0.964166
0.984942
0.989572
0.986795
0.980964
0.973904
0.969464
0.96889
0.968906
0.97018
0.951109
0.951202
0.951325
0.951486
0.951619
0.951658
0.95169
0.951747
0.951835
0.951885
0.951904
0.951943
0.952007
0.952057
0.952119
0.952227
0.952382
0.952486
0.952571
0.952639
0.952669
0.952658
0.952726
0.952921
0.953073
0.953167
0.953258
0.953351
0.953435
0.953498
0.953549
0.95359
0.953604
0.953569
0.953495
0.953445
0.953423
0.953411
0.953399
0.953378
0.953326
0.953214
0.953025
0.952763
0.952433
0.952052
0.951643
0.951194
0.950669
0.950059
0.949331
0.948456
0.947523
0.946733
0.946114
0.94546
0.944599
0.9434
0.94162
0.939128
0.935653
0.930774
0.924
0.914843
0.90363
0.892319
0.884229
0.88111
0.880576
0.880527
0.880545
0.880649
0.880778
0.880825
0.880826
0.880822
0.880825
0.880829
0.880832
0.880837
0.880842
0.880852
0.88087
0.880911
0.880984
0.881219
0.881735
0.882921
0.887198
0.899208
0.923792
0.949035
0.968193
0.975663
0.97474
0.971917
0.96942
0.968935
0.968912
0.97049
0.95615
0.956132
0.956193
0.956345
0.95641
0.956441
0.956472
0.956505
0.956543
0.956577
0.956608
0.956636
0.956656
0.956671
0.956685
0.95669
0.956643
0.956596
0.956659
0.956709
0.956729
0.956729
0.956716
0.956657
0.956567
0.956505
0.956481
0.956474
0.956429
0.956334
0.956229
0.956128
0.956001
0.955809
0.955535
0.955238
0.955014
0.954852
0.954673
0.954478
0.954301
0.954094
0.953838
0.95364
0.953544
0.95349
0.953427
0.953359
0.953291
0.953148
0.952801
0.952137
0.951125
0.949821
0.948594
0.947876
0.947141
0.94533
0.942259
0.937898
0.931828
0.923747
0.914119
0.903901
0.894469
0.887372
0.883649
0.88248
0.882358
0.882384
0.882493
0.882652
0.882718
0.882723
0.8827
0.882678
0.882652
0.882618
0.882594
0.882541
0.882511
0.882466
0.882412
0.882375
0.882319
0.882362
0.882563
0.883205
0.884437
0.887125
0.895229
0.91256
0.936486
0.95851
0.96942
0.971366
0.969706
0.968701
0.968472
0.970323
0.966974
0.966983
0.966986
0.966977
0.966908
0.966934
0.967019
0.967037
0.96704
0.967083
0.96709
0.967054
0.967126
0.967146
0.96709
0.967092
0.967063
0.966971
0.966884
0.966844
0.966905
0.966937
0.966917
0.966799
0.966635
0.966488
0.966383
0.96629
0.966153
0.965992
0.965833
0.96565
0.965415
0.965098
0.964672
0.964167
0.96368
0.963249
0.962811
0.962309
0.961743
0.961127
0.960449
0.959729
0.958997
0.958261
0.957508
0.956723
0.955919
0.955116
0.954369
0.953759
0.953204
0.952523
0.951452
0.949313
0.945834
0.94137
0.935711
0.928535
0.919944
0.910599
0.901754
0.894555
0.88944
0.886313
0.884904
0.884693
0.884744
0.884913
0.885203
0.885458
0.88557
0.885639
0.885706
0.885783
0.885864
0.88594
0.886034
0.886123
0.886235
0.886358
0.886473
0.886617
0.886744
0.886916
0.887115
0.887345
0.887936
0.88945
0.891979
0.897348
0.908719
0.926445
0.943883
0.955431
0.961216
0.963987
0.965294
0.969366
0.97258
0.972598
0.972613
0.972619
0.972629
0.972677
0.972717
0.972698
0.972771
0.972855
0.972838
0.972876
0.973016
0.973079
0.973078
0.973123
0.973167
0.973183
0.973126
0.973078
0.973198
0.973291
0.973316
0.97331
0.973251
0.973158
0.973104
0.973065
0.972973
0.972865
0.972765
0.972619
0.972433
0.97224
0.971984
0.97164
0.971287
0.970954
0.97057
0.970101
0.969559
0.968949
0.968255
0.967477
0.966625
0.965694
0.964673
0.963568
0.962441
0.961381
0.960406
0.959438
0.958319
0.956388
0.952808
0.947824
0.941549
0.934227
0.926168
0.917682
0.909336
0.901913
0.895609
0.890319
0.886465
0.884365
0.88358
0.883533
0.883706
0.884125
0.884492
0.884689
0.884806
0.884921
0.885074
0.885252
0.885464
0.885688
0.885931
0.886193
0.886451
0.88674
0.887036
0.887362
0.887686
0.888041
0.88846
0.888901
0.889539
0.890591
0.892302
0.895049