/*--------------------------------*- C++ -*----------------------------------*\
  =========                 |
  \\      /  F ield         | OpenFOAM: The Open Source CFD Toolbox
   \\    /   O peration     | Website:  https://openfoam.org
    \\  /    A nd           | Version:  7
     \\/     M anipulation  |
\*---------------------------------------------------------------------------*/
FoamFile
{
    version     2.0;
    format      ascii;
    class       volScalarField;
    location    "9.8";
    object      rho;
}
// * * * * * * * * * * * * * * * * * * * * * * * * * * * * * * * * * * * * * //

dimensions      [1 -3 0 0 0 0 0];

internalField   nonuniform List<scalar> 
1750
(
0.249403
0.459426
0.544039
0.558946
0.606935
0.6702
0.727306
0.786514
0.860307
0.914337
0.0686788
0.138026
0.336961
0.502299
0.621522
0.668909
0.693365
0.748318
0.783052
0.820013
0.0777229
0.0820534
0.120468
0.268393
0.448757
0.597272
0.699691
0.779787
0.766251
0.785446
0.108542
0.122031
0.155777
0.181176
0.214061
0.313317
0.503312
0.660552
0.743632
0.832281
0.207094
0.218108
0.232425
0.258519
0.275537
0.283219
0.289416
0.358281
0.528798
0.760826
0.330814
0.336565
0.340914
0.347684
0.366309
0.38678
0.402293
0.430094
0.426527
0.509553
0.510512
0.517251
0.518311
0.518131
0.521996
0.529334
0.538758
0.536492
0.531719
0.537993
0.786219
0.767737
0.748614
0.735326
0.719584
0.700996
0.683433
0.667103
0.660308
0.646482
1.14194
1.10704
1.06538
1.02304
0.987937
0.951178
0.916327
0.884633
0.857755
0.821023
1.42132
1.39601
1.36553
1.3262
1.28378
1.2383
1.18924
1.13948
1.09512
1.02438
1.48103
1.47875
1.47443
1.46723
1.45504
1.4374
1.41214
1.37807
1.34115
1.26735
1.46223
1.46569
1.46876
1.46845
1.46773
1.46649
1.46413
1.45943
1.45259
1.42703
1.41753
1.4227
1.42875
1.43551
1.44165
1.44713
1.45122
1.45428
1.45393
1.45167
1.4011
1.40182
1.40299
1.40487
1.40766
1.41143
1.4162
1.42213
1.42798
1.43566
1.40002
1.40004
1.40008
1.40016
1.40032
1.40064
1.40127
1.40243
1.40421
1.40967
0.079285
0.0633261
0.0714651
0.104707
0.186873
0.316354
0.503608
0.804479
1.18473
1.44274
1.48229
1.45779
1.41351
1.40074
1.40002
0.0746724
0.0599666
0.0772371
0.134943
0.218609
0.361204
0.604443
0.952747
1.31173
1.47996
1.48459
1.44845
1.40796
1.4003
1.40001
0.0680285
0.0576949
0.0823416
0.14874
0.235448
0.399918
0.699466
1.06255
1.3816
1.49157
1.48536
1.43816
1.40454
1.40014
1.40001
0.0643096
0.0551304
0.0861155
0.153826
0.2718
0.504511
0.814309
1.17082
1.43948
1.49721
1.47979
1.42646
1.40223
1.40006
1.40001
0.0627804
0.0547539
0.0911315
0.163479
0.330516
0.602073
0.923294
1.28103
1.4813
1.49924
1.46829
1.41722
1.40111
1.40003
1.40001
0.0573344
0.0605799
0.101007
0.206857
0.41844
0.698764
1.06376
1.38674
1.50218
1.4996
1.45609
1.41062
1.4005
1.40001
1.40001
0.0406516
0.0611123
0.12052
0.268155
0.514582
0.833862
1.21564
1.45832
1.51039
1.49531
1.44206
1.40533
1.40019
1.40001
1.40001
0.0302897
0.0542088
0.148203
0.34476
0.63286
1.01766
1.34364
1.49921
1.51354
1.48576
1.42609
1.40226
1.40007
1.40001
1.40001
0.023521
0.0627627
0.201462
0.460897
0.804778
1.18545
1.44262
1.51909
1.51448
1.46631
1.4141
1.40092
1.40003
1.40001
1.40001
0.0199665
0.107876
0.292567
0.611062
1.02071
1.34306
1.50298
1.52434
1.50467
1.44469
1.40681
1.40032
1.40001
1.40001
1.40001
0.0176079
0.152837
0.445183
0.845947
1.22767
1.46082
1.5264
1.52491
1.48516
1.42646
1.40256
1.40009
1.40001
1.40001
1.40001
0.0377872
0.25273
0.684934
1.11277
1.39841
1.51796
1.53156
1.51533
1.4607
1.41281
1.40089
1.40003
1.40001
1.40001
1.40001
0.181096
0.531208
0.988858
1.32872
1.49997
1.5366
1.53231
1.49666
1.43667
1.40487
1.40024
1.40001
1.40001
1.40001
1.40001
0.426697
0.864382
1.27942
1.4815
1.53874
1.5395
1.52289
1.46976
1.41646
1.4014
1.40005
1.40001
1.40001
1.40001
1.40001
0.901868
1.2644
1.47541
1.53824
1.54427
1.53844
1.5022
1.43836
1.40552
1.4003
1.40001
1.40001
1.40001
1.40001
1.40001
1.52405
1.53193
1.54358
1.54616
1.54377
1.51961
1.46438
1.41404
1.40081
1.40001
1.40001
1.40001
1.40001
1.40001
1.40001
1.52219
1.52898
1.54114
1.54309
1.53951
1.51502
1.45703
1.41352
1.40116
1.40005
1.40001
1.40001
1.40001
1.40001
1.40001
1.52221
1.52966
1.54327
1.542
1.53438
1.49806
1.43725
1.40503
1.40021
1.40001
1.40001
1.40001
1.40001
1.40001
1.40001
1.52269
1.52938
1.54397
1.54069
1.5258
1.48129
1.42422
1.40233
1.40008
1.40001
1.40001
1.40001
1.40001
1.40001
1.40001
1.52357
1.52851
1.54283
1.53823
1.5172
1.46088
1.41326
1.40093
1.40003
1.40001
1.40001
1.40001
1.40001
1.40001
1.40001
1.52487
1.52798
1.53782
1.5332
1.50217
1.44313
1.40671
1.40033
1.40001
1.40001
1.40001
1.40001
1.40001
1.40001
1.40001
1.52538
1.52917
1.53481
1.52843
1.48496
1.42667
1.40269
1.4001
1.40001
1.40001
1.40001
1.40001
1.40001
1.40001
1.40001
1.52499
1.53077
1.53132
1.51876
1.46221
1.41337
1.40096
1.40003
1.40001
1.40001
1.40001
1.40001
1.40001
1.40001
1.40001
1.52153
1.53084
1.52493
1.50051
1.44269
1.40637
1.4003
1.40001
1.40001
1.40001
1.40001
1.40001
1.40001
1.40001
1.40001
1.52038
1.5284
1.51933
1.47991
1.42406
1.40225
1.40008
1.40001
1.40001
1.40001
1.40001
1.40001
1.40001
1.40001
1.40001
1.51964
1.52108
1.50643
1.45402
1.41021
1.40062
1.40002
1.40001
1.40001
1.40001
1.40001
1.40001
1.40001
1.40001
1.40001
1.5167
1.50977
1.48871
1.43253
1.40403
1.40016
1.40001
1.40001
1.40001
1.40001
1.40001
1.40001
1.40001
1.40001
1.40001
1.51626
1.50219
1.4625
1.41419
1.40102
1.40003
1.40001
1.40001
1.40001
1.40001
1.40001
1.40001
1.40001
1.40001
1.40001
1.51148
1.48447
1.43244
1.40402
1.40017
1.40001
1.40001
1.40001
1.40001
1.40001
1.40001
1.40001
1.40001
1.40001
1.40001
1.48904
1.45615
1.41349
1.40094
1.40003
1.40001
1.40001
1.40001
1.40001
1.40001
1.40001
1.40001
1.40001
1.40001
1.40001
1.46595
1.42297
1.4027
1.40013
1.40001
1.40001
1.40001
1.40001
1.40001
1.40001
1.40001
1.40001
1.40001
1.40001
1.40001
1.40001
1.40001
1.40001
1.40001
1.40001
1.40001
1.40001
1.40001
1.40001
1.40001
1.40001
1.40001
1.40001
1.40001
1.40001
1.40001
1.40001
1.40001
1.40001
1.40001
1.40001
1.40001
1.40001
1.40001
1.40001
1.40001
1.40001
1.40001
1.40001
1.40001
1.40001
1.40001
1.40001
1.40001
1.40001
1.40001
1.40001
1.40001
1.40001
1.40001
1.40001
1.40001
1.40001
1.40001
1.40001
1.40001
1.40001
1.40001
1.40001
1.40001
1.40001
1.40001
1.40001
1.40001
1.40001
1.40001
1.40001
1.40001
1.40001
1.40001
1.40001
1.40001
1.40001
1.40001
1.40001
1.40001
1.40001
1.40001
1.40001
1.40001
1.40001
1.40001
1.40001
1.40001
1.40001
1.40001
1.40001
1.40001
1.40001
1.40001
1.40001
1.40001
1.40001
1.40001
1.40001
1.40001
1.40001
1.40001
1.40001
1.40001
1.40001
1.40001
1.40001
1.40001
1.40001
1.40001
1.40001
1.40001
1.40001
1.40001
1.40001
1.40001
1.40001
1.40001
1.40001
1.40001
1.40001
1.40001
1.40001
1.40001
1.40001
1.40001
1.40001
1.40001
1.40001
1.40001
1.40001
1.40001
1.40001
1.40001
1.40001
1.40001
1.40001
1.40001
1.40001
1.40001
1.40001
1.40001
1.40001
1.40001
1.40001
1.40001
1.40001
1.40001
1.40001
1.64746
1.40001
1.40001
1.40001
1.40001
1.40001
1.40001
1.40001
1.40001
1.40001
1.46307
1.40001
1.40001
1.40001
1.40001
1.40001
1.40001
1.40001
1.40001
1.40001
1.41848
1.40001
1.40001
1.40001
1.40001
1.40001
1.40001
1.40001
1.40001
1.40001
1.4041
1.40001
1.40001
1.40001
1.40001
1.40001
1.40001
1.40001
1.40001
1.40001
1.40074
1.40001
1.40001
1.40001
1.40001
1.40001
1.40001
1.40001
1.40001
1.40001
1.40011
1.40001
1.40001
1.40001
1.40001
1.40001
1.40001
1.40001
1.40001
1.40001
1.40002
1.40001
1.40001
1.40001
1.40001
1.40001
1.40001
1.40001
1.40001
1.40001
1.40001
1.40001
1.40001
1.40001
1.40001
1.40001
1.40001
1.40001
1.40001
1.40001
1.40001
1.40001
1.40001
1.40001
1.40001
1.40001
1.40001
1.40001
1.40001
1.40001
1.40001
1.40001
1.40001
1.40001
1.40001
1.40001
1.40001
1.40001
1.40001
1.40001
1.40001
1.40001
1.40001
1.40001
1.40001
1.40001
1.40001
1.40001
1.40001
1.40001
1.40001
1.40001
1.40001
1.40001
1.40001
1.40001
1.40001
1.40001
1.40001
1.40001
1.40001
1.40001
1.40001
1.40001
1.40001
1.40001
1.40001
1.40001
1.40001
1.40001
1.40001
1.40001
1.40001
1.40001
1.40001
1.40001
1.40001
1.40001
1.40001
1.40001
1.40001
1.40001
1.40001
1.40001
1.40001
1.40001
1.40001
1.40001
1.40001
1.40001
1.40001
1.40001
1.40001
1.40001
1.40001
1.40001
1.40001
1.40001
1.40001
1.40001
1.40001
1.40001
1.40001
1.40001
1.40001
1.40001
1.40001
1.40001
1.40001
1.40001
1.40001
1.40001
1.40001
1.40001
1.40001
1.40001
1.40001
1.40001
1.40001
1.40001
1.40001
1.40001
1.40001
1.40001
1.40001
1.40001
1.40001
1.40001
1.40001
1.40001
1.40001
1.40001
1.40001
1.40001
1.40001
1.40001
1.40001
1.40001
1.40001
1.40001
4.6528
3.72165
2.07606
1.40216
1.40037
1.40007
1.40001
1.40001
1.40001
1.40001
1.40001
1.40001
1.40001
1.40001
1.40001
1.40001
1.40001
1.40001
1.40001
1.40001
4.84703
4.74113
4.7539
3.46408
1.59021
1.40004
1.40001
1.40001
1.40001
1.40001
1.40001
1.40001
1.40001
1.40001
1.40001
1.40001
1.40001
1.40001
1.40001
1.40001
4.76573
4.73351
4.9139
4.94402
4.10505
1.93786
1.39995
1.40001
1.40001
1.40001
1.40001
1.40001
1.40001
1.40001
1.40001
1.40001
1.40001
1.40001
1.40001
1.40001
4.71351
4.71272
4.84541
4.91305
4.95668
4.42423
2.21963
1.39907
1.40001
1.40001
1.40001
1.40001
1.40001
1.40001
1.40001
1.40001
1.40001
1.40001
1.40001
1.40001
4.68979
4.69317
4.80139
4.88184
4.93983
4.97172
4.57402
2.36926
1.39831
1.40001
1.40001
1.40001
1.40001
1.40001
1.40001
1.40001
1.40001
1.40001
1.40001
1.40001
4.67265
4.67838
4.77288
4.85214
4.92405
4.95013
4.95708
4.56134
2.33626
1.39822
1.40001
1.40001
1.40001
1.40001
1.40001
1.40001
1.40001
1.40001
1.40001
1.40001
4.65976
4.66562
4.74678
4.82312
4.89519
4.9313
4.93941
4.94226
4.54495
2.28179
1.39794
1.40001
1.40001
1.40001
1.40001
1.40001
1.40001
1.40001
1.40001
1.40001
4.64984
4.65418
4.72392
4.79412
4.86447
4.89915
4.91451
4.92618
4.87839
4.27318
2.01792
1.39808
1.40001
1.40001
1.40001
1.40001
1.40001
1.40001
1.40001
1.40001
4.64055
4.64167
4.70158
4.76456
4.83725
4.86914
4.88609
4.87968
4.84807
4.84515
3.92779
1.74994
1.39862
1.40001
1.40001
1.40001
1.40001
1.40001
1.40001
1.40001
4.6299
4.62811
4.67952
4.73662
4.80763
4.83818
4.85338
4.84227
4.82401
4.83369
4.66799
3.21112
1.51563
1.39948
1.40001
1.40001
1.40001
1.40001
1.40001
1.40001
4.61708
4.61426
4.65827
4.71028
4.77923
4.81164
4.82899
4.81707
4.7911
4.77832
4.74761
4.58794
2.54142
1.41993
1.39991
1.4
1.40001
1.40001
1.40001
1.40001
4.59923
4.5944
4.6331
4.68253
4.7495
4.78308
4.80181
4.79114
4.77874
4.77388
4.76426
4.82016
4.32351
2.0235
1.40147
1.4
1.40001
1.40001
1.40001
1.40001
4.57022
4.5646
4.59979
4.64539
4.70571
4.73656
4.75311
4.74726
4.73758
4.73298
4.73922
4.76248
4.69564
3.52471
1.61471
1.3995
1.39997
1.4
1.40001
1.40001
4.51425
4.49918
4.52065
4.54869
4.59042
4.61083
4.62135
4.6206
4.61728
4.62081
4.62518
4.6311
4.62399
4.49694
2.60341
1.4377
1.40012
1.40001
1.40001
1.40001
4.33089
4.23707
4.24213
4.25228
4.28545
4.31292
4.34161
4.3648
4.39292
4.41844
4.43641
4.44656
4.45277
4.45056
3.83219
1.77522
1.39127
1.39934
1.4
1.40001
1.9677
2.63737
2.96054
3.21795
3.4281
3.61998
3.7607
3.88579
3.9908
4.07213
4.14069
4.18739
4.2278
4.29672
4.30447
3.22585
1.65179
1.40392
1.40002
1.40001
0.766957
1.55579
2.04516
2.44238
2.73223
2.96662
3.19042
3.37534
3.53355
3.68356
3.7881
3.88884
3.96579
4.08269
4.22296
4.06542
2.64704
1.51792
1.40166
1.40001
0.778018
1.21785
1.46455
1.78536
2.15942
2.44666
2.71267
2.92876
3.13457
3.31027
3.46057
3.60425
3.72013
3.8666
4.03131
4.03205
3.6706
2.092
1.43228
1.40026
0.887774
1.07954
1.20513
1.46571
1.72986
2.01943
2.29595
2.55359
2.78621
2.97021
3.16491
3.32228
3.48417
3.63098
3.78696
3.90968
3.86575
3.00467
1.65553
1.40566
0.940929
0.966431
1.02857
1.25565
1.47236
1.72715
1.97135
2.22567
2.45829
2.67607
2.87419
3.04647
3.24979
3.4045
3.55421
3.69329
3.80953
3.64322
2.26738
1.4574
0.974372
0.969037
1.00984
1.10888
1.2544
1.47917
1.71835
1.95595
2.1815
2.41637
2.6136
2.82551
3.00876
3.20719
3.34639
3.49077
3.67565
3.678
2.98971
1.70656
1.02063
1.00309
1.04052
1.09421
1.15582
1.3131
1.51436
1.73619
1.9691
2.1948
2.40585
2.63275
2.8082
3.00545
3.15751
3.27351
3.46695
3.63865
3.43957
2.27756
1.04497
1.04244
1.07025
1.07047
1.09514
1.22549
1.38105
1.56426
1.78116
1.99646
2.21591
2.42508
2.63976
2.79327
2.97373
3.11196
3.29083
3.52811
3.46024
3.09958
1.04886
1.05067
1.06867
1.06101
1.06582
1.13388
1.25333
1.42403
1.60977
1.80542
2.02664
2.22529
2.46595
2.63768
2.80743
2.97089
3.13917
3.35215
3.51759
4.06581
1.05064
1.05377
1.06626
1.0657
1.07982
1.12284
1.17352
1.30825
1.48284
1.6714
1.87095
2.08371
2.29562
2.49991
2.65506
2.81703
2.96335
3.18199
3.66464
5.02402
1.04577
1.05054
1.06826
1.08634
1.09998
1.11481
1.14034
1.25019
1.38956
1.5689
1.75323
1.95864
2.13964
2.34846
2.50208
2.67372
2.81734
3.03264
3.82428
6.20291
1.03506
1.04337
1.07529
1.10329
1.10776
1.09851
1.10303
1.18725
1.30041
1.46326
1.64084
1.83405
2.00587
2.19258
2.3614
2.5426
2.70941
2.94851
4.14856
7.04899
1.02879
1.04214
1.08132
1.11024
1.11058
1.09893
1.09852
1.13914
1.21841
1.35194
1.5226
1.70144
1.89682
2.07416
2.2564
2.4016
2.59128
2.96589
4.54476
7.28029
1.03005
1.04547
1.08159
1.1129
1.11429
1.10525
1.1076
1.13998
1.1901
1.29831
1.44797
1.61239
1.79841
1.96614
2.15376
2.29792
2.4668
3.07547
4.84285
7.17405
1.03828
1.05273
1.07868
1.10922
1.11725
1.1156
1.11923
1.13197
1.16276
1.2566
1.38135
1.53471
1.70011
1.86472
2.01059
2.19178
2.40571
3.34033
4.98272
6.801
0.904597
1.03326
1.07388
1.10534
1.12122
1.12596
1.12521
1.1177
1.1293
1.20808
1.30635
1.45771
1.60032
1.77799
1.90598
2.07572
2.45075
3.69297
4.96442
6.3532
0.777078
0.957624
1.05143
1.09838
1.12648
1.13132
1.12568
1.11719
1.12487
1.18692
1.261
1.38468
1.51555
1.68018
1.83821
2.01169
2.60571
4.01677
4.89537
5.87967
0.678311
0.858662
0.993709
1.07553
1.122
1.13677
1.13047
1.12148
1.12682
1.17064
1.22836
1.33328
1.45835
1.58149
1.75093
2.00689
2.90254
4.2396
4.76762
5.40502
0.625945
0.765392
0.911756
1.0276
1.10071
1.13159
1.13389
1.13239
1.1344
1.15559
1.19353
1.27512
1.38538
1.50101
1.65628
2.11318
3.2609
4.30179
4.62051
4.93312
0.632811
0.70855
0.825994
0.956528
1.05713
1.11728
1.14135
1.14597
1.14569
1.14668
1.16132
1.22863
1.30223
1.42012
1.67221
2.38164
3.45073
4.22862
4.41383
4.50305
0.663425
0.681561
0.761246
0.881498
0.992052
1.08622
1.13765
1.14976
1.14694
1.13924
1.14116
1.18044
1.23722
1.37734
1.80829
2.7375
3.53251
4.08768
4.14245
4.11172
0.713241
0.693395
0.728453
0.812388
0.922016
1.03154
1.113
1.14233
1.1422
1.13362
1.1323
1.1487
1.20002
1.45401
2.13612
3.02356
3.473
3.82565
3.85796
3.80247
0.784216
0.748119
0.732847
0.765191
0.854405
0.959272
1.05738
1.11586
1.13092
1.13057
1.13105
1.1516
1.26541
1.76308
2.54247
3.05534
3.30168
3.52067
3.56577
3.52231
0.873004
0.831284
0.756867
0.761952
0.78733
0.877211
0.976113
1.06496
1.11169
1.12492
1.13653
1.22572
1.61306
2.26028
2.67254
2.96453
3.09697
3.2441
3.31885
3.30685
0.970316
0.953771
0.880759
0.80049
0.786989
0.812977
0.872497
0.972355
1.0779
1.20334
1.41457
1.7474
2.12454
2.38062
2.52479
2.68837
2.74783
2.84092
2.93163
2.95736
)
;

boundaryField
{
    inlet
    {
        type            calculated;
        value           uniform 1.40001;
    }
    outlet
    {
        type            calculated;
        value           nonuniform List<scalar> 
35
(
0.97043
0.953881
0.88088
0.800604
0.787062
0.813022
0.872547
0.97246
1.07816
1.20409
1.41598
1.74874
2.1253
2.38085
2.52477
2.68804
2.74777
2.8409
2.93169
2.95751
0.914384
0.820077
0.785488
0.832316
0.761055
0.509701
0.538027
0.646459
0.821006
1.02437
1.26734
1.42703
1.45168
1.43567
1.40968
)
;
    }
    airfoil
    {
        type            calculated;
        value           nonuniform List<scalar> 
60
(
0.079285
0.0746724
0.0680285
0.0643096
0.0627804
0.0573344
0.0406516
0.0302897
0.023521
0.0199665
0.0176079
0.0377872
0.181096
0.426697
0.901868
1.52405
1.52219
1.52221
1.52269
1.52357
1.52487
1.52538
1.52499
1.52153
1.52038
1.51964
1.5167
1.51626
1.51148
1.48904
4.6528
4.84703
4.76573
4.71351
4.68979
4.67265
4.65976
4.64984
4.64055
4.6299
4.61708
4.59923
4.57022
4.51425
4.33089
1.9677
0.766957
0.778018
0.887774
0.940929
0.974372
1.02063
1.04497
1.04886
1.05064
1.04577
1.03506
1.02879
1.03005
1.03828
)
;
    }
    top
    {
        type            symmetryPlane;
    }
    bottom
    {
        type            symmetryPlane;
    }
    defaultFaces
    {
        type            empty;
    }
}


// ************************************************************************* //
