/*--------------------------------*- C++ -*----------------------------------*\
  =========                 |
  \\      /  F ield         | OpenFOAM: The Open Source CFD Toolbox
   \\    /   O peration     | Website:  https://openfoam.org
    \\  /    A nd           | Version:  7
     \\/     M anipulation  |
\*---------------------------------------------------------------------------*/
FoamFile
{
    version     2.0;
    format      ascii;
    class       volScalarField;
    location    "4";
    object      rho;
}
// * * * * * * * * * * * * * * * * * * * * * * * * * * * * * * * * * * * * * //

dimensions      [1 -3 0 0 0 0 0];

internalField   nonuniform List<scalar> 
90000
(
0.807343
0.82096
0.836386
0.852343
0.868561
0.884872
0.901296
0.917744
0.934283
0.950787
0.9674
0.983901
1.00057
1.01703
1.0337
1.05009
1.0667
1.08284
1.09933
1.11514
1.13135
1.1467
1.16256
1.17719
1.19249
1.2063
1.22089
1.2335
1.24706
1.25816
1.27036
1.27968
1.29009
1.29751
1.30453
1.31064
1.31476
1.31609
1.31883
1.31921
1.31858
1.31618
1.30832
1.30203
1.29627
1.29287
1.2933
1.29549
1.29913
1.30348
1.30797
1.31588
1.32249
1.32607
1.32769
1.3272
1.32635
1.32474
1.323
1.32102
1.31968
1.3176
1.31645
1.31715
1.32
1.32367
1.32904
1.33483
1.33778
1.33684
1.33316
1.32926
1.32441
1.32367
1.32484
1.3279
1.33195
1.33204
1.33063
1.3282
1.3258
1.32603
1.32802
1.33099
1.33224
1.33215
1.33144
1.33159
1.3335
1.33555
1.33555
1.33518
1.33426
1.33469
1.33567
1.33587
1.33574
1.33575
1.33571
1.33557
0.797526
0.79794
0.798728
0.799955
0.801757
0.804173
0.807193
0.81092
0.815299
0.820485
0.826382
0.833177
0.840707
0.849267
0.858574
0.869048
0.88022
0.892615
0.905599
0.920003
0.93483
0.951066
0.967608
0.985543
1.00345
1.02271
1.04181
1.06188
1.08153
1.10177
1.12145
1.14117
1.16036
1.17862
1.19706
1.21226
1.22938
1.24148
1.25447
1.26405
1.2734
1.27934
1.28279
1.28911
1.30467
1.31417
1.32324
1.32753
1.33157
1.33279
1.33257
1.33251
1.33103
1.32799
1.32553
1.32351
1.32294
1.32266
1.32198
1.32072
1.32111
1.323
1.32666
1.33093
1.33475
1.3366
1.33621
1.33545
1.33415
1.33321
1.33233
1.32943
1.33053
1.33196
1.33388
1.33417
1.33348
1.3319
1.33015
1.32814
1.32928
1.33121
1.3332
1.33308
1.33257
1.33201
1.33279
1.33471
1.33669
1.33623
1.3356
1.33529
1.33596
1.33724
1.33684
1.33682
1.33693
1.33719
1.33698
1.33671
0.800349
0.800404
0.800466
0.800607
0.80062
0.80063
0.80066
0.800716
0.800764
0.800821
0.800916
0.801086
0.801346
0.801706
0.802163
0.802763
0.803508
0.804456
0.805792
0.80757
0.809803
0.812686
0.816192
0.820662
0.825926
0.832616
0.840432
0.850376
0.861576
0.8756
0.890963
0.909946
0.930259
0.954709
0.98027
1.01002
1.04047
1.07428
1.10837
1.14325
1.17916
1.21219
1.2497
1.27678
1.29701
1.30715
1.31715
1.32131
1.32633
1.32768
1.32876
1.32856
1.32871
1.32804
1.32648
1.32332
1.32362
1.32516
1.32973
1.33588
1.3432
1.34863
1.35168
1.35111
1.34845
1.3431
1.33734
1.33338
1.33208
1.33199
1.33454
1.34059
1.34742
1.34693
1.34468
1.33987
1.3359
1.33209
1.33334
1.33789
1.34163
1.34109
1.33911
1.33722
1.33646
1.33829
1.34095
1.34188
1.34137
1.34017
1.34039
1.34137
1.342
1.34164
1.3409
1.34108
1.34136
1.34127
1.34074
1.34041
0.803216
0.803251
0.803289
0.803315
0.803339
0.803374
0.803415
0.803467
0.803526
0.803574
0.803622
0.803688
0.80378
0.803901
0.80403
0.804183
0.80437
0.804664
0.804779
0.80487
0.804946
0.805007
0.805123
0.805387
0.805641
0.805806
0.805992
0.806324
0.806873
0.807658
0.808749
0.810455
0.812819
0.816335
0.820907
0.82765
0.836122
0.848516
0.863257
0.883988
0.907595
0.938796
0.973307
1.01518
1.05731
1.10122
1.14499
1.18184
1.22059
1.24567
1.27399
1.28697
1.30448
1.31113
1.32002
1.32195
1.33222
1.34131
1.35285
1.35913
1.36454
1.36625
1.36546
1.36362
1.35731
1.35012
1.34424
1.33867
1.3399
1.34569
1.35204
1.35931
1.35938
1.35791
1.35232
1.34684
1.34259
1.34441
1.34799
1.35159
1.35231
1.35042
1.34748
1.34457
1.34535
1.3475
1.3494
1.34899
1.3476
1.34679
1.34739
1.3488
1.34886
1.34836
1.34754
1.34722
1.34724
1.34709
1.34651
1.34616
0.806371
0.80638
0.806404
0.806437
0.806478
0.806518
0.806542
0.806559
0.806576
0.806604
0.80666
0.806735
0.806806
0.806835
0.806844
0.80685
0.806859
0.806886
0.806959
0.80705
0.807133
0.807231
0.807371
0.807528
0.807622
0.807653
0.80768
0.807738
0.807842
0.808007
0.808243
0.808327
0.80834
0.808349
0.808383
0.80847
0.808645
0.809018
0.809606
0.810737
0.81257
0.815903
0.820733
0.829308
0.840789
0.860256
0.883731
0.91926
0.957984
1.00884
1.0601
1.11522
1.16976
1.21636
1.26521
1.29895
1.3266
1.33731
1.34879
1.35513
1.36157
1.36204
1.36087
1.35401
1.34126
1.34225
1.34624
1.35234
1.35917
1.36467
1.36453
1.36387
1.36013
1.3549
1.35342
1.35441
1.35783
1.3602
1.3599
1.35757
1.35444
1.35348
1.35392
1.35434
1.35611
1.35646
1.35571
1.35408
1.35301
1.3535
1.35439
1.35501
1.35465
1.35442
1.35445
1.35421
1.35377
1.35309
1.35263
1.35236
0.806342
0.806342
0.806348
0.806368
0.806384
0.806393
0.806402
0.806416
0.806447
0.806481
0.806519
0.806571
0.806623
0.806662
0.80669
0.806725
0.806792
0.806914
0.807038
0.807131
0.807224
0.807339
0.807438
0.807516
0.807606
0.807742
0.807877
0.807986
0.808084
0.808187
0.808283
0.808405
0.808548
0.808677
0.808785
0.808929
0.809159
0.809409
0.80968
0.809919
0.810194
0.810283
0.810309
0.81037
0.810562
0.811142
0.812358
0.815036
0.819361
0.828243
0.840974
0.864675
0.893622
0.939484
0.988807
1.0522
1.11255
1.16695
1.21741
1.24802
1.28326
1.29618
1.31465
1.32088
1.33941
1.35232
1.36568
1.37427
1.37485
1.37403
1.36996
1.35794
1.34842
1.34868
1.35184
1.36056
1.37008
1.36951
1.36765
1.36257
1.35707
1.35555
1.35724
1.36068
1.36234
1.36029
1.35834
1.35658
1.35679
1.35802
1.35929
1.35906
1.35828
1.35768
1.35789
1.35777
1.35736
1.35662
1.35649
1.35665
0.806096
0.806096
0.806105
0.806113
0.806111
0.806109
0.806111
0.806125
0.806166
0.8062
0.806234
0.80629
0.806322
0.806341
0.80637
0.806436
0.806572
0.806744
0.806855
0.806928
0.807009
0.807097
0.807176
0.807243
0.807334
0.807482
0.807724
0.807985
0.808168
0.808274
0.808369
0.80849
0.80862
0.808757
0.808913
0.809143
0.809454
0.809586
0.809718
0.809748
0.809716
0.809669
0.809596
0.809477
0.809285
0.809112
0.809071
0.809078
0.809216
0.809588
0.810222
0.81132
0.813072
0.817061
0.823789
0.839168
0.861331
0.902158
0.949362
1.0151
1.08161
1.15079
1.21816
1.27197
1.32676
1.34463
1.35923
1.36644
1.36922
1.36233
1.34053
1.33794
1.34197
1.35257
1.36332
1.36903
1.37061
1.36877
1.36318
1.35552
1.35565
1.35872
1.36308
1.36497
1.36428
1.36145
1.35732
1.35731
1.35875
1.36018
1.35992
1.35925
1.35928
1.3601
1.36027
1.3599
1.35877
1.35813
1.35839
1.35912
0.806272
0.80629
0.806296
0.806298
0.806302
0.806314
0.806341
0.80639
0.806469
0.806564
0.806655
0.80675
0.806837
0.806917
0.807016
0.807167
0.807376
0.807511
0.807559
0.807609
0.807705
0.807806
0.807885
0.807951
0.808013
0.808074
0.808175
0.808311
0.808404
0.808466
0.808551
0.808664
0.808795
0.808965
0.809189
0.809408
0.809557
0.809667
0.809723
0.809729
0.809721
0.809694
0.809658
0.809578
0.809424
0.809257
0.809121
0.808974
0.808889
0.80885
0.808867
0.809046
0.809285
0.809294
0.809244
0.809365
0.809897
0.811888
0.816483
0.828252
0.847221
0.886277
0.934869
1.00707
1.07946
1.15233
1.21976
1.25537
1.29331
1.30564
1.3186
1.3426
1.36099
1.37114
1.37271
1.37168
1.36334
1.35168
1.35221
1.35396
1.36056
1.36756
1.3672
1.36597
1.36091
1.35758
1.35665
1.35835
1.36099
1.36088
1.35972
1.3583
1.35888
1.36015
1.36029
1.36001
1.35925
1.35861
1.35913
1.35998
0.807213
0.807211
0.807212
0.807216
0.807238
0.80727
0.807314
0.807378
0.807463
0.807545
0.807611
0.807675
0.807738
0.807816
0.807947
0.808113
0.808197
0.80821
0.80822
0.808252
0.808296
0.808317
0.808336
0.808366
0.808408
0.808456
0.808513
0.808565
0.808609
0.808656
0.808727
0.808841
0.809003
0.809207
0.809443
0.809599
0.809686
0.809742
0.809752
0.809732
0.809658
0.809533
0.809416
0.809304
0.809178
0.809106
0.809033
0.80891
0.808678
0.80833
0.808137
0.807998
0.807788
0.807584
0.80751
0.807541
0.807653
0.807691
0.807555
0.807468
0.807742
0.809321
0.813603
0.826319
0.848458
0.895807
0.956068
1.04212
1.1276
1.21272
1.29671
1.33455
1.35382
1.36367
1.36532
1.35545
1.331
1.33508
1.34488
1.3604
1.37141
1.37091
1.36721
1.36032
1.3551
1.35558
1.35855
1.36198
1.36174
1.3597
1.35713
1.35739
1.35908
1.35993
1.35983
1.35868
1.35849
1.35881
1.36008
1.36028
0.80799
0.807995
0.808005
0.808033
0.80807
0.808109
0.808173
0.808258
0.808289
0.808331
0.808396
0.808417
0.808473
0.808581
0.808652
0.808708
0.808724
0.808729
0.808741
0.808751
0.808739
0.808707
0.808701
0.808705
0.808696
0.808675
0.808662
0.808654
0.808656
0.80868
0.808768
0.808921
0.809095
0.809284
0.809464
0.809508
0.809526
0.809557
0.809565
0.809516
0.80938
0.809272
0.809168
0.809133
0.809102
0.808993
0.808792
0.808533
0.80816
0.807764
0.807408
0.80689
0.806465
0.806414
0.806427
0.80655
0.80686
0.806991
0.806954
0.806754
0.806344
0.806074
0.806086
0.806307
0.807118
0.809845
0.816939
0.835592
0.869959
0.933115
1.01652
1.11144
1.18984
1.25339
1.28876
1.30863
1.32255
1.35527
1.36725
1.37194
1.37148
1.36299
1.35328
1.35345
1.35468
1.35987
1.36418
1.36373
1.3596
1.35588
1.35607
1.3581
1.35963
1.35949
1.35785
1.35711
1.35794
1.35992
1.3604
1.36017
0.808785
0.808834
0.808897
0.808964
0.809013
0.809043
0.809067
0.809091
0.809133
0.809205
0.809244
0.809271
0.809319
0.809372
0.809378
0.809375
0.80937
0.809361
0.809336
0.809279
0.809206
0.809145
0.8091
0.809055
0.808999
0.808956
0.808934
0.808906
0.808897
0.808933
0.809074
0.80926
0.8094
0.8095
0.809561
0.809606
0.809656
0.8097
0.809683
0.809561
0.809357
0.80921
0.809138
0.809015
0.808762
0.808405
0.808112
0.807873
0.807652
0.807427
0.807036
0.806372
0.806098
0.806087
0.8061
0.806212
0.806495
0.806723
0.806751
0.806694
0.806523
0.806401
0.806322
0.806292
0.806348
0.806578
0.807057
0.807865
0.809694
0.814785
0.829855
0.864343
0.929639
1.02373
1.12138
1.234
1.30878
1.35128
1.36053
1.36752
1.35755
1.3362
1.33991
1.34894
1.36109
1.36752
1.36671
1.36135
1.35388
1.35424
1.3572
1.36008
1.35981
1.35713
1.35513
1.35607
1.35919
1.36033
1.36023
1.35958
0.809548
0.809559
0.809575
0.809583
0.809581
0.809566
0.809561
0.809571
0.809618
0.809689
0.809746
0.809767
0.809764
0.809752
0.809745
0.809748
0.809757
0.809742
0.809649
0.809527
0.809487
0.809472
0.809457
0.809415
0.809355
0.809324
0.809297
0.809236
0.8092
0.809238
0.809416
0.809497
0.809482
0.809406
0.809315
0.809235
0.809157
0.809074
0.808927
0.808616
0.808278
0.80813
0.808016
0.807789
0.807425
0.807373
0.807424
0.807447
0.807431
0.807311
0.806921
0.806263
0.805972
0.805955
0.805963
0.806069
0.806355
0.806638
0.806735
0.806817
0.807045
0.807147
0.807132
0.807019
0.80691
0.806969
0.807301
0.80802
0.80828
0.808338
0.808585
0.809662
0.81526
0.829613
0.872962
0.940555
1.0464
1.15511
1.22096
1.29187
1.30199
1.3351
1.3489
1.36701
1.36869
1.36769
1.35986
1.35291
1.35371
1.3576
1.36221
1.36147
1.35679
1.35411
1.35485
1.35839
1.36041
1.36036
1.35947
1.35907
0.810462
0.81045
0.810407
0.810391
0.810387
0.81039
0.810408
0.810426
0.81045
0.810478
0.810477
0.810457
0.810444
0.810432
0.810428
0.81043
0.810429
0.810392
0.810203
0.810084
0.810083
0.810082
0.810061
0.810011
0.809934
0.809828
0.809664
0.809466
0.809348
0.809296
0.809259
0.809214
0.809067
0.808827
0.808607
0.8084
0.808198
0.808013
0.807794
0.80741
0.807198
0.807153
0.807062
0.806869
0.806821
0.806902
0.807205
0.807383
0.807378
0.80727
0.806886
0.806288
0.806105
0.806109
0.806127
0.806217
0.806453
0.806703
0.806912
0.807255
0.807735
0.807973
0.807994
0.807957
0.807782
0.807687
0.807764
0.808127
0.808452
0.808518
0.80849
0.808409
0.808434
0.808704
0.81049
0.816211
0.841386
0.88805
0.985332
1.10029
1.20842
1.32152
1.34242
1.36453
1.36284
1.34986
1.34076
1.34742
1.35941
1.36574
1.36451
1.35802
1.3519
1.35296
1.35827
1.36121
1.36081
1.3585
1.35835
1.35887
0.810851
0.810718
0.810643
0.810637
0.810635
0.810625
0.810612
0.81061
0.810611
0.81061
0.810594
0.810565
0.810533
0.810474
0.810441
0.810434
0.810422
0.810364
0.810209
0.809972
0.809867
0.809848
0.809809
0.809734
0.809501
0.809328
0.809291
0.809304
0.809376
0.809401
0.809351
0.809128
0.808827
0.808533
0.808288
0.808042
0.807794
0.807568
0.80729
0.806922
0.806804
0.806795
0.806837
0.806848
0.806845
0.806949
0.807278
0.807508
0.807524
0.807436
0.807212
0.807116
0.807148
0.807336
0.807471
0.807494
0.807507
0.807547
0.807639
0.807818
0.808205
0.808649
0.808751
0.808752
0.808633
0.808369
0.808303
0.808391
0.80859
0.808631
0.808614
0.808528
0.808446
0.808328
0.808251
0.808294
0.808857
0.811489
0.824716
0.85573
0.937902
1.04589
1.15276
1.27047
1.28594
1.31446
1.33337
1.36513
1.36967
1.36771
1.35654
1.35116
1.35234
1.35851
1.36441
1.36293
1.35788
1.35703
1.35793
1.35949
0.809792
0.80973
0.80963
0.809522
0.809442
0.809396
0.809351
0.809313
0.809307
0.809314
0.809341
0.80938
0.809381
0.809338
0.809197
0.808981
0.808745
0.808462
0.808386
0.808376
0.80833
0.808176
0.807834
0.807707
0.80771
0.80782
0.80789
0.807893
0.807968
0.808186
0.808363
0.808426
0.808447
0.808452
0.808395
0.808198
0.807875
0.807525
0.807158
0.806872
0.806797
0.806799
0.806873
0.807028
0.807085
0.807218
0.807545
0.80793
0.80821
0.808244
0.808133
0.808055
0.808089
0.808425
0.80881
0.808861
0.808828
0.808652
0.808555
0.808547
0.808717
0.809285
0.809583
0.809596
0.809497
0.809177
0.808915
0.808902
0.808963
0.808963
0.80888
0.808746
0.808579
0.808375
0.808301
0.808331
0.808477
0.808725
0.809146
0.810395
0.817903
0.838026
0.908217
1.01099
1.1368
1.28067
1.3218
1.35702
1.36061
1.34683
1.33897
1.34712
1.36127
1.36699
1.36505
1.35813
1.35572
1.35725
1.36008
1.35988
0.807599
0.807592
0.807565
0.807507
0.807367
0.807244
0.807159
0.807093
0.807065
0.807054
0.807056
0.807038
0.806987
0.8069
0.806702
0.806467
0.80642
0.806429
0.80648
0.806506
0.806451
0.806275
0.806247
0.806257
0.806346
0.806806
0.807075
0.807143
0.807269
0.807603
0.808018
0.808206
0.808226
0.808219
0.808193
0.808114
0.807865
0.807417
0.806992
0.806736
0.806627
0.806631
0.806713
0.807029
0.807476
0.807789
0.808037
0.808184
0.808297
0.808337
0.808271
0.8082
0.808187
0.808483
0.809372
0.809671
0.809701
0.80957
0.809167
0.809046
0.809054
0.809307
0.80976
0.809857
0.809824
0.809599
0.809247
0.809092
0.809082
0.809079
0.809022
0.808984
0.808997
0.809001
0.809027
0.809077
0.809257
0.809543
0.809788
0.809806
0.809892
0.81036
0.814571
0.828573
0.890022
0.982131
1.10626
1.23807
1.27258
1.30898
1.33416
1.36899
1.37235
1.3698
1.35669
1.3523
1.3553
1.36162
1.36155
1.35927
0.807181
0.807186
0.807188
0.807178
0.807177
0.807222
0.807262
0.807255
0.807173
0.806946
0.806662
0.806424
0.806252
0.806195
0.806175
0.806139
0.806117
0.806111
0.806106
0.806048
0.806001
0.806047
0.806166
0.806175
0.806259
0.806798
0.807057
0.807162
0.807433
0.807948
0.808451
0.808702
0.808736
0.808717
0.808695
0.808742
0.808794
0.808663
0.808249
0.807878
0.80772
0.807681
0.80773
0.808019
0.808679
0.80892
0.808916
0.808759
0.808642
0.808562
0.808419
0.808343
0.808331
0.808636
0.809762
0.81037
0.810427
0.810378
0.809911
0.809408
0.809274
0.809346
0.809719
0.809959
0.809965
0.809746
0.809371
0.809166
0.809056
0.808977
0.808975
0.809036
0.809298
0.809656
0.80982
0.809923
0.810147
0.810222
0.81023
0.810184
0.810167
0.81
0.809329
0.809357
0.812274
0.823645
0.879139
0.968407
1.10327
1.26641
1.32148
1.36353
1.3621
1.34689
1.34425
1.3528
1.36367
1.3639
1.36064
1.35778
0.806996
0.806965
0.806964
0.806966
0.806964
0.806965
0.807055
0.807147
0.807112
0.806809
0.806237
0.806005
0.805969
0.805961
0.805968
0.805969
0.805937
0.80586
0.805824
0.805819
0.805823
0.805895
0.805949
0.805927
0.805971
0.806466
0.806849
0.807043
0.807423
0.808033
0.808487
0.808694
0.808853
0.808891
0.808876
0.808936
0.809177
0.809161
0.808756
0.8082
0.808114
0.808105
0.808148
0.808446
0.809195
0.809483
0.809486
0.809251
0.808992
0.808895
0.808672
0.808498
0.80847
0.808781
0.809949
0.810466
0.810492
0.810489
0.810306
0.809813
0.809321
0.808929
0.808905
0.809125
0.809357
0.809334
0.809263
0.809285
0.809233
0.809092
0.809067
0.809173
0.809672
0.810266
0.810466
0.810582
0.810627
0.810548
0.810502
0.810423
0.810031
0.809427
0.808895
0.808653
0.808673
0.808961
0.811863
0.822398
0.874941
0.96611
1.09593
1.24579
1.27394
1.3126
1.3396
1.37219
1.37117
1.36255
1.35454
1.35748
0.808793
0.808792
0.808792
0.808793
0.808795
0.808796
0.808928
0.809119
0.809085
0.808701
0.807967
0.80766
0.807633
0.807686
0.807814
0.807813
0.807641
0.807243
0.807035
0.807042
0.807122
0.807139
0.807112
0.807076
0.807204
0.807417
0.807444
0.807441
0.807657
0.808182
0.808532
0.808679
0.808743
0.808763
0.808792
0.808925
0.809216
0.809248
0.80895
0.808532
0.808451
0.808411
0.808434
0.808711
0.809547
0.809961
0.810027
0.809937
0.809498
0.809216
0.808913
0.808676
0.808649
0.80891
0.810099
0.810607
0.810609
0.81051
0.810317
0.809937
0.809222
0.808469
0.808322
0.80844
0.808534
0.80861
0.808931
0.809546
0.809753
0.80975
0.809721
0.809814
0.810241
0.810627
0.810712
0.810715
0.810691
0.810582
0.810212
0.809592
0.809111
0.808798
0.808695
0.808788
0.809116
0.809674
0.810214
0.810586
0.813076
0.822955
0.875605
0.970092
1.11751
1.28116
1.32773
1.3654
1.3608
1.3404
1.3485
1.3634
0.808687
0.808682
0.808684
0.808693
0.808696
0.808695
0.808812
0.808998
0.808983
0.808643
0.807954
0.807685
0.807673
0.807797
0.808058
0.808057
0.807689
0.807045
0.806889
0.806913
0.807078
0.807106
0.807017
0.807088
0.807311
0.807387
0.807335
0.807177
0.807276
0.807704
0.807966
0.807996
0.807974
0.807957
0.80802
0.808241
0.808736
0.809097
0.808956
0.808527
0.80837
0.808278
0.808247
0.80871
0.809804
0.810136
0.810228
0.81027
0.810147
0.809648
0.809266
0.808774
0.808566
0.808858
0.809493
0.809515
0.809379
0.809461
0.809825
0.809723
0.808925
0.808376
0.80838
0.808417
0.808318
0.808276
0.80863
0.809579
0.810225
0.810362
0.810407
0.810527
0.810688
0.810708
0.810713
0.810704
0.810542
0.809978
0.809046
0.808321
0.808362
0.808569
0.80891
0.809524
0.810017
0.810593
0.810879
0.810864
0.810638
0.810341
0.812355
0.823214
0.8834
0.987085
1.12659
1.26228
1.29191
1.32565
1.36696
1.36905
0.806335
0.806311
0.806335
0.806354
0.806312
0.806247
0.80628
0.806359
0.80638
0.806446
0.806638
0.806788
0.806982
0.80748
0.807628
0.807304
0.806038
0.80557
0.805562
0.805787
0.805944
0.805782
0.805328
0.805193
0.805428
0.805862
0.806323
0.807013
0.807853
0.808306
0.808547
0.808669
0.808683
0.80856
0.807951
0.807623
0.807694
0.808106
0.808101
0.807752
0.807236
0.806504
0.805826
0.805946
0.806945
0.808563
0.809625
0.810141
0.810169
0.809941
0.80949
0.808683
0.807545
0.807104
0.807292
0.807248
0.807224
0.807394
0.807889
0.808024
0.808013
0.808263
0.809011
0.809209
0.808961
0.808667
0.808881
0.809613
0.810302
0.810494
0.810597
0.810705
0.810761
0.810692
0.810415
0.810036
0.809506
0.808646
0.80795
0.808023
0.808232
0.808806
0.809785
0.810377
0.810699
0.810987
0.811044
0.810948
0.810168
0.809358
0.809361
0.809593
0.812899
0.828085
0.896526
1.01227
1.17669
1.30826
1.35768
1.36187
0.799391
0.799702
0.799888
0.800097
0.800171
0.800221
0.800465
0.80097
0.801182
0.801175
0.801102
0.801107
0.801215
0.801663
0.801976
0.801961
0.801682
0.801036
0.80081
0.80094
0.801002
0.800613
0.800412
0.800598
0.801174
0.801904
0.80286
0.804476
0.805969
0.806365
0.806271
0.805912
0.805382
0.804776
0.804192
0.80402
0.804069
0.804104
0.804034
0.803711
0.802894
0.801864
0.801177
0.801215
0.801893
0.802536
0.802918
0.803823
0.80636
0.808283
0.808148
0.80677
0.805119
0.804589
0.80464
0.804871
0.805001
0.805009
0.805081
0.805418
0.806322
0.807924
0.809065
0.809267
0.809149
0.808998
0.809191
0.809814
0.810097
0.810235
0.810486
0.810512
0.810245
0.809303
0.80825
0.807793
0.807594
0.807345
0.807536
0.808006
0.808771
0.809689
0.810436
0.810628
0.810737
0.810961
0.810816
0.810073
0.808944
0.808993
0.809241
0.810005
0.810525
0.811108
0.814952
0.835867
0.914128
1.04745
1.19176
1.2937
0.799113
0.79926
0.799554
0.799943
0.800458
0.801159
0.801824
0.802232
0.802388
0.80239
0.802268
0.80197
0.801937
0.802004
0.802025
0.801983
0.801944
0.801588
0.80099
0.80091
0.800607
0.799485
0.797204
0.796127
0.79613
0.796227
0.796904
0.798872
0.800461
0.800166
0.799205
0.799048
0.799049
0.799195
0.800186
0.800794
0.800879
0.800822
0.800421
0.799092
0.79706
0.796587
0.797064
0.797175
0.795934
0.794608
0.794562
0.79521
0.79824
0.801347
0.801646
0.801418
0.800889
0.80072
0.800821
0.801436
0.803298
0.804558
0.804514
0.803978
0.803768
0.804016
0.804726
0.806372
0.807975
0.808251
0.808157
0.807231
0.805601
0.805197
0.805439
0.805993
0.806131
0.805921
0.805711
0.805814
0.806205
0.806795
0.808045
0.809062
0.809778
0.810109
0.810471
0.810628
0.810477
0.810021
0.809159
0.808138
0.808201
0.808846
0.809993
0.810692
0.811199
0.811341
0.811349
0.811594
0.816701
0.849615
0.936871
1.15833
0.793155
0.793498
0.794016
0.794549
0.795121
0.795853
0.796653
0.79716
0.797919
0.799621
0.800608
0.801038
0.801169
0.801186
0.801074
0.800712
0.800731
0.80149
0.801846
0.801858
0.801177
0.799935
0.797483
0.793319
0.79196
0.7919
0.792366
0.793721
0.793772
0.79228
0.7901
0.789827
0.790128
0.791755
0.793983
0.795387
0.796754
0.797191
0.797194
0.796727
0.796283
0.796461
0.797398
0.797564
0.79599
0.791885
0.789787
0.790074
0.792519
0.797107
0.798897
0.798972
0.799035
0.799057
0.798884
0.798735
0.799159
0.800652
0.800997
0.801004
0.800582
0.799363
0.798779
0.798842
0.799862
0.800903
0.801031
0.80071
0.799963
0.799619
0.799771
0.80036
0.801249
0.802149
0.802847
0.803567
0.804481
0.805928
0.807655
0.808818
0.809607
0.809556
0.809016
0.808374
0.807747
0.807013
0.806708
0.806943
0.808186
0.809616
0.81058
0.810793
0.811184
0.811071
0.810169
0.80918
0.809538
0.811321
0.819811
0.926191
0.796727
0.797115
0.797574
0.798068
0.798587
0.79922
0.800073
0.801181
0.802541
0.803904
0.805015
0.805821
0.806559
0.807384
0.807942
0.808632
0.809762
0.810022
0.809831
0.808769
0.806923
0.804797
0.800834
0.796677
0.796173
0.796438
0.795845
0.795567
0.795736
0.79584
0.795348
0.794655
0.794946
0.79609
0.79733
0.798289
0.799405
0.801035
0.802631
0.803923
0.805278
0.807324
0.809683
0.810171
0.809143
0.80581
0.802209
0.801184
0.801863
0.803503
0.803804
0.803698
0.803362
0.80313
0.802974
0.802498
0.802501
0.803204
0.803719
0.803815
0.803448
0.801441
0.798282
0.796627
0.79665
0.797401
0.798253
0.798332
0.797742
0.796892
0.796847
0.797249
0.798048
0.798843
0.79966
0.800274
0.800948
0.801974
0.803115
0.804055
0.803846
0.802897
0.802297
0.802373
0.802828
0.803488
0.804922
0.80673
0.808369
0.80953
0.810441
0.810425
0.809758
0.808568
0.807627
0.807926
0.808825
0.809866
0.810426
0.826651
0.828132
0.828794
0.829404
0.8299
0.830528
0.831497
0.832714
0.833908
0.834988
0.835128
0.834372
0.832736
0.832023
0.831291
0.82954
0.829009
0.829301
0.831229
0.832851
0.832955
0.832143
0.830124
0.827984
0.827267
0.827393
0.828466
0.829656
0.829803
0.829582
0.82892
0.827354
0.824479
0.821228
0.818199
0.81579
0.815291
0.81579
0.816013
0.815775
0.815805
0.816879
0.819567
0.821565
0.821737
0.821163
0.819416
0.81686
0.81438
0.812833
0.811812
0.811181
0.810543
0.808992
0.806862
0.80525
0.80344
0.80186
0.801601
0.801796
0.802184
0.802445
0.802137
0.799436
0.796839
0.796715
0.797425
0.798432
0.798695
0.798963
0.799091
0.799124
0.799539
0.800571
0.802147
0.803734
0.803671
0.803198
0.802735
0.801819
0.800912
0.799744
0.798414
0.798248
0.798342
0.798741
0.799646
0.80133
0.80366
0.805786
0.80569
0.805491
0.804781
0.804614
0.804806
0.805779
0.807846
0.80892
0.809854
0.809751
0.810182
0.85963
0.859028
0.85833
0.85833
0.858946
0.862737
0.866007
0.866511
0.866072
0.862362
0.859453
0.859587
0.859562
0.854298
0.84682
0.843324
0.841497
0.841541
0.842944
0.846804
0.85077
0.851686
0.851146
0.850638
0.851536
0.855035
0.857519
0.857677
0.857669
0.858353
0.85863
0.855775
0.852391
0.851953
0.849155
0.84336
0.840654
0.839352
0.837379
0.835928
0.835793
0.835639
0.833672
0.828279
0.8256
0.825556
0.827095
0.828961
0.829059
0.82837
0.827008
0.826869
0.82687
0.826265
0.824311
0.820326
0.814167
0.810003
0.809732
0.810883
0.815391
0.819745
0.819986
0.818795
0.816625
0.814253
0.813137
0.813462
0.815266
0.816008
0.815074
0.813128
0.810827
0.809825
0.808911
0.806911
0.804377
0.802337
0.800956
0.800328
0.799518
0.798452
0.798548
0.799765
0.801627
0.803826
0.80535
0.805056
0.803514
0.80186
0.800338
0.800115
0.800431
0.801013
0.802587
0.804926
0.807332
0.8073
0.806459
0.806432
0.918327
0.918346
0.91838
0.919321
0.921006
0.921112
0.921153
0.921496
0.921137
0.920623
0.92033
0.918732
0.91525
0.91163
0.907372
0.903374
0.90189
0.901278
0.900119
0.898104
0.897486
0.898054
0.899145
0.899279
0.899295
0.899094
0.897942
0.895794
0.894326
0.894199
0.895158
0.89548
0.894737
0.894504
0.89365
0.891644
0.891325
0.891715
0.890684
0.887951
0.887531
0.888226
0.888444
0.885351
0.876978
0.872635
0.872745
0.872952
0.871806
0.869851
0.867658
0.867264
0.867819
0.868321
0.86786
0.865667
0.861748
0.857289
0.853032
0.849327
0.847719
0.847758
0.847674
0.846309
0.842912
0.838544
0.834662
0.83071
0.828168
0.826465
0.823944
0.820123
0.815975
0.812956
0.81074
0.808538
0.806
0.804784
0.805122
0.805651
0.806673
0.808281
0.810536
0.811522
0.810478
0.809511
0.807558
0.804359
0.801288
0.800672
0.800026
0.800105
0.80061
0.802458
0.80534
0.805175
0.804042
0.802422
0.802342
0.803268
0.975787
0.975321
0.971311
0.967706
0.967439
0.968461
0.969121
0.968175
0.96462
0.962612
0.961997
0.961388
0.960056
0.958638
0.959132
0.961694
0.962705
0.9617
0.956296
0.953695
0.953555
0.954517
0.957419
0.958633
0.958614
0.958605
0.958237
0.955705
0.951878
0.951468
0.951909
0.951371
0.947655
0.940642
0.937462
0.93589
0.933303
0.931411
0.930711
0.92888
0.924674
0.923732
0.925465
0.926445
0.92467
0.922017
0.921913
0.922163
0.920929
0.916807
0.910057
0.900845
0.896168
0.896175
0.895896
0.894157
0.893929
0.893985
0.893262
0.889308
0.881294
0.875533
0.872904
0.869888
0.866639
0.866154
0.865603
0.862595
0.854978
0.848933
0.848914
0.848679
0.847228
0.845071
0.843492
0.842468
0.840218
0.83791
0.836648
0.835261
0.833081
0.829952
0.826019
0.822235
0.817437
0.812608
0.807714
0.804692
0.802482
0.802404
0.803491
0.805332
0.808168
0.80837
0.807759
0.805081
0.802131
0.801365
0.801457
0.802822
1.03492
1.03479
1.03515
1.03555
1.0349
1.0308
1.0289
1.02914
1.02969
1.02941
1.02813
1.02649
1.02603
1.02605
1.02543
1.02315
1.02238
1.02145
1.018
1.01621
1.01602
1.0149
1.01283
1.01171
1.01156
1.01151
1.01014
1.00897
1.00843
1.00675
1.00608
1.00613
1.00564
1.00291
1.00134
1.00146
1.00138
1.00062
0.998814
0.994316
0.988491
0.98614
0.984598
0.982826
0.980616
0.976407
0.972835
0.972456
0.973303
0.973326
0.970105
0.962155
0.959638
0.959622
0.958476
0.952314
0.945826
0.944996
0.944242
0.941205
0.937657
0.935542
0.932512
0.926279
0.920108
0.917963
0.917314
0.915406
0.909651
0.901321
0.896427
0.894067
0.891064
0.885787
0.87977
0.874663
0.870171
0.864294
0.85764
0.851593
0.846575
0.841025
0.834891
0.830266
0.828888
0.825065
0.824101
0.825278
0.827123
0.826324
0.824882
0.821678
0.81899
0.813833
0.808764
0.804731
0.802244
0.802679
0.804854
0.807552
1.09681
1.09691
1.09803
1.09832
1.09731
1.09448
1.09411
1.09404
1.0926
1.08942
1.08821
1.08864
1.08962
1.08945
1.08773
1.08724
1.08715
1.08536
1.08213
1.08179
1.08211
1.08187
1.08015
1.07681
1.07575
1.07582
1.07565
1.07447
1.07201
1.06937
1.06741
1.06569
1.06375
1.06179
1.0596
1.05666
1.05498
1.05361
1.05202
1.04918
1.04441
1.04312
1.04342
1.04316
1.04127
1.03763
1.03409
1.0308
1.02734
1.02337
1.01676
1.01017
1.00888
1.00943
1.00943
1.00657
1.00112
0.997264
0.992165
0.983008
0.97932
0.978419
0.976619
0.973572
0.968488
0.960372
0.952796
0.95001
0.948563
0.944909
0.93682
0.929158
0.925114
0.921109
0.916894
0.912246
0.907336
0.901807
0.896895
0.892045
0.888031
0.884985
0.881599
0.877025
0.874572
0.871585
0.866637
0.860681
0.853507
0.846438
0.839017
0.831075
0.823501
0.817594
0.813005
0.814163
0.817614
0.818765
0.817873
0.813446
1.16604
1.16569
1.16428
1.16252
1.16252
1.16267
1.16196
1.16105
1.15959
1.15634
1.15564
1.15553
1.15458
1.15417
1.15401
1.15325
1.1517
1.14963
1.14883
1.14766
1.14571
1.14467
1.14403
1.14259
1.13949
1.1377
1.13723
1.13667
1.13449
1.13108
1.12965
1.12901
1.12801
1.12593
1.1237
1.12176
1.11965
1.11722
1.11479
1.11274
1.11027
1.10689
1.10326
1.10082
1.09833
1.09353
1.09071
1.08926
1.08767
1.0845
1.08051
1.0762
1.07327
1.07014
1.06517
1.06001
1.0565
1.0542
1.05118
1.04674
1.04247
1.03586
1.02863
1.02755
1.02657
1.02348
1.01593
1.00659
1.00251
1.00113
0.997841
0.990279
0.982597
0.977944
0.973678
0.968856
0.962586
0.955104
0.948643
0.941988
0.935117
0.927392
0.919425
0.91059
0.901975
0.893842
0.886869
0.878984
0.870504
0.864094
0.85734
0.857059
0.853408
0.852966
0.850954
0.847291
0.841898
0.835381
0.826936
0.815088
1.23593
1.23436
1.23374
1.23368
1.23449
1.23673
1.23711
1.23611
1.23219
1.23101
1.23066
1.22877
1.22525
1.22416
1.22446
1.22459
1.22412
1.22271
1.21985
1.21788
1.21739
1.21612
1.21425
1.21321
1.21227
1.20937
1.20706
1.20642
1.20566
1.20352
1.19923
1.1968
1.19602
1.19501
1.19287
1.18976
1.18644
1.18432
1.18209
1.17917
1.17648
1.17402
1.17043
1.1676
1.16517
1.16211
1.15822
1.15439
1.15137
1.14786
1.1402
1.13591
1.13479
1.13303
1.12916
1.12401
1.11924
1.11502
1.10869
1.10248
1.09929
1.09527
1.089
1.0835
1.07875
1.07328
1.06726
1.06124
1.05476
1.04845
1.04266
1.03648
1.02926
1.02292
1.01657
1.00982
1.00217
0.994818
0.987344
0.980521
0.973452
0.966359
0.959819
0.952844
0.946734
0.940309
0.933286
0.928334
0.923707
0.917937
0.9114
0.905684
0.898447
0.889082
0.878645
0.868596
0.856669
0.847171
0.841675
0.838564
1.31807
1.31625
1.31356
1.3133
1.31322
1.31313
1.31247
1.31013
1.30969
1.30983
1.30835
1.30562
1.30483
1.3035
1.30025
1.29832
1.29853
1.29859
1.29778
1.29521
1.2921
1.29057
1.28924
1.28768
1.28624
1.28473
1.28106
1.27795
1.27795
1.27752
1.27513
1.27142
1.2688
1.26675
1.26478
1.26237
1.259
1.25533
1.25258
1.2502
1.24705
1.24339
1.23969
1.23627
1.23311
1.22949
1.2254
1.22154
1.21838
1.21488
1.2099
1.20486
1.20079
1.19685
1.19088
1.18478
1.18061
1.1771
1.17291
1.16761
1.16143
1.1552
1.14737
1.14141
1.13771
1.13363
1.12644
1.11869
1.11305
1.1077
1.1006
1.09278
1.08636
1.08016
1.07398
1.06694
1.05994
1.05314
1.04587
1.03892
1.03165
1.02412
1.01644
1.00811
0.9991
0.991232
0.981872
0.971628
0.962126
0.951639
0.941785
0.93065
0.920738
0.911797
0.901035
0.895769
0.893108
0.888205
0.886087
0.876603
1.4012
1.40093
1.40058
1.39892
1.39604
1.3952
1.39559
1.39641
1.396
1.39423
1.39299
1.39018
1.38727
1.38641