/*--------------------------------*- C++ -*----------------------------------*\
  =========                 |
  \\      /  F ield         | OpenFOAM: The Open Source CFD Toolbox
   \\    /   O peration     | Website:  https://openfoam.org
    \\  /    A nd           | Version:  7
     \\/     M anipulation  |
\*---------------------------------------------------------------------------*/
FoamFile
{
    version     2.0;
    format      ascii;
    class       volScalarField;
    location    "5";
    object      p;
}
// * * * * * * * * * * * * * * * * * * * * * * * * * * * * * * * * * * * * * //

dimensions      [1 -1 -2 0 0 0 0];

internalField   nonuniform List<scalar> 
90000
(
0.184341
0.22786
0.271049
0.299806
0.330459
0.366418
0.390278
0.414073
0.44656
0.476873
0.508491
0.5441
0.581379
0.622176
0.665268
0.710621
0.756726
0.804883
0.851248
0.894737
0.930705
0.960942
0.982209
0.99221
0.994242
0.994063
0.99072
0.9875
0.983135
0.978068
0.97119
0.967913
0.965982
0.965535
0.963949
0.962046
0.95822
0.95228
0.944312
0.934363
0.933249
0.937158
0.947349
0.958916
0.971602
0.983269
0.992405
0.995078
0.989622
0.979472
0.967002
0.956385
0.951504
0.951239
0.956138
0.962753
0.970619
0.978389
0.97736
0.973396
0.966741
0.961217
0.96039
0.962298
0.967331
0.973085
0.973513
0.970843
0.964546
0.959907
0.958289
0.959024
0.962584
0.962991
0.960083
0.955001
0.951292
0.950463
0.952817
0.952509
0.94922
0.945393
0.943493
0.943791
0.944126
0.942797
0.939877
0.937274
0.935279
0.93304
0.930786
0.928704
0.927576
0.926085
0.924381
0.922676
0.921451
0.920325
0.91928
0.917631
0.147732
0.147706
0.147677
0.147649
0.147627
0.147604
0.147583
0.147537
0.147595
0.14813
0.149702
0.152706
0.158163
0.166528
0.178928
0.195995
0.220211
0.250974
0.290495
0.33749
0.393572
0.456129
0.524244
0.590675
0.651709
0.708148
0.755587
0.800978
0.834738
0.867198
0.887328
0.908977
0.92197
0.937542
0.944427
0.952523
0.954671
0.955585
0.955359
0.961923
0.974679
0.982449
0.985639
0.987738
0.988254
0.989347
0.985821
0.977934
0.96536
0.954829
0.95283
0.95508
0.9602
0.966484
0.971633
0.975769
0.978476
0.97682
0.971908
0.964368
0.958485
0.957757
0.961504
0.967205
0.973623
0.975638
0.972861
0.967028
0.962036
0.960611
0.96127
0.964512
0.966183
0.963427
0.958063
0.954442
0.95345
0.954824
0.955611
0.952886
0.947242
0.944117
0.943841
0.945785
0.944751
0.942224
0.939129
0.93707
0.935674
0.933192
0.930651
0.928868
0.927795
0.92634
0.924773
0.923187
0.921722
0.920295
0.919529
0.918353
0.147721
0.147718
0.147716
0.147716
0.147718
0.147723
0.147728
0.147736
0.147739
0.147758
0.147729
0.147693
0.147656
0.147622
0.147589
0.147564
0.147542
0.147528
0.14751
0.14751
0.147459
0.148211
0.152194
0.160604
0.177223
0.200402
0.234873
0.275898
0.3293
0.387973
0.456987
0.525676
0.597367
0.667489
0.734022
0.799362
0.854719
0.909309
0.952456
0.981805
1.00039
1.00485
1.00291
1.00022
0.994934
0.983608
0.964589
0.943415
0.928563
0.932453
0.942847
0.954006
0.964914
0.973589
0.978617
0.981931
0.979417
0.971279
0.961833
0.956577
0.957703
0.962866
0.971403
0.97573
0.975243
0.97228
0.965228
0.958652
0.956047
0.960204
0.966523
0.969181
0.966269
0.959775
0.953449
0.952615
0.953813
0.957163
0.955741
0.951291
0.94731
0.945664
0.945469
0.946545
0.944684
0.941892
0.939362
0.937902
0.935732
0.933024
0.930926
0.929601
0.928496
0.926616
0.924412
0.922801
0.922026
0.920834
0.919564
0.917861
0.147757
0.147757
0.147758
0.147758
0.147759
0.147758
0.14776
0.147759
0.147758
0.147755
0.147752
0.147749
0.147748
0.147746
0.147746
0.147747
0.147749
0.147749
0.147749
0.147748
0.147744
0.147759
0.14773
0.147699
0.147677
0.147659
0.147651
0.147645
0.147653
0.147638
0.149419
0.154925
0.169358
0.191764
0.230021
0.278165
0.346506
0.42561
0.520203
0.607389
0.697413
0.764852
0.828308
0.868713
0.904517
0.91132
0.919118
0.929778
0.939187
0.953942
0.970207
0.98076
0.98742
0.987214
0.986461
0.981628
0.9672
0.955154
0.953155
0.954622
0.960929
0.969276
0.978682
0.980629
0.975959
0.966404
0.960292
0.959043
0.961825
0.964594
0.970349
0.968573
0.962989
0.957524
0.954318
0.956323
0.95913
0.957601
0.953873
0.948076
0.944389
0.946001
0.948343
0.946938
0.942974
0.939788
0.938317
0.938728
0.936671
0.93349
0.931226
0.930003
0.928995
0.927347
0.925383
0.923537
0.922046
0.921042
0.920244
0.918388
0.147793
0.147791
0.147789
0.147787
0.147784
0.147781
0.147778
0.147775
0.147771
0.147767
0.147763
0.14776
0.147757
0.147755
0.147753
0.147751
0.147751
0.147749
0.147749
0.147747
0.147749
0.14775
0.147752
0.147757
0.147763
0.147769
0.147778
0.147784
0.147789
0.147797
0.147787
0.147775
0.147764
0.147755
0.147743
0.147735
0.147713
0.148174
0.154357
0.171923
0.204613
0.262839
0.33617
0.435874
0.544747
0.656704
0.762143
0.863189
0.916829
0.956611
0.962299
0.971493
0.976358
0.979763
0.974956
0.956072
0.943574
0.94811
0.956142
0.969504
0.980199
0.982939
0.980776
0.975418
0.966104
0.957697
0.95652
0.958916
0.966748
0.974229
0.971949
0.964802
0.955996
0.953255
0.954387
0.958598
0.96186
0.958543
0.951682
0.947872
0.947557
0.947926
0.948889
0.94666
0.942981
0.940411
0.940029
0.939109
0.936806
0.933751
0.931325
0.930714
0.929043
0.927093
0.925368
0.923811
0.922312
0.920743
0.920144
0.919154
0.147768
0.147765
0.147762
0.14776
0.147757
0.147755
0.147752
0.147749
0.147747
0.147746
0.147745
0.147745
0.147745
0.147746
0.147745
0.147746
0.147747
0.147749
0.14775
0.147752
0.147756
0.147762
0.147767
0.14777
0.147773
0.147774
0.147775
0.147775
0.147773
0.147769
0.147763
0.147757
0.147749
0.14774
0.14773
0.147718
0.14771
0.147687
0.147661
0.147641
0.14763
0.147632
0.147626
0.149193
0.15844
0.189279
0.247619
0.339446
0.458565
0.583818
0.689666
0.782841
0.839499
0.895566
0.912012
0.917602
0.941799
0.96317
0.983172
0.998419
0.994041
0.984385
0.972736
0.956914
0.953816
0.955047
0.960258
0.971064
0.98248
0.979551
0.96898
0.957539
0.952763
0.953925
0.96086
0.965876
0.963335
0.955236
0.948327
0.946576
0.949203
0.951703
0.949747
0.944408
0.940955
0.940127
0.940921
0.939701
0.93619
0.933775
0.931858
0.931614
0.929615
0.926976
0.925149
0.923957
0.922479
0.920741
0.919757
0.918614
0.147706
0.147704
0.147703
0.147704
0.147705
0.147706
0.147708
0.14771
0.147713
0.147715
0.147718
0.147721
0.147724
0.147727
0.14773
0.147734
0.147736
0.147739
0.147742
0.147745
0.14775
0.147756
0.147759
0.147759
0.147757
0.147755
0.147753
0.147749
0.147743
0.147733
0.147723
0.147711
0.147699
0.147686
0.147672
0.147659
0.147647
0.147638
0.147631
0.147633
0.147646
0.147665
0.147691
0.147699
0.147707
0.14771
0.147726
0.147729
0.151117
0.166331
0.215846
0.291738
0.407827
0.542691
0.682476
0.80452
0.904912
0.944556
0.964903
0.97879
0.980127
0.978034
0.958551
0.945581
0.952348
0.965702
0.977199
0.982766
0.981641
0.970513
0.958627
0.952692
0.954197
0.963404
0.96963
0.966872
0.957638
0.95007
0.946377
0.949182
0.95473
0.953095
0.948009
0.942371
0.940436
0.942407
0.942974
0.940116
0.936005
0.933534
0.933322
0.931984
0.929723
0.927429
0.925831
0.924447
0.922924
0.921449
0.920486
0.918731
0.147681
0.147683
0.147686
0.14769
0.147694
0.147699
0.147704
0.147708
0.147713
0.147718
0.147722
0.147727
0.147731
0.147735
0.14774
0.147743
0.147745
0.147746
0.147748
0.14775
0.147753
0.147756
0.147756
0.147754
0.147749
0.147744
0.147736
0.147729
0.147723
0.147709
0.147695
0.147683
0.147671
0.14766
0.147652
0.147648
0.147647
0.147649
0.147653
0.147665
0.147684
0.147706
0.147727
0.147742
0.147749
0.147753
0.147758
0.147764
0.147773
0.147787
0.147804
0.147803
0.148405
0.159652
0.202182
0.294162
0.426428
0.575998
0.705317
0.812696
0.874267
0.922531
0.93124
0.948609
0.979508
0.993457
0.992161
0.989281
0.971722
0.952966
0.951786
0.95645
0.96732
0.977468
0.97375
0.959438
0.949685
0.94589
0.94923
0.957068
0.95642
0.952209
0.944328
0.940021
0.942923
0.945774
0.943437
0.938744
0.935142
0.934434
0.934707
0.932398
0.929522
0.927644
0.926784
0.924992
0.923095
0.92172
0.920939
0.918816
0.147718
0.147721
0.147726
0.147732
0.147738
0.147744
0.147748
0.147752
0.147756
0.147759
0.147761
0.147765
0.147767
0.147768
0.147769
0.14777
0.14777
0.14777
0.14777
0.147769
0.147768
0.147765
0.147761
0.147756
0.147749
0.147739
0.14773
0.147722
0.147717
0.147706
0.147692
0.14768
0.14767
0.147667
0.147667
0.147668
0.147674
0.147685
0.147694
0.14771
0.147731
0.147751
0.147764
0.147765
0.147758
0.147751
0.147745
0.147744
0.147754
0.147768
0.14778
0.147792
0.147791
0.14778
0.147759
0.147758
0.148649
0.17084
0.226
0.335996
0.493947
0.670124
0.82296
0.925289
0.966086
0.979803
0.980703
0.972376
0.942381
0.946274
0.958383
0.973632
0.979945
0.977637
0.962431
0.947425
0.945126
0.949308
0.959233
0.960269
0.955711
0.944693
0.940586
0.942467
0.948076
0.946881
0.94207
0.936826
0.935727
0.936537
0.935206
0.931986
0.929592
0.928456
0.927216
0.925122
0.923191
0.922123
0.921363
0.919093
0.147771
0.147773
0.147775
0.147777
0.14778
0.147782
0.147783
0.147783
0.147782
0.147781
0.147781
0.147781
0.147779
0.147777
0.147775
0.147773
0.14777
0.147767
0.147764
0.14776
0.147754
0.147746
0.147739
0.147732
0.147725
0.147718
0.147712
0.147706
0.147701
0.147697
0.147693
0.147688
0.147683
0.147683
0.147689
0.147696
0.14771
0.147726
0.147737
0.147748
0.147763
0.147779
0.147777
0.147762
0.147743
0.147728
0.147717
0.147711
0.147716
0.147728
0.14774
0.147756
0.147768
0.147766
0.147766
0.147781
0.147777
0.147764
0.147754
0.147753
0.155878
0.195643
0.311703
0.478767
0.653184
0.784441
0.871843
0.916942
0.926069
0.95778
0.986216
0.993502
0.988811
0.965311
0.942223
0.942634
0.948781
0.962154
0.967752
0.961917
0.945742
0.939032
0.941215
0.949509
0.950889
0.947152
0.939796
0.936218
0.937397
0.937556
0.935168
0.931969
0.929711
0.929338
0.927528
0.925271
0.923569
0.922964
0.92188
0.919496
0.147777
0.147775
0.147771
0.147767
0.147763
0.14776
0.147757
0.147754
0.147751
0.147748
0.147745
0.147741
0.147738
0.147735
0.147731
0.147728
0.147724
0.14772
0.147716
0.147712
0.147705
0.147698
0.147691
0.147686
0.147684
0.147686
0.14769
0.147696
0.1477
0.147704
0.14771
0.147714
0.147717
0.147724
0.147733
0.147742
0.147757
0.147768
0.147769
0.147768
0.147774
0.147777
0.14777
0.147749
0.147722
0.147705
0.147695
0.14769
0.147694
0.147705
0.14772
0.147737
0.147755
0.147767
0.147798
0.147823
0.14782
0.147791
0.14776
0.147754
0.147767
0.147793
0.147797
0.153456
0.194129
0.305435
0.474138
0.679562
0.84653
0.947579
0.97783
0.981492
0.97047
0.933777
0.935852
0.950557
0.967131
0.971697
0.966585
0.947951
0.937173
0.938263
0.949317
0.954571
0.951178
0.941379
0.93751
0.937221
0.939345
0.937678
0.934198
0.931838
0.930814
0.929615
0.927112
0.925173
0.923924
0.923907
0.922715
0.919968
0.147708
0.147703
0.147698
0.147694
0.14769
0.147686
0.147682
0.147678
0.147673
0.14767
0.147669
0.147667
0.147665
0.147663
0.147662
0.147661
0.147658
0.147656
0.147654
0.147651
0.147649
0.147646
0.147644
0.147645
0.147655
0.147671
0.147689
0.147706
0.147721
0.147738
0.147753
0.147762
0.147769
0.147778
0.147785
0.14779
0.147799
0.147795
0.147784
0.147776
0.147771
0.147765
0.147757
0.14774
0.147711
0.147698
0.147691
0.147689
0.147698
0.147718
0.147745
0.147778
0.147803
0.147837
0.147874
0.14788
0.14787
0.14782
0.147758
0.147747
0.147759
0.147788
0.14784
0.147907
0.148006
0.148062
0.154351
0.199118
0.345166
0.541999
0.711742
0.85134
0.8994
0.919051
0.945645
0.98178
0.983933
0.977459
0.948613
0.93354
0.936234
0.950079
0.961813
0.957578
0.943899
0.936098
0.93709
0.941836
0.940733
0.937202
0.933073
0.931962
0.932371
0.930106
0.926451
0.925015
0.924958
0.924787
0.923571
0.920868
0.147639
0.147634
0.147629
0.147626
0.147622
0.147617
0.147613
0.14761
0.147606
0.147604
0.147605
0.147606
0.147607
0.147608
0.147611
0.147614
0.147616
0.147618
0.147621
0.147624
0.14763
0.147637
0.147644
0.147657
0.147682
0.147713
0.147741
0.147759
0.147776
0.147796
0.147813
0.147824
0.147834
0.147844
0.147847
0.147845
0.147837
0.147817
0.147793
0.147786
0.147782
0.147778
0.147773
0.147769
0.147756
0.147741
0.147737
0.147741
0.147752
0.147772
0.147802
0.14783
0.14786
0.147897
0.147905
0.147904
0.147893
0.147835
0.147766
0.147752
0.147759
0.147816
0.147981
0.148145
0.14822
0.148304
0.148385
0.148389
0.148363
0.16157
0.241905
0.401684
0.623963
0.835149
0.934164
0.973577
0.971982
0.953626
0.922398
0.933068
0.953688
0.964821
0.961702
0.946026
0.933664
0.93498
0.942617
0.944979
0.94111
0.933063
0.932079
0.934092
0.933311
0.930134
0.9265
0.925108
0.926733
0.925866
0.924269
0.922164
0.147628
0.147624
0.147617
0.147611
0.147608
0.147606
0.147604
0.147602
0.1476
0.147601
0.147606
0.14761
0.147613
0.147618
0.147623
0.147633
0.147646
0.147656
0.147663
0.147673
0.147692
0.14771
0.147722
0.147737
0.147763
0.147789
0.147808
0.147822
0.147831
0.147839
0.14785
0.147859
0.147866
0.147875
0.14788
0.147874
0.147855
0.147814
0.147783
0.147778
0.14778
0.147779
0.147775
0.147776
0.14778
0.147784
0.147798
0.147813
0.147817
0.14782
0.147836
0.147855
0.147887
0.147912
0.147909
0.147894
0.14787
0.147816
0.147768
0.147773
0.147802
0.147911
0.1482
0.148341
0.148352
0.148384
0.14841
0.148394
0.148292
0.148092
0.147814
0.14756
0.184873
0.318455
0.528039
0.723409
0.843579
0.89747
0.916521
0.961299
0.980762
0.975062
0.94817
0.927842
0.930897
0.942686
0.951385
0.947094
0.93518
0.93025
0.933415
0.9367
0.934146
0.927854
0.925454
0.926067
0.928584
0.927474
0.92523
0.924391
0.147661
0.14766
0.147659
0.147659
0.147658
0.147655
0.147654
0.147653
0.147655
0.147659
0.147663
0.147666
0.14767
0.147674
0.147678
0.147693
0.147722
0.147728
0.147727
0.147734
0.147756
0.14777
0.147777
0.147788
0.147816
0.147829
0.147831
0.147833
0.147835
0.147838
0.147842
0.147849
0.147857
0.147865
0.147874
0.14787
0.147852
0.147813
0.147778
0.147773
0.147778
0.147779
0.147776
0.147778
0.147795
0.147839
0.147882
0.147883
0.147862
0.14785
0.147856
0.147864
0.147886
0.147905
0.147901
0.14788
0.147854
0.147808
0.147819
0.147871
0.147945
0.148128
0.148415
0.148465
0.148455
0.148428
0.148384
0.14826
0.148063
0.147783
0.147572
0.147515
0.147537
0.147632
0.163421
0.246402
0.428911
0.680217
0.870755
0.950205
0.964418
0.957191
0.916135
0.922998
0.944196
0.955926
0.953414
0.939172
0.928034
0.929892
0.938946
0.938031
0.930949
0.925529
0.925692
0.93013
0.929864
0.928339
0.926166
0.927005
0.147792
0.147795
0.147797
0.147801
0.147803
0.147803
0.147805
0.147808
0.14781
0.147813
0.147815
0.147817
0.147818
0.147819
0.147818
0.147817
0.147814
0.147807
0.147801
0.1478
0.147804
0.14781
0.147812
0.147819
0.147831
0.147831
0.147827
0.14781
0.147796
0.147794
0.147799
0.147812
0.147829
0.147843
0.147855
0.147862
0.147851
0.147815
0.147793
0.147794
0.147797
0.147799
0.147809
0.147843
0.147899
0.147943
0.14795
0.147936
0.147894
0.147879
0.147872
0.147851
0.147832
0.147861
0.147886
0.147885
0.14785
0.147854
0.147928
0.148037
0.148146
0.148351
0.148513
0.148518
0.148502
0.148447
0.148285
0.148037
0.147765
0.147562
0.147498
0.14751
0.147648
0.147958
0.148324
0.148393
0.150607
0.203976
0.386034
0.606277
0.771041
0.880085
0.895077
0.943104
0.97055
0.965469
0.94832
0.926378
0.926985
0.93811
0.942316
0.935779
0.925981
0.924976
0.929924
0.934098
0.931648
0.928811
0.927805
0.929796
0.147926
0.147928
0.147927
0.147925
0.147923
0.147923
0.147921
0.147919
0.147917
0.147912
0.147906
0.147901
0.147895
0.147883
0.147866
0.14785
0.147837
0.147826
0.147816
0.147808
0.147801
0.147795
0.14779
0.147784
0.147777
0.147769
0.147762
0.147757
0.147756
0.147762
0.147776
0.147798
0.147823
0.147844
0.147865
0.147887
0.147894
0.147894
0.147897
0.147897
0.147877
0.147872
0.147894
0.147953
0.147983
0.147982
0.147983
0.147959
0.147924
0.147908
0.147874
0.147818
0.147802
0.147836
0.147886
0.147904
0.14793
0.148021
0.148128
0.148216
0.148319
0.148469
0.148536
0.148531
0.148482
0.148337
0.148038
0.147749
0.14752
0.147447
0.147469
0.147572
0.147887
0.148271
0.14847
0.148467
0.148238
0.147734
0.147207
0.179386
0.314972
0.561549
0.796737
0.930439
0.958267
0.956973
0.925101
0.920387
0.935992
0.947916
0.941924
0.926532
0.922853
0.927465
0.936659
0.935192
0.931884
0.929323
0.930644
0.931253
0.147994
0.147993
0.14799
0.147982
0.147979
0.147979
0.147981
0.147978
0.147966
0.147947
0.147937
0.147931
0.147923
0.1479
0.147869
0.147853
0.147838
0.147806
0.147774
0.147765
0.147759
0.147752
0.147747
0.147748
0.147748
0.147746
0.147739
0.147737
0.147743
0.147763
0.147794
0.147842
0.147904
0.147953
0.14798
0.147989
0.147995
0.148011
0.148012
0.14798
0.147926
0.147918
0.147944
0.147994
0.147996
0.147981
0.147961
0.147933
0.147922
0.147901
0.147844
0.147793
0.147791
0.147837
0.147943
0.148024
0.148177
0.148343
0.148342
0.148348
0.148402
0.148495
0.148496
0.148399
0.148215
0.147952
0.147661
0.147487
0.147391
0.147405
0.147459
0.147766
0.148225
0.14844
0.14849
0.148279
0.147741
0.147224
0.147031
0.147107
0.147336
0.166896
0.305034
0.532791
0.728933
0.859592
0.901608
0.929125
0.962024
0.954995
0.931014
0.92048
0.924301
0.938365
0.941183
0.936499
0.931193
0.930584
0.934044
0.932255
0.147959
0.147955
0.147946
0.147925
0.14792
0.14792
0.147914
0.147897
0.147894
0.147892
0.147884
0.147877
0.147868
0.147844
0.147821
0.147807
0.147789
0.147763
0.147745
0.147743
0.147747
0.147748
0.147749
0.147754
0.147756
0.147753
0.147743
0.147739
0.147753
0.147792
0.147844
0.147917
0.148006
0.148049
0.14805
0.148046
0.148043
0.14805
0.148044
0.147995
0.147933
0.147924
0.147936
0.14793
0.14791
0.147879
0.147835
0.147805
0.147822
0.147843
0.147825
0.147825
0.147858
0.147976
0.148115
0.14825
0.148443
0.148506
0.14848
0.148425
0.148436
0.148432
0.148311
0.148033
0.147778
0.147497
0.147347
0.147305
0.147327
0.147381
0.147669
0.148188
0.148437
0.148506
0.148257
0.147731
0.147177
0.146949
0.146982
0.14737
0.147906
0.14807
0.147771
0.162296
0.27582
0.510077
0.788488
0.914161
0.953051
0.944601
0.919846
0.924388
0.94043
0.944391
0.939094
0.932744
0.930301
0.933653
0.935357
0.932002
0.147823
0.147815
0.147816
0.147823
0.147831
0.147844
0.147857
0.147868
0.147874
0.147871
0.14786
0.147857
0.147856
0.147843
0.147832
0.14783
0.147818
0.147808
0.147811
0.147813
0.147808
0.14781
0.147838
0.147869
0.14787
0.147862
0.147844
0.147838
0.147848
0.147872
0.147915
0.147991
0.148051
0.148076
0.148083
0.148079
0.148071
0.148063
0.148047
0.147992
0.14792
0.147891
0.147851
0.147804
0.147772
0.14776
0.147742
0.147744
0.147786
0.147819
0.14788
0.147974
0.148114
0.148234
0.148314
0.148416
0.148515
0.148527
0.148507
0.148449
0.148342
0.148136
0.147772
0.147517
0.147338
0.147196
0.147157
0.147187
0.147257
0.147598
0.148168
0.148504
0.148511
0.14826
0.14773
0.147198
0.146883
0.146897
0.147223
0.147905
0.148309
0.148198
0.147581
0.147417
0.147635
0.161165
0.283511
0.521706
0.773963
0.848211
0.914349
0.939613
0.958552
0.94582
0.93237
0.927886
0.932771
0.937936
0.935331
0.930206
0.147727
0.147741
0.147761
0.147791
0.147836
0.147881
0.147917
0.147952
0.147983
0.147994
0.147996
0.147998
0.148001
0.147995
0.147992
0.14799
0.147972
0.147959
0.147966
0.147985
0.147984
0.147981
0.147991
0.147993
0.147987
0.147967
0.147935
0.147907
0.147893
0.147894
0.147925
0.147991
0.148025
0.148052
0.148065
0.148056
0.148045
0.148037
0.148019
0.147969
0.147873
0.147771
0.147708
0.147652
0.147641
0.147664
0.147676
0.147712
0.147746
0.147849
0.148023
0.148218
0.148365
0.148389
0.14839
0.148454
0.148467
0.148403
0.148265
0.148083
0.147863
0.147499
0.147179
0.147117
0.147078
0.147066
0.147077
0.147172
0.147569
0.14821
0.148677
0.148608
0.148328
0.147712
0.147276
0.14696
0.146834
0.147143
0.148025
0.148712
0.148651
0.14812
0.14752
0.147988
0.149247
0.149644
0.149572
0.171298
0.284582
0.542624
0.83193
0.914089
0.94627
0.936736
0.927107
0.931406
0.939315
0.937614
0.933553
0.931697
0.147885
0.147917
0.147949
0.147996
0.148075
0.148119
0.148124
0.148123
0.14811
0.148092
0.148094
0.148099
0.148096
0.148097
0.148101
0.148086
0.148039
0.148019
0.148029
0.148041
0.148031
0.148009
0.148002
0.147998
0.14798
0.147937
0.147872
0.147756
0.147643
0.147629
0.147637
0.147636
0.147644
0.147693
0.147769
0.147801
0.147801
0.147784
0.147754
0.147716
0.147663
0.1476
0.147515
0.147485
0.147487
0.147527
0.147586
0.147664
0.147811
0.148067
0.148299
0.148442
0.148447
0.14843
0.148355
0.148234
0.148028
0.147828
0.147668
0.147541
0.147369
0.147072
0.146961
0.146979
0.147023
0.147105
0.147352
0.147852
0.148419
0.14889
0.148854
0.148439
0.147841
0.147307
0.14712
0.146881
0.147415
0.148515
0.149433
0.149391
0.148918
0.148154
0.148887
0.15023
0.151344
0.151615
0.151881
0.15257
0.153243
0.179552
0.320986
0.56657
0.818537
0.863525
0.928359
0.940885
0.942612
0.936064
0.932253
0.934732
0.147906
0.147931
0.147957
0.147999
0.148048
0.148056
0.148053
0.148046
0.148038
0.148027
0.148008
0.147996
0.147989
0.147975
0.147953
0.147893
0.147816
0.147808
0.147799
0.147743
0.147665
0.147654
0.147644
0.147612
0.147535
0.147437
0.1474
0.147362
0.147273
0.147215
0.147211
0.147226
0.14727
0.14733
0.147416
0.147446
0.147446
0.147455
0.147457
0.147459
0.147448
0.147415
0.147413
0.147436
0.147553
0.147713
0.147911
0.148154
0.14834
0.148528
0.148539
0.148511
0.148445
0.148261
0.14804
0.14783
0.147501
0.147346
0.147349
0.147326
0.147195
0.147016
0.14699
0.147037
0.147276
0.14781
0.148543
0.148993
0.149246
0.149146
0.148765
0.148018
0.147551
0.147235
0.147209
0.148286
0.149817
0.150837
0.150688
0.150111
0.149287
0.150412
0.152693
0.153705
0.153706
0.154217
0.155653
0.15743
0.159117
0.159847
0.160409
0.198538
0.355305
0.628284
0.867213
0.906376
0.936353
0.933398
0.935945
0.938749
0.147615
0.14759
0.147561
0.147534
0.147512
0.147486
0.147449
0.147418
0.147397
0.147367
0.14734
0.147321
0.147291
0.147259
0.147236
0.147207
0.147202
0.147212
0.147199
0.147169
0.147172
0.147184
0.14721
0.147235
0.147226
0.147177
0.147166
0.147162
0.147118
0.147099
0.147099
0.14714
0.147196
0.147236
0.147334
0.14739
0.147405
0.147462
0.147573
0.14769
0.147829
0.147987
0.148114
0.14823
0.148333
0.148416
0.148524
0.148702
0.148759
0.148741
0.148649
0.14845
0.148202
0.147918
0.147754
0.147614
0.14735
0.147243
0.147288
0.147312
0.147265
0.147306
0.14759
0.148061
0.14885
0.149632
0.150145
0.149959
0.149712
0.14924
0.148637
0.147852
0.147868
0.148567
0.150454
0.152212
0.153005
0.15276
0.151851
0.151942
0.153575
0.15565
0.15756
0.158017
0.1586
0.159334
0.160611
0.162264
0.163944
0.165564
0.167073
0.167836
0.168393
0.225313
0.419354
0.667836
0.880943
0.901248
0.937954
0.945024
0.147249
0.147223
0.147199
0.147182
0.147173
0.147166
0.147161
0.147154
0.147141
0.147129
0.147123
0.147116
0.147103
0.147103
0.147115
0.147124
0.147136
0.147147
0.147146
0.147155
0.147179
0.147206
0.147235
0.147279
0.14734
0.147366
0.147369
0.147378
0.147428
0.147501
0.147548
0.147602
0.147688
0.147754
0.147843
0.14802
0.148235
0.148376
0.148526
0.148711
0.148889
0.148993
0.149015
0.149041
0.149027
0.148999
0.149031
0.149041
0.148921
0.148726
0.148556
0.148346
0.148077
0.147799
0.147662
0.147561
0.147469
0.147489
0.147645
0.148029
0.148656
0.149459
0.15027
0.150879
0.151467
0.151584
0.15127
0.150543
0.150051
0.149185
0.149342
0.15025
0.152348
0.154402
0.156413
0.156227
0.155663
0.155391
0.156015
0.158374
0.160971
0.161944
0.162025
0.162761
0.164218
0.165814
0.167506
0.168877
0.17011
0.171331
0.172781
0.174464
0.175968
0.176904
0.178755
0.266189
0.495676
0.742666
0.892638
0.924512
0.147252
0.147227
0.147201
0.147185
0.147183
0.147181
0.14718
0.147187
0.147197
0.147198
0.147198
0.147213
0.14725
0.147307
0.147361
0.147405
0.147456
0.147529
0.147653
0.147899
0.148142
0.148234
0.148315
0.148458
0.148655
0.148866
0.14905
0.149173
0.149259
0.149365
0.149492
0.149513
0.14951
0.149537
0.149629
0.149766
0.149799
0.149772
0.149783
0.149816
0.149827
0.149804
0.149725
0.149649
0.149506
0.149346
0.14921
0.148979
0.14876
0.148632
0.148552
0.148388
0.148176
0.148248
0.148524
0.148948
0.149475
0.150191
0.151107
0.152066
0.152847
0.153358
0.15362
0.153806
0.153706
0.153222
0.152242
0.152269
0.152779
0.154251
0.156441
0.158873
0.160368
0.161251
0.161006
0.160482
0.160764
0.161976
0.164314
0.16629
0.167424
0.167673
0.1683
0.169713
0.171174
0.173246
0.174789
0.176064
0.177235
0.178078
0.178991
0.18089
0.183203
0.18468
0.185978
0.186477
0.197881
0.327369
0.564839
0.831881
0.148848
0.148886
0.148909
0.148934
0.148976
0.149028
0.149098
0.149247
0.14939
0.149464
0.149555
0.149672
0.149774
0.149925
0.150056
0.150095
0.150134
0.150233
0.150488
0.150747
0.150791
0.150753
0.150734
0.150793
0.150931
0.15107
0.15121
0.151249
0.151235
0.151245
0.151243
0.151182
0.151107
0.151047
0.150956
0.150873
0.150815
0.150683
0.150475
0.150437
0.150417
0.150253
0.149994
0.149769
0.149574
0.149589
0.149658
0.149661
0.149757
0.150073
0.15057
0.151313
0.15224
0.153235
0.154419
0.155585
0.156506
0.157205
0.157698
0.158235
0.1583
0.158044
0.157795
0.15793
0.158161
0.158549
0.159431
0.161057
0.163129
0.165169
0.16603
0.166688
0.166699
0.166533
0.166602
0.16741
0.169057
0.17119
0.173614
0.173884
0.174115
0.175086
0.176824
0.178249
0.179613
0.180568
0.18142
0.182795
0.184195
0.18587
0.187102
0.188057
0.189619
0.191173
0.19211
0.193573
0.195698
0.196025
0.220616
0.513266
0.152811
0.152757
0.15275
0.152764
0.152747
0.152707
0.152717
0.152726
0.152689
0.152677
0.152687
0.152663
0.152643
0.152645
0.152619
0.152541
0.152528
0.152537
0.152493
0.152388
0.152327
0.15232
0.152386
0.152436
0.15236
0.152223
0.152252
0.152244
0.152271
0.152321
0.152184
0.151924
0.151947
0.151939
0.151735
0.151711
0.151935
0.152146
0.152356
0.152698
0.15321
0.153855
0.154533
0.155236
0.156051
0.157041
0.158066
0.15907
0.160117
0.161075
0.161986
0.16282
0.163552
0.164105
0.164541
0.164905
0.16504
0.164996
0.164939
0.165012
0.164946
0.165004
0.165348
0.166178
0.167495
0.169055
0.170628
0.171834
0.172685
0.173608
0.173634
0.17332
0.173558
0.174462
0.176287
0.178123
0.179688
0.181087
0.181583
0.182197
0.182975
0.184033
0.18506
0.186141
0.187578
0.189172
0.190907
0.19166
0.19207
0.193096
0.195019
0.196427
0.197197
0.198502
0.200089
0.20118
0.201898
0.203644
0.204186
0.232285
0.158143
0.158212
0.1583
0.158402
0.158503
0.1586
0.158694
0.158784
0.158884
0.159018
0.159154
0.159283
0.159421
0.15959
0.159757
0.159911
0.160091
0.160316
0.160598
0.160916
0.161218
0.161486
0.161769
0.162065
0.162352
0.162645
0.162936
0.163308
0.163733
0.164094
0.164491
0.165004
0.165572
0.166149
0.166776
0.167438
0.167952
0.168402
0.169014
0.169638
0.170037
0.170374
0.170761
0.171117
0.171382
0.171612
0.171827
0.172038
0.172321
0.172397
0.172361
0.172287
0.172321
0.172243
0.171937
0.172018
0.172043
0.17207
0.172351
0.173017
0.174144
0.175536
0.176855
0.178201
0.179569
0.180751
0.181782
0.182024
0.182016
0.18236
0.183085
0.183944
0.184708
0.185928
0.187423
0.188628
0.189753
0.189925
0.190199
0.190982
0.19217
0.193388
0.194805
0.196137
0.197082
0.198367
0.199159
0.199562
0.200489
0.201692
0.203274
0.205063
0.205791
0.206339
0.207431
0.208404
0.209523
0.210939
0.212317
0.213291
0.173525
0.173619
0.173721
0.173837
0.173958
0.174069
0.174219
0.174393
0.174464
0.174551
0.174745
0.174893
0.17501
0.175161
0.175371
0.175478
0.17553
0.175626
0.175781
0.175964
0.176113
0.176227
0.176352
0.176493
0.176636
0.17677
0.176947
0.177076
0.177118
0.177143
0.177194
0.17728
0.17741
0.177616
0.177853
0.177859
0.177803
0.177843
0.178044
0.17806
0.177958
0.177993
0.178141
0.178092
0.177893
0.177753
0.177786
0.177913
0.178201
0.178474
0.178545
0.178806
0.179396
0.180322
0.181446
0.182591
0.183866
0.185387
0.186892
0.188343
0.189655
0.190641
0.191381
0.19173
0.192061
0.192506
0.192639
0.192519
0.192585
0.192916
0.193963
0.195217
0.196461
0.197448
0.198135
0.198859
0.199423
0.200073
0.200886
0.2018
0.202967
0.203868
0.205019
0.20621
0.207091
0.207115
0.207485
0.208576
0.210062
0.211504
0.212289
0.212978
0.213784
0.214563
0.215553
0.217201
0.218044
0.21841
0.21938
0.221413
0.186947
0.186977
0.187017
0.187089
0.187098
0.187101
0.187194
0.187276
0.187288
0.187316
0.187385
0.187466
0.187465
0.187431
0.187457
0.187547
0.187535
0.187482
0.187502
0.187577
0.187612
0.187632
0.18767
0.18777
0.187929
0.188108
0.188294
0.188627
0.188906
0.188917
0.188933
0.189104
0.189521
0.189951
0.19032
0.190715
0.191114
0.191434
0.191735
0.19211
0.192597
0.193131
0.1937
0.194327
0.195036
0.195838
0.196611
0.197323
0.198106
0.199003
0.199915
0.200559
0.201053
0.201592
0.202181
0.202548
0.202793
0.203141
0.203387
0.203441
0.20342
0.203275
0.202948
0.202534
0.202414
0.202704
0.20319
0.203748
0.204383
0.205464
0.206755
0.207906
0.208969
0.209558
0.210077
0.210328
0.210692
0.211257
0.211891
0.212601
0.213535
0.214593
0.214995
0.215846
0.216604
0.217193
0.21808
0.219094
0.220163
0.220909
0.221497
0.222112
0.223298
0.224379
0.225104
0.225776
0.226953
0.227442
0.227821
0.2292
0.20443
0.204493
0.204559
0.204629
0.204731
0.204814
0.204898
0.205014
0.205134
0.20529
0.205441
0.205572
0.205706
0.205908
0.20615
0.206223
0.206246
0.206374
0.206765
0.206975
0.20701
0.207068
0.207214
0.207415
0.207683
0.208006
0.208232
0.208316
0.208378
0.208564
0.208865
0.209017
0.209159
0.209389
0.209625
0.209829
0.210042
0.210288
0.210567
0.210836
0.211097
0.211363
0.211536
0.21167
0.211732
0.211716
0.21165
0.211603
0.211646
0.211774
0.211803
0.211564
0.211403
0.211442
0.211418
0.210988
0.210481
0.210536
0.210567
0.210526
0.210712
0.211233
0.211994
0.212867
0.214011
0.215358
0.216923
0.218384
0.219453
0.22052
0.220835
0.221154
0.221048
0.221138
0.221205
0.221321
0.22169
0.222477
0.223534
0.2246
0.225561
0.22657
0.227213
0.227236
0.227707
0.228619
0.229214
0.230016
0.230858
0.231339
0.23205
0.232733
0.233102
0.233358
0.234112
0.23515
0.235919
0.236967
0.237814
0.238806
0.222125
0.222135
0.222088
0.222054
0.222098
0.222132
0.222054
0.221992
0.221973
0.221984
0.222138
0.222353
0.222417
0.222447
0.22249
0.222568
0.222677
0.222716
0.222655
0.22261
0.222649
0.222781
0.222867
0.222917
0.222936
0.222904
0.222876
0.222914
0.223038
0.22318
0.223278
0.223282
0.223164
0.223117
0.223263
0.223287
0.223067
0.222893
0.222894
0.222958
0.223117
0.22319
0.223166
0.223206
0.223426
0.223681
0.223936
0.224223
0.224508
0.224787
0.225087
0.225486
0.225982
0.226582
0.227279
0.228153
0.229197
0.230268
0.231247
0.232074
0.232777
0.233466
0.23417
0.234796
0.235285
0.235557
0.235512
0.23517
0.23489
0.234679
0.234381
0.233827
0.2338
0.234047
0.234625
0.235537
0.236649
0.237686
0.238669
0.239198
0.23937
0.239297
0.239423
0.239435
0.239599
0.2401
0.240926
0.241835
0.242149
0.24254
0.242778
0.243156
0.24376
0.244611
0.245361
0.245845
0.245694
0.245856