/*--------------------------------*- C++ -*----------------------------------*\
  =========                 |
  \\      /  F ield         | OpenFOAM: The Open Source CFD Toolbox
   \\    /   O peration     | Website:  https://openfoam.org
    \\  /    A nd           | Version:  7
     \\/     M anipulation  |
\*---------------------------------------------------------------------------*/
FoamFile
{
    version     2.0;
    format      ascii;
    class       volScalarField;
    location    "0.51";
    object      rho;
}
// * * * * * * * * * * * * * * * * * * * * * * * * * * * * * * * * * * * * * //

dimensions      [1 -3 0 0 0 0 0];

internalField   nonuniform List<scalar> 
324000
(
0.461
0.615195
0.832387
1.0235
1.12825
1.11163
1.06589
1.04452
1.03029
1.04053
1.05417
1.05987
1.05787
1.05708
1.06049
1.05984
1.05489
1.05215
1.05182
1.05577
1.0629
1.06655
1.06727
1.06757
1.06818
1.06827
1.06798
1.06871
1.07093
1.07405
1.07697
1.079
1.08007
1.08099
1.07915
1.07118
1.06226
1.05675
1.05671
1.05847
1.06129
1.0653
1.06883
1.074
1.08237
1.09354
1.10203
1.10814
1.12149
1.12988
1.14201
1.1528
1.16007
1.16764
1.17291
1.20617
1.26998
1.31523
1.34173
1.35215
1.35789
1.36222
1.36708
1.37403
1.38339
1.39311
1.39886
1.40011
1.40011
1.40005
1.40001
1.40001
1.40001
1.40001
1.40001
1.40001
1.40001
1.40001
1.40001
1.40001
0.329069
0.330165
0.376237
0.581132
0.835294
1.01133
1.06994
1.06173
1.03707
1.03223
1.02902
1.02879
1.02806
1.0312
1.04059
1.04217
1.03742
1.03447
1.03411
1.0369
1.03914
1.03996
1.04053
1.04208
1.04327
1.04216
1.04031
1.0405
1.04241
1.04627
1.05107
1.05385
1.05306
1.0525
1.04955
1.04002
1.03049
1.02573
1.02565
1.02659
1.0288
1.03263
1.03715
1.04225
1.04861
1.05542
1.06216
1.06929
1.08073
1.09503
1.11375
1.12993
1.13498
1.14724
1.16088
1.19769
1.26172
1.3119
1.33926
1.35068
1.35679
1.36096
1.36581
1.37291
1.38254
1.3926
1.39868
1.40007
1.4001
1.40005
1.40001
1.40001
1.40001
1.40001
1.40001
1.40001
1.40001
1.40001
1.40001
1.40001
0.330439
0.331081
0.331571
0.331867
0.379993
0.563696
0.817929
1.00877
1.05762
1.06498
1.04682
1.03498
1.0246
1.02882
1.03756
1.04246
1.03991
1.03427
1.03023
1.03003
1.03022
1.03062
1.032
1.03318
1.03241
1.03104
1.03078
1.03125
1.03322
1.03646
1.0386
1.04023
1.03819
1.03717
1.03201
1.02188
1.01359
1.00995
1.00813
1.00649
1.00636
1.00825
1.01149
1.01595
1.02184
1.02574
1.02894
1.03587
1.04964
1.07177
1.09831
1.12002
1.12494
1.1342
1.15163
1.19023
1.25223
1.30686
1.33673
1.34954
1.35563
1.35959
1.36445
1.37174
1.38168
1.39211
1.3985
1.40004
1.40009
1.40005
1.40001
1.40001
1.40001
1.40001
1.40001
1.40001
1.40001
1.40001
1.40001
1.40001
0.331497
0.331913
0.332199
0.33234
0.332341
0.33221
0.381918
0.560428
0.808234
1.00041
1.04498
1.04559
1.03035
1.0254
1.02582
1.03106
1.03691
1.03543
1.03302
1.0308
1.02932
1.02975
1.03249
1.0323
1.03048
1.02908
1.03031
1.03301
1.03604
1.03874
1.04037
1.03954
1.03461
1.03106
1.02449
1.01449
1.00692
1.00258
0.998317
0.994336
0.993794
0.995585
0.999123
1.0033
1.00614
1.00665
1.00946
1.01918
1.03568
1.06385
1.09679
1.12147
1.12713
1.13354
1.14731
1.18406
1.243
1.30128
1.33453
1.34856
1.35439
1.35811
1.36301
1.37054
1.38081
1.39162
1.39834
1.4
1.40008
1.40005
1.40001
1.40001
1.40001
1.40001
1.40001
1.40001
1.40001
1.40001
1.40001
1.40001
0.332206
0.33237
0.332403
0.332384
0.332236
0.331923
0.331672
0.331153
0.38613
0.558789
0.795981
0.984507
1.01456
1.02764
1.023
1.02342
1.02859
1.03008
1.0323
1.03154
1.03016
1.03075
1.03224
1.03264
1.03176
1.03121
1.03258
1.03578
1.03944
1.04074
1.041
1.03827
1.03151
1.02617
1.01936
1.01128
1.00486
1.00041
0.996306
0.993694
0.994553
0.996222
0.996242
0.995752
0.99475
0.993737
0.996759
1.01028
1.03303
1.06847
1.09978
1.12462
1.13723
1.14137
1.15089
1.18237
1.23845
1.29691
1.33262
1.3475
1.35296
1.35649
1.36152
1.36933
1.37995
1.39116
1.39818
1.39997
1.40006
1.40004
1.40001
1.40001
1.40001
1.40001
1.40001
1.40001
1.40001
1.40001
1.40001
1.40001
0.332434
0.332411
0.33232
0.332089
0.33173
0.331454
0.331013
0.330773
0.330731
0.330615
0.389453
0.579127
0.800938
0.966895
0.987416
1.01826
1.02704
1.02722
1.03357
1.0334
1.0312
1.03239
1.03375
1.03382
1.0328
1.03316
1.03418
1.03625
1.03814
1.03914
1.03858
1.03471
1.03003
1.02616
1.01958
1.01219
1.00692
1.00419
1.00079
0.99843
0.99645
0.992301
0.988203
0.986197
0.986075
0.989564
0.998354
1.01111
1.03679
1.0755
1.12662
1.15583
1.16273
1.1524
1.15916
1.18572
1.23711
1.29409
1.33082
1.34607
1.35119
1.3547
1.35998
1.36811
1.3791
1.39071
1.39804
1.39995
1.40006
1.40004
1.40001
1.40001
1.40001
1.40001
1.40001
1.40001
1.40001
1.40001
1.40001
1.40001
0.332337
0.33216
0.331885
0.331525
0.331218
0.330918
0.330723
0.330684
0.330586
0.330545
0.33053
0.330469
0.408151
0.612312
0.837263
0.989639
1.01128
1.02433
1.04036
1.03799
1.03553
1.03547
1.03442
1.03565
1.03923
1.04137
1.03996
1.03807
1.03712
1.03783
1.03851
1.03617
1.03261
1.02973
1.02381
1.01726
1.01294
1.0087
1.00327
0.997452
0.990435
0.983164
0.980831
0.981768
0.986094
0.992982
1.00576
1.03013
1.06236
1.10527
1.15665
1.18325
1.19265
1.18272
1.17665
1.19545
1.2412
1.29531
1.32999
1.34432
1.34899
1.35271
1.35838
1.36689
1.37828
1.3903
1.39792
1.39992
1.40005
1.40003
1.40001
1.40001
1.40001
1.40001
1.40001
1.40001
1.40001
1.40001
1.40001
1.40001
0.331983
0.331665
0.331311
0.331044
0.330808
0.330664
0.330623
0.330577
0.330541
0.330512
0.330462
0.330424
0.330425
0.331846
0.42738
0.649202
0.86537
0.988556
1.04425
1.04105
1.04634
1.04312
1.03924
1.04304
1.0476
1.04742
1.04319
1.03735
1.03612
1.03709
1.03879
1.04008
1.03995
1.03711
1.02965
1.02167
1.01554
1.00897
1.00017
0.992535
0.985304
0.981651
0.98137
0.98422
0.991969
1.00971
1.03403
1.05955
1.09131
1.13499
1.17595
1.2006
1.21238
1.20856
1.19529
1.20204
1.24053
1.29374
1.33019
1.3423
1.34641
1.35057
1.3567
1.36562
1.37747
1.38992
1.3978
1.3999
1.40004
1.40003
1.40001
1.40001
1.40001
1.40001
1.40001
1.40001
1.40001
1.40001
1.40001
1.40001
0.331395
0.331063
0.330833
0.330694
0.330621
0.33058
0.330549
0.330519
0.33048
0.330427
0.330414
0.330422
0.330442
0.330451
0.330439
0.336807
0.441399
0.665518
0.915864
0.995918
1.05164
1.04287
1.04362
1.0531
1.05436
1.05118
1.0443
1.03955
1.0394
1.04219
1.04751
1.05007
1.04865
1.04248
1.03207
1.02242
1.01446
1.00545
0.996973
0.991726
0.985056
0.981742
0.982218
0.989194
1.00539
1.03073
1.0601
1.08948
1.12096
1.15753
1.18617
1.2106
1.22611
1.22862
1.22611
1.23072
1.26066
1.30376
1.33126
1.33992
1.34382
1.34838
1.35491
1.36431
1.37668
1.38957
1.39771
1.39988
1.40003
1.40003
1.40001
1.40001
1.40001
1.40001
1.40001
1.40001
1.40001
1.40001
1.40001
1.40001
0.330847
0.330732
0.33063
0.330607
0.330606
0.330563
0.330497
0.330459
0.330432
0.330426
0.330439
0.330453
0.330459
0.330456
0.33042
0.330366
0.330326
0.343772
0.458369
0.72313
0.965349
1.00796
1.04375
1.06427
1.06017
1.05383
1.04572
1.04557
1.04714
1.05281
1.05871
1.05829
1.05327
1.04247
1.03094
1.0204
1.01112
1.00245
0.997223
0.992743
0.986578
0.985136
0.989089
1.00163
1.02383
1.05342
1.08379
1.11178
1.14311
1.1733
1.19525
1.21727
1.23442
1.24184
1.24505
1.25235
1.27831
1.3141
1.332
1.33772
1.34143
1.34612
1.35303
1.36296
1.37591
1.38926
1.39762
1.39986
1.40003
1.40002
1.40001
1.40001
1.40001
1.40001
1.40001
1.40001
1.40001
1.40001
1.40001
1.40001
0.330681
0.33066
0.330625
0.330568
0.330506
0.330438
0.33041
0.33042
0.330447
0.330463
0.330472
0.330474
0.330463
0.330423
0.330363
0.330319
0.330288
0.330286
0.330271
0.363489
0.524391
0.783999
0.993261
1.04886
1.05515
1.04423
1.05012
1.05382
1.05545
1.0623
1.06479
1.06208
1.05288
1.03892
1.02632
1.01681
1.00749
1.00123
0.998447
0.99569
0.992008
0.992986
1.00165
1.01839
1.04307
1.07394
1.10197
1.12699
1.15647
1.17899
1.19624
1.21642
1.23466
1.2477
1.25742
1.26993
1.29571
1.32241
1.33254
1.33574
1.33909
1.34387
1.35116
1.36163
1.37515
1.38897
1.39756
1.39985
1.40002
1.40002
1.40001
1.40001
1.40001
1.40001
1.40001
1.40001
1.40001
1.40001
1.40001
1.40001
0.330623
0.330562
0.330505
0.330437
0.330421
0.330427
0.330448
0.330465
0.330478
0.330487
0.330482
0.330461
0.330423
0.330367
0.33032
0.33029
0.33027
0.330264
0.330258
0.33022
0.330039
0.393328
0.602943
0.863617
0.98713
1.02926
1.06141
1.0615
1.05877
1.06339
1.0643
1.05696
1.04405
1.03116
1.02167
1.01247
1.0047
1.00064
1.00057
0.998346
0.996607
1.00251
1.01737
1.03647
1.06041
1.08733
1.11088
1.13469
1.1585
1.1767
1.1932
1.21307
1.23313
1.24926
1.26309
1.2811
1.30594
1.32517
1.33127
1.33363
1.33676
1.34169
1.34939
1.36035
1.37441
1.3887
1.39752
1.39985
1.40002
1.40002
1.40001
1.40001
1.40001
1.40001
1.40001
1.40001
1.40001
1.40001
1.40001
1.40001
0.330491
0.330439
0.330428
0.330434
0.330452
0.330469
0.330482
0.330494
0.330493
0.330481
0.330452
0.330413
0.330369
0.330327
0.330301
0.330284
0.33027
0.33026
0.330242
0.330183
0.330061
0.329794
0.33061
0.434971
0.70971
0.952979
1.04406
1.05638
1.05152
1.05707
1.05156
1.04143
1.03474
1.02755
1.01892
1.00891
1.00216
0.99989
1.00128
0.999949
1.0031
1.01572
1.03467
1.05536
1.07966
1.10096
1.11867
1.14031
1.16042
1.17609
1.19214
1.21186
1.23239
1.24911
1.26443
1.28489
1.30855
1.3239
1.32832
1.33085
1.3342
1.3396
1.34772
1.35912
1.37373
1.38843
1.39744
1.39984
1.40002
1.40002
1.40001
1.40001
1.40001
1.40001
1.40001
1.40001
1.40001
1.40001
1.40001
1.40001
0.330429
0.330437
0.330458
0.330474
0.330486
0.330493
0.33049
0.33048
0.330464
0.33044
0.330406
0.330372
0.330336
0.330308
0.330308
0.330334
0.330353
0.330348
0.330311
0.330232
0.330115
0.329914
0.32969
0.329238
0.355748
0.526662
0.80556
0.982707
1.02228
1.04342
1.03054
1.03249
1.03026
1.02618
1.01745
1.00484
0.999324
1.00066
1.00173
1.00351
1.01327
1.03124
1.04977
1.06777
1.08791
1.10491
1.12307
1.14516
1.16416
1.17759
1.19303
1.21224
1.23214
1.24914
1.26532
1.28554
1.30759
1.32036
1.32479
1.32776
1.33159
1.33752
1.34606
1.35787
1.37301
1.38825
1.39747
1.39984
1.40001
1.40001
1.40001
1.40001
1.40001
1.40001
1.40001
1.40001
1.40001
1.40001
1.40001
1.40001
0.330458
0.330472
0.330482
0.330492
0.330497
0.33049
0.330467
0.330434
0.330406
0.330383
0.330366
0.330342
0.330315
0.330311
0.330339
0.330406
0.330482
0.330524
0.33051
0.330469
0.330402
0.330281
0.330044
0.329755
0.329532
0.328916
0.405407
0.669823
0.924916
1.03061
1.0203
1.03735
1.03331
1.02658
1.01393
1.0036
1.00084
1.00201
1.0027
1.00809
1.02509
1.04523
1.06114
1.07725
1.09236
1.10659
1.12734
1.1515
1.16772
1.17885
1.19408
1.2128
1.23153
1.24879
1.2655
1.2849
1.3044
1.31557
1.32089
1.32457
1.32899
1.33535
1.34429
1.35667
1.37235
1.38798
1.39747
1.39984
1.40001
1.40001
1.40001
1.40001
1.40001
1.40001
1.40001
1.40001
1.40001
1.40001
1.40001
1.40001
0.330486
0.330497
0.330499
0.330491
0.330471
0.330444
0.330414
0.330388
0.330368
0.33035
0.330335
0.330319
0.330304
0.330313
0.330351
0.330431
0.330542
0.330651
0.330717
0.330722
0.330687
0.330604
0.330505
0.330319
0.330096
0.329815
0.328679
0.340062
0.515804
0.837082
0.98803
1.05085
1.03945
1.0269
1.00988
1.00362
1.00492
1.00781
1.00964
1.02047
1.03813
1.05443
1.06731
1.08466
1.10009
1.11642
1.13838
1.15886
1.16857
1.17812
1.19373
1.21227
1.22998
1.24721
1.26471
1.28358
1.3005
1.31075
1.31662
1.32109
1.32624
1.33309
1.34243
1.35531
1.37171
1.38805
1.39754
1.39985
1.40001
1.40001
1.40001
1.40001
1.40001
1.40001
1.40001
1.40001
1.40001
1.40001
1.40001
1.40001
0.330502
0.330494
0.330474
0.330445
0.330416
0.330391
0.330372
0.330359
0.330346
0.330332
0.330309
0.330296
0.330295
0.330302
0.330343
0.330425
0.33055
0.330693
0.330814
0.330829
0.330782
0.330674
0.33065
0.330518
0.330166
0.329813
0.32889
0.326726
0.322426
0.400774
0.696118
0.984187
1.00174
1.01852
1.00438
1.00898
1.01009
1.01368
1.02123
1.03807
1.05427
1.0605
1.07152
1.09172
1.1096
1.12815
1.14855
1.16164
1.16696
1.17658
1.19259
1.21045
1.22761
1.24474
1.26301
1.28139
1.2965
1.30655
1.31305
1.3183
1.32386
1.33084
1.3406
1.35409
1.37098
1.38791
1.3976
1.39986
1.40001
1.40001
1.40001
1.40001
1.40001
1.40001
1.40001
1.40001
1.40001
1.40001
1.40001
1.40001
0.330473
0.330445
0.33041
0.330383
0.330369
0.330358
0.330348
0.33034
0.33033
0.330311
0.330276
0.330236
0.330231
0.330255
0.330323
0.330417
0.330545
0.3307
0.330823
0.330832
0.330781
0.330662
0.330595
0.330481
0.32997
0.32917
0.327442
0.323551
0.319649
0.316778
0.347738
0.584784
0.856487
1.0037
1.003
1.02627
1.02173
1.02339
1.03448
1.05218
1.06087
1.06527
1.0816
1.10602
1.11854
1.13409
1.15183
1.15743
1.1637
1.17608
1.19174
1.2079
1.22469
1.24208
1.26033
1.27831
1.2925
1.30203
1.30857
1.31443
1.32095
1.32872
1.33882
1.3528
1.37073
1.3881
1.3977
1.39987
1.40001
1.40001
1.40001
1.40001
1.40001
1.40001
1.40001
1.40001
1.40001
1.40001
1.40001
1.40001
0.330409
0.330384
0.330364
0.330354
0.330346
0.330342
0.330333
0.330316
0.330293
0.330251
0.330185
0.330123
0.330115
0.330143
0.330197
0.330302
0.330461
0.33062
0.330726
0.330676
0.330645
0.330562
0.330252
0.32987
0.32843
0.325631
0.322413
0.318588
0.316123
0.315695
0.315836
0.317013
0.477316
0.778509
0.970016
1.02426
1.0284
1.0419
1.05827
1.07243
1.0688
1.07512
1.10023
1.11714
1.12368
1.1367
1.14744
1.15153
1.16093
1.17684
1.19103
1.205
1.22157
1.23981
1.25752
1.27445
1.28856
1.298
1.30428
1.31011
1.31696
1.32563
1.33685
1.35151
1.37011
1.38819
1.39782
1.39988
1.40001
1.40001
1.40001
1.40001
1.40001
1.40001
1.40001
1.40001
1.40001
1.40001
1.40001
1.40001
0.330366
0.330357
0.330346
0.330339
0.330336
0.330327
0.330313
0.330273
0.33021
0.330143
0.330086
0.330042
0.330026
0.330027
0.329988
0.330009
0.330084
0.330029
0.329958
0.329701
0.329559
0.329386
0.328484
0.326865
0.324713
0.321416
0.318076
0.315782
0.315153
0.315465
0.316194
0.319614
0.324215
0.391533
0.654668
0.899169
1.01536
1.04325
1.07353
1.08739
1.08366
1.09278
1.1152
1.11496
1.12001
1.13332
1.13785
1.14386
1.16048
1.17786
1.18942
1.20191
1.21857
1.23755
1.25535
1.27041
1.28333
1.29355
1.30116
1.30731
1.31397
1.32269
1.33448
1.35035
1.37028
1.38851
1.39796
1.3999
1.40001
1.40001
1.40001
1.40001
1.40001
1.40001
1.40001
1.40001
1.40001
1.40001
1.40001
1.40001
0.330353
0.330353
0.330344
0.330328
0.330309
0.330284
0.330246
0.330184
0.330119
0.330078
0.330047
0.330012
0.329984
0.329948
0.329852
0.329701
0.329553
0.329244
0.32887
0.328523
0.327878
0.327074
0.325838
0.323663
0.32099
0.31768
0.315271
0.315151
0.315127
0.316173
0.32117
0.328133
0.335995
0.343038
0.361057
0.48898
0.753314
0.949999
1.05444
1.07856
1.08602
1.10687
1.11885
1.11139
1.11528
1.12651
1.12819
1.13695
1.16327
1.17662
1.18681
1.19954
1.21623
1.23432
1.25204
1.2668
1.27777
1.28693
1.29519
1.30317
1.31141
1.32082
1.33271
1.34887
1.36985
1.38883
1.39813
1.39991
1.40001
1.40001
1.40001
1.40001
1.40001
1.40001
1.40001
1.40001
1.40001
1.40001
1.40001
1.40001
0.330347
0.330331
0.330303
0.330266
0.330227
0.330193
0.330167
0.330132
0.330082
0.330067
0.330054
0.330038
0.32998
0.329893
0.329762
0.329509
0.329192
0.328783
0.32819
0.327616
0.326631
0.325221
0.323425
0.320603
0.317428
0.315468
0.314937
0.315295
0.317275
0.321723
0.327497
0.333952
0.342205
0.351808
0.36193
0.369406
0.40855
0.557965
0.776625
0.944475
1.0616
1.09766
1.10808
1.08944
1.11178
1.12191
1.12655
1.1455
1.16751
1.17393
1.18345
1.19938
1.21511
1.23002
1.24626
1.26183
1.27339
1.28112
1.28873
1.29758
1.30712
1.31748
1.33045
1.34844
1.37026
1.38931
1.39831
1.39993
1.40001
1.40001
1.40001
1.40001
1.40001
1.40001
1.40001
1.40001
1.40001
1.40001
1.40001
1.40001
0.330294
0.330244
0.330196
0.330169
0.330161
0.330157
0.330147
0.330127
0.330103
0.33011
0.330159
0.330234
0.330188
0.330013
0.329832
0.329515
0.329103
0.32869
0.328045
0.327085
0.325761
0.323372
0.320167
0.31721
0.315525
0.315373
0.316042
0.318188
0.322922
0.328418
0.334344
0.342026
0.350691
0.360053
0.370281
0.380118
0.389823
0.398061
0.437919
0.579189
0.793126
0.944002
1.04233
1.07186
1.13297
1.13175
1.13982
1.16387
1.16595
1.16862
1.17777
1.19693
1.21087
1.22342
1.23799
1.25363
1.26703
1.27732
1.28551
1.29348
1.30297
1.31423
1.32816
1.34716
1.37039
1.38988
1.39852
1.39994
1.40001
1.40001
1.40001
1.40001
1.40001
1.40001
1.40001
1.40001
1.40001
1.40001
1.40001
1.40001
0.330171
0.330153
0.330146
0.330146
0.330153
0.330167
0.330167
0.330182
0.330231
0.330238
0.330254
0.330337
0.330326
0.330153
0.329974
0.329775
0.329413
0.328877
0.328117
0.326273
0.323233
0.319641
0.31719
0.316078
0.316219
0.317249
0.320422
0.323346
0.327531
0.333537
0.341832
0.351529
0.361238
0.369846
0.379827
0.390316
0.400556
0.411226
0.421611
0.431017
0.469663
0.587985
0.77403
0.977422
1.09691
1.1201
1.14559
1.17391
1.16083
1.16201
1.18085
1.19316
1.20322
1.21583
1.23055
1.24517
1.25867
1.27029
1.28034
1.29008
1.29984
1.31109
1.32636
1.34728
1.37106
1.39056
1.39872
1.39996
1.40001
1.40001
1.40001
1.40001
1.40001
1.40001
1.40001
1.40001
1.40001
1.40001
1.40001
1.40001
0.330132
0.330145
0.330153
0.330168
0.330191
0.330216
0.330214
0.330219
0.330278
0.330288
0.330276
0.330318
0.330311
0.330141
0.329907
0.329743
0.32932
0.328001
0.325617
0.322209
0.318945
0.317169
0.316552
0.317248
0.319124
0.320633
0.323697
0.328302
0.334617
0.342142
0.349889
0.358995
0.36903
0.378837
0.388486
0.398963
0.409482
0.420467
0.431793
0.443469
0.455153
0.467483
0.495296
0.607492
0.788286
0.983383
1.10901
1.15728
1.13903
1.15383
1.18374
1.18735
1.19369
1.20965
1.22709
1.2399
1.25107
1.2622
1.27299
1.28388
1.2953
1.30797
1.32396
1.34625
1.37172
1.39136
1.39894
1.39997
1.40001
1.40001
1.40001
1.40001
1.40001
1.40001
1.40001
1.40001
1.40001
1.40001
1.40001
1.40001
0.330182
0.330212
0.330222
0.330214
0.330207
0.330211
0.330214
0.330206
0.330232
0.330262
0.330159
0.330076
0.330053
0.329915
0.329246
0.327946
0.325991
0.323312
0.320271
0.318352
0.316945
0.317111
0.317851
0.318351
0.321029
0.324333
0.327448
0.334339
0.342457
0.352159
0.36183
0.370084
0.379126
0.39011
0.399796
0.409281
0.419779
0.430093
0.440423
0.452924
0.46494
0.477711
0.491921
0.505952
0.538145
0.659783
0.846317
1.0281
1.09508
1.16769
1.18013
1.17346
1.1827
1.2037
1.2216
1.23582
1.24665
1.25577
1.2664
1.2779
1.29002
1.30424
1.32281
1.34674
1.37284
1.39224
1.39914
1.39998
1.40001
1.40001
1.40001
1.40001
1.40001
1.40001
1.40001
1.40001
1.40001
1.40001
1.40001
1.40001
0.330272
0.330268
0.330241
0.330187
0.330091
0.329931
0.329859
0.329717
0.329505
0.329553
0.329532
0.32924
0.328518
0.327321
0.325639
0.323318
0.320715
0.318879
0.316944
0.316868
0.317044
0.31702
0.318916
0.32017
0.3222
0.328535
0.336573
0.345008
0.353177
0.361608
0.371759
0.381616
0.390178
0.398421
0.407967
0.417893
0.428053
0.439366
0.450879
0.462394
0.475385
0.48934
0.503059
0.51703
0.533497
0.54996
0.596823
0.734581
0.969821
1.13043
1.15117
1.15812
1.18263
1.19982
1.21182
1.22499
1.23827
1.25017
1.26063
1.27241
1.28581
1.30068
1.32033
1.34663
1.37421
1.39323
1.39934
1.39999
1.40001
1.40001
1.40001
1.40001
1.40001
1.40001
1.40001
1.40001
1.40001
1.40001
1.40001
1.40001
0.330206
0.330112
0.329937
0.32969
0.329407
0.329089
0.328802
0.328626
0.328371
0.328056
0.327605
0.32677
0.325345
0.323369
0.321265
0.319198
0.317145
0.316316
0.315868
0.315858
0.317013
0.31742
0.319296
0.325412
0.331259
0.33814
0.34722
0.355964
0.365584
0.373552
0.380564
0.389183
0.398692
0.40753
0.416717
0.427014
0.437365
0.448423
0.461377
0.47431
0.487093
0.500642
0.515706
0.531034
0.546412
0.561523
0.579478
0.60217
0.697305
0.885358
1.05063
1.14254
1.18107
1.18745
1.19536
1.20874
1.2237
1.23891
1.25313
1.2661
1.28003
1.29739
1.32024
1.34765
1.37594
1.39425
1.39951
1.39999
1.40001
1.40001
1.40001
1.40001
1.40001
1.40001
1.40001
1.40001
1.40001
1.40001
1.40001
1.40001
0.329747
0.329549
0.329362
0.329195
0.328934
0.328605
0.328289
0.328013
0.327564
0.3267
0.325459
0.323797
0.321787
0.319617
0.31764
0.316382
0.31559
0.315595
0.315858
0.315875
0.317721
0.322515
0.327211
0.333822
0.343289
0.351485
0.359157
0.365975
0.373448
0.382374
0.390435
0.398441
0.407169
0.417578
0.428433
0.439069
0.450636
0.462199
0.473644
0.486245
0.499955
0.513191
0.527215
0.542817
0.559824
0.577104
0.593969
0.611008
0.631911
0.687169
0.852486
1.05616
1.14678
1.16272
1.18078
1.19714
1.21096
1.22552
1.24217
1.25905
1.27499
1.2932
1.31834
1.34877
1.37805
1.39532
1.39966
1.4
1.40001
1.40001
1.40001
1.40001
1.40001
1.40001
1.40001
1.40001
1.40001
1.40001
1.40001
1.40001
0.329305
0.329264
0.329133
0.329093
0.32898
0.328704
0.32829
0.32775
0.326777
0.32496
0.322452
0.319997
0.317951
0.316666
0.315913
0.315808
0.315649
0.315761
0.317676
0.321614
0.325679
0.332129
0.340473
0.347
0.353337
0.360064
0.367618
0.375843
0.382401
0.390233
0.399788
0.409425
0.419238
0.42874
0.438887
0.449569
0.46046
0.472212
0.48457
0.496941
0.51003
0.524528
0.539038
0.553942
0.570212
0.588314
0.607489
0.62678
0.644799
0.667038
0.707664
0.83718
1.01319
1.12659
1.17644
1.19358
1.20635
1.21925
1.23285
1.24987
1.26909
1.29128
1.31881
1.35076
1.38047
1.39635
1.39978
1.4
1.40001
1.40001
1.40001
1.40001
1.40001
1.40001
1.40001
1.40001
1.40001
1.40001
1.40001
1.40001
0.329426
0.329325
0.329147
0.329053
0.32893
0.328406
0.327228
0.32524
0.322756
0.320381
0.318348
0.317155
0.316339
0.316204
0.316311
0.316894
0.319101
0.322608
0.3262
0.331988
0.338011
0.343067
0.348754
0.355497
0.362119
0.369481
0.376006
0.384573
0.394102
0.402349
0.411516
0.420782
0.430446
0.440748
0.450704
0.461285
0.472458
0.48385
0.495686
0.509035
0.522012
0.53626
0.551603
0.567385
0.583375
0.600898
0.620111
0.640791
0.661421
0.680556
0.706034
0.743762
0.853942
1.02219
1.13101
1.1688
1.18731
1.20535
1.22486
1.24311
1.26231
1.28704
1.31854
1.35347
1.38327
1.39732
1.39987
1.4
1.40001
1.40001
1.40001
1.40001
1.40001
1.40001
1.40001
1.40001
1.40001
1.40001
1.40001
1.40001
0.32878
0.328214
0.327402
0.326169
0.324574
0.322743
0.320925
0.319507
0.318393
0.317613
0.316961
0.316755
0.317096
0.317894
0.31975
0.322407
0.325827
0.330443
0.334632
0.338871
0.344683
0.351047
0.356864
0.36408
0.371933
0.380479
0.389393
0.396758
0.405447
0.414617
0.423039
0.4322
0.441184
0.450767
0.461091
0.471963
0.483125
0.495438
0.508483
0.52145
0.535735
0.550221
0.56574
0.582221
0.599538
0.616765
0.634397
0.654955
0.677354
0.698494
0.71838
0.745591
0.786619
0.884768
1.02309
1.11672
1.16078
1.1878
1.21142
1.23352
1.25709
1.2866
1.3202
1.35711
1.38628
1.39818
1.39993
1.4
1.40001
1.40001
1.40001
1.40001
1.40001
1.40001
1.40001
1.40001
1.40001
1.40001
1.40001
1.40001
0.326106
0.324871
0.323355
0.321647
0.319993
0.318901
0.318081
0.317783
0.317638
0.317727
0.318392
0.31891
0.319893
0.321729
0.324409
0.327676
0.330863
0.335482
0.341735
0.347284
0.353809
0.3614
0.369922
0.377727
0.385478
0.392544
0.400564
0.408888
0.416299
0.42469
0.433151
0.441969
0.451977
0.461996
0.472755
0.483787
0.495668
0.507677
0.520615
0.534156
0.548699
0.563356
0.578631
0.595808
0.614081
0.633055
0.652305
0.671189
0.692511
0.716153
0.739092
0.760413
0.788943
0.836036
0.927072
1.04818
1.13085
1.17194
1.19783
1.22126
1.24904
1.28386
1.32274
1.36186
1.3894
1.39886
1.39997
1.4
1.40001
1.40001
1.40001
1.40001
1.40001
1.40001
1.40001
1.40001
1.40001
1.40001
1.40001
1.40001
0.322284
0.320523
0.318989
0.31799
0.317213
0.316985
0.316988
0.317118
0.317762
0.318168
0.319357
0.321266
0.323099
0.325864
0.329336
0.33434
0.340286
0.346397
0.353664
0.36143
0.368664
0.375674
0.382429
0.389306
0.396459
0.403768
0.41058
0.418396
0.426782
0.434748
0.444192
0.453875
0.463576
0.474205
0.485507
0.497169
0.509426
0.522115
0.534995
0.548693
0.562539
0.577965
0.59393
0.609467
0.626798
0.646082
0.667402
0.688381
0.710011
0.733762
0.757826
0.780869
0.805394
0.839771
0.892587
0.975899
1.07026
1.13798
1.18024
1.21376
1.24863
1.28554
1.3273
1.36753
1.3924
1.39937
1.39999
1.4
1.40001
1.40001
1.40001
1.40001
1.40001
1.40001
1.40001
1.40001
1.40001
1.40001
1.40001
1.40001
0.31779
0.317195
0.316916
0.316969
0.316973
0.316884
0.316948
0.317047
0.31779
0.319768
0.321455
0.325444
0.330643
0.335794
0.341323
0.347828
0.355044
0.361328
0.367151
0.373755
0.379758
0.3863
0.392685
0.399195
0.405911
0.413601
0.421554
0.429459
0.438279
0.447759
0.456993
0.466883
0.477595
0.488553
0.499048
0.510628
0.522366
0.53509
0.548609
0.562704
0.577299
0.592654
0.609267
0.62703
0.644342
0.662645
0.681849
0.704282
0.727001
0.750159
0.776044
0.802404
0.827208
0.85577
0.898157
0.958046
1.0295
1.09857
1.15455
1.20266
1.24612
1.28875
1.33401
1.37391
1.39505
1.3997
1.4
1.40001
1.40001
1.40001
1.40001
1.40001
1.40001
1.40001
1.40001
1.40001
1.40001
1.40001
1.40001
1.40001
0.316667
0.316871
0.317023
0.317177
0.317914
0.318453
0.319532
0.322104
0.324989
0.329158
0.33447
0.338841
0.344111
0.350151
0.355775
0.360701
0.36626
0.372177
0.37759
0.383321
0.38996
0.395953
0.402914
0.410365
0.41792
0.425436
0.433857
0.442735
0.451257
0.460494
0.470074
0.480082
0.489898
0.500364
0.512117
0.523612
0.536008
0.548632
0.561913
0.575775
0.591205
0.606684
0.623075
0.641317
0.660863
0.680367
0.700617
0.721506
0.744676
0.769066
0.794254
0.821073
0.848237
0.875611
0.9099
0.958608
1.02223
1.08841
1.15108
1.20311
1.24854
1.29519
1.34283
1.38064
1.39716
1.39988
1.4
1.40001
1.40001
1.40001
1.40001
1.40001
1.40001
1.40001
1.40001
1.40001
1.40001
1.40001
1.40001
1.40001
0.318326
0.319198
0.320732
0.322253
0.323822
0.326689
0.329956
0.333441
0.337408
0.341169
0.346216
0.350943
0.355141
0.360007
0.365831
0.370933
0.37595
0.382025
0.388827
0.394978
0.401725
0.409103
0.416228
0.423583
0.431411
0.439524
0.447623
0.455842
0.464819
0.473541
0.4829
0.492595
0.503371
0.513999
0.525077
0.537181
0.549892
0.563432
0.577487
0.592395
0.607394
0.623848
0.640934
0.657985
0.676858
0.697508
0.719044
0.740712
0.763511
0.788394
0.81447
0.841762
0.870338
0.899906
0.931282
0.970776
1.02327
1.08585
1.14682
1.2013
1.25218
1.30382
1.35318
1.38708
1.39863
1.39997
1.4
1.40001
1.40001
1.40001
1.40001
1.40001
1.40001
1.40001
1.40001
1.40001
1.40001
1.40001
1.40001
1.40001
0.32186
0.32275
0.324446
0.326998
0.32902
0.332258
0.336274
0.339688
0.344381
0.349196
0.353434
0.359308
0.365159
0.370266
0.375926
0.383043
0.389196
0.395185
0.401703
0.408723
0.415104
0.42189
0.428902
0.436023
0.443227
0.450981
0.458873
0.467337
0.475933
0.485506
0.495385
0.505727
0.516285
0.528158
0.540218
0.552672
0.565437
0.578915
0.593195
0.608189
0.623906
0.640325
0.657985
0.676932
0.695525
0.715237
0.736411
0.759686
0.783629
0.808457
0.835431
0.863744
0.892791
0.922229
0.953977
0.990903
1.0372
1.09278
1.15066
1.20605
1.26092
1.31622
1.36496
1.39262
1.39948
1.4
1.4
1.40001
1.40001
1.40001
1.40001
1.40001
1.40001
1.40001
1.40001
1.40001
1.40001
1.40001
1.40001
1.40001
0.326158
0.329401
0.332132
0.336059
0.341711
0.345676
0.34997
0.355403
0.360486
0.366023
0.370942
0.375847
0.381566
0.387417
0.392325
0.397487
0.403656
0.409294
0.415002
0.421
0.427505
0.433967
0.440683
0.448042
0.455864
0.463655
0.472276
0.481279
0.49068
0.500298
0.510664
0.521646
0.532826
0.543949
0.555931
0.568394
0.58168
0.595504
0.609801
0.624552
0.640647
0.657526
0.675233
0.69377
0.714021
0.734788
0.756674
0.779379
0.803656
0.829164
0.855725
0.884923
0.916754
0.949002
0.979458
1.01094
1.05089
1.10256
1.15993
1.21783
1.27587
1.33269
1.3771
1.39662
1.39986
1.4
1.40001
1.40001
1.40001
1.40001
1.40001
1.40001
1.40001
1.40001
1.40001
1.40001
1.40001
1.40001
1.40001
1.40001
0.33905
0.34323
0.347423
0.350726
0.355245
0.360081
0.363934
0.368367
0.372955
0.377411
0.382434
0.386642
0.391347
0.396696
0.402211
0.406843
0.412579
0.418889
0.424957
0.431459
0.438317
0.445579
0.453459
0.461178
0.469373
0.478313
0.487174
0.496127
0.505756
0.515661
0.525651
0.535829
0.547103
0.558793
0.570685
0.583459
0.59677
0.610793
0.625668
0.641748
0.657993
0.675215
0.693443
0.712801
0.732816
0.754042
0.77609
0.799617
0.824683
0.851257
0.878835
0.907254
0.937983
0.971728
1.00711
1.04253
1.07971
1.12227
1.17239
1.23063
1.29337
1.35099
1.38766
1.39887
1.39998
1.4
1.40001
1.40001
1.40001
1.40001
1.40001
1.40001
1.40001
1.40001
1.40001
1.40001
1.40001
1.40001
1.40001
1.40001
0.350746
0.354031
0.358706
0.362839
0.365746
0.37034
0.375355
0.379533
0.383973
0.388512
0.393709
0.399597
0.404457
0.409389
0.415518
0.422317
0.427828
0.434158
0.440991
0.447734
0.454781
0.461973
0.469218
0.477194
0.485026
0.493007
0.501656
0.510777
0.519859
0.529754
0.540277
0.551418
0.562338
0.57442
0.587196
0.600369
0.614288
0.62897
0.644197
0.659762
0.676897
0.694895
0.713502
0.732764
0.753211
0.77492
0.798051
0.821905
0.846733
0.873372
0.902164
0.932755
0.964351
0.996418
1.02963
1.06612
1.10709
1.1527
1.20357
1.26047
1.3205
1.37067
1.3951
1.39976
1.4
1.40001
1.40001
1.40001
1.40001
1.40001
1.40001
1.40001
1.40001
1.40001
1.40001
1.40001
1.40001
1.40001
1.40001
1.40001
0.365404
0.369114
0.372784
0.377711
0.382077
0.385681
0.390259
0.395022
0.399695
0.404409
0.408778
0.414023
0.419633
0.424716
0.429738
0.435604
0.442003
0.447487
0.453913
0.46065
0.467232
0.474554
0.482017
0.489553
0.498154
0.506849
0.515531
0.524907
0.535157
0.545351
0.556094
0.567521
0.579774
0.591785
0.604685
0.61848
0.63253
0.647056
0.662731
0.679442
0.696258
0.713981
0.733124
0.753571
0.774614
0.796287
0.819266
0.844082
0.870367
0.897628
0.925973
0.956271
0.98926
1.02441
1.06039
1.09706
1.13595
1.17978
1.23156
1.29081
1.34849
1.38671
1.39876
1.39998
1.4
1.40001
1.40001
1.40001
1.40001
1.40001
1.40001
1.40001
1.40001
1.40001
1.40001
1.40001
1.40001
1.40001
1.40001
1.40001
0.378521
0.382653
0.38597
0.389352
0.394172
0.39838
0.402093
0.406306
0.410878
0.415823
0.42075
0.424914
0.430232
0.436346
0.441966
0.447255
0.453409
0.460526
0.466952
0.473823
0.481427
0.48894
0.497022
0.505512
0.513974
0.523109
0.532769
0.542482
0.552362
0.563185
0.574194
0.585317
0.597053
0.609956
0.622885
0.636218
0.650812
0.666168
0.681771
0.698154
0.716082
0.734936
0.754132
0.774205
0.795788
0.818689
0.842548
0.867328
0.893723
0.922184
0.952276
0.983511
1.01603
1.05057
1.08807
1.12862
1.17191
1.21908
1.27206
1.32849
1.37495
1.39622
1.39984
1.4
1.40001
1.40001
1.40001
1.40001
1.40001
1.40001
1.40001
1.40001
1.40001
1.40001
1.40001
1.40001
1.40001
1.40001
1.40001
1.40001
0.392252
0.396
0.400454
0.404034
0.407586
0.412371
0.416982
0.421393
0.425867
0.430625
0.436142
0.441754
0.446566
0.452166
0.458558
0.464856
0.470891
0.477359
0.48455
0.491628
0.49879
0.506609
0.51447
0.522549
0.53119
0.539919
0.548853
0.558616
0.568919
0.579099
0.590257
0.602317
0.614526
0.626918
0.640721
0.655267
0.669841
0.685188
0.701787
0.719219
0.737025
0.755904
0.77599
0.796962
0.818772
0.841781
0.86633
0.892126
0.91891
0.947115
0.977436
1.01004
1.04445
1.08032
1.11809
1.15893
1.20429
1.25551
1.31135
1.36237
1.39203