/*--------------------------------*- C++ -*----------------------------------*\
  =========                 |
  \\      /  F ield         | OpenFOAM: The Open Source CFD Toolbox
   \\    /   O peration     | Website:  https://openfoam.org
    \\  /    A nd           | Version:  7
     \\/     M anipulation  |
\*---------------------------------------------------------------------------*/
FoamFile
{
    version     2.0;
    format      ascii;
    class       volScalarField;
    location    "5.5";
    object      p;
}
// * * * * * * * * * * * * * * * * * * * * * * * * * * * * * * * * * * * * * //

dimensions      [1 -1 -2 0 0 0 0];

internalField   nonuniform List<scalar> 
90000
(
0.0636958
0.0934874
0.128458
0.157397
0.176493
0.201751
0.227403
0.242851
0.26141
0.283038
0.303269
0.324451
0.346985
0.37046
0.398605
0.427841
0.458128
0.490955
0.525787
0.561908
0.598274
0.634463
0.67296
0.706794
0.743217
0.773191
0.802038
0.824443
0.842408
0.850013
0.855298
0.852081
0.848206
0.8439
0.835676
0.823998
0.822071
0.823154
0.817321
0.806861
0.803103
0.79818
0.79258
0.79133
0.790597
0.787155
0.787739
0.785731
0.782293
0.784521
0.786182
0.786153
0.787736
0.792144
0.795195
0.795948
0.79362
0.791473
0.787845
0.783853
0.781733
0.781899
0.784887
0.791378
0.799134
0.808895
0.812669
0.81664
0.818163
0.814109
0.80724
0.799189
0.792236
0.786802
0.787088
0.788443
0.791307
0.793599
0.795366
0.797155
0.796837
0.794938
0.795127
0.799147
0.80717
0.81721
0.826834
0.835858
0.845168
0.851846
0.863402
0.865377
0.871851
0.880722
0.891233
0.901541
0.907995
0.909951
0.911851
0.922051
0.0361054
0.0360889
0.0360707
0.0360516
0.0360341
0.0360245
0.0360147
0.0360053
0.0359948
0.0359883
0.0359756
0.0359704
0.0359286
0.0361381
0.037081
0.0396266
0.0435859
0.0506183
0.0599941
0.0728631
0.0898433
0.110608
0.137291
0.171186
0.20913
0.258834
0.313483
0.375879
0.44471
0.516189
0.58815
0.655325
0.716259
0.761313
0.805798
0.82133
0.838427
0.840974
0.835939
0.821696
0.810674
0.799295
0.793658
0.78568
0.785711
0.791002
0.791376
0.793912
0.800976
0.802993
0.801717
0.801874
0.804006
0.807118
0.804452
0.800769
0.796822
0.795004
0.794762
0.798374
0.801927
0.806721
0.811021
0.815558
0.817811
0.818215
0.812034
0.800256
0.791433
0.78581
0.784524
0.786994
0.790102
0.794142
0.797092
0.799004
0.80215
0.802436
0.798321
0.793945
0.791925
0.793107
0.798577
0.808445
0.818015
0.827132
0.836274
0.843682
0.853576
0.859112
0.866831
0.871255
0.877158
0.888925
0.899412
0.907412
0.908626
0.910388
0.914672
0.927263
0.036211
0.0362122
0.036216
0.0362154
0.0362135
0.0362156
0.0362173
0.0362172
0.0362216
0.0362288
0.0362331
0.0362307
0.0362295
0.036228
0.0362267
0.036239
0.0362151
0.0361886
0.0361603
0.0361311
0.0361067
0.0360971
0.0360984
0.0361064
0.0361154
0.0361357
0.0361429
0.0377864
0.0428966
0.0560806
0.0756305
0.107605
0.149198
0.204486
0.266722
0.342563
0.415798
0.490628
0.563255
0.630286
0.697243
0.743599
0.794022
0.819122
0.848019
0.863368
0.871967
0.870462
0.872312
0.859186
0.842837
0.823889
0.800562
0.771972
0.738181
0.72666
0.72664
0.743527
0.772464
0.802066
0.823992
0.833824
0.830532
0.817263
0.800345
0.78672
0.779445
0.777613
0.782685
0.793145
0.802672
0.809601
0.812808
0.814062
0.806359
0.797268
0.787177
0.783958
0.785288
0.79071
0.796466
0.805844
0.816665
0.824287
0.831334
0.838539
0.846229
0.852355
0.861086
0.86579
0.871455
0.875811
0.883813
0.897914
0.90575
0.909734
0.909545
0.911402
0.920585
0.933241
0.0361467
0.0361529
0.0361636
0.0361694
0.0361688
0.036167
0.0361676
0.0361726
0.036181
0.0361881
0.0361926
0.0361935
0.0361974
0.0362037
0.0362119
0.0362167
0.0362159
0.0362095
0.0362028
0.0361979
0.0362007
0.0362146
0.036228
0.0362369
0.0362477
0.0362676
0.0363003
0.0363115
0.0363122
0.0363108
0.0363086
0.0363116
0.0363143
0.0363149
0.0363097
0.0368497
0.0405352
0.0543276
0.0777425
0.117304
0.167114
0.235417
0.306655
0.397399
0.482792
0.560691
0.644072
0.699836
0.759453
0.787412
0.819625
0.81778
0.815934
0.805785
0.797737
0.796226
0.797023
0.796591
0.789155
0.783349
0.781402
0.786014
0.79147
0.792118
0.793739
0.796683
0.797358
0.799363
0.803824
0.809675
0.809571
0.805471
0.797178
0.788379
0.784047
0.784529
0.789268
0.796828
0.804202
0.811644
0.818089
0.825479
0.829576
0.831857
0.836426
0.844424
0.853311
0.861507
0.867747
0.872375
0.874818
0.88269
0.895856
0.908747
0.913462
0.908607
0.906692
0.915245
0.927741
0.93716
0.0362897
0.0362934
0.0362977
0.0363016
0.036302
0.0363007
0.0363013
0.0363017
0.0362971
0.0362917
0.0362884
0.0362874
0.0362901
0.0362983
0.0363037
0.0363013
0.0362921
0.0362725
0.0362616
0.0362617
0.0362691
0.0362858
0.0362903
0.03629
0.0362889
0.0362972
0.0363264
0.036338
0.0363404
0.0363407
0.0363339
0.0363309
0.0363401
0.036347
0.0363477
0.0363356
0.0362973
0.0362641
0.0362504
0.0362382
0.036218
0.0361939
0.0361451
0.0413002
0.0537446
0.0865084
0.130958
0.207247
0.291199
0.399191
0.512405
0.614086
0.718249
0.784095
0.859935
0.865853
0.865809
0.856548
0.836019
0.802287
0.757934
0.727765
0.725537
0.739131
0.76819
0.800653
0.824612
0.833602
0.822177
0.799899
0.779072
0.764805
0.761609
0.771445
0.788164
0.804444
0.815721
0.819733
0.818121
0.815563
0.816316
0.821038
0.829454
0.840192
0.85174
0.863085
0.869177
0.872424
0.870355
0.874522
0.880409
0.899214
0.918247
0.912894
0.905197
0.903224
0.913644
0.929749
0.938985
0.940702
0.0363248
0.0363187
0.0363149
0.0363124
0.0363106
0.0363101
0.03631
0.0363097
0.036306
0.0362963
0.03629
0.0362906
0.0362944
0.0362988
0.0362983
0.0362922
0.0362787
0.036264
0.0362507
0.0362504
0.036266
0.0362851
0.036292
0.0362973
0.0363007
0.0362921
0.03629
0.0363068
0.0363161
0.036318
0.0363159
0.036305
0.0363065
0.0363076
0.0362976
0.0362501
0.0361694
0.0361242
0.0361285
0.0361396
0.0361339
0.0361206
0.0361025
0.0360759
0.0360374
0.0359858
0.0359446
0.0359364
0.0359443
0.0426503
0.061254
0.115639
0.19276
0.315194
0.449778
0.567224
0.674954
0.728566
0.774087
0.772801
0.766508
0.761803
0.767992
0.775871
0.784136
0.795507
0.811006
0.811663
0.802644
0.795215
0.787568
0.788429
0.783448
0.787281
0.797057
0.806978
0.813908
0.815736
0.815249
0.817458
0.823676
0.83831
0.852384
0.861705
0.864763
0.864684
0.864504
0.866565
0.871281
0.882977
0.897852
0.913507
0.910489
0.905449
0.908045
0.917113
0.937525
0.937105
0.927849
0.937303
0.0362826
0.0362775
0.0362741
0.0362727
0.0362726
0.0362725
0.0362747
0.03628
0.0362815
0.0362742
0.0362755
0.0362913
0.0362993
0.036299
0.0362908
0.0362693
0.0362543
0.0362465
0.0362309
0.0362196
0.0362301
0.0362558
0.0362648
0.0362662
0.0362663
0.036259
0.0362395
0.0362431
0.0362587
0.0362625
0.0362606
0.0362453
0.0362138
0.0361744
0.0361213
0.0360574
0.036015
0.0360084
0.0360305
0.0360676
0.0360736
0.0360648
0.0360481
0.0360304
0.0360068
0.0359615
0.0359213
0.0359032
0.0359152
0.0359412
0.0359505
0.0359379
0.0359102
0.0360073
0.0454529
0.0908599
0.167269
0.288911
0.437343
0.575324
0.713467
0.780332
0.815602
0.811413
0.806824
0.795866
0.772698
0.742733
0.743434
0.759752
0.779457
0.796213
0.811152
0.813624
0.804539
0.797253
0.796682
0.807763
0.822685
0.834775
0.84037
0.843993
0.856548
0.869273
0.872722
0.870064
0.866121
0.873478
0.88905
0.902209
0.908955
0.902435
0.905178
0.912639
0.9187
0.925777
0.928784
0.930457
0.936263
0.951514
0.0362931
0.0362935
0.0362924
0.0362881
0.0362855
0.0362841
0.0362838
0.036284
0.0362793
0.0362791
0.0363052
0.0363321
0.0363327
0.0363239
0.0362943
0.036269
0.036258
0.0362464
0.0362205
0.0361915
0.0361829
0.0361842
0.036185
0.0361814
0.0361714
0.0361658
0.0361578
0.0361407
0.0361303
0.0361247
0.0361144
0.0360873
0.036049
0.0360166
0.0359851
0.0359569
0.0359415
0.0359438
0.0359621
0.0359928
0.0360142
0.0360136
0.0360053
0.0359955
0.0359814
0.0359562
0.0359147
0.0358851
0.0358645
0.0358784
0.0359095
0.0359075
0.0358918
0.0358862
0.035786
0.0355997
0.0353454
0.0350301
0.0455816
0.0954244
0.199823
0.350129
0.506752
0.603001
0.693084
0.71114
0.725727
0.729303
0.755611
0.780607
0.809215
0.820313
0.827787
0.820897
0.810171
0.8032
0.802981
0.810007
0.825331
0.841103
0.856264
0.865311
0.857896
0.851903
0.857184
0.869491
0.879767
0.883974
0.889225
0.907153
0.912895
0.911336
0.910144
0.91329
0.923946
0.928593
0.929551
0.938886
0.946355
0.95326
0.0362971
0.0362974
0.0362968
0.0362942
0.0362934
0.0362922
0.036282
0.0362836
0.0362918
0.0362924
0.0362879
0.0362703
0.0362447
0.0362243
0.0362125
0.0362046
0.0361931
0.036169
0.0361329
0.0361012
0.0360802
0.0360696
0.0360697
0.0360774
0.0360765
0.0360695
0.0360473
0.0360272
0.0360294
0.0360298
0.0360199
0.0359952
0.0359665
0.0359545
0.0359489
0.0359383
0.0359219
0.0359109
0.0359097
0.0359232
0.0359415
0.0359494
0.0359478
0.035941
0.035928
0.0359047
0.0358656
0.0358263
0.0358006
0.0357821
0.0357708
0.0357298
0.0356146
0.0354073
0.0351533
0.0348857
0.0346508
0.0344957
0.034507
0.0345021
0.034376
0.0385275
0.0635709
0.143479
0.264286
0.417102
0.587716
0.692808
0.780062
0.788313
0.808306
0.818841
0.814471
0.797964
0.801441
0.807481
0.813834
0.820979
0.828049
0.8369
0.850104
0.867836
0.87477
0.868698
0.861244
0.863675
0.881791
0.899755
0.907351
0.89783
0.897671
0.906298
0.914375
0.918934
0.922941
0.939123
0.940921
0.940452
0.946327
0.958448
0.0362181
0.0362115
0.0362032
0.0361927
0.0361818
0.0361685
0.0361496
0.0361303
0.0361138
0.0360978
0.0360807
0.0360637
0.0360596
0.0360725
0.0360746
0.0360707
0.0360611
0.036037
0.0360209
0.036013
0.0360041
0.0359933
0.0359936
0.0360124
0.0360172
0.0360026
0.0359634
0.035953
0.0359793
0.0359952
0.0359913
0.0359705
0.0359479
0.035945
0.0359468
0.035942
0.0359245
0.0358951
0.0358487
0.0358203
0.0358094
0.0357976
0.0357889
0.0358095
0.0358126
0.0357937
0.035721
0.0355512
0.0353408
0.0351543
0.0350206
0.0349159
0.0348148
0.0347139
0.034621
0.0345146
0.0343721
0.0342723
0.0342283
0.0341718
0.0340748
0.0339546
0.0338684
0.0338241
0.0338017
0.0513938
0.107653
0.24493
0.414735
0.553019
0.680509
0.726045
0.765048
0.781093
0.81947
0.832768
0.844989
0.847482
0.84591
0.846969
0.853739
0.857415
0.864266
0.866198
0.8686
0.87377
0.883792
0.895758
0.912813
0.913342
0.906675
0.905397
0.912731
0.925153
0.932577
0.924251
0.929511
0.943214
0.952787
0.960442
0.0360569
0.0360431
0.0360302
0.0360191
0.0360112
0.0360033
0.0359947
0.0359869
0.0359789
0.0359655
0.0359399
0.035927
0.0359353
0.0359751
0.0359864
0.0359836
0.0359752
0.0359764
0.0359854
0.0359825
0.0359683
0.0359558
0.0359647
0.0359778
0.0359745
0.0359434
0.0359129
0.0359159
0.0359558
0.0359733
0.0359692
0.0359448
0.0359136
0.0358929
0.0358818
0.0358677
0.0358332
0.0357454
0.0355683
0.0354057
0.0353279
0.0352718
0.035182
0.035131
0.0350949
0.0350199
0.0348762
0.0346959
0.0345651
0.0345523
0.0345679
0.0345686
0.0345516
0.0345217
0.0344851
0.0343946
0.0341965
0.0340167
0.0339572
0.0339426
0.033908
0.0338695
0.0338394
0.0338633
0.0341039
0.034784
0.0359944
0.036928
0.0461192
0.111076
0.219274
0.38831
0.587759
0.707126
0.793921
0.81317
0.847161
0.861937
0.856444
0.843126
0.84289
0.846592
0.854171
0.866924
0.882848
0.894151
0.901007
0.901754
0.902835
0.906178
0.90769
0.910136
0.915765
0.923352
0.937523
0.939798
0.936494
0.942777
0.954773
0.963705
0.0358691
0.035866
0.0358653
0.0358737
0.0358874
0.0358919
0.0358922
0.0358987
0.0359026
0.0358976
0.0358855
0.0358858
0.0359301
0.0359925
0.0359959
0.0359859
0.0359765
0.035985
0.0359944
0.0359879
0.0359548
0.0359304
0.0359253
0.0359291
0.0359212
0.0358785
0.0358374
0.0358358
0.0358694
0.0358794
0.0358706
0.0358276
0.0357171
0.0355642
0.0354504
0.035341
0.0351802
0.0349861
0.0347457
0.0344945
0.0343397
0.0342963
0.0342678
0.0342186
0.0342281
0.0342706
0.0342853
0.0342957
0.0343397
0.034402
0.0344204
0.0344023
0.0343809
0.0343528
0.0343006
0.0341524
0.0339332
0.033865
0.033885
0.0339072
0.0339077
0.033981
0.034326
0.0353737
0.0370406
0.0389411
0.0400387
0.0409155
0.0416941
0.0415729
0.0412543
0.0530862
0.104012
0.254261
0.443641
0.609711
0.741732
0.786253
0.832531
0.858107
0.869649
0.866166
0.879199
0.881507
0.890539
0.901008
0.898253
0.887785
0.890219
0.901174
0.913721
0.922105
0.928761
0.930981
0.931001
0.936205
0.941659
0.948186
0.95412
0.961721
0.0358991
0.0359028
0.0359166
0.0359591
0.0359685
0.0359668
0.0359516
0.0359472
0.0359487
0.0359421
0.0359333
0.0359406
0.0359989
0.0360201
0.0360153
0.0359971
0.0359438
0.0358942
0.0358655
0.035835
0.0357814
0.0357043
0.035646
0.0355952
0.0355239
0.035404
0.0352545
0.0351738
0.0351293
0.0350858
0.0350033
0.0348267
0.0345836
0.0343983
0.0342806
0.034203
0.0341404
0.0340794
0.0339826
0.0338974
0.0338885
0.0339017
0.0339132
0.0339362
0.0340238
0.0341544
0.0342229
0.034305
0.0343182
0.034278
0.0342083
0.0341679
0.0341689
0.0341738
0.0341531
0.034038
0.0338737
0.033858
0.0339084
0.0342248
0.0351171
0.0366354
0.0384439
0.0400457
0.0413639
0.0422082
0.0422722
0.0422363
0.0420845
0.042007
0.0430126
0.0449138
0.0471119
0.047972
0.0596668
0.141446
0.283756
0.474057
0.674588
0.760301
0.812513
0.849415
0.909982
0.893373
0.892799
0.897578
0.889725
0.895847
0.908949
0.916265
0.920816
0.923819
0.925068
0.921642
0.9278
0.94414
0.95681
0.958282
0.957964
0.963267
0.0358153
0.0358
0.0357779
0.03574
0.0356949
0.0356488
0.0355922
0.0355223
0.0354563
0.0354005
0.0353414
0.0352548
0.0351443
0.035033
0.0349311
0.0348387
0.0347551
0.0346747
0.0345825
0.0344738
0.0343774
0.0343038
0.034244
0.034183
0.0340994
0.0340141
0.0339271
0.0338857
0.0338754
0.0338633
0.0338354
0.033784
0.0337417
0.0337305
0.0337411
0.0338228
0.033929
0.0339295
0.0338845
0.0338665
0.0339197
0.034005
0.0340383
0.034069
0.0341585
0.0342769
0.0343238
0.0343154
0.0342418
0.0340741
0.0340456
0.0340703
0.0341227
0.0341606
0.0341721
0.0342539
0.0345961
0.0354118
0.0367517
0.0384914
0.0402307
0.0416346
0.0425398
0.042946
0.0432664
0.0432616
0.043209
0.0428104
0.0430875
0.0448081
0.0475767
0.0507216
0.0527756
0.0529216
0.0526975
0.0529065
0.0534761
0.0826009
0.170168
0.358746
0.564179
0.713128
0.802222
0.84105
0.912246
0.92789
0.906349
0.907834
0.90759
0.90285
0.913004
0.923169
0.931501
0.939336
0.944378
0.951944
0.956108
0.952287
0.949992
0.957068
0.0341685
0.0340948
0.0340186
0.0339318
0.0338328
0.0337452
0.0336746
0.0336115
0.033562
0.0335192
0.0334715
0.0334202
0.0333818
0.0333615
0.0333403
0.0333009
0.0332886
0.0333061
0.0333645
0.0334259
0.0334719
0.0335007
0.033517
0.0335541
0.0335816
0.0335795
0.0335754
0.0335885
0.033621
0.0336317
0.033641
0.0336706
0.0337404
0.033772
0.0338261
0.0340685
0.0343509
0.0343731
0.0343237
0.0343047
0.0343593
0.0344274
0.0344184
0.0343436
0.0343128
0.0343259
0.0343434
0.0343339
0.034219
0.0340535
0.0340493
0.0342092
0.0347587
0.0357452
0.0371059
0.0385069
0.0400361
0.0415904
0.0427127
0.0432827
0.0435746
0.0437358
0.0438445
0.0438615
0.0437014
0.0436788
0.044356
0.0463815
0.0492925
0.0514936
0.0525162
0.0536392
0.054847
0.0548456
0.0543722
0.0545452
0.0563302
0.0593693
0.0607976
0.0652424
0.10349
0.22681
0.412961
0.633569
0.779616
0.826593
0.87257
0.937265
0.929077
0.918847
0.922988
0.922983
0.93553
0.943971
0.948257
0.949497
0.951307
0.95782
0.963012
0.969299
0.0330659
0.0330544
0.033036
0.0330044
0.0329276
0.0328168
0.0327859
0.0327857
0.0327905
0.0328017
0.032814
0.0328305
0.0328586
0.0328934
0.0329198
0.0329332
0.0329474
0.0330058
0.0331438
0.0332964
0.0334004
0.0334702
0.0335272
0.0335987
0.0337479
0.0338214
0.033824
0.0338076
0.0337996
0.033831
0.0339661
0.0340732
0.0342014
0.0342659
0.0343042
0.0344236
0.0346326
0.034772
0.0347986
0.034767
0.0347462
0.0347623
0.0347565
0.0346321
0.0346255
0.0346874
0.0348564
0.0352798
0.0360134
0.0369326
0.0379254
0.0392205
0.0407411
0.0423327
0.043297
0.0437904
0.0441623
0.0446138
0.0448727
0.0448204
0.044667
0.0443421
0.0443139
0.044672
0.0456235
0.0477617
0.0504506
0.0530944
0.0553145
0.0558834
0.0555885
0.0552385
0.0555603
0.0563432
0.057776
0.0595044
0.0612375
0.0636497
0.0658326
0.0660762
0.0659171
0.0663139
0.0750956
0.154564
0.30548
0.514002
0.736914
0.824568
0.874896
0.931346
0.948568
0.932083
0.935064
0.933663
0.944111
0.951365
0.964356
0.970662
0.965152
0.963099
0.0333699
0.0334117
0.033444
0.0334372
0.0334156
0.0334084
0.033417
0.0334623
0.033549
0.0336134
0.033674
0.0338147
0.0340149
0.0340541
0.0340393
0.0339919
0.0339741
0.0339993
0.0342046
0.034542
0.034637
0.0346391
0.0346386
0.0346546
0.0347377
0.0347745
0.0347505
0.0347455
0.0347883
0.0348932
0.0348865
0.0347957
0.0347706
0.034893
0.0349509
0.0348851
0.0349139
0.03522
0.035955
0.0363965
0.0365554
0.0367539
0.0371951
0.038131
0.0392371
0.0400958
0.0408758
0.0416459
0.0424369
0.0433268
0.0442543
0.0448899
0.0451333
0.0453763
0.0455573
0.0455508
0.0454486
0.0454161
0.0454624
0.0455786
0.0460722
0.0472989
0.0492877
0.0514259
0.0535808
0.0553944
0.0561054
0.0566179
0.057322
0.0575186
0.0572345
0.0566701
0.0569815
0.0590318
0.0628207
0.0662974
0.0668446
0.0670354
0.0679042
0.0686009
0.0696389
0.0718596
0.0746151
0.0748283
0.0750523
0.107316
0.221684
0.417923
0.672874
0.820586
0.9039
0.912456
0.967977
0.959836
0.955412
0.947642
0.951496
0.957857
0.967589
0.976536
0.0350635
0.035069
0.0350572
0.0349748
0.0348918
0.0348859
0.0348935
0.0349153
0.0349338
0.0349516
0.0350057
0.035174
0.0353418
0.0353504
0.035264
0.035088
0.0350534
0.0350775
0.0352342
0.0355055
0.0355804
0.0356115
0.0356806
0.0358498
0.0359993
0.0359709
0.0359467
0.0359944
0.0363035
0.0368458
0.0371189
0.0372468
0.0373918
0.0378303
0.0382802
0.0386145
0.0392015
0.0399978
0.0407824
0.0416003
0.0423654
0.0429555
0.0434977
0.0440743
0.0446659
0.0451857
0.0455418
0.0457324
0.0458766
0.0461903
0.0467782
0.0468463
0.0466702
0.0466144
0.0467733
0.0469248
0.0471175
0.0476034
0.0487521
0.0506085
0.0527716
0.0550968
0.0569014
0.0576008
0.058166
0.0585762
0.0584346
0.0580018
0.05801
0.0585821
0.0603152
0.0631294
0.0654529
0.0665357
0.0677456
0.0695511
0.0697594
0.0695935
0.0698788
0.0715961
0.0747465
0.0776427
0.077741
0.0781156
0.0794909
0.0814719
0.0828962
0.0928423
0.162643
0.342404
0.606572
0.786961
0.892431
0.914464
0.973311
0.977545
0.970606
0.958422
0.9573
0.971174
0.0367481
0.0367201
0.0366089
0.0365817
0.0366017
0.0366681
0.0368219
0.0370812
0.0373809
0.0375991
0.0378374
0.0382363
0.0384577
0.0384404
0.0383977
0.03841
0.0385165
0.0388423
0.0394353
0.0398828
0.0400253
0.0401582
0.0405353
0.0411839
0.0416324
0.0417338
0.0417734
0.0419165
0.0423809
0.0430846
0.0436504
0.0440183
0.0442404
0.0443699
0.0445507
0.0449261
0.0457813
0.046242
0.0462226
0.0462449
0.0464592
0.0467716
0.0469804
0.0471044
0.0473383
0.0476778
0.0477163
0.0477323
0.0478077
0.0480638
0.0487601
0.0493722
0.0499278
0.0505451
0.0514691
0.0529477
0.05461
0.0560454
0.0569002
0.0576563
0.0583193
0.0590386
0.0599708
0.0601163
0.060157
0.0603158
0.0606334
0.0612148
0.0621148
0.0637472
0.0660207
0.0688508
0.0711363
0.0712192
0.0709437
0.071146
0.0719644
0.0734972
0.075004
0.0771227
0.0795734
0.08104
0.0818244
0.0828142
0.0844214
0.0867374
0.0895673
0.0918563
0.0917445
0.0921149
0.129662
0.304795
0.543606
0.743807
0.897391
0.919441
0.968283
0.985549
0.982788
0.974891
0.0420185
0.0421112
0.0422268
0.0423322
0.0424958
0.0427509
0.0430653
0.0433527
0.0436132
0.0438343
0.0439745
0.043986
0.043991
0.044044
0.0441703
0.0443296
0.0445088
0.0446726
0.0449459
0.045125
0.0451441
0.0452379
0.0457674
0.0463141
0.0463078
0.046192
0.046195
0.046365
0.0468804
0.0473876
0.0476215
0.0477487
0.0477476
0.0477229
0.0477902
0.0481397
0.0487815
0.0489437
0.0489253
0.0490048
0.0493712
0.0497843
0.0499703
0.050139
0.0504754
0.0509584
0.0513582
0.0517211
0.0522859
0.0530675
0.0540853
0.0554287
0.0566982
0.057716
0.0584677
0.0592089
0.0602001
0.0610851
0.0614003
0.061664
0.0616938
0.0616019
0.061915
0.0626579
0.0634538
0.0646295
0.0664551
0.0686101
0.0707077
0.0718074
0.0718131
0.0721
0.0732828
0.0740861
0.0743068
0.0747408
0.0769
0.0800696
0.0825786
0.0839974
0.0839929
0.0843422
0.0856087
0.08777
0.0897732
0.0919945
0.0943853
0.0953833
0.096223
0.0978361
0.100255
0.101425
0.120794
0.261416
0.497397
0.711051
0.894583
0.923258
0.972333
0.999338
0.0473978
0.0473509
0.0473446
0.0473473
0.0474345
0.0477535
0.0483822
0.0489292
0.0489622
0.0488632
0.0486113
0.0483042
0.0482125
0.0482252
0.0482794
0.0483859
0.0485359
0.0487226
0.0489622
0.0491391
0.0491654
0.0492598
0.0497166
0.0498252
0.0496407
0.0495503
0.0496704
0.0500516
0.0505798
0.0509822
0.0512473
0.0514688
0.0516763
0.0519
0.0522598
0.0526168
0.0530052
0.0535696
0.0541863
0.054715
0.0551433
0.0557445
0.0566702
0.0575326
0.0579371
0.05823
0.0586349
0.0592671
0.0600016
0.0606154
0.060975
0.0612626
0.0616346
0.0620618
0.0624127
0.0627993
0.0634503
0.0641809
0.0648265
0.0654534
0.0663601
0.0674166
0.0682758
0.0692202
0.0703677
0.0716317
0.0727597
0.0736687
0.0749187
0.0759103
0.0758799
0.0755564
0.0760357
0.0782389
0.0811235
0.0829902
0.0841799
0.0857392
0.0874304
0.0879353
0.0885144
0.089432
0.091195
0.0935447
0.0969182
0.0986601
0.0989376
0.100296
0.10177
0.103095
0.10542
0.108436
0.10933
0.110403
0.12006
0.241243
0.46491
0.700163
0.889123
0.95355
0.0531949
0.0529736
0.0527838
0.0527594
0.0527479
0.053067
0.0541304
0.0543532
0.0540397
0.0529577
0.0527647
0.0528394
0.0531712
0.053729
0.0541786
0.0544223
0.0546173
0.0548607
0.0552231
0.0557208
0.0561015
0.0561445
0.0561204
0.0561511
0.0562127
0.0563958
0.0570166
0.0574311
0.0574424
0.0573535
0.0573369
0.0574645
0.057799
0.0582078
0.0586566
0.0587902
0.058806
0.0589191
0.0592645
0.0598419
0.0603885
0.0607623
0.0612386
0.0616701
0.0621069
0.0626193
0.0632131
0.0638655
0.0644862
0.0651129
0.0656941
0.0660366
0.0663675
0.0666314
0.066984
0.0675622
0.0683824
0.0694681
0.0705551
0.071594
0.0728187
0.0743127
0.0755139
0.0762086
0.0766065
0.0769162
0.0772924
0.0775536
0.0780142
0.0792586
0.0811262
0.0828395
0.0840641
0.0855407
0.0881559
0.0903176
0.0904725
0.090748
0.0914132
0.0925187
0.0938931
0.0963218
0.0990666
0.10043
0.102267
0.103247
0.10363
0.104469
0.106768
0.10926
0.111696
0.115344
0.116347
0.117181
0.118943
0.120049
0.125162
0.23685
0.431164
0.781161
0.0577517
0.0577597
0.0578159
0.0580011
0.0584391
0.0586783
0.0586647
0.0582883
0.0579471
0.0579562
0.0581548
0.0587687
0.0593791
0.0595984
0.0596857
0.0598084
0.0599965
0.0600991
0.0602309
0.0604924
0.0605869
0.0606111
0.06069
0.0609655
0.0612785
0.0614526
0.0616991
0.0619794
0.0620878
0.0622048
0.0623994
0.062891
0.0637088
0.0643779
0.0649815
0.0654426
0.0654752
0.0654613
0.065493
0.0658074
0.0662828
0.0665522
0.0667571
0.0671641
0.0679334
0.0687779
0.0694045
0.0699625
0.0706405
0.0713299
0.0722179
0.0733761
0.0743768
0.0750549
0.0756818
0.076478
0.0770441
0.0772611
0.0774677
0.0778065
0.0781877
0.0787349
0.0795477
0.08042
0.0812324
0.0819982
0.0829332
0.0840553
0.08513
0.0864678
0.0885506
0.0912203
0.0929752
0.0932567
0.0938167
0.0950119
0.0953756
0.0954789
0.0964174
0.0984595
0.101115
0.103008
0.105287
0.10703
0.107087
0.108197
0.110144
0.111988
0.114687
0.118043
0.119263
0.120665
0.121803
0.122382
0.123353
0.127121
0.130763
0.131722
0.134667
0.341009
0.0646991
0.0649543
0.0652139
0.0654221
0.0656036
0.0657683
0.0658207
0.0658
0.0658052
0.0658135
0.0658283
0.0659825
0.0661253
0.0661395
0.0661674
0.066306
0.0667213
0.0669314
0.0669877
0.0670537
0.0672949
0.0676822
0.067969
0.0682294
0.0683524
0.0684556
0.0686786
0.0692843
0.0699565
0.0703981
0.070732
0.071419
0.0720377
0.0720636
0.0721728
0.0727485
0.0731758
0.0733117
0.0734589
0.0739043
0.0747374
0.0756584
0.0763468
0.0767295
0.0770118
0.0774131
0.0777678
0.0779391
0.0779457
0.0778909
0.077943
0.0783559
0.0790253
0.0796752
0.080362
0.0811013
0.0816158
0.0820235
0.082603
0.0833377
0.0838209
0.08418
0.0848632
0.0861476
0.0879552
0.0900583
0.09214
0.0940921
0.0955246
0.0961631
0.0965347
0.0975124
0.098865
0.0989751
0.0989259
0.0994323
0.10084
0.102995
0.104927
0.107138
0.110008
0.111205
0.1118
0.113105
0.114352
0.115323
0.117191
0.119552
0.121809
0.124792
0.124759
0.124645
0.126495
0.130256
0.134118
0.136266
0.137155
0.137337
0.138445
0.141832
0.0730608
0.0733579
0.073627
0.0736573
0.0736553
0.0736567
0.0737072
0.0739053
0.0743118
0.0746117
0.074669
0.0747209
0.0748308
0.0749738
0.075134
0.0753457
0.0756436
0.0759914
0.0762909
0.0765523
0.0767658
0.0769901
0.0772603
0.0774402
0.0775034
0.0775244
0.0777021
0.0780434
0.0781206
0.0781919
0.0784075
0.0788345
0.0789217
0.0788646
0.0789318
0.0792825
0.0797244
0.0799933
0.0802855
0.0808581
0.0811492
0.0813767
0.0817777
0.0819495
0.0820195
0.0822951
0.0830045
0.0837551
0.0845055
0.0851676
0.0852986
0.08525
0.0852948
0.0857146
0.0868171
0.0879934
0.0890591
0.0903167
0.0919891
0.0938942
0.0957173
0.0972625
0.0981919
0.0986124
0.0990195
0.0996083
0.100269
0.101149
0.10217
0.102452
0.102293
0.102288
0.103141
0.104577
0.106271
0.107862
0.110343
0.113039
0.115363
0.11656
0.117247
0.118651
0.118792
0.119283
0.121061
0.12338
0.125787
0.128252
0.129672
0.131355
0.133298
0.134272
0.135101
0.137676
0.141755
0.142173
0.142971
0.144239
0.14555
0.149563
0.0819601
0.0820202
0.0821421
0.0822828
0.0823713
0.0823921
0.0824064
0.0824501
0.0825437
0.0826559
0.0828213
0.0830916
0.0831906
0.083162
0.0831548
0.083235
0.0834501
0.0836967
0.0838795
0.0839047
0.0838467
0.0838138
0.0839462
0.0843595
0.0846939
0.0848495
0.0850066
0.0852421
0.0855643
0.0859145
0.0863047
0.0867461
0.0871802
0.0876634
0.0881283
0.0882133
0.0881654
0.0882003
0.0885129
0.08942
0.0897489
0.0897721
0.0898997
0.0903119
0.0910452
0.0921591
0.0929911
0.0935535
0.0943428
0.0954575
0.096484
0.0972954
0.0979886
0.0989343
0.100596
0.101539
0.101591
0.10163
0.101855
0.102402
0.103071
0.103882
0.104819
0.105445
0.105602
0.105464
0.105144
0.105181
0.105964
0.107733
0.109665
0.111376
0.11293
0.115512
0.11834
0.120501
0.122081
0.122805
0.123534
0.123729
0.123866
0.124705
0.12639
0.128586
0.130919
0.133487
0.135832
0.137684
0.137638
0.137693
0.139145
0.141467
0.144314
0.145704
0.147687
0.150339
0.152604
0.154649
0.155936
0.15804
0.0915203
0.0914131
0.0913254
0.0913285
0.091393
0.0917214
0.0920385
0.0920822
0.0920985
0.0921854
0.0924482
0.0926684
0.0926928
0.0927032
0.0927813
0.0930031
0.0934275
0.0937638
0.0938798
0.0939744
0.0941348
0.09438
0.0946916
0.0950579
0.095286
0.0955871
0.0958915
0.0960314
0.0961957
0.0964174
0.0967539
0.0971624
0.0975049
0.0978226
0.0982079
0.0986836
0.0992226
0.0997391
0.100336
0.100958
0.10162
0.102318
0.102928
0.103327
0.10388
0.104519
0.104554
0.104568
0.104819
0.105402
0.106201
0.107078
0.107355
0.107456
0.108003
0.108778
0.109289
0.109978
0.11037
0.110241
0.109858
0.109811
0.110336
0.111952
0.114195
0.116291
0.117956
0.118907
0.119871
0.121575
0.124216
0.126817
0.127828
0.128187
0.128612
0.129177
0.129438
0.129532
0.129567
0.130086
0.131793
0.134099
0.13701
0.140048
0.142447
0.143611
0.144463
0.144773
0.145488
0.146696
0.148285
0.151743
0.155387
0.157082
0.157734
0.158618
0.159458
0.160739
0.163202
0.167019
0.103656
0.103732
0.103826
0.103936
0.104081
0.10425
0.104426
0.10457
0.104699
0.104789
0.104878
0.104966
0.105076
0.105341
0.105703
0.105935
0.106096
0.106166
0.106252
0.106371
0.106598
0.106956
0.107252
0.107384
0.107521
0.107738
0.108057
0.108464
0.108828
0.10907
0.109266
0.109515
0.10988
0.110316
0.110695
0.111006
0.111305
0.111647
0.111825
0.111893
0.112027
0.112345
0.112766
0.11311
0.113407
0.113852
0.114592
0.115271
0.115733
0.116264
0.116801
0.116895
0.116774
0.11682
0.117478
0.118719
0.119585
0.120577
0.121974
0.123338
0.124611
0.125648
0.126375
0.1272
0.128316
0.129631
0.131093
0.132565
0.133658
0.133644
0.133652
0.134091
0.134825
0.134696
0.134803
0.135053
0.135969
0.13761
0.140274
0.143538
0.146505
0.148932
0.151001
0.152035
0.152648
0.152671
0.152869
0.153646
0.155804
0.158653
0.161579
0.163908
0.163838
0.164462
0.164945
0.165776
0.168174
0.172221
0.174933
0.177401
0.116838
0.116917
0.117008
0.117109
0.117233
0.117355
0.117465
0.117609
0.117704
0.117742
0.117817
0.117935
0.118078
0.118213
0.118415
0.118622
0.11875
0.118841
0.118897
0.119127
0.119512
0.119683
0.119749
0.119852
0.12006
0.12027
0.120447
0.120691
0.121078
0.121425
0.121585
0.121676
0.121828
0.122109
0.122469
0.122758
0.123054
0.123436
0.123823
0.12415
0.124506
0.125033
0.125665
0.126179
0.126554
0.126922
0.127397
0.127804
0.128199
0.12871
0.12949
0.13064
0.131749
0.132837
0.134185
0.134697
0.134809
0.135143
0.136197
0.137104
0.137914
0.138999
0.139927
0.140908
0.141122
0.140927
0.140839
0.141423
0.143082
0.144063
0.144106
0.144225
0.145198
0.147511
0.149796
0.152023
0.154287
0.1565
0.158099
0.159583
0.160053
0.160399
0.160587
0.160435
0.160168
0.160845
0.162716
0.165729
0.168459
0.170661
0.172932
0.173487
0.174067
0.175046
0.176912
0.179981
0.182276
0.184507
0.184601
0.185161
0.132575
0.13265
0.13271
0.132792
0.133064
0.133451
0.133513
0.133479
0.133427
0.133443
0.133578
0.13396
0.134281
0.134299
0.134293
0.134456
0.134837
0.134929
0.134969
0.135161
0.135412
0.135532
0.135688
0.135921
0.136348
0.136669
0.136859
0.137069
0.137312
0.137627
0.137959
0.138184
0.138452
0.138863
0.139218
0.139509
0.139811
0.140185
0.140641
0.141088
0.141528
0.141909
0.142334
0.142809
0.143276
0.14373
0.144212
0.144749
0.145373
0.145953
0.146473
0.146921
0.147127
0.147323
0.147792
0.148598
0.149446
0.15049
0.151137
0.151046
0.150943
0.151191
0.151973
0.153286
0.154451
0.155104
0.155539
0.15608
0.157165
0.159082
0.160997
0.162407
0.163332
0.164556
0.166041
0.167203
0.167693
0.168378
0.168428
0.168283
0.167974
0.168128
0.168952
0.170761
0.173643
0.17722
0.180197
0.182817
0.183948
0.184636
0.184658
0.1851
0.186196
0.187744
0.189213
0.191408
0.191344
0.191356
0.192578
0.196386
0.151129
0.151174
0.151213
0.151271
0.151347
0.151501
0.151746
0.151857
0.151939
0.152021
0.152054
0.152155
0.152196
0.152187
0.152393
0.152909
0.153051
0.153023
0.153047
0.153379
0.153466
0.153464
0.153765
0.154091
0.154061
0.154125
0.154706
0.15509
0.155224
0.155323
0.155408
0.155588
0.155917
0.156284
0.156562
0.156804
0.157134
0.157507
0.157821
0.158119
0.158452
0.158746
0.159026
0.159312
0.159671
0.160081
0.16037
0.16059
0.16086
0.161226
0.161688
0.162217
0.16278
0.163435
0.164315
0.164744
0.164753
0.164969
0.165698
0.166739
0.168204
0.169612
0.170071
0.170507
0.171148
0.172096
0.173561
0.175353
0.176636
0.176974
0.177384
0.178367
0.179349
0.179794
0.180441
0.180821
0.181144
0.181806
0.183063
0.18451
0.186285
0.188255
0.190537
0.192587
0.194423
0.195389
0.195744
0.195613
0.1954
0.19492
0.195133
0.196337
0.198261
0.200448
0.202277
0.203752
0.205473
0.207254
0.208236
0.209855
0.173118
0.173226
0.173134