/*--------------------------------*- C++ -*----------------------------------*\
  =========                 |
  \\      /  F ield         | OpenFOAM: The Open Source CFD Toolbox
   \\    /   O peration     | Website:  https://openfoam.org
    \\  /    A nd           | Version:  7
     \\/     M anipulation  |
\*---------------------------------------------------------------------------*/
FoamFile
{
    version     2.0;
    format      ascii;
    class       volScalarField;
    location    "0.72";
    object      rho;
}
// * * * * * * * * * * * * * * * * * * * * * * * * * * * * * * * * * * * * * //

dimensions      [1 -3 0 0 0 0 0];

internalField   nonuniform List<scalar> 
324000
(
0.46302
0.62849
0.829015
1.01485
1.12398
1.10038
1.07087
1.05435
1.04482
1.04957
1.06236
1.06909
1.06564
1.06285
1.05818
1.05522
1.05464
1.05893
1.06034
1.06033
1.06159
1.06282
1.06306
1.06401
1.06486
1.06523
1.06607
1.06879
1.0732
1.07579
1.07586
1.0756
1.07609
1.07752
1.07967
1.08119
1.08253
1.08536
1.08888
1.0913
1.09151
1.08985
1.08667
1.08179
1.07763
1.07578
1.07476
1.07516
1.07669
1.07827
1.08075
1.08366
1.08819
1.09675
1.10782
1.11849
1.1277
1.13528
1.14575
1.1578
1.17445
1.18699
1.19726
1.19859
1.19658
1.22291
1.28628
1.3275
1.33553
1.34809
1.3597
1.36264
1.36687
1.37297
1.38083
1.38989
1.39709
1.39982
1.40009
1.40005
0.33015
0.3305
0.377172
0.577399
0.838026
1.00245
1.09096
1.0638
1.03512
1.03774
1.04442
1.03669
1.03018
1.03297
1.03616
1.03344
1.03082
1.03404
1.03712
1.039
1.04049
1.04017
1.03854
1.03847
1.03925
1.04002
1.04147
1.04388
1.04748
1.04802
1.04726
1.0465
1.04751
1.0495
1.05215
1.05425
1.05534
1.05676
1.05854
1.05919
1.05891
1.05616
1.05252
1.04742
1.04319
1.04083
1.03971
1.03942
1.04046
1.04265
1.0461
1.05151
1.05821
1.06875
1.08126
1.09068
1.09871
1.10719
1.11791
1.12948
1.14596
1.15641
1.17173
1.1839
1.18679
1.21541
1.28564
1.32497
1.33279
1.3486
1.35888
1.36167
1.36605
1.37215
1.38014
1.38943
1.39688
1.39977
1.40008
1.40005
0.330873
0.331208
0.331589
0.331727
0.382951
0.57291
0.822175
0.979874
1.05473
1.05251
1.03199
1.01542
1.01872
1.02773
1.03404
1.02915
1.02749
1.02958
1.02908
1.03042
1.03293
1.0335
1.03278
1.03161
1.03077
1.03081
1.03189
1.03378
1.03595
1.03584
1.03572
1.03493
1.0348
1.03509
1.03642
1.03756
1.03827
1.0388
1.03923
1.0394
1.0388
1.0353
1.03081
1.02539
1.02012
1.01706
1.01595
1.01636
1.01604
1.01621
1.01896
1.02422
1.03067
1.04018
1.0493
1.05474
1.06058
1.06904
1.07971
1.09614
1.11751
1.13414
1.14406
1.16753
1.177
1.20907
1.28516
1.32164
1.33123
1.34944
1.35792
1.36076
1.3652
1.3713
1.37944
1.38898
1.39668
1.39972
1.40007
1.40005
0.331447
0.331746
0.331955
0.332075
0.33208
0.332038
0.373875
0.553472
0.820595
0.983528
1.01932
1.02565
1.02019
1.02613
1.03012
1.02427
1.02977
1.03378
1.03135
1.03082
1.03398
1.03586
1.03592
1.03492
1.03285
1.03169
1.03226
1.03298
1.03268
1.03252
1.03255
1.03287
1.03284
1.03359
1.03382
1.0331
1.03242
1.03301
1.03411
1.03489
1.03439
1.03067
1.02536
1.01843
1.01176
1.00684
1.0035
1.00115
1.00099
1.00243
1.00473
1.00839
1.01278
1.01778
1.02261
1.02523
1.02866
1.03771
1.05316
1.07605
1.1025
1.12303
1.13064
1.14991
1.16976
1.20285
1.28225
1.31707
1.33058
1.35016
1.35688
1.35986
1.36431
1.37043
1.37873
1.38852
1.39648
1.39967
1.40006
1.40004
0.331962
0.332125
0.332144
0.332136
0.332079
0.331906
0.331734
0.331368
0.379407
0.569621
0.817453
0.979544
1.01816
1.03775
1.04064
1.03552
1.03678
1.03471
1.03001
1.0297
1.03358
1.03529
1.0352
1.03483
1.03391
1.0332
1.03334
1.03294
1.03181
1.03095
1.03161
1.03247
1.03309
1.03288
1.03288
1.03181
1.03105
1.03178
1.03295
1.03344
1.03295
1.02942
1.02413
1.01763
1.01079
1.00572
1.00202
0.999185
0.997616
0.998585
1.00069
1.00141
1.00275
1.00391
1.00536
1.00787
1.01432
1.0258
1.04284
1.069
1.09853
1.12257
1.12746
1.14009
1.16435
1.19832
1.27665
1.31154
1.33055
1.35051
1.35579
1.35891
1.36336
1.36954
1.37803
1.38808
1.39629
1.39962
1.40005
1.40004
0.332143
0.332108
0.332066
0.331958
0.331745
0.331558
0.331245
0.331053
0.331033
0.330901
0.393167
0.58949
0.814961
0.958799
1.02044
1.03887
1.04379
1.04028
1.03382
1.03247
1.03461
1.03628
1.03639
1.03506
1.03404
1.03419
1.03515
1.03464
1.03344
1.032
1.0323
1.03289
1.03336
1.03251
1.03216
1.03215
1.03315
1.03438
1.03488
1.03486
1.03401
1.02995
1.02457
1.01816
1.01179
1.00664
1.00342
1.00124
1.00003
1.00031
1.00034
0.999071
0.998072
0.998392
0.999037
1.00176
1.00838
1.02142
1.04209
1.07252
1.10028
1.12203
1.13134
1.14064
1.16121
1.19505
1.26882
1.30474
1.33103
1.35036
1.35463
1.35786
1.36234
1.36865
1.37734
1.38764
1.3961
1.39958
1.40005
1.40004
0.332105
0.332012
0.331845
0.331622
0.331426
0.331199
0.33103
0.330983
0.33085
0.330786
0.330737
0.331132
0.412019
0.606647
0.831436
0.978142
1.01835
1.04206
1.03998
1.03527
1.03529
1.03501
1.03555
1.03517
1.03492
1.0354
1.03635
1.03661
1.03652
1.03667
1.0372
1.0361
1.03498
1.03396
1.03382
1.03445
1.03697
1.03814
1.03768
1.03722
1.03536
1.03072
1.02573
1.01941
1.01311
1.00855
1.0059
1.00431
1.00318
1.00234
1.00066
0.997732
0.995358
0.995346
0.996277
0.999987
1.00934
1.02275
1.04471
1.08081
1.12131
1.14469
1.14663
1.14707
1.16144
1.1937
1.26007
1.29798
1.33185
1.34966
1.35336
1.35668
1.36125
1.36773
1.37665
1.38722
1.39593
1.39954
1.40004
1.40003
0.331889
0.331706
0.331505
0.331314
0.331123
0.330969
0.330901
0.330816
0.330764
0.330732
0.330674
0.330623
0.330607
0.33207
0.410192
0.625758
0.842371
1.01219
1.02582
1.04309
1.04454
1.0412
1.04101
1.0404
1.03981
1.03831
1.03872
1.04058
1.04351
1.04418
1.04301
1.04033
1.03669
1.03554
1.03684
1.04058
1.04487
1.04523
1.04425
1.04311
1.04044
1.03481
1.02757
1.0208
1.01449
1.01041
1.00829
1.00721
1.00565
1.00348
0.999813
0.994337
0.991894
0.992806
0.994756
0.999373
1.01153
1.03091
1.06341
1.10853
1.15184
1.16915
1.16516
1.15998
1.16541
1.19567
1.25334
1.29351
1.33248
1.34841
1.35193
1.35539
1.3601
1.3668
1.37596
1.3868
1.39576
1.3995
1.40003
1.40003
0.331568
0.331362
0.331182
0.331012
0.3309
0.330843
0.330798
0.330758
0.330718
0.330652
0.330611
0.330603
0.330611
0.330621
0.330616
0.335245
0.422156
0.659036
0.888316
1.03034
1.0344
1.04444
1.04804
1.04732
1.04483
1.03975
1.04018
1.04412
1.04932
1.04949
1.0478
1.04456
1.04208
1.04227
1.04395
1.04709
1.04952
1.04967
1.04918
1.04798
1.04445
1.03774
1.02961
1.0225
1.01661
1.01253
1.00965
1.00813
1.00594
1.00222
0.996802
0.990327
0.990054
0.992735
0.998278
1.01158
1.03017
1.05428
1.08725
1.1352
1.17803
1.19191
1.19463
1.1832
1.17568
1.20066
1.24647
1.29195
1.3328
1.34666
1.35034
1.35401
1.35891
1.36583
1.37527
1.3864
1.3956
1.39947
1.40003
1.40003
0.331172
0.331024
0.330923
0.330857
0.330817
0.330782
0.330743
0.330688
0.330627
0.330598
0.3306
0.330612
0.330621
0.330626
0.330601
0.33054
0.330443
0.338032
0.463334
0.731888
0.914207
1.03889
1.04374
1.04732
1.04727
1.04231
1.04352
1.04883
1.05229
1.05161
1.04985
1.04846
1.04913
1.04979
1.05014
1.0502
1.05057
1.05153
1.05227
1.05129
1.0473
1.03962
1.03081
1.02358
1.01813
1.01418
1.01101
1.00789
1.0042
0.998741
0.992795
0.988501
0.989853
0.994291
1.00669
1.02546
1.0489
1.07875
1.11511
1.15763
1.1906
1.20621
1.213
1.1991
1.18455
1.20119
1.24762
1.29491
1.33283
1.34461
1.34866
1.3526
1.35769
1.36484
1.37457
1.38601
1.39545
1.39944
1.40002
1.40003
0.330918
0.330863
0.33083
0.330822
0.330785
0.330714
0.330645
0.330602
0.330593
0.3306
0.330614
0.330629
0.330625
0.330586
0.330525
0.330446
0.330379
0.330347
0.330313
0.354395
0.528312
0.814017
0.960573
1.04425
1.05038
1.04068
1.04981
1.05428
1.05281
1.04803
1.04621
1.0497
1.05448
1.05455
1.05277
1.05145
1.05073
1.05152
1.05402
1.05329
1.04943
1.04112
1.03215
1.02552
1.02036
1.01588
1.01123
1.00664
1.00152
0.995798
0.989294
0.987951
0.989912
0.998673
1.01775
1.04292
1.07136
1.10204
1.13543
1.17206
1.1981
1.21774
1.22692
1.22118
1.20897
1.21768
1.25396
1.29982
1.33249
1.34279
1.34702
1.35115
1.35643
1.36382
1.37386
1.38563
1.39532
1.39941
1.40001
1.40002
0.330865
0.330837
0.330788
0.330722
0.330657
0.330604
0.33059
0.330601
0.330616
0.33063
0.330644
0.33063
0.330579
0.330507
0.330425
0.330362
0.330335
0.330315
0.33029
0.330242
0.33016
0.38435
0.617046
0.879481
1.02595
1.03556
1.06296
1.05928
1.05082
1.0413
1.04243
1.04976
1.05601
1.05587
1.05271
1.04641
1.04653
1.05099
1.05443
1.05335
1.04755
1.03947
1.03202
1.02689
1.02244
1.0171
1.01091
1.00505
0.999432
0.994325
0.9883
0.987795
0.992175
1.00691
1.02993
1.05726
1.08825
1.1196
1.15395
1.18195
1.20132
1.22216
1.23614
1.23631
1.22998
1.23176
1.25776
1.30207
1.33319
1.3413
1.34531
1.34961
1.3551
1.36277
1.37315
1.38526
1.3952
1.39938
1.40001
1.40002
0.330787
0.33072
0.330655
0.330611
0.330599
0.330604
0.330614
0.330626
0.330648
0.330645
0.330613
0.330559
0.330487
0.33041
0.330354
0.330326
0.330306
0.330281
0.33025
0.330178
0.330119
0.330087
0.334311
0.437097
0.707321
0.933588
1.04691
1.04573
1.04813
1.0402
1.04091
1.04762
1.05246
1.04926
1.04355
1.0417
1.04468
1.05191
1.05328
1.05003
1.04375
1.03774
1.03257
1.02785
1.02331
1.01742
1.01033
1.00373
0.998543
0.993413
0.98891
0.991334
1.00029
1.0179
1.04252
1.07137
1.10112
1.12928
1.16023
1.1819
1.19901
1.21983
1.23706
1.24504
1.24744
1.25625
1.2781
1.31355
1.33453
1.3397
1.34361
1.34801
1.3537
1.3617
1.37246
1.38491
1.39508
1.39936
1.40001
1.40002
0.330657
0.330617
0.330607
0.330614
0.330623
0.330635
0.330648
0.330643
0.330615
0.330571
0.330516
0.330452
0.330389
0.330351
0.330324
0.330299
0.330267
0.330235
0.330186
0.330126
0.330086
0.330076
0.330078
0.33008
0.355688
0.534122
0.821535
0.956175
1.04182
1.03753
1.04398
1.04785
1.04232
1.04069
1.0396
1.04075
1.04679
1.05423
1.05243
1.04671
1.04163
1.03704
1.03275
1.02785
1.02301
1.01609
1.00829
1.00186
0.99656
0.993838
0.995377
1.00089
1.01183
1.0296
1.05308
1.08091
1.10842
1.13456
1.16074
1.18002
1.19726
1.21826
1.23601
1.24687
1.2578
1.27164
1.29268
1.32302
1.33516
1.33835
1.34198
1.34627
1.35223
1.36062
1.37176
1.38458
1.39498
1.39935
1.4
1.40002
0.33062
0.330623
0.33063
0.330637
0.330648
0.330654
0.330634
0.330591
0.330535
0.330471
0.330413
0.330368
0.330341
0.33032
0.330296
0.330258
0.330217
0.33018
0.330133
0.330091
0.330071
0.33007
0.330078
0.330091
0.330109
0.330126
0.395001
0.664872
0.946341
1.01171
1.04445
1.03414
1.03432
1.038
1.04128
1.04711
1.05521
1.05539
1.05075
1.04469
1.04206
1.03757
1.0324
1.02699
1.01974
1.01085
1.00432
0.99854
0.996748
0.997745
1.00248
1.01052
1.02381
1.04275
1.06492
1.09079
1.11697
1.14341
1.16546
1.18155
1.19786
1.21808
1.23622
1.24962
1.26436
1.28148
1.30474
1.328
1.33502
1.33713
1.34025
1.3445
1.35078
1.35955
1.37107
1.38426
1.3949
1.39933
1.4
1.40002
0.330629
0.330632
0.330643
0.330651
0.330643
0.330612
0.330566
0.330504
0.330434
0.330377
0.330345
0.330325
0.330308
0.330285
0.330252
0.330209
0.330167
0.330134
0.330093
0.330069
0.330064
0.330062
0.330064
0.330083
0.330106
0.330146
0.330181
0.346485
0.507244
0.793458
1.00229
1.01588
1.03958
1.04416
1.04838
1.05696
1.05888
1.05516
1.04785
1.04496
1.04287
1.03793
1.03065
1.02288
1.01395
1.00636
1.00027
0.998786
0.998479
1.00175
1.00883
1.01879
1.03447
1.05421
1.07565
1.10024
1.12589
1.1509
1.16948
1.18328
1.19902
1.21833
1.23686
1.25279
1.26957
1.28859
1.31155
1.32908
1.33324
1.33538
1.3384
1.34284
1.34942
1.35849
1.37038
1.38393
1.39483
1.39933
1.4
1.40001
0.330647
0.330646
0.330628
0.330598
0.330562
0.330519
0.330467
0.330408
0.330357
0.330325
0.330307
0.330289
0.330265
0.330237
0.3302
0.330156
0.330125
0.330099
0.330067
0.330049
0.330039
0.330031
0.330043
0.330064
0.330093
0.330136
0.330203
0.330248
0.330249
0.409668
0.678971
0.934091
1.04227
1.0427
1.04993
1.06019
1.05759
1.04766
1.0455
1.04627
1.04368
1.03594
1.0266
1.01799
1.00985
1.00281
1.00091
1.00005
1.00042
1.00455
1.01341
1.0277
1.04724
1.06648
1.08556
1.1085
1.13288
1.15466
1.17008
1.18295
1.19892
1.21842
1.23689
1.25287
1.27026
1.29099
1.31322
1.32755
1.331
1.33346
1.33654
1.34129
1.34813
1.35745
1.36969
1.38364
1.39473
1.39931
1.39999
1.40001
0.330614
0.33059
0.330559
0.330521
0.330475
0.330426
0.33038
0.330344
0.330316
0.330291
0.330266
0.33024
0.330212
0.330181
0.330146
0.330116
0.330095
0.330069
0.330042
0.330002
0.329969
0.329967
0.329993
0.330028
0.330064
0.33011
0.330178
0.330258
0.330293
0.330304
0.344975
0.531568
0.851179
0.980466
1.04102
1.05723
1.0432
1.04086
1.04571
1.04817
1.04364
1.03182
1.02176
1.01351
1.00623
1.00323
1.0026
1.00144
1.0026
1.00904
1.01947
1.036
1.0572
1.07705
1.09679
1.11873
1.13977
1.15703
1.16931
1.18167
1.19819
1.21777
1.23629
1.25249
1.26977
1.29092
1.31251
1.32412
1.32798
1.33096
1.33455
1.33976
1.34685
1.35641
1.36899
1.38335
1.39473
1.39933
1.39999
1.40001
0.330561
0.330522
0.330474
0.330428
0.330387
0.330352
0.330323
0.330301
0.330279
0.330248
0.330212
0.33018
0.330153
0.33013
0.330109
0.330091
0.330064
0.33003
0.329986
0.329934
0.329886
0.329888
0.329914
0.329939
0.32996
0.329989
0.330045
0.330145
0.330222
0.330288
0.33031
0.330364
0.422221
0.722039
0.953976
1.0347
1.02852
1.04277
1.04985
1.0492
1.04016
1.02547
1.01571
1.00855
1.00439
1.00516
1.00385
1.00299
1.00681
1.01516
1.02656
1.04328
1.06508
1.08639
1.10739
1.12759
1.14476
1.15789
1.16842
1.18106
1.19829
1.21755
1.23573
1.25222
1.26929
1.28992
1.31027
1.32053
1.32484
1.32813
1.3323
1.33802
1.34544
1.35532
1.36836
1.38305
1.39468
1.39933
1.39999
1.40001
0.330468
0.330422
0.330383
0.33035
0.330323
0.3303
0.33028
0.330257
0.330228
0.330194
0.330158
0.330127
0.330109
0.330099
0.330087
0.330064
0.330017
0.32996
0.329908
0.329861
0.329827
0.329828
0.329843
0.329835
0.329809
0.329775
0.329768
0.329812
0.329854
0.329924
0.330003
0.330117
0.330093
0.364612
0.581276
0.89583
1.00311
1.05809
1.05494
1.04893
1.03374
1.01975
1.01168
1.00643
1.00584
1.00698
1.00585
1.00775
1.01537
1.02248
1.03349
1.05277
1.07689
1.09831
1.11552
1.13208
1.14684
1.15782
1.16853
1.18236
1.19989
1.2181
1.23539
1.2517
1.26888
1.28882
1.30693
1.3171
1.32251
1.3262
1.33049
1.33628
1.34393
1.35418
1.36766
1.38288
1.39474
1.39935
1.39999
1.40001
0.330381
0.330351
0.330323
0.330297
0.330275
0.330255
0.330232
0.330205
0.330174
0.33014
0.330111
0.330093
0.330084
0.330076
0.33006
0.330014
0.329945
0.329885
0.329845
0.329822
0.329808
0.329807
0.329804
0.329779
0.329711
0.329608
0.329532
0.329479
0.329394
0.329389
0.329385
0.329386
0.32933
0.329127
0.3285
0.4574
0.792372
1.02833
1.03876
1.04454
1.02651
1.01521
1.0093
1.00677
1.00807
1.00877
1.00951
1.01656
1.02838
1.03542
1.0453
1.06494
1.08855
1.10728
1.12073
1.13247
1.14462
1.15622
1.16905
1.18445
1.20145
1.21842
1.23467
1.25085
1.26831
1.28732
1.30338
1.31309
1.31896
1.32349
1.32847
1.33454
1.34241
1.3531
1.36704
1.3826
1.39475
1.39937
1.39999
1.40001
0.330317
0.330292
0.330267
0.330244
0.330222
0.330196
0.330171
0.330148
0.330122
0.3301
0.330084
0.330071
0.330056
0.330036
0.330005
0.329942
0.329872
0.329833
0.329818
0.329813
0.329806
0.329805
0.329797
0.329764
0.329684
0.329557
0.329444
0.329334
0.32915
0.329034
0.328913
0.328769
0.328628
0.328321
0.328047
0.326738
0.400028
0.722647
0.922103
1.03015
1.0172
1.02
1.01131
1.00992
1.01341
1.01371
1.01645
1.02967
1.04229
1.05023
1.06157
1.07998
1.09677
1.10815
1.11824
1.12883
1.14061
1.15487
1.1704
1.18609
1.2018
1.21772
1.23337
1.24939
1.26701
1.28528
1.3001
1.30957
1.31554
1.32055
1.32602
1.33252
1.34081
1.35191
1.36638
1.38263
1.39484
1.3994
1.39999
1.40001
0.330259
0.330236
0.330211
0.330187
0.330165
0.330146
0.330126
0.330108
0.330091
0.330075
0.330059
0.330035
0.330003
0.329971
0.329934
0.32987
0.329824
0.329812
0.329815
0.329822
0.329824
0.329821
0.32981
0.329769
0.329689
0.32956
0.329447
0.329317
0.329109
0.328909
0.328715
0.328506
0.328291
0.328086
0.327657
0.326577
0.323465
0.353829
0.64046
0.951924
0.99519
1.0283
1.01218
1.01547
1.01909
1.01945
1.028
1.04563
1.05566
1.06623
1.08137
1.09372
1.10185
1.108
1.11494
1.12493
1.13913
1.15629
1.17218
1.18592
1.20015
1.21574
1.23174
1.24784
1.26526
1.28296
1.29687
1.30628
1.31284
1.3185
1.32424
1.33078
1.33927
1.35082
1.36574
1.38243
1.39492
1.39943
1.39999
1.40001
0.330203
0.330181
0.330161
0.330143
0.330125
0.330108
0.330095
0.330081
0.330064
0.330037
0.330005
0.329969
0.329933
0.329906
0.329874
0.329829
0.329815
0.329827
0.329854
0.329904
0.329933
0.329935
0.329925
0.32987
0.329809
0.329711
0.329619
0.329487
0.329265
0.329065
0.328816
0.328615
0.328457
0.328206
0.327316
0.325262
0.322703
0.320639
0.334256
0.545771
0.85254
1.01374
1.00945
1.02931
1.02813
1.02696
1.04219
1.06026
1.06781
1.08084
1.09517
1.09834
1.10015
1.1054
1.11367
1.12581
1.14328
1.16106
1.17352
1.18427
1.19715
1.21289
1.22992
1.24665
1.26345
1.28025
1.29381
1.3028
1.30916
1.3149
1.32127
1.32874
1.33782
1.34969
1.36528
1.38256
1.39506
1.39946
1.39999
1.40001
0.330156
0.330139
0.330124
0.33011
0.330095
0.33008
0.330066
0.330046
0.330017
0.329982
0.329945
0.329906
0.32988
0.329864
0.329843
0.329829
0.32984
0.329874
0.329933
0.33001
0.330072
0.330092
0.330088
0.330057
0.330041
0.330033
0.329995
0.329914
0.329777
0.329627
0.329392
0.329104
0.328756
0.327939
0.325967
0.322945
0.320554
0.32021
0.320427
0.320699
0.474456
0.799294
0.964027
1.03414
1.0401
1.04447
1.06607
1.06716
1.06943
1.08516
1.10131
1.09738
1.09765
1.10298
1.11564
1.13296
1.15212
1.16482
1.1725
1.18146
1.19359
1.20994
1.22794
1.24547
1.26185
1.27716
1.29043
1.30009
1.3065
1.31189
1.31819
1.32603
1.33589
1.34854
1.36463
1.38251
1.39521
1.3995
1.39999
1.40001
0.330119
0.330107
0.330094
0.33008
0.330063
0.33004
0.330013
0.329985
0.329952
0.32992
0.32989
0.329863
0.32985
0.329842
0.329834
0.329839
0.329859
0.329907
0.32998
0.330061
0.330142
0.330185
0.330189
0.330186
0.330189
0.330226
0.330227
0.330162
0.330078
0.329892
0.329607
0.329151
0.328335
0.326113
0.323108
0.320927
0.319661
0.319514
0.320157
0.322108
0.325375
0.401924
0.707802
0.951184
1.03222
1.05719
1.087
1.06929
1.06897
1.0866
1.0958
1.09434
1.09854
1.10902
1.12435
1.14218
1.15714
1.16431
1.16959
1.17725
1.18996
1.20746
1.22566
1.24346
1.26006
1.27425
1.28622
1.2958
1.30338
1.31011
1.31672
1.32427
1.33407
1.34729
1.36446
1.38272
1.3954
1.39954
1.4
1.40001
0.330088
0.330071
0.330051
0.330027
0.329999
0.32997
0.329943
0.329916
0.329891
0.329872
0.329858
0.329847
0.329838
0.329831
0.329833
0.329842
0.329866
0.329917
0.329992
0.330069
0.330153
0.330212
0.330217
0.33022
0.330221
0.330258
0.33026
0.330189
0.330106
0.329883
0.329513
0.328324
0.325858
0.323167
0.32052
0.319442
0.319311
0.319395
0.320859
0.325907
0.333541
0.339172
0.374943
0.562173
0.845775
1.02991
1.07319
1.06716
1.07216
1.08844
1.08487
1.08911
1.10774
1.11984
1.1324
1.14742
1.15643
1.16142
1.16501
1.17346
1.18916
1.20598
1.22293
1.24017
1.25692
1.27137
1.28231
1.29088
1.29858
1.30612
1.31377
1.3223
1.33272
1.34619
1.36385
1.38287
1.39562
1.39959
1.4
1.40001
0.330033
0.330006
0.329979
0.329951
0.329925
0.329904
0.329887
0.32987
0.329856
0.329849
0.329845
0.329836
0.329819
0.329804
0.329805
0.32982
0.329853
0.329911
0.329988
0.330065
0.330148
0.330211
0.33021
0.330212
0.330204
0.33023
0.330219
0.330114
0.32998
0.329297
0.327882
0.325359
0.32239
0.320256
0.319007
0.319032
0.319423
0.320911
0.324485
0.331055
0.339531
0.348728
0.357108
0.36287
0.455896
0.707199
0.919418
1.03821
1.06989
1.08802
1.07829
1.09802
1.12242
1.12388
1.13084
1.14313
1.15197
1.15432
1.1612
1.17677
1.19168
1.20478
1.21947
1.23561
1.2522
1.26726
1.279
1.28748
1.2945
1.30181
1.31006
1.31943
1.33059
1.34513
1.36399
1.38323
1.39586
1.39963
1.4
1.40001
0.32996
0.329938
0.329916
0.329895
0.32988
0.329869
0.32986
0.329852
0.329845
0.32984
0.329829
0.329802
0.329772
0.32975
0.32974
0.329752
0.329779
0.329822
0.329891
0.329943
0.330027
0.330068
0.330008
0.329996
0.329926
0.329893
0.329722
0.329224
0.328283
0.326527
0.324265
0.321846
0.319595
0.318801
0.318823
0.319031
0.321099
0.325976
0.332061
0.33834
0.345945
0.354954
0.363986
0.372852
0.380337
0.404524
0.538994
0.805179
0.976334
1.06476
1.07271
1.12098
1.13038
1.12263
1.12795
1.136
1.14148
1.14885
1.16454
1.18221
1.19201
1.20201
1.21531
1.23077
1.24678
1.26184
1.27432
1.28388
1.29174
1.29919
1.30734
1.317
1.32875
1.3439
1.36359
1.3836
1.39615
1.39968
1.4
1.40001
0.329906
0.32989
0.329877
0.329865
0.329859
0.329855
0.329849
0.329838
0.329823
0.32981
0.329786
0.329745
0.329718
0.329709
0.329694
0.329698
0.329699
0.329685
0.329682
0.329635
0.329617
0.329557
0.329411
0.329266
0.329035
0.328659
0.328051
0.3269
0.325342
0.323432
0.321093
0.319337
0.318664
0.318678
0.319199
0.321245
0.324834
0.330622
0.338635
0.347033
0.354526
0.362269
0.370932
0.37974
0.388405
0.398236
0.406093
0.446943
0.618276
0.838594
1.0188
1.10338
1.11284
1.1128
1.12586
1.12473
1.13694
1.14838
1.16995
1.18252
1.18866
1.19714
1.21102
1.22757
1.24294
1.25656
1.26849
1.27857
1.28731
1.29586
1.30491
1.31476
1.32688
1.34329
1.36385
1.38411
1.39645
1.39973
1.4
1.40001
0.32987
0.329866
0.32986
0.329853
0.329843
0.329834
0.329824
0.329804
0.329784
0.32977
0.329739
0.329703
0.329695
0.329693
0.329682
0.329674
0.329652
0.329592
0.329505
0.329366
0.329194
0.329019
0.32878
0.328478
0.328046
0.327277
0.32631
0.324886
0.322959
0.320715
0.318951
0.318723
0.318757
0.319371
0.321979
0.326624
0.331896
0.337319
0.343564
0.352247
0.360562
0.368753
0.377585
0.387082
0.396039
0.405366
0.415977
0.425562
0.433801
0.487965
0.666976
0.86483
0.99836
1.07362
1.12405
1.11787
1.1384
1.1523
1.1725
1.17791
1.18165
1.19183
1.20744
1.22457
1.24017
1.25282
1.26316
1.2728
1.28202
1.29121
1.30103
1.312
1.32502
1.34204
1.36384
1.38472
1.39678
1.39977
1.4
1.40001
0.329866
0.329856
0.329837
0.329814
0.3298
0.329796
0.329793
0.32978
0.329766
0.329753
0.329722
0.329692
0.329693
0.329708
0.329715
0.329692
0.329643
0.329552
0.329416
0.329243
0.328983
0.328748
0.328424
0.327946
0.327262
0.326228
0.324711
0.322712
0.320477
0.319067
0.318684
0.318942
0.320482
0.323662
0.326741
0.331091
0.337832
0.345215
0.351971
0.358858
0.368134
0.377214
0.385791
0.395363
0.404596
0.413566
0.42363
0.434281
0.444703
0.455602
0.467491
0.529435
0.702948
0.924756
1.08808
1.11217
1.15959
1.15803
1.16796
1.16372
1.17071
1.18851
1.20523
1.21949
1.23399
1.24757
1.2587
1.2679
1.27713
1.287
1.29734
1.30884
1.32311
1.34193
1.36433
1.38544
1.39712
1.39982
1.4
1.40001
0.329823
0.329806
0.329788
0.329773
0.329773
0.32978
0.329785
0.329779
0.329769
0.329759
0.329744
0.329749
0.329765
0.329814
0.329871
0.329849
0.329782
0.329685
0.329531
0.329367
0.329078
0.32884
0.328426
0.327725
0.326497
0.324676
0.322272
0.320447
0.319328
0.319415
0.320139
0.321777
0.323927
0.327538
0.332752
0.337002
0.342781
0.351159
0.360454
0.368604
0.376754
0.385443
0.394003
0.402292
0.412101
0.421861
0.430814
0.441666
0.453154
0.464401
0.476279
0.488477
0.504335
0.583877
0.769507
1.00049
1.12381
1.1438
1.15987
1.14773
1.16202
1.18621
1.20043
1.21135
1.22427
1.23871
1.25181
1.26284
1.27278
1.28293
1.29408
1.30637
1.32102
1.3408
1.36475
1.3863
1.39749
1.39985
1.4
1.40001
0.329773
0.329775
0.329769
0.329767
0.329769
0.329779
0.329795
0.329811
0.329808
0.329807
0.329825
0.329843
0.329849
0.329876
0.329941
0.329938
0.329856
0.329788
0.329678
0.329496
0.329266
0.328863
0.328045
0.326505
0.324115
0.321855
0.32046
0.319874
0.320594
0.321517
0.322824
0.325361
0.327685
0.330667
0.33717
0.345268
0.352211
0.359238
0.367889
0.376788
0.384536
0.392963
0.401877
0.410191
0.41913
0.429319
0.439666
0.44979
0.460482
0.472502
0.48481
0.497592
0.510712
0.524715
0.550842
0.678092
0.87889
1.05089
1.13077
1.14061
1.1757
1.18521
1.19106
1.20184
1.21522
1.22974
1.24378
1.2561
1.26733
1.27845
1.29
1.30306
1.31954
1.34101
1.3656
1.38726
1.39785
1.39989
1.4
1.40001
0.329771
0.329782
0.329789
0.329794
0.329797
0.329804
0.329818
0.329839
0.329835
0.329829
0.329853
0.329877
0.329871
0.32988
0.329916
0.329922
0.329838
0.329744
0.329661
0.329376
0.328695
0.327344
0.325218
0.322901
0.321498
0.320449
0.320815
0.321198
0.321984
0.323974
0.32497
0.327523
0.33261
0.338137
0.343485
0.352241
0.361467
0.369534
0.376613
0.38447
0.392609
0.400693
0.409434
0.419019
0.427883
0.436894
0.447346
0.457973
0.469309
0.481281
0.493436
0.50712
0.520835
0.534785
0.550223
0.567005
0.625006
0.81985
1.03366
1.13879
1.18172
1.17571
1.17852
1.19534
1.21271
1.22562
1.23703
1.24876
1.26063
1.27295
1.28599
1.30003
1.31729
1.34045
1.36659
1.38836
1.39821
1.39992
1.4
1.40001
0.329819
0.329838
0.329841
0.329834
0.329821
0.329807
0.329807
0.32983
0.329831
0.329818
0.329837
0.329849
0.329807
0.329754
0.329663
0.329623
0.329509
0.328992
0.328093
0.326807
0.325035
0.323202
0.32192
0.320717
0.320638
0.320582
0.320952
0.322099
0.322541
0.325219
0.32808
0.331641
0.338315
0.347459
0.355563
0.361894
0.369567
0.377364
0.38454
0.392301
0.400548
0.408517
0.416687
0.425286
0.435272
0.445717
0.456274
0.467175
0.47891
0.490891
0.503855
0.516846
0.530762
0.545446
0.560305
0.576074
0.592764
0.628307
0.768161
1.00118
1.14175
1.14728
1.16561
1.19025
1.20733
1.22064
1.23152
1.24197
1.25446
1.26764
1.28126
1.29686
1.31662
1.34091
1.36792
1.38953
1.39855
1.39995
1.4
1.40001
0.329864
0.329865
0.32986
0.329839
0.329778
0.329686
0.32958
0.329567
0.329546
0.32946
0.329367
0.329367
0.329352
0.329229
0.328856
0.328165
0.327265
0.32612
0.324558
0.323051
0.321683
0.320488
0.320112
0.31982
0.320087
0.320549
0.320566
0.322929
0.324678
0.32714
0.334545
0.342757
0.34925
0.356077
0.364213
0.371241
0.377504
0.384693
0.392575
0.399594
0.407928
0.416695
0.425992
0.435617
0.44504
0.454895
0.465748
0.477368
0.488795
0.500921
0.513841
0.527128
0.541472
0.55664
0.571783
0.588058
0.603877
0.623601
0.650172
0.767031
0.964896
1.10255
1.17026
1.18627
1.19463
1.2063
1.22143
1.23543
1.24803
1.26197
1.27704
1.29347
1.31452
1.34119
1.36957
1.39082
1.39887
1.39996
1.4
1.40001
0.3298
0.329749
0.32969
0.32959
0.329445
0.329267
0.329103
0.328967
0.328863
0.328764
0.32864
0.328475
0.328181
0.32768
0.326977
0.325892
0.324524
0.323172
0.321733
0.320525
0.31983
0.319372
0.319453
0.319577
0.319681
0.321031
0.322655
0.325093
0.332015
0.339195
0.345046
0.352141
0.359569
0.365212
0.371119
0.378689
0.385437
0.392401
0.400574
0.408686
0.416882
0.425823
0.434343
0.444136
0.454597
0.465019
0.475003
0.486169
0.49822
0.510393
0.522969
0.536493
0.550631
0.565875
0.583143
0.599593
0.617372
0.633484
0.652536
0.67945
0.77599
0.985047
1.13004
1.16425
1.17446
1.18729
1.20466
1.22368
1.24046
1.25552
1.27166
1.2908
1.31451
1.34231
1.37154
1.39216
1.39916
1.39998
1.4
1.40001
0.329507
0.32944
0.329375
0.329257
0.329136
0.329025
0.328865
0.328663
0.328517
0.328366
0.328103
0.327653
0.326915
0.325838
0.32462
0.323311
0.321911
0.320827
0.319987
0.319475
0.319454
0.319329
0.319374
0.32015
0.321752
0.324771
0.331141
0.336952
0.342222
0.349076
0.355066
0.360107
0.36627
0.373236
0.379174
0.385967
0.394254
0.401677
0.409122
0.418148
0.426415
0.435383
0.444964
0.453548
0.462844
0.473506
0.484761
0.495785
0.507664
0.520536
0.533596
0.547655
0.562047
0.576502
0.59239
0.610332
0.628607
0.647931
0.666647
0.686071
0.712996
0.805292
0.97995
1.1088
1.1603
1.1798
1.19299
1.21047
1.23002
1.24903
1.26684
1.28704
1.31317
1.34369
1.37393
1.39352
1.39941
1.39999
1.40001
1.40001
0.329259
0.32924
0.329221
0.32916
0.329101
0.32906
0.328952
0.328711
0.328506
0.328204
0.327522
0.326406
0.324973
0.323356
0.321875
0.320852
0.320198
0.319874
0.319695
0.31957
0.319741
0.320745
0.322576
0.325569
0.330999
0.335806
0.340191
0.346464
0.351132
0.355866
0.362132
0.36817
0.373742
0.381109
0.389127
0.395754
0.403107
0.411603
0.41927
0.427054
0.435802
0.443755
0.453101
0.463403
0.473406
0.483194
0.49439
0.506227
0.5181
0.530756
0.54443
0.55839
0.573474
0.58963
0.605205
0.622093
0.640664
0.659846
0.680195
0.699149
0.719951
0.751704
0.844641
1.01237
1.13112
1.17236
1.19115
1.20564
1.22096
1.24043
1.26173
1.28541
1.31353
1.3458
1.37663
1.39486
1.39961
1.4
1.40001
1.40001
0.329388
0.3293
0.329235
0.329178
0.329103
0.329014
0.328802
0.328343
0.32744
0.326143
0.324649
0.32319
0.321951
0.321109
0.320473
0.320187
0.320285
0.320416
0.320988
0.322602
0.324453
0.326909
0.331126
0.33467
0.338215
0.343497
0.347222
0.352177
0.358439
0.363694
0.369838
0.377481
0.384806
0.390996
0.398294
0.406201
0.412912
0.419999
0.428267
0.4359
0.444508
0.45378
0.462276
0.471788
0.482361
0.493788
0.504993
0.516913
0.529595
0.542449
0.555997
0.570023
0.585043
0.601284
0.618332
0.63552
0.653557
0.673204
0.693716
0.716185
0.735738
0.759286
0.795796
0.889628
1.03199
1.12951
1.1718
1.19359
1.21368
1.23337
1.25482
1.28153
1.31362
1.34868
1.37972
1.39613
1.39976
1.4
1.40001
1.40001
0.329018
0.328735
0.328362
0.32784
0.327131
0.326223
0.325095
0.323881
0.322827
0.322062
0.32161
0.321222
0.320839
0.320736
0.320906
0.321125
0.321766
0.323114
0.324458
0.326697
0.33003
0.332601
0.335907
0.340511
0.343869
0.349073
0.356027
0.360868
0.367418
0.375184
0.381543
0.387637
0.394637
0.401448
0.407396
0.41421
0.421992
0.429048
0.436715
0.44548
0.453587
0.462948
0.473258
0.483265
0.493408
0.504168
0.515707
0.527657
0.540332
0.553554
0.567329
0.582137
0.597349
0.613092
0.630256
0.648659
0.666814
0.687012
0.708077
0.729958
0.751671
0.773058
0.800696
0.84563
0.940987
1.06012
1.13449
1.17343
1.20101
1.22491
1.25059
1.28138
1.31541
1.35244
1.38305
1.39726
1.39986
1.4
1.40001
1.40001
0.327319
0.326711
0.325881
0.324883
0.323822
0.32285
0.322105
0.321408
0.320904
0.32072
0.320809
0.321154
0.321412
0.321711
0.322275
0.322971
0.323785
0.325775
0.327939
0.329909
0.333915
0.338922
0.342502
0.347913
0.355345
0.360539
0.366776
0.37398
0.379356
0.385018
0.391467
0.397116
0.402762
0.409432
0.416535
0.423097
0.430284
0.438837
0.446872
0.45556
0.464984
0.474166
0.483579
0.4939
0.505138
0.516252
0.527648
0.539943
0.552358
0.565609
0.579395
0.594162
0.60983
0.625954
0.643489
0.66124
0.681375
0.700243
0.72162
0.744536
0.769308
0.791445
0.814664
0.848386
0.901563
0.99094
1.0875
1.14981
1.18547
1.21307
1.24416
1.27989
1.31825
1.35722
1.38651
1.3982
1.39993
1.4
1.40001
1.40001
0.324786
0.32369
0.322611
0.321769
0.321179
0.320728
0.320503
0.320365
0.320243
0.320292
0.320438
0.320877
0.321489
0.322145
0.323306
0.32522
0.327154
0.329517
0.334329
0.339707
0.343815
0.349402
0.356362
0.361404
0.366722
0.372859
0.377311
0.382654
0.388576
0.393398
0.399066
0.405678
0.411951
0.418333
0.425584
0.433664
0.441323
0.449095
0.457858
0.46629
0.475241
0.484914
0.495004
0.504944
0.515141
0.526458
0.538616
0.550724
0.563756
0.577709
0.592159
0.606959
0.622717
0.639906
0.656738
0.6755
0.69427
0.715718
0.737212
0.759816
0.783402
0.808311
0.832566
0.860329