/*--------------------------------*- C++ -*----------------------------------*\
  =========                 |
  \\      /  F ield         | OpenFOAM: The Open Source CFD Toolbox
   \\    /   O peration     | Website:  https://openfoam.org
    \\  /    A nd           | Version:  7
     \\/     M anipulation  |
\*---------------------------------------------------------------------------*/
FoamFile
{
    version     2.0;
    format      ascii;
    class       volVectorField;
    location    "0.5";
    object      U;
}
// * * * * * * * * * * * * * * * * * * * * * * * * * * * * * * * * * * * * * //

dimensions      [0 1 -1 0 0 0 0];

internalField   nonuniform List<vector> 
90000
(
(2.99901 -0.0335326 0)
(2.99569 -0.0312192 0)
(2.99105 -0.0269445 0)
(2.9885 -0.0241665 0)
(2.98255 -0.0222279 0)
(2.97869 -0.0194471 0)
(2.97538 -0.0190826 0)
(2.97113 -0.0167087 0)
(2.96759 -0.0150409 0)
(2.96412 -0.0136873 0)
(2.96079 -0.0125607 0)
(2.9578 -0.0109653 0)
(2.95532 -0.00973908 0)
(2.95296 -0.00817691 0)
(2.95073 -0.00736987 0)
(2.94853 -0.00583919 0)
(2.94678 -0.00547361 0)
(2.94481 -0.0037903 0)
(2.94324 -0.00321848 0)
(2.94202 -0.00241699 0)
(2.94006 -0.000776392 0)
(2.93901 0.000430129 0)
(2.93787 0.00183748 0)
(2.936 0.00284092 0)
(2.93506 0.00435083 0)
(2.93405 0.00524076 0)
(2.93323 0.0059966 0)
(2.93261 0.00554561 0)
(2.93189 0.00551845 0)
(2.93175 0.00298883 0)
(2.93191 0.00148187 0)
(2.93225 -0.00202218 0)
(2.9303 -0.00248172 0)
(2.92919 -0.00425645 0)
(2.92768 -0.0032932 0)
(2.92693 -0.00242048 0)
(2.92597 -0.00107871 0)
(2.92465 0.000963125 0)
(2.9228 0.00323235 0)
(2.9222 0.00598228 0)
(2.92174 0.00862729 0)
(2.92137 0.010835 0)
(2.91974 0.0116383 0)
(2.91911 0.0107538 0)
(2.91785 0.00859537 0)
(2.9163 0.0064387 0)
(2.91553 0.0029651 0)
(2.91459 0.00205369 0)
(2.91362 0.00103953 0)
(2.91267 0.00146095 0)
(2.91233 0.00162792 0)
(2.91188 0.00211718 0)
(2.91125 0.00195502 0)
(2.91107 0.0014868 0)
(2.91051 0.00118288 0)
(2.91013 0.000291695 0)
(2.90923 0.000312808 0)
(2.90855 0.000736926 0)
(2.90761 0.00141594 0)
(2.90669 0.00206231 0)
(2.90651 0.00168222 0)
(2.90676 0.000797247 0)
(2.90704 -0.000608198 0)
(2.90712 -0.000495966 0)
(2.90682 -5.04478e-06 0)
(2.90617 0.000870545 0)
(2.90492 0.00173915 0)
(2.90433 0.00169385 0)
(2.90435 0.00139312 0)
(2.90552 0.000282025 0)
(2.90829 -0.00104469 0)
(2.9132 -0.00313556 0)
(2.92001 -0.00457932 0)
(2.92745 -0.00504407 0)
(2.93271 -0.00725807 0)
(2.94115 -0.0104972 0)
(2.94896 -0.0121544 0)
(2.95638 -0.0180961 0)
(2.96487 -0.0323921 0)
(2.96752 -0.0486809 0)
(2.97134 -0.056408 0)
(2.9684 -0.0584258 0)
(2.95829 -0.0504924 0)
(2.95561 -0.0378069 0)
(2.96003 -0.0257499 0)
(2.96677 -0.0158752 0)
(2.97362 -0.00884393 0)
(2.98031 -0.00429068 0)
(2.98732 -0.00163686 0)
(2.99413 -0.00038987 0)
(2.99854 -3.58691e-05 0)
(2.99986 3.52847e-07 0)
(3 7.23169e-08 0)
(3 9.8934e-10 0)
(3 5.95123e-12 0)
(3 3.01597e-14 0)
(3 3.02043e-16 0)
(3 6.39126e-16 0)
(3 5.18312e-16 0)
(3 -6.27783e-17 0)
(3.00075 -0.0371814 0)
(3.00074 -0.0371322 0)
(3.00066 -0.0370141 0)
(3.00057 -0.0368119 0)
(3.0005 -0.0365648 0)
(3.0003 -0.0361686 0)
(2.99992 -0.0356358 0)
(2.99919 -0.0348166 0)
(2.99838 -0.0339222 0)
(2.99734 -0.0328602 0)
(2.99606 -0.0315391 0)
(2.99452 -0.0299101 0)
(2.993 -0.0283309 0)
(2.99121 -0.0262977 0)
(2.98961 -0.02454 0)
(2.98762 -0.0220898 0)
(2.98602 -0.0202051 0)
(2.98392 -0.0174185 0)
(2.98239 -0.0153963 0)
(2.98037 -0.0126286 0)
(2.97889 -0.010694 0)
(2.97697 -0.00799079 0)
(2.97564 -0.00638286 0)
(2.97388 -0.00378888 0)
(2.97276 -0.00219529 0)
(2.97181 -0.000473999 0)
(2.97106 0.00134477 0)
(2.97038 0.00205023 0)
(2.96918 0.00380829 0)
(2.96831 0.00471519 0)
(2.9679 0.00487608 0)
(2.96844 0.00445177 0)
(2.97009 0.00347331 0)
(2.97171 0.00227106 0)
(2.9724 -0.000203727 0)
(2.97216 -0.00244485 0)
(2.97192 -0.00476454 0)
(2.97021 -0.00681132 0)
(2.96949 -0.0081435 0)
(2.96853 -0.0081034 0)
(2.96709 -0.00722901 0)
(2.96568 -0.00528915 0)
(2.96473 -0.0032792 0)
(2.96334 -0.000422433 0)
(2.96282 0.00139795 0)
(2.9615 0.00431844 0)
(2.96139 0.00457227 0)
(2.96164 0.00371554 0)
(2.96211 0.0020539 0)
(2.96223 -2.3357e-05 0)
(2.9618 -0.00163389 0)
(2.96137 -0.00320424 0)
(2.95988 -0.00308621 0)
(2.95875 -0.00255558 0)
(2.9575 -0.00194203 0)
(2.95677 -0.000987528 0)
(2.95635 -0.000297325 0)
(2.95546 0.000308766 0)
(2.95465 0.000940186 0)
(2.95387 0.00151487 0)
(2.9524 0.00204016 0)
(2.95203 0.00152482 0)
(2.95184 0.000703802 0)
(2.95232 -0.00103873 0)
(2.95204 -0.00145291 0)
(2.95152 -0.000779583 0)
(2.95017 0.000765029 0)
(2.94869 0.00304511 0)
(2.94854 0.00294963 0)
(2.94924 0.0018133 0)
(2.95166 -0.000105413 0)
(2.95612 -0.00319584 0)
(2.96211 -0.00617435 0)
(2.96817 -0.00557441 0)
(2.97343 -0.00811488 0)
(2.98085 -0.0133974 0)
(2.98853 -0.0160849 0)
(2.99536 -0.0218453 0)
(3.00194 -0.0365574 0)
(2.99844 -0.0488475 0)
(2.99269 -0.0556741 0)
(2.98518 -0.0554656 0)
(2.96991 -0.0486718 0)
(2.96252 -0.0375952 0)
(2.96364 -0.0264279 0)
(2.96829 -0.0168447 0)
(2.97414 -0.00962531 0)
(2.98053 -0.00480391 0)
(2.98746 -0.00191454 0)
(2.99419 -0.000507588 0)
(2.99855 -7.05275e-05 0)
(2.99986 -3.45615e-06 0)
(3 -2.89953e-08 0)
(3 1.61902e-10 0)
(3 2.16037e-12 0)
(3 1.03026e-14 0)
(3 1.3128e-15 0)
(3 6.20106e-16 0)
(3 2.61057e-16 0)
(3 4.58596e-16 0)
(3.00037 -0.0372113 0)
(3.00037 -0.0372097 0)
(3.00036 -0.0372074 0)
(3.00036 -0.037199 0)
(3.00035 -0.0371844 0)
(3.00033 -0.0371725 0)
(3.00032 -0.0371557 0)
(3.00031 -0.0371257 0)
(3.00029 -0.0370661 0)
(3.00026 -0.0369401 0)
(3.00023 -0.0367705 0)
(3.00016 -0.0364994 0)
(3.00006 -0.0361854 0)
(2.99989 -0.0356634 0)
(2.99972 -0.0350894 0)
(2.99943 -0.0341456 0)
(2.99916 -0.0332622 0)
(2.99868 -0.0318176 0)
(2.9983 -0.0306104 0)
(2.99765 -0.0285906 0)
(2.99717 -0.0271847 0)
(2.9963 -0.0247494 0)
(2.9957 -0.0232267 0)
(2.99466 -0.0207209 0)
(2.99365 -0.0185651 0)
(2.99266 -0.0168217 0)
(2.99071 -0.0135228 0)
(2.98978 -0.0123633 0)
(2.98768 -0.0091243 0)
(2.9867 -0.00754832 0)
(2.98529 -0.00536767 0)
(2.98397 -0.00330062 0)
(2.98374 -0.0020823 0)
(2.9833 -0.000637066 0)
(2.98301 -0.000306393 0)
(2.98274 0.000164109 0)
(2.98283 0.000292203 0)
(2.98297 0.000206435 0)
(2.98346 5.05121e-05 0)
(2.98408 -0.00026813 0)
(2.98443 -0.000520138 0)
(2.98436 -0.000657021 0)
(2.98405 -0.000504262 0)
(2.98346 -0.000136735 0)
(2.98286 0.000621465 0)
(2.98225 0.00158628 0)
(2.98162 0.00307581 0)
(2.98105 0.00437248 0)
(2.98051 0.00589529 0)
(2.98065 0.00612006 0)
(2.98106 0.00553936 0)
(2.98146 0.00434798 0)
(2.98154 0.00294109 0)
(2.98135 0.00119082 0)
(2.98078 0.000317214 0)
(2.98077 -0.000945369 0)
(2.97998 -0.00142433 0)
(2.97953 -0.00122325 0)
(2.97884 -0.000598541 0)
(2.97804 0.000524142 0)
(2.97725 0.00190906 0)
(2.97643 0.00381801 0)
(2.97637 0.00369098 0)
(2.97669 0.00264958 0)
(2.97668 0.001238 0)
(2.97716 -0.00163581 0)
(2.97572 -0.00113451 0)
(2.97492 -0.000260276 0)
(2.97397 0.0019281 0)
(2.97439 0.0023166 0)
(2.97634 0.00118217 0)
(2.98058 -0.00243472 0)
(2.98669 -0.00706462 0)
(2.99283 -0.00903426 0)
(2.99851 -0.0120731 0)
(3.00488 -0.0137014 0)
(3.00992 -0.0148862 0)
(3.01553 -0.0203231 0)
(3.01901 -0.0342767 0)
(3.01243 -0.0470915 0)
(3.00081 -0.0527301 0)
(2.99328 -0.0520321 0)
(2.97771 -0.0463435 0)
(2.96837 -0.0370061 0)
(2.96724 -0.0265427 0)
(2.9701 -0.0174565 0)
(2.97484 -0.0102949 0)
(2.98079 -0.0053232 0)
(2.98759 -0.00222671 0)
(2.99425 -0.000647808 0)
(2.99856 -0.000101981 0)
(2.99986 -6.16519e-06 0)
(3 -1.12977e-07 0)
(3 -6.66405e-10 0)
(3 -2.09229e-12 0)
(3 -7.33856e-15 0)
(3 1.25891e-15 0)
(3 9.94534e-16 0)
(3 4.78e-16 0)
(3 1.12409e-16 0)
(2.99988 -0.0372179 0)
(2.99988 -0.0372181 0)
(2.99988 -0.0372178 0)
(2.99988 -0.0372176 0)
(2.99988 -0.0372168 0)
(2.99988 -0.0372162 0)
(2.99988 -0.0372156 0)
(2.99987 -0.0372149 0)
(2.99987 -0.037213 0)
(2.99986 -0.0372103 0)
(2.99986 -0.0372051 0)
(2.99985 -0.037196 0)
(2.99984 -0.0371789 0)
(2.99983 -0.0371476 0)
(2.99983 -0.0370925 0)
(2.99982 -0.0369992 0)
(2.9998 -0.0368565 0)
(2.99976 -0.0366201 0)
(2.99973 -0.0362924 0)
(2.99964 -0.0357505 0)
(2.99958 -0.0351045 0)
(2.99942 -0.0340728 0)
(2.99929 -0.0329338 0)
(2.99906 -0.0314022 0)
(2.99876 -0.0295051 0)
(2.99853 -0.0278078 0)
(2.99782 -0.024889 0)
(2.9976 -0.0234144 0)
(2.99647 -0.0196503 0)
(2.99615 -0.018472 0)
(2.99496 -0.014725 0)
(2.99421 -0.0130935 0)
(2.99305 -0.0110984 0)
(2.99149 -0.00840036 0)
(2.99125 -0.00795936 0)
(2.98972 -0.00584048 0)
(2.98938 -0.00496213 0)
(2.9885 -0.0037046 0)
(2.98852 -0.00308795 0)
(2.98815 -0.00240127 0)
(2.98801 -0.0020725 0)
(2.98795 -0.0017239 0)
(2.98796 -0.00159736 0)
(2.988 -0.00145729 0)
(2.98792 -0.00114508 0)
(2.9877 -0.000732021 0)
(2.98737 -8.33622e-05 0)
(2.98692 0.000787473 0)
(2.98659 0.00138693 0)
(2.98609 0.00274019 0)
(2.98586 0.00325309 0)
(2.98562 0.00367669 0)
(2.98565 0.00420785 0)
(2.98582 0.00404478 0)
(2.98612 0.00348757 0)
(2.98659 0.00259849 0)
(2.98698 0.00128162 0)
(2.98704 6.27932e-05 0)
(2.98702 -0.00103705 0)
(2.98641 -0.00104132 0)
(2.98612 -0.000591663 0)
(2.98564 0.000276822 0)
(2.9852 0.00175601 0)
(2.98492 0.00267014 0)
(2.98458 0.00325062 0)
(2.98494 0.0025953 0)
(2.98532 0.000869594 0)
(2.98533 -0.000467586 0)
(2.98455 -0.000933684 0)
(2.98497 -0.000566726 0)
(2.9862 5.65429e-06 0)
(2.98951 -0.000685568 0)
(2.99551 -0.00442272 0)
(3.00284 -0.00790607 0)
(3.00898 -0.00925072 0)
(3.01399 -0.0111517 0)
(3.01796 -0.0141965 0)
(3.0217 -0.0207936 0)
(3.02274 -0.0339345 0)
(3.01542 -0.0454996 0)
(3.00237 -0.0493028 0)
(2.99553 -0.048061 0)
(2.98216 -0.0435986 0)
(2.97274 -0.0359243 0)
(2.97034 -0.0264088 0)
(2.97192 -0.0178931 0)
(2.97571 -0.0108727 0)
(2.98117 -0.00582148 0)
(2.98776 -0.00254751 0)
(2.99432 -0.000786052 0)
(2.99858 -0.000133544 0)
(2.99987 -8.97347e-06 0)
(3 -1.85019e-07 0)
(3 -1.32373e-09 0)
(3 -5.44463e-12 0)
(3 -1.37641e-14 0)
(3 1.01007e-15 0)
(3 9.26691e-16 0)
(3 6.53244e-16 0)
(3 2.95419e-17 0)
(2.99954 -0.0372129 0)
(2.99954 -0.0372129 0)
(2.99954 -0.037213 0)
(2.99954 -0.037213 0)
(2.99954 -0.0372131 0)
(2.99954 -0.0372132 0)
(2.99954 -0.0372132 0)
(2.99953 -0.037213 0)
(2.99953 -0.0372128 0)
(2.99953 -0.0372123 0)
(2.99953 -0.0372119 0)
(2.99952 -0.0372109 0)
(2.99952 -0.0372098 0)
(2.99951 -0.0372083 0)
(2.99951 -0.0372062 0)
(2.9995 -0.0372031 0)
(2.99949 -0.037198 0)
(2.99949 -0.0371895 0)
(2.99948 -0.0371735 0)
(2.99947 -0.0371464 0)
(2.99945 -0.0370944 0)
(2.99942 -0.0370106 0)
(2.99938 -0.0368554 0)
(2.99931 -0.0366262 0)
(2.9992 -0.0362287 0)
(2.99907 -0.035705 0)
(2.99884 -0.0348332 0)
(2.99862 -0.0338609 0)
(2.99818 -0.0321859 0)
(2.99789 -0.0307442 0)
(2.99718 -0.0280355 0)
(2.9968 -0.026047 0)
(2.99595 -0.0227822 0)
(2.995 -0.0192392 0)
(2.99478 -0.0173389 0)
(2.99338 -0.0122908 0)
(2.99332 -0.0118627 0)
(2.99204 -0.00807531 0)
(2.99153 -0.00753035 0)
(2.9906 -0.0052847 0)
(2.99038 -0.00557017 0)
(2.98972 -0.00437549 0)
(2.9896 -0.00429635 0)
(2.98924 -0.00370445 0)
(2.98895 -0.00311882 0)
(2.9888 -0.00295303 0)
(2.98843 -0.00226083 0)
(2.98819 -0.00166286 0)
(2.9881 -0.00134884 0)
(2.98759 -0.000137032 0)
(2.98728 0.000643935 0)
(2.98701 0.00106717 0)
(2.98661 0.00195682 0)
(2.98646 0.0023802 0)
(2.9863 0.00259545 0)
(2.98649 0.00277565 0)
(2.98663 0.00264682 0)
(2.9869 0.00222307 0)
(2.98724 0.00154834 0)
(2.98758 0.00070125 0)
(2.98782 0.000186418 0)
(2.98772 -0.000595913 0)
(2.98735 -0.000304027 0)
(2.98674 0.000417926 0)
(2.98655 0.00116234 0)
(2.9862 0.00155134 0)
(2.98619 0.00164469 0)
(2.98655 0.00117258 0)
(2.98702 0.000368105 0)
(2.98761 -0.000553552 0)
(2.98879 -0.000626947 0)
(2.9915 -0.0007153 0)
(2.99651 -0.00257295 0)
(3.00342 -0.00461873 0)
(3.01067 -0.00664029 0)
(3.01597 -0.0122028 0)
(3.01885 -0.0177909 0)
(3.02117 -0.023374 0)
(3.02126 -0.0339735 0)
(3.0145 -0.0431691 0)
(3.00179 -0.0461688 0)
(2.99537 -0.0448266 0)
(2.98465 -0.0414082 0)
(2.97574 -0.0347919 0)
(2.97277 -0.026031 0)
(2.97362 -0.0180963 0)
(2.97671 -0.0113246 0)
(2.98167 -0.00627243 0)
(2.98799 -0.00286573 0)
(2.99441 -0.000931414 0)
(2.9986 -0.000167328 0)
(2.99987 -1.18891e-05 0)
(3 -2.57399e-07 0)
(3 -1.91295e-09 0)
(3 -8.18515e-12 0)
(3 -2.3899e-14 0)
(3 9.7417e-16 0)
(3 8.42623e-16 0)
(3 6.18079e-16 0)
(3 5.99091e-16 0)
(2.9994 -0.0372124 0)
(2.9994 -0.0372124 0)
(2.9994 -0.0372123 0)
(2.9994 -0.0372123 0)
(2.9994 -0.0372123 0)
(2.9994 -0.0372123 0)
(2.9994 -0.0372123 0)
(2.9994 -0.0372123 0)
(2.9994 -0.0372123 0)
(2.9994 -0.0372123 0)
(2.9994 -0.0372122 0)
(2.9994 -0.0372121 0)
(2.9994 -0.037212 0)
(2.9994 -0.0372118 0)
(2.9994 -0.0372115 0)
(2.9994 -0.0372111 0)
(2.9994 -0.0372107 0)
(2.9994 -0.03721 0)
(2.9994 -0.0372091 0)
(2.99939 -0.037208 0)
(2.99939 -0.0372063 0)
(2.99939 -0.0372034 0)
(2.99939 -0.0371982 0)
(2.99938 -0.0371892 0)
(2.99937 -0.0371703 0)
(2.99936 -0.0371362 0)
(2.99932 -0.0370684 0)
(2.99927 -0.0369465 0)
(2.99919 -0.0367383 0)
(2.99904 -0.0363662 0)
(2.99883 -0.0358267 0)
(2.99853 -0.034939 0)
(2.9981 -0.0337086 0)
(2.99756 -0.0320588 0)
(2.99686 -0.0297635 0)
(2.996 -0.0269795 0)
(2.99534 -0.0243894 0)
(2.99399 -0.0197874 0)
(2.99374 -0.0183147 0)
(2.99214 -0.0129566 0)
(2.99199 -0.01211 0)
(2.99069 -0.00776502 0)
(2.99056 -0.0074428 0)
(2.98983 -0.00539015 0)
(2.98942 -0.00383717 0)
(2.98939 -0.00383814 0)
(2.9889 -0.00268028 0)
(2.9887 -0.00208205 0)
(2.98855 -0.00196661 0)
(2.98812 -0.00112859 0)
(2.98785 -0.00026108 0)
(2.98749 -6.81051e-05 0)
(2.98692 0.000636427 0)
(2.98664 0.00140035 0)
(2.98665 0.00127728 0)
(2.98643 0.00194301 0)
(2.98641 0.00218542 0)
(2.9864 0.00231075 0)
(2.98647 0.00231353 0)
(2.98661 0.00211788 0)
(2.98694 0.00145306 0)
(2.98719 0.000597689 0)
(2.98736 -0.000139505 0)
(2.98718 -1.80935e-05 0)
(2.98699 0.000181313 0)
(2.98664 0.000573054 0)
(2.98626 0.000860958 0)
(2.98615 0.00141534 0)
(2.98637 0.00138715 0)
(2.98703 0.000853407 0)
(2.98844 0.000314697 0)
(2.99126 -0.000602713 0)
(2.99593 -0.00295201 0)
(3.00231 -0.00529167 0)
(3.00958 -0.00782378 0)
(3.01567 -0.0141555 0)
(3.01774 -0.018906 0)
(3.01947 -0.0232108 0)
(3.01849 -0.0325255 0)
(3.01254 -0.0405682 0)
(3.00104 -0.042969 0)
(2.99409 -0.0414688 0)
(2.986 -0.0389653 0)
(2.97784 -0.0334442 0)
(2.97471 -0.0255526 0)
(2.97517 -0.0181489 0)
(2.97777 -0.0116454 0)
(2.9823 -0.00665119 0)
(2.98831 -0.00316207 0)
(2.99453 -0.0010764 0)
(2.99863 -0.00020262 0)
(2.99987 -1.49967e-05 0)
(3 -3.36542e-07 0)
(3 -2.58217e-09 0)
(3 -1.13723e-11 0)
(3 -4.60417e-14 0)
(3 5.73487e-16 0)
(3 7.51448e-16 0)
(3 7.26034e-16 0)
(3 3.83293e-16 0)
(2.9994 -0.0371999 0)
(2.9994 -0.0371999 0)
(2.9994 -0.0371999 0)
(2.9994 -0.0371998 0)
(2.9994 -0.0371998 0)
(2.9994 -0.0371998 0)
(2.9994 -0.0371998 0)
(2.9994 -0.0371998 0)
(2.9994 -0.0371998 0)
(2.9994 -0.0371997 0)
(2.9994 -0.0371998 0)
(2.9994 -0.0371998 0)
(2.9994 -0.0371998 0)
(2.9994 -0.0371999 0)
(2.9994 -0.0371999 0)
(2.9994 -0.0372 0)
(2.9994 -0.0372 0)
(2.9994 -0.0372 0)
(2.9994 -0.0372 0)
(2.9994 -0.0371999 0)
(2.9994 -0.0371998 0)
(2.9994 -0.0371996 0)
(2.9994 -0.0371994 0)
(2.99941 -0.037199 0)
(2.99941 -0.0371981 0)
(2.99941 -0.0371966 0)
(2.99941 -0.0371945 0)
(2.99941 -0.0371905 0)
(2.9994 -0.0371825 0)
(2.9994 -0.0371653 0)
(2.99938 -0.0371287 0)
(2.99934 -0.0370557 0)
(2.99928 -0.0369063 0)
(2.99917 -0.036652 0)
(2.99895 -0.0361445 0)
(2.99865 -0.0354449 0)
(2.99813 -0.0340878 0)
(2.99749 -0.0324142 0)
(2.99674 -0.0302203 0)
(2.99544 -0.0264066 0)
(2.99491 -0.0244536 0)
(2.99315 -0.0191227 0)
(2.99252 -0.0168225 0)
(2.99126 -0.0127784 0)
(2.99052 -0.0104377 0)
(2.98998 -0.0084302 0)
(2.98935 -0.00649115 0)
(2.98894 -0.00483967 0)
(2.98873 -0.00445112 0)
(2.98861 -0.00423959 0)
(2.98822 -0.00258681 0)
(2.98803 -0.00244047 0)
(2.98785 -0.00213764 0)
(2.98706 -0.000500401 0)
(2.98681 0.000260355 0)
(2.9864 0.00115252 0)
(2.98607 0.0020707 0)
(2.98594 0.00210376 0)
(2.98597 0.00229574 0)
(2.98598 0.00221862 0)
(2.98602 0.00206001 0)
(2.98618 0.00165771 0)
(2.98641 0.00097328 0)
(2.98661 0.000455959 0)
(2.98662 0.000216823 0)
(2.98658 0.000283813 0)
(2.98627 0.000514732 0)
(2.98597 0.000990855 0)
(2.98611 0.00141252 0)
(2.98645 0.00136311 0)
(2.98758 0.000870647 0)
(2.99027 -5.07219e-05 0)
(2.99491 -0.00288697 0)
(3.00121 -0.0061951 0)
(3.00779 -0.00894256 0)
(3.01405 -0.0152278 0)
(3.01562 -0.0181869 0)
(3.01696 -0.0226121 0)
(3.01599 -0.0312074 0)
(3.01059 -0.0380642 0)
(3.00051 -0.0403682 0)
(2.99382 -0.0392904 0)
(2.98739 -0.0372286 0)
(2.97963 -0.0322679 0)
(2.97641 -0.024942 0)
(2.9766 -0.0180404 0)
(2.97885 -0.0118615 0)
(2.983 -0.00697886 0)
(2.9887 -0.00344038 0)
(2.9947 -0.00121837 0)
(2.99868 -0.000237756 0)
(2.99988 -1.80842e-05 0)
(3 -4.13404e-07 0)
(3 -3.2169e-09 0)
(3 -1.43328e-11 0)
(3 -5.66779e-14 0)
(3 2.64598e-16 0)
(3 6.77272e-16 0)
(3 6.72353e-16 0)
(3 -1.87178e-16 0)
(2.99943 -0.0371905 0)
(2.99943 -0.0371905 0)
(2.99943 -0.0371905 0)
(2.99943 -0.0371905 0)
(2.99943 -0.0371905 0)
(2.99943 -0.0371905 0)
(2.99943 -0.0371905 0)
(2.99943 -0.0371905 0)
(2.99943 -0.0371905 0)
(2.99943 -0.0371905 0)
(2.99943 -0.0371906 0)
(2.99943 -0.0371906 0)
(2.99943 -0.0371906 0)
(2.99944 -0.0371907 0)
(2.99944 -0.0371908 0)
(2.99944 -0.0371909 0)
(2.99944 -0.037191 0)
(2.99944 -0.0371912 0)
(2.99944 -0.0371914 0)
(2.99944 -0.0371916 0)
(2.99944 -0.0371919 0)
(2.99944 -0.0371922 0)
(2.99944 -0.0371927 0)
(2.99944 -0.0371932 0)
(2.99944 -0.0371939 0)
(2.99944 -0.0371948 0)
(2.99944 -0.0371952 0)
(2.99945 -0.0371951 0)
(2.99945 -0.0371945 0)
(2.99945 -0.0371945 0)
(2.99945 -0.0371936 0)
(2.99945 -0.0371915 0)
(2.99945 -0.0371884 0)
(2.99945 -0.0371769 0)
(2.99944 -0.0371505 0)
(2.99942 -0.0370874 0)
(2.99936 -0.0369594 0)
(2.99924 -0.036682 0)
(2.99903 -0.0361776 0)
(2.99865 -0.0352929 0)
(2.99813 -0.0339198 0)
(2.99721 -0.0315819 0)
(2.99647 -0.0294036 0)
(2.99493 -0.0249967 0)
(2.99411 -0.0224903 0)
(2.99236 -0.0171248 0)
(2.99158 -0.0149539 0)
(2.99054 -0.011636 0)
(2.98944 -0.00715498 0)
(2.98948 -0.00759261 0)
(2.98824 -0.00453209 0)
(2.98801 -0.00285566 0)
(2.98786 -0.00213417 0)
(2.98713 -0.000291789 0)
(2.98665 0.000189748 0)
(2.98616 0.000656623 0)
(2.98572 0.0014321 0)
(2.98549 0.00171211 0)
(2.98538 0.00162046 0)
(2.98556 0.00177401 0)
(2.98561 0.00189471 0)
(2.98577 0.00202975 0)
(2.98565 0.00205437 0)
(2.98581 0.00140773 0)
(2.98596 0.000872704 0)
(2.98611 0.000488818 0)
(2.98607 0.000534 0)
(2.98583 0.000812799 0)
(2.98592 0.00132441 0)
(2.98618 0.00135286 0)
(2.98705 0.00104789 0)
(2.98925 0.000339333 0)
(2.99352 -0.00251814 0)
(2.99955 -0.00652035 0)
(3.00588 -0.00956233 0)
(3.01141 -0.0145562 0)
(3.01405 -0.0171777 0)
(3.01515 -0.0221621 0)
(3.014 -0.0301796 0)
(3.00854 -0.0361496 0)
(2.99934 -0.0378058 0)
(2.99334 -0.0368493 0)
(2.98816 -0.0350843 0)
(2.98108 -0.0306711 0)
(2.97799 -0.0241823 0)
(2.97794 -0.0178021 0)
(2.97992 -0.0119788 0)
(2.98376 -0.00725113 0)
(2.98915 -0.00368942 0)
(2.99492 -0.00134758 0)
(2.99874 -0.000269546 0)
(2.99988 -2.08125e-05 0)
(3 -4.79182e-07 0)
(3 -3.75239e-09 0)
(3 -1.68506e-11 0)
(3 -5.78818e-14 0)
(3 1.68416e-16 0)
(3 3.64253e-16 0)
(3 1.49475e-16 0)
(3 1.98928e-16 0)
(2.9995 -0.0371982 0)
(2.9995 -0.0371983 0)
(2.9995 -0.0371984 0)
(2.9995 -0.0371984 0)
(2.9995 -0.0371985 0)
(2.9995 -0.0371986 0)
(2.9995 -0.0371986 0)
(2.9995 -0.0371987 0)
(2.9995 -0.0371988 0)
(2.9995 -0.0371989 0)
(2.9995 -0.0371989 0)
(2.9995 -0.037199 0)
(2.9995 -0.0371991 0)
(2.9995 -0.0371992 0)
(2.9995 -0.0371993 0)
(2.9995 -0.0371994 0)
(2.9995 -0.0371996 0)
(2.9995 -0.0371997 0)
(2.9995 -0.0371999 0)
(2.9995 -0.0372001 0)
(2.9995 -0.0372001 0)
(2.9995 -0.0372004 0)
(2.9995 -0.0372006 0)
(2.9995 -0.0372008 0)
(2.9995 -0.0372011 0)
(2.9995 -0.0372014 0)
(2.99951 -0.0372016 0)
(2.99951 -0.0372018 0)
(2.99951 -0.0372018 0)
(2.99951 -0.0372021 0)
(2.99951 -0.0372023 0)
(2.99951 -0.0372027 0)
(2.99951 -0.0372023 0)
(2.99951 -0.0372016 0)
(2.99952 -0.0372029 0)
(2.99952 -0.0372037 0)
(2.99952 -0.0372023 0)
(2.99952 -0.0371946 0)
(2.99951 -0.0371732 0)
(2.99948 -0.0371054 0)
(2.99941 -0.0369407 0)
(2.99925 -0.0365847 0)
(2.99897 -0.0358877 0)
(2.99844 -0.0346086 0)
(2.99778 -0.0328472 0)
(2.99673 -0.0300645 0)
(2.9954 -0.0260792 0)
(2.99465 -0.0238531 0)
(2.99253 -0.0173276 0)
(2.9921 -0.0158538 0)
(2.99032 -0.0107262 0)
(2.98983 -0.00928574 0)
(2.98921 -0.00733981 0)
(2.9886 -0.00522894 0)
(2.98855 -0.00502194 0)
(2.98816 -0.00384172 0)
(2.98793 -0.00273964 0)
(2.98717 -0.00124891 0)
(2.98657 -0.000159802 0)
(2.98619 0.000613823 0)
(2.98562 0.00147898 0)
(2.9855 0.0022176 0)
(2.98539 0.00221103 0)
(2.98535 0.00191149 0)
(2.98552 0.00155454 0)
(2.98577 0.00116682 0)
(2.98586 0.000915326 0)
(2.98578 0.000873665 0)
(2.98582 0.000965174 0)
(2.98601 0.00101717 0)
(2.98675 0.00081114 0)
(2.98853 0.000347352 0)
(2.99225 -0.00168781 0)
(2.99776 -0.00595346 0)
(3.00427 -0.00917661 0)
(3.00966 -0.0124221 0)
(3.01287 -0.0168525 0)
(3.01351 -0.0222373 0)
(3.01188 -0.0295398 0)
(3.00698 -0.0346587 0)
(2.99914 -0.0361881 0)
(2.99365 -0.0351874 0)
(2.98928 -0.0335884 0)
(2.98264 -0.0293946 0)
(2.97956 -0.0234388 0)
(2.9793 -0.0175662 0)
(2.98101 -0.0120919 0)
(2.98456 -0.00750354 0)
(2.98967 -0.00390958 0)
(2.99518 -0.00145708 0)
(2.99882 -0.000295168 0)
(2.99989 -2.28527e-05 0)
(3 -5.24146e-07 0)
(3 -4.10147e-09 0)
(3 -1.85161e-11 0)
(3 -6.46932e-14 0)
(3 -8.51231e-18 0)
(3 1.11827e-16 0)
(3 2.07124e-16 0)
(3 1.20867e-15 0)
(2.99958 -0.0372359 0)
(2.99958 -0.0372359 0)
(2.99958 -0.0372359 0)
(2.99958 -0.0372359 0)
(2.99958 -0.0372359 0)
(2.99958 -0.037236 0)
(2.99958 -0.037236 0)
(2.99958 -0.037236 0)
(2.99958 -0.037236 0)
(2.99958 -0.037236 0)
(2.99958 -0.037236 0)
(2.99958 -0.0372361 0)
(2.99958 -0.0372361 0)
(2.99958 -0.0372361 0)
(2.99958 -0.0372361 0)
(2.99958 -0.0372362 0)
(2.99958 -0.0372362 0)
(2.99958 -0.0372363 0)
(2.99958 -0.0372363 0)
(2.99958 -0.0372364 0)
(2.99958 -0.0372365 0)
(2.99958 -0.0372366 0)
(2.99958 -0.0372368 0)
(2.99958 -0.0372368 0)
(2.99958 -0.0372369 0)
(2.99959 -0.037237 0)
(2.99959 -0.0372372 0)
(2.99959 -0.0372376 0)
(2.99959 -0.0372378 0)
(2.99959 -0.0372377 0)
(2.99959 -0.0372379 0)
(2.99959 -0.0372382 0)
(2.99959 -0.0372389 0)
(2.99959 -0.0372392 0)
(2.99958 -0.0372387 0)
(2.99958 -0.0372387 0)
(2.99958 -0.0372377 0)
(2.99958 -0.0372365 0)
(2.99958 -0.0372289 0)
(2.99958 -0.0372247 0)
(2.99958 -0.0372192 0)
(2.99958 -0.0372077 0)
(2.99957 -0.037165 0)
(2.99951 -0.0370527 0)
(2.99938 -0.0367456 0)
(2.99912 -0.0361695 0)
(2.99865 -0.0349631 0)
(2.99795 -0.0331011 0)
(2.99682 -0.0301483 0)
(2.99591 -0.0272006 0)
(2.99399 -0.0217612 0)
(2.99318 -0.0190802 0)
(2.99152 -0.0141282 0)
(2.99023 -0.0103243 0)
(2.98972 -0.00787025 0)
(2.98877 -0.00418821 0)
(2.98841 -0.00306204 0)
(2.98762 -0.000988195 0)
(2.98715 0.00103786 0)
(2.98658 0.00164342 0)
(2.98595 0.00123377 0)
(2.98558 0.00157667 0)
(2.98529 0.00161895 0)
(2.98548 0.00168187 0)
(2.9856 0.00173381 0)
(2.98576 0.00176439 0)
(2.98582 0.00150654 0)
(2.98579 0.00118542 0)
(2.98582 0.00091652 0)
(2.98603 0.000829965 0)
(2.98665 0.000541116 0)
(2.98811 0.000205506 0)
(2.99125 -0.000793726 0)
(2.99639 -0.00478377 0)
(3.00276 -0.00812367 0)
(3.00874 -0.0113805 0)
(3.01139 -0.0164643 0)
(3.01167 -0.0221247 0)
(3.01003 -0.0285004 0)
(3.00566 -0.0328853 0)
(2.99902 -0.0341844 0)
(2.99374 -0.0331443 0)
(2.99013 -0.0318333 0)
(2.98409 -0.0280844 0)
(2.98109 -0.0226676 0)
(2.98068 -0.0172875 0)
(2.98214 -0.0121438 0)
(2.98541 -0.00768752 0)
(2.99024 -0.00407516 0)
(2.99548 -0.00153726 0)
(2.99891 -0.000312268 0)
(2.99991 -2.39612e-05 0)
(3 -5.41108e-07 0)
(3 -4.19675e-09 0)
(3 -1.90098e-11 0)
(3 -6.74529e-14 0)
(3 -1.03545e-16 0)
(3 1.17213e-16 0)
(3 -1.18966e-16 0)
(3 2.72514e-16 0)
(2.99963 -0.0372369 0)
(2.99963 -0.0372369 0)
(2.99963 -0.0372369 0)
(2.99963 -0.0372368 0)
(2.99963 -0.0372368 0)
(2.99963 -0.0372368 0)
(2.99963 -0.0372368 0)
(2.99963 -0.0372367 0)
(2.99963 -0.0372367 0)
(2.99963 -0.0372367 0)
(2.99963 -0.0372367 0)
(2.99963 -0.0372366 0)
(2.99963 -0.0372366 0)
(2.99963 -0.0372366 0)
(2.99963 -0.0372366 0)
(2.99963 -0.0372365 0)
(2.99963 -0.0372365 0)
(2.99963 -0.0372364 0)
(2.99963 -0.0372364 0)
(2.99963 -0.0372363 0)
(2.99963 -0.0372363 0)
(2.99963 -0.0372362 0)
(2.99963 -0.0372361 0)
(2.99963 -0.0372361 0)
(2.99963 -0.037236 0)
(2.99963 -0.037236 0)
(2.99963 -0.037236 0)
(2.99963 -0.0372359 0)
(2.99963 -0.0372359 0)
(2.99963 -0.0372358 0)
(2.99963 -0.0372358 0)
(2.99963 -0.0372357 0)
(2.99963 -0.0372357 0)
(2.99963 -0.0372358 0)
(2.99963 -0.0372356 0)
(2.99963 -0.0372355 0)
(2.99963 -0.0372355 0)
(2.99963 -0.0372356 0)
(2.99963 -0.0372353 0)
(2.99963 -0.0372347 0)
(2.99963 -0.0372343 0)
(2.99962 -0.0372326 0)
(2.99963 -0.0372302 0)
(2.99963 -0.0372263 0)
(2.99962 -0.0372138 0)
(2.99961 -0.0371721 0)
(2.99956 -0.0370612 0)
(2.99944 -0.0367829 0)
(2.99917 -0.0361551 0)
(2.99869 -0.0349079 0)
(2.99788 -0.0328783 0)
(2.99688 -0.0299914 0)
(2.99535 -0.025642 0)
(2.994 -0.0217079 0)
(2.99298 -0.0182964 0)
(2.99108 -0.0121075 0)
(2.99037 -0.0104672 0)
(2.98992 -0.00867624 0)
(2.98915 -0.00515771 0)
(2.98874 -0.00410752 0)
(2.98872 -0.00354827 0)
(2.98771 -0.00155156 0)
(2.98714 0.000252987 0)
(2.98623 0.00121059 0)
(2.98602 0.00199279 0)
(2.98584 0.00197225 0)
(2.98575 0.00152927 0)
(2.98581 0.00127551 0)
(2.9859 0.000979694 0)
(2.9861 0.000940891 0)
(2.9867 0.000633896 0)
(2.98795 0.000117058 0)
(2.99049 -0.000259767 0)
(2.99518 -0.00356281 0)
(3.00109 -0.00777559 0)
(3.00721 -0.0111997 0)
(3.00981 -0.0167972 0)
(3.00974 -0.0219212 0)
(3.00851 -0.0271914 0)
(3.00463 -0.0309909 0)
(2.99913 -0.0321031 0)
(2.99414 -0.0311893 0)
(2.99106 -0.0301479 0)
(2.98554 -0.0269331 0)
(2.98262 -0.0219989 0)
(2.98211 -0.0170505 0)
(2.98332 -0.0121763 0)
(2.98631 -0.0078175 0)
(2.99087 -0.0041917 0)
(2.99582 -0.00158957 0)
(2.99902 -0.000320581 0)
(2.99992 -2.40474e-05 0)
(3 -5.26687e-07 0)
(3 -4.00413e-09 0)
(3 -1.80518e-11 0)
(3 -5.92533e-14 0)
(3 -6.11012e-16 0)
(3 8.92956e-17 0)
(3 -6.04478e-17 0)
(3 -9.97308e-16 0)
(2.99965 -0.0372097 0)
(2.99965 -0.0372096 0)
(2.99965 -0.0372096 0)
(2.99965 -0.0372094 0)
(2.99965 -0.0372094 0)
(2.99965 -0.0372093 0)
(2.99965 -0.0372092 0)
(2.99965 -0.0372091 0)
(2.99965 -0.037209 0)
(2.99965 -0.0372089 0)
(2.99965 -0.0372087 0)
(2.99965 -0.0372086 0)
(2.99965 -0.0372085 0)
(2.99965 -0.0372083 0)
(2.99965 -0.0372082 0)
(2.99965 -0.0372081 0)
(2.99965 -0.0372079 0)
(2.99965 -0.0372078 0)
(2.99965 -0.0372076 0)
(2.99965 -0.0372074 0)
(2.99965 -0.0372072 0)
(2.99965 -0.037207 0)
(2.99965 -0.0372068 0)
(2.99965 -0.0372066 0)
(2.99965 -0.0372064 0)
(2.99965 -0.0372062 0)
(2.99965 -0.0372059 0)
(2.99965 -0.0372057 0)
(2.99965 -0.0372054 0)
(2.99965 -0.0372051 0)
(2.99965 -0.0372049 0)
(2.99965 -0.0372046 0)
(2.99965 -0.0372042 0)
(2.99965 -0.037204 0)
(2.99965 -0.0372036 0)
(2.99965 -0.0372032 0)
(2.99965 -0.037203 0)
(2.99965 -0.0372024 0)
(2.99965 -0.0372023 0)
(2.99965 -0.0372022 0)
(2.99965 -0.0372013 0)
(2.99965 -0.0372001 0)
(2.99965 -0.0371997 0)
(2.99965 -0.0371991 0)
(2.99965 -0.0371987 0)
(2.99965 -0.0371986 0)
(2.99965 -0.0371957 0)
(2.99965 -0.0371842 0)
(2.99963 -0.0371435 0)
(2.99957 -0.0370202 0)
(2.99943 -0.0366849 0)
(2.99912 -0.0359168 0)
(2.99855 -0.0345118 0)
(2.99763 -0.0319679 0)
(2.99645 -0.0286431 0)
(2.99488 -0.0243041 0)
(2.99344 -0.0195828 0)
(2.99196 -0.0149033 0)
(2.99062 -0.0111024 0)
(2.98936 -0.00576835 0)
(2.98935 -0.00446542 0)
(2.98842 -0.00164418 0)
(2.98759 0.00127629 0)
(2.98708 0.00166448 0)
(2.98634 0.00201854 0)
(2.98588 0.00136131 0)
(2.98585 0.00124284 0)
(2.98591 0.001269 0)
(2.986 0.0013242 0)
(2.9862 0.00128019 0)
(2.98671 0.00110556 0)
(2.98785 0.00052815 0)
(2.98988 0.000170481 0)
(2.99388 -0.00220119 0)
(2.99937 -0.00756789 0)
(3.00503 -0.011273 0)
(3.00818 -0.0172839 0)
(3.00827 -0.021602 0)
(3.00717 -0.0259903 0)
(3.00363 -0.0289373 0)
(2.99857 -0.0295191 0)
(2.99429 -0.0290205 0)
(2.99176 -0.0282303 0)
(2.98674 -0.0253571 0)
(2.98401 -0.0210022 0)
(2.98347 -0.0165645 0)
(2.98452 -0.0120257 0)
(2.98726 -0.00782766 0)
(2.99153 -0.00424118 0)
(2.9962 -0.00160967 0)
(2.99914 -0.000318905 0)
(2.99993 -2.29996e-05 0)
(3 -4.79682e-07 0)
(3 -3.5295e-09 0)
(3 -1.5728e-11 0)
(3 -5.94834e-14 0)
(3 -1.36138e-15 0)
(3 3.40596e-16 0)
(3 2.72833e-17 0)
(3 -3.33959e-16 0)
(2.99966 -0.0371657 0)
(2.99966 -0.0371657 0)
(2.99966 -0.0371657 0)
(2.99966 -0.0371657 0)
(2.99966 -0.0371657 0)
(2.99966 -0.0371656 0)
(2.99966 -0.0371656 0)
(2.99966 -0.0371656 0)
(2.99966 -0.0371656 0)
(2.99966 -0.0371655 0)
(2.99966 -0.0371655 0)
(2.99966 -0.0371655 0)
(2.99966 -0.0371655 0)
(2.99966 -0.0371654 0)
(2.99966 -0.0371654 0)
(2.99966 -0.0371654 0)
(2.99966 -0.0371653 0)
(2.99966 -0.0371653 0)
(2.99966 -0.0371653 0)
(2.99966 -0.0371652 0)
(2.99966 -0.0371652 0)
(2.99966 -0.0371651 0)
(2.99966 -0.037165 0)
(2.99966 -0.037165 0)
(2.99966 -0.0371649 0)
(2.99966 -0.0371648 0)
(2.99966 -0.0371647 0)
(2.99966 -0.0371646 0)
(2.99966 -0.0371645 0)
(2.99966 -0.0371644 0)
(2.99966 -0.0371643 0)
(2.99966 -0.0371642 0)
(2.99966 -0.037164 0)
(2.99966 -0.0371639 0)
(2.99966 -0.0371638 0)
(2.99966 -0.0371637 0)
(2.99966 -0.0371636 0)
(2.99966 -0.0371633 0)
(2.99966 -0.0371633 0)
(2.99966 -0.0371633 0)
(2.99966 -0.0371631 0)
(2.99966 -0.037163 0)
(2.99966 -0.0371631 0)
(2.99966 -0.0371632 0)
(2.99966 -0.0371634 0)
(2.99966 -0.0371631 0)
(2.99966 -0.0371616 0)
(2.99966 -0.037159 0)
(2.99966 -0.0371546 0)
(2.99965 -0.0371474 0)
(2.99965 -0.0371279 0)
(2.99962 -0.0370661 0)
(2.99954 -0.036883 0)
(2.99936 -0.0364389 0)
(2.99894 -0.0353615 0)
(2.99823 -0.0335385 0)
(2.99726 -0.0307792 0)
(2.9955 -0.025604 0)
(2.9945 -0.0228281 0)
(2.99275 -0.0173331 0)
(2.99102 -0.0117758 0)
(2.98991 -0.00868465 0)
(2.98946 -0.00664438 0)
(2.98975 -0.00552074 0)
(2.98842 -0.00244861 0)
(2.98803 -0.00169426 0)
(2.98725 0.000204895 0)
(2.98632 0.00131223 0)
(2.98615 0.00151176 0)
(2.98617 0.00145336 0)
(2.98663 0.00125073 0)
(2.98762 0.001035 0)
(2.9894 0.000268017 0)
(2.99249 -0.00107771 0)
(2.99753 -0.0064068 0)
(3.00201 -0.0100334 0)
(3.00638 -0.016324 0)
(3.00735 -0.0197707 0)
(3.00636 -0.0244277 0)
(3.00275 -0.0273154 0)
(2.99818 -0.0279523 0)
(2.99391 -0.0270378 0)
(2.99187 -0.0264066 0)
(2.98778 -0.0238601 0)
(2.98529 -0.0200007 0)
(2.98479 -0.0160273 0)
(2.98572 -0.011833 0)
(2.98824 -0.00779651 0)