/*--------------------------------*- C++ -*----------------------------------*\
  =========                 |
  \\      /  F ield         | OpenFOAM: The Open Source CFD Toolbox
   \\    /   O peration     | Website:  https://openfoam.org
    \\  /    A nd           | Version:  7
     \\/     M anipulation  |
\*---------------------------------------------------------------------------*/
FoamFile
{
    version     2.0;
    format      ascii;
    class       volScalarField;
    location    "5";
    object      rho;
}
// * * * * * * * * * * * * * * * * * * * * * * * * * * * * * * * * * * * * * //

dimensions      [1 -3 0 0 0 0 0];

internalField   nonuniform List<scalar> 
57600
(
1.00697
1.02462
1.04433
1.06437
1.08445
1.10425
1.12399
1.14331
1.1626
1.18126
1.19995
1.21775
1.23568
1.25235
1.26927
1.28449
1.30005
1.31343
1.32712
1.33824
1.34935
1.35777
1.36591
1.37062
1.37444
1.37751
1.37723
1.37514
1.37088
1.36523
1.36031
1.35546
1.35571
1.35753
1.36067
1.36406
1.36655
1.36905
1.37162
1.37152
1.3703
1.36787
1.36562
1.36381
1.36405
1.36563
1.36896
1.37268
1.3738
1.37329
1.37162
1.37013
1.37015
1.37115
1.37305
1.37337
1.37273
1.37138
1.37075
1.37132
1.37247
1.37335
1.37287
1.37226
1.37244
1.37305
1.37324
1.37319
1.37325
1.37348
1.37381
1.37422
1.37487
1.37562
1.37592
1.37589
1.37579
1.37553
1.37554
1.37568
0.993898
0.995039
0.997213
1.00059
1.00517
1.01113
1.01834
1.02707
1.037
1.04859
1.06134
1.07583
1.09124
1.10834
1.12598
1.14512
1.16433
1.1845
1.20435
1.22428
1.2438
1.26202
1.28019
1.29548
1.3107
1.32243
1.33332
1.34055
1.34573
1.35059
1.35923
1.36624
1.37233
1.37438
1.37556
1.37528
1.37356
1.37287
1.37068
1.36763
1.36704
1.36717
1.36744
1.36859
1.37061
1.37264
1.37359
1.37345
1.37286
1.37216
1.37172
1.37178
1.37283
1.37433
1.37432
1.37364
1.37275
1.37195
1.37249
1.37344
1.37402
1.37379
1.3731
1.37323
1.37371
1.37375
1.3738
1.37388
1.37405
1.37424
1.37444
1.3748
1.37569
1.37617
1.3762
1.37617
1.37615
1.37599
1.37602
1.37617
0.994633
0.994673
0.99473
0.99481
0.994918
0.995074
0.99534
0.995785
0.996488
0.997537
0.998997
1.00107
1.00385
1.0077
1.01266
1.01937
1.02762
1.03844
1.05125
1.06756
1.08598
1.10841
1.13265
1.16047
1.18949
1.21993
1.25104
1.28015
1.31049
1.33375
1.35151
1.3615
1.36941
1.37067
1.37247
1.37249
1.37243
1.37028
1.36495
1.36565
1.36807
1.37209
1.37686
1.38061
1.38053
1.37921
1.37642
1.37336
1.3722
1.37239
1.37481
1.37811
1.37896
1.37801
1.37619
1.37432
1.37477
1.37634
1.37742
1.37686
1.37595
1.3752
1.37579
1.37648
1.37635
1.376
1.37606
1.37622
1.37629
1.37631
1.37652
1.37701
1.37745
1.37788
1.37814
1.37813
1.37798
1.37769
1.37762
1.37759
0.996432
0.996427
0.996431
0.996449
0.996483
0.996528
0.996549
0.996581
0.996635
0.996697
0.996771
0.996869
0.996986
0.997129
0.997327
0.997625
0.99819
0.999121
1.00048
1.00258
1.00559
1.01026
1.01669
1.0264
1.03897
1.05696
1.07868
1.1071
1.13937
1.17666
1.21472
1.25004
1.28524
1.30773
1.3305
1.34127
1.35368
1.35749
1.36456
1.3714
1.38026
1.38508
1.38845
1.38806
1.38691
1.38359
1.38011
1.37581
1.37628
1.37933
1.38305
1.38473
1.38387
1.3812
1.37824
1.37858
1.38038
1.3824
1.38227
1.38083
1.37915
1.37942
1.38027
1.38046
1.38004
1.37955
1.37959
1.37972
1.3797
1.3797
1.37988
1.38025
1.38044
1.38079
1.38095
1.38081
1.38054
1.38028
1.38016
1.38004
0.998288
0.998305
0.998321
0.998341
0.998363
0.998383
0.998408
0.998434
0.998429
0.998412
0.998403
0.998412
0.998435
0.998471
0.998523
0.998615
0.998657
0.998715
0.998779
0.998856
0.998959
0.999121
0.999385
0.999858
1.00083
1.00265
1.00561
1.01098
1.019
1.03288
1.05166
1.08053
1.11474
1.15792
1.20289
1.24723
1.29034
1.32246
1.35383
1.36726
1.3767
1.38096
1.38519
1.38449
1.38095
1.37692
1.37861
1.38248
1.38669
1.38923
1.38788
1.38601
1.38329
1.38221
1.38279
1.38508
1.38606
1.38568
1.38448
1.38346
1.38339
1.38387
1.38397
1.38383
1.38342
1.38312
1.38323
1.38325
1.38321
1.38324
1.38347
1.38361
1.38367
1.38369
1.38388
1.38378
1.38356
1.38334
1.38318
1.38291
0.999709
0.999719
0.99973
0.999741
0.999752
0.999765
0.999778
0.999791
0.999805
0.999817
0.999825
0.999832
0.999839
0.999849
0.99985
0.999859
0.999863
0.999849
0.999836
0.999839
0.999855
0.999894
0.999966
1.00014
1.00017
1.00021
1.00029
1.00046
1.00078
1.00146
1.00299
1.00644
1.01257
1.02498
1.04336
1.07433
1.11188
1.16078
1.21176
1.25721
1.29974
1.32235
1.34616
1.35486
1.36385
1.37328
1.38562
1.39422
1.39533
1.39427
1.38966
1.38288
1.38175
1.38335
1.38673
1.39015
1.38968
1.388
1.38524
1.38526
1.3862
1.38722
1.38673
1.3859
1.38565
1.38579
1.38584
1.38571
1.38563
1.38584
1.3863
1.38628
1.38616
1.38605
1.38611
1.38614
1.38604
1.3859
1.38572
1.38539
1.00058
1.00058
1.00058
1.00059
1.00059
1.00059
1.00059
1.0006
1.0006
1.0006
1.0006
1.0006
1.00061
1.00061
1.00062
1.00062
1.00063
1.00064
1.00065
1.00065
1.00066
1.00066
1.00067
1.00069
1.00071
1.00074
1.00079
1.00088
1.001
1.00127
1.00135
1.00144
1.00162
1.00209
1.00329
1.00654
1.01295
1.0273
1.04926
1.0876
1.13392
1.1904
1.24695
1.29368
1.34023
1.36352
1.37847
1.38587
1.38946
1.38536
1.37828
1.37947
1.38375
1.38803
1.39035
1.3902
1.38836
1.38606
1.38606
1.38759
1.38859
1.38808
1.38745
1.3868
1.38699
1.38731
1.38717
1.38699
1.3871
1.38747
1.38767
1.38759
1.38746
1.38738
1.38734
1.38739
1.38744
1.38751
1.38744
1.3871
1.00105
1.00106
1.00106
1.00106
1.00106
1.00106
1.00106
1.00107
1.00107
1.00107
1.00107
1.00107
1.00107
1.00108
1.00108
1.00109
1.00109
1.0011
1.00111
1.00112
1.00113
1.00115
1.00117
1.00119
1.00122
1.00125
1.00129
1.00134
1.00139
1.00145
1.00153
1.00162
1.00173
1.00192
1.00198
1.00209
1.0023
1.00285
1.00438
1.00905
1.01872
1.04096
1.07334
1.12513
1.18364
1.24111
1.29484
1.32184
1.35036
1.35911
1.37453
1.38431
1.39363
1.39341
1.39199
1.38712
1.3833
1.38424
1.38736
1.39062
1.39008
1.38843
1.38683
1.3871
1.38798
1.38792
1.38758
1.38741
1.38781
1.38845
1.38839
1.38815
1.38798
1.38794
1.38783
1.3879
1.38807
1.38825
1.38829
1.38809
1.00134
1.00135
1.00135
1.00136
1.00136
1.00137
1.00138
1.00138
1.00139
1.00139
1.0014
1.00141
1.00141
1.00142
1.00143
1.00144
1.00145
1.00146
1.00146
1.00147
1.00147
1.00148
1.0015
1.00151
1.00153
1.00155
1.00158
1.00161
1.00165
1.00169
1.00173
1.00179
1.00185
1.00191
1.00199
1.00207
1.00217
1.00219
1.00217
1.0022
1.00243
1.00367
1.00711
1.0175
1.03695
1.07724
1.13008
1.19645
1.26357
1.31557
1.36261
1.37624
1.38792
1.38732
1.38161
1.37915
1.38235
1.38766
1.39105
1.39059
1.38785
1.38618
1.38655
1.38851
1.38867
1.3881
1.38744
1.38766
1.38852
1.38869
1.38851
1.38834
1.38818
1.38809
1.38792
1.38799
1.38831
1.38859
1.38862
1.38845
1.00162
1.00164
1.00166
1.00167
1.00168
1.00169
1.00171
1.00172
1.00173
1.00174
1.00175
1.00176
1.00177
1.00178
1.00179
1.00179
1.0018
1.0018
1.0018
1.00179
1.00178
1.00178
1.00177
1.00177
1.00176
1.00174
1.00173
1.00172
1.00172
1.00172
1.00176
1.00179
1.00183
1.00186
1.0019
1.00195
1.00201
1.00209
1.00209
1.00207
1.00203
1.00191
1.0018
1.00204
1.00316
1.00763
1.01857
1.04663
1.08946
1.15542
1.22851
1.28225
1.33521
1.34779
1.36292
1.37484
1.39069
1.39378
1.39274
1.38716
1.38353
1.38483
1.38852
1.39001
1.38895
1.38718
1.38729
1.38846
1.38933
1.38892
1.38827
1.3883
1.38825
1.38807
1.38787
1.38797
1.38831
1.3887
1.38884
1.38866
1.00192
1.00195
1.00197
1.002
1.00203
1.00205
1.00207
1.00209
1.00211
1.00212
1.00213
1.00214
1.00214
1.00215
1.00215
1.00215
1.00215
1.00214
1.00213
1.00211
1.00208
1.00205
1.00201
1.00197
1.00192
1.00187
1.00182
1.00177
1.00173
1.00169
1.00163
1.00158
1.00156
1.00155
1.00156
1.0016
1.00169
1.00183
1.00197
1.00203
1.00204
1.00199
1.00194
1.00182
1.00162
1.00158
1.00195
1.00399
1.00998
1.02899
1.06287
1.12653
1.20198
1.27195
1.3408
1.36553
1.38449
1.38683
1.38218
1.37966
1.38382
1.38951
1.3909
1.38958
1.38645
1.38659
1.3884
1.3896
1.38919
1.38832
1.38809
1.3884
1.3883
1.38795
1.38784
1.38801
1.38829
1.38864
1.3889
1.38878
1.0021
1.00212
1.00215
1.00218
1.00221
1.00223
1.00227
1.0023
1.00232
1.00235
1.00238
1.00238
1.00239
1.00238
1.00238
1.00237
1.00236
1.00235
1.00234
1.00231
1.00228
1.00224
1.00218
1.00211
1.00203
1.00195
1.00186
1.00176
1.00165
1.00154
1.00144
1.00135
1.00128
1.00125
1.00125
1.00127
1.00133
1.00147
1.00168
1.00193
1.00212
1.00221
1.0022
1.00217
1.00204
1.00184
1.00154
1.00145
1.00158
1.00256
1.00617
1.01966
1.04698
1.10658
1.18185
1.2527
1.3195
1.34086
1.36004
1.37537
1.39386
1.39478
1.39183
1.38481
1.38508
1.38779
1.39097
1.39042
1.38815
1.38796
1.38845
1.38869
1.38832
1.38782
1.38789
1.38817
1.38832
1.38858
1.38892
1.38884
1.00217
1.00219
1.00221
1.00223
1.00225
1.00228
1.0023
1.00233
1.00236
1.00239
1.00243
1.00247
1.00248
1.00248
1.00247
1.00246
1.00245
1.00243
1.00241
1.00238
1.00235
1.0023
1.00223
1.00215
1.00207
1.00198
1.00186
1.00174
1.00162
1.00149
1.00138
1.00129
1.00121
1.00113
1.0011
1.00111
1.00115
1.00128
1.0015
1.00181
1.00212
1.00232
1.00241
1.00241
1.00237
1.0022
1.00188
1.00149
1.00125
1.00124
1.00137
1.00216
1.00483
1.01508
1.03841
1.09507
1.17025
1.25254
1.33284
1.36449
1.38762
1.38752
1.3785
1.38076
1.38719
1.39197
1.39142
1.38855
1.3873
1.38821
1.38928
1.38886
1.38785
1.38775
1.38817
1.38835
1.38833
1.38854
1.3889
1.38884
1.00211
1.00213
1.00214
1.00216
1.00218
1.00221
1.00223
1.00226
1.0023
1.00234
1.00238
1.0024
1.00241
1.00241
1.0024
1.00239
1.00237
1.00235
1.00233
1.00231
1.00228
1.00224
1.0022
1.00216
1.00211
1.00202
1.00192
1.00179
1.00165
1.00151
1.0014
1.00131
1.00122
1.00111
1.00104
1.00104
1.00108
1.00119
1.00138
1.00164
1.00196
1.00228
1.00246
1.00249
1.00248
1.00239
1.00213
1.00168
1.00125
1.00112
1.00113
1.0013
1.00176
1.00251
1.00437
1.0126
1.03413
1.09044
1.16886
1.24924
1.32004
1.34486
1.36256
1.38521
1.39509
1.39415
1.3878
1.38597
1.38738
1.39034
1.39003
1.38807
1.38766
1.38822
1.38866
1.38847
1.38843
1.38861
1.38887
1.3888
1.00173
1.00173
1.00174
1.00176
1.00177
1.00179
1.00181
1.00184
1.00186
1.00189
1.00192
1.00196
1.00201
1.00208
1.00216
1.00225
1.00233
1.00238
1.00238
1.00236
1.00234
1.00232
1.0023
1.00229
1.00228
1.00226
1.00223
1.00217
1.00209
1.00197
1.00183
1.00167
1.00149
1.00131
1.00115
1.0011
1.00113
1.00122
1.00132
1.00144
1.00164
1.00196
1.0023
1.00245
1.00245
1.00239
1.00222
1.00186
1.00137
1.00111
1.00111
1.00124
1.00158
1.00222
1.00252
1.00281
1.00415
1.01174
1.03435
1.09274
1.174
1.2654
1.343
1.37549
1.38972
1.38438
1.37945
1.385
1.39141
1.39132
1.38874
1.38701
1.38797
1.38913
1.38887
1.38841
1.38859
1.38878
1.3888
1.38871
1.00144
1.00144
1.00144
1.00144
1.00145
1.00146
1.00147
1.00148
1.0015
1.00152
1.00154
1.00158
1.00162
1.00168
1.00176
1.00185
1.00195
1.00205
1.00214
1.00222
1.00229
1.00236
1.00244
1.00252
1.00261
1.00269
1.00273
1.00274
1.00273
1.00268
1.0026
1.00246
1.00227
1.00205
1.0018
1.00155
1.00137
1.00131
1.00131
1.00131
1.00135
1.00148
1.00172
1.002
1.00221
1.00227
1.00224
1.00208
1.00175
1.00136
1.00123
1.0013
1.00157
1.00203
1.00244
1.0026
1.00252
1.00263
1.00399
1.01216
1.03812
1.10075
1.19046
1.27284
1.3325
1.35574
1.37629
1.39501
1.39444
1.38951
1.38564
1.3872
1.3901
1.38988
1.38852
1.38842
1.38897
1.38894
1.38851
1.3886
1.00146
1.00147
1.00147
1.00147
1.00148
1.00148
1.00149
1.0015
1.00152
1.00154
1.00155
1.00157
1.00159
1.00162
1.00166
1.00171
1.00179
1.0019
1.00203
1.00216
1.00229
1.00246
1.00261
1.00274
1.00287
1.00296
1.00302
1.00306
1.00306
1.00304
1.003
1.00292
1.0028
1.00264
1.00246
1.00222
1.00192
1.0016
1.00137
1.00132
1.00132
1.00132
1.00135
1.00149
1.00174
1.00206
1.0023
1.00239
1.00236
1.00213
1.00182
1.00171
1.00176
1.00192
1.00217
1.00241
1.00244
1.00232
1.00214
1.00237
1.00442
1.01447
1.04735
1.11676
1.2098
1.31001
1.36382
1.38853
1.38699
1.37902
1.38403
1.39137
1.39109
1.3893
1.38797
1.38878
1.38947
1.38894
1.38825
1.38867
1.00168
1.00167
1.00166
1.00165
1.00165
1.00163
1.00161
1.00159
1.00158
1.00158
1.00158
1.00159
1.00159
1.00161
1.00164
1.0017
1.00177
1.00187
1.00195
1.00204
1.00214
1.00227
1.00237
1.00248
1.00262
1.00275
1.00284
1.00293
1.00298
1.00298
1.00296
1.00292
1.00285
1.00277
1.00267
1.00253
1.00229
1.00199
1.00167
1.00145
1.00138
1.00136
1.00136
1.0014
1.00157
1.00192
1.00241
1.00278
1.00286
1.00279
1.0026
1.00232
1.00204
1.00195
1.00194
1.00203
1.00223
1.00231
1.0023
1.00222
1.00228
1.00273
1.00585
1.01847
1.06062
1.14108
1.23674
1.31625
1.34889
1.3689
1.39427
1.39461
1.39102
1.38661
1.38788
1.39036
1.3899
1.38807
1.38811
1.38901
1.0025
1.00244
1.00239
1.00234
1.00229
1.00224
1.00217
1.00214
1.00214
1.00212
1.00206
1.00201
1.00198
1.00195
1.00189
1.00183
1.00177
1.00175
1.00176
1.0018
1.0018
1.00179
1.00175
1.00171
1.0017
1.00173
1.0018
1.0019
1.00202
1.00216
1.0023
1.00243
1.00255
1.00258
1.00256
1.0025
1.00239
1.00227
1.00217
1.00207
1.00195
1.0018
1.00166
1.0016
1.00165
1.00192
1.00241
1.00291
1.00308
1.00304
1.00291
1.00272
1.00234
1.00197
1.00191
1.00194
1.00213
1.00245
1.00263
1.00267
1.00271
1.00285
1.00295
1.0036
1.00784
1.02641
1.08187
1.17123
1.28222
1.35119
1.38775
1.3872
1.37945
1.38498
1.39113
1.391
1.38838
1.38737
1.38845
1.3895
1.00282
1.00277
1.00271
1.00266
1.0026
1.00251
1.00246
1.00247
1.00246
1.00239
1.00224
1.00222
1.00222
1.00218
1.0021
1.00199
1.00184
1.00174
1.0017
1.00168
1.00162
1.00154
1.00142
1.00123
1.00099
1.00087
1.00087
1.00089
1.001
1.00117
1.00139
1.00166
1.00199
1.00221
1.00229
1.00236
1.00247
1.00261
1.00278
1.00297
1.00304
1.00298
1.00273
1.00234
1.00204
1.00202
1.00221
1.00248
1.00274
1.00289
1.00287
1.00278
1.00255
1.00215
1.00198
1.002
1.00224
1.00276
1.00304
1.00308
1.00306
1.00297
1.00288
1.00264
1.00257
1.00368
1.01067
1.04105
1.11235
1.21311
1.30746
1.34444
1.36752
1.39453
1.39421
1.38944
1.38612
1.38755
1.39008
1.38991
1.00271
1.00264
1.00261
1.00261
1.00264
1.00263
1.00259
1.00251
1.00243
1.00236
1.00231
1.00224
1.00222
1.00228
1.00231
1.00229
1.00222
1.00216
1.00208
1.00196
1.0018
1.00163
1.00145
1.00125
1.00104
1.00082
1.00069
1.00068
1.00077
1.00095
1.0011
1.00131
1.00161
1.00191
1.00216
1.00238
1.0026
1.00285
1.00313
1.00344
1.00366
1.00365
1.00344
1.00301
1.00242
1.00202
1.00199
1.00201
1.00204
1.00219
1.00246
1.00263
1.00262
1.00248
1.00239
1.00248
1.00276
1.00311
1.00326
1.00326
1.00322
1.00306
1.00264
1.0022
1.00201
1.00208
1.00239
1.00506
1.01822
1.06637
1.15311
1.26829
1.34815
1.38739
1.38673
1.37965
1.3851
1.39106
1.39073
1.38967
1.00219
1.00227
1.00234
1.0024
1.00248
1.00253
1.00253
1.00251
1.00253
1.00259
1.00259
1.00258
1.00265
1.00278
1.00284
1.00292
1.00302
1.00311
1.00315
1.00316
1.00316
1.00311
1.00296
1.00273
1.00245
1.00211
1.00177
1.00164
1.00167
1.00169
1.0016
1.00155
1.00167
1.00201
1.0023
1.00255
1.00278
1.003
1.00322
1.00347
1.0037
1.00369
1.00344
1.00294
1.00244
1.00209
1.00189
1.00185
1.00181
1.00185
1.00215
1.00251
1.00277
1.00291
1.00304
1.00323
1.00333
1.00328
1.00324
1.00317
1.003
1.00266
1.00225
1.002
1.002
1.00213
1.0026
1.00285
1.00366
1.00891
1.03383
1.10229
1.20591
1.30169
1.34419
1.36913
1.39419
1.39402
1.39099
1.38859
1.0019
1.00201
1.00214
1.00232
1.0025
1.0026
1.00261
1.00259
1.0026
1.00267
1.00283
1.00294
1.003
1.00307
1.00319
1.00334
1.00351
1.00367
1.00381
1.00393
1.00404
1.00411
1.0041
1.00404
1.00389
1.00367
1.00341
1.00322
1.0031
1.00294
1.0027
1.00246
1.00239
1.00246
1.00248
1.00236
1.00229
1.00231
1.00235
1.00246
1.00276
1.00288
1.00271
1.00247
1.00251
1.00247
1.00226
1.00211
1.00205
1.00206
1.00227
1.00266
1.00296
1.00314
1.00339
1.00352
1.00348
1.00327
1.00285
1.00251
1.00231
1.00217
1.0021
1.00207
1.00221
1.00263
1.00312
1.00329
1.00328
1.00339
1.00503
1.01635
1.06148
1.14985
1.27256
1.3494
1.38868
1.3868
1.38383
1.38782
1.00218
1.00225
1.00231
1.0024
1.00248
1.00249
1.00251
1.00256
1.00262
1.00268
1.00276
1.00286
1.00295
1.00303
1.00312
1.00324
1.00338
1.0035
1.00356
1.00359
1.00364
1.00369
1.00368
1.00362
1.00347
1.00339
1.00336
1.0033
1.00319
1.00298
1.00278
1.00252
1.00211
1.00208
1.00209
1.00179
1.00138
1.00132
1.00136
1.0015
1.00162
1.00167
1.00179
1.00196
1.0023
1.00282
1.00319
1.00335
1.00337
1.00331
1.00328
1.0032
1.00311
1.00319
1.0034
1.00345
1.00329
1.00286
1.00228
1.00189
1.00188
1.00195
1.00217
1.00254
1.00299
1.00334
1.00345
1.00343
1.00322
1.00271
1.00239
1.00298
1.00794
1.03428
1.10531
1.21056
1.31808
1.34605
1.3776
1.39121
1.00353
1.00343
1.00329
1.00309
1.00287
1.00267
1.00244
1.00223
1.00199
1.00159
1.00145
1.00142
1.00132
1.00126
1.00126
1.00127
1.0013
1.0013
1.00122
1.00112
1.00108
1.00092
1.00081
1.00082
1.00092
1.00121
1.00176
1.00226
1.00243
1.00242
1.0022
1.00202
1.00195
1.00176
1.00135
1.00085
1.00059
1.00059
1.00079
1.00116
1.00123
1.00125
1.00144
1.00198
1.00272
1.00325
1.00353
1.0038
1.00397
1.004
1.0039
1.00347
1.00285
1.00247
1.0024
1.00236
1.00228
1.0022
1.00203
1.00187
1.00189
1.0022
1.0029
1.00346
1.00369
1.00364
1.00354
1.00323
1.00268
1.00215
1.00206
1.00214
1.00256
1.00506
1.01783
1.06911
1.16557
1.28248
1.36155
1.38607
1.00223
1.00225
1.00232
1.00228
1.00235
1.00238
1.00202
1.00152
1.00138
1.00126
1.00101
1.00064
1.00047
1.00039
1.00038
1.00042
1.00047
1.00049
1.00044
1.00026
1.00011
0.999839
0.9994
0.999179
0.999236
0.99954
1.00009
1.00085
1.00163
1.00192
1.00193
1.00195
1.00198
1.00179
1.0016
1.00166
1.00201
1.00243
1.00301
1.00331
1.00335
1.00317
1.00276
1.00274
1.00299
1.0031
1.00308
1.00318
1.00347
1.00354
1.00335
1.00279
1.00202
1.00133
1.00112
1.00111
1.00131
1.00183
1.00193
1.0021
1.00252
1.00312
1.00358
1.00384
1.00383
1.00362
1.00306
1.00245
1.002
1.00194
1.00203
1.00254
1.00334
1.00352
1.00423
1.01004
1.03928
1.1242
1.23061
1.3341
1.00715
1.00724
1.00733
1.00751
1.00769
1.00766
1.00737
1.00726
1.0073
1.00711
1.0071
1.00688
1.00621
1.00612
1.00642
1.00649
1.00648
1.00644
1.00624
1.00569
1.00485
1.00386
1.00252
1.00178
1.00178
1.00209
1.00235
1.00278
1.00358
1.00448
1.00491
1.00502
1.00503
1.00506
1.00524
1.00542
1.00562
1.00594
1.00654
1.00693
1.00693
1.00654
1.0055
1.00441
1.00348
1.00218
1.00151
1.00144
1.00169
1.00215
1.00213
1.00189
1.0015
1.00093
1.00065
1.00067
1.00097
1.00163
1.00259
1.00342
1.00386
1.00371
1.00365
1.00349
1.0032
1.00266
1.002
1.00181
1.00184
1.00203
1.00281
1.00352
1.00388
1.00376
1.00322
1.00306
1.00547
1.02399
1.07979
1.23471
1.02708
1.02711
1.02721
1.02758
1.02777
1.02744
1.02646
1.02592
1.02591
1.02588
1.02552
1.0242
1.02361
1.02361
1.02354
1.0234
1.0233
1.02356
1.02372
1.02351
1.02261
1.02106
1.01913
1.01727
1.01545
1.01361
1.01286
1.01311
1.01315
1.0127
1.01198
1.01098
1.00972
1.00944
1.00943
1.00934
1.00913
1.00882
1.0085
1.008
1.00692
1.00555
1.00466
1.00417
1.00354
1.00209
1.00141
1.00138
1.00158
1.00208
1.00221
1.00222
1.00199
1.00198
1.00218
1.00248
1.00281
1.00337
1.00405
1.00431
1.00412
1.00341
1.00237
1.00186
1.0016
1.00139
1.00131
1.00139
1.00194
1.00306
1.00396
1.00403
1.00383
1.00324
1.00241
1.00204
1.00219
1.00364
1.0119
1.09708
1.04621
1.04611
1.04648
1.04661
1.04624
1.04481
1.04279
1.04091
1.03921
1.03867
1.03858
1.03809
1.03723
1.03664
1.03543
1.0352
1.03603
1.03572
1.03554
1.03639
1.0374
1.03783
1.03776
1.03664
1.03438
1.03229
1.03122
1.0312
1.03118
1.03063
1.02916
1.02706
1.02437
1.02218
1.02069
1.01908
1.01721
1.01555
1.01405
1.01295
1.01147
1.01059
1.01041
1.01093
1.01233
1.0125
1.01176
1.01036
1.00842
1.00689
1.0067
1.00693
1.00733
1.0084
1.00894
1.00852
1.00721
1.00587
1.00502
1.00443
1.00356
1.00247
1.00147
1.00121
1.00124
1.00132
1.00163
1.00249
1.00356
1.00436
1.00425
1.00379
1.00284
1.0021
1.00184
1.00188
1.00267
1.0038
1.00432
1.02606
1.09892
1.09798
1.09701
1.09598
1.09486
1.09372
1.09249
1.09118
1.08953
1.08803
1.08815
1.08838
1.08734
1.08586
1.08514
1.08356
1.08122
1.0794
1.07837
1.07762
1.07672
1.07487
1.07334
1.07217
1.06972
1.06636
1.06587
1.06653
1.06584
1.06544
1.06581
1.06524
1.06355
1.06104
1.05851
1.05645
1.05383
1.05108
1.04814
1.04324
1.04074
1.04006
1.03813
1.03516
1.03472
1.03477
1.03389
1.0312
1.02709
1.02318
1.02072
1.01873
1.01585
1.01425
1.01306
1.01116
1.00866
1.00587
1.00404
1.00352
1.00317
1.00267
1.00213
1.00209
1.00259
1.00366
1.00519
1.00566
1.00532
1.00446
1.00333
1.00215
1.00144
1.0014
1.00149
1.00248
1.00373
1.00389
1.00338
1.00603
1.15308
1.15116
1.14957
1.14876
1.14754
1.14585
1.14569
1.14564
1.14491
1.14475
1.14444
1.14336
1.14106
1.13955
1.13965
1.14009
1.13919
1.13638
1.13385
1.13353
1.13358
1.13312
1.13175
1.12929
1.12578
1.12276
1.11988
1.11677
1.11364
1.11085
1.10858
1.10534
1.10007
1.09726
1.0942
1.09048
1.08946
1.08805
1.08557
1.0827
1.08026
1.07834
1.0751
1.06726
1.06031
1.05834
1.05555
1.05075
1.04757
1.04521
1.04232
1.0388
1.03422
1.02918
1.02574
1.0224
1.0188
1.01789
1.01671
1.01419
1.0123
1.01245
1.01257
1.01193
1.01127
1.01051
1.00982
1.0083
1.00614
1.0036
1.00209
1.00154
1.00139
1.00177
1.00284
1.00447
1.00435
1.00352
1.00222
1.0023
1.22333
1.22257
1.22166
1.22039
1.21906
1.21787
1.21691
1.21621
1.2154
1.21451
1.21311
1.21139
1.20945
1.20593
1.20418
1.20416
1.20316
1.20004
1.19684
1.1953
1.19364
1.19164
1.19014
1.18777
1.18561
1.18378
1.18064
1.17638
1.17548
1.17466
1.17255
1.16943
1.16563
1.1617
1.15784
1.15349
1.14867
1.14445
1.14011
1.13298
1.12845
1.12825
1.12718
1.12217
1.11574
1.11192
1.10643
1.09757
1.094
1.09107
1.08687
1.08298
1.07821
1.07105
1.06523
1.06119
1.0562
1.05078
1.04615
1.04111
1.03494
1.02989
1.02538
1.02166
1.01721
1.01361
1.01006
1.00765
1.006
1.0046
1.00349
1.00378
1.00468
1.00638
1.00636
1.00576
1.00389
1.00194
1.0015
1.00178
1.2976
1.29629
1.29426
1.29341
1.29274
1.29173
1.29066
1.2895
1.2883
1.28689
1.28556
1.28432
1.28253
1.2794
1.27848
1.27831
1.27705
1.27427
1.27158
1.26944
1.26733
1.26481
1.26225
1.25993
1.25732
1.25422
1.25101
1.24647
1.24318
1.24089
1.23766
1.23301
1.22922
1.22538
1.22153
1.21815
1.2142
1.21023
1.20626
1.20132
1.19573
1.19018
1.18462
1.17711
1.16836
1.16483
1.16151
1.15542
1.14996
1.14302
1.13274
1.12573
1.12017
1.11469
1.10717
1.09863
1.09198
1.0848
1.07705
1.06925
1.0623
1.05502
1.04828
1.04184
1.03552
1.03041
1.02492
1.02193
1.01959
1.01771
1.01653
1.01535
1.0137
1.01172
1.00926
1.00515
1.00263
1.00167
1.00199
1.00339
1.3775
1.3764
1.37517
1.37401
1.37275
1.37085
1.36958
1.3685
1.36726
1.36586
1.36427
1.36236
1.36056
1.35898
1.3561
1.35408
1.35259
1.35053
1.34827
1.34608
1.34352
1.34016
1.33731
1.33504
1.33196
1.32871
1.32601
1.32256
1.31855
1.31549
1.31236
1.30822
1.30369
1.29939
1.29486
1.29006
1.28518
1.27959
1.27404
1.26894
1.26353
1.25793
1.25263
1.24697
1.24035
1.23334
1.22609
1.21747
1.21047
1.20484
1.19751
1.19007
1.17943
1.17122
1.16508
1.15736
1.14808
1.13988
1.13159
1.12266
1.11468
1.10609
1.09775
1.08865
1.08033
1.07137
1.06295
1.0541
1.04574
1.03818
1.03075
1.0244
1.01864
1.01336
1.00947
1.00681
1.00498
1.00553
1.00773
1.00697
1.4624
1.46132
1.45944
1.45729
1.45657
1.45575
1.45429
1.45275
1.45128
1.4488
1.44718
1.44607
1.44444
1.44182
1.43842
1.43712
1.43597
1.43322
1.42965
1.42777
1.42592
1.42262
1.41926
1.4165
1.41289
1.40842
1.40551
1.40285
1.39828
1.39333
1.38958
1.38579
1.38098
1.37602
1.37154
1.36658
1.36103
1.3556
1.35016
1.34445
1.33816
1.33143
1.32449
1.31752
1.31043
1.3033
1.29654
1.28931
1.28103
1.27244
1.26191
1.25355
1.24602
1.23708
1.22626
1.21685
1.20732
1.19721
1.18651
1.17597
1.16528
1.15471
1.14362
1.13232
1.1215
1.11008
1.09935
1.08805
1.07765
1.06702
1.05712
1.04744
1.03913
1.03249
1.0264
1.02443
1.02127
1.01912
1.01615
1.01002
1.55319
1.55161
1.55063
1.54968
1.548
1.54637
1.54497
1.54329
1.54135
1.53946
1.53764
1.53511
1.53264
1.53119
1.5292
1.5263
1.52377
1.52134
1.51803
1.51534
1.513
1.50941
1.50577
1.50287
1.49981
1.49438
1.49018
1.48731
1.48367
1.47917
1.47403
1.46912
1.4643
1.45879
1.4534
1.4482
1.44242
1.43623
1.42978
1.42326
1.41677
1.40978
1.4024
1.39495
1.38737
1.37953
1.37114
1.3626
1.35371
1.34477
1.33596
1.32642
1.31503
1.30538
1.29603
1.2849
1.2736
1.26298
1.25159
1.23997
1.22801
1.21639
1.20426
1.19229
1.1801
1.16818
1.15597
1.14399
1.13206
1.11975
1.10796
1.09508
1.08321
1.07045
1.05908
1.04799
1.03803
1.02906
1.02091
1.01255
1.65098
1.64988
1.64849
1.6468
1.64531
1.64382
1.64135
1.63877
1.63792
1.63676
1.63479
1.63202
1.62776
1.6261
1.62498
1.62225
1.61876
1.61619
1.61332
1.60969
1.60666
1.60361
1.59954
1.59543
1.59164
1.58737
1.58315
1.57925
1.57476
1.56964
1.56443
1.5591
1.55353
1.54775
1.54193
1.53584
1.52951
1.52273
1.51583
1.50883
1.50121
1.49354
1.48549
1.47721
1.46882
1.45996
1.45128
1.44186
1.43221
1.42262
1.41157
1.40125
1.39135
1.37945
1.36799
1.35684
1.34473
1.33241
1.32026
1.30729
1.29418
1.28097
1.26748
1.2537
1.23965
1.22577
1.21109
1.19701
1.18223
1.16786
1.15294
1.13852
1.12376
1.10931
1.09534
1.08082
1.06819
1.05516
1.04582
1.03516
1.74907
1.74789
1.74656
1.74552
1.74454
1.74299
1.74077
1.73832
1.73615
1.73442
1.73321
1.73136
1.72868
1.7245
1.72213
1.72097
1.7187
1.71483
1.71167
1.70829
1.70424
1.70127
1.69801
1.6937
1.68958
1.68536
1.68104
1.6765
1.67144
1.66621
1.66072
1.65498
1.64916
1.64299
1.63646
1.62996
1.62303
1.61592
1.60826
1.60035
1.59235
1.58363
1.57505
1.56584
1.55645
1.54701
1.53682
1.52692
1.51621
1.505
1.49425
1.48236
1.4705
1.45864
1.44606
1.43337
1.42033
1.40688
1.39366
1.37961
1.36537
1.35081
1.33649
1.3213
1.30638
1.29092
1.2756
1.25968
1.24421
1.2285
1.21284
1.19744
1.18179
1.16663
1.15082
1.13565
1.11994
1.10326
1.08902
1.06637
1.83255
1.83181
1.83092
1.82915
1.82782
1.82692
1.82577
1.82462
1.82337
1.82191
1.82004
1.81803
1.81671
1.81528
1.8129
1.81031
1.80855
1.80643
1.80343
1.80068
1.79795
1.79505
1.79183
1.78835
1.78471
1.7808
1.77663
1.77232
1.76758
1.76259
1.75744
1.75199
1.74618
1.7399
1.7336
1.72679
1.71964
1.71229
1.70465
1.69667
1.68828
1.67947
1.67018
1.66069
1.65035
1.6399
1.62929
1.61797
1.60643
1.59459
1.58187
1.56943
1.55664
1.54336
1.52922
1.51554
1.50146
1.48681
1.47184
1.45667
1.4409
1.42531
1.40938
1.39312
1.37667
1.35984
1.3429
1.32566
1.30841
1.29063
1.27322
1.25511
1.23748
1.21946
1.20149
1.18346
1.16566
1.14738
1.13094
1.10431
1.87753
1.87746
1.87713
1.87654
1.87597
1.87531
1.87458
1.87413
1.87367
1.87307
1.87229
1.8715
1.87098
1.87038
1.86927
1.86819
1.86732
1.86625
1.8651
1.86404
1.86254
1.86067
1.85916
1.85747
1.85538
1.85309
1.85067
1.84799
1.84504
1.84173
1.83828
1.83457
1.83059
1.8261
1.82095
1.81541
1.80917
1.80278
1.79592
1.7887
1.78157
1.77356
1.76486
1.7557
1.74609
1.73588
1.72518
1.71403
1.702
1.6893
1.6759
1.66171
1.64814
1.63429
1.61918
1.6036
1.58847
1.57272
1.55627
1.53962
1.52209
1.50488
1.48746
1.4697
1.45163
1.43367
1.41488
1.39638
1.37763
1.35873
1.33946
1.32021
1.30081
1.28176
1.26266
1.24329
1.22496
1.20568
1.18888
1.15985
1.88847
1.88825
1.88799
1.88772
1.88745
1.88718
1.88689
1.88657
1.88624
1.88599
1.88576
1.88568
1.88565
1.88553
1.88535
1.8852
1.88502
1.88482
1.88466
1.8846
1.88465
1.88486
1.88488
1.8845
1.88415
1.88398
1.88333
1.88266
1.8825
1.88197
1.88065
1.87909
1.87765
1.87601
1.87393
1.8715
1.86862
1.86525
1.86157
1.85726
1.8525
1.84728
1.84152
1.83531
1.8285
1.82085
1.81243
1.80316
1.79297
1.78191
1.76995
1.75639
1.74274
1.72888
1.7131
1.69653
1.68089
1.66449
1.64677
1.62846
1.60989
1.59067
1.5717
1.55199
1.53229
1.5124
1.49207
1.4716
1.45136
1.43081
1.40986
1.38886
1.36764
1.34673
1.32546
1.30425
1.28311
1.26167
1.24242
1.20965
1.89011
1.89001
1.88989
1.88982
1.88972
1.88956
1.88961
1.88965
1.88952
1.88953
1.88954
1.88947
1.88959
1.88965
1.88949
1.88889
1.88832
1.88832
1.88835
1.88821
1.88803
1.88779
1.88721
1.88667
1.8866
1.88636
1.88578
1.88573
1.88578
1.88596
1.88655
1.88719
1.88743
1.88737
1.88735
1.8877
1.88783
1.88771
1.88768
1.88698
1.88544
1.88372
1.88152
1.8784
1.87534
1.87246
1.86887
1.8644
1.85931
1.8534
1.84551
1.83576
1.82555
1.81511
1.80289
1.78823
1.77268
1.75683
1.73968
1.72138
1.70228
1.68238
1.66201
1.64069
1.61893
1.59718
1.57516
1.55261
1.53047
1.5079
1.48532
1.46232
1.43954
1.41666
1.39384
1.37064
1.34798
1.32476
1.30421
1.26957
1.88387
1.88417
1.88452
1.88478
1.88514
1.88543
1.88563
1.88612
1.88627
1.88637
1.8868
1.8872
1.88759
1.88812
1.88832
1.88814
1.88797
1.8882
1.88858
1.88872
1.8887
1.88859
1.88827
1.88771
1.88738
1.88754
1.88766
1.8876
1.88752
1.88741
1.88708
1.88642
1.88588
1.88586
1.88621
1.88651
1.88674
1.88741
1.88871
1.88994
1.89055
1.89042
1.88955
1.88866
1.88809
1.88714
1.88613
1.8852
1.88435
1.88369
1.88245
1.87984
1.87598
1.87119
1.86477
1.85662
1.84746
1.83695
1.82369
1.80831
1.79163
1.77378
1.75436
1.73345
1.71076
1.68751
1.66391
1.63997
1.61567
1.59113
1.56624
1.54147
1.51653
1.49153
1.46662
1.44146
1.41662
1.39126
1.36887
1.33048
1.85755
1.85793
1.85903
1.8604
1.86065
1.86054
1.86072
1.86141
1.86153
1.86131
1.86188
1.8634
1.86457
1.86515
1.86565
1.86698
1.86841
1.86911
1.87012
1.87114
1.87175
1.87244
1.87325
1.87341
1.87332
1.87426
1.87711
1.8784
1.87845
1.87916
1.88099
1.88158
1.88148
1.8822
1.88287
1.8827
1.88363
1.88459
1.88469
1.88482
1.88484
1.88467
1.88491
1.88629
1.88744
1.88771
1.88749
1.88632
1.88562
1.88568
1.88618
1.88668
1.8865
1.88604
1.88523
1.88366
1.88168
1.87908
1.87502
1.86875
1.85992
1.84848
1.83475
1.81879
1.80029
1.77919
1.75603
1.73158
1.70629
1.68023
1.65348
1.6264
1.5992
1.57186
1.54451
1.51725
1.4902
1.46262
1.43825
1.39676
1.7513
1.75348
1.7559
1.7582
1.76041
1.7621
1.76388
1.76629
1.76698
1.76761
1.76997
1.77353
1.77652
1.78046
1.78285
1.78301
1.78437
1.7889
1.79327
1.79566
1.79813
1.80084
1.80354
1.80567
1.80784
1.8114
1.81671
1.82062
1.82393
1.82777
1.83055
1.83323
1.83725
1.84015
1.84253
1.84606
1.8506
1.85464
1.8587
1.86179
1.8633
1.86467
1.86635
1.86935
1.87271
1.87593
1.87933
1.88033
1.88018
1.88109
1.88253
1.88343
1.88409
1.88415
1.88416
1.88413
1.88391
1.88376
1.88406
1.88405
1.88325
1.88111
1.87751
1.87229
1.86458
1.85339
1.83807
1.81897
1.79674
1.77215
1.74545
1.71723
1.68799
1.6583
1.62854
1.59862
1.56909
1.53903
1.51253
1.4673
1.54931
1.5513
1.55339
1.55587
1.55723
1.55871
1.56088
1.56383
1.56782
1.5703
1.57173
1.57415
1.57816
1.58407
1.58667
1.58862
1.59243
1.59764
1.60189
1.60602
1.61121
1.61632
1.62117
1.62706
1.63305
1.63923
1.64599
1.65263
1.65976
1.6675
1.67535
1.68314
1.69154
1.70001
1.70828
1.71707
1.72683
1.73663
1.74626
1.7556
1.76399
1.77337
1.78399
1.79356
1.80392
1.81291
1.82007
1.82793
1.83576
1.84368
1.85184
1.85605
1.8596
1.86409
1.87161
1.8761
1.87653
1.87744
1.87947
1.88186
1.88197
1.88186
1.88197
1.88175
1.88123
1.88001
1.87719
1.87163
1.86225
1.84858
1.82999
1.80697
1.78
1.75045
1.71909
1.68687
1.65444
1.62128
1.59225
1.543
1.42039
1.42086
1.4216
1.42227
1.42268
1.42316
1.42391
1.42479
1.42562
1.42662
1.42755
1.42836
1.42933
1.4309
1.43227
1.43338
1.43478
1.43646
1.43821
1.44013
1.44226
1.44457