/*--------------------------------*- C++ -*----------------------------------*\
  =========                 |
  \\      /  F ield         | OpenFOAM: The Open Source CFD Toolbox
   \\    /   O peration     | Website:  https://openfoam.org
    \\  /    A nd           | Version:  7
     \\/     M anipulation  |
\*---------------------------------------------------------------------------*/
FoamFile
{
    version     2.0;
    format      ascii;
    class       volScalarField;
    location    "6.5";
    object      p;
}
// * * * * * * * * * * * * * * * * * * * * * * * * * * * * * * * * * * * * * //

dimensions      [1 -1 -2 0 0 0 0];

internalField   nonuniform List<scalar> 
90000
(
0.696384
0.710555
0.725376
0.73995
0.753467
0.766919
0.780054
0.79374
0.807444
0.821921
0.836383
0.851526
0.866244
0.881416
0.895713
0.910325
0.92365
0.937256
0.949193
0.961387
0.971575
0.981947
0.990038
0.998085
1.00374
1.009
1.01213
1.01487
1.01477
1.01394
1.01223
1.00991
1.00659
1.00229
0.995682
0.99078
0.988087
0.988659
0.990292
0.991809
0.993286
0.99504
0.997022
0.998805
1.00029
0.999918
0.998857
0.996644
0.994507
0.992997
0.992929
0.993654
0.995355
0.996345
0.997672
0.998779
0.998526
0.997807
0.996474
0.995642
0.996067
0.997148
0.998419
0.998929
0.998785
0.998292
0.99778
0.997847
0.99838
0.998457
0.99854
0.998511
0.99824
0.998217
0.998304
0.998243
0.998388
0.998538
0.998596
0.998568
0.998519
0.9985
0.998572
0.998653
0.998623
0.998583
0.998501
0.998467
0.998495
0.998602
0.998861
0.999154
0.999411
0.999428
0.999307
0.999105
0.999009
0.998999
0.999029
0.998961
0.685388
0.686449
0.688457
0.691415
0.695393
0.700242
0.706027
0.71261
0.720184
0.728536
0.737943
0.74805
0.759296
0.771109
0.784077
0.79739
0.811716
0.826106
0.841245
0.856181
0.871413
0.886297
0.900799
0.915005
0.927887
0.940826
0.951491
0.962224
0.970014
0.977321
0.981929
0.985636
0.988675
0.994114
0.999962
1.00364
1.0049
1.0049
1.004
1.00218
0.999888
0.997788
0.995724
0.994894
0.99522
0.995558
0.995696
0.996298
0.997352
0.99817
0.998221
0.997857
0.996929
0.995927
0.995272
0.995175
0.99552
0.995984
0.997304
0.998441
0.998725
0.998464
0.99781
0.997248
0.997333
0.998035
0.998773
0.998905
0.998559
0.997928
0.997728
0.99816
0.998762
0.998634
0.998226
0.997903
0.998199
0.998714
0.998657
0.99846
0.998422
0.998575
0.998703
0.99856
0.99848
0.998545
0.998587
0.998563
0.998501
0.998538
0.9987
0.999099
0.999394
0.999459
0.999381
0.999215
0.999067
0.998992
0.999011
0.998998
0.684897
0.684904
0.684918
0.684944
0.685018
0.685155
0.6854
0.6858
0.686406
0.687248
0.688421
0.689972
0.692059
0.694716
0.698207
0.702498
0.707981
0.7145
0.722715
0.73216
0.743736
0.756548
0.771791
0.788094
0.806741
0.826118
0.847143
0.868518
0.890092
0.911788
0.931624
0.951772
0.967878
0.98043
0.98793
0.99383
0.997223
0.998235
0.998
0.998045
0.997413
0.995785
0.993395
0.990887
0.991498
0.993239
0.995868
0.998753
1.0013
1.00182
1.00096
0.998911
0.996191
0.993778
0.991774
0.991975
0.99362
0.996642
0.999004
1.00017
0.999501
0.998173
0.996484
0.996469
0.997413
0.998768
0.999458
0.998927
0.998067
0.997355
0.997724
0.998494
0.998884
0.998669
0.998246
0.998066
0.998209
0.998478
0.998479
0.998457
0.998523
0.99863
0.998648
0.998586
0.998553
0.998566
0.998566
0.998519
0.998545
0.998666
0.998866
0.998989
0.999249
0.999388
0.999354
0.999236
0.999066
0.999
0.998978
0.998959
0.684771
0.68476
0.68475
0.684733
0.684712
0.684695
0.684688
0.684697
0.684712
0.684726
0.684743
0.68477
0.684813
0.684873
0.68501
0.685237
0.685608
0.686168
0.686996
0.688165
0.689876
0.692224
0.695625
0.700111
0.706435
0.714366
0.725184
0.738
0.754597
0.773248
0.795661
0.819778
0.846045
0.872342
0.896176
0.919419
0.936897
0.95284
0.962767
0.972297
0.976831
0.9799
0.983286
0.990015
0.995292
0.999592
1.00181
1.00268
1.00242
1.00169
0.999857
0.997703
0.995691
0.993885
0.99417
0.995426
0.99698
0.998259
0.998395
0.998197
0.997827
0.99738
0.997535
0.998113
0.998684
0.998792
0.998494
0.998124
0.997766
0.997946
0.998254
0.998529
0.998617
0.998527
0.998464
0.998267
0.998142
0.998183
0.998338
0.998449
0.998595
0.998676
0.998706
0.998616
0.998516
0.998514
0.998586
0.998645
0.998704
0.998767
0.998774
0.998877
0.999145
0.999418
0.99944
0.99937
0.999184
0.999022
0.998957
0.998981
0.684702
0.684701
0.6847
0.6847
0.6847
0.684695
0.684689
0.684668
0.68464
0.684615
0.684594
0.684579
0.684575
0.68458
0.684568
0.684559
0.684566
0.684578
0.684589
0.684603
0.684632
0.684678
0.684784
0.684962
0.685368
0.68604
0.687159
0.688873
0.691688
0.695757
0.702211
0.710881
0.723905
0.739969
0.761997
0.786811
0.816322
0.847237
0.877712
0.907813
0.932353
0.956224
0.972403
0.98347
0.988172
0.992438
0.994726
0.996193
0.995271
0.99292
0.9911
0.992264
0.99471
0.997883
1.00032
1.00047
0.999439
0.99726
0.995959
0.995166
0.995425
0.996851
0.999025
0.99984
0.999342
0.998239
0.997176
0.997241
0.997828
0.998671
0.998628
0.998279
0.998015
0.998161
0.998554
0.998616
0.998334
0.998087
0.998187
0.998468
0.998625
0.998648
0.998594
0.99854
0.998522
0.99851
0.998574
0.998636
0.998731
0.998772
0.998811
0.998824
0.998989
0.999263
0.999387
0.999357
0.999183
0.998986
0.998924
0.998948
0.684604
0.684603
0.684603
0.684604
0.684604
0.684605
0.684605
0.684605
0.684602
0.684597
0.684591
0.684586
0.684581
0.684574
0.684563
0.68455
0.684531
0.684503
0.684474
0.684456
0.684447
0.684453
0.684467
0.684527
0.684522
0.684512
0.684512
0.684527
0.684579
0.684698
0.684955
0.685518
0.686675
0.688701
0.692489
0.698395
0.708589
0.722378
0.743371
0.76847
0.799789
0.833656
0.867428
0.900074
0.923068
0.945246
0.956319
0.968571
0.973883
0.979887
0.986452
0.995307
1.00076
1.00419
1.00395
1.00296
1.00025
0.99691
0.994221
0.994287
0.995824
0.998108
1.00003
0.999752
0.998818
0.997589
0.996873
0.997283
0.998223
0.999075
0.999018
0.998517
0.997846
0.99794
0.998302
0.998611
0.998403
0.998083
0.998119
0.998384
0.998674
0.998723
0.998628
0.9986
0.998598
0.998569
0.998625
0.998725
0.998853
0.998881
0.998825
0.998794
0.998906
0.999174
0.999418
0.999445
0.999304
0.999078
0.998953
0.998986
0.68453
0.684528
0.684527
0.684527
0.684528
0.684529
0.684529
0.684528
0.684527
0.684525
0.684524
0.684525
0.684526
0.684526
0.684525
0.684522
0.68452
0.684517
0.68451
0.684501
0.684493
0.684482
0.684471
0.684459
0.68444
0.684424
0.684415
0.684416
0.684425
0.684447
0.684537
0.684513
0.684502
0.684512
0.684581
0.684767
0.685226
0.686354
0.688961
0.693566
0.702598
0.715767
0.737547
0.764173
0.799602
0.836677
0.874041
0.910019
0.93773
0.965352
0.979579
0.98919
0.994069
0.998686
0.998055
0.994948
0.991643
0.992772
0.994916
0.997667
1.00022
0.999707
0.998735
0.997165
0.996166
0.996353
0.997357
0.998728
0.998826
0.998491
0.998077
0.997977
0.998079
0.998324
0.99837
0.998332
0.998302
0.998282
0.998337
0.998351
0.998435
0.998476
0.998552
0.99861
0.998603
0.998578
0.998615
0.998741
0.998867
0.998878
0.998806
0.998762
0.998828
0.999028
0.999329
0.999383
0.999291
0.999085
0.998942
0.998955
0.684494
0.684491
0.684487
0.684484
0.68448
0.684479
0.684478
0.684477
0.684475
0.684473
0.68447
0.684469
0.684469
0.684468
0.684467
0.684465
0.684464
0.684463
0.684463
0.684462
0.684457
0.684454
0.684453
0.684451
0.684448
0.684445
0.684443
0.684439
0.684434
0.68443
0.684422
0.684426
0.684432
0.684442
0.684465
0.684505
0.684618
0.684586
0.684585
0.684662
0.684955
0.685853
0.688248
0.692902
0.702837
0.717847
0.743472
0.774094
0.81372
0.854521
0.890844
0.92506
0.943349
0.963054
0.970596
0.978748
0.987084
0.99696
1.00309
1.00367
1.00301
1.00002
0.994943
0.994414
0.994918
0.996876
0.999459
0.999856
0.999045
0.998002
0.99727
0.997595
0.998301
0.998715
0.998313
0.997972
0.998091
0.99844
0.998645
0.998548
0.998357
0.998345
0.998481
0.998688
0.998696
0.998669
0.998709
0.998833
0.998887
0.998869
0.998796
0.998777
0.998825
0.99897
0.999247
0.99939
0.999344
0.999176
0.999028
0.998993
0.68446
0.684455
0.68445
0.684445
0.684441
0.684437
0.684434
0.684431
0.684427
0.684425
0.684422
0.684421
0.684421
0.684421
0.684421
0.68442
0.684419
0.684419
0.684419
0.684419
0.684417
0.684415
0.684415
0.684416
0.684417
0.684419
0.684421
0.684422
0.684424
0.684426
0.684427
0.684429
0.684429
0.684432
0.684443
0.684446
0.684453
0.684462
0.684475
0.684497
0.684576
0.684547
0.684556
0.684644
0.685059
0.686242
0.689526
0.6959
0.709562
0.729507
0.762557
0.800925
0.845776
0.890076
0.925991
0.961972
0.979371
0.990864
0.996381
0.998777
0.995538
0.990448
0.991401
0.994648
0.997864
0.999776
0.999941
0.998812
0.99651
0.996568
0.997225
0.998568
0.998796
0.998441
0.997882
0.997867
0.99823
0.998691
0.998641
0.998389
0.998218
0.9983
0.998479
0.9986
0.998658
0.998705
0.998824
0.998903
0.99889
0.998834
0.998788
0.998786
0.998823
0.998926
0.999111
0.999316
0.999306
0.999221
0.999078
0.999001
0.684444
0.684436
0.684426
0.68442
0.684415
0.68441
0.684404
0.684398
0.684394
0.68439
0.684388
0.684387
0.684386
0.684385
0.684384
0.684383
0.684381
0.684381
0.684381
0.684382
0.684383
0.684385
0.684387
0.684389
0.684393
0.684398
0.684403
0.684409
0.684415
0.68442
0.684427
0.684436
0.684446
0.684457
0.684466
0.684475
0.684481
0.68448
0.68447
0.684466
0.684468
0.684483
0.684498
0.684535
0.684513
0.684524
0.684598
0.68487
0.685751
0.687939
0.69375
0.704465
0.726623
0.756264
0.799637
0.846272
0.888628
0.928304
0.947527
0.967647
0.974695
0.987015
0.995053
1.00245
1.00244
1.00166
0.99839
0.994428
0.994666
0.996254
0.998925
0.999645
0.998997
0.997334
0.997289
0.997818
0.998775
0.998904
0.998647
0.998216
0.998145
0.998331
0.998556
0.998579
0.998625
0.998797
0.99894
0.998925
0.99883
0.998788
0.998801
0.998813
0.998856
0.998915
0.999015
0.999252
0.999265
0.999262
0.999174
0.999043
0.684462
0.684454
0.684446
0.684439
0.684428
0.684417
0.68441
0.684404
0.684399
0.684396
0.684394
0.684393
0.684393
0.684388
0.684385
0.684382
0.68438
0.684381
0.684382
0.684383
0.684385
0.684387
0.684391
0.684395
0.6844
0.684408
0.684417
0.684428
0.684438
0.684448
0.68446
0.684476
0.684494
0.684512
0.684533
0.684557
0.684579
0.684592
0.68459
0.68458
0.684565
0.684551
0.684532
0.684507
0.684501
0.684514
0.684551
0.684571
0.684614
0.684711
0.684966
0.685677
0.687911
0.692975
0.705622
0.726123
0.762998
0.807373
0.857927
0.90774
0.945064
0.978399
0.988882
0.997989
0.997652
0.994187
0.991305
0.993118
0.996664
0.999703
1.00018
0.999108
0.996765
0.996509
0.997406
0.998753
0.998913
0.998638
0.998056
0.998093
0.998391
0.998539
0.998486
0.998495
0.998639
0.998923
0.998982
0.998907
0.998756
0.998761
0.998799
0.998836
0.998884
0.998912
0.998941
0.999064
0.999214
0.999275
0.999247
0.999097
0.684499
0.68449
0.684482
0.684475
0.684465
0.684456
0.684451
0.684446
0.68444
0.684438
0.684436
0.684434
0.684429
0.684427
0.684426
0.684424
0.684422
0.684423
0.684427
0.684429
0.684431
0.684435
0.684439
0.684445
0.684454
0.684465
0.684478
0.684493
0.684508
0.684527
0.684549
0.684572
0.684596
0.68462
0.684647
0.684676
0.684708
0.684735
0.684746
0.684745
0.684738
0.684719
0.684684
0.684631
0.684574
0.684524
0.684513
0.684522
0.684526
0.684534
0.684577
0.684652
0.684782
0.685061
0.685899
0.688145
0.69478
0.707941
0.736242
0.774337
0.825977
0.880092
0.917473
0.954737
0.96544
0.977343
0.986959
0.998729
1.00252
1.00181
0.998647
0.994636
0.995
0.99703
0.999851
0.999703
0.998772
0.997477
0.997642
0.998318
0.998832
0.99869
0.998379
0.99842
0.998759
0.999017
0.998951
0.998769
0.998706
0.99876
0.998825
0.99888
0.998915
0.998916
0.998878
0.998924
0.999114
0.999267
0.999298
0.999164
0.684554
0.684548
0.684542
0.684536
0.684531
0.684526
0.684522
0.684517
0.684513
0.684509
0.684503
0.684497
0.684496
0.684497
0.684496
0.684493
0.684494
0.684502
0.684509
0.684512
0.684517
0.684523
0.684531
0.684542
0.684555
0.68457
0.684588
0.684607
0.684627
0.684652
0.684679
0.684704
0.684725
0.684746
0.684771
0.684798
0.684822
0.684848
0.68487
0.684878
0.684876
0.684865
0.684836
0.684787
0.684721
0.684645
0.684574
0.68452
0.684497
0.684495
0.68451
0.684551
0.684616
0.684706
0.684818
0.684965
0.68529
0.686235
0.689666
0.697658
0.718326
0.750023
0.801683
0.858694
0.90939
0.959557
0.979854
0.992771
0.997318
0.994014
0.989434
0.991952
0.99687
1.00079
1.00072
0.999016
0.99653
0.996764
0.9981
0.998938
0.998776
0.998329
0.998268
0.998666
0.999031
0.998971
0.998735
0.998633
0.998725
0.998787
0.998829
0.998907
0.99894
0.998915
0.998827
0.998855
0.99901
0.999244
0.999306
0.9992
0.684677
0.684675
0.684675
0.684676
0.684676
0.684676
0.684675
0.684674
0.684672
0.684667
0.68466
0.684657
0.684656
0.684655
0.68465
0.684646
0.684649
0.684653
0.684653
0.684654
0.684658
0.684663
0.684669
0.684678
0.684689
0.684703
0.684718
0.684732
0.684751
0.684775
0.684798
0.684817
0.684833
0.684851
0.68487
0.684887
0.684902
0.684919
0.684938
0.684954
0.684963
0.684962
0.684953
0.684927
0.68488
0.684809
0.684725
0.684639
0.684565
0.684509
0.684498
0.684515
0.68456
0.684632
0.684709
0.684805
0.684913
0.68496
0.685041
0.685408
0.687071
0.691943
0.707062
0.733432
0.782537
0.839903
0.891858
0.937952
0.958104
0.972308
0.983428
0.998155
1.0029
1.00232
0.99868
0.994921
0.995517
0.997893
0.999618
0.999168
0.998022
0.998004
0.998556
0.999233
0.999144
0.998703
0.998507
0.998656
0.998841
0.99881
0.998835
0.998923
0.998944
0.998875
0.998781
0.998807
0.998936
0.999195
0.999297
0.999212
0.684849
0.684856
0.684862
0.684868
0.684871
0.684875
0.684881
0.684885
0.684886
0.684885
0.684883
0.684881
0.684876
0.684871
0.684867
0.684861
0.684855
0.684847
0.684838
0.684831
0.684826
0.684821
0.684814
0.684806
0.684808
0.68481
0.684809
0.684813
0.684821
0.684834
0.684847
0.684857
0.684869
0.684884
0.6849
0.684912
0.684923
0.684935
0.684952
0.684972
0.684997
0.685023
0.68504
0.685041
0.685027
0.684987
0.684923
0.684843
0.68475
0.684652
0.684578
0.68456
0.684568
0.684603
0.684651
0.684708
0.684799
0.684877
0.684913
0.684894
0.684785
0.684858
0.685666
0.688834
0.700394
0.723109
0.769864
0.827227
0.885723
0.945283
0.97509
0.991602
0.997587
0.993887
0.990373
0.993355
0.998426
1.0007
0.999708
0.997372
0.997295
0.998181
0.99937
0.999364
0.998785
0.99839
0.998531
0.998716
0.998755
0.998769
0.998869
0.998958
0.998927
0.998803
0.998761
0.998812
0.998911
0.999092
0.999255
0.999208
0.684967
0.68498
0.684994
0.685007
0.685018
0.685024
0.68503
0.685037
0.68504
0.68504
0.685038
0.685035
0.685035
0.685034
0.685028
0.685019
0.68501
0.684999
0.684988
0.684978
0.684966
0.68495
0.684933
0.684917
0.684901
0.684886
0.684871
0.684858
0.684849
0.684844
0.68484
0.684838
0.68484
0.684847
0.684858
0.684871
0.684886
0.684906
0.684931
0.684961
0.684998
0.685035
0.685076
0.685116
0.685131
0.685125
0.685101
0.685055
0.68498
0.684874
0.684755
0.684665
0.684628
0.684619
0.684613
0.684632
0.684696
0.684784
0.684835
0.684824
0.684782
0.684655
0.684447
0.684434
0.684973
0.687376
0.696899
0.717265
0.761135
0.819191
0.878898
0.930045
0.955836
0.972049
0.984916
1.00074
1.0031
1.00118
0.995758
0.995962
0.997388
0.999908
0.99987
0.998923
0.998185
0.998384
0.998811
0.998793
0.998641
0.998718
0.99893
0.998945
0.998841
0.998733
0.998767
0.998857
0.998912
0.999007
0.999171
0.999147
0.684981
0.684995
0.685008
0.685022
0.685037
0.685052
0.685067
0.685079
0.685089
0.685096
0.685101
0.6851
0.685098
0.685099
0.685099
0.685093
0.685088
0.685085
0.685079
0.68507
0.685058
0.685043
0.685027
0.685009
0.684989
0.684966
0.684942
0.684915
0.684886
0.684857
0.684829
0.684804
0.684786
0.684775
0.684773
0.684775
0.684783
0.684798
0.68482
0.68485
0.684893
0.684953
0.685023
0.685094
0.685155
0.685182
0.685182
0.68517
0.685133
0.685062
0.684961
0.684843
0.684721
0.684613
0.684559
0.684543
0.684546
0.68461
0.684751
0.684802
0.684783
0.684721
0.684603
0.684443
0.684338
0.684385
0.684874
0.686973
0.695254
0.714194
0.757841
0.816027
0.880058
0.944452
0.976604
0.994409
0.997477
0.989902
0.991193
0.995618
1.00044
1.0007
0.999411
0.99745
0.997828
0.99894
0.998911
0.998635
0.998561
0.998796
0.998979
0.998911
0.998702
0.998723
0.998836
0.99889
0.9989
0.998934
0.999023
0.999091
0.684929
0.684943
0.684957
0.684972
0.684987
0.685004
0.68502
0.685035
0.68505
0.685064
0.685079
0.685092
0.6851
0.685105
0.685108
0.685109
0.68511
0.685113
0.685115
0.685112
0.685106
0.685099
0.685092
0.685081
0.685067
0.685049
0.685027
0.684999
0.684963
0.684923
0.684882
0.684841
0.684798
0.684753
0.684716
0.684699
0.684698
0.684706
0.684722
0.684748
0.684786
0.684841
0.684918
0.685008
0.685092
0.685149
0.685165
0.685161
0.685148
0.685121
0.685074
0.684988
0.684843
0.68464
0.684497
0.684467
0.684468
0.684505
0.684605
0.684752
0.684825
0.68483
0.684793
0.684702
0.684561
0.684476
0.684487
0.68459
0.685088
0.686956
0.694557
0.71335
0.757094
0.818187
0.882944
0.93441
0.960811
0.974551
0.993189
1.00272
1.00234
0.999283
0.996082
0.996972
0.999333
0.999536
0.998871
0.998165
0.998472
0.999018
0.998979
0.99865
0.998614
0.998788
0.998948
0.998927
0.998897
0.99889
0.998887
0.998973
0.684824
0.684837
0.684851
0.684863
0.684877
0.684891
0.684907
0.684923
0.684941
0.684961
0.684982
0.685002
0.685019
0.685037
0.685059
0.68508
0.685093
0.6851
0.685105
0.68511
0.685117
0.685125
0.685131
0.685133
0.685132
0.68513
0.685122
0.685106
0.685085
0.685058
0.685025
0.684982
0.684931
0.684871
0.684803
0.684734
0.684679
0.684654
0.684651
0.68466
0.684686
0.684728
0.684784
0.684846
0.684915
0.684989
0.685052
0.685075
0.685076
0.685075
0.68507
0.685037
0.684933
0.684718
0.684489
0.684411
0.684408
0.684445
0.684546
0.684668
0.684803
0.684918
0.684956
0.684945
0.684871
0.684727
0.684614
0.684602
0.684664
0.684792
0.685218
0.686952
0.69447
0.714963
0.761901
0.825048
0.896012
0.956611
0.985657
0.997903
0.994941
0.990073
0.993839
0.999396
1.00069
0.999517
0.997488
0.997891
0.999087
0.999112
0.998585
0.99843
0.998687
0.998948
0.998935
0.998927
0.998906
0.998856
0.998781
0.998858
0.684741
0.684748
0.684754
0.684761
0.68477
0.68478
0.684792
0.684804
0.68482
0.684838
0.684859
0.684886
0.684922
0.684968
0.685018
0.685058
0.685077
0.685085
0.685092
0.685106
0.685125
0.685145
0.68516
0.685175
0.685192
0.685201
0.685203
0.685204
0.685206
0.685201
0.685186
0.68516
0.68512
0.685065
0.684996
0.684911
0.684815
0.68472
0.684647
0.684619
0.684618
0.684631
0.684656
0.684681
0.684705
0.684733
0.684766
0.684804
0.684857
0.684947
0.685007
0.685013
0.684978
0.684837
0.684615
0.684443
0.684404
0.68443
0.684515
0.68462
0.68473
0.684875
0.685013
0.68505
0.685044
0.684968
0.684795
0.684674
0.684658
0.684703
0.684796
0.684907
0.685255
0.687168
0.695522
0.719578
0.769193
0.838818
0.903571
0.947087
0.968518
0.983459
1.00159
1.0023
1.0002
0.996247
0.996964
0.99935
0.999694
0.998764
0.99799
0.998351
0.999009
0.999038
0.998886
0.998911
0.998909
0.998831
0.998666
0.998805
0.684701
0.684705
0.684709
0.684715
0.684723
0.684734
0.684747
0.684759
0.684772
0.684788
0.684806
0.684828
0.684852
0.684878
0.684909
0.684944
0.684979
0.68502
0.685065
0.685105
0.685136
0.685158
0.685176
0.685191
0.685207
0.685222
0.685238
0.685256
0.685263
0.685264
0.685263
0.685254
0.685231
0.685192
0.685139
0.685068
0.684977
0.684872
0.684763
0.684665
0.684604
0.684591
0.684594
0.684597
0.684589
0.684576
0.68457
0.684576
0.684615
0.68472
0.684886
0.68499
0.684997
0.684943
0.684816
0.684672
0.684576
0.68457
0.684592
0.684612
0.684652
0.684748
0.684913
0.685036
0.685056
0.68504
0.684942
0.684769
0.684682
0.684693
0.684762
0.68491
0.684969
0.685003
0.68536
0.687877
0.697808
0.727623
0.782842
0.853516
0.931197
0.972474
0.996444
0.996194
0.989906
0.993305
0.999316
1.00093
0.999584
0.997165
0.997626
0.999072
0.999124
0.998923
0.998792
0.998951
0.998909
0.998684
0.998569
0.998808
0.684722
0.684717
0.684715
0.684715
0.684716
0.684723
0.684729
0.684732
0.684737
0.684749
0.684765
0.684782
0.684798
0.684814
0.684835
0.684855
0.684874
0.684896
0.684923
0.684954
0.684985
0.685018
0.685052
0.685091
0.685131
0.685171
0.685207
0.685239
0.685268
0.685289
0.68529
0.68528
0.685258
0.685224
0.685175
0.685111
0.685045
0.684974
0.684891
0.684809
0.68473
0.684652
0.684595
0.68458
0.68456
0.684531
0.68452
0.684524
0.684556
0.684657
0.684814
0.684961
0.685018
0.685002
0.68496
0.684925
0.684907
0.684886
0.684819
0.684687
0.684629
0.68464
0.684712
0.684843
0.684965
0.685
0.684986
0.684899
0.684768
0.684738
0.684779
0.684901
0.685017
0.685055
0.685007
0.685021
0.685546
0.689226
0.701844
0.739043
0.801285
0.873511
0.935884
0.961396
0.977828
0.999669
1.00267
1.00043
0.995791
0.996511
0.999166
0.999766
0.999041
0.998507
0.998814
0.999124
0.998927
0.998517
0.998578
0.998922
0.684823
0.684805
0.68479
0.684778
0.684766
0.684754
0.684745
0.684741
0.684738
0.684733
0.68473
0.684729
0.684729
0.684733
0.684742
0.684746
0.684747
0.684744
0.684739
0.684737
0.684737
0.684744
0.684754
0.684769
0.684792
0.684822
0.684858
0.684905
0.684958
0.685001
0.685027
0.685045
0.685058
0.685059
0.685048
0.685033
0.685009
0.684977
0.684957
0.684953
0.684946
0.684916
0.684866
0.684819
0.684752
0.684662
0.68461
0.684593
0.684605
0.684687
0.684825
0.684913
0.68498
0.684992
0.685
0.685033
0.685091
0.6851
0.685048
0.684865
0.684663
0.68459
0.684597
0.684644
0.684758
0.684922
0.685004
0.685007
0.684953
0.684859
0.684852
0.684898
0.684997
0.685051
0.685024
0.684966
0.684937
0.685047
0.685997
0.691342
0.709174
0.756086
0.824173
0.904568
0.963876
0.992065
0.996989
0.988876
0.992102
0.998766
1.00093
0.999672
0.997662
0.998219
0.999185
0.999103
0.998455
0.998365
0.998699
0.999045
0.684959
0.684934
0.684909
0.684884
0.68486
0.684842
0.684825
0.684808
0.68479
0.68477
0.684748
0.684722
0.684697
0.684675
0.684651
0.684637
0.684624
0.684605
0.684589
0.684577
0.684568
0.684561
0.684551
0.684542
0.684542
0.684549
0.684563
0.684586
0.684624
0.684667
0.684703
0.684731
0.684754
0.684775
0.684794
0.684818
0.684859
0.684916
0.684975
0.685062
0.685172
0.685226
0.685245
0.685241
0.685196
0.685113
0.685045
0.684989
0.684938
0.68494
0.684924
0.684852
0.684794
0.684793
0.68485
0.684979
0.685115
0.685159
0.685135
0.685021
0.684815
0.684627
0.684565
0.684585
0.684663
0.684827
0.685023
0.685093
0.685094
0.685031
0.684927
0.684905
0.684924
0.684986
0.684994
0.684956
0.68492
0.684925
0.684968
0.685249
0.68694
0.69488
0.721116
0.777644
0.854985
0.918633
0.957767
0.974589
0.998185
1.0026
1.00042
0.996238
0.997189
0.999581
0.999547
0.99848
0.998048
0.998443
0.999109
0.999109
0.68499
0.684977
0.684958
0.684945
0.684942
0.684935
0.684926
0.684912
0.684896
0.684877
0.684855
0.684825
0.684786
0.684739
0.684688
0.684642
0.684601
0.684571
0.684553
0.684539
0.684524
0.684519
0.684521
0.684519
0.684505
0.684504
0.684515
0.684525
0.684532
0.684544
0.684564
0.684587
0.68461
0.68463
0.684647
0.684673
0.684736
0.684849
0.684981
0.685147
0.685303
0.685363
0.685405
0.685426
0.685397
0.685342
0.685321
0.685312
0.685298
0.68525
0.685101
0.684819
0.684614
0.684582
0.684593
0.6847
0.684925
0.685127
0.685166
0.685129
0.685015
0.684843
0.684677
0.684648
0.684693
0.684821
0.685017
0.685133
0.685147
0.685122
0.684995
0.684893
0.684876
0.684883
0.684921
0.684952
0.684977
0.685008
0.68506
0.685112
0.685177
0.685606
0.688496
0.701291
0.739512
0.804889
0.889352
0.955487
0.991212
0.996781
0.988995
0.992822
0.999369
1.00055
0.99919
0.997191
0.997798
0.999228
0.999301
0.99903
0.684987
0.684993
0.684999
0.68501
0.685025
0.685041
0.685053
0.685059
0.685056
0.685046
0.685048
0.685045
0.685022
0.684994
0.684982
0.684972
0.684963
0.684958
0.684954
0.68495
0.684948
0.684953
0.684969
0.684994
0.685012
0.685019
0.685015
0.684973
0.684889
0.684799
0.684729
0.684663
0.684612
0.684593
0.684595
0.684626
0.684708
0.684811
0.684935
0.685145
0.685307
0.685338
0.685365
0.685387
0.685345
0.685302
0.685308
0.685338
0.685361
0.685356
0.685209
0.684835
0.68455
0.684489
0.684481
0.684527
0.684688
0.684922
0.685132
0.685205
0.6852
0.685137
0.685008
0.684906
0.68489
0.684906
0.684992
0.685122
0.685157
0.685138
0.685023
0.68489
0.68486
0.684863
0.684899
0.684998
0.685108
0.685142
0.685168
0.685167
0.685155
0.685089
0.685136
0.686032
0.691478
0.713136
0.763307
0.842021
0.914938
0.954561
0.974253
0.999145
1.00206
0.999951
0.995969
0.996852
0.99942
0.999762
0.999144
0.998731
0.68501
0.685031
0.685058
0.685092
0.685144
0.685192
0.685219
0.68525
0.685274
0.68527
0.685255
0.685252
0.685276
0.685324
0.685328
0.685327
0.685343
0.685399
0.685437
0.685455
0.68547
0.685496
0.685541
0.68558
0.685589
0.685587
0.685577
0.685541
0.685462
0.685342
0.685216
0.685096
0.684975
0.684842
0.684737
0.684728
0.684752
0.684799
0.684877
0.685021
0.685079
0.685039
0.685002
0.684995
0.685004
0.685036
0.685121
0.68527
0.685333
0.685332
0.685219
0.684932
0.684676
0.684576
0.684537
0.684539
0.684631
0.684814
0.68502
0.685194
0.685272
0.685277
0.685216
0.685145
0.685096
0.685009
0.684956
0.684956
0.684981
0.68499
0.684974
0.684931
0.684925
0.684936
0.684995
0.685116
0.685215
0.68522
0.685205
0.685138
0.685016
0.684896
0.684842
0.684871
0.685169
0.68742
0.697545
0.733059
0.796551
0.883211
0.955178
0.991396
0.996112
0.988965
0.992747
0.999046
1.00072
0.999713
0.998194
0.998498
0.685159
0.685207
0.685253
0.685308
0.685377
0.685413
0.685405
0.685381
0.685387
0.685409
0.685396
0.685375
0.685384
0.685441
0.685453
0.685426
0.68542
0.685451
0.68555
0.685582
0.685566
0.685563
0.685595
0.68563
0.68562
0.685595
0.685556
0.685533
0.685501
0.685414
0.685314
0.685234
0.685163
0.68509
0.685004
0.684917
0.684876
0.684867
0.684858
0.684836
0.684795
0.684679
0.684569
0.684549
0.684568
0.68465
0.684802
0.685015
0.685171
0.68521
0.685201
0.685125
0.685094
0.685076
0.685025
0.684945
0.684888
0.684894
0.684972
0.685107
0.685228
0.68526
0.685243
0.68522
0.685188
0.685082
0.684929
0.684864
0.684866
0.684889
0.684928
0.685013
0.685105
0.685157
0.685213
0.685251
0.685269
0.685255
0.685168
0.684999
0.684852
0.684776
0.684784
0.684827
0.684927
0.685063
0.685806
0.690496
0.709716
0.760213
0.840767
0.912423
0.956052
0.975987
0.999538
1.00196
1.00019
0.997288
0.997948
0.998909
0.685031
0.685044
0.685076
0.685126
0.685164
0.685176
0.685163
0.685102
0.685083
0.685115
0.68513
0.685125
0.685137
0.685208
0.685245
0.685209
0.685192
0.685215
0.685253
0.685273
0.685284
0.685271
0.685258
0.685265
0.685238
0.685191
0.685147
0.685164
0.68523
0.685231
0.685139
0.685139
0.685237
0.68527
0.685268
0.685225
0.685168
0.68509
0.684981
0.684833
0.684656
0.684517
0.684456
0.684466
0.684531
0.684668
0.684831
0.684973
0.685121
0.685228
0.685241
0.685245
0.685315
0.685398
0.685382
0.685319
0.685212
0.68506
0.684984
0.684983
0.684956
0.684942
0.684986
0.685052
0.685084
0.685046
0.684937
0.684834
0.684826
0.684859
0.684949
0.685092
0.685226
0.685313
0.685325
0.685311
0.685246
0.685122
0.684974
0.684867
0.684803
0.684793
0.68483
0.684962
0.685111
0.685157
0.685165
0.685318
0.687037
0.696895
0.731564
0.797453
0.890016
0.956293
0.995307
0.994853
0.991824
0.99499
0.998941
0.99919
0.684542
0.684496
0.684486
0.684524
0.684559
0.684565
0.684551
0.684545
0.684579
0.684587
0.684587
0.684628
0.684631
0.684568
0.684545
0.684518
0.684465
0.684369
0.684221
0.684132
0.68408
0.684034
0.683988
0.683937
0.683925
0.684006
0.684195
0.684344
0.684555
0.684671
0.68474
0.684874
0.685109
0.68535
0.685505
0.685623
0.685699
0.685653
0.685513
0.685415
0.685326
0.685238
0.685135
0.685129
0.685213
0.685201
0.685088
0.685041
0.685079
0.685197
0.685226
0.685244
0.685323
0.685471
0.685533
0.685488
0.685384
0.685217
0.685
0.684843
0.68474
0.684694
0.684703
0.684838
0.684997
0.685032
0.68504
0.685051
0.685076
0.685109
0.685139
0.685151
0.685234
0.685322
0.685316
0.68522
0.685043
0.684854
0.684818
0.684839
0.684874
0.68494
0.685038
0.685171
0.685211
0.685197
0.685116
0.684894
0.684911
0.685582
0.690221
0.711495
0.763822
0.844643
0.928712
0.95616
0.98178
0.99887
0.999913
0.998527
0.684112
0.684143
0.684151
0.684135
0.684129
0.68415
0.684161
0.684111
0.684113
0.684266
0.684352
0.68435
0.68431
0.684288
0.684232
0.68409
0.684052
0.684013
0.683869
0.683643
0.683517
0.683392
0.683237
0.683181
0.68318
0.683248
0.683562
0.683936
0.684095
0.68426
0.684552
0.684999
0.685537
0.685915
0.686062
0.686157
0.686144
0.686002
0.685707
0.685558
0.685534
0.68554
0.685528
0.685605
0.685675
0.685668
0.685394
0.684987
0.684936
0.684947
0.684934
0.684942
0.685056
0.685174
0.685135
0.685023
0.684977
0.68495
0.684849
0.684734
0.684705
0.684687
0.684714
0.684886
0.685067
0.685146
0.685213
0.68535
0.685402
0.685385
0.685297
0.685165
0.685097
0.685095
0.685057
0.684972
0.684855
0.684769
0.684794
0.684946
0.685131
0.685212
0.685235
0.685267
0.685216
0.685087
0.684917
0.684759
0.684719
0.684749
0.685098
0.687431
0.698302
0.738034
0.808826
0.900651
0.966645
0.993585
0.99254
0.994448
0.684339
0.68439
0.684515
0.684699
0.684824
0.68487
0.684865
0.684858
0.684969
0.685278
0.685666
0.685849
0.685866
0.685857
0.685853
0.685839
0.685747
0.685662
0.685561
0.685351
0.685087
0.684811
0.684424
0.684079
0.684013
0.684083
0.68411
0.684077
0.684205
0.68462
0.685183
0.685703
0.686078
0.686174
0.686148
0.686146
0.686078
0.685851
0.685484
0.685236
0.685141
0.685202
0.685283
0.685284
0.685332
0.685349
0.685069
0.684528
0.684412
0.684456
0.684514
0.684563
0.684575
0.684502
0.68437
0.684326
0.684407
0.684657
0.68488
0.684998
0.685085
0.685125
0.685157
0.685324
0.685371
0.685294
0.685312
0.685448
0.685526
0.685485
0.685298
0.68499
0.68476
0.684735
0.684749
0.684807
0.684841
0.684886
0.685028
0.685266
0.685356
0.68535
0.685322
0.6852
0.685005
0.684848
0.684747
0.684703
0.684736
0.684908
0.685065
0.685214
0.686056
0.691755
0.715657
0.778625
0.860913
0.932127
0.965033
0.990772
0.686358
0.686584
0.686969
0.687273
0.687293
0.687226
0.687227
0.687282
0.687437
0.687673
0.687832
0.687968
0.688085
0.688122
0.688095
0.688007
0.68783
0.687587
0.687454
0.687315
0.687103
0.686781
0.686229
0.685465
0.685093
0.685099
0.685191
0.685134
0.685036
0.6852
0.685712
0.686049
0.686107
0.686028
0.685769
0.685384
0.684991
0.684605
0.684282
0.684097
0.684069
0.684158
0.684374
0.684616
0.684821
0.684834
0.684514
0.684029
0.683962
0.68407
0.684362
0.684465
0.684435
0.684279
0.684165
0.684153
0.684261
0.684765
0.685148
0.685188
0.685262
0.685393
0.68554
0.685562
0.685498
0.685307
0.68513
0.685107
0.68511
0.685047
0.684898
0.684733
0.684607
0.684619
0.684705
0.684898
0.685175
0.685354
0.685487
0.685496
0.685477
0.685381
0.685172
0.684899
0.684767
0.684745
0.684751
0.684808
0.685009
0.685216
0.685268
0.685238
0.685129
0.685374
0.688024
0.703317
0.747917
0.828868
0.922116
0.982274
0.689135
0.68931
0.689517
0.689775
0.689864