/*--------------------------------*- C++ -*----------------------------------*\
  =========                 |
  \\      /  F ield         | OpenFOAM: The Open Source CFD Toolbox
   \\    /   O peration     | Website:  https://openfoam.org
    \\  /    A nd           | Version:  7
     \\/     M anipulation  |
\*---------------------------------------------------------------------------*/
FoamFile
{
    version     2.0;
    format      ascii;
    class       volScalarField;
    location    "4.5";
    object      T;
}
// * * * * * * * * * * * * * * * * * * * * * * * * * * * * * * * * * * * * * //

dimensions      [0 0 0 1 0 0 0];

internalField   nonuniform List<scalar> 
90000
(
0.959052
0.962222
0.9658
0.969211
0.972583
0.975624
0.978562
0.981146
0.983638
0.985798
0.987927
0.989763
0.991741
0.993761
0.996415
0.999286
1.00277
1.00627
1.01005
1.01363
1.01711
1.02034
1.02329
1.02571
1.02827
1.02979
1.03103
1.03243
1.03267
1.03269
1.03261
1.03229
1.03174
1.03075
1.02851
1.02583
1.02362
1.02251
1.02199
1.02219
1.02281
1.02339
1.02386
1.02453
1.02472
1.02465
1.02451
1.02417
1.02361
1.0229
1.02247
1.02231
1.02238
1.0227
1.02288
1.02338
1.02374
1.02392
1.02385
1.02348
1.02317
1.02304
1.02308
1.02319
1.02335
1.02351
1.02338
1.02294
1.02272
1.02259
1.02261
1.02274
1.02272
1.02249
1.02225
1.02206
1.02208
1.02207
1.022
1.0218
1.02163
1.02159
1.02161
1.02159
1.02152
1.02142
1.02131
1.02121
1.02126
1.02124
1.02118
1.02106
1.02085
1.02051
1.01999
1.01918
1.01797
1.01684
1.01594
1.01451
0.956376
0.956646
0.957161
0.957923
0.958947
0.960186
0.961665
0.963301
0.965147
0.967098
0.969216
0.971387
0.973653
0.975813
0.977965
0.980102
0.982362
0.984834
0.987374
0.990279
0.993185
0.996257
0.999531
1.00257
1.00577
1.00885
1.01154
1.01442
1.0165
1.01861
1.02054
1.02161
1.02242
1.02313
1.02397
1.02479
1.02469
1.02417
1.02312
1.02166
1.02037
1.01934
1.01883
1.01897
1.01921
1.01943
1.01987
1.02047
1.02113
1.02139
1.02118
1.02068
1.02006
1.01947
1.0192
1.01941
1.02007
1.02089
1.0216
1.02169
1.02138
1.02088
1.02041
1.0205
1.02093
1.02141
1.02149
1.02127
1.02088
1.02049
1.02057
1.02088
1.02102
1.02091
1.0207
1.02054
1.02055
1.02063
1.0206
1.0205
1.02037
1.02029
1.0203
1.02036
1.02034
1.02028
1.02021
1.02015
1.02019
1.02021
1.0202
1.02013
1.01996
1.01965
1.01915
1.01837
1.0172
1.01608
1.01523
1.01391
0.955643
0.95563
0.955614
0.955602
0.95561
0.955639
0.955705
0.95582
0.956007
0.956272
0.956651
0.957152
0.957807
0.958621
0.959581
0.960709
0.961978
0.963452
0.965107
0.966993
0.969149
0.971539
0.974271
0.977288
0.980498
0.984208
0.987882
0.991797
0.996068
0.999854
1.00364
1.0076
1.01073
1.01363
1.01593
1.01748
1.01858
1.01905
1.01917
1.01901
1.01864
1.0179
1.01677
1.01579
1.01551
1.01569
1.01611
1.01652
1.01693
1.01727
1.01737
1.01721
1.01685
1.01632
1.01598
1.01606
1.01641
1.01687
1.01741
1.01776
1.01798
1.01781
1.01758
1.01754
1.01764
1.01786
1.01805
1.01818
1.01806
1.01786
1.01777
1.0178
1.01796
1.01809
1.0181
1.01802
1.01798
1.01802
1.0181
1.01814
1.01808
1.01802
1.01805
1.01813
1.01819
1.0182
1.01819
1.01817
1.0182
1.01827
1.01834
1.01832
1.01821
1.01793
1.01741
1.01666
1.01556
1.01449
1.01372
1.01254
0.954572
0.954554
0.954532
0.954508
0.954481
0.954453
0.954426
0.954404
0.954381
0.954358
0.95434
0.954321
0.954321
0.954344
0.954399
0.954501
0.954658
0.954881
0.955199
0.955623
0.956197
0.956962
0.957923
0.9592
0.960784
0.962697
0.965223
0.967991
0.97139
0.975396
0.979546
0.984212
0.989188
0.99394
0.998772
1.00235
1.00639
1.0088
1.0105
1.01206
1.01318
1.01374
1.01405
1.01448
1.01482
1.01505
1.01496
1.01468
1.01418
1.01369
1.01351
1.01348
1.01355
1.01372
1.01383
1.01378
1.01368
1.01357
1.01362
1.01379
1.01415
1.01463
1.01509
1.01502
1.01478
1.01454
1.01459
1.01482
1.01512
1.01511
1.01495
1.01475
1.01481
1.01501
1.01526
1.01525
1.01517
1.01518
1.01527
1.01536
1.0154
1.01535
1.01537
1.01545
1.01558
1.01565
1.01568
1.0157
1.01575
1.01583
1.01597
1.016
1.01594
1.0157
1.01522
1.01451
1.01347
1.01241
1.01169
1.01065
0.953301
0.953291
0.95328
0.953267
0.953253
0.953239
0.953223
0.953202
0.953178
0.95315
0.953123
0.953098
0.953078
0.953047
0.953016
0.95299
0.952969
0.952949
0.952932
0.952917
0.95292
0.952938
0.953007
0.953137
0.953353
0.953678
0.954163
0.954879
0.955911
0.957293
0.959322
0.961781
0.965162
0.969124
0.973857
0.979443
0.98484
0.990747
0.996509
1.00084
1.00474
1.00831
1.01064
1.01178
1.01211
1.01252
1.0127
1.01254
1.01204
1.01143
1.01147
1.01167
1.01204
1.01229
1.01228
1.01209
1.01176
1.01136
1.0112
1.01129
1.01157
1.01208
1.01255
1.01277
1.01288
1.01272
1.01257
1.01259
1.0127
1.01282
1.01276
1.01264
1.0126
1.01267
1.01283
1.01297
1.01294
1.01293
1.01297
1.01305
1.01313
1.01312
1.01312
1.01317
1.01328
1.01339
1.01346
1.01349
1.01354
1.01361
1.01375
1.01383
1.01378
1.01356
1.01306
1.01233
1.01132
1.01028
1.00957
1.00859
0.952187
0.95218
0.952174
0.952167
0.95216
0.952152
0.952142
0.952132
0.952122
0.952112
0.952101
0.952087
0.95207
0.952054
0.952035
0.952013
0.95199
0.951967
0.951947
0.951931
0.951916
0.951912
0.951891
0.95187
0.951853
0.951836
0.951837
0.951852
0.951895
0.951983
0.952203
0.95259
0.95324
0.954301
0.955854
0.958266
0.961486
0.965865
0.971027
0.977498
0.983706
0.990213
0.99579
1.00129
1.0038
1.00633
1.00806
1.00879
1.00895
1.00979
1.01074
1.01151
1.01197
1.0119
1.01163
1.01116
1.01066
1.01034
1.01028
1.01038
1.01055
1.01077
1.01089
1.01106
1.01119
1.01136
1.0116
1.01158
1.01148
1.01139
1.01137
1.01137
1.01137
1.01136
1.01137
1.01145
1.01157
1.0116
1.01158
1.01158
1.01161
1.01166
1.01166
1.01166
1.01171
1.01181
1.01189
1.01194
1.01197
1.01201
1.0121
1.01219
1.01215
1.01195
1.01143
1.01067
1.00968
1.00859
1.00789
1.00688
0.951428
0.951425
0.951421
0.951416
0.95141
0.951404
0.951399
0.951392
0.951387
0.951384
0.951379
0.951373
0.951365
0.951357
0.951351
0.951344
0.951335
0.951323
0.95131
0.951298
0.951286
0.951273
0.951262
0.951249
0.951237
0.951228
0.951222
0.951223
0.95123
0.951262
0.95125
0.951238
0.951246
0.951281
0.951375
0.951561
0.952013
0.95288
0.954353
0.956799
0.960406
0.965263
0.971526
0.978406
0.985881
0.992647
0.997999
1.00307
1.00647
1.0087
1.00947
1.01021
1.0107
1.01061
1.00991
1.00982
1.00996
1.01034
1.01063
1.0106
1.01038
1.01016
1.00992
1.00994
1.01007
1.01052
1.01085
1.01091
1.01082
1.01065
1.01066
1.01075
1.01076
1.01071
1.01063
1.01065
1.01075
1.01093
1.01093
1.01088
1.01082
1.01083
1.01088
1.01086
1.01087
1.01092
1.011
1.01106
1.01106
1.01108
1.01112
1.01118
1.01113
1.01094
1.01044
1.0096
1.00859
1.00749
1.00673
1.00567
0.950986
0.950984
0.950984
0.950981
0.950975
0.950971
0.950968
0.950964
0.950961
0.95096
0.950958
0.950955
0.95095
0.950946
0.950942
0.950939
0.950935
0.950931
0.950925
0.95092
0.950915
0.950909
0.950905
0.950903
0.9509
0.950896
0.950894
0.950891
0.950889
0.95089
0.950898
0.950907
0.950919
0.950937
0.950965
0.951037
0.951035
0.951051
0.951115
0.951275
0.95172
0.952596
0.954432
0.957182
0.961875
0.967781
0.975119
0.98267
0.990088
0.996903
1.00072
1.00403
1.00603
1.0073
1.00807
1.00948
1.01041
1.01108
1.01104
1.01086
1.01044
1.00981
1.00947
1.00956
1.00985
1.0102
1.01034
1.01034
1.01025
1.01027
1.01038
1.01053
1.01051
1.01043
1.01032
1.01032
1.01039
1.0105
1.01059
1.01056
1.01051
1.01048
1.01048
1.01047
1.01047
1.01048
1.01053
1.01059
1.0106
1.0106
1.01061
1.01062
1.01057
1.01037
1.00988
1.00903
1.00798
1.00685
1.00605
1.00492
0.950753
0.950751
0.950751
0.950748
0.950744
0.950741
0.950739
0.950736
0.950735
0.950736
0.950736
0.950733
0.950729
0.950728
0.950726
0.950724
0.95072
0.950718
0.950715
0.950713
0.95071
0.950708
0.950707
0.950707
0.950707
0.950709
0.950711
0.950713
0.950716
0.950722
0.950729
0.950738
0.950747
0.95076
0.950774
0.950795
0.950823
0.950854
0.950887
0.950955
0.950961
0.950985
0.951069
0.951314
0.95197
0.953259
0.955945
0.959941
0.966124
0.973499
0.981727
0.989778
0.996075
1.00208
1.00595
1.00847
1.00934
1.01023
1.01018
1.00959
1.00952
1.00966
1.00991
1.01013
1.01006
1.00991
1.0097
1.00972
1.00981
1.01009
1.01038
1.01036
1.01027
1.01022
1.01023
1.01026
1.0103
1.01028
1.01031
1.01035
1.01038
1.01036
1.01031
1.01028
1.01026
1.01027
1.01029
1.01033
1.01036
1.01035
1.01034
1.01033
1.01025
1.01006
1.00957
1.00869
1.00764
1.00646
1.00564
1.00448
0.950624
0.950624
0.950624
0.950621
0.950618
0.950615
0.950614
0.950615
0.950615
0.950615
0.950615
0.950614
0.950612
0.950612
0.950611
0.95061
0.950609
0.950608
0.950608
0.950607
0.950606
0.950606
0.950607
0.950607
0.950609
0.950611
0.950613
0.950615
0.950618
0.950624
0.95063
0.950638
0.950647
0.950658
0.95067
0.950682
0.950698
0.950716
0.950736
0.950757
0.950788
0.950818
0.950875
0.950878
0.950893
0.950946
0.951147
0.951648
0.952932
0.955245
0.959693
0.965663
0.973814
0.982414
0.990118
0.997335
1.00111
1.00488
1.00621
1.00747
1.00895
1.01048
1.01088
1.01072
1.01024
1.00929
1.00926
1.00939
1.00981
1.01018
1.01016
1.01006
1.00999
1.01007
1.01022
1.01024
1.01021
1.01013
1.01011
1.01018
1.01026
1.01025
1.01021
1.01017
1.01015
1.01015
1.01015
1.01016
1.0102
1.0102
1.01018
1.01014
1.01005
1.00986
1.0094
1.00848
1.00744
1.00623
1.00534
1.00415
0.95054
0.95054
0.95054
0.95054
0.95054
0.950539
0.950539
0.950539
0.950541
0.950542
0.950542
0.950542
0.950542
0.950544
0.950546
0.950546
0.950547
0.950549
0.950549
0.95055
0.950552
0.950555
0.950556
0.950556
0.950557
0.950557
0.950557
0.950556
0.950556
0.950558
0.950559
0.950562
0.950567
0.950574
0.950581
0.950589
0.9506
0.950609
0.950618
0.950627
0.950639
0.950656
0.950674
0.950699
0.950721
0.950757
0.950781
0.950793
0.950824
0.950981
0.951522
0.952767
0.955649
0.960104
0.967414
0.975624
0.9848
0.993254
0.999579
1.00526
1.00777
1.00936
1.00989
1.00948
1.00864
1.00877
1.0092
1.00974
1.00991
1.00987
1.00959
1.00956
1.00974
1.01004
1.01022
1.01019
1.01008
1.00999
1.01001
1.01008
1.01015
1.01014
1.0101
1.01008
1.01007
1.01005
1.01002
1.01003
1.01006
1.01006
1.01003
1.00999
1.00989
1.00967
1.00923
1.0083
1.00726
1.00606
1.0051
1.00387
0.950468
0.950468
0.950469
0.950471
0.950471
0.950471
0.950471
0.950474
0.950476
0.950477
0.950478
0.95048
0.950481
0.950483
0.950486
0.950488
0.950491
0.950492
0.950493
0.950495
0.950498
0.950504
0.950506
0.950506
0.950504
0.950502
0.950499
0.950493
0.950489
0.950486
0.950481
0.950479
0.950477
0.950476
0.950475
0.950476
0.95048
0.950483
0.950485
0.950488
0.950493
0.9505
0.950507
0.950517
0.950529
0.950549
0.950571
0.950604
0.950635
0.95062
0.950594
0.950635
0.950848
0.951474
0.953207
0.956394
0.962493
0.970036
0.979431
0.988819
0.995598
1.00116
1.00413
1.00588
1.0074
1.00925
1.01027
1.01021
1.00992
1.00914
1.00904
1.00925
1.00969
1.00993
1.00996
1.0099
1.00985
1.0099
1.00997
1.00996
1.00995
1.00995
1.00996
1.00997
1.00995
1.00992
1.0099
1.0099
1.0099
1.00989
1.00987
1.00984
1.00974
1.00948
1.00902
1.00809
1.00706
1.0059
1.00489
1.00363
0.950384
0.950382
0.950382
0.950383
0.950383
0.950383
0.950385
0.950388
0.950391
0.950394
0.950394
0.950393
0.950394
0.950401
0.950403
0.950403
0.950404
0.950405
0.950406
0.950407
0.95041
0.950414
0.950416
0.950416
0.950414
0.950411
0.950406
0.950399
0.950391
0.950383
0.950375
0.950367
0.95036
0.950351
0.950342
0.950337
0.950333
0.950328
0.950322
0.95032
0.95032
0.950322
0.950324
0.950327
0.950333
0.950343
0.950358
0.950381
0.950415
0.950426
0.950422
0.950405
0.950361
0.950338
0.950416
0.95073
0.951795
0.954057
0.958886
0.96578
0.975133
0.98522
0.993452
1.00134
1.00577
1.00809
1.00919
1.00898
1.00818
1.00835
1.00893
1.00949
1.00967
1.00961
1.00941
1.00943
1.00964
1.00985
1.00983
1.00975
1.00969
1.00972
1.00978
1.0098
1.00978
1.00975
1.00974
1.00973
1.0097
1.00969
1.00969
1.00966
1.00955
1.00925
1.00876
1.00783
1.00679
1.00572
1.0047
1.00341
0.950275
0.950275
0.950276
0.950273
0.950268
0.950268
0.950269
0.950272
0.950274
0.950277
0.950276
0.950273
0.950275
0.950277
0.950277
0.950277
0.950276
0.950274
0.950274
0.950275
0.950276
0.950276
0.950276
0.950277
0.950276
0.950273
0.950268
0.950262
0.950256
0.950248
0.950241
0.950232
0.950222
0.95021
0.950197
0.950185
0.950172
0.950159
0.950147
0.950137
0.950131
0.950127
0.950123
0.950122
0.950124
0.95013
0.950141
0.950157
0.950173
0.950188
0.950192
0.950187
0.950174
0.95016
0.950108
0.950043
0.950065
0.950229
0.9509
0.952508
0.956488
0.96257
0.971745
0.982051
0.990689
0.998254
1.00191
1.00461
1.0063
1.00861
1.00983
1.00975
1.00942
1.00876
1.00883
1.00914
1.00952
1.00963
1.00957
1.00945
1.00946
1.00953
1.00956
1.00954
1.00953
1.00955
1.00955
1.00952
1.00947
1.00946
1.00947
1.00945
1.00933
1.009
1.00844
1.00753
1.00645
1.0055
1.00452
1.0032
0.950127
0.950126
0.950126
0.950125
0.950123
0.950118
0.950117
0.950119
0.950122
0.950122
0.950122
0.95012
0.950116
0.950115
0.950116
0.950116
0.950115
0.950111
0.950107
0.950108
0.950108
0.950106
0.950104
0.950104
0.950103
0.950102
0.9501
0.950099
0.950096
0.950093
0.950089
0.950084
0.950077
0.950066
0.950053
0.950039
0.950023
0.950005
0.949987
0.94997
0.949955
0.949941
0.949928
0.949918
0.949913
0.949912
0.949914
0.949919
0.949928
0.949938
0.949946
0.949946
0.949941
0.949929
0.949901
0.949856
0.949781
0.949721
0.949733
0.949835
0.950301
0.951541
0.954882
0.960358
0.96943
0.979906
0.98938
0.998875
1.0042
1.00735
1.00864
1.00842
1.00769
1.00798
1.00854
1.00916
1.00931
1.00922
1.00908
1.00914
1.0093
1.00933
1.00929
1.00924
1.00927
1.00933
1.00933
1.00929
1.00925
1.00924
1.00924
1.00921
1.00906
1.00872
1.00813
1.00721
1.0061
1.00518
1.00432
1.00301
0.949942
0.949941
0.949939
0.949937
0.949935
0.94993
0.949928
0.949929
0.949929
0.949927
0.949925
0.949922
0.949917
0.949915
0.949917
0.949916
0.949914
0.949912
0.949912
0.949911
0.949909
0.949909
0.94991
0.94991
0.94991
0.949912
0.949914
0.949916
0.949919
0.949922
0.949925
0.949926
0.949925
0.949921
0.949913
0.949903
0.949889
0.949871
0.949851
0.949828
0.949805
0.949782
0.949758
0.949736
0.949716
0.9497
0.949689
0.94968
0.949678
0.949681
0.94969
0.949697
0.949697
0.94969
0.949672
0.949638
0.94958
0.949505
0.94946
0.949455
0.949469
0.949553
0.949924
0.950927
0.953856
0.958872
0.967911
0.978491
0.988253
0.997106
1.00106
1.00418
1.00598
1.00849
1.00925
1.00917
1.00882
1.00852
1.00868
1.00903
1.00918
1.00911
1.00897
1.00901
1.00911
1.00914
1.0091
1.00906
1.00906
1.00905
1.00903
1.00897
1.0088
1.00846
1.00784
1.0069
1.00574
1.00483
1.00406
1.00282
0.949742
0.949739
0.949734
0.94973
0.949727
0.949723
0.949721
0.949718
0.949714
0.949712
0.949709
0.949706
0.949701
0.949699
0.949699
0.949698
0.949697
0.949696
0.949696
0.949695
0.949696
0.949697
0.949699
0.949701
0.949703
0.949706
0.949711
0.949716
0.949723
0.949731
0.949739
0.949747
0.949754
0.949759
0.949761
0.949759
0.949751
0.949739
0.949722
0.9497
0.949675
0.949647
0.949617
0.949585
0.949551
0.949516
0.949484
0.949465
0.949452
0.949443
0.949445
0.949456
0.949469
0.94947
0.94946
0.949439
0.949403
0.949344
0.949273
0.949246
0.949247
0.949263
0.949317
0.949421
0.949733
0.95057
0.953235
0.958043
0.96737
0.978202
0.988537
0.998998
1.00402
1.00716
1.00804
1.00757
1.00756
1.0081
1.00881
1.00903
1.00893
1.00866
1.00872
1.00892
1.00898
1.00893
1.00887
1.0089
1.00891
1.00889
1.00884
1.00876
1.00858
1.00823
1.00758
1.00662
1.00541
1.00448
1.00377
1.00262
0.949569
0.949564
0.949559
0.949553
0.949548
0.949543
0.949538
0.949533
0.949528
0.949523
0.949517
0.949511
0.949505
0.9495
0.949496
0.949494
0.949492
0.949491
0.949491
0.949491
0.949493
0.949495
0.949497
0.949499
0.949502
0.949506
0.949511
0.949518
0.949525
0.949534
0.949544
0.949554
0.949565
0.949576
0.949585
0.949591
0.949592
0.94959
0.949581
0.949565
0.949545
0.949522
0.949493
0.949458
0.949416
0.949367
0.949313
0.949274
0.94926
0.949253
0.949249
0.949253
0.949267
0.949284
0.949292
0.949289
0.949273
0.949242
0.949187
0.94913
0.949108
0.949113
0.949129
0.949192
0.94928
0.949345
0.94956
0.950279
0.952892
0.957848
0.967551
0.978714
0.988945
0.997912
1.00147
1.00412
1.00671
1.00892
1.0089
1.00871
1.00821
1.00832
1.00872
1.00896
1.00886
1.00869
1.00871
1.0088
1.0088
1.00876
1.00869
1.00861
1.00842
1.00804
1.00734
1.00636
1.00514
1.00414
1.00349
1.00243
0.949439
0.949435
0.949431
0.949426
0.949421
0.949416
0.94941
0.949405
0.949398
0.94939
0.949383
0.949374
0.949365
0.949355
0.949347
0.949338
0.94933
0.949322
0.949314
0.949309
0.949308
0.949307
0.949306
0.949307
0.949309
0.949313
0.949318
0.949322
0.949328
0.949334
0.949341
0.949349
0.94936
0.949372
0.949386
0.9494
0.949412
0.94942
0.949422
0.949417
0.949407
0.949394
0.949375
0.949345
0.949305
0.949253
0.949188
0.94913
0.949106
0.949104
0.949106
0.949117
0.949135
0.94915
0.949162
0.949179
0.949188
0.949182
0.949156
0.949106
0.949045
0.949017
0.949011
0.949028
0.949083
0.949172
0.949176
0.949162
0.949332
0.950088
0.952937
0.958326
0.968749
0.980148
0.99129
1.00071
1.00515
1.00758
1.00766
1.00702
1.00748
1.00837
1.00886
1.00875
1.00846
1.0085
1.00867
1.00873
1.00867
1.00861
1.00858
1.00851
1.00831
1.00787
1.00713
1.00613
1.00492
1.00386
1.00323
1.00223
0.949343
0.949341
0.949338
0.949335
0.949332
0.949328
0.949324
0.949319
0.949313
0.949306
0.949298
0.949289
0.949278
0.949267
0.949255
0.949242
0.949229
0.949215
0.949201
0.949186
0.949171
0.949155
0.949141
0.94913
0.949125
0.949124
0.949124
0.949123
0.949122
0.94912
0.949118
0.949118
0.94912
0.949126
0.949136
0.949153
0.949176
0.949203
0.949231
0.949251
0.949259
0.94926
0.949257
0.949243
0.949217
0.949177
0.949125
0.949068
0.949019
0.948995
0.948994
0.949003
0.949021
0.949041
0.94907
0.949105
0.949132
0.949141
0.949137
0.949111
0.94905
0.948972
0.948932
0.948927
0.948944
0.94901
0.949058
0.949066
0.94901
0.948983
0.949198
0.950163
0.953426
0.959542
0.970599
0.982194
0.992616
0.998885
1.00283
1.0052
1.00814
1.00877
1.00858
1.00804
1.00815
1.00857
1.00875
1.00866
1.00852
1.0085
1.00851
1.00845
1.00822
1.00773
1.00695
1.00593
1.00474
1.00365
1.003
1.00203
0.949246
0.949244
0.949244
0.949243
0.949242
0.949239
0.949237
0.949235
0.949231
0.949227
0.949221
0.949215
0.949207
0.949197
0.949186
0.949176
0.949164
0.94915
0.949133
0.949112
0.949087
0.949062
0.949039
0.949016
0.948993
0.948974
0.948961
0.948954
0.948949
0.948942
0.948934
0.94893
0.948926
0.948924
0.948926
0.948933
0.94895
0.948974
0.949006
0.949046
0.949089
0.949123
0.949141
0.949151
0.949148
0.949135
0.949111
0.94908
0.949037
0.94899
0.948956
0.948943
0.948943
0.94895
0.94897
0.949004
0.949056
0.949105
0.949115
0.949109
0.949073
0.948989
0.948903
0.948874
0.948872
0.948898
0.948956
0.948989
0.948985
0.948949
0.948884
0.948925
0.949269
0.950548
0.954236
0.961611
0.972953
0.984879
0.996477
1.00343
1.00687
1.00783
1.00678
1.00723
1.00824
1.00875
1.00863
1.00834
1.00835
1.00847
1.00848
1.00839
1.0081
1.00761
1.00683
1.00577
1.00459
1.00353
1.00278
1.00184
0.949165
0.949164
0.949163
0.949161
0.949159
0.949158
0.949156
0.949154
0.949152
0.949149
0.949146
0.949142
0.949137
0.949132
0.949126
0.949118
0.949107
0.949093
0.949076
0.949056
0.949038
0.94902
0.949001
0.948977
0.948952
0.948925
0.948896
0.948868
0.948847
0.948829
0.948811
0.9488
0.948793
0.94879
0.948789
0.948793
0.948805
0.948826
0.948855
0.948893
0.948937
0.948983
0.949028
0.949065
0.94909
0.949104
0.949111
0.949112
0.949105
0.949076
0.949026
0.948966
0.948911
0.948883
0.948884
0.948899
0.948931
0.948991
0.949058
0.949078
0.94907
0.949023
0.948932
0.948864
0.948849
0.948854
0.948892
0.948951
0.948965
0.948949
0.948896
0.948859
0.948875
0.94899
0.949461
0.951159
0.95536
0.964386
0.975998
0.988344
0.996776
1.00208
1.00431
1.00778
1.00873
1.00857
1.00798
1.00808
1.00835
1.00852
1.00847
1.00829
1.008
1.00755
1.00676
1.00562
1.00447
1.00347
1.00269
1.00169
0.949094
0.949098
0.9491
0.949099
0.949097
0.949095
0.949094
0.949092
0.94909
0.949089
0.949087
0.949085
0.949081
0.949077
0.949071
0.949064
0.949054
0.949042
0.949031
0.949022
0.949018
0.949013
0.949006
0.948993
0.948974
0.948952
0.948926
0.948897
0.948866
0.948833
0.9488
0.948767
0.948744
0.948734
0.948732
0.948734
0.948744
0.948762
0.948789
0.948824
0.94886
0.948895
0.948936
0.948981
0.94902
0.949058
0.949102
0.949131
0.949135
0.949129
0.949099
0.949038
0.948958
0.948874
0.948816
0.948802
0.948807
0.948837
0.948911
0.948998
0.94903
0.949023
0.948983
0.948918
0.948867
0.948856
0.948872
0.948929
0.948962
0.948958
0.948919
0.948862
0.948853
0.948874
0.948927
0.94908
0.949674
0.951931
0.957348
0.967947
0.980181
0.99298
1.00158
1.00676
1.00771
1.00684
1.00719
1.00789
1.00849
1.00844
1.00833
1.00817
1.00797
1.00754
1.00667
1.0055
1.0044
1.00342
1.00261
1.00155
0.948887
0.948894
0.948902
0.948908
0.948915
0.948923
0.948931
0.948937
0.948941
0.948949
0.948956
0.948959
0.948962
0.948966
0.948972
0.948981
0.948992
0.949006
0.949017
0.949022
0.949023
0.949024
0.949025
0.949025
0.949024
0.949021
0.949016
0.949007
0.948992
0.948971
0.948946
0.948917
0.948886
0.948858
0.948834
0.948815
0.948806
0.948808
0.948812
0.94882
0.948836
0.948854
0.948871
0.948896
0.948935
0.948991
0.949053
0.9491
0.949115
0.94911
0.949097
0.949072
0.949026
0.948946
0.948829
0.948742
0.948726
0.948733
0.948774
0.94886
0.948954
0.949001
0.94901
0.949
0.948952
0.948889
0.948878
0.9489
0.948948
0.948956
0.948937
0.948889
0.948859
0.948862
0.948895
0.948928
0.948958
0.949133
0.950061
0.953122
0.960529
0.972033
0.985092
0.996123
1.00072
1.00411
1.0076
1.00847
1.00836
1.00799
1.00814
1.00812
1.008
1.00753
1.00655
1.00544
1.00443
1.00337
1.00248
1.00142
0.948805
0.94881
0.948817
0.948826
0.94883
0.948836
0.948843
0.94885
0.948859
0.948867
0.94888
0.948889
0.948895
0.948903
0.948916
0.948928
0.948941
0.94896
0.948977
0.948989
0.949
0.949015
0.949025
0.949031
0.949038
0.949045
0.949053
0.949061
0.949065
0.949062
0.949058
0.949052
0.949043
0.949034
0.949021
0.949006
0.948989
0.948968
0.948936
0.948903
0.948872
0.948849
0.94884
0.948837
0.948843
0.948869
0.948916
0.948982
0.949049
0.949075
0.949069
0.949068
0.949064
0.949033
0.948942
0.9488
0.948704
0.948689
0.948707
0.948764
0.948848
0.948951
0.949018
0.949031
0.94902
0.948951
0.948879
0.948876
0.948893
0.948927
0.94893
0.948914
0.948888
0.948884
0.948896
0.948923
0.948941
0.948927
0.948958
0.949268
0.950835
0.955114
0.964939
0.977294
0.99029
1.00164
1.006
1.00779
1.00668
1.00721
1.00792
1.00819
1.00797
1.00732
1.00645
1.00552
1.00444
1.00324
1.00233
1.00128
0.948788
0.94879
0.948792
0.948794
0.9488
0.948804
0.948807
0.948813
0.948821
0.94883
0.948843
0.948856
0.948866
0.948877
0.948885
0.948891
0.948902
0.948915
0.948924
0.948934
0.948949
0.948965
0.94898
0.948995
0.949009
0.94902
0.94903
0.949041
0.949051
0.94906
0.949065
0.949069
0.949078
0.949089
0.949092
0.949094
0.949094
0.949082
0.949048
0.948997
0.948937
0.948879
0.948836
0.948816
0.948818
0.948829
0.948846
0.948869
0.948901
0.948944
0.949008
0.949075
0.949097
0.949098
0.949068
0.948971
0.94884
0.948749
0.948736
0.948754
0.948795
0.948872
0.948985
0.949025
0.94902
0.948977
0.948892
0.948854
0.94886
0.948884
0.948909
0.948916
0.948919
0.948922
0.94893
0.948939
0.948938
0.948921
0.94889
0.948893
0.948997
0.94962
0.952184
0.958331
0.970056
0.984066
0.993538
1.00148
1.00399
1.00776
1.00833
1.0081
1.00754
1.00708
1.0065
1.00562
1.00442
1.00307
1.00223
1.00126
0.948932
0.948927
0.948925
0.948922
0.948919
0.948913
0.948906
0.948898
0.948891
0.948887
0.948885
0.948883
0.948878
0.948876
0.948873
0.948866
0.948864
0.948863
0.948857
0.948849
0.948841
0.948832
0.948827
0.948827
0.948835
0.948848
0.948866
0.948889
0.948918
0.948946
0.948971
0.948997
0.949028
0.949066
0.949095
0.94911
0.949115
0.949111
0.94908
0.949034
0.948983
0.948931
0.948882
0.948841
0.948836
0.948847
0.948847
0.948839
0.948837
0.948848
0.948903
0.949026
0.949125
0.94914
0.949133
0.949091
0.949013
0.948927
0.94885
0.948808
0.948804
0.948823
0.948897
0.948986
0.948997
0.94897
0.948909
0.948857
0.948852
0.948867
0.948891
0.948915
0.948935
0.948945
0.94895
0.948948
0.948941
0.948919
0.948881
0.948872
0.948879
0.948913
0.94917
0.950327
0.954461
0.963021
0.976207
0.99056
1.00057
1.00687
1.00738
1.00646
1.00675
1.00686
1.0066
1.00564
1.00421
1.00295
1.00213
1.0012
0.949054
0.949054
0.949053
0.949045
0.949038
0.949035
0.94903
0.949023
0.949015
0.949004
0.94899
0.94897
0.948945
0.948914
0.948879
0.948856
0.948847
0.948839
0.948824
0.948801
0.948771
0.948737
0.948699
0.948672
0.948665
0.948664
0.948668
0.948689
0.948721
0.948752
0.948787
0.948831
0.948885
0.948946
0.949012
0.949062
0.949082
0.949081
0.949068
0.949053
0.949027
0.949005
0.949001
0.94901
0.949019
0.949017
0.948985
0.94891
0.948846
0.948835
0.948855
0.948937
0.949051
0.949123
0.949132
0.949114
0.949069
0.949013
0.948952
0.948872
0.948827
0.948823
0.948838
0.948889
0.948924
0.948929
0.948925
0.948912
0.948899
0.948898
0.948908
0.948927
0.948942
0.948944
0.948943
0.94894
0.948934
0.948918
0.948887
0.948873
0.94888
0.948909
0.948932
0.949015
0.949556
0.951665
0.958117
0.96899
0.983142
0.995584
1.00095
1.00414
1.0073
1.00717
1.00648
1.0051
1.00402
1.00301
1.0022
1.0011
0.949128
0.949122
0.94911
0.949104
0.949103
0.9491
0.949097
0.949095
0.949095
0.949094
0.949088
0.949075
0.949057
0.949033
0.949002
0.948968
0.948935
0.948906
0.948876
0.948836
0.948785
0.948733
0.948702
0.948682
0.948663
0.948653
0.94866
0.948688
0.948705
0.948718
0.948744
0.948787
0.948838
0.948898
0.948962
0.949017
0.949055
0.949067
0.949061
0.949057
0.949057
0.94906
0.949087
0.949151
0.949212
0.949224
0.949208
0.949137
0.94902
0.948911
0.948878
0.948894
0.948941
0.948996
0.949041
0.949049
0.94902
0.948978
0.94895
0.948905
0.948854
0.948847
0.948847
0.948866
0.948896
0.94892
0.948947
0.948971
0.948975
0.948971
0.948959
0.948946
0.948933
0.948916
0.948909
0.948905
0.948906
0.948902
0.948886
0.948884
0.948901
0.948936
0.948949
0.948945
0.948958
0.949144
0.950327
0.954003
0.963502
0.976386
0.991126
1.00137
1.0063
1.00614
1.00504
1.00429
1.00378
1.0031
1.00217
1.00094
0.949027
0.949035
0.949044
0.949057
0.949074
0.949091
0.949108
0.949129
0.949148
0.949163
0.94918
0.94919
0.949196
0.949208
0.949206
0.949186
0.949154
0.949149
0.949149
0.949145
0.949127
0.949094
0.949055
0.949022
0.948999
0.948978
0.948959
0.948941
0.948921
0.948902
0.948911
0.94893
0.948948
0.94897
0.949
0.949039
0.949085
0.949086
0.949065
0.949053
0.949052
0.94906
0.949096
0.949173
0.949254
0.94928
0.94927
0.949218
0.949123
0.949011
0.948914
0.948887
0.948895
0.948895
0.94889
0.948888
0.948873
0.948867
0.948873
0.948887
0.948903
0.948919
0.94892
0.948914
0.948919
0.948949
0.948984
0.949
0.949005
0.949004
0.948992
0.948961
0.948909
0.94888
0.94888
0.948889
0.948898
0.948903
0.948907
0.94892
0.94894
0.948954
0.948953
0.948943
0.94892
0.948925
0.949009
0.949541
0.951801
0.958227
0.970373
0.984625
0.995487
1.00047
1.003
1.00451
1.004
1.00301
1.00184
1.00073
0.948965
0.948996
0.949029
0.949056
0.949081
0.949108
0.949139
0.949169
0.949192
0.949213
0.949233
0.949251
0.949269
0.949284
0.949291
0.94929
0.949299
0.949317
0.949297
0.949278
0.94928
0.949304
0.949309
0.949294
0.949274
0.949273
0.949281
0.949283
0.949261
0.949221
0.949186
0.949165
0.949142
0.949105
0.949096
0.9491
0.949083
0.949029
0.948965
0.948945
0.948939
0.948943
0.948979
0.949054
0.949138
0.94921
0.949233
0.94921
0.949139
0.949057
0.948991
0.948937
0.948888
0.948862
0.948848
0.948832
0.948828
0.948832
0.948847
0.948882
0.948943
0.948996
0.949015
0.949013
0.949012
0.949015
0.94901
0.948994
0.948975
0.948961
0.948944
0.948915
0.948888
0.948879
0.948882
0.9489
0.948935
0.948949
0.94895
0.948945
0.948942
0.948931
0.948917
0.9489
0.948895
0.948902
0.948917
0.948962
0.949202
0.95041
0.954664
0.964481
0.977783
0.992481
1.00045
1.00371
1.00294
1.00198
1.00127
1.00079
0.948949
0.948978
0.949004
0.949016
0.949032
0.949068
0.949117
0.949151
0.949167
0.949179
0.949204
0.949214
0.949211
0.949214
0.949209
0.949194
0.949195
0.94919
0.949149
0.949131
0.949134
0.949159
0.949195
0.949199
0.949188
0.949178
0.949191
0.949227
0.949246
0.949255
0.949246
0.949212
0.94916
0.949113
0.949081
0.94904
0.948969
0.948865
0.948787
0.948764
0.94876
0.948771
0.94882
0.948903
0.948961
0.94898
0.948987
0.948976
0.948947
0.94895
0.948969
0.948993
0.949002
0.949009
0.949
0.948974
0.948941
0.948919
0.948922
0.948948
0.948989
0.949026
0.94905
0.949054
0.949045
0.94903
0.949012
0.948977
0.948922
0.948868
0.948855
0.948862
0.94888
0.948909
0.948933
0.94896
0.948975
0.948977
0.948973
0.948956
0.948918
0.948888
0.948873
0.948879
0.948891
0.948913
0.948939
0.948949
0.948956
0.949035
0.949631
0.952011
0.959462
0.97181
0.984373
0.995546
0.997733
1.00046
1.00146
1.00076
0.948772
0.948804
0.948817
0.948813
0.948819
0.948842
0.948859
0.948862
0.948852
0.948822
0.948814
0.948806
0.948782
0.948736
0.948669
0.948595
0.948568
0.948558
0.948554
0.948557
0.948591
0.94864
0.948655
0.948671
0.948695
0.948722
0.94878
0.948831
0.948848
0.948902
0.948947
0.948958
0.948959
0.948941
0.948886
0.948816
0.948743
0.948671
0.948639
0.948637
0.948643
0.948677
0.94876
0.948877
0.948931
0.94893
0.948923
0.948911
0.948908
0.948923
0.948965
0.94899
0.949033
0.949107
0.949126
0.949121
0.949108
0.949075
0.949047
0.94904
0.949032
0.949004
0.948975
0.948967
0.948975
0.948995
0.94899
0.948971
0.948921
0.948854
0.948842
0.94886
0.948915
0.948978
0.948998
0.948997
0.948984
0.948963
0.948941
0.948917
0.948886
0.948872
0.948875
0.948888
0.948918
0.948954
0.948959
0.948953
0.948928
0.948897
0.948795
0.949003
0.950395
0.954874
0.965481
0.978823
0.991166
0.998741
1.00043
0.999551
0.948681
0.948722
0.948749
0.948756
0.948764
0.948783
0.94879
0.948785
0.948769
0.948735
0.948725
0.948732
0.948718
0.948648
0.948521
0.948426
0.948408
0.94842
0.948468
0.948481
0.948486
0.948503
0.948512
0.948485
0.948425
0.948417
0.948441
0.948503
0.948576
0.94865
0.948756
0.948831
0.948835
0.948822
0.94876
0.948722
0.948722
0.948741
0.948797
0.948868
0.948937
0.949028
0.949174
0.949285
0.949299
0.949284
0.949211
0.9491
0.949028
0.948966
0.948924
0.948922
0.948965
0.949047
0.949069
0.949064
0.949066
0.949031
0.949013
0.949018
0.949
0.948905
0.948803
0.948784
0.948792
0.94886
0.948974
0.949024
0.949018
0.94898
0.948951
0.948949
0.948965
0.94901
0.949022
0.949004
0.94895
0.948905
0.948884
0.948876
0.94888
0.948891
0.948916
0.948944
0.948961
0.948971
0.948962
0.948936
0.948896
0.948829
0.94874
0.9485
0.948348
0.948848
0.95167
0.959247
0.972627
0.984619
0.992318
0.996894
0.949756
0.949907
0.949924
0.94991
0.949956
0.950038
0.950017
0.949995
0.949999
0.950018
0.950086
0.950148
0.950134
0.950064
0.949928
0.949751
0.949639
0.949571
0.949502
0.949363