/*--------------------------------*- C++ -*----------------------------------*\
  =========                 |
  \\      /  F ield         | OpenFOAM: The Open Source CFD Toolbox
   \\    /   O peration     | Website:  https://openfoam.org
    \\  /    A nd           | Version:  7
     \\/     M anipulation  |
\*---------------------------------------------------------------------------*/
FoamFile
{
    version     2.0;
    format      ascii;
    class       volVectorField;
    location    "7.7";
    object      U;
}
// * * * * * * * * * * * * * * * * * * * * * * * * * * * * * * * * * * * * * //

dimensions      [0 1 -1 0 0 0 0];

internalField   nonuniform List<vector> 
8400
(
(2.4311 -0.637629 0)
(2.41786 -0.153315 0)
(2.46006 0.0100464 0)
(2.47785 0.108525 0)
(2.46276 0.311129 0)
(2.49924 0.293307 0)
(2.49686 0.39595 0)
(2.50904 0.411017 0)
(2.52458 0.39581 0)
(2.55834 0.409135 0)
(2.59212 0.416416 0)
(2.59072 0.369581 0)
(2.61045 0.314002 0)
(2.65302 0.268465 0)
(2.68858 0.24205 0)
(2.69621 0.177562 0)
(2.71114 0.162139 0)
(2.71818 0.132941 0)
(2.73937 0.155348 0)
(2.74264 0.179402 0)
(2.7469 0.207839 0)
(2.7555 0.224445 0)
(2.76094 0.224526 0)
(2.76256 0.212477 0)
(2.76484 0.191038 0)
(2.76618 0.153249 0)
(2.77909 0.12619 0)
(2.79025 0.107219 0)
(2.79702 0.100214 0)
(2.80808 0.116018 0)
(2.5672 -1.39291 0)
(2.5969 -1.39545 0)
(2.60939 -1.36042 0)
(2.61274 -1.19987 0)
(2.58055 -0.944262 0)
(2.56021 -0.819138 0)
(2.49592 -0.540095 0)
(2.46617 -0.344235 0)
(2.46411 -0.251499 0)
(2.44182 -0.102528 0)
(2.42596 0.102602 0)
(2.44042 0.112757 0)
(2.45655 0.0977248 0)
(2.47731 0.125705 0)
(2.49657 0.127624 0)
(2.52727 0.122567 0)
(2.53188 0.123195 0)
(2.53667 0.12044 0)
(2.55852 0.14106 0)
(2.56722 0.146905 0)
(2.57471 0.154496 0)
(2.57897 0.158918 0)
(2.58318 0.152282 0)
(2.5948 0.147254 0)
(2.60909 0.143218 0)
(2.61955 0.123284 0)
(2.63933 0.117957 0)
(2.65984 0.112165 0)
(2.67262 0.122073 0)
(2.68806 0.10838 0)
(2.81941 -1.46814 0)
(2.85574 -1.49718 0)
(2.89716 -1.53663 0)
(2.93709 -1.5611 0)
(2.97091 -1.58505 0)
(3.00838 -1.62315 0)
(3.02357 -1.66528 0)
(3.01064 -1.64196 0)
(2.95336 -1.52659 0)
(2.83693 -1.32773 0)
(2.67459 -0.879961 0)
(2.62732 -0.612019 0)
(2.51923 -0.30499 0)
(2.49502 -0.163466 0)
(2.39225 0.0830147 0)
(2.39414 0.179373 0)
(2.3682 0.293996 0)
(2.3898 0.298432 0)
(2.403 0.264202 0)
(2.43542 0.208286 0)
(2.45407 0.141915 0)
(2.47546 0.103121 0)
(2.48693 0.0972637 0)
(2.49382 0.122188 0)
(2.4992 0.138867 0)
(2.51157 0.13202 0)
(2.52682 0.139648 0)
(2.54919 0.137952 0)
(2.5608 0.122044 0)
(2.58046 0.102355 0)
(2.96712 -1.64526 0)
(2.98488 -1.6489 0)
(3.00103 -1.6689 0)
(3.01048 -1.67729 0)
(3.0363 -1.69586 0)
(3.05599 -1.71605 0)
(3.07027 -1.72751 0)
(3.07216 -1.73131 0)
(3.07378 -1.73185 0)
(3.07199 -1.72882 0)
(3.0716 -1.7281 0)
(3.07942 -1.71793 0)
(3.04222 -1.61702 0)
(2.93721 -1.41064 0)
(2.78868 -1.06861 0)
(2.70817 -0.746207 0)
(2.62119 -0.383752 0)
(2.57421 -0.146541 0)
(2.53009 0.0237564 0)
(2.51625 0.0883986 0)
(2.49782 0.109686 0)
(2.49826 0.105066 0)
(2.50893 0.107677 0)
(2.51384 0.106304 0)
(2.50087 0.0920698 0)
(2.50341 0.0878868 0)
(2.5047 0.100505 0)
(2.51288 0.110771 0)
(2.52096 0.106394 0)
(2.5419 0.0881285 0)
(3.05641 -1.72785 0)
(3.05937 -1.73067 0)
(3.06464 -1.7343 0)
(3.06715 -1.73762 0)
(3.06277 -1.74132 0)
(3.06084 -1.73855 0)
(3.06895 -1.72767 0)
(3.07257 -1.7274 0)
(3.07737 -1.73153 0)
(3.07191 -1.72035 0)
(3.06194 -1.71282 0)
(3.06076 -1.67847 0)
(3.07576 -1.65427 0)
(3.06966 -1.6525 0)
(3.05089 -1.66526 0)
(3.05611 -1.65554 0)
(3.02905 -1.50374 0)
(2.93935 -1.21093 0)
(2.79706 -0.738182 0)
(2.72474 -0.385598 0)
(2.62522 -0.0824871 0)
(2.60698 0.0115284 0)
(2.57468 0.1047 0)
(2.54755 0.0998018 0)
(2.53968 0.079434 0)
(2.5648 0.0943714 0)
(2.5583 0.0894948 0)
(2.54595 0.077172 0)
(2.54897 0.0631849 0)
(2.56695 0.0532258 0)
(3.06807 -1.75439 0)
(3.05987 -1.7519 0)
(3.0548 -1.74363 0)
(3.05631 -1.73179 0)
(3.06022 -1.72343 0)
(3.057 -1.71125 0)
(3.05965 -1.67606 0)
(3.08095 -1.64119 0)
(3.08205 -1.62435 0)
(3.06716 -1.62806 0)
(3.06513 -1.60373 0)
(3.06093 -1.56155 0)
(3.08283 -1.52982 0)
(3.09504 -1.52466 0)
(3.08458 -1.56602 0)
(3.08722 -1.55183 0)
(3.08909 -1.53489 0)
(3.09316 -1.5276 0)
(3.09729 -1.52108 0)
(3.06891 -1.43248 0)
(2.98325 -1.12479 0)
(2.88561 -0.746615 0)
(2.81342 -0.424679 0)
(2.76557 -0.215178 0)
(2.7419 -0.0510091 0)
(2.68584 0.0887171 0)
(2.64932 0.0718761 0)
(2.61322 0.103546 0)
(2.63728 0.129875 0)
(2.64451 0.111684 0)
(3.07885 -1.58789 0)
(3.07354 -1.58103 0)
(3.06382 -1.58573 0)
(3.05632 -1.5679 0)
(3.05359 -1.541 0)
(3.06096 -1.52957 0)
(3.07772 -1.51631 0)
(3.10641 -1.49095 0)
(3.11654 -1.49383 0)
(3.09079 -1.54661 0)
(3.08528 -1.57335 0)
(3.07398 -1.53741 0)
(3.08814 -1.50718 0)
(3.10307 -1.49057 0)
(3.11794 -1.48656 0)
(3.12514 -1.49073 0)
(3.1061 -1.45823 0)
(3.10514 -1.41625 0)
(3.11081 -1.3974 0)
(3.11321 -1.40467 0)
(3.11759 -1.36965 0)
(3.11621 -1.37302 0)
(3.09438 -1.28922 0)
(3.03927 -1.02702 0)
(3.00688 -0.749346 0)
(2.90772 -0.430932 0)
(2.92542 -0.264195 0)
(2.79971 -0.0208539 0)
(2.75381 0.061354 0)
(2.72988 0.0992552 0)
(3.08425 -1.57334 0)
(3.08223 -1.57103 0)
(3.07469 -1.57383 0)
(3.06641 -1.57158 0)
(3.0632 -1.5608 0)
(3.0728 -1.54852 0)
(3.08779 -1.51541 0)
(3.10821 -1.48606 0)
(3.12672 -1.47457 0)
(3.12246 -1.47832 0)
(3.11185 -1.488 0)
(3.09856 -1.45337 0)
(3.09842 -1.4214 0)
(3.11759 -1.36434 0)
(3.14346 -1.34086 0)
(3.14544 -1.33187 0)
(3.13061 -1.32284 0)
(3.12453 -1.29854 0)
(3.12341 -1.29127 0)
(3.12432 -1.29223 0)
(3.12253 -1.29738 0)
(3.12486 -1.28928 0)
(3.13042 -1.25968 0)
(3.13233 -1.25122 0)
(3.13426 -1.23504 0)
(3.11515 -1.16496 0)
(3.09497 -0.982904 0)
(3.02388 -0.613502 0)
(3.01852 -0.487147 0)
(2.89406 -0.13178 0)
(3.1359 -1.38909 0)
(3.13549 -1.38841 0)
(3.13696 -1.38022 0)
(3.12837 -1.38699 0)
(3.12408 -1.40371 0)
(3.12556 -1.35975 0)
(3.14619 -1.30123 0)
(3.15615 -1.28146 0)
(3.16467 -1.25618 0)
(3.16935 -1.24516 0)
(3.15372 -1.2549 0)
(3.12855 -1.27491 0)
(3.11901 -1.24946 0)
(3.1284 -1.23874 0)
(3.14006 -1.24582 0)
(3.14107 -1.26607 0)
(3.13542 -1.25409 0)
(3.12832 -1.24167 0)
(3.12813 -1.23707 0)
(3.13563 -1.22 0)
(3.14269 -1.20289 0)
(3.14329 -1.184 0)
(3.14228 -1.17523 0)
(3.13518 -1.16355 0)
(3.13068 -1.14047 0)
(3.12784 -1.14748 0)
(3.12995 -1.13687 0)
(3.13207 -1.13037 0)
(3.12896 -1.07751 0)
(3.05881 -0.668679 0)
(3.15621 -1.23594 0)
(3.15721 -1.24003 0)
(3.15997 -1.24115 0)
(3.1599 -1.24468 0)
(3.14455 -1.2745 0)
(3.13379 -1.28667 0)
(3.13183 -1.24023 0)
(3.14803 -1.20737 0)
(3.15332 -1.20296 0)
(3.15765 -1.20509 0)
(3.15297 -1.2083 0)
(3.13959 -1.21676 0)
(3.12172 -1.21903 0)
(3.12628 -1.20084 0)
(3.14231 -1.18334 0)
(3.15328 -1.17462 0)
(3.15149 -1.16479 0)
(3.1468 -1.15497 0)
(3.14381 -1.13075 0)
(3.14694 -1.11351 0)
(3.14769 -1.09437 0)
(3.14782 -1.07934 0)
(3.14545 -1.07318 0)
(3.13628 -1.07656 0)
(3.12887 -1.07768 0)
(3.13169 -1.07727 0)
(3.13727 -1.06623 0)
(3.14122 -1.05218 0)
(3.14188 -1.03246 0)
(3.1383 -1.02801 0)
(3.14798 -1.07573 0)
(3.16359 -1.08124 0)
(3.17032 -1.08329 0)
(3.17444 -1.08361 0)
(3.16965 -1.09478 0)
(3.1582 -1.11849 0)
(3.14956 -1.10893 0)
(3.15366 -1.08179 0)
(3.15853 -1.07531 0)
(3.16831 -1.06336 0)
(3.17075 -1.05449 0)
(3.16783 -1.0526 0)
(3.15938 -1.04607 0)
(3.15119 -1.02716 0)
(3.15375 -1.00803 0)
(3.15951 -1.00146 0)
(3.16097 -1.00088 0)
(3.15761 -0.991962 0)
(3.14931 -0.995022 0)
(3.14621 -0.993971 0)
(3.14103 -1.00587 0)
(3.14206 -1.00408 0)
(3.14378 -1.00629 0)
(3.14261 -1.00093 0)
(3.14443 -0.989303 0)
(3.14569 -0.976504 0)
(3.14763 -0.963616 0)
(3.14391 -0.942928 0)
(3.14 -0.940673 0)
(3.13074 -0.944212 0)
(3.15511 -0.931496 0)
(3.15432 -0.917413 0)
(3.16118 -0.926211 0)
(3.17408 -0.936409 0)
(3.17727 -0.937272 0)
(3.17513 -0.939773 0)
(3.16629 -0.953979 0)
(3.15406 -0.952781 0)
(3.15306 -0.93167 0)
(3.15702 -0.926058 0)
(3.1653 -0.927876 0)
(3.16504 -0.934985 0)
(3.15875 -0.936532 0)
(3.14643 -0.930081 0)
(3.14124 -0.929589 0)
(3.14371 -0.935294 0)
(3.14782 -0.938235 0)
(3.14576 -0.933882 0)
(3.14418 -0.931442 0)
(3.1437 -0.926004 0)
(3.14391 -0.919048 0)
(3.1453 -0.911979 0)
(3.14401 -0.907581 0)
(3.14665 -0.898057 0)
(3.14606 -0.887673 0)
(3.14472 -0.885893 0)
(3.14131 -0.886705 0)
(3.13643 -0.890071 0)
(3.12938 -0.898857 0)
(3.12938 -0.899416 0)
(3.15148 -0.809847 0)
(3.14813 -0.805282 0)
(3.15073 -0.788552 0)
(3.1511 -0.772923 0)
(3.15709 -0.765953 0)
(3.16743 -0.77565 0)
(3.16291 -0.790187 0)
(3.15647 -0.797967 0)
(3.14571 -0.804187 0)
(3.14282 -0.796891 0)
(3.14617 -0.794162 0)
(3.15552 -0.791762 0)
(3.1555 -0.79112 0)
(3.14865 -0.794639 0)
(3.14476 -0.794395 0)
(3.14417 -0.789062 0)
(3.14571 -0.784626 0)
(3.14523 -0.785843 0)
(3.14454 -0.785676 0)
(3.14324 -0.784236 0)
(3.14062 -0.786145 0)
(3.13956 -0.787453 0)
(3.13868 -0.789995 0)
(3.13684 -0.796736 0)
(3.13641 -0.802179 0)
(3.13328 -0.81061 0)
(3.13335 -0.812368 0)
(3.13133 -0.8188 0)
(3.13301 -0.818183 0)
(3.13658 -0.813133 0)
(3.13726 -0.63047 0)
(3.13531 -0.632732 0)
(3.12848 -0.641954 0)
(3.12545 -0.643707 0)
(3.12743 -0.641397 0)
(3.13369 -0.629196 0)
(3.14588 -0.615987 0)
(3.14864 -0.629051 0)
(3.13831 -0.638901 0)
(3.12972 -0.648652 0)
(3.12316 -0.659101 0)
(3.12763 -0.658262 0)
(3.13763 -0.654206 0)
(3.14015 -0.661555 0)
(3.13523 -0.668962 0)
(3.13019 -0.668925 0)
(3.12922 -0.675124 0)
(3.13217 -0.685456 0)
(3.13202 -0.688476 0)
(3.13218 -0.689702 0)
(3.13289 -0.699462 0)
(3.13156 -0.703287 0)
(3.13087 -0.707936 0)
(3.13113 -0.711341 0)
(3.13172 -0.71821 0)
(3.13179 -0.723473 0)
(3.13318 -0.722546 0)
(3.13269 -0.726283 0)
(3.1352 -0.717701 0)
(3.13238 -0.722898 0)
(3.11962 -0.432791 0)
(3.11541 -0.460671 0)
(3.10745 -0.471094 0)
(3.10241 -0.474013 0)
(3.09419 -0.488822 0)
(3.09468 -0.493702 0)
(3.10729 -0.488316 0)
(3.12494 -0.47407 0)
(3.12579 -0.478761 0)
(3.11839 -0.498989 0)
(3.10824 -0.51945 0)
(3.10356 -0.521389 0)
(3.11009 -0.521306 0)
(3.11944 -0.528708 0)
(3.11955 -0.537219 0)
(3.11777 -0.541772 0)
(3.11821 -0.543898 0)
(3.11888 -0.557167 0)
(3.11795 -0.567028 0)
(3.11903 -0.570218 0)
(3.12153 -0.5756 0)
(3.12249 -0.583546 0)
(3.12193 -0.593174 0)
(3.12221 -0.59962 0)
(3.12331 -0.605488 0)
(3.12403 -0.606132 0)
(3.12401 -0.612214 0)
(3.12053 -0.615349 0)
(3.12276 -0.629176 0)
(3.12294 -0.650277 0)
(3.07163 -0.249755 0)
(3.08432 -0.277694 0)
(3.08229 -0.301474 0)
(3.08241 -0.309648 0)
(3.07189 -0.338891 0)
(3.06448 -0.353319 0)
(3.06868 -0.350412 0)
(3.08645 -0.330848 0)
(3.09702 -0.327015 0)
(3.09794 -0.344673 0)
(3.09143 -0.375408 0)
(3.08157 -0.388208 0)
(3.08446 -0.383903 0)
(3.09732 -0.394654 0)
(3.0995 -0.407578 0)
(3.09796 -0.411697 0)
(3.09907 -0.419616 0)
(3.10154 -0.435694 0)
(3.10085 -0.446197 0)
(3.10207 -0.454963 0)
(3.10515 -0.464026 0)
(3.10779 -0.480185 0)
(3.10724 -0.483799 0)
(3.1085 -0.497154 0)
(3.11059 -0.512559 0)
(3.11064 -0.522993 0)
(3.11259 -0.54115 0)
(3.11343 -0.555372 0)
(3.1147 -0.568284 0)
(3.11742 -0.579454 0)
(3.02868 -0.100477 0)
(3.04103 -0.107177 0)
(3.04775 -0.138523 0)
(3.04912 -0.149175 0)
(3.04528 -0.180631 0)
(3.03489 -0.206362 0)
(3.03008 -0.210315 0)
(3.04458 -0.195103 0)
(3.06007 -0.183599 0)
(3.06923 -0.199635 0)
(3.06653 -0.231519 0)
(3.05452 -0.251478 0)
(3.05393 -0.24753 0)
(3.06746 -0.259096 0)
(3.07267 -0.282145 0)
(3.07173 -0.28345 0)
(3.07449 -0.29406 0)
(3.07793 -0.311533 0)
(3.0783 -0.328344 0)
(3.07946 -0.33799 0)
(3.0839 -0.350981 0)
(3.08777 -0.365721 0)
(3.08893 -0.378835 0)
(3.09074 -0.392594 0)
(3.09332 -0.405983 0)
(3.0957 -0.420952 0)
(3.09735 -0.428005 0)
(3.09921 -0.440364 0)
(3.10055 -0.449103 0)
(3.10257 -0.466189 0)
(2.97786 0.0275757 0)
(2.98752 0.0393893 0)
(2.99739 0.0336389 0)
(2.99618 0.00233141 0)
(2.99653 -0.0156061 0)
(2.99789 -0.0500558 0)
(2.99121 -0.0753416 0)
(2.99932 -0.0753961 0)
(3.01629 -0.0563083 0)
(3.02647 -0.0622429 0)
(3.02861 -0.0862141 0)
(3.01916 -0.113403 0)
(3.01564 -0.114178 0)
(3.02849 -0.130146 0)
(3.03697 -0.155514 0)
(3.03733 -0.160405 0)
(3.04124 -0.168987 0)
(3.0476 -0.191148 0)
(3.0482 -0.206309 0)
(3.04994 -0.219814 0)
(3.05599 -0.237468 0)
(3.06084 -0.250568 0)
(3.06488 -0.270724 0)
(3.06642 -0.281132 0)
(3.07092 -0.300875 0)
(3.07452 -0.316698 0)
(3.07786 -0.334267 0)
(3.08103 -0.350686 0)
(3.08405 -0.366423 0)
(3.08865 -0.394068 0)
(2.91392 0.165026 0)
(2.91968 0.173309 0)
(2.92878 0.177071 0)
(2.93618 0.150325 0)
(2.93976 0.123356 0)
(2.94719 0.0930353 0)
(2.94132 0.0658199 0)
(2.94475 0.0636497 0)
(2.95524 0.0790796 0)
(2.97033 0.0704804 0)
(2.9795 0.043487 0)
(2.97388 0.0152664 0)
(2.97196 0.0161142 0)
(2.98381 -0.0017149 0)
(2.99167 -0.0281717 0)
(2.99352 -0.0385334 0)
(2.99982 -0.0493638 0)
(3.00917 -0.0691881 0)
(3.01331 -0.087944 0)
(3.01553 -0.102839 0)
(3.02194 -0.122159 0)
(3.02878 -0.140207 0)
(3.03389 -0.157 0)
(3.03809 -0.175125 0)
(3.04339 -0.195396 0)
(3.04835 -0.212967 0)
(3.05311 -0.23118 0)
(3.05761 -0.24969 0)
(3.06193 -0.268182 0)
(3.06799 -0.294374 0)
(2.8467 0.304424 0)
(2.85497 0.291706 0)
(2.86253 0.281166 0)
(2.86524 0.28269 0)
(2.87618 0.266094 0)
(2.88418 0.235964 0)
(2.88224 0.223873 0)
(2.88627 0.214243 0)
(2.89291 0.2133 0)
(2.90435 0.199969 0)
(2.9177 0.165716 0)
(2.91837 0.155238 0)
(2.92302 0.146249 0)
(2.93477 0.122729 0)
(2.94066 0.102503 0)
(2.94523 0.0886067 0)
(2.95563 0.0672955 0)
(2.96454 0.0491967 0)
(2.9709 0.0321916 0)
(2.97739 0.0108922 0)
(2.98402 -0.00899693 0)
(2.99116 -0.026199 0)
(2.99921 -0.0477507 0)
(3.00556 -0.0686781 0)
(3.01179 -0.0892325 0)
(3.01866 -0.110188 0)
(3.02531 -0.131055 0)
(3.03147 -0.151316 0)
(3.03719 -0.171591 0)
(3.04591 -0.204734 0)
(2.81701 0.375141 0)
(2.81852 0.371928 0)
(2.82021 0.368373 0)
(2.8228 0.365576 0)
(2.82805 0.360098 0)
(2.83331 0.34933 0)
(2.8341 0.343146 0)
(2.83544 0.337639 0)
(2.84106 0.327786 0)
(2.84602 0.323187 0)
(2.8567 0.30792 0)
(2.86633 0.283877 0)
(2.86995 0.27512 0)
(2.8768 0.261701 0)
(2.88807 0.234945 0)
(2.89514 0.216033 0)
(2.90375 0.198247 0)
(2.91503 0.175415 0)
(2.92569 0.150667 0)
(2.93246 0.133055 0)
(2.94332 0.104292 0)
(2.95179 0.0828679 0)
(2.96102 0.0616279 0)
(2.97032 0.0377616 0)
(2.97883 0.0130051 0)
(2.98642 -0.00781124 0)
(2.9954 -0.0327035 0)
(3.00325 -0.0554652 0)
(3.01043 -0.0771355 0)
(3.02146 -0.11258 0)
(2.8162 0.376643 0)
(2.81682 0.372233 0)
(2.81912 0.367109 0)
(2.81997 0.365501 0)
(2.82222 0.366665 0)
(2.82287 0.369488 0)
(2.82199 0.373113 0)
(2.82157 0.373492 0)
(2.82202 0.372558 0)
(2.82376 0.369167 0)
(2.82614 0.362616 0)
(2.82748 0.359921 0)
(2.82899 0.359998 0)
(2.83523 0.353241 0)
(2.84208 0.340581 0)
(2.84602 0.332232 0)
(2.85394 0.318033 0)
(2.86357 0.299494 0)
(2.87314 0.279219 0)
(2.8836 0.256249 0)
(2.89399 0.232686 0)
(2.90549 0.205683 0)
(2.91744 0.177825 0)
(2.92812 0.15313 0)
(2.94065 0.122088 0)
(2.95058 0.0968362 0)
(2.96122 0.0699342 0)
(2.97155 0.0427101 0)
(2.98068 0.0177443 0)
(2.9945 -0.0211253 0)
(2.85359 0.308748 0)
(2.85027 0.305425 0)
(2.84697 0.317074 0)
(2.84476 0.329919 0)
(2.8389 0.342458 0)
(2.83831 0.363973 0)
(2.83479 0.366576 0)
(2.82845 0.357559 0)
(2.8298 0.353653 0)
(2.83154 0.355434 0)
(2.83359 0.356802 0)
(2.83265 0.361498 0)
(2.83087 0.364101 0)
(2.83082 0.364076 0)
(2.83138 0.362308 0)
(2.83168 0.360826 0)
(2.83318 0.358504 0)
(2.83534 0.355582 0)
(2.83838 0.351435 0)
(2.84313 0.344698 0)
(2.85004 0.333191 0)
(2.85795 0.318448 0)
(2.86855 0.297525 0)
(2.88017 0.273464 0)
(2.89368 0.244304 0)
(2.90631 0.214892 0)
(2.91993 0.182383 0)
(2.93285 0.151001 0)
(2.94533 0.120023 0)
(2.96319 0.0740863 0)
(2.93712 0.147633 0)
(2.92387 0.172173 0)
(2.91664 0.192094 0)
(2.91512 0.186904 0)
(2.9078 0.197291 0)
(2.89719 0.230212 0)
(2.89637 0.239721 0)
(2.89382 0.242776 0)
(2.87678 0.269623 0)
(2.87143 0.282731 0)
(2.87216 0.280496 0)
(2.86055 0.301928 0)
(2.85467 0.326901 0)
(2.85353 0.32288 0)
(2.84865 0.32726 0)
(2.84253 0.342341 0)
(2.84177 0.345242 0)
(2.83976 0.345992 0)
(2.83966 0.348191 0)
(2.8399 0.348519 0)
(2.84056 0.348099 0)
(2.84139 0.347152 0)
(2.84342 0.3443 0)
(2.84701 0.339715 0)
(2.85314 0.330744 0)
(2.86145 0.316739 0)
(2.87286 0.294791 0)
(2.88557 0.267765 0)
(2.89971 0.236754 0)
(2.92219 0.184351 0)
(2.99096 0.0213826 0)
(2.98891 0.0251938 0)
(2.98681 0.0289255 0)
(2.98334 0.035286 0)
(2.97968 0.0409924 0)
(2.97465 0.0526353 0)
(2.97237 0.0610365 0)
(2.96783 0.0727601 0)
(2.96226 0.0821469 0)
(2.95441 0.0964404 0)
(2.94425 0.117622 0)
(2.9376 0.131235 0)
(2.92515 0.16163 0)
(2.92015 0.174264 0)
(2.90433 0.205481 0)
(2.89752 0.221006 0)
(2.88521 0.248948 0)
(2.87525 0.270591 0)
(2.86859 0.284122 0)
(2.85751 0.309019 0)
(2.85677 0.312511 0)
(2.84903 0.328715 0)
(2.84646 0.333557 0)
(2.84678 0.334394 0)
(2.84719 0.334602 0)
(2.84807 0.334429 0)
(2.85002 0.332449 0)
(2.85373 0.327878 0)
(2.85962 0.319311 0)
(2.87645 0.288446 0)
(2.99972 0.000615771 0)
(2.99964 0.000755611 0)
(2.99952 0.000969613 0)
(2.99934 0.00127633 0)
(2.9991 0.0016755 0)
(2.99875 0.00235568 0)
(2.99838 0.00323094 0)
(2.99789 0.00428086 0)
(2.99711 0.00574929 0)
(2.99589 0.00787865 0)
(2.99408 0.01138 0)
(2.99218 0.0149134 0)
(2.98858 0.0225393 0)
(2.98554 0.0287395 0)
(2.97937 0.0409882 0)
(2.97276 0.054308 0)
(2.96403 0.0724234 0)
(2.95265 0.0974461 0)
(2.9441 0.114988 0)
(2.92438 0.157696 0)
(2.91684 0.175399 0)
(2.89796 0.214964 0)
(2.88439 0.246398 0)
(2.87835 0.261383 0)
(2.86151 0.29795 0)
(2.85762 0.307844 0)
(2.85578 0.312336 0)
(2.85208 0.32362 0)
(2.85228 0.324447 0)
(2.85509 0.320933 0)
(3 5.32147e-06 0)
(3 6.49484e-06 0)
(3 8.8725e-06 0)
(2.99999 1.17954e-05 0)
(2.99999 1.70686e-05 0)
(2.99999 2.406e-05 0)
(2.99998 3.66673e-05 0)
(2.99997 5.31619e-05 0)
(2.99996 7.97449e-05 0)
(2.99993 0.000126796 0)
(2.99988 0.000200835 0)
(2.99981 0.000339388 0)
(2.99969 0.000537932 0)
(2.99948 0.000954213 0)
(2.99916 0.00149739 0)
(2.99853 0.00269363 0)
(2.99756 0.00448526 0)
(2.99597 0.00747974 0)
(2.99328 0.0127708 0)
(2.98933 0.0200178 0)
(2.98301 0.0331502 0)
(2.97443 0.0498488 0)
(2.96332 0.0727185 0)
(2.94769 0.106282 0)
(2.93286 0.13677 0)
(2.9141 0.177975 0)
(2.89677 0.216948 0)
(2.8824 0.248398 0)
(2.8712 0.274681 0)
(2.8617 0.299436 0)
(3 2.7628e-08 0)
(3 3.55046e-08 0)
(3 4.58416e-08 0)
(3 6.46207e-08 0)
(3 8.78321e-08 0)
(3 1.30469e-07 0)
(3 1.88877e-07 0)
(3 2.91141e-07 0)
(3 4.4219e-07 0)
(3 7.25747e-07 0)
(3 1.23438e-06 0)
(3 2.13144e-06 0)
(3 3.92627e-06 0)
(3 7.11675e-06 0)
(2.99999 1.37819e-05 0)
(2.99998 2.71915e-05 0)
(2.99997 5.56118e-05 0)
(2.99993 0.000117131 0)
(2.99986 0.000239959 0)
(2.9997 0.000535989 0)
(2.99938 0.0010957 0)
(2.99868 0.00239512 0)
(2.99736 0.00483405 0)
(2.99476 0.00974197 0)
(2.99032 0.01829 0)
(2.98244 0.0338692 0)
(2.97184 0.0550896 0)
(2.95514 0.0896823 0)
(2.9386 0.124408 0)
(2.90807 0.19164 0)
(3 1.21027e-10 0)
(3 1.53159e-10 0)
(3 2.07536e-10 0)
(3 2.80063e-10 0)
(3 3.97958e-10 0)
(3 5.60614e-10 0)
(3 8.35095e-10 0)
(3 1.2391e-09 0)
(3 1.92937e-09 0)
(3 3.0984e-09 0)
(3 5.24423e-09 0)
(3 9.2058e-09 0)
(3 1.67032e-08 0)
(3 3.17512e-08 0)
(3 6.18037e-08 0)
(3 1.29762e-07 0)
(3 2.79791e-07 0)
(3 6.31596e-07 0)
(3 1.49145e-06 0)
(3 3.65635e-06 0)
(2.99999 9.31813e-06 0)
(2.99999 2.45176e-05 0)
(2.99996 6.50679e-05 0)
(2.9999 0.00017891 0)
(2.99973 0.000468122 0)
(2.99929 0.0012694 0)
(2.99831 0.00309373 0)
(2.99587 0.00772333 0)
(2.9919 0.0153195 0)
(2.97594 0.048202 0)
(3 4.05142e-13 0)
(3 5.20274e-13 0)
(3 7.05297e-13 0)
(3 9.69857e-13 0)
(3 1.36658e-12 0)
(3 1.95137e-12 0)
(3 2.87919e-12 0)
(3 4.30562e-12 0)
(3 6.64983e-12 0)
(3 1.05998e-11 0)
(3 1.77892e-11 0)
(3 3.06528e-11 0)
(3 5.58957e-11 0)
(3 1.0401e-10 0)
(3 2.06497e-10 0)
(3 4.27486e-10 0)
(3 9.46869e-10 0)
(3 2.14556e-09 0)
(3 5.28352e-09 0)
(3 1.32808e-08 0)
(3 3.62937e-08 0)
(3 1.00374e-07 0)
(3 3.0322e-07 0)
(3 9.16277e-07 0)
(3 2.99929e-06 0)
(2.99999 9.70382e-06 0)
(2.99997 3.32967e-05 0)
(2.99991 0.00011164 0)
(2.99975 0.000331759 0)
(2.99798 0.00248254 0)
(2.4147 -1.325 0)
(2.52794 -1.37374 0)
(2.77613 -1.44314 0)
(2.93238 -1.63227 0)
(3.05726 -1.72585 0)
(3.0741 -1.76495 0)
(3.0846 -1.59218 0)
(3.08599 -1.57298 0)
(3.13454 -1.38456 0)
(3.1484 -1.20833 0)
(3.15087 -1.0893 0)
(3.15267 -0.953276 0)
(3.15591 -0.80891 0)
(3.14153 -0.600037 0)
(3.0957 -0.401109 0)
(3.05999 -0.25222 0)
(3.01907 -0.11418 0)
(2.96919 0.0172298 0)
(2.90972 0.16039 0)
(2.84429 0.309787 0)
(2.81689 0.37571 0)
(2.82105 0.379505 0)
(2.85851 0.317095 0)
(2.94233 0.137223 0)
(2.99239 0.01865 0)
(2.99978 0.000492921 0)
(3 4.39983e-06 0)
(3 2.29697e-08 0)
(3 9.85995e-11 0)
(3 3.28197e-13 0)
(2.41333 -1.31132 0)
(2.54416 -1.3763 0)
(2.8015 -1.4575 0)
(2.94192 -1.66335 0)
(3.0823 -1.74053 0)
(3.0761 -1.77668 0)
(3.09978 -1.54501 0)
(3.09338 -1.53495 0)
(3.1397 -1.33568 0)
(3.15838 -1.19451 0)
(3.15763 -1.09438 0)
(3.1657 -0.948127 0)
(3.16758 -0.743947 0)
(3.12476 -0.531549 0)
(3.08768 -0.402572 0)
(3.0511 -0.253169 0)
(3.01215 -0.107777 0)
(2.96438 0.037995 0)
(2.90326 0.191863 0)
(2.83747 0.329832 0)
(2.81544 0.377303 0)
(2.82271 0.377398 0)
(2.86524 0.309675 0)
(2.95125 0.114391 0)
(2.9956 0.00993829 0)
(2.99991 0.000192612 0)
(3 1.42881e-06 0)
(3 7.9171e-09 0)
(3 3.72362e-11 0)
(3 1.31838e-13 0)
(2.40107 -1.30886 0)
(2.54583 -1.37487 0)
(2.80368 -1.46947 0)
(2.93151 -1.6508 0)
(3.07521 -1.73215 0)
(3.06271 -1.79173 0)
(3.09605 -1.55708 0)
(3.08479 -1.53999 0)
(3.13344 -1.36182 0)
(3.15585 -1.23564 0)
(3.16527 -1.10054 0)
(3.18891 -0.900258 0)
(3.14796 -0.652297 0)
(3.11622 -0.544919 0)
(3.08353 -0.405758 0)
(3.05422 -0.242093 0)
(3.01653 -0.0669513 0)
(2.95988 0.096823 0)
(2.88673 0.24935 0)
(2.82709 0.355471 0)
(2.81349 0.376949 0)
(2.82417 0.358273 0)
(2.87376 0.270129 0)
(2.96234 0.0830427 0)
(2.99721 0.00596947 0)
(2.99996 9.08135e-05 0)
(3 6.28918e-07 0)
(3 3.41901e-09 0)
(3 1.59306e-11 0)
(3 5.73475e-14 0)
(2.39154 -1.30406 0)
(2.55606 -1.38095 0)
(2.80302 -1.48398 0)
(2.9303 -1.65314 0)
(3.06399 -1.73259 0)
(3.04354 -1.78597 0)
(3.08828 -1.57565 0)
(3.08556 -1.53397 0)
(3.13812 -1.36849 0)
(3.17094 -1.23111 0)
(3.21504 -1.01232 0)
(3.17415 -0.777883 0)
(3.14566 -0.66742 0)
(3.11527 -0.537331 0)
(3.0951 -0.337158 0)
(3.05359 -0.15078 0)
(2.98876 0.0287196 0)
(2.9186 0.179752 0)
(2.85541 0.300444 0)
(2.81588 0.373837 0)
(2.81152 0.377581 0)
(2.8317 0.342848 0)
(2.90927 0.205937 0)
(2.97778 0.051779 0)
(2.99873 0.0027913 0)
(2.99998 3.74319e-05 0)
(3 2.54825e-07 0)
(3 1.39306e-09 0)
(3 6.57526e-12 0)
(3 2.56025e-14 0)
(2.38407 -1.3011 0)
(2.55562 -1.38168 0)
(2.79566 -1.4893 0)
(2.93777 -1.65554 0)
(3.05909 -1.72951 0)
(3.04615 -1.77093 0)
(3.08587 -1.58157 0)
(3.10717 -1.49414 0)
(3.16224 -1.33909 0)
(3.20023 -1.13694 0)
(3.1732 -0.891251 0)
(3.15907 -0.779022 0)
(3.13704 -0.683824 0)
(3.11999 -0.449953 0)
(3.05958 -0.236688 0)
(3.01253 -0.0783181 0)
(2.96498 0.0556573 0)
(2.90521 0.189812 0)
(2.84439 0.309788 0)
(2.81107 0.381479 0)
(2.81023 0.382562 0)
(2.84071 0.33594 0)
(2.92213 0.186249 0)
(2.9856 0.0373535 0)
(2.99938 0.00151801 0)
(2.99999 1.66339e-05 0)
(3 1.05679e-07 0)
(3 5.65941e-10 0)
(3 2.65561e-12 0)
(3 1.25227e-14 0)
(2.37789 -1.29531 0)
(2.54401 -1.37311 0)
(2.7906 -1.49269 0)
(2.96031 -1.66078 0)
(3.06298 -1.72138 0)
(3.06045 -1.72588 0)
(3.08766 -1.58408 0)
(3.11107 -1.47075 0)
(3.15611 -1.26907 0)
(3.15922 -1.02184 0)
(3.16191 -0.917333 0)
(3.14969 -0.810876 0)
(3.14888 -0.623344 0)
(3.08452 -0.364294 0)
(3.04972 -0.22991 0)
(3.00704 -0.0953585 0)
(2.95837 0.0364789 0)
(2.89988 0.179322 0)
(2.83878 0.317456 0)
(2.80943 0.385847 0)
(2.81183 0.390197 0)
(2.84689 0.347659 0)
(2.92788 0.184108 0)
(2.98935 0.0270244 0)
(2.99965 0.000825631 0)
(3 7.50789e-06 0)
(3 4.49133e-08 0)
(3 2.33149e-10 0)
(3 1.06799e-12 0)
(3 7.36831e-15 0)
(2.37194 -1.28875 0)
(2.53166 -1.36232 0)
(2.77714 -1.50083 0)
(2.96706 -1.6649 0)
(3.06819 -1.72036 0)
(3.06312 -1.71201 0)
(3.09267 -1.55558 0)
(3.11524 -1.3978 0)
(3.13427 -1.21897 0)
(3.16087 -1.05564 0)
(3.15402 -0.951422 0)
(3.15874 -0.792608 0)
(3.12053 -0.503157 0)
(3.08693 -0.387873 0)
(3.04303 -0.24462 0)
(3.0023 -0.0924141 0)
(2.95594 0.0643934 0)
(2.89361 0.223136 0)
(2.82821 0.349192 0)
(2.80843 0.387824 0)
(2.81514 0.389869 0)
(2.85306 0.328216 0)
(2.93974 0.138406 0)
(2.99317 0.0152993 0)
(2.99983 0.000363176 0)
(3 3.09676e-06 0)
(3 1.82609e-08 0)
(3 9.40104e-11 0)
(3 4.27921e-13 0)
(3 5.13833e-15 0)
(2.36496 -1.28481 0)
(2.51674 -1.34239 0)
(2.76345 -1.50035 0)
(2.96669 -1.67215 0)
(3.08071 -1.7289 0)
(3.07611 -1.67631 0)
(3.095 -1.51147 0)
(3.11726 -1.39625 0)
(3.13201 -1.2555 0)
(3.15909 -1.09056 0)
(3.16808 -0.943477 0)
(3.16771 -0.66787 0)
(3.1205 -0.499444 0)
(3.08166 -0.388972 0)
(3.04972 -0.202871 0)
(3.00387 -0.0107674 0)
(2.93584 0.161187 0)
(2.86399 0.295816 0)
(2.81484 0.373038 0)
(2.80759 0.385818 0)
(2.81577 0.370125 0)
(2.87753 0.261383 0)
(2.96298 0.0844792 0)
(2.99661 0.0075609 0)
(2.99993 0.000148478 0)
(3 1.17974e-06 0)
(3 7.00355e-09 0)
(3 3.62737e-11 0)
(3 1.69201e-13 0)
(3 4.48507e-15 0)
(2.3578 -1.2817 0)
(2.49622 -1.31801 0)
(2.75009 -1.49102 0)
(2.96663 -1.68035 0)
(3.0697 -1.75023 0)
(3.08777 -1.64908 0)
(3.09433 -1.5426 0)
(3.12149 -1.4217 0)
(3.14669 -1.25723 0)
(3.17322 -1.09459 0)
(3.2118 -0.824311 0)
(3.14576 -0.588756 0)
(3.11374 -0.518844 0)
(3.09176 -0.313845 0)
(3.03153 -0.0926447 0)
(2.9654 0.0826325 0)
(2.9005 0.21818 0)
(2.8441 0.321749 0)
(2.80791 0.383389 0)
(2.80522 0.384392 0)
(2.8244 0.349426 0)
(2.9028 0.222211 0)
(2.9742 0.0643299 0)
(2.99832 0.00407531 0)
(2.99997 6.10017e-05 0)
(3 4.50555e-07 0)
(3 2.62736e-09 0)
(3 1.35756e-11 0)
(3 6.63374e-14 0)
(3 4.15422e-15 0)
(2.34028 -1.27572 0)
(2.48143 -1.31155 0)
(2.73947 -1.48019 0)
(2.96552 -1.68408 0)
(3.05997 -1.7585 0)
(3.09127 -1.6573 0)
(3.09762 -1.56129 0)
(3.14414 -1.41798 0)
(3.19377 -1.19561 0)
(3.22049 -0.992577 0)
(3.16787 -0.693557 0)
(3.14343 -0.627806 0)
(3.12093 -0.46104 0)
(3.04819 -0.193653 0)
(3.00385 -0.0431271 0)
(2.95365 0.0863307 0)
(2.89262 0.212873 0)
(2.83493 0.331063 0)
(2.80516 0.391616 0)
(2.80441 0.386955 0)
(2.83749 0.339541 0)
(2.91051 0.220498 0)
(2.98193 0.0474623 0)
(2.99915 0.00211348 0)
(2.99999 2.59527e-05 0)
(3 1.75526e-07 0)
(3 9.9118e-10 0)
(3 5.03951e-12 0)
(3 2.73162e-14 0)
(3 4.03104e-15 0)
(2.32957 -1.27323 0)
(2.47089 -1.31739 0)
(2.73076 -1.47565 0)
(2.95013 -1.69345 0)
(3.0612 -1.74066 0)
(3.09741 -1.65317 0)
(3.1317 -1.52284 0)
(3.19376 -1.3248 0)
(3.19473 -1.08621 0)
(3.17837 -0.836626 0)
(3.16054 -0.737578 0)
(3.13474 -0.62962 0)
(3.08407 -0.332298 0)
(3.03879 -0.176507 0)
(2.99277 -0.0579641 0)
(2.94212 0.0830553 0)
(2.88326 0.228951 0)
(2.82477 0.356592 0)
(2.80289 0.398392 0)
(2.80506 0.396324 0)
(2.84362 0.353535 0)
(2.92691 0.181631 0)
(2.98931 0.0271223 0)
(2.9996 0.00096824 0)
(3 1.01655e-05 0)
(3 6.62676e-08 0)
(3 3.67981e-10 0)
(3 1.8453e-12 0)
(3 1.29261e-14 0)
(3 4.03692e-15 0)
(2.32619 -1.27167 0)
(2.46555 -1.32919 0)
(2.72499 -1.48779 0)
(2.94266 -1.70003 0)
(3.0747 -1.70329 0)
(3.10821 -1.63154 0)
(3.14311 -1.4601 0)
(3.14234 -1.17007 0)
(3.16434 -1.07406 0)
(3.16916 -0.85927 0)
(3.14849 -0.772065 0)
(3.13944 -0.529213 0)
(3.07744 -0.308073 0)
(3.03031 -0.195217 0)
(2.98538 -0.0301755 0)
(2.9332 0.142315 0)
(2.86494 0.292206 0)
(2.81391 0.378264 0)
(2.80189 0.399859 0)
(2.81095 0.399778 0)
(2.85216 0.335663 0)
(2.94757 0.126593 0)
(2.99351 0.0157828 0)
(2.99982 0.000413343 0)
(3 3.82245e-06 0)
(3 2.42943e-08 0)
(3 1.33497e-10 0)
(3 6.61506e-13 0)
(3 7.49857e-15 0)
(3 4.09048e-15 0)
(2.3239 -1.26911 0)
(2.46259 -1.33251 0)
(2.71557 -1.50948 0)
(2.94835 -1.70099 0)
(3.07739 -1.69446 0)
(3.09506 -1.59263 0)
(3.10699 -1.37059 0)
(3.1354 -1.1996 0)
(3.14809 -1.09877 0)
(3.16327 -0.90558 0)
(3.17291 -0.724949 0)
(3.10636 -0.406177 0)
(3.07271 -0.332011 0)
(3.03102 -0.146553 0)
(2.96682 0.0702966 0)
(2.89977 0.229015 0)
(2.84167 0.336152 0)
(2.80551 0.387386 0)
(2.80326 0.395059 0)
(2.81151 0.384114 0)
(2.87946 0.261562 0)
(2.95845 0.0964109 0)
(2.99638 0.00849644 0)
(2.99993 0.000167843 0)
(3 1.40348e-06 0)
(3 8.70225e-09 0)
(3 4.73668e-11 0)
(3 2.33652e-13 0)
(3 5.54737e-15 0)
(3 3.97017e-15 0)
(2.32163 -1.26705 0)
(2.46123 -1.32908 0)
(2.69869 -1.52273 0)
(2.95437 -1.69538 0)
(3.0711 -1.67992 0)
(3.07254 -1.56141 0)
(3.10218 -1.3975 0)
(3.13286 -1.25357 0)
(3.16707 -1.08522 0)
(3.18595 -0.889899 0)
(3.16487 -0.544084 0)
(3.11287 -0.414144 0)
(3.07327 -0.272041 0)
(3.00029 -0.0216612 0)
(2.9365 0.14217 0)
(2.88011 0.258967 0)
(2.82769 0.353404 0)
(2.80034 0.393098 0)
(2.80166 0.388917 0)
(2.82433 0.347054 0)
(2.9027 0.219432 0)
(2.97439 0.0626462 0)
(2.99841 0.0037554 0)
(2.99997 6.15119e-05 0)
(3 4.83985e-07 0)
(3 2.97861e-09 0)
(3 1.6194e-11 0)
(3 8.09921e-14 0)
(3 4.66359e-15 0)
(3 3.8245e-15 0)
(2.3203 -1.2666 0)
(2.4593 -1.32533 0)
(2.68252 -1.53968 0)
(2.96466 -1.67595 0)
(3.0574 -1.69586 0)
(3.06304 -1.57357 0)
(3.1032 -1.42089 0)
(3.1462 -1.26038 0)
(3.20791 -0.98989 0)
(3.2148 -0.72258 0)
(3.13511 -0.467869 0)
(3.09901 -0.413008 0)
(3.03214 -0.132099 0)
(2.97623 0.0320566 0)
(2.92573 0.147402 0)
(2.86559 0.273757 0)
(2.81493 0.37423 0)
(2.79882 0.398397 0)
(2.80031 0.388214 0)
(2.84277 0.32799 0)
(2.91544 0.207577 0)
(2.98602 0.0363738 0)
(2.99932 0.00171538 0)
(2.99999 2.22515e-05 0)
(3 1.6296e-07 0)
(3 9.87129e-10 0)
(3 5.34065e-12 0)
(3 2.71838e-14 0)
(3 3.48606e-15 0)
(3 3.22437e-15 0)
(2.31732 -1.2692 0)
(2.45844 -1.32676 0)
(2.669 -1.56398 0)
(2.96691 -1.6649 0)
(3.04793 -1.71439 0)
(3.0818 -1.56125 0)
(3.1471 -1.38714 0)
(3.22522 -1.16801 0)
(3.20424 -0.858211 0)
(3.14987 -0.58844 0)
(3.1268 -0.523532 0)
(3.08585 -0.305669 0)
(3.01037 -0.0809967 0)
(2.96695 0.0251713 0)
(2.91048 0.176911 0)
(2.8475 0.315018 0)
(2.80661 0.391147 0)
(2.79685 0.406245 0)
(2.80113 0.390512 0)
(2.84768 0.340243 0)
(2.93887 0.154328 0)
(2.99139 0.0232459 0)
(2.9997 0.000762768 0)
(3 8.0321e-06 0)
(3 5.5119e-08 0)
(3 3.24594e-10 0)
(3 1.72543e-12 0)
(3 8.2497e-15 0)
(3 2.88248e-15 0)
(3 2.63982e-15 0)
(2.31134 -1.26806 0)
(2.44243 -1.33345 0)
(2.66578 -1.56874 0)
(2.96852 -1.69221 0)
(3.05462 -1.71466 0)
(3.12863 -1.49564 0)
(3.19012 -1.26897 0)
(3.19302 -0.973507 0)
(3.17377 -0.81152 0)
(3.14625 -0.644804 0)
(3.11549 -0.514082 0)
(3.04552 -0.193054 0)
(3.00841 -0.0995462 0)
(2.95408 0.0750817 0)
(2.88652 0.248096 0)
(2.8307 0.351817 0)