/*--------------------------------*- C++ -*----------------------------------*\
  =========                 |
  \\      /  F ield         | OpenFOAM: The Open Source CFD Toolbox
   \\    /   O peration     | Website:  https://openfoam.org
    \\  /    A nd           | Version:  7
     \\/     M anipulation  |
\*---------------------------------------------------------------------------*/
FoamFile
{
    version     2.0;
    format      ascii;
    class       volScalarField;
    location    "1.5";
    object      rho;
}
// * * * * * * * * * * * * * * * * * * * * * * * * * * * * * * * * * * * * * //

dimensions      [1 -3 0 0 0 0 0];

internalField   nonuniform List<scalar> 
8400
(
0.196882
0.264935
0.346671
0.433368
0.524826
0.613138
0.697981
0.754072
0.786238
0.822794
0.831402
0.836814
0.908057
0.999441
1.04334
1.09206
1.20937
1.33723
1.36672
1.30832
1.18647
1.15067
1.15218
1.19612
1.21824
1.21744
1.19957
1.16061
1.11991
1.11901
0.138016
0.139684
0.146679
0.165574
0.204821
0.268676
0.353976
0.466986
0.566475
0.68204
0.804172
0.831281
0.891787
0.941801
1.01229
1.11349
1.26445
1.37749
1.37533
1.27832
1.12502
1.08387
1.0826
1.12484
1.14966
1.13843
1.1103
1.07935
1.06444
1.08286
0.14213
0.144379
0.147781
0.152542
0.156122
0.157173
0.155863
0.161199
0.185586
0.240432
0.366055
0.50993
0.609252
0.664972
0.738301
0.895299
1.0427
1.17727
1.27768
1.24435
1.11656
1.05933
1.05301
1.0919
1.14911
1.13701
1.09198
1.06455
1.05789
1.07238
0.143171
0.145395
0.148634
0.150924
0.152164
0.152611
0.151646
0.148593
0.145247
0.144061
0.144198
0.163241
0.20998
0.239843
0.256744
0.311219
0.420005
0.547027
0.751356
1.06868
1.10971
1.06301
1.082
1.15639
1.16756
1.13509
1.06983
1.03849
1.02999
1.06253
0.146327
0.148325
0.149907
0.149662
0.149082
0.149679
0.150081
0.150681
0.151912
0.15247
0.152243
0.152477
0.155127
0.16284
0.183715
0.220511
0.274692
0.319197
0.340864
0.461983
0.810581
1.01109
1.1228
1.21553
1.22269
1.18687
1.11991
1.0799
1.07101
1.09887
0.14722
0.146669
0.147217
0.147318
0.147586
0.148985
0.153341
0.160615
0.168341
0.173467
0.172996
0.172794
0.175968
0.184318
0.197651
0.227339
0.274588
0.335514
0.361857
0.375421
0.425602
0.653239
0.927729
1.12836
1.18471
1.17777
1.1372
1.10794
1.10726
1.13633
0.15647
0.159013
0.161993
0.1654
0.170632
0.178195
0.185507
0.19397
0.199057
0.199193
0.198827
0.200494
0.21094
0.229289
0.2519
0.280466
0.323392
0.375248
0.414195
0.434285
0.445133
0.459722
0.515901
0.645318
0.811922
0.956742
1.03336
1.0637
1.08395
1.12359
0.202744
0.206138
0.209153
0.211967
0.214606
0.216753
0.218718
0.223826
0.231027
0.234395
0.238156
0.247268
0.262428
0.275599
0.289622
0.314363
0.355009
0.405698
0.451113
0.480502
0.497947
0.513303
0.537625
0.546701
0.551951
0.580529
0.642257
0.735835
0.836603
0.971142
0.243279
0.246035
0.248528
0.249143
0.249786
0.251757
0.256516
0.265249
0.276353
0.283775
0.288051
0.291886
0.295048
0.301003
0.313118
0.335758
0.366043
0.409122
0.457564
0.488966
0.508772
0.528381
0.556549
0.5817
0.590638
0.595244
0.588556
0.580671
0.595409
0.688384
0.301169
0.304574
0.307798
0.31017
0.312721
0.31634
0.319811
0.326022
0.333272
0.335543
0.333666
0.332666
0.339714
0.358505
0.378243
0.396506
0.417362
0.443624
0.477545
0.510447
0.534137
0.554463
0.577281
0.607405
0.62653
0.63255
0.629335
0.617741
0.621368
0.672173
0.370423
0.374314
0.377521
0.378716
0.379666
0.380862
0.381866
0.385661
0.396321
0.400829
0.402085
0.408126
0.417662
0.424503
0.433257
0.451083
0.482729
0.525829
0.57013
0.605017
0.628896
0.648246
0.67207
0.697425
0.706371
0.708304
0.702606
0.691613
0.693031
0.72367
0.456383
0.461046
0.465939
0.466933
0.463609
0.460579
0.461741
0.465139
0.472258
0.480554
0.482789
0.481903
0.477563
0.478438
0.489112
0.510881
0.536808
0.567803
0.603987
0.636089
0.659472
0.680028
0.706331
0.734869
0.746052
0.749824
0.746004
0.738049
0.743725
0.783913
0.556794
0.561687
0.56764
0.571343
0.570993
0.564668
0.55688
0.554029
0.556442
0.565844
0.569894
0.569955
0.570707
0.571999
0.578276
0.589991
0.599644
0.615208
0.643543
0.677143
0.705348
0.729657
0.75768
0.791181
0.807377
0.812722
0.811015
0.808047
0.816126
0.86339
0.673465
0.676495
0.681833
0.685387
0.68692
0.686103
0.676658
0.663791
0.658621
0.661399
0.665494
0.665636
0.664941
0.6641
0.665509
0.673886
0.690154
0.712735
0.742446
0.774989
0.803792
0.829963
0.859778
0.885585
0.89421
0.896814
0.892038
0.892014
0.901238
0.94963
0.812317
0.812169
0.80973
0.808231
0.80992
0.811126
0.808594
0.796823
0.781483
0.776917
0.776551
0.77515
0.774189
0.775961
0.777189
0.779771
0.787068
0.799851
0.818765
0.842725
0.868429
0.89718
0.932227
0.955821
0.963526
0.966215
0.962489
0.966872
0.981242
1.03968
0.994373
0.983706
0.96119
0.953139
0.955467
0.956347
0.952719
0.944389
0.932569
0.91926
0.915144
0.915045
0.912696
0.91269
0.913231
0.913194
0.916863
0.927812
0.944291
0.963755
0.987156
1.01711
1.04452
1.05513
1.05983
1.05887
1.05632
1.06498
1.0816
1.14448
1.20752
1.19932
1.19161
1.18058
1.15729
1.13731
1.137
1.13734
1.13213
1.1145
1.10514
1.10471
1.10013
1.0957
1.09538
1.09298
1.09328
1.09803
1.10135
1.10664
1.11892
1.13999
1.15356
1.15925
1.16049
1.15199
1.15188
1.16355
1.18427
1.25008
1.48996
1.48013
1.46842
1.45434
1.43963
1.42588
1.40717
1.39264
1.38291
1.37061
1.3582
1.35002
1.34145
1.33166
1.32454
1.31726
1.30997
1.30393
1.29668
1.28829
1.28114
1.27762
1.27545
1.27123
1.2587
1.24687
1.25089
1.26452
1.28721
1.3394
1.69559
1.68456
1.67609
1.66688
1.65152
1.635
1.62187
1.60715
1.58946
1.57756
1.56602
1.55099
1.53688
1.52337
1.50934
1.49635
1.48415
1.47261
1.4607
1.44714
1.42881
1.40614
1.38341
1.36135
1.33999
1.33239
1.33629
1.34709
1.36345
1.38705
1.72066
1.70844
1.69402
1.68695
1.68033
1.67029
1.65716
1.64435
1.63057
1.61711
1.60555
1.59199
1.57588
1.56078
1.5455
1.52896
1.51306
1.4975
1.481
1.46278
1.44827
1.43493
1.41977
1.40189
1.38732
1.38397
1.38547
1.38949
1.39466
1.39893
1.65632
1.65247
1.64677
1.63988
1.63277
1.62606
1.6183
1.6088
1.59915
1.58876
1.57762
1.5661
1.55279
1.53822
1.52416
1.5101
1.49514
1.47973
1.46469
1.44983
1.435
1.42169
1.41066
1.40323
1.39932
1.39859
1.39876
1.39924
1.39974
1.39998
1.49491
1.49559
1.4953
1.49394
1.49294
1.49242
1.49149
1.4896
1.48679
1.48326
1.47906
1.47419
1.46848
1.462
1.45506
1.4477
1.4399
1.43193
1.4242
1.41718
1.41086
1.40575
1.40233
1.40058
1.40003
1.39997
1.39997
1.39999
1.4
1.4
1.40914
1.40953
1.40981
1.41
1.4102
1.41044
1.41063
1.41074
1.41068
1.41049
1.41016
1.40969
1.40906
1.40826
1.4073
1.40619
1.405
1.40379
1.40266
1.40169
1.40093
1.40041
1.40013
1.40003
1.40001
1.4
1.4
1.4
1.40001
1.40001
1.40018
1.40019
1.40021
1.40022
1.40023
1.40025
1.40026
1.40027
1.40027
1.40028
1.40028
1.40027
1.40026
1.40024
1.40021
1.40018
1.40014
1.40011
1.40007
1.40004
1.40002
1.40001
1.40001
1.40001
1.40001
1.40001
1.40001
1.40001
1.40001
1.40001
1.40001
1.40001
1.40001
1.40001
1.40001
1.40001
1.40001
1.40001
1.40001
1.40001
1.40001
1.40001
1.40001
1.40001
1.40001
1.40001
1.40001
1.40001
1.40001
1.40001
1.40001
1.40001
1.40001
1.40001
1.40001
1.40001
1.40001
1.40001
1.40001
1.40001
1.40001
1.40001
1.40001
1.40001
1.40001
1.40001
1.40001
1.40001
1.40001
1.40001
1.40001
1.40001
1.40001
1.40001
1.40001
1.40001
1.40001
1.40001
1.40001
1.40001
1.40001
1.40001
1.40001
1.40001
1.40001
1.40001
1.40001
1.40001
1.40001
1.40001
1.40001
1.40001
1.40001
1.40001
1.40001
1.40001
1.40001
1.40001
1.40001
1.40001
1.40001
1.40001
1.40001
1.40001
1.40001
1.40001
1.40001
1.40001
1.40001
1.40001
1.40001
1.40001
1.40001
1.40001
1.40001
1.40001
1.40001
1.40001
1.40001
1.40001
1.40001
1.40001
1.40001
1.40001
1.40001
1.40001
1.40001
1.40001
1.40001
1.40001
1.40001
1.40001
1.40001
1.40001
1.40001
1.40001
1.40001
1.40001
1.40001
1.40001
1.40001
1.40001
1.40001
1.40001
1.40001
1.40001
1.40001
1.40001
1.40001
1.40001
1.40001
1.40001
1.40001
1.40001
1.40001
1.40001
1.40001
1.40001
1.40001
1.40001
1.40001
1.40001
1.40001
1.40001
1.40001
1.40001
1.40001
1.40001
1.40001
1.40001
1.40001
1.40001
1.40001
1.40001
1.40001
1.40001
1.40001
1.40001
1.40001
1.40001
1.40001
1.40001
1.40001
1.40001
1.40001
1.40001
1.40001
1.40001
1.40001
1.40001
1.40001
1.40001
1.40001
1.40001
1.40001
1.40001
1.40001
1.40001
1.40001
1.40001
1.40001
1.40001
1.40001
1.40001
1.40001
1.40001
1.40001
1.40001
1.40001
1.40001
0.144277
0.136787
0.140039
0.141339
0.144921
0.149351
0.154596
0.198694
0.240762
0.298509
0.367547
0.452738
0.553103
0.672832
0.823434
1.00347
1.22208
1.51312
1.71422
1.73368
1.65925
1.49113
1.40846
1.40017
1.40001
1.40001
1.40001
1.40001
1.40001
1.40001
0.143637
0.136006
0.138355
0.1403
0.144377
0.151779
0.159443
0.203898
0.248394
0.30886
0.381353
0.4691
0.578422
0.717706
0.874745
1.04591
1.28059
1.58144
1.74649
1.74973
1.65252
1.47479
1.40534
1.40009
1.40001
1.40001
1.40001
1.40001
1.40001
1.40001
0.143855
0.136045
0.137356
0.138584
0.144114
0.1531
0.161407
0.205056
0.25274
0.31555
0.393764
0.490334
0.613773
0.754169
0.902596
1.08064
1.3372
1.63566
1.77034
1.76227
1.64338
1.46288
1.40376
1.40005
1.40001
1.40001
1.40001
1.40001
1.40001
1.40001
0.143564
0.136137
0.137296
0.13744
0.143354
0.154141
0.163956
0.207152
0.262086
0.330952
0.416441
0.521623
0.643312
0.77707
0.930778
1.13159
1.39622
1.68603
1.79121
1.77206
1.62895
1.45056
1.40246
1.40003
1.40001
1.40001
1.40001
1.40001
1.40001
1.40001
0.141735
0.13338
0.137355
0.1366
0.142301
0.156203
0.170176
0.219838
0.276855
0.34604
0.431386
0.535973
0.659746
0.801359
0.972044
1.1832
1.45195
1.73082
1.81021
1.77993
1.61224
1.43946
1.40157
1.40002
1.40001
1.40001
1.40001
1.40001
1.40001
1.40001
0.137002
0.129312
0.13771
0.1363
0.139804
0.159076
0.178546
0.229496
0.284993
0.353255
0.441118
0.549682
0.68052
0.839098
1.02181
1.23094
1.51475
1.7742
1.82778
1.78333
1.5917
1.4297
1.40096
1.40001
1.40001
1.40001
1.40001
1.40001
1.40001
1.40001
0.132355
0.128318
0.137832
0.135817
0.13594
0.160806
0.182669
0.231772
0.288695
0.360993
0.454106
0.57083
0.717488
0.887221
1.06624
1.2878
1.58555
1.81422
1.84231
1.77678
1.56678
1.42143
1.40057
1.40001
1.40001
1.40001
1.40001
1.40001
1.40001
1.40001
0.129409
0.128912
0.137083
0.13231
0.130592
0.161078
0.185808
0.233011
0.29284
0.37485
0.481151
0.612655
0.765597
0.929299
1.11719
1.36023
1.65293
1.84455
1.85362
1.76502
1.5412
1.4149
1.40033
1.40001
1.40001
1.40001
1.40001
1.40001
1.40001
1.40001
0.128455
0.13001
0.136174
0.129693
0.127718
0.159925
0.192076
0.237855
0.312452
0.407572
0.51822
0.649193
0.797953
0.970948
1.17905
1.42906
1.7162
1.86593
1.86214
1.74522
1.51493
1.40986
1.40018
1.40001
1.40001
1.40001
1.40001
1.40001
1.40001
1.40001
0.128429
0.13127
0.135507
0.129671
0.127641
0.160606
0.204668
0.261442
0.339176
0.427967
0.537091
0.671272
0.832332
1.02195
1.2371
1.4985
1.77726
1.88099
1.86573
1.71921
1.49058
1.40628
1.4001
1.40001
1.40001
1.40001
1.40001
1.40001
1.40001
1.40001
0.128766
0.132566
0.135372
0.133197
0.136363
0.168271
0.216738
0.273624
0.348288
0.437025
0.552459
0.699118
0.876224
1.07563
1.29993
1.57614
1.83062
1.89482
1.8664
1.68958
1.46878
1.4038
1.40005
1.40001
1.40001
1.40001
1.40001
1.40001
1.40001
1.40001
0.131357
0.135318
0.135977
0.136147
0.14878
0.174257
0.220446
0.27658
0.351698
0.447666
0.577043
0.742934
0.930494
1.13462
1.37438
1.65358
1.87418
1.90992
1.85835
1.65489
1.44957
1.40218
1.40003
1.40001
1.40001
1.40001
1.40001
1.40001
1.40001
1.40001
0.135449
0.137176
0.137646
0.136236
0.152237
0.176617
0.219724
0.278051
0.356923
0.479481
0.634457
0.801823
0.989023
1.20552
1.45181
1.73145
1.90973
1.92192
1.84698
1.61711
1.43431
1.40119
1.40002
1.40001
1.40001
1.40001
1.40001
1.40001
1.40001
1.40001
0.136837
0.137502
0.13797
0.134076
0.151673
0.178864
0.221113
0.290297
0.404268
0.539894
0.683084
0.847581
1.04828
1.27626
1.53528
1.80636
1.93298
1.92932
1.82789
1.57636
1.42195
1.40061
1.40001
1.40001
1.40001
1.40001
1.40001
1.40001
1.40001
1.40001
0.136898
0.136524
0.134777
0.127898
0.147803
0.184824
0.252032
0.340072
0.44853
0.569376
0.712871
0.894858
1.10972
1.34765
1.61956
1.86538
1.94741
1.93032
1.78939
1.53676
1.41359
1.4003
1.40001
1.40001
1.40001
1.40001
1.40001
1.40001
1.40001
1.40001
0.134572
0.132944
0.130817
0.124488
0.148713
0.203256
0.281164
0.362199
0.463578
0.586368
0.74807
0.952881
1.17496
1.4262
1.69988
1.91174
1.95577
1.92225
1.75198
1.50426
1.4081
1.40015
1.40001
1.40001
1.40001
1.40001
1.40001
1.40001
1.40001
1.40001
0.128526
0.127784
0.129416
0.124946
0.162853
0.22099
0.288548
0.365721
0.470997
0.612669
0.808751
1.01962
1.25273
1.51658
1.78388
1.94644
1.961
1.91276
1.70966
1.47301
1.40433
1.40007
1.40001
1.40001
1.40001
1.40001
1.40001
1.40001
1.40001
1.40001
0.124344
0.122712
0.129858
0.133729
0.171436
0.225218
0.288126
0.364933
0.494136
0.683971
0.884206
1.09722
1.35144
1.61663
1.86134
1.96693
1.96545
1.89021
1.65415
1.44854
1.40226
1.40003
1.40001
1.40001
1.40001
1.40001
1.40001
1.40001
1.40001
1.40001
0.122002
0.118578
0.132342
0.140712
0.171836
0.225623
0.288601
0.400329
0.578433
0.759399
0.948276
1.1856
1.44523
1.7096
1.91915
1.98001
1.96905
1.85546
1.60675
1.43146
1.40112
1.40002
1.40001
1.40001
1.40001
1.40001
1.40001
1.40001
1.40001
1.40001
0.121087
0.11568
0.133313
0.143241
0.167847
0.233441
0.333704
0.480065
0.63723
0.804848
1.01861
1.27463
1.53497
1.79415
1.96116
1.98877
1.96316
1.82237
1.5598
1.41827
1.4005
1.40001
1.40001
1.40001
1.40001
1.40001
1.40001
1.40001
1.40001
1.40001
0.121024
0.113259
0.129115
0.145986
0.18387
0.275389
0.394203
0.518893
0.66735
0.85785
1.10884
1.36844
1.63746
1.87312
1.98537
1.99308
1.95495
1.77172
1.51214
1.40981
1.40021
1.40001
1.40001
1.40001
1.40001
1.40001
1.40001
1.40001
1.40001
1.40001
0.121722
0.110383
0.11983
0.150028
0.224293
0.315142
0.415252
0.536097
0.707784
0.951437
1.21045
1.47859
1.74634
1.93773
1.99642
1.99456
1.92741
1.70857
1.47678
1.40511
1.40009
1.40001
1.40001
1.40001
1.40001
1.40001
1.40001
1.40001
1.40001
1.40001
0.125221
0.108179
0.115094
0.16088
0.243798
0.324777
0.42355
0.566464
0.808861
1.06462
1.31951
1.60128
1.84292
1.98122
2.0043
1.98836
1.89079
1.65553
1.4498
1.40246
1.40004
1.40001
1.40001
1.40001
1.40001
1.40001
1.40001
1.40001
1.40001
1.40001
0.130091
0.106573
0.115398
0.170016
0.243707
0.325085
0.449166
0.675477
0.926964
1.16233
1.43544
1.70961
1.91901
2.00541
2.01143
1.98213
1.85706
1.59778
1.42873
1.40105
1.40002
1.40001
1.40001
1.40001
1.40001
1.40001
1.40001
1.40001
1.40001
1.40001
0.130825
0.103624
0.12065
0.171171
0.233505
0.345682
0.557111
0.783936
1.0072
1.26327
1.5551
1.81076
1.97273
2.01473
2.01504
1.9776
1.80208
1.53767
1.41496
1.40041
1.40001
1.40001
1.40001
1.40001
1.40001
1.40001
1.40001
1.40001
1.40001
1.40001
0.127582
0.099542
0.123465
0.175441
0.256286
0.447824
0.647193
0.849883
1.09477
1.39694
1.68058
1.90385
2.00516
2.01709
2.0123
1.94569
1.73001
1.49046
1.40717
1.40015
1.40001
1.40001
1.40001
1.40001
1.40001
1.40001
1.40001
1.40001
1.40001
1.40001
0.123855
0.0976583
0.121781
0.20163
0.345525
0.526791
0.701915
0.926758
1.24122
1.5451
1.80476
1.97084
2.02167
2.01899
1.99744
1.89517
1.66425
1.45578
1.4032
1.40006
1.40001
1.40001
1.40001
1.40001
1.40001
1.40001
1.40001
1.40001
1.40001
1.40001
0.116758
0.0969535
0.120941
0.241048
0.407761
0.569157
0.770394
1.08147
1.41058
1.68631
1.90386
2.00984
2.02893
2.02468
1.98674
1.85722
1.6045
1.43225
1.40133
1.40002
1.40001
1.40001
1.40001
1.40001
1.40001
1.40001
1.40001
1.40001
1.40001
1.40001
0.105679
0.105373
0.146732
0.281385
0.442836
0.623193
0.927063
1.26295
1.56192
1.81106
1.97169
2.02789
2.03247
2.02881
1.98437
1.80773
1.53796
1.415
1.40044
1.40001
1.40001
1.40001
1.40001
1.40001
1.40001
1.40001
1.40001
1.40001
1.40001
1.40001
0.0877251
0.113495
0.19196
0.315887
0.486061
0.778568
1.10905
1.41611
1.7065
1.91172
2.01238
2.03344
2.03333
2.02519
1.9495
1.71569
1.47897
1.40583
1.40013
1.40001
1.40001
1.40001
1.40001
1.40001
1.40001
1.40001
1.40001
1.40001
1.40001
1.40001
0.0693303
0.116791
0.219649
0.373134
0.617704
0.953846
1.26357
1.57502
1.84741
1.98114
2.03201
2.03628
2.03168
2.00305
1.87693
1.63391
1.44572
1.40248
1.40004
1.40001
1.40001
1.40001
1.40001
1.40001
1.40001
1.40001
1.40001
1.40001
1.40001
1.40001
0.0557417
0.115549
0.24201
0.474239
0.798413
1.11372
1.43836
1.75162
1.9558
2.0178
2.04022
2.04296
2.02895
1.9796
1.82683
1.57206
1.42332
1.40084
1.40002
1.40001
1.40001
1.40001
1.40001
1.40001
1.40001
1.40001
1.40001
1.40001
1.40001
1.40001
0.046245
0.138535
0.312262
0.611698
0.957159
1.30465
1.65054
1.897
2.02037
2.03172
2.04462
2.04717
2.03182
1.96277
1.75892
1.50036
1.40869
1.40023
1.40001
1.40001
1.40001
1.40001
1.40001
1.40001
1.40001
1.40001
1.40001
1.40001
1.40001
1.40001
0.0375604
0.179748
0.443368
0.783665
1.15657
1.5468
1.83028
1.9913
2.04837
2.03594
2.04667
2.04792
2.03388
1.92207
1.64777
1.44599
1.40253
1.40005
1.40001
1.40001
1.40001
1.40001
1.40001
1.40001
1.40001
1.40001
1.40001
1.40001
1.40001
1.40001
0.0268726
0.229656
0.598514
1.02331
1.43968
1.76063
1.95526
2.04083
2.05667
2.03712
2.04703
2.04117
1.99674
1.81892
1.55644
1.42065
1.40076
1.40001
1.40001
1.40001
1.40001
1.40001
1.40001
1.40001
1.40001
1.40001
1.40001
1.40001
1.40001
1.40001
0.0486823
0.371291
0.838016
1.30328
1.69078
1.92137
2.0294
2.05916
2.0602
2.03794
2.0471
2.02933
1.94813
1.73514
1.49329
1.40771
1.40019
1.40001
1.40001
1.40001
1.40001
1.40001
1.40001
1.40001
1.40001
1.40001
1.40001
1.40001
1.40001
1.40001
0.193862
0.622587
1.14646
1.60225
1.88781
2.01844
2.05935
2.06483
2.0625
2.03827
2.05253
2.02031
1.90555
1.64175
1.44015
1.4019
1.40004
1.40001
1.40001
1.40001
1.40001
1.40001
1.40001
1.40001
1.40001
1.40001
1.40001
1.40001
1.40001
1.40001
0.387856
0.904803
1.49556
1.86444
2.01706
2.05868
2.06759
2.06812
2.06348
2.03825
2.05908
2.0155
1.82398
1.5257
1.41176
1.40034
1.40001
1.40001
1.40001
1.40001
1.40001
1.40001
1.40001
1.40001
1.40001
1.40001
1.40001
1.40001
1.40001
1.40001
0.751456
1.35601
1.82701
2.01744
2.06358
2.06954
2.07159
2.0702
2.06369
2.03967
2.05843
1.97015
1.67839
1.45009
1.40256
1.40005
1.40001
1.40001
1.40001
1.40001
1.40001
1.40001
1.40001
1.40001
1.40001
1.40001
1.40001
1.40001
1.40001
1.40001
1.36474
1.81442
2.02555
2.07126
2.07328
2.07321
2.07328
2.07282
2.06745
2.04731
2.0395
1.85602
1.55122
1.41441
1.40029
1.40001
1.40001
1.40001
1.40001
1.40001
1.40001
1.40001
1.40001
1.40001
1.40001
1.40001
1.40001
1.40001
1.40001
1.40001
2.08761
2.08597
2.08566
2.08154
2.07635
2.07457
2.07377
2.08525
2.07968
2.05488
2.00272
1.73277
1.45081
1.39949
1.39994
1.4
1.40001
1.40001
1.40001
1.40001
1.40001
1.40001
1.40001
1.40001
1.40001
1.40001
1.40001
1.40001
1.40001
1.40001
2.09323
2.09092
2.09164
2.0883
2.07995
2.07537
2.08216
2.09848
2.09704
2.0634
2.0008
1.71769
1.45265
1.40188
1.40002
1.40001
1.40001
1.40001
1.40001
1.40001
1.40001
1.40001
1.40001
1.40001
1.40001
1.40001
1.40001
1.40001
1.40001
1.40001
2.10042
2.09866
2.10103
2.09795
2.08946
2.08201
2.09228
2.11218
2.11058
2.06669
1.95025
1.61427
1.41951
1.40031
1.40001
1.40001
1.40001
1.40001
1.40001
1.40001
1.40001
1.40001
1.40001
1.40001
1.40001
1.40001
1.40001
1.40001
1.40001
1.40001
2.10908
2.10853
2.11158
2.10949
2.10289
2.09832
2.10568
2.12454
2.12274
2.06786
1.90066
1.55119
1.40941
1.40012
1.40001
1.40001
1.40001
1.40001
1.40001
1.40001
1.40001
1.40001
1.40001
1.40001
1.40001
1.40001
1.40001
1.40001
1.40001
1.40001
2.12002
2.11879
2.12226
2.12278
2.11951
2.11313
2.11539
2.13047
2.13112
2.06346
1.827
1.4876
1.40353
1.40004
1.40001
1.40001
1.40001
1.40001
1.40001
1.40001
1.40001
1.40001
1.40001
1.40001
1.40001
1.40001
1.40001
1.40001
1.40001
1.40001
2.13131
2.1288
2.13111
2.13323
2.13151
2.12581
2.12139
2.13291
2.13681
2.03295
1.73182
1.44862
1.40129
1.40001
1.40001
1.40001
1.40001
1.40001
1.40001
1.40001
1.40001
1.40001
1.40001
1.40001
1.40001
1.40001
1.40001
1.40001
1.40001
1.40001
2.14049
2.13692
2.13621
2.13864
2.13973
2.1381
2.12677
2.1349
2.13976
2.00269
1.6397
1.42254
1.40039
1.40001
1.40001
1.40001
1.40001
1.40001
1.40001
1.40001
1.40001
1.40001
1.40001
1.40001
1.40001
1.40001
1.40001
1.40001
1.40001
1.40001
2.14794
2.14283
2.139
2.14043
2.14486
2.14922
2.1329
2.13067
2.13266
1.93356
1.55427
1.40939
1.40011
1.40001
1.40001
1.40001
1.40001
1.40001
1.40001
1.40001
1.40001
1.40001
1.40001
1.40001
1.40001
1.40001
1.40001
1.40001
1.40001
1.40001
2.15258
2.14733
2.14183
2.14104
2.14784
2.15694
2.14473
2.12269
2.10729
1.83574
1.48974
1.40345
1.40003
1.40001
1.40001
1.40001
1.40001
1.40001
1.40001
1.40001
1.40001
1.40001
1.40001
1.40001
1.40001
1.40001
1.40001
1.40001
1.40001
1.40001
2.15506
2.15062
2.1442
2.14102
2.14844
2.16178
2.15834
2.12343
2.07336
1.72894
1.44588
1.40112
1.40001
1.40001
1.40001
1.40001
1.40001
1.40001
1.40001
1.40001
1.40001
1.40001
1.40001
1.40001
1.40001
1.40001
1.40001
1.40001
1.40001
1.40001
2.15562
2.15244
2.14625
2.14127
2.14639
2.16526
2.16783
2.12339
2.00168
1.62319
1.41925
1.40031
1.40001
1.40001
1.40001
1.40001
1.40001
1.40001
1.40001
1.40001
1.40001
1.40001
1.40001
1.40001
1.40001
1.40001
1.40001
1.40001
1.40001
1.40001
2.15353
2.1529
2.1479
2.14143
2.14218
2.16628
2.17114
2.11245
1.91118
1.54162
1.40774
1.40009
1.40001
1.40001
1.40001
1.40001
1.40001
1.40001
1.40001
1.40001
1.40001
1.40001
1.40001
1.40001
1.40001
1.40001
1.40001
1.40001
1.40001
1.40001
2.15121
2.1517
2.14876
2.14328
2.13614
2.15914
2.17308
2.1059
1.81403
1.47615
1.40254
1.40002
1.40001
1.40001
1.40001
1.40001
1.40001
1.40001
1.40001
1.40001
1.40001
1.40001
1.40001
1.40001
1.40001
1.40001
1.40001
1.40001
1.40001
1.40001
2.14936
2.14911
2.14988
2.14619
2.13354
2.15176
2.167
2.04543
1.70012
1.43509
1.40074
1.40001
1.40001
1.40001
1.40001
1.40001
1.40001
1.40001
1.40001
1.40001
1.40001
1.40001
1.40001
1.40001
1.40001
1.40001
1.40001
1.40001
1.40001
1.40001
2.14873
2.14661
2.15041
2.15081
2.13495
2.14966
2.15475
1.97381
1.60164
1.41485
1.4002
1.40001
1.40001
1.40001
1.40001
1.40001
1.40001
1.40001
1.40001
1.40001
1.40001
1.40001
1.40001
1.40001
1.40001
1.40001
1.40001
1.40001
1.40001
1.40001
2.14969
2.14469
2.14886
2.1581
2.14912
2.15319
2.14903
1.88948
1.51468
1.40516
1.40005
1.40001
1.40001
1.40001
1.40001
1.40001
1.40001
1.40001
1.40001
1.40001
1.40001
1.40001
1.40001
1.40001
1.40001
1.40001
1.40001
1.40001
1.40001
1.40001
2.15157
2.14394
2.14239
2.16333
2.16992
2.14948
2.10482
1.76134
1.45371
1.40147
1.40001
1.40001
1.40001
1.40001
1.40001
1.40001
1.40001
1.40001
1.40001
1.40001
1.40001
1.40001
1.40001
1.40001
1.40001
1.40001
1.40001
1.40001
1.40001
1.40001
2.15158
2.14137
2.13596
2.16747
2.18382
2.1419
2.02026
1.6528
1.42435
1.40041
1.40001
1.40001
1.40001
1.40001
1.40001
1.40001
1.40001
1.40001
1.40001
1.40001
1.40001
1.40001
1.40001
1.40001
1.40001
1.40001
1.40001
1.40001
1.40001
1.40001
2.14841
2.13958
2.13268
2.17242
2.18759
2.13582
1.94219
1.55524
1.40847
1.4001
1.40001
1.40001
1.40001
1.40001
1.40001
1.40001
1.40001
1.40001
1.40001
1.40001
1.40001
1.40001
1.40001
1.40001
1.40001
1.40001
1.40001
1.40001
1.40001
1.40001
2.14348
2.13916
2.13155
2.17459
2.18902
2.11772
1.82816
1.47557
1.40251
1.40002
1.40001
1.40001
1.40001
1.40001
1.40001
1.40001
1.40001
1.40001
1.40001
1.40001
1.40001
1.40001
1.40001
1.40001
1.40001
1.40001
1.40001
1.40001
1.40001
1.40001
2.13737
2.14303
2.14034
2.17786
2.18727
2.05276
1.70202
1.43456
1.40069
1.40001
1.40001
1.40001
1.40001
1.40001
1.40001
1.40001
1.40001
1.40001
1.40001
1.40001
1.40001
1.40001
1.40001
1.40001
1.40001
1.40001
1.40001
1.40001
1.40001
1.40001
2.13133
2.14729
2.15924
2.18173
2.18743
1.98586
1.58972
1.41251
1.40016
1.40001
1.40001
1.40001
1.40001
1.40001
1.40001
1.40001
1.40001
1.40001
1.40001
1.40001
1.40001
1.40001
1.40001
1.40001
1.40001
1.40001
1.40001
1.40001
1.40001
1.40001
2.12696
2.15673
2.18177
2.17978
2.16795
1.86717
1.49242
1.4035
1.40003
1.40001
1.40001
1.40001
1.40001
1.40001
1.40001
1.40001
1.40001
1.40001
1.40001
1.40001
1.40001
1.40001
1.40001
1.40001
1.40001
1.40001
1.40001
1.40001
1.40001
1.40001
2.12389
2.16807
2.2012
2.169
2.09546
1.72891
1.44217
1.40093
1.40001
1.40001
1.40001
1.40001
1.40001
1.40001
1.40001
1.40001
1.40001
1.40001
1.40001
1.40001
1.40001
1.40001
1.40001
1.40001
1.40001
1.40001
1.40001
1.40001
1.40001
1.40001
2.12168
2.17862
2.21423
2.16686
2.01069
1.611
1.41497
1.4002
1.40001
1.40001
1.40001
1.40001
1.40001
1.40001
1.40001
1.40001
1.40001
1.40001
1.40001
1.40001
1.40001
1.40001
1.40001
1.40001
1.40001
1.40001
1.40001
1.40001
1.40001
1.40001
2.1219
2.18666
2.2205
2.16005
1.89363
1.50334
1.40407
1.40004
1.40001
1.40001
1.40001
1.40001
1.40001
1.40001
1.40001
1.40001
1.40001
1.40001
1.40001
1.40001
1.40001
1.40001
1.40001
1.40001
1.40001
1.40001
1.40001
1.40001
1.40001
1.40001
2.13601
2.20313
2.22203
2.09527
1.74546
1.44465
1.40105
1.40001
1.40001
1.40001
1.40001
1.40001
1.40001
1.40001
1.40001
1.40001
1.40001
1.40001
1.40001
1.40001
1.40001
1.40001
1.40001
1.40001
1.40001
1.40001
1.40001
1.40001
1.40001
1.40001
2.17185
2.21685
2.21781
2.01548
1.6165
1.41573
1.40022
1.40001
1.40001
1.40001
1.40001
1.40001
1.40001
1.40001
1.40001
1.40001
1.40001
1.40001
1.40001
1.40001
1.40001
1.40001
1.40001
1.40001
1.40001
1.40001
1.40001
1.40001
1.40001
1.40001
2.2084
2.22088
2.20808
1.89569
1.50175
1.40413
1.40004
1.40001
1.40001
1.40001
1.40001
1.40001
1.40001
1.40001
1.40001
1.40001
1.40001
1.40001
1.40001
1.40001
1.40001
1.40001
1.40001
1.40001
1.40001
1.40001
1.40001
1.40001
1.40001
1.40001
2.26753
2.20345
2.12573
1.72361
1.44066
1.40097
1.40001
1.40001
1.40001
1.40001
1.40001
1.40001
1.40001
1.40001
1.40001
1.40001
1.40001
1.40001
1.40001
1.40001
1.40001
1.40001
1.40001
1.40001
1.40001
1.40001
1.40001
1.40001
1.40001
1.40001
2.33036
2.14648
2.02334
1.60022
1.41484
1.40022
1.40001
1.40001
1.40001
1.40001
1.40001
1.40001
1.40001
1.40001
1.40001
1.40001
1.40001
1.40001
1.40001
1.40001
1.40001
1.40001
1.40001
1.40001
1.40001
1.40001
1.40001
1.40001
1.40001
1.40001
2.38655
2.11265
1.8711
1.49378
1.40396
1.40005
1.40001
1.40001
1.40001
1.40001
1.40001
1.40001
1.40001
1.40001
1.40001
1.40001
1.40001
1.40001
1.40001
1.40001
1.40001
1.40001
1.40001
1.40001
1.40001
1.40001
1.40001
1.40001
1.40001
1.40001
2.41176
2.04868
1.70642
1.43799
1.40103
1.40001
1.40001
1.40001
1.40001
1.40001
1.40001
1.40001
1.40001
1.40001
1.40001
1.40001
1.40001
1.40001
1.40001
1.40001
1.40001
1.40001
1.40001
1.40001
1.40001
1.40001
1.40001
1.40001
1.40001
1.40001
2.40016
1.94132
1.58804
1.41495
1.40026
1.40001
1.40001
1.40001
1.40001
1.40001
1.40001
1.40001
1.40001
1.40001
1.40001
1.40001
1.40001
1.40001
1.40001
1.40001
1.40001
1.40001
1.40001
1.40001
1.40001
1.40001
1.40001
1.40001
1.40001
1.40001
2.35259
1.82834
1.49469
1.40438
1.40006
1.40001
1.40001
1.40001
1.40001
1.40001
1.40001
1.40001
1.40001
1.40001
1.40001
1.40001
1.40001
1.40001
1.40001
1.40001
1.40001
1.40001
1.40001
1.40001
1.40001
1.40001
1.40001
1.40001
1.40001
1.40001
2.24591
1.70122
1.4438
1.40124
1.40001
1.40001
1.40001
1.40001
1.40001
1.40001
1.40001
1.40001
1.40001
1.40001
1.40001
1.40001
1.40001
1.40001
1.40001
1.40001
1.40001
1.40001
1.40001
1.40001
1.40001
1.40001
1.40001
1.40001
1.40001
1.40001
2.10051
1.59646
1.41671
1.40029
1.40001
1.40001
1.40001
1.40001
1.40001
1.40001
1.40001
1.40001
1.40001
1.40001
1.40001
1.40001
1.40001
1.40001
1.40001
1.40001
1.40001
1.40001
1.40001
1.40001
1.40001
1.40001
1.40001
1.40001
1.40001
1.40001
1.94458
1.50596
1.40491
1.40005
1.40001
1.40001
1.40001
1.40001
1.40001
1.40001
1.40001
1.40001
1.40001
1.40001
1.40001
1.40001
1.40001
1.40001
1.40001
1.40001
1.40001
1.40001
1.40001
1.40001
1.40001
1.40001
1.40001
1.40001
1.40001
1.40001
1.75487
1.4382
1.40084
1.40001
1.40001
1.40001
1.40001
1.40001
1.40001
1.40001
1.40001
1.40001
1.40001
1.40001
1.40001
1.40001
1.40001
1.40001
1.40001
1.40001
1.40001
1.40001
1.40001
1.40001
1.40001
1.40001
1.40001
1.40001
1.40001
1.40001
1.53133
1.40872
1.40008
1.40001
1.40001
1.40001
1.40001
1.40001
1.40001
1.40001
1.40001
1.40001
1.40001
1.40001
1.40001
1.40001
1.40001
1.40001
1.40001
1.40001
1.40001
1.40001
1.40001
1.40001
1.40001
1.40001
1.40001
1.40001
1.40001
1.40001
1.40001
1.40001
1.40001
1.40001
1.40001
1.40001
1.40001
1.40001
1.40001
1.40001
1.40001
1.40001
1.40001
1.40001
1.40001
1.40001
1.40001
1.40001
1.40001
1.40001
1.40001
1.40001
1.40001
1.40001
1.40001
1.40001
1.40001
1.40001
1.40001
1.40001
1.40001
1.40001
1.40001
1.40001
1.40001
1.40001
1.40001
1.40001
1.40001
1.40001
1.40001
1.40001
1.40001
1.40001
1.40001
1.40001
1.40001
1.40001
1.40001
1.40001
1.40001
1.40001
1.40001
1.40001
1.40001
1.40001
1.40001
1.40001
1.40001
1.40001
1.40001
1.40001
1.40001
1.40001
1.40001
1.40001
1.40001
1.40001
1.40001
1.40001
1.40001
1.40001
1.40001
1.40001
1.40001
1.40001
1.40001
1.40001
1.40001
1.40001
1.40001
1.40001
1.40001
1.40001
1.40001
1.40001
1.40001
1.40001
1.40001
1.40001
1.40001
1.40001
1.40001
1.40001
1.40001
1.40001
1.40001
1.40001
1.40001
1.40001
1.40001
1.40001
1.40001
1.40001
1.40001
1.40001
1.40001
1.40001
1.40001
1.40001
1.40001
1.40001
1.40001
1.40001
1.40001
1.40001
1.40001
1.40001
1.40001
1.40001
1.40001
1.40001
1.40001
1.40001
1.40001
1.40001
1.40001
1.40001
1.40001
1.40001
1.40001
1.40001
1.40001
1.40001
1.40001
1.40001
1.40001
1.40001
1.40001
1.40001
1.40001
1.40001
1.40001
1.40001
1.40001
1.40001
1.40001
1.40001
1.40001
1.40001
1.40001
1.40001
1.40001
1.40001
1.40001
1.40001
1.40001
1.40001
1.40001
1.40001
1.40001
1.40001
1.40001
1.40001
1.40001
1.40001
1.40001
1.40001
1.40001
1.40001
1.40001
1.40001
1.40001
1.40001
1.40001
1.40001
1.40001
1.40001
1.40001
1.40001
1.40001
1.40001
1.40001
1.40001
1.40001
1.40001
1.40001
1.40001
1.40001
1.40001
1.40001
1.40001
1.40001
1.40001
1.40001
1.40001
1.40001
1.40001
1.40001
1.40001
1.40001
1.40001
1.40001
1.40001
1.40001
1.40001
1.40001
1.40001
1.40001
1.40001
1.40001
1.40001
1.40001
1.40001
1.40001
1.40001
1.40001
1.40001
1.40001
1.40001
1.40001
1.40001
1.40001
1.40001
1.40001
1.40001
1.40001
1.40001
1.40001
1.40001
1.40001
1.40001
1.40001
1.40001
1.40001
1.40001
1.40001
1.40001
1.40001
1.40001
1.40001
1.40001
1.40001
1.40001
1.40001
1.40001
1.40001
1.40001
1.40001
1.40001
1.40001
1.40001
1.40001
1.40001
1.40001
1.40001
1.40001
1.40001
1.40001
1.40001
1.40001
1.40001
1.40001
1.40001
1.40001
1.40001
1.40001
1.40001
1.40001
1.40001
1.40001
1.40001
1.40001
1.40001
1.40001
1.40001
1.40001
1.40001
1.40001
1.40001
1.40001
1.40001
1.40001
1.40001
1.40001
1.40001
1.40001
1.40001
1.40001
1.40001
1.40001
1.40001
1.40001
1.40001
1.40001
1.40001
1.40001