/*--------------------------------*- C++ -*----------------------------------*\
  =========                 |
  \\      /  F ield         | OpenFOAM: The Open Source CFD Toolbox
   \\    /   O peration     | Website:  https://openfoam.org
    \\  /    A nd           | Version:  7
     \\/     M anipulation  |
\*---------------------------------------------------------------------------*/
FoamFile
{
    version     2.0;
    format      ascii;
    class       volVectorField;
    location    "1";
    object      U;
}
// * * * * * * * * * * * * * * * * * * * * * * * * * * * * * * * * * * * * * //

dimensions      [0 1 -1 0 0 0 0];

internalField   nonuniform List<vector> 
90000
(
(4.15433 -0.395034 0)
(4.15074 -0.371623 0)
(4.14713 -0.34733 0)
(4.14418 -0.326751 0)
(4.14116 -0.306179 0)
(4.13878 -0.290159 0)
(4.13604 -0.272169 0)
(4.13399 -0.259767 0)
(4.13133 -0.243481 0)
(4.12938 -0.233449 0)
(4.12674 -0.218623 0)
(4.12478 -0.209768 0)
(4.12217 -0.196358 0)
(4.12019 -0.188557 0)
(4.11742 -0.174997 0)
(4.1158 -0.17007 0)
(4.11273 -0.1544 0)
(4.11128 -0.151177 0)
(4.10823 -0.137312 0)
(4.10644 -0.131503 0)
(4.10378 -0.120485 0)
(4.10204 -0.114563 0)
(4.09896 -0.101343 0)
(4.09839 -0.100092 0)
(4.09435 -0.0833827 0)
(4.09353 -0.0817763 0)
(4.08996 -0.0696897 0)
(4.0884 -0.0636114 0)
(4.08487 -0.0520422 0)
(4.08361 -0.0478822 0)
(4.08155 -0.0395007 0)
(4.0763 -0.0265295 0)
(4.07496 -0.0235171 0)
(4.07444 -0.0177357 0)
(4.06806 -0.0110963 0)
(4.06429 -0.00604139 0)
(4.05936 -0.00253383 0)
(4.05296 0.000401864 0)
(4.04594 0.00547518 0)
(4.03762 0.0107826 0)
(4.03393 0.0100658 0)
(4.02392 0.00828487 0)
(4.01259 0.00371059 0)
(4.00367 0.00320915 0)
(3.99329 0.00451494 0)
(3.9781 0.00161554 0)
(3.96853 -0.00387124 0)
(3.96761 -0.00471633 0)
(3.97107 -0.00324374 0)
(3.97664 -0.00258069 0)
(3.97524 0.00113906 0)
(3.97069 0.00269549 0)
(3.96629 0.0040496 0)
(3.96093 0.00337527 0)
(3.95821 0.00180425 0)
(3.95992 0.00114735 0)
(3.96137 0.000221662 0)
(3.96338 -0.000316558 0)
(3.96515 -0.000859522 0)
(3.96409 -0.000978625 0)
(3.96033 -0.00149787 0)
(3.95491 -0.000602317 0)
(3.9469 8.85641e-05 0)
(3.94247 0.000898406 0)
(3.93746 0.00210055 0)
(3.93174 0.0022719 0)
(3.93207 0.00152193 0)
(3.93239 0.000732262 0)
(3.93318 -0.0011337 0)
(3.93562 -0.00221095 0)
(3.94032 -0.00243884 0)
(3.94544 -0.00119685 0)
(3.94969 0.000361066 0)
(3.95216 0.00081527 0)
(3.9527 0.000226756 0)
(3.95231 -0.000484357 0)
(3.95179 -0.000335849 0)
(3.95153 3.81374e-05 0)
(3.95125 0.000406987 0)
(3.95 0.000820947 0)
(3.94841 0.000468248 0)
(3.94503 -0.000551798 0)
(3.94136 -0.000324452 0)
(3.93728 0.00018551 0)
(3.93288 0.000739755 0)
(3.92798 0.000392747 0)
(3.92132 1.27566e-05 0)
(3.91147 9.57845e-05 0)
(3.89844 0.000351525 0)
(3.88616 0.000130469 0)
(3.8804 0.000103575 0)
(3.87949 -0.00021759 0)
(3.87944 -0.000375982 0)
(3.87935 -7.68596e-05 0)
(3.87919 -3.16216e-05 0)
(3.87924 -5.09591e-05 0)
(3.87935 -0.000119834 0)
(3.88011 -0.0001353 0)
(3.88226 -6.26737e-05 0)
(3.89223 -8.9673e-06 0)
(4.15641 -0.41553 0)
(4.15553 -0.414964 0)
(4.15406 -0.413813 0)
(4.15218 -0.412061 0)
(4.14993 -0.409363 0)
(4.1475 -0.406058 0)
(4.14479 -0.401289 0)
(4.14212 -0.396453 0)
(4.13911 -0.38943 0)
(4.1363 -0.38289 0)
(4.13308 -0.373481 0)
(4.13019 -0.365031 0)
(4.12685 -0.353339 0)
(4.12396 -0.343197 0)
(4.12039 -0.328459 0)
(4.11781 -0.317908 0)
(4.1138 -0.299396 0)
(4.11135 -0.287141 0)
(4.10758 -0.268387 0)
(4.10487 -0.253259 0)
(4.10111 -0.232269 0)
(4.09913 -0.218497 0)
(4.09449 -0.192352 0)
(4.09381 -0.181906 0)
(4.08834 -0.15315 0)
(4.08741 -0.140383 0)
(4.08324 -0.11657 0)
(4.08139 -0.100637 0)
(4.07717 -0.0760556 0)
(4.07609 -0.0641609 0)
(4.07207 -0.0431552 0)
(4.06885 -0.0269595 0)
(4.06481 -0.00706963 0)
(4.06661 -0.00568837 0)
(4.05703 0.0198109 0)
(4.05232 0.0323175 0)
(4.04936 0.0309056 0)
(4.04255 0.0376904 0)
(4.03723 0.041482 0)
(4.03128 0.0362502 0)
(4.02335 0.0286533 0)
(4.01451 0.0125682 0)
(4.00904 0.000879303 0)
(4.00242 0.00356389 0)
(3.99262 0.00815209 0)
(3.97965 0.00271976 0)
(3.97672 -0.0041631 0)
(3.97609 -0.0070229 0)
(3.97799 -0.00681401 0)
(3.98456 -0.00263458 0)
(3.9814 0.0037812 0)
(3.97517 0.00974829 0)
(3.96901 0.0112193 0)
(3.96468 0.0104562 0)
(3.96261 0.00773872 0)
(3.96166 0.00322039 0)
(3.96254 -0.0025081 0)
(3.96469 -0.00525676 0)
(3.96834 -0.00602028 0)
(3.96512 -0.00464589 0)
(3.96314 -0.00318933 0)
(3.95926 -0.000278652 0)
(3.95287 0.00321318 0)
(3.94555 0.0062412 0)
(3.93894 0.00875964 0)
(3.93533 0.00679433 0)
(3.9339 0.00433226 0)
(3.93355 0.000313107 0)
(3.93466 -0.0038167 0)
(3.93888 -0.00645826 0)
(3.94223 -0.00375638 0)
(3.94636 -0.00119904 0)
(3.94964 0.00211531 0)
(3.95154 0.00162451 0)
(3.95207 -5.96215e-05 0)
(3.95152 -0.0020006 0)
(3.95142 -0.00135862 0)
(3.95139 0.000265409 0)
(3.95056 0.00177266 0)
(3.94912 0.00253775 0)
(3.94725 -4.22086e-05 0)
(3.94436 -0.00102108 0)
(3.94088 0.000256904 0)
(3.93684 0.00172784 0)
(3.93242 0.00242216 0)
(3.92733 0.000946916 0)
(3.92069 -0.000308692 0)
(3.91101 0.000458035 0)
(3.89787 0.00132489 0)
(3.88551 0.000879577 0)
(3.87981 -0.000299513 0)
(3.87893 -0.000304003 0)
(3.87883 -0.000137267 0)
(3.87877 -0.000264994 0)
(3.87861 -0.000474881 0)
(3.87868 -0.000449501 0)
(3.87882 -0.000417227 0)
(3.87958 -0.000400913 0)
(3.88174 -0.000310564 0)
(3.89166 -0.000210426 0)
(4.15479 -0.415185 0)
(4.15474 -0.415212 0)
(4.15466 -0.415078 0)
(4.1546 -0.414978 0)
(4.15454 -0.414957 0)
(4.15444 -0.414835 0)
(4.15433 -0.414693 0)
(4.15422 -0.414555 0)
(4.15409 -0.414403 0)
(4.15392 -0.414155 0)
(4.15371 -0.413804 0)
(4.15345 -0.413297 0)
(4.15313 -0.412757 0)
(4.15269 -0.411757 0)
(4.1521 -0.410836 0)
(4.15137 -0.409442 0)
(4.15046 -0.407339 0)
(4.14946 -0.404884 0)
(4.14826 -0.40168 0)
(4.14692 -0.398109 0)
(4.1452 -0.39242 0)
(4.14345 -0.386956 0)
(4.14118 -0.378862 0)
(4.13888 -0.370605 0)
(4.13595 -0.359354 0)
(4.13302 -0.347924 0)
(4.12935 -0.332412 0)
(4.12605 -0.319444 0)
(4.12115 -0.295037 0)
(4.11879 -0.285933 0)
(4.11236 -0.253799 0)
(4.10895 -0.241023 0)
(4.10323 -0.211509 0)
(4.10015 -0.199065 0)
(4.09262 -0.161382 0)
(4.08972 -0.152233 0)
(4.08361 -0.123353 0)
(4.08236 -0.124479 0)
(4.07386 -0.0915498 0)
(4.06794 -0.0746073 0)
(4.05633 -0.0498699 0)
(4.05058 -0.0535344 0)
(4.03601 -0.0381687 0)
(4.01993 -0.0192292 0)
(4.00724 -0.000593423 0)
(3.99794 0.00358102 0)
(3.99101 -0.000588949 0)
(3.98979 -0.00192071 0)
(3.98923 -0.00133091 0)
(3.99206 0.0044637 0)
(3.98703 0.0139358 0)
(3.98149 0.0177102 0)
(3.97614 0.0168565 0)
(3.97042 0.010708 0)
(3.96737 0.00378685 0)
(3.96571 -0.00859621 0)
(3.96806 -0.0137602 0)
(3.97061 -0.0115733 0)
(3.97186 -0.00985303 0)
(3.9718 -0.00511639 0)
(3.97089 9.20648e-05 0)
(3.96625 0.00649925 0)
(3.9585 0.0106232 0)
(3.95268 0.0119356 0)
(3.94768 0.00985243 0)
(3.94327 0.0059828 0)
(3.93947 0.000757917 0)
(3.94095 -0.00460326 0)
(3.94234 -0.00535738 0)
(3.94601 -0.00362387 0)
(3.94709 -0.00169857 0)
(3.94877 -0.000604267 0)
(3.9496 -4.75758e-05 0)
(3.94972 -0.00166702 0)
(3.95029 -0.00171862 0)
(3.95039 -0.00105552 0)
(3.95008 0.000331643 0)
(3.95075 0.00211724 0)
(3.94797 0.0022266 0)
(3.94668 0.00105849 0)
(3.94519 -5.55481e-05 0)
(3.94268 -0.000445784 0)
(3.93965 0.00133459 0)
(3.93563 0.00292353 0)
(3.9308 0.0018663 0)
(3.92554 0.000294914 0)
(3.91905 5.08899e-05 0)
(3.90957 0.000977102 0)
(3.89619 0.00128696 0)
(3.88378 0.000558354 0)
(3.87827 8.39207e-05 0)
(3.87746 -0.000177324 0)
(3.87738 -0.000303375 0)
(3.87732 -0.000350859 0)
(3.87719 -0.000398985 0)
(3.87722 -0.00033696 0)
(3.87736 -0.000311072 0)
(3.87812 -0.000306872 0)
(3.88031 -0.000287146 0)
(3.89016 -0.000341736 0)
(4.15309 -0.414696 0)
(4.15306 -0.41476 0)
(4.15304 -0.414699 0)
(4.15303 -0.414678 0)
(4.15299 -0.414785 0)
(4.15296 -0.414778 0)
(4.15294 -0.414769 0)
(4.15291 -0.414778 0)
(4.15289 -0.414826 0)
(4.15286 -0.414966 0)
(4.15287 -0.414932 0)
(4.15284 -0.415085 0)
(4.15282 -0.415092 0)
(4.15275 -0.415038 0)
(4.15277 -0.415188 0)
(4.15274 -0.415105 0)
(4.15267 -0.414751 0)
(4.15263 -0.414623 0)
(4.15259 -0.414609 0)
(4.15255 -0.414576 0)
(4.15246 -0.414296 0)
(4.15233 -0.413934 0)
(4.15217 -0.413714 0)
(4.15193 -0.413164 0)
(4.15157 -0.41231 0)
(4.15123 -0.411646 0)
(4.15074 -0.409918 0)
(4.15011 -0.407664 0)
(4.14916 -0.404531 0)
(4.14799 -0.401009 0)
(4.14599 -0.39379 0)
(4.14376 -0.38704 0)
(4.14023 -0.374551 0)
(4.13704 -0.365642 0)
(4.13036 -0.33807 0)
(4.12569 -0.321734 0)
(4.1175 -0.28776 0)
(4.11344 -0.274593 0)
(4.09892 -0.214796 0)
(4.09348 -0.192131 0)
(4.08009 -0.124452 0)
(4.07577 -0.123824 0)
(4.05688 -0.0803882 0)
(4.04203 -0.0565003 0)
(4.02376 -0.00113861 0)
(4.0116 0.0103464 0)
(4.00575 -0.00191863 0)
(3.99868 0.00130662 0)
(3.99278 0.00782329 0)
(3.99034 0.00992747 0)
(3.98755 0.0140387 0)
(3.98446 0.0146317 0)
(3.97983 0.0103846 0)
(3.97679 0.00690654 0)
(3.97319 -0.00239906 0)
(3.97313 -0.00874331 0)
(3.97488 -0.00769087 0)
(3.97562 -0.00567789 0)
(3.97618 0.00107682 0)
(3.97521 0.00463848 0)
(3.9757 0.0132169 0)
(3.96912 0.013202 0)
(3.96568 0.0112504 0)
(3.9614 0.00821293 0)
(3.95732 0.00358829 0)
(3.95464 0.00186768 0)
(3.95386 0.00184659 0)
(3.95379 0.00134499 0)
(3.95376 0.00106342 0)
(3.95419 -0.00106101 0)
(3.95357 -0.00242623 0)
(3.95213 -0.00435219 0)
(3.95011 -0.00450148 0)
(3.94869 -0.000582993 0)
(3.94883 0.000541122 0)
(3.94896 0.00117865 0)
(3.94883 0.00279326 0)
(3.94739 0.00101547 0)
(3.94553 0.000842991 0)
(3.94452 0.00127686 0)
(3.94275 0.00149617 0)
(3.94053 0.00169737 0)
(3.93781 0.00265563 0)
(3.93342 0.00183639 0)
(3.92862 0.00142532 0)
(3.9233 0.00124045 0)
(3.91682 0.00154094 0)
(3.90741 0.001381 0)
(3.89409 0.00121185 0)
(3.88168 0.000582674 0)
(3.87628 -0.000153129 0)
(3.87553 -0.000336923 0)
(3.87548 -0.000401514 0)
(3.87547 -0.000505078 0)
(3.8754 -0.00038696 0)
(3.87539 -0.000163357 0)
(3.87551 -0.000101757 0)
(3.87626 -9.34311e-05 0)
(3.87844 -3.51391e-05 0)
(3.88824 -0.000250868 0)
(4.15369 -0.414729 0)
(4.15372 -0.414753 0)
(4.15376 -0.414685 0)
(4.15377 -0.414718 0)
(4.15378 -0.414818 0)
(4.15379 -0.414721 0)
(4.15382 -0.414722 0)
(4.15386 -0.414703 0)
(4.15392 -0.414696 0)
(4.15398 -0.414758 0)
(4.15405 -0.414735 0)
(4.15411 -0.414791 0)
(4.15419 -0.414887 0)
(4.15429 -0.41484 0)
(4.15436 -0.414906 0)
(4.15444 -0.414954 0)
(4.15452 -0.414799 0)
(4.1546 -0.414759 0)
(4.15465 -0.414802 0)
(4.15469 -0.414922 0)
(4.15471 -0.414803 0)
(4.15473 -0.41467 0)
(4.15469 -0.414918 0)
(4.15463 -0.414815 0)
(4.15455 -0.414576 0)
(4.15439 -0.415101 0)
(4.15418 -0.41472 0)
(4.15408 -0.414092 0)
(4.15384 -0.414313 0)
(4.15356 -0.414426 0)
(4.15319 -0.413562 0)
(4.15258 -0.413516 0)
(4.15187 -0.414205 0)
(4.15096 -0.413552 0)
(4.14956 -0.409733 0)
(4.14796 -0.406448 0)
(4.14535 -0.404947 0)
(4.14236 -0.403679 0)
(4.13673 -0.390076 0)
(4.13033 -0.37282 0)
(4.1215 -0.348417 0)
(4.11329 -0.342301 0)
(4.09559 -0.294739 0)
(4.082 -0.27 0)
(4.06079 -0.189565 0)
(4.05174 -0.181006 0)
(4.03431 -0.117424 0)
(4.0281 -0.127585 0)
(4.01195 -0.0789424 0)
(4.01711 -0.0807191 0)
(4.0031 -0.0470384 0)
(4.00462 -0.0351273 0)
(4.00066 -0.0175012 0)
(3.99756 -0.01516 0)
(3.99452 -0.0138955 0)
(3.9879 -0.00884303 0)
(3.98596 -0.00441263 0)
(3.98012 -0.00100844 0)
(3.97675 0.00850671 0)
(3.97442 0.0103085 0)
(3.97443 0.0124302 0)
(3.97204 0.00903065 0)
(3.97186 0.00644451 0)
(3.96872 0.00149256 0)
(3.96743 -0.000707589 0)
(3.96584 0.000933849 0)
(3.96454 0.00350339 0)
(3.96392 0.00299158 0)
(3.96238 0.00195522 0)
(3.95991 0.000243959 0)
(3.95673 -0.00245957 0)
(3.95377 -0.00588121 0)
(3.95058 -0.00468227 0)
(3.94925 -0.0012865 0)
(3.94862 0.00212412 0)
(3.94751 0.00334872 0)
(3.94678 0.00251875 0)
(3.9455 0.00127883 0)
(3.94392 0.000236079 0)
(3.94258 5.93144e-05 0)
(3.94107 0.00130809 0)
(3.9391 0.00288572 0)
(3.93608 0.0031882 0)
(3.93192 0.0022426 0)
(3.92723 0.00165963 0)
(3.92188 0.00174039 0)
(3.91521 0.00214384 0)
(3.90562 0.0018303 0)
(3.89247 0.00135883 0)
(3.88023 0.000642697 0)
(3.8749 5.03747e-06 0)
(3.87418 -0.000191389 0)
(3.87415 -0.000245159 0)
(3.8742 -0.000184999 0)
(3.87424 -0.000127107 0)
(3.87423 -0.000282188 0)
(3.87433 -0.000362923 0)
(3.87502 -0.000507572 0)
(3.87712 -0.000508302 0)
(3.88678 -0.000768026 0)
(4.15668 -0.414722 0)
(4.15674 -0.414715 0)
(4.1568 -0.414655 0)
(4.15688 -0.414619 0)
(4.15693 -0.414713 0)
(4.157 -0.414717 0)
(4.15706 -0.414741 0)
(4.15712 -0.414809 0)
(4.15719 -0.4148 0)
(4.15726 -0.414843 0)
(4.15735 -0.414852 0)
(4.15744 -0.414885 0)
(4.1575 -0.415022 0)
(4.15758 -0.415036 0)
(4.15766 -0.415077 0)
(4.15775 -0.415165 0)
(4.15785 -0.415134 0)
(4.15794 -0.415136 0)
(4.15803 -0.415084 0)
(4.15809 -0.415119 0)
(4.15812 -0.415133 0)
(4.15814 -0.41515 0)
(4.15813 -0.41533 0)
(4.15811 -0.415203 0)
(4.1581 -0.415053 0)
(4.15793 -0.415472 0)
(4.15775 -0.415528 0)
(4.15757 -0.41516 0)
(4.15725 -0.415496 0)
(4.15693 -0.415543 0)
(4.15663 -0.414738 0)
(4.15615 -0.414685 0)
(4.15549 -0.415999 0)
(4.15478 -0.416105 0)
(4.15381 -0.413736 0)
(4.15313 -0.412245 0)
(4.15083 -0.41478 0)
(4.14934 -0.418166 0)
(4.14599 -0.4147 0)
(4.14294 -0.407149 0)
(4.13837 -0.405715 0)
(4.13201 -0.411342 0)
(4.12375 -0.408139 0)
(4.11324 -0.39198 0)
(4.10059 -0.365392 0)
(4.08804 -0.349352 0)
(4.07137 -0.312483 0)
(4.06109 -0.293967 0)
(4.03852 -0.222965 0)
(4.03668 -0.194264 0)
(4.01856 -0.098462 0)
(4.0256 -0.0900813 0)
(4.018 -0.0262365 0)
(4.02282 -0.0306904 0)
(4.01299 0.00631193 0)
(4.00754 0.00365065 0)
(3.9957 0.024498 0)
(3.98416 0.0186268 0)
(3.9765 0.010057 0)
(3.9738 0.0041323 0)
(3.97427 0.00514814 0)
(3.97517 0.00535561 0)
(3.97546 0.0054346 0)
(3.97548 0.00587202 0)
(3.97437 0.00894807 0)
(3.97253 0.0102162 0)
(3.97025 0.00709925 0)
(3.96794 0.00456758 0)
(3.96562 0.0025472 0)
(3.96149 -0.00430939 0)
(3.95764 -0.00359643 0)
(3.95316 -0.00257634 0)
(3.95124 -0.000119194 0)
(3.95068 0.00180329 0)
(3.94846 0.00298419 0)
(3.94729 0.00275903 0)
(3.94536 0.00214085 0)
(3.9447 0.00186403 0)
(3.94367 0.00204695 0)
(3.9424 0.00247491 0)
(3.94087 0.00276856 0)
(3.93842 0.00355038 0)
(3.93513 0.00337825 0)
(3.93137 0.00240003 0)
(3.92705 0.00213563 0)
(3.92157 0.00219378 0)
(3.91452 0.00273021 0)
(3.90469 0.00230433 0)
(3.89184 0.00173577 0)
(3.87993 0.000647494 0)
(3.87469 -4.00948e-05 0)
(3.87395 -0.000363792 0)
(3.87395 -0.00043764 0)
(3.87402 -0.000394677 0)
(3.8741 -0.000309498 0)
(3.87413 -0.000124068 0)
(3.87427 -3.31968e-05 0)
(3.875 8.7836e-05 0)
(3.87703 0.000158573 0)
(3.88636 -0.000348268 0)
(4.15978 -0.41593 0)
(4.15982 -0.415946 0)
(4.15987 -0.415957 0)
(4.15991 -0.415955 0)
(4.15997 -0.415955 0)
(4.16001 -0.415964 0)
(4.16007 -0.415969 0)
(4.16012 -0.415978 0)
(4.16016 -0.416013 0)
(4.16022 -0.416086 0)
(4.16024 -0.416166 0)
(4.16026 -0.416244 0)
(4.1603 -0.41626 0)
(4.16033 -0.416275 0)
(4.16037 -0.41638 0)
(4.16048 -0.416388 0)
(4.16061 -0.416303 0)
(4.16071 -0.416343 0)
(4.16082 -0.416335 0)
(4.16091 -0.41634 0)
(4.16097 -0.416321 0)
(4.16102 -0.41619 0)
(4.16101 -0.416338 0)
(4.161 -0.416286 0)
(4.16103 -0.416088 0)
(4.16094 -0.416388 0)
(4.16084 -0.41641 0)
(4.16074 -0.415999 0)
(4.16049 -0.416251 0)
(4.16024 -0.416408 0)
(4.15998 -0.415638 0)
(4.15962 -0.415342 0)
(4.15875 -0.416329 0)
(4.15786 -0.417036 0)
(4.15665 -0.41536 0)
(4.15603 -0.413255 0)
(4.15397 -0.414666 0)
(4.15199 -0.417606 0)
(4.14879 -0.41627 0)
(4.14572 -0.408489 0)
(4.1423 -0.406448 0)
(4.13606 -0.413308 0)
(4.13027 -0.417888 0)
(4.12107 -0.408541 0)
(4.1135 -0.394859 0)
(4.10464 -0.394893 0)
(4.09513 -0.399592 0)
(4.08699 -0.399415 0)
(4.07762 -0.389953 0)
(4.06817 -0.366215 0)
(4.05849 -0.324294 0)
(4.05592 -0.291182 0)
(4.04867 -0.225415 0)
(4.0497 -0.206257 0)
(4.03918 -0.137122 0)
(4.03661 -0.139998 0)
(4.02146 -0.0847227 0)
(4.02125 -0.0959233 0)
(4.00055 -0.0581822 0)
(3.99639 -0.043727 0)
(3.99173 -0.0244971 0)
(3.9906 -0.00575869 0)
(3.98807 0.00384785 0)
(3.98342 0.0157528 0)
(3.97902 0.0182298 0)
(3.97732 0.0154105 0)
(3.97384 0.00800912 0)
(3.97015 0.00191654 0)
(3.96699 -0.00714465 0)
(3.96083 -0.00682528 0)
(3.95922 -0.00365533 0)
(3.95621 0.000717668 0)
(3.95332 0.0040459 0)
(3.95193 0.00377443 0)
(3.94915 0.00218962 0)
(3.94665 3.90905e-05 0)
(3.94593 0.000192212 0)
(3.94514 0.00167813 0)
(3.94436 0.00373109 0)
(3.94298 0.00379691 0)
(3.94143 0.00415818 0)
(3.9384 0.00264199 0)
(3.93515 0.00240512 0)
(3.93164 0.00337644 0)
(3.9273 0.00423506 0)
(3.92192 0.00358955 0)
(3.9147 0.002783 0)
(3.90477 0.00192636 0)
(3.89201 0.00145433 0)
(3.88029 0.000761116 0)
(3.87528 -0.000116915 0)
(3.87461 -0.000228257 0)
(3.87465 -0.000184511 0)
(3.87473 4.13941e-05 0)
(3.87474 0.000275221 0)
(3.87477 0.000442 0)
(3.87488 0.000432557 0)
(3.87561 0.00036177 0)
(3.87761 0.000280609 0)
(3.8867 -0.000765465 0)
(4.16237 -0.416091 0)
(4.1624 -0.416105 0)
(4.16244 -0.416104 0)
(4.16248 -0.416112 0)
(4.16251 -0.416138 0)
(4.16255 -0.416152 0)
(4.1626 -0.416149 0)
(4.16264 -0.416129 0)
(4.1627 -0.416119 0)
(4.16276 -0.416147 0)
(4.1628 -0.416216 0)
(4.16282 -0.416239 0)
(4.16285 -0.416219 0)
(4.16283 -0.416252 0)
(4.16281 -0.416443 0)
(4.16288 -0.41655 0)
(4.16291 -0.41641 0)
(4.16299 -0.416345 0)
(4.16307 -0.416356 0)
(4.16316 -0.416289 0)
(4.16324 -0.416358 0)
(4.16329 -0.41623 0)
(4.1633 -0.416213 0)
(4.16327 -0.416245 0)
(4.16322 -0.415937 0)
(4.16311 -0.415989 0)
(4.16298 -0.416072 0)
(4.16286 -0.415682 0)
(4.16266 -0.415796 0)
(4.16245 -0.416207 0)
(4.16214 -0.41573 0)
(4.16182 -0.41511 0)
(4.16103 -0.415589 0)
(4.16008 -0.41643 0)
(4.1587 -0.415683 0)
(4.15751 -0.413495 0)
(4.15609 -0.413416 0)
(4.15399 -0.415614 0)
(4.15131 -0.416372 0)
(4.14776 -0.410852 0)
(4.1451 -0.40673 0)
(4.13991 -0.410026 0)
(4.13373 -0.415696 0)
(4.12493 -0.413393 0)
(4.11657 -0.399599 0)
(4.11082 -0.392539 0)
(4.09955 -0.399103 0)
(4.09111 -0.406669 0)
(4.08585 -0.411081 0)
(4.08013 -0.406344 0)
(4.077 -0.397947 0)
(4.07622 -0.389094 0)
(4.07532 -0.37473 0)
(4.07368 -0.356861 0)
(4.06693 -0.324009 0)
(4.06127 -0.301178 0)
(4.0422 -0.230215 0)
(4.04009 -0.203204 0)
(4.01508 -0.0980043 0)
(4.01858 -0.0847845 0)
(3.99958 -0.00752454 0)
(4.00321 0.0021168 0)
(3.99549 0.0417536 0)
(3.99093 0.0398239 0)
(3.98632 0.0248708 0)
(3.98261 0.0140821 0)
(3.97883 0.00224343 0)
(3.97196 -0.00382534 0)
(3.96941 -0.00448511 0)
(3.96647 -0.000441698 0)
(3.96289 0.00767704 0)
(3.96058 0.00842129 0)
(3.95741 0.0070749 0)
(3.95328 0.00335277 0)
(3.94958 -0.000363574 0)
(3.94839 -0.000205367 0)
(3.94737 0.00112327 0)
(3.94699 0.0046958 0)
(3.94554 0.00514918 0)
(3.94355 0.00533878 0)
(3.9418 0.0030338 0)
(3.93929 0.00196895 0)
(3.93616 0.00271035 0)
(3.93307 0.00525476 0)
(3.92847 0.00571288 0)
(3.92278 0.00464009 0)
(3.91541 0.00291771 0)
(3.90521 0.002074 0)
(3.89236 0.00194019 0)
(3.88081 0.000743882 0)
(3.87617 -9.51216e-05 0)
(3.87567 7.14784e-05 0)
(3.87564 0.000164698 0)
(3.87558 0.000342861 0)
(3.87546 0.000385686 0)
(3.87547 0.000333954 0)
(3.87556 0.00025281 0)
(3.87629 0.00011645 0)
(3.87818 -0.00010532 0)
(3.88715 -0.00148322 0)
(4.1644 -0.41598 0)
(4.16443 -0.415996 0)
(4.16445 -0.416001 0)
(4.16447 -0.416016 0)
(4.16449 -0.416031 0)
(4.1645 -0.416029 0)
(4.16452 -0.416028 0)
(4.16455 -0.416031 0)
(4.16458 -0.416048 0)
(4.16462 -0.416086 0)
(4.16466 -0.416096 0)
(4.16468 -0.41605 0)
(4.16473 -0.415974 0)
(4.16467 -0.416052 0)
(4.16458 -0.416235 0)
(4.16456 -0.416304 0)
(4.16458 -0.416266 0)
(4.16463 -0.416231 0)
(4.16468 -0.416297 0)
(4.16472 -0.416244 0)
(4.16471 -0.416262 0)
(4.16466 -0.416217 0)
(4.1646 -0.416036 0)
(4.16452 -0.416119 0)
(4.16442 -0.415964 0)
(4.16438 -0.415731 0)
(4.16422 -0.415969 0)
(4.16403 -0.415919 0)
(4.16382 -0.41573 0)
(4.16351 -0.416184 0)
(4.16315 -0.416079 0)
(4.1628 -0.41514 0)
(4.16218 -0.415263 0)
(4.16138 -0.416043 0)
(4.16039 -0.41561 0)
(4.15928 -0.414097 0)
(4.15809 -0.413132 0)
(4.15618 -0.414296 0)
(4.15404 -0.416267 0)
(4.15082 -0.413986 0)
(4.14808 -0.407841 0)
(4.14367 -0.407981 0)
(4.13692 -0.41413 0)
(4.12879 -0.416853 0)
(4.11854 -0.404532 0)
(4.11226 -0.39276 0)
(4.10328 -0.394092 0)
(4.0928 -0.401634 0)
(4.08594 -0.408165 0)
(4.08141 -0.407166 0)
(4.08016 -0.401949 0)
(4.08008 -0.399677 0)
(4.08011 -0.396002 0)
(4.08127 -0.392757 0)
(4.08113 -0.391652 0)
(4.07827 -0.390711 0)
(4.07218 -0.383459 0)
(4.06483 -0.363212 0)
(4.0542 -0.328306 0)
(4.04396 -0.280239 0)
(4.02857 -0.203905 0)
(4.02373 -0.162595 0)
(4.01481 -0.0887413 0)
(4.02113 -0.0848473 0)
(4.01036 -0.0479467 0)
(4.00278 -0.0307983 0)
(3.99962 -0.019305 0)
(3.98627 -0.00648749 0)
(3.97854 0.00298975 0)
(3.96836 0.0115505 0)
(3.96471 0.0110066 0)
(3.96139 0.00565087 0)
(3.95757 0.00143516 0)
(3.95307 -0.0038206 0)
(3.95177 -0.0031322 0)
(3.95089 0.000406706 0)
(3.95022 0.0047181 0)
(3.94816 0.00662935 0)
(3.94706 0.00611322 0)
(3.94403 0.00324632 0)
(3.94259 0.00172106 0)
(3.94013 0.00157867 0)
(3.93776 0.00407471 0)
(3.93475 0.00682999 0)
(3.92985 0.0067193 0)
(3.92388 0.00383807 0)
(3.91603 0.00235293 0)
(3.9057 0.00204616 0)
(3.89274 0.00221316 0)
(3.88141 0.000604362 0)
(3.87706 -0.000116687 0)
(3.87659 5.6917e-05 0)
(3.87628 0.000274565 0)
(3.87621 0.000342099 0)
(3.87603 0.000228967 0)
(3.87601 0.000172701 0)
(3.87616 0.00013493 0)
(3.87685 -6.41012e-05 0)
(3.87876 -0.000252404 0)
(3.88769 -0.00157942 0)
(4.16577 -0.416045 0)
(4.16577 -0.416053 0)
(4.16577 -0.416058 0)
(4.16577 -0.416063 0)
(4.16577 -0.416083 0)
(4.16577 -0.416112 0)
(4.16577 -0.416137 0)
(4.16577 -0.416162 0)
(4.16579 -0.416185 0)
(4.16581 -0.41619 0)
(4.1658 -0.416158 0)
(4.16579 -0.416131 0)
(4.16578 -0.416143 0)
(4.16577 -0.416218 0)
(4.16575 -0.416272 0)
(4.16578 -0.416357 0)
(4.16579 -0.416362 0)
(4.16582 -0.416331 0)
(4.16578 -0.416471 0)
(4.16579 -0.416496 0)
(4.16582 -0.416487 0)
(4.16584 -0.416532 0)
(4.16582 -0.416303 0)
(4.16578 -0.416263 0)
(4.16571 -0.416306 0)
(4.16567 -0.415939 0)
(4.16548 -0.416055 0)
(4.16526 -0.416358 0)
(4.16504 -0.416064 0)
(4.1647 -0.416298 0)
(4.16436 -0.416543 0)
(4.16393 -0.415541 0)
(4.16342 -0.415259 0)
(4.16269 -0.416117 0)
(4.16189 -0.415883 0)
(4.1609 -0.414919 0)
(4.15966 -0.414031 0)
(4.15803 -0.413853 0)
(4.15579 -0.415179 0)
(4.15282 -0.415332 0)
(4.14921 -0.410155 0)
(4.14589 -0.406742 0)
(4.13931 -0.4114 0)
(4.13208 -0.417997 0)
(4.12205 -0.41213 0)
(4.11377 -0.395836 0)
(4.10688 -0.390774 0)
(4.09541 -0.397372 0)
(4.08716 -0.404864 0)
(4.08282 -0.406069 0)
(4.08085 -0.402445 0)
(4.08046 -0.400776 0)
(4.07988 -0.398059 0)
(4.08102 -0.393988 0)
(4.08206 -0.392955 0)
(4.08088 -0.395329 0)
(4.07594 -0.399423 0)
(4.07387 -0.400621 0)
(4.07149 -0.399016 0)
(4.0672 -0.390968 0)
(4.05877 -0.366986 0)
(4.04874 -0.325412 0)
(4.03492 -0.257874 0)
(4.02923 -0.19147 0)
(4.0155 -0.102941 0)
(4.01366 -0.0603608 0)
(4.00122 -0.000641238 0)
(3.99636 0.0168534 0)
(3.98408 0.0445849 0)
(3.97235 0.0337882 0)
(3.96537 0.0130282 0)
(3.96622 -0.00041329 0)
(3.95744 -0.00314884 0)
(3.95614 -0.00262466 0)
(3.95539 0.0020196 0)
(3.9567 0.0108245 0)
(3.95233 0.00921923 0)
(3.95041 0.0075892 0)
(3.94685 0.00376545 0)
(3.94557 0.00297446 0)
(3.94354 0.00253603 0)
(3.94161 0.00400269 0)
(3.93927 0.00599065 0)
(3.9358 0.00830559 0)
(3.93088 0.00586146 0)
(3.92465 0.00381317 0)
(3.91668 0.00289053 0)
(3.90651 0.00320836 0)
(3.89322 0.00216355 0)
(3.88205 0.000480138 0)
(3.87759 1.91444e-05 0)
(3.87699 0.000389007 0)
(3.87671 0.000271707 0)
(3.87662 0.000166671 0)
(3.87644 -3.18243e-05 0)
(3.87643 -4.04854e-05 0)
(3.87655 6.3608e-05 0)
(3.87724 -2.6783e-06 0)
(3.87921 -0.000385683 0)
(3.88811 -0.00165631 0)
(4.1667 -0.416497 0)
(4.1667 -0.416501 0)
(4.1667 -0.416503 0)
(4.1667 -0.416508 0)
(4.1667 -0.41652 0)
(4.16669 -0.416542 0)
(4.16668 -0.41656 0)
(4.16668 -0.416573 0)
(4.16666 -0.416586 0)
(4.16664 -0.416582 0)
(4.16662 -0.416565 0)
(4.16661 -0.416536 0)
(4.1666 -0.416535 0)
(4.16657 -0.4166 0)
(4.16655 -0.416651 0)
(4.16655 -0.416744 0)
(4.16656 -0.416761 0)
(4.16657 -0.416723 0)
(4.16647 -0.416824 0)
(4.16644 -0.416906 0)
(4.16642 -0.416882 0)
(4.1664 -0.416944 0)
(4.16635 -0.416822 0)
(4.16629 -0.416713 0)
(4.16619 -0.416824 0)
(4.16604 -0.416539 0)
(4.16588 -0.416397 0)
(4.16563 -0.416764 0)
(4.16539 -0.416536 0)
(4.16512 -0.416418 0)
(4.16479 -0.416881 0)
(4.16432 -0.416167 0)
(4.164 -0.415301 0)
(4.16331 -0.416259 0)
(4.16256 -0.416215 0)
(4.16167 -0.414729 0)
(4.16034 -0.414961 0)
(4.15874 -0.414838 0)
(4.15678 -0.414034 0)
(4.15394 -0.414927 0)
(4.15022 -0.413808 0)
(4.14666 -0.408575 0)
(4.14149 -0.408981 0)
(4.13439 -0.414846 0)
(4.12564 -0.415502 0)
(4.11511 -0.401751 0)
(4.10785 -0.390484 0)
(4.09731 -0.394519 0)
(4.0885 -0.402487 0)
(4.08356 -0.40442 0)
(4.0805 -0.402147 0)
(4.07957 -0.400919 0)
(4.07892 -0.398542 0)
(4.07977 -0.394705 0)
(4.08158 -0.392814 0)
(4.08048 -0.395009 0)
(4.07593 -0.397264 0)
(4.07377 -0.400371 0)
(4.0731 -0.402626 0)
(4.07086 -0.403069 0)
(4.06678 -0.399895 0)
(4.06326 -0.392776 0)
(4.06027 -0.381706 0)
(4.05529 -0.355657 0)
(4.04886 -0.325542 0)
(4.03473 -0.25089 0)
(4.02819 -0.213504 0)
(4.01115 -0.129642 0)
(4.00929 -0.105673 0)
(3.99472 -0.0649756 0)
(3.99052 -0.0489999 0)
(3.98372 -0.0266314 0)
(3.96904 -0.00816604 0)
(3.96356 0.00232359 0)
(3.95868 0.0103503 0)
(3.9566 0.00948494 0)
(3.95234 0.00609298 0)
(3.94932 0.000660979 0)
(3.94683 0.00071582 0)
(3.94593 0.00258096 0)
(3.94473 0.00600654 0)
(3.94201 0.00504513 0)
(3.93911 0.00800803 0)
(3.93596 0.00634079 0)
(3.93188 0.00524641 0)
(3.92583 0.00468505 0)
(3.91751 0.00502818 0)
(3.90648 0.00367963 0)
(3.8931 0.00151147 0)
(3.88226 -5.6231e-05 0)
(3.87787 0.000664926 0)
(3.8771 0.000616315 0)
(3.87695 0.000307348 0)
(3.87672 -0.000153965 0)
(3.87659 -0.00033923 0)
(3.87661 -0.000281622 0)
(3.87678 -9.06116e-05 0)
(3.87762 -0.000378099 0)
(3.8796 -0.000643626 0)
(3.88827 -0.00181596 0)
(4.16697 -0.416931 0)
(4.16696 -0.416937 0)
(4.16695 -0.416939 0)
(4.16694 -0.416935 0)
(4.16693 -0.416923 0)
(4.16692 -0.41692 0)
(4.16691 -0.416929 0)
(4.16688 -0.416944 0)
(4.16684 -0.416942 0)
(4.16678 -0.416929 0)
(4.16677 -0.416912 0)
(4.16677 -0.416876 0)
(4.16676 -0.416859 0)
(4.1667 -0.416893 0)
(4.16668 -0.416915 0)
(4.16665 -0.416979 0)
(4.16664 -0.417029 0)
(4.16662 -0.417005 0)
(4.16655 -0.41701 0)
(4.16648 -0.417102 0)
(4.16642 -0.417028 0)
(4.16634 -0.417058 0)
(4.16625 -0.417086 0)
(4.16614 -0.416947 0)
(4.16601 -0.417059 0)
(4.16585 -0.416915 0)
(4.16572 -0.416535 0)
(4.16547 -0.416779 0)
(4.16522 -0.416788 0)
(4.16499 -0.416264 0)
(4.1646 -0.416568 0)
(4.16418 -0.41651 0)
(4.16387 -0.415332 0)
(4.1632 -0.415715 0)
(4.16258 -0.416538 0)
(4.16168 -0.414938 0)
(4.16058 -0.414436 0)
(4.15904 -0.415571 0)
(4.15714 -0.41399 0)
(4.1547 -0.413216 0)
(4.15127 -0.414798 0)
(4.14709 -0.412116 0)
(4.14285 -0.408045 0)
(4.13615 -0.410746 0)
(4.12818 -0.414609 0)
(4.11762 -0.40701 0)
(4.10819 -0.393715 0)
(4.0989 -0.392025 0)
(4.0906 -0.397673 0)
(4.08276 -0.40122 0)
(4.07985 -0.40117 0)
(4.07934 -0.400835 0)
(4.07856 -0.398821 0)
(4.07896 -0.395977 0)
(4.08007 -0.393423 0)
(4.08003 -0.393788 0)
(4.07632 -0.396567 0)
(4.07393 -0.398922 0)
(4.07274 -0.400779 0)
(4.0702 -0.400805 0)
(4.06589 -0.399715 0)
(4.06425 -0.398286 0)
(4.06251 -0.393851 0)
(4.06253 -0.390309 0)
(4.06143 -0.386125 0)
(4.05728 -0.375539 0)
(4.05073 -0.354508 0)
(4.03675 -0.30219 0)
(4.02908 -0.258988 0)
(4.00279 -0.130938 0)
(4.00988 -0.112141 0)
(3.98359 -0.00477541 0)
(3.97624 0.00545677 0)
(3.96883 0.0449676 0)
(3.95807 0.0264946 0)
(3.95275 0.00805084 0)
(3.95002 0.00168091 0)
(3.9492 0.00120976 0)
(3.94854 0.00366052 0)
(3.94893 0.0121677 0)
(3.94557 0.0113587 0)
(3.94029 0.00798731 0)
(3.93761 0.00596691 0)
(3.93598 0.00619038 0)
(3.93284 0.0065879 0)
(3.92743 0.00835428 0)
(3.9182 0.00816899 0)
(3.90577 0.00375893 0)
(3.89236 0.000575842 0)
(3.88209 0.000284864 0)
(3.87791 0.00177338 0)
(3.87703 0.0010559 0)
(3.87681 0.000338421 0)
(3.87657 -0.000428285 0)
(3.87655 -0.000385637 0)
(3.87663 -0.000201174 0)
(3.87693 -0.000281463 0)
(3.87772 -0.000678582 0)
(3.8797 -0.000889691 0)
(3.8882 -0.00214029 0)
(4.16655 -0.41747 0)
(4.16654 -0.417444 0)
(4.1665 -0.417401 0)
(4.16649 -0.417387 0)
(4.16648 -0.417383 0)
(4.16647 -0.417379 0)
(4.16647 -0.417337 0)
(4.16646 -0.417282 0)
(4.16646 -0.417279 0)
(4.16643 -0.417301 0)
(4.16639 -0.417265 0)
(4.16634 -0.417191 0)
(4.16633 -0.417165 0)
(4.16633 -0.417127 0)
(4.16633 -0.417121 0)
(4.16632 -0.417102 0)
(4.16627 -0.417119 0)
(4.1662 -0.417138 0)
(4.16612 -0.417055 0)
(4.16604 -0.41711 0)
(4.16597 -0.417068 0)
(4.16589 -0.416899 0)
(4.16578 -0.416959 0)
(4.16565 -0.416834 0)
(4.16551 -0.416706 0)
(4.16536 -0.416734 0)
(4.16519 -0.416325 0)
(4.16498 -0.416216 0)
(4.16473 -0.416507 0)
(4.16447 -0.416085 0)
(4.16423 -0.415902 0)
(4.16392 -0.41642 0)
(4.1635 -0.415676 0)
(4.16307 -0.415071 0)
(4.16231 -0.416034 0)
(4.16136 -0.415558 0)
(4.16051 -0.41387 0)
(4.15894 -0.414869 0)
(4.15712 -0.41498 0)
(4.15499 -0.412811 0)
(4.15185 -0.413648 0)
(4.14802 -0.414174 0)
(4.14353 -0.409171 0)
(4.13808 -0.407377 0)
(4.13052 -0.411889 0)
(4.12123 -0.410787 0)
(4.11044 -0.397877 0)
(4.10191 -0.390361 0)
(4.09128 -0.395622 0)
(4.08236 -0.398906 0)
(4.08068 -0.399683 0)
(4.07912 -0.399688 0)
(4.07826 -0.398603 0)
(4.07795 -0.396467 0)
(4.07868 -0.394344 0)
(4.07943 -0.393476 0)
(4.07807 -0.395495 0)
(4.07487 -0.397372 0)
(4.07296 -0.398787 0)
(4.07034 -0.399061 0)
(4.06565 -0.398619 0)
(4.06368 -0.397779 0)
(4.062 -0.394795 0)
(4.06176 -0.390435 0)
(4.06174 -0.388648 0)
(4.06022 -0.387505 0)
(4.05775 -0.387028 0)
(4.05463 -0.383969 0)
(4.04995 -0.372894 0)
(4.04113 -0.346266 0)
(4.03029 -0.295583 0)
(4.01246 -0.212573 0)
(4.0031 -0.164748 0)
(3.98966 -0.084548 0)
(3.99615 -0.0723265 0)
(3.96997 -0.0322003 0)
(3.96072 -0.0131373 0)
(3.95807 -0.00227745 0)
(3.95028 0.00974538 0)
(3.94839 0.0108508 0)
(3.94364 0.00871006 0)
(3.93808 0.00329755 0)
(3.93667 0.00352346 0)
(3.93548 0.00606043 0)
(3.93335 0.00945173 0)
(3.92773 0.0106731 0)
(3.91786 0.00754925 0)
(3.90444 0.00178877 0)
(3.89098 -0.000318018 0)
(3.88142 0.00206636 0)
(3.87718 0.00176074 0)
(3.87666 0.00126632 0)
(3.87622 -8.35737e-07 0)
(3.87632 -0.000287121 0)
(3.87639 -0.000153009 0)
(3.87652 -0.00025727 0)
(3.87689 -0.000678629 0)
(3.87757 -0.00115983 0)
(3.87952 -0.00112839 0)
(3.88783 -0.00234388 0)
(4.16589 -0.417501 0)