/*--------------------------------*- C++ -*----------------------------------*\
  =========                 |
  \\      /  F ield         | OpenFOAM: The Open Source CFD Toolbox
   \\    /   O peration     | Website:  https://openfoam.org
    \\  /    A nd           | Version:  7
     \\/     M anipulation  |
\*---------------------------------------------------------------------------*/
FoamFile
{
    version     2.0;
    format      ascii;
    class       volScalarField;
    location    "9.5";
    object      rho;
}
// * * * * * * * * * * * * * * * * * * * * * * * * * * * * * * * * * * * * * //

dimensions      [1 -3 0 0 0 0 0];

internalField   nonuniform List<scalar> 
90000
(
0.542908
0.580035
0.616382
0.649928
0.686538
0.720584
0.749224
0.781912
0.815599
0.84671
0.879246
0.913096
0.946831
0.980925
1.01513
1.04918
1.08396
1.11694
1.15104
1.18225
1.21319
1.23834
1.26161
1.272
1.28122
1.28355
1.28654
1.28666
1.28637
1.28499
1.28458
1.28266
1.27981
1.27683
1.27359
1.27006
1.266
1.26136
1.25559
1.25563
1.25843
1.2632
1.26883
1.27455
1.27963
1.28428
1.28745
1.29157
1.29098
1.28736
1.28072
1.27468
1.27163
1.27253
1.27588
1.28138
1.2868
1.29119
1.29127
1.28918
1.28468
1.28037
1.27772
1.27937
1.28402
1.2887
1.2911
1.29044
1.28796
1.28415
1.28408
1.28558
1.28899
1.29123
1.29053
1.28834
1.28722
1.28824
1.29063
1.29235
1.29174
1.2907
1.29073
1.29143
1.29233
1.29277
1.29305
1.2933
1.29349
1.29348
1.29358
1.29403
1.29468
1.29498
1.29531
1.29587
1.29639
1.29671
1.2967
1.29731
0.513548
0.513566
0.513583
0.513617
0.513743
0.514072
0.514678
0.51589
0.51793
0.521105
0.525498
0.53216
0.540973
0.553181
0.568256
0.588469
0.61229
0.64272
0.677322
0.719861
0.766085
0.819189
0.874891
0.931473
0.986224
1.03457
1.08038
1.11718
1.15189
1.17627
1.19991
1.21297
1.22637
1.23187
1.2385
1.24105
1.24453
1.24608
1.25239
1.26107
1.27103
1.27767
1.28273
1.28643
1.28731
1.28712
1.28647
1.28326
1.27404
1.26572
1.26234
1.2639
1.26543
1.26847
1.27348
1.27793
1.28321
1.28417
1.28179
1.2764
1.27097
1.27098
1.27363
1.27591
1.27912
1.28393
1.28328
1.28076
1.27654
1.27618
1.27847
1.28303
1.28387
1.28308
1.2801
1.27876
1.27967
1.28272
1.28482
1.28471
1.28283
1.28209
1.28261
1.28441
1.28553
1.28532
1.28545
1.28578
1.28594
1.2859
1.28622
1.28692
1.28743
1.28756
1.28793
1.28858
1.28918
1.28943
1.28954
1.28999
0.514458
0.514514
0.514576
0.514644
0.514715
0.514812
0.514876
0.514915
0.514952
0.515007
0.515077
0.515147
0.515208
0.515279
0.515365
0.515468
0.515566
0.515716
0.516018
0.516846
0.518641
0.522595
0.529207
0.54138
0.558668
0.585135
0.617808
0.661684
0.711085
0.770634
0.83267
0.899025
0.964233
1.02537
1.08384
1.13195
1.17962
1.21453
1.24662
1.26263
1.27298
1.27783
1.28203
1.28488
1.28583
1.28379
1.27529
1.26018
1.24997
1.25275
1.25943
1.26626
1.27477
1.28079
1.28429
1.28387
1.28173
1.27549
1.26813
1.26439
1.26474
1.26689
1.27302
1.2821
1.28369
1.28212
1.27749
1.27194
1.27048
1.27201
1.27663
1.28223
1.28193
1.27885
1.27474
1.27513
1.27651
1.27982
1.28229
1.28126
1.27937
1.27934
1.28017
1.28082
1.2815
1.2819
1.28216
1.28208
1.282
1.28206
1.28225
1.28288
1.28325
1.2834
1.28363
1.28419
1.28438
1.28437
1.28448
1.28529
0.515801
0.515866
0.515936
0.516008
0.516084
0.516161
0.516242
0.516326
0.516414
0.516502
0.516596
0.51669
0.516787
0.516885
0.516985
0.517085
0.517185
0.517284
0.517383
0.517508
0.517556
0.5176
0.517645
0.517695
0.517747
0.517812
0.517864
0.518064
0.518767
0.521222
0.526419
0.538201
0.556598
0.58818
0.628907
0.686902
0.752694
0.832245
0.912745
0.989302
1.05968
1.113
1.16133
1.18915
1.21497
1.2259
1.23425
1.23953
1.25685
1.26977
1.28335
1.28993
1.29545
1.29443
1.29214
1.28753
1.27354
1.2625
1.26089
1.26272
1.2676
1.27695
1.28603
1.28853
1.28614
1.27751
1.27063
1.26937
1.27091
1.27744
1.28387
1.28381
1.28104
1.27453
1.27355
1.27475
1.27921
1.28174
1.28095
1.27805
1.27758
1.27842
1.28015
1.28059
1.2802
1.28048
1.28102
1.28101
1.2806
1.28074
1.28135
1.28178
1.28169
1.28175
1.28203
1.28249
1.28257
1.28246
1.28253
1.28298
0.517172
0.51722
0.51727
0.517322
0.517375
0.517429
0.517483
0.517538
0.517594
0.517649
0.517704
0.517759
0.517814
0.517868
0.517922
0.517974
0.518028
0.518077
0.518128
0.518175
0.518224
0.518275
0.518325
0.518375
0.518423
0.51847
0.51851
0.518558
0.518579
0.518597
0.518616
0.518637
0.51866
0.51869
0.518712
0.519155
0.520922
0.527553
0.541172
0.570352
0.612808
0.678201
0.755829
0.849045
0.945068
1.03516
1.12305
1.1908
1.24083
1.25888
1.27404
1.27995
1.28638
1.28618
1.28305
1.27164
1.26037
1.26321
1.26861
1.27892
1.28799
1.29366
1.29146
1.28804
1.27756
1.27087
1.27019
1.27256
1.28115
1.28814
1.28687
1.28304
1.27617
1.27359
1.27496
1.2804
1.28417
1.28294
1.2791
1.27756
1.27817
1.2805
1.28159
1.28087
1.28046
1.28067
1.28109
1.28103
1.28055
1.28063
1.28125
1.28168
1.28143
1.28134
1.28157
1.28197
1.28194
1.28168
1.28181
1.28262
0.518026
0.518051
0.518078
0.518105
0.518133
0.518161
0.518189
0.518218
0.518245
0.518272
0.518299
0.518327
0.518355
0.518383
0.51841
0.518438
0.518464
0.518488
0.518513
0.51854
0.518567
0.518592
0.518618
0.518641
0.518664
0.518685
0.518706
0.518726
0.518747
0.518771
0.518793
0.518818
0.518841
0.518868
0.5189
0.518917
0.518934
0.518952
0.518967
0.518983
0.518988
0.519327
0.521375
0.530292
0.550192
0.592962
0.656771
0.752201
0.858918
0.965615
1.06466
1.1295
1.19287
1.21808
1.2445
1.24944
1.26339
1.28197
1.29823
1.30753
1.30702
1.3047
1.29406
1.27692
1.26918
1.2705
1.27673
1.28708
1.29655
1.29496
1.28802
1.27843
1.27477
1.27736
1.28445
1.28893
1.28737
1.2814
1.27872
1.27946
1.28254
1.28404
1.28304
1.28148
1.28145
1.28202
1.28216
1.28148
1.28089
1.28152
1.28233
1.28214
1.28157
1.28159
1.28205
1.28223
1.28207
1.28181
1.28192
1.28272
0.518486
0.518496
0.518507
0.518518
0.518531
0.518544
0.518557
0.518569
0.51858
0.51859
0.518601
0.518612
0.518625
0.518638
0.518651
0.518664
0.518676
0.518688
0.518702
0.518717
0.518734
0.51875
0.518765
0.51878
0.518795
0.518811
0.518826
0.518842
0.518861
0.518884
0.518906
0.51893
0.518954
0.518981
0.519013
0.519052
0.519088
0.51912
0.519136
0.519147
0.519146
0.519133
0.519119
0.519096
0.519075
0.519065
0.519166
0.521705
0.531072
0.562862
0.616207
0.709201
0.819729
0.945488
1.06712
1.16391
1.24113
1.27282
1.28913
1.29829
1.29889
1.29146
1.26774
1.26761
1.27172
1.28427
1.29663
1.30139
1.29949
1.28869
1.27648
1.27538
1.27852
1.28835
1.29375
1.29236
1.28497
1.2806
1.28096
1.28453
1.28712
1.28621
1.28439
1.28361
1.28438
1.2846
1.28392
1.28276
1.28307
1.28403
1.2839
1.28314
1.2828
1.28318
1.28338
1.28322
1.28256
1.2825
1.28274
1.28372
0.518731
0.518735
0.518738
0.518741
0.518744
0.518748
0.518751
0.518755
0.518759
0.518763
0.518767
0.518772
0.518777
0.518783
0.518791
0.5188
0.51881
0.518821
0.518833
0.518844
0.518856
0.518869
0.518883
0.5189
0.518919
0.518941
0.518961
0.518979
0.519001
0.519026
0.519052
0.519079
0.519105
0.519134
0.519173
0.519208
0.519232
0.51925
0.519254
0.519252
0.519243
0.519231
0.519212
0.519179
0.519144
0.51913
0.519126
0.519128
0.519137
0.519161
0.519181
0.520341
0.526644
0.554449
0.608476
0.712828
0.841619
0.975732
1.09056
1.16436
1.22521
1.23991
1.25552
1.28272
1.29647
1.31357
1.31461
1.3104
1.28847
1.27236
1.27314
1.27891
1.29146
1.30132
1.2992
1.28905
1.28172
1.28176
1.28601
1.2907
1.29006
1.28714
1.2857
1.28657
1.28762
1.28692
1.28532
1.28491
1.28594
1.28657
1.28603
1.28488
1.28488
1.28532
1.28526
1.28478
1.2841
1.28416
1.28445
1.2853
0.518849
0.51885
0.518851
0.518851
0.518852
0.518853
0.518853
0.518854
0.518856
0.518859
0.518864
0.518868
0.518875
0.518884
0.518895
0.518908
0.518922
0.518939
0.518954
0.518968
0.518985
0.519002
0.519017
0.519033
0.519056
0.519079
0.519098
0.519114
0.519133
0.519155
0.519178
0.519198
0.519221
0.519251
0.519283
0.519308
0.519326
0.519339
0.519342
0.519337
0.519329
0.51932
0.519302
0.519268
0.519233
0.519219
0.519219
0.519222
0.519229
0.519246
0.519263
0.519288
0.519341
0.519433
0.519475
0.520795
0.530173
0.567123
0.6442
0.769829
0.918523
1.06478
1.19427
1.26828
1.28563
1.30273
1.30328
1.29096
1.26084
1.26694
1.28152
1.29727
1.30396
1.30187
1.2912
1.27997
1.28051
1.28692
1.29284
1.29213
1.28996
1.28734
1.28752
1.2894
1.28939
1.28827
1.28641
1.28687
1.28862
1.2885
1.28713
1.28652
1.28705
1.28738
1.28696
1.28609
1.28564
1.28581
1.28625
1.28717
0.518904
0.518905
0.518906
0.518908
0.51891
0.518913
0.518917
0.518921
0.518925
0.518931
0.518938
0.518948
0.518961
0.518978
0.518995
0.519013
0.519033
0.519053
0.519068
0.519081
0.519096
0.519112
0.519125
0.519137
0.519154
0.519168
0.519179
0.519191
0.519205
0.519218
0.51923
0.519244
0.519263
0.519289
0.519315
0.519334
0.519348
0.51936
0.519362
0.519357
0.519355
0.51935
0.519339
0.519315
0.5193
0.5193
0.519302
0.519306
0.519312
0.519315
0.519318
0.519329
0.519366
0.519424
0.51947
0.519504
0.519521
0.519514
0.519576
0.523435
0.544851
0.614474
0.738646
0.902866
1.04317
1.15467
1.21673
1.24413
1.25801
1.29049
1.31023
1.3136
1.31022
1.28872
1.27607
1.27762
1.2863
1.29733
1.29672
1.29248
1.28629
1.28658
1.28962
1.29142
1.29043
1.287
1.28687
1.28883
1.29001
1.28934
1.28773
1.28735
1.28835
1.28838
1.28787
1.28699
1.28674
1.28705
1.28772
1.28853
0.519012
0.519016
0.519021
0.519027
0.519036
0.519044
0.519052
0.519059
0.519065
0.519073
0.519085
0.5191
0.519114
0.519133
0.519154
0.519169
0.51918
0.519185
0.519189
0.519196
0.51921
0.51922
0.519221
0.519223
0.519225
0.519226
0.519228
0.519233
0.519239
0.519243
0.519247
0.519255
0.519271
0.519293
0.519316
0.519332
0.519345
0.519357
0.519361
0.519362
0.519367
0.519368
0.519365
0.519372
0.519392
0.519407
0.519411
0.519412
0.519406
0.519382
0.519362
0.519359
0.519376
0.519413
0.519444
0.519471
0.519502
0.519515
0.519529
0.519543
0.519543
0.51952
0.521824
0.542823
0.615245
0.738378
0.908514
1.09423
1.22027
1.27772
1.29449
1.30321
1.28944
1.26436
1.27061
1.2874
1.29949
1.29913
1.29394
1.28415
1.28398
1.28804
1.29253
1.2919
1.28772
1.28567
1.28731
1.29087
1.2905
1.28795
1.28707
1.28801
1.28915
1.28881
1.28746
1.28696
1.28718
1.28769
1.28848
1.28925
0.519233
0.519237
0.519242
0.519248
0.519258
0.519263
0.519267
0.519273
0.519279
0.519285
0.519294
0.519304
0.519313
0.519324
0.519332
0.519332
0.51933
0.519324
0.519316
0.519312
0.519311
0.519306
0.519296
0.51929
0.519283
0.519272
0.519265
0.519262
0.519261
0.519255
0.519251
0.519252
0.519261
0.519281
0.519306
0.519326
0.51934
0.519351
0.519368
0.519391
0.519413
0.519432
0.519456
0.519491
0.519529
0.519539
0.519538
0.51953
0.519504
0.519449
0.5194
0.519391
0.519395
0.51941
0.519431
0.519456
0.519486
0.519506
0.519536
0.519581
0.519611
0.519607
0.519576
0.519535
0.519524
0.521783
0.547159
0.627563
0.795951
0.980528
1.10396
1.21735
1.23174
1.26493
1.28554
1.30928
1.30846
1.3001
1.28041
1.28008
1.28477
1.29401
1.29366
1.28833
1.28378
1.28518
1.291
1.29163
1.28881
1.28582
1.28663
1.28939
1.28939
1.28793
1.28676
1.28696
1.28746
1.28801
1.28886
1.28946
0.519432
0.519432
0.519434
0.519436
0.519439
0.519442
0.519445
0.519447
0.519449
0.519452
0.519457
0.51946
0.51946
0.519459
0.519458
0.519454
0.519445
0.519434
0.519423
0.51941
0.519396
0.519379
0.519362
0.519351
0.519338
0.519321
0.519316
0.519315
0.519304
0.519289
0.519287
0.519287
0.519289
0.519301
0.51932
0.519344
0.51937
0.519397
0.519423
0.519451
0.51948
0.519512
0.519555
0.519611
0.519644
0.519649
0.519646
0.51963
0.519589
0.519512
0.519438
0.519416
0.519418
0.519428
0.519443
0.519481
0.519531
0.519544
0.519564
0.519602
0.519633
0.519633
0.519613
0.519571
0.519548
0.51955
0.519572
0.519605
0.528412
0.567905
0.691473
0.874664
1.06383
1.23109
1.27252
1.30087
1.29824
1.27251
1.26873
1.28015
1.29716
1.29647
1.28963
1.28027
1.28126
1.28915
1.29295
1.29062
1.2845
1.28468
1.28806
1.28975
1.28867
1.28619
1.28628
1.28688
1.2876
1.2881
1.289
1.28948
0.51953
0.519529
0.519529
0.519529
0.519533
0.519537
0.519538
0.519537
0.519536
0.519535
0.519535
0.519533
0.51953
0.519527
0.519523
0.519516
0.519506
0.519499
0.519492
0.51948
0.519462
0.51944
0.519418
0.5194
0.519378
0.519363
0.519361
0.519359
0.519349
0.519344
0.519344
0.519347
0.519359
0.519382
0.51941
0.519438
0.519463
0.519481
0.519495
0.519511
0.519534
0.519569
0.51962
0.519664
0.519682
0.519686
0.519684
0.519672
0.519632
0.519549
0.519473
0.519456
0.519457
0.519457
0.519466
0.519513
0.519563
0.519573
0.51959
0.519613
0.519633
0.519635
0.519622
0.519585
0.519547
0.519547
0.519583
0.519684
0.519838
0.519905
0.521012
0.536075
0.625504
0.795014
0.9862
1.16359
1.20423
1.24497
1.27116
1.30555
1.30754
1.29759
1.2763
1.27689
1.28529
1.29545
1.29356
1.28492
1.28161
1.28544
1.29007
1.28958
1.28634
1.28513
1.28594
1.28714
1.28755
1.28806
1.28896
1.28914
0.519511
0.519511
0.519511
0.519516
0.519521
0.519522
0.519523
0.519527
0.51953
0.519533
0.519535
0.519532
0.519526
0.519524
0.519525
0.519525
0.519523
0.519517
0.519509
0.519499
0.519487
0.519472
0.519455
0.519433
0.519409
0.519397
0.519394
0.519393
0.519393
0.519395
0.5194
0.519412
0.519436
0.519468
0.519496
0.519513
0.519514
0.519513
0.519515
0.519523
0.519542
0.519577
0.519627
0.519653
0.519653
0.519663
0.519671
0.519662
0.519619
0.519538
0.519512
0.51952
0.519538
0.519553
0.519575
0.519621
0.519646
0.51964
0.519628
0.519623
0.519628
0.519627
0.519618
0.519578
0.51954
0.519544
0.519621
0.519813
0.520072
0.520145
0.520154
0.520221
0.520245
0.526522
0.588451
0.732268
0.948021
1.16531
1.24924
1.29427
1.29296
1.2675
1.26825
1.28341
1.29726
1.29656
1.28562
1.27909
1.28156
1.2909
1.2908
1.28713
1.28398
1.28468
1.28693
1.28723
1.28739
1.28797
1.28887
1.28874
0.519449
0.519454
0.519459
0.519465
0.519471
0.519476
0.519481
0.51949
0.519503
0.519507
0.519506
0.519505
0.519506
0.519508
0.519506
0.519503
0.519497
0.519489
0.519487
0.519492
0.519491
0.519485
0.519491
0.5195
0.519502
0.519515
0.519545
0.519559
0.519559
0.519554
0.519549
0.519552
0.519564
0.519571
0.51957
0.519563
0.519542
0.519519
0.519508
0.519504
0.519511
0.519539
0.519558
0.519569
0.519583
0.519616
0.519631
0.519629
0.519603
0.519562
0.51956
0.519573
0.519597
0.519639
0.519683
0.519715
0.519709
0.519678
0.519626
0.519597
0.519601
0.519616
0.519623
0.519615
0.519593
0.519617
0.519725
0.519992
0.520228
0.520252
0.52025
0.520258
0.520258
0.520189
0.519958
0.522185
0.566789
0.696455
0.908035
1.11885
1.19363
1.24061
1.27103
1.30924
1.30724
1.29035
1.274
1.27721
1.29014
1.2955
1.29097
1.28287
1.28324
1.28637
1.28793
1.2873
1.28749
1.28878
1.28918
1.28823
0.519416
0.519423
0.519431
0.51944
0.519449
0.51946
0.519471
0.519481
0.519487
0.519495
0.519506
0.519518
0.519528
0.519532
0.519534
0.519535
0.519538
0.519546
0.519558
0.519574
0.519596
0.519636
0.519679
0.519683
0.519685
0.519708
0.519731
0.519732
0.519727
0.519712
0.519687
0.519661
0.519642
0.519623
0.519602
0.519582
0.519552
0.519508
0.519486
0.519469
0.519455
0.519453
0.519465
0.519499
0.519551
0.51961
0.51963
0.519637
0.519643
0.519626
0.519595
0.51959
0.519603
0.519647
0.519706
0.519749
0.519745
0.519685
0.519578
0.519532
0.51954
0.519597
0.519626
0.519677
0.519751
0.519796
0.519891
0.520136
0.52031
0.520316
0.520282
0.520225
0.520125
0.519941
0.51975
0.519714
0.519689
0.520729
0.55671
0.673055
0.897092
1.14144
1.24732
1.29689
1.29323
1.26561
1.27242
1.28934
1.29944
1.29542
1.2812
1.28078
1.28522
1.2887
1.28785
1.28709
1.28826
1.28979
1.28939
1.28767
0.519416
0.519429
0.519444
0.519461
0.519478
0.519498
0.519521
0.519544
0.519569
0.519599
0.519627
0.519647
0.519663
0.519678
0.519691
0.519702
0.51971
0.519717
0.519726
0.519731
0.519738
0.519757
0.51978
0.519798
0.519828
0.519844
0.519844
0.519839
0.519821
0.519791
0.519752
0.519706
0.519654
0.519594
0.519547
0.519523
0.519504
0.519473
0.519439
0.519418
0.519407
0.519409
0.519425
0.519463
0.519549
0.519637
0.519654
0.519671
0.519692
0.519683
0.519621
0.519577
0.519576
0.519612
0.519689
0.519738
0.519735
0.519674
0.519564
0.519509
0.519498
0.519574
0.519699
0.519836
0.519977
0.519999
0.520037
0.520217
0.520347
0.52034
0.520271
0.52011
0.519904
0.519724
0.519676
0.519686
0.519695
0.519786
0.519907
0.520525
0.550367
0.672827
0.892254
1.12262
1.19244
1.24254
1.28593
1.30975
1.30593
1.28263
1.27467
1.28159
1.29158
1.2904
1.28651
1.287
1.29035
1.29053
1.28869
1.2874
0.519576
0.519592
0.519606
0.519615
0.519627
0.519643
0.519659
0.519674
0.519688
0.519706
0.519728
0.519744
0.519748
0.519751
0.519764
0.519765
0.519753
0.519744
0.51974
0.519736
0.519732
0.519731
0.519749
0.519785
0.519837
0.519851
0.519849
0.51984
0.51982
0.51977
0.519701
0.519647
0.519611
0.519564
0.519513
0.519494
0.519473
0.519447
0.519443
0.519451
0.519463
0.519478
0.519526
0.51958
0.519661
0.519761
0.519795
0.519805
0.519796
0.519757
0.519658
0.519561
0.519534
0.519548
0.519629
0.519708
0.519741
0.519697
0.519585
0.51953
0.519563
0.519767
0.520008
0.520132
0.52016
0.520149
0.520158
0.520278
0.520362
0.520328
0.520157
0.519901
0.519686
0.519641
0.519682
0.519752
0.519856
0.51999
0.520132
0.520155
0.520019
0.520309
0.553066
0.675789
0.920089
1.16864
1.26193
1.29752
1.2876
1.26408
1.27588
1.29452
1.29353
1.28689
1.28558
1.28932
1.2921
1.29072
1.28758
1.28745
0.519716
0.519716
0.519707
0.5197
0.519699
0.519701
0.519703
0.519704
0.51971
0.519708
0.519696
0.519691
0.519689
0.519695
0.519692
0.519686
0.519681
0.519675
0.519676
0.519677
0.51968
0.519702
0.519715
0.519701
0.519697
0.519703
0.519695
0.519668
0.519626
0.519604
0.519604
0.519607
0.519601
0.519571
0.519524
0.519498
0.519516
0.519543
0.51956
0.519602
0.519614
0.519613
0.51966
0.519722
0.5198
0.519924
0.519957
0.519953
0.519922
0.519836
0.519643
0.519472
0.519414
0.519418
0.519472
0.519628
0.519776
0.5198
0.519754
0.519709
0.519725
0.519912
0.520286
0.520359
0.520317
0.520247
0.520239
0.520299
0.520289
0.520172
0.519954
0.519705
0.519629
0.519666
0.519754
0.519944
0.520051
0.52014
0.520169
0.520048
0.519685
0.519207
0.51896
0.519619
0.559074
0.709242
0.941401
1.15995
1.22432
1.25604
1.30459
1.30664
1.29493
1.28008
1.28507
1.29393
1.29313
1.28772
1.28678
1.2878
0.519735
0.519707
0.519685
0.519682
0.519683
0.519678
0.519664
0.519643
0.519621
0.5196
0.519592
0.519589
0.519573
0.519517
0.519493
0.519494
0.5195
0.519506
0.519523
0.519542
0.519541
0.519547
0.519548
0.519522
0.519498
0.519508
0.519534
0.519541
0.519545
0.51956
0.519575
0.519585
0.5196
0.519628
0.519649
0.519645
0.519682
0.519765
0.519764
0.519721
0.519704
0.519697
0.519719
0.519775
0.519817
0.519905
0.519977
0.51997
0.519903
0.519776
0.519523
0.519315
0.51927
0.519291
0.519368
0.519552
0.519849
0.520077
0.520113
0.520073
0.51997
0.520036
0.520362
0.520497
0.520466
0.520329
0.520241
0.520135
0.520007
0.519894
0.519773
0.519666
0.519666
0.519758
0.519975
0.520165
0.520223
0.520225
0.520136
0.519792
0.519278
0.51891
0.518912
0.519126
0.519512
0.521619
0.57274
0.741748
1.01935
1.21181
1.29726
1.29205
1.26954
1.27885
1.2953
1.29588
1.28894
1.28474
1.28675
1.2887
0.519557
0.519556
0.51956
0.519568
0.519582
0.519589
0.519584
0.519562
0.519531
0.519521
0.519519
0.519519
0.519501
0.519443
0.519426
0.519427
0.519438
0.519464
0.519496
0.519542
0.519579
0.519592
0.519587
0.519569
0.519568
0.519579
0.519597
0.519607
0.519623
0.519655
0.519695
0.519753
0.519847
0.519882
0.519881
0.519871
0.519912
0.519955
0.519937
0.51982
0.519739
0.519723
0.519732
0.519777
0.519797
0.519847
0.519944
0.519922
0.519893
0.519808
0.519545
0.519297
0.519247
0.51931
0.519495
0.519804
0.520162
0.520384
0.520419
0.520382
0.520204
0.52019
0.520384
0.520548
0.520539
0.520396
0.520127
0.519802
0.519682
0.519705
0.519727
0.519761
0.519863
0.520045
0.520247
0.520333
0.520321
0.520237
0.519908
0.519307
0.518947
0.518821
0.518964
0.5197
0.520376
0.520448
0.520188
0.523962
0.594925
0.808689
1.08928
1.18128
1.24706
1.29584
1.3063
1.29755
1.28071
1.28327
1.29034
1.28933
0.519474
0.519526
0.519571
0.519576
0.519576
0.519585
0.51959
0.519592
0.519593
0.519596
0.519604
0.519615
0.51963
0.51965
0.51967
0.519693
0.519736
0.519796
0.519838
0.519892
0.519947
0.519955
0.519946
0.519939
0.519937
0.51993
0.5199
0.519846
0.519828
0.51984
0.519866
0.51992
0.52
0.520017
0.520012
0.519976
0.519962
0.519958
0.519936
0.519812
0.519655
0.519605
0.519583
0.519579
0.519589
0.519602
0.519699
0.519812
0.51984
0.51985
0.519785
0.519531
0.519531
0.519708
0.519924
0.52014
0.520426
0.520573
0.520563
0.520513
0.520341
0.520259
0.52033
0.520408
0.520381
0.520192
0.519825
0.51954
0.519533
0.519619
0.519754
0.519892
0.520063
0.520255
0.520372
0.520377
0.52021
0.519822
0.519213
0.518809
0.518681
0.518784
0.519426
0.520311
0.520537
0.52041
0.519759
0.5191
0.51883
0.533903
0.636412
0.900379
1.17191
1.26693
1.29502
1.27238
1.27629
1.29084
1.29186
1.28665
0.519662
0.519695
0.519726
0.519757
0.519794
0.519874
0.519951
0.519969
0.51998
0.519999
0.520029
0.520076
0.520124
0.520162
0.520212
0.520247
0.520255
0.520266
0.520276
0.520276
0.520274
0.520266
0.520235
0.520177
0.520113
0.520058
0.519993
0.519898
0.519849
0.519858
0.519868
0.519833
0.519774
0.519704
0.519599
0.519455
0.519354
0.519373
0.519405
0.51937
0.519362
0.51942
0.519349
0.519249
0.519249
0.519325
0.519459
0.519743
0.519875
0.519906
0.519864
0.519885
0.520055
0.520212
0.520246
0.520286
0.520485
0.520631
0.520613
0.520474
0.520177
0.51987
0.519787
0.51983
0.519851
0.519699
0.519402
0.519302
0.519381
0.519639
0.519836
0.519969
0.520137
0.520339
0.520295
0.519945
0.519317
0.518744
0.51836
0.518379
0.518444
0.518993
0.520002
0.520437
0.520343
0.519705
0.518737
0.518351
0.518453
0.519334
0.519664
0.555774
0.714732
0.966377
1.19597
1.23257
1.28417
1.30174
1.29348
1.28124
0.519742
0.519741
0.51976
0.519809
0.51989
0.520014
0.520108
0.520128
0.520121
0.520105
0.520108
0.520131
0.520146
0.52016
0.520182
0.520183
0.520171
0.520167
0.520171
0.520162
0.520132
0.520083
0.520015
0.519928
0.519832
0.519762
0.519681
0.519464
0.519316
0.519244
0.519085
0.518911
0.518789
0.51867
0.518603
0.518603
0.518653
0.518834
0.518957
0.518942
0.518962
0.51911
0.519131
0.519047
0.519025
0.519029
0.519069
0.519357
0.519614
0.519621
0.519703
0.520034
0.520295
0.52031
0.520236
0.52016
0.520184
0.520173
0.519882
0.519416
0.519187
0.519063
0.519041
0.519097
0.519149
0.519105
0.51898
0.518975
0.519146
0.519384
0.519512
0.519702
0.519853
0.519765
0.519477
0.518832
0.518211
0.517906
0.517919
0.518016
0.518616
0.519667
0.520334
0.520183
0.519537
0.518514
0.518006
0.51805
0.518716
0.519852
0.519865
0.519181
0.521111
0.58969
0.809719
1.094
1.26231
1.29084
1.26938
1.27769
0.519538
0.51952
0.519509
0.519513
0.519544
0.519592
0.5196
0.519599
0.519577
0.519535
0.519505
0.519466
0.519399
0.519301
0.519194
0.519099
0.519016
0.518932
0.518847
0.51879
0.518735
0.51864
0.518591
0.518544
0.518496
0.518466
0.518414
0.518254
0.518174
0.518201
0.518198
0.518089
0.51803
0.518037
0.518091
0.518171
0.518288
0.518535
0.518724
0.518721
0.518762
0.518943
0.519003
0.518955
0.518951
0.518987
0.519057
0.519254
0.519471
0.519675
0.519894
0.520034
0.520069
0.519979
0.519658
0.51943
0.519442
0.519439
0.519226
0.518838
0.518637
0.518622
0.518643
0.518743
0.518859
0.518885
0.51889
0.518945
0.519187
0.51945
0.519859
0.519845
0.519722
0.519385
0.518883
0.518095
0.51773
0.517721
0.517882
0.518674
0.519803
0.520582
0.520428
0.51959
0.51866
0.517929
0.517946
0.518497
0.519777
0.520279
0.519831
0.518732
0.518345
0.51855
0.530974
0.667226
0.93192
1.14994
1.23513
1.28475
0.518839
0.518828
0.518822
0.518827
0.51884
0.518846
0.518851
0.518852
0.518846
0.518841
0.518817
0.518765
0.518726
0.518686
0.518651
0.518647
0.518661
0.518646
0.518583
0.518576
0.518558
0.518527
0.518536
0.518532
0.518503
0.518497
0.518485
0.518402
0.518361
0.518406
0.518425
0.518393
0.518423
0.518541
0.518726
0.5189
0.519101
0.51957
0.520031
0.520252
0.520574
0.520897
0.520969
0.520956
0.520866
0.520703
0.520572
0.520344
0.520133
0.520085
0.520094
0.520072
0.519999
0.519865
0.519552
0.519379
0.51937
0.519349
0.519182
0.518894
0.518854
0.518861
0.518915
0.519073
0.519439
0.519913
0.52027
0.520603
0.520844
0.520719
0.52041
0.520041
0.519567
0.518879
0.518451
0.517857
0.517854
0.518378
0.519661
0.520874
0.521565
0.521296
0.520398
0.519167
0.518442
0.518058
0.518925
0.520575
0.521493
0.521027
0.519787
0.518651
0.51912
0.520806
0.521071
0.521606
0.563956
0.77332
1.09198
1.26381
0.518757
0.518748
0.518756
0.518788
0.518823
0.518839
0.518857
0.518865
0.518865
0.518866
0.518864
0.518831
0.518806
0.518819
0.51882
0.518841
0.518944
0.519009
0.519
0.518933
0.518929
0.519026
0.519187
0.51927
0.519337
0.519429
0.519592
0.519871
0.519999
0.520109
0.520425
0.52084
0.521038
0.521188
0.521376
0.521614
0.521881
0.522161
0.522431
0.522487
0.522459
0.522414
0.522381
0.522284
0.522008
0.521647
0.521226
0.520506
0.520125
0.520107
0.52016
0.520294
0.520299
0.52016
0.519788
0.519549
0.519574
0.519727
0.52001
0.520392
0.520754
0.520982
0.521162
0.521438
0.521741
0.521888
0.522089
0.522248
0.52209
0.521478
0.520607
0.519908
0.519387
0.518762
0.51879
0.519552
0.521233
0.522695
0.523584
0.523388
0.522861
0.521599
0.520359
0.51917
0.519359
0.520932
0.523103
0.523711
0.523135
0.521898
0.520101
0.521255
0.522873
0.523784
0.523295
0.521757
0.522109
0.531805
0.634986
0.996763
0.522125
0.522187
0.522316
0.522471
0.522607
0.522819
0.523183
0.523269
0.523283
0.523365
0.523456
0.523557
0.523671
0.523761
0.523844
0.524016
0.524323
0.524474
0.524467
0.524368
0.524342
0.524459
0.52476
0.524919
0.524927
0.524909
0.524909
0.525096
0.525269
0.525242
0.525261
0.525333
0.525345
0.525219
0.525168
0.525124
0.525012
0.524931
0.524863
0.524741
0.524626
0.524474
0.524244
0.524113
0.523867
0.523514
0.523196
0.523074
0.523067
0.523167
0.523536
0.523912
0.523969
0.523914
0.523672
0.523494
0.523515
0.523686
0.524092
0.524683
0.525184
0.525312
0.525271
0.525094
0.524732
0.524341
0.524192
0.524066
0.523744
0.523171
0.522808
0.522627
0.52273
0.5233
0.524376
0.525444
0.526593
0.526542
0.52607
0.525089
0.523792
0.521785
0.52191
0.523358
0.525342
0.52751
0.527274
0.526211
0.524041
0.522905
0.524572
0.527435
0.527268
0.526286
0.524634
0.525665
0.527715
0.527647
0.527566
0.676799
0.531973
0.531851
0.531739
0.531634
0.531545
0.53146
0.531381
0.531297
0.531196
0.531074
0.530933
0.530768
0.530562
0.530301
0.530125
0.53016
0.5302
0.530135
0.529938
0.529675
0.529325
0.528985
0.528936
0.528982
0.528975
0.528771
0.528176
0.527938
0.527921
0.5278
0.527427
0.5267
0.525979
0.525649
0.525546
0.52525
0.524917
0.524906
0.524888
0.524715
0.524402
0.524382
0.524474
0.524407
0.524153
0.523924
0.52398
0.524175
0.524493
0.525071
0.525784
0.525996
0.526097
0.526376
0.526802
0.527111
0.527108
0.527204
0.5277
0.528402
0.528609
0.528465
0.528146
0.527441
0.526798
0.526682
0.526339
0.525468
0.525309
0.525835
0.527099
0.52866
0.530057
0.531079
0.531742
0.531456
0.530472
0.529173
0.5279
0.527328
0.528029
0.530202
0.532749
0.535192
0.535061
0.533724
0.531725
0.530306
0.531775
0.534522
0.536822
0.536032
0.534321
0.534487
0.535814
0.537173
0.536718
0.535923
0.536003
0.539226
0.54271
0.542497
0.542233
0.542204
0.542196
0.542211
0.542329
0.542462
0.542436
0.542345
0.542302
0.542217
0.542136
0.542211
0.542501
0.542838
0.543001
0.543091
0.543167
0.543279
0.543407
0.543471
0.543545
0.54384
0.544207
0.544366
0.544563
0.544854
0.545263
0.545733
0.545986
0.546025
0.546044
0.546296
0.546606
0.546628
0.546802
0.547369
0.547878
0.548159
0.54857
0.549325
0.549979
0.550404
0.551145
0.5524
0.552746
0.552877
0.55306
0.55329
0.553508
0.553704
0.553877
0.553841
0.553664
0.553263
0.55265
0.552401
0.552346
0.552186
0.551914
0.551585
0.551106
0.55061
0.550663
0.550884
0.551278
0.551744
0.55208
0.552341
0.552697
0.552957
0.552876
0.552458
0.551726
0.550845
0.550162
0.550364
0.551059
0.552177
0.553132
0.553523
0.553108
0.552061
0.550849
0.549755
0.550291
0.55157
0.553077
0.552784
0.551825
0.550363
0.550571
0.551352
0.551738
0.551505
0.551584
0.552069
0.552428
0.552545
0.574608
0.574544
0.574199
0.573862
0.573771
0.573766
0.574046
0.574499
0.574687
0.574631
0.574365
0.574036
0.573855
0.573836
0.573968
0.574389
0.575154
0.575393
0.575431
0.57543
0.575314
0.575148
0.575128
0.575207
0.575516
0.575666
0.575601
0.575657
0.575929
0.575949
0.575942
0.576081
0.575951
0.57547
0.575353
0.575377
0.575233
0.574621
0.573874
0.573383
0.573093
0.572762
0.572211
0.571764
0.57147
0.571065
0.570522
0.569947
0.569382
0.568774
0.568059
0.567159
0.56609
0.565
0.56458
0.56453
0.564358
0.563787
0.563046
0.562263
0.561744
0.561886
0.562422
0.563489
0.564533
0.565074
0.565543
0.566104
0.566311
0.566302
0.566035
0.565407
0.5647
0.564302
0.564176
0.564397
0.564901
0.565298
0.565724
0.56561
0.565136
0.56422
0.563125
0.562431
0.562834
0.563926
0.565413
0.565347
0.564529
0.56346
0.562787
0.563329
0.563986
0.564205
0.564
0.564119
0.56397
0.563613
0.563193
0.562825
0.603484
0.603253
0.603134
0.60326
0.603503
0.603301
0.602398
0.60157
0.601444
0.601599
0.60154
0.601083
0.601
0.60104
0.600841
0.60053
0.600777
0.601086
0.600824
0.600335
0.599875
0.599232
0.598437
0.597593
0.597308
0.59731
0.597245
0.596771
0.5962
0.59616
0.596166
0.596068
0.595903
0.595554
0.595027
0.594713
0.594463
0.594428
0.594531
0.594807
0.594941
0.594825
0.594606
0.594457
0.594266
0.59404
0.594039
0.593992
0.593719
0.593635
0.593798
0.594154
0.594469
0.594934
0.596062
0.597461
0.597712
0.597866
0.598191
0.598294
0.598383
0.598573
0.598525
0.598346
0.597832
0.596957
0.595922
0.595126
0.594425
0.593579
0.592508
0.591481
0.590571
0.589955
0.589507
0.589442
0.58935
0.588998
0.588327
0.587762
0.587199
0.586647
0.586327
0.585937
0.585643
0.585236
0.584253
0.583032
0.581829
0.581805
0.581866
0.581652
0.581116
0.579892
0.578991
0.578419
0.577548
0.576391
0.576453
0.576461
0.638611
0.638343
0.638251
0.638357
0.638781
0.638852
0.638692
0.63861
0.638576
0.638115
0.637554
0.637561
0.638142
0.638501
0.638089
0.637661
0.63769
0.637706
0.637591
0.637711
0.637944
0.637879
0.637613
0.637372
0.63701
0.636646
0.636631
0.6367
0.636473
0.636331
0.636592
0.636722
0.636604
0.635964
0.63549
0.635484
0.635464
0.635222
0.635246
0.635298
0.63504
0.63445
0.634258
0.634259
0.634206
0.633956
0.633532
0.63313
0.632693
0.632146
0.631493
0.630616
0.629545
0.628635
0.628034
0.627376
0.626553
0.625545
0.624265
0.622836
0.62147
0.620027
0.618847
0.617801
0.616469
0.614835
0.613326
0.612208
0.61217
0.611949
0.611964
0.612401
0.612573
0.612567
0.612775
0.612676
0.612236
0.611488
0.610433
0.609506
0.608433
0.607344
0.606497
0.606046
0.605326
0.604335
0.603771
0.603158
0.602868
0.602472
0.601243