/*--------------------------------*- C++ -*----------------------------------*\
  =========                 |
  \\      /  F ield         | OpenFOAM: The Open Source CFD Toolbox
   \\    /   O peration     | Website:  https://openfoam.org
    \\  /    A nd           | Version:  7
     \\/     M anipulation  |
\*---------------------------------------------------------------------------*/
FoamFile
{
    version     2.0;
    format      ascii;
    class       volScalarField;
    location    "4";
    object      T;
}
// * * * * * * * * * * * * * * * * * * * * * * * * * * * * * * * * * * * * * //

dimensions      [0 0 0 1 0 0 0];

internalField   nonuniform List<scalar> 
12750
(
99.9937
100.208
100.297
100.349
100.382
100.414
100.441
100.46
100.471
100.477
100.474
100.459
100.436
100.427
100.432
100.428
100.42
100.411
100.398
100.381
100.362
100.349
100.339
100.331
100.332
100.337
100.349
100.369
100.387
100.415
99.2663
99.2592
99.2481
99.2998
99.5132
99.7441
100.008
100.225
100.373
100.462
100.537
100.583
100.609
100.6
100.587
100.572
100.556
100.535
100.507
100.472
100.452
100.444
100.432
100.424
100.425
100.43
100.442
100.463
100.483
100.504
99.252
99.245
99.2381
99.2337
99.2318
99.2328
99.2345
99.2362
99.2354
99.3508
99.7131
100.133
100.39
100.521
100.59
100.621
100.645
100.631
100.613
100.591
100.592
100.588
100.578
100.564
100.558
100.557
100.562
100.568
100.575
100.573
99.2354
99.2314
99.2288
99.2287
99.23
99.2326
99.2354
99.2357
99.2337
99.2235
99.2108
99.2008
99.1956
99.4704
99.8441
100.239
100.448
100.572
100.657
100.706
100.704
100.688
100.674
100.654
100.64
100.629
100.624
100.616
100.607
100.593
99.2267
99.2269
99.2272
99.2283
99.2305
99.233
99.2345
99.2325
99.2236
99.2086
99.1968
99.1918
99.1921
99.1959
99.1999
99.1966
99.1921
99.6011
100.081
100.408
100.538
100.603
100.65
100.646
100.639
100.625
100.62
100.604
100.585
100.559
99.225
99.2263
99.2276
99.2294
99.2314
99.23
99.2253
99.2167
99.2058
99.1945
99.189
99.1893
99.1906
99.1942
99.2031
99.2053
99.2032
99.2067
99.2228
99.2375
99.4916
99.9775
100.206
100.377
100.43
100.471
100.47
100.46
100.447
100.436
99.2254
99.2255
99.2255
99.2239
99.2181
99.2094
99.2025
99.1985
99.1947
99.1899
99.1882
99.1914
99.1964
99.1982
99.2048
99.2191
99.2278
99.2373
99.252
99.2665
99.2772
99.2868
99.2953
99.4594
99.6659
99.9221
99.9984
100.084
100.126
100.213
99.2138
99.2111
99.2067
99.202
99.1958
99.1905
99.1891
99.1906
99.1914
99.1924
99.1976
99.206
99.2143
99.2252
99.2299
99.234
99.2437
99.26
99.2773
99.2871
99.2981
99.3133
99.3319
99.3398
99.3521
99.3654
99.3753
99.4309
99.5198
99.8385
99.2014
99.1986
99.1962
99.1937
99.1893
99.1866
99.1868
99.1899
99.2
99.2154
99.2272
99.2319
99.2365
99.2454
99.2492
99.2524
99.2665
99.2852
99.3034
99.3172
99.3206
99.3318
99.3528
99.3661
99.3792
99.393
99.4052
99.4159
99.4264
99.4482
99.1966
99.1959
99.1953
99.1936
99.1918
99.1924
99.1968
99.2124
99.2333
99.2524
99.2567
99.2544
99.2539
99.2574
99.2681
99.283
99.3043
99.319
99.3261
99.3369
99.3448
99.356
99.375
99.3922
99.4014
99.4108
99.425
99.4394
99.4514
99.4733
99.2
99.2054
99.213
99.2216
99.2301
99.2378
99.2472
99.2561
99.2646
99.2742
99.2749
99.2698
99.2699
99.2794
99.3023
99.3252
99.3389
99.3503
99.3514
99.3557
99.37
99.3867
99.4015
99.4133
99.4207
99.4303
99.4465
99.4626
99.4742
99.4928
99.2471
99.2558
99.2639
99.2705
99.2748
99.2781
99.2828
99.2816
99.2815
99.2868
99.2952
99.3018
99.3144
99.3349
99.3553
99.3667
99.3671
99.3717
99.3797
99.3872
99.4
99.417
99.4275
99.4383
99.449
99.4577
99.4692
99.4836
99.4932
99.5107
99.2971
99.2983
99.2985
99.2989
99.3005
99.304
99.3129
99.3165
99.3208
99.3315
99.3466
99.3621
99.374
99.3845
99.3945
99.3947
99.3941
99.3966
99.4093
99.4267
99.4403
99.4526
99.4586
99.4659
99.4764
99.4854
99.4949
99.5083
99.5168
99.5307
99.3435
99.3425
99.3424
99.3434
99.3476
99.3565
99.3694
99.3828
99.3937
99.4003
99.4043
99.4101
99.4122
99.4151
99.4206
99.4247
99.4309
99.441
99.4549
99.4687
99.478
99.4844
99.4893
99.4928
99.502
99.516
99.5276
99.5359
99.5415
99.5528
99.4058
99.4095
99.4106
99.4109
99.4127
99.4165
99.4232
99.4345
99.4404
99.4387
99.4385
99.443
99.4474
99.4505
99.4572
99.4691
99.4804
99.4908
99.4983
99.5042
99.5086
99.5118
99.518
99.5268
99.5364
99.547
99.5555
99.5603
99.5675
99.5811
99.4615
99.4658
99.4665
99.4643
99.4627
99.4642
99.4687
99.4773
99.485
99.4858
99.4866
99.4913
99.501
99.5099
99.5156
99.5219
99.5275
99.5324
99.5344
99.5363
99.5398
99.5462
99.5528
99.5634
99.5726
99.5797
99.5854
99.5908
99.5965
99.6072
99.5182
99.525
99.5315
99.5323
99.5305
99.5304
99.5336
99.5388
99.5456
99.5496
99.5509
99.5529
99.5582
99.5633
99.5645
99.5664
99.5698
99.5713
99.5737
99.5781
99.5851
99.5922
99.6
99.6076
99.6127
99.6166
99.6197
99.6221
99.6249
99.6315
99.5826
99.5851
99.5912
99.5973
99.6
99.6004
99.5982
99.5974
99.599
99.6037
99.6063
99.6074
99.609
99.6121
99.6139
99.6154
99.6188
99.6243
99.6288
99.6334
99.6389
99.6432
99.6481
99.6493
99.6504
99.6506
99.6513
99.6543
99.6584
99.6627
99.657
99.6569
99.6581
99.6625
99.6681
99.671
99.6707
99.6673
99.6659
99.6672
99.6701
99.6719
99.6728
99.6745
99.6764
99.6773
99.6784
99.6806
99.6829
99.6842
99.6845
99.6845
99.6838
99.6827
99.6828
99.6836
99.6861
99.6894
99.692
99.692
99.7408
99.7357
99.7343
99.735
99.738
99.742
99.7435
99.742
99.7367
99.7357
99.7368
99.7368
99.7362
99.7363
99.7362
99.7352
99.734
99.733
99.7323
99.7311
99.7295
99.7274
99.7274
99.7279
99.7289
99.7304
99.7303
99.7292
99.7266
99.7238
99.8264
99.8212
99.8152
99.8126
99.8127
99.815
99.8162
99.8158
99.8116
99.8074
99.806
99.805
99.8029
99.8011
99.7996
99.7973
99.7946
99.792
99.7897
99.7878
99.7859
99.7834
99.7813
99.779
99.7765
99.7727
99.7685
99.7645
99.761
99.7574
99.8985
99.8972
99.891
99.8855
99.8855
99.8866
99.886
99.8833
99.8783
99.8752
99.874
99.8721
99.8678
99.8638
99.861
99.858
99.8541
99.8502
99.8458
99.8415
99.8372
99.8328
99.8277
99.8226
99.8176
99.8125
99.8078
99.8037
99.8008
99.7955
99.9448
99.9447
99.944
99.9402
99.9374
99.9375
99.9374
99.936
99.9319
99.928
99.9272
99.9262
99.9232
99.9187
99.9151
99.9119
99.9082
99.9039
99.8993
99.8943
99.8893
99.884
99.8784
99.8729
99.867
99.8617
99.8559
99.8495
99.8442
99.8352
99.9653
99.9654
99.9653
99.9643
99.9624
99.9622
99.9622
99.9617
99.9605
99.9584
99.9577
99.9572
99.9559
99.9535
99.9513
99.9493
99.947
99.9441
99.9406
99.9369
99.9329
99.9283
99.9232
99.9177
99.9118
99.9054
99.8987
99.8915
99.8847
99.8739
99.9726
99.9727
99.9727
99.9723
99.9714
99.9706
99.9706
99.9707
99.9707
99.9702
99.9696
99.9693
99.9688
99.9679
99.9671
99.9664
99.9655
99.9642
99.9627
99.961
99.9589
99.9565
99.9535
99.9501
99.946
99.9413
99.936
99.9299
99.9238
99.9129
99.978
99.9783
99.9783
99.9781
99.9774
99.9765
99.9763
99.9764
99.9765
99.9762
99.9757
99.9754
99.9751
99.9746
99.9741
99.9738
99.9733
99.9727
99.972
99.9712
99.9703
99.9692
99.9679
99.9664
99.9644
99.9621
99.9592
99.9555
99.9516
99.9436
99.9865
99.9867
99.9866
99.9863
99.986
99.9855
99.9847
99.9845
99.9844
99.9841
99.9833
99.9827
99.9824
99.982
99.9814
99.9807
99.9801
99.9795
99.9788
99.9781
99.9773
99.9765
99.9756
99.9746
99.9735
99.9722
99.9707
99.9689
99.9669
99.9624
99.9959
99.9957
99.9956
99.9955
99.9954
99.9951
99.9945
99.9941
99.9939
99.9938
99.9931
99.9923
99.9919
99.9915
99.9908
99.99
99.9892
99.9884
99.9875
99.9866
99.9856
99.9846
99.9835
99.9823
99.9812
99.9799
99.9787
99.9772
99.9758
99.973
99.9996
99.9996
99.9995
99.9995
99.9995
99.9994
99.9993
99.9992
99.9991
99.999
99.9989
99.9987
99.9984
99.9982
99.9979
99.9976
99.9971
99.9966
99.996
99.9954
99.9945
99.9936
99.9926
99.9914
99.9902
99.9888
99.9873
99.9857
99.9842
99.9815
100
100
100
100
100
100
100
100
100
100
99.9999
99.9999
99.9999
99.9999
99.9999
99.9998
99.9997
99.9997
99.9995
99.9994
99.9992
99.9989
99.9985
99.998
99.9974
99.9966
99.9956
99.9943
99.993
99.9904
100
100
100
100
100
100
100
100
100
100
100
100
100
100
100
100
100
100
100
100
100
99.9999
99.9999
99.9998
99.9998
99.9996
99.9994
99.999
99.9985
99.9972
100
100
100
100
100
100
100
100
100
100
100
100
100
100
100
100
100
100
100
100
100
100
100
100
100
100
100
99.9999
99.9999
99.9997
100
100
100
100
100
100
100
100
100
100
100
100
100
100
100
100
100
100
100
100
100
100
100
100
100
100
100
100
100
100
100
100
100
100
100
100
100
100
100
100
100
100
100
100
100
100
100
100
100
100
100
100
100
100
100
100
100
100
100
100
100
100
100
100
100
100
100
100
100
100
100
100
100
100
100
100
100
100
100
100
100
100
100
100
100
100
100
100
100
100
99.2796
99.2738
99.2589
99.2409
99.2284
99.2235
99.2234
99.2148
99.2036
99.1984
99.1967
99.2389
99.294
99.3423
99.4006
99.456
99.5145
99.5822
99.6626
99.7481
99.8286
99.899
99.9456
99.9653
99.9723
99.9776
99.9867
99.9965
99.9997
100
100
100
100
100
100
99.2798
99.2726
99.2555
99.2386
99.2282
99.2224
99.2195
99.2068
99.2028
99.201
99.1996
99.245
99.3028
99.3497
99.4071
99.4626
99.5268
99.6052
99.6854
99.7634
99.8408
99.9088
99.9511
99.9668
99.9725
99.9784
99.9888
99.9973
99.9998
100
100
100
100
100
100
99.2807
99.2723
99.2545
99.2382
99.2285
99.2222
99.219
99.2041
99.2035
99.2044
99.2023
99.2461
99.3051
99.3499
99.4085
99.4696
99.5459
99.6207
99.6941
99.7703
99.8486
99.9163
99.9552
99.9679
99.9732
99.9802
99.9901
99.9977
99.9998
100
100
100
100
100
100
99.2785
99.2689
99.2536
99.238
99.2282
99.2217
99.2187
99.2022
99.2031
99.2084
99.207
99.2457
99.3081
99.3508
99.4168
99.4903
99.5596
99.628
99.7001
99.7779
99.8599
99.9265
99.9595
99.9698
99.9747
99.9813
99.9908
99.9981
99.9999
100
100
100
100
100
100
99.2739
99.266
99.2534
99.238
99.2295
99.2242
99.2184
99.1996
99.2022
99.2108
99.2099
99.2452
99.3159
99.3715
99.4386
99.5011
99.5652
99.6326
99.7059
99.7929
99.877
99.9349
99.9621
99.9707
99.9752
99.9818
99.9915
99.9984
99.9999
100
100
100
100
100
100
99.27
99.2648
99.2535
99.2384
99.2305
99.2257
99.2171
99.1956
99.1976
99.2112
99.215
99.2569
99.3314
99.3878
99.4468
99.5055
99.5679
99.6384
99.727
99.8147
99.8886
99.9404
99.9639
99.9711
99.9753
99.982
99.9924
99.9988
100
100
100
100
100
100
100
99.2671
99.2639
99.2537
99.2381
99.2293
99.2241
99.2111
99.1919
99.1922
99.2136
99.2271
99.2689
99.3397
99.3922
99.4493
99.5073
99.5759
99.6638
99.748
99.8263
99.8972
99.9457
99.9656
99.9715
99.9753
99.9826
99.9937
99.9992
100
100
100
100
100
100
100
99.265
99.2631
99.2532
99.2377
99.2279
99.2212
99.2035
99.1872
99.1921
99.2217
99.2402
99.275
99.3418
99.392
99.4489
99.5174
99.6024
99.6814
99.7581
99.8364
99.9067
99.9512
99.9671
99.9718
99.9761
99.985
99.9949
99.9994
100
100
100
100
100
100
100
99.264
99.2626
99.2527
99.2377
99.2269
99.2199
99.2
99.1857
99.1933
99.2273
99.2467
99.2771
99.3419
99.3909
99.4597
99.5418
99.616
99.6894
99.7672
99.8481
99.9179
99.956
99.9685
99.9727
99.9777
99.9865
99.9957
99.9995
100
100
100
100
100
100
100
99.2639
99.2624
99.2518
99.2367
99.226
99.22
99.1997
99.1857
99.1926
99.2288
99.2494
99.2793
99.3448
99.4101
99.485
99.5535
99.6226
99.6966
99.7789
99.865
99.9278
99.9597
99.9696
99.9735
99.9787
99.9874
99.9963
99.9997
100
100
100
100
100
100
100
99.2655
99.2622
99.2514
99.2366
99.2268
99.2216
99.2
99.1859
99.1873
99.2259
99.2517
99.2923
99.3683
99.4329
99.4959
99.5595
99.6284
99.7087
99.8014
99.8797
99.9358
99.9626
99.9702
99.9736
99.9791
99.9882
99.997
99.9998
100
100
100
100
100
100
100
99.2705
99.2632
99.2524
99.2387
99.2301
99.2255
99.1995
99.1808
99.1803
99.2171
99.2585
99.3114
99.3815
99.4412
99.501
99.565
99.6429
99.7363
99.8186
99.8912
99.9429
99.9647
99.9705
99.9736
99.9791
99.9892
99.9977
99.9999
100
100
100
100
100
100
100
99.2732
99.2649
99.2545
99.2417
99.2337
99.2297
99.1999
99.1789
99.1783
99.2174
99.2724
99.3212
99.3838
99.4439
99.5052
99.5833
99.6735
99.7535
99.8313
99.9025
99.9494
99.9664
99.9708
99.9737
99.9795
99.9909
99.9983
99.9999
100
100
100
100
100
100
100
99.2734
99.265
99.2547
99.2441
99.236
99.2317
99.2018
99.1789
99.1782
99.2253
99.2796
99.3245
99.3855
99.4448
99.5247
99.6113
99.6882
99.7651
99.8445
99.9147
99.9547
99.9679
99.9714
99.9746
99.9821
99.9926
99.9988
99.9999
100
100
100
100
100
100
100
99.2737
99.2649
99.2545
99.2448
99.2364
99.2318
99.2035
99.1839
99.1813
99.2295
99.2867
99.3269
99.3914
99.4652
99.5488
99.6225
99.6972
99.7774
99.8612
99.9256
99.959
99.9693
99.9724
99.976
99.9838
99.9936
99.999
100
100
100
100
100
100
100
100
99.2753
99.2655
99.2529
99.2415
99.2312
99.2265
99.2012
99.1924
99.1885
99.2311
99.2956
99.3436
99.4174
99.491
99.5591
99.629
99.7067
99.7965
99.8776
99.9349
99.9625
99.9702
99.9729
99.9769
99.9847
99.9944
99.9993
100
100
100
100
100
100
100
100
99.279
99.2685
99.2492
99.2347
99.2193
99.2092
99.1946
99.1969
99.1937
99.2337
99.3096
99.3708
99.4385
99.5005
99.5638
99.636
99.7281
99.8176
99.8918
99.9432
99.9652
99.9706
99.973
99.9772
99.9855
99.9953
99.9995
100
100
100
100
100
100
100
100
99.2844
99.2707
99.2475
99.2281
99.2073
99.1885
99.1879
99.201
99.2072
99.2468
99.3243
99.3822
99.4427
99.5036
99.5685
99.6614
99.7539
99.8346
99.9052
99.9505
99.967
99.9708
99.9729
99.9772
99.9867
99.9966
99.9997
100
100
100
100
100
100
100
100
99.2887
99.2734
99.2471
99.2216
99.1995
99.1758
99.1861
99.2065
99.2229
99.2614
99.3288
99.3834
99.4421
99.5065
99.5999
99.6914
99.7716
99.851
99.9184
99.9562
99.9683
99.971
99.973
99.9782
99.9892
99.9976
99.9998
100
100
100
100
100
100
100
100
99.2915
99.2769
99.2486
99.2192
99.1979
99.1728
99.187
99.2117
99.2299
99.2656
99.3294
99.3817
99.4469
99.5399
99.6297
99.7078
99.7884
99.8688
99.9298
99.9607
99.9693
99.9714
99.974
99.9808
99.991
99.9981
99.9999
100
100
100
100
100
100
100
100
99.2923
99.278
99.2574
99.2254
99.2049
99.1733
99.1873
99.2132
99.2307
99.2641
99.3295
99.396
99.4828
99.568
99.6437
99.7223
99.8075
99.8855
99.9396
99.9641
99.9701
99.972
99.9751
99.982
99.9919
99.9985
99.9999
100
100
100
100
100
100
100
100
99.2894
99.2788
99.2653
99.2356
99.2145
99.1749
99.1804
99.2067
99.2281
99.2629
99.3438
99.4276
99.5088
99.5805
99.6553
99.7402
99.8286
99.9008
99.9482
99.9667
99.9706
99.9723
99.9755
99.9828
99.993
99.9989
100
100
100
100
100
100
100
100
100
99.2813
99.2785
99.2683
99.2394
99.2158
99.1691
99.1674
99.1893
99.2268
99.2794
99.3741
99.4504
99.5195
99.5892
99.671
99.7658
99.8476
99.9154
99.9552
99.9683
99.9709
99.9723
99.9756
99.9836
99.9944
99.9993
100
100
100
100
100
100
100
100
100
99.2753
99.2746
99.2682
99.2399
99.2137
99.1623
99.1605
99.1846
99.2428
99.3121
99.3935
99.4591
99.5241
99.6018
99.7017
99.7873
99.8667
99.9291
99.9605
99.9693
99.9711
99.9724
99.976
99.9859
99.9961
99.9996
100
100
100
100
100
100
100
100
100
99.2746
99.2741
99.2625
99.2338
99.2011
99.1612
99.1625
99.2049
99.2821
99.3378
99.3998
99.4624
99.5337
99.6377
99.725
99.8089
99.8866
99.9402
99.9643
99.9701
99.9714
99.9732
99.9785
99.9887
99.9971
99.9997
100
100
100
100
100
100
100
100
100
99.2767
99.2746
99.2487
99.2091
99.1771
99.1688
99.1877
99.2426
99.3022
99.3504
99.4036
99.4748
99.5766
99.663
99.7464
99.8316
99.9042
99.9492
99.967
99.9706
99.9719
99.9742
99.9803
99.9901
99.9977
99.9998
100
100
100
100
100
100
100
100
100
99.2823
99.2695
99.2306
99.1871
99.162
99.1839
99.2113
99.2532
99.3041
99.3554
99.421
99.5188
99.6027
99.6824
99.7692
99.8549
99.9195
99.9566
99.9687
99.971
99.9721
99.9749
99.9814
99.9913
99.9983
99.9999
100
100
100
100
100
100
100
100
100
99.2898
99.2633
99.2136
99.1738
99.1579
99.1906
99.2128
99.2438
99.2969
99.3625
99.4589
99.5422
99.6192
99.7039
99.797
99.8756
99.9332
99.962
99.9697
99.9711
99.9721
99.9751
99.9822
99.9928
99.9989
99.9999
100
100
100
100
100
100
100
100
100
99.2944
99.259
99.2009
99.1637
99.1555
99.1895
99.2037
99.2281
99.3
99.3942
99.4794
99.5543
99.6363
99.7338
99.8217
99.8951
99.945
99.9658
99.9702
99.9711
99.972
99.975
99.9837
99.9947
99.9994
100
100
100
100
100
100
100
100
100
100
99.2952
99.2516
99.1955
99.1582
99.1521
99.1763
99.1978
99.2369
99.3391
99.414
99.4891
99.568
99.667
99.7632
99.8458
99.914
99.9541
99.9681
99.9705
99.9711
99.9721
99.9764
99.9869
99.9963
99.9996
100
100
100
100
100
100
100
100
100
100
99.2845
99.2443
99.1963
99.1604
99.1505
99.1699
99.1994
99.2693
99.3585
99.4242
99.499
99.5995
99.7039
99.7896
99.8696
99.9301
99.9607
99.9695
99.9708
99.9714
99.9731
99.9792
99.9891
99.9972
99.9997
100
100
100
100
100
100
100
100
100
100
99.2667
99.242
99.2131
99.1727
99.1473
99.1733
99.2267
99.284
99.3622
99.4339
99.5336
99.6452
99.7305
99.8158
99.893
99.9431
99.9652
99.9703
99.9711
99.9719
99.9744
99.9807
99.9905
99.9979
99.9999
100
100
100
100
100
100
100
100
100
100
99.2459
99.2428
99.2291
99.1839
99.148
99.1802
99.2407
99.2952
99.3637
99.4696
99.585
99.6707
99.7573
99.8452
99.9133
99.9534
99.968
99.9708
99.9713
99.9723
99.9751
99.9819
99.9921
99.9986
99.9999
100
100
100
100
100
100
100
100
100
100
99.2298
99.2481
99.2324
99.1866
99.1437
99.1707
99.2434
99.3212
99.4187
99.5239
99.6089
99.695
99.7889
99.8726
99.9309
99.9608
99.9696
99.971
99.9714
99.9723
99.9755
99.9834
99.9942
99.9992
100
100
100
100
100
100
100
100
100
100
100
99.2243
99.2513
99.2199
99.1648
99.1276
99.1659
99.2607
99.3605
99.465
99.5474
99.6301
99.7266
99.824
99.8974
99.9452
99.9656
99.9704
99.971
99.9713
99.9722
99.9762
99.9865
99.9961
99.9996
100
100
100
100
100
100
100
100
100
100
100
99.2259
99.2475
99.1824
99.1172
99.1114
99.1827
99.3011
99.3966
99.4838
99.5634
99.6606
99.7712
99.8555
99.919
99.9556
99.9684
99.9707
99.971
99.9713
99.9729
99.9791
99.9892
99.9972
99.9997
100
100
100
100
100
100
100
100
100
100
100
99.2294
99.2222
99.1474
99.0922
99.1006
99.2121
99.3335
99.4115
99.4942
99.5881
99.7132
99.8076
99.8829
99.9367
99.9627
99.9699
99.9708
99.971
99.9716
99.9744
99.9812
99.991
99.998
99.9999
100
100
100
100
100
100
100
100
100
100
100
99.2252
99.1905
99.1194
99.0904
99.1338
99.2316
99.3488
99.4192
99.5097
99.6481
99.7553
99.8402
99.9083
99.9502
99.9671
99.9705
99.9709
99.9712
99.9721
99.9753
99.9826
99.9927
99.9987
99.9999
100
100
100
100
100
100
100
100
100
100
100
99.2215
99.1685
99.0939
99.1091
99.1874
99.2418
99.3509
99.4339
99.5787
99.6987
99.7915
99.8715
99.9296
99.9598
99.9694
99.9709
99.9711
99.9714
99.9725
99.976
99.9844
99.9948
99.9993
100
100
100
100
100
100
100
100
100
100
100
100
99.2383
99.1612
99.0742
99.1144
99.2076
99.255
99.3407
99.5053
99.6409
99.7377
99.8275
99.9018
99.9464
99.9658
99.9705
99.971
99.9711
99.9715
99.9727
99.9771
99.9876
99.9967
99.9997
100
100
100
100
100
100
100
100
100
100
100
100
99.27
99.1592
99.0574
99.1042
99.2058
99.2772
99.4082
99.575
99.6811
99.7779
99.8674
99.9268
99.958
99.9689
99.9709
99.9711
99.9711
99.9714
99.973
99.9801
99.9906
99.9978
99.9998
100
100
100
100
100
100
100
100
100
100
100
100
99.2841
99.1519
99.0412
99.0933
99.1871
99.2939
99.491
99.6183
99.7236
99.827
99.9011
99.9452
99.9649
99.9703
99.971
99.9711
99.9711
99.9716
99.975
99.983
99.9927
99.9986
99.9999
100
100
100
100
100
100
100
100
100
100
100
100
99.28
99.1231
99.027
99.081
99.1919
99.3671
99.5429
99.6628
99.7803
99.8699
99.9271
99.9578
99.9686
99.9708
99.971
99.9711
99.9712
99.9726
99.977
99.9852
99.9946
99.9992
100
100
100
100
100
100
100
100
100
100
100
100
100
99.2463
99.0919
99.0272
99.077
99.2824
99.4599
99.6016
99.7261
99.8342
99.9044
99.9465
99.9653
99.9702
99.971
99.9711
99.9711
99.9716
99.9736
99.9785
99.9876
99.9965
99.9996
100
100
100
100
100
100
100
100
100
100
100
100
100
99.1705
99.0912
99.0694
99.1298
99.3637
99.5141
99.6595
99.7941
99.8783
99.9315
99.9593
99.9691
99.9708
99.971
99.9711
99.9712
99.972
99.9742
99.9802
99.9907
99.998
99.9998
100
100
100
100
100
100
100
100
100
100
100
100
100
99.0647
99.0779
99.1263
99.2216
99.4073
99.5957
99.746
99.8481
99.9135
99.951
99.9665
99.9707
99.9709
99.971
99.9711
99.9714
99.9722
99.975
99.9832
99.9934
99.9988
99.9999
100
100
100
100
100
100
100
100
100
100
100
100
100
99.0127
99.0302
99.1334
99.3017
99.4888
99.6754
99.8134
99.8935
99.9407
99.9625
99.9697
99.9711
99.9709
99.971
99.9711
99.9714
99.9724
99.9768
99.9864
99.9955
99.9994
100
100
100
100
100
100
100
100
100
100
100
100
100
100
99.0026
98.9695
99.109
99.3428
99.6074
99.7723
99.8708
99.929
99.9574
99.9681
99.9708
99.9712
99.9709
99.971
99.9711
99.9713
99.973
99.9797
99.9896
99.9973
99.9997
100
100
100
100
100
100
100
100
100
100
100
100
100
100
99.0369
98.9028
99.1276
99.4545
99.7079
99.8463
99.9165
99.9516
99.966
99.9703
99.9711
99.9712
99.9708
99.9711
99.9711
99.9715
99.9752
99.9827
99.9925
99.9985
99.9999
100
100
100
100
100
100
100
100
100
100
100
100
100
100
99.1129
98.8977
99.3089
99.651
99.8145
99.9014
99.9458
99.9638
99.9696
99.971
99.9712
99.9711
99.9708
99.9712
99.9713
99.9729
99.9774
99.9858
99.9951
99.9993
100
100
100
100
100
100
100
100
100
100
100
100
100
100
100
98.7286
99.1185
99.5235
99.7665
99.8874
99.9407
99.9618
99.969
99.9707
99.9712
99.9712
99.9711
99.9707
99.9713
99.9719
99.9742
99.9797
99.9891
99.997
99.9997
100
100
100
100
100
100
100
100
100
100
100
100
100
100
100
98.5315
99.2533
99.6957
99.8635
99.9338
99.9607
99.9688
99.9706
99.971
99.9712
99.9712
99.971
99.9707
99.9715
99.9724
99.9754
99.9825
99.9924
99.9984
99.9999
100
100
100
100
100
100
100
100
100
100
100
100
100
100
100
99.037
99.5637
99.8227
99.9279
99.96
99.9686
99.9706
99.9709
99.9711
99.9713
99.9713
99.9709
99.9706
99.9717
99.9729
99.9772
99.9863
99.9953
99.9993
100
100
100
100
100
100
100
100
100
100
100
100
100
100
100
100
99.4559
99.7595
99.9159
99.9593
99.969
99.9708
99.971
99.971
99.9711
99.9713
99.9712
99.9707
99.9706
99.9719
99.9739
99.9806
99.9901
99.9974
99.9997
100
100
100
100
100
100
100
100
100
100
100
100
100
100
100
100
99.7843
99.9135
99.9608
99.9695
99.9709
99.971
99.971
99.971
99.9712
99.9713
99.9711
99.9706
99.9706
99.9727
99.9761
99.9842
99.9933
99.9987
99.9999
100
100
100
100
100
100
100
100
100
100
100
100
100
100
100
100
99.9711
99.9712
99.9712
99.9712
99.9712
99.9711
99.971
99.971
99.9712
99.9713
99.971
99.9706
99.9711
99.9743
99.9787
99.9878
99.9962
99.9996
100
100
100
100
100
100
100
100
100
100
100
100
100
100
100
100
100
99.9711
99.9711
99.9712
99.9712
99.9712
99.9711
99.971
99.971
99.9711
99.9713
99.9712
99.9707
99.9711
99.9742
99.9788
99.9879
99.9962
99.9995
100
100
100
100
100
100
100
100
100
100
100
100
100
100
100
100
100
99.9711
99.9711
99.9712
99.9712
99.9712
99.9712
99.971
99.9709
99.971
99.9713
99.9713
99.9709
99.9713
99.975
99.9808
99.9906
99.9976
99.9998
100
100
100
100
100
100
100
100
100
100
100
100
100
100
100
100
100
99.9712
99.9712
99.9711
99.9712
99.9712
99.9712
99.9711
99.9709
99.9709
99.9712
99.9714
99.971
99.9714
99.9755
99.9823
99.9921
99.9983
99.9999
100
100
100
100
100
100
100
100
100
100
100
100
100
100
100
100
100
99.9712
99.9712
99.9711
99.9711
99.9711
99.9712
99.9712
99.971
99.9709
99.971
99.9714
99.9711
99.9714
99.9762
99.9843
99.9937
99.9988
99.9999
100
100
100
100
100
100
100
100
100
100
100
100
100
100
100
100
100
99.9713
99.9712
99.9711
99.9711
99.9711
99.9712
99.9712
99.9711
99.9709
99.9709
99.9714
99.9715
99.972
99.9778
99.9861
99.9949
99.9992
100
100
100
100
100
100
100
100
100
100
100
100
100
100
100
100
100
100
99.9713
99.9712
99.9711
99.9711
99.9711
99.9712
99.9713
99.9712
99.9709
99.9707
99.9714
99.972
99.9726
99.9789
99.9876
99.9962
99.9995
100
100
100
100
100
100
100
100
100
100
100
100
100
100
100
100
100
100
99.9713
99.9712
99.9711
99.971
99.971
99.9712
99.9713
99.9712
99.9709
99.9706
99.9711
99.9723
99.9732
99.98
99.9897
99.9973
99.9997
100
100
100
100
100
100
100
100
100
100
100
100
100
100
100
100
100
100
99.9713
99.9712
99.9711
99.9711
99.971
99.9711
99.9713
99.9712
99.9708
99.9705
99.9708
99.9724
99.9741
99.982
99.9917
99.9981
99.9998
100
100
100
100
100
100
100
100
100
100
100
100
100
100
100
100
100
100
99.9712
99.9712
99.9712
99.9711
99.971
99.9711
99.9713
99.9712
99.9709
99.9705
99.9708
99.9729
99.9756
99.9839
99.9931
99.9987
99.9999
100
100
100
100
100
100
100
100
100
100
100
100
100
100
100
100
100
100
99.9712
99.9712
99.9712
99.9711
99.971
99.971
99.9713
99.9713
99.971
99.9705
99.9709
99.9735
99.9767
99.9853
99.9946
99.9992
100
100
100
100
100
100
100
100
100
100
100
100
100
100
100
100
100
100
100
99.9712
99.9712
99.9712
99.9711
99.971
99.971
99.9712
99.9713
99.9711
99.9705
99.9708
99.9737
99.9778
99.9875
99.9961
99.9995
100
100
100
100
100
100
100
100
100
100
100
100
100
100
100
100
100
100
100
99.9712
99.9712
99.9712
99.9711
99.971
99.971
99.9711
99.9713
99.9712
99.9704
99.9707
99.9737
99.9798
99.9899
99.9972
99.9997
100
100
100
100
100
100
100
100
100
100
100
100
100
100
100
100
100
100
100
99.9712
99.9712
99.9712
99.9711
99.9711
99.971
99.971
99.9713
99.9713
99.9706
99.971
99.9751
99.982
99.9915
99.998
99.9998
100
100
100
100
100
100
100
100
100
100
100
100
100
100
100
100
100
100
100
99.9712
99.9712
99.9712
99.9712
99.9711
99.971
99.971
99.9712
99.9714
99.9711
99.9715
99.9763
99.9835
99.9932
99.9988
99.9999
100
100
100
100
100
100
100
100
100
100
100
100
100
100
100
100
100
100
100
99.9712
99.9712
99.9712
99.9712
99.9712
99.9711
99.9709
99.9709
99.9713
99.9713
99.9717
99.9769
99.9856
99.9951
99.9992
100
100
100
100
100
100
100
100
100
100
100
100
100
100
100
100
100
100
100
100
99.9712
99.9711
99.9712
99.9712
99.9713
99.9712
99.9709
99.9705
99.971
99.9714
99.9718
99.9785
99.9883
99.9964
99.9996
100
100
100
100
100
100
100
100
100
100
100
100
100
100
100
100
100
100
100
100
99.9712
99.9711
99.9712
99.9712
99.9713
99.9712
99.9708
99.9704
99.9707
99.9718
99.9732
99.981
99.9903
99.9975
99.9998
100
100
100
100
100
100
100
100
100
100
100
100
100
100
100
100
100
100
100
100
99.9712
99.9711
99.9711
99.9712
99.9713
99.9713
99.9709
99.9704
99.9707
99.9726
99.9748
99.9824
99.992
99.9984
99.9999
100
100
100
100
100
100
100
100
100
100
100
100
100
100
100
100
100
100
100
100
99.9712
99.9712
99.9711
99.9711
99.9713
99.9713
99.971
99.9704
99.9707
99.9731
99.9757
99.9841
99.9942
99.999
99.9999
100
100
100
100
100
100
100
100
100
100
100
100
100
100
100
100
100
100
100
100
99.9713
99.9712
99.9711
99.9711
99.9712
99.9713
99.971
99.9703
99.9705
99.9732
99.9769
99.9872
99.9959
99.9994
100
100
100
100
100
100
100
100
100
100
100
100
100
100
100
100
100
100
100
100
100
99.9713
99.9713
99.9711
99.971
99.9712
99.9713
99.971
99.9701
99.9704
99.9733
99.9796
99.9897
99.9971
99.9997
100
100
100
100
100
100
100
100
100
100
100
100
100
100
100
100
100
100
100
100
100
99.9713
99.9713
99.9711
99.971
99.9711
99.9712
99.9711
99.9703
99.9706
99.9747
99.9819
99.9915
99.9981
99.9998
100
100
100
100
100
100
100
100
100
100
100
100
100
100
100
100
100
100
100
100
100
99.9713
99.9713
99.9712
99.9712
99.9712
99.971
99.9712
99.9708
99.9712
99.9762
99.9838
99.9936
99.9989
99.9999
100
100
100
100
100
100
100
100
100
100
100
100
100
100
100
100
100
100
100
100
100
99.9711
99.9713
99.9713
99.9713
99.9711
99.9707
99.9711
99.9711
99.9715
99.9771
99.9863
99.9956
99.9994
100
100
100
100
100
100
100
100
100
100
100
100
100
100
100
100
100
100
100
100
100
100
99.9709
99.9712
99.9714
99.9714
99.971
99.9703
99.9706
99.9712
99.9718
99.9792
99.9894
99.9971
99.9997
100
100
100
100
100
100
100
100
100
100
100
100
100
100
100
100
100
100
100
100
100
100
99.9709
99.9712
99.9715
99.9715
99.9709
99.9701
99.9703
99.9716
99.9737
99.9821
99.9917
99.9981
99.9998
100
100
100
100
100
100
100
100
100
100
100
100
100
100
100
100
100
100
100
100
100
100
99.9709
99.9713
99.9716
99.9715
99.9709
99.97
99.9702
99.9725
99.9756
99.984
99.9937
99.9989
99.9999
100
100
100
100
100
100
100
100
100
100
100
100
100
100
100
100
100
100
100
100
100
100
99.9712
99.9714
99.9717
99.9715
99.9708
99.9699
99.9702
99.9732
99.9769
99.9864
99.9958
99.9994
100
100
100
100
100
100
100
100
100
100
100
100
100
100
100
100
100
100
100
100
100
100
100
99.9713
99.9714
99.9716
99.9712
99.9707
99.9698
99.97
99.9733
99.9789
99.9899
99.9974
99.9997
100
100
100
100
100
100
100
100
100
100
100
100
100
100
100
100
100
100
100
100
100
100
100
99.9715
99.9713
99.9713
99.9709
99.9707
99.9698
99.97
99.974
99.9824
99.9925
99.9984
99.9999
100
100
100
100
100
100
100
100
100
100
100
100
100
100
100
100
100
100
100
100
100
100
100
99.9716
99.9712
99.9711
99.9706
99.971
99.9705
99.9706
99.9765
99.9851
99.9944
99.9991
99.9999
100
100
100
100
100
100
100
100
100
100
100
100
100
100
100
100
100
100
100
100
100
100
100
99.9718
99.9713
99.971
99.9703
99.9711
99.9712
99.9716
99.9782
99.9877
99.9965
99.9996
100
100
100
100
100
100
100
100
100
100
100
100
100
100
100
100
100
100
100
100
100
100
100
100
99.9719
99.9714
99.971
99.9698
99.9703
99.9714
99.9722
99.9802
99.991
99.998
99.9998
100
100
100
100
100
100
100
100
100
100
100
100
100
100
100
100
100
100
100
100
100
100
100
100
99.972
99.9714
99.9708
99.9695
99.9696
99.9713
99.974
99.9842
99.9939
99.9989
99.9999
100
100
100
100
100
100
100
100
100
100
100
100
100
100
100
100
100
100
100
100
100
100
100
100
99.9719
99.9714
99.9708
99.9694
99.9695
99.9717
99.9771
99.9872
99.9958
99.9994
100
100
100
100
100
100
100
100
100
100
100
100
100
100
100
100
100
100
100
100
100
100
100
100
100
99.9719
99.9715
99.9709
99.9694
99.9697
99.9736
99.9797
99.9898
99.9976
99.9998
100
100
100
100
100
100
100
100
100
100
100
100
100
100
100
100
100
100
100
100
100
100
100
100
100
99.9719
99.9715
99.9708
99.9697
99.97
99.9747
99.9823
99.9931
99.9987
99.9999
100
100
100
100
100
100
100
100
100
100
100
100
100
100
100
100
100
100
100
100
100
100
100
100
100
99.9717
99.9712
99.9701
99.9696
99.9699
99.9762
99.9865
99.9958
99.9994
100
100
100
100
100
100
100
100
100
100
100
100
100
100
100
100
100
100
100
100
100
100
100
100
100
100
99.9711
99.9704
99.9696
99.9698
99.9707
99.9799
99.9904
99.9975
99.9997
100
100
100
100
100
100
100
100
100
100
100
100
100
100
100
100
100
100
100
100
100
100
100
100
100
100
99.9709
99.9698
99.9695
99.9709
99.9738
99.9833
99.9931
99.9987
99.9999
100
100
100
100
100
100
100
100
100
100
100
100
100
100
100
100
100
100
100
100
100
100
100
100
100
100
99.9709
99.9693
99.9695
99.9722
99.9763
99.9863
99.9959
99.9994
100
100
100
100
100
100
100
100
100
100
100
100
100
100
100
100
100
100
100
100
100
100
100
100
100
100
100
99.9711
99.9687
99.9694
99.9731
99.9789
99.9907
99.9979
99.9998
100
100
100
100
100
100
100
100
100
100
100
100
100
100
100
100
100
100
100
100
100
100
100
100
100
100
100
99.971
99.9683
99.969
99.9743
99.9836
99.9942
99.999
99.9999
100
100
100
100
100
100
100
100
100
100
100
100
100
100
100
100
100
100
100
100
100
100
100
100
100
100
100
99.9701
99.9684
99.9691
99.9775
99.9883
99.9966
99.9996
100
100
100
100
100
100