/*--------------------------------*- C++ -*----------------------------------*\
  =========                 |
  \\      /  F ield         | OpenFOAM: The Open Source CFD Toolbox
   \\    /   O peration     | Website:  https://openfoam.org
    \\  /    A nd           | Version:  7
     \\/     M anipulation  |
\*---------------------------------------------------------------------------*/
FoamFile
{
    version     2.0;
    format      ascii;
    class       volScalarField;
    location    "4.5";
    object      p;
}
// * * * * * * * * * * * * * * * * * * * * * * * * * * * * * * * * * * * * * //

dimensions      [1 -1 -2 0 0 0 0];

internalField   nonuniform List<scalar> 
90000
(
0.643758
0.661772
0.681432
0.700972
0.720249
0.738973
0.75749
0.775432
0.793262
0.810467
0.827617
0.844035
0.860457
0.875938
0.891535
0.905846
0.920424
0.933313
0.946532
0.957802
0.968947
0.978791
0.987019
0.994562
1.00208
1.00461
1.00867
1.01124
1.01097
1.00973
1.00751
1.00497
0.998797
0.99221
0.988312
0.987936
0.988548
0.989893
0.992366
0.995308
0.997112
0.998636
1.00024
1.00198
1.00136
0.999893
0.997216
0.994873
0.993128
0.991918
0.992009
0.992872
0.995107
0.997912
1.0001
0.999856
0.998922
0.997461
0.996231
0.995629
0.995885
0.996586
0.997679
0.999081
0.99891
0.998229
0.997598
0.997638
0.998139
0.998932
0.99934
0.998795
0.998069
0.997863
0.99821
0.998695
0.998723
0.99873
0.998602
0.998579
0.99856
0.998503
0.998514
0.998672
0.998847
0.998705
0.998534
0.998454
0.998482
0.998654
0.998914
0.999472
0.999651
0.999672
0.999458
0.998984
0.998025
0.996098
0.993073
0.985294
0.629683
0.630758
0.632792
0.635922
0.640119
0.645523
0.65197
0.659694
0.668387
0.678431
0.689379
0.701664
0.71472
0.729016
0.743882
0.759843
0.776012
0.793135
0.809957
0.827471
0.8445
0.861224
0.878217
0.893095
0.908835
0.922102
0.935239
0.945675
0.956025
0.963184
0.969904
0.973826
0.979313
0.98582
0.993547
0.998887
1.00194
1.00417
1.00547
1.00505
1.00342
1.00228
1.0009
0.998257
0.995177
0.994543
0.9942
0.993755
0.994055
0.995236
0.99692
0.998296
0.998791
0.998408
0.997899
0.997036
0.996533
0.996053
0.996181
0.996927
0.998005
0.998308
0.998157
0.997921
0.99761
0.997381
0.997919
0.998758
0.999119
0.999038
0.998681
0.998066
0.997967
0.998241
0.998667
0.998562
0.998349
0.998516
0.998659
0.998713
0.99858
0.998501
0.998573
0.998759
0.998734
0.998584
0.998516
0.998503
0.998557
0.99865
0.99903
0.999386
0.999587
0.999655
0.999461
0.99898
0.998016
0.996105
0.993146
0.985305
0.629274
0.629276
0.629281
0.629299
0.629335
0.62944
0.62963
0.629956
0.630466
0.631219
0.632271
0.633751
0.635724
0.63842
0.641855
0.646435
0.652007
0.659224
0.66775
0.678486
0.690754
0.705686
0.722132
0.741496
0.76204
0.785311
0.809317
0.834592
0.860625
0.885663
0.911319
0.934337
0.955976
0.969774
0.980722
0.98684
0.991535
0.994189
0.995567
0.995696
0.995513
0.99365
0.990341
0.987969
0.989153
0.991051
0.993976
0.997806
1.00092
1.00265
1.00222
1.00048
0.998024
0.994876
0.993421
0.993009
0.99356
0.995974
0.998785
0.99984
0.999453
0.997943
0.99655
0.995348
0.996093
0.998076
0.999719
0.99966
0.998779
0.997817
0.997225
0.997947
0.998821
0.998881
0.998563
0.99823
0.998383
0.998724
0.998776
0.998628
0.998475
0.998542
0.998653
0.998631
0.998628
0.998621
0.998597
0.998575
0.998563
0.99876
0.999019
0.999372
0.999631
0.999592
0.999371
0.998915
0.998028
0.996192
0.993151
0.985226
0.629201
0.629184
0.629168
0.629152
0.629139
0.629118
0.629102
0.629099
0.629108
0.629116
0.629128
0.629145
0.629167
0.629209
0.629276
0.629437
0.629717
0.630176
0.630845
0.631841
0.633258
0.635379
0.638303
0.642609
0.648289
0.656428
0.666551
0.680486
0.696868
0.718093
0.741539
0.769893
0.799792
0.830483
0.860944
0.886997
0.912887
0.930095
0.946866
0.955931
0.966001
0.970802
0.976176
0.982512
0.991632
0.997944
1.00306
1.00574
1.00584
1.00521
1.00334
0.999611
0.996606
0.992963
0.99227
0.993869
0.996681
0.999361
1.00055
0.999958
0.998193
0.99637
0.995383
0.996438
0.998042
0.999518
0.999754
0.998987
0.997894
0.997193
0.997875
0.998771
0.999265
0.998899
0.998303
0.998248
0.998428
0.998574
0.998531
0.998468
0.998559
0.998735
0.998728
0.998657
0.99858
0.998571
0.998578
0.99858
0.998652
0.998858
0.999129
0.999359
0.999434
0.999427
0.999297
0.99897
0.998155
0.996288
0.993233
0.985288
0.629158
0.629155
0.629153
0.62915
0.629147
0.629143
0.629136
0.629126
0.6291
0.629074
0.629052
0.629034
0.629024
0.629017
0.629026
0.629015
0.628998
0.628998
0.629001
0.629008
0.62902
0.629048
0.629094
0.629208
0.629406
0.629862
0.630628
0.631942
0.633984
0.637426
0.642421
0.650532
0.661489
0.678196
0.698632
0.726481
0.757365
0.793592
0.83026
0.865808
0.900533
0.928396
0.956027
0.972715
0.983572
0.988818
0.994032
0.996983
0.998152
0.995828
0.990676
0.990144
0.991829
0.995265
0.998552
1.00104
1.00099
0.999499
0.997531
0.996125
0.995423
0.996007
0.997891
0.999738
0.999674
0.998797
0.997727
0.997017
0.997275
0.998058
0.998829
0.998744
0.998469
0.998309
0.998412
0.998605
0.998673
0.998539
0.998443
0.998538
0.998718
0.998778
0.998666
0.998467
0.998447
0.998551
0.998643
0.998698
0.99881
0.99902
0.999136
0.999246
0.999371
0.999383
0.999246
0.998942
0.998159
0.996364
0.993303
0.985258
0.629126
0.629122
0.629118
0.629114
0.629111
0.629107
0.629105
0.629102
0.629099
0.629094
0.629088
0.629081
0.629072
0.629061
0.62905
0.629039
0.629025
0.628996
0.628966
0.628945
0.628929
0.628919
0.628921
0.628932
0.628995
0.628988
0.628971
0.628959
0.628963
0.629013
0.629138
0.629417
0.630032
0.631351
0.633723
0.638322
0.64553
0.658254
0.675378
0.701498
0.732015
0.770636
0.810914
0.850272
0.887812
0.913355
0.938066
0.950328
0.964116
0.97018
0.979417
0.988453
0.998093
1.0042
1.00603
1.00541
1.0031
0.998653
0.992902
0.992892
0.994335
0.997497
1.00126
1.00131
1.00035
0.998446
0.996042
0.996169
0.997416
0.998862
0.999564
0.99908
0.998225
0.997902
0.998294
0.998674
0.998711
0.99842
0.998263
0.998476
0.99883
0.998906
0.998725
0.998465
0.998448
0.99854
0.998612
0.998721
0.998956
0.999167
0.999187
0.999182
0.99919
0.999216
0.999137
0.998892
0.998185
0.99645
0.993338
0.98522
0.62909
0.629086
0.629081
0.629077
0.629073
0.629069
0.629065
0.629061
0.629058
0.629055
0.629052
0.629049
0.629046
0.629041
0.629037
0.629032
0.629026
0.62902
0.629013
0.629006
0.629
0.62899
0.628977
0.628964
0.628949
0.628931
0.628913
0.628901
0.628894
0.628895
0.628909
0.628989
0.628961
0.628942
0.628945
0.629016
0.629209
0.629774
0.631063
0.634089
0.639498
0.650295
0.666068
0.692436
0.724804
0.767618
0.812193
0.856855
0.899908
0.933628
0.96568
0.980699
0.990806
0.996358
0.9998
0.997547
0.991235
0.989542
0.991408
0.995431
0.999272
1.00163
1.00151
0.999657
0.996579
0.995387
0.995589
0.997337
0.999167
0.999078
0.998663
0.997848
0.99793
0.998387
0.998861
0.998745
0.998448
0.998283
0.998463
0.99871
0.998751
0.998687
0.998542
0.998487
0.998473
0.998566
0.998677
0.998859
0.999137
0.999196
0.999169
0.999117
0.999031
0.99908
0.999081
0.998915
0.998251
0.996543
0.993448
0.985251
0.629059
0.629055
0.62905
0.629045
0.629041
0.629036
0.629031
0.629026
0.629021
0.629016
0.629012
0.629008
0.629004
0.629
0.628996
0.628991
0.628986
0.628981
0.628978
0.628974
0.62897
0.628966
0.628963
0.628958
0.628953
0.628947
0.628939
0.628929
0.628915
0.6289
0.628889
0.628871
0.628867
0.628865
0.628869
0.628876
0.62892
0.628892
0.628863
0.628884
0.628988
0.629355
0.630346
0.632989
0.638236
0.649685
0.667215
0.697592
0.734245
0.782235
0.831332
0.874777
0.915866
0.936658
0.959484
0.967448
0.978295
0.988613
0.999261
1.00566
1.00535
1.00408
0.998579
0.993467
0.993463
0.994551
0.997407
1.00069
1.00053
0.999386
0.99725
0.99698
0.997689
0.998639
0.998964
0.998685
0.998129
0.998233
0.998691
0.999046
0.998832
0.99849
0.998432
0.998518
0.998538
0.998551
0.998686
0.998979
0.999286
0.999286
0.99914
0.999008
0.99889
0.998924
0.99896
0.998843
0.998253
0.996566
0.993439
0.985262
0.629029
0.629023
0.629018
0.629012
0.629006
0.628998
0.62899
0.628983
0.628977
0.628971
0.628966
0.628962
0.628957
0.628953
0.628949
0.628945
0.628941
0.628937
0.628932
0.628927
0.628922
0.628918
0.628915
0.628912
0.628908
0.628903
0.628902
0.628897
0.628885
0.628876
0.62887
0.628866
0.628855
0.628841
0.628828
0.628823
0.628808
0.628804
0.628805
0.628811
0.628841
0.628822
0.62881
0.628836
0.628956
0.629418
0.630653
0.634109
0.640985
0.656316
0.679345
0.718687
0.76515
0.819965
0.874391
0.918483
0.961735
0.98099
0.99278
0.999158
0.999546
0.994087
0.988628
0.990557
0.995346
0.999424
1.00097
1.00068
0.998817
0.996299
0.996246
0.997374
0.998988
0.998871
0.998457
0.997792
0.997928
0.998657
0.999045
0.998873
0.9986
0.998364
0.998433
0.99859
0.998665
0.998656
0.998781
0.999104
0.999302
0.99926
0.999123
0.998924
0.998816
0.998855
0.998934
0.998825
0.998237
0.996582
0.993431
0.98522
0.629025
0.629015
0.629007
0.629001
0.628994
0.628984
0.62897
0.62896
0.628952
0.628944
0.628937
0.62893
0.628925
0.628919
0.628913
0.628908
0.628904
0.628901
0.628897
0.628889
0.628882
0.628877
0.628874
0.62887
0.628865
0.628864
0.628868
0.628862
0.628851
0.628845
0.628841
0.628839
0.62883
0.62882
0.628813
0.628806
0.628788
0.628772
0.628766
0.628765
0.628762
0.628774
0.628789
0.628809
0.628856
0.628885
0.628935
0.629036
0.629307
0.630138
0.632262
0.638206
0.649759
0.674873
0.70967
0.762298
0.819229
0.87133
0.918887
0.942446
0.963934
0.972085
0.987655
0.997147
1.00432
1.00399
1.00249
0.997535
0.993421
0.994035
0.996524
0.999978
0.999948
0.998901
0.996972
0.997112
0.998201
0.999451
0.99938
0.998839
0.998222
0.998276
0.998546
0.998603
0.998634
0.998727
0.999039
0.999255
0.999308
0.999194
0.999028
0.998836
0.998714
0.998752
0.99888
0.998834
0.998306
0.996646
0.993468
0.985223
0.629052
0.629043
0.629035
0.629026
0.629017
0.629007
0.628995
0.628984
0.628974
0.628961
0.628948
0.628943
0.628938
0.62893
0.628916
0.628909
0.628905
0.628901
0.628891
0.628881
0.628874
0.628869
0.628864
0.62886
0.628857
0.628856
0.628854
0.62885
0.628847
0.628847
0.62885
0.628851
0.628851
0.628852
0.628857
0.628859
0.628854
0.628848
0.628844
0.628843
0.628839
0.628834
0.628833
0.628839
0.628853
0.628888
0.628936
0.629
0.62905
0.629113
0.629213
0.629443
0.630057
0.632085
0.637015
0.650309
0.67319
0.71651
0.770557
0.832738
0.89481
0.941613
0.979238
0.990065
0.999269
0.998133
0.992312
0.990172
0.992805
0.997172
1.00084
1.00086
0.999068
0.996087
0.996054
0.997517
0.999233
0.999498
0.998811
0.998018
0.998111
0.998546
0.998754
0.998645
0.998648
0.998877
0.999305
0.999281
0.999221
0.999109
0.999001
0.998789
0.998665
0.998698
0.998807
0.998753
0.998228
0.996638
0.993488
0.98528
0.629044
0.629037
0.629028
0.629019
0.62901
0.629
0.62899
0.628981
0.628971
0.62896
0.628949
0.628938
0.628928
0.628917
0.628905
0.628896
0.628888
0.628879
0.628873
0.628869
0.628865
0.628862
0.628863
0.628867
0.628871
0.628873
0.628877
0.628883
0.628892
0.628905
0.62892
0.628938
0.628958
0.628982
0.629005
0.629027
0.629047
0.629056
0.629056
0.629054
0.629049
0.629034
0.629008
0.628982
0.628962
0.628951
0.628956
0.628974
0.628996
0.629026
0.629065
0.629128
0.629207
0.629319
0.629518
0.630135
0.63202
0.638362
0.652164
0.683923
0.729563
0.792871
0.860606
0.905283
0.950616
0.961531
0.976195
0.987172
1.00071
1.00387
1.00305
0.998933
0.993932
0.994388
0.996827
1.00021
0.99999
0.998744
0.997297
0.997609
0.998682
0.998913
0.998706
0.998523
0.998723
0.999297
0.999496
0.999324
0.999026
0.998929
0.998895
0.998776
0.998688
0.998725
0.998778
0.998669
0.998117
0.996534
0.993471
0.985372
0.629006
0.628999
0.628992
0.628984
0.628975
0.628967
0.62896
0.628953
0.628946
0.628938
0.628931
0.628923
0.628916
0.628909
0.628902
0.628895
0.628886
0.628882
0.628881
0.628878
0.628876
0.628881
0.628889
0.628894
0.6289
0.628912
0.628927
0.628945
0.628968
0.628995
0.629026
0.629061
0.629101
0.62914
0.629176
0.629214
0.629252
0.629283
0.629298
0.629299
0.629294
0.629276
0.62924
0.629193
0.62914
0.629082
0.629032
0.629
0.628989
0.628995
0.629015
0.629049
0.62911
0.629192
0.629306
0.629388
0.629418
0.629543
0.630206
0.633172
0.640929
0.66332
0.699977
0.762497
0.833357
0.895739
0.957575
0.978934
0.994883
0.997527
0.993507
0.989406
0.992351
0.997561
1.00148
1.0011
0.998386
0.99623
0.996649
0.998568
0.999424
0.999024
0.998277
0.998423
0.999229
0.999601
0.999448
0.999012
0.998879
0.998836
0.998807
0.998785
0.998769
0.998805
0.998781
0.998595
0.998
0.996399
0.993433
0.985454
0.628969
0.628963
0.628957
0.628951
0.628945
0.628938
0.628932
0.628926
0.628919
0.628912
0.628905
0.628899
0.628893
0.628889
0.628885
0.628879
0.628876
0.628881
0.628885
0.628889
0.628899
0.628917
0.628921
0.628924
0.628937
0.628958
0.628981
0.629008
0.629036
0.629065
0.6291
0.629141
0.629182
0.629222
0.629264
0.62931
0.629356
0.629398
0.629437
0.629464
0.62947
0.62946
0.629436
0.629394
0.629334
0.629255
0.629165
0.62908
0.629024
0.629002
0.628997
0.629009
0.629053
0.629126
0.629242
0.629354
0.629434
0.629477
0.629427
0.629326
0.629486
0.630757
0.63524
0.651001
0.680321
0.738811
0.809117
0.872077
0.93211
0.951087
0.969274
0.982263
1.00022
1.00465
1.00356
0.998263
0.993897
0.994864
0.998151
1.00014
0.999365
0.998029
0.998104
0.999078
0.999987
0.999753
0.998985
0.998775
0.998784
0.998824
0.998784
0.998813
0.99889
0.99887
0.998769
0.998523
0.997894
0.996284
0.993396
0.985515
0.629041
0.629037
0.629034
0.629031
0.629027
0.629023
0.62902
0.629015
0.629011
0.629007
0.629003
0.628999
0.628996
0.628993
0.628991
0.628987
0.628979
0.628978
0.628984
0.628988
0.628988
0.628993
0.628998
0.629
0.629006
0.629018
0.629034
0.629051
0.629068
0.629089
0.62912
0.629151
0.62918
0.629213
0.629254
0.629301
0.62935
0.629397
0.629442
0.629486
0.629518
0.629532
0.629528
0.62951
0.629472
0.629406
0.629318
0.629209
0.629091
0.62901
0.628993
0.629
0.629028
0.629086
0.629197
0.629354
0.629463
0.629503
0.629489
0.629446
0.629273
0.629005
0.629012
0.629675
0.632529
0.644113
0.668321
0.722814
0.792133
0.865208
0.940333
0.97174
0.993054
0.997437
0.992905
0.98966
0.993624
0.999148
1.00104
0.999829
0.996863
0.99704
0.998761
1.00023
1.00002
0.999011
0.998576
0.998716
0.998872
0.998803
0.998761
0.998871
0.998966
0.99888
0.998715
0.998473
0.99784
0.996168
0.993342
0.985549
0.629244
0.629249
0.629255
0.62926
0.629262
0.629263
0.629264
0.629264
0.629264
0.629262
0.629261
0.629259
0.629255
0.629249
0.629244
0.629238
0.62923
0.629217
0.629202
0.629185
0.629168
0.62915
0.629133
0.629116
0.629099
0.629092
0.62909
0.629084
0.62908
0.629085
0.629098
0.629113
0.629128
0.629147
0.629174
0.629206
0.629244
0.629289
0.629341
0.629398
0.629457
0.629504
0.629533
0.629541
0.629529
0.629496
0.629441
0.629356
0.629234
0.629094
0.629004
0.628995
0.629013
0.629055
0.629125
0.629248
0.629438
0.629556
0.629562
0.629527
0.629402
0.629158
0.628889
0.628787
0.628815
0.62928
0.631392
0.640504
0.661216
0.712513
0.781735
0.854184
0.922485
0.947798
0.968486
0.983993
1.00304
1.00488
1.00219
0.995171
0.995346
0.99768
1.00109
1.00082
0.998927
0.99818
0.998453
0.999021
0.998938
0.998744
0.99881
0.999018
0.998963
0.998775
0.998644
0.998462
0.997812
0.996074
0.99327
0.985566
0.629454
0.629469
0.629484
0.629497
0.629506
0.629513
0.629523
0.629535
0.629538
0.629539
0.629538
0.629538
0.629536
0.629529
0.62952
0.62951
0.629495
0.629476
0.629454
0.62943
0.629401
0.629366
0.629326
0.629282
0.62924
0.629202
0.629165
0.62913
0.629099
0.629078
0.629067
0.62906
0.629055
0.629053
0.629054
0.629058
0.629069
0.629089
0.629128
0.629189
0.629272
0.629372
0.629464
0.629522
0.629545
0.629542
0.629526
0.629486
0.629406
0.629281
0.629132
0.629028
0.629007
0.629017
0.629042
0.629098
0.629222
0.629427
0.629575
0.629571
0.629507
0.629341
0.629062
0.628806
0.628768
0.628796
0.628914
0.629417
0.631115
0.638682
0.657598
0.707924
0.777171
0.857419
0.938563
0.973158
0.995861
0.997643
0.988525
0.990649
0.996914
1.00198
1.0017
0.999124
0.996991
0.997729
0.999098
0.999128
0.998844
0.998752
0.999033
0.999071
0.998865
0.998603
0.998625
0.99851
0.997797
0.99601
0.993163
0.985491
0.629532
0.629549
0.629567
0.629585
0.629604
0.629622
0.629641
0.629655
0.629665
0.629671
0.629675
0.629675
0.629674
0.629672
0.629665
0.629655
0.62964
0.629622
0.629607
0.629588
0.629563
0.62953
0.629493
0.62945
0.6294
0.629343
0.629283
0.629224
0.62917
0.62912
0.629074
0.629033
0.629005
0.628985
0.628966
0.628954
0.628947
0.628945
0.628953
0.628986
0.629055
0.629164
0.629302
0.629432
0.62952
0.629567
0.629576
0.629569
0.629537
0.629463
0.629339
0.629178
0.629036
0.628959
0.628933
0.628936
0.628983
0.629124
0.629358
0.629542
0.629553
0.629486
0.629318
0.629057
0.628868
0.628846
0.6289
0.629066
0.629285
0.62964
0.630923
0.637723
0.656502
0.707381
0.78003
0.858458
0.925237
0.953845
0.970945
0.994653
1.00501
1.00418
0.998372
0.995194
0.996699
0.999662
0.999714
0.998892
0.99851
0.998911
0.999354
0.999113
0.998447
0.998493
0.99873
0.998607
0.997787
0.995992
0.993053
0.985334
0.629514
0.629529
0.629546
0.629563
0.62958
0.629597
0.629613
0.629628
0.629643
0.629659
0.629677
0.629686
0.629686
0.629683
0.629681
0.629678
0.629672
0.629667
0.629661
0.629651
0.629638
0.629623
0.629604
0.629579
0.629544
0.629501
0.629454
0.6294
0.629336
0.629266
0.629189
0.629109
0.629033
0.628973
0.628932
0.628908
0.628896
0.628892
0.628892
0.628899
0.628929
0.628993
0.629102
0.629249
0.629406
0.629532
0.629585
0.629584
0.62957
0.629538
0.629473
0.629353
0.629173
0.628969
0.628839
0.628808
0.628815
0.628885
0.629074
0.629346
0.629537
0.629564
0.629514
0.629371
0.629146
0.628991
0.628972
0.629023
0.62919
0.629364
0.629392
0.629567
0.630761
0.63771
0.658383
0.712067
0.787299
0.875267
0.950448
0.985406
0.999055
0.99421
0.987967
0.993448
1.00035
1.00069
0.999474
0.997577
0.998313
0.999552
0.999391
0.998391
0.998199
0.998595
0.998866
0.998621
0.997766
0.996048
0.992998
0.985157
0.629265
0.629281
0.629298
0.629316
0.629337
0.629358
0.62938
0.629405
0.629432
0.629464
0.629502
0.629549
0.629595
0.629623
0.629637
0.629646
0.629658
0.62966
0.629656
0.629652
0.629652
0.629654
0.629657
0.629662
0.629666
0.629666
0.629658
0.629635
0.629598
0.629546
0.629476
0.629387
0.629286
0.629178
0.629072
0.628976
0.628908
0.628877
0.628871
0.628873
0.628883
0.628904
0.628947
0.629025
0.629145
0.629305
0.629462
0.62954
0.629542
0.629525
0.629498
0.629452
0.62934
0.629121
0.62886
0.628743
0.628737
0.628784
0.628934
0.629168
0.629428
0.62958
0.629595
0.629557
0.62943
0.629205
0.629051
0.629035
0.629085
0.629235
0.629371
0.62937
0.629318
0.629495
0.630977
0.638719
0.663009
0.719881
0.80393
0.883683
0.937763
0.963892
0.982581
1.00402
1.00389
1.00079
0.995749
0.997003
1.00013
1.00005
0.998528
0.997722
0.998221
0.999098
0.999
0.99852
0.997754
0.996123
0.992834
0.98499
0.629023
0.629032
0.629042
0.629055
0.629067
0.62908
0.629095
0.629115
0.62914
0.629169
0.629203
0.629243
0.629286
0.629332
0.62938
0.629432
0.62949
0.629548
0.629602
0.629645
0.629673
0.629696
0.629717
0.62974
0.629768
0.629796
0.629809
0.629812
0.629813
0.629807
0.629781
0.62973
0.629655
0.629559
0.629443
0.629308
0.629162
0.629024
0.628922
0.628874
0.628864
0.628861
0.628859
0.628866
0.628894
0.62896
0.629069
0.629202
0.629319
0.629414
0.629472
0.62949
0.629479
0.629363
0.629121
0.628877
0.628777
0.628795
0.628913
0.629101
0.629296
0.629496
0.629592
0.629588
0.629538
0.629382
0.629147
0.629042
0.629047
0.629122
0.629293
0.629424
0.629441
0.629393
0.629381
0.629651
0.631652
0.640765
0.671607
0.734503
0.821154
0.918606
0.970167
0.997597
0.996932
0.988718
0.992981
1.00049
1.0014
0.999495
0.996618
0.997347
0.999315
0.99926
0.998869
0.998406
0.997828
0.996134
0.992628
0.984888
0.62896
0.628964
0.628969
0.62897
0.628972
0.628979
0.628987
0.628996
0.629006
0.629019
0.629038
0.629061
0.629088
0.62912
0.629158
0.629204
0.629257
0.629318
0.629384
0.629455
0.629531
0.629608
0.629677
0.629729
0.629771
0.629807
0.629844
0.629878
0.629897
0.629898
0.629894
0.629877
0.629844
0.62979
0.629716
0.62962
0.629491
0.629332
0.629161
0.629002
0.628884
0.628835
0.628824
0.628812
0.628792
0.628776
0.62878
0.628823
0.628918
0.629075
0.629311
0.629519
0.629588
0.629583
0.629494
0.629316
0.62913
0.629044
0.629066
0.629134
0.629212
0.629312
0.629456
0.629536
0.629524
0.629438
0.62926
0.629084
0.62905
0.62908
0.62922
0.629434
0.62953
0.629538
0.62951
0.629429
0.629444
0.629819
0.632699
0.644286
0.683642
0.756287
0.845996
0.923873
0.95522
0.975025
1.00208
1.00446
1.0011
0.994943
0.996034
0.99942
1.00012
0.999173
0.998399
0.998376
0.997964
0.995858
0.992449
0.985161
0.628985
0.62898
0.62898
0.628984
0.628984
0.628983
0.628989
0.62899
0.628989
0.628993
0.629
0.62901
0.629023
0.629035
0.629048
0.629064
0.629083
0.629107
0.629139
0.629181
0.629228
0.629284
0.629351
0.629434
0.629528
0.629619
0.629693
0.629746
0.629781
0.629807
0.629828
0.629829
0.629816
0.629792
0.629754
0.629691
0.629606
0.629505
0.62938
0.629234
0.629081
0.628942
0.628852
0.62881
0.628776
0.628738
0.628714
0.628706
0.628734
0.628841
0.62907
0.629417
0.629673
0.629724
0.629704
0.629624
0.629531
0.629462
0.629383
0.629268
0.629197
0.629187
0.629224
0.62934
0.629429
0.629429
0.629363
0.629233
0.62914
0.629145
0.629218
0.6294
0.629549
0.62957
0.62955
0.629449
0.629349
0.629305
0.629365
0.629984
0.634318
0.651403
0.702723
0.783765
0.885264
0.957191
0.994906
0.996798
0.986986
0.991238
0.999594
1.00145
0.999871
0.997524
0.998136
0.998815
0.998013
0.995193
0.992297
0.985666
0.629305
0.629273
0.629243
0.629214
0.629187
0.62916
0.629135
0.629109
0.629083
0.629056
0.629028
0.629007
0.628993
0.628981
0.628968
0.628955
0.62894
0.628928
0.628919
0.628908
0.628896
0.628891
0.628891
0.628902
0.628935
0.62899
0.62906
0.629135
0.629213
0.62929
0.629357
0.629415
0.629473
0.629534
0.629571
0.629565
0.629535
0.629494
0.629453
0.629407
0.629353
0.629285
0.629204
0.629125
0.62905
0.628949
0.628831
0.628755
0.628738
0.628783
0.628959
0.629246
0.629547
0.629731
0.629735
0.629674
0.629645
0.629654
0.629626
0.629462
0.629204
0.629128
0.629127
0.629181
0.629314
0.629442
0.629475
0.629452
0.629379
0.629327
0.629333
0.629395
0.629508
0.629538
0.629513
0.629422
0.629316
0.62926
0.629245
0.629264
0.629415
0.630618
0.637358
0.663748
0.727433
0.820369
0.905199
0.949078
0.970674
1.00006
1.00441
1.00114
0.995658
0.99706
0.999699
0.999326
0.997108
0.994653
0.992771
0.986424
0.629678
0.629635
0.629592
0.629549
0.629497
0.629446
0.6294
0.629352
0.629297
0.629241
0.629184
0.629126
0.629069
0.629013
0.628958
0.628899
0.628848
0.628805
0.628764
0.628721
0.628683
0.628648
0.628611
0.628578
0.628556
0.628553
0.628558
0.628578
0.628628
0.62871
0.628803
0.628893
0.628988
0.629089
0.629195
0.629308
0.629405
0.629451
0.629489
0.629554
0.6296
0.629641
0.629681
0.629693
0.62966
0.629561
0.629396
0.629186
0.628993
0.628933
0.628984
0.629117
0.629265
0.629421
0.629516
0.629556
0.629589
0.629643
0.62967
0.629607
0.629328
0.629132
0.629114
0.629149
0.62928
0.629471
0.629592
0.629605
0.629582
0.629517
0.629435
0.629392
0.629387
0.629402
0.629395
0.629372
0.629313
0.629277
0.629289
0.629351
0.629475
0.629535
0.629832
0.632017
0.643332
0.683629
0.75914
0.864354
0.948498
0.991419
0.997433
0.98704
0.991994
1.00021
1.00077
0.998617
0.995734
0.994906
0.993367
0.986787
0.629746
0.629729
0.629713
0.629696
0.629666
0.629634
0.629606
0.629573
0.629532
0.629485
0.629431
0.629377
0.629323
0.629262
0.629191
0.62911
0.629023
0.628929
0.628827
0.628727
0.628647
0.628594
0.628561
0.628534
0.628496
0.628449
0.628431
0.628443
0.628479
0.628535
0.628609
0.628701
0.6288
0.628897
0.628995
0.629113
0.62925
0.629376
0.629549
0.629673
0.629714
0.62978
0.629892
0.629958
0.629956
0.629895
0.62974
0.629538
0.629337
0.629143
0.629056
0.629062
0.62907
0.629088
0.629135
0.629209
0.629345
0.629553
0.629674
0.629683
0.629565
0.629375
0.629298
0.629297
0.629368
0.629521
0.629626
0.629647
0.629634
0.629587
0.62948
0.629341
0.62928
0.629274
0.629291
0.629336
0.629392
0.629425
0.629468
0.6295
0.629501
0.629535
0.629503
0.629487
0.630027
0.634339
0.654601
0.710304
0.805003
0.894788
0.947177
0.970026
1.00093
1.00372
1.0004
0.995006
0.995573
0.996184
0.994131
0.986632
0.629751
0.629758
0.629773
0.629798
0.629811
0.629819
0.629825
0.629828
0.629827
0.629817
0.629791
0.629761
0.629738
0.629708
0.629661
0.629604
0.629546
0.629487
0.629424
0.629357
0.629292
0.629237
0.629201
0.629169
0.629136
0.62909
0.629023
0.628961
0.62896
0.628971
0.628982
0.629011
0.62904
0.629035
0.62905
0.629107
0.629176
0.629256
0.629406
0.62956
0.629667
0.629787
0.629887
0.629938
0.629937
0.629877
0.629727
0.629551
0.629449
0.62936
0.629183
0.629027
0.629004
0.629005
0.628998
0.629027
0.629167
0.62941
0.629626
0.629729
0.629772
0.629746
0.629658
0.629596
0.629599
0.629605
0.629564
0.629543
0.629524
0.629489
0.629424
0.629316
0.629255
0.629252
0.629282
0.629399
0.629566
0.629628
0.629628
0.629582
0.629529
0.629452
0.629326
0.629163
0.629142
0.629304
0.630878
0.639663
0.675462
0.748681
0.856616
0.944914
0.994679
0.995864
0.987436
0.99178
0.998323
0.997639
0.99431
0.986194
0.62982
0.629865
0.629922
0.630024
0.6301
0.630108
0.630111
0.630121
0.63012
0.630109
0.630079
0.630051
0.630048
0.630033
0.629992
0.62992
0.629854
0.629812
0.629779
0.629773
0.629768
0.629784
0.629852
0.629887
0.629891
0.629883
0.629857
0.629824
0.629795
0.629727
0.629636
0.629629
0.629606
0.629417
0.629267
0.629187
0.629138
0.629131
0.629154
0.62924
0.62936
0.629405
0.629403
0.629409
0.629448
0.629435
0.629368
0.629356
0.629425
0.62948
0.629403
0.629263
0.629268
0.629281
0.629207
0.629179
0.629252
0.629431
0.62958
0.6297
0.629838
0.629874
0.629819
0.629773
0.629752
0.629631
0.629382
0.629268
0.629251
0.62925
0.62927
0.629284
0.629292
0.629318
0.629411
0.629578
0.6297
0.629708
0.629688
0.629592
0.629394
0.629176
0.629098
0.629049
0.629076
0.629165
0.629316
0.629854
0.633464
0.651453
0.705233
0.800974
0.89771
0.946559
0.972353
1.00035
1.00053
0.997059
0.992252
0.985968
0.62982
0.629878
0.62993
0.629979
0.630056
0.630099
0.630103
0.630111
0.630116
0.630109
0.630081
0.630069
0.630064
0.630032
0.629939
0.629871
0.629777
0.629703
0.629688
0.629687
0.629683
0.629707
0.629812
0.629881
0.629918
0.629969
0.63001
0.63002
0.630014
0.629964
0.629932
0.629897
0.629782
0.629495
0.629304
0.629251
0.629153
0.629017
0.628993
0.629
0.628997
0.628952
0.628872
0.628856
0.628877
0.628943
0.629066
0.629283
0.629503
0.629606
0.629622
0.629643
0.629773
0.629881
0.629854
0.629783
0.629714
0.629642
0.629629
0.629659
0.629747
0.629826
0.629804
0.629782
0.629764
0.629601
0.629287
0.629131
0.629123
0.629152
0.629234
0.62934
0.62948
0.6296
0.629688
0.629726
0.629738
0.629709
0.629604
0.629389
0.629145
0.62899
0.629008
0.629078
0.629228
0.629448
0.629577
0.629579
0.629675
0.630849
0.638874
0.67402
0.749172
0.864698
0.947962
0.994734
0.993209
0.987043
0.989145
0.987438
0.629308
0.629346
0.629353
0.62936
0.629363
0.629338
0.629281
0.629223
0.629164
0.629102
0.629029
0.628964
0.628935
0.62891
0.628862
0.628781
0.628695
0.628666
0.628639
0.628618
0.628645
0.628759
0.628886
0.629011
0.629136
0.62918
0.629183
0.629204
0.629258
0.629284
0.629261
0.629247
0.629259
0.629215
0.629103
0.629117
0.629181
0.629181
0.629165
0.629113
0.62898
0.6288
0.628635
0.628607
0.628691
0.628878
0.629132
0.629377
0.629557
0.629666
0.629694
0.629743
0.629948
0.630112
0.630128
0.630132
0.630097
0.629913
0.629685
0.629523
0.629441
0.629407
0.629415
0.629475
0.629518
0.629472
0.629303
0.629182
0.629212
0.629304
0.629422
0.629562
0.629729
0.629806
0.629797
0.629759
0.629632
0.629428
0.629238
0.629053
0.628954
0.628969
0.629057
0.629288
0.629576
0.629697
0.629674
0.629582
0.629349
0.62922
0.629608
0.633117
0.652617
0.710737
0.806857
0.914804
0.947279
0.975674
0.992586
0.988475
0.628427
0.628398
0.628365
0.628311
0.628202
0.62815
0.628136
0.628098
0.62802
0.627912
0.627818
0.62776
0.627722
0.627686
0.627643
0.627639
0.627662
0.627668
0.627651
0.627668
0.627839
0.627948
0.627972
0.628026
0.628108
0.628105
0.628077
0.628066
0.628114
0.628323
0.628719
0.628976
0.629017
0.629055
0.629142
0.629342
0.629543
0.629617
0.629661
0.629669
0.629614
0.629525
0.629379
0.629211
0.629235
0.629448
0.629638
0.629659
0.629649
0.629654
0.629646
0.629663
0.629811
0.6299
0.629894
0.629899
0.629905
0.629782
0.62947
0.629146
0.629054
0.629048
0.629071
0.629152
0.629268
0.62934
0.629415
0.629583
0.629776
0.629853
0.629844
0.629806
0.629844
0.62986
0.629802
0.629617
0.6293
0.629039
0.628912
0.628933
0.628997
0.629163
0.62945
0.629685
0.62979
0.629776
0.62965
0.629364
0.629108
0.629067
0.629106
0.629319
0.630936
0.640213
0.680819
0.763123
0.876347
0.957872
0.985436
0.98231
0.628023
0.628023
0.628041
0.628052
0.628053
0.628047
0.628004
0.627961
0.627971
0.627973
0.627895
0.62781
0.6278
0.627778
0.627763
0.627817
0.627908
0.627918
0.627916
0.628034
0.62825
0.628253
0.628301
0.628364
0.628326
0.628182
0.628087
0.628077
0.628163
0.628459
0.62895
0.629224
0.629276
0.629282
0.629399
0.629641
0.629827
0.629834
0.629758
0.629736
0.629842
0.629933
0.629932
0.630011
0.630133
0.630183
0.630116
0.629781
0.629337
0.629098
0.628999
0.62892
0.628799
0.628685
0.628659
0.628712
0.628895
0.629076
0.629063
0.62901
0.628913
0.628864
0.62888
0.628942
0.629089
0.629366
0.629621
0.629923
0.630066
0.630064
0.63
0.629857
0.629661
0.629504
0.629367
0.629202
0.628996
0.628859
0.628866
0.628997
0.629353
0.629699
0.629876
0.629864
0.629833
0.629665
0.62933
0.629016
0.629003
0.629058
0.629277
0.629642
0.629691
0.630157
0.634381
0.656636
0.727247
0.824335
0.910504
0.956885
0.630635
0.630907
0.631141
0.631301
0.631443
0.631614
0.631821
0.632088
0.632308
0.632263
0.632044
0.631917
0.631966
0.632113
0.632109
0.632095
0.632067
0.631942
0.631602
0.631235
0.631157
0.631094
0.630819
0.630551
0.630445
0.630337
0.630168
0.630101
0.630234
0.630706
0.630829
0.630763
0.63066
0.630645
0.63039
0.629642
0.629294
0.629258
0.629133
0.62904
0.629147
0.62948
0.630016
0.630507
0.630641
0.630644
0.630412
0.629637
0.628844
0.628623
0.628581
0.628528
0.628387
0.628252
0.628262
0.628384
0.628649
0.628893
0.628983
0.62902
0.629142
0.629365
0.629518
0.629672
0.629815
0.629775
0.629768
0.629891
0.629975
0.629936
0.629737
0.629377
0.629022
0.628817
0.628778
0.628837
0.628911
0.628973
0.629184
0.629566
0.629913
0.630028
0.630021
0.629919
0.629625
0.629247
0.628962
0.628935
0.629014
0.629353
0.629665
0.629836
0.629774
0.629478
0.629358
0.630994
0.643973
0.690321
0.780965
0.912761
0.637068
0.637272
0.63748
0.637675
0.63773
0.63772
0.637668
0.637655
0.637621