/*--------------------------------*- C++ -*----------------------------------*\
  =========                 |
  \\      /  F ield         | OpenFOAM: The Open Source CFD Toolbox
   \\    /   O peration     | Website:  https://openfoam.org
    \\  /    A nd           | Version:  7
     \\/     M anipulation  |
\*---------------------------------------------------------------------------*/
FoamFile
{
    version     2.0;
    format      ascii;
    class       volScalarField;
    location    "7.5";
    object      rho;
}
// * * * * * * * * * * * * * * * * * * * * * * * * * * * * * * * * * * * * * //

dimensions      [1 -3 0 0 0 0 0];

internalField   nonuniform List<scalar> 
90000
(
0.608355
0.634859
0.664293
0.694164
0.72354
0.753732
0.784063
0.814285
0.844185
0.874553
0.904646
0.934655
0.963806
0.992854
1.02088
1.04837
1.07433
1.09966
1.12284
1.14544
1.16586
1.18494
1.20357
1.21849
1.23482
1.24631
1.25838
1.26752
1.27585
1.28309
1.28754
1.29266
1.29442
1.29723
1.29728
1.29692
1.29686
1.29559
1.29426
1.29285
1.29149
1.29051
1.28897
1.28865
1.28955
1.29125
1.29347
1.29707
1.3007
1.30378
1.30659
1.30926
1.3104
1.31159
1.3101
1.30715
1.30272
1.29813
1.29726
1.2982
1.29933
1.30181
1.30588
1.30913
1.31199
1.31073
1.30763
1.30263
1.30037
1.30111
1.30205
1.306
1.31013
1.31309
1.31173
1.30844
1.3076
1.30849
1.30942
1.3122
1.3132
1.31213
1.31007
1.31011
1.31179
1.31353
1.31365
1.31289
1.31158
1.31173
1.31215
1.31304
1.31364
1.31353
1.31351
1.31365
1.31363
1.31351
1.31357
1.3141
0.588268
0.588308
0.588382
0.588531
0.588791
0.589269
0.590049
0.591421
0.593399
0.596322
0.600301
0.605655
0.612681
0.621383
0.632674
0.645712
0.662093
0.680435
0.702608
0.726783
0.754788
0.784934
0.817927
0.854012
0.890138
0.929386
0.967433
1.00603
1.04354
1.07894
1.11172
1.14416
1.16957
1.19486
1.2159
1.23125
1.24935
1.25753
1.26804
1.27494
1.28045
1.28602
1.28936
1.29086
1.29591
1.30028
1.3044
1.31132
1.31321
1.31343
1.31344
1.31329
1.31227
1.30643
1.29927
1.29275
1.29157
1.29208
1.2937
1.29694
1.30364
1.31051
1.31344
1.31244
1.30897
1.30319
1.29736
1.29497
1.29588
1.29889
1.3059
1.31258
1.31204
1.31009
1.30605
1.30283
1.30381
1.30673
1.31108
1.31267
1.3114
1.30776
1.30725
1.30816
1.31055
1.31324
1.31246
1.31
1.30941
1.31033
1.31188
1.31183
1.31184
1.31205
1.31219
1.31214
1.3119
1.31186
1.31195
1.31256
0.590083
0.590148
0.590222
0.590303
0.590399
0.590505
0.590669
0.590731
0.590778
0.590842
0.590919
0.590986
0.591051
0.591134
0.591252
0.591396
0.591578
0.591812
0.592166
0.592685
0.59353
0.595006
0.597237
0.600924
0.605895
0.613831
0.62405
0.638799
0.657127
0.681304
0.710712
0.744685
0.787132
0.830985
0.881849
0.934626
0.987864
1.0416
1.09224
1.13843
1.17886
1.21731
1.24641
1.26957
1.29435
1.30052
1.30509
1.3119
1.31364
1.31372
1.31347
1.31212
1.30512
1.28586
1.28537
1.28925
1.29572
1.30181
1.30871
1.31406
1.31775
1.31731
1.31555
1.30843
1.29899
1.29573
1.29534
1.29674
1.30264
1.31018
1.31517
1.31464
1.31077
1.30426
1.30291
1.30349
1.30766
1.31234
1.31405
1.31232
1.30806
1.30676
1.3076
1.31093
1.31306
1.31283
1.31095
1.3092
1.30944
1.31055
1.31198
1.31191
1.3115
1.31164
1.31192
1.31186
1.31151
1.31147
1.3116
1.31227
0.592206
0.592266
0.592331
0.592401
0.592474
0.592556
0.592639
0.592719
0.592802
0.592891
0.592983
0.593075
0.593164
0.593254
0.593348
0.593448
0.593553
0.593656
0.593761
0.593871
0.59406
0.594123
0.594148
0.594168
0.594198
0.594252
0.594324
0.594419
0.594556
0.5948
0.595304
0.5962
0.59797
0.601039
0.606721
0.616679
0.630814
0.655127
0.684479
0.726454
0.777618
0.835115
0.903589
0.971481
1.03971
1.0998
1.14977
1.19569
1.22979
1.24406
1.2643
1.27878
1.27966
1.28125
1.29783
1.31151
1.32471
1.3298
1.33148
1.33016
1.32777
1.3218
1.30683
1.2984
1.29581
1.29702
1.30237
1.31211
1.32206
1.32246
1.32047
1.31282
1.30625
1.30338
1.30448
1.31077
1.31821
1.31797
1.31621
1.31066
1.30773
1.30844
1.31273
1.31642
1.31521
1.31286
1.31074
1.30975
1.31145
1.31322
1.31313
1.3124
1.31193
1.31218
1.31244
1.31226
1.31187
1.31186
1.31215
1.31298
0.593926
0.593973
0.59402
0.594062
0.594107
0.594154
0.594199
0.594249
0.594306
0.59436
0.594407
0.594455
0.594502
0.594548
0.594592
0.594645
0.594694
0.594723
0.594741
0.594768
0.594809
0.594871
0.594919
0.594933
0.59494
0.594952
0.594976
0.595019
0.595067
0.595143
0.595119
0.595089
0.595052
0.595044
0.595048
0.595069
0.595119
0.595242
0.5955
0.596164
0.597795
0.601566
0.609748
0.625893
0.649699
0.692814
0.745188
0.810838
0.892407
0.976455
1.0577
1.13095
1.20363
1.258
1.28983
1.30337
1.31678
1.32213
1.32434
1.32285
1.31715
1.30113
1.29492
1.29841
1.30487
1.31658
1.32608
1.33069
1.32838
1.32467
1.31394
1.30714
1.30575
1.30826
1.31684
1.32421
1.32309
1.32057
1.31349
1.31009
1.31105
1.31642
1.32044
1.31924
1.31719
1.31332
1.31169
1.31409
1.31649
1.31599
1.3147
1.3138
1.31428
1.31471
1.31443
1.31377
1.31349
1.3137
1.31397
1.31447
0.595348
0.59536
0.595371
0.595382
0.595397
0.595413
0.595429
0.595447
0.595469
0.595487
0.595499
0.595508
0.595522
0.595549
0.595588
0.595619
0.595632
0.595631
0.595634
0.595664
0.595711
0.595735
0.595729
0.595716
0.595716
0.595718
0.595725
0.595741
0.595753
0.595764
0.595785
0.595803
0.595802
0.595797
0.595795
0.595796
0.595807
0.595822
0.595824
0.595818
0.595819
0.595824
0.59584
0.595876
0.595977
0.596347
0.597377
0.600756
0.608285
0.627908
0.659687
0.713013
0.78255
0.877477
0.973378
1.06004
1.1413
1.18985
1.23962
1.26139
1.28102
1.28532
1.30563
1.32035
1.33705
1.34448
1.34376
1.34152
1.33028
1.31273
1.30569
1.30672
1.31259
1.32294
1.33363
1.33239
1.32664
1.31604
1.31144
1.31306
1.31958
1.32634
1.32544
1.32179
1.31682
1.31435
1.31686
1.32036
1.32028
1.3186
1.31733
1.31762
1.31801
1.31769
1.31684
1.3163
1.31645
1.31663
1.31674
1.31729
0.595453
0.595461
0.595466
0.595471
0.595477
0.595485
0.595493
0.5955
0.595505
0.595508
0.595515
0.595527
0.595536
0.595541
0.595545
0.595559
0.59558
0.595597
0.595603
0.595609
0.595624
0.595637
0.595642
0.595658
0.595701
0.595745
0.595767
0.595772
0.595764
0.595741
0.595719
0.595699
0.595674
0.595651
0.59564
0.595636
0.595638
0.595644
0.595647
0.595656
0.59568
0.595715
0.595735
0.595756
0.595772
0.595767
0.59575
0.595741
0.595747
0.595792
0.595947
0.596664
0.598818
0.60784
0.626167
0.670021
0.730136
0.824127
0.9288
1.03704
1.1456
1.22874
1.29216
1.31065
1.32859
1.33644
1.33632
1.3264
1.29656
1.2979
1.30563
1.32054
1.33212
1.33679
1.33579
1.32715
1.31407
1.31132
1.31349
1.32254
1.32951
1.32919
1.32449
1.3184
1.31651
1.31881
1.32264
1.32377
1.32222
1.32025
1.32011
1.32074
1.3207
1.32014
1.31926
1.31918
1.3194
1.31963
1.31967
1.32021
0.595352
0.595355
0.595356
0.595355
0.595355
0.595355
0.595356
0.595358
0.595358
0.595357
0.595362
0.595377
0.595388
0.595389
0.595389
0.595391
0.595403
0.595431
0.595452
0.595452
0.595447
0.595443
0.595442
0.595462
0.595525
0.595605
0.595632
0.595633
0.595624
0.595591
0.595563
0.595545
0.595521
0.595479
0.595455
0.595451
0.59545
0.59545
0.59545
0.595451
0.595454
0.595465
0.595497
0.595506
0.595492
0.595485
0.59549
0.595503
0.59551
0.595514
0.595529
0.595567
0.595614
0.595659
0.595722
0.595976
0.596931
0.6021
0.615357
0.654126
0.715382
0.821536
0.938237
1.05087
1.1517
1.20689
1.25798
1.2693
1.28479
1.31275
1.33414
1.34712
1.34636
1.34329
1.32434
1.30748
1.30782
1.31261
1.32494
1.33663
1.3352
1.3264
1.31879
1.31693
1.31979
1.32563
1.32598
1.32507
1.32267
1.32148
1.32233
1.32324
1.32249
1.32106
1.32094
1.32125
1.32137
1.32142
1.32167
1.32249
0.595313
0.595312
0.595313
0.595313
0.595313
0.595313
0.595313
0.595314
0.595316
0.59532
0.595327
0.595333
0.595338
0.595348
0.595361
0.59537
0.595379
0.595394
0.595411
0.595427
0.595442
0.595462
0.595493
0.595528
0.595537
0.595528
0.595521
0.59553
0.595566
0.595572
0.595559
0.595531
0.595498
0.595478
0.595472
0.595473
0.595479
0.595484
0.595481
0.595478
0.595479
0.595485
0.595486
0.595479
0.595454
0.595448
0.59545
0.595448
0.595442
0.595443
0.595459
0.595508
0.595583
0.595658
0.595711
0.595707
0.595683
0.595655
0.595666
0.595816
0.596566
0.601999
0.617944
0.667865
0.745814
0.86885
1.00269
1.13167
1.25018
1.30205
1.32408
1.33777
1.33725
1.32191
1.29019
1.29666
1.31407
1.33108
1.33813
1.33673
1.32762
1.31355
1.31426
1.31798
1.32521
1.32919
1.3276
1.32241
1.32081
1.32236
1.32424
1.32383
1.32274
1.32148
1.32163
1.32218
1.32224
1.32226
1.32265
1.32357
0.595419
0.595419
0.595418
0.595417
0.595417
0.595418
0.595417
0.595419
0.595427
0.595439
0.595445
0.595448
0.595455
0.595474
0.595494
0.59551
0.59552
0.595523
0.595526
0.595531
0.595537
0.59556
0.595606
0.595633
0.595643
0.595647
0.595646
0.595637
0.595613
0.59557
0.595534
0.595514
0.595507
0.595514
0.595529
0.595539
0.595553
0.595578
0.595588
0.595591
0.595583
0.595569
0.595569
0.595561
0.595531
0.595515
0.595515
0.595513
0.595508
0.595502
0.595516
0.595563
0.595619
0.595664
0.595715
0.595773
0.595808
0.595803
0.5958
0.595781
0.595704
0.595632
0.595647
0.595906
0.597538
0.607411
0.637378
0.712432
0.832222
0.975591
1.09823
1.19283
1.24439
1.26792
1.28511
1.32563
1.34314
1.34535
1.34294
1.32302
1.30901
1.30951
1.31578
1.32779
1.33028
1.32876
1.32225
1.31905
1.32032
1.32522
1.32519
1.32382
1.32096
1.32115
1.32223
1.32239
1.32222
1.32236
1.32358
1.32398
0.59566
0.595657
0.595653
0.595649
0.595645
0.595643
0.595643
0.595644
0.595644
0.595647
0.595648
0.595648
0.595657
0.595674
0.595679
0.595686
0.595691
0.595691
0.595694
0.595699
0.595705
0.595715
0.595735
0.595759
0.595773
0.595773
0.595765
0.595745
0.595703
0.595661
0.595655
0.595657
0.595667
0.595699
0.595729
0.595747
0.595772
0.5958
0.595812
0.595817
0.595823
0.595844
0.595875
0.595878
0.595872
0.595865
0.595839
0.595785
0.595731
0.595695
0.595696
0.59573
0.595775
0.595817
0.595861
0.595903
0.595905
0.595878
0.595888
0.59591
0.595911
0.595854
0.595782
0.595773
0.595785
0.595846
0.596041
0.597063
0.603732
0.631869
0.705345
0.829443
0.980673
1.14846
1.26102
1.31678
1.33072
1.33737
1.32206
1.29467
1.29957
1.31628
1.32861
1.33235
1.32998
1.32062
1.31416
1.31682
1.32478
1.32656
1.32491
1.3203
1.31937
1.32097
1.32254
1.32226
1.32177
1.32229
1.32417
1.32401
0.595792
0.595788
0.595784
0.595781
0.595778
0.595774
0.59577
0.595765
0.595758
0.595749
0.595739
0.595732
0.595734
0.595736
0.595736
0.595731
0.59572
0.595719
0.595729
0.595735
0.595738
0.595735
0.595732
0.595741
0.595749
0.595749
0.595737
0.595725
0.595725
0.595728
0.595737
0.59575
0.595771
0.595816
0.595851
0.595866
0.595881
0.595897
0.595899
0.595889
0.59589
0.595913
0.595972
0.596036
0.596067
0.596062
0.596021
0.595945
0.59586
0.595803
0.5958
0.595824
0.595849
0.595862
0.595883
0.595923
0.595972
0.595983
0.595996
0.596029
0.596034
0.595997
0.595912
0.595897
0.595908
0.595962
0.596108
0.596308
0.596399
0.596483
0.59732
0.602975
0.636022
0.714667
0.866487
1.02988
1.13798
1.24428
1.25663
1.29539
1.31346
1.33895
1.33865
1.33412
1.31521
1.31128
1.31462
1.32505
1.32805
1.32568
1.31846
1.31764
1.31962
1.32282
1.32264
1.32089
1.32131
1.32325
1.32438
1.32332
0.595809
0.595805
0.595802
0.595799
0.595795
0.595787
0.595781
0.595777
0.595772
0.595767
0.59576
0.595756
0.595759
0.595762
0.595759
0.595747
0.595731
0.595725
0.595723
0.595714
0.595709
0.595705
0.595696
0.595695
0.595699
0.595705
0.595704
0.595691
0.595683
0.595685
0.595699
0.595724
0.595746
0.595769
0.59578
0.595784
0.595795
0.595809
0.595818
0.59583
0.595856
0.595902
0.595972
0.596073
0.596117
0.5961
0.596054
0.596014
0.595954
0.595859
0.595781
0.595772
0.595788
0.595789
0.59579
0.595799
0.595822
0.595875
0.595958
0.596028
0.596049
0.596034
0.595962
0.595924
0.595937
0.595995
0.59613
0.596327
0.596427
0.596431
0.596367
0.59617
0.596182
0.597024
0.61016
0.651551
0.769514
0.935217
1.10708
1.2699
1.30313
1.33312
1.3304
1.30738
1.29526
1.30694
1.3267
1.33242
1.32858
1.31616
1.31272
1.31614
1.32365
1.32353
1.32092
1.31931
1.32096
1.32435
1.32407
1.32182
0.595809
0.59581
0.595811
0.59581
0.595808
0.595797
0.595776
0.595765
0.59576
0.595756
0.595755
0.595759
0.595766
0.595763
0.595741
0.595698
0.595675
0.595664
0.59566
0.59566
0.595659
0.595651
0.595636
0.595633
0.595637
0.595647
0.595651
0.595646
0.595642
0.595642
0.595653
0.595695
0.595712
0.595712
0.595707
0.595681
0.595668
0.595668
0.595652
0.595637
0.595652
0.595734
0.595899
0.59605
0.596073
0.59604
0.596009
0.596026
0.596017
0.595935
0.595789
0.595722
0.595735
0.595731
0.595711
0.595692
0.595684
0.595699
0.595769
0.595935
0.59604
0.596046
0.596007
0.595942
0.595937
0.595974
0.59608
0.596268
0.596391
0.596382
0.596287
0.596101
0.595872
0.595784
0.5958
0.596029
0.599477
0.618552
0.70639
0.855244
1.02711
1.19719
1.22915
1.26831
1.29569
1.33553
1.33942
1.33411
1.31091
1.30878
1.31324
1.32504
1.3262
1.32236
1.31805
1.31924
1.32461
1.3251
1.32264
1.32044
0.595845
0.59586
0.595863
0.595861
0.595845
0.59584
0.59585
0.595876
0.595894
0.595905
0.595922
0.595935
0.59593
0.595897
0.595826
0.59578
0.595776
0.595783
0.595803
0.595812
0.595817
0.595821
0.595819
0.595815
0.595824
0.595833
0.595833
0.595841
0.59585
0.595849
0.595834
0.595792
0.595737
0.595708
0.595692
0.595654
0.595576
0.59556
0.595554
0.595528
0.595527
0.595593
0.595766
0.595973
0.596049
0.596044
0.596045
0.596077
0.596083
0.596032
0.59593
0.595828
0.595742
0.595714
0.595708
0.59569
0.595659
0.59565
0.595669
0.595806
0.596067
0.596136
0.59613
0.59609
0.596092
0.596134
0.596188
0.59625
0.596297
0.596244
0.59613
0.59599
0.595807
0.595703
0.595713
0.595784
0.595962
0.596187
0.59745
0.606455
0.669803
0.797918
0.991313
1.20124
1.27758
1.32514
1.32665
1.30345
1.29335
1.30713
1.32884
1.3303
1.32572
1.3151
1.31605
1.32367
1.3271
1.32468
1.31938
1.31967
0.595933
0.595989
0.595998
0.595992
0.595985
0.595986
0.59601
0.59602
0.596013
0.596014
0.59604
0.596048
0.596014
0.595913
0.59586
0.595857
0.595862
0.59589
0.595948
0.595991
0.596016
0.596029
0.59603
0.596029
0.596035
0.596072
0.596104
0.59611
0.596112
0.596099
0.596066
0.596027
0.595963
0.595871
0.595778
0.59569
0.595558
0.595498
0.595486
0.595475
0.59549
0.595567
0.595709
0.595863
0.595986
0.596066
0.596113
0.596155
0.596149
0.596081
0.595975
0.595885
0.595827
0.595822
0.595833
0.595802
0.595708
0.595698
0.595714
0.595847
0.596183
0.59631
0.596294
0.5962
0.59616
0.596173
0.596214
0.596242
0.596169
0.595944
0.59589
0.595919
0.59586
0.595812
0.59588
0.596024
0.596339
0.596581
0.596619
0.596643
0.596934
0.601074
0.647834
0.760504
0.950372
1.14181
1.2159
1.26123
1.2935
1.33987
1.34281
1.33285
1.31093
1.31159
1.3208
1.3309
1.32861
1.31918
1.31783
1.32029
0.596083
0.596092
0.596083
0.596082
0.596105
0.59611
0.596091
0.596078
0.596077
0.59609
0.596105
0.596091
0.596021
0.595933
0.595915
0.595912
0.595919
0.595968
0.596054
0.596105
0.59612
0.596138
0.59616
0.59616
0.596155
0.596162
0.596207
0.596258
0.596265
0.596253
0.596227
0.596229
0.596207
0.596136
0.596037
0.59594
0.595802
0.595624
0.595519
0.59551
0.595542
0.595616
0.595712
0.595814
0.595907
0.595997
0.596105
0.596212
0.596201
0.596103
0.595993
0.595931
0.595934
0.596034
0.596182
0.596203
0.596105
0.596011
0.596008
0.596077
0.596402
0.596533
0.596496
0.596301
0.596182
0.596193
0.596271
0.596236
0.595987
0.59573
0.595744
0.595902
0.596082
0.596228
0.59631
0.596427
0.596654
0.596747
0.596736
0.596579
0.596117
0.595431
0.595527
0.598278
0.636557
0.73721
0.932796
1.17185
1.27376
1.33215
1.32922
1.29763
1.30007
1.31855
1.33317
1.33194
1.31964
1.31485
1.31848
1.32311
0.595964
0.59596
0.59595
0.595932
0.595904
0.595896
0.595899
0.595918
0.595945
0.595944
0.595922
0.595855
0.595769
0.595752
0.595757
0.595769
0.595825
0.595968
0.596009
0.596023
0.596056
0.596119
0.596165
0.596167
0.59615
0.596148
0.59618
0.596294
0.596356
0.596373
0.596401
0.59644
0.596444
0.596412
0.596306
0.596119
0.595876
0.595657
0.595535
0.595518
0.595538
0.595595
0.595669
0.595755
0.595865
0.595976
0.596059
0.596151
0.596178
0.596069
0.595997
0.595984
0.595985
0.596105
0.596444
0.596623
0.596568
0.596324
0.596217
0.596253
0.596506
0.596695
0.596658
0.596356
0.596053
0.596031
0.596071
0.596058
0.595892
0.595707
0.595732
0.595933
0.59635
0.596591
0.596631
0.596715
0.59682
0.596819
0.596627
0.596088
0.595387
0.594998
0.594981
0.595132
0.595629
0.59803
0.629083
0.732367
0.927718
1.14803
1.20987
1.26527
1.30405
1.34345
1.34124
1.32171
1.3094
1.3147
1.32638
1.32564
0.595857
0.595847
0.595844
0.595845
0.595844
0.595847
0.595897
0.595959
0.595961
0.595915
0.595767
0.595733
0.595728
0.595685
0.595663
0.595665
0.595705
0.595813
0.595851
0.595844
0.59583
0.59584
0.59593
0.596032
0.59606
0.596085
0.596142
0.596251
0.596368
0.596499
0.596599
0.596614
0.596607
0.596555
0.596415
0.596179
0.59586
0.595625
0.595567
0.595572
0.595619
0.595651
0.595651
0.595696
0.595845
0.59602
0.596175
0.596229
0.596148
0.595996
0.595969
0.596003
0.59602
0.596172
0.596639
0.596873
0.596816
0.596477
0.596248
0.596285
0.59654
0.596625
0.596508
0.596008
0.595567
0.595567
0.59575
0.595953
0.595924
0.59585
0.595898
0.596147
0.596605
0.596771
0.59679
0.596829
0.596823
0.59656
0.595958
0.59523
0.594865
0.594931
0.595131
0.595663
0.596414
0.59675
0.596917
0.598633
0.631365
0.733024
0.949171
1.19742
1.28454
1.33183
1.32516
1.29274
1.30417
1.32848
1.32933
1.3245
0.595973
0.595915
0.595903
0.595905
0.595921
0.595941
0.595945
0.595944
0.595954
0.595955
0.595921
0.595772
0.595623
0.595598
0.5956
0.595605
0.595592
0.595556
0.595524
0.595505
0.595506
0.595579
0.595659
0.59565
0.595612
0.595644
0.595807
0.596046
0.596225
0.596378
0.596551
0.596625
0.596624
0.596583
0.596437
0.596133
0.59557
0.595291
0.595274
0.595306
0.595503
0.595587
0.595591
0.595648
0.595855
0.596288
0.596707
0.596755
0.596542
0.59595
0.595754
0.595762
0.595886
0.596271
0.596815
0.596949
0.596859
0.596454
0.596142
0.596138
0.596197
0.596182
0.595975
0.59546
0.595142
0.595157
0.595401
0.595917
0.596216
0.596306
0.596384
0.596526
0.596734
0.596845
0.596866
0.596833
0.596504
0.595718
0.594993
0.594604
0.594706
0.595021
0.595635
0.596329
0.596792
0.596879
0.59684
0.596462
0.595745
0.597506
0.63476
0.757743
0.96879
1.17625
1.24081
1.27443
1.33515
1.34123
1.33038
1.31567
0.59637
0.596361
0.596355
0.59636
0.59642
0.596464
0.596437
0.596329
0.596288
0.596287
0.596293
0.59627
0.596176
0.596043
0.595954
0.595885
0.595727
0.595486
0.595292
0.595209
0.595219
0.595262
0.595285
0.595252
0.595099
0.595091
0.595262
0.595447
0.59551
0.59558
0.595745
0.596049
0.596373
0.596485
0.59639
0.596083
0.59552
0.595137
0.595073
0.595083
0.595304
0.59576
0.595929
0.596106
0.596481
0.596974
0.597273
0.597266
0.596938
0.596131
0.595795
0.595696
0.595714
0.596097
0.596523
0.59668
0.59676
0.596475
0.595893
0.595742
0.595733
0.595628
0.595416
0.595143
0.595103
0.595136
0.595418
0.596168
0.596596
0.596709
0.596809
0.596789
0.596823
0.596651
0.596426
0.596133
0.595526
0.59477
0.594438
0.594538
0.595045
0.595748
0.596331
0.596721
0.596859
0.596878
0.596543
0.595609
0.594942
0.595143
0.595665
0.599304
0.647647
0.785294
1.03709
1.23047
1.32845
1.3257
1.2963
1.30876
0.59603
0.596014
0.59601
0.596009
0.596035
0.596093
0.596084
0.595998
0.59595
0.59595
0.595967
0.595957
0.595848
0.595782
0.595739
0.595656
0.595404
0.594723
0.59404
0.593842
0.593887
0.594045
0.594129
0.59417
0.59417
0.594039
0.593944
0.593961
0.593944
0.59393
0.594105
0.594453
0.594697
0.594931
0.595152
0.595098
0.594846
0.594667
0.594547
0.594442
0.594526
0.5949
0.595432
0.596005
0.596562
0.59695
0.597171
0.59713
0.596645
0.595655
0.595147
0.594874
0.594567
0.594557
0.594712
0.594899
0.595127
0.594946
0.594715
0.594807
0.594835
0.594793
0.595079
0.595328
0.595307
0.595307
0.595545
0.596237
0.59666
0.596764
0.596885
0.596883
0.596316
0.595264
0.594668
0.594316
0.594047
0.593902
0.594104
0.594771
0.59535
0.595968
0.596441
0.596665
0.596539
0.596031
0.595203
0.594411
0.594529
0.595267
0.596054
0.596681
0.59692
0.602183
0.660206
0.840708
1.09928
1.19322
1.26427
1.32081
0.592914
0.593015
0.59314
0.593337
0.593591
0.593849
0.594143
0.594376
0.594397
0.594375
0.594323
0.594194
0.593988
0.593881
0.593781
0.593566
0.593013
0.591949
0.591351
0.59131
0.591281
0.591282
0.591407
0.591859
0.592693
0.593482
0.593705
0.593701
0.593693
0.593794
0.594233
0.59452
0.594488
0.594297
0.594253
0.594233
0.594114
0.593793
0.593248
0.59301
0.593035
0.593326
0.594088
0.594403
0.594352
0.594329
0.594809
0.595666
0.595679
0.59512
0.594087
0.593421
0.593001
0.592547
0.592455
0.592631
0.592821
0.59273
0.592638
0.592715
0.593044
0.59376
0.594956
0.595407
0.595451
0.595466
0.59536
0.595107
0.594999
0.594919
0.59473
0.594238
0.593289
0.592563
0.592353
0.592384
0.592622
0.59327
0.594006
0.594824
0.595315
0.595871
0.59617
0.595599
0.594645
0.593477
0.593053
0.593302
0.594368
0.595323
0.59609
0.595923
0.595359
0.594436
0.594732
0.61006
0.68752
0.91681
1.18656
1.30455
0.589351
0.589595
0.58988
0.590495
0.59089
0.590904
0.59102
0.591803
0.592935
0.593228
0.593284
0.593278
0.593174
0.592963
0.592752
0.592518
0.592188
0.591758
0.591113
0.590492
0.59035
0.590352
0.590515
0.591277
0.592305
0.592687
0.59267
0.592467
0.59204
0.591748
0.591567
0.59135
0.591118
0.591182
0.591418
0.591422
0.591283
0.591302
0.591229
0.591007
0.591089
0.591271
0.591224
0.590657
0.5901
0.590069
0.590411
0.591328
0.591444
0.590927
0.590763
0.590841
0.590735
0.590143
0.589932
0.590179
0.590601
0.590602
0.590461
0.590435
0.59066
0.591352
0.592408
0.592787
0.592786
0.592717
0.592394
0.591548
0.59111
0.59097
0.590823
0.590608
0.59026
0.590017
0.589981
0.590013
0.590259
0.590863
0.592187
0.59288
0.593116
0.592996
0.592435
0.591689
0.591036
0.590669
0.590879
0.591224
0.592583
0.593585
0.593532
0.593047
0.59199
0.591791
0.592109
0.592697
0.593877
0.625006
0.7412
1.05051
0.592991
0.59327
0.59363
0.594104
0.59427
0.594251
0.594234
0.594392
0.595405
0.596516
0.596636
0.596621
0.596502
0.596349
0.596131
0.595489
0.595105
0.594953
0.594607
0.593526
0.592724
0.592591
0.592641
0.593262
0.594479
0.594958
0.594812
0.59415
0.593136
0.592365
0.591881
0.591473
0.590923
0.590809
0.59135
0.592502
0.592865
0.592799
0.592314
0.591829
0.591664
0.591511
0.591175
0.590399
0.589343
0.58887
0.588918
0.58953
0.591209
0.592126
0.592155
0.591964
0.59104
0.590599
0.590613
0.590892
0.592134
0.593062
0.593193
0.593048
0.592545
0.592295
0.592448
0.593098
0.593216
0.593081
0.592229
0.590595
0.589912
0.589734
0.589635
0.589742
0.589875
0.589943
0.590136
0.590572
0.591443
0.592583
0.593628
0.593475
0.59296
0.591951
0.590656
0.590058
0.589936
0.590009
0.590459
0.592018
0.593446
0.593302
0.592372
0.590921
0.590238
0.590629
0.591254
0.592655
0.592565
0.592109
0.59441
0.741408
0.594146
0.593478
0.593285
0.593302
0.593629
0.593832
0.593669
0.593036
0.592904
0.593057
0.594048
0.595221
0.595415
0.595371
0.595207
0.595158
0.595124
0.595034
0.594842
0.594839
0.594843
0.594414
0.593395
0.593172
0.593337
0.593307
0.592267
0.589482
0.587536
0.5872
0.587189
0.587212
0.587126
0.587185
0.587768
0.589455
0.590921
0.59165
0.592375
0.592692
0.592773
0.592496
0.591642
0.590474
0.589276
0.588186
0.587734
0.58803
0.58944
0.5921
0.594154
0.595206
0.595409
0.594579
0.593495
0.593317
0.593865
0.595243
0.595421
0.595152
0.593375
0.591238
0.590905
0.590982
0.59135
0.591354
0.590842
0.589675
0.588981
0.58896
0.589102
0.589413
0.590285
0.591745
0.593073
0.593887
0.594139
0.594071
0.593284
0.59248
0.591169
0.589858
0.589315
0.589198
0.589483
0.590995
0.593007
0.594286
0.593473
0.592094
0.590507
0.589428
0.589473
0.590273
0.592642
0.592238
0.591563
0.590755
0.590198
0.597258
0.598741
0.598712
0.59874
0.598879
0.599204
0.599542
0.599508
0.59906
0.598821
0.598848
0.599089
0.599614
0.600532
0.602146
0.60291
0.602964
0.602994
0.603105
0.603126
0.603087
0.603223
0.603225
0.603081
0.6024
0.601412
0.600339
0.598396
0.596207
0.595751
0.59581
0.59641
0.596978
0.597092
0.597322
0.598178
0.600043
0.602675
0.605827
0.608645
0.610523
0.61159
0.611808
0.611433
0.61026
0.608206
0.605777
0.60402
0.60363
0.6039
0.604833
0.605892
0.606724
0.607171
0.606861
0.605537
0.604772
0.604722
0.604628
0.604227
0.603047
0.600959
0.599054
0.598553
0.598601
0.598382
0.597442
0.597502
0.598478
0.599507
0.599874
0.6002
0.60067
0.601512
0.602371
0.602303
0.601738
0.600385
0.598275
0.596043
0.594255
0.592734
0.592526
0.593645
0.59561
0.597831
0.599524
0.599226
0.597866
0.595608
0.592947
0.591222
0.592396
0.594595
0.596908
0.596532
0.595265
0.594069
0.591529
0.592365
0.594052
0.629197
0.628642
0.628537
0.628747
0.629902
0.630559
0.630283
0.628108
0.626843
0.626887
0.62712
0.627843
0.629248
0.629777
0.629957
0.630168
0.630571
0.631273
0.632155
0.633232
0.634219
0.634465
0.634394
0.6338
0.632735
0.63237
0.632072
0.631287
0.629556
0.628333
0.627975
0.627534
0.626633
0.625509
0.624356
0.62297
0.622212
0.622731
0.625067
0.626327
0.626756
0.626935
0.626707
0.625855
0.624646
0.623512
0.622395
0.621179
0.619529
0.617793
0.617135
0.616868
0.616812
0.616463
0.615224
0.612713
0.609839
0.609384
0.609839
0.611982
0.61452
0.614772
0.613736
0.611657
0.611183
0.611957
0.614128
0.616504
0.617322
0.617128
0.616434
0.615467
0.614057
0.612239
0.610624
0.609035
0.607577
0.605435
0.604906
0.605743
0.607932
0.609977
0.611704
0.611418
0.610335
0.607906
0.605352
0.602886
0.600103
0.601599
0.60436
0.606547
0.606151
0.60351
0.601091
0.596467
0.596821
0.599314
0.601935
0.600716
0.657798
0.657043
0.656718
0.656948
0.657244
0.656565
0.654027
0.652272
0.652155
0.652854
0.652898
0.652691
0.652502
0.651273
0.649615
0.649246
0.649495
0.650741
0.651079
0.651369
0.652779
0.654784
0.655112
0.654895
0.654547
0.654661
0.655412
0.65557
0.654761
0.653649
0.652648
0.651189
0.650258
0.650346
0.651257
0.651209
0.648724
0.645421
0.645015
0.644917
0.644094
0.641579
0.639658
0.639741
0.640194
0.640769
0.641472
0.642515
0.64379
0.644782
0.644924
0.644957
0.64527
0.645319
0.644738
0.643501
0.642973
0.642957
0.643231
0.644405
0.645741
0.646088
0.645925
0.645344
0.644304
0.642734
0.641015
0.6395
0.638177
0.636707
0.634833
0.6328
0.630839
0.629343
0.62726
0.626858
0.627422
0.628864
0.630373
0.631427
0.63093
0.629555
0.627084
0.624126
0.620944
0.616782
0.616001
0.617065
0.62008
0.622238
0.621872
0.619753
0.616828
0.612228
0.611243
0.613324
0.616019
0.615366
0.613286
0.609211
0.702595
0.701126
0.700695
0.700635
0.700672
0.701818
0.703312
0.703127
0.701201
0.699164
0.698088
0.697831
0.698054
0.698143
0.697538
0.69572
0.695233
0.695459
0.695469
0.694734
0.693773
0.693828
0.694273
0.69438
0.694074
0.693993
0.694069
0.694
0.694113
0.694027
0.693487
0.693313
0.693158
0.69321
0.694211
0.694679
0.694056
0.6927
0.692473
0.692859
0.693203
0.692513
0.690544
0.689758
0.689629
0.688925
0.687433
0.686919
0.686385
0.685381
0.684243
0.683762
0.68361
0.683368
0.682739
0.681335
0.679546
0.677817
0.676064
0.67432
0.672795
0.6709
0.668778
0.666691
0.665235
0.664301
0.662996
0.6612
0.658341
0.656819
0.657004
0.657155
0.657801
0.658294
0.658347
0.65821
0.65783
0.656625
0.654732
0.652193
0.649462
0.646257
0.642638
0.641065
0.641751
0.643313
0.643961
0.643423
0.642267
0.639187
0.635335
0.631995
0.629637
0.63123
0.632804
0.632561
0.629736
0.625619
0.621745
0.622612
0.742499
0.741119
0.740829
0.740855
0.739707
0.737963
0.737216
0.737039
0.737712
0.73924
0.739293
0.738954
0.738966
0.738841
0.737582
0.736248
0.73626
0.737042
0.737586
0.737363
0.73664
0.736253
0.736229
0.736983
0.737451
0.737114
0.736103
0.7352
0.734294
0.733432
0.731918
0.729301
0.728461
0.728334
0.727895
0.726902
0.725459
0.723216
0.72166
0.72155
0.721589
0.721973
0.722333
0.7224
0.722386
0.7218
0.719753
0.717797
0.716969
0.715691
0.712716
0.70878
0.707697
0.707404
0.706656
0.706455
0.706651
0.70703
0.706867
0.705506
0.702875
0.700041
0.698943
0.699193
0.700095
0.700566
0.700193
0.699627
0.698478
0.697215
0.696796
0.695991
0.694585
0.69282
0.690833
0.688723
0.685926
0.682464
0.679036
0.676363
0.674385
0.673123
0.672913
0.672256
0.671644
0.670721
0.668418
0.665227
0.660971
0.657901
0.654847
0.655097
0.655715
0.655209
0.653404
0.650365
0.645838
0.644582
0.644926
0.643637
0.786713
0.786665
0.786751
0.78701
0.786965
0.786119
0.785403
0.785435
0.785345
0.784593
0.783703
0.783639
0.783772
0.78342
0.781552
0.780951
0.78103
0.780416
0.778683
0.778123
0.77846
0.778736
0.77842
0.777132
0.776745
0.776854
0.7771
0.777111
0.776804
0.776111
0.776078
0.77617
0.775938
0.77506
0.774117
0.77356
0.772912
0.771643
0.770706
0.77005
0.76843
0.766441
0.765279
0.764474
0.762902
0.761079
0.760904
0.761988
0.762886
0.762554
0.761004
0.75907
0.757817
0.756742
0.754768
0.752635
0.75216
0.751896
0.751338
0.7502
0.748573
0.746049
0.74304
0.740938
0.739694
0.738826
0.737252
0.734387
0.73089
0.727715
0.725364
0.723196
0.719842
0.71613
0.713505
0.710996
0.709122
0.707894
0.706607
0.706569
0.706233
0.704967
0.70327
0.701234
0.698642
0.695369
0.692129
0.689027
0.68645
0.685407
0.684209
0.682635
0.679925
0.676481
0.672381
0.667253
0.667042
0.666336
0.6642
0.659841
0.833576
0.833107
0.833105
0.833539
0.833732
0.833637
0.833475
0.83314
0.83228
0.832126
0.832084
0.831794
0.831291
0.830305
0.829813
0.829913
0.829782
0.828674
0.828039
0.828062
0.82781
0.827028
0.825921
0.824863
0.824241
0.823744
0.823239
0.822693
0.821451
0.819248
0.818408
0.818573
0.81862
0.817828
0.816474
0.815358
0.813763
0.8128
0.812927
0.813312
0.812976
0.811557
0.809734
0.808398
0.807316
0.805615
0.803028
0.801189
0.800142
0.799204
0.796896
0.794686
0.794079
0.79344
0.791971
0.790147
0.788772
0.78637
0.782591
0.780087
0.778534
0.777008
0.775625
0.773907
0.771215
0.768135
0.765809
0.763976
0.762627
0.760747
0.757883
0.756757
0.755934
0.75407
0.753031
0.751973
0.749957
0.748231
0.74631
0.743869
0.740615
0.737254
0.732883
0.72883
0.72491
0.721338
0.718167
0.715031
0.712756
0.711528
0.710022
0.70686
0.703387
0.699444
0.696292
0.694298
0.692464
0.690042
0.687629
0.683288
0.884898
0.884541
0.884529
0.884575
0.884453
0.883655
0.88332
0.883308
0.883003
0.882366
0.882124
0.881519
0.880368
0.880237
0.880132
0.879701
0.878193
0.877132
0.876918
0.876621
0.875952
0.875195
0.874723
0.874523
0.874264
0.873693
0.872831
0.871912
0.871052
0.870215
0.868521
0.866864
0.866816
0.866833
0.86607
0.864538
0.863367
0.861999
0.860543
0.859292
0.858152
0.856169
0.853228
0.852651
0.852698
0.852312
0.850315
0.847958
0.847087
0.846627
0.845495
0.842928
0.840314
0.837851
0.834579
0.833705
0.833815
0.833122
0.831006
0.828604
0.824867
0.821468
0.820444
0.819597
0.818383
0.815962
0.81242
0.809361
0.807816
0.806596
0.80377
0.799472
0.796303
0.793566
0.790425
0.786848
0.782974
0.778268