/*--------------------------------*- C++ -*----------------------------------*\
  =========                 |
  \\      /  F ield         | OpenFOAM: The Open Source CFD Toolbox
   \\    /   O peration     | Website:  https://openfoam.org
    \\  /    A nd           | Version:  7
     \\/     M anipulation  |
\*---------------------------------------------------------------------------*/
FoamFile
{
    version     2.0;
    format      ascii;
    class       volScalarField;
    location    "6.5001";
    object      p;
}
// * * * * * * * * * * * * * * * * * * * * * * * * * * * * * * * * * * * * * //

dimensions      [1 -1 -2 0 0 0 0];

internalField   nonuniform List<scalar> 
60000
(
0.169858
0.213268
0.280686
0.347446
0.343581
0.347135
0.439037
0.498958
0.494395
0.542708
0.630111
0.668334
0.697494
0.760093
0.829569
0.88962
0.929001
0.951345
0.972292
0.987376
0.993319
0.987148
0.973617
0.970036
0.964515
0.954668
0.946025
0.948668
0.958533
0.957602
0.952294
0.944069
0.93495
0.921523
0.90763
0.909883
0.919158
0.932252
0.949162
0.967182
0.980926
0.992304
0.989611
0.978456
0.959541
0.942668
0.930499
0.927814
0.931982
0.940194
0.950291
0.960189
0.967941
0.967165
0.963232
0.955257
0.946261
0.943249
0.94363
0.948413
0.953472
0.959251
0.961379
0.958422
0.953769
0.950883
0.949101
0.949987
0.956451
0.962305
0.965348
0.961379
0.953386
0.948112
0.947438
0.952815
0.962416
0.965448
0.962171
0.956779
0.954788
0.957148
0.963782
0.963119
0.958587
0.950429
0.945777
0.946667
0.955494
0.960736
0.959594
0.956305
0.954769
0.95522
0.955518
0.953936
0.952903
0.95419
0.957682
0.956999
0.118347
0.118319
0.118298
0.118258
0.118212
0.118168
0.11867
0.120526
0.120503
0.124638
0.140774
0.154352
0.169491
0.200999
0.256622
0.315484
0.366681
0.426622
0.520361
0.620009
0.688908
0.730247
0.767549
0.831041
0.866713
0.884949
0.907742
0.921001
0.935942
0.937554
0.946583
0.947593
0.941987
0.93951
0.948514
0.956782
0.961978
0.969461
0.975655
0.977673
0.978807
0.974929
0.96255
0.946745
0.936559
0.934926
0.936995
0.942651
0.951014
0.954733
0.96245
0.968036
0.96902
0.963456
0.954861
0.947157
0.944129
0.946342
0.951269
0.957407
0.961361
0.962438
0.960134
0.954355
0.94931
0.946881
0.948737
0.954713
0.962941
0.966121
0.962566
0.955012
0.948509
0.945974
0.949059
0.957612
0.966468
0.963847
0.958459
0.954662
0.954248
0.959684
0.965161
0.961701
0.954732
0.947029
0.94445
0.947991
0.957177
0.962254
0.958366
0.953658
0.95224
0.954998
0.958212
0.956784
0.953599
0.951969
0.952882
0.955894
0.118253
0.118223
0.11819
0.118134
0.118071
0.118155
0.118194
0.11814
0.117986
0.117869
0.117705
0.11761
0.117672
0.117677
0.117645
0.117588
0.117469
0.118203
0.123345
0.138095
0.157871
0.188649
0.233289
0.288565
0.356969
0.429453
0.516491
0.586371
0.649603
0.72551
0.80254
0.863311
0.904014
0.957066
0.992494
0.993891
0.99685
1.00064
0.996401
0.98413
0.96745
0.946403
0.922063
0.905914
0.91045
0.921645
0.935806
0.949507
0.959808
0.967524
0.972791
0.969549
0.962222
0.951808
0.941154
0.937346
0.939964
0.945657
0.95473
0.961052
0.965521
0.962178
0.955021
0.948888
0.946869
0.949177
0.954419
0.959462
0.964501
0.96449
0.957986
0.951075
0.947339
0.948829
0.955185
0.963639
0.965181
0.960865
0.956335
0.953118
0.955567
0.963274
0.964482
0.960872
0.952381
0.946978
0.946249
0.952686
0.960521
0.959209
0.954395
0.951579
0.951855
0.954396
0.957331
0.95916
0.957867
0.956473
0.954378
0.951556
0.117999
0.117966
0.117921
0.117809
0.117776
0.117865
0.117908
0.117876
0.117831
0.117734
0.117642
0.117514
0.117465
0.117594
0.117653
0.117581
0.117495
0.11744
0.117405
0.117421
0.117399
0.117355
0.117305
0.117288
0.117319
0.118149
0.124128
0.138238
0.158506
0.203245
0.259786
0.328022
0.41579
0.517562
0.628746
0.697915
0.767147
0.845505
0.877073
0.890653
0.906397
0.911674
0.921387
0.92547
0.937085
0.951837
0.963437
0.973266
0.976328
0.978207
0.974094
0.958121
0.941613
0.938935
0.941404
0.947237
0.95495
0.960592
0.962909
0.96172
0.959793
0.953806
0.948298
0.945135
0.947083
0.953391
0.962266
0.966541
0.96436
0.960307
0.951632
0.947215
0.946908
0.950014
0.958461
0.965632
0.965437
0.959333
0.955013
0.954833
0.959457
0.965581
0.963425
0.956481
0.948079
0.943483
0.946901
0.955391
0.960425
0.95845
0.954803
0.952759
0.95418
0.957215
0.957921
0.95735
0.957222
0.959331
0.959857
0.954799
0.117748
0.117749
0.117736
0.117725
0.117719
0.117684
0.117633
0.117598
0.117531
0.117483
0.117504
0.117493
0.117466
0.117423
0.117411
0.117379
0.117362
0.117334
0.117291
0.117309
0.117378
0.117406
0.117387
0.117371
0.117432
0.117507
0.117563
0.1176
0.117601
0.117609
0.11766
0.117674
0.118468
0.124925
0.146276
0.186671
0.239171
0.327591
0.433228
0.539328
0.653553
0.753028
0.854409
0.912022
0.948885
0.954021
0.963095
0.970424
0.973969
0.969228
0.951694
0.920739
0.92223
0.931704
0.943785
0.955607
0.963688
0.966636
0.966178
0.960992
0.950422
0.944815
0.944347
0.948193
0.951215
0.95816
0.962935
0.966605
0.962238
0.953268
0.947431
0.946362
0.951158
0.9597
0.964532
0.964156
0.959684
0.954186
0.952184
0.954072
0.962455
0.965312
0.961346
0.951776
0.946663
0.946612
0.952215
0.959657
0.96015
0.955904
0.951954
0.951219
0.954246
0.957766
0.958947
0.958403
0.958079
0.958905
0.958738
0.955457
0.117591
0.117569
0.117572
0.117599
0.117594
0.117574
0.117477
0.117394
0.117351
0.117359
0.117408
0.117438
0.11746
0.117473
0.117438
0.117388
0.117344
0.117331
0.117312
0.117376
0.11748
0.117515
0.117513
0.117526
0.117584
0.117702
0.1178
0.117861
0.117886
0.117911
0.117963
0.118005
0.11798
0.117945
0.117923
0.117943
0.118011
0.118041
0.118984
0.12936
0.158342
0.22042
0.309
0.433183
0.559524
0.663963
0.753855
0.812835
0.865932
0.884468
0.898762
0.909196
0.935538
0.954147
0.96993
0.978699
0.975964
0.970178
0.965628
0.952374
0.940965
0.940278
0.942651
0.949575
0.96184
0.969798
0.968606
0.964232
0.954216
0.945258
0.944104
0.945943
0.95301
0.962446
0.968198
0.963911
0.955506
0.952575
0.954299
0.960747
0.965004
0.963979
0.957141
0.945694
0.943221
0.946398
0.956288
0.961217
0.958654
0.954227
0.952162
0.953645
0.957028
0.959238
0.95937
0.958964
0.958943
0.959979
0.959113
0.955147
0.117582
0.117569
0.117543
0.117545
0.117606
0.117619
0.117537
0.117472
0.117441
0.117421
0.117484
0.117595
0.117594
0.117587
0.117626
0.117628
0.117612
0.117563
0.117557
0.117667
0.117846
0.117867
0.117858
0.117887
0.118026
0.118147
0.118156
0.11815
0.118149
0.118162
0.118183
0.118201
0.118187
0.118147
0.118112
0.118089
0.118104
0.118135
0.118158
0.118166
0.118159
0.11814
0.118042
0.12015
0.13336
0.174824
0.240173
0.341189
0.463771
0.59605
0.730636
0.837941
0.907982
0.932943
0.952478
0.95924
0.964497
0.963603
0.953421
0.936846
0.938493
0.943487
0.95538
0.965722
0.970058
0.969456
0.966537
0.954203
0.943595
0.941991
0.944882
0.954157
0.965489
0.968977
0.966307
0.957623
0.950614
0.950569
0.95503
0.963435
0.966683
0.961321
0.949478
0.943679
0.945108
0.952982
0.959742
0.961168
0.955902
0.951042
0.950354
0.953393
0.957861
0.959682
0.959854
0.96027
0.961289
0.961243
0.958528
0.953885
0.117841
0.117832
0.117756
0.117737
0.117769
0.117776
0.117756
0.11773
0.117741
0.117737
0.117755
0.117829
0.117865
0.117843
0.117862
0.117989
0.118003
0.117933
0.117914
0.117961
0.118204
0.118246
0.118206
0.118209
0.118311
0.118397
0.118394
0.118355
0.118318
0.118299
0.118265
0.118234
0.118228
0.118212
0.118165
0.118094
0.118054
0.118044
0.118036
0.11802
0.117991
0.117976
0.117937
0.11785
0.117728
0.11767
0.117659
0.11767
0.121354
0.145961
0.203104
0.311542
0.447392
0.583725
0.713449
0.794369
0.874964
0.902357
0.923319
0.927689
0.948093
0.96569
0.981508
0.97969
0.971334
0.968266
0.951961
0.939074
0.93904
0.943067
0.955973
0.969113
0.973752
0.970421
0.959278
0.950103
0.948997
0.952956
0.963575
0.969503
0.965851
0.953898
0.941174
0.941335
0.946237
0.95685
0.962835
0.960491
0.953256
0.9506
0.951806
0.95654
0.959456
0.959893
0.959572
0.960168
0.961364
0.962055
0.95955
0.955317
0.117996
0.118
0.117982
0.11793
0.117909
0.117927
0.117939
0.117942
0.117978
0.118024
0.118024
0.118037
0.118037
0.117987
0.118016
0.118256
0.118283
0.118189
0.118143
0.118167
0.11833
0.118452
0.118448
0.118397
0.118388
0.118448
0.118459
0.118415
0.118337
0.118299
0.118244
0.118182
0.118164
0.118151
0.118111
0.118006
0.117924
0.117903
0.117904
0.117898
0.117872
0.117853
0.117813
0.11773
0.117673
0.117639
0.117635
0.117654
0.117696
0.117736
0.117833
0.117902
0.120148
0.145773
0.200901
0.306697
0.44517
0.599237
0.754097
0.860078
0.929922
0.951069
0.96536
0.967912
0.967097
0.95326
0.93213
0.935715
0.945371
0.96101
0.968881
0.973607
0.971872
0.958925
0.948598
0.946982
0.951051
0.963259
0.969874
0.968671
0.956567
0.941932
0.938724
0.941961
0.955542
0.964468
0.96353
0.957609
0.94958
0.949253
0.951993
0.957468
0.960533
0.96037
0.960521
0.962535
0.964184
0.962171
0.95842
0.954758
0.118073
0.118016
0.118014
0.118018
0.118021
0.118068
0.118095
0.118093
0.118079
0.118124
0.118156
0.118152
0.118108
0.11806
0.118077
0.118256
0.118329
0.118315
0.118273
0.118299
0.118409
0.118435
0.118409
0.118378
0.118393
0.11843
0.11843
0.118405
0.11834
0.118256
0.118141
0.118085
0.118078
0.118054
0.11799
0.117918
0.117847
0.117817
0.11781
0.117819
0.117812
0.1178
0.117767
0.117685
0.117639
0.117627
0.117649
0.117763
0.117877
0.117967
0.118128
0.118215
0.118181
0.118154
0.118166
0.118257
0.120541
0.149019
0.216296
0.351062
0.511109
0.653124
0.782649
0.85006
0.90988
0.91167
0.929109
0.948879
0.971603
0.983677
0.978771
0.9754
0.956545
0.945151
0.944452
0.950224
0.96316
0.974923
0.97299
0.959315
0.941834
0.936104
0.939111
0.952109
0.966114
0.966116
0.961071
0.951687
0.94831
0.949774
0.956364
0.960729
0.960528
0.959875
0.960399
0.963199
0.965529
0.962842
0.958652
0.95613
0.118096
0.118095
0.118106
0.118167
0.118179
0.118176
0.118181
0.118188
0.118183
0.118172
0.118184
0.118191
0.118164
0.118163
0.118227
0.118243
0.118227
0.118233
0.118255
0.118361
0.118423
0.118418
0.118396
0.118386
0.118371
0.11836
0.11837
0.11837
0.118356
0.118256
0.11801
0.117946
0.117959
0.117953
0.117893
0.117857
0.117825
0.117793
0.117779
0.117791
0.117816
0.117824
0.117803
0.117804
0.117816
0.117834
0.117951
0.1182
0.118254
0.118274
0.118326
0.118349
0.118314
0.118221
0.11819
0.118277
0.118517
0.118581
0.118577
0.11839
0.126421
0.174229
0.265852
0.416728
0.602516
0.755353
0.891651
0.939551
0.964944
0.971701
0.973236
0.959996
0.931644
0.940339
0.951451
0.964817
0.972896
0.974327
0.962249
0.9401
0.931353
0.935583
0.949163
0.965334
0.96872
0.965418
0.953928
0.947604
0.948852
0.955377
0.960628
0.961188
0.95998
0.959705
0.961989
0.966803
0.966044
0.962391
0.958134
0.957055
0.118268
0.118286
0.118298
0.118307
0.118328
0.118332
0.11832
0.118278
0.118271
0.118275
0.11828
0.118285
0.11828
0.118264
0.118273
0.118303
0.118302
0.118296
0.118307
0.118408
0.118429
0.118419
0.118399
0.118396
0.118389
0.118314
0.118253
0.118214
0.118178
0.118068
0.117849
0.117797
0.117814
0.117862
0.117865
0.117833
0.117808
0.117794
0.117788
0.117802
0.117898
0.118021
0.118072
0.118109
0.118155
0.1182
0.118325
0.118466
0.118485
0.118471
0.118426
0.118418
0.11838
0.118216
0.118136
0.118159
0.118355
0.118499
0.118506
0.118432
0.118112
0.117698
0.117601
0.119619
0.143062
0.234244
0.382511
0.560503
0.730195
0.818772
0.902349
0.91152
0.925771
0.962177
0.975511
0.982056
0.979522
0.964006
0.93781
0.927334
0.930662
0.948157
0.968074
0.972925
0.969041
0.95451
0.946241
0.946255
0.953537
0.962625
0.963033
0.960727
0.959024
0.959822
0.964792
0.968452
0.966641
0.962435
0.958074
0.96035
0.118491
0.118458
0.118456
0.118459
0.118471
0.118463
0.11845
0.118449
0.118406
0.118363
0.118367
0.118387
0.118364
0.118307
0.118312
0.118354
0.118355
0.118318
0.118294
0.118265
0.118246
0.118242
0.118236
0.11822
0.118189
0.118047
0.117996
0.118004
0.117996
0.11792
0.117743
0.117671
0.117678
0.117745
0.117852
0.117883
0.117884
0.117873
0.117881
0.117944
0.118146
0.118316
0.118342
0.11835
0.118394
0.11842
0.11848
0.118568
0.118589
0.118581
0.118486
0.118432
0.118386
0.118173
0.117946
0.117917
0.118026
0.11832
0.118431
0.118388
0.118105
0.117667
0.11757
0.11771
0.118067
0.118538
0.118795
0.141915
0.209011
0.350228
0.537919
0.723586
0.872066
0.949706
0.965915
0.971064
0.959898
0.932361
0.919195
0.927946
0.950649
0.966492
0.974839
0.972292
0.955633
0.941232
0.942572
0.950216
0.9623
0.965514
0.96355
0.95924
0.958708
0.961725
0.968138
0.968792
0.966057
0.962102
0.960571
0.964665
0.11844
0.11844
0.118413
0.118387
0.118381
0.118391
0.11839
0.118379
0.118291
0.118238
0.11825
0.118286
0.118234
0.118081
0.118076
0.11815
0.118178
0.118189
0.118162
0.117971
0.117884
0.11792
0.118037
0.118045
0.117953
0.117863
0.11788
0.117901
0.1179
0.117847
0.117704
0.117642
0.117655
0.1177
0.117812
0.118015
0.118071
0.118054
0.118047
0.118091
0.118291
0.118454
0.118465
0.11845
0.118463
0.118468
0.118482
0.118566
0.118597
0.118553
0.118354
0.118288
0.118272
0.118127
0.117783
0.117666
0.117703
0.117997
0.118338
0.118342
0.118137
0.117716
0.117638
0.117954
0.118495
0.118889
0.119232
0.119684
0.119815
0.119732
0.132002
0.205778
0.352193
0.546059
0.698343
0.83277
0.871059
0.908821
0.922606
0.956316
0.984325
0.983268
0.980254
0.956616
0.937328
0.938054
0.946178
0.96182
0.969192
0.967134
0.960769
0.958104
0.960249
0.966309
0.970304
0.968463
0.965085
0.963406
0.964507
0.969823
0.118013
0.118003
0.118072
0.118058
0.118017
0.118055
0.118077
0.118047
0.117977
0.117958
0.11796
0.117973
0.117973
0.117909
0.11783
0.117817
0.117833
0.118024
0.118083
0.117982
0.117751
0.117767
0.117926
0.117946
0.117817
0.117723
0.117772
0.117881
0.117894
0.117854
0.117717
0.117665
0.117712
0.117764
0.117823
0.118059
0.118239
0.118244
0.118204
0.118202
0.118307
0.118462
0.118478
0.118455
0.11846
0.118444
0.118396
0.118432
0.118444
0.118343
0.118123
0.118079
0.118111
0.11805
0.117693
0.117432
0.117418
0.117665
0.118265
0.118469
0.118342
0.117973
0.117958
0.118483
0.119001
0.119143
0.119312
0.1197
0.119795
0.119753
0.119359
0.118379
0.117686
0.132855
0.2106
0.350979
0.552084
0.771073
0.897023
0.950644
0.97079
0.977865
0.963961
0.927739
0.931054
0.943652
0.961834
0.970839
0.968693
0.960619
0.957379
0.959948
0.96698
0.971359
0.970091
0.966913
0.964924
0.96523
0.970638
0.97376
0.117496
0.117487
0.11753
0.117661
0.117671
0.117669
0.117671
0.11776
0.117842
0.11785
0.117842
0.117835
0.117828
0.11779
0.117774
0.117775
0.117777
0.117876
0.118025
0.118006
0.117899
0.117907
0.118046
0.118087
0.117972
0.117897
0.118096
0.118282
0.118286
0.118182
0.117925
0.117882
0.11795
0.118018
0.118054
0.118171
0.118301
0.11832
0.118294
0.118251
0.118277
0.118402
0.118429
0.118417
0.118431
0.118307
0.118083
0.118096
0.11815
0.118085
0.117978
0.118001
0.118078
0.118019
0.117627
0.117265
0.117224
0.117476
0.118419
0.118933
0.118822
0.11855
0.118624
0.119278
0.11956
0.119415
0.11933
0.119405
0.119474
0.119408
0.118994
0.117877
0.117376
0.117332
0.117206
0.117113
0.141581
0.229061
0.419671
0.624639
0.758936
0.887852
0.899972
0.919769
0.94051
0.968825
0.979985
0.975271
0.958254
0.950944
0.955004
0.967423
0.976724
0.974448
0.96836
0.964338
0.964628
0.968909
0.977915
0.976606
0.117398
0.117395
0.117392
0.117404
0.117535
0.117568
0.117555
0.117558
0.117691
0.117841
0.117854
0.117853
0.117857
0.11799
0.118024
0.117979
0.117992
0.118159
0.118252
0.118265
0.118294
0.11851
0.118741
0.118709
0.11843
0.118313
0.118484
0.118829
0.118856
0.118793
0.118362
0.118171
0.118213
0.118272
0.118274
0.118268
0.1183
0.11832
0.118279
0.118162
0.118167
0.11821
0.118176
0.118176
0.118227
0.118042
0.117776
0.117796
0.117826
0.117792
0.11786
0.11803
0.118124
0.118049
0.117601
0.117203
0.117159
0.117444
0.118841
0.11963
0.119524
0.119328
0.119403
0.1198
0.119865
0.11959
0.119066
0.118981
0.11902
0.119047
0.118774
0.117771
0.117277
0.117232
0.117194
0.117367
0.11821
0.11933
0.122832
0.156126
0.267998
0.460486
0.670277
0.859537
0.929624
0.961828
0.973071
0.966379
0.944355
0.94775
0.964523
0.977555
0.976912
0.970947
0.963911
0.963177
0.966738
0.975274
0.980568
0.976794
0.117465
0.117504
0.117592
0.117644
0.117648
0.117596
0.117671
0.117954
0.117996
0.118014
0.118146
0.118195
0.118201
0.118363
0.118446
0.118381
0.118367
0.118575
0.118614
0.118466
0.118477
0.118851
0.11915
0.119023
0.118695
0.11867
0.11893
0.119138
0.119155
0.119093
0.118515
0.118122
0.118135
0.118232
0.118235
0.118165
0.118107
0.118102
0.118085
0.117966
0.11796
0.117984
0.117926
0.117937
0.118016
0.117877
0.117672
0.117571
0.117487
0.11757
0.117842
0.118106
0.118362
0.11836
0.118007
0.117465
0.117372
0.117704
0.119308
0.120384
0.120378
0.120104
0.119994
0.120039
0.11997
0.11942
0.118739
0.118619
0.118641
0.118726
0.118558
0.117787
0.117285
0.117301
0.117739
0.119003
0.121113
0.122655
0.122978
0.122532
0.121263
0.124413
0.184659
0.332064
0.544778
0.734763
0.871675
0.904901
0.94004
0.955236
0.987304
0.98282
0.972587
0.962279
0.959843
0.964781
0.974792
0.982717
0.981009
0.973829
0.117923
0.117928
0.117989
0.118314
0.118345
0.11816
0.118103
0.118133
0.118195
0.118352
0.118498
0.118533
0.118505
0.118557
0.118648
0.118645
0.118615
0.118639
0.118644
0.118621
0.118638
0.118912
0.11906
0.118909
0.118706
0.118744
0.119112
0.119282
0.119302
0.119227
0.118403
0.117608
0.117543
0.117679
0.117792
0.117788
0.117823
0.117904
0.117944
0.117914
0.11791
0.117931
0.117865
0.117899
0.117986
0.117856
0.117621
0.117487
0.117425
0.117518
0.117846
0.118615
0.119488
0.119619
0.119369
0.11883
0.118655
0.118895
0.11983
0.120815
0.120973
0.12084
0.12051
0.120403
0.120153
0.119325
0.118633
0.118522
0.118541
0.11859
0.11841
0.11815
0.118426
0.119308
0.120949
0.122607
0.12401
0.124234
0.123905
0.122557
0.121336
0.121846
0.122999
0.124015
0.146808
0.233523
0.414416
0.641766
0.85357
0.919692
0.962071
0.970108
0.969227
0.961144
0.969355
0.978912
0.981704
0.98243
0.980198
0.973419
0.118978
0.118854
0.118779
0.118719
0.118234
0.117854
0.117805
0.117805
0.118141
0.11826
0.118249
0.118285
0.118407
0.118447
0.118508
0.118521
0.11851
0.118511
0.118604
0.118618
0.11862
0.118672
0.118673
0.118527
0.118466
0.118533
0.118979
0.119114
0.119119
0.119054
0.118378
0.117463
0.1173
0.11733
0.117503
0.117635
0.117776
0.117839
0.117836
0.117933
0.118102
0.118075
0.118094
0.118289
0.1183
0.118117
0.117926
0.11784
0.11781
0.117913
0.118427
0.119878
0.121393
0.121753
0.121607
0.121217
0.120936
0.120793
0.120855
0.12091
0.121027
0.121333
0.121446
0.121299
0.120575
0.119823
0.119648
0.119558
0.119394
0.119222
0.119505
0.120783
0.122659
0.12461
0.125772
0.126391
0.126208
0.126105
0.125285
0.125305
0.126233
0.12791
0.130324
0.132355
0.133475
0.134916
0.137053
0.181766
0.312554
0.521126
0.729373
0.847247
0.934063
0.947375
0.983871
0.995645
0.986214
0.982708
0.976843
0.971322
0.119887
0.119393
0.119061
0.11879
0.118743
0.1187
0.118614
0.118612
0.118601
0.118333
0.118307
0.118498
0.118744
0.118761
0.118731
0.118712
0.118724
0.118801
0.118807
0.118779
0.118799
0.118902
0.118907
0.118728
0.118645
0.118695
0.118996
0.119103
0.119108
0.11909
0.11869
0.118057
0.117947
0.117985
0.118266
0.118497
0.118505
0.118403
0.118422
0.119056
0.119604
0.119831
0.120375
0.120484
0.120477
0.120676
0.120973
0.121017
0.120862
0.120873
0.121109
0.12182
0.122915
0.123706
0.123757
0.123581
0.123273
0.122503
0.12158
0.12137
0.121382
0.12162
0.12188
0.121829
0.121385
0.121163
0.121242
0.121624
0.122472
0.123596
0.125202
0.127139
0.128948
0.130381
0.130622
0.130265
0.130094
0.130354
0.13108
0.132347
0.133996
0.136116
0.138539
0.140328
0.141373
0.142436
0.144932
0.145261
0.145126
0.162815
0.233205
0.415178
0.654078
0.832587
0.930809
0.950144
0.971442
0.99116
0.980801
0.975306
0.119734
0.119233
0.11868
0.118667
0.118738
0.118738
0.118594
0.11859
0.118372
0.117998
0.118017
0.118315
0.118483
0.118486
0.118485
0.118435
0.118195
0.11803
0.118024
0.118437
0.118878
0.118892
0.118773
0.118695
0.118738
0.119099
0.119367
0.119578
0.119822
0.119891
0.119844
0.119951
0.120372
0.12067
0.120907
0.120989
0.120785
0.120419
0.120416
0.121514
0.122848
0.123147
0.123602
0.124114
0.124349
0.124547
0.124453
0.124219
0.124298
0.124475
0.124386
0.124209
0.124293
0.12483
0.125071
0.125032
0.124848
0.124155
0.12244
0.121717
0.121806
0.12222
0.122477
0.122725
0.123454
0.124803
0.12662
0.129149
0.131319
0.133081
0.134815
0.13584
0.136497
0.136359
0.136637
0.136863
0.136811
0.137135
0.13841
0.140395
0.142931
0.145458
0.147712
0.150095
0.151359
0.151147
0.151286
0.152206
0.153653
0.15418
0.154744
0.15771
0.199907
0.341821
0.550357
0.733887
0.896606
0.93781
0.958149
0.982394
0.123479
0.123449
0.123678
0.123603
0.122203
0.121958
0.121964
0.122738
0.123023
0.121833
0.121709
0.122306
0.122501
0.121905
0.121486
0.122735
0.123222
0.122082
0.120876
0.121374
0.123126
0.123608
0.123353
0.123097
0.123173
0.123853
0.124885
0.12554
0.126046
0.126905
0.127354
0.127481
0.127593
0.127902
0.128469
0.128618
0.128496
0.127655
0.127029
0.126842
0.126896
0.127621
0.1278
0.12777
0.127675
0.127737
0.127719
0.12788
0.128233
0.128177
0.127679
0.126742
0.126556
0.126494
0.126376
0.126539
0.127102
0.128043
0.129175
0.130109
0.131024
0.132113
0.133658
0.135673
0.137714
0.140052
0.142569
0.14436
0.144394
0.144212
0.144143
0.144506
0.144471
0.144032
0.144161
0.144977
0.146289
0.14794
0.150101
0.152551
0.154891
0.157046
0.158607
0.159652
0.160775
0.161218
0.160531
0.160752
0.162249
0.164177
0.166303
0.168556
0.170777
0.172091
0.187096
0.279173
0.452577
0.649512
0.832281
0.935427
0.131353
0.135536
0.136153
0.136098
0.136106
0.134249
0.132844
0.132879
0.133602
0.133226
0.131527
0.131831
0.132368
0.131213
0.130243
0.132677
0.134634
0.132744
0.128129
0.128137
0.131271
0.133028
0.132516
0.130894
0.13011
0.130161
0.130682
0.131613
0.132185
0.132692
0.133228
0.13335
0.133107
0.133064
0.133437
0.134048
0.134452
0.134463
0.133783
0.131617
0.130656
0.130773
0.131591
0.131865
0.13169
0.131473
0.131724
0.133318
0.135212
0.135445
0.135478
0.135622
0.136297
0.137801
0.139621
0.141286
0.142981
0.144654
0.14652
0.148316
0.149713
0.150983
0.152253
0.153139
0.153457
0.153597
0.153899
0.154214
0.154521
0.154079
0.153454
0.153655
0.154486
0.155287
0.156343
0.158234
0.160894
0.163755
0.165897
0.167515
0.168266
0.16916
0.169205
0.16873
0.16882
0.169801
0.171441
0.172931
0.174426
0.177048
0.180427
0.182954
0.183853
0.184777
0.185938
0.1857
0.188312
0.238622
0.353788
0.648206
0.142029
0.142349
0.14239
0.142287
0.142229
0.142353
0.143329
0.143755
0.14415
0.145056
0.145077
0.143146
0.141123
0.140888
0.141122
0.142652
0.144688
0.144671
0.142885
0.142424
0.144691
0.146439
0.145665
0.144152
0.144053
0.144174
0.144527
0.14533
0.146086
0.146579
0.146719
0.146556
0.145917
0.145769
0.146504
0.147853
0.147797
0.148302
0.150043
0.150403
0.150361
0.150724
0.152696
0.154925
0.155814
0.156392
0.157405
0.158749
0.159012
0.159024
0.158942
0.159286
0.160802
0.162779
0.163937
0.164706
0.164861
0.164754
0.164902
0.165043
0.164963
0.164963
0.165165
0.16512
0.16501
0.16443
0.163772
0.163892
0.164566
0.165417
0.166126
0.167189
0.168949
0.171472
0.17387
0.175731
0.177284
0.178595
0.179394
0.179869
0.180129
0.18069
0.180937
0.181147
0.181525
0.182576
0.185052
0.188222
0.19101
0.193072
0.194582
0.196084
0.196013
0.196042
0.196373
0.197555
0.199178
0.200784
0.201341
0.26541
0.165235
0.165309
0.164783
0.164512
0.164484
0.165464
0.16644
0.166947
0.166707
0.166643
0.166737
0.166361
0.166276
0.16671
0.167229
0.167601
0.167229
0.166345
0.16642
0.168325
0.169983
0.170079
0.1699
0.169355
0.168932
0.168952
0.169738
0.170169
0.170196
0.170265
0.170698
0.171644
0.171913
0.171583
0.171483
0.172069
0.173402
0.173702
0.173672
0.173805
0.174472
0.175066
0.175042
0.174766
0.174692
0.175055
0.175312
0.175233
0.174994
0.175076
0.175739
0.176446
0.176443
0.176139
0.175839
0.175676
0.175371
0.174906
0.174876
0.175165
0.175036
0.174687
0.174793
0.175266
0.176273
0.17751
0.178639
0.180024
0.18198
0.184352
0.186911
0.189306
0.191141
0.192765
0.19405
0.194799
0.195558
0.195429
0.195324
0.19521
0.195265
0.195794
0.197213
0.199097
0.200369
0.201658
0.203023
0.204683
0.206564
0.207832
0.208207
0.208713
0.209666
0.210494
0.211103
0.211737
0.212978
0.214779
0.21652
0.217669
0.189693
0.189609
0.189873
0.191236
0.191753
0.191792
0.19178
0.190673
0.189916
0.189844
0.189875
0.189768
0.189669
0.19057
0.191903
0.192014
0.191295
0.190137
0.189788
0.189853
0.190288
0.191379
0.191915
0.191902
0.190944
0.190208
0.190244
0.191014
0.191974
0.192527
0.19252
0.192164
0.191932
0.19185
0.19172
0.191753
0.192276
0.192854
0.192794
0.192766
0.193118
0.193265
0.192736
0.192431
0.192906
0.19301
0.192973
0.19303
0.193736
0.194542
0.194675
0.194828
0.195376
0.196227
0.197255
0.198442
0.198868
0.199081
0.199919
0.201851
0.203957
0.205474
0.206792
0.208366
0.209587
0.210715
0.212178
0.213898
0.215115
0.215509
0.215926
0.215969
0.215773
0.215659
0.215607
0.215097
0.214356
0.214095
0.213943
0.213946
0.214085
0.214523
0.215575
0.217178
0.21919
0.221195
0.222646
0.223427
0.224028
0.2245
0.224493
0.224373
0.224321
0.22498
0.226048
0.226444
0.22684
0.227688
0.22949
0.232579
0.221723
0.221006
0.221126
0.221081
0.221643
0.221647
0.221641
0.222455
0.223582
0.223575
0.223401
0.223941
0.224544
0.223903
0.222995
0.222877
0.223453
0.224401
0.224444
0.224456
0.225335
0.226335
0.225939
0.224439
0.224287
0.224785
0.225484
0.225423
0.224907
0.224793
0.224889
0.224651
0.224733
0.225929
0.226559
0.226501
0.226541
0.227013
0.227098
0.227261
0.228348
0.229652
0.229639
0.229397
0.229569
0.229927
0.2306
0.23139
0.231497
0.231478
0.231566
0.232236
0.233324
0.233864
0.23436
0.234496
0.234417
0.234459
0.235182
0.235925
0.235907
0.236001
0.2362
0.236055
0.235283
0.234942
0.234878
0.23464
0.233726
0.232785
0.232302
0.231462
0.230258
0.230009
0.229703
0.229508
0.229759
0.230499
0.231825
0.233648
0.235737
0.237853
0.239773
0.241207
0.242658
0.243379
0.243815
0.244161
0.243906
0.243236
0.242706
0.242165
0.241832
0.242095
0.243073
0.245159
0.24761
0.249439
0.250733
0.250327
0.265356
0.263573
0.261154
0.260663
0.260561
0.260486
0.262924
0.264294
0.264333
0.263895
0.263653
0.264082
0.264575
0.264387
0.26265
0.2621
0.262615
0.263114
0.263085
0.26307
0.26355
0.264167
0.26393
0.262981
0.262573
0.262714
0.263285
0.263369
0.26313
0.263137
0.263658
0.264102
0.263867
0.263763
0.263872
0.263957
0.263692
0.263648
0.263836
0.263858
0.263502
0.263349
0.263486
0.263557
0.263105
0.26246
0.262303
0.262421
0.26295
0.263408
0.263324
0.262648
0.262293
0.262481
0.262321
0.261107
0.260584
0.260471
0.26016
0.259854
0.259981
0.260149
0.25992
0.259011
0.25824
0.258195
0.258354
0.258765
0.259466
0.260256
0.260983
0.261846
0.263038
0.264372
0.265781
0.267296
0.268621
0.269853
0.271222
0.272027
0.272576
0.272466
0.272193
0.271628
0.270772
0.269483
0.268155
0.266999
0.26586
0.265156
0.264962
0.265372
0.266416
0.267877
0.269277
0.270275
0.270931
0.270911
0.270298
0.26876
0.315023
0.312338
0.311649
0.311691
0.312161
0.312773
0.31266
0.312642
0.311642
0.3103
0.3106
0.312377
0.312638
0.312216
0.311881
0.31167
0.311489
0.31167
0.31181
0.311717
0.311699
0.312264
0.312267
0.311619
0.310843
0.310857
0.310825
0.310995
0.311336
0.311423
0.310674
0.310235
0.310318
0.310538
0.310499
0.310111
0.309728
0.309735
0.30983
0.3098
0.309494
0.309291
0.309382
0.309767
0.309919
0.309775
0.309417
0.309046
0.308815
0.308676
0.308427
0.308163
0.30816
0.308244
0.308164
0.308018
0.307951
0.307947
0.307885
0.307812
0.307854
0.307795
0.307476
0.307256
0.307306
0.307518
0.307488
0.307451
0.307434
0.307325
0.307083
0.30679
0.30639
0.305849
0.305128
0.304164
0.303016
0.301857
0.300694
0.299439
0.297856
0.296118
0.294305
0.292659
0.291575
0.291199
0.290922
0.290988
0.291545
0.292493
0.293616
0.294591
0.295578
0.295961
0.295698
0.294987
0.293862
0.29241
0.291048
0.289663
0.356298
0.356224
0.356786
0.358028
0.358167
0.356974
0.356804
0.356637
0.354881
0.35448
0.354568
0.35539
0.355653
0.355926
0.355992
0.355943
0.355637
0.354938
0.354783
0.354898
0.355445
0.355677
0.355707
0.354421
0.35362
0.353687
0.353759
0.353547
0.353488
0.353485
0.353235
0.353152
0.353068
0.352891
0.352819
0.352681
0.352384
0.352125
0.352092
0.352064
0.351962
0.351761
0.351521
0.35141
0.351317
0.351141
0.350806
0.350475
0.35024
0.350038
0.349818
0.349459
0.348992
0.348377
0.347885
0.347646
0.347471
0.347252
0.346946
0.346504
0.345871
0.345138
0.344379
0.343683
0.343125
0.342657
0.342163
0.341549
0.340876
0.340147
0.339352
0.338475
0.337547
0.336634
0.335756
0.334872
0.33404
0.333279
0.332785
0.332489
0.332163
0.33186
0.331227
0.330823
0.330782
0.330976
0.330863
0.330194
0.329848
0.329437
0.328686
0.327359
0.325899
0.324221
0.322448
0.320576
0.318968
0.317627
0.316852
0.315579
0.37812
0.378145
0.378139
0.378195
0.378202
0.378156
0.378108
0.378106
0.378229
0.378357
0.37811
0.377602
0.377573
0.377651
0.377759
0.377859
0.377905
0.377814
0.377375
0.377311
0.377438
0.377518
0.377386
0.377171
0.377159
0.377089
0.376662
0.376368
0.376349
0.376341
0.376286
0.376195
0.376152
0.376232
0.376358
0.376358
0.376299
0.376291
0.376329
0.376329
0.376336
0.376388
0.376397
0.376342
0.376176
0.376001
0.375862
0.375718
0.37558
0.375468
0.375394
0.375305
0.375146
0.37487
0.37449
0.374255
0.374142
0.374059
0.373971
0.373807
0.373496
0.373039
0.372542
0.372122
0.371813
0.371538
0.371213
0.370902
0.370606
0.370248
0.369821
0.369348
0.368775
0.368118
0.367514
0.367015
0.366537
0.365978
0.365449
0.364947
0.364405
0.363795
0.362976
0.362005
0.361069
0.360148
0.359202
0.358152
0.356945
0.355763
0.354502
0.353204
0.35186
0.350573
0.349296
0.348087
0.346859
0.345686
0.344529
0.342328
0.383691
0.383722
0.383753
0.383764
0.383746
0.383693
0.383668
0.383648
0.383652
0.383683
0.383687
0.383649
0.383549
0.383469
0.383431
0.383431
0.383468
0.38348
0.383467
0.383475
0.383543
0.383565
0.383505
0.38335
0.383312
0.383311
0.383349
0.383319
0.383178
0.383132
0.383099
0.383031
0.38301
0.383014
0.383042
0.383055
0.38306
0.383082
0.383184
0.383291
0.383364
0.383444
0.383478
0.383482
0.383371
0.383119
0.383053
0.38304
0.383044
0.383063
0.383078
0.38312
0.383193
0.383173
0.383002
0.382792
0.382702
0.382679
0.382784
0.382876
0.382871
0.382798
0.382572
0.382313
0.382147
0.382003
0.38192
0.381972
0.382014
0.381991
0.381886
0.38167
0.381366
0.381087
0.380894
0.380759
0.380609
0.3804
0.380233
0.380113
0.379994
0.379853
0.379617
0.379368
0.37916
0.378914
0.378513
0.378003
0.377527
0.37704
0.376423
0.375625
0.374703
0.373754
0.372766
0.371693
0.370545
0.369277