/*--------------------------------*- C++ -*----------------------------------*\
  =========                 |
  \\      /  F ield         | OpenFOAM: The Open Source CFD Toolbox
   \\    /   O peration     | Website:  https://openfoam.org
    \\  /    A nd           | Version:  7
     \\/     M anipulation  |
\*---------------------------------------------------------------------------*/
FoamFile
{
    version     2.0;
    format      ascii;
    class       volScalarField;
    location    "9.6";
    object      p;
}
// * * * * * * * * * * * * * * * * * * * * * * * * * * * * * * * * * * * * * //

dimensions      [1 -1 -2 0 0 0 0];

internalField   nonuniform List<scalar> 
1750
(
0.255168
0.497883
0.612993
0.613826
0.627805
0.707464
0.786649
0.847484
0.930581
0.987883
0.0246378
0.105925
0.40229
0.702449
0.862888
0.896079
0.889771
0.912723
0.970761
0.993392
0.0235794
0.0253558
0.0494182
0.201948
0.516959
0.754879
0.915265
0.98409
0.989062
0.983524
0.0391069
0.0475642
0.0543383
0.0570342
0.0808136
0.195112
0.413198
0.662101
0.793955
0.933466
0.0750457
0.0886768
0.100335
0.102143
0.100911
0.104204
0.110058
0.17335
0.315141
0.628424
0.130854
0.144587
0.160309
0.16226
0.165594
0.172913
0.182003
0.192358
0.195132
0.263868
0.258542
0.259697
0.262981
0.268448
0.273941
0.27582
0.276159
0.27537
0.272182
0.272647
0.478569
0.460329
0.446512
0.426903
0.409628
0.398032
0.385233
0.371631
0.362902
0.348718
0.821291
0.771117
0.731008
0.691573
0.646491
0.609162
0.578314
0.546612
0.522638
0.48919
1.09112
1.06419
1.03045
0.991381
0.943928
0.890702
0.839487
0.786836
0.73929
0.668694
1.13107
1.13031
1.12798
1.12198
1.11143
1.09348
1.06726
1.0325
0.992918
0.911909
1.09102
1.09878
1.10587
1.11234
1.11191
1.11092
1.1097
1.10695
1.10137
1.07635
1.02055
1.02798
1.037
1.04814
1.06013
1.07121
1.08111
1.08857
1.09473
1.09383
1.001
1.00176
1.00307
1.00529
1.00894
1.01441
1.02194
1.03159
1.04246
1.05994
1.00002
1.00003
1.00006
1.00014
1.0003
1.00066
1.00142
1.00296
1.00544
1.01461
0.0298823
0.0212446
0.0199698
0.0284613
0.0613448
0.128755
0.26511
0.509908
0.867008
1.1088
1.13213
1.08144
1.01486
1.00066
1.00001
0.0335869
0.0211535
0.0211401
0.0329102
0.0748778
0.176111
0.349724
0.630145
0.979563
1.14094
1.13415
1.06245
1.00772
1.00023
1
0.034085
0.0195559
0.0215944
0.0389052
0.0954661
0.218051
0.407576
0.722539
1.05689
1.1518
1.12984
1.04514
1.00394
1.0001
1
0.0308053
0.0181212
0.0214692
0.056597
0.132879
0.259245
0.487919
0.850274
1.12245
1.15647
1.11134
1.02917
1.00183
1.00004
1
0.0273692
0.0168794
0.0237147
0.0717641
0.155071
0.304931
0.611709
0.976963
1.15866
1.15778
1.09269
1.01784
1.00083
1.00001
1
0.0231367
0.0162206
0.0346466
0.0848384
0.192588
0.418039
0.757433
1.07325
1.17442
1.15707
1.0696
1.00872
1.0003
1.00001
1
0.0182703
0.0212461
0.0467882
0.105884
0.258905
0.552552
0.895095
1.14482
1.18138
1.13799
1.04239
1.00352
1.0001
1
1
0.0115718
0.0242362
0.0560469
0.157269
0.386131
0.698038
1.03336
1.18532
1.18282
1.10928
1.02319
1.00141
1.00003
1
1
0.00707045
0.0209572
0.0771896
0.243307
0.527493
0.867041
1.14147
1.1984
1.17102
1.07438
1.01049
1.00044
1.00001
1
1
0.00425532
0.028264
0.136044
0.374306
0.698042
1.0383
1.19781
1.20098
1.1402
1.04224
1.00363
1.00011
1
1
1
0.00489367
0.0668338
0.248598
0.557311
0.912476
1.15797
1.21619
1.19476
1.10102
1.01863
1.00112
1.00003
1
1
1
0.00407035
0.12788
0.417832
0.793102
1.10044
1.22041
1.21987
1.16196
1.05634
1.00655
1.00027
1.00001
1
1
1
0.0317583
0.266112
0.686283
1.03103
1.2114
1.23799
1.21084
1.11437
1.02395
1.0018
1.00006
1
1
1
1
0.160753
0.568554
0.978305
1.18211
1.253
1.24147
1.16876
1.05497
1.00658
1.0003
1.00001
1
1
1
1
0.574836
0.964842
1.18687
1.24593
1.26052
1.21326
1.09707
1.01716
1.00117
1.00004
1
1
1
1
1
1.24724
1.25356
1.25872
1.25488
1.2444
1.13971
1.03229
1.00164
1.00002
1
1
1
1
1
1
1.24659
1.25576
1.26149
1.24889
1.22695
1.12319
1.03228
1.00293
1.00011
1
1
1
1
1
1
1.24728
1.26143
1.26597
1.25048
1.2005
1.07747
1.00979
1.00038
1.00001
1
1
1
1
1
1
1.24686
1.26386
1.26637
1.24136
1.15772
1.04504
1.00398
1.00012
1
1
1
1
1
1
1
1.24581
1.26463
1.26402
1.21827
1.11431
1.02211
1.00134
1.00003
1
1
1
1
1
1
1
1.2505
1.26709
1.26145
1.18775
1.07279
1.00914
1.00037
1.00001
1
1
1
1
1
1
1
1.26912
1.27055
1.25694
1.14523
1.03549
1.00297
1.00009
1
1
1
1
1
1
1
1
1.29479
1.25088
1.21819
1.09086
1.01596
1.00093
1.00002
1
1
1
1
1
1
1
1
1.31747
1.22996
1.16702
1.05241
1.00581
1.00023
1
1
1
1
1
1
1
1
1
1.32979
1.20792
1.1095
1.02256
1.00172
1.00005
1
1
1
1
1
1
1
1
1
1.32758
1.16507
1.06332
1.00873
1.00043
1.00001
1
1
1
1
1
1
1
1
1
1.28346
1.11933
1.03082
1.00273
1.00009
1
1
1
1
1
1
1
1
1
1
1.23297
1.07374
1.01135
1.00059
1.00001
1
1
1
1
1
1
1
1
1
1
1.15873
1.03279
1.00278
1.00009
1
1
1
1
1
1
1
1
1
1
1
1.06961
1.00917
1.0004
1.00001
1
1
1
1
1
1
1
1
1
1
1
1
1
1
1
1
1
1
1
1
1
1
1
1
1
1
1
1
1
1
1
1
1
1
1
1
1
1
1
1
1
1
1
1
1
1
1
1
1
1
1
1
1
1
1
1
1
1
1
1
1
1
1
1
1
1
1
1
1
1
1
1
1
1
1
1
1
1
1
1
1
1
1
1
1
1
1
1
1
1
1
1
1
1
1
1
1
1
1
1
1
1
1
1
1
1
1
1
1
1
1
1
1
1
1
1
1
1
1
1
1
1
1
1
1
1
1
1
1
1
1
1
1
1
1
1
1
1
1
1
1
1
1
1
1
1
1
1
1
1
1
1
1
1
1
1
1
1
1
1
1
1
1
1
1
1
1
1
1
1
1
1
1
1
1
1
1
1
1
1
1
1
1
1
1
1
1
1
1
1
1
1
1
1
1
1
1
1
1
1
1
1
1
1
1
1
1
1
1
1
1
1
1
1
1
1
1
1
1
1
1
1
1
1
1
1
1
1
1
1
1
1
1
1
1
1
1
1
1
1
1
1
1
1
1
1
1
1
1
1
1
1
1
1
1
1
1
1
1
1
1
1
1
1
1
1
1
1
1
1
1
1
1
1
1
1
1
1
1
1
1
1
1
1
1
1
1
1
1
1
1
1
1
1
1
1
1
1
1
1
1
1
1
1
1
1
1
1
1
1
1
1
1
1
1
1
1
1
1
1
1
1
1
1
1
1
1
1
1
1
1
1
1
1
1
1
1
1
1
1
1
1
1
1
1
1
1
1
1
1
1
1
1
1
1
1
1
1
1
1
1
4.61181
1.69316
0.999997
1
1
1
1
1
1
1
1
1
1
1
1
1
1
1
1
1
10.6565
7.27617
3.83226
1.14822
0.999999
1
1
1
1
1
1
1
1
1
1
1
1
1
1
1
8.82084
7.76903
7.739
5.68664
1.67243
0.999854
1
1
1
1
1
1
1
1
1
1
1
1
1
1
8.02289
7.70191
7.90378
7.87856
6.29389
2.03739
0.999036
1
1
1
1
1
1
1
1
1
1
1
1
1
7.78814
7.74389
7.86784
7.86569
7.80008
6.53372
2.23971
0.998429
1
1
1
1
1
1
1
1
1
1
1
1
7.80479
7.84509
7.89195
7.89056
7.87297
7.84449
6.62442
2.2336
0.998264
1
1
1
1
1
1
1
1
1
1
1
7.86202
7.90275
7.89203
7.86106
7.8441
7.81603
7.78096
6.58796
2.18849
0.997833
1
1
1
1
1
1
1
1
1
1
7.8629
7.87342
7.85034
7.8301
7.82606
7.80406
7.8213
7.77295
6.26119
1.92313
0.998087
1
1
1
1
1
1
1
1
1
7.84058
7.82844
7.80971
7.80959
7.81015
7.7954
7.80261
7.8173
7.80348
5.90892
1.67359
0.997963
1.00001
1
1
1
1
1
1
1
7.80518
7.78476
7.78317
7.7939
7.78911
7.77585
7.76138
7.72422
7.7114
7.48254
4.70089
1.29236
0.998867
1
1
1
1
1
1
1
7.7775
7.75993
7.76663
7.76896
7.74745
7.72169
7.67918
7.64089
7.5942
7.53214
7.24277
3.44314
1.07131
0.999672
0.999996
1
1
1
1
1
7.7559
7.73948
7.74279
7.72542
7.69015
7.65251
7.61002
7.56532
7.52558
7.48886
7.50969
6.63795
2.34748
1.0081
1
1
1
1
1
1
7.72812
7.70649
7.6937
7.66362
7.62672
7.58984
7.55117
7.5166
7.49546
7.47815
7.46804
7.40358
5.61547
1.60693
0.999326
0.999972
1
1
1
1
7.67646
7.64054
7.6158
7.57838
7.54457
7.51149
7.47825
7.4525
7.43818
7.43291
7.43795
7.45165
7.21389
3.99541
1.16885
1.00059
1
1
1
1
7.4148
7.27379
7.22652
7.17652
7.14786
7.13623
7.1264
7.12862
7.13417
7.15226
7.19071
7.20503
7.13836
6.39568
2.31822
0.977541
0.998375
0.999988
1
1
2.44173
3.75981
4.4389
4.97639
5.35155
5.64356
5.87838
6.08823
6.24036
6.39669
6.53413
6.61528
6.66328
6.76171
5.55946
1.9872
1.03196
1.00023
1
1
0.711169
1.92222
2.63994
3.24608
3.8393
4.28431
4.69779
5.02749
5.32864
5.57311
5.7959
5.96635
6.13324
6.39187
6.36706
4.60847
1.61402
1.01554
1.0001
1
0.705555
1.31389
1.73816
2.20707
2.71136
3.23688
3.70774
4.12788
4.52934
4.82586
5.10528
5.33518
5.57031
5.86558
6.13791
5.8172
3.38395
1.24736
1.00394
1.00002
0.78704
1.02411
1.21157
1.65995
2.0743
2.50451
2.93303
3.38109
3.77886
4.14176
4.45629
4.72294
5.02137
5.35831
5.65559
5.6707
5.06337
2.26774
1.06239
1.00053
0.901256
0.920444
0.948418
1.22809
1.57562
1.97671
2.38305
2.79489
3.18285
3.57617
3.90541
4.24791
4.55186
4.89318
5.15734
5.37332
5.33492
3.82512
1.44717
1.01005
1.00795
0.940499
0.932843
1.09199
1.28075
1.58097
1.94548
2.33794
2.7303
3.11589
3.45835
3.82238
4.14622
4.45831
4.72898
4.97204
5.22041
4.79927
2.42027
1.09066
1.01702
0.959174
0.967215
1.01516
1.11149
1.35127
1.64348
1.96575
2.32274
2.6807
3.05299
3.38461
3.74616
4.05693
4.33352
4.60662
4.96744
4.88516
3.52293
1.44591
1.00077
0.969632
0.971475
0.957317
0.976679
1.15063
1.4023
1.68415
1.98781
2.28807
2.67057
3.03312
3.39753
3.7402
3.99054
4.28624
4.62158
4.81978
4.29943
2.2882
1.00455
0.992437
0.974594
0.945721
0.939464
1.05781
1.22084
1.4694
1.7531
2.05115
2.37737
2.76123
3.09479
3.43882
3.71169
3.96249
4.26165
4.64242
4.4223
3.5983
1.02554
1.01414
0.989035
0.951027
0.950321
1.02052
1.11387
1.31602
1.55783
1.84779
2.14002
2.50162
2.81911
3.10282
3.42167
3.65473
3.96383
4.34086
4.5515
5.18385
1.02326
1.01067
0.989449
0.965838
0.964334
0.985052
1.02427
1.18322
1.38637
1.64483
1.91075
2.22587
2.54757
2.8083
3.1385
3.41551
3.73032
4.02596
4.78668
6.92486
1.01846
1.00884
1.00227
0.986676
0.969715
0.966725
0.966049
1.05786
1.23461
1.46364
1.73087
2.00441
2.33875
2.60581
2.90567
3.1941
3.48562
3.83522
5.07626
8.94952
1.02229
1.02111
1.03022
1.01394
0.989346
0.966757
0.967289
1.04402
1.16133
1.35531
1.61084
1.85974
2.15416
2.42309
2.68654
2.99215
3.20509
3.65698
5.49727
10.7842
1.02661
1.02807
1.03481
1.02954
1.00887
0.975385
0.967671
1.01459
1.09781
1.26166
1.48542
1.72142
1.97833
2.24254
2.45631
2.78001
3.03178
3.55468
6.09392
11.7612
1.02318
1.03009
1.03297
1.02999
1.00728
0.978541
0.97222
0.989764
1.0222
1.15724
1.33457
1.56422
1.78787
2.06558
2.30605
2.55861
2.90019
3.6644
6.67616
11.9258
0.890276
1.00411
1.02214
1.025
1.00526
0.98578
0.984715
0.988472
1.00013
1.10559
1.25005
1.45069
1.66014
1.91045
2.19492
2.41556
2.74969
4.04995
7.15296
11.5378
0.748182
0.915922
0.988066
1.01391
1.01036
1.00358
0.999795
0.988982
0.993173
1.07648
1.18779
1.36148
1.57359
1.77112
2.03217
2.2937
2.72848
4.65087
7.23961
10.7677
0.635314
0.799243
0.92317
0.990766
1.01621
1.014
1.00541
0.988007
0.987001
1.04634
1.12393
1.24405
1.45553
1.66367
1.84372
2.14135
2.90048
5.32754
7.15559
9.72481
0.567296
0.696691
0.836677
0.948957
1.00847
1.01497
1.00663
0.988244
0.989224
1.01837
1.06848
1.17364
1.32072
1.54197
1.73142
2.0694
3.36174
5.86115
6.90169
8.61819
0.564038
0.635431
0.753302
0.882111
0.979128
1.00995
1.00585
0.993689
0.997297
1.00686
1.02817
1.12527
1.23675
1.40961
1.6269
2.20986
4.04336
6.13333
6.61936
7.47543
0.594202
0.595796
0.676509
0.802573
0.917351
0.987389
1.00292
1.00025
0.994713
0.986442
0.988962
1.06319
1.16153
1.3141
1.61718
2.63714
4.57691
6.02025
6.24148
6.48752
0.656948
0.610121
0.629834
0.717576
0.827919
0.932613
0.986668
0.993367
0.984331
0.968463
0.967994
1.00486
1.0766
1.25375
1.81474
3.27057
4.74924
5.75246
5.72296
5.65732
0.731326
0.660651
0.628128
0.650674
0.736098
0.854738
0.943381
0.977589
0.969118
0.956778
0.957152
0.979198
1.03627
1.3484
2.28854
3.77539
4.60115
5.25964
5.13661
4.97726
0.819218
0.734694
0.643481
0.642725
0.667097
0.765537
0.871192
0.941176
0.957352
0.949612
0.948745
0.977671
1.11399
1.80756
3.05605
3.89769
4.27055
4.67598
4.61661
4.49434
0.943473
0.876097
0.772209
0.677679
0.661046
0.687201
0.755925
0.846244
0.912689
0.954963
1.04746
1.30571
1.8437
2.5759
3.16101
3.57183
3.6348
3.81977
3.84669
3.79937
)
;

boundaryField
{
    inlet
    {
        type            fixedValue;
        value           uniform 1;
    }
    outlet
    {
        type            zeroGradient;
    }
    airfoil
    {
        type            zeroGradient;
    }
    top
    {
        type            symmetryPlane;
    }
    bottom
    {
        type            symmetryPlane;
    }
    defaultFaces
    {
        type            empty;
    }
}


// ************************************************************************* //
