/*--------------------------------*- C++ -*----------------------------------*\
  =========                 |
  \\      /  F ield         | OpenFOAM: The Open Source CFD Toolbox
   \\    /   O peration     | Website:  https://openfoam.org
    \\  /    A nd           | Version:  7
     \\/     M anipulation  |
\*---------------------------------------------------------------------------*/
FoamFile
{
    version     2.0;
    format      ascii;
    class       volScalarField;
    location    "7.5";
    object      rho;
}
// * * * * * * * * * * * * * * * * * * * * * * * * * * * * * * * * * * * * * //

dimensions      [1 -3 0 0 0 0 0];

internalField   nonuniform List<scalar> 
90000
(
0.306052
0.348285
0.384723
0.42304
0.455027
0.488901
0.531907
0.575829
0.618982
0.667911
0.713478
0.760187
0.800424
0.838335
0.869293
0.891815
0.909687
0.918533
0.925392
0.922557
0.917157
0.908438
0.904864
0.903546
0.903328
0.90445
0.907317
0.909483
0.909208
0.904596
0.902502
0.904011
0.908032
0.914035
0.919776
0.925189
0.929231
0.929546
0.930219
0.931611
0.933343
0.933137
0.931939
0.930664
0.930627
0.930922
0.930571
0.929453
0.929349
0.929697
0.929759
0.929082
0.928456
0.928503
0.928851
0.929159
0.928574
0.927785
0.927424
0.927734
0.927276
0.92674
0.926944
0.92669
0.926014
0.925116
0.924347
0.92436
0.924289
0.924065
0.92359
0.922591
0.92084
0.919084
0.918456
0.91909
0.918689
0.916885
0.914366
0.912992
0.912697
0.912711
0.912048
0.910845
0.909694
0.909544
0.909627
0.908655
0.906925
0.906363
0.908013
0.911746
0.91723
0.924724
0.936931
0.951377
0.972229
0.998183
1.0172
1.03906
0.260049
0.260063
0.26007
0.260077
0.260095
0.26012
0.260885
0.263776
0.269845
0.28113
0.299013
0.323413
0.35756
0.398936
0.452752
0.511141
0.576921
0.63804
0.701047
0.747668
0.790583
0.822238
0.848668
0.872824
0.886763
0.902333
0.899814
0.89734
0.89055
0.880215
0.883813
0.884583
0.8847
0.883875
0.881529
0.879546
0.878506
0.879787
0.883161
0.88845
0.893171
0.895068
0.895818
0.896947
0.896312
0.8942
0.891007
0.889754
0.890774
0.893656
0.896451
0.89844
0.899618
0.899561
0.898571
0.896863
0.896211
0.897388
0.90048
0.903773
0.903245
0.901308
0.900647
0.90158
0.903318
0.90396
0.903175
0.90284
0.903534
0.904383
0.904918
0.904568
0.903597
0.903455
0.903992
0.905285
0.905255
0.903877
0.902812
0.903187
0.903801
0.903553
0.90302
0.902628
0.902714
0.903333
0.904074
0.904377
0.90429
0.904844
0.906956
0.911505
0.917783
0.924687
0.936474
0.953726
0.973843
0.998502
1.01923
1.0444
0.260486
0.26059
0.260709
0.260845
0.260997
0.261176
0.261381
0.261536
0.261681
0.261841
0.262023
0.262228
0.262455
0.262716
0.262945
0.264403
0.270288
0.284004
0.307305
0.343232
0.388361
0.447913
0.511736
0.587741
0.653668
0.725231
0.780407
0.824243
0.85945
0.880631
0.897445
0.897793
0.893453
0.88953
0.880661
0.87576
0.872196
0.873988
0.874614
0.876033
0.876438
0.878491
0.881933
0.887713
0.889069
0.887671
0.885093
0.884779
0.885132
0.884502
0.883823
0.884938
0.887542
0.890266
0.892016
0.89072
0.889422
0.889044
0.889557
0.891658
0.893616
0.894674
0.894216
0.893452
0.894061
0.895534
0.896982
0.897399
0.897326
0.897554
0.897919
0.897731
0.897182
0.897874
0.89983
0.901676
0.901458
0.900653
0.900957
0.902356
0.903861
0.903311
0.902293
0.901861
0.902417
0.903314
0.904174
0.903763
0.903345
0.904222
0.906992
0.911718
0.91817
0.925661
0.937671
0.956049
0.977141
1.00035
1.02234
1.05024
0.262346
0.262518
0.262705
0.262905
0.263118
0.26335
0.263585
0.263842
0.264104
0.264402
0.26471
0.265053
0.265406
0.265787
0.266176
0.266571
0.266973
0.267157
0.267381
0.267626
0.267973
0.268258
0.269731
0.277129
0.295802
0.328217
0.381758
0.448176
0.537496
0.625537
0.706819
0.771792
0.811786
0.85585
0.868607
0.879583
0.877741
0.876542
0.876058
0.87318
0.869354
0.871127
0.875135
0.881612
0.882107
0.881923
0.88188
0.883693
0.884979
0.884241
0.882178
0.881976
0.883285
0.885218
0.887019
0.887136
0.887526
0.888447
0.88873
0.888678
0.889328
0.890844
0.89224
0.892448
0.89223
0.892725
0.893887
0.894996
0.895113
0.895166
0.895484
0.895456
0.895056
0.89596
0.898209
0.899809
0.899698
0.899323
0.900227
0.902102
0.903174
0.902542
0.901697
0.901519
0.902269
0.904279
0.905312
0.904363
0.904346
0.906232
0.909735
0.91416
0.920248
0.92855
0.941003
0.959259
0.982354
1.00558
1.02831
1.0565
0.264482
0.264686
0.264906
0.265139
0.265384
0.26564
0.265909
0.266188
0.266484
0.266793
0.267104
0.267442
0.267761
0.268117
0.268448
0.268814
0.269164
0.269549
0.269956
0.270382
0.270828
0.271258
0.271752
0.271936
0.272165
0.272398
0.272754
0.273001
0.275144
0.288112
0.317241
0.37179
0.443967
0.540182
0.640912
0.722698
0.786842
0.837891
0.857989
0.871571
0.872377
0.876394
0.881542
0.886274
0.88153
0.883985
0.888224
0.892736
0.890632
0.887676
0.885945
0.887263
0.888881
0.888507
0.888541
0.889661
0.892125
0.893475
0.892948
0.891583
0.891493
0.892668
0.89482
0.895594
0.895508
0.896016
0.896896
0.897475
0.89656
0.895867
0.89543
0.895927
0.897248
0.899434
0.901362
0.901485
0.900913
0.901144
0.902811
0.904754
0.904766
0.903757
0.903272
0.903637
0.904861
0.906634
0.907085
0.907042
0.907876
0.910125
0.913529
0.917975
0.924127
0.933473
0.947349
0.965879
0.988975
1.01315
1.03582
1.0635
0.266983
0.267198
0.267426
0.267664
0.267907
0.268157
0.268412
0.268678
0.268952
0.269232
0.269518
0.269804
0.270105
0.270411
0.270721
0.271051
0.271371
0.271711
0.272037
0.272387
0.272706
0.273052
0.273351
0.273689
0.274029
0.27439
0.274734
0.275087
0.275344
0.275517
0.275706
0.276027
0.276251
0.277858
0.294416
0.331674
0.400096
0.49298
0.598969
0.697292
0.770728
0.826137
0.853731
0.875643
0.8812
0.890647
0.899843
0.903147
0.897264
0.894486
0.896266
0.898457
0.896553
0.892661
0.893394
0.896756
0.900417
0.900724
0.899181
0.896815
0.896692
0.897785
0.900139
0.901409
0.901412
0.90156
0.901891
0.901646
0.900472
0.900162
0.9011
0.902778
0.904149
0.905149
0.905126
0.90417
0.903696
0.904355
0.906157
0.907495
0.907162
0.90659
0.90724
0.908244
0.909527
0.910553
0.910507
0.911018
0.912838
0.916215
0.920285
0.924955
0.93124
0.940818
0.955582
0.973973
0.995909
1.02114
1.04408
1.07072
0.269656
0.269848
0.270054
0.270262
0.270481
0.2707
0.270928
0.271158
0.271398
0.271635
0.27188
0.272125
0.272382
0.272634
0.272898
0.273153
0.273421
0.273682
0.273954
0.274219
0.274496
0.274765
0.275044
0.275317
0.275588
0.275856
0.27611
0.276368
0.276619
0.276876
0.277175
0.277464
0.277749
0.278031
0.278199
0.278318
0.278483
0.278627
0.287353
0.316916
0.381056
0.47258
0.584353
0.691169
0.778124
0.844274
0.875893
0.898241
0.900811
0.907198
0.916337
0.916585
0.912097
0.905286
0.905115
0.907815
0.909587
0.909022
0.908795
0.908149
0.908187
0.909132
0.910987
0.911805
0.911642
0.9113
0.911268
0.91051
0.909789
0.909856
0.910427
0.911428
0.91256
0.91382
0.913283
0.912102
0.91145
0.912351
0.914529
0.915483
0.915064
0.914203
0.914711
0.915886
0.917412
0.918055
0.917779
0.918061
0.920428
0.924574
0.928619
0.932775
0.939244
0.949174
0.964153
0.982509
1.00383
1.02892
1.0513
1.0771
0.271964
0.272127
0.272295
0.27247
0.272647
0.272833
0.273018
0.273211
0.273405
0.273608
0.273806
0.274011
0.274217
0.27443
0.274639
0.274853
0.275067
0.275287
0.275508
0.275733
0.275957
0.276183
0.276403
0.276623
0.276839
0.277054
0.277267
0.277479
0.277691
0.277906
0.278133
0.278331
0.278561
0.278731
0.278942
0.279139
0.279371
0.279565
0.279661
0.27975
0.279871
0.279964
0.286638
0.313781
0.380925
0.480992
0.604418
0.724618
0.81143
0.878337
0.904623
0.918685
0.916975
0.917629
0.920686
0.922903
0.920919
0.917831
0.916549
0.91622
0.917045
0.919287
0.921544
0.922105
0.921593
0.920763
0.91992
0.918539
0.918579
0.919323
0.920398
0.921145
0.921923
0.922793
0.921657
0.919903
0.919705
0.921051
0.923327
0.923906
0.922881
0.922299
0.923373
0.924973
0.926288
0.926179
0.925718
0.926469
0.929209
0.932975
0.936258
0.940125
0.946726
0.957005
0.971917
0.989679
1.01085
1.03571
1.05738
1.08212
0.274068
0.274198
0.274335
0.274474
0.274619
0.274766
0.274917
0.27507
0.275227
0.275384
0.275544
0.275703
0.275868
0.276036
0.276205
0.276371
0.27654
0.276712
0.276885
0.277058
0.27723
0.277401
0.27757
0.277744
0.277911
0.278087
0.278252
0.27843
0.278594
0.278777
0.278942
0.279127
0.279289
0.279455
0.279611
0.279753
0.2799
0.280016
0.280163
0.280292
0.280436
0.280551
0.280607
0.280669
0.280776
0.28087
0.290208
0.326494
0.414193
0.541743
0.674614
0.793344
0.860603
0.912443
0.920246
0.927465
0.926481
0.927345
0.92602
0.925976
0.927154
0.929299
0.929053
0.927876
0.927302
0.927946
0.92786
0.926605
0.926971
0.928627
0.929844
0.930062
0.930388
0.930358
0.928828
0.927363
0.92773
0.929457
0.930286
0.929965
0.929518
0.930109
0.93199
0.933652
0.934343
0.93387
0.933251
0.933983
0.936605
0.939828
0.942606
0.946257
0.953085
0.963787
0.978606
0.995632
1.01651
1.04173
1.06277
1.08619
0.275807
0.275912
0.276018
0.276127
0.276235
0.276347
0.27646
0.276577
0.276696
0.276815
0.276933
0.277052
0.277175
0.2773
0.277429
0.277555
0.277684
0.277813
0.277947
0.278076
0.278211
0.27834
0.278478
0.27861
0.278751
0.278889
0.279035
0.279173
0.279317
0.279454
0.279594
0.279735
0.279862
0.279985
0.280087
0.280203
0.280304
0.280428
0.28054
0.280647
0.280758
0.280837
0.280968
0.281111
0.281304
0.281483
0.281586
0.281694
0.281887
0.282131
0.306586
0.372982
0.502038
0.657506
0.776497
0.870508
0.906754
0.930249
0.92747
0.930789
0.935807
0.938534
0.936524
0.932642
0.929776
0.931088
0.931909
0.932078
0.933617
0.935951
0.935894
0.934969
0.934819
0.93467
0.933506
0.933164
0.934564
0.936565
0.935861
0.934583
0.934599
0.936334
0.939208
0.940767
0.940826
0.940222
0.939841
0.940745
0.942986
0.944803
0.946899
0.950721
0.958051
0.968988
0.983531
1.00026
1.02107
1.04678
1.06752
1.08979
0.277239
0.277314
0.27739
0.277468
0.277546
0.277626
0.277708
0.277793
0.277879
0.277968
0.278055
0.278147
0.278238
0.278335
0.278433
0.278532
0.278632
0.278738
0.278841
0.278947
0.279055
0.279166
0.279277
0.279393
0.279509
0.279629
0.279751
0.27987
0.279988
0.280097
0.280209
0.280313
0.280416
0.2805
0.280589
0.280677
0.280771
0.280879
0.28098
0.281099
0.281205
0.28134
0.281485
0.281647
0.281822
0.281992
0.282211
0.282447
0.282702
0.28296
0.283085
0.283306
0.283486
0.299531
0.369304
0.493209
0.654091
0.799187
0.873918
0.927516
0.933439
0.938494
0.93809
0.935919
0.933169
0.934475
0.934464
0.935551
0.93904
0.941522
0.940299
0.938436
0.938071
0.937727
0.937428
0.938777
0.941879
0.942225
0.939812
0.938046
0.938712
0.94151
0.944572
0.945498
0.945239
0.944764
0.944899
0.946034
0.947613
0.948385
0.950237
0.954429
0.962328
0.973488
0.987617
1.00415
1.0251
1.0513
1.07168
1.0931
0.278305
0.278358
0.278417
0.278477
0.278538
0.278601
0.278666
0.278732
0.278802
0.278873
0.278948
0.279022
0.279099
0.279178
0.279263
0.27935
0.279439
0.279531
0.279623
0.279713
0.279806
0.279904
0.280002
0.2801
0.280197
0.280298
0.280395
0.280494
0.280585
0.280674
0.280757
0.280838
0.280917
0.280993
0.281073
0.281155
0.281257
0.281362
0.281483
0.281602
0.281736
0.281879
0.282027
0.282208
0.282388
0.28261
0.282838
0.283054
0.28326
0.28347
0.283724
0.284025
0.284325
0.284494
0.284795
0.28503
0.304647
0.375461
0.525067
0.699907
0.816991
0.900895
0.921544
0.934801
0.935826
0.940475
0.938644
0.939598
0.943504
0.944077
0.941317
0.940697
0.940979
0.940763
0.941269
0.944593
0.948349
0.946989
0.9433
0.941973
0.943295
0.946586
0.948841
0.949058
0.948724
0.948517
0.949132
0.950709
0.951489
0.951589
0.953377
0.958059
0.966424
0.97747
0.991011
1.00747
1.02889
1.05557
1.07554
1.09638
0.279252
0.279298
0.279346
0.279395
0.279446
0.279498
0.279553
0.279611
0.279672
0.279738
0.279807
0.279875
0.279941
0.280009
0.280083
0.28016
0.280244
0.280328
0.280412
0.280492
0.280573
0.280656
0.280739
0.280818
0.280895
0.280972
0.281047
0.281122
0.281195
0.281266
0.281333
0.281401
0.281471
0.281547
0.281624
0.28172
0.281823
0.281947
0.282077
0.282217
0.282368
0.282517
0.282685
0.282863
0.283059
0.283273
0.283505
0.283713
0.283936
0.284168
0.28441
0.284652
0.284892
0.285203
0.285579
0.285968
0.28618
0.286515
0.286776
0.314183
0.415711
0.581896
0.74885
0.875048
0.928205
0.943309
0.941063
0.943732
0.948212
0.945869
0.941737
0.942919
0.944497
0.9448
0.945964
0.95009
0.951974
0.949591
0.946723
0.94693
0.949093
0.951384
0.951905
0.951776
0.951617
0.951893
0.953033
0.954855
0.954826
0.954805
0.956657
0.961826
0.970466
0.981318
0.994363
1.01075
1.03266
1.05966
1.07913
1.09977
0.280126
0.280166
0.280209
0.280254
0.2803
0.280349
0.280399
0.280452
0.280508
0.280569
0.280634
0.2807
0.280762
0.280823
0.280885
0.28095
0.281019
0.281092
0.281165
0.281235
0.281301
0.281364
0.281424
0.281482
0.281539
0.281597
0.281654
0.281712
0.281774
0.281836
0.281901
0.281966
0.282038
0.282115
0.282204
0.282308
0.282424
0.282559
0.282704
0.282857
0.283017
0.283181
0.283344
0.283516
0.283698
0.283903
0.284128
0.284343
0.284553
0.284776
0.285002
0.285235
0.285498
0.285802
0.286139
0.286494
0.286867
0.287309
0.287671
0.287944
0.288143
0.291302
0.344993
0.477476
0.666569
0.826834
0.903468
0.945306
0.944829
0.946392
0.944351
0.947435
0.950433
0.949556
0.950138
0.953565
0.953894
0.951205
0.950111
0.951901
0.95478
0.955463
0.954757
0.954378
0.954351
0.954964
0.956753
0.958405
0.957853
0.958145
0.960347
0.965938
0.974438
0.984947
0.99771
1.01417
1.03652
1.06359
1.08261
1.10337
0.280967
0.281004
0.281042
0.281081
0.281122
0.281166
0.281212
0.281259
0.281309
0.281362
0.281418
0.281477
0.281532
0.281583
0.281635
0.281688
0.281742
0.281797
0.281855
0.281911
0.281961
0.282005
0.282044
0.282085
0.282127
0.282173
0.28222
0.282272
0.282331
0.282396
0.282466
0.282538
0.282618
0.282707
0.282807
0.282921
0.283051
0.2832
0.283362
0.283524
0.2837
0.283873
0.284034
0.284195
0.284357
0.284547
0.284761
0.284977
0.285189
0.285417
0.285648
0.285887
0.286159
0.286443
0.286787
0.28715
0.28754
0.2879
0.288245
0.288654
0.289008
0.289175
0.289457
0.289622
0.312341
0.406611
0.596654
0.788966
0.881002
0.94357
0.942925
0.951585
0.95677
0.953981
0.954121
0.955665
0.953936
0.952429
0.95363
0.957222
0.958894
0.957891
0.956943
0.95688
0.957021
0.957916
0.96012
0.961215
0.960815
0.961583
0.9644
0.970261
0.978291
0.988516
1.00125
1.01785
1.04037
1.06723
1.0859
1.10713
0.281774
0.281803
0.281835
0.281866
0.2819
0.281935
0.281972
0.282012
0.282052
0.282093
0.282137
0.282185
0.28223
0.282271
0.282311
0.282352
0.282393
0.282434
0.282476
0.282518
0.282557
0.282591
0.282624
0.282659
0.282697
0.282742
0.282791
0.282847
0.282914
0.282989
0.283072
0.283157
0.283251
0.283355
0.283463
0.283585
0.283718
0.283876
0.28404
0.284206
0.284383
0.284562
0.284716
0.284858
0.284999
0.285162
0.285366
0.285583
0.285808
0.286045
0.286293
0.286543
0.286802
0.287091
0.28741
0.287778
0.288144
0.288512
0.288898
0.289262
0.28956
0.289862
0.290219
0.290476
0.290699
0.290893
0.296987
0.362697
0.530825
0.740953
0.869854
0.947924
0.947644
0.9539
0.959106
0.958578
0.953645
0.953816
0.95786
0.962774
0.962187
0.960277
0.959378
0.959682
0.960062
0.961204
0.963375
0.963679
0.963635
0.965099
0.968752
0.974458
0.981588
0.991678
1.00483
1.02182
1.04419
1.07045
1.08936
1.11108
0.282543
0.282563
0.282583
0.282604
0.282628
0.282652
0.282676
0.282705
0.282735
0.282763
0.282794
0.28283
0.282866
0.282899
0.282933
0.282967
0.283001
0.283034
0.283069
0.283105
0.28314
0.283172
0.283205
0.283243
0.283285
0.283336
0.283395
0.28346
0.283537
0.283623
0.283719
0.283817
0.283921
0.284032
0.284146
0.28427
0.284402
0.284556
0.284721
0.284881
0.285058
0.285238
0.285396
0.285531
0.285663
0.285809
0.286001
0.286225
0.286467
0.286724
0.286998
0.287262
0.287544
0.287834
0.288147
0.288484
0.288847
0.289223
0.289583
0.289943
0.290259
0.290568
0.290844
0.291118
0.291444
0.291828
0.292059
0.292487
0.292746
0.333102
0.482344
0.704157
0.839326
0.941836
0.946606
0.958429
0.956266
0.960473
0.966048
0.967366
0.964581
0.963202
0.963309
0.963901
0.964051
0.96504
0.96661
0.966317
0.966772
0.968942
0.973004
0.978095
0.984364
0.994465
1.00832
1.02577
1.04773
1.07318
1.09294
1.11514
0.283199
0.283211
0.283225
0.283239
0.283255
0.283272
0.283289
0.28331
0.283333
0.283357
0.283382
0.283413
0.283445
0.283475
0.283506
0.28354
0.283578
0.283614
0.283649
0.283687
0.283726
0.283768
0.283813
0.283865
0.283925
0.283994
0.284072
0.284158
0.284251
0.284348
0.284457
0.284566
0.284676
0.284792
0.284911
0.285035
0.285162
0.285303
0.285455
0.285599
0.285763
0.285943
0.286113
0.286257
0.286391
0.286531
0.286715
0.286951
0.287208
0.287488
0.287782
0.288079
0.288366
0.288652
0.28894
0.289251
0.289591
0.289931
0.290297
0.290616
0.290943
0.291224
0.291495
0.291809
0.292103
0.292457
0.292876
0.293306
0.293633
0.293899
0.294062
0.320557
0.45247
0.671726
0.831607
0.943756
0.950075
0.96977
0.975245
0.972092
0.966306
0.966913
0.967898
0.968974
0.96874
0.969122
0.969602
0.968956
0.970138
0.973126
0.976833
0.980672
0.986195
0.996687
1.0117
1.02957
1.05084
1.07583
1.09671
1.11924
0.283857
0.283867
0.283879
0.283892
0.283905
0.283918
0.283933
0.283949
0.283968
0.283992
0.284018
0.284048
0.284083
0.284118
0.284155
0.284195
0.28424
0.284285
0.284328
0.284371
0.284419
0.284473
0.284534
0.284607
0.28469
0.28478
0.284873
0.284973
0.285078
0.285183
0.285298
0.285409
0.285518
0.285633
0.285752
0.285875
0.285998
0.286125
0.286259
0.286388
0.286532
0.28671
0.286891
0.287058
0.287208
0.287358
0.287545
0.287782
0.288047
0.288329
0.288634
0.288958
0.289251
0.28953
0.28979
0.290077
0.290376
0.290708
0.291018
0.291346
0.291635
0.291884
0.292155
0.292491
0.292838
0.293183
0.293587
0.293878
0.294163
0.294561
0.294817
0.295093
0.295335
0.310906
0.428154
0.644015
0.823481
0.950932
0.963274
0.97291
0.967757
0.972442
0.972897
0.973618
0.972333
0.972875
0.972724
0.972446
0.974313
0.977546
0.980431
0.98291
0.987755
0.998747
1.015
1.03299
1.05331
1.07834
1.10139
1.12317
0.284528
0.284539
0.284552
0.284567
0.284583
0.284601
0.284621
0.284643
0.284669
0.284698
0.28473
0.284767
0.284807
0.284851
0.2849
0.284955
0.285016
0.285078
0.285137
0.285191
0.285246
0.285304
0.285373
0.285461
0.285564
0.285668
0.285767
0.28587
0.285983
0.286098
0.286217
0.286326
0.286431
0.286541
0.286661
0.28679
0.286919
0.287045
0.28717
0.287288
0.287416
0.287581
0.287771
0.287966
0.288145
0.288307
0.288488
0.288725
0.288981
0.289246
0.289543
0.289869
0.290168
0.290408
0.29064
0.290887
0.29116
0.291435
0.291714
0.291991
0.292238
0.292493
0.292758
0.293113
0.293501
0.293855
0.294171
0.294476
0.294772
0.295082
0.295385
0.295829
0.296374
0.296859
0.297077
0.306671
0.410654
0.630402
0.80908
0.94539
0.952779
0.976767
0.978314
0.977647
0.974833
0.976216
0.975724
0.976544
0.97941
0.981565
0.983429
0.985201
0.989847
1.00162
1.01866
1.0361
1.05551
1.0812
1.10687
1.12734
0.285366
0.285386
0.285408
0.28543
0.285454
0.28548
0.28551
0.285542
0.285579
0.285619
0.285663
0.285712
0.285762
0.285816
0.285874
0.285936
0.286006
0.286081
0.286155
0.286217
0.286269
0.286322
0.286384
0.286466
0.286565
0.286673
0.286777
0.286881
0.286994
0.287108
0.287222
0.287329
0.287431
0.287538
0.287655
0.287784
0.287916
0.288051
0.288179
0.288293
0.288406
0.288552
0.288733
0.288936
0.289134
0.289304
0.289482
0.289715
0.289956
0.290184
0.290441
0.290733
0.291026
0.291228
0.291411
0.291647
0.291901
0.29214
0.292387
0.292608
0.292845
0.293086
0.293385
0.293755
0.294222
0.294585
0.294836
0.295162
0.295422
0.295778
0.296256
0.29669
0.297342
0.297872
0.298197
0.298505
0.298761
0.304917
0.403934
0.627565
0.822373
0.955965
0.963526
0.97864
0.976665
0.980536
0.979031
0.980515
0.984444
0.985218
0.986593
0.988099
0.992996
1.00552
1.02254
1.03899
1.05786
1.08482
1.11265
1.13249
0.286387
0.286417
0.28645
0.286482
0.286514
0.286548
0.286582
0.286619
0.28666
0.286704
0.286753
0.286807
0.286862
0.28692
0.286978
0.287038
0.287106
0.287183
0.28726
0.287319
0.287366
0.287407
0.287453
0.287514
0.287591
0.287683
0.287786
0.287889
0.287996
0.2881
0.2882
0.288302
0.288404
0.288512
0.288625
0.288744
0.288875
0.28902
0.289165
0.289288
0.289398
0.289523
0.28968
0.289881
0.290096
0.290276
0.290448
0.29069
0.290915
0.291083
0.291277
0.291506
0.291776
0.291969
0.292118
0.292343
0.292614
0.292824
0.293043
0.293248
0.29347
0.293758
0.294112
0.294508
0.294982
0.295353
0.295629
0.295901
0.296241
0.296707
0.297234
0.297809
0.298363
0.298739
0.299097
0.299603
0.300225
0.300661
0.301046
0.307166
0.411692
0.640196
0.825252
0.959262
0.964568
0.984379
0.984576
0.986225
0.988782
0.9876
0.990024
0.992408
0.998528
1.01115
1.02726
1.04287
1.0617
1.09014
1.11994
1.13803
0.287503
0.287536
0.287571
0.287606
0.287641
0.287678
0.287717
0.287755
0.287793
0.287835
0.287883
0.287937
0.28799
0.288046
0.288103
0.28816
0.288221
0.288292
0.288366
0.288423
0.288465
0.288496
0.288521
0.288555
0.288604
0.288671
0.288759
0.288855
0.288958
0.289061
0.289158
0.289257
0.289358
0.289465
0.289578
0.289688
0.289819
0.289974
0.290134
0.290271
0.290388
0.2905
0.290629
0.29081
0.291032
0.291225
0.291393
0.291649
0.291862
0.291969
0.292084
0.292247
0.292461
0.292711
0.292857
0.293062
0.293358
0.293585
0.293802
0.294042
0.294302
0.294627
0.295044
0.295479
0.295874
0.296316
0.296613
0.296892
0.297338
0.297802
0.298482
0.299199
0.29943
0.299817
0.300223
0.300711
0.301458
0.301956
0.302536
0.303227
0.303482
0.31058
0.424856
0.659239
0.848017
0.972604
0.975514
0.990386
0.995362
0.990596
0.995555
0.997461
1.00497
1.01675
1.03225
1.04813
1.0676
1.09751
1.1285
1.14398
0.288482
0.288517
0.288554
0.288589
0.288624
0.288663
0.288706
0.288747
0.288782
0.28882
0.288863
0.288909
0.288955
0.289005
0.28906
0.289115
0.289169
0.289226
0.28929
0.289355
0.289404
0.289434
0.289453
0.289467
0.289491
0.289535
0.289611
0.289713
0.289822
0.289933
0.290038
0.290142
0.290251
0.290364
0.290475
0.290574
0.290692
0.290847
0.291015
0.291177
0.291325
0.291448
0.291571
0.29174
0.291959
0.292187
0.292355
0.292583
0.2928
0.292856
0.292913
0.293033
0.293216
0.293511
0.29373
0.293963
0.29428
0.294579
0.294824
0.295119
0.295443
0.295803
0.296249
0.296682
0.297025
0.297403
0.297728
0.298078
0.298563
0.299151
0.299741
0.300459
0.300698
0.300852
0.301256
0.301799
0.302705
0.30372
0.303933
0.304672
0.306416
0.306479
0.30693
0.318315
0.445743
0.692691
0.871776
0.979575
0.988927
0.994767
1.00759
1.00543
1.01306
1.02269
1.03976
1.05643
1.07587
1.10695
1.13711
1.15027
0.28946
0.289493
0.28953
0.289566
0.289597
0.289624
0.289657
0.289692
0.289721
0.289749
0.289779
0.289813
0.289851
0.289894
0.289944
0.289998
0.290049
0.290105
0.290166
0.290229
0.290285
0.290326
0.290355
0.290376
0.290404
0.290449
0.290528
0.29064
0.290757
0.290873
0.29099
0.291108
0.291227
0.291338
0.29143
0.29151
0.291619
0.291779
0.291961
0.292165
0.292372
0.292532
0.292671
0.292841
0.29304
0.293302
0.293492
0.293636
0.293836
0.293921
0.293982
0.2941
0.294297
0.29459
0.294927
0.295221
0.295542
0.295858
0.296139
0.296477
0.296851
0.297212
0.297551
0.297979
0.298292
0.298545
0.298954
0.29939
0.29996
0.30072
0.301151
0.30165
0.302081
0.302306
0.302942
0.303726
0.304402
0.305875
0.3068
0.307062
0.30889
0.31036
0.312037
0.313365
0.314525
0.334692
0.482132
0.72845
0.910919
0.986087
1.01871
1.01395
1.02429
1.02992
1.04915
1.0666
1.08597
1.11717
1.14449
1.15727
0.290316
0.290347
0.290383
0.290416
0.290445
0.290472
0.290502
0.290533
0.29056
0.290585
0.290612
0.290642
0.290677
0.290718
0.290767
0.290822
0.290879
0.290948
0.291027
0.291109
0.291189
0.291268
0.29134
0.291397
0.291452
0.291516
0.291599
0.291716
0.291845
0.291969
0.292103
0.292242
0.292386
0.292506
0.292588
0.29267
0.292783
0.292953
0.293153
0.293378
0.293645
0.293861
0.294025
0.294195
0.294361
0.294585
0.294855
0.294958
0.295116
0.29531
0.295407
0.295531
0.295734
0.296027
0.296387
0.296692
0.296991
0.297307
0.297632
0.29796
0.298338
0.29865
0.298914
0.299269
0.299603
0.299903
0.300393
0.301044
0.301684
0.302484
0.302919
0.302982
0.303605
0.304535
0.305461
0.306829
0.307431
0.30831
0.310772
0.312037
0.312849
0.315572
0.317542
0.319977
0.322957
0.324506
0.325797
0.356079
0.516805
0.764556
0.961367
1.00623
1.03369
1.04096
1.06488
1.07687
1.09482
1.12545
1.14993
1.16504
0.291455
0.291508
0.291557
0.291595
0.291636
0.291692
0.291733
0.291762
0.291802
0.291848
0.291892
0.291947
0.292003
0.292053
0.292101
0.292157
0.292226
0.292312
0.292411
0.292508
0.292603
0.292707
0.292813
0.292903
0.292981
0.293054
0.293133
0.293242
0.29337
0.293496
0.293635
0.293783
0.293935
0.294084
0.294167
0.294254
0.294378
0.294536
0.294715
0.294919
0.295186
0.295468
0.295676
0.295853
0.295985
0.296099
0.296352
0.296486
0.29657
0.296788
0.296978
0.297146
0.297363
0.297661
0.298002
0.298324
0.298577
0.298877
0.299218
0.299551
0.299893
0.30025
0.300522
0.300808
0.301328
0.301862
0.302394
0.303321
0.303983
0.304504
0.305238
0.305738
0.306521
0.308161
0.309402
0.31088
0.312697
0.3137
0.315466
0.318179
0.319499
0.321604
0.323879
0.326625
0.329298
0.331976
0.33531
0.33732
0.338799
0.384602
0.557914
0.815274
0.988345
1.03065
1.08379
1.08648
1.10321
1.12933
1.15469
1.17451
0.293008
0.29306
0.293115
0.293174
0.293233
0.293289
0.293345
0.293404
0.293461
0.29352
0.293577
0.293628
0.293677
0.293725
0.293771
0.293823
0.293884
0.293946
0.294021
0.294108
0.294197
0.29429
0.294391
0.294501
0.294608
0.294699
0.29478
0.294881
0.294996
0.29511
0.295239
0.295387
0.295523
0.295679
0.29582
0.295905
0.296005
0.296138
0.2963
0.296489
0.296724
0.297028
0.297278
0.297419
0.297511
0.297578
0.297718
0.297961
0.298108
0.298344
0.298692
0.29896
0.299231
0.299522
0.299874
0.300234
0.300503
0.300805
0.301191
0.301584
0.301917
0.302336
0.302814
0.303322
0.304012
0.304934
0.305614
0.306433
0.307319
0.307907
0.309068
0.310863
0.312161
0.313724
0.31512
0.31638
0.318728
0.320791
0.322003
0.324727
0.327341
0.329104
0.332209
0.334362
0.33716
0.340259
0.342836
0.345802
0.349052
0.351277
0.35295
0.42209
0.624364
0.878909
1.05314
1.08176
1.11353
1.13271
1.16075
1.18652
0.295049
0.295073
0.295106
0.295148
0.295199
0.295253
0.295311
0.295371
0.295436
0.2955
0.295542
0.295561
0.295578
0.295609
0.295645
0.295678
0.295712
0.295745
0.295785
0.295861
0.295957
0.296043
0.296139
0.296277
0.296433
0.296566
0.296674
0.296764
0.296851
0.296943
0.297049
0.297168
0.297275
0.297395
0.297614
0.297817
0.297921
0.298041
0.298208
0.298392
0.298581
0.298787
0.298978
0.299107
0.299235
0.299427
0.299646
0.299956
0.300352
0.300625
0.300982
0.301373
0.301816
0.302242
0.30257
0.302839
0.3032
0.303578
0.304058
0.304575
0.305096
0.305661
0.306499
0.307437
0.308251
0.309401
0.310619
0.311399
0.312666
0.314307
0.315739
0.317771
0.319362
0.320539
0.322654
0.324553
0.326425
0.329438
0.331447
0.333181
0.336056
0.338565
0.341185
0.343811
0.34663
0.349254
0.351837
0.354965
0.357868
0.360508
0.36366
0.365905
0.367508
0.465399
0.732238
0.977588
1.10283
1.13856
1.17084
1.19849
0.296653
0.296684
0.296704
0.29672
0.296749
0.296795
0.296855
0.296931
0.297025
0.29712
0.297185
0.297228
0.297271
0.297333
0.297405
0.297467
0.297529
0.29759
0.297644
0.297713
0.297824
0.297944
0.298062
0.298228
0.298468
0.298653
0.298773
0.298876
0.298941
0.299004
0.299091
0.299206
0.299349
0.299513
0.299776
0.300146
0.300331
0.30044
0.300593
0.300759
0.300921
0.3011
0.301332
0.301635
0.301976
0.302385
0.302866
0.30324
0.303675
0.30418
0.304573
0.30513
0.305711
0.306304
0.306641
0.306907
0.307378
0.30799
0.308727
0.309573
0.310585
0.311686
0.312807
0.314191
0.31539
0.316479
0.318153
0.319707
0.321084
0.322901
0.324445
0.326014
0.32823
0.329999
0.332039
0.334458
0.33616
0.338453
0.341316
0.343077
0.345431
0.348097
0.350598
0.35375
0.355775
0.358512
0.361773
0.364386
0.367286
0.370307
0.37294
0.375767
0.37939
0.380758
0.398599
0.597295
0.920894
1.0994
1.17962
1.21132
0.299489
0.299569
0.299629
0.299665
0.299702
0.299757
0.299816
0.2999
0.300017
0.300151
0.300277
0.300379
0.30047
0.300569
0.300678
0.300778
0.30086
0.300936
0.301007
0.301087
0.301203
0.301317
0.30141
0.301527
0.301726
0.301917
0.302042
0.302225
0.302384
0.302508
0.302673
0.302874
0.303106
0.303344
0.3035
0.303685
0.303943
0.304236
0.304543
0.304878
0.305239
0.305639
0.306082
0.30659
0.307137
0.307612
0.308085
0.308602
0.309034
0.30981
0.310606
0.311124
0.31168
0.312281
0.313106
0.313827
0.314601
0.31564
0.316821
0.318147
0.319526
0.321
0.322324
0.323592
0.325154
0.326453
0.327713
0.329592
0.331291
0.333117
0.335178
0.33674
0.338908
0.341272
0.34296
0.345209
0.347527
0.34935
0.352044
0.354548
0.356867
0.359308
0.361814
0.364151
0.366986
0.369728
0.372206
0.374661
0.377213
0.380169
0.382889
0.385494
0.388179
0.391231
0.393258
0.394693
0.488473
0.835475
1.1374
1.20684
0.303831
0.303871
0.303922
0.303975
0.30403
0.304088
0.304145
0.304207
0.304276
0.304356
0.304461
0.304587
0.304713
0.304835
0.304969
0.305102
0.30523
0.305384
0.305545
0.305705
0.305868
0.306002
0.306133
0.306328
0.306483
0.306658
0.306923
0.307248
0.307609
0.30809
0.308639
0.308994
0.309274
0.309619
0.309925
0.310229
0.310626
0.311191
0.311857
0.312506
0.31307
0.313559
0.314055
0.314604
0.315246
0.315928
0.316579
0.317223
0.317971
0.318704
0.31969
0.320487
0.32122
0.322147
0.323373
0.324743
0.325982
0.327231
0.328491
0.329777
0.330998
0.33225
0.333624
0.334893
0.336437
0.338208
0.33978
0.341633
0.343678
0.34548
0.347697
0.349568
0.351096
0.353185
0.35506
0.356993
0.359654
0.361775
0.363572
0.366047
0.368243
0.370851
0.373016
0.375417
0.378061
0.380342
0.382859
0.385632
0.38811
0.390477
0.393275
0.395953
0.398329
0.400755
0.403482
0.407066
0.408284
0.461818
0.816027
1.12683
0.311295
0.311435
0.311594
0.311765
0.311944
0.312133
0.312317
0.312497
0.31266
0.312826
0.31303
0.313254
0.313494
0.31375
0.314032
0.314342
0.314643
0.314982
0.315378
0.315767
0.316136
0.31651
0.316881
0.317241
0.317591
0.317946
0.318304
0.31867
0.319048
0.319451
0.31991
0.320325
0.320721
0.321184
0.321719
0.322254
0.322764
0.323243
0.323737
0.324231
0.324725
0.325264
0.325886
0.326577
0.327304
0.328067
0.328925
0.329882
0.330798
0.331727
0.33259
0.333672
0.334858
0.336069
0.337159
0.338327
0.339559
0.340734
0.342015
0.343228
0.344496
0.345773
0.347278
0.349001
0.350611
0.352481
0.354412
0.356009
0.357833
0.359365
0.360866
0.362951
0.364619
0.366375
0.368683
0.370636
0.372527
0.374738
0.376685
0.379068
0.381255
0.383624
0.385861
0.388112
0.390189
0.392588
0.395006
0.39719
0.399936
0.402434
0.404708
0.406988
0.409467
0.412085
0.4147
0.417254
0.419576
0.420767
0.455208
0.905149
0.326159
0.326268
0.326392
0.32652
0.326648
0.326778
0.326905
0.327041
0.327185
0.32733
0.327485
0.327646
0.327812
0.327984
0.328164