/*--------------------------------*- C++ -*----------------------------------*\
  =========                 |
  \\      /  F ield         | OpenFOAM: The Open Source CFD Toolbox
   \\    /   O peration     | Website:  https://openfoam.org
    \\  /    A nd           | Version:  7
     \\/     M anipulation  |
\*---------------------------------------------------------------------------*/
FoamFile
{
    version     2.0;
    format      ascii;
    class       volVectorField;
    location    "1";
    object      U;
}
// * * * * * * * * * * * * * * * * * * * * * * * * * * * * * * * * * * * * * //

dimensions      [0 1 -1 0 0 0 0];

internalField   nonuniform List<vector> 
90000
(
(3.6221 -1.6027 0)
(3.60163 -1.44327 0)
(3.59528 -1.24245 0)
(3.59892 -1.13162 0)
(3.61289 -1.04453 0)
(3.61425 -0.906667 0)
(3.62905 -0.750565 0)
(3.65972 -0.695715 0)
(3.67813 -0.661856 0)
(3.67323 -0.523911 0)
(3.69303 -0.454402 0)
(3.70589 -0.393181 0)
(3.71411 -0.331245 0)
(3.72408 -0.266311 0)
(3.72667 -0.172026 0)
(3.74311 -0.153008 0)
(3.74052 -0.0652121 0)
(3.74553 0.00355776 0)
(3.76343 0.0223099 0)
(3.75584 0.124647 0)
(3.76841 0.156757 0)
(3.78408 0.174543 0)
(3.78252 0.264153 0)
(3.79741 0.258325 0)
(3.80983 0.263238 0)
(3.82163 0.302615 0)
(3.82085 0.292041 0)
(3.83599 0.270654 0)
(3.8455 0.256088 0)
(3.84679 0.249527 0)
(3.85828 0.23107 0)
(3.86626 0.209325 0)
(3.86309 0.187817 0)
(3.86093 0.160067 0)
(3.8651 0.125855 0)
(3.85449 0.10994 0)
(3.8381 0.0904994 0)
(3.833 0.0870689 0)
(3.82301 0.0924914 0)
(3.82817 0.0952445 0)
(3.83037 0.0908288 0)
(3.8212 0.0825185 0)
(3.79761 0.0756451 0)
(3.75571 0.0449755 0)
(3.73349 0.0160397 0)
(3.72456 -0.00728107 0)
(3.72862 -0.0173981 0)
(3.7329 -0.0117459 0)
(3.74024 -0.0164197 0)
(3.77159 0.0153665 0)
(3.7847 0.0386442 0)
(3.80432 0.0535715 0)
(3.83289 0.0805964 0)
(3.86716 0.10059 0)
(3.88525 0.116979 0)
(3.90563 0.123303 0)
(3.91947 0.136874 0)
(3.92227 0.155873 0)
(3.90923 0.168094 0)
(3.89163 0.17423 0)
(3.83067 0.100216 0)
(3.80499 0.0855281 0)
(3.78537 0.0778362 0)
(3.76701 0.0690867 0)
(3.74835 0.038243 0)
(3.77 -0.00260161 0)
(3.77944 -0.00491681 0)
(3.79056 0.0025197 0)
(3.79738 2.20211e-05 0)
(3.79662 -0.00370942 0)
(3.80009 -0.00801933 0)
(3.8265 0.00205797 0)
(3.94858 0.0314588 0)
(4.04814 0.0432576 0)
(4.11563 0.0818132 0)
(4.20794 0.140549 0)
(4.28072 0.205044 0)
(4.30165 0.237916 0)
(4.27735 0.224409 0)
(4.24898 0.200525 0)
(4.23171 0.183837 0)
(4.22198 0.176379 0)
(4.21504 0.17229 0)
(4.20844 0.163224 0)
(4.20573 0.159463 0)
(4.20223 0.157279 0)
(4.19917 0.154479 0)
(4.19615 0.151355 0)
(4.18704 0.136427 0)
(4.18046 0.128094 0)
(4.17518 0.118259 0)
(4.16816 0.10509 0)
(4.16051 0.10674 0)
(4.15502 0.104948 0)
(4.14753 0.0908264 0)
(4.1445 0.0798354 0)
(4.14513 0.0757915 0)
(4.14126 0.0611076 0)
(4.13904 0.0514382 0)
(4.12879 0.0619908 0)
(3.65279 -1.7589 0)
(3.65282 -1.75885 0)
(3.65284 -1.75887 0)
(3.65289 -1.75883 0)
(3.65286 -1.75902 0)
(3.65299 -1.75877 0)
(3.65298 -1.75877 0)
(3.65307 -1.75853 0)
(3.65276 -1.75912 0)
(3.65308 -1.75847 0)
(3.65263 -1.75939 0)
(3.65307 -1.75839 0)
(3.65258 -1.75972 0)
(3.65072 -1.75346 0)
(3.64522 -1.72833 0)
(3.63582 -1.69338 0)
(3.62023 -1.62856 0)
(3.60363 -1.53992 0)
(3.58671 -1.44754 0)
(3.56263 -1.30795 0)
(3.54215 -1.1512 0)
(3.52602 -1.02832 0)
(3.49223 -0.800069 0)
(3.47981 -0.658238 0)
(3.46774 -0.52839 0)
(3.43064 -0.285115 0)
(3.44417 -0.234219 0)
(3.43808 -0.109284 0)
(3.42449 0.0522992 0)
(3.4463 0.0808748 0)
(3.47279 0.111421 0)
(3.46177 0.229475 0)
(3.46993 0.274465 0)
(3.46748 0.243871 0)
(3.47714 0.262249 0)
(3.48288 0.300855 0)
(3.49806 0.336687 0)
(3.5052 0.335811 0)
(3.50379 0.317546 0)
(3.51668 0.293663 0)
(3.52678 0.27184 0)
(3.51195 0.255495 0)
(3.48902 0.224668 0)
(3.41076 0.140592 0)
(3.38439 0.0849885 0)
(3.37263 0.0502008 0)
(3.38949 0.0253582 0)
(3.40409 0.0272339 0)
(3.42972 0.0418629 0)
(3.46438 0.0754995 0)
(3.48087 0.109061 0)
(3.50581 0.143093 0)
(3.53539 0.151969 0)
(3.55799 0.154531 0)
(3.58409 0.150594 0)
(3.60886 0.146312 0)
(3.62889 0.139967 0)
(3.64155 0.145377 0)
(3.64733 0.162228 0)
(3.64694 0.155677 0)
(3.59731 0.143701 0)
(3.58235 0.136827 0)
(3.55845 0.114293 0)
(3.53408 0.0756177 0)
(3.50602 0.0451582 0)
(3.49868 0.0192834 0)
(3.50587 0.0136152 0)
(3.51105 0.0167192 0)
(3.50978 0.0165776 0)
(3.50666 0.00610657 0)
(3.5044 -0.00760301 0)
(3.52312 -0.0171826 0)
(3.66576 0.00271963 0)
(3.78327 0.0198879 0)
(3.87378 0.0599733 0)
(4.01961 0.119432 0)
(4.16955 0.188961 0)
(4.25072 0.238061 0)
(4.25837 0.248093 0)
(4.23925 0.225076 0)
(4.22213 0.199158 0)
(4.21292 0.180824 0)
(4.20688 0.164177 0)
(4.20279 0.152375 0)
(4.20118 0.152003 0)
(4.19811 0.150481 0)
(4.19377 0.144187 0)
(4.18837 0.13504 0)
(4.17809 0.117384 0)
(4.17225 0.109871 0)
(4.16839 0.098142 0)
(4.1638 0.096143 0)
(4.15838 0.102118 0)
(4.15003 0.0955916 0)
(4.13984 0.082694 0)
(4.13823 0.0833106 0)
(4.13748 0.087064 0)
(4.13149 0.0819758 0)
(4.11975 0.0643042 0)
(4.1075 0.0672987 0)
(3.65197 -1.75799 0)
(3.65177 -1.75821 0)
(3.65172 -1.75806 0)
(3.65151 -1.75818 0)
(3.65141 -1.75808 0)
(3.651 -1.75857 0)
(3.65111 -1.75786 0)
(3.65072 -1.758 0)
(3.65017 -1.75848 0)
(3.65026 -1.75767 0)
(3.64945 -1.75857 0)
(3.6494 -1.7578 0)
(3.6488 -1.75797 0)
(3.6482 -1.75805 0)
(3.64806 -1.75775 0)
(3.64778 -1.75752 0)
(3.64732 -1.75751 0)
(3.64686 -1.75723 0)
(3.64638 -1.75656 0)
(3.64566 -1.75633 0)
(3.64537 -1.75484 0)
(3.64454 -1.75476 0)
(3.64414 -1.75331 0)
(3.64321 -1.75363 0)
(3.63992 -1.74798 0)
(3.62029 -1.70413 0)
(3.58905 -1.6319 0)
(3.53541 -1.49332 0)
(3.47634 -1.32298 0)
(3.43064 -1.13232 0)
(3.38092 -0.93169 0)
(3.34493 -0.749096 0)
(3.30506 -0.477967 0)
(3.30681 -0.437895 0)
(3.24252 -0.252315 0)
(3.20262 -0.0637743 0)
(3.2119 0.0169026 0)
(3.20993 0.0948916 0)
(3.21486 0.0849392 0)
(3.21562 0.120043 0)
(3.22249 0.16938 0)
(3.23077 0.19544 0)
(3.21756 0.173085 0)
(3.18332 0.0959893 0)
(3.16139 0.0120938 0)
(3.15071 -0.00852805 0)
(3.1407 -0.022786 0)
(3.14655 -0.0048659 0)
(3.15926 0.00447284 0)
(3.18866 0.037784 0)
(3.19807 0.048777 0)
(3.20889 0.0570734 0)
(3.2226 0.0579474 0)
(3.24331 0.0715554 0)
(3.26111 0.090647 0)
(3.27602 0.113379 0)
(3.28893 0.130708 0)
(3.30184 0.135909 0)
(3.32419 0.156107 0)
(3.34264 0.15902 0)
(3.33961 0.133868 0)
(3.32562 0.112022 0)
(3.31802 0.0811169 0)
(3.31036 0.0354684 0)
(3.28858 -0.00399377 0)
(3.27819 -0.00397439 0)
(3.27305 0.0120763 0)
(3.26543 0.0282083 0)
(3.25376 0.0259676 0)
(3.25117 0.0136369 0)
(3.25081 -0.014543 0)
(3.26619 -0.0503483 0)
(3.3524 -0.0343943 0)
(3.497 -0.0135211 0)
(3.59282 0.0165407 0)
(3.73857 0.0617137 0)
(3.93627 0.127 0)
(4.1001 0.191454 0)
(4.17745 0.195704 0)
(4.18976 0.182489 0)
(4.18148 0.177103 0)
(4.17352 0.175191 0)
(4.16766 0.18034 0)
(4.16806 0.182569 0)
(4.16942 0.181517 0)
(4.16907 0.172227 0)
(4.16735 0.160309 0)
(4.16307 0.139903 0)
(4.15605 0.118596 0)
(4.15272 0.111431 0)
(4.14928 0.107565 0)
(4.14694 0.104894 0)
(4.14396 0.105965 0)
(4.13033 0.093049 0)
(4.12352 0.0907501 0)
(4.11764 0.0863061 0)
(4.10731 0.0811006 0)
(4.09457 0.0667995 0)
(4.06846 0.055399 0)
(4.03783 0.0691988 0)
(3.64889 -1.75784 0)
(3.64886 -1.75737 0)
(3.64842 -1.75765 0)
(3.64825 -1.75727 0)
(3.64796 -1.75707 0)
(3.64744 -1.75729 0)
(3.64714 -1.757 0)
(3.64677 -1.75683 0)
(3.64623 -1.75698 0)
(3.64585 -1.75675 0)
(3.64545 -1.75643 0)
(3.64478 -1.75659 0)
(3.64421 -1.75641 0)
(3.64377 -1.75563 0)
(3.64311 -1.75512 0)
(3.64242 -1.75468 0)
(3.64133 -1.75487 0)
(3.64046 -1.75362 0)
(3.63954 -1.75311 0)
(3.63857 -1.7517 0)
(3.63784 -1.75116 0)
(3.63722 -1.75055 0)
(3.63643 -1.75012 0)
(3.63585 -1.74866 0)
(3.63461 -1.7484 0)
(3.63385 -1.74802 0)
(3.63321 -1.74689 0)
(3.63245 -1.74577 0)
(3.63008 -1.74617 0)
(3.62851 -1.74735 0)
(3.62788 -1.74582 0)
(3.62744 -1.74541 0)
(3.62247 -1.73454 0)
(3.60505 -1.70124 0)
(3.54343 -1.59147 0)
(3.44776 -1.37377 0)
(3.36396 -1.10195 0)
(3.29141 -0.833152 0)
(3.21914 -0.618324 0)
(3.15728 -0.423922 0)
(3.09322 -0.143616 0)
(3.10011 0.0364231 0)
(3.10898 0.115923 0)
(3.11522 0.116786 0)
(3.08707 0.142036 0)
(3.02069 0.197802 0)
(2.95909 0.21311 0)
(2.94857 0.201703 0)
(2.95869 0.164646 0)
(2.98905 0.118111 0)
(3.03828 0.0614175 0)
(3.04298 0.0360743 0)
(3.05583 0.0430643 0)
(3.0731 0.0601356 0)
(3.07796 0.0860203 0)
(3.07954 0.116937 0)
(3.08466 0.136187 0)
(3.07896 0.154605 0)
(3.10042 0.19239 0)
(3.14102 0.206528 0)
(3.16852 0.18941 0)
(3.18458 0.161444 0)
(3.18416 0.110157 0)
(3.18501 0.0511572 0)
(3.17174 0.0134408 0)
(3.15977 -0.017416 0)
(3.14736 -0.000759944 0)
(3.12038 0.0438803 0)
(3.10811 0.0516438 0)
(3.09883 0.035793 0)
(3.10602 0.0026694 0)
(3.12404 -0.0419367 0)
(3.16315 -0.0682037 0)
(3.25 -0.0407671 0)
(3.34673 -0.0225389 0)
(3.43488 0.00554847 0)
(3.60166 0.061204 0)
(3.80552 0.137492 0)
(3.95783 0.191355 0)
(4.02644 0.193939 0)
(4.04631 0.190176 0)
(4.04952 0.188502 0)
(4.0491 0.17618 0)
(4.05534 0.163914 0)
(4.06549 0.156718 0)
(4.07644 0.152823 0)
(4.08608 0.155944 0)
(4.0881 0.153124 0)
(4.08429 0.136254 0)
(4.08246 0.12866 0)
(4.08165 0.115002 0)
(4.08522 0.103744 0)
(4.08656 0.0973112 0)
(4.06993 0.0976061 0)
(4.05951 0.101768 0)
(4.04272 0.0979347 0)
(4.02194 0.0994351 0)
(3.98673 0.0879616 0)
(3.94371 0.06818 0)
(3.88379 0.072751 0)
(3.64412 -1.75667 0)
(3.64376 -1.75665 0)
(3.64351 -1.75634 0)
(3.64309 -1.75631 0)
(3.64282 -1.75588 0)
(3.64241 -1.75565 0)
(3.64193 -1.75555 0)
(3.64153 -1.75524 0)
(3.64096 -1.75533 0)
(3.64057 -1.75481 0)
(3.64015 -1.75423 0)
(3.63936 -1.75467 0)
(3.63878 -1.75398 0)
(3.63851 -1.75239 0)
(3.63796 -1.75171 0)
(3.63683 -1.75211 0)
(3.63607 -1.75137 0)
(3.63478 -1.74992 0)
(3.63455 -1.74954 0)
(3.63411 -1.74886 0)
(3.63357 -1.74818 0)
(3.63333 -1.74807 0)
(3.63272 -1.74751 0)
(3.63194 -1.74685 0)
(3.63126 -1.74656 0)
(3.63047 -1.74642 0)
(3.62972 -1.74577 0)
(3.62924 -1.74467 0)
(3.62684 -1.7449 0)
(3.62532 -1.74568 0)
(3.62487 -1.7457 0)
(3.6247 -1.74494 0)
(3.62526 -1.74401 0)
(3.6241 -1.74496 0)
(3.62278 -1.74789 0)
(3.62274 -1.74812 0)
(3.62292 -1.74453 0)
(3.62641 -1.74006 0)
(3.62252 -1.75035 0)
(3.59329 -1.70507 0)
(3.51187 -1.55145 0)
(3.4433 -1.31269 0)
(3.41764 -1.08896 0)
(3.40369 -0.9389 0)
(3.35994 -0.873471 0)
(3.2819 -0.739079 0)
(3.2126 -0.640443 0)
(3.09999 -0.410207 0)
(3.01585 -0.23645 0)
(2.97779 -0.126931 0)
(3.00858 -0.0355066 0)
(3.01011 0.00133508 0)
(3.01721 0.0171779 0)
(3.02548 0.0322191 0)
(3.03088 0.0588259 0)
(3.02655 0.102703 0)
(3.03045 0.122609 0)
(3.03004 0.138707 0)
(3.05192 0.156511 0)
(3.09251 0.160776 0)
(3.12622 0.142138 0)
(3.15527 0.124106 0)
(3.15307 0.0810357 0)
(3.14518 0.0376349 0)
(3.13252 0.0109729 0)
(3.12046 0.00110442 0)
(3.10846 0.0187241 0)
(3.07106 0.0321869 0)
(3.05151 0.0317188 0)
(3.04183 0.0167415 0)
(3.05136 -0.0275654 0)
(3.06354 -0.059511 0)
(3.08861 -0.0878836 0)
(3.11799 -0.0726792 0)
(3.1549 -0.0446928 0)
(3.19617 -0.032256 0)
(3.26566 0.00260887 0)
(3.41621 0.0782762 0)
(3.59052 0.144222 0)
(3.70728 0.165458 0)
(3.76462 0.169864 0)
(3.79083 0.161777 0)
(3.80738 0.149185 0)
(3.82695 0.144542 0)
(3.84931 0.135803 0)
(3.8733 0.123961 0)
(3.89625 0.123476 0)
(3.90735 0.116116 0)
(3.91006 0.108715 0)
(3.91118 0.101314 0)
(3.91691 0.0920768 0)
(3.92694 0.0918438 0)
(3.9311 0.100245 0)
(3.90778 0.0931598 0)
(3.89456 0.0929892 0)
(3.86734 0.0855057 0)
(3.83113 0.086226 0)
(3.7904 0.0866129 0)
(3.7311 0.0867959 0)
(3.68442 0.0898629 0)
(3.63934 -1.75284 0)
(3.63908 -1.75258 0)
(3.63878 -1.75229 0)
(3.63845 -1.75201 0)
(3.63801 -1.75194 0)
(3.63772 -1.75137 0)
(3.63734 -1.75097 0)
(3.63669 -1.75099 0)
(3.63626 -1.75043 0)
(3.63583 -1.74985 0)
(3.635 -1.74993 0)
(3.63434 -1.74981 0)
(3.63374 -1.74905 0)
(3.63341 -1.74859 0)
(3.63312 -1.74825 0)
(3.63175 -1.74841 0)
(3.6309 -1.7484 0)
(3.63074 -1.74832 0)
(3.63132 -1.74808 0)
(3.63168 -1.74776 0)
(3.63105 -1.74739 0)
(3.63082 -1.74727 0)
(3.6303 -1.74689 0)
(3.62964 -1.7465 0)
(3.62907 -1.74622 0)
(3.62828 -1.74617 0)
(3.62744 -1.74631 0)
(3.62687 -1.74583 0)
(3.62608 -1.74486 0)
(3.62518 -1.74466 0)
(3.6247 -1.74496 0)
(3.62449 -1.74497 0)
(3.62477 -1.7443 0)
(3.6247 -1.74445 0)
(3.62331 -1.74708 0)
(3.62339 -1.74935 0)
(3.62285 -1.74643 0)
(3.62355 -1.7408 0)
(3.62785 -1.73624 0)
(3.62552 -1.73816 0)
(3.61539 -1.74918 0)
(3.60702 -1.76277 0)
(3.5999 -1.74784 0)
(3.59386 -1.70656 0)
(3.58256 -1.68046 0)
(3.53429 -1.68295 0)
(3.48224 -1.6698 0)
(3.40058 -1.54055 0)
(3.26123 -1.20093 0)
(3.11201 -0.709254 0)
(3.13301 -0.494867 0)
(3.0181 -0.122393 0)
(3.00583 0.0337852 0)
(3.00851 0.0752418 0)
(3.01329 0.127765 0)
(3.02485 0.130472 0)
(3.03974 0.113717 0)
(3.06973 0.107074 0)
(3.10627 0.114141 0)
(3.13881 0.122933 0)
(3.16761 0.122688 0)
(3.1841 0.103334 0)
(3.16709 0.0666234 0)
(3.15722 0.0488634 0)
(3.13708 0.0261148 0)
(3.11761 0.0267245 0)
(3.10048 0.0462412 0)
(3.0596 0.0502828 0)
(3.03861 0.0406258 0)
(3.03167 0.0140746 0)
(3.03822 -0.0380993 0)
(3.04123 -0.0692354 0)
(3.05474 -0.0922425 0)
(3.06207 -0.0881924 0)
(3.04434 -0.0561907 0)
(3.02469 -0.0235445 0)
(3.03327 -0.0100705 0)
(3.08593 0.0301835 0)
(3.19908 0.0956752 0)
(3.30682 0.140878 0)
(3.3761 0.153589 0)
(3.41572 0.157119 0)
(3.44492 0.161729 0)
(3.47543 0.166 0)
(3.5077 0.166521 0)
(3.54131 0.165858 0)
(3.57447 0.162113 0)
(3.59808 0.148406 0)
(3.61156 0.130866 0)
(3.61846 0.119781 0)
(3.62588 0.109111 0)
(3.63538 0.101269 0)
(3.63979 0.0983412 0)
(3.62566 0.0838107 0)
(3.60973 0.0907304 0)
(3.5907 0.0905366 0)
(3.57475 0.107854 0)
(3.55202 0.108443 0)
(3.51942 0.090372 0)
(3.55611 0.0901406 0)
(3.6344 -1.74902 0)
(3.63407 -1.74882 0)
(3.63378 -1.74855 0)
(3.63333 -1.74852 0)
(3.63283 -1.74841 0)
(3.63243 -1.74817 0)
(3.63205 -1.74804 0)
(3.6314 -1.74796 0)
(3.63093 -1.74782 0)
(3.63056 -1.7477 0)
(3.62986 -1.74765 0)
(3.62934 -1.74755 0)
(3.62909 -1.74759 0)
(3.62897 -1.74744 0)
(3.62809 -1.74782 0)
(3.62739 -1.74848 0)
(3.62712 -1.74876 0)
(3.62712 -1.74929 0)
(3.62779 -1.74918 0)
(3.62845 -1.74821 0)
(3.62833 -1.74755 0)
(3.62823 -1.74748 0)
(3.62798 -1.74719 0)
(3.62777 -1.74677 0)
(3.6277 -1.74642 0)
(3.62749 -1.7463 0)
(3.62671 -1.74677 0)
(3.62597 -1.74648 0)
(3.62552 -1.74493 0)
(3.62594 -1.74333 0)
(3.62593 -1.74344 0)
(3.62572 -1.74412 0)
(3.62606 -1.74402 0)
(3.62614 -1.74418 0)
(3.62435 -1.74586 0)
(3.6238 -1.74673 0)
(3.62348 -1.74581 0)
(3.62269 -1.74477 0)
(3.62309 -1.74252 0)
(3.6267 -1.73866 0)
(3.6268 -1.73895 0)
(3.61258 -1.7549 0)
(3.60537 -1.76662 0)
(3.59882 -1.72035 0)
(3.60084 -1.65312 0)
(3.58025 -1.61758 0)
(3.49726 -1.63654 0)
(3.46273 -1.66339 0)
(3.45329 -1.67624 0)
(3.44707 -1.68057 0)
(3.41451 -1.6051 0)
(3.31163 -1.30699 0)
(3.23846 -0.930454 0)
(3.20863 -0.635985 0)
(3.17444 -0.347603 0)
(3.19481 -0.220484 0)
(3.22059 -0.125557 0)
(3.23197 -0.0535518 0)
(3.23964 -0.025304 0)
(3.23515 0.0393213 0)
(3.24992 0.0476318 0)
(3.25901 0.0843758 0)
(3.22704 0.0855337 0)
(3.1879 0.0745333 0)
(3.15685 0.0525941 0)
(3.12148 0.0532361 0)
(3.09782 0.0687543 0)
(3.05526 0.0594841 0)
(3.03359 0.0441888 0)
(3.02704 0.00240616 0)
(3.03215 -0.0552909 0)
(3.02733 -0.0855857 0)
(3.02962 -0.10105 0)
(3.01977 -0.0839201 0)
(2.97992 -0.0520668 0)
(2.93232 -0.0223137 0)
(2.91254 0.000183338 0)
(2.91439 0.0185394 0)
(2.93847 0.060234 0)
(2.9826 0.111897 0)
(3.02799 0.14191 0)
(3.05924 0.143801 0)
(3.08559 0.137418 0)
(3.11359 0.13536 0)
(3.14279 0.123253 0)
(3.17306 0.109755 0)
(3.20132 0.104049 0)
(3.22423 0.090066 0)
(3.2428 0.080322 0)
(3.25991 0.0873958 0)
(3.27835 0.0981342 0)
(3.29837 0.102987 0)
(3.31535 0.106395 0)
(3.32278 0.107465 0)
(3.32709 0.112448 0)
(3.33794 0.0964436 0)
(3.36582 0.103135 0)
(3.39513 0.10368 0)
(3.41212 0.0906218 0)
(3.49573 0.0789597 0)
(3.62958 -1.74743 0)
(3.62928 -1.74739 0)
(3.62903 -1.74734 0)
(3.62865 -1.7474 0)
(3.62824 -1.7473 0)
(3.62796 -1.74724 0)
(3.62773 -1.74731 0)
(3.6275 -1.74743 0)
(3.62714 -1.74749 0)
(3.62671 -1.74766 0)
(3.62653 -1.74787 0)
(3.62629 -1.74782 0)
(3.62603 -1.74753 0)
(3.62542 -1.74727 0)
(3.62389 -1.74811 0)
(3.62341 -1.74871 0)
(3.623 -1.74953 0)
(3.62389 -1.74983 0)
(3.62639 -1.74833 0)
(3.62665 -1.748 0)
(3.62668 -1.74775 0)
(3.62661 -1.74751 0)
(3.62672 -1.74708 0)
(3.62703 -1.74676 0)
(3.62729 -1.74668 0)
(3.62737 -1.74685 0)
(3.62743 -1.74677 0)
(3.62733 -1.74557 0)
(3.62683 -1.74447 0)
(3.6268 -1.74348 0)
(3.62706 -1.74318 0)
(3.62723 -1.74334 0)
(3.62716 -1.74355 0)
(3.62577 -1.74477 0)
(3.62385 -1.74558 0)
(3.62372 -1.74554 0)
(3.62342 -1.74555 0)
(3.62262 -1.74609 0)
(3.62216 -1.74505 0)
(3.62293 -1.74228 0)
(3.62491 -1.73995 0)
(3.61988 -1.74181 0)
(3.61136 -1.74767 0)
(3.60263 -1.74075 0)
(3.59259 -1.71054 0)
(3.58467 -1.66061 0)
(3.56472 -1.63018 0)
(3.50451 -1.63749 0)
(3.46323 -1.65894 0)
(3.44901 -1.67046 0)
(3.44402 -1.65952 0)
(3.4425 -1.64356 0)
(3.4437 -1.63244 0)
(3.44445 -1.60632 0)
(3.4147 -1.44612 0)
(3.38805 -1.16392 0)
(3.38783 -0.902886 0)
(3.38736 -0.695888 0)
(3.38669 -0.558891 0)
(3.34068 -0.311645 0)
(3.35906 -0.21291 0)
(3.33691 -0.044158 0)
(3.29482 0.0483169 0)
(3.25473 0.125348 0)
(3.14632 0.131851 0)
(3.09885 0.0995316 0)
(3.07844 0.0802085 0)
(3.05612 0.0693288 0)
(3.04992 0.0594568 0)
(3.04437 0.0048146 0)
(3.04053 -0.054916 0)
(3.02036 -0.0913262 0)
(3.00483 -0.10063 0)
(2.98155 -0.0743331 0)
(2.93767 -0.0419863 0)
(2.88278 -0.00698238 0)
(2.86248 0.0127642 0)
(2.85013 0.0358809 0)
(2.8292 0.0725583 0)
(2.81773 0.109338 0)
(2.8309 0.133007 0)
(2.84272 0.134411 0)
(2.85524 0.129649 0)
(2.86833 0.123303 0)
(2.88278 0.11266 0)
(2.90091 0.108335 0)
(2.92117 0.116994 0)
(2.94542 0.125529 0)
(2.97224 0.127096 0)
(3.00669 0.124363 0)
(3.04254 0.119719 0)
(3.07758 0.111732 0)
(3.11226 0.10418 0)
(3.15032 0.0869471 0)
(3.19613 0.0888236 0)
(3.23202 0.0787186 0)
(3.27545 0.0928885 0)
(3.32583 0.0932891 0)
(3.36537 0.0684261 0)
(3.43722 0.0682261 0)
(3.62564 -1.74701 0)
(3.62553 -1.74706 0)
(3.62522 -1.74716 0)
(3.62496 -1.74719 0)
(3.62478 -1.7473 0)
(3.62457 -1.74738 0)
(3.62442 -1.74739 0)
(3.62428 -1.7473 0)
(3.62399 -1.74716 0)
(3.62369 -1.74714 0)
(3.62363 -1.74716 0)
(3.6236 -1.74707 0)
(3.62359 -1.74656 0)
(3.62307 -1.74637 0)
(3.62182 -1.74767 0)
(3.62169 -1.7482 0)
(3.62187 -1.7488 0)
(3.62358 -1.74842 0)
(3.62564 -1.74846 0)
(3.6259 -1.74853 0)
(3.62611 -1.74868 0)
(3.6265 -1.74882 0)
(3.62694 -1.74832 0)
(3.62761 -1.74767 0)
(3.62817 -1.74749 0)
(3.62837 -1.74748 0)
(3.62837 -1.7479 0)
(3.62839 -1.74634 0)
(3.6288 -1.74359 0)
(3.62971 -1.74247 0)
(3.62996 -1.74229 0)
(3.62978 -1.74219 0)
(3.62695 -1.74351 0)
(3.62449 -1.74466 0)
(3.62376 -1.7451 0)
(3.62318 -1.7451 0)
(3.623 -1.7445 0)
(3.62265 -1.74438 0)
(3.62202 -1.74407 0)
(3.62181 -1.74307 0)
(3.62226 -1.74076 0)
(3.62295 -1.73787 0)
(3.61794 -1.7396 0)
(3.60872 -1.74718 0)
(3.59888 -1.74958 0)
(3.58944 -1.71429 0)
(3.59044 -1.64554 0)
(3.57189 -1.61708 0)
(3.48647 -1.64857 0)
(3.45525 -1.66697 0)
(3.44918 -1.6605 0)
(3.44605 -1.64736 0)
(3.445 -1.64156 0)
(3.44988 -1.62315 0)
(3.46025 -1.61199 0)
(3.46929 -1.61114 0)
(3.47396 -1.61866 0)
(3.4733 -1.62845 0)
(3.47214 -1.61557 0)
(3.45655 -1.50162 0)
(3.44739 -1.33439 0)
(3.42473 -1.07937 0)
(3.40271 -0.84031 0)
(3.36571 -0.570126 0)
(3.26751 -0.320155 0)
(3.20515 -0.198166 0)
(3.10579 -0.0676469 0)
(3.08805 0.0296547 0)
(3.09189 0.0546395 0)
(3.06267 0.0129876 0)
(3.03956 -0.0377301 0)
(3.01281 -0.0689779 0)
(2.9796 -0.0865242 0)
(2.94531 -0.0645552 0)
(2.90461 -0.0289843 0)
(2.85328 0.0108893 0)
(2.83289 0.0313556 0)
(2.81523 0.0547838 0)
(2.79669 0.0766497 0)
(2.77534 0.0975241 0)
(2.76638 0.114202 0)
(2.76879 0.116511 0)
(2.7733 0.116051 0)
(2.77928 0.115528 0)
(2.78837 0.110906 0)
(2.80208 0.108338 0)
(2.82496 0.108145 0)
(2.85395 0.10732 0)
(2.88617 0.103067 0)
(2.9239 0.102125 0)
(2.96242 0.0981854 0)
(3.00128 0.0961122 0)
(3.04369 0.0970478 0)
(3.093 0.0764628 0)
(3.15097 0.0672173 0)
(3.19691 0.0466223 0)
(3.23707 0.0653628 0)
(3.27723 0.0705885 0)
(3.31371 0.0548911 0)
(3.40022 0.0571813 0)
(3.62248 -1.74656 0)
(3.62248 -1.74663 0)
(3.62245 -1.74668 0)
(3.6223 -1.74673 0)
(3.62213 -1.74673 0)
(3.62197 -1.74678 0)
(3.62189 -1.7468 0)
(3.62176 -1.74685 0)
(3.62147 -1.74717 0)
(3.62129 -1.74723 0)
(3.62124 -1.747 0)
(3.62134 -1.74659 0)
(3.62127 -1.74622 0)
(3.62104 -1.74641 0)
(3.62157 -1.74682 0)
(3.62208 -1.74684 0)
(3.62312 -1.74688 0)
(3.6247 -1.74733 0)
(3.62674 -1.74832 0)
(3.62697 -1.74848 0)
(3.62721 -1.74874 0)
(3.62764 -1.74889 0)
(3.62795 -1.74851 0)
(3.62845 -1.74819 0)
(3.62887 -1.74822 0)
(3.62938 -1.74863 0)
(3.6304 -1.74847 0)
(3.63026 -1.74703 0)
(3.63049 -1.74498 0)
(3.63154 -1.74354 0)
(3.6323 -1.74262 0)
(3.63093 -1.74332 0)
(3.62535 -1.74374 0)
(3.6241 -1.74339 0)
(3.62351 -1.7435 0)
(3.62274 -1.74378 0)
(3.6227 -1.74314 0)
(3.62252 -1.7427 0)
(3.62159 -1.74347 0)
(3.62143 -1.74373 0)
(3.62078 -1.74254 0)
(3.62128 -1.73893 0)
(3.62276 -1.73667 0)
(3.61759 -1.74024 0)
(3.60919 -1.75068 0)
(3.59953 -1.754 0)
(3.59177 -1.70771 0)
(3.59033 -1.63719 0)
(3.54097 -1.62369 0)
(3.47822 -1.65109 0)
(3.46004 -1.65742 0)
(3.4516 -1.64697 0)
(3.44811 -1.6412 0)
(3.45069 -1.628 0)
(3.46051 -1.62006 0)
(3.47023 -1.61766 0)
(3.47424 -1.62381 0)
(3.47423 -1.63115 0)
(3.47386 -1.63843 0)
(3.4756 -1.64153 0)
(3.47848 -1.64128 0)
(3.4769 -1.63625 0)
(3.47299 -1.63233 0)
(3.46847 -1.61782 0)
(3.43221 -1.46777 0)
(3.34515 -1.08031 0)
(3.20195 -0.555721 0)
(3.14119 -0.17568 0)
(3.13875 0.0599026 0)
(3.1114 -0.00114636 0)
(3.02349 -0.0361339 0)
(2.9978 -0.0473579 0)
(2.9577 -0.0617069 0)
(2.91773 -0.0496259 0)
(2.88092 -0.0150879 0)
(2.84258 0.0176985 0)
(2.82894 0.039361 0)
(2.81006 0.0585211 0)
(2.79359 0.0737556 0)
(2.77536 0.0909255 0)
(2.762 0.105014 0)
(2.76057 0.108323 0)
(2.76332 0.10847 0)
(2.7702 0.108778 0)
(2.77863 0.104475 0)
(2.79217 0.101782 0)
(2.81471 0.0977742 0)
(2.84272 0.0917495 0)
(2.8745 0.0833877 0)
(2.91031 0.0777328 0)
(2.94664 0.067758 0)
(2.98416 0.0670202 0)
(3.02414 0.0745151 0)
(3.06662 0.0640743 0)
(3.11113 0.0733444 0)
(3.16425 0.0545318 0)
(3.20948 0.0655006 0)
(3.25334 0.0620123 0)
(3.30082 0.0409149 0)
(3.40513 0.0456607 0)
(3.62139 -1.74537 0)
(3.62139 -1.74538 0)
(3.6213 -1.74546 0)
(3.62124 -1.74566 0)
(3.62129 -1.74588 0)
(3.62135 -1.74603 0)
(3.62143 -1.74606 0)
(3.62149 -1.74615 0)
(3.62151 -1.74655 0)
(3.62167 -1.74681 0)
(3.62197 -1.7463 0)
(3.62223 -1.74578 0)
(3.62203 -1.74658 0)
(3.62205 -1.74709 0)
(3.62231 -1.74738 0)
(3.62369 -1.74679 0)
(3.6254 -1.74561 0)
(3.62654 -1.74654 0)
(3.62789 -1.74832 0)
(3.6281 -1.74853 0)
(3.62826 -1.74908 0)
(3.6282 -1.74949 0)
(3.62825 -1.74972 0)
(3.62857 -1.75017 0)
(3.62942 -1.75034 0)
(3.62967 -1.75006 0)
(3.62998 -1.74961 0)
(3.62999 -1.7493 0)
(3.63058 -1.7478 0)
(3.631 -1.7468 0)
(3.63053 -1.74603 0)
(3.62875 -1.74523 0)
(3.62514 -1.74338 0)
(3.62352 -1.7425 0)
(3.62333 -1.74239 0)
(3.62315 -1.74178 0)
(3.62339 -1.74052 0)
(3.62303 -1.74008 0)
(3.62175 -1.74047 0)
(3.62125 -1.74052 0)
(3.62051 -1.7406 0)
(3.62051 -1.74075 0)
(3.62142 -1.74012 0)
(3.62296 -1.73971 0)
(3.6208 -1.74282 0)
(3.61017 -1.75814 0)
(3.59753 -1.76245 0)
(3.58997 -1.69698 0)
(3.57649 -1.63401 0)
(3.52788 -1.62888 0)
(3.48827 -1.64227 0)
(3.46167 -1.64172 0)
(3.45544 -1.63774 0)
(3.45627 -1.63146 0)
(3.46269 -1.62469 0)
(3.47059 -1.6227 0)
(3.47412 -1.62711 0)
(3.4731 -1.6347 0)
(3.47342 -1.64117 0)
(3.4755 -1.64306 0)
(3.47805 -1.64188 0)
(3.47671 -1.63341 0)
(3.47217 -1.6289 0)
(3.46935 -1.62716 0)
(3.46527 -1.62464 0)
(3.45982 -1.62404 0)
(3.44508 -1.60836 0)
(3.37089 -1.34727 0)
(3.3044 -0.826487 0)
(3.25215 -0.52366 0)
(3.12777 -0.249344 0)
(2.94181 -0.0835987 0)
(2.9059 -0.0760301 0)
(2.86587 -0.0445875 0)
(2.85601 -0.00940833 0)
(2.8576 0.0266866 0)
(2.84685 0.0446593 0)
(2.83208 0.0581599 0)
(2.81484 0.0709339 0)
(2.79504 0.0840506 0)
(2.77706 0.0988648 0)
(2.77177 0.108388 0)
(2.77478 0.114171 0)
(2.78098 0.11899 0)
(2.79094 0.118358 0)
(2.80634 0.114972 0)
(2.82894 0.108203 0)
(2.85718 0.101119 0)
(2.88908 0.0911906 0)
(2.92193 0.0794151 0)
(2.95455 0.0659353 0)
(2.98806 0.0625707 0)
(3.02417 0.0637179 0)
(3.06671 0.045794 0)
(3.11821 0.0539256 0)
(3.17645 0.0448153 0)
(3.22575 0.0649499 0)
(3.27711 0.0610746 0)
(3.33454 0.0228127 0)
(3.43808 0.0300103 0)
(3.62149 -1.74444 0)
(3.62133 -1.74481 0)
(3.62143 -1.74483 0)
(3.62153 -1.74491 0)
(3.62154 -1.74529 0)
(3.62155 -1.74545 0)
(3.62155 -1.7457 0)
(3.62169 -1.74638 0)
(3.62189 -1.74673 0)
(3.62216 -1.74699 0)
(3.62216 -1.74733 0)
(3.62231 -1.74761 0)
(3.62245 -1.74771 0)
(3.62255 -1.74844 0)
(3.62282 -1.74955 0)
(3.62668 -1.74799 0)
(3.62819 -1.7457 0)
(3.6282 -1.74538 0)
(3.62849 -1.74768 0)
(3.62867 -1.74928 0)
(3.62876 -1.75059 0)
(3.62824 -1.75154 0)
(3.62781 -1.75196 0)
(3.6279 -1.75214 0)
(3.62859 -1.75174 0)
(3.62861 -1.75174 0)
(3.62833 -1.75188 0)
(3.62862 -1.75111 0)
(3.63012 -1.74897 0)
(3.6301 -1.7484 0)
(3.62903 -1.74838 0)
(3.62712 -1.74706 0)
(3.6247 -1.74167 0)
(3.62418 -1.74018 0)
(3.6241 -1.73913 0)
(3.62414 -1.73769 0)
(3.62381 -1.73676 0)
(3.62316 -1.73624 0)
(3.62295 -1.7362 0)
(3.62164 -1.73703 0)
(3.6208 -1.73785 0)
(3.62058 -1.73994 0)
(3.62119 -1.74279 0)
(3.62298 -1.74296 0)
(3.62694 -1.74264 0)
(3.61999 -1.75104 0)
(3.60653 -1.76835 0)
(3.59267 -1.75647 0)
(3.58049 -1.69693 0)
(3.55822 -1.64988 0)
(3.51781 -1.64086 0)
(3.47963 -1.64315 0)
(3.46148 -1.63599 0)
(3.46148 -1.63244 0)
(3.46556 -1.62739 0)
(3.47204 -1.62575 0)
(3.47329 -1.62892 0)
(3.47035 -1.63918 0)
(3.47236 -1.64563 0)
(3.4762 -1.64506 0)
(3.47873 -1.63993 0)
(3.47739 -1.6319 0)
(3.4714 -1.62616 0)
(3.46799 -1.62352 0)
(3.46326 -1.62099 0)
(3.45723 -1.61622 0)
(3.45074 -1.61346 0)
(3.44537 -1.61145 0)
(3.44402 -1.60732 0)
(3.43578 -1.55654 0)
(3.31873 -1.20108 0)
(3.15196 -0.651925 0)
(2.80172 -0.097295 0)
(2.79532 -0.00982693 0)
(2.85223 0.00574792 0)
(2.87477 0.0245121 0)
(2.8792 0.0407223 0)
(2.87507 0.0535751 0)
(2.86242 0.0687343 0)
(2.84331 0.0824813 0)
(2.825 0.0931545 0)
(2.82056 0.0977237 0)
(2.82341 0.0982014 0)
(2.83262 0.0965522 0)
(2.84679 0.0912668 0)
(2.86561 0.0876402 0)
(2.88803 0.0745922 0)
(2.91632 0.0628476 0)
(2.94833 0.0565654 0)
(2.97949 0.0539084 0)
(3.00992 0.0496917 0)
(3.04053 0.0605548 0)
(3.07588 0.0718291 0)
(3.12173 0.0608745 0)
(3.1753 0.0701684 0)
(3.22894 0.043507 0)
(3.27432 0.0480975 0)
(3.32506 0.0429517 0)
(3.38519 0.0162191 0)
(3.47371 0.0259188 0)
(3.62051 -1.74334 0)
(3.62048 -1.74481 0)
(3.62078 -1.7457 0)
(3.621 -1.74639 0)
(3.62106 -1.74648 0)
(3.62123 -1.74646 0)
(3.62143 -1.7466 0)
(3.62185 -1.74706 0)
(3.62203 -1.74722 0)
(3.6221 -1.74777 0)
(3.62204 -1.74811 0)
(3.62225 -1.74821 0)
(3.62259 -1.74888 0)
(3.62319 -1.75039 0)
(3.62549 -1.75016 0)
(3.62762 -1.74883 0)
(3.62817 -1.74794 0)
(3.62808 -1.74731 0)
(3.62776 -1.74789 0)
(3.62766 -1.74933 0)
(3.62775 -1.75035 0)
(3.62692 -1.75273 0)
(3.62631 -1.75376 0)
(3.62661 -1.75415 0)
(3.62771 -1.75379 0)
(3.62781 -1.7544 0)
(3.62735 -1.75488 0)
(3.62812 -1.75368 0)
(3.62952 -1.75227 0)
(3.62936 -1.75254 0)
(3.6288 -1.75425 0)
(3.62813 -1.75084 0)
(3.62653 -1.74221 0)
(3.62648 -1.73899 0)
(3.62575 -1.73602 0)
(3.62485 -1.73328 0)
(3.62343 -1.73216 0)
(3.62228 -1.73244 0)
(3.6217 -1.7327 0)
(3.6207 -1.73402 0)
(3.62033 -1.73659 0)
(3.62039 -1.73804 0)
(3.62074 -1.7433 0)
(3.62202 -1.74916 0)
(3.62561 -1.74778 0)
(3.62879 -1.74683 0)
(3.61755 -1.75555 0)
(3.60335 -1.7647 0)
(3.58993 -1.74591 0)
(3.57497 -1.70103 0)
(3.54306 -1.66961 0)
(3.50234 -1.66145 0)
(3.47697 -1.64541 0)
(3.46789 -1.63499 0)
(3.46951 -1.62934 0)
(3.47377 -1.62683 0)
(3.47329 -1.62989 0)
(3.471 -1.64001 0)
(3.47371 -1.64744 0)
(3.47792 -1.64772 0)
(3.47982 -1.63945 0)
(3.47748 -1.63203 0)
(3.47073 -1.6251 0)
(3.46568 -1.62189 0)
(3.46244 -1.61872 0)
(3.45871 -1.61506 0)
(3.45416 -1.6103 0)
(3.45125 -1.60676 0)
(3.45334 -1.60118 0)
(3.4521 -1.59032 0)
(3.44923 -1.5883 0)
(3.41776 -1.56131 0)
(3.19249 -1.04919 0)
(2.94309 -0.332013 0)
(2.89236 -0.0299124 0)
(2.8821 0.050024 0)
(2.91049 0.061094 0)
(2.92521 0.0601942 0)
(2.92423 0.0566269 0)
(2.91689 0.068045 0)
(2.90081 0.0853406 0)
(2.89776 0.0914048 0)
(2.90248 0.0991373 0)
(2.91689 0.105218 0)
(2.93604 0.103175 0)
(2.95697 0.0944383 0)
(2.97923 0.0768271 0)
(3.00692 0.0621623 0)
(3.03711 0.0454769 0)
(3.06563 0.0256331 0)
(3.09453 0.0255949 0)
(3.12306 0.0432673 0)
(3.15502 0.0581223 0)
(3.19536 0.042822 0)
(3.24006 0.0506337 0)
(3.28495 0.0438129 0)
(3.32447 0.0488788 0)
(3.3736 0.0469469 0)
(3.42541 0.01105 0)
(3.49746 0.0173823 0)
(3.6213 -1.7456 0)
(3.62116 -1.74648 0)
(3.62097 -1.74668 0)
(3.62074 -1.74709 0)
(3.62067 -1.74749 0)
(3.62147 -1.74714 0)
(3.62191 -1.74655 0)
(3.62183 -1.7462 0)
(3.62182 -1.74748 0)
(3.62184 -1.74865 0)
(3.62193 -1.749 0)
(3.62222 -1.7495 0)
(3.62308 -1.75052 0)
(3.6249 -1.75088 0)
(3.62637 -1.75018 0)
(3.62648 -1.74998 0)
(3.62639 -1.74927 0)
(3.6261 -1.74837 0)
(3.6254 -1.74818 0)
(3.62566 -1.74891 0)
(3.62598 -1.74976 0)
(3.62512 -1.75309 0)
(3.62397 -1.75516 0)
(3.62391 -1.75589 0)
(3.62544 -1.75549 0)
(3.62623 -1.75633 0)
(3.62658 -1.757 0)
(3.62766 -1.75673 0)
(3.62967 -1.75589 0)
(3.63049 -1.75619 0)
(3.63043 -1.75684 0)
(3.63117 -1.7574 0)
(3.63006 -1.74916 0)
(3.62788 -1.74076 0)
(3.62734 -1.73381 0)
(3.62444 -1.7294 0)
(3.62237 -1.72843 0)
(3.62165 -1.72862 0)
(3.62033 -1.72946 0)
(3.61909 -1.73181 0)
(3.61967 -1.73481 0)
(3.62076 -1.73771 0)
(3.62081 -1.74243 0)
(3.62064 -1.75198 0)
(3.62254 -1.75618 0)
(3.62602 -1.75163 0)
(3.62397 -1.75213 0)
(3.61565 -1.75689 0)
(3.60542 -1.75179 0)
(3.594 -1.72571 0)
(3.5713 -1.69994 0)
(3.5247 -1.70752 0)
(3.49309 -1.70063 0)
(3.47872 -1.65848 0)
(3.47376 -1.634 0)
(3.47463 -1.62748 0)
(3.47485 -1.63204 0)
(3.474 -1.6418 0)
(3.47691 -1.65091 0)
(3.48028 -1.65084 0)
(3.48128 -1.63695 0)
(3.47644 -1.6289 0)
(3.47076 -1.62412 0)
(3.46408 -1.61909 0)
(3.46219 -1.61419 0)
(3.46118 -1.6096 0)
(3.45945 -1.60576 0)
(3.45825 -1.60143 0)
(3.45812 -1.59778 0)
(3.46256 -1.58517 0)
(3.45967 -1.56977 0)
(3.45298 -1.56871 0)
(3.44335 -1.57221 0)
(3.25369 -1.12463 0)
(3.1119 -0.462762 0)
(2.96244 -0.0384107 0)
(2.94663 0.038299 0)
(2.9692 0.0703089 0)
(2.97637 0.0830774 0)
(2.98702 0.0934361 0)
(2.97671 0.0820659 0)
(2.9771 0.0705717 0)
(2.98865 0.0625455 0)
(3.00212 0.0544047 0)
(3.01962 0.0603795 0)