/*--------------------------------*- C++ -*----------------------------------*\
  =========                 |
  \\      /  F ield         | OpenFOAM: The Open Source CFD Toolbox
   \\    /   O peration     | Website:  https://openfoam.org
    \\  /    A nd           | Version:  7
     \\/     M anipulation  |
\*---------------------------------------------------------------------------*/
FoamFile
{
    version     2.0;
    format      ascii;
    class       volScalarField;
    location    "1";
    object      rho;
}
// * * * * * * * * * * * * * * * * * * * * * * * * * * * * * * * * * * * * * //

dimensions      [1 -3 0 0 0 0 0];

internalField   nonuniform List<scalar> 
1750
(
0.678757
0.92468
1.04255
1.06268
1.07213
1.10266
1.1377
1.16751
1.18763
1.23892
0.430725
0.497363
0.612894
0.758588
0.882649
0.998252
1.08508
1.1375
1.16529
1.22672
0.471668
0.497963
0.479481
0.485651
0.559831
0.72883
0.938162
1.07276
1.11697
1.21476
0.574812
0.582296
0.566087
0.555169
0.574685
0.625369
0.745779
0.913367
1.05247
1.22546
0.668487
0.672795
0.639099
0.631508
0.655641
0.70841
0.792404
0.919426
1.06781
1.26334
0.882375
0.875211
0.836247
0.84152
0.877435
0.947046
1.03413
1.1284
1.23104
1.34804
1.10793
1.04851
1.03049
1.04819
1.09719
1.17448
1.25555
1.3207
1.36672
1.39412
1.28075
1.24073
1.24378
1.26452
1.30394
1.34776
1.37836
1.39314
1.39849
1.39987
1.37085
1.36559
1.36929
1.37869
1.38971
1.39662
1.3992
1.39986
1.39999
1.4
1.39728
1.39737
1.3981
1.39912
1.39975
1.39995
1.4
1.4
1.4
1.40001
1.39992
1.39994
1.39997
1.39999
1.4
1.4
1.4
1.40001
1.40001
1.40001
1.4
1.4
1.4
1.4
1.40001
1.40001
1.40001
1.40001
1.40001
1.40001
1.4
1.40001
1.40001
1.40001
1.40001
1.40001
1.40001
1.40001
1.40001
1.40001
1.40001
1.40001
1.40001
1.40001
1.40001
1.40001
1.40001
1.40001
1.40001
1.40001
1.40001
1.40001
1.40001
1.40001
1.40001
1.40001
1.40001
1.40001
1.40001
1.40001
0.444052
0.391763
0.387066
0.50581
0.61765
0.851983
1.14385
1.351
1.40055
1.40024
1.39996
1.4
1.4
1.40001
1.40001
0.382581
0.295231
0.283912
0.427095
0.588736
0.872719
1.23515
1.44357
1.44126
1.40884
1.40028
1.40001
1.4
1.40001
1.40001
0.287114
0.198004
0.207882
0.339939
0.524477
0.876439
1.32952
1.51117
1.48257
1.41714
1.40059
1.40001
1.4
1.40001
1.40001
0.204468
0.150394
0.195569
0.322867
0.513424
0.920152
1.44306
1.57684
1.52765
1.42535
1.40085
1.40001
1.40001
1.40001
1.40001
0.137082
0.137761
0.200458
0.322479
0.552588
1.04174
1.55616
1.64464
1.56788
1.42962
1.4009
1.40001
1.40001
1.40001
1.40001
0.0743447
0.143476
0.234101
0.382508
0.689682
1.2099
1.66448
1.71872
1.59465
1.42976
1.40078
1.40001
1.40001
1.40001
1.40001
0.0465982
0.144747
0.292024
0.478215
0.814015
1.38841
1.76992
1.78817
1.60293
1.42409
1.40054
1.40001
1.40001
1.40001
1.40001
0.0407518
0.170514
0.342408
0.542007
0.964501
1.63312
1.88441
1.83857
1.57622
1.41538
1.40028
1.40001
1.40001
1.40001
1.40001
0.0449584
0.201675
0.373299
0.645046
1.2468
1.88893
2.00543
1.86369
1.52917
1.40719
1.40011
1.40001
1.40001
1.40001
1.40001
0.0612297
0.220398
0.440536
0.933004
1.61574
2.09218
2.10609
1.82077
1.47069
1.40248
1.40004
1.40001
1.40001
1.40001
1.40001
0.0716718
0.311416
0.73447
1.33402
1.99897
2.24143
2.15196
1.71269
1.43009
1.40068
1.40001
1.40001
1.40001
1.40001
1.40001
0.0947168
0.515497
1.13906
1.77548
2.33819
2.35584
2.0684
1.55797
1.40838
1.40014
1.40001
1.40001
1.40001
1.40001
1.40001
0.294643
0.895364
1.59314
2.26639
2.51593
2.41547
1.87563
1.46299
1.40192
1.40003
1.40001
1.40001
1.40001
1.40001
1.40001
0.64885
1.43784
2.17448
2.57429
2.57448
2.20823
1.59808
1.41162
1.40023
1.40001
1.40001
1.40001
1.40001
1.40001
1.40001
1.52989
2.16332
2.60195
2.65321
2.51444
1.8264
1.44325
1.40114
1.40002
1.40001
1.40001
1.40001
1.40001
1.40001
1.40001
2.65318
2.70919
2.72655
2.65967
2.23158
1.47693
1.39769
1.39991
1.4
1.40001
1.40001
1.40001
1.40001
1.40001
1.40001
2.64275
2.70052
2.71441
2.65561
2.25607
1.53869
1.40192
1.40001
1.40001
1.40001
1.40001
1.40001
1.40001
1.40001
1.40001
2.64678
2.71412
2.72192
2.61701
2.07293
1.46175
1.40044
1.40001
1.40001
1.40001
1.40001
1.40001
1.40001
1.40001
1.40001
2.65152
2.72619
2.73984
2.58793
1.9279
1.43055
1.40018
1.40001
1.40001
1.40001
1.40001
1.40001
1.40001
1.40001
1.40001
2.67055
2.76062
2.79237
2.53019
1.75144
1.41045
1.40004
1.40001
1.40001
1.40001
1.40001
1.40001
1.40001
1.40001
1.40001
2.72535
2.82187
2.8405
2.40606
1.58373
1.40254
1.40001
1.40001
1.40001
1.40001
1.40001
1.40001
1.40001
1.40001
1.40001
2.83415
2.87725
2.85956
2.14554
1.46358
1.40039
1.40001
1.40001
1.40001
1.40001
1.40001
1.40001
1.40001
1.40001
1.40001
3.10325
2.91409
2.73249
1.78413
1.41153
1.40004
1.40001
1.40001
1.40001
1.40001
1.40001
1.40001
1.40001
1.40001
1.40001
3.36439
2.89571
2.33872
1.5157
1.40107
1.40001
1.40001
1.40001
1.40001
1.40001
1.40001
1.40001
1.40001
1.40001
1.40001
3.48418
2.73471
1.84872
1.41617
1.40006
1.40001
1.40001
1.40001
1.40001
1.40001
1.40001
1.40001
1.40001
1.40001
1.40001
3.48174
2.36481
1.54853
1.40186
1.40001
1.40001
1.40001
1.40001
1.40001
1.40001
1.40001
1.40001
1.40001
1.40001
1.40001
3.13497
1.95822
1.43604
1.40021
1.40001
1.40001
1.40001
1.40001
1.40001
1.40001
1.40001
1.40001
1.40001
1.40001
1.40001
2.75526
1.66601
1.40684
1.40003
1.40001
1.40001
1.40001
1.40001
1.40001
1.40001
1.40001
1.40001
1.40001
1.40001
1.40001
2.26951
1.48809
1.4009
1.40001
1.40001
1.40001
1.40001
1.40001
1.40001
1.40001
1.40001
1.40001
1.40001
1.40001
1.40001
1.76106
1.41746
1.40008
1.40001
1.40001
1.40001
1.40001
1.40001
1.40001
1.40001
1.40001
1.40001
1.40001
1.40001
1.40001
1.40001
1.40001
1.40001
1.40001
1.40001
1.40001
1.40001
1.40001
1.40001
1.40001
1.40001
1.40001
1.40001
1.40001
1.40001
1.40001
1.40001
1.40001
1.40001
1.40001
1.40001
1.40001
1.40001
1.40001
1.40001
1.40001
1.40001
1.40001
1.40001
1.40001
1.40001
1.40001
1.40001
1.40001
1.40001
1.40001
1.40001
1.40001
1.40001
1.40001
1.40001
1.40001
1.40001
1.40001
1.40001
1.40001
1.40001
1.40001
1.40001
1.40001
1.40001
1.40001
1.40001
1.40001
1.40001
1.40001
1.40001
1.40001
1.40001
1.40001
1.40001
1.40001
1.40001
1.40001
1.40001
1.40001
1.40001
1.40001
1.40001
1.40001
1.40001
1.40001
1.40001
1.40001
1.40001
1.40001
1.40001
1.40001
1.40001
1.40001
1.40001
1.40001
1.40001
1.40001
1.40001
1.40001
1.40001
1.40001
1.40001
1.40001
1.40001
1.40001
1.40001
1.40001
1.40001
1.40001
1.40001
1.40001
1.40001
1.40001
1.40001
1.40001
1.40001
1.40001
1.40001
1.40001
1.40001
1.40001
1.40001
1.40001
1.40001
1.40001
1.40001
1.40001
1.40001
1.40001
1.40001
1.40001
1.40001
1.40001
1.40001
1.40001
1.40001
1.40001
1.40001
1.40001
1.40001
1.40001
1.40001
1.40001
1.40001
1.40001
1.40001
1.40001
1.40001
1.40001
1.40001
1.40001
1.40001
1.40001
1.40001
1.40001
1.40001
1.40001
1.40001
1.40001
1.40001
1.40001
1.40001
1.40001
1.40001
1.40001
1.40001
1.40001
1.40001
1.40001
1.40001
1.40001
1.40001
1.40001
1.40001
1.40001
1.40001
1.40001
1.40001
1.40001
1.40001
1.40001
1.40001
1.40001
1.40001
1.40001
1.40001
1.40001
1.40001
1.40001
1.40001
1.40001
1.40001
1.40001
1.40001
1.40001
1.40001
1.40001
1.40001
1.40001
1.40001
1.40001
1.40001
1.40001
1.40001
1.40001
1.40001
1.40001
1.40001
1.40001
1.40001
1.40001
1.40001
1.40001
1.40001
1.40001
1.40001
1.40001
1.40001
1.40001
1.40001
1.40001
1.40001
1.40001
1.40001
1.40001
1.40001
1.40001
1.40001
1.40001
1.40001
1.40001
1.40001
1.40001
1.40001
1.40001
1.40001
1.40001
1.40001
1.40001
1.40001
1.40001
1.40001
1.40001
1.40001
1.40001
1.40001
1.40001
1.40001
1.40001
1.40001
1.40001
1.40001
1.40001
1.40001
1.40001
1.40001
1.40001
1.40001
1.40001
1.40001
1.40001
1.40001
1.40001
1.40001
1.40001
1.40001
1.40001
1.40001
1.40001
1.40001
1.40001
1.40001
1.40001
1.40001
1.40001
1.40001
1.40001
1.40001
1.40001
1.40001
1.40001
1.40001
1.40001
1.40001
1.40001
1.40001
1.40001
1.40001
1.40001
1.40001
1.40001
1.40001
1.40001
1.40001
1.40001
1.40001
1.40001
1.40001
1.40001
1.40001
1.40001
1.40001
1.40001
1.40001
1.40001
1.40001
1.40001
1.40001
1.40001
1.40001
1.40001
1.40001
1.40001
1.40001
1.40001
1.40001
1.40001
1.40001
1.40001
1.40001
1.40001
1.40001
1.40001
1.40001
1.40001
1.40001
1.40001
1.40001
1.40001
1.40001
1.40001
1.40001
1.40001
1.40001
1.40001
1.40001
1.40001
1.40001
1.40001
1.40001
1.40001
1.40001
1.40001
1.40001
1.40001
1.40001
1.40001
1.40001
1.40001
1.40001
1.40001
1.40001
1.40001
1.40001
1.40001
1.40001
1.40001
1.40001
1.40001
1.40001
1.40001
1.40001
1.40001
2.09219
1.41503
1.40001
1.40001
1.40001
1.40001
1.40001
1.40001
1.40001
1.40001
1.40001
1.40001
1.40001
1.40001
1.40001
1.40001
1.40001
1.40001
1.40001
1.40001
3.00927
1.58716
1.39946
1.40001
1.40001
1.40001
1.40001
1.40001
1.40001
1.40001
1.40001
1.40001
1.40001
1.40001
1.40001
1.40001
1.40001
1.40001
1.40001
1.40001
4.06446
2.1344
1.41428
1.39996
1.40001
1.40001
1.40001
1.40001
1.40001
1.40001
1.40001
1.40001
1.40001
1.40001
1.40001
1.40001
1.40001
1.40001
1.40001
1.40001
4.49651
3.14486
1.78048
1.40063
1.40001
1.40001
1.40001
1.40001
1.40001
1.40001
1.40001
1.40001
1.40001
1.40001
1.40001
1.40001
1.40001
1.40001
1.40001
1.40001
4.28005
3.65075
2.866
1.59974
1.3997
1.4
1.40001
1.40001
1.40001
1.40001
1.40001
1.40001
1.40001
1.40001
1.40001
1.40001
1.40001
1.40001
1.40001
1.40001
3.78319
3.64289
3.55075
2.41399
1.46359
1.39986
1.4
1.40001
1.40001
1.40001
1.40001
1.40001
1.40001
1.40001
1.40001
1.40001
1.40001
1.40001
1.40001
1.40001
3.39882
3.47743
3.55497
3.15867
1.87392
1.40402
1.4
1.4
1.40001
1.40001
1.40001
1.40001
1.40001
1.40001
1.40001
1.40001
1.40001
1.40001
1.40001
1.40001
3.26599
3.32472
3.45403
3.30706
2.51114
1.49048
1.39997
1.4
1.40001
1.40001
1.40001
1.40001
1.40001
1.40001
1.40001
1.40001
1.40001
1.40001
1.40001
1.40001
3.22797
3.25977
3.32186
3.24808
2.91815
1.74747
1.40141
1.4
1.40001
1.40001
1.40001
1.40001
1.40001
1.40001
1.40001
1.40001
1.40001
1.40001
1.40001
1.40001
3.24378
3.23541
3.23903
3.21036
3.10671
2.10454
1.41865
1.40002
1.40001
1.40001
1.40001
1.40001
1.40001
1.40001
1.40001
1.40001
1.40001
1.40001
1.40001
1.40001
3.26659
3.23024
3.20101
3.20177
3.1908
2.46514
1.48706
1.40002
1.4
1.40001
1.40001
1.40001
1.40001
1.40001
1.40001
1.40001
1.40001
1.40001
1.40001
1.40001
3.27419
3.21717
3.18117
3.19994
3.22059
2.75412
1.64218
1.40084
1.40001
1.40001
1.40001
1.40001
1.40001
1.40001
1.40001
1.40001
1.40001
1.40001
1.40001
1.40001
3.27936
3.21953
3.17073
3.20691
3.21562
2.92153
1.85138
1.4045
1.4
1.4
1.40001
1.40001
1.40001
1.40001
1.40001
1.40001
1.40001
1.40001
1.40001
1.40001
3.2713
3.21265
3.16089
3.18978
3.19856
3.06373
2.22386
1.44142
1.40007
1.40001
1.40001
1.40001
1.40001
1.40001
1.40001
1.40001
1.40001
1.40001
1.40001
1.40001
3.27003
3.22192
3.17313
3.18752
3.20684
3.05614
2.13403
1.3672
1.39879
1.4
1.40001
1.40001
1.40001
1.40001
1.40001
1.40001
1.40001
1.40001
1.40001
1.40001
1.63498
2.42576
2.81681
3.02607
3.1741
3.17315
2.79337
1.90504
1.45033
1.40137
1.40002
1.40001
1.40001
1.40001
1.40001
1.40001
1.40001
1.40001
1.40001
1.40001
0.47354
1.34769
2.07797
2.5539
2.93944
3.12232
3.06111
2.56244
1.75162
1.42656
1.40053
1.40001
1.40001
1.40001
1.40001
1.40001
1.40001
1.40001
1.40001
1.40001
0.126848
0.674358
1.38808
1.89468
2.40135
2.85514
2.97688
2.87995
2.2349
1.56067
1.4071
1.4001
1.40001
1.40001
1.40001
1.40001
1.40001
1.40001
1.40001
1.40001
0.154976
0.478498
0.904336
1.41613
1.85404
2.32344
2.73659
2.7643
2.54864
1.8564
1.44878
1.40114
1.40002
1.40001
1.40001
1.40001
1.40001
1.40001
1.40001
1.40001
0.228202
0.402385
0.582484
1.00064
1.4325
1.83841
2.30464
2.5907
2.56672
2.19761
1.57545
1.40774
1.4001
1.40001
1.40001
1.40001
1.40001
1.40001
1.40001
1.40001
0.254663
0.35894
0.484029
0.708604
1.02601
1.41019
1.86231
2.34909
2.46721
2.3217
1.76202
1.43088
1.40053
1.40001
1.40001
1.40001
1.40001
1.40001
1.40001
1.40001
0.266558
0.313918
0.406981
0.572159
0.804438
1.06573
1.45847
2.0151
2.27367
2.2435
1.88308
1.47537
1.40207
1.40002
1.40001
1.40001
1.40001
1.40001
1.40001
1.40001
0.286098
0.254588
0.289955
0.450606
0.678377
0.878381
1.18703
1.68894
2.09831
2.14296
1.95619
1.53572
1.40564
1.40006
1.40001
1.40001
1.40001
1.40001
1.40001
1.40001
0.302671
0.233888
0.23505
0.349278
0.535629
0.725452
1.00631
1.45317
1.94753
2.06314
1.94915
1.57534
1.40995
1.40011
1.40001
1.40001
1.40001
1.40001
1.40001
1.40001
0.329207
0.239303
0.246406
0.328594
0.425067
0.574263
0.810443
1.25296
1.80549
1.97324
1.90906
1.57857
1.41175
1.40013
1.40001
1.40001
1.40001
1.40001
1.40001
1.40001
0.356624
0.260613
0.273501
0.326924
0.381708
0.535221
0.724904
1.11087
1.67643
1.87715
1.83424
1.56193
1.41128
1.40014
1.40001
1.4
1.40001
1.40001
1.40001
1.40001
0.384752
0.305532
0.318106
0.336783
0.38006
0.539335
0.72776
1.09321
1.59846
1.78392
1.74463
1.52577
1.40851
1.4001
1.40001
1.4
1.40001
1.40001
1.40001
1.40001
0.429816
0.380032
0.392231
0.376844
0.401422
0.564607
0.755872
1.11381
1.54843
1.69309
1.64844
1.47877
1.4044
1.40005
1.4
1.4
1.40001
1.40001
1.40001
1.40001
0.501244
0.487801
0.512725
0.482485
0.492089
0.653435
0.831253
1.12679
1.49907
1.60309
1.55281
1.43496
1.4012
1.39999
1.4
1.4
1.40001
1.40001
1.40001
1.40001
0.572513
0.572163
0.62291
0.613053
0.613958
0.723334
0.855413
1.10864
1.41535
1.49523
1.44905
1.40329
1.39968
1.39996
1.4
1.4
1.40001
1.40001
1.40001
1.40001
0.804442
0.665591
0.659277
0.650539
0.678862
0.794308
0.909773
1.12323
1.31396
1.36266
1.38221
1.39699
1.39974
1.39999
1.4
1.40001
1.40001
1.40001
1.40001
1.40001
1.01097
0.789967
0.662715
0.656293
0.685768
0.802219
0.91141
1.07358
1.17862
1.29543
1.37614
1.3977
1.39993
1.4
1.40001
1.40001
1.40001
1.40001
1.40001
1.40001
1.09007
0.914535
0.653704
0.640631
0.680693
0.783638
0.855318
0.99529
1.14657
1.29779
1.38077
1.39898
1.39999
1.4
1.40001
1.40001
1.40001
1.40001
1.40001
1.40001
1.09094
0.989542
0.656391
0.589966
0.656162
0.758303
0.831911
0.997547
1.16284
1.31821
1.38966
1.39973
1.4
1.40001
1.40001
1.40001
1.40001
1.40001
1.40001
1.40001
1.11263
1.06472
0.709824
0.583151
0.657869
0.768432
0.852762
1.03179
1.20868
1.35081
1.39634
1.39995
1.4
1.40001
1.40001
1.40001
1.40001
1.40001
1.40001
1.40001
1.17029
1.14338
0.853213
0.611167
0.680164
0.806731
0.905829
1.09817
1.27166
1.37774
1.39903
1.39999
1.4
1.40001
1.40001
1.40001
1.40001
1.40001
1.40001
1.40001
1.20768
1.20112
1.05162
0.736341
0.740234
0.867153
0.975995
1.17385
1.3277
1.39222
1.39981
1.4
1.40001
1.40001
1.40001
1.40001
1.40001
1.40001
1.40001
1.40001
1.21747
1.2211
1.17308
0.932903
0.869416
0.956962
1.05656
1.24356
1.36602
1.39798
1.39998
1.4
1.40001
1.40001
1.40001
1.40001
1.40001
1.40001
1.40001
1.40001
1.2191
1.22111
1.19845
1.07891
1.01658
1.07056
1.15556
1.30886
1.38802
1.39964
1.4
1.40001
1.40001
1.40001
1.40001
1.40001
1.40001
1.40001
1.40001
1.40001
1.24858
1.25109
1.24491
1.22131
1.21764
1.24751
1.30476
1.37494
1.39824
1.39998
1.4
1.40001
1.40001
1.40001
1.40001
1.40001
1.40001
1.40001
1.40001
1.40001
)
;

boundaryField
{
    inlet
    {
        type            calculated;
        value           uniform 1.40001;
    }
    outlet
    {
        type            calculated;
        value           nonuniform List<scalar> 
35
(
1.2486
1.25104
1.24425
1.21981
1.21571
1.24505
1.30205
1.37372
1.3981
1.39998
1.4
1.40001
1.40001
1.40001
1.40001
1.40001
1.40001
1.40001
1.40001
1.40001
1.23882
1.22678
1.21352
1.22351
1.26058
1.3462
1.39376
1.39986
1.4
1.40001
1.40001
1.40001
1.40001
1.40001
1.40001
)
;
    }
    airfoil
    {
        type            calculated;
        value           nonuniform List<scalar> 
60
(
0.444052
0.382581
0.287114
0.204468
0.137082
0.0743447
0.0465982
0.0407518
0.0449584
0.0612297
0.0716718
0.0947168
0.294643
0.64885
1.52989
2.65318
2.64275
2.64678
2.65152
2.67055
2.72535
2.83415
3.10325
3.36439
3.48418
3.48174
3.13497
2.75526
2.26951
1.76106
2.09219
3.00927
4.06446
4.49651
4.28005
3.78319
3.39882
3.26599
3.22797
3.24378
3.26659
3.27419
3.27936
3.2713
3.27003
1.63498
0.47354
0.126848
0.154976
0.228202
0.254663
0.266558
0.286098
0.302671
0.329207
0.356624
0.384752
0.429816
0.501244
0.572513
)
;
    }
    top
    {
        type            symmetryPlane;
    }
    bottom
    {
        type            symmetryPlane;
    }
    defaultFaces
    {
        type            empty;
    }
}


// ************************************************************************* //
