/*--------------------------------*- C++ -*----------------------------------*\
  =========                 |
  \\      /  F ield         | OpenFOAM: The Open Source CFD Toolbox
   \\    /   O peration     | Website:  https://openfoam.org
    \\  /    A nd           | Version:  7
     \\/     M anipulation  |
\*---------------------------------------------------------------------------*/
FoamFile
{
    version     2.0;
    format      ascii;
    class       volScalarField;
    location    "4";
    object      rho;
}
// * * * * * * * * * * * * * * * * * * * * * * * * * * * * * * * * * * * * * //

dimensions      [1 -3 0 0 0 0 0];

internalField   nonuniform List<scalar> 
90000
(
0.380139
0.417601
0.453028
0.480303
0.512377
0.544553
0.569245
0.594122
0.626815
0.659989
0.68964
0.724135
0.76241
0.800538
0.839712
0.880796
0.922506
0.96413
1.00409
1.04224
1.07449
1.10109
1.1234
1.1321
1.13438
1.13938
1.13876
1.13843
1.13841
1.13646
1.13409
1.13121
1.12977
1.1283
1.12708
1.12469
1.121
1.11625
1.11044
1.10338
1.09891
1.1035
1.11113
1.122
1.13211
1.14284
1.15017
1.15664
1.15534
1.15013
1.13984
1.12919
1.12128
1.11815
1.12055
1.12651
1.13368
1.14087
1.14525
1.14401
1.14058
1.13464
1.13004
1.12909
1.13125
1.13507
1.14005
1.14329
1.14216
1.13748
1.13157
1.13119
1.13239
1.13617
1.13886
1.13743
1.13329
1.13053
1.13076
1.13269
1.13242
1.12986
1.12639
1.12578
1.12674
1.12753
1.12633
1.12338
1.12189
1.12161
1.12087
1.11859
1.11548
1.11304
1.11041
1.10998
1.11033
1.11152
1.11439
1.11946
0.350578
0.350592
0.350605
0.350623
0.350654
0.350694
0.350731
0.350777
0.350817
0.351176
0.352329
0.354857
0.359587
0.366672
0.377426
0.392106
0.412207
0.438308
0.471217
0.510925
0.559256
0.614001
0.674929
0.735062
0.791949
0.844348
0.890601
0.930132
0.966619
0.991263
1.01788
1.03432
1.05174
1.06341
1.07731
1.08549
1.09298
1.09722
1.09864
1.10179
1.11025
1.11944
1.1233
1.12661
1.1299
1.13205
1.13381
1.13099
1.12284
1.11029
1.10043
1.09939
1.10268
1.10829
1.1159
1.1206
1.12367
1.12494
1.12316
1.11791
1.11096
1.10636
1.1077
1.11141
1.11819
1.12475
1.12458
1.12266
1.11681
1.11041
1.10894
1.11211
1.11826
1.12268
1.12168
1.11689
1.11193
1.11202
1.11418
1.11798
1.11695
1.11251
1.10991
1.11023
1.11298
1.11382
1.11213
1.10947
1.10882
1.10896
1.10838
1.10675
1.1042
1.1017
1.0999
1.10012
1.10044
1.10335
1.107
1.11372
0.351414
0.35148
0.351557
0.351642
0.351734
0.351835
0.351941
0.352053
0.352165
0.352304
0.352384
0.352447
0.352518
0.352604
0.352698
0.35279
0.352888
0.352992
0.353112
0.353231
0.353367
0.353464
0.35551
0.360953
0.372884
0.390651
0.417465
0.451408
0.493847
0.545481
0.602095
0.667854
0.732271
0.797784
0.860475
0.918497
0.974198
1.02044
1.06426
1.09646
1.11671
1.1273
1.12878
1.12833
1.12768
1.12451
1.11606
1.10114
1.07961
1.07571
1.07947
1.08766
1.09726
1.10724
1.11472
1.11917
1.11897
1.11598
1.10687
1.09953
1.09493
1.0962
1.09833
1.10433
1.11041
1.11804
1.11604
1.10994
1.10291
1.10003
1.10302
1.1056
1.10985
1.11253
1.10978
1.10515
1.10289
1.10524
1.10889
1.1087
1.10549
1.10152
1.10163
1.1042
1.10611
1.10494
1.10215
1.1011
1.10159
1.10238
1.10145
1.09922
1.09778
1.09614
1.09514
1.0948
1.09561
1.09865
1.10288
1.11006
0.352797
0.352874
0.352958
0.353046
0.353139
0.353231
0.353324
0.353416
0.353511
0.353603
0.353697
0.353791
0.353888
0.353985
0.354083
0.354181
0.354279
0.354375
0.354473
0.354565
0.354656
0.354761
0.354805
0.354848
0.354901
0.354965
0.355033
0.355112
0.355185
0.355268
0.355322
0.357481
0.36363
0.379359
0.403362
0.442393
0.491958
0.558703
0.637729
0.726084
0.806174
0.884954
0.939883
0.990174
1.02291
1.04976
1.05559
1.06584
1.0719
1.08678
1.0973
1.11025
1.11902
1.12521
1.1252
1.12397
1.11882
1.10414
1.08957
1.08996
1.09191
1.09673
1.10657
1.1162
1.11582
1.11387
1.10676
1.09769
1.09523
1.09659
1.10184
1.11093
1.1116
1.10875
1.10145
1.09864
1.09941
1.10314
1.10809
1.10568
1.09999
1.09748
1.09832
1.10165
1.10436
1.10224
1.09894
1.09887
1.09955
1.09967
1.09884
1.09747
1.09612
1.0947
1.09312
1.09329
1.09404
1.09794
1.10197
1.10954
0.354127
0.354181
0.354238
0.354299
0.354359
0.354419
0.354477
0.354535
0.354593
0.354649
0.354707
0.354765
0.354824
0.354882
0.354937
0.354991
0.355045
0.3551
0.355158
0.355214
0.35527
0.355325
0.355385
0.35545
0.355519
0.355591
0.355655
0.355715
0.355766
0.355815
0.355861
0.355881
0.355902
0.355921
0.355942
0.355961
0.355988
0.356013
0.356299
0.363061
0.38085
0.4161
0.473415
0.545148
0.641355
0.744208
0.844867
0.941308
1.0164
1.06768
1.08693
1.10147
1.11048
1.11715
1.11851
1.11427
1.10146
1.08368
1.08731
1.09408
1.10648
1.11792
1.12154
1.12085
1.11745
1.10447
1.09475
1.09324
1.09579
1.10444
1.11345
1.11605
1.11247
1.10229
1.09747
1.09824
1.10387
1.10851
1.10786
1.10211
1.09695
1.09726
1.10143
1.10454
1.10345
1.09939
1.09796
1.0988
1.1005
1.09935
1.09737
1.09657
1.0958
1.09417
1.09275
1.09276
1.09407
1.09837
1.10225
1.10992
0.354994
0.355026
0.355059
0.355091
0.355121
0.355151
0.355181
0.355211
0.355242
0.355275
0.35531
0.355344
0.355378
0.355411
0.355444
0.355478
0.355512
0.35555
0.35559
0.355628
0.355666
0.35571
0.355753
0.355796
0.355844
0.355888
0.355923
0.355952
0.355977
0.356002
0.356023
0.356042
0.356059
0.356069
0.356077
0.356085
0.3561
0.356123
0.356138
0.356154
0.356176
0.356202
0.356243
0.356276
0.357016
0.364982
0.394387
0.44628
0.534594
0.642903
0.758909
0.860823
0.942354
0.996037
1.05148
1.06497
1.0781
1.08568
1.10523
1.12391
1.13879
1.13859
1.13083
1.12522
1.10586
1.09302
1.09325
1.0976
1.11
1.12193
1.12296
1.11929
1.10602
1.09867
1.09841
1.10484
1.1133
1.11206
1.10603
1.09846
1.09721
1.10078
1.10757
1.10675
1.10225
1.09852
1.09859
1.10128
1.10154
1.09939
1.09763
1.09743
1.09715
1.09473
1.09313
1.09319
1.09476
1.09889
1.1028
1.11072
0.355449
0.355466
0.355483
0.355502
0.355523
0.355544
0.355565
0.355586
0.355605
0.355626
0.355648
0.35567
0.355694
0.355719
0.355745
0.355773
0.355799
0.355829
0.355859
0.355889
0.355922
0.355958
0.355991
0.356026
0.356061
0.356087
0.356108
0.356118
0.356128
0.356142
0.356154
0.356165
0.356168
0.356163
0.356158
0.356161
0.356174
0.356197
0.356226
0.356271
0.356333
0.356405
0.356474
0.356545
0.356587
0.356633
0.356679
0.356758
0.356812
0.357261
0.371979
0.408073
0.479415
0.581169
0.706924
0.837521
0.958622
1.04604
1.09432
1.11454
1.1287
1.12931
1.12761
1.11241
1.09011
1.09458
1.10509
1.11962
1.12717
1.12764
1.12371
1.10944
1.10014
1.10049
1.10735
1.11812
1.118
1.11374
1.10185
1.09842
1.10138
1.10972
1.11125
1.10836
1.10152
1.09946
1.10244
1.10433
1.10246
1.09983
1.09895
1.10004
1.09893
1.0956
1.09405
1.09433
1.09626
1.10008
1.10378
1.11231
0.355733
0.355746
0.355762
0.355778
0.355795
0.355813
0.355831
0.355849
0.355868
0.355887
0.355907
0.355927
0.355946
0.355968
0.355992
0.356016
0.356041
0.356066
0.356091
0.356119
0.356149
0.356177
0.356205
0.356232
0.356249
0.356265
0.356277
0.356279
0.356279
0.356284
0.356297
0.356307
0.356306
0.356302
0.356304
0.356314
0.35634
0.356389
0.35645
0.356512
0.356573
0.356626
0.356672
0.356715
0.356754
0.356794
0.356839
0.3569
0.356971
0.357023
0.357034
0.357024
0.356974
0.356908
0.361676
0.394161
0.460475
0.583096
0.724021
0.852866
0.958093
1.02747
1.06953
1.08269
1.09394
1.1182
1.13701
1.14453
1.13799
1.13118
1.10848
1.09783
1.10041
1.11175
1.12615
1.12723
1.12177
1.10607
1.09921
1.10182
1.11159
1.11755
1.1145
1.10537
1.10149
1.10323
1.10743
1.10638
1.10343
1.101
1.10177
1.10296
1.101
1.09701
1.09566
1.09641
1.09868
1.10167
1.10541
1.11484
0.356014
0.356028
0.356043
0.356059
0.356077
0.356095
0.356111
0.356126
0.356142
0.356157
0.356173
0.356188
0.356204
0.356221
0.356241
0.356262
0.356284
0.356304
0.356324
0.356346
0.356367
0.35639
0.356409
0.356421
0.356431
0.356441
0.356443
0.356444
0.356446
0.356452
0.356465
0.356476
0.356479
0.356482
0.356489
0.356501
0.35653
0.356585
0.356649
0.356705
0.35675
0.356779
0.356802
0.356821
0.356834
0.356847
0.356876
0.356926
0.356976
0.357017
0.357045
0.357043
0.357005
0.356972
0.35696
0.356957
0.356961
0.356962
0.364636
0.405606
0.490786
0.62948
0.791249
0.941272
1.05456
1.10698
1.12648
1.13386
1.13183
1.11132
1.0894
1.09815
1.11788
1.12999
1.13349
1.12789
1.10906
1.0978
1.10009
1.11236
1.12062
1.11913
1.10982
1.10275
1.10365
1.10869
1.10976
1.10733
1.10213
1.10241
1.10537
1.10487
1.10207
1.09853
1.09708
1.09847
1.1008
1.10319
1.1071
1.1174
0.356298
0.356309
0.35632
0.356332
0.356343
0.356353
0.356361
0.356369
0.356376
0.356383
0.356393
0.3564
0.356408
0.356416
0.356428
0.356444
0.35646
0.356475
0.356487
0.356501
0.356517
0.356531
0.356541
0.356549
0.356555
0.35656
0.356566
0.35657
0.356574
0.35658
0.356591
0.356603
0.356611
0.356619
0.356628
0.356641
0.356672
0.356741
0.356801
0.356836
0.356853
0.356855
0.356853
0.35685
0.356847
0.356846
0.356859
0.356888
0.356928
0.356973
0.357003
0.357022
0.357004
0.356996
0.357011
0.357026
0.357032
0.357036
0.357058
0.357077
0.357073
0.357046
0.377183
0.448451
0.588207
0.755141
0.896703
1.00036
1.05996
1.07719
1.09378
1.12308
1.14824
1.14585
1.13858
1.10841
1.09482
1.09767
1.1126
1.12685
1.12528
1.11452
1.10333
1.10224
1.10807
1.11344
1.11122
1.10355
1.10125
1.10413
1.10793
1.10614
1.10082
1.09842
1.09871
1.10067
1.10245
1.10448
1.10879
1.11986
0.356484
0.356487
0.356491
0.356497
0.356503
0.356506
0.356505
0.356503
0.356503
0.356503
0.356505
0.356509
0.356512
0.356516
0.356522
0.35653
0.35654
0.356551
0.356563
0.356577
0.35659
0.356601
0.356612
0.356621
0.356628
0.356634
0.356645
0.356657
0.356667
0.356677
0.356692
0.356709
0.356723
0.356741
0.356749
0.356758
0.35679
0.356869
0.356916
0.356912
0.356898
0.356883
0.356868
0.356852
0.356837
0.356827
0.356824
0.35684
0.356876
0.356917
0.356958
0.356998
0.357023
0.357057
0.357096
0.357098
0.357077
0.357062
0.357064
0.357092
0.3571
0.357086
0.357075
0.357103
0.357153
0.372365
0.438116
0.567609
0.751873
0.934235
1.06144
1.10932
1.13418
1.13315
1.11481
1.08171
1.09207
1.11498
1.12899
1.12882
1.12028
1.1021
1.10092
1.10555
1.11481
1.11422
1.10586
1.10001
1.10133
1.10857
1.10871
1.10421
1.09978
1.09869
1.10114
1.10214
1.10308
1.10543
1.11087
1.12227
0.35655
0.356549
0.356548
0.356547
0.356548
0.356549
0.356541
0.356531
0.356529
0.356528
0.356529
0.356531
0.356535
0.356539
0.356545
0.356553
0.356562
0.356575
0.356592
0.35661
0.356628
0.35665
0.356672
0.356689
0.356701
0.356714
0.356734
0.356758
0.356776
0.356792
0.356814
0.356833
0.356851
0.356869
0.356869
0.356873
0.356906
0.356965
0.356977
0.356968
0.356935
0.356904
0.356883
0.356856
0.356835
0.356825
0.356825
0.356843
0.356883
0.35691
0.356975
0.3571
0.357165
0.357204
0.357216
0.3572
0.357126
0.357073
0.357067
0.357085
0.357124
0.357135
0.357157
0.357245
0.357427
0.3577
0.358064
0.35812
0.372191
0.44633
0.608379
0.789866
0.934234
1.02498
1.06648
1.08126
1.11868
1.14228
1.13959
1.1313
1.10364
1.09507
1.09999
1.11644
1.11805
1.11077
1.09812
1.09834
1.10559
1.11159
1.10901
1.10173
1.09877
1.10079
1.10338
1.10291
1.10336
1.10687
1.11391
1.12407
0.356591
0.356585
0.356582
0.356581
0.356579
0.356571
0.356553
0.356545
0.356543
0.356543
0.356544
0.356545
0.356544
0.356548
0.356559
0.35658
0.356607
0.356636
0.356664
0.356694
0.356731
0.356774
0.356811
0.356837
0.356857
0.35688
0.356916
0.356944
0.356965
0.356986
0.357008
0.357023
0.357022
0.357003
0.356994
0.356997
0.357023
0.357049
0.357049
0.357039
0.357003
0.35699
0.356984
0.356955
0.356905
0.356897
0.356903
0.356916
0.356941
0.356991
0.3571
0.357234
0.357278
0.35729
0.357291
0.357266
0.357162
0.357066
0.35705
0.357074
0.357158
0.357294
0.357405
0.357496
0.357679
0.35803
0.358244
0.358246
0.3582
0.358022
0.357478
0.382306
0.475976
0.654912
0.873021
1.03406
1.10376
1.12822
1.12964
1.10531
1.08988
1.09785
1.11508
1.12331
1.11713
1.09938
1.09532
1.10033
1.11248
1.11218
1.10485
1.09945
1.10023
1.10443
1.1035
1.10289
1.10388
1.1095
1.11637
1.12513
0.356667
0.356658
0.356643
0.356639
0.35664
0.356638
0.356634
0.356633
0.356633
0.356636
0.35664
0.356644
0.356652
0.356665
0.356687
0.356726
0.356776
0.356818
0.35685
0.356887
0.356937
0.356982
0.357012
0.357033
0.357056
0.357081
0.357104
0.35712
0.357131
0.357139
0.357149
0.357154
0.357128
0.357057
0.357036
0.357039
0.357062
0.357076
0.35708
0.357075
0.357071
0.357069
0.357061
0.357016
0.356999
0.357005
0.357016
0.357029
0.357049
0.357102
0.357215
0.357336
0.357343
0.357325
0.357306
0.357261
0.357127
0.357051
0.357047
0.357079
0.357275
0.357687
0.357845
0.357854
0.357943
0.358165
0.358256
0.358222
0.358079
0.357659
0.357143
0.356905
0.356756
0.358389
0.406992
0.570644
0.774961
0.925928
1.04529
1.06048
1.09532
1.12409
1.13276
1.12723
1.10179
1.09191
1.09753
1.11334
1.11637
1.10997
1.10085
1.10033
1.106
1.10689
1.10374
1.10207
1.10497
1.11267
1.11842
1.1245
0.356722
0.356718
0.356708
0.356698
0.356698
0.3567
0.356701
0.356705
0.356716
0.356736
0.356756
0.356772
0.356792
0.356813
0.35684
0.356891
0.356956
0.356986
0.357003
0.357031
0.357089
0.357109
0.357103
0.357102
0.357116
0.357136
0.357152
0.357163
0.357168
0.357168
0.357178
0.357186
0.357154
0.357062
0.357033
0.357033
0.357051
0.357078
0.357083
0.357086
0.357096
0.3571
0.357097
0.357109
0.357146
0.357179
0.357168
0.357158
0.357162
0.357187
0.357274
0.357383
0.357387
0.35735
0.357267
0.35717
0.357083
0.357072
0.357104
0.357209
0.357548
0.35808
0.358197
0.358164
0.358158
0.358206
0.358158
0.357988
0.357682
0.357166
0.356831
0.356746
0.356776
0.356912
0.357447
0.35776
0.378514
0.485217
0.686775
0.904726
1.06614
1.10852
1.12145
1.10373
1.0862
1.09601
1.11343
1.12104
1.11416
1.09947
1.09797
1.10558
1.10993
1.10681
1.10086
1.10138
1.10695
1.11399
1.11922
1.12369
0.356901
0.356905
0.356914
0.35692
0.356926
0.356926
0.356923
0.356925
0.356937
0.356953
0.356968
0.356984
0.356995
0.357
0.357009
0.357044
0.35708
0.357086
0.357091
0.357106
0.357127
0.35713
0.357121
0.357113
0.357112
0.357117
0.35713
0.357143
0.357147
0.357147
0.357158
0.357169
0.357127
0.357026
0.356996
0.356997
0.357017
0.357055
0.357078
0.357101
0.357119
0.357154
0.357217
0.357284
0.357339
0.357342
0.357313
0.357261
0.357232
0.357219
0.357258
0.357342
0.357363
0.357343
0.357267
0.357139
0.357083
0.357133
0.357295
0.357546
0.357998
0.35837
0.358402
0.358374
0.358287
0.358173
0.35793
0.357593
0.357146
0.35672
0.356657
0.356711
0.356953
0.357491
0.358026
0.358278
0.358249
0.357713
0.360876
0.440938
0.624798
0.830917
1.00786
1.04433
1.08957
1.11583
1.131
1.12539
1.09779
1.09328
1.10106
1.11397
1.11234
1.10303
1.0987
1.1016
1.1103
1.1153
1.11885
1.12311
0.357196
0.357192
0.357187
0.357183
0.35718
0.357173
0.357162
0.357152
0.357145
0.357136
0.357123
0.357108
0.357092
0.357084
0.357082
0.357092
0.357106
0.357106
0.357095
0.35707
0.357048
0.357034
0.357028
0.35703
0.357045
0.357072
0.357102
0.357124
0.35713
0.357131
0.357143
0.357155
0.35711
0.357036
0.357027
0.357033
0.357059
0.357096
0.357137
0.357181
0.357245
0.357367
0.357443
0.357455
0.35746
0.357451
0.357411
0.357333
0.357254
0.357209
0.357198
0.357251
0.357349
0.357363
0.357309
0.357177
0.357182
0.357334
0.357588
0.357926
0.358337
0.358505
0.358505
0.358463
0.358336
0.358
0.357537
0.357137
0.356684
0.35654
0.356586
0.356809
0.357395
0.358031
0.35828
0.358337
0.357965
0.356988
0.356247
0.355989
0.356118
0.41426
0.57029
0.815876
1.03554
1.09794
1.12078
1.10331
1.08097
1.09379
1.11435
1.11735
1.10873
1.098
1.09784
1.10492
1.11207
1.11501
1.11887
1.12305
0.357366
0.357351
0.357339
0.357323
0.357303
0.357278
0.357259
0.357245
0.35723
0.35721
0.35718
0.357143
0.357106
0.357074
0.35705
0.357033
0.357021
0.357009
0.356994
0.356976
0.356968
0.356966
0.356972
0.356993
0.357033
0.357089
0.357139
0.35717
0.357192
0.357211
0.357234
0.357246
0.357246
0.357249
0.357248
0.357261
0.357289
0.35728
0.357272
0.357297
0.357378
0.357501
0.357533
0.35752
0.357505
0.357487
0.357451
0.357365
0.357204
0.357138
0.35714
0.357199
0.357338
0.357442
0.357464
0.357465
0.35756
0.357715
0.357892
0.358159
0.358444
0.358539
0.358506
0.358362
0.358049
0.357468
0.357034
0.356735
0.356512
0.35647
0.35653
0.357093
0.357941
0.358277
0.35838
0.35807
0.357147
0.356142
0.355765
0.355864
0.356523
0.357246
0.357212
0.40182
0.557282
0.786926
0.990659
1.03416
1.08372
1.11453
1.12774
1.11977
1.0995
1.09509
1.10185
1.11027
1.11336
1.115
1.11915
1.12351
0.357356
0.357324
0.357295
0.357277
0.35726
0.357232
0.357196
0.357161
0.357122
0.357074
0.357023
0.356996
0.35699
0.356991
0.356988
0.356968
0.356953
0.35695
0.356945
0.356936
0.356939
0.356949
0.356961
0.356987
0.357057
0.357178
0.357261
0.357314
0.357375
0.357421
0.357435
0.357445
0.357466
0.357483
0.357482
0.357477
0.357449
0.357378
0.357337
0.357344
0.357408
0.35748
0.357482
0.35746
0.357395
0.357328
0.35732
0.357277
0.35715
0.357098
0.357108
0.357192
0.357436
0.357756
0.357881
0.357986
0.358086
0.358064
0.358095
0.358227
0.358473
0.358455
0.358175
0.357768
0.35726
0.356702
0.356558
0.356496
0.356454
0.356416
0.356773
0.357689
0.358222
0.358358
0.357996
0.357203
0.356134
0.355632
0.355659
0.356215
0.357167
0.357589
0.357204
0.356473
0.356497
0.397854
0.544241
0.802104
1.0306
1.09428
1.11772
1.09517
1.09462
1.10045
1.11111
1.1129
1.11169
1.1148
1.12231
1.12609
0.357272
0.357266
0.357237
0.357158
0.357109
0.357107
0.357118
0.357117
0.357091
0.357041
0.35701
0.356997
0.356984
0.356984
0.356991
0.356986
0.356973
0.356984
0.357006
0.357007
0.357018
0.357064
0.357109
0.357154
0.357262
0.35744
0.357538
0.357599
0.357651
0.357671
0.357659
0.357646
0.357631
0.357588
0.357563
0.357551
0.357502
0.357394
0.357355
0.357337
0.357296
0.357227
0.357174
0.357138
0.357107
0.357116
0.357178
0.357206
0.357158
0.357164
0.35724
0.35743
0.357769
0.358101
0.358262
0.35833
0.358302
0.358198
0.358175
0.358244
0.358194
0.35783
0.357275
0.356871
0.356418
0.356146
0.35619
0.356314
0.356356
0.356735
0.357534
0.358217
0.358327
0.35793
0.357089
0.356236
0.355582
0.355562
0.35598
0.357093
0.357873
0.357738
0.356738
0.356415
0.357012
0.35807
0.358256
0.39927
0.558688
0.797916
1.01173
1.04737
1.10185
1.11519
1.11847
1.11478
1.11016
1.11846
1.12841
1.12847
0.357228
0.357219
0.35718
0.357149
0.357143
0.357147
0.357163
0.357188
0.357198
0.357199
0.357202
0.357214
0.357238
0.357243
0.357239
0.357228
0.357226
0.357239
0.357252
0.357243
0.357227
0.357238
0.357262
0.357298
0.357398
0.357566
0.357661
0.357707
0.357721
0.357726
0.357728
0.35772
0.357686
0.357606
0.357572
0.357549
0.35748
0.357368
0.357237
0.357079
0.356945
0.356852
0.356784
0.356758
0.356776
0.356898
0.357071
0.357144
0.357235
0.357381
0.357587
0.357807
0.358078
0.35827
0.358371
0.358371
0.358294
0.358114
0.357907
0.357673
0.357248
0.356566
0.356261
0.35613
0.355974
0.355945
0.355968
0.356158
0.356812
0.357821
0.358487
0.35839
0.358049
0.357046
0.356311
0.355719
0.355498
0.35591
0.35737
0.358572
0.358504
0.35766
0.356628
0.357816
0.359424
0.360224
0.36052
0.361073
0.361881
0.410825
0.58413
0.853601
1.06106
1.09889
1.11668
1.10584
1.11131
1.13147
1.13385
1.13032
0.357626
0.357622
0.357604
0.357556
0.357494
0.357448
0.357442
0.357451
0.357461
0.357463
0.357457
0.357444
0.357424
0.357402
0.357375
0.357335
0.357308
0.357289
0.357273
0.357249
0.357224
0.357202
0.357185
0.35718
0.357218
0.357311
0.35738
0.357455
0.357516
0.357524
0.357515
0.357483
0.357471
0.357468
0.35743
0.35732
0.357197
0.357041
0.356832
0.356635
0.356504
0.356411
0.356352
0.356379
0.356458
0.356654
0.356935
0.357228
0.357549
0.357815
0.357988
0.358071
0.358183
0.358274
0.358251
0.358077
0.357709
0.357361
0.357106
0.356793
0.356264
0.355845
0.355827
0.355865
0.355904
0.355977
0.356304
0.357133
0.358241
0.35906
0.358879
0.358246
0.357305
0.356366
0.356018
0.3556
0.35633
0.358233
0.359905
0.359939
0.359331
0.357843
0.359023
0.361502
0.36302
0.363023
0.364111
0.366196
0.368622
0.370072
0.371044
0.436318
0.633902
0.873866
1.06759
1.08796
1.12341
1.1478
1.13943
1.13494
0.357654
0.357662
0.357667
0.357652
0.357558
0.357449
0.357422
0.357426
0.357431
0.35742
0.357384
0.357337
0.35728
0.357204
0.35712
0.357042
0.356967
0.356872
0.356757
0.356665
0.356577
0.356448
0.356399
0.356394
0.356396
0.356404
0.356443
0.356552
0.356657
0.35667
0.356672
0.356713
0.356777
0.356785
0.356765
0.356716
0.356657
0.356553
0.356409
0.356272
0.356172
0.356151
0.356179
0.356286
0.356547
0.357015
0.357624
0.358033
0.358351
0.358388
0.358326
0.358206
0.358015
0.357802
0.357622
0.357246
0.356837
0.356754
0.356676
0.356415
0.355938
0.35577
0.355798
0.355926
0.356292
0.357041
0.358084
0.358985
0.359721
0.359606
0.358862
0.357573
0.356757
0.356276
0.356011
0.357719
0.360394
0.362379
0.362129
0.361384
0.360156
0.361932
0.365573
0.366583
0.367505
0.369342
0.372011
0.373825
0.375548
0.377693
0.380014
0.381662
0.382927
0.466718
0.696173
0.957953
1.10233
1.14758
1.14437
1.14705
0.356983
0.356985
0.356975
0.356921
0.356755
0.35662
0.356617
0.356637
0.356629
0.356526
0.356405
0.356375
0.35635
0.356275
0.356215
0.356206
0.356199
0.35617
0.356119
0.356105
0.356076
0.35596
0.355887
0.35588
0.35589
0.355931
0.355995
0.356119
0.356269
0.356294
0.356312
0.356399
0.356544
0.356578
0.356587
0.356604
0.356688
0.35685
0.356984
0.357048
0.357112
0.35722
0.357369
0.357601
0.357945
0.358349
0.358846
0.359005
0.358986
0.358896
0.358673
0.358272
0.357568
0.357154
0.357013
0.356773
0.356551
0.356589
0.356612
0.356443
0.356116
0.356102
0.356539
0.357445
0.358883
0.360032
0.360694
0.36079
0.360655
0.359813
0.358533
0.357195
0.357234
0.358226
0.361516
0.364537
0.366407
0.366014
0.364445
0.364334
0.366769
0.370807
0.373995
0.374552
0.37508
0.376683
0.378897
0.381685
0.385149
0.388157
0.390162
0.391867
0.394501
0.396061
0.401952
0.517415
0.762276
1.02241
1.12001
1.15919
0.356282
0.356325
0.356335
0.35633
0.356311
0.356315
0.356337
0.356345
0.356328
0.356284
0.356248
0.356244
0.356253
0.356238
0.3562
0.356187
0.356188
0.356191
0.356158
0.35614
0.356141
0.356079
0.356001
0.355993
0.355998
0.356031
0.356112
0.356278
0.356492
0.356548
0.356577
0.356705
0.357017
0.35739
0.357697
0.358085
0.358514
0.358773
0.358926
0.359036
0.359145
0.359205
0.359244
0.359273
0.359399
0.359559
0.359565
0.359461
0.359232
0.358999
0.35877
0.358305
0.357402
0.356922
0.356815
0.356724
0.356746
0.356904
0.357312
0.357896
0.358605
0.359683
0.361089
0.362455
0.363626
0.363499
0.362786
0.362087
0.361413
0.359688
0.359825
0.361275
0.364777
0.368481
0.371892
0.371511
0.370843
0.37055
0.371609
0.375363
0.3791
0.381246
0.381815
0.38291
0.384881
0.387406
0.389887
0.393063
0.395191
0.397151
0.399588
0.401946
0.404885
0.407446
0.409679
0.410947
0.431854
0.580407
0.89803
1.1305
0.356207
0.356261
0.356319
0.356332
0.356342
0.356365
0.356422
0.356518
0.356577
0.356606
0.356635
0.356694
0.356798
0.356908
0.357019
0.357159
0.357295
0.35743
0.357594
0.357791
0.358005
0.358192
0.358308
0.358347
0.358346
0.358362
0.358466
0.35864
0.3588
0.358935
0.359112
0.359456
0.35984
0.360084
0.360276
0.36059
0.360846
0.36086
0.360858
0.360864
0.360877
0.360857
0.360727
0.360419
0.360171
0.359932
0.359536
0.359079
0.358861
0.358778
0.358672
0.358256
0.357721
0.357755
0.358089
0.358832
0.359751
0.361114
0.36295
0.364542
0.36585
0.366913
0.367426
0.367727
0.367568
0.366714
0.365259
0.365067
0.365778
0.368375
0.37224
0.376217
0.37844
0.380218
0.379844
0.378767
0.379116
0.381017
0.385069
0.3888
0.390601
0.390892
0.391902
0.394006
0.397076
0.399945
0.402657
0.404781
0.405595
0.407004
0.409262
0.412478
0.416203
0.418804
0.420407
0.422641
0.424339
0.425685
0.478094
0.839759
0.358737
0.358957
0.359091
0.359212
0.35936
0.359571
0.359972
0.36046
0.360746
0.360859
0.360941
0.361078
0.361335
0.361566
0.361705
0.361858
0.362008
0.362151
0.362338
0.362563
0.362794
0.362975
0.363036
0.36303
0.362995
0.362919
0.362825
0.362776
0.362753
0.362677
0.362614
0.362598
0.362542
0.362452
0.362386
0.362335
0.362272
0.362079
0.361857
0.361835
0.361782
0.361632
0.36118
0.360628
0.360449
0.360328
0.360076
0.360044
0.360417
0.361235
0.362337
0.36363
0.365094
0.366785
0.368607
0.370232
0.371709
0.373065
0.374311
0.374803
0.374985
0.375031
0.374607
0.374504
0.374912
0.375612
0.377214
0.379891
0.383094
0.38601
0.38797
0.389814
0.38954
0.388748
0.388989
0.390768
0.393713
0.397003
0.400283
0.401381
0.401966
0.403352
0.405424
0.408254
0.410405
0.412329
0.413925
0.415976
0.418797
0.421704
0.423109
0.424723
0.426219
0.428671
0.431566
0.433262
0.435362
0.438597
0.439478
0.524069
0.365653
0.36565
0.365647
0.365658
0.365666
0.365664
0.365664
0.365625
0.365538
0.365519
0.365562
0.365637
0.365634
0.365659
0.365654
0.365667
0.365719
0.365683
0.365666
0.365801
0.365874
0.365767
0.365712
0.365708
0.365756
0.365686
0.365238
0.365069
0.365029
0.364607
0.364113
0.364008
0.363686
0.363466
0.363561
0.363825
0.364136
0.364484
0.365024
0.365766
0.3667
0.367751
0.368916
0.370194
0.371545
0.372944
0.374409
0.37613
0.377861
0.379603
0.381313
0.382803
0.384098
0.38528
0.386109
0.386263
0.386556
0.386658
0.386538
0.38617
0.385975
0.386282
0.38714
0.388394
0.390248
0.39275
0.395378
0.397766
0.399894
0.400532
0.400359
0.400673
0.401286
0.402369
0.404661
0.407528
0.410549
0.413054
0.413744
0.414659
0.416246
0.417611
0.41953
0.421547
0.42368
0.426297
0.428198
0.429427
0.43064
0.43229
0.434808
0.437647
0.43918
0.441027
0.443179
0.445124
0.447379
0.448813
0.450494
0.454505
0.374475
0.374602
0.374738
0.374828
0.374998
0.375181
0.375265
0.375376
0.375588
0.375772
0.375912
0.376127
0.376464
0.376941
0.377487
0.377982
0.378356
0.378606
0.378996
0.379526
0.37996
0.380489
0.381156
0.38185
0.38248
0.383044
0.383679
0.384408
0.384999
0.38554
0.386263
0.387061
0.387784
0.388621
0.389469
0.390157
0.390905
0.391937
0.393014
0.393757
0.394386
0.395197
0.396055
0.396725
0.397371
0.397903
0.398158
0.398421
0.398511
0.398519
0.398436
0.398426
0.398466
0.398521
0.398442
0.39797
0.398056
0.398455
0.398927
0.399904
0.401494
0.403489
0.405859
0.408536
0.410741
0.412567
0.413584
0.414422
0.415461
0.415695
0.415859
0.41654
0.41831
0.421236
0.423701
0.425236
0.426564
0.427251
0.427777
0.42891
0.430561
0.432722
0.435042
0.436795
0.438544
0.440191
0.441985
0.442983
0.444191
0.445674
0.448524
0.451153
0.4529
0.453784
0.454805
0.45691
0.458712
0.460368
0.462133
0.466825
0.400871
0.401058
0.40134
0.401563
0.401623
0.401708
0.401801
0.401848
0.401954
0.401981
0.402008
0.402193
0.402558
0.402937
0.403181
0.403373
0.403452
0.403492
0.403634
0.403919
0.404209
0.404692
0.405013
0.405145
0.405289
0.40556
0.405933
0.406342
0.4067
0.406928
0.407329
0.407559
0.407652
0.407767
0.407753
0.407709
0.40778
0.408064
0.408125
0.407862
0.407639
0.407801
0.407934
0.407798
0.407855
0.408049
0.407947
0.407971
0.408193
0.408146
0.408327
0.409157
0.410483
0.412063
0.413735
0.415666
0.4177
0.419858
0.422302
0.424541
0.426419
0.428184
0.429623
0.430814
0.431342
0.431185
0.430835
0.43092
0.431716
0.432721
0.434078
0.43537
0.437075
0.43903
0.440489
0.442038
0.442704
0.443364
0.444657
0.446162
0.447696
0.449488
0.450972
0.452988
0.454469
0.454593
0.45532
0.457035
0.459548
0.461923
0.462837
0.463151
0.464342
0.466001
0.46799
0.469511
0.470754
0.472435
0.474134
0.478641
0.422628
0.422736
0.422799
0.422886
0.423009
0.423032
0.422954
0.422843
0.422849
0.422974
0.423436
0.424012
0.424248
0.423984
0.423793
0.423811
0.423895
0.423928
0.424022
0.424315
0.424527
0.4245
0.42447
0.424479
0.424485
0.424484
0.424575
0.424735
0.424719
0.424778
0.424984
0.425443
0.425943
0.426368
0.426799
0.427335
0.428121
0.429085
0.430098
0.431132
0.432166
0.433147
0.434119
0.43514
0.436146
0.437138
0.438014
0.438905
0.440027
0.441389
0.442757
0.443842
0.444839
0.445937
0.446978
0.447708
0.448169
0.448559
0.448631
0.448385
0.448019
0.448011
0.448088
0.448062
0.447751
0.4475
0.447655
0.448465
0.450029
0.452239
0.45441
0.456076
0.457593
0.458308
0.458873
0.459367
0.460136
0.460972
0.461805
0.463135
0.464636
0.466021
0.467308
0.468094
0.469164
0.470395
0.471457
0.472897
0.474338
0.476038
0.477032
0.478354
0.479593
0.48109
0.482486
0.483927
0.485673
0.486726
0.487713
0.491383
0.450198
0.450391
0.450481
0.450344
0.450254
0.45024
0.45039
0.451244
0.451816
0.451937
0.452106
0.452343
0.452358
0.452235
0.452212
0.452483
0.453157
0.453363
0.453482
0.453689
0.453921
0.454113
0.454381
0.455016
0.455347
0.455482
0.455693
0.45614
0.456657
0.457241
0.457888
0.45827
0.458518
0.458906
0.459237
0.459352
0.459545
0.459756
0.45977
0.459836
0.460039
0.460304
0.460546
0.460836
0.461218
0.461582
0.461857
0.462173
0.462452
0.462419
0.462093
0.461342
0.460976
0.460969
0.460951
0.460421
0.46019
0.460289
0.460165
0.459777
0.459963
0.460555
0.461709
0.46336
0.46544
0.467746
0.470047
0.472104
0.473699
0.475165
0.475676
0.476508
0.476465
0.476418
0.476213
0.476314
0.476987
0.478269
0.480032
0.481674
0.483007
0.484331
0.485661
0.485926
0.48624
0.487231
0.488628
0.490157
0.491095
0.491791
0.49315
0.494262
0.494685
0.495481
0.496483
0.497609
0.498355
0.499543
0.500856
0.50459
0.478226
0.477941
0.477428
0.477341
0.477402
0.477738
0.478237
0.478467
0.478318
0.478066
0.478079
0.478065
0.47785
0.477783
0.477905
0.477904
0.477961
0.478376
0.478574
0.478556
0.478336
0.478193
0.478219
0.478413
0.478501
0.478505
0.478576
0.478868
0.479111
0.479254
0.47942
0.47948
0.479433
0.479459
0.47957
0.479529
0.479749
0.479888
0.479764
0.479879
0.480158
0.48014
0.479848
0.47956
0.479553
0.479671
0.47992
0.480265
0.480813
0.481513
0.482241
0.483085
0.48414
0.485347
0.486441
0.487423
0.488428
0.48961
0.490934
0.492564
0.494216
0.495555
0.496605
0.497345
0.497903
0.497877
0.497823
0.497736
0.497609
0.49701
0.496175
0.495799
0.495698
0.496013
0.496882
0.498309
0.500053
0.501517
0.503138
0.503611
0.504154
0.50405
0.503844
0.504147
0.504708
0.505436
0.506662
0.507733
0.508674
0.509174
0.509251
0.509529
0.510649
0.511785
0.513285
0.513364
0.513648
0.514252
0.51516
0.518296
0.507664
0.507573
0.507601
0.508096
0.508391
0.508435
0.508524
0.50862
0.5086
0.508503
0.508517
0.508834
0.509197
0.509214
0.50918
0.509248
0.509318
0.509371
0.50958
0.509747
0.509731
0.509644
0.509636
0.509623
0.509622
0.509782
0.509946
0.509884
0.509811
0.509965
0.510361
0.510499
0.510532
0.51064
0.510963
0.511681
0.512657
0.512849
0.512858
0.51305
0.513462
0.513878
0.514318
0.514754
0.515112
0.515382
0.515625
0.51604
0.516689
0.516958
0.516877
0.516818
0.516946
0.517308
0.517683
0.517732
0.517716
0.51773
0.517535
0.517176
0.516626
0.516099
0.515589
0.515052
0.514378
0.513091
0.51218
0.51193
0.512106
0.512625
0.513782
0.515315
0.517128
0.518935
0.520611
0.521759
0.522567
0.522596
0.522152