/*--------------------------------*- C++ -*----------------------------------*\
  =========                 |
  \\      /  F ield         | OpenFOAM: The Open Source CFD Toolbox
   \\    /   O peration     | Website:  https://openfoam.org
    \\  /    A nd           | Version:  7
     \\/     M anipulation  |
\*---------------------------------------------------------------------------*/
FoamFile
{
    version     2.0;
    format      ascii;
    class       volScalarField;
    location    "11";
    object      T;
}
// * * * * * * * * * * * * * * * * * * * * * * * * * * * * * * * * * * * * * //

dimensions      [0 0 0 1 0 0 0];

internalField   nonuniform List<scalar> 
90000
(
0.854917
0.876264
0.896597
0.914687
0.930506
0.944532
0.956967
0.967859
0.977556
0.985823
0.993256
0.999324
1.00481
1.00899
1.01276
1.01549
1.01796
1.01959
1.02099
1.02192
1.02261
1.02309
1.02342
1.02326
1.02266
1.02127
1.01923
1.01744
1.01577
1.01588
1.01627
1.01685
1.0175
1.01816
1.01863
1.0191
1.01908
1.01879
1.01812
1.01745
1.01698
1.0167
1.01681
1.01713
1.01755
1.01806
1.01802
1.01776
1.01723
1.01686
1.01667
1.01671
1.01694
1.01725
1.01718
1.01691
1.01663
1.01637
1.01644
1.01663
1.0166
1.01648
1.01626
1.01605
1.01607
1.01607
1.01601
1.01589
1.01576
1.01577
1.01576
1.0157
1.01559
1.0155
1.01542
1.01535
1.01536
1.01533
1.01526
1.01515
1.01501
1.01491
1.01482
1.01483
1.01485
1.01488
1.01487
1.01482
1.01473
1.01465
1.01454
1.01445
1.01438
1.01431
1.01424
1.01413
1.01397
1.01374
1.01345
1.01268
0.835594
0.835841
0.836541
0.838051
0.840579
0.844617
0.850159
0.857759
0.866917
0.878117
0.890325
0.903935
0.917668
0.931787
0.945256
0.957909
0.969357
0.979201
0.987939
0.994602
1.00044
1.00414
1.00744
1.00922
1.01084
1.01178
1.01306
1.01457
1.01671
1.01787
1.0187
1.01959
1.0203
1.02084
1.02071
1.02041
1.01958
1.01848
1.01763
1.01717
1.01723
1.01743
1.01784
1.01838
1.01855
1.01832
1.01785
1.01723
1.01669
1.01665
1.0168
1.01722
1.01753
1.01738
1.017
1.01662
1.01642
1.01644
1.01657
1.01666
1.01659
1.01633
1.01617
1.01609
1.01612
1.01609
1.01599
1.01588
1.01581
1.01582
1.01579
1.01572
1.01561
1.01551
1.01545
1.0154
1.01539
1.01535
1.01529
1.01514
1.015
1.01491
1.01485
1.01485
1.01488
1.0149
1.01488
1.01483
1.01475
1.01465
1.01454
1.01445
1.01438
1.01432
1.01425
1.01414
1.01398
1.01375
1.01348
1.01271
0.835137
0.835115
0.835087
0.835059
0.835022
0.835024
0.835064
0.835196
0.835484
0.836064
0.837063
0.838804
0.84146
0.84564
0.851367
0.859477
0.869385
0.881864
0.895539
0.910853
0.926208
0.941553
0.956034
0.969115
0.981242
0.991311
1.0001
1.00605
1.01069
1.0133
1.01505
1.01587
1.01643
1.01681
1.01677
1.01603
1.0147
1.01494
1.01561
1.01611
1.01687
1.01768
1.0178
1.01753
1.01712
1.01619
1.0156
1.01522
1.01535
1.01593
1.01667
1.01687
1.01668
1.01612
1.01571
1.01549
1.01564
1.01605
1.01627
1.01613
1.01581
1.0155
1.01552
1.0157
1.01576
1.01564
1.01547
1.01543
1.01551
1.01552
1.01543
1.01532
1.01524
1.01518
1.01517
1.01516
1.01515
1.0151
1.01499
1.01484
1.01473
1.01466
1.01466
1.01468
1.01471
1.01471
1.01469
1.01464
1.01456
1.01446
1.01436
1.01428
1.01423
1.01417
1.01411
1.014
1.01385
1.01364
1.01337
1.01261
0.834426
0.834397
0.834365
0.834329
0.834292
0.834256
0.834212
0.83417
0.834126
0.83408
0.834032
0.833991
0.833955
0.833974
0.834076
0.834344
0.834884
0.835955
0.837778
0.841006
0.845851
0.853482
0.86345
0.877022
0.892439
0.91048
0.928761
0.946271
0.962393
0.975189
0.986563
0.993434
0.999283
1.00203
1.00449
1.00611
1.0087
1.01146
1.01418
1.01615
1.01717
1.01689
1.0165
1.01546
1.01367
1.0127
1.01273
1.0132
1.01423
1.01515
1.01537
1.01498
1.01423
1.01355
1.01354
1.01401
1.01455
1.01486
1.01471
1.01428
1.01389
1.01401
1.01436
1.01457
1.01443
1.01419
1.0142
1.01434
1.01447
1.0144
1.01426
1.01422
1.01424
1.01425
1.01425
1.01426
1.01425
1.01421
1.0141
1.01399
1.01394
1.01394
1.01395
1.01398
1.01403
1.01404
1.01403
1.01401
1.01396
1.01387
1.01379
1.01374
1.01372
1.01368
1.01363
1.01353
1.01341
1.01323
1.01297
1.01224
0.833541
0.833516
0.833488
0.833459
0.833429
0.833397
0.833364
0.833327
0.833286
0.833245
0.833203
0.833161
0.83312
0.833085
0.833038
0.832987
0.832935
0.832889
0.832838
0.832843
0.8329
0.833127
0.833653
0.834831
0.836983
0.841148
0.847655
0.858368
0.872218
0.890661
0.910536
0.931543
0.951245
0.967883
0.98246
0.992828
1.00127
1.00527
1.00794
1.00982
1.01121
1.01197
1.01136
1.00986
1.01011
1.01058
1.01181
1.01278
1.01325
1.01297
1.01224
1.01167
1.01114
1.0113
1.01204
1.01279
1.01277
1.01259
1.01219
1.01185
1.01205
1.01246
1.01267
1.01258
1.01238
1.01238
1.01253
1.01271
1.01272
1.01264
1.01262
1.01264
1.01267
1.01269
1.01273
1.01281
1.01284
1.0128
1.01269
1.01263
1.01264
1.01266
1.01272
1.01282
1.0129
1.01292
1.01294
1.01293
1.01288
1.01282
1.01279
1.01278
1.01278
1.01277
1.01274
1.01268
1.01259
1.01244
1.01223
1.01155
0.832724
0.832705
0.832685
0.832663
0.832641
0.832618
0.832595
0.832572
0.832547
0.832521
0.832494
0.832466
0.832438
0.832408
0.832376
0.832341
0.832307
0.832274
0.832243
0.832214
0.8322
0.832164
0.832125
0.832083
0.832076
0.832114
0.832256
0.832736
0.833838
0.836404
0.841072
0.850039
0.862953
0.882015
0.903431
0.92701
0.94912
0.966487
0.981111
0.989317
0.996321
0.999883
1.00244
1.00494
1.00856
1.01148
1.01334
1.01307
1.01251
1.01107
1.00865
1.00874
1.0092
1.01026
1.01135
1.0115
1.01114
1.01037
1.00994
1.01017
1.01069
1.01113
1.01103
1.01073
1.01059
1.01074
1.01102
1.01116
1.01109
1.01097
1.011
1.01103
1.01108
1.01114
1.01123
1.01134
1.01132
1.01124
1.01115
1.01117
1.01122
1.01129
1.01139
1.01149
1.01157
1.0116
1.01163
1.01163
1.0116
1.01158
1.01159
1.01161
1.01164
1.01166
1.01165
1.01161
1.01155
1.01144
1.01126
1.01062
0.832129
0.832117
0.832105
0.832092
0.832078
0.832064
0.83205
0.832036
0.832021
0.832007
0.831991
0.831976
0.83196
0.831944
0.831928
0.831911
0.831894
0.831877
0.831858
0.83184
0.831819
0.8318
0.831782
0.831766
0.831752
0.831742
0.831746
0.831728
0.831705
0.831717
0.831786
0.832072
0.832849
0.83496
0.839226
0.848254
0.862031
0.883178
0.907061
0.932505
0.955822
0.974201
0.990028
0.999738
1.00533
1.00789
1.00962
1.01018
1.00895
1.00696
1.00742
1.00849
1.00986
1.01072
1.01043
1.00972
1.00887
1.00876
1.009
1.00976
1.0101
1.00996
1.00967
1.00945
1.00961
1.00995
1.01007
1.00996
1.00984
1.00988
1.00996
1.00996
1.00996
1.01002
1.01014
1.01022
1.01019
1.0101
1.01004
1.01006
1.01012
1.0102
1.01031
1.01041
1.01048
1.01051
1.01055
1.01054
1.01053
1.01051
1.01053
1.01057
1.01061
1.01063
1.01063
1.0106
1.01057
1.01048
1.01032
1.00973
0.831768
0.831761
0.831755
0.831748
0.831741
0.831734
0.831726
0.831719
0.831711
0.831704
0.831696
0.831688
0.83168
0.831672
0.831664
0.831656
0.831648
0.83164
0.831631
0.831623
0.831615
0.831606
0.831598
0.83159
0.831581
0.831573
0.831563
0.83156
0.831557
0.831557
0.831564
0.831553
0.831543
0.831555
0.83162
0.831906
0.832743
0.835206
0.840456
0.851941
0.869187
0.894348
0.921969
0.948264
0.970952
0.983956
0.994532
0.998758
1.00191
1.00499
1.00892
1.01166
1.01197
1.01151
1.00986
1.00747
1.00759
1.00821
1.00927
1.01011
1.0099
1.00926
1.00865
1.00882
1.00935
1.0098
1.00968
1.00932
1.0092
1.00934
1.00945
1.00947
1.00947
1.00955
1.00964
1.00964
1.00955
1.00946
1.00947
1.00948
1.00953
1.00961
1.00972
1.00979
1.00982
1.00984
1.00984
1.00983
1.00979
1.0098
1.00983
1.00987
1.0099
1.00992
1.00991
1.00989
1.00986
1.00979
1.00964
1.00906
0.831576
0.831573
0.83157
0.831566
0.831563
0.831559
0.831556
0.831552
0.831549
0.831545
0.831541
0.831538
0.831534
0.83153
0.831527
0.831523
0.83152
0.831516
0.831513
0.831509
0.831506
0.831503
0.831499
0.831496
0.831493
0.83149
0.831486
0.831484
0.831481
0.831478
0.831475
0.831476
0.831478
0.83148
0.831486
0.831477
0.831477
0.831498
0.83161
0.832081
0.833448
0.837555
0.845996
0.863498
0.887613
0.917905
0.947098
0.970598
0.990555
1.00155
1.00718
1.00938
1.01035
1.00896
1.00656
1.00704
1.00838
1.00967
1.0101
1.00986
1.00888
1.00825
1.00839
1.00918
1.00965
1.00957
1.00914
1.00897
1.00909
1.00927
1.00928
1.00927
1.00933
1.00947
1.00948
1.00943
1.00928
1.00922
1.00924
1.00926
1.00931
1.0094
1.00949
1.00952
1.00954
1.00955
1.00954
1.00951
1.00947
1.00947
1.00948
1.00951
1.00954
1.00954
1.00952
1.0095
1.00947
1.00939
1.00924
1.00867
0.831477
0.831476
0.831474
0.831472
0.831471
0.831469
0.831467
0.831465
0.831463
0.831462
0.83146
0.831458
0.831457
0.831455
0.831453
0.831452
0.83145
0.831449
0.831448
0.831447
0.831446
0.831445
0.831444
0.831443
0.831442
0.831441
0.83144
0.831439
0.831438
0.831436
0.831434
0.831432
0.83143
0.831429
0.831426
0.831425
0.831424
0.831423
0.831417
0.83141
0.83142
0.831489
0.831772
0.832907
0.83608
0.845111
0.861389
0.888997
0.921133
0.951329
0.976617
0.988802
0.998775
1.00149
1.00557
1.0089
1.01197
1.01179
1.01092
1.00865
1.00764
1.00807
1.00923
1.01015
1.00992
1.0091
1.00874
1.00897
1.00942
1.00941
1.0093
1.00925
1.00938
1.00953
1.00949
1.00927
1.00917
1.00919
1.00922
1.00924
1.00929
1.00936
1.00942
1.00945
1.00946
1.00946
1.00944
1.00938
1.00934
1.00934
1.00936
1.00938
1.0094
1.0094
1.00938
1.00935
1.00932
1.00924
1.00909
1.00851
0.831427
0.831426
0.831425
0.831424
0.831423
0.831422
0.831422
0.831421
0.83142
0.831419
0.831418
0.831418
0.831417
0.831417
0.831416
0.831416
0.831415
0.831415
0.831415
0.831415
0.831414
0.831414
0.831414
0.831413
0.831413
0.831412
0.831411
0.83141
0.831409
0.831407
0.831405
0.831402
0.831399
0.831395
0.831391
0.831387
0.831382
0.831378
0.831373
0.831368
0.831361
0.831355
0.831349
0.831356
0.831407
0.83169
0.832724
0.836601
0.845793
0.866789
0.896261
0.930967
0.962796
0.985165
1.00219
1.00698
1.01039
1.01022
1.00818
1.00726
1.00835
1.00992
1.01065
1.01036
1.00914
1.00851
1.00876
1.00959
1.00971
1.00953
1.00925
1.00933
1.00961
1.0096
1.00939
1.0092
1.00922
1.00928
1.0093
1.00932
1.00935
1.00942
1.00944
1.00945
1.00946
1.00945
1.00942
1.00934
1.00931
1.00932
1.00934
1.00936
1.00936
1.00934
1.00931
1.0093
1.00927
1.0092
1.00904
1.00846
0.8314
0.8314
0.8314
0.831399
0.831399
0.831399
0.831399
0.831399
0.831399
0.831399
0.831398
0.831399
0.831399
0.831399
0.831399
0.831399
0.831398
0.831398
0.831398
0.831398
0.831397
0.831397
0.831396
0.831395
0.831394
0.831392
0.83139
0.831388
0.831386
0.831382
0.831379
0.831375
0.831371
0.831366
0.83136
0.831355
0.831348
0.831343
0.831337
0.831331
0.831325
0.831319
0.831314
0.83131
0.831305
0.831306
0.831317
0.831387
0.831713
0.833264
0.838025
0.852153
0.876268
0.912362
0.949564
0.974054
0.993605
0.998253
1.00322
1.00714
1.01143
1.01242
1.01168
1.00927
1.008
1.00853
1.00969
1.01013
1.00976
1.00926
1.00932
1.00974
1.00987
1.00964
1.00925
1.00924
1.00935
1.00941
1.00941
1.00942
1.00949
1.00952
1.00951
1.0095
1.00949
1.00946
1.0094
1.00935
1.00932
1.00933
1.00935
1.00936
1.00935
1.00932
1.0093
1.00929
1.00926
1.0092
1.00905
1.00847
0.831384
0.831385
0.831385
0.831385
0.831385
0.831386
0.831386
0.831386
0.831387
0.831387
0.831387
0.831387
0.831387
0.831387
0.831387
0.831387
0.831387
0.831386
0.831385
0.831384
0.831383
0.831382
0.831381
0.831379
0.831377
0.831374
0.831371
0.831368
0.831364
0.83136
0.831356
0.83135
0.831345
0.831339
0.831333
0.831326
0.83132
0.831313
0.831307
0.831301
0.831295
0.831291
0.831287
0.831284
0.831284
0.831286
0.831292
0.831299
0.831307
0.831331
0.831441
0.832088
0.834488
0.843476
0.862672
0.897355
0.935979
0.967937
0.994077
1.00428
1.00979
1.01031
1.00851
1.00749
1.00872
1.01044
1.01069
1.01004
1.00897
1.00904
1.00973
1.01015
1.00996
1.00933
1.00922
1.00935
1.00953
1.00951
1.00948
1.00953
1.00963
1.00961
1.00957
1.00955
1.00953
1.00947
1.0094
1.00938
1.00936
1.00936
1.00937
1.00937
1.00935
1.00932
1.00931
1.0093
1.00929
1.00922
1.00908
1.00851
0.831372
0.831373
0.831373
0.831373
0.831373
0.831373
0.831373
0.831373
0.831373
0.831373
0.831373
0.831373
0.831373
0.831372
0.831372
0.831371
0.83137
0.831369
0.831368
0.831366
0.831365
0.831363
0.831361
0.831359
0.831357
0.831354
0.831351
0.831347
0.831343
0.831339
0.831334
0.831329
0.831323
0.831317
0.831311
0.831304
0.831299
0.831293
0.831287
0.831282
0.831279
0.831275
0.831273
0.831273
0.831274
0.831277
0.831282
0.831289
0.831296
0.831304
0.83131
0.83132
0.831359
0.831633
0.832918
0.838866
0.853721
0.886411
0.926401
0.96049
0.987357
0.99578
1.0019
1.00657
1.01191
1.01266
1.01148
1.00848
1.00855
1.00939
1.01048
1.01027
1.00944
1.00897
1.00921
1.00964
1.00962
1.00952
1.00954
1.00968
1.00971
1.00965
1.0096
1.00958
1.00954
1.00947
1.00941
1.0094
1.00939
1.00939
1.00939
1.00938
1.00935
1.00933
1.00933
1.00933
1.00932
1.00926
1.00911
1.00855
0.831356
0.831356
0.831356
0.831356
0.831355
0.831355
0.831354
0.831354
0.831353
0.831352
0.831352
0.831352
0.831351
0.83135
0.831349
0.831348
0.831347
0.831346
0.831345
0.831343
0.831342
0.83134
0.831338
0.831335
0.831333
0.83133
0.831327
0.831323
0.83132
0.831317
0.831313
0.831309
0.831305
0.8313
0.831295
0.831291
0.831287
0.831283
0.831279
0.831276
0.831274
0.831271
0.831271
0.831272
0.831274
0.831276
0.831278
0.831282
0.831285
0.83129
0.831294
0.831299
0.831302
0.831301
0.831312
0.831446
0.832205
0.83642
0.848646
0.878802
0.918768
0.95723
0.989161
1.00279
1.00954
1.0104
1.00761
1.00765
1.00937
1.011
1.01062
1.00939
1.0087
1.00892
1.00972
1.00976
1.00953
1.00946
1.00964
1.00977
1.00971
1.0096
1.00959
1.00958
1.00952
1.00943
1.0094
1.00941
1.00941
1.00941
1.00939
1.00937
1.00934
1.00934
1.00934
1.00935
1.00935
1.00929
1.00914
1.00859
0.831339
0.831338
0.831338
0.831337
0.831336
0.831335
0.831334
0.831333
0.831332
0.831331
0.83133
0.831329
0.831327
0.831326
0.831324
0.831322
0.83132
0.831318
0.831316
0.831313
0.831311
0.831309
0.831306
0.831304
0.831303
0.831301
0.831299
0.831298
0.831297
0.831295
0.831293
0.831291
0.831289
0.831288
0.831287
0.831287
0.831285
0.831285
0.831284
0.831284
0.831282
0.83128
0.831281
0.831282
0.831281
0.83128
0.831279
0.831278
0.831278
0.831279
0.831278
0.831278
0.831281
0.831283
0.831284
0.831281
0.831287
0.831366
0.831886
0.835127
0.845715
0.874743
0.916098
0.955327
0.984817
0.995819
1.00193
1.00784
1.01288
1.01238
1.01046
1.00798
1.00836
1.00964
1.01011
1.00968
1.00924
1.00943
1.00982
1.00979
1.0096
1.00955
1.0096
1.00957
1.00945
1.00938
1.00938
1.0094
1.00941
1.0094
1.00938
1.00934
1.00932
1.00933
1.00934
1.00936
1.00936
1.0093
1.00916
1.00863
0.831322
0.831321
0.83132
0.831319
0.831318
0.831316
0.831315
0.831313
0.831312
0.83131
0.831308
0.831305
0.831303
0.831301
0.831298
0.831295
0.831293
0.831291
0.831288
0.831286
0.831284
0.831282
0.83128
0.831279
0.831278
0.831277
0.831277
0.831277
0.831277
0.831277
0.831278
0.831279
0.831281
0.831284
0.831287
0.83129
0.831293
0.831296
0.831299
0.831299
0.831299
0.831298
0.831298
0.831295
0.831292
0.831286
0.83128
0.831275
0.831271
0.831266
0.831263
0.831261
0.831262
0.831265
0.831272
0.831278
0.831288
0.831287
0.831288
0.831338
0.831739
0.834557
0.844741
0.873566
0.914943
0.957181
0.990156
1.00491
1.01021
1.0096
1.00673
1.00779
1.0099
1.01058
1.00986
1.00884
1.00899
1.0098
1.00988
1.00965
1.00947
1.00955
1.00961
1.00952
1.00935
1.00934
1.00937
1.00938
1.00938
1.00938
1.00934
1.0093
1.00929
1.0093
1.00933
1.00937
1.00935
1.00929
1.00917
1.00866
0.831305
0.831303
0.831301
0.831298
0.831297
0.831295
0.831293
0.831291
0.83129
0.831288
0.831286
0.831284
0.831282
0.83128
0.831277
0.831275
0.831273
0.831271
0.831269
0.831267
0.831265
0.831264
0.831263
0.831263
0.831263
0.831263
0.831263
0.831264
0.831265
0.831267
0.831271
0.831275
0.831279
0.831284
0.831289
0.831294
0.831299
0.831304
0.831308
0.83131
0.83131
0.83131
0.831308
0.831304
0.831298
0.83129
0.831281
0.831272
0.831263
0.831255
0.831251
0.831249
0.831249
0.831253
0.831263
0.831278
0.831293
0.831302
0.831304
0.831299
0.831285
0.831317
0.831683
0.83439
0.844983
0.874638
0.91945
0.961116
0.98726
0.998134
1.00349
1.01018
1.01293
1.01158
1.00837
1.00852
1.00959
1.01028
1.00984
1.00928
1.0094
1.00967
1.00962
1.00935
1.00929
1.00934
1.00937
1.00936
1.00936
1.00935
1.00929
1.00925
1.00926
1.00928
1.00932
1.00936
1.00934
1.00928
1.00917
1.00867
0.831287
0.831286
0.831284
0.831282
0.83128
0.831278
0.831277
0.831275
0.831273
0.831271
0.83127
0.831268
0.831267
0.831265
0.831263
0.831262
0.831261
0.83126
0.831259
0.831258
0.831257
0.831256
0.831255
0.831255
0.831256
0.831257
0.831258
0.83126
0.831263
0.831267
0.83127
0.831275
0.83128
0.831285
0.83129
0.831294
0.831299
0.831304
0.831308
0.83131
0.831312
0.831311
0.831309
0.831306
0.8313
0.831292
0.831283
0.831273
0.831262
0.831251
0.831245
0.831244
0.831245
0.83125
0.831262
0.831279
0.831296
0.83131
0.831312
0.831308
0.831298
0.831272
0.831242
0.831274
0.831687
0.834609
0.846993
0.879137
0.924333
0.969624
0.99632
1.00804
1.01057
1.0075
1.00775
1.00972
1.0109
1.01024
1.00898
1.00904
1.0097
1.00976
1.00946
1.00923
1.00931
1.00939
1.00936
1.00935
1.00935
1.00932
1.00925
1.00923
1.00924
1.00927
1.00932
1.00935
1.00934
1.00928
1.00917
1.0087
0.831275
0.831274
0.831273
0.831272
0.831271
0.83127
0.831269
0.831268
0.831267
0.831266
0.831265
0.831264
0.831263
0.831262
0.831262
0.831261
0.831261
0.83126
0.83126
0.83126
0.83126
0.831259
0.831259
0.83126
0.831261
0.831262
0.831263
0.831265
0.831267
0.831269
0.831271
0.831274
0.831277
0.831281
0.831285
0.83129
0.831294
0.831299
0.831302
0.831305
0.831308
0.831309
0.831307
0.831303
0.831299
0.831294
0.831288
0.83128
0.83127
0.831257
0.831248
0.831246
0.831248
0.831255
0.831266
0.831281
0.831296
0.831311
0.831314
0.831309
0.831296
0.831275
0.831247
0.831217
0.831214
0.831262
0.831819
0.835311
0.850696
0.886587
0.935796
0.975744
0.993315
1.00109
1.0084
1.01291
1.01201
1.00886
1.00852
1.00933
1.01015
1.00974
1.00914
1.00923
1.00946
1.00944
1.00936
1.00935
1.00934
1.00927
1.0092
1.00921
1.00924
1.00928
1.00932
1.00935
1.00934
1.00928
1.00918
1.00872
0.831278
0.831278
0.831278
0.831279
0.831279
0.831279
0.83128
0.83128
0.83128
0.831281
0.831281
0.831281
0.831282
0.831282
0.831282
0.831282
0.831283
0.831283
0.831283
0.831283
0.831282
0.831282
0.831281
0.831279
0.831278
0.831276
0.831274
0.831272
0.831269
0.831268
0.831268
0.831269
0.831269
0.831269
0.83127
0.831272
0.831274
0.831276
0.831279
0.831283
0.831287
0.831291
0.831295
0.831295
0.831294
0.831296
0.831296
0.831295
0.831291
0.831283
0.831273
0.831268
0.831268
0.831271
0.831275
0.831281
0.831288
0.831298
0.831306
0.831302
0.831291
0.831274
0.831253
0.831226
0.831213
0.831213
0.83122
0.831307
0.832131
0.836831
0.857461
0.897738
0.946928
0.987395
1.00503
1.01056
1.00841
1.00733
1.00923
1.01075
1.0103
1.00888
1.00891
1.00948
1.00957
1.00942
1.00931
1.00937
1.00933
1.00923
1.0092
1.00923
1.00926
1.0093
1.00934
1.00936
1.00934
1.00929
1.00921
1.00876
0.8313
0.831302
0.831303
0.831305
0.831307
0.831308
0.831309
0.831311
0.831312
0.831313
0.831314
0.831315
0.831316
0.831316
0.831316
0.831316
0.831316
0.831315
0.831314
0.831312
0.83131
0.831307
0.831304
0.8313
0.831296
0.83129
0.831284
0.831278
0.831272
0.831267
0.831262
0.831257
0.831252
0.831247
0.831244
0.831242
0.831241
0.831242
0.831244
0.831249
0.831254
0.831262
0.83127
0.83128
0.83129
0.8313
0.831311
0.831318
0.83132
0.83132
0.831315
0.831305
0.831296
0.831289
0.831282
0.831275
0.831271
0.831271
0.831275
0.831277
0.831274
0.831269
0.831262
0.831249
0.831237
0.831234
0.831235
0.831241
0.831262
0.831397
0.832699
0.839856
0.866235
0.9145
0.960229
0.989895
0.999158
1.00648
1.01272
1.01201
1.00913
1.00829
1.00906
1.00989
1.00959
1.00926
1.00935
1.00944
1.00931
1.0092
1.00922
1.00928
1.0093
1.00932
1.00937
1.00937
1.00935
1.00931
1.00924
1.00881
0.831314
0.831316
0.831317
0.831319
0.831321
0.831322
0.831324
0.831325
0.831327
0.831328
0.831329
0.83133
0.831331
0.831331
0.831331
0.83133
0.83133
0.831328
0.831326
0.831324
0.831321
0.831317
0.831313
0.831309
0.831303
0.831297
0.83129
0.831281
0.831273
0.831264
0.831255
0.831247
0.83124
0.831233
0.831228
0.831224
0.831223
0.831223
0.831225
0.831229
0.831235
0.831244
0.831255
0.83127
0.831287
0.831304
0.831321
0.831336
0.83134
0.83134
0.831338
0.831328
0.831313
0.831297
0.831283
0.831267
0.831254
0.831251
0.831249
0.83125
0.831256
0.831264
0.83127
0.83127
0.831266
0.831257
0.831251
0.831247
0.83125
0.831258
0.831281
0.831519
0.833733
0.845521
0.880008
0.930554
0.977809
1.00223
1.0101
1.00896
1.00722
1.00907
1.0105
1.01001
1.00905
1.00912
1.00955
1.00947
1.00919
1.0092
1.0093
1.00932
1.00933
1.00938
1.00942
1.0094
1.00938
1.00935
1.00928
1.00886
0.831314
0.831316
0.831317
0.831318
0.83132
0.831321
0.831322
0.831324
0.831325
0.831326
0.831326
0.831327
0.831328
0.831329
0.831328
0.831327
0.831326
0.831324
0.831322
0.83132
0.831317
0.831314
0.831311
0.831306
0.8313
0.831294
0.831288
0.831282
0.831274
0.831265
0.831256
0.831246
0.831237
0.83123
0.831225
0.831222
0.83122
0.831221
0.831224
0.831228
0.831233
0.831242
0.831254
0.831269
0.831286
0.831304
0.831325
0.831341
0.831345
0.831345
0.831341
0.831331
0.831314
0.831297
0.831279
0.831262
0.831249
0.831243
0.831242
0.831242
0.831247
0.831262
0.831277
0.83128
0.831279
0.831271
0.831256
0.831243
0.831239
0.831241
0.831246
0.831257
0.831308
0.831855
0.835938
0.854627
0.899679
0.95091
0.985434
0.998251
1.00538
1.01248
1.01182
1.00901
1.00879
1.00946
1.0098
1.00926
1.00912
1.0093
1.00941
1.00936
1.00938
1.00944
1.00945
1.00943
1.00941
1.00939
1.00931
1.00889
0.831295
0.831295
0.831295
0.831296
0.831296
0.831296
0.831297
0.831297
0.831297
0.831297
0.831297
0.831297
0.831296
0.831295
0.831295
0.831295
0.831296
0.831295
0.831294
0.831294
0.831293
0.831292
0.83129
0.831289
0.831288
0.831286
0.831282
0.831279
0.831275
0.831272
0.831267
0.831261
0.831255
0.83125
0.831246
0.831242
0.831242
0.831245
0.831248
0.831251
0.831254
0.831259
0.831264
0.831272
0.831282
0.831295
0.831309
0.831322
0.83133
0.83133
0.831327
0.831319
0.831305
0.831288
0.831272
0.831261
0.831252
0.831245
0.831244
0.831244
0.831251
0.831264
0.831277
0.831282
0.831281
0.831274
0.831255
0.831234
0.831228
0.831231
0.831241
0.831262
0.831297
0.831327
0.831447
0.832627
0.840689
0.87001
0.920172
0.972758
0.999348
1.01006
1.00899
1.00771
1.00954
1.0105
1.00975
1.00887
1.00914
1.00957
1.00944
1.00935
1.00943
1.00949
1.00946
1.00944
1.00944
1.00942
1.00933
1.00891
0.831238
0.831237
0.831236
0.831236
0.831237
0.831237
0.831237
0.831237
0.831237
0.831238
0.831238
0.831239
0.83124
0.831241
0.831243
0.831245
0.831247
0.83125
0.831253
0.831255
0.831258
0.831261
0.831264
0.831267
0.83127
0.831274
0.831278
0.831283
0.831288
0.831293
0.831296
0.831299
0.831301
0.831302
0.831301
0.831297
0.831297
0.831299
0.831298
0.831295
0.831291
0.831286
0.831279
0.831275
0.831272
0.83127
0.83127
0.831273
0.831277
0.83128
0.831282
0.831282
0.831278
0.83127
0.831269
0.831271
0.831269
0.831264
0.831265
0.831263
0.83126
0.831264
0.831271
0.83127
0.831266
0.83126
0.831243
0.831224
0.831221
0.831226
0.831248
0.831286
0.831335
0.831362
0.83136
0.83137
0.83164
0.834304
0.84978
0.891742
0.944637
0.985877
0.997229
1.00594
1.01268
1.01154
1.00855
1.00872
1.0098
1.00978
1.00942
1.00937
1.00953
1.00953
1.00946
1.00944
1.00946
1.00943
1.00934
1.00893
0.831199
0.831199
0.831198
0.831198
0.831197
0.831197
0.831197
0.831198
0.831198
0.831199
0.8312
0.831203
0.831205
0.831208
0.831211
0.831214
0.831218
0.831223
0.831228
0.831232
0.831237
0.831243
0.831251
0.83126
0.83127
0.831279
0.831288
0.831296
0.831305
0.831313
0.831321
0.831328
0.831334
0.831335
0.831335
0.831334
0.831331
0.831327
0.831321
0.831314
0.831305
0.831294
0.831283
0.831271
0.83126
0.831247
0.831238
0.831237
0.831238
0.831238
0.831242
0.831245
0.831249
0.831261
0.831282
0.831292
0.831294
0.831294
0.831295
0.831288
0.831265
0.831256
0.831253
0.831247
0.831236
0.831231
0.831225
0.83122
0.831225
0.831245
0.831284
0.831326
0.831361
0.831363
0.831358
0.831329
0.831254
0.831282
0.832117
0.838487
0.866491
0.917344
0.970227
1.00048
1.00979
1.00777
1.00762
1.0098
1.01041
1.00957
1.00905
1.00936
1.00961
1.00949
1.00939
1.00945
1.00947
1.00942
1.0093
1.0089
0.831194
0.831192
0.83119
0.831188
0.831188
0.831188
0.831189
0.83119
0.83119
0.831191
0.831193
0.831195
0.831198
0.831201
0.831204
0.831208
0.831212
0.831218
0.831225
0.831233
0.831241
0.83125
0.831258
0.831265
0.831274
0.831284
0.831293
0.831303
0.831312
0.831319
0.831324
0.831332
0.831337
0.831339
0.831339
0.831336
0.831331
0.831324
0.831315
0.831305
0.831293
0.831283
0.831274
0.831261
0.831249
0.831238
0.83123
0.831227
0.831228
0.83123
0.831231
0.831229
0.831236
0.831265
0.831299
0.831307
0.831307
0.831305
0.831305
0.831296
0.831265
0.831239
0.831233
0.831223
0.831215
0.831215
0.831218
0.831233
0.831258
0.831293
0.831333
0.83135
0.831359
0.831354
0.831318
0.83125
0.831179
0.831132
0.831141
0.831368
0.83387
0.848104
0.891837
0.946619
0.984333
0.998512
1.00739
1.01215
1.01091
1.00842
1.00898
1.00986
1.00966
1.00928
1.00936
1.0095
1.00947
1.00936
1.00926
1.00889
0.831245
0.831244
0.831244
0.831244
0.831244
0.831242
0.831241
0.831241
0.831241
0.83124
0.831241
0.831243
0.831244
0.831246
0.831248
0.831251
0.831253
0.831254
0.831258
0.831259
0.831259
0.831258
0.831262
0.831266
0.831267
0.831269
0.83127
0.831272
0.831276
0.831279
0.831284
0.831289
0.831292
0.831294
0.831294
0.83129
0.831284
0.83128
0.831278
0.831271
0.831265
0.831264
0.83126
0.83125
0.831247
0.831243
0.831234
0.83123
0.831235
0.831243
0.831245
0.831244
0.831251
0.831277
0.8313
0.83131
0.831307
0.831299
0.831295
0.831282
0.83125
0.831222
0.831217
0.831209
0.831209
0.831214
0.831236
0.831269
0.831303
0.831339
0.83135
0.831353
0.831342
0.831294
0.831219
0.831158
0.831122
0.831119
0.831129
0.831167
0.83126
0.832061
0.838941
0.866964
0.919888
0.975535
1.00177
1.00991
1.00717
1.00783
1.01038
1.01019
1.00924
1.00917
1.00953
1.00957
1.00942
1.00931
1.00923
1.00889
0.831316
0.831314
0.831312
0.831311
0.831309
0.831307
0.831304
0.831302
0.8313
0.831299
0.831297
0.831295
0.831293
0.831288
0.831284
0.831282
0.831279
0.831275
0.831276
0.831273
0.831265
0.831262
0.831255
0.831243
0.831232
0.831222
0.831215
0.831213
0.831211
0.831208
0.831207
0.831208
0.83121
0.831211
0.831215
0.831221
0.831221
0.831223
0.831229
0.831236
0.831245
0.831251
0.831251
0.831251
0.831265
0.831272
0.831275
0.831284
0.831294
0.831303
0.831302
0.831281
0.831271
0.831275
0.831287
0.831289
0.831269
0.831246
0.831242
0.83124
0.831224
0.831212
0.83121
0.83122
0.831238
0.831261
0.831287
0.83131
0.831331
0.831345
0.831345
0.831325
0.831268
0.831178
0.831125
0.831102
0.831107
0.831124
0.831179
0.831262
0.831309
0.831318
0.831539
0.834049
0.850424
0.896314
0.950566
0.990542
0.999602
1.00865
1.012
1.01043
1.00866
1.00922
1.00983
1.00954
1.00933
1.00932
1.00923
1.00888
0.831328
0.831325
0.831323
0.83132
0.831316
0.831313
0.83131
0.831307
0.831304
0.831304
0.831303
0.8313
0.831297
0.831289
0.831284
0.83128
0.83127
0.831261
0.831251
0.831231
0.831221
0.831218
0.831207
0.831191
0.831185
0.831181
0.831174
0.831169
0.831167
0.831166
0.831163
0.831162
0.831165
0.831169
0.831176
0.831192
0.831201
0.831204
0.831212
0.831226
0.831244
0.831265
0.831277
0.831284
0.831294
0.831305
0.831317
0.831327
0.831329
0.83133
0.831327
0.831304
0.831273
0.831251
0.831251
0.83125
0.831214
0.831191
0.831191
0.8312
0.83121
0.831224
0.831249
0.831287
0.831323
0.831329
0.831327
0.831328
0.831336
0.83133
0.831289
0.831225
0.831147
0.831095
0.831083
0.831088
0.83112
0.831189
0.831282
0.831329
0.831323
0.831298
0.831219
0.831246
0.832211
0.840096
0.873351
0.930511
0.980325
1.00571
1.00981
1.00673
1.00879
1.01026
1.0099
1.0092
1.00927
1.00937
1.00923
1.00888
0.831267
0.831266
0.831263
0.831261
0.831257
0.831253
0.831251
0.831247
0.831243
0.83124
0.831233
0.831229
0.831224
0.831212
0.831209
0.831209
0.831205
0.831194
0.83119
0.831189
0.831187
0.831177
0.831168
0.831169
0.831169
0.831164
0.831158
0.831156
0.831159
0.83116
0.83116
0.831168
0.831174
0.831181
0.831198
0.831221
0.831237
0.831246
0.831257
0.831269
0.831281
0.831294
0.831305
0.831307
0.831305
0.831308
0.831318
0.831319
0.831315
0.831314
0.831313
0.831287
0.831238
0.831217
0.831223
0.83122
0.831187
0.831177
0.831181
0.831192
0.831239
0.831301
0.831343
0.831372
0.831373
0.831359
0.831336
0.831317
0.831288
0.831227
0.831158
0.831106
0.831068
0.831067
0.831076
0.831123
0.831204
0.831296
0.831348
0.831346
0.831317
0.831235
0.831118
0.83108
0.831108
0.831472
0.835229
0.855166
0.908533
0.964114
0.991915
1.00149
1.01174
1.01152
1.01
1.00899
1.0095
1.00944
1.00908
1.0089
0.831132
0.831135
0.831137
0.831139
0.831142
0.831144
0.831147
0.831149
0.831151
0.831155
0.831157
0.831158
0.831161
0.83116
0.831161
0.831165
0.83117
0.831169
0.831161
0.831165
0.83117
0.831171
0.831179
0.831191
0.831209
0.831227
0.83123
0.831236
0.831249
0.831255
0.831265
0.831271
0.831276
0.831288
0.831305
0.831324
0.831333
0.831332
0.831328
0.831319
0.831312
0.831308
0.831308
0.831304
0.831286
0.831274
0.831266
0.831248
0.831231
0.831226
0.831227
0.831213
0.831199
0.8312
0.831211
0.831208
0.831205
0.831223
0.831248
0.831274
0.831321
0.831383
0.831402
0.831398
0.831385
0.831358
0.831292
0.831213
0.83114
0.831087
0.831048
0.831043
0.831052
0.831085
0.831157
0.831248
0.831319
0.831357
0.831358
0.831329
0.831236
0.831119
0.831051
0.831059
0.831105
0.831193
0.83136
0.832792
0.844966
0.883975
0.944975
0.98954
1.00912
1.00904
1.00798
1.00961
1.00999
1.00908
1.00887
1.00911
0.831081
0.831082
0.831083
0.831088
0.831092
0.831098
0.831103
0.831109
0.831115
0.831122
0.831128
0.831133
0.83114
0.831151
0.831156
0.831163
0.83118
0.831185
0.831188
0.831207
0.831237
0.831267
0.831299
0.831318
0.831332
0.831344
0.831346
0.831337
0.831332
0.831338
0.831333
0.831324
0.831324
0.831332
0.831346
0.831351
0.831352
0.831352
0.831342
0.831324
0.831303
0.831283
0.831267
0.831237
0.831202
0.831194
0.831195
0.831182
0.831167
0.831165
0.831171
0.831173
0.831183
0.831212
0.831242
0.831278
0.831327
0.831379
0.831387
0.831372
0.831381
0.831406
0.831412
0.831386
0.831326
0.831237
0.831135
0.831058
0.831025
0.831009
0.831013
0.831033
0.831103
0.831211
0.831319
0.831367
0.83137
0.831366
0.831325
0.831223
0.831111
0.831043
0.831042
0.831085
0.831205
0.831314
0.83132
0.831332
0.831857
0.837612
0.866295
0.924003
0.975795
0.994895
1.00534
1.01194
1.01065
1.00836
1.00884
1.00948
0.831212
0.831222
0.831221
0.831219
0.831223
0.831232
0.831241
0.831249
0.831257
0.831265
0.831271
0.831276
0.831285
0.831301
0.831305
0.83131
0.831324
0.83134
0.831341
0.831337
0.831347
0.831372
0.831379
0.831379
0.83138
0.83138
0.831362
0.831351
0.831352
0.83133
0.831302
0.831295