/*--------------------------------*- C++ -*----------------------------------*\
  =========                 |
  \\      /  F ield         | OpenFOAM: The Open Source CFD Toolbox
   \\    /   O peration     | Website:  https://openfoam.org
    \\  /    A nd           | Version:  7
     \\/     M anipulation  |
\*---------------------------------------------------------------------------*/
FoamFile
{
    version     2.0;
    format      ascii;
    class       volScalarField;
    location    "6.5";
    object      T;
}
// * * * * * * * * * * * * * * * * * * * * * * * * * * * * * * * * * * * * * //

dimensions      [0 0 0 1 0 0 0];

internalField   nonuniform List<scalar> 
90000
(
0.621258
0.805957
0.961493
1.0374
1.08884
1.14326
1.17162
1.18905
1.20984
1.23212
1.24734
1.25575
1.27021
1.28922
1.30713
1.32442
1.34412
1.36644
1.38867
1.40761
1.42659
1.44178
1.45754
1.46962
1.47935
1.48821
1.49357
1.49692
1.49616
1.49156
1.48459
1.47465
1.46408
1.45468
1.44926
1.44098
1.43099
1.42569
1.4228
1.41448
1.40249
1.3919
1.38063
1.36992
1.36102
1.34981
1.34035
1.33216
1.32104
1.31277
1.30683
1.30015
1.29222
1.28668
1.2812
1.2751
1.2671
1.25836
1.24908
1.23911
1.23069
1.22407
1.21934
1.21646
1.21463
1.21399
1.21175
1.20937
1.20621
1.20161
1.19584
1.18965
1.18433
1.17999
1.17797
1.17662
1.17656
1.17645
1.17616
1.17572
1.1749
1.17328
1.17315
1.17441
1.17733
1.18082
1.18444
1.18787
1.19091
1.19516
1.1973
1.20008
1.20279
1.20528
1.20926
1.21399
1.21547
1.21661
1.21813
1.22245
0.405448
0.404991
0.404522
0.404047
0.403545
0.403033
0.402508
0.401983
0.401439
0.400899
0.400351
0.399873
0.399051
0.400729
0.407984
0.427564
0.460326
0.512521
0.578185
0.658847
0.746034
0.849916
0.946322
1.05377
1.15325
1.24451
1.33233
1.40721
1.47159
1.52722
1.58001
1.61727
1.64868
1.66527
1.6806
1.67917
1.675
1.66197
1.64456
1.62368
1.60511
1.58713
1.57693
1.56422
1.55464
1.54988
1.5433
1.53548
1.52601
1.51531
1.50199
1.48847
1.47462
1.46186
1.44763
1.43169
1.41569
1.39992
1.38332
1.36994
1.3576
1.34534
1.33528
1.32567
1.31435
1.30096
1.28532
1.26833
1.25286
1.2404
1.23112
1.22472
1.21924
1.21371
1.20846
1.20353
1.20011
1.19595
1.19084
1.18564
1.18162
1.17923
1.18002
1.18293
1.18562
1.18857
1.19067
1.19394
1.19593
1.19862
1.20108
1.20226
1.20469
1.20843
1.21213
1.21563
1.21628
1.21684
1.21855
1.22355
0.40038
0.399985
0.399583
0.399175
0.398746
0.398299
0.397862
0.397431
0.396988
0.396543
0.396135
0.395734
0.395345
0.394939
0.394485
0.394118
0.393676
0.393229
0.392816
0.392446
0.392111
0.391815
0.391559
0.391372
0.391226
0.391125
0.390973
0.402905
0.447234
0.546886
0.671049
0.854041
1.01071
1.17041
1.30387
1.41319
1.49742
1.56762
1.62162
1.66507
1.71129
1.7392
1.77067
1.77788
1.78285
1.77981
1.77228
1.7571
1.74267
1.72357
1.7024
1.67892
1.6536
1.62166
1.5876
1.56003
1.54561
1.54316
1.54497
1.54733
1.54322
1.53061
1.51087
1.4862
1.45787
1.43025
1.40437
1.38287
1.36679
1.35336
1.34014
1.32716
1.31365
1.29837
1.2805
1.26243
1.24426
1.23089
1.22148
1.21573
1.21066
1.2072
1.20618
1.20532
1.2044
1.20467
1.2045
1.20575
1.20616
1.20701
1.20806
1.208
1.2101
1.215
1.2176
1.2185
1.21816
1.21834
1.22114
1.22593
0.394336
0.394101
0.393856
0.39363
0.393409
0.393176
0.392953
0.392744
0.392542
0.39236
0.392199
0.392046
0.391906
0.391769
0.391644
0.391521
0.391401
0.391289
0.391192
0.391108
0.391023
0.390932
0.390846
0.39081
0.39081
0.390807
0.390792
0.390797
0.39082
0.390831
0.390836
0.390834
0.390856
0.390905
0.39092
0.39484
0.426898
0.533677
0.682905
0.875952
1.0531
1.23862
1.35571
1.47429
1.56103
1.62449
1.68672
1.7256
1.76383
1.77523
1.78742
1.78083
1.77136
1.757
1.74433
1.73778
1.73132
1.72217
1.71107
1.6989
1.68721
1.67622
1.65997
1.64213
1.62408
1.60485
1.58308
1.56172
1.54325
1.52386
1.50099
1.47524
1.44614
1.41696
1.39021
1.36746
1.34738
1.32948
1.3131
1.29918
1.28596
1.27408
1.26239
1.25161
1.24312
1.23809
1.23494
1.23254
1.22951
1.22586
1.22257
1.22258
1.22531
1.22907
1.22861
1.22511
1.22215
1.22397
1.22814
1.23054
0.391568
0.391491
0.391415
0.39135
0.39129
0.391228
0.391168
0.391116
0.391086
0.391077
0.391061
0.39103
0.390994
0.390967
0.390949
0.390932
0.390918
0.39091
0.3909
0.390885
0.390857
0.390811
0.390771
0.39077
0.390782
0.39079
0.390782
0.390785
0.39085
0.390938
0.39099
0.391014
0.391009
0.391009
0.39101
0.390975
0.390926
0.39086
0.390719
0.390522
0.390346
0.390159
0.389772
0.431335
0.524735
0.72105
0.912613
1.14875
1.31579
1.47059
1.58704
1.68136
1.76661
1.81599
1.87136
1.86867
1.86276
1.84937
1.8276
1.79828
1.76405
1.73839
1.72358
1.72561
1.73518
1.74369
1.74225
1.73203
1.71161
1.6807
1.64786
1.61524
1.58906
1.5698
1.55301
1.53503
1.51341
1.48742
1.45842
1.43013
1.40438
1.38177
1.36288
1.34724
1.33344
1.32093
1.30873
1.29522
1.28185
1.27115
1.26261
1.26315
1.26293
1.25714
1.24796
1.24046
1.24106
1.24304
1.24382
1.24083
0.390827
0.390806
0.39079
0.390779
0.390771
0.390752
0.390732
0.390732
0.390739
0.390789
0.39081
0.39081
0.39081
0.390811
0.390811
0.390807
0.390807
0.390808
0.390815
0.390819
0.390805
0.390782
0.390766
0.390764
0.390771
0.390777
0.390743
0.390739
0.390812
0.390926
0.390971
0.390991
0.390992
0.390975
0.390867
0.390655
0.390449
0.390292
0.390158
0.390015
0.38985
0.389616
0.38934
0.389074
0.38897
0.388891
0.38878
0.388638
0.388329
0.440809
0.567562
0.854744
1.11681
1.36763
1.53271
1.65159
1.74298
1.78289
1.81208
1.80848
1.79931
1.7997
1.80469
1.80951
1.81356
1.81667
1.81902
1.81266
1.79994
1.78519
1.76701
1.75343
1.73367
1.71986
1.70824
1.69361
1.67414
1.64939
1.62158
1.59463
1.56905
1.5481
1.52757
1.50537
1.48031
1.45321
1.42791
1.40446
1.38409
1.36784
1.35537
1.34536
1.32707
1.31115
1.30072
1.29183
1.29039
1.28257
1.27061
1.26542
0.390634
0.390637
0.390639
0.390644
0.390653
0.390659
0.390654
0.390654
0.390666
0.390707
0.390772
0.390796
0.39081
0.390825
0.39084
0.390839
0.390822
0.390817
0.390821
0.390817
0.390801
0.390789
0.390783
0.390774
0.390756
0.390699
0.390644
0.390711
0.390752
0.390733
0.390693
0.390614
0.390477
0.390323
0.390115
0.38981
0.389544
0.389489
0.38944
0.389368
0.389226
0.388996
0.388748
0.388578
0.388501
0.388438
0.388347
0.388218
0.388052
0.38771
0.387384
0.387168
0.386975
0.386892
0.459376
0.737045
1.03412
1.30551
1.51099
1.66154
1.78956
1.85114
1.87612
1.87187
1.8653
1.85432
1.83473
1.80903
1.80255
1.80939
1.8177
1.82493
1.82778
1.82222
1.80943
1.79367
1.77995
1.77194
1.76286
1.74982
1.73165
1.71007
1.69473
1.67737
1.65276
1.62288
1.59205
1.56679
1.54565
1.52415
1.50067
1.47264
1.44843
1.42777
1.40911
1.39189
1.37327
1.35658
1.34417
1.33006
0.390764
0.390762
0.390762
0.390771
0.390775
0.390771
0.390756
0.390777
0.390807
0.390829
0.390843
0.390843
0.390844
0.390842
0.390826
0.390807
0.390798
0.390778
0.39071
0.390612
0.39056
0.390532
0.390507
0.390458
0.390351
0.390217
0.390099
0.389971
0.389818
0.389749
0.389744
0.3897
0.389606
0.389495
0.389276
0.388954
0.388849
0.388878
0.388856
0.38878
0.388623
0.388432
0.388254
0.388121
0.388006
0.387899
0.387773
0.387608
0.387423
0.38717
0.386928
0.386727
0.386527
0.386388
0.386122
0.385904
0.385582
0.384668
0.465195
0.779313
1.15655
1.43238
1.60726
1.7034
1.78393
1.79834
1.81028
1.81102
1.82973
1.84541
1.86148
1.86849
1.86844
1.86289
1.85384
1.84419
1.8374
1.8354
1.8382
1.83964
1.83796
1.82995
1.81463
1.79629
1.78228
1.76851
1.75147
1.7303
1.70796
1.6925
1.66973
1.64128
1.6115
1.58409
1.56115
1.53632
1.51068
1.48872
1.4699
1.43895
0.390889
0.390873
0.390857
0.390845
0.390834
0.390823
0.390815
0.390805
0.390745
0.390614
0.390534
0.390495
0.39046
0.390416
0.390376
0.390337
0.390274
0.390158
0.390007
0.389899
0.389862
0.389827
0.389779
0.3897
0.389568
0.389433
0.389315
0.389161
0.389015
0.389009
0.389035
0.389031
0.388982
0.388895
0.388662
0.388363
0.388309
0.388326
0.388293
0.388196
0.38803
0.387848
0.387702
0.387594
0.387468
0.387274
0.387033
0.386761
0.38652
0.386322
0.386126
0.385722
0.385102
0.384467
0.383902
0.383544
0.383271
0.38294
0.382581
0.382144
0.381451
0.414366
0.594162
0.970474
1.27311
1.49688
1.68181
1.78387
1.86218
1.86377
1.87163
1.87309
1.86799
1.85504
1.8557
1.85716
1.85982
1.86161
1.86431
1.86718
1.87027
1.87617
1.87323
1.86439
1.85205
1.84202
1.84249
1.84079
1.83048
1.8107
1.79386
1.77849
1.76021
1.73964
1.71723
1.7002
1.67545
1.64712
1.62555
1.59056
0.390401
0.390366
0.390329
0.390291
0.39025
0.390198
0.390125
0.390042
0.389971
0.389916
0.389865
0.389811
0.389746
0.389673
0.389601
0.389516
0.389374
0.389203
0.389055
0.388994
0.388984
0.388963
0.388912
0.388827
0.388734
0.388654
0.388562
0.388475
0.388475
0.388565
0.388645
0.388611
0.388552
0.388431
0.388132
0.387778
0.387646
0.387626
0.387549
0.387387
0.387128
0.386907
0.386759
0.386644
0.386483
0.386222
0.385862
0.385449
0.385021
0.384538
0.384016
0.383479
0.383018
0.382659
0.382418
0.382179
0.381918
0.381732
0.381502
0.381095
0.380703
0.380498
0.380321
0.380035
0.380054
0.5169
0.821106
1.22578
1.47537
1.62587
1.73801
1.77814
1.8113
1.82687
1.85618
1.86563
1.87384
1.87286
1.87297
1.87439
1.87484
1.87354
1.87418
1.87396
1.87226
1.87147
1.87358
1.87572
1.87836
1.872
1.86074
1.85069
1.844
1.83841
1.82749
1.80678
1.79236
1.77944
1.76537
1.73589
0.389513
0.389455
0.389399
0.389344
0.389279
0.389226
0.389177
0.389128
0.389086
0.389056
0.389023
0.388978
0.388906
0.388818
0.388757
0.388695
0.38854
0.388324
0.388245
0.388249
0.388275
0.388276
0.388251
0.388196
0.388122
0.388035
0.387927
0.387887
0.387914
0.38803
0.388157
0.388143
0.388081
0.387909
0.387544
0.387021
0.386576
0.386259
0.385989
0.385678
0.38526
0.384989
0.384828
0.384585
0.384155
0.38369
0.383396
0.383209
0.382951
0.382539
0.382232
0.382168
0.382133
0.382079
0.381989
0.381694
0.381185
0.380765
0.38045
0.380346
0.380336
0.380322
0.380189
0.380314
0.381393
0.383888
0.388191
0.390874
0.453497
0.796081
1.10122
1.36825
1.577
1.69882
1.7718
1.7982
1.82869
1.84509
1.84408
1.84205
1.84191
1.84556
1.85331
1.86348
1.87218
1.879
1.88261
1.88034
1.87706
1.87533
1.87362
1.87122
1.8693
1.86737
1.86806
1.86164
1.85074
1.84492
1.8417
1.82819
0.388239
0.388262
0.388275
0.388287
0.388309
0.388341
0.38837
0.388365
0.388348
0.388346
0.388338
0.388313
0.388272
0.388213
0.388125
0.388005
0.387866
0.387769
0.387762
0.387763
0.387753
0.387722
0.387656
0.387553
0.38743
0.387285
0.387099
0.386966
0.386964
0.386965
0.386905
0.386749
0.386463
0.385994
0.385325
0.384598
0.383953
0.383415
0.38299
0.382645
0.382311
0.381934
0.381735
0.381714
0.381668
0.381682
0.381871
0.382114
0.382111
0.38192
0.38163
0.381553
0.381518
0.381475
0.381371
0.381003
0.380494
0.380312
0.380232
0.380254
0.38039
0.380825
0.382078
0.385401
0.390394
0.395433
0.399034
0.402271
0.403551
0.402854
0.40216
0.476546
0.725631
1.11853
1.34908
1.51782
1.63857
1.69562
1.74089
1.77789
1.78766
1.79486
1.81002
1.81847
1.82949
1.84133
1.84515
1.84433
1.84585
1.85217
1.86115
1.86684
1.86973
1.8684
1.86487
1.8645
1.86366
1.86261
1.86141
1.85611
0.387892
0.38792
0.387934
0.387954
0.388047
0.388151
0.38815
0.38814
0.388114
0.388083
0.388036
0.387956
0.387836
0.387692
0.387517
0.387305
0.387078
0.3869
0.386812
0.386741
0.386633
0.386481
0.386285
0.386057
0.385792
0.385474
0.385113
0.384749
0.384346
0.38392
0.383552
0.383219
0.382822
0.382194
0.38149
0.380891
0.380603
0.38061
0.38059
0.380488
0.380359
0.38037
0.380564
0.380977
0.381219
0.381396
0.381778
0.381931
0.381889
0.381642
0.381156
0.380872
0.380872
0.380921
0.380915
0.380682
0.380301
0.380291
0.380528
0.381802
0.3848
0.389227
0.394563
0.399573
0.402866
0.403961
0.404226
0.405195
0.405321
0.405434
0.408033
0.412319
0.417266
0.419631
0.478419
0.801009
1.08511
1.31971
1.48626
1.57041
1.63322
1.67528
1.72861
1.72644
1.73234
1.74591
1.75718
1.77157
1.78587
1.79847
1.81058
1.81985
1.827
1.8301
1.83578
1.84736
1.85667
1.85645
1.85464
1.85268
0.387159
0.387069
0.386982
0.386914
0.386833
0.386713
0.386565
0.386404
0.386226
0.386014
0.385753
0.385422
0.385034
0.384591
0.384061
0.383549
0.38317
0.382912
0.382698
0.382434
0.382222
0.382074
0.381905
0.381702
0.381479
0.381218
0.380934
0.380659
0.380416
0.380292
0.38029
0.3803
0.380267
0.380068
0.379711
0.379639
0.379775
0.380112
0.380203
0.380186
0.380191
0.380337
0.380799
0.381376
0.38158
0.38169
0.381662
0.381612
0.381474
0.381117
0.380722
0.380645
0.380689
0.380888
0.380996
0.381336
0.382304
0.384704
0.389108
0.394979
0.400154
0.403712
0.405893
0.407509
0.40773
0.407212
0.40614
0.405881
0.407319
0.413114
0.421238
0.428804
0.431371
0.431125
0.43142
0.432468
0.433546
0.5748
0.832057
1.09697
1.31728
1.44958
1.51345
1.55873
1.61682
1.65116
1.65729
1.66614
1.67406
1.68641
1.70573
1.7254
1.74196
1.75764
1.7705
1.78397
1.79665
1.80258
1.8067
1.81565
0.38152
0.381348
0.381159
0.380944
0.380705
0.380486
0.380289
0.38012
0.379983
0.379868
0.379735
0.379546
0.379346
0.379214
0.379108
0.379014
0.379012
0.379068
0.379169
0.379203
0.379264
0.379396
0.379522
0.379602
0.379641
0.379623
0.379573
0.379578
0.379632
0.379756
0.379923
0.380123
0.380157
0.380162
0.380163
0.380258
0.380783
0.381345
0.381387
0.381379
0.381398
0.381508
0.381641
0.381771
0.381872
0.381768
0.38152
0.381381
0.381261
0.38099
0.381047
0.381544
0.382929
0.385585
0.389527
0.394281
0.398899
0.402638
0.405448
0.407442
0.408709
0.409476
0.409438
0.409437
0.409143
0.409038
0.410623
0.414719
0.421166
0.426733
0.431339
0.43596
0.436995
0.435803
0.434585
0.435674
0.440459
0.446541
0.449278
0.458595
0.628876
0.924367
1.10276
1.28764
1.40765
1.46838
1.51652
1.5691
1.5721
1.57771
1.59422
1.61044
1.62825
1.64466
1.66016
1.67386
1.6886
1.70522
1.71977
1.74095
0.377412
0.377371
0.377178
0.377006
0.377002
0.377022
0.377047
0.377019
0.376968
0.376969
0.377022
0.377148
0.377376
0.377677
0.377875
0.378022
0.378202
0.378444
0.378669
0.378848
0.379046
0.379244
0.379407
0.379521
0.379591
0.379681
0.379823
0.380082
0.380501
0.380903
0.381198
0.381649
0.381838
0.381805
0.381699
0.381705
0.381958
0.382456
0.382693
0.382869
0.383042
0.383047
0.382654
0.382142
0.382186
0.382594
0.383289
0.384187
0.385769
0.388853
0.393046
0.397492
0.401336
0.404331
0.407125
0.409334
0.411011
0.411846
0.411714
0.411165
0.410933
0.410531
0.410117
0.410853
0.413766
0.420398
0.428039
0.43425
0.437302
0.437277
0.437072
0.438013
0.439552
0.440631
0.442472
0.445156
0.449868
0.455446
0.459287
0.458843
0.45927
0.46084
0.486034
0.715693
0.963598
1.16756
1.32004
1.38593
1.43314
1.47686
1.5046
1.50646
1.51472
1.52504
1.54143
1.55676
1.57542
1.59266
1.60277
1.62387
0.378214
0.378296
0.378463
0.378581
0.378645
0.378919
0.379054
0.379041
0.379054
0.379146
0.379389
0.379779
0.380308
0.380894
0.381252
0.381507
0.381751
0.382018
0.382121
0.382112
0.38208
0.382094
0.382083
0.382116
0.382178
0.382252
0.382391
0.382632
0.382912
0.383242
0.3835
0.383677
0.384057
0.384344
0.384148
0.383999
0.384053
0.384532
0.38571
0.387263
0.388953
0.390674
0.39234
0.393971
0.395801
0.3982
0.400786
0.403308
0.40563
0.407454
0.409198
0.411048
0.412374
0.412856
0.413277
0.413975
0.414462
0.414402
0.413646
0.413224
0.414085
0.416687
0.42157
0.427022
0.432201
0.436278
0.439483
0.442242
0.442709
0.44222
0.439929
0.439207
0.440978
0.447312
0.45591
0.460498
0.461112
0.462005
0.463462
0.464235
0.466045
0.471109
0.47557
0.476686
0.477145
0.594472
0.830442
1.03432
1.22441
1.32404
1.37868
1.40057
1.4414
1.4483
1.45271
1.45707
1.46753
1.48085
1.49554
1.51794
0.382701
0.382824
0.383011
0.383101
0.383103
0.383058
0.38299
0.383027
0.383309
0.383415
0.383388
0.383364
0.383397
0.383631
0.384325
0.384597
0.384632
0.384728
0.384878
0.38484
0.384243
0.383956
0.383997
0.384315
0.384934
0.385639
0.386311
0.387183
0.388301
0.388634
0.388838
0.389409
0.391107
0.393743
0.395037
0.395582
0.396235
0.397718
0.400304
0.403017
0.405459
0.407669
0.40946
0.410893
0.411961
0.412916
0.414047
0.414957
0.415526
0.41565
0.415711
0.415976
0.416145
0.415997
0.415944
0.416536
0.417722
0.419687
0.423146
0.428232
0.433097
0.437599
0.440868
0.442592
0.443451
0.443618
0.443739
0.444393
0.445088
0.446514
0.44944
0.452752
0.455694
0.45918
0.464075
0.46757
0.467289
0.467047
0.468146
0.472004
0.477436
0.480443
0.482082
0.483881
0.486729
0.489545
0.491095
0.516711
0.701538
0.944505
1.13814
1.26154
1.32413
1.35087
1.3875
1.39906
1.40139
1.4024
1.40897
1.42616
0.388936
0.3892
0.38946
0.389723
0.389971
0.390155
0.390439
0.39102
0.391149
0.391153
0.391231
0.391521
0.392254
0.393591
0.394936
0.395849
0.396539
0.397132
0.397616
0.397862
0.397886
0.397937
0.398266
0.399252
0.400836
0.402615
0.40412
0.405208
0.406114
0.406603
0.406983
0.407937
0.40989
0.411535
0.412245
0.41261
0.413037
0.413391
0.41376
0.414382
0.415501
0.416764
0.417535
0.417991
0.418339
0.418818
0.419781
0.420486
0.420921
0.421565
0.42208
0.422774
0.423992
0.426127
0.428585
0.431352
0.43437
0.437607
0.440775
0.443279
0.445262
0.446847
0.447974
0.448531
0.448676
0.448302
0.447667
0.448174
0.450954
0.456475
0.462768
0.468301
0.469466
0.468825
0.468727
0.47016
0.472198
0.474624
0.47741
0.482108
0.487544
0.487868
0.488438
0.490567
0.494347
0.498322
0.503143
0.504638
0.504664
0.50558
0.605957
0.891907
1.073
1.20134
1.28189
1.30841
1.33908
1.35717
1.36034
1.36268
0.404877
0.40511
0.405377
0.405633
0.405915
0.406273
0.406671
0.407111
0.40758
0.407864
0.408013
0.408172
0.408321
0.408539
0.409259
0.411542
0.413731
0.413736
0.412813
0.412542
0.412685
0.413238
0.414103
0.415023
0.41634
0.4171
0.417343
0.417807
0.418402
0.418449
0.418508
0.418986
0.420261
0.421028
0.421172
0.421267
0.42121
0.420881
0.420883
0.421196
0.421796
0.422576
0.423468
0.424445
0.425347
0.42609
0.426968
0.428658
0.431065
0.433553
0.436248
0.438676
0.441049
0.443205
0.445474
0.447305
0.448498
0.449378
0.450079
0.450629
0.45121
0.451455
0.451991
0.45338
0.455945
0.459242
0.462534
0.465196
0.467299
0.468836
0.470609
0.473555
0.475498
0.475289
0.474624
0.475688
0.481088
0.487754
0.490448
0.491832
0.493087
0.494525
0.496313
0.498942
0.50183
0.505259
0.51049
0.511934
0.512554
0.514636
0.518379
0.520303
0.567038
0.818938
1.01645
1.15458
1.24337
1.27437
1.30486
1.3241
0.417901
0.417932
0.418048
0.41834
0.418927
0.419734
0.419868
0.419732
0.419344
0.418284
0.417688
0.417732
0.417655
0.417411
0.418091
0.421787
0.422785
0.421869
0.420009
0.419794
0.420391
0.422133
0.424072
0.425132
0.425195
0.425179
0.425208
0.425658
0.426569
0.427318
0.427846
0.42835
0.429137
0.430332
0.431502
0.432245
0.432984
0.434036
0.435256
0.436273
0.437189
0.43821
0.439546
0.441173
0.442504
0.443288
0.444136
0.445433
0.446701
0.447842
0.448938
0.450094
0.451374
0.452641
0.453993
0.455091
0.455977
0.456852
0.457756
0.458957
0.46014
0.461319
0.462733
0.464964
0.468062
0.471469
0.474479
0.47689
0.477776
0.477329
0.47657
0.477202
0.480336
0.485167
0.488524
0.490379
0.492554
0.496618
0.49897
0.498669
0.499126
0.501343
0.505234
0.509323
0.513478
0.515598
0.516575
0.518944
0.521655
0.523891
0.527095
0.530765
0.531221
0.532492
0.553073
0.777822
0.971854
1.12496
1.20957
1.25946
0.430513
0.431224
0.432078
0.43347
0.4349
0.435087
0.434791
0.432924
0.432037
0.432015
0.432213
0.433231
0.434624
0.435785
0.436609
0.436717
0.436347
0.43618
0.436226
0.436422
0.438079
0.439848
0.439875
0.439431
0.438619
0.438465
0.438555
0.43901
0.43984
0.44045
0.440731
0.440962
0.441433
0.44247
0.444093
0.445463
0.446223
0.446918
0.447797
0.448804
0.449659
0.450178
0.450731
0.451684
0.453049
0.454399
0.455561
0.456644
0.457421
0.458058
0.458516
0.459028
0.459606
0.460535
0.461644
0.463101
0.464918
0.467046
0.469619
0.472283
0.474551
0.476207
0.477367
0.478217
0.478843
0.479721
0.481194
0.48314
0.485098
0.486295
0.487259
0.488326
0.491132
0.496079
0.501313
0.503438
0.503195
0.503692
0.505378
0.507057
0.509182
0.512527
0.515842
0.518882
0.522437
0.523403
0.523227
0.524245
0.528245
0.532387
0.536104
0.540653
0.541153
0.541982
0.543371
0.545126
0.55642
0.758027
0.92318
1.15322
0.443734
0.444252
0.444626
0.445077
0.445126
0.44512
0.44535
0.446016
0.446226
0.446114
0.445854
0.445801
0.446213
0.447637
0.447963
0.447639
0.447268
0.447241
0.447376
0.447931
0.449053
0.449721
0.449662
0.449505
0.449579
0.44991
0.450614
0.451823
0.453269
0.45426
0.454639
0.45471
0.454762
0.455073
0.455957
0.456915
0.457279
0.457457
0.457874
0.45884
0.459831
0.460568
0.461431
0.462527
0.464012
0.46582
0.46748
0.468741
0.470153
0.471811
0.473336
0.474614
0.476011
0.477238
0.477969
0.47846
0.478937
0.479693
0.481043
0.482655
0.483939
0.485119
0.486333
0.487212
0.487877
0.488558
0.489658
0.491808
0.494932
0.498643
0.502451
0.505249
0.506303
0.506979
0.509087
0.511062
0.511125
0.511218
0.512801
0.516209
0.520365
0.523736
0.526329
0.527671
0.528714
0.530879
0.533288
0.535391
0.53882
0.542547
0.544446
0.546586
0.548804
0.549821
0.550721
0.555
0.558677
0.559786
0.565035
0.867884
0.456716
0.457228
0.457709
0.457886
0.457939
0.458011
0.458474
0.459256
0.459228
0.458547
0.458406
0.458487
0.459163
0.459844
0.46027
0.46067
0.460894
0.461072
0.461338
0.46186
0.462983
0.463553
0.463754
0.464404
0.465872
0.466901
0.467519
0.468181
0.469043
0.469998
0.470508
0.470542
0.470579
0.4709
0.471803
0.472962
0.473959
0.474837
0.475816
0.476777
0.477609
0.478732
0.479469
0.479446
0.47941
0.479564
0.480198
0.480939
0.481537
0.482331
0.483266
0.484291
0.48556
0.486924
0.487791
0.488443
0.488698
0.488883
0.489363
0.490185
0.491236
0.492631
0.494764
0.49776
0.501338
0.50463
0.507101
0.508678
0.50982
0.511223
0.513569
0.51611
0.516419
0.515866
0.515927
0.517533
0.519922
0.522893
0.525309
0.528861
0.532031
0.534359
0.53654
0.536978
0.5376
0.539353
0.542724
0.545916
0.548289
0.551547
0.551774
0.551561
0.553793
0.558014
0.56337
0.565987
0.567148
0.568178
0.568817
0.571861
0.474678
0.474952
0.474971
0.474962
0.474979
0.475036
0.475287
0.475954
0.476439
0.476669
0.476934
0.477228
0.47768
0.478413
0.478959
0.479136
0.479217
0.479322
0.479454
0.479584
0.479788
0.480136
0.480684
0.481136
0.481148
0.481097
0.481143
0.481299
0.481612
0.482099
0.482632
0.4831
0.483757
0.484537
0.485094
0.48554
0.48619
0.487121
0.487795
0.487938
0.487982
0.488428
0.489152
0.489241
0.48942
0.489986
0.491238
0.492524
0.492594
0.492589
0.492699
0.493053
0.493944
0.495862
0.498286
0.500364
0.50246
0.50486
0.507097
0.509224
0.511083
0.512416
0.513488
0.514895
0.516678
0.518566
0.520287
0.521291
0.521254
0.520833
0.520888
0.521933
0.523712
0.525045
0.526722
0.528958
0.533265
0.537224
0.539882
0.541676
0.542554
0.543346
0.544121
0.545886
0.547884
0.549804
0.552984
0.556683
0.55816
0.560198
0.563089
0.564077
0.564558
0.567066
0.571747
0.572329
0.573009
0.575821
0.578476
0.581783
0.488852
0.489386
0.489681
0.489678
0.489575
0.489524
0.489586
0.490006
0.490487
0.490689
0.490829
0.490829
0.490791
0.490816
0.490962
0.491297
0.491684
0.491943
0.492199
0.492517
0.492827
0.493163
0.493454
0.493764
0.494052
0.494434
0.4951
0.495801
0.496335
0.496718
0.49706
0.497488
0.498211
0.498644
0.498593
0.498577
0.498938
0.499498
0.499592
0.49978
0.500318
0.501418
0.502883
0.504389
0.505882
0.507015
0.508
0.509209
0.510457
0.511668
0.512787
0.514038
0.515838
0.517371
0.517852
0.518263
0.519028
0.520229
0.521535
0.522798
0.524027
0.525071
0.525647
0.525594
0.525121
0.524996
0.525466
0.527053
0.528965
0.53034
0.531136
0.532616
0.53568
0.540675
0.544685
0.546695
0.548294
0.549466
0.550948
0.551158
0.55157
0.552121
0.553405
0.556246
0.560141
0.563136
0.565186
0.5677
0.567957
0.567798
0.56901
0.571802
0.575781
0.577529
0.579198
0.582439
0.584261
0.58552
0.587336
0.590517
0.504723
0.50484
0.504971
0.505114
0.505264
0.50543
0.505659
0.505811
0.505939
0.506295
0.506649
0.506689
0.506742
0.506993
0.507437
0.507834
0.508301
0.508768
0.50882
0.508777
0.508923
0.509494
0.510229
0.510814
0.510987
0.511133
0.511373
0.511745
0.512172
0.512593
0.512969
0.513468
0.514132
0.514836
0.515621
0.516627
0.51752
0.518228
0.518974
0.519823
0.520722
0.521473
0.52198
0.522479
0.523057
0.523515
0.523871
0.52436
0.525401
0.527188
0.528059
0.528484
0.529371
0.529909
0.530078
0.530614
0.531682
0.531742
0.531465
0.531319
0.531625
0.532878
0.53522
0.53774
0.539447
0.540252
0.540878
0.542284
0.545505
0.549866
0.55337
0.554487
0.554779
0.555761
0.557389
0.558226
0.558056
0.558054
0.558317
0.559389
0.561147
0.56371
0.566746
0.569741
0.5729
0.57484
0.575095
0.575494
0.576752
0.578238
0.579448
0.582919
0.58745
0.589098
0.58956
0.59101
0.592346
0.592818
0.594691
0.599535
0.523374
0.523613
0.523796
0.523837
0.523878
0.523954
0.524152
0.524536
0.524936
0.525211
0.525333
0.525461
0.525633
0.525858
0.526138
0.526372
0.526681
0.527233
0.527513
0.527507
0.527553
0.527908
0.528409
0.528798
0.529186
0.529614
0.530013
0.530386
0.530755
0.531152
0.531627
0.532041
0.532417
0.532715
0.533062
0.533615
0.534065
0.534315
0.534541
0.534789
0.535181
0.535786
0.536498
0.537175
0.537864
0.53857
0.539177
0.539671
0.540408
0.540932
0.540864
0.540717
0.540945
0.541992
0.543522
0.545032
0.546748
0.547747
0.548521
0.54961
0.550804
0.551899
0.553402
0.555477
0.557632
0.559491
0.561002
0.561769
0.56201
0.562432
0.563748
0.564748
0.56467
0.564027
0.56418
0.564915
0.566388
0.568185
0.571078
0.574457
0.577887
0.580717
0.582872
0.583691
0.584363
0.584802
0.585177
0.585637
0.587645
0.590815
0.594002
0.596281
0.596699
0.597075
0.596984
0.59757
0.600752
0.6056
0.607889
0.609913
0.541689
0.541712
0.541788
0.541994
0.542247
0.542329
0.542357
0.542493
0.542954
0.543195
0.543168
0.543146
0.543283
0.543484
0.543689
0.544174
0.544604
0.544616
0.544588
0.544644
0.54486
0.545142
0.545451
0.545723
0.545897
0.546061
0.546358
0.54666
0.547
0.547429
0.547707
0.548088
0.548634
0.548831
0.548948
0.549173
0.549734
0.550459
0.550986
0.551377
0.5518
0.552361
0.552989
0.55352
0.553987
0.554564
0.555267
0.555955
0.556613
0.557426
0.558564
0.559835
0.561064
0.562053
0.562583
0.563012
0.56376
0.565097
0.566405
0.567826
0.569004
0.569828
0.570869
0.571032
0.570903
0.571084
0.572348
0.574094
0.574323
0.57387
0.573857
0.575043
0.577491
0.579777
0.581422
0.583592
0.586545
0.589184
0.590828
0.591973
0.592465
0.59301
0.593249
0.593005
0.592738
0.593366
0.595295
0.598259
0.601291
0.603542
0.606081
0.606267
0.606704
0.607958
0.610074
0.612957
0.614882
0.616856
0.617058
0.617655
0.561734
0.561925
0.562032
0.56204
0.562054
0.562305
0.562882
0.562982
0.562879
0.562693
0.562666
0.562886
0.563562
0.563962
0.564059
0.564133
0.564268
0.564385
0.56454
0.564893
0.565456
0.565832
0.565867
0.5658
0.565767
0.566102
0.566918
0.567304
0.56753
0.567841
0.568223
0.568548
0.569022
0.569705
0.569926
0.569994
0.570181
0.570734
0.571563
0.572229
0.572671
0.573043
0.573425
0.573876
0.574396
0.574993
0.575655
0.576322
0.576934
0.577495
0.577995
0.578427
0.57895
0.579638
0.580491
0.581254
0.58196
0.582391
0.58236
0.582496
0.583116
0.584227
0.585615
0.586375
0.586641
0.586882
0.587411
0.588727
0.59055
0.592292
0.59366
0.594684
0.596002
0.597856
0.599456
0.600253
0.60069
0.601488
0.60142
0.601134
0.600458
0.600612
0.601524
0.603637
0.606591
0.609965
0.612745
0.615332
0.616479
0.617335
0.617299
0.617546
0.618298
0.619869
0.621335
0.623254
0.624122
0.624237
0.625058
0.628132
0.583103
0.58301
0.58294
0.582943
0.583185
0.583679
0.583744
0.583733
0.583772
0.584161
0.584362
0.584263
0.584132
0.584126
0.584285
0.584773
0.585116
0.58528
0.585477
0.585768
0.585954
0.586126
0.586268
0.586333
0.586559
0.587201
0.587357
0.587377
0.587577
0.587923
0.588101
0.588242
0.588539
0.58901
0.589471
0.5897
0.589796
0.589943
0.590291
0.590812
0.591221
0.591454
0.591661
0.591926
0.592299
0.592774
0.593167
0.593506
0.593938
0.594427
0.594942
0.595498
0.596095
0.596509
0.596847
0.597219
0.597725
0.598489
0.599345
0.600357
0.601107
0.601645
0.602354
0.603221
0.604435
0.606043
0.607679
0.608409
0.608674
0.609296
0.610812
0.612367
0.612535
0.612535
0.612991
0.613626
0.61388
0.614422
0.615501
0.616828
0.618524
0.620401
0.622437
0.624435
0.626208
0.62719
0.627377
0.627295
0.62694
0.626576
0.626825
0.628013
0.629747
0.631765
0.633735
0.634816
0.635903
0.637677
0.638911
0.640176
0.605748
0.605761
0.606106
0.606457
0.606426
0.606163
0.606099
0.606391
0.607038
0.607136
0.607055
0.607011
0.607136
0.607357
0.607401
0.6074
0.607448
0.607769
0.608137
0.608306
0.608478
0.608665
0.608675
0.608679
0.608935
0.609392
0.609517
0.60969
0.609928
0.610009
0.610118
0.610406
0.610865
0.611266
0.611468
0.611615
0.611813
0.612082
0.612403
0.612743
0.613076
0.613396
0.61372
0.614053
0.614431
0.61483
0.615273
0.615747
0.616184
0.616597
0.617031
0.617464
0.617938
0.618493
0.619073
0.619687
0.620314
0.620862
0.621239
0.621707
0.622428
0.62326
0.624154
0.624388
0.624577
0.624936
0.625746
0.626605
0.626871
0.626948
0.627082
0.627747
0.628541
0.628904
0.629235
0.630071
0.631204
0.632106
0.633187
0.634289
0.635376
0.63603
0.636757
0.636673
0.636611
0.636237
0.636049
0.636439
0.637511
0.639656
0.642216
0.644292
0.645815
0.646762
0.647592
0.647585
0.647616
0.647967
0.648632
0.650015
0.630631
0.630671
0.630732
0.630968
0.631029
0.631047
0.631165
0.631188
0.631136
0.631082
0.631104
0.631274
0.63158
0.631727
0.63176
0.631911
0.632059
0.632105
0.632208
0.632227
0.632222
0.632337
0.632642
0.63284
0.632937
0.63306
0.63326
0.633394
0.633432
0.633505
0.63372
0.633919
0.634075
0.634273
0.634474
0.634632
0.63478
0.634955
0.635146
0.635317
0.635469
0.635626
0.635831
0.636109
0.636417
0.636661
0.636868
0.637094
0.637324
0.637564
0.637807
0.638062
0.638328
0.638599
0.638875
0.639153
0.639392
0.639625
0.639899
0.640349
0.640844
0.640862
0.640953
0.641295
0.642052
0.642327
0.642304
0.642398
0.642957
0.643905
0.644362
0.644516
0.644965
0.645913
0.646923
0.647579
0.648267
0.649049
0.649622
0.650081
0.650406
0.65072
0.651235
0.652
0.652918
0.653912
0.655109
0.656218
0.657382
0.65806
0.658679
0.658624
0.658539
0.658173
0.657794
0.658179
0.658926
0.659986
0.661152
0.663022
0.655445
0.655403
0.655415
0.655671
0.655788
0.655736
0.655683
0.6558
0.656055
0.656032
0.655753
0.655643
0.655695
0.655968
0.656113
0.656151
0.656236
0.656382
0.656405
0.656405
0.656433
0.656514
0.656611
0.656663
0.656704
0.656772
0.656877
0.656989
0.657085
0.657174
0.657268
0.657331
0.657394
0.657439
0.657488
0.65756
0.65766
0.657758
0.657841
0.657928
0.65803
0.658153
0.658289
0.658417
0.658555
0.658712
0.658854
0.658994
0.65915
0.65933
0.659523
0.659719
0.659913
0.660117
0.660336
0.660549
0.660763
0.660992
0.661185
0.66134
0.66157
0.661903
0.66225
0.662503
0.662774
0.663089
0.663497
0.663861
0.6641
0.664357
0.664711
0.665055
0.665307
0.665517
0.665805
0.666072
0.666249
0.666474
0.666638
0.666807