/*--------------------------------*- C++ -*----------------------------------*\
  =========                 |
  \\      /  F ield         | OpenFOAM: The Open Source CFD Toolbox
   \\    /   O peration     | Website:  https://openfoam.org
    \\  /    A nd           | Version:  7
     \\/     M anipulation  |
\*---------------------------------------------------------------------------*/
FoamFile
{
    version     2.0;
    format      ascii;
    class       volVectorField;
    location    "4";
    object      U;
}
// * * * * * * * * * * * * * * * * * * * * * * * * * * * * * * * * * * * * * //

dimensions      [0 1 -1 0 0 0 0];

internalField   nonuniform List<vector> 
90000
(
(4.05156 -0.250761 0)
(4.04904 -0.235271 0)
(4.04623 -0.22047 0)
(4.04407 -0.211499 0)
(4.04074 -0.201132 0)
(4.03669 -0.188454 0)
(4.034 -0.182654 0)
(4.03069 -0.175704 0)
(4.02733 -0.16904 0)
(4.02382 -0.161654 0)
(4.02103 -0.1571 0)
(4.0177 -0.150185 0)
(4.01482 -0.144684 0)
(4.01212 -0.135321 0)
(4.01083 -0.130372 0)
(4.00902 -0.11972 0)
(4.00808 -0.11344 0)
(4.00673 -0.104091 0)
(4.00548 -0.0956785 0)
(4.00439 -0.0885115 0)
(4.00293 -0.0800203 0)
(4.00149 -0.0718823 0)
(4.00054 -0.0671084 0)
(3.99832 -0.0552678 0)
(3.99783 -0.0533547 0)
(3.99545 -0.0430052 0)
(3.99386 -0.0362799 0)
(3.99346 -0.0332929 0)
(3.99042 -0.0226956 0)
(3.98914 -0.017691 0)
(3.98922 -0.0148431 0)
(3.98556 -0.00550088 0)
(3.98457 -0.000477792 0)
(3.98508 0.000145885 0)
(3.98355 0.00333298 0)
(3.98373 0.00711584 0)
(3.98329 0.00833462 0)
(3.98293 0.00883154 0)
(3.98232 0.00940874 0)
(3.98298 0.00633082 0)
(3.98299 0.00334213 0)
(3.98415 -0.00450667 0)
(3.98305 -0.00647357 0)
(3.98198 -0.013601 0)
(3.98109 -0.0151535 0)
(3.98009 -0.015342 0)
(3.97936 -0.016104 0)
(3.97792 -0.0133998 0)
(3.97757 -0.0113581 0)
(3.97783 -0.00801107 0)
(3.97645 -0.00365152 0)
(3.97685 -0.0010427 0)
(3.97793 0.00156003 0)
(3.97805 0.00228023 0)
(3.97833 0.00193958 0)
(3.97861 0.000199791 0)
(3.97935 -0.00234632 0)
(3.97908 -0.00529847 0)
(3.97938 -0.00763128 0)
(3.97954 -0.00904127 0)
(3.9801 -0.00938333 0)
(3.97924 -0.00718877 0)
(3.97903 -0.00392528 0)
(3.9785 -0.000621768 0)
(3.97927 0.00231405 0)
(3.97935 0.00241994 0)
(3.98011 0.000309601 0)
(3.98022 -0.00166478 0)
(3.98022 -0.00430303 0)
(3.98108 -0.00496995 0)
(3.98067 -0.0036133 0)
(3.98041 -0.00177525 0)
(3.98049 0.000941661 0)
(3.98001 -0.000811672 0)
(3.98015 -0.00205299 0)
(3.9808 -0.00458016 0)
(3.9816 -0.00491065 0)
(3.98129 -0.00345129 0)
(3.98121 -0.00192918 0)
(3.98147 -0.000615598 0)
(3.98077 -0.00230596 0)
(3.9809 -0.00296237 0)
(3.98137 -0.00296864 0)
(3.9813 -0.00237736 0)
(3.98104 -0.00154659 0)
(3.98117 -0.00129916 0)
(3.98119 -0.00148955 0)
(3.9813 -0.00182599 0)
(3.98145 -0.00203822 0)
(3.98155 -0.00212415 0)
(3.98172 -0.00208055 0)
(3.98175 -0.00220016 0)
(3.98181 -0.00228423 0)
(3.9818 -0.0023243 0)
(3.98174 -0.00232035 0)
(3.98167 -0.00222955 0)
(3.98162 -0.00210974 0)
(3.98165 -0.00193261 0)
(3.98163 -0.00222423 0)
(3.98175 -0.00252625 0)
(4.05138 -0.263023 0)
(4.05119 -0.262376 0)
(4.0508 -0.261431 0)
(4.05023 -0.259841 0)
(4.04954 -0.258319 0)
(4.04851 -0.255464 0)
(4.04758 -0.252887 0)
(4.04642 -0.249376 0)
(4.04521 -0.246188 0)
(4.04368 -0.241504 0)
(4.04229 -0.237355 0)
(4.04066 -0.232224 0)
(4.03923 -0.227128 0)
(4.03692 -0.22141 0)
(4.03431 -0.216527 0)
(4.03081 -0.209069 0)
(4.02775 -0.203821 0)
(4.02372 -0.193793 0)
(4.02073 -0.187877 0)
(4.01653 -0.175209 0)
(4.01374 -0.167859 0)
(4.0097 -0.153955 0)
(4.00727 -0.145161 0)
(4.00309 -0.128673 0)
(4.00192 -0.12164 0)
(3.99731 -0.101561 0)
(3.99645 -0.094911 0)
(3.99313 -0.0785531 0)
(3.99035 -0.0640259 0)
(3.98963 -0.0555473 0)
(3.98792 -0.0431677 0)
(3.98449 -0.0237418 0)
(3.98676 -0.025362 0)
(3.98294 -0.0118726 0)
(3.98007 0.00300506 0)
(3.98105 0.00273402 0)
(3.9815 0.00636776 0)
(3.97706 0.0140239 0)
(3.97682 0.0183974 0)
(3.97672 0.0187131 0)
(3.97638 0.0155867 0)
(3.97758 0.0123275 0)
(3.97953 0.0063322 0)
(3.98048 0.0039009 0)
(3.98153 -0.000251502 0)
(3.98225 -0.00315243 0)
(3.98312 -0.00636224 0)
(3.98367 -0.00706679 0)
(3.98305 -0.0080269 0)
(3.98322 -0.00563284 0)
(3.98277 -0.00330658 0)
(3.98246 -0.000852214 0)
(3.98194 0.000213568 0)
(3.9813 0.00200162 0)
(3.98049 0.00164095 0)
(3.98049 0.00164653 0)
(3.9804 -0.00146683 0)
(3.98015 -0.00395714 0)
(3.98021 -0.00529275 0)
(3.9807 -0.00689604 0)
(3.98137 -0.00645534 0)
(3.98168 -0.00510907 0)
(3.98106 -0.00225438 0)
(3.98123 -0.000402307 0)
(3.98075 0.000119412 0)
(3.98032 0.00133903 0)
(3.97964 -0.000840158 0)
(3.97987 -0.00176957 0)
(3.98017 -0.00295749 0)
(3.98044 -0.00313977 0)
(3.98075 -0.00201905 0)
(3.98066 -0.00157004 0)
(3.98041 -0.00160114 0)
(3.9801 -0.00101435 0)
(3.97998 -0.00120238 0)
(3.9801 -0.00154305 0)
(3.97973 -0.00147054 0)
(3.98075 -0.00194293 0)
(3.9807 -0.0022103 0)
(3.98066 -0.00248876 0)
(3.98017 -0.00183198 0)
(3.98014 -0.00180091 0)
(3.98029 -0.0020229 0)
(3.98034 -0.00216398 0)
(3.98036 -0.00209082 0)
(3.98019 -0.00189298 0)
(3.98007 -0.00197375 0)
(3.98013 -0.00216981 0)
(3.98024 -0.00232157 0)
(3.98041 -0.00225573 0)
(3.98062 -0.00193602 0)
(3.98067 -0.00192142 0)
(3.98072 -0.00205236 0)
(3.98074 -0.00225523 0)
(3.98073 -0.00226611 0)
(3.9807 -0.00219981 0)
(3.98068 -0.00224999 0)
(3.98076 -0.00206696 0)
(3.98075 -0.00223657 0)
(3.98078 -0.00259727 0)
(4.04812 -0.26271 0)
(4.04808 -0.262733 0)
(4.04801 -0.26271 0)
(4.04794 -0.262663 0)
(4.04786 -0.262608 0)
(4.04778 -0.262502 0)
(4.04768 -0.2624 0)
(4.04758 -0.262238 0)
(4.04746 -0.262052 0)
(4.0473 -0.261705 0)
(4.04714 -0.261327 0)
(4.04695 -0.260732 0)
(4.04663 -0.25998 0)
(4.04616 -0.259224 0)
(4.04556 -0.258009 0)
(4.04488 -0.256629 0)
(4.04408 -0.254779 0)
(4.04315 -0.252553 0)
(4.04216 -0.250213 0)
(4.0408 -0.246345 0)
(4.03956 -0.243279 0)
(4.03775 -0.237721 0)
(4.03605 -0.232794 0)
(4.03401 -0.226155 0)
(4.03173 -0.217832 0)
(4.02935 -0.20979 0)
(4.02683 -0.200398 0)
(4.02319 -0.185166 0)
(4.02185 -0.180663 0)
(4.01659 -0.157416 0)
(4.01445 -0.1504 0)
(4.01051 -0.133952 0)
(4.00675 -0.11624 0)
(4.00283 -0.0982779 0)
(4.00302 -0.0963906 0)
(3.99647 -0.0657962 0)
(3.99445 -0.0614795 0)
(3.99161 -0.0493542 0)
(3.99097 -0.0413625 0)
(3.98862 -0.0323069 0)
(3.98816 -0.0271561 0)
(3.98481 -0.0173666 0)
(3.98499 -0.0128171 0)
(3.98499 -0.00815355 0)
(3.98498 -0.00458212 0)
(3.98379 -0.00248373 0)
(3.98376 -0.000595818 0)
(3.98449 0.000424005 0)
(3.98487 0.000317884 0)
(3.98483 0.00142323 0)
(3.9839 -0.00109744 0)
(3.98334 -0.0022528 0)
(3.98275 -0.0044518 0)
(3.98214 -0.00514632 0)
(3.98149 -0.00706452 0)
(3.98096 -0.00654424 0)
(3.98114 -0.00589612 0)
(3.98136 -0.00514748 0)
(3.9818 -0.00368204 0)
(3.98259 -0.00319193 0)
(3.98303 -0.00175225 0)
(3.98347 -0.0031619 0)
(3.98295 -0.00396728 0)
(3.98225 -0.00465357 0)
(3.98168 -0.00501885 0)
(3.98126 -0.00524986 0)
(3.98057 -0.00291285 0)
(3.98086 5.53859e-05 0)
(3.98099 0.000413589 0)
(3.98116 0.000293369 0)
(3.98082 -0.00270033 0)
(3.98105 -0.00458718 0)
(3.98103 -0.00513809 0)
(3.98112 -0.00391653 0)
(3.98036 -0.00100896 0)
(3.98033 -0.000507792 0)
(3.97992 -0.00162026 0)
(3.98035 -0.00437962 0)
(3.98045 -0.00488273 0)
(3.9802 -0.00397016 0)
(3.98016 -0.00279184 0)
(3.97998 -0.0017237 0)
(3.97996 -0.00208176 0)
(3.97997 -0.00273084 0)
(3.97995 -0.00257533 0)
(3.97986 -0.00212769 0)
(3.97974 -0.0014046 0)
(3.97954 -0.00159968 0)
(3.97956 -0.00196149 0)
(3.97965 -0.00207914 0)
(3.9798 -0.00200986 0)
(3.97988 -0.00201955 0)
(3.9799 -0.00216166 0)
(3.97989 -0.002331 0)
(3.97986 -0.00239872 0)
(3.97988 -0.00245885 0)
(3.9799 -0.00232006 0)
(3.97999 -0.00219865 0)
(3.98004 -0.00223709 0)
(3.98014 -0.0024238 0)
(4.04382 -0.262847 0)
(4.04377 -0.262875 0)
(4.04376 -0.26289 0)
(4.04375 -0.262902 0)
(4.04372 -0.262958 0)
(4.0437 -0.262986 0)
(4.04369 -0.263004 0)
(4.04367 -0.263051 0)
(4.04364 -0.263089 0)
(4.04361 -0.263106 0)
(4.04356 -0.263132 0)
(4.0435 -0.26312 0)
(4.04342 -0.263067 0)
(4.04334 -0.26304 0)
(4.04328 -0.263011 0)
(4.0432 -0.26288 0)
(4.04314 -0.262723 0)
(4.0431 -0.262638 0)
(4.04302 -0.262464 0)
(4.04291 -0.262242 0)
(4.04277 -0.261889 0)
(4.04264 -0.261573 0)
(4.04247 -0.260945 0)
(4.04215 -0.260295 0)
(4.04174 -0.259468 0)
(4.04118 -0.25786 0)
(4.04057 -0.256128 0)
(4.03974 -0.25349 0)
(4.03874 -0.249774 0)
(4.03746 -0.245336 0)
(4.03605 -0.239689 0)
(4.0337 -0.229742 0)
(4.03211 -0.224122 0)
(4.02821 -0.20705 0)
(4.02608 -0.197541 0)
(4.02087 -0.17542 0)
(4.01904 -0.165294 0)
(4.01189 -0.131394 0)
(4.01142 -0.125656 0)
(4.00247 -0.0853606 0)
(4.00329 -0.0816655 0)
(3.99462 -0.0446705 0)
(3.99534 -0.0444312 0)
(3.98873 -0.017679 0)
(3.98947 -0.0178996 0)
(3.98483 -0.00259775 0)
(3.98514 -0.0018927 0)
(3.9822 0.00487421 0)
(3.982 0.00561988 0)
(3.98127 0.00427183 0)
(3.98236 0.00223988 0)
(3.98155 -0.00264025 0)
(3.98213 -0.00363798 0)
(3.98179 -0.00535941 0)
(3.98183 -0.00537879 0)
(3.982 -0.00467968 0)
(3.98226 -0.00277443 0)
(3.9823 -0.00106856 0)
(3.98263 0.00119409 0)
(3.98249 0.003307 0)
(3.98238 0.00239529 0)
(3.98236 0.000135349 0)
(3.98184 -0.00262565 0)
(3.98221 -0.00535086 0)
(3.9818 -0.00609098 0)
(3.98226 -0.00530197 0)
(3.98187 -0.00337248 0)
(3.98216 -0.00163635 0)
(3.98206 0.000554439 0)
(3.98269 0.00179521 0)
(3.98108 -0.000797121 0)
(3.9812 -0.00205288 0)
(3.98126 -0.00381395 0)
(3.98155 -0.00298217 0)
(3.98139 -0.00224391 0)
(3.98115 -0.000864621 0)
(3.9809 -0.000384407 0)
(3.98075 -0.00116988 0)
(3.98071 -0.0024995 0)
(3.98072 -0.00318907 0)
(3.98074 -0.00261609 0)
(3.98076 -0.00209818 0)
(3.98065 -0.00144492 0)
(3.98059 -0.00172258 0)
(3.9805 -0.00211512 0)
(3.98044 -0.00203267 0)
(3.98033 -0.00168418 0)
(3.98005 -0.00201971 0)
(3.98006 -0.00216665 0)
(3.98005 -0.00239054 0)
(3.98018 -0.00231472 0)
(3.98018 -0.00216659 0)
(3.98015 -0.00212221 0)
(3.98009 -0.00214951 0)
(3.98 -0.00225876 0)
(3.98006 -0.00235534 0)
(3.98011 -0.00237158 0)
(3.98018 -0.00226719 0)
(3.98028 -0.00218842 0)
(3.98039 -0.00232229 0)
(4.0411 -0.262481 0)
(4.0411 -0.262486 0)
(4.04109 -0.262493 0)
(4.04108 -0.262524 0)
(4.04108 -0.262551 0)
(4.04108 -0.262556 0)
(4.04107 -0.262587 0)
(4.04108 -0.262642 0)
(4.04109 -0.26267 0)
(4.04109 -0.262688 0)
(4.0411 -0.262729 0)
(4.0411 -0.262729 0)
(4.04107 -0.262747 0)
(4.0411 -0.262825 0)
(4.04114 -0.262919 0)
(4.04115 -0.26295 0)
(4.04121 -0.262994 0)
(4.04123 -0.263049 0)
(4.04127 -0.263085 0)
(4.04129 -0.263071 0)
(4.04126 -0.263167 0)
(4.04124 -0.263177 0)
(4.04119 -0.263244 0)
(4.04123 -0.263185 0)
(4.04125 -0.263103 0)
(4.0412 -0.262928 0)
(4.04117 -0.26276 0)
(4.04116 -0.262659 0)
(4.04113 -0.262483 0)
(4.04108 -0.262216 0)
(4.04097 -0.261704 0)
(4.04085 -0.261106 0)
(4.04061 -0.259894 0)
(4.04024 -0.258365 0)
(4.0396 -0.255594 0)
(4.03858 -0.251722 0)
(4.03723 -0.246127 0)
(4.03519 -0.238047 0)
(4.03297 -0.228081 0)
(4.02917 -0.211714 0)
(4.02655 -0.198689 0)
(4.02046 -0.170533 0)
(4.01831 -0.158251 0)
(4.01022 -0.119692 0)
(4.00934 -0.112566 0)
(4.00139 -0.0736218 0)
(4.00069 -0.0722988 0)
(3.99461 -0.044079 0)
(3.99427 -0.0442533 0)
(3.98951 -0.032181 0)
(3.99227 -0.0275635 0)
(3.98783 -0.019147 0)
(3.98815 -0.0155354 0)
(3.98592 -0.0114444 0)
(3.98615 -0.00730425 0)
(3.98521 -0.00333096 0)
(3.98252 -0.00090603 0)
(3.98303 0.00187415 0)
(3.98226 0.00159966 0)
(3.98147 -6.63939e-05 0)
(3.98079 -0.00211079 0)
(3.98061 -0.00385064 0)
(3.9808 -0.00423544 0)
(3.98142 -0.00432281 0)
(3.98235 -0.00374971 0)
(3.98327 -0.00433369 0)
(3.98334 -0.00354883 0)
(3.98314 -0.00351785 0)
(3.9825 -0.00371902 0)
(3.98199 -0.00410134 0)
(3.98139 -0.00268538 0)
(3.98141 -0.00190404 0)
(3.98187 -0.00154209 0)
(3.98209 -0.00114233 0)
(3.98244 -0.00258481 0)
(3.98215 -0.00293641 0)
(3.98188 -0.00351311 0)
(3.9817 -0.00230274 0)
(3.98179 -0.00208228 0)
(3.98202 -0.00225901 0)
(3.98221 -0.00302096 0)
(3.98212 -0.00295853 0)
(3.9821 -0.00267392 0)
(3.98196 -0.00182546 0)
(3.98193 -0.00203455 0)
(3.98188 -0.00229625 0)
(3.9818 -0.00222646 0)
(3.9817 -0.00178322 0)
(3.98169 -0.00174958 0)
(3.98168 -0.00178504 0)
(3.98177 -0.00199103 0)
(3.98172 -0.00200615 0)
(3.98163 -0.00209293 0)
(3.98154 -0.00222252 0)
(3.98144 -0.00234377 0)
(3.98143 -0.00239865 0)
(3.98158 -0.00235318 0)
(3.98161 -0.00223588 0)
(3.98167 -0.00223218 0)
(3.98177 -0.00239771 0)
(4.04082 -0.262955 0)
(4.04084 -0.262955 0)
(4.04086 -0.26295 0)
(4.04089 -0.262956 0)
(4.04091 -0.262974 0)
(4.04093 -0.262992 0)
(4.04095 -0.263002 0)
(4.04101 -0.263015 0)
(4.04107 -0.263032 0)
(4.04111 -0.263039 0)
(4.04118 -0.263044 0)
(4.04122 -0.263041 0)
(4.04126 -0.263058 0)
(4.04129 -0.263086 0)
(4.04134 -0.263113 0)
(4.04139 -0.263146 0)
(4.04141 -0.263154 0)
(4.04146 -0.263142 0)
(4.04155 -0.263132 0)
(4.04159 -0.263143 0)
(4.04162 -0.263161 0)
(4.04165 -0.263189 0)
(4.04169 -0.263196 0)
(4.04173 -0.263205 0)
(4.04184 -0.263268 0)
(4.04188 -0.263277 0)
(4.04191 -0.263281 0)
(4.04195 -0.263299 0)
(4.04198 -0.263301 0)
(4.04201 -0.263304 0)
(4.04203 -0.263207 0)
(4.04208 -0.263154 0)
(4.04217 -0.263055 0)
(4.04219 -0.262928 0)
(4.04225 -0.262773 0)
(4.04234 -0.262527 0)
(4.04248 -0.262149 0)
(4.04257 -0.261616 0)
(4.04247 -0.260632 0)
(4.04207 -0.258854 0)
(4.04138 -0.255925 0)
(4.04005 -0.250619 0)
(4.03844 -0.243549 0)
(4.03515 -0.229767 0)
(4.03261 -0.217571 0)
(4.02618 -0.18849 0)
(4.02414 -0.17494 0)
(4.01429 -0.128838 0)
(4.01489 -0.120556 0)
(4.00303 -0.0670445 0)
(4.00539 -0.0652026 0)
(3.99572 -0.0247192 0)
(3.99722 -0.0248253 0)
(3.99106 -0.00172593 0)
(3.99 -0.000866476 0)
(3.98759 0.0103303 0)
(3.98511 0.00784288 0)
(3.98325 0.00235112 0)
(3.98281 -0.00164871 0)
(3.98223 -0.00409994 0)
(3.98131 -0.00539391 0)
(3.98141 -0.00519882 0)
(3.98176 -0.00425488 0)
(3.98203 -0.00203851 0)
(3.98317 0.000184184 0)
(3.98263 0.000403689 0)
(3.98326 -0.00160207 0)
(3.98326 -0.00338836 0)
(3.98295 -0.00462814 0)
(3.9835 -0.00555049 0)
(3.98291 -0.0046084 0)
(3.98271 -0.00270867 0)
(3.98327 -0.00093443 0)
(3.98337 -0.000401451 0)
(3.98335 -0.00101749 0)
(3.98322 -0.00255117 0)
(3.98317 -0.00307444 0)
(3.98355 -0.00278739 0)
(3.98364 -0.00238787 0)
(3.98369 -0.00170367 0)
(3.98375 -0.0019556 0)
(3.98362 -0.00273238 0)
(3.98385 -0.00254533 0)
(3.98388 -0.00231722 0)
(3.9839 -0.00162196 0)
(3.98374 -0.00191553 0)
(3.9838 -0.0023767 0)
(3.98396 -0.00247535 0)
(3.98395 -0.00215755 0)
(3.98394 -0.0021709 0)
(3.98398 -0.00226919 0)
(3.98396 -0.00226527 0)
(3.98395 -0.0020233 0)
(3.98384 -0.00191834 0)
(3.98373 -0.00213332 0)
(3.98368 -0.00252844 0)
(3.98378 -0.00256749 0)
(3.9838 -0.0025081 0)
(3.9838 -0.00233814 0)
(3.98387 -0.00227259 0)
(4.04252 -0.262283 0)
(4.04257 -0.262318 0)
(4.04262 -0.262364 0)
(4.04266 -0.262372 0)
(4.04272 -0.262384 0)
(4.04275 -0.262452 0)
(4.04278 -0.262521 0)
(4.04284 -0.262559 0)
(4.04292 -0.262587 0)
(4.04297 -0.262597 0)
(4.04301 -0.262597 0)
(4.04308 -0.262655 0)
(4.04318 -0.26271 0)
(4.04322 -0.262734 0)
(4.04327 -0.262758 0)
(4.04332 -0.262772 0)
(4.04335 -0.262765 0)
(4.04341 -0.262737 0)
(4.04348 -0.262763 0)
(4.04359 -0.26283 0)
(4.04365 -0.262847 0)
(4.0437 -0.262845 0)
(4.04375 -0.262863 0)
(4.04381 -0.262906 0)
(4.04388 -0.262901 0)
(4.04396 -0.262862 0)
(4.04402 -0.262871 0)
(4.04407 -0.26291 0)
(4.04413 -0.262874 0)
(4.0442 -0.262809 0)
(4.04425 -0.262766 0)
(4.04428 -0.262739 0)
(4.04431 -0.262706 0)
(4.04433 -0.262682 0)
(4.04436 -0.262691 0)
(4.04442 -0.262659 0)
(4.04456 -0.262641 0)
(4.04468 -0.262611 0)
(4.04481 -0.262533 0)
(4.04493 -0.262434 0)
(4.04513 -0.262307 0)
(4.04529 -0.26206 0)
(4.04532 -0.261561 0)
(4.04519 -0.260713 0)
(4.04479 -0.258786 0)
(4.04396 -0.255505 0)
(4.04255 -0.249262 0)
(4.0399 -0.238652 0)
(4.03706 -0.224887 0)
(4.03127 -0.198704 0)
(4.02833 -0.181347 0)
(4.0193 -0.136498 0)
(4.01855 -0.127207 0)
(4.0094 -0.078037 0)
(4.00939 -0.0799893 0)
(4.0034 -0.0458278 0)
(4.00738 -0.0526057 0)
(3.99811 -0.0313163 0)
(3.997 -0.0280298 0)
(3.99405 -0.0200933 0)
(3.99079 -0.0118067 0)
(3.98931 -0.00676861 0)
(3.98568 -0.00258989 0)
(3.9846 0.001469 0)
(3.98425 0.00134858 0)
(3.98345 -0.00170013 0)
(3.98385 -0.00266689 0)
(3.9839 -0.00658725 0)
(3.98391 -0.00657875 0)
(3.98443 -0.00532814 0)
(3.98472 -0.00415751 0)
(3.98559 -0.00205124 0)
(3.98521 -0.00159726 0)
(3.98469 -0.00230209 0)
(3.98473 -0.00368566 0)
(3.98472 -0.00321789 0)
(3.98476 -0.0030784 0)
(3.98496 -0.00239513 0)
(3.98512 -0.00188754 0)
(3.98519 -0.00186598 0)
(3.98528 -0.00235554 0)
(3.98542 -0.00250641 0)
(3.98553 -0.00265184 0)
(3.98577 -0.00254762 0)
(3.98579 -0.0025226 0)
(3.98563 -0.00182912 0)
(3.98603 -0.00221239 0)
(3.98613 -0.00222253 0)
(3.98611 -0.00205309 0)
(3.98606 -0.00185542 0)
(3.98616 -0.00205784 0)
(3.9862 -0.00212007 0)
(3.98628 -0.00220033 0)
(3.98619 -0.00208914 0)
(3.9861 -0.00206195 0)
(3.98603 -0.00219321 0)
(3.98604 -0.0024083 0)
(3.98604 -0.00243717 0)
(3.98602 -0.00234164 0)
(3.98602 -0.00237714 0)
(4.0448 -0.262574 0)
(4.04484 -0.262583 0)
(4.04487 -0.262586 0)
(4.04491 -0.262586 0)
(4.04496 -0.262595 0)
(4.045 -0.262604 0)
(4.04504 -0.262609 0)
(4.04509 -0.262625 0)
(4.04513 -0.262647 0)
(4.04518 -0.262659 0)
(4.04525 -0.262651 0)
(4.04527 -0.262643 0)
(4.04533 -0.262674 0)
(4.04544 -0.262716 0)
(4.0455 -0.262779 0)
(4.04554 -0.26283 0)
(4.04558 -0.262874 0)
(4.04567 -0.262816 0)
(4.04575 -0.262742 0)
(4.04581 -0.26275 0)
(4.04587 -0.26276 0)
(4.04593 -0.262722 0)
(4.046 -0.262719 0)
(4.04606 -0.262791 0)
(4.04612 -0.262828 0)
(4.0462 -0.262791 0)
(4.04627 -0.262781 0)
(4.04632 -0.262797 0)
(4.04637 -0.262758 0)
(4.04643 -0.262648 0)
(4.04647 -0.262579 0)
(4.04651 -0.26252 0)
(4.04654 -0.262449 0)
(4.04657 -0.262356 0)
(4.0466 -0.262374 0)
(4.04663 -0.262378 0)
(4.04664 -0.262307 0)
(4.04663 -0.262278 0)
(4.04658 -0.262251 0)
(4.04666 -0.262185 0)
(4.04673 -0.262168 0)
(4.04681 -0.262139 0)
(4.04696 -0.262124 0)
(4.04717 -0.262131 0)
(4.04737 -0.262058 0)
(4.04752 -0.261909 0)
(4.04759 -0.261627 0)
(4.04751 -0.260974 0)
(4.0472 -0.259504 0)
(4.04642 -0.256448 0)
(4.04502 -0.250551 0)
(4.04198 -0.238763 0)
(4.03883 -0.224048 0)
(4.03165 -0.192332 0)
(4.02923 -0.173731 0)
(4.01746 -0.119052 0)
(4.0208 -0.108426 0)
(4.00813 -0.0471908 0)
(4.01201 -0.0462964 0)
(4.0023 -0.00638768 0)
(4.00082 -0.0045701 0)
(3.99658 0.0154484 0)
(3.99172 0.0111221 0)
(3.98862 0.0037237 0)
(3.98778 -0.000708132 0)
(3.98615 -0.00564951 0)
(3.9861 -0.00610805 0)
(3.98644 -0.0060348 0)
(3.98713 -0.0043385 0)
(3.98806 -8.0536e-05 0)
(3.98784 -0.00112073 0)
(3.98769 -0.00161362 0)
(3.98709 -0.00305746 0)
(3.98705 -0.00390977 0)
(3.98666 -0.00404992 0)
(3.98683 -0.00336041 0)
(3.98693 -0.00229756 0)
(3.98676 -0.00166066 0)
(3.98685 -0.00167993 0)
(3.98685 -0.00219659 0)
(3.98705 -0.00235068 0)
(3.98728 -0.0023662 0)
(3.98723 -0.00210462 0)
(3.98735 -0.00245972 0)
(3.98734 -0.00260142 0)
(3.98734 -0.00279019 0)
(3.98745 -0.00240116 0)
(3.98755 -0.00224578 0)
(3.9876 -0.00219996 0)
(3.98761 -0.00219631 0)
(3.98784 -0.00216652 0)
(3.98791 -0.00212108 0)
(3.98802 -0.00201441 0)
(3.98796 -0.0019887 0)
(3.98796 -0.00210731 0)
(3.98792 -0.00223589 0)
(3.98787 -0.00242829 0)
(3.98783 -0.00260499 0)
(3.98782 -0.00258541 0)
(3.98775 -0.00237806 0)
(4.04646 -0.262379 0)
(4.04648 -0.262385 0)
(4.04651 -0.262387 0)
(4.04653 -0.262385 0)
(4.04656 -0.262385 0)
(4.04659 -0.262382 0)
(4.04662 -0.262377 0)
(4.04665 -0.262375 0)
(4.04668 -0.262371 0)
(4.04672 -0.262362 0)
(4.04676 -0.262358 0)
(4.04681 -0.262365 0)
(4.04688 -0.262374 0)
(4.04698 -0.262387 0)
(4.04701 -0.262396 0)
(4.04708 -0.26241 0)
(4.04723 -0.262401 0)
(4.04737 -0.262406 0)
(4.04742 -0.262404 0)
(4.04747 -0.262383 0)
(4.04749 -0.262375 0)
(4.04756 -0.262366 0)
(4.04764 -0.262366 0)
(4.0477 -0.262373 0)
(4.04774 -0.26239 0)
(4.04779 -0.262405 0)
(4.04787 -0.262376 0)
(4.04795 -0.262314 0)
(4.04798 -0.262281 0)
(4.048 -0.262208 0)
(4.04802 -0.262087 0)
(4.04802 -0.261973 0)
(4.048 -0.261911 0)
(4.04799 -0.261867 0)
(4.04799 -0.261799 0)
(4.04799 -0.261695 0)
(4.04798 -0.261602 0)
(4.04797 -0.261554 0)
(4.04793 -0.261503 0)
(4.04793 -0.261513 0)
(4.04798 -0.261544 0)
(4.04805 -0.261562 0)
(4.0481 -0.261577 0)
(4.04829 -0.26168 0)
(4.04837 -0.261739 0)
(4.04848 -0.261748 0)
(4.04858 -0.261773 0)
(4.04863 -0.261738 0)
(4.04867 -0.261669 0)
(4.04869 -0.261621 0)
(4.04864 -0.261383 0)
(4.0485 -0.260798 0)
(4.04811 -0.259103 0)
(4.04707 -0.255389 0)
(4.04523 -0.247624 0)
(4.04146 -0.233362 0)
(4.0377 -0.214688 0)
(4.03015 -0.178503 0)
(4.02803 -0.158997 0)
(4.01863 -0.10445 0)
(4.01891 -0.10082 0)
(4.01198 -0.0566111 0)
(4.01798 -0.0631945 0)
(4.00563 -0.0350346 0)
(4.00371 -0.0289596 0)
(3.99961 -0.0190058 0)
(3.99643 -0.00971421 0)
(3.99288 -0.00380659 0)
(3.99136 0.000172639 0)
(3.9909 -0.000286725 0)
(3.98958 -0.00280987 0)
(3.98884 -0.00457734 0)
(3.98925 -0.00700936 0)
(3.98876 -0.00618803 0)
(3.98898 -0.00465695 0)
(3.98946 -0.00227844 0)
(3.98942 -0.00167995 0)
(3.98908 -0.00182699 0)
(3.98885 -0.00266031 0)
(3.98836 -0.00275675 0)
(3.9884 -0.00254381 0)
(3.98865 -0.00185668 0)
(3.98852 -0.00200255 0)
(3.9885 -0.00233452 0)
(3.98848 -0.00288214 0)
(3.98866 -0.00290552 0)
(3.98853 -0.0026278 0)
(3.98853 -0.00222917 0)
(3.98856 -0.0021375 0)
(3.98864 -0.00244748 0)
(3.98873 -0.00220302 0)
(3.98884 -0.00206114 0)
(3.98901 -0.00204451 0)
(3.98909 -0.00208646 0)
(3.98914 -0.00213516 0)
(3.98915 -0.00218955 0)
(3.98913 -0.00240035 0)
(3.98909 -0.00254659 0)
(3.98907 -0.00257207 0)
(3.989 -0.00249577 0)
(4.04758 -0.262086 0)
(4.04759 -0.262081 0)
(4.04761 -0.262073 0)
(4.04763 -0.26207 0)
(4.04765 -0.262062 0)
(4.04767 -0.26205 0)
(4.04768 -0.262042 0)
(4.04772 -0.262028 0)
(4.04776 -0.26202 0)
(4.04779 -0.262004 0)
(4.04783 -0.261993 0)
(4.04787 -0.261993 0)
(4.04791 -0.261997 0)
(4.04801 -0.261998 0)
(4.04806 -0.261998 0)
(4.04814 -0.26201 0)
(4.0482 -0.26203 0)
(4.04824 -0.262048 0)
(4.04826 -0.26205 0)
(4.04827 -0.262053 0)
(4.04829 -0.262074 0)
(4.04834 -0.262048 0)
(4.04838 -0.261988 0)
(4.04841 -0.26199 0)
(4.04843 -0.262015 0)
(4.04846 -0.26204 0)
(4.04851 -0.261974 0)
(4.04857 -0.261844 0)
(4.04858 -0.261782 0)
(4.0486 -0.26176 0)
(4.04867 -0.261677 0)
(4.04875 -0.26155 0)
(4.04878 -0.261497 0)
(4.04878 -0.26146 0)
(4.04879 -0.261343 0)
(4.0488 -0.261216 0)
(4.0488 -0.26116 0)
(4.0488 -0.261161 0)
(4.0488 -0.261211 0)
(4.04879 -0.261201 0)
(4.04881 -0.261203 0)
(4.04886 -0.261226 0)
(4.04892 -0.261203 0)
(4.049 -0.261248 0)
(4.04909 -0.261322 0)
(4.04911 -0.261343 0)
(4.04915 -0.261388 0)
(4.0492 -0.26144 0)
(4.04927 -0.261499 0)
(4.0493 -0.261695 0)
(4.04933 -0.261764 0)
(4.04937 -0.261749 0)
(4.04944 -0.26177 0)
(4.04925 -0.261383 0)
(4.0491 -0.26102 0)
(4.04867 -0.260104 0)
(4.04784 -0.25763 0)
(4.04604 -0.251371 0)
(4.04346 -0.240137 0)
(4.03776 -0.215854 0)
(4.03441 -0.19363 0)
(4.02262 -0.138739 0)
(4.02631 -0.121159 0)
(4.01233 -0.0500016 0)
(4.0164 -0.0469275 0)
(4.00516 -0.00246971 0)
(4.00213 0.00247845 0)
(3.9987 0.0178267 0)
(3.99449 0.00772828 0)
(3.99139 -0.00176014 0)
(3.99082 -0.00585561 0)
(3.99076 -0.00606893 0)
(3.99097 -0.00585594 0)
(3.99122 -0.00376707 0)
(3.99159 -0.000637499 0)
(3.99135 -0.00080149 0)
(3.99061 -0.0020451 0)
(3.99021 -0.00338628 0)
(3.98965 -0.00349731 0)
(3.98967 -0.00287115 0)
(3.98976 -0.00163339 0)
(3.9896 -0.00159082 0)
(3.98938 -0.00192982 0)
(3.98922 -0.00276786 0)
(3.98926 -0.00292371 0)
(3.98939 -0.0028191 0)
(3.98938 -0.00251384 0)
(3.98927 -0.00242157 0)
(3.98913 -0.00252686 0)
(3.98921 -0.00261564 0)
(3.98914 -0.00232392 0)
(3.98923 -0.00204111 0)
(3.98942 -0.0019532 0)
(3.98969 -0.00210374 0)
(3.98979 -0.00215399 0)
(3.98985 -0.00219592 0)
(3.98992 -0.00236333 0)
(3.98994 -0.00257597 0)
(3.98992 -0.00258204 0)
(3.98986 -0.00249545 0)
(4.04867 -0.26171 0)
(4.04869 -0.261687 0)
(4.0487 -0.261666 0)
(4.04871 -0.261664 0)
(4.04873 -0.261657 0)
(4.04874 -0.261645 0)
(4.04875 -0.261631 0)
(4.04879 -0.2616 0)
(4.04883 -0.261581 0)
(4.04884 -0.261554 0)
(4.04886 -0.261503 0)
(4.0489 -0.26147 0)
(4.04894 -0.261465 0)
(4.049 -0.261458 0)
(4.04906 -0.261448 0)
(4.04909 -0.261472 0)
(4.04911 -0.261515 0)
(4.04911 -0.261506 0)
(4.04909 -0.261436 0)
(4.04909 -0.261427 0)
(4.04911 -0.261414 0)
(4.04912 -0.261412 0)
(4.04913 -0.261403 0)
(4.04913 -0.261401 0)
(4.04914 -0.261419 0)
(4.04914 -0.261433 0)
(4.04916 -0.261385 0)
(4.04917 -0.261349 0)
(4.04918 -0.261276 0)
(4.04916 -0.261241 0)
(4.04918 -0.261193 0)
(4.04926 -0.261082 0)
(4.04933 -0.261005 0)
(4.04937 -0.261012 0)
(4.0494 -0.260986 0)
(4.04942 -0.260899 0)
(4.04942 -0.26081 0)
(4.0494 -0.260766 0)
(4.04935 -0.26074 0)
(4.04929 -0.260694 0)
(4.04923 -0.260629 0)
(4.0492 -0.260598 0)
(4.04925 -0.260632 0)
(4.04932 -0.260689 0)
(4.04933 -0.260789 0)
(4.04936 -0.260918 0)
(4.04941 -0.261055 0)
(4.04944 -0.261186 0)
(4.04947 -0.261316 0)
(4.04952 -0.261468 0)
(4.04963 -0.261577 0)
(4.04967 -0.261651 0)
(4.04969 -0.261697 0)
(4.04965 -0.261791 0)
(4.04951 -0.261764 0)
(4.04928 -0.261665 0)
(4.04908 -0.261452 0)
(4.04898 -0.261273 0)
(4.04872 -0.260675 0)
(4.04808 -0.258639 0)
(4.04677 -0.252992 0)
(4.04376 -0.241395 0)
(4.03982 -0.221342 0)
(4.03246 -0.185886 0)
(4.02876 -0.158741 0)
(4.01925 -0.103973 0)
(4.01764 -0.0922038 0)
(4.01225 -0.0564043 0)
(4.01761 -0.0518334 0)
(4.00483 -0.028679 0)
(4.00021 -0.0174788 0)
(3.99905 -0.0111339 0)
(3.99369 -0.00425963 0)
(3.99179 0.000669228 0)
(3.99102 -0.000765997 0)
(3.9903 -0.00318184 0)
(3.9902 -0.00574485 0)
(3.99032 -0.00541405 0)
(3.99045 -0.0041014 0)
(3.9909 -0.001744 0)
(3.99075 -0.00152755 0)
(3.99019 -0.0020814 0)
(3.98976 -0.00304331 0)
(3.98967 -0.00304848 0)
(3.98967 -0.00263314 0)
(3.98966 -0.00233002 0)
(3.98962 -0.00236679 0)
(3.98953 -0.00260602 0)
(3.98944 -0.00289444 0)
(3.98941 -0.00265482 0)
(3.98941 -0.00226896 0)
(3.98949 -0.00212256 0)
(3.9895 -0.00229209 0)
(3.98991 -0.00221745 0)
(3.99001 -0.00217812 0)
(3.99018 -0.00226934 0)
(3.99032 -0.00237664 0)
(3.99042 -0.00246528 0)
(3.9905 -0.00252961 0)
(3.99044 -0.00251662 0)
(4.04942 -0.261356 0)
(4.04942 -0.261335 0)
(4.0494 -0.261338 0)
(4.04939 -0.261311 0)
(4.04942 -0.261247 0)
(4.04942 -0.261228 0)
(4.04942 -0.261229 0)
(4.04941 -0.261222 0)
(4.04944 -0.261194 0)
(4.04945 -0.261171 0)
(4.04946 -0.261141 0)
(4.04949 -0.261109 0)
(4.04951 -0.261106 0)
(4.04953 -0.261114 0)
(4.04956 -0.261107 0)
(4.0496 -0.261105 0)
(4.04961 -0.261161 0)
(4.04961 -0.261194 0)
(4.04959 -0.261137 0)
(4.0496 -0.2611 0)
(4.04958 -0.261129 0)
(4.04959 -0.261176 0)
(4.04959 -0.261181 0)
(4.04957 -0.261137 0)
(4.04961 -0.261066 0)
(4.04964 -0.261058 0)
(4.04966 -0.261089 0)
(4.04968 -0.261067 0)
(4.04971 -0.261033 0)
(4.04975 -0.261034 0)
(4.04976 -0.261039 0)
(4.04981 -0.261023 0)
(4.04983 -0.260998 0)
(4.04982 -0.261 0)
(4.04979 -0.261002 0)
(4.04979 -0.26095 0)
(4.04978 -0.260877 0)
(4.04975 -0.26083 0)
(4.04971 -0.26079 0)
(4.04965 -0.260732 0)
(4.04958 -0.260662 0)
(4.04952 -0.260607 0)
(4.04947 -0.260574 0)
(4.04945 -0.260572 0)
(4.04943 -0.260602 0)
(4.04938 -0.260712 0)
(4.04933 -0.260843 0)
(4.04928 -0.260947 0)
(4.04923 -0.261035 0)
(4.04923 -0.26118 0)
(4.04932 -0.261354 0)
(4.04944 -0.261511 0)
(4.04956 -0.261658 0)
(4.0496 -0.261747 0)
(4.04959 -0.261765 0)
(4.04949 -0.261776 0)
(4.04926 -0.261848 0)
(4.04901 -0.261844 0)
(4.04894 -0.261679 0)
(4.04895 -0.261631 0)
(4.04896 -0.26158 0)
(4.04882 -0.26098 0)
(4.0483 -0.259023 0)
(4.04648 -0.252046 0)
(4.04378 -0.240505 0)
(4.03623 -0.20824 0)
(4.03354 -0.186599 0)
(4.01795 -0.112692 0)
(4.02497 -0.100154 0)
(4.00986 -0.0241935 0)
(4.00928 -0.0229572 0)
(4.0034 0.0140644 0)
(3.99689 0.00959952 0)
(3.99327 0.00246623 0)
(3.99217 -0.00412573 0)
(3.99095 -0.00676527 0)
(3.99125 -0.00657408 0)
(3.99167 -0.00431718 0)
(3.99196 8.81856e-05 0)
(3.99168 -0.000199411 0)
(3.99062 -0.0019169 0)
(3.99013 -0.00359034 0)
(3.98995 -0.00354329 0)
(3.98993 -0.00284689 0)
(3.99 -0.0015416 0)
(3.98989 -0.00176911 0)
(3.98969 -0.00233823 0)
(3.98954 -0.00309151 0)
(3.98953 -0.00292691 0)
(3.98946 -0.00249617 0)
(3.98945 -0.00229142 0)
(3.98942 -0.00238892 0)
(3.98951 -0.00245785 0)
(3.98975 -0.00226485 0)
(3.98991 -0.00218623 0)
(3.99009 -0.00223406 0)
(3.99031 -0.00238022 0)
(3.99054 -0.00243324 0)
(3.99077 -0.0024819 0)
(3.99074 -0.00247339 0)
(4.04947 -0.261589 0)
(4.04945 -0.261583 0)
(4.04942 -0.26157 0)
(4.04941 -0.261499 0)
(4.04941 -0.261441 0)
(4.04942 -0.261408 0)
(4.04941 -0.261397 0)
(4.04941 -0.261372 0)
(4.04942 -0.261335 0)
(4.04943 -0.261315 0)
(4.04942 -0.261296 0)
(4.04942 -0.26125 0)
(4.04944 -0.261225 0)
(4.04947 -0.261204 0)
(4.04949 -0.261149 0)
(4.04952 -0.261125 0)
(4.04952 -0.261183 0)
(4.04952 -0.261225 0)
(4.04951 -0.261194 0)
(4.04951 -0.261157 0)
(4.04949 -0.261186 0)
(4.04949 -0.261219 0)
(4.04949 -0.261221 0)
(4.04948 -0.261162 0)
(4.04949 -0.261083 0)
(4.04952 -0.261051 0)
(4.04956 -0.261081 0)
(4.04959 -0.261116 0)
(4.04964 -0.26112 0)
(4.04969 -0.261146 0)
(4.04972 -0.261188 0)
(4.04973 -0.261197 0)
(4.04973 -0.26119 0)
(4.04973 -0.261207 0)
(4.04973 -0.261244 0)
(4.04972 -0.261264 0)
(4.04972 -0.261249 0)
(4.04971 -0.261216 0)
(4.0497 -0.261202 0)
(4.04968 -0.261168 0)
(4.04965 -0.261079 0)
(4.0496 -0.260936 0)
(4.04952 -0.260782 0)
(4.04943 -0.260651 0)
(4.04938 -0.260609 0)
(4.0493 -0.260627 0)
(4.04918 -0.260709 0)
(4.04905 -0.260824 0)
(4.04894 -0.260969 0)
(4.04888 -0.261159 0)
(4.04892 -0.261298 0)
(4.04902 -0.261367 0)
(4.04914 -0.261437 0)
(4.04927 -0.261537 0)
(4.04934 -0.261659 0)
(4.04933 -0.261673 0)
(4.04925 -0.261688 0)
(4.04906 -0.261698 0)
(4.04885 -0.261716 0)
(4.04881 -0.261718 0)
(4.04884 -0.261668 0)
(4.04888 -0.261672 0)
(4.04895 -0.261805 0)
(4.04892 -0.261652 0)
(4.04863 -0.260727 0)
(4.04772 -0.257802 0)
(4.04575 -0.249343 0)
(4.04104 -0.231281 0)
(4.03635 -0.205314 0)
(4.02605 -0.150714 0)
(4.02532 -0.133287 0)
(4.01415 -0.0653412 0)
(4.0224 -0.0737826 0)
(4.00704 -0.0369918 0)
(4.00724 -0.028948 0)
(3.99932 -0.0140703 0)
(3.99616 -0.00693301 0)
(3.99266 -1.96982e-05 0)
(3.9915 -0.00102629 0)
(3.99001 -0.00431946 0)
(3.98979 -0.0055251 0)
(3.98985 -0.00518693 0)
(3.99011 -0.00357096 0)
(3.99041 -0.00142809 0)
(3.99021 -0.00145922 0)
(3.98974 -0.00227825 0)
(3.98946 -0.0034061 0)
(3.98952 -0.00311479 0)
(3.98952 -0.00270987 0)
(3.98939 -0.00216887 0)
(3.98926 -0.0022775 0)
(3.98905 -0.00284378 0)
(3.98917 -0.00276552 0)