/*--------------------------------*- C++ -*----------------------------------*\
  =========                 |
  \\      /  F ield         | OpenFOAM: The Open Source CFD Toolbox
   \\    /   O peration     | Website:  https://openfoam.org
    \\  /    A nd           | Version:  7
     \\/     M anipulation  |
\*---------------------------------------------------------------------------*/
FoamFile
{
    version     2.0;
    format      ascii;
    class       volScalarField;
    location    "9.1";
    object      T;
}
// * * * * * * * * * * * * * * * * * * * * * * * * * * * * * * * * * * * * * //

dimensions      [0 0 0 1 0 0 0];

internalField   nonuniform List<scalar> 
1750
(
1.47797
1.58146
1.52877
1.43159
1.43554
1.45577
1.44802
1.4532
1.47747
1.48713
0.41926
1.04386
1.79582
1.93266
1.89953
1.82527
1.74549
1.71155
1.6913
1.65169
0.347831
0.351733
0.618512
1.28344
1.60553
1.77294
1.80802
1.7936
1.75364
1.70327
0.400597
0.409159
0.422879
0.436783
0.565678
0.912039
1.23302
1.4073
1.48553
1.55615
0.478347
0.500599
0.510286
0.516904
0.516646
0.530487
0.553536
0.689495
0.894534
1.15963
0.567212
0.585368
0.58592
0.5868
0.595978
0.604366
0.614257
0.620972
0.624883
0.724925
0.682741
0.684299
0.686891
0.689804
0.689513
0.689666
0.690505
0.693103
0.693462
0.689768
0.815315
0.805827
0.795113
0.785164
0.778786
0.77274
0.764636
0.75643
0.751356
0.743477
0.938893
0.925242
0.910397
0.894685
0.880013
0.866628
0.854332
0.840305
0.828359
0.81382
1.01054
1.00357
0.994871
0.984327
0.972191
0.95845
0.943582
0.92792
0.913134
0.88949
1.02288
1.02211
1.02087
1.01902
1.01613
1.01177
1.00534
0.996707
0.986834
0.96636
1.01742
1.01825
1.01886
1.01869
1.01848
1.01814
1.01754
1.01646
1.0149
1.00881
1.00478
1.0062
1.0078
1.00951
1.01115
1.01253
1.01363
1.01438
1.0145
1.01414
1.00028
1.00048
1.00078
1.00126
1.00196
1.00293
1.00411
1.00562
1.00716
1.00939
1
1.00001
1.00002
1.00004
1.00008
1.00015
1.0003
1.00057
1.001
1.00242
0.470953
0.396561
0.346678
0.399441
0.454996
0.554525
0.682151
0.824724
0.952157
1.01533
1.02334
1.01607
1.00368
1.00019
1
0.498461
0.413769
0.365681
0.407014
0.482114
0.596499
0.737467
0.875885
0.982702
1.02315
1.02378
1.01354
1.00214
1.00008
1
0.511692
0.420177
0.386371
0.403957
0.506254
0.643848
0.781746
0.910914
1.00015
1.02577
1.02392
1.0106
1.00119
1.00003
1
0.521339
0.423827
0.391917
0.419514
0.549944
0.692352
0.824145
0.945237
1.01503
1.02735
1.02208
1.00739
1.00063
1.00002
1
0.522076
0.414491
0.382821
0.488029
0.611021
0.735203
0.867951
0.978309
1.02488
1.02808
1.01937
1.00492
1.0003
1.00001
1
0.506229
0.376562
0.384303
0.525293
0.641168
0.781331
0.919902
1.00404
1.02941
1.02832
1.01575
1.0028
1.00012
1
1
0.483717
0.355648
0.430474
0.556315
0.700575
0.851948
0.962255
1.02
1.03111
1.0269
1.01126
1.00133
1.00005
1
1
0.422092
0.390398
0.476368
0.603735
0.769691
0.908981
0.994338
1.02923
1.03157
1.02304
1.00702
1.0006
1.00002
1
1
0.401419
0.392792
0.503708
0.690221
0.850076
0.956657
1.01759
1.03317
1.03148
1.01834
1.00392
1.00024
1.00001
1
1
0.445777
0.41952
0.568179
0.77939
0.915795
0.996748
1.03052
1.03421
1.02839
1.01262
1.00178
1.00008
1
1
1
0.497342
0.499757
0.716529
0.872805
0.971207
1.02234
1.0356
1.03446
1.02399
1.00739
1.00072
1.00002
1
1
1
0.0831428
0.536701
0.813757
0.948335
1.01283
1.03459
1.03688
1.03227
1.01704
1.00336
1.00022
1.00001
1
1
1
0.229505
0.693525
0.907518
1.00255
1.03346
1.03853
1.0371
1.02706
1.0095
1.0012
1.00005
1
1
1
1
0.480638
0.826459
0.991899
1.03302
1.03988
1.03917
1.03318
1.01785
1.0042
1.00034
1.00001
1
1
1
1
0.823668
0.983956
1.03747
1.04212
1.04064
1.03739
1.02612
1.00984
1.00141
1.00007
1
1
1
1
1
1.0537
1.05132
1.04761
1.0426
1.03774
1.03198
1.01671
1.00356
1.00016
1
1
1
1
1
1
1.05486
1.0523
1.0477
1.04148
1.03786
1.03024
1.01566
1.00346
1.00027
1.00001
1
1
1
1
1
1.05555
1.05256
1.04803
1.04089
1.03582
1.02557
1.00933
1.00115
1.00004
1
1
1
1
1
1
1.05647
1.05281
1.04755
1.03983
1.03313
1.02087
1.00614
1.00057
1.00002
1
1
1
1
1
1
1.05692
1.05306
1.0469
1.03863
1.03032
1.01637
1.00334
1.0002
1
1
1
1
1
1
1
1.05734
1.05319
1.04583
1.03715
1.02649
1.01055
1.00149
1.00007
1
1
1
1
1
1
1
1.05822
1.05309
1.04304
1.03397
1.02117
1.0066
1.00066
1.00002
1
1
1
1
1
1
1
1.05968
1.05341
1.041
1.03075
1.0165
1.00358
1.00023
1.00001
1
1
1
1
1
1
1
1.06145
1.05417
1.03949
1.02616
1.0101
1.00141
1.00007
1
1
1
1
1
1
1
1
1.06237
1.05308
1.03617
1.01969
1.00548
1.00053
1.00002
1
1
1
1
1
1
1
1
1.06285
1.05003
1.03223
1.0139
1.00261
1.00015
1
1
1
1
1
1
1
1
1
1.0648
1.04715
1.0257
1.00773
1.00086
1.00003
1
1
1
1
1
1
1
1
1
1.06563
1.04207
1.01712
1.00333
1.00023
1.00001
1
1
1
1
1
1
1
1
1
1.06504
1.03451
1.00986
1.00115
1.00005
1
1
1
1
1
1
1
1
1
1
1.06721
1.02291
1.0033
1.00021
1.00001
1
1
1
1
1
1
1
1
1
1
1.06898
1.00823
1.00063
1.00003
1
1
1
1
1
1
1
1
1
1
1
1
1
1
1
1
1
1
1
1
1
1
1
1
1
1
1
1
1
1
1
1
1
1
1
1
1
1
1
1
1
1
1
1
1
1
1
1
1
1
1
1
1
1
1
1
1
1
1
1
1
1
1
1
1
1
1
1
1
1
1
1
1
1
1
1
1
1
1
1
1
1
1
1
1
1
1
1
1
1
1
1
1
1
1
1
1
1
1
1
1
1
1
1
1
1
1
1
1
1
1
1
1
1
1
1
1
1
1
1
1
1
1
1
1
1
1
1
1
1
1
1
1
1
1
1
1
1
1
1
1
1
1
1
1
1
1.26902
1
1
1
1
1
1
1
1
1
1.06048
1
1
1
1
1
1
1
1
1
1.00702
1
1
1
1
1
1
1
1
1
1.0012
1
1
1
1
1
1
1
1
1
1.0002
1
1
1
1
1
1
1
1
1
1.00003
1
1
1
1
1
1
1
1
1
1
1
1
1
1
1
1
1
1
1
1
1
1
1
1
1
1
1
1
1
1
1
1
1
1
1
1
1
1
1
1
1
1
1
1
1
1
1
1
1
1
1
1
1
1
1
1
1
1
1
1
1
1
1
1
1
1
1
1
1
1
1
1
1
1
1
1
1
1
1
1
1
1
1
1
1
1
1
1
1
1
1
1
1
1
1
1
1
1
1
1
1
1
1
1
1
1
1
1
1
1
1
1
1
1
1
1
1
1
1
1
1
1
1
1
1
1
1
1
1
1
1
1
1
1
1
1
1
1
1
1
1
1
1
1
1
1
1
1
1
2.59894
2.13395
1.34892
1.00054
1.00009
1.00002
1
1
1
1
1
1
1
1
1
1
1
1
1
1
2.59703
2.48371
2.26632
1.8644
1.09794
1.00001
1
1
1
1
1
1
1
1
1
1
1
1
1
1
2.55899
2.49262
2.42774
2.30846
2.07164
1.2828
0.999899
1
1
1
1
1
1
1
1
1
1
1
1
1
2.52631
2.48404
2.42352
2.36486
2.32317
2.14502
1.40013
0.999562
1
1
1
1
1
1
1
1
1
1
1
1
2.50533
2.47461
2.42545
2.37177
2.34456
2.32402
2.18019
1.46396
0.999253
1
1
1
1
1
1
1
1
1
1
1
2.48958
2.46572
2.42399
2.37285
2.34022
2.32096
2.30036
2.169
1.46043
0.999123
1
1
1
1
1
1
1
1
1
1
2.47622
2.45687
2.42107
2.37216
2.33855
2.31734
2.30777
2.29712
2.17061
1.41435
0.998945
1
1
1
1
1
1
1
1
1
2.46427
2.44793
2.41672
2.37081
2.33645
2.31444
2.30276
2.29475
2.28585
2.09477
1.30199
0.998943
1
1
1
1
1
1
1
1
2.45361
2.43955
2.41163
2.36781
2.33372
2.31158
2.29892
2.28955
2.28255
2.26087
1.91259
1.12431
0.999493
1
1
1
1
1
1
1
2.4439
2.43181
2.40621
2.36512
2.33178
2.30911
2.29492
2.2855
2.27623
2.27193
2.22528
1.69881
1.02828
0.999871
1
1
1
1
1
1
2.43503
2.4242
2.40087
2.36311
2.33069
2.3071
2.29174
2.28255
2.27334
2.2662
2.25559
2.15904
1.48731
1.00274
1
1
1
1
1
1
2.42648
2.41648
2.39562
2.36125
2.32959
2.30533
2.28926
2.27906
2.27059
2.26295
2.2552
2.24531
2.05041
1.26424
0.999387
0.999997
1
1
1
1
2.41722
2.40798
2.38932
2.35736
2.32625
2.30119
2.28386
2.27247
2.26296
2.254
2.24609
2.2396
2.21564
1.79759
1.06704
0.999738
0.99999
1
1
1
2.40448
2.39325
2.3735
2.34137
2.3093
2.28231
2.26328
2.25106
2.24082
2.23186
2.22548
2.21931
2.20993
2.11985
1.47401
1.00617
1.00001
1
1
1
2.36502
2.32841
2.29945
2.26744
2.23979
2.21919
2.20656
2.20017
2.19423
2.19028
2.18799
2.18559
2.18158
2.17469
1.91313
1.144
0.996152
0.999839
0.999999
1
1.7473
1.94476
2.00561
2.04788
2.07436
2.08313
2.09476
2.10489
2.11428
2.12303
2.12856
2.13449
2.14158
2.15179
2.11915
1.71031
1.09279
1.00083
1
1
1.35987
1.67655
1.76547
1.82879
1.89238
1.9379
1.97187
1.99942
2.02426
2.042
2.06105
2.07189
2.0886
2.10915
2.10995
2.03871
1.51994
1.03862
1.00031
1
1.38247
1.52492
1.58877
1.67287
1.73915
1.80456
1.85231
1.89811
1.93437
1.96304
1.9897
2.0095
2.03205
2.0574
2.07918
2.06364
1.87081
1.28089
1.00844
1.00004
1.42775
1.45692
1.45336
1.53508
1.61548
1.68547
1.74512
1.79881
1.84263
1.88728
1.91483
1.94777
1.97282
2.0052
2.02863
2.04018
1.99998
1.63939
1.09442
1.00121
1.4773
1.42538
1.37855
1.43295
1.50121
1.57767
1.64923
1.70897
1.7624
1.8122
1.85184
1.89014
1.92151
1.95686
1.97986
1.9997
1.99414
1.8574
1.3505
1.0163
1.49093
1.42756
1.38208
1.39511
1.43371
1.49657
1.56837
1.6317
1.69237
1.74088
1.79137
1.83165
1.87308
1.90699
1.93335
1.95302
1.9737
1.93059
1.6131
1.10896
1.48264
1.43374
1.39199
1.36909
1.37947
1.43573
1.50101
1.56153
1.62121
1.67259
1.72554
1.76962
1.81908
1.85813
1.88893
1.91498
1.93958
1.92735
1.7681
1.31947
1.4835
1.44743
1.39795
1.35709
1.33892
1.37194
1.42861
1.49706
1.55451
1.61177
1.66344
1.71938
1.7658
1.81677
1.85006
1.8781
1.90228
1.91462
1.83968
1.57567
1.49476
1.46653
1.41185
1.35746
1.33327
1.35673
1.38566
1.44438
1.50353
1.56124
1.61448
1.67588
1.72292
1.7723
1.81147
1.83724
1.86217
1.88585
1.85551
1.79753
1.49331
1.46624
1.41205
1.35912
1.34021
1.34269
1.35605
1.40442
1.45812
1.51336
1.56716
1.62658
1.68316
1.72186
1.76765
1.79986
1.82908
1.8481
1.88441
1.9799
1.48667
1.46207
1.41213
1.36639
1.34538
1.333
1.32893
1.36121
1.41238
1.46266
1.51933
1.56946
1.63784
1.68451
1.72945
1.7679
1.80063
1.82033
1.91773
2.14384
1.4806
1.45937
1.41894
1.37555
1.3457
1.32614
1.31545
1.33157
1.37072
1.42285
1.48081
1.53657
1.59588
1.6507
1.69325
1.73388
1.76502
1.80312
1.97921
2.30649
1.47526
1.45883
1.42494
1.38424
1.35128
1.32551
1.31293
1.32779
1.34875
1.39502
1.45025
1.50866
1.55998
1.61463
1.65186
1.69906
1.72504
1.7885
2.03715
2.39095
1.47049
1.45681
1.42322
1.3861
1.35157
1.32389
1.31212
1.31625
1.32587
1.36902
1.41765
1.47646
1.52263
1.57611
1.61462
1.65914
1.7027
1.79953
2.0956
2.44119
1.46615
1.45471
1.41978
1.38339
1.3495
1.32436
1.31352
1.30903
1.30453
1.33657
1.3841
1.43757
1.48785
1.53741
1.58929
1.62463
1.68055
1.84525
2.12866
2.4297
1.44306
1.43411
1.40838
1.37624
1.34809
1.32763
1.31727
1.30766
1.3005
1.32485
1.36236
1.40946
1.46157
1.50394
1.55952
1.60094
1.66873
1.92115
2.14248
2.39991
1.38042
1.38152
1.38597
1.36838
1.3496
1.33279
1.32117
1.30798
1.29933
1.3139
1.34022
1.38124
1.43345
1.47896
1.51955
1.57479
1.69387
2.00202
2.1393
2.34924
1.28857
1.31489
1.34693
1.3534
1.34774
1.33598
1.32111
1.30585
1.29935
1.30438
1.31676
1.35045
1.3899
1.4477
1.48761
1.55111
1.7601
2.06512
2.12456
2.28382
1.21919
1.24992
1.29612
1.32656
1.33771
1.33373
1.31998
1.30658
1.30245
1.30002
1.29827
1.32759
1.35855
1.4088
1.46458
1.56147
1.8641
2.10935
2.10071
2.20411
1.21095
1.20349
1.24106
1.28538
1.31431
1.32484
1.31935
1.31047
1.30423
1.29395
1.28527
1.30537
1.33929
1.37987
1.44274
1.6245
1.94496
2.09864
2.07162
2.11921
1.21202
1.1707
1.19139
1.24004
1.27796
1.30549
1.31525
1.3107
1.30178
1.2884
1.28033
1.29179
1.31387
1.35202
1.46208
1.73897
1.98554
2.06932
2.03326
2.03677
1.22153
1.16587
1.15876
1.18777
1.23424
1.27576
1.30086
1.30645
1.29782
1.28434
1.2764
1.27977
1.29051
1.35629
1.551
1.8429
1.97166
2.0288
1.98058
1.96066
1.2471
1.17704
1.14945
1.15535
1.18991
1.23522
1.27418
1.29249
1.2914
1.28105
1.27448
1.27433
1.28853
1.41397
1.67821
1.89066
1.93594
1.96789
1.92142
1.89143
1.2869
1.20827
1.15245
1.14365
1.15295
1.19096
1.2351
1.26881
1.28137
1.27637
1.27271
1.27745
1.34045
1.57628
1.80551
1.87759
1.87856
1.89756
1.86419
1.83734
1.34891
1.27604
1.21619
1.15808
1.14208
1.15113
1.17985
1.21968
1.25129
1.27449
1.32151
1.44202
1.60597
1.72267
1.78055
1.80611
1.78089
1.78655
1.76973
1.75354
)
;

boundaryField
{
    inlet
    {
        type            fixedValue;
        value           uniform 1;
    }
    outlet
    {
        type            inletOutlet;
        inletValue      uniform 1;
        value           nonuniform List<scalar> 
35
(
1.34891
1.276
1.21611
1.15791
1.14198
1.1511
1.17987
1.21964
1.25118
1.27421
1.32066
1.44054
1.60476
1.722
1.78027
1.8061
1.78092
1.78669
1.76975
1.75355
1.48705
1.65157
1.70337
1.55604
1.15926
0.724794
0.689674
0.74354
0.813876
0.889496
0.966371
1.00881
1.01413
1.00938
1.00242
)
;
    }
    airfoil
    {
        type            zeroGradient;
    }
    top
    {
        type            symmetryPlane;
    }
    bottom
    {
        type            symmetryPlane;
    }
    defaultFaces
    {
        type            empty;
    }
}


// ************************************************************************* //
