/*--------------------------------*- C++ -*----------------------------------*\
  =========                 |
  \\      /  F ield         | OpenFOAM: The Open Source CFD Toolbox
   \\    /   O peration     | Website:  https://openfoam.org
    \\  /    A nd           | Version:  7
     \\/     M anipulation  |
\*---------------------------------------------------------------------------*/
FoamFile
{
    version     2.0;
    format      ascii;
    class       volVectorField;
    location    "9.1";
    object      U;
}
// * * * * * * * * * * * * * * * * * * * * * * * * * * * * * * * * * * * * * //

dimensions      [0 1 -1 0 0 0 0];

internalField   nonuniform List<vector> 
1750
(
(2.2472 0.158565 0)
(2.29679 0.71061 0)
(2.36345 0.839408 0)
(2.50841 0.720815 0)
(2.61225 0.536144 0)
(2.68501 0.348773 0)
(2.73907 0.283044 0)
(2.73436 0.207445 0)
(2.70558 0.127791 0)
(2.67061 0.0997204 0)
(2.35932 -1.87728 0)
(2.40036 -1.2561 0)
(2.21328 -0.155242 0)
(2.1403 0.388092 0)
(2.14351 0.312988 0)
(2.26573 0.287811 0)
(2.40889 0.292657 0)
(2.4604 0.230758 0)
(2.46651 0.149972 0)
(2.51367 0.14337 0)
(2.70382 -2.13754 0)
(2.75388 -2.09833 0)
(2.647 -1.6749 0)
(2.43023 -0.87113 0)
(2.30889 -0.342572 0)
(2.23268 -0.022453 0)
(2.2329 0.0952592 0)
(2.25587 0.100361 0)
(2.35759 0.0897961 0)
(2.45554 0.090575 0)
(3.01165 -1.60953 0)
(3.02386 -1.66769 0)
(3.0667 -1.66082 0)
(3.02748 -1.7878 0)
(2.97875 -1.61433 0)
(2.75038 -0.923764 0)
(2.58544 -0.486021 0)
(2.60382 -0.233226 0)
(2.55769 -0.00201274 0)
(2.52534 0.0829355 0)
(3.0233 -1.63411 0)
(3.12677 -1.44736 0)
(3.09587 -1.4663 0)
(3.08805 -1.47817 0)
(3.10045 -1.3434 0)
(3.15029 -1.42079 0)
(3.13724 -1.3271 0)
(3.05835 -1.06747 0)
(2.95377 -0.769919 0)
(2.82446 -0.277931 0)
(3.11261 -1.32185 0)
(3.12186 -1.24575 0)
(3.14232 -1.15321 0)
(3.17894 -1.0942 0)
(3.15449 -1.11838 0)
(3.13165 -1.09861 0)
(3.13196 -1.05584 0)
(3.14458 -1.05141 0)
(3.14366 -1.05116 0)
(3.07871 -0.859886 0)
(3.14839 -0.880708 0)
(3.13847 -0.885731 0)
(3.13738 -0.890498 0)
(3.14483 -0.892444 0)
(3.14599 -0.887761 0)
(3.14284 -0.885426 0)
(3.1321 -0.892778 0)
(3.12786 -0.892859 0)
(3.13175 -0.884864 0)
(3.14213 -0.88522 0)
(3.1235 -0.529919 0)
(3.11918 -0.537141 0)
(3.11866 -0.552521 0)
(3.12407 -0.586216 0)
(3.12748 -0.606617 0)
(3.12913 -0.619267 0)
(3.12754 -0.623255 0)
(3.12584 -0.651144 0)
(3.12447 -0.670545 0)
(3.1297 -0.674835 0)
(3.05464 -0.174335 0)
(3.06121 -0.214787 0)
(3.06751 -0.256729 0)
(3.07144 -0.27635 0)
(3.08256 -0.323369 0)
(3.08995 -0.362783 0)
(3.09557 -0.39998 0)
(3.10011 -0.422062 0)
(3.10315 -0.448395 0)
(3.10845 -0.504023 0)
(2.9946 0.0195478 0)
(3.00246 -0.000740486 0)
(3.00822 -0.0177659 0)
(3.01815 -0.0474932 0)
(3.02776 -0.0774999 0)
(3.03615 -0.106563 0)
(3.04792 -0.152018 0)
(3.05581 -0.186805 0)
(3.06529 -0.228585 0)
(3.07705 -0.283593 0)
(2.98183 0.053258 0)
(2.98295 0.0514078 0)
(2.98465 0.0492544 0)
(2.98745 0.045168 0)
(2.99132 0.0381085 0)
(2.99623 0.0274719 0)
(3.00243 0.0118442 0)
(3.00978 -0.0101142 0)
(3.01771 -0.0355825 0)
(3.03276 -0.0874761 0)
(2.98676 0.0387422 0)
(2.98527 0.0426382 0)
(2.98562 0.0441996 0)
(2.98613 0.043933 0)
(2.9868 0.0433054 0)
(2.98748 0.0427054 0)
(2.98844 0.0413763 0)
(2.98993 0.0386746 0)
(2.99188 0.035303 0)
(2.99828 0.0201903 0)
(2.99605 0.0105697 0)
(2.99445 0.0144083 0)
(2.99334 0.0173805 0)
(2.99168 0.0224348 0)
(2.99107 0.024954 0)
(2.98975 0.0297156 0)
(2.98979 0.0309549 0)
(2.98878 0.0339652 0)
(2.98971 0.0334647 0)
(2.99017 0.0326922 0)
(2.99972 0.000645199 0)
(2.99952 0.00103854 0)
(2.99918 0.0017646 0)
(2.99872 0.00279345 0)
(2.99802 0.0044487 0)
(2.99714 0.00657189 0)
(2.99607 0.0094378 0)
(2.99482 0.0127964 0)
(2.99344 0.0165115 0)
(2.99215 0.0216846 0)
(2.99999 8.83004e-06 0)
(2.99999 1.6426e-05 0)
(2.99998 3.36832e-05 0)
(2.99995 6.58563e-05 0)
(2.9999 0.000137489 0)
(2.99981 0.000265365 0)
(2.99961 0.000533905 0)
(2.99928 0.000955148 0)
(2.99872 0.00171753 0)
(2.997 0.00374281 0)
(1.93756 -1.49413 0)
(2.25906 -1.69362 0)
(2.52688 -2.09981 0)
(2.88309 -1.75525 0)
(2.98771 -1.72578 0)
(3.11194 -1.29752 0)
(3.15698 -0.868983 0)
(3.11627 -0.43769 0)
(3.03704 -0.122009 0)
(2.9884 0.0318622 0)
(2.98106 0.0543128 0)
(2.98685 0.0382515 0)
(2.9968 0.0087529 0)
(2.99982 0.000433329 0)
(3 5.76513e-06 0)
(1.93737 -1.49721 0)
(2.33008 -1.8037 0)
(2.58279 -2.03223 0)
(2.95156 -1.63523 0)
(3.02241 -1.68087 0)
(3.15508 -1.05076 0)
(3.15219 -0.684448 0)
(3.09105 -0.339652 0)
(3.01745 -0.0631179 0)
(2.98158 0.0519855 0)
(2.98057 0.0551238 0)
(2.9886 0.0325652 0)
(2.99821 0.00473599 0)
(2.99993 0.000170271 0)
(3 2.17593e-06 0)
(1.87554 -1.4787 0)
(2.21299 -1.7384 0)
(2.57904 -1.9161 0)
(2.91244 -1.80567 0)
(3.12801 -1.4442 0)
(3.14671 -0.860708 0)
(3.13155 -0.612009 0)
(3.07174 -0.273834 0)
(3.00341 -0.0118298 0)
(2.97914 0.0599018 0)
(2.98052 0.054882 0)
(2.99236 0.0221144 0)
(2.99898 0.00276722 0)
(2.99997 7.81342e-05 0)
(3 9.24561e-07 0)
(1.79411 -1.42915 0)
(2.16284 -1.73874 0)
(2.58624 -1.87476 0)
(2.78532 -1.8883 0)
(3.06963 -0.996158 0)
(3.12886 -0.980494 0)
(3.11295 -0.556076 0)
(3.04938 -0.158674 0)
(2.99135 0.0301267 0)
(2.97745 0.0641412 0)
(2.9823 0.0494513 0)
(2.99376 0.0178696 0)
(2.99947 0.00143627 0)
(2.99999 3.45156e-05 0)
(3 3.77347e-07 0)
(1.70893 -1.37587 0)
(2.11913 -1.75237 0)
(2.60077 -1.78766 0)
(2.89209 -1.61442 0)
(3.11917 -1.15361 0)
(3.12783 -0.858487 0)
(3.09267 -0.331348 0)
(3.02326 -0.0547123 0)
(2.98083 0.0568293 0)
(2.97645 0.0653307 0)
(2.98333 0.0463176 0)
(2.99562 0.0121162 0)
(2.99972 0.000705453 0)
(2.99999 1.43415e-05 0)
(3 1.49272e-07 0)
(1.52346 -1.43232 0)
(2.12595 -1.75029 0)
(2.60932 -1.72156 0)
(2.96519 -1.25341 0)
(3.07124 -1.24136 0)
(3.12247 -0.517295 0)
(3.07321 -0.209624 0)
(3.00535 -0.0083517 0)
(2.97636 0.0658352 0)
(2.97618 0.064813 0)
(2.9859 0.0386066 0)
(2.99789 0.00573427 0)
(2.99989 0.000275997 0)
(3 5.25802e-06 0)
(3 5.45137e-08 0)
(1.25177 -1.49843 0)
(2.13408 -1.77927 0)
(2.59804 -1.69954 0)
(2.9938 -1.27127 0)
(3.14601 -0.875912 0)
(3.11777 -0.394999 0)
(3.04776 -0.133418 0)
(2.98731 0.0406747 0)
(2.97431 0.0702901 0)
(2.97817 0.0579142 0)
(2.99169 0.0232415 0)
(2.99887 0.00320042 0)
(2.99996 0.00010751 0)
(3 1.8634e-06 0)
(3 1.88565e-08 0)
(1.21073 -1.20699 0)
(1.9597 -1.70516 0)
(2.55457 -1.68249 0)
(2.96932 -1.3313 0)
(3.11784 -0.489387 0)
(3.09808 -0.323539 0)
(3.01693 -0.0346521 0)
(2.97804 0.0643498 0)
(2.97375 0.0716261 0)
(2.98021 0.0548802 0)
(2.99439 0.0163127 0)
(2.99952 0.00139278 0)
(2.99999 3.8278e-05 0)
(3 6.27318e-07 0)
(3 6.16259e-09 0)
(1.07933 -1.03871 0)
(2.03926 -1.44079 0)
(2.66118 -1.47597 0)
(3.08013 -0.813337 0)
(3.13917 -0.509384 0)
(3.05601 -0.129694 0)
(2.99143 0.0379104 0)
(2.97291 0.0768575 0)
(2.9735 0.0726866 0)
(2.9841 0.0447483 0)
(2.99665 0.00998999 0)
(2.99981 0.000537654 0)
(3 1.28124e-05 0)
(3 1.98142e-07 0)
(3 1.88933e-09 0)
(1.19481 -0.861015 0)
(2.08222 -1.48646 0)
(2.85752 -0.847477 0)
(3.12252 -0.51053 0)
(3.10771 -0.296781 0)
(3.0195 -0.026881 0)
(2.97848 0.0677259 0)
(2.97159 0.0803443 0)
(2.97472 0.069987 0)
(2.99076 0.0264528 0)
(2.99884 0.00369549 0)
(2.99994 0.000179455 0)
(3 3.75481e-06 0)
(3 5.69962e-08 0)
(3 5.32679e-10 0)
(1.03435 -0.375834 0)
(2.20947 -1.19343 0)
(2.96686 -0.766 0)
(3.1334 -0.490477 0)
(3.05148 -0.0830027 0)
(2.99331 0.0416747 0)
(2.97194 0.0824897 0)
(2.97103 0.0817442 0)
(2.9783 0.0581364 0)
(2.99298 0.0194406 0)
(2.99936 0.00181543 0)
(2.99998 5.76452e-05 0)
(3 1.08502e-06 0)
(3 1.56488e-08 0)
(3 1.39368e-10 0)
(0.339744 0.481616 0)
(2.51769 -0.340124 0)
(3.08996 -0.488198 0)
(3.09931 -0.1803 0)
(3.01719 -0.00244968 0)
(2.9757 0.0788972 0)
(2.97016 0.0858555 0)
(2.97108 0.0780379 0)
(2.98664 0.035007 0)
(2.99737 0.00713096 0)
(2.99982 0.000495615 0)
(2.99999 1.42362e-05 0)
(3 2.62329e-07 0)
(3 3.7543e-09 0)
(3 3.31432e-11 0)
(1.1053 0.421357 0)
(2.87597 -0.30551 0)
(3.15338 -0.244469 0)
(3.04294 -0.00879563 0)
(2.9822 0.0706346 0)
(2.96958 0.0890708 0)
(2.96984 0.0860421 0)
(2.97911 0.0556266 0)
(2.99124 0.0231924 0)
(2.99901 0.00268228 0)
(2.99996 0.000119698 0)
(3 2.92925e-06 0)
(3 5.10652e-08 0)
(3 7.1982e-10 0)
(3 6.40435e-12 0)
(2.06573 0.254784 0)
(3.15366 -0.194516 0)
(3.0971 -0.0564123 0)
(2.99397 0.0583698 0)
(2.96963 0.0895147 0)
(2.96912 0.0889076 0)
(2.97234 0.0760034 0)
(2.9839 0.0428357 0)
(2.99635 0.00960821 0)
(2.99968 0.000876688 0)
(2.99999 2.94801e-05 0)
(3 6.01885e-07 0)
(3 9.57669e-09 0)
(3 1.26898e-10 0)
(3 1.05802e-12 0)
(2.68939 0.109498 0)
(3.12679 -0.00228733 0)
(3.0035 0.0704359 0)
(2.96632 0.0956253 0)
(2.96747 0.0927736 0)
(2.96983 0.0847738 0)
(2.97742 0.063118 0)
(2.99069 0.0246967 0)
(2.99868 0.00324566 0)
(2.99994 0.000148473 0)
(3 4.10407e-06 0)
(3 7.90129e-08 0)
(3 1.23576e-09 0)
(3 1.64474e-11 0)
(3 1.31035e-13 0)
(2.94665 0.0943532 0)
(2.95115 0.0940997 0)
(2.95785 0.100916 0)
(2.96316 0.0976132 0)
(2.96828 0.0924523 0)
(2.97635 0.0702512 0)
(2.98412 0.0436782 0)
(2.9969 0.0067473 0)
(2.9998 0.000350686 0)
(3 5.31631e-06 0)
(3 2.08776e-07 0)
(3 2.01006e-10 0)
(3 5.12371e-11 0)
(3 3.74818e-13 0)
(3 -1.28676e-15 0)
(2.94482 0.0945598 0)
(2.94855 0.0930171 0)
(2.95662 0.0986717 0)
(2.9642 0.0957276 0)
(2.97032 0.0911116 0)
(2.97635 0.0780922 0)
(2.98737 0.0336472 0)
(2.99651 0.00813352 0)
(2.99971 0.000613065 0)
(2.99999 1.93833e-05 0)
(3 3.55284e-07 0)
(3 4.84537e-09 0)
(3 5.39413e-11 0)
(3 5.10455e-13 0)
(3 2.68427e-15 0)
(2.94413 0.0950738 0)
(2.94826 0.0961153 0)
(2.95626 0.0987931 0)
(2.96566 0.0936193 0)
(2.97398 0.0827879 0)
(2.98094 0.0570901 0)
(2.99173 0.0207177 0)
(2.99879 0.00262813 0)
(2.99995 9.77155e-05 0)
(3 1.6796e-06 0)
(3 1.9478e-08 0)
(3 1.83074e-10 0)
(3 1.46701e-12 0)
(3 1.10639e-14 0)
(3 -2.85009e-15 0)
(2.94312 0.0953819 0)
(2.94856 0.0976589 0)
(2.95718 0.0992998 0)
(2.96684 0.0914424 0)
(2.97446 0.0803697 0)
(2.98193 0.0525315 0)
(2.99376 0.0151426 0)
(2.9994 0.0012315 0)
(2.99998 3.81469e-05 0)
(3 5.80339e-07 0)
(3 6.45809e-09 0)
(3 5.90642e-11 0)
(3 4.6443e-13 0)
(3 1.4561e-15 0)
(3 -3.01023e-15 0)
(2.94197 0.0950699 0)
(2.94825 0.0980491 0)
(2.95747 0.0976074 0)
(2.9679 0.0886295 0)
(2.97545 0.0805285 0)
(2.98601 0.0372416 0)
(2.9968 0.00689674 0)
(2.99977 0.000459163 0)
(2.99999 1.06279e-05 0)
(3 1.44953e-07 0)
(3 1.52434e-09 0)
(3 1.31996e-11 0)
(3 9.81844e-14 0)
(3 -1.89584e-15 0)
(3 -3.8181e-15 0)
(2.93933 0.0939382 0)
(2.94649 0.0974535 0)
(2.95802 0.0937781 0)
(2.97351 0.080338 0)
(2.98257 0.0603323 0)
(2.99141 0.0233941 0)
(2.99843 0.0035463 0)
(2.99992 0.000150717 0)
(3 2.8262e-06 0)
(3 3.68076e-08 0)
(3 3.66054e-10 0)
(3 3.09831e-12 0)
(3 2.04845e-14 0)
(3 -2.95996e-15 0)
(3 -2.71812e-15 0)
(2.93703 0.092796 0)
(2.9456 0.0976 0)
(2.9592 0.0939015 0)
(2.97464 0.0771931 0)
(2.98392 0.0533269 0)
(2.99372 0.01672 0)
(2.99931 0.00146327 0)
(2.99998 4.53038e-05 0)
(3 7.65978e-07 0)
(3 8.48468e-09 0)
(3 8.17547e-11 0)
(3 6.57871e-13 0)
(3 3.713e-15 0)
(3 -3.28545e-15 0)
(3 -2.24521e-15 0)
(2.93513 0.092141 0)
(2.94505 0.0968719 0)
(2.96305 0.0929334 0)
(2.9769 0.0780857 0)
(2.98606 0.0409173 0)
(2.99663 0.00762347 0)
(2.99974 0.000508724 0)
(2.99999 1.30004e-05 0)
(3 1.70626e-07 0)
(3 1.93345e-09 0)
(3 1.72063e-11 0)
(3 1.37971e-13 0)
(3 1.05798e-15 0)
(3 -3.09474e-15 0)
(3 -2.18672e-15 0)
(2.93445 0.0916396 0)
(2.94447 0.0951587 0)
(2.96811 0.0840084 0)
(2.98383 0.0594599 0)
(2.99251 0.0217929 0)
(2.99848 0.00339023 0)
(2.99992 0.000151079 0)
(3 2.75759e-06 0)
(3 3.81874e-08 0)
(3 3.78556e-10 0)
(3 3.30341e-12 0)
(3 2.89948e-14 0)
(3 1.81597e-16 0)
(3 -2.27766e-15 0)
(3 -1.55982e-15 0)
(2.93279 0.0913994 0)
(2.94501 0.0932493 0)
(2.97462 0.0763195 0)
(2.98783 0.0478799 0)
(2.99488 0.0143935 0)
(2.99943 0.00118682 0)
(2.99998 3.59981e-05 0)
(3 6.38052e-07 0)
(3 7.21428e-09 0)
(3 7.14536e-11 0)
(3 5.9147e-13 0)
(3 7.66807e-15 0)
(3 4.15099e-16 0)
(3 -1.8127e-15 0)
(3 -1.05631e-15 0)
(2.93103 0.0930334 0)
(2.94815 0.0959675 0)
(2.97614 0.0692244 0)
(2.98925 0.0364235 0)
(2.99764 0.00578797 0)
(2.99983 0.000334605 0)
(3 8.34816e-06 0)
(3 1.13285e-07 0)
(3 1.29737e-09 0)
(3 1.21002e-11 0)
(3 9.86933e-14 0)
(3 3.21053e-15 0)
(3 3.93193e-16 0)
(3 -1.36653e-15 0)
(3 -1.03879e-15 0)
(2.92683 0.0896402 0)
(2.95386 0.0859589 0)
(2.98415 0.0527426 0)
(2.99475 0.017696 0)
(2.99914 0.00201326 0)
(2.99996 7.84494e-05 0)
(3 1.35641e-06 0)
(3 1.87047e-08 0)
(3 2.02296e-10 0)
(3 1.85169e-12 0)
(3 1.69545e-14 0)
(3 2.13646e-15 0)
(3 8.36589e-17 0)
(3 -1.25556e-15 0)
(3 -9.67798e-16 0)
(2.92184 0.0838603 0)
(2.96361 0.0710364 0)
(2.99007 0.0379313 0)
(2.99757 0.00844692 0)
(2.99976 0.000558303 0)
(2.99999 1.32143e-05 0)
(3 2.16934e-07 0)
(3 2.65512e-09 0)
(3 2.80248e-11 0)
(3 2.70267e-13 0)
(3 3.8693e-15 0)
(3 2.15894e-15 0)
(3 2.33945e-16 0)
(3 -1.08238e-15 0)
(3 -9.10524e-16 0)
(2.92212 0.0872655 0)
(2.9674 0.0629262 0)
(2.99445 0.0216273 0)
(2.99918 0.00285261 0)
(2.99995 0.000111044 0)
(3 2.24322e-06 0)
(3 3.09689e-08 0)
(3 3.76138e-10 0)
(3 4.32247e-12 0)
(3 4.60122e-14 0)
(3 2.71297e-15 0)
(3 2.42695e-15 0)
(3 4.68774e-16 0)
(3 -8.83759e-16 0)
(3 -6.62146e-16 0)
(2.92005 0.0800557 0)
(2.98398 0.0344315 0)
(2.99935 0.00773987 0)
(2.99987 0.000547085 0)
(2.99999 1.53294e-05 0)
(3 2.87002e-07 0)
(3 4.53656e-09 0)
(3 6.64631e-11 0)
(3 8.3382e-13 0)
(3 1.00885e-14 0)
(3 3.03781e-15 0)
(3 2.7266e-15 0)
(3 8.0048e-16 0)
(3 -1.16469e-16 0)
(3 -5.56162e-16 0)
(2.92244 0.0733692 0)
(2.99636 0.0146878 0)
(3.00024 0.0017337 0)
(2.99999 7.39667e-05 0)
(3 2.21784e-06 0)
(3 5.08923e-08 0)
(3 1.00759e-09 0)
(3 1.60919e-11 0)
(3 2.15984e-13 0)
(3 3.00752e-15 0)
(3 3.10663e-15 0)
(3 2.52706e-15 0)
(3 1.5353e-15 0)
(3 1.06823e-15 0)
(3 -4.27768e-16 0)
(3 -2.13602e-15 0)
(3 -2.43795e-15 0)
(3 4.58629e-18 0)
(3 1.6014e-16 0)
(3 -1.20158e-15 0)
(3 -1.24993e-15 0)
(3 -1.48751e-15 0)
(3 -9.54449e-17 0)
(3 5.40733e-16 0)
(3 2.9931e-17 0)
(3 2.74428e-15 0)
(3 1.96266e-15 0)
(3 2.57985e-15 0)
(3 1.69885e-15 0)
(3 -5.09364e-16 0)
(3 -2.76702e-15 0)
(3 -2.22836e-15 0)
(3 7.93782e-16 0)
(3 -1.34361e-16 0)
(3 -1.71496e-15 0)
(3 -1.82019e-15 0)
(3 -2.10793e-15 0)
(3 1.07997e-15 0)
(3 1.59922e-15 0)
(3 -5.77383e-17 0)
(3 2.13155e-15 0)
(3 1.80916e-15 0)
(3 3.07455e-15 0)
(3 1.79581e-15 0)
(3 -4.46225e-16 0)
(3 -1.95976e-15 0)
(3 -1.11032e-15 0)
(3 7.39772e-16 0)
(3 -1.98616e-15 0)
(3 -1.18937e-15 0)
(3 -1.35227e-15 0)
(3 -2.15035e-15 0)
(3 1.91945e-15 0)
(3 1.87649e-15 0)
(3 -2.87487e-16 0)
(3 9.23187e-16 0)
(3 2.27754e-15 0)
(3 4.08505e-15 0)
(3 9.91834e-16 0)
(3 -6.44292e-16 0)
(3 -7.68273e-16 0)
(3 -4.02561e-16 0)
(3 5.03396e-16 0)
(3 -2.63087e-15 0)
(3 -1.61782e-15 0)
(3 -8.51301e-16 0)
(3 -1.20752e-15 0)
(3 2.94741e-15 0)
(3 1.59642e-15 0)
(3 -1.66235e-15 0)
(3 -4.39528e-16 0)
(3 2.37329e-15 0)
(3 4.19724e-15 0)
(3 1.08503e-15 0)
(3 -3.61576e-16 0)
(3 4.61762e-16 0)
(3 8.86559e-16 0)
(3 -4.55845e-16 0)
(3 -2.43347e-15 0)
(3 -9.62974e-16 0)
(3 -4.79626e-16 0)
(3 -1.08742e-15 0)
(3 4.08246e-15 0)
(3 2.03706e-15 0)
(3 -3.12122e-15 0)
(3 -1.32903e-15 0)
(3 1.68583e-15 0)
(3 3.04714e-15 0)
(3 1.86343e-15 0)
(3 1.11968e-16 0)
(3 1.1201e-15 0)
(3 5.92877e-17 0)
(3 -1.45294e-15 0)
(3 -1.64354e-15 0)
(3 -3.84541e-16 0)
(3 -1.76693e-15 0)
(3 -1.11454e-15 0)
(3 6.24722e-15 0)
(3 2.26324e-15 0)
(3 -3.59161e-15 0)
(3 -1.24224e-15 0)
(3 1.01306e-15 0)
(3 2.28492e-15 0)
(3 2.39656e-15 0)
(3 -3.03488e-17 0)
(3 2.30156e-15 0)
(3 -2.49772e-16 0)
(3 -2.81558e-15 0)
(3 -1.05524e-15 0)
(3 5.12328e-16 0)
(3 -2.79918e-15 0)
(3 -7.57981e-16 0)
(3 6.07572e-15 0)
(3 1.7363e-15 0)
(3 -2.32104e-15 0)
(3 -2.37734e-16 0)
(3 1.60689e-16 0)
(3 1.28959e-15 0)
(3 4.60384e-16 0)
(3 -5.16277e-16 0)
(3 2.80645e-15 0)
(3 -1.00564e-15 0)
(3 -3.42793e-15 0)
(3 -4.30405e-16 0)
(3 -3.94969e-16 0)
(3 -2.7531e-15 0)
(3 -1.78381e-16 0)
(3 2.52405e-15 0)
(3 1.12686e-15 0)
(3 -1.16779e-15 0)
(3 5.42029e-16 0)
(3 -6.08932e-16 0)
(3 1.18473e-16 0)
(3 9.6936e-16 0)
(3 -3.87323e-16 0)
(3 2.88743e-16 0)
(3 -1.33184e-15 0)
(3 -8.05728e-16 0)
(3 -2.53551e-16 0)
(3 -1.30486e-15 0)
(3 -8.06736e-16 0)
(3 5.37628e-16 0)
(3 5.43972e-16 0)
(3 1.93961e-16 0)
(3 -1.49544e-16 0)
(3 2.806e-16 0)
(3 -4.75353e-16 0)
(3 -3.93781e-16 0)
(3 4.77182e-16 0)
(3 8.27534e-17 0)
(2.72868 0.0150938 0)
(3 4.17725e-17 0)
(3 6.60684e-17 0)
(3 1.13913e-15 0)
(3 -3.39758e-18 0)
(3 -5.25146e-16 0)
(3 -1.13933e-16 0)
(3 4.86528e-16 0)
(3 2.98826e-15 0)
(3 1.3191e-15 0)
(2.91619 -0.0425544 0)
(3 2.20297e-15 0)
(3 9.44433e-16 0)
(3 1.41518e-15 0)
(3 1.09085e-15 0)
(3 5.10076e-17 0)
(3 -7.0157e-16 0)
(3 -6.90244e-16 0)
(3 5.41608e-16 0)
(3 -8.27418e-17 0)
(2.98954 -0.0105725 0)
(3 9.14319e-16 0)
(3 7.25338e-16 0)
(3 3.9768e-16 0)
(3 8.72644e-16 0)
(3 1.37415e-15 0)
(3 1.22521e-15 0)
(3 1.08329e-15 0)
(3 -1.82029e-16 0)
(3 5.80718e-16 0)
(2.99888 -0.0026459 0)
(3 2.28747e-15 0)
(3 3.14103e-15 0)
(3 3.57473e-15 0)
(3 3.08239e-15 0)
(3 2.74341e-15 0)
(3 3.22872e-15 0)
(3 1.57324e-15 0)
(3 1.04323e-15 0)
(3 1.20911e-15 0)
(2.99986 -0.000444489 0)
(3 4.54665e-15 0)
(3 3.90658e-15 0)
(3 4.42155e-15 0)
(3 3.39124e-15 0)
(3 2.2753e-15 0)
(3 1.62428e-15 0)
(3 8.12407e-16 0)
(3 2.37092e-16 0)
(3 1.34953e-16 0)
(2.99997 -7.06312e-05 0)
(3 5.51026e-15 0)
(3 4.02153e-15 0)
(3 2.36398e-15 0)
(3 1.82531e-15 0)
(3 1.4384e-15 0)
(3 1.21513e-15 0)
(3 1.34659e-15 0)
(3 5.25141e-16 0)
(3 -7.01145e-16 0)
(3 -5.2138e-06 0)
(3 3.9768e-15 0)
(3 2.9797e-15 0)
(3 2.53679e-15 0)
(3 2.97295e-15 0)
(3 2.14534e-15 0)
(3 1.21738e-15 0)
(3 1.2406e-16 0)
(3 -3.19659e-17 0)
(3 -4.0326e-16 0)
(3 -7.23695e-07 0)
(3 2.70464e-15 0)
(3 1.8407e-15 0)
(3 1.08096e-15 0)
(3 1.5636e-16 0)
(3 -8.36562e-16 0)
(3 -3.08144e-15 0)
(3 -3.52936e-15 0)
(3 -2.55716e-15 0)
(3 -3.99372e-16 0)
(3 -3.16693e-08 0)
(3 -8.06461e-16 0)
(3 -1.3299e-15 0)
(3 -1.73153e-15 0)
(3 -3.20446e-15 0)
(3 -4.37615e-15 0)
(3 -5.14885e-15 0)
(3 -4.22656e-15 0)
(3 -1.88886e-15 0)
(3 -4.98547e-16 0)
(3 -3.03191e-09 0)
(3 -1.62228e-15 0)
(3 -1.23384e-15 0)
(3 -1.36408e-15 0)
(3 -3.15197e-15 0)
(3 -3.38551e-15 0)
(3 -1.93852e-15 0)
(3 -6.33151e-16 0)
(3 -2.84059e-16 0)
(3 1.16111e-16 0)
(3 -9.54198e-11 0)
(3 -1.87315e-15 0)
(3 -1.66382e-15 0)
(3 -1.69867e-15 0)
(3 -1.67928e-15 0)
(3 -1.1432e-15 0)
(3 7.19219e-17 0)
(3 7.97105e-16 0)
(3 8.29858e-17 0)
(3 3.85281e-16 0)
(3 -5.24e-12 0)
(3 -3.31618e-15 0)
(3 -3.73133e-15 0)
(3 -3.108e-15 0)
(3 -1.28366e-15 0)
(3 -4.19116e-16 0)
(3 3.85875e-16 0)
(3 5.70073e-16 0)
(3 1.41772e-16 0)
(3 6.65632e-17 0)
(3 -1.08985e-13 0)
(3 -1.25088e-15 0)
(3 -1.20166e-15 0)
(3 -1.01603e-15 0)
(3 -1.55522e-15 0)
(3 -2.33555e-16 0)
(3 9.5256e-16 0)
(3 1.55349e-15 0)
(3 1.57019e-15 0)
(3 6.19181e-16 0)
(3 -1.35139e-15 0)
(3 -1.31381e-16 0)
(3 -3.72151e-16 0)
(3 1.96903e-16 0)
(3 6.31319e-16 0)
(3 1.13746e-15 0)
(3 7.52273e-16 0)
(3 8.14518e-16 0)
(3 1.34699e-15 0)
(3 1.17461e-15 0)
(3 -2.16891e-15 0)
(3 -1.99889e-15 0)
(3 -1.79828e-15 0)
(3 -1.02799e-15 0)
(3 2.14257e-16 0)
(3 1.77331e-17 0)
(3 -5.79631e-16 0)
(3 -4.21993e-16 0)
(3 -8.64616e-16 0)
(3 -8.32403e-16 0)
(3 -7.66422e-16 0)
(3 -4.28996e-16 0)
(3 3.84783e-16 0)
(3 5.40129e-17 0)
(3 -8.48113e-16 0)
(3 -1.48425e-15 0)
(3 -8.87109e-16 0)
(3 1.92192e-16 0)
(3 -5.45059e-16 0)
(3 -1.3267e-16 0)
(3 4.74902e-16 0)
(3 -4.01642e-16 0)
(3 -1.13861e-15 0)
(3 -2.03315e-15 0)
(3 -1.84394e-15 0)
(3 -1.26157e-15 0)
(3 -1.14292e-15 0)
(3 -6.58158e-16 0)
(3 -8.94336e-16 0)
(3 6.98083e-16 0)
(3 7.88953e-16 0)
(3 1.18382e-15 0)
(3 6.77805e-16 0)
(3 1.83795e-16 0)
(3 3.21268e-16 0)
(3 8.37067e-16 0)
(3 6.81351e-16 0)
(3 5.82799e-16 0)
(3 4.36373e-16 0)
(3 -3.50033e-17 0)
(3 1.34589e-15 0)
(3 1.462e-15 0)
(3 1.55394e-15 0)
(3 1.63634e-15 0)
(3 2.07964e-15 0)
(3 2.4822e-15 0)
(3 2.66659e-15 0)
(3 2.26968e-15 0)
(3 1.28812e-15 0)
(3 7.15426e-16 0)
(3 5.54244e-16 0)
(3 3.71039e-16 0)
(3 -3.52817e-17 0)
(3 -2.00873e-16 0)
(3 7.6813e-17 0)
(3 9.14732e-16 0)
(3 1.11502e-15 0)
(3 8.9405e-16 0)
(3 3.29277e-16 0)
(3 2.5341e-16 0)
(1.12419 -0.40057 0)
(1.44736 -0.708968 0)
(2.77938 -0.32999 0)
(2.99985 -0.00121175 0)
(2.99993 -0.000238578 0)
(2.99999 -3.53673e-05 0)
(3 -4.64756e-06 0)
(3 -3.65291e-07 0)
(3 -2.63824e-08 0)
(3 -1.63828e-09 0)
(3 -1.02431e-10 0)
(3 -1.71584e-12 0)
(3 -4.60446e-14 0)
(3 -1.02421e-15 0)
(3 -2.40168e-15 0)
(3 2.86728e-16 0)
(3 1.0245e-15 0)
(3 6.39576e-16 0)
(3 8.71724e-16 0)
(3 4.12861e-16 0)
(1.0588 -0.649245 0)
(1.09451 -0.791425 0)
(1.31848 -0.797604 0)
(1.92877 -0.708121 0)
(2.95927 -0.0564319 0)
(2.99999 -2.46152e-05 0)
(3 -2.86104e-06 0)
(3 -2.57246e-07 0)
(3 -2.72612e-08 0)
(3 -9.43646e-10 0)
(3 -9.25952e-11 0)
(3 -1.39447e-12 0)
(3 -4.66707e-14 0)
(3 -2.47633e-15 0)
(3 -2.64792e-15 0)
(3 1.0823e-15 0)
(3 1.40231e-15 0)
(3 4.29954e-16 0)
(3 4.6903e-16 0)
(3 2.17854e-16 0)
(1.11955 -0.743479 0)
(1.1119 -0.788228 0)
(1.18149 -0.80734 0)
(1.22031 -0.837807 0)
(1.60435 -0.779218 0)
(2.80234 -0.188057 0)
(2.99985 0.000148868 0)
(3 -1.93431e-07 0)
(3 -2.48149e-08 0)
(3 -7.20608e-10 0)
(3 -6.76758e-11 0)
(3 -1.39023e-12 0)
(3 -3.77386e-14 0)
(3 -3.82207e-15 0)
(3 -1.17232e-15 0)
(3 1.26432e-15 0)
(3 2.16159e-15 0)
(3 9.35554e-16 0)
(3 4.73672e-16 0)
(3 5.27572e-16 0)
(1.14386 -0.78576 0)
(1.13887 -0.799368 0)
(1.18853 -0.804025 0)
(1.21997 -0.851591 0)
(1.2513 -0.867818 0)
(1.51 -0.824686 0)
(2.65249 -0.290036 0)
(3.00047 0.000532096 0)
(3 -1.75555e-08 0)
(3 -6.70653e-10 0)
(3 -4.50665e-11 0)
(3 -1.45055e-12 0)
(3 -4.59179e-14 0)
(3 -3.37549e-15 0)
(3 -1.98659e-16 0)
(3 1.48804e-15 0)
(3 2.09266e-15 0)
(3 1.12497e-15 0)
(3 1.19596e-15 0)
(3 1.04005e-15 0)
(1.15947 -0.803128 0)
(1.15703 -0.813365 0)
(1.19445 -0.812724 0)
(1.22828 -0.850263 0)
(1.26213 -0.867034 0)
(1.2864 -0.880354 0)
(1.48936 -0.846974 0)
(2.58549 -0.349845 0)
(3.00087 0.0010889 0)
(3 -1.94013e-06 0)
(3 8.19023e-09 0)
(3 -1.95685e-12 0)
(3 -3.72869e-14 0)
(3 -2.54506e-15 0)
(3 9.16224e-16 0)
(3 3.20181e-15 0)
(3 1.76129e-15 0)
(3 5.72591e-16 0)
(3 1.70695e-15 0)
(3 1.1865e-15 0)
(1.17272 -0.813952 0)
(1.17274 -0.824295 0)
(1.20523 -0.819803 0)
(1.23402 -0.854988 0)
(1.27242 -0.868425 0)
(1.29197 -0.884232 0)
(1.2989 -0.890246 0)
(1.44541 -0.840072 0)
(2.54031 -0.32791 0)
(3.00157 0.000996732 0)
(3 -7.5812e-07 0)
(3 -2.27371e-12 0)
(3 -3.64946e-14 0)
(3 -1.39433e-15 0)
(3 2.76757e-15 0)
(3 4.75652e-15 0)
(3 1.24223e-15 0)
(3 -1.01841e-17 0)
(3 1.61046e-15 0)
(3 1.41759e-15 0)
(1.18467 -0.822705 0)
(1.18572 -0.832839 0)
(1.21413 -0.828349 0)
(1.23943 -0.859915 0)
(1.27403 -0.875613 0)
(1.29481 -0.889653 0)
(1.30839 -0.901796 0)
(1.32809 -0.905958 0)
(1.53037 -0.835934 0)
(2.63905 -0.285678 0)
(3.00133 0.00120364 0)
(3 -2.97861e-06 0)
(3 5.28102e-09 0)
(3 -2.97209e-12 0)
(3 -1.11139e-14 0)
(3 4.57704e-15 0)
(3 9.43095e-16 0)
(3 -2.67594e-16 0)
(3 1.49937e-15 0)
(3 1.64609e-15 0)
(1.19614 -0.830816 0)
(1.19713 -0.83994 0)
(1.22129 -0.835451 0)
(1.24203 -0.864118 0)
(1.2769 -0.878637 0)
(1.30025 -0.896819 0)
(1.32176 -0.90494 0)
(1.33541 -0.907785 0)
(1.34552 -0.919282 0)
(1.56966 -0.817036 0)
(2.7179 -0.188629 0)
(3.00132 0.000901448 0)
(3 -3.34049e-06 0)
(3 1.17127e-08 0)
(3 6.34185e-11 0)
(3 -1.56383e-13 0)
(3 -5.6233e-15 0)
(3 -1.59562e-16 0)
(3 2.09071e-15 0)
(3 1.8044e-15 0)
(1.20787 -0.839298 0)
(1.20796 -0.846156 0)
(1.22708 -0.842554 0)
(1.24562 -0.867227 0)
(1.28122 -0.881031 0)
(1.3085 -0.902114 0)
(1.33218 -0.908652 0)
(1.34486 -0.913302 0)
(1.35089 -0.921621 0)
(1.39352 -0.929547 0)
(1.84606 -0.734372 0)
(2.88167 -0.0830298 0)
(3.00055 0.000435477 0)
(3 -2.08291e-06 0)
(3 -1.16561e-08 0)
(3 4.89178e-11 0)
(3 2.04768e-12 0)
(3 -6.99445e-15 0)
(3 2.1582e-15 0)
(3 2.01789e-15 0)
(1.21977 -0.848293 0)
(1.21919 -0.852638 0)
(1.23406 -0.850512 0)
(1.25253 -0.870726 0)
(1.28592 -0.886101 0)
(1.31546 -0.906627 0)
(1.34047 -0.914559 0)
(1.35077 -0.922255 0)
(1.35697 -0.924875 0)
(1.37429 -0.933264 0)
(1.45913 -0.92651 0)
(2.22104 -0.57613 0)
(2.97554 -0.0244936 0)
(3.00012 0.000147507 0)
(3 7.57711e-07 0)
(3 -1.35438e-09 0)
(3 -6.30904e-11 0)
(3 1.57775e-13 0)
(3 1.30476e-14 0)
(3 1.9801e-15 0)
(1.231 -0.856758 0)
(1.23023 -0.860159 0)
(1.24241 -0.858659 0)
(1.26047 -0.875535 0)
(1.2923 -0.891072 0)
(1.32152 -0.909779 0)
(1.34383 -0.919606 0)
(1.35021 -0.930443 0)
(1.35783 -0.932242 0)
(1.3777 -0.936288 0)
(1.39062 -0.947565 0)
(1.49101 -0.895178 0)
(2.49708 -0.361622 0)
(2.99838 -0.00336809 0)
(3 -4.04955e-08 0)
(3 1.38643e-09 0)
(3 -2.15041e-11 0)
(3 -2.7009e-12 0)
(3 -1.11844e-14 0)
(3 1.66098e-15 0)
(1.24186 -0.864189 0)
(1.24103 -0.8673 0)
(1.25198 -0.865497 0)
(1.26935 -0.88094 0)
(1.30003 -0.895303 0)
(1.32574 -0.913233 0)
(1.34372 -0.924171 0)
(1.35171 -0.935118 0)
(1.36226 -0.93888 0)
(1.37841 -0.940254 0)
(1.39011 -0.951324 0)
(1.41682 -0.949441 0)
(1.66601 -0.808033 0)
(2.73855 -0.17473 0)
(3.00086 0.000181518 0)
(3 6.87737e-07 0)
(3 8.38448e-09 0)
(3 1.70834e-11 0)
(3 5.53534e-14 0)
(3 1.72975e-15 0)
(1.25395 -0.872287 0)
(1.25344 -0.874948 0)
(1.26404 -0.872737 0)
(1.28066 -0.886362 0)
(1.30924 -0.899552 0)
(1.33373 -0.916915 0)
(1.35285 -0.928047 0)
(1.36361 -0.939088 0)
(1.3766 -0.942165 0)
(1.3934 -0.945092 0)
(1.41143 -0.9536 0)
(1.4306 -0.951225 0)
(1.46556 -0.958537 0)
(2.0544 -0.654237 0)
(2.93709 -0.0517809 0)
(3.00037 0.000369826 0)
(3.00001 1.40728e-05 0)
(3 1.05181e-07 0)
(3 -3.42372e-10 0)
(3 -2.49604e-11 0)
(1.27599 -0.880845 0)
(1.27701 -0.884635 0)
(1.28866 -0.882901 0)
(1.30724 -0.895427 0)
(1.33739 -0.906324 0)
(1.36446 -0.922386 0)
(1.38677 -0.932437 0)
(1.40085 -0.942855 0)
(1.41592 -0.944052 0)
(1.43159 -0.94923 0)
(1.4509 -0.953796 0)
(1.46499 -0.95508 0)
(1.46338 -0.970057 0)
(1.57388 -0.918811 0)
(2.47574 -0.380979 0)
(2.99372 -0.011856 0)
(3 -1.05317e-05 0)
(3 7.48124e-08 0)
(3 5.87156e-09 0)
(3 1.44587e-11 0)
(1.367 -0.899904 0)
(1.37399 -0.906096 0)
(1.39558 -0.900595 0)
(1.41932 -0.913344 0)
(1.44735 -0.918603 0)
(1.46841 -0.929017 0)
(1.48329 -0.935538 0)
(1.49154 -0.943464 0)
(1.49931 -0.944227 0)
(1.50661 -0.949913 0)
(1.51755 -0.952364 0)
(1.52342 -0.95995 0)
(1.5176 -0.97248 0)
(1.54903 -0.964114 0)
(1.90748 -0.771793 0)
(2.91808 -0.0684347 0)
(3.00289 0.003248 0)
(3.00018 0.000251662 0)
(3 2.14685e-06 0)
(3 9.70333e-09 0)
(2.00743 -0.791299 0)
(2.04896 -0.668293 0)
(1.85974 -0.784758 0)
(1.78551 -0.833983 0)
(1.74739 -0.853142 0)
(1.70252 -0.886884 0)
(1.68023 -0.899149 0)
(1.64779 -0.920612 0)
(1.63616 -0.924633 0)
(1.61945 -0.936392 0)
(1.61342 -0.941775 0)
(1.60556 -0.952039 0)
(1.58713 -0.961248 0)
(1.58767 -0.95824 0)
(1.62916 -0.943217 0)
(2.14172 -0.655224 0)
(2.92255 -0.0822147 0)
(2.99956 -0.00126703 0)
(3 -3.80874e-06 0)
(3 -3.70932e-09 0)
(2.59763 -0.781817 0)
(2.50551 -0.274524 0)
(2.24795 -0.52349 0)
(2.12812 -0.651766 0)
(2.01132 -0.745508 0)
(1.96335 -0.767693 0)
(1.87818 -0.826124 0)
(1.83696 -0.851191 0)
(1.79483 -0.875205 0)
(1.74918 -0.905024 0)
(1.73577 -0.910376 0)
(1.70346 -0.932117 0)
(1.67766 -0.938527 0)
(1.65868 -0.942426 0)
(1.64662 -0.940575 0)
(1.74003 -0.895509 0)
(2.40855 -0.51706 0)
(2.96412 -0.0480637 0)
(2.99973 -0.000543321 0)
(3 -2.22486e-06 0)
(2.71803 -0.157337 0)
(2.71771 0.175955 0)
(2.50516 -0.189071 0)
(2.39276 -0.364244 0)
(2.26698 -0.533037 0)
(2.1679 -0.626982 0)
(2.06436 -0.723058 0)
(2.01636 -0.756176 0)
(1.93034 -0.822044 0)
(1.89511 -0.844738 0)
(1.84457 -0.876881 0)
(1.81153 -0.897797 0)
(1.76243 -0.917424 0)
(1.73554 -0.915011 0)
(1.69668 -0.928613 0)
(1.703 -0.950406 0)
(1.97903 -0.840106 0)
(2.73786 -0.288524 0)
(2.99393 -0.011802 0)
(2.99996 -7.32777e-05 0)
(2.84641 0.0754919 0)
(2.78482 0.217958 0)
(2.59933 -0.130076 0)
(2.52144 -0.243308 0)
(2.46052 -0.325197 0)
(2.30372 -0.520446 0)
(2.24653 -0.58259 0)
(2.14281 -0.68567 0)
(2.07201 -0.746158 0)
(2.02711 -0.775093 0)
(1.94936 -0.833242 0)
(1.91565 -0.851423 0)
(1.84837 -0.885219 0)
(1.8153 -0.881938 0)
(1.78378 -0.901138 0)
(1.74115 -0.942837 0)
(1.79929 -0.942541 0)
(2.26538 -0.67742 0)
(2.90578 -0.118064 0)
(2.99885 -0.00176251 0)
(2.81159 0.131028 0)
(2.77096 0.176195 0)
(2.63463 0.0427216 0)
(2.625 0.00715675 0)
(2.53799 -0.236153 0)
(2.46039 -0.359684 0)
(2.38781 -0.451973 0)
(2.27565 -0.58033 0)
(2.22987 -0.620511 0)
(2.12656 -0.714223 0)
(2.07928 -0.745376 0)
(2.01129 -0.794264 0)
(1.95207 -0.829055 0)
(1.89565 -0.850574 0)
(1.86656 -0.875159 0)
(1.80622 -0.925756 0)
(1.81121 -0.93902 0)
(2.01613 -0.867547 0)
(2.67524 -0.372597 0)
(2.98548 -0.0206858 0)
(2.78431 0.143027 0)
(2.75848 0.151375 0)
(2.68241 0.157094 0)
(2.66554 0.182055 0)
(2.62941 -0.00360967 0)
(2.59794 -0.122868 0)
(2.49235 -0.313859 0)
(2.42134 -0.41612 0)
(2.33031 -0.525199 0)
(2.23616 -0.632523 0)
(2.18106 -0.671843 0)
(2.0909 -0.751294 0)
(2.04336 -0.775794 0)
(1.96555 -0.825707 0)
(1.94046 -0.850987 0)
(1.87395 -0.897273 0)
(1.84179 -0.927548 0)
(1.9124 -0.933015 0)
(2.29329 -0.706589 0)
(2.88364 -0.115032 0)
(2.78587 0.109919 0)
(2.76543 0.116218 0)
(2.71762 0.166076 0)
(2.70552 0.189091 0)
(2.67989 0.0323842 0)
(2.65497 -0.0426672 0)
(2.57153 -0.20633 0)
(2.51584 -0.310512 0)
(2.38254 -0.489696 0)
(2.33608 -0.547551 0)
(2.23985 -0.647164 0)
(2.17726 -0.694658 0)
(2.11491 -0.7364 0)
(2.04864 -0.781847 0)
(2.01065 -0.816103 0)
(1.95298 -0.851009 0)
(1.90283 -0.898826 0)
(1.91723 -0.933344 0)
(2.13469 -0.861438 0)
(2.65934 -0.291847 0)
(2.78559 0.101362 0)
(2.76538 0.105069 0)
(2.71463 0.141133 0)
(2.70197 0.140428 0)
(2.68515 0.0548652 0)
(2.67158 -0.00397357 0)
(2.62998 -0.13294 0)
(2.55822 -0.267583 0)
(2.47656 -0.389373 0)
(2.41832 -0.463326 0)
(2.32566 -0.571732 0)
(2.27825 -0.595102 0)
(2.18808 -0.674603 0)
(2.13328 -0.712918 0)
(2.08975 -0.7665 0)
(2.01317 -0.821849 0)
(1.9611 -0.8692 0)
(1.93777 -0.921815 0)
(2.05681 -0.931553 0)
(2.35921 -0.506611 0)
(2.76309 0.101996 0)
(2.74191 0.0989623 0)
(2.7091 0.117965 0)
(2.69577 0.125256 0)
(2.69014 0.0993407 0)
(2.71428 0.118109 0)
(2.69095 0.00691251 0)
(2.62898 -0.144847 0)
(2.57986 -0.224937 0)
(2.48883 -0.360535 0)
(2.42531 -0.44079 0)
(2.34106 -0.519597 0)
(2.2704 -0.59568 0)
(2.18548 -0.682786 0)
(2.1478 -0.738122 0)
(2.06106 -0.805995 0)
(2.01718 -0.836035 0)
(1.987 -0.894076 0)
(2.03593 -0.928145 0)
(2.11475 -0.590883 0)
(2.75069 0.0891433 0)
(2.73225 0.0837467 0)
(2.71002 0.0898741 0)
(2.69966 0.109903 0)
(2.71151 0.130239 0)
(2.72761 0.172238 0)
(2.71392 0.0757426 0)
(2.68313 -0.0142398 0)
(2.63025 -0.127242 0)