/*--------------------------------*- C++ -*----------------------------------*\
  =========                 |
  \\      /  F ield         | OpenFOAM: The Open Source CFD Toolbox
   \\    /   O peration     | Website:  https://openfoam.org
    \\  /    A nd           | Version:  7
     \\/     M anipulation  |
\*---------------------------------------------------------------------------*/
FoamFile
{
    version     2.0;
    format      ascii;
    class       volVectorField;
    location    "2";
    object      U;
}
// * * * * * * * * * * * * * * * * * * * * * * * * * * * * * * * * * * * * * //

dimensions      [0 1 -1 0 0 0 0];

internalField   nonuniform List<vector> 
90000
(
(4.98679 -0.0571267 0)
(4.98777 -0.0555236 0)
(4.98756 -0.0577751 0)
(4.98903 -0.0462241 0)
(4.98923 -0.045061 0)
(4.98863 -0.0515184 0)
(4.98904 -0.0506698 0)
(4.98795 -0.046361 0)
(4.98748 -0.0464932 0)
(4.987 -0.048582 0)
(4.98648 -0.0494049 0)
(4.98533 -0.0507304 0)
(4.98425 -0.0494707 0)
(4.98293 -0.0519344 0)
(4.98207 -0.0509407 0)
(4.98121 -0.0535579 0)
(4.98066 -0.0521949 0)
(4.97971 -0.0549352 0)
(4.97891 -0.0535417 0)
(4.97807 -0.0557339 0)
(4.97773 -0.054453 0)
(4.97702 -0.0570541 0)
(4.97662 -0.0564035 0)
(4.97606 -0.0578996 0)
(4.97565 -0.0587549 0)
(4.97538 -0.0592472 0)
(4.97488 -0.0585589 0)
(4.97465 -0.057568 0)
(4.97428 -0.0578698 0)
(4.97393 -0.0574028 0)
(4.97334 -0.057014 0)
(4.97265 -0.0553844 0)
(4.97178 -0.0533503 0)
(4.9713 -0.0517299 0)
(4.97046 -0.0495014 0)
(4.96957 -0.0470294 0)
(4.96887 -0.0432626 0)
(4.96791 -0.0377383 0)
(4.96681 -0.0316485 0)
(4.96596 -0.0274869 0)
(4.96436 -0.0217883 0)
(4.964 -0.0198048 0)
(4.9631 -0.0145334 0)
(4.96336 -0.0122688 0)
(4.96295 -0.00795284 0)
(4.96289 -0.00551327 0)
(4.96296 -0.00642097 0)
(4.96361 -0.0131279 0)
(4.9632 -0.0174761 0)
(4.96484 -0.0316602 0)
(4.96308 -0.0340023 0)
(4.9631 -0.0427867 0)
(4.96213 -0.0440421 0)
(4.96046 -0.0441701 0)
(4.95842 -0.0417521 0)
(4.95666 -0.0389842 0)
(4.95482 -0.0341297 0)
(4.95319 -0.027785 0)
(4.95247 -0.0224248 0)
(4.95231 -0.0175636 0)
(4.95287 -0.0112622 0)
(4.95343 -0.0106528 0)
(4.95497 -0.0143272 0)
(4.95679 -0.0191384 0)
(4.95878 -0.0270996 0)
(4.96058 -0.0288453 0)
(4.95934 -0.0325973 0)
(4.95861 -0.0322846 0)
(4.95722 -0.0290214 0)
(4.95569 -0.0224909 0)
(4.95492 -0.0174289 0)
(4.95468 -0.0100612 0)
(4.95479 -0.0103865 0)
(4.95587 -0.0162563 0)
(4.95682 -0.0188339 0)
(4.95758 -0.0293171 0)
(4.95995 -0.0250987 0)
(4.95863 -0.0233044 0)
(4.95761 -0.0199754 0)
(4.95663 -0.0171822 0)
(4.95694 -0.0134597 0)
(4.95817 -0.0158582 0)
(4.95926 -0.0173679 0)
(4.96323 -0.0243465 0)
(4.96547 -0.0218162 0)
(4.96884 -0.0157045 0)
(4.97075 -0.0100167 0)
(4.97237 -0.00473002 0)
(4.97411 -0.00469292 0)
(4.97737 -0.00358137 0)
(4.97993 -0.00189313 0)
(4.98298 -0.000989535 0)
(4.98669 -0.00116536 0)
(4.98984 -0.00342885 0)
(4.99204 -8.75345e-05 0)
(4.99319 0.00273151 0)
(4.99453 0.00420766 0)
(4.99631 0.0081695 0)
(4.99826 0.00972884 0)
(5.0013 0.00897923 0)
(4.98468 -0.0635331 0)
(4.98461 -0.0636406 0)
(4.98454 -0.0636854 0)
(4.98443 -0.063747 0)
(4.98436 -0.0637969 0)
(4.98435 -0.0637637 0)
(4.98434 -0.0637168 0)
(4.98436 -0.0637123 0)
(4.98429 -0.0634692 0)
(4.98403 -0.0628636 0)
(4.98401 -0.062569 0)
(4.98403 -0.0624558 0)
(4.98352 -0.0614353 0)
(4.98338 -0.0605106 0)
(4.98363 -0.0603781 0)
(4.98333 -0.0593473 0)
(4.9832 -0.0585478 0)
(4.98309 -0.0577908 0)
(4.98288 -0.0566121 0)
(4.98281 -0.0557285 0)
(4.98273 -0.0549297 0)
(4.98235 -0.0534557 0)
(4.982 -0.0516081 0)
(4.98188 -0.0499849 0)
(4.9818 -0.0486199 0)
(4.98167 -0.0481282 0)
(4.98134 -0.0474513 0)
(4.98073 -0.0464535 0)
(4.98008 -0.0454488 0)
(4.97955 -0.0446726 0)
(4.97912 -0.0444224 0)
(4.97869 -0.0437816 0)
(4.97828 -0.043257 0)
(4.97786 -0.0426269 0)
(4.97739 -0.0421295 0)
(4.97668 -0.0408713 0)
(4.97617 -0.0400998 0)
(4.9757 -0.0387036 0)
(4.97526 -0.0369088 0)
(4.97497 -0.0345944 0)
(4.97432 -0.0312328 0)
(4.97389 -0.028961 0)
(4.97299 -0.0248957 0)
(4.97266 -0.0227682 0)
(4.97193 -0.0187888 0)
(4.97157 -0.0151176 0)
(4.97128 -0.0123158 0)
(4.97105 -0.0104422 0)
(4.97077 -0.00515156 0)
(4.97016 -0.00772532 0)
(4.97034 -0.00944092 0)
(4.97068 -0.0131963 0)
(4.97064 -0.0162696 0)
(4.97142 -0.0226581 0)
(4.97105 -0.0242599 0)
(4.9704 -0.0270556 0)
(4.96995 -0.0264453 0)
(4.96935 -0.0255286 0)
(4.96837 -0.022614 0)
(4.96746 -0.0197372 0)
(4.96647 -0.0169682 0)
(4.96576 -0.0140654 0)
(4.96553 -0.00970532 0)
(4.96565 -0.010126 0)
(4.96608 -0.0125747 0)
(4.96748 -0.0198657 0)
(4.96746 -0.0223443 0)
(4.96818 -0.0307118 0)
(4.96775 -0.0288233 0)
(4.96709 -0.0266657 0)
(4.96598 -0.0220174 0)
(4.9649 -0.0180522 0)
(4.96382 -0.0111083 0)
(4.9628 -0.00792763 0)
(4.96317 -0.0111275 0)
(4.96423 -0.0174786 0)
(4.96438 -0.0225228 0)
(4.96601 -0.0288698 0)
(4.9653 -0.0276587 0)
(4.96409 -0.0241552 0)
(4.96314 -0.018555 0)
(4.96421 -0.0132349 0)
(4.9658 -0.0154262 0)
(4.96863 -0.0175854 0)
(4.97077 -0.0219751 0)
(4.97358 -0.0160657 0)
(4.97696 -0.0093502 0)
(4.97883 -0.00619386 0)
(4.98047 -0.00330672 0)
(4.98456 -0.000803862 0)
(4.98748 0.000901534 0)
(4.99078 0.0011794 0)
(4.99456 0.00157159 0)
(4.99765 0.00223748 0)
(4.99984 0.00121916 0)
(5.00257 0.00297472 0)
(5.00392 0.00397608 0)
(5.00643 0.00766766 0)
(5.00801 0.010712 0)
(5.011 0.0112735 0)
(4.98259 -0.063083 0)
(4.98256 -0.0631159 0)
(4.98254 -0.0631482 0)
(4.98252 -0.0631497 0)
(4.98246 -0.06319 0)
(4.98241 -0.0631448 0)
(4.98236 -0.0631518 0)
(4.98227 -0.0634338 0)
(4.98228 -0.0635438 0)
(4.98231 -0.0635833 0)
(4.98228 -0.0636183 0)
(4.98219 -0.0635765 0)
(4.982 -0.063931 0)
(4.98196 -0.0641784 0)
(4.98199 -0.063968 0)
(4.98193 -0.0641478 0)
(4.98181 -0.0643731 0)
(4.98169 -0.064369 0)
(4.98158 -0.0643505 0)
(4.98146 -0.0643242 0)
(4.98129 -0.0643391 0)
(4.98104 -0.0644339 0)
(4.98074 -0.0641945 0)
(4.98044 -0.0638741 0)
(4.98012 -0.0634789 0)
(4.97984 -0.063292 0)
(4.9795 -0.0627293 0)
(4.97914 -0.061944 0)
(4.97887 -0.060844 0)
(4.97868 -0.0597679 0)
(4.97854 -0.0590781 0)
(4.97836 -0.0584187 0)
(4.97817 -0.0575225 0)
(4.97795 -0.0565395 0)
(4.9778 -0.0555401 0)
(4.97759 -0.0545908 0)
(4.97735 -0.0535554 0)
(4.9771 -0.0525052 0)
(4.97684 -0.0514137 0)
(4.97653 -0.0501703 0)
(4.97623 -0.0486709 0)
(4.97594 -0.047163 0)
(4.97556 -0.0451484 0)
(4.97516 -0.0430145 0)
(4.97477 -0.0409456 0)
(4.97419 -0.0372163 0)
(4.97409 -0.0356348 0)
(4.97357 -0.0323302 0)
(4.97222 -0.0272956 0)
(4.97332 -0.0258094 0)
(4.9713 -0.0218784 0)
(4.97031 -0.0190444 0)
(4.97003 -0.0170246 0)
(4.97057 -0.0174461 0)
(4.97095 -0.0177049 0)
(4.97195 -0.0191222 0)
(4.97277 -0.0200685 0)
(4.9736 -0.0232068 0)
(4.97408 -0.023797 0)
(4.97413 -0.0258353 0)
(4.97359 -0.0257952 0)
(4.97253 -0.0248078 0)
(4.97145 -0.023463 0)
(4.97025 -0.0200801 0)
(4.97002 -0.017441 0)
(4.96959 -0.0135637 0)
(4.96974 -0.0141508 0)
(4.97056 -0.0174274 0)
(4.97146 -0.0212364 0)
(4.97266 -0.0261679 0)
(4.97241 -0.0280875 0)
(4.97166 -0.0264621 0)
(4.96994 -0.0235097 0)
(4.96885 -0.0177529 0)
(4.96795 -0.0107788 0)
(4.96817 -0.0102264 0)
(4.9686 -0.0135378 0)
(4.96939 -0.0191495 0)
(4.96979 -0.0256978 0)
(4.96954 -0.0256164 0)
(4.96912 -0.0230206 0)
(4.96949 -0.0194176 0)
(4.97101 -0.011933 0)
(4.9727 -0.0127119 0)
(4.97578 -0.01653 0)
(4.9765 -0.0222239 0)
(4.98211 -0.0139327 0)
(4.98425 -0.00720991 0)
(4.98645 -0.00310778 0)
(4.98899 0.00203233 0)
(4.99369 0.00877103 0)
(4.99559 0.00988687 0)
(4.9995 0.00696025 0)
(5.00288 0.00193343 0)
(5.00499 2.53621e-05 0)
(5.00888 0.00250801 0)
(5.01054 0.00492617 0)
(5.01376 0.00937942 0)
(5.01599 0.0120171 0)
(5.01949 0.0115158 0)
(4.97961 -0.0633254 0)
(4.97967 -0.063435 0)
(4.97968 -0.0634313 0)
(4.97969 -0.0633696 0)
(4.97964 -0.0635004 0)
(4.97946 -0.0638668 0)
(4.9794 -0.0639708 0)
(4.97943 -0.0643283 0)
(4.97953 -0.0645244 0)
(4.97958 -0.0644458 0)
(4.97973 -0.0642149 0)
(4.9795 -0.0645032 0)
(4.9794 -0.0650468 0)
(4.97947 -0.0652011 0)
(4.97951 -0.0650629 0)
(4.97955 -0.0650276 0)
(4.9794 -0.0654329 0)
(4.9794 -0.0655871 0)
(4.97951 -0.0654672 0)
(4.97954 -0.0656154 0)
(4.97945 -0.0660259 0)
(4.97946 -0.0660657 0)
(4.97944 -0.0661111 0)
(4.97937 -0.0660834 0)
(4.97928 -0.066073 0)
(4.97921 -0.0660455 0)
(4.97929 -0.0665818 0)
(4.97908 -0.0663001 0)
(4.97881 -0.0658709 0)
(4.97856 -0.0652897 0)
(4.97837 -0.0648195 0)
(4.97819 -0.0644258 0)
(4.97801 -0.0638585 0)
(4.97785 -0.0630507 0)
(4.97753 -0.0623167 0)
(4.97721 -0.0618502 0)
(4.97688 -0.0608893 0)
(4.97662 -0.0603146 0)
(4.97628 -0.0595597 0)
(4.97585 -0.05889 0)
(4.97538 -0.0581111 0)
(4.97493 -0.0568263 0)
(4.97456 -0.0557798 0)
(4.97406 -0.0537698 0)
(4.97356 -0.0517775 0)
(4.97301 -0.0498062 0)
(4.97243 -0.0467016 0)
(4.97202 -0.0447635 0)
(4.97109 -0.0403466 0)
(4.97109 -0.0378293 0)
(4.97071 -0.0342239 0)
(4.97037 -0.0316745 0)
(4.97047 -0.0301026 0)
(4.9696 -0.0264612 0)
(4.96948 -0.0244486 0)
(4.9701 -0.0215345 0)
(4.96988 -0.0198888 0)
(4.96958 -0.0198122 0)
(4.97 -0.0193608 0)
(4.97053 -0.0195822 0)
(4.97083 -0.0199583 0)
(4.97104 -0.0206463 0)
(4.97104 -0.0207994 0)
(4.97086 -0.0205273 0)
(4.97047 -0.0198725 0)
(4.96999 -0.019076 0)
(4.96993 -0.0173712 0)
(4.96973 -0.0143989 0)
(4.97001 -0.0145486 0)
(4.97121 -0.017867 0)
(4.97178 -0.0200499 0)
(4.97259 -0.0249297 0)
(4.97234 -0.0252435 0)
(4.97142 -0.0244987 0)
(4.97038 -0.0210122 0)
(4.97013 -0.0180462 0)
(4.9701 -0.0131574 0)
(4.96948 -0.014493 0)
(4.97006 -0.0177125 0)
(4.97082 -0.0227864 0)
(4.97198 -0.0266176 0)
(4.97214 -0.0253711 0)
(4.97242 -0.0207822 0)
(4.97514 -0.0135978 0)
(4.97687 -0.0117264 0)
(4.98027 -0.0131264 0)
(4.9839 -0.0138599 0)
(4.98854 -0.0102114 0)
(4.98958 -0.00808897 0)
(4.99168 -0.00327785 0)
(4.99601 0.00262927 0)
(4.99839 0.00631292 0)
(5.001 0.00798107 0)
(5.00472 0.00597723 0)
(5.00736 0.00186162 0)
(5.01103 0.000355425 0)
(5.01365 0.00113131 0)
(5.0172 0.00540536 0)
(5.02061 0.0108551 0)
(5.02481 0.0120036 0)
(4.97731 -0.0641346 0)
(4.97733 -0.0641096 0)
(4.97735 -0.0640259 0)
(4.97743 -0.0639595 0)
(4.97738 -0.0642018 0)
(4.97733 -0.0644423 0)
(4.97729 -0.0644842 0)
(4.97734 -0.0647179 0)
(4.97741 -0.0648516 0)
(4.9774 -0.0647903 0)
(4.97746 -0.0646497 0)
(4.97743 -0.0648958 0)
(4.97744 -0.0651728 0)
(4.9774 -0.0653334 0)
(4.97747 -0.065534 0)
(4.9776 -0.0658262 0)
(4.97757 -0.0661485 0)
(4.97754 -0.066302 0)
(4.97763 -0.0663296 0)
(4.97767 -0.066354 0)
(4.97772 -0.0664329 0)
(4.97771 -0.066411 0)
(4.9777 -0.0662767 0)
(4.97771 -0.0662586 0)
(4.97772 -0.0664689 0)
(4.97777 -0.0665892 0)
(4.97783 -0.0665459 0)
(4.97789 -0.0664117 0)
(4.97794 -0.0666025 0)
(4.9779 -0.0666586 0)
(4.97786 -0.0666823 0)
(4.97781 -0.0669377 0)
(4.97773 -0.0668566 0)
(4.9776 -0.0666671 0)
(4.97757 -0.0664719 0)
(4.97753 -0.066328 0)
(4.97739 -0.0658851 0)
(4.97722 -0.0653793 0)
(4.97701 -0.0648673 0)
(4.97671 -0.0642627 0)
(4.97641 -0.0636367 0)
(4.9761 -0.0626781 0)
(4.97586 -0.0616616 0)
(4.97555 -0.0602509 0)
(4.97521 -0.0586757 0)
(4.97492 -0.0573512 0)
(4.9744 -0.054878 0)
(4.97419 -0.0535508 0)
(4.97336 -0.0495974 0)
(4.97292 -0.0470275 0)
(4.97233 -0.0437713 0)
(4.97134 -0.0379667 0)
(4.97169 -0.0376961 0)
(4.97004 -0.0290071 0)
(4.97009 -0.0295095 0)
(4.96964 -0.0258951 0)
(4.96915 -0.0223657 0)
(4.96971 -0.0227187 0)
(4.96945 -0.0221958 0)
(4.96878 -0.0214253 0)
(4.96866 -0.0210313 0)
(4.96907 -0.0206916 0)
(4.96922 -0.0205927 0)
(4.96971 -0.0202177 0)
(4.96995 -0.0197757 0)
(4.96985 -0.0191325 0)
(4.96988 -0.0182694 0)
(4.97004 -0.0176508 0)
(4.96995 -0.0162969 0)
(4.96991 -0.0157342 0)
(4.97003 -0.0164565 0)
(4.97052 -0.0188565 0)
(4.97076 -0.0210353 0)
(4.97134 -0.0245818 0)
(4.97101 -0.0240223 0)
(4.97048 -0.0219844 0)
(4.97048 -0.0195548 0)
(4.96984 -0.0180377 0)
(4.96964 -0.0168596 0)
(4.97004 -0.0178272 0)
(4.9711 -0.0199826 0)
(4.97209 -0.0245939 0)
(4.97476 -0.0211492 0)
(4.97605 -0.0183455 0)
(4.97769 -0.0160454 0)
(4.98133 -0.0118114 0)
(4.98562 -0.00952957 0)
(4.9891 -0.00945984 0)
(4.99154 -0.010176 0)
(4.9935 -0.00673174 0)
(4.99553 -0.0037152 0)
(4.99929 -0.000477828 0)
(5.00155 0.00186485 0)
(5.00537 0.0047856 0)
(5.0079 0.00489574 0)
(5.01142 0.00225518 0)
(5.0157 -0.000292625 0)
(5.0169 -0.000816347 0)
(5.02189 0.00453825 0)
(5.02739 0.00886725 0)
(4.97673 -0.0638309 0)
(4.97675 -0.0639326 0)
(4.97682 -0.0640621 0)
(4.97691 -0.0641243 0)
(4.97693 -0.0640963 0)
(4.97696 -0.0640483 0)
(4.97699 -0.0640758 0)
(4.97685 -0.0642312 0)
(4.97687 -0.0644933 0)
(4.9769 -0.0648435 0)
(4.9769 -0.0649187 0)
(4.97698 -0.0649617 0)
(4.9771 -0.0649692 0)
(4.97714 -0.064939 0)
(4.9772 -0.0649436 0)
(4.97718 -0.065192 0)
(4.97719 -0.0653494 0)
(4.97722 -0.0653822 0)
(4.97738 -0.065592 0)
(4.97744 -0.0656462 0)
(4.9775 -0.0657469 0)
(4.97747 -0.0659335 0)
(4.97742 -0.066091 0)
(4.97752 -0.0662857 0)
(4.97757 -0.0665268 0)
(4.97757 -0.066636 0)
(4.97761 -0.0668561 0)
(4.97773 -0.0668055 0)
(4.97773 -0.0664728 0)
(4.97768 -0.0664356 0)
(4.97784 -0.0668244 0)
(4.97781 -0.0670355 0)
(4.97779 -0.0669068 0)
(4.97777 -0.0669469 0)
(4.97777 -0.067266 0)
(4.97776 -0.0673077 0)
(4.97771 -0.0671574 0)
(4.97773 -0.0670508 0)
(4.9778 -0.0668227 0)
(4.97788 -0.0666101 0)
(4.97788 -0.0664958 0)
(4.97786 -0.0663005 0)
(4.97775 -0.0657595 0)
(4.97775 -0.0651659 0)
(4.97775 -0.0645328 0)
(4.9777 -0.0637781 0)
(4.97756 -0.0629034 0)
(4.97728 -0.0611068 0)
(4.97723 -0.0600512 0)
(4.97682 -0.0570459 0)
(4.97678 -0.0560525 0)
(4.97591 -0.0517871 0)
(4.97548 -0.0495633 0)
(4.97447 -0.0450924 0)
(4.97395 -0.0417894 0)
(4.97272 -0.0350572 0)
(4.97289 -0.0354557 0)
(4.97154 -0.0286366 0)
(4.97113 -0.0267393 0)
(4.97067 -0.0259928 0)
(4.97067 -0.0255196 0)
(4.97047 -0.0231005 0)
(4.96985 -0.0217953 0)
(4.97003 -0.0207766 0)
(4.97035 -0.0200649 0)
(4.97006 -0.0194004 0)
(4.97004 -0.0190618 0)
(4.96998 -0.0190653 0)
(4.96985 -0.0189266 0)
(4.96979 -0.0187432 0)
(4.96957 -0.0177963 0)
(4.96954 -0.0179422 0)
(4.96977 -0.0185096 0)
(4.97012 -0.0199227 0)
(4.97084 -0.0227183 0)
(4.97092 -0.0234941 0)
(4.97047 -0.0224656 0)
(4.9703 -0.0213398 0)
(4.97008 -0.0197034 0)
(4.97019 -0.0188813 0)
(4.97058 -0.0186746 0)
(4.97199 -0.0197875 0)
(4.97433 -0.0214815 0)
(4.97571 -0.0206237 0)
(4.97785 -0.0183441 0)
(4.9821 -0.0138 0)
(4.98663 -0.00907172 0)
(4.98936 -0.00665264 0)
(4.99222 -0.00761853 0)
(4.99448 -0.00888248 0)
(4.99575 -0.00736319 0)
(4.99965 -0.00467997 0)
(5.00173 -0.00145945 0)
(5.00519 0.000588887 0)
(5.00892 0.00478864 0)
(5.0113 0.0045845 0)
(5.01589 0.000706383 0)
(5.01854 -0.00420734 0)
(5.0227 0.0012375 0)
(5.02795 0.0045254 0)
(4.97768 -0.0620675 0)
(4.97772 -0.062098 0)
(4.97777 -0.0621098 0)
(4.97779 -0.0621092 0)
(4.97782 -0.0621135 0)
(4.97785 -0.0621414 0)
(4.9779 -0.0621583 0)
(4.97799 -0.0622495 0)
(4.97798 -0.0624998 0)
(4.97794 -0.0625823 0)
(4.97794 -0.0625002 0)
(4.97799 -0.0625569 0)
(4.97818 -0.0630276 0)
(4.97822 -0.0632661 0)
(4.9783 -0.0633348 0)
(4.97829 -0.0636772 0)
(4.97823 -0.0639319 0)
(4.97822 -0.0638926 0)
(4.97826 -0.0639217 0)
(4.97838 -0.0643384 0)
(4.97839 -0.0644832 0)
(4.97836 -0.0643483 0)
(4.97831 -0.064312 0)
(4.97846 -0.0646922 0)
(4.9785 -0.0649943 0)
(4.97857 -0.0649203 0)
(4.97865 -0.0648368 0)
(4.97874 -0.0647001 0)
(4.97873 -0.064509 0)
(4.97885 -0.0647723 0)
(4.97899 -0.0651383 0)
(4.979 -0.0656006 0)
(4.97898 -0.0655102 0)
(4.97889 -0.0653205 0)
(4.97886 -0.065457 0)
(4.97889 -0.0658861 0)
(4.97892 -0.0659098 0)
(4.97895 -0.0657624 0)
(4.97888 -0.0653051 0)
(4.97902 -0.065687 0)
(4.97905 -0.0659491 0)
(4.97915 -0.0659238 0)
(4.97931 -0.0657813 0)
(4.97959 -0.0655749 0)
(4.97972 -0.0653453 0)
(4.98008 -0.0651701 0)
(4.98019 -0.0650499 0)
(4.98027 -0.0648035 0)
(4.98028 -0.0642304 0)
(4.98031 -0.0636737 0)
(4.98009 -0.0621053 0)
(4.97999 -0.06117 0)
(4.97943 -0.058718 0)
(4.97897 -0.0564937 0)
(4.9783 -0.0528529 0)
(4.97759 -0.0488693 0)
(4.97716 -0.0454628 0)
(4.97584 -0.0378199 0)
(4.9762 -0.0384863 0)
(4.97417 -0.0295668 0)
(4.9738 -0.0280039 0)
(4.97327 -0.0247568 0)
(4.97192 -0.0197456 0)
(4.97181 -0.0194368 0)
(4.97154 -0.0190286 0)
(4.97123 -0.0186005 0)
(4.97106 -0.0194802 0)
(4.97093 -0.0201017 0)
(4.97106 -0.0201573 0)
(4.97095 -0.0200188 0)
(4.97091 -0.0195209 0)
(4.9704 -0.0187705 0)
(4.97072 -0.018476 0)
(4.97107 -0.0188789 0)
(4.97141 -0.0201902 0)
(4.97157 -0.0215548 0)
(4.97147 -0.022855 0)
(4.97139 -0.0226778 0)
(4.97129 -0.0216838 0)
(4.97126 -0.0202593 0)
(4.97156 -0.0195255 0)
(4.97235 -0.0188953 0)
(4.9743 -0.0184655 0)
(4.97699 -0.0192152 0)
(4.97875 -0.0206019 0)
(4.9832 -0.0151346 0)
(4.98841 -0.00994176 0)
(4.99045 -0.00800906 0)
(4.99243 -0.00624522 0)
(4.99542 -0.00653203 0)
(4.99705 -0.00692562 0)
(4.99941 -0.00563528 0)
(5.00365 -0.00338934 0)
(5.00544 -0.00078539 0)
(5.00948 0.00255269 0)
(5.0116 0.00379256 0)
(5.01556 0.00225962 0)
(5.01959 -0.000894971 0)
(5.02134 -0.000707703 0)
(5.03002 0.00311435 0)
(4.97868 -0.0611182 0)
(4.97868 -0.0610832 0)
(4.97873 -0.0611011 0)
(4.97878 -0.061119 0)
(4.97885 -0.061126 0)
(4.97893 -0.0611289 0)
(4.97894 -0.0611302 0)
(4.97898 -0.0611642 0)
(4.97904 -0.0611982 0)
(4.97908 -0.0612061 0)
(4.9791 -0.0612284 0)
(4.97911 -0.0613137 0)
(4.97909 -0.0613411 0)
(4.9791 -0.0614352 0)
(4.97936 -0.0616782 0)
(4.97944 -0.0618267 0)
(4.97948 -0.061864 0)
(4.97953 -0.0618704 0)
(4.9796 -0.0618853 0)
(4.97969 -0.0620123 0)
(4.97977 -0.0621101 0)
(4.97979 -0.0621199 0)
(4.97983 -0.0621824 0)
(4.97992 -0.062324 0)
(4.98004 -0.0625346 0)
(4.98013 -0.0626035 0)
(4.98024 -0.0624305 0)
(4.98033 -0.062299 0)
(4.98047 -0.0624142 0)
(4.98062 -0.0626383 0)
(4.98075 -0.0628314 0)
(4.98077 -0.0630292 0)
(4.98067 -0.0630267 0)
(4.98058 -0.0632161 0)
(4.9806 -0.0636463 0)
(4.98069 -0.0638621 0)
(4.9808 -0.0636466 0)
(4.98087 -0.0638033 0)
(4.98092 -0.0636014 0)
(4.98087 -0.0636931 0)
(4.98081 -0.0638648 0)
(4.98081 -0.0634157 0)
(4.98092 -0.0636057 0)
(4.98114 -0.0638224 0)
(4.98127 -0.0638203 0)
(4.9816 -0.0638413 0)
(4.98182 -0.0639145 0)
(4.98207 -0.0639512 0)
(4.98236 -0.0639631 0)
(4.98246 -0.0639595 0)
(4.98264 -0.0638082 0)
(4.98266 -0.0634804 0)
(4.98236 -0.06293 0)
(4.98222 -0.062092 0)
(4.98214 -0.0610065 0)
(4.98186 -0.058947 0)
(4.98156 -0.0571742 0)
(4.98077 -0.0536135 0)
(4.98018 -0.0505146 0)
(4.9791 -0.0456109 0)
(4.97862 -0.042894 0)
(4.97723 -0.0348076 0)
(4.9778 -0.0362354 0)
(4.97603 -0.0273573 0)
(4.97545 -0.02783 0)
(4.97515 -0.025708 0)
(4.97515 -0.0247519 0)
(4.97512 -0.0235235 0)
(4.97436 -0.0220236 0)
(4.97384 -0.0214877 0)
(4.97315 -0.0200365 0)
(4.97288 -0.0192546 0)
(4.97244 -0.0194361 0)
(4.97293 -0.0192464 0)
(4.97268 -0.0200731 0)
(4.97267 -0.020522 0)
(4.97288 -0.0210785 0)
(4.97268 -0.022319 0)
(4.97297 -0.0220428 0)
(4.97318 -0.0215982 0)
(4.97344 -0.0200597 0)
(4.97399 -0.0190467 0)
(4.97553 -0.018043 0)
(4.97862 -0.017832 0)
(4.98157 -0.0200976 0)
(4.98458 -0.0162617 0)
(4.9902 -0.011502 0)
(4.99234 -0.00893241 0)
(4.99382 -0.00712805 0)
(4.99659 -0.00523843 0)
(4.99867 -0.00433441 0)
(5.00071 -0.00331521 0)
(5.00449 -0.00271206 0)
(5.00707 -0.000480917 0)
(5.01027 0.00119704 0)
(5.0127 0.00289568 0)
(5.01601 0.00292405 0)
(5.02008 0.00221727 0)
(5.02259 0.00231706 0)
(5.03077 0.00515545 0)
(4.98021 -0.0614679 0)
(4.98019 -0.0613847 0)
(4.9802 -0.061259 0)
(4.98026 -0.0611639 0)
(4.98036 -0.0611044 0)
(4.98045 -0.0610761 0)
(4.98046 -0.0610849 0)
(4.98048 -0.0610651 0)
(4.9806 -0.0608937 0)
(4.98064 -0.0608274 0)
(4.98069 -0.0608169 0)
(4.98073 -0.0608571 0)
(4.98073 -0.0608725 0)
(4.98079 -0.0609498 0)
(4.98086 -0.0609932 0)
(4.98091 -0.0610189 0)
(4.98092 -0.0610286 0)
(4.98098 -0.0609699 0)
(4.9811 -0.0609003 0)
(4.98115 -0.0608575 0)
(4.98121 -0.0608382 0)
(4.98127 -0.0607916 0)
(4.98131 -0.060772 0)
(4.98138 -0.0607434 0)
(4.98145 -0.0607746 0)
(4.98151 -0.0607451 0)
(4.9816 -0.0605276 0)
(4.98167 -0.0603415 0)
(4.98176 -0.0603816 0)
(4.98182 -0.0605653 0)
(4.98183 -0.0605487 0)
(4.9818 -0.0604657 0)
(4.98173 -0.0604159 0)
(4.98171 -0.0605273 0)
(4.98174 -0.0607767 0)
(4.98184 -0.060844 0)
(4.98198 -0.0606355 0)
(4.98206 -0.0605333 0)
(4.98218 -0.0605379 0)
(4.98237 -0.0606052 0)
(4.98258 -0.0610895 0)
(4.98264 -0.0611428 0)
(4.9827 -0.0612852 0)
(4.98287 -0.0616994 0)
(4.98295 -0.0615029 0)
(4.9832 -0.0618123 0)
(4.98347 -0.0624207 0)
(4.98376 -0.062218 0)
(4.98395 -0.0621763 0)
(4.98393 -0.062505 0)
(4.98391 -0.0624875 0)
(4.98388 -0.0624284 0)
(4.98387 -0.0622855 0)
(4.98394 -0.061972 0)
(4.9841 -0.0617165 0)
(4.98421 -0.0610116 0)
(4.98412 -0.0605873 0)
(4.98391 -0.0602288 0)
(4.98353 -0.0594531 0)
(4.98294 -0.0577367 0)
(4.98246 -0.0555041 0)
(4.98152 -0.0505082 0)
(4.98122 -0.0471832 0)
(4.97975 -0.0389472 0)
(4.98005 -0.0388123 0)
(4.97799 -0.0282293 0)
(4.97841 -0.0277543 0)
(4.97796 -0.021875 0)
(4.9782 -0.0222484 0)
(4.977 -0.0187488 0)
(4.97576 -0.0200354 0)
(4.97502 -0.0202651 0)
(4.97441 -0.0209372 0)
(4.97451 -0.0210041 0)
(4.97432 -0.0203668 0)
(4.97432 -0.0201079 0)
(4.97439 -0.0199938 0)
(4.97435 -0.0205836 0)
(4.97426 -0.0215215 0)
(4.97472 -0.0217406 0)
(4.97529 -0.0213937 0)
(4.97646 -0.0199517 0)
(4.9779 -0.0182981 0)
(4.98044 -0.0176162 0)
(4.98396 -0.0185897 0)
(4.98662 -0.016558 0)
(4.99148 -0.0118131 0)
(4.99433 -0.010314 0)
(4.99617 -0.00798301 0)
(4.99854 -0.00624945 0)
(5.0006 -0.00291112 0)
(5.00211 -0.00159747 0)
(5.00533 -0.0002693 0)
(5.00848 -0.000659573 0)
(5.01169 0.000475453 0)
(5.01452 0.00153792 0)
(5.01693 0.00227264 0)
(5.02047 0.00390385 0)
(5.02485 0.00710142 0)
(5.03201 0.0085268 0)
(4.9831 -0.0610967 0)
(4.98313 -0.0610962 0)
(4.98312 -0.0610081 0)
(4.9831 -0.0609579 0)
(4.98313 -0.0608722 0)
(4.98317 -0.0607024 0)
(4.98316 -0.0606323 0)
(4.98316 -0.0606552 0)
(4.98325 -0.0605404 0)
(4.98342 -0.0603393 0)
(4.98351 -0.0602022 0)
(4.98351 -0.0600452 0)
(4.98349 -0.0600046 0)
(4.98345 -0.059986 0)
(4.98344 -0.0598665 0)
(4.98341 -0.0597819 0)
(4.98335 -0.0597428 0)
(4.98338 -0.0596371 0)
(4.98345 -0.0595611 0)
(4.98348 -0.0593644 0)
(4.98346 -0.0592546 0)
(4.9835 -0.0592799 0)
(4.98357 -0.0592428 0)
(4.98369 -0.0590553 0)
(4.98375 -0.0589304 0)
(4.98375 -0.058812 0)
(4.98371 -0.0586769 0)
(4.98366 -0.0584894 0)
(4.98367 -0.058488 0)
(4.98359 -0.0586729 0)
(4.98352 -0.058631 0)
(4.9835 -0.0584372 0)
(4.98345 -0.0583555 0)
(4.98347 -0.0584777 0)
(4.9835 -0.0587731 0)
(4.98354 -0.0589199 0)
(4.98369 -0.0586274 0)
(4.98376 -0.0585428 0)
(4.98376 -0.0584656 0)
(4.98385 -0.0581474 0)
(4.98397 -0.0580577 0)
(4.98405 -0.0581257 0)
(4.98402 -0.0579722 0)
(4.98398 -0.0580416 0)
(4.98406 -0.0582668 0)
(4.98422 -0.0585059 0)
(4.98438 -0.058822 0)
(4.98451 -0.0589303 0)
(4.98479 -0.0593677 0)
(4.98512 -0.0601206 0)
(4.98522 -0.060422 0)
(4.98531 -0.060724 0)
(4.98533 -0.0610554 0)
(4.98546 -0.0608982 0)
(4.98565 -0.0602595 0)
(4.98567 -0.0602057 0)
(4.98526 -0.06066 0)
(4.98511 -0.060739 0)
(4.98488 -0.0609268 0)
(4.98468 -0.0612268 0)
(4.98457 -0.0612402 0)
(4.98443 -0.0603893 0)
(4.98422 -0.0585045 0)
(4.98375 -0.0554938 0)
(4.98301 -0.0511281 0)
(4.98204 -0.0465962 0)
(4.98124 -0.041773 0)
(4.98031 -0.034664 0)
(4.98018 -0.0328192 0)
(4.98001 -0.0298183 0)
(4.98083 -0.0297711 0)
(4.97913 -0.0255132 0)
(4.97879 -0.0255154 0)
(4.9773 -0.0225055 0)
(4.97675 -0.0212715 0)
(4.97637 -0.0198079 0)
(4.97584 -0.0198791 0)
(4.97576 -0.0205265 0)
(4.97587 -0.0208157 0)
(4.97611 -0.0212935 0)
(4.97692 -0.0212782 0)
(4.97818 -0.0208226 0)
(4.98017 -0.019193 0)
(4.98237 -0.0179713 0)
(4.98563 -0.0177339 0)
(4.98884 -0.0157266 0)
(4.99246 -0.0124834 0)
(4.99647 -0.0109715 0)
(4.99879 -0.00873216 0)
(5.00078 -0.00696459 0)
(5.00241 -0.00347031 0)
(5.00382 -0.00173425 0)
(5.00678 -2.63505e-05 0)
(5.00986 0.00045188 0)
(5.0126 -7.11553e-05 0)
(5.01527 0.000645663 0)
(5.01847 0.00201361 0)
(5.02207 0.00342646 0)
(5.0268 0.0075813 0)
(5.03347 0.00987269 0)
(4.98545 -0.0607668 0)
(4.98548 -0.0605557 0)
(4.98549 -0.0604819 0)
(4.98553 -0.0604816 0)
(4.98551 -0.0603336 0)
(4.98544 -0.0601736 0)
(4.98544 -0.0601615 0)
(4.98541 -0.0602151 0)
(4.9854 -0.0601772 0)
(4.98545 -0.0599013 0)
(4.98541 -0.0598107 0)
(4.98535 -0.0598395 0)
(4.98539 -0.0597318 0)
(4.98557 -0.0594729 0)
(4.98555 -0.0592737 0)
(4.98547 -0.0591673 0)
(4.98543 -0.059057 0)
(4.98544 -0.0589539 0)
(4.98541 -0.0588802 0)
(4.98538 -0.0588821 0)
(4.98547 -0.058767 0)
(4.98564 -0.0585714 0)
(4.98566 -0.0584176 0)
(4.98568 -0.0583773 0)
(4.98572 -0.0583683 0)
(4.9857 -0.0582311 0)
(4.9856 -0.058121 0)
(4.98556 -0.0580226 0)
(4.98553 -0.0579617 0)
(4.98543 -0.0579091 0)
(4.98526 -0.0578978 0)
(4.98516 -0.0579159 0)
(4.98523 -0.0579137 0)
(4.98527 -0.057916 0)
(4.98536 -0.0580386 0)
(4.98543 -0.0582481 0)
(4.98557 -0.0581782 0)
(4.98578 -0.0578091 0)
(4.98584 -0.0576124 0)
(4.98584 -0.0574337 0)
(4.98584 -0.0572475 0)
(4.98589 -0.0570656 0)
(4.98591 -0.0569227 0)
(4.9858 -0.0566204 0)
(4.98573 -0.0567012 0)
(4.98579 -0.0569774 0)
(4.98572 -0.0570824 0)
(4.98585 -0.0574546 0)
(4.98598 -0.057908 0)
(4.98607 -0.0584815 0)
(4.98632 -0.0592824 0)
(4.98648 -0.0596685 0)
(4.98669 -0.0600615 0)
(4.98686 -0.0605478 0)
(4.98699 -0.0604851 0)
(4.98701 -0.0600984 0)
(4.98678 -0.060368 0)
(4.98601 -0.0614591 0)
(4.98566 -0.0618942 0)
(4.9854 -0.0621068 0)
(4.98505 -0.0623763 0)
(4.98531 -0.0624507 0)
(4.98556 -0.0622317 0)
(4.98566 -0.0617299 0)
(4.98558 -0.0608963 0)
(4.98507 -0.0586799 0)
(4.98428 -0.0553599 0)
(4.983 -0.0494402 0)
(4.98244 -0.0453179 0)
(4.98096 -0.0358979 0)
(4.98252 -0.0360035 0)
(4.98012 -0.0248472 0)
(4.98049 -0.0234739 0)
(4.97967 -0.0187733 0)
(4.97877 -0.019254 0)
(4.97816 -0.0195197 0)
(4.97712 -0.0208702 0)
(4.97683 -0.0210223 0)
(4.97692 -0.0209204 0)
(4.97723 -0.0207345 0)
(4.97794 -0.020745 0)
(4.97924 -0.0199523 0)
(4.98116 -0.0198023 0)
(4.98387 -0.0189087 0)
(4.98706 -0.0182855 0)
(4.99078 -0.0156843 0)
(4.99444 -0.0124835 0)
(4.99809 -0.0110585 0)
(5.00074 -0.00935369 0)
(5.00233 -0.00734345 0)
(5.00393 -0.00459141 0)
(5.00551 -0.00274996 0)
(5.00861 -0.000455129 0)
(5.01138 4.82026e-05 0)
(5.01382 0.000437449 0)
(5.01649 0.000588353 0)
(5.01969 0.000834215 0)
(5.02417 0.00247986 0)
(5.02846 0.00637972 0)
(5.03488 0.00948259 0)
(4.98634 -0.0609278 0)
(4.98634 -0.0609031 0)
(4.98635 -0.0609153 0)
(4.98635 -0.0608639 0)
(4.98625 -0.0606366 0)
(4.98622 -0.0605528 0)
(4.98617 -0.0605051 0)
(4.98616 -0.0602041 0)
(4.98616 -0.0598729 0)
(4.98618 -0.0597426 0)
(4.98612 -0.0595576 0)
(4.98609 -0.0595423 0)
(4.98607 -0.0594393 0)
(4.98627 -0.0590859 0)
(4.98632 -0.0588095 0)
(4.9862 -0.058682 0)
(4.98618 -0.0584429 0)
(4.98617 -0.0581859 0)
(4.98612 -0.0581441 0)
(4.98613 -0.0580264 0)
(4.98628 -0.057864 0)
(4.98632 -0.0578403 0)
(4.98634 -0.0577754 0)
(4.98635 -0.0576975 0)
(4.98637 -0.0576927 0)
(4.98638 -0.0575825 0)
(4.98623 -0.0574063 0)
(4.98617 -0.0571719 0)
(4.98619 -0.0570089 0)
(4.98612 -0.056909 0)
(4.98594 -0.0571631 0)
(4.9859 -0.0573898 0)
(4.98595 -0.0574588 0)
(4.98607 -0.0575567 0)
(4.98617 -0.057661 0)
(4.98622 -0.0576546 0)
(4.98639 -0.0575553 0)
(4.9865 -0.0574488 0)
(4.98659 -0.0571816 0)
(4.98654 -0.0569732 0)
(4.98647 -0.056863 0)
(4.98649 -0.0566754 0)
(4.98652 -0.0563791 0)
(4.98645 -0.056018 0)
(4.98632 -0.055844 0)
(4.98622 -0.0558561 0)
(4.98618 -0.0558962 0)
(4.98612 -0.0559977 0)
(4.98597 -0.0562313 0)
(4.98573 -0.0566505 0)
(4.98589 -0.0572983 0)
(4.98626 -0.0578976 0)
(4.98645 -0.0580935 0)
(4.98677 -0.0583592 0)
(4.98707 -0.0584958 0)
(4.98729 -0.0586603 0)
(4.98735 -0.0588016 0)
(4.987 -0.0594899 0)
(4.98603 -0.0601704 0)
(4.98535 -0.0611301 0)
(4.9852 -0.0614977 0)
(4.98541 -0.061679 0)
(4.98578 -0.0621439 0)
(4.9862 -0.0624045 0)
(4.98653 -0.0625651 0)
(4.98652 -0.0624203 0)
(4.98624 -0.0617695 0)
(4.98565 -0.0603746 0)
(4.98498 -0.0577524 0)
(4.98403 -0.0533197 0)
(4.98335 -0.0482889 0)
(4.98233 -0.0415628 0)
(4.98233 -0.0388178 0)
(4.98132 -0.0306761 0)
(4.98208 -0.032565 0)
(4.98037 -0.026403 0)
(4.97999 -0.0254494 0)
(4.97899 -0.0229114 0)
(4.97773 -0.0214289 0)
(4.97797 -0.0203769 0)
(4.97845 -0.0203302 0)
(4.97972 -0.0199343 0)
(4.98176 -0.0195125 0)
(4.98471 -0.0195248 0)
(4.98787 -0.0195504 0)
(4.99124 -0.0162847 0)
(4.99639 -0.0119012 0)
(4.99968 -0.0111927 0)
(5.00178 -0.00972966 0)
(5.00332 -0.00749207 0)
(5.00421 -0.00637834 0)
(5.00661 -0.00393182 0)
(5.00992 -0.00215834 0)
(5.01228 -0.000635433 0)
(5.01465 0.000183966 0)
(5.01748 0.000604518 0)
(5.02091 0.000313512 0)
(5.02505 0.00102155 0)
(5.0285 0.0047134 0)
(5.03643 0.00852067 0)
(4.98623 -0.0614324 0)
(4.98626 -0.0612829 0)
(4.98619 -0.0611548 0)
(4.98613 -0.0611331 0)
(4.98609 -0.0610636 0)
(4.98607 -0.0609662 0)
(4.98602 -0.0609707 0)
(4.98604 -0.0608731 0)
(4.98608 -0.0606414 0)
(4.98607 -0.0605317 0)
(4.98608 -0.0605811 0)
(4.98605 -0.0606398 0)
(4.98615 -0.0604017 0)
(4.98629 -0.0601232 0)
(4.98631 -0.0597359 0)
(4.98614 -0.0594901 0)
(4.98606 -0.0594436 0)
(4.98607 -0.059572 0)
(4.98604 -0.0596163 0)
(4.98605 -0.0594515 0)
(4.98605 -0.0592921 0)
(4.98607 -0.0592108 0)
(4.98604 -0.0590963 0)
(4.98604 -0.0588814 0)
(4.98607 -0.0588164 0)
(4.9861 -0.0588029 0)
(4.98596 -0.0584667 0)
(4.98585 -0.0580091 0)
(4.98577 -0.0579043 0)
(4.98573 -0.0579979 0)
(4.9858 -0.0580185 0)
(4.98583 -0.0581988 0)
(4.98584 -0.0585317 0)
(4.98592 -0.0586859 0)
(4.98597 -0.0586335 0)
(4.98603 -0.0586018 0)
(4.98609 -0.0586416 0)
(4.98612 -0.0585194 0)
(4.98615 -0.0582792 0)
(4.98629 -0.0579963 0)
(4.98648 -0.057739 0)
(4.98653 -0.0576361 0)
(4.98657 -0.0573128 0)
(4.98647 -0.0569098 0)
(4.98628 -0.0564626 0)
(4.98615 -0.0561403 0)
(4.9861 -0.056099 0)
(4.98596 -0.0560824 0)
(4.98571 -0.0561868 0)
(4.98538 -0.0566749 0)
(4.98531 -0.0570993 0)
(4.98538 -0.0573734 0)
(4.98557 -0.05752 0)
(4.98593 -0.0575515 0)
(4.98648 -0.0576961 0)
(4.98668 -0.0578706 0)
(4.98664 -0.0579432 0)
(4.98648 -0.0584488 0)
(4.98591 -0.0593352 0)
(4.985 -0.0598336 0)
(4.98422 -0.0605605 0)
(4.98511 -0.0616293 0)
(4.98569 -0.0620414 0)
(4.98624 -0.0622985 0)
(4.98669 -0.0626234 0)
(4.98668 -0.0631809 0)
(4.98647 -0.0630988 0)
(4.98622 -0.0627193 0)
(4.986 -0.0618861 0)
(4.98578 -0.0611595 0)
(4.98534 -0.0592616 0)
(4.98443 -0.0545473 0)
(4.98394 -0.0505291 0)
(4.98204 -0.0407395 0)
(4.98238 -0.0382665 0)
(4.9801 -0.0264141 0)
(4.98055 -0.0259688 0)
(4.97953 -0.0196965 0)
(4.97846 -0.0185581 0)
(4.97797 -0.0207368 0)
(4.97922 -0.0208503 0)
(4.98013 -0.0204612 0)