/*--------------------------------*- C++ -*----------------------------------*\
  =========                 |
  \\      /  F ield         | OpenFOAM: The Open Source CFD Toolbox
   \\    /   O peration     | Website:  https://openfoam.org
    \\  /    A nd           | Version:  7
     \\/     M anipulation  |
\*---------------------------------------------------------------------------*/
FoamFile
{
    version     2.0;
    format      ascii;
    class       volVectorField;
    location    "9";
    object      U;
}
// * * * * * * * * * * * * * * * * * * * * * * * * * * * * * * * * * * * * * //

dimensions      [0 1 -1 0 0 0 0];

internalField   nonuniform List<vector> 
90000
(
(3.0249 -0.0840386 0)
(3.02653 -0.0774028 0)
(3.02663 -0.0709552 0)
(3.02643 -0.0656988 0)
(3.02538 -0.0613131 0)
(3.02391 -0.0574147 0)
(3.02222 -0.0542443 0)
(3.02031 -0.0512351 0)
(3.01844 -0.0487366 0)
(3.01651 -0.0463904 0)
(3.0147 -0.0442589 0)
(3.01291 -0.0424645 0)
(3.01117 -0.0405882 0)
(3.00969 -0.0389997 0)
(3.00836 -0.0368178 0)
(3.00725 -0.0352818 0)
(3.00625 -0.033193 0)
(3.00529 -0.031093 0)
(3.00433 -0.0282883 0)
(3.00351 -0.0260793 0)
(3.00227 -0.021603 0)
(3.00177 -0.0200003 0)
(3.0001 -0.0140991 0)
(2.99933 -0.0117162 0)
(2.99801 -0.0080365 0)
(2.99637 -0.00318466 0)
(2.9951 -0.000380984 0)
(2.99482 0.00164653 0)
(2.9917 0.00649873 0)
(2.99128 0.008374 0)
(2.99124 0.00904637 0)
(2.99062 0.0107776 0)
(2.99048 0.0109867 0)
(2.99028 0.0100178 0)
(2.99053 0.0072367 0)
(2.9912 0.00209828 0)
(2.9921 -0.00418342 0)
(2.99216 -0.00799668 0)
(2.99073 -0.0118808 0)
(2.99001 -0.0126276 0)
(2.98851 -0.0122457 0)
(2.98677 -0.0108691 0)
(2.98475 -0.00860192 0)
(2.98314 -0.00643932 0)
(2.98228 -0.00386672 0)
(2.98176 -0.0020794 0)
(2.98208 -1.02831e-05 0)
(2.98236 7.80515e-05 0)
(2.98297 -0.00101754 0)
(2.98407 -0.00342727 0)
(2.98457 -0.00482855 0)
(2.98519 -0.00705361 0)
(2.98525 -0.00766441 0)
(2.98496 -0.00744817 0)
(2.98415 -0.00628043 0)
(2.98294 -0.00416785 0)
(2.98207 -0.0024224 0)
(2.98218 -0.00032258 0)
(2.98243 -0.000320811 0)
(2.98302 -0.00211526 0)
(2.9833 -0.0032082 0)
(2.98426 -0.00489008 0)
(2.98422 -0.00492182 0)
(2.98379 -0.00411028 0)
(2.9834 -0.00323499 0)
(2.98332 -0.00158641 0)
(2.98358 -0.00175673 0)
(2.98407 -0.00266465 0)
(2.98447 -0.00370818 0)
(2.98467 -0.00400167 0)
(2.98452 -0.00356313 0)
(2.98421 -0.00289445 0)
(2.98431 -0.00195897 0)
(2.98437 -0.00226969 0)
(2.98464 -0.00299865 0)
(2.98478 -0.00299756 0)
(2.98474 -0.00279494 0)
(2.98445 -0.00201683 0)
(2.98467 -0.0019317 0)
(2.98477 -0.00227222 0)
(2.98489 -0.00287945 0)
(2.98492 -0.00293493 0)
(2.98491 -0.00266205 0)
(2.98492 -0.0025336 0)
(2.98486 -0.00264855 0)
(2.98484 -0.00265868 0)
(2.98484 -0.00222297 0)
(2.98487 -0.0022247 0)
(2.98489 -0.0023178 0)
(2.98486 -0.00225751 0)
(2.98483 -0.00220769 0)
(2.98476 -0.00240159 0)
(2.98475 -0.00258075 0)
(2.98477 -0.00268613 0)
(2.98477 -0.00268179 0)
(2.98475 -0.00259173 0)
(2.98472 -0.00252398 0)
(2.98473 -0.00253745 0)
(2.9847 -0.00266054 0)
(2.98465 -0.00270698 0)
(3.02323 -0.0899925 0)
(3.02318 -0.0897499 0)
(3.02305 -0.0891668 0)
(3.02287 -0.0883605 0)
(3.02257 -0.0871604 0)
(3.02224 -0.0858743 0)
(3.02177 -0.0841457 0)
(3.02127 -0.0823923 0)
(3.02065 -0.0802386 0)
(3.01998 -0.0780558 0)
(3.01918 -0.0755943 0)
(3.01834 -0.0731818 0)
(3.01741 -0.0703254 0)
(3.01639 -0.0682119 0)
(3.01511 -0.0654735 0)
(3.0139 -0.0635999 0)
(3.01234 -0.0606014 0)
(3.01097 -0.0587478 0)
(3.00917 -0.0556077 0)
(3.00748 -0.053155 0)
(3.00531 -0.0492595 0)
(3.00348 -0.0462013 0)
(3.00081 -0.0405163 0)
(2.99929 -0.0371459 0)
(2.99673 -0.0303559 0)
(2.99489 -0.0248994 0)
(2.99375 -0.0197952 0)
(2.9924 -0.0137216 0)
(2.99045 -0.00532727 0)
(2.99159 -0.0050424 0)
(2.98916 0.00141237 0)
(2.98803 0.00658028 0)
(2.98843 0.00803604 0)
(2.98786 0.00935658 0)
(2.98766 0.0113254 0)
(2.98736 0.0114839 0)
(2.98814 0.0101692 0)
(2.98903 0.00793472 0)
(2.99006 0.00490971 0)
(2.9915 0.000483816 0)
(2.99212 -0.00180649 0)
(2.993 -0.0048376 0)
(2.99221 -0.00566452 0)
(2.9917 -0.0052759 0)
(2.99088 -0.0044683 0)
(2.99 -0.00317476 0)
(2.9893 -0.00187098 0)
(2.98881 -0.00100191 0)
(2.98827 0.000256261 0)
(2.98826 7.7318e-05 0)
(2.98832 -0.000764659 0)
(2.98872 -0.00257286 0)
(2.98892 -0.00422052 0)
(2.98958 -0.00617048 0)
(2.9889 -0.0063371 0)
(2.98854 -0.00566756 0)
(2.98774 -0.00371071 0)
(2.98708 -0.00252434 0)
(2.9865 -6.43178e-06 0)
(2.9861 -0.000271421 0)
(2.98623 -0.00140249 0)
(2.98664 -0.00292928 0)
(2.98692 -0.00435102 0)
(2.98671 -0.00401929 0)
(2.98641 -0.00291941 0)
(2.98601 -0.00190237 0)
(2.98576 -0.00131758 0)
(2.98585 -0.00179133 0)
(2.98609 -0.00247855 0)
(2.98628 -0.00351306 0)
(2.98637 -0.00301288 0)
(2.98614 -0.00249994 0)
(2.98595 -0.00192639 0)
(2.98581 -0.00204175 0)
(2.98589 -0.00216158 0)
(2.98601 -0.00243457 0)
(2.98599 -0.00230081 0)
(2.98577 -0.00205574 0)
(2.98571 -0.00196701 0)
(2.98575 -0.00212818 0)
(2.98583 -0.00229511 0)
(2.98585 -0.00242504 0)
(2.98585 -0.00253649 0)
(2.98582 -0.00264141 0)
(2.98578 -0.00266746 0)
(2.98568 -0.00240384 0)
(2.9856 -0.00237147 0)
(2.98561 -0.00234398 0)
(2.98564 -0.00229518 0)
(2.98565 -0.00230773 0)
(2.9856 -0.00227934 0)
(2.98556 -0.00223206 0)
(2.98552 -0.00221357 0)
(2.98552 -0.00232328 0)
(2.98551 -0.00245358 0)
(2.98551 -0.00256357 0)
(2.9855 -0.00255721 0)
(2.98548 -0.00251354 0)
(2.98546 -0.0025444 0)
(2.98541 -0.00265638 0)
(3.0217 -0.0898271 0)
(3.02169 -0.0898236 0)
(3.02166 -0.0897996 0)
(3.02162 -0.0897522 0)
(3.02156 -0.0896727 0)
(3.02148 -0.0895526 0)
(3.02135 -0.0893805 0)
(3.02116 -0.0891251 0)
(3.0209 -0.0888019 0)
(3.02058 -0.088311 0)
(3.0202 -0.0876749 0)
(3.01976 -0.0867737 0)
(3.01926 -0.0856641 0)
(3.01871 -0.0842545 0)
(3.01808 -0.0825442 0)
(3.01751 -0.0807712 0)
(3.01668 -0.0782904 0)
(3.01602 -0.07633 0)
(3.01491 -0.0732308 0)
(3.01404 -0.0708741 0)
(3.01276 -0.0675395 0)
(3.01152 -0.064283 0)
(3.01011 -0.0608507 0)
(3.00863 -0.0570922 0)
(3.00662 -0.0518781 0)
(3.0056 -0.0494452 0)
(3.00264 -0.0413248 0)
(3.00149 -0.0389214 0)
(2.99862 -0.0314551 0)
(2.99693 -0.0265225 0)
(2.99407 -0.0180392 0)
(2.99383 -0.0173494 0)
(2.99024 -0.00724333 0)
(2.98925 -0.00479034 0)
(2.98761 0.000340409 0)
(2.98828 0.000751077 0)
(2.98663 0.00362235 0)
(2.98655 0.00534014 0)
(2.98654 0.00654731 0)
(2.98668 0.0065757 0)
(2.98763 0.00508294 0)
(2.98883 0.00305944 0)
(2.99019 0.000721286 0)
(2.99172 -0.00249509 0)
(2.99226 -0.00355399 0)
(2.99283 -0.00583933 0)
(2.99262 -0.0061017 0)
(2.99207 -0.00590495 0)
(2.99115 -0.0049563 0)
(2.99047 -0.00398359 0)
(2.98994 -0.00249849 0)
(2.9898 -0.00151202 0)
(2.9898 -0.00184351 0)
(2.99012 -0.00291929 0)
(2.99039 -0.00405486 0)
(2.99106 -0.00579567 0)
(2.991 -0.00585564 0)
(2.99048 -0.00523332 0)
(2.98949 -0.00401692 0)
(2.98877 -0.00232263 0)
(2.98819 -0.000560005 0)
(2.98809 -0.000817232 0)
(2.98835 -0.00216513 0)
(2.98855 -0.00317664 0)
(2.98866 -0.00436648 0)
(2.98831 -0.00395451 0)
(2.98789 -0.0032414 0)
(2.98745 -0.00166676 0)
(2.98749 -0.001795 0)
(2.98767 -0.00241423 0)
(2.98783 -0.00356751 0)
(2.98775 -0.00354381 0)
(2.9875 -0.00318298 0)
(2.98717 -0.00224823 0)
(2.98714 -0.00229631 0)
(2.98717 -0.00252241 0)
(2.98714 -0.00284316 0)
(2.98702 -0.00264084 0)
(2.98681 -0.00213188 0)
(2.98675 -0.00207054 0)
(2.98672 -0.00227863 0)
(2.98673 -0.00272768 0)
(2.98672 -0.00290879 0)
(2.98663 -0.00282097 0)
(2.98659 -0.00268738 0)
(2.9865 -0.00271093 0)
(2.98638 -0.00257221 0)
(2.98631 -0.00235105 0)
(2.98628 -0.00242187 0)
(2.98629 -0.00239746 0)
(2.9862 -0.00225348 0)
(2.98619 -0.00229098 0)
(2.98616 -0.00239914 0)
(2.98615 -0.00260351 0)
(2.98612 -0.00271201 0)
(2.98611 -0.0026902 0)
(2.98611 -0.00260449 0)
(2.9861 -0.00254339 0)
(2.98608 -0.00261568 0)
(2.98605 -0.00274347 0)
(3.01905 -0.0896162 0)
(3.01905 -0.0896244 0)
(3.01906 -0.0896351 0)
(3.01907 -0.0896448 0)
(3.01909 -0.089632 0)
(3.01909 -0.0896254 0)
(3.01908 -0.0896158 0)
(3.01904 -0.0895883 0)
(3.01899 -0.0895493 0)
(3.01892 -0.0894812 0)
(3.01887 -0.0894145 0)
(3.01881 -0.0893231 0)
(3.01875 -0.0892151 0)
(3.01865 -0.0890716 0)
(3.01851 -0.088872 0)
(3.0183 -0.0885913 0)
(3.01804 -0.0882765 0)
(3.01771 -0.0876882 0)
(3.01738 -0.0871003 0)
(3.01695 -0.0861457 0)
(3.01646 -0.0850035 0)
(3.01596 -0.0837533 0)
(3.01527 -0.0817729 0)
(3.01468 -0.0799786 0)
(3.01385 -0.077517 0)
(3.01284 -0.0744652 0)
(3.01175 -0.0714423 0)
(3.01053 -0.0679213 0)
(3.00853 -0.0621258 0)
(3.00747 -0.0592651 0)
(3.00468 -0.0515593 0)
(3.00296 -0.0466896 0)
(2.99977 -0.0379476 0)
(2.99842 -0.0341128 0)
(2.99424 -0.0225581 0)
(2.99279 -0.0189248 0)
(2.98964 -0.00941534 0)
(2.98907 -0.00743513 0)
(2.98716 -0.00166198 0)
(2.98756 -0.000403769 0)
(2.98643 0.00102504 0)
(2.98653 0.00236782 0)
(2.98661 0.00276513 0)
(2.98704 0.00290876 0)
(2.9877 0.00187509 0)
(2.98844 0.000497795 0)
(2.98911 -0.000975275 0)
(2.98953 -0.00198576 0)
(2.98966 -0.00368639 0)
(2.9895 -0.00432266 0)
(2.98922 -0.00471969 0)
(2.98886 -0.0046355 0)
(2.98843 -0.00412993 0)
(2.98859 -0.00331457 0)
(2.98855 -0.00289157 0)
(2.989 -0.00344947 0)
(2.98929 -0.0038534 0)
(2.98982 -0.00501406 0)
(2.98964 -0.00509252 0)
(2.98914 -0.00477229 0)
(2.98835 -0.00370739 0)
(2.98786 -0.00215677 0)
(2.98766 -0.000961058 0)
(2.98782 -0.00115968 0)
(2.98815 -0.00201495 0)
(2.98843 -0.00339915 0)
(2.98836 -0.00341917 0)
(2.98808 -0.00300673 0)
(2.98776 -0.00168452 0)
(2.98774 -0.00156989 0)
(2.98785 -0.0020499 0)
(2.98806 -0.00320189 0)
(2.98792 -0.00299403 0)
(2.98776 -0.00267136 0)
(2.98753 -0.00192971 0)
(2.98749 -0.00200006 0)
(2.98749 -0.00233032 0)
(2.98742 -0.00242507 0)
(2.9873 -0.00225221 0)
(2.98712 -0.00197929 0)
(2.98707 -0.00209102 0)
(2.98705 -0.00229659 0)
(2.9871 -0.00259959 0)
(2.98696 -0.00257508 0)
(2.98694 -0.00260444 0)
(2.98688 -0.00258373 0)
(2.98679 -0.00250085 0)
(2.98668 -0.00236926 0)
(2.98665 -0.00232643 0)
(2.9866 -0.00233466 0)
(2.98652 -0.002272 0)
(2.9865 -0.00221531 0)
(2.98647 -0.00218709 0)
(2.98647 -0.00228969 0)
(2.98645 -0.00240592 0)
(2.98644 -0.00255301 0)
(2.98646 -0.00251795 0)
(2.98644 -0.00250019 0)
(2.98643 -0.00252771 0)
(2.98643 -0.00264574 0)
(3.01628 -0.08946 0)
(3.01628 -0.0894683 0)
(3.01627 -0.0894735 0)
(3.01627 -0.0894677 0)
(3.01626 -0.0894649 0)
(3.01625 -0.0894593 0)
(3.01625 -0.0894485 0)
(3.01626 -0.0894389 0)
(3.0163 -0.0894534 0)
(3.01633 -0.0894422 0)
(3.01638 -0.0894582 0)
(3.01642 -0.0894716 0)
(3.01645 -0.08948 0)
(3.01645 -0.0894799 0)
(3.01643 -0.0894677 0)
(3.01638 -0.089426 0)
(3.01632 -0.0893615 0)
(3.01627 -0.0892748 0)
(3.01622 -0.0891762 0)
(3.01617 -0.0890447 0)
(3.01612 -0.0889197 0)
(3.01604 -0.0886958 0)
(3.01591 -0.0884518 0)
(3.01568 -0.088069 0)
(3.01541 -0.0875355 0)
(3.01508 -0.0868174 0)
(3.01464 -0.0856795 0)
(3.01413 -0.0843199 0)
(3.01347 -0.0825062 0)
(3.01263 -0.0799404 0)
(3.01156 -0.0768922 0)
(3.01037 -0.0733455 0)
(3.00853 -0.0680732 0)
(3.00684 -0.06291 0)
(3.00422 -0.0555041 0)
(3.00221 -0.0494073 0)
(2.99829 -0.0377976 0)
(2.9971 -0.0339935 0)
(2.99235 -0.019638 0)
(2.99167 -0.0180869 0)
(2.98798 -0.00696479 0)
(2.98721 -0.00511586 0)
(2.98597 -0.000955983 0)
(2.98596 -0.000159211 0)
(2.98554 0.000940796 0)
(2.98561 0.00133343 0)
(2.98597 0.00104426 0)
(2.98643 0.00039843 0)
(2.98666 -0.00075759 0)
(2.98687 -0.0020122 0)
(2.98713 -0.00279346 0)
(2.98743 -0.00371853 0)
(2.98752 -0.00417327 0)
(2.98749 -0.00371793 0)
(2.98732 -0.00339325 0)
(2.98724 -0.00336686 0)
(2.9873 -0.00360925 0)
(2.98737 -0.00406201 0)
(2.98759 -0.00474427 0)
(2.98784 -0.00484353 0)
(2.98777 -0.00445931 0)
(2.98755 -0.00370192 0)
(2.98731 -0.00288208 0)
(2.98697 -0.0016256 0)
(2.98686 -0.00144913 0)
(2.98705 -0.00192109 0)
(2.98736 -0.00269939 0)
(2.98752 -0.00314293 0)
(2.98739 -0.00294651 0)
(2.98723 -0.00243784 0)
(2.9872 -0.00185192 0)
(2.98728 -0.00213397 0)
(2.98744 -0.00280137 0)
(2.98744 -0.0030438 0)
(2.98732 -0.00285371 0)
(2.98714 -0.00216157 0)
(2.98713 -0.0021369 0)
(2.98717 -0.00234048 0)
(2.98711 -0.0024939 0)
(2.98702 -0.00237062 0)
(2.98691 -0.00210375 0)
(2.9869 -0.00224436 0)
(2.98696 -0.00258519 0)
(2.98694 -0.00288099 0)
(2.98693 -0.00279191 0)
(2.9869 -0.00273517 0)
(2.98686 -0.00268889 0)
(2.98678 -0.00259847 0)
(2.98674 -0.00251969 0)
(2.98669 -0.00243162 0)
(2.98666 -0.00232718 0)
(2.98663 -0.00228769 0)
(2.9866 -0.00229555 0)
(2.9866 -0.0024001 0)
(2.98661 -0.00256416 0)
(2.98661 -0.00269441 0)
(2.98665 -0.00262602 0)
(2.98665 -0.0025831 0)
(2.98665 -0.00259263 0)
(2.98666 -0.00270761 0)
(3.01465 -0.0893389 0)
(3.01466 -0.089339 0)
(3.01466 -0.0893393 0)
(3.01466 -0.0893394 0)
(3.01466 -0.0893391 0)
(3.01466 -0.0893353 0)
(3.01466 -0.0893274 0)
(3.01466 -0.0893214 0)
(3.01467 -0.0893126 0)
(3.01467 -0.0892933 0)
(3.01467 -0.089282 0)
(3.01469 -0.0892822 0)
(3.0147 -0.0892937 0)
(3.01471 -0.0893142 0)
(3.01472 -0.0893248 0)
(3.01476 -0.089355 0)
(3.01479 -0.0893684 0)
(3.01486 -0.0893969 0)
(3.0149 -0.0894096 0)
(3.01493 -0.0894254 0)
(3.01496 -0.0894291 0)
(3.01498 -0.0894478 0)
(3.015 -0.0894104 0)
(3.01498 -0.0893476 0)
(3.01496 -0.0892881 0)
(3.01495 -0.0892049 0)
(3.01491 -0.0890723 0)
(3.01486 -0.0888852 0)
(3.01479 -0.0886448 0)
(3.01465 -0.0882746 0)
(3.01441 -0.0877614 0)
(3.01404 -0.0868357 0)
(3.01355 -0.0855447 0)
(3.01284 -0.0835307 0)
(3.01189 -0.0807346 0)
(3.0106 -0.0770981 0)
(3.00867 -0.0716652 0)
(3.00689 -0.0663349 0)
(3.00347 -0.0563833 0)
(3.00167 -0.0506444 0)
(2.99715 -0.0374311 0)
(2.99462 -0.0302792 0)
(2.99222 -0.0227609 0)
(2.98883 -0.0133154 0)
(2.98722 -0.00760786 0)
(2.98722 -0.00812494 0)
(2.98631 -0.0045762 0)
(2.98598 -0.00242236 0)
(2.98589 -0.00204471 0)
(2.98587 -0.00189023 0)
(2.98596 -0.00172413 0)
(2.98594 -0.00150946 0)
(2.98629 -0.0020209 0)
(2.98617 -0.00232514 0)
(2.98617 -0.00320324 0)
(2.98607 -0.00390168 0)
(2.98599 -0.00445354 0)
(2.98595 -0.00458958 0)
(2.98623 -0.00456814 0)
(2.98667 -0.00487958 0)
(2.98706 -0.00472251 0)
(2.98697 -0.00445118 0)
(2.98681 -0.00392203 0)
(2.98659 -0.00337986 0)
(2.98634 -0.00278508 0)
(2.98629 -0.00207676 0)
(2.9864 -0.00192921 0)
(2.98665 -0.00211429 0)
(2.98691 -0.00260875 0)
(2.9869 -0.00268947 0)
(2.98682 -0.0026208 0)
(2.9867 -0.00216345 0)
(2.98678 -0.00219295 0)
(2.98688 -0.00240939 0)
(2.98695 -0.00275717 0)
(2.98689 -0.00264574 0)
(2.98685 -0.00233469 0)
(2.98683 -0.00205996 0)
(2.98684 -0.0022155 0)
(2.98683 -0.00241691 0)
(2.98679 -0.00233356 0)
(2.98676 -0.00209953 0)
(2.9868 -0.00220954 0)
(2.98687 -0.00251532 0)
(2.98691 -0.00274882 0)
(2.98692 -0.00273308 0)
(2.98692 -0.00266577 0)
(2.98688 -0.0025592 0)
(2.98685 -0.00245917 0)
(2.98682 -0.00237541 0)
(2.98682 -0.00228439 0)
(2.98681 -0.00218778 0)
(2.98678 -0.00218385 0)
(2.98678 -0.0022703 0)
(2.9868 -0.00239631 0)
(2.98684 -0.00254682 0)
(2.9869 -0.00255725 0)
(2.9869 -0.0025372 0)
(2.98692 -0.00254744 0)
(2.98693 -0.00263716 0)
(3.01474 -0.0893322 0)
(3.01475 -0.0893238 0)
(3.01476 -0.0893194 0)
(3.01477 -0.0893194 0)
(3.01477 -0.0893201 0)
(3.01478 -0.0893188 0)
(3.01479 -0.0893199 0)
(3.01479 -0.0893217 0)
(3.0148 -0.0893223 0)
(3.0148 -0.0893176 0)
(3.01481 -0.0893032 0)
(3.01483 -0.0892857 0)
(3.01484 -0.0892785 0)
(3.01486 -0.0892797 0)
(3.01487 -0.0892814 0)
(3.01488 -0.0892934 0)
(3.01488 -0.0893047 0)
(3.01489 -0.089316 0)
(3.01491 -0.0893342 0)
(3.01493 -0.0893512 0)
(3.01494 -0.0893591 0)
(3.01497 -0.089373 0)
(3.01499 -0.0893953 0)
(3.01502 -0.0894218 0)
(3.01505 -0.089457 0)
(3.01507 -0.0894856 0)
(3.01509 -0.089496 0)
(3.0151 -0.0895172 0)
(3.01509 -0.0894819 0)
(3.01502 -0.089466 0)
(3.01504 -0.0893722 0)
(3.01506 -0.0893006 0)
(3.01506 -0.0891887 0)
(3.01502 -0.0890263 0)
(3.0149 -0.0886924 0)
(3.01472 -0.0881626 0)
(3.01431 -0.0869878 0)
(3.01374 -0.085333 0)
(3.01267 -0.0823417 0)
(3.01132 -0.0784651 0)
(3.00876 -0.0714403 0)
(3.00717 -0.0664346 0)
(3.00244 -0.0516769 0)
(3.00128 -0.0482418 0)
(2.99541 -0.0309909 0)
(2.99398 -0.026392 0)
(2.98946 -0.0123076 0)
(2.98956 -0.0120349 0)
(2.98693 -0.00474073 0)
(2.98633 -0.00309278 0)
(2.98545 -0.000381657 0)
(2.98555 -3.86281e-05 0)
(2.98532 -0.000812334 0)
(2.98549 -0.00164184 0)
(2.9859 -0.00267833 0)
(2.98595 -0.00286414 0)
(2.98604 -0.00310968 0)
(2.98619 -0.00307532 0)
(2.98639 -0.00322351 0)
(2.98643 -0.00332623 0)
(2.98668 -0.00383137 0)
(2.98665 -0.00443596 0)
(2.98668 -0.00473496 0)
(2.98663 -0.00442775 0)
(2.98639 -0.00357052 0)
(2.98642 -0.00299634 0)
(2.98644 -0.0022601 0)
(2.98656 -0.00193472 0)
(2.98671 -0.00234568 0)
(2.98681 -0.0025215 0)
(2.98677 -0.0025911 0)
(2.98674 -0.00236234 0)
(2.98678 -0.00219951 0)
(2.9868 -0.0023165 0)
(2.98685 -0.00253251 0)
(2.98694 -0.0027055 0)
(2.98696 -0.00260638 0)
(2.98695 -0.00243521 0)
(2.98695 -0.00220133 0)
(2.98694 -0.00230502 0)
(2.98696 -0.00246226 0)
(2.98695 -0.00240078 0)
(2.98698 -0.00233854 0)
(2.98703 -0.00244648 0)
(2.98708 -0.00267465 0)
(2.98719 -0.00285839 0)
(2.98719 -0.00286339 0)
(2.98718 -0.00280221 0)
(2.98715 -0.00262915 0)
(2.98715 -0.00248877 0)
(2.98714 -0.00236799 0)
(2.98716 -0.00228474 0)
(2.98714 -0.00225381 0)
(2.98714 -0.00230145 0)
(2.98716 -0.00242101 0)
(2.98721 -0.00259462 0)
(2.9873 -0.00262913 0)
(2.98731 -0.00261688 0)
(2.98733 -0.00260579 0)
(2.98734 -0.00269654 0)
(3.01609 -0.0894044 0)
(3.0161 -0.0893924 0)
(3.01611 -0.0893781 0)
(3.01612 -0.089375 0)
(3.01612 -0.0893687 0)
(3.01613 -0.0893609 0)
(3.01614 -0.0893601 0)
(3.01615 -0.0893535 0)
(3.01615 -0.089349 0)
(3.01616 -0.089357 0)
(3.01617 -0.0893642 0)
(3.01617 -0.0893603 0)
(3.01618 -0.0893688 0)
(3.0162 -0.0893745 0)
(3.01621 -0.0893663 0)
(3.01621 -0.0893618 0)
(3.01622 -0.0893736 0)
(3.01623 -0.0893965 0)
(3.01625 -0.0894028 0)
(3.01626 -0.089408 0)
(3.01626 -0.0894301 0)
(3.01627 -0.0894388 0)
(3.01628 -0.089455 0)
(3.01628 -0.0894742 0)
(3.01629 -0.089481 0)
(3.01629 -0.0895025 0)
(3.01629 -0.0895394 0)
(3.0163 -0.0895539 0)
(3.01631 -0.089574 0)
(3.01631 -0.0895868 0)
(3.01628 -0.0896044 0)
(3.01626 -0.0896124 0)
(3.01623 -0.0896276 0)
(3.0162 -0.0896151 0)
(3.01607 -0.0896076 0)
(3.01614 -0.0895184 0)
(3.01621 -0.0894764 0)
(3.01623 -0.0893834 0)
(3.01618 -0.0891831 0)
(3.01602 -0.0886791 0)
(3.01562 -0.0876293 0)
(3.01488 -0.0855673 0)
(3.01353 -0.0821038 0)
(3.0118 -0.0770278 0)
(3.00846 -0.0675765 0)
(3.0065 -0.061204 0)
(3.00129 -0.0459116 0)
(2.99944 -0.039201 0)
(2.99439 -0.0217863 0)
(2.99413 -0.0222088 0)
(2.99048 -0.012144 0)
(2.98953 -0.00935296 0)
(2.98835 -0.00706918 0)
(2.98811 -0.0055644 0)
(2.9878 -0.00435419 0)
(2.98759 -0.00349633 0)
(2.9871 -0.00257325 0)
(2.98694 -0.00189444 0)
(2.98688 -0.00240003 0)
(2.98684 -0.00289743 0)
(2.98714 -0.00401797 0)
(2.98711 -0.00458669 0)
(2.98716 -0.00503334 0)
(2.98728 -0.00471296 0)
(2.98725 -0.00399946 0)
(2.98724 -0.00341257 0)
(2.98707 -0.00281159 0)
(2.98683 -0.00280125 0)
(2.9869 -0.00262735 0)
(2.98703 -0.00238007 0)
(2.98714 -0.00228527 0)
(2.98721 -0.00224063 0)
(2.98721 -0.00225485 0)
(2.98722 -0.00229776 0)
(2.98732 -0.00245867 0)
(2.98739 -0.00252895 0)
(2.98748 -0.00260977 0)
(2.98748 -0.00257768 0)
(2.98748 -0.00252495 0)
(2.98747 -0.00224757 0)
(2.98745 -0.00225605 0)
(2.98747 -0.00234208 0)
(2.98747 -0.0023335 0)
(2.98751 -0.00238809 0)
(2.98755 -0.0024889 0)
(2.98765 -0.00277028 0)
(2.98767 -0.00283534 0)
(2.9877 -0.00283305 0)
(2.98769 -0.00268989 0)
(2.98769 -0.00244914 0)
(2.98766 -0.00234148 0)
(2.98768 -0.00231443 0)
(2.98767 -0.00224045 0)
(2.98765 -0.00226185 0)
(2.98767 -0.00230939 0)
(2.98772 -0.00245034 0)
(2.98781 -0.00257315 0)
(2.98783 -0.00260446 0)
(2.98785 -0.00259954 0)
(2.98787 -0.0026725 0)
(3.01778 -0.089519 0)
(3.01778 -0.0895181 0)
(3.01778 -0.0895186 0)
(3.01778 -0.0895264 0)
(3.01778 -0.0895306 0)
(3.01779 -0.0895274 0)
(3.01779 -0.089528 0)
(3.0178 -0.0895246 0)
(3.0178 -0.0895215 0)
(3.0178 -0.0895244 0)
(3.01781 -0.0895275 0)
(3.01781 -0.0895391 0)
(3.01781 -0.0895486 0)
(3.01782 -0.0895494 0)
(3.01782 -0.0895435 0)
(3.01782 -0.0895648 0)
(3.01782 -0.089587 0)
(3.01783 -0.089592 0)
(3.01784 -0.0896066 0)
(3.01784 -0.0896238 0)
(3.01785 -0.0896115 0)
(3.01785 -0.089634 0)
(3.01785 -0.089651 0)
(3.01785 -0.0896562 0)
(3.01786 -0.0896577 0)
(3.01785 -0.0896927 0)
(3.01785 -0.0896977 0)
(3.01784 -0.0897277 0)
(3.01785 -0.0897387 0)
(3.01785 -0.089751 0)
(3.01785 -0.0897776 0)
(3.01785 -0.0898049 0)
(3.01784 -0.0898011 0)
(3.01784 -0.0898188 0)
(3.01783 -0.0898181 0)
(3.01777 -0.0898003 0)
(3.01772 -0.0897959 0)
(3.01766 -0.0897794 0)
(3.0176 -0.0897369 0)
(3.01752 -0.0896752 0)
(3.01761 -0.0895669 0)
(3.01768 -0.0894748 0)
(3.01763 -0.0891688 0)
(3.01741 -0.0884539 0)
(3.01675 -0.0867743 0)
(3.01571 -0.0839303 0)
(3.0134 -0.0777888 0)
(3.01148 -0.0719538 0)
(3.00689 -0.0584927 0)
(3.00496 -0.0507475 0)
(2.99898 -0.032056 0)
(2.99874 -0.0296639 0)
(2.99316 -0.0128961 0)
(2.99271 -0.0109267 0)
(2.99008 -0.00365917 0)
(2.98918 -0.00254444 0)
(2.98855 -0.000313428 0)
(2.98785 -0.0013199 0)
(2.98735 -0.00237597 0)
(2.98732 -0.00324347 0)
(2.98747 -0.00344173 0)
(2.9877 -0.00344209 0)
(2.98828 -0.00353614 0)
(2.98829 -0.00325613 0)
(2.98829 -0.00362152 0)
(2.98822 -0.003798 0)
(2.98795 -0.0036634 0)
(2.98785 -0.00358168 0)
(2.98783 -0.00311173 0)
(2.98789 -0.00260367 0)
(2.98799 -0.00223443 0)
(2.98806 -0.0022338 0)
(2.98806 -0.00240618 0)
(2.98809 -0.00238532 0)
(2.98813 -0.00235314 0)
(2.98817 -0.00240096 0)
(2.98821 -0.00251464 0)
(2.98823 -0.00269136 0)
(2.98822 -0.00263367 0)
(2.98822 -0.00256438 0)
(2.98817 -0.00241896 0)
(2.98817 -0.00236485 0)
(2.98814 -0.00243603 0)
(2.98816 -0.00244747 0)
(2.9882 -0.00251665 0)
(2.98823 -0.00265681 0)
(2.9883 -0.00291286 0)
(2.98832 -0.00292691 0)
(2.98831 -0.00283965 0)
(2.98831 -0.00264768 0)
(2.9883 -0.00238278 0)
(2.98829 -0.00232073 0)
(2.98827 -0.0023432 0)
(2.98824 -0.00231692 0)
(2.98824 -0.00232516 0)
(2.98828 -0.00239448 0)
(2.98836 -0.0025821 0)
(2.98838 -0.00264148 0)
(2.9884 -0.00265826 0)
(2.98842 -0.00271773 0)
(3.01916 -0.089652 0)
(3.01916 -0.089649 0)
(3.01917 -0.0896502 0)
(3.01916 -0.0896708 0)
(3.01916 -0.0896757 0)
(3.01916 -0.0896747 0)
(3.01916 -0.0896817 0)
(3.01916 -0.0896824 0)
(3.01916 -0.0896911 0)
(3.01916 -0.0896967 0)
(3.01916 -0.0897177 0)
(3.01916 -0.0897397 0)
(3.01916 -0.0897461 0)
(3.01916 -0.0897508 0)
(3.01915 -0.0897581 0)
(3.01915 -0.0897851 0)
(3.01915 -0.0898143 0)
(3.01915 -0.0898335 0)
(3.01915 -0.0898414 0)
(3.01915 -0.089832 0)
(3.01915 -0.0898549 0)
(3.01914 -0.0898895 0)
(3.01914 -0.0898908 0)
(3.01913 -0.0899103 0)
(3.01913 -0.0899281 0)
(3.01912 -0.0899246 0)
(3.01911 -0.0899517 0)
(3.01911 -0.0899713 0)
(3.01911 -0.0899534 0)
(3.01911 -0.0899646 0)
(3.01912 -0.0899919 0)
(3.01912 -0.0899862 0)
(3.01912 -0.0899897 0)
(3.01911 -0.089991 0)
(3.01912 -0.0899925 0)
(3.01911 -0.0899867 0)
(3.0191 -0.0899789 0)
(3.01908 -0.0899682 0)
(3.01906 -0.0899494 0)
(3.01903 -0.0899069 0)
(3.01898 -0.0898694 0)
(3.01893 -0.0898326 0)
(3.0189 -0.0897704 0)
(3.01898 -0.0896893 0)
(3.01903 -0.0895943 0)
(3.01899 -0.089325 0)
(3.01874 -0.0886636 0)
(3.01816 -0.0871064 0)
(3.01688 -0.0838742 0)
(3.01521 -0.0790246 0)
(3.01169 -0.0692172 0)
(3.00916 -0.0604332 0)
(3.00393 -0.0438905 0)
(3.00254 -0.0381705 0)
(2.99727 -0.0208904 0)
(2.996 -0.018899 0)
(2.99385 -0.0118003 0)
(2.99423 -0.0101746 0)
(2.99153 -0.00648516 0)
(2.9906 -0.00478118 0)
(2.99029 -0.00343111 0)
(2.98948 -0.00198382 0)
(2.98932 -0.00207261 0)
(2.98927 -0.00270391 0)
(2.98917 -0.00359546 0)
(2.98924 -0.00452349 0)
(2.98933 -0.00442401 0)
(2.98935 -0.0039335 0)
(2.98937 -0.00336689 0)
(2.98927 -0.00287391 0)
(2.98914 -0.00266788 0)
(2.98902 -0.00256685 0)
(2.98884 -0.00242027 0)
(2.98889 -0.00233494 0)
(2.98895 -0.00229537 0)
(2.98896 -0.00233332 0)
(2.98897 -0.00255369 0)
(2.98901 -0.00262631 0)
(2.98903 -0.00262112 0)
(2.98899 -0.00255207 0)
(2.98895 -0.00249523 0)
(2.98891 -0.00245376 0)
(2.98887 -0.00238334 0)
(2.98887 -0.00239755 0)
(2.98888 -0.00245702 0)
(2.98889 -0.00261044 0)
(2.98892 -0.00277519 0)
(2.98895 -0.00285142 0)
(2.98895 -0.00280611 0)
(2.98895 -0.00270931 0)
(2.98892 -0.00254973 0)
(2.9889 -0.00237233 0)
(2.98886 -0.00230695 0)
(2.98881 -0.00231331 0)
(2.98881 -0.0023012 0)
(2.98882 -0.00232403 0)
(2.98887 -0.00247591 0)
(2.98891 -0.0026181 0)
(2.98894 -0.00267042 0)
(2.98894 -0.00272022 0)
(3.02005 -0.0898337 0)
(3.02004 -0.0898418 0)
(3.02004 -0.0898368 0)
(3.02004 -0.0898522 0)
(3.02003 -0.0898848 0)
(3.02003 -0.0898946 0)
(3.02003 -0.0899015 0)
(3.02002 -0.0899152 0)
(3.02001 -0.0899203 0)
(3.02001 -0.0899214 0)
(3.02 -0.0899324 0)
(3.02 -0.0899557 0)
(3.02 -0.0899707 0)
(3.02 -0.0899716 0)
(3.01999 -0.0899841 0)
(3.01997 -0.0900227 0)
(3.01997 -0.0900359 0)
(3.01996 -0.0900301 0)
(3.01996 -0.0900524 0)
(3.01995 -0.0900708 0)
(3.01995 -0.0900587 0)
(3.01995 -0.090063 0)
(3.01993 -0.0900942 0)
(3.01992 -0.0901034 0)
(3.01992 -0.0901031 0)
(3.01991 -0.0901248 0)
(3.01991 -0.0901484 0)
(3.01991 -0.0901593 0)
(3.01991 -0.0901675 0)
(3.01991 -0.0901827 0)
(3.01992 -0.0901929 0)
(3.01993 -0.0901797 0)
(3.01992 -0.0901677 0)
(3.01991 -0.0901636 0)
(3.0199 -0.0901528 0)
(3.0199 -0.0901327 0)
(3.01988 -0.0901175 0)
(3.01987 -0.0900996 0)
(3.01986 -0.0900825 0)
(3.01984 -0.0900509 0)
(3.01981 -0.0900077 0)
(3.01979 -0.0899562 0)
(3.01978 -0.0899163 0)
(3.01974 -0.089886 0)
(3.01972 -0.0898387 0)
(3.01977 -0.0897955 0)
(3.01981 -0.0897416 0)
(3.01981 -0.0896582 0)
(3.01971 -0.0893543 0)
(3.01945 -0.0886306 0)
(3.01873 -0.0867524 0)
(3.01762 -0.0835645 0)
(3.01486 -0.0759597 0)
(3.01274 -0.0689518 0)
(3.00705 -0.0517772 0)
(3.00595 -0.0455969 0)
(2.99914 -0.0242881 0)
(2.99937 -0.0214621 0)
(2.99502 -0.00723928 0)
(2.99404 -0.0061743 0)
(2.99247 -0.000591366 0)
(2.99138 -0.00087871 0)
(2.99052 -0.00217738 0)
(2.99006 -0.00340202 0)
(2.99004 -0.0036641 0)
(2.99009 -0.00382236 0)
(2.99029 -0.0033821 0)
(2.99038 -0.00330666 0)
(2.99031 -0.00327636 0)
(2.9901 -0.00335352 0)
(2.98995 -0.00347968 0)
(2.98977 -0.00311621 0)
(2.98957 -0.00264138 0)
(2.98956 -0.00218826 0)
(2.98954 -0.00219922 0)
(2.98959 -0.0024578 0)
(2.98964 -0.00260901 0)
(2.98969 -0.00261857 0)
(2.98974 -0.00257162 0)
(2.98965 -0.00264443 0)
(2.98962 -0.00265418 0)
(2.98958 -0.00261477 0)
(2.98952 -0.00252386 0)
(2.9895 -0.00243265 0)
(2.98946 -0.00250947 0)
(2.98947 -0.00259576 0)
(2.9895 -0.00269596 0)
(2.98953 -0.00283241 0)
(2.98954 -0.00280335 0)
(2.98953 -0.0027758 0)
(2.98949 -0.00266625 0)
(2.98944 -0.00251896 0)
(2.98939 -0.0023962 0)
(2.98933 -0.00233172 0)
(2.98932 -0.00230854 0)
(2.98931 -0.00230839 0)
(2.98935 -0.00243811 0)
(2.98939 -0.00263932 0)
(2.98939 -0.00269378 0)
(2.9894 -0.00275092 0)
(3.02042 -0.0900107 0)
(3.0204 -0.0900281 0)
(3.02039 -0.0900466 0)
(3.02039 -0.0900564 0)
(3.02038 -0.090073 0)
(3.02038 -0.0900906 0)
(3.02037 -0.0900878 0)
(3.02036 -0.0900785 0)
(3.02035 -0.0900867 0)
(3.02034 -0.0901056 0)
(3.02033 -0.0901295 0)
(3.02033 -0.0901523 0)
(3.02033 -0.0901524 0)
(3.02032 -0.0901311 0)
(3.02032 -0.0901276 0)
(3.02029 -0.090161 0)
(3.02028 -0.0901982 0)
(3.02028 -0.0902113 0)
(3.02027 -0.0902014 0)
(3.02026 -0.0901993 0)
(3.02025 -0.0902082 0)
(3.02025 -0.0902122 0)
(3.02024 -0.0902216 0)
(3.02023 -0.0902425 0)
(3.02022 -0.0902565 0)
(3.02022 -0.0902608 0)
(3.02022 -0.0902698 0)
(3.02023 -0.0902859 0)
(3.02023 -0.0902949 0)
(3.02024 -0.090295 0)
(3.02025 -0.0902949 0)
(3.02026 -0.0903003 0)
(3.02028 -0.0902962 0)
(3.02028 -0.0902882 0)
(3.02027 -0.0902784 0)
(3.02026 -0.0902576 0)
(3.02025 -0.0902271 0)
(3.02023 -0.090208 0)
(3.0202 -0.0901802 0)
(3.02018 -0.0901372 0)
(3.02015 -0.0901027 0)
(3.02013 -0.0900531 0)
(3.02009 -0.0900019 0)
(3.02006 -0.0899435 0)
(3.02006 -0.0899098 0)
(3.02005 -0.0898878 0)
(3.02007 -0.0898672 0)
(3.02008 -0.0898718 0)
(3.02008 -0.0898465 0)
(3.02008 -0.0898066 0)
(3.02008 -0.0896706 0)
(3.02 -0.0892707 0)
(3.01968 -0.088319 0)
(3.01886 -0.0860061 0)
(3.01693 -0.0810887 0)
(3.01465 -0.0739453 0)
(3.00991 -0.0600978 0)
(3.00776 -0.0516633 0)
(3.00182 -0.0315323 0)
(3.00093 -0.0288453 0)
(2.99698 -0.0146295 0)
(2.99744 -0.015143 0)
(2.99438 -0.00927198 0)
(2.99304 -0.00687124 0)
(2.99268 -0.00456734 0)
(2.9913 -0.00304737 0)
(2.99088 -0.00208598 0)
(2.99062 -0.00246668 0)
(2.99044 -0.00310983 0)
(2.99033 -0.00387175 0)
(2.99052 -0.00374508 0)
(2.99049 -0.00336936 0)
(2.9904 -0.00278837 0)
(2.99022 -0.0025372 0)
(2.99007 -0.00265091 0)
(2.99003 -0.00253776 0)
(2.9901 -0.00248515 0)
(2.99014 -0.00237014 0)
(2.99016 -0.0024439 0)
(2.99012 -0.00262123 0)
(2.99011 -0.00268982 0)
(2.99007 -0.00264373 0)
(2.99002 -0.00255904 0)
(2.98997 -0.00249355 0)
(2.98991 -0.00255703 0)
(2.98991 -0.00258324 0)
(2.98993 -0.00260876 0)
(2.98994 -0.00263176 0)
(2.98998 -0.00276924 0)
(2.98998 -0.00277868 0)
(2.98996 -0.00274466 0)
(2.9899 -0.00263794 0)
(2.98983 -0.00247208 0)
(2.98977 -0.00234322 0)
(2.98973 -0.00229647 0)
(2.98972 -0.00230342 0)
(2.98975 -0.00240193 0)
(2.98976 -0.00254964 0)
(2.98977 -0.00270019 0)
(2.98978 -0.00274882 0)
(3.0204 -0.0901493 0)
(3.02039 -0.0901574 0)
(3.02039 -0.090168 0)
(3.02038 -0.0901774 0)
(3.02036 -0.0902032 0)
(3.02036 -0.0902197 0)
(3.02034 -0.090219 0)
(3.02032 -0.0902127 0)
(3.02032 -0.090209 0)
(3.02031 -0.0902034 0)
(3.0203 -0.0902041 0)
(3.02029 -0.0902174 0)
(3.02029 -0.0902222 0)
(3.02028 -0.0902238 0)
(3.02026 -0.0902237 0)
(3.02026 -0.0902245 0)
(3.02025 -0.0902265 0)
(3.02025 -0.0902227 0)
(3.02023 -0.0902167 0)
(3.02022 -0.0902295 0)
(3.02022 -0.0902315 0)
(3.02023 -0.0902293 0)
(3.02022 -0.0902396 0)
(3.02021 -0.0902572 0)
(3.02021 -0.0902748 0)
(3.02021 -0.0902905 0)
(3.02022 -0.0903059 0)
(3.02022 -0.0903265 0)
(3.02023 -0.0903482 0)
(3.02024 -0.0903596 0)
(3.02025 -0.0903597 0)
(3.02026 -0.0903584 0)
(3.02029 -0.0903578 0)
(3.02031 -0.0903568 0)
(3.02032 -0.0903506 0)
(3.02032 -0.090332 0)
(3.0203 -0.0903082 0)
(3.02029 -0.0902887 0)
(3.02027 -0.0902616 0)
(3.02025 -0.0902188 0)
(3.02022 -0.0901774 0)
(3.02018 -0.0901284 0)
(3.02015 -0.0900771 0)
(3.02012 -0.0900231 0)
(3.02011 -0.0899556 0)
(3.02009 -0.0899124 0)
(3.02009 -0.0898903 0)
(3.02008 -0.0898846 0)
(3.02008 -0.0898589 0)
(3.02008 -0.0898709 0)
(3.0201 -0.0898455 0)
(3.02016 -0.0898568 0)
(3.02022 -0.0897688 0)
(3.02019 -0.0895287 0)
(3.02 -0.0889617 0)
(3.01941 -0.0874756 0)
(3.01792 -0.0837098 0)
(3.0159 -0.0777875 0)