/*--------------------------------*- C++ -*----------------------------------*\
  =========                 |
  \\      /  F ield         | OpenFOAM: The Open Source CFD Toolbox
   \\    /   O peration     | Website:  https://openfoam.org
    \\  /    A nd           | Version:  7
     \\/     M anipulation  |
\*---------------------------------------------------------------------------*/
FoamFile
{
    version     2.0;
    format      ascii;
    class       volScalarField;
    location    "10";
    object      p;
}
// * * * * * * * * * * * * * * * * * * * * * * * * * * * * * * * * * * * * * //

dimensions      [1 -1 -2 0 0 0 0];

internalField   nonuniform List<scalar> 
24000
(
0.282425
0.321175
0.364461
0.406069
0.440043
0.477342
0.515984
0.553518
0.592733
0.635266
0.679377
0.726486
0.775676
0.827831
0.881018
0.931994
0.975016
1.00036
1.00452
1.00838
1.00667
1.00428
0.996643
0.988254
0.980633
0.970398
0.960504
0.966064
0.976729
0.987611
0.995916
0.999558
0.993024
0.983116
0.979551
0.984482
0.991594
0.992078
0.986883
0.983101
0.985519
0.991915
0.991442
0.987095
0.985864
0.98809
0.988957
0.988075
0.987815
0.987863
0.249157
0.249166
0.249219
0.249277
0.249416
0.249873
0.251214
0.25377
0.258412
0.265976
0.2785
0.296641
0.32441
0.36251
0.415428
0.482464
0.564699
0.650079
0.730704
0.806077
0.860984
0.909348
0.932
0.951705
0.956647
0.959529
0.970225
0.989229
1.00244
1.00647
1.00512
0.994942
0.981537
0.977192
0.979969
0.987832
0.996372
0.992679
0.983952
0.983263
0.99016
0.992891
0.990091
0.984662
0.985831
0.989219
0.988634
0.986651
0.987113
0.987757
0.249852
0.249873
0.249932
0.249936
0.249871
0.249816
0.249794
0.249804
0.249758
0.249687
0.249639
0.249622
0.249668
0.249684
0.25012
0.251738
0.25776
0.271232
0.301313
0.348159
0.420339
0.509071
0.613769
0.721243
0.818556
0.905413
0.966491
0.992284
1.00255
1.00624
0.999988
0.966264
0.967835
0.976005
0.990648
0.997725
0.995709
0.985148
0.980938
0.983848
0.99341
0.994239
0.98733
0.984221
0.986554
0.98976
0.988056
0.987012
0.987533
0.987806
0.250241
0.250203
0.25016
0.250145
0.250107
0.250026
0.249984
0.249968
0.249947
0.249922
0.249915
0.249878
0.249809
0.249734
0.249649
0.249538
0.24948
0.249483
0.24953
0.249511
0.250194
0.254093
0.269206
0.304292
0.373817
0.479441
0.609104
0.732878
0.831122
0.900506
0.930861
0.940656
0.976386
0.99221
1.00727
1.00202
0.987879
0.977264
0.980187
0.992678
0.999698
0.993696
0.98228
0.983452
0.990605
0.990568
0.98601
0.986138
0.987775
0.987739
0.250172
0.250106
0.250046
0.25001
0.249999
0.249988
0.24995
0.24986
0.249728
0.249653
0.249619
0.249576
0.249459
0.24934
0.249275
0.24921
0.249165
0.24915
0.249143
0.249131
0.249116
0.249116
0.249161
0.249318
0.24976
0.252971
0.2704
0.317496
0.411989
0.546961
0.711421
0.857352
0.952959
0.974259
0.99417
0.991591
0.971745
0.97561
0.991782
1.00283
0.999117
0.982818
0.979641
0.987236
0.993285
0.98948
0.984712
0.986069
0.987556
0.987581
0.249931
0.24992
0.249948
0.249961
0.249938
0.249867
0.249794
0.249728
0.249628
0.24948
0.249405
0.249396
0.249388
0.249332
0.249233
0.249143
0.249111
0.249117
0.249146
0.249186
0.249205
0.249168
0.249136
0.249195
0.249461
0.249883
0.250364
0.250476
0.251276
0.26159
0.302138
0.415623
0.578811
0.729861
0.882557
0.915777
0.952086
0.984674
1.01326
1.01023
0.986569
0.974311
0.980993
0.996381
0.994918
0.985252
0.983134
0.988147
0.987715
0.987303
0.249894
0.249851
0.249843
0.249851
0.249874
0.249869
0.249835
0.249773
0.249656
0.249609
0.24962
0.249612
0.249606
0.249647
0.249701
0.249714
0.249704
0.249721
0.249784
0.249792
0.249755
0.249678
0.249613
0.249589
0.249737
0.250035
0.249927
0.249814
0.249902
0.249936
0.249868
0.251235
0.264606
0.336337
0.476483
0.673402
0.8823
0.961929
1.00026
0.992632
0.964951
0.973289
0.993377
1.00006
0.990558
0.980964
0.985434
0.989732
0.986552
0.986792
0.249939
0.24989
0.249842
0.249836
0.249839
0.249857
0.2499
0.249944
0.25001
0.250098
0.25018
0.250244
0.250307
0.250446
0.250598
0.250629
0.250665
0.250673
0.250632
0.250499
0.250304
0.250061
0.249921
0.249854
0.249722
0.249428
0.249138
0.24918
0.249405
0.249612
0.249818
0.250078
0.250731
0.251155
0.255052
0.302097
0.430242
0.622667
0.840458
0.898233
0.945378
0.991831
1.0096
1.00331
0.977155
0.978596
0.991405
0.991111
0.984968
0.986889
0.250014
0.250054
0.250126
0.250192
0.250289
0.250432
0.250529
0.250607
0.250699
0.250847
0.251075
0.251118
0.251093
0.251106
0.251185
0.251212
0.251211
0.25118
0.251008
0.250703
0.250416
0.250055
0.249784
0.249624
0.249418
0.249046
0.24883
0.248997
0.249374
0.24955
0.249778
0.250173
0.251094
0.251664
0.251681
0.25127
0.252294
0.286145
0.403033
0.628465
0.875737
0.967665
0.99751
0.98161
0.967663
0.986726
0.99624
0.988953
0.98232
0.988408
0.250519
0.250784
0.250839
0.250817
0.250831
0.250899
0.251002
0.251091
0.25117
0.251297
0.251383
0.25139
0.251362
0.2513
0.251226
0.251223
0.251238
0.251219
0.251028
0.250639
0.250178
0.249614
0.249352
0.249318
0.249235
0.248913
0.248762
0.249079
0.249716
0.249676
0.249663
0.250139
0.251152
0.251679
0.251664
0.251295
0.250212
0.249111
0.249927
0.286865
0.4262
0.647379
0.871541
0.928998
0.967527
1.00715
1.00096
0.977947
0.981764
0.992168
0.250719
0.250784
0.250843
0.250888
0.250925
0.250973
0.251101
0.251269
0.251357
0.251425
0.251449
0.251445
0.251394
0.251267
0.251118
0.250984
0.250908
0.250873
0.250706
0.250362
0.249885
0.249399
0.249343
0.249477
0.249499
0.249465
0.249744
0.250563
0.25098
0.250737
0.250123
0.250282
0.250879
0.251229
0.251098
0.250565
0.249694
0.248852
0.248782
0.248993
0.251488
0.299035
0.464255
0.745054
0.938333
0.999943
0.978451
0.968662
0.989818
0.995007
0.249782
0.249563
0.249334
0.249147
0.249122
0.249166
0.249238
0.249254
0.249196
0.249055
0.248905
0.248827
0.248708
0.248462
0.248434
0.248491
0.248526
0.248757
0.248976
0.248765
0.248665
0.248849
0.249093
0.249625
0.250251
0.250806
0.251454
0.251695
0.251619
0.251071
0.250181
0.249445
0.249357
0.249425
0.249476
0.249231
0.248902
0.248506
0.248499
0.24868
0.249961
0.25035
0.255153
0.333554
0.552918
0.826458
0.906043
0.971729
1.00421
0.996741
0.247017
0.246671
0.246581
0.24656
0.246585
0.246776
0.246943
0.246982
0.246996
0.246951
0.246658
0.246497
0.246485
0.246554
0.246715
0.246831
0.247057
0.24765
0.248445
0.248465
0.248229
0.248247
0.248759
0.249895
0.250953
0.251449
0.2516
0.251629
0.251517
0.250977
0.249746
0.248233
0.247772
0.247752
0.248016
0.248259
0.248239
0.2479
0.24799
0.24899
0.250203
0.250145
0.249515
0.247892
0.268238
0.400291
0.698574
0.935266
0.991299
0.982881
0.246907
0.246746
0.246617
0.246576
0.246639
0.24671
0.24674
0.246688
0.24657
0.246531
0.246312
0.245585
0.245345
0.245423
0.245579
0.245638
0.245892
0.246651
0.248166
0.248651
0.248576
0.249142
0.250533
0.251672
0.252067
0.251785
0.250965
0.250483
0.250169
0.249629
0.248973
0.247915
0.247216
0.247163
0.247436
0.24795
0.248113
0.248758
0.249865
0.250916
0.250315
0.24971
0.248723
0.247473
0.247472
0.249566
0.314319
0.534708
0.81647
0.942906
0.251112
0.250717
0.25076
0.251247
0.252328
0.252989
0.253065
0.253165
0.253825
0.254209
0.254056
0.252938
0.251623
0.251282
0.251212
0.251297
0.251167
0.251292
0.252474
0.253013
0.253141
0.253335
0.253003
0.252834
0.252951
0.252745
0.251754
0.251081
0.250253
0.250046
0.250245
0.250082
0.249259
0.248975
0.249297
0.250277
0.251591
0.253443
0.254187
0.253526
0.251689
0.250554
0.248445
0.248975
0.251233
0.254254
0.253411
0.269779
0.404861
0.801472
0.263152
0.262677
0.262525
0.262691
0.263324
0.26378
0.263945
0.263783
0.26357
0.263223
0.262539
0.261256
0.258744
0.257085
0.256636
0.256028
0.254246
0.252712
0.252665
0.253387
0.253651
0.253346
0.252524
0.25257
0.252916
0.252795
0.251811
0.250802
0.250678
0.250834
0.251738
0.254216
0.25681
0.257182
0.257151
0.257584
0.258274
0.258357
0.257423
0.255645
0.252499
0.251184
0.253801
0.258519
0.261675
0.259853
0.254889
0.255745
0.258327
0.459197
0.271765
0.272539
0.273537
0.27354
0.272826
0.272601
0.272758
0.272527
0.271712
0.271217
0.271485
0.272027
0.272235
0.271759
0.270304
0.270222
0.271141
0.271698
0.272859
0.275507
0.27739
0.277653
0.277211
0.276261
0.27517
0.273812
0.273249
0.273796
0.275478
0.278554
0.281856
0.284202
0.284508
0.283617
0.2816
0.279738
0.278369
0.277021
0.274863
0.275174
0.276841
0.278975
0.28122
0.280554
0.278541
0.275158
0.275965
0.278376
0.27899
0.290404
0.307393
0.308157
0.310501
0.311449
0.311206
0.3103
0.309659
0.309767
0.309862
0.310046
0.310499
0.311781
0.313694
0.314368
0.31389
0.313603
0.31315
0.31213
0.311834
0.311811
0.311569
0.311673
0.312161
0.312499
0.312928
0.313092
0.312649
0.310936
0.308443
0.30591
0.30348
0.3023
0.301799
0.300082
0.297295
0.296229
0.295221
0.294188
0.295043
0.296995
0.299679
0.299566
0.298124
0.295463
0.291972
0.292496
0.293577
0.29472
0.293266
0.290187
0.357109
0.357095
0.357069
0.356993
0.357077
0.357178
0.356604
0.355874
0.356033
0.356022
0.355057
0.354682
0.354692
0.353942
0.352589
0.351921
0.350767
0.348366
0.346736
0.345776
0.344174
0.341462
0.339007
0.338563
0.339085
0.339214
0.338136
0.337152
0.337662
0.338175
0.336817
0.33316
0.330031
0.330142
0.332049
0.335216
0.335954
0.335949
0.335377
0.334238
0.331636
0.328579
0.324893
0.321808
0.31953
0.319555
0.319183
0.317667
0.315156
0.311854
0.415875
0.415184
0.415035
0.415243
0.415191
0.413971
0.413297
0.413319
0.412454
0.411581
0.411687
0.411335
0.409923
0.409742
0.409718
0.409578
0.409745
0.409436
0.408616
0.407816
0.406792
0.405264
0.40339
0.401264
0.398825
0.39733
0.396004
0.394772
0.394908
0.394823
0.393319
0.391478
0.389023
0.385754
0.383147
0.380654
0.37709
0.37234
0.367658
0.362824
0.357738
0.35361
0.350074
0.349275
0.349482
0.348834
0.34626
0.342597
0.338697
0.333443
0.488
0.487283
0.487465
0.487948
0.487526
0.485948
0.485668
0.485019
0.483526
0.48327
0.482899
0.481786
0.480438
0.47893
0.477691
0.476398
0.474966
0.473227
0.471
0.468925
0.467118
0.464705
0.463112
0.461936
0.460222
0.457834
0.455055
0.451688
0.448462
0.444623
0.439745
0.436024
0.432283
0.429563
0.426006
0.420879
0.415754
0.411411
0.408339
0.405789
0.403136
0.401282
0.399981
0.397241
0.39345
0.387602
0.38127
0.373969
0.368685
0.363167
0.573056
0.572804
0.571317
0.570341
0.570276
0.569276
0.567291
0.567207
0.56679
0.565301
0.563081
0.562048
0.561464
0.560242
0.558164
0.556104
0.554393
0.55273
0.550656
0.548119
0.545592
0.542953
0.539927
0.536785
0.533585
0.530148
0.526486
0.522761
0.519469
0.516217
0.511911
0.50724
0.500966
0.496552
0.493227
0.488459
0.482704
0.477774
0.472496
0.467216
0.460573
0.453708
0.445318
0.43713
0.42763
0.418717
0.411701
0.404184
0.402767
0.397729
0.650974
0.650786
0.650023
0.649063
0.648848
0.648065
0.646472
0.646133
0.645748
0.644633
0.642632
0.641542
0.640764
0.639567
0.637904
0.636041
0.634256
0.632539
0.630547
0.628229
0.62574
0.623033
0.620084
0.616778
0.613222
0.609425
0.605281
0.600912
0.596087
0.59103
0.585481
0.580284
0.574915
0.568186
0.56068
0.553227
0.545886
0.537606
0.529523
0.520419
0.511656
0.501981
0.492711
0.484084
0.475781
0.46948
0.463171
0.458125
0.451753
0.438155
0.696043
0.69574
0.695473
0.695301
0.695104
0.694782
0.694314
0.693956
0.693686
0.693181
0.692506
0.691912
0.691184
0.69031
0.689645
0.688999
0.688132
0.687136
0.685978
0.684663
0.683408
0.682062
0.680487
0.678712
0.676603
0.674078
0.67101
0.667529
0.663787
0.659844
0.655772
0.651272
0.646107
0.640792
0.634184
0.626564
0.618598
0.610516
0.601816
0.59265
0.583325
0.57322
0.563563
0.552938
0.543198
0.532177
0.520594
0.507843
0.494772
0.474703
0.706846
0.70685
0.70683
0.706804
0.706827
0.706841
0.706838
0.70688
0.706936
0.706928
0.706888
0.706898
0.706919
0.706842
0.706635
0.706425
0.70628
0.706125
0.705821
0.705477
0.705222
0.704972
0.704676
0.704268
0.703891
0.703494
0.702879
0.701835
0.700499
0.698951
0.697025
0.694718
0.692301
0.689769
0.686813
0.68297
0.677943
0.671895
0.664803
0.657192
0.648573
0.639008
0.62791
0.615938
0.603246
0.589455
0.575475
0.560035
0.547047
0.52709
0.70963
0.70948
0.709389
0.709421
0.709566
0.709625
0.709512
0.709301
0.709091
0.708807
0.708615
0.708665
0.708839
0.708866
0.70886
0.708848
0.708741
0.708736
0.708685
0.708678
0.708907
0.7092
0.709392
0.70942
0.709461
0.709784
0.709875
0.709472
0.708755
0.707963
0.707074
0.706529
0.706315
0.705823
0.704881
0.704022
0.703108
0.701353
0.698488
0.695122
0.691468
0.686831
0.680631
0.672858
0.663518
0.652779
0.640558
0.626348
0.613196
0.589114
0.713156
0.713028
0.712665
0.712692
0.712901
0.712917
0.712546
0.712032
0.712096
0.712731
0.712937
0.712759
0.712371
0.712022
0.711859
0.711896
0.71191
0.711717
0.711056
0.709825
0.709265
0.709321
0.709436
0.708933
0.708457
0.708964
0.71075
0.712262
0.712486
0.711991
0.710479
0.708992
0.708638
0.708687
0.708884
0.709327
0.709596
0.709396
0.708595
0.707572
0.706838
0.70586
0.704245
0.701751
0.698092
0.693135
0.686357
0.677112
0.666792
0.645058
0.722335
0.722259
0.721851
0.721343
0.721022
0.720957
0.720935
0.720984
0.721399
0.722142
0.722195
0.722312
0.722976
0.723029
0.722506
0.722425
0.722522
0.722199
0.721202
0.719595
0.718585
0.718614
0.718627
0.718045
0.716886
0.715408
0.71492
0.715102
0.715106
0.714646
0.7147
0.715184
0.715678
0.715183
0.71286
0.712182
0.712517
0.712882
0.712569
0.711737
0.710993
0.710292
0.709517
0.708585
0.707118
0.705189
0.703027
0.699793
0.695898
0.685372
0.75516
0.754943
0.754716
0.75396
0.753283
0.753265
0.752999
0.752434
0.751676
0.751142
0.750787
0.750216
0.749488
0.748905
0.747991
0.747043
0.746045
0.744634
0.743593
0.74289
0.741722
0.741496
0.741728
0.741093
0.739905
0.738853
0.737233
0.73517
0.733181
0.730561
0.72807
0.727824
0.728057
0.727038
0.72476
0.722289
0.720998
0.720064
0.718721
0.717013
0.715853
0.714878
0.713528
0.712626
0.711823
0.710507
0.709962
0.709478
0.708793
0.706009
0.820806
0.820735
0.819803
0.817916
0.817405
0.816743
0.816774
0.816998
0.815716
0.814094
0.812598
0.811445
0.811387
0.811106
0.809533
0.807246
0.805394
0.804257
0.803168
0.801615
0.799428
0.796994
0.794586
0.791919
0.789189
0.786404
0.783279
0.780776
0.778251
0.775413
0.772066
0.768837
0.764538
0.759123
0.756636
0.754154
0.750266
0.745716
0.742251
0.739137
0.735273
0.732396
0.729328
0.726425
0.724487
0.722378
0.72032
0.718732
0.717071
0.713279
0.911154
0.910666
0.90974
0.909226
0.908386
0.906755
0.906128
0.906093
0.905419
0.903369
0.901345
0.90099
0.900495
0.898944
0.896852
0.894729
0.892991
0.891359
0.889226
0.886869
0.884534
0.881683
0.87844
0.875204
0.871729
0.868134
0.864259
0.860047
0.855612
0.850498
0.845132
0.839409
0.834056
0.82846
0.821644
0.814354
0.807888
0.801217
0.793502
0.786315
0.779106
0.771424
0.76456
0.757276
0.750383
0.744522
0.738313
0.732653
0.72773
0.72067
0.977267
0.977205
0.977416
0.977446
0.976934
0.976246
0.975376
0.974931
0.974821
0.9745
0.973655
0.972872
0.972187
0.971298
0.970355
0.969329
0.968163
0.966997
0.96573
0.964278
0.962692
0.960877
0.958764
0.956491
0.954038
0.951175
0.948034
0.944614
0.940833
0.936648
0.931874
0.926762
0.92094
0.914491
0.907758
0.900225
0.89186
0.883001
0.873801
0.863452
0.852981
0.841892
0.830398
0.818899
0.807219
0.79538
0.784235
0.773359
0.764472
0.751524
0.998039
0.997996
0.997949
0.997906
0.997881
0.997836
0.997745
0.997586
0.997547
0.997527
0.997436
0.997241
0.997113
0.997008
0.996846
0.996632
0.996407
0.996164
0.995892
0.995584
0.995231
0.994812
0.994319
0.99376
0.993106
0.992326
0.991396
0.99034
0.989086
0.987606
0.985838
0.983718
0.981219
0.978254
0.974715
0.970536
0.965603
0.959781
0.952976
0.945168
0.936051
0.925864
0.914293
0.901533
0.887678
0.872648
0.857289
0.840757
0.825863
0.801633
0.999948
0.999946
0.999943
0.999941
0.99994
0.999938
0.999935
0.999932
0.999927
0.999924
0.999921
0.999916
0.999909
0.999903
0.999895
0.999886
0.999875
0.999863
0.999848
0.99983
0.99981
0.999784
0.999754
0.999716
0.99967
0.999612
0.99954
0.999448
0.999333
0.999183
0.99899
0.998738
0.998407
0.99797
0.99739
0.99662
0.995583
0.994207
0.992359
0.989915
0.98668
0.982438
0.976956
0.96997
0.96117
0.95049
0.937614
0.922346
0.906985
0.877951
0.999999
0.999999
0.999999
0.999999
0.999999
0.999999
0.999999
0.999999
0.999999
0.999999
0.999999
0.999999
0.999999
0.999999
0.999999
0.999998
0.999998
0.999998
0.999998
0.999998
0.999997
0.999997
0.999996
0.999995
0.999994
0.999993
0.999992
0.999989
0.999986
0.999982
0.999977
0.999969
0.999957
0.99994
0.999915
0.999876
0.999818
0.999728
0.999588
0.999368
0.999021
0.998475
0.997617
0.996284
0.994235
0.99114
0.986625
0.979959
0.971967
0.951997
1
1
1
1
1
1
1
1
1
1
1
1
1
1
1
1
1
1
1
1
1
1
1
1
1
1
1
1
1
1
1
1
0.999999
0.999999
0.999999
0.999998
0.999997
0.999995
0.999992
0.999987
0.999976
0.999956
0.999919
0.999848
0.99971
0.999446
0.998949
0.997983
0.996516
0.990747
1
1
1
1
1
1
1
1
1
1
1
1
1
1
1
1
1
1
1
1
1
1
1
1
1
1
1
1
1
1
1
1
1
1
1
1
1
1
1
1
1
0.999999
0.999999
0.999998
0.999995
0.999988
0.999972
0.999931
0.999852
0.999285
1
1
1
1
1
1
1
1
1
1
1
1
1
1
1
1
1
1
1
1
1
1
1
1
1
1
1
1
1
1
1
1
1
1
1
1
1
1
1
1
1
1
1
1
1
1
1
0.999999
0.999997
0.999977
1
1
1
1
1
1
1
1
1
1
1
1
1
1
1
1
1
1
1
1
1
1
1
1
1
1
1
1
1
1
1
1
1
1
1
1
1
1
1
1
1
1
1
1
1
1
1
1
1
1
1
1
1
1
1
1
1
1
1
1
1
1
1
1
1
1
1
1
1
1
1
1
1
1
1
1
1
1
1
1
1
1
1
1
1
1
1
1
1
1
1
1
1
1
1
1
1
1
1
1
0.24847
0.249161
0.249823
0.250243
0.250258
0.24999
0.249963
0.249979
0.25
0.250379
0.250631
0.249937
0.247186
0.246941
0.251823
0.264031
0.271353
0.307121
0.35723
0.416662
0.49
0.573004
0.651187
0.696266
0.706846
0.709857
0.713158
0.722192
0.755898
0.821458
0.911466
0.977888
0.998114
0.999949
0.999999
1
1
1
1
1
0.248462
0.249168
0.249841
0.250238
0.250298
0.250105
0.250042
0.250024
0.249996
0.250289
0.250508
0.249921
0.247174
0.246945
0.252649
0.265437
0.271347
0.308352
0.359233
0.418487
0.492525
0.575492
0.653695
0.696909
0.706932
0.710273
0.713231
0.721832
0.756874
0.82334
0.91271
0.979011
0.998215
0.999952
0.999999
1
1
1
1
1
0.248431
0.249161
0.249876
0.250248
0.250304
0.250178
0.250155
0.250052
0.249957
0.250188
0.250374
0.249776
0.247141
0.246851
0.252806
0.265716
0.271471
0.311324
0.36065
0.419817
0.493888
0.578411
0.655736
0.697422
0.706987
0.710561
0.713358
0.721684
0.757562
0.824436
0.914238
0.979575
0.99828
0.999955
0.999999
1
1
1
1
1
0.248404
0.249149
0.249916
0.2503
0.250289
0.250202
0.250274
0.250061
0.249911
0.250074
0.250246
0.249722
0.247067
0.246699
0.252607
0.265259
0.272389
0.314295
0.361911
0.421193
0.496125
0.580624
0.657141
0.697984
0.707001
0.710713
0.713667
0.721988
0.75828
0.825239
0.915654
0.980063
0.998348
0.999958
1
1
1
1
1
1
0.248392
0.249108
0.24992
0.250332
0.25028
0.250232
0.250376
0.250057
0.249868
0.249949
0.250183
0.249727
0.247064
0.246498
0.252048
0.264812
0.274485
0.314936
0.362862
0.423204
0.498464
0.582849
0.658733
0.698544
0.706971
0.710761
0.713992
0.722464
0.759108
0.826243
0.916948
0.980614
0.998428
0.999961
1
1
1
1
1
1
0.248397
0.249117
0.249922
0.250347
0.250308
0.25029
0.250449
0.250054
0.249818
0.24981
0.250177
0.249747
0.247205
0.246422
0.251701
0.264775
0.275202
0.314652
0.363754
0.425932
0.500839
0.585326
0.660482
0.699082
0.706949
0.710702
0.714301
0.722777
0.759988
0.828017
0.918508
0.981225
0.998522
0.999963
1
1
1
1
1
1
0.248424
0.249181
0.249939
0.250366
0.250399
0.250364
0.250504
0.250054
0.249768
0.249673
0.250205
0.249915
0.247579
0.246497
0.251678
0.264559
0.275374
0.31456
0.364739
0.427925
0.503374
0.587948
0.662411
0.699623
0.706978
0.710574
0.714483
0.723395
0.760897
0.83011
0.920292
0.981969
0.998606
0.999966
1
1
1
1
1
1
0.248442
0.249199
0.249975
0.25038
0.250461
0.250433
0.250557
0.250051
0.249709
0.24957
0.250334
0.250125
0.24803
0.246877
0.251733
0.264193
0.275375
0.316685
0.365872
0.430125
0.50594
0.590618
0.664388
0.700176
0.707135
0.710552
0.714411
0.724265
0.761883
0.831958
0.921922
0.982684
0.998683
0.999969
1
1
1
1
1
1
0.248465
0.249197
0.250016
0.250386
0.250481
0.25049
0.250607
0.250025
0.249639
0.249486
0.250373
0.250148
0.24846
0.247371
0.251918
0.264152
0.275587
0.320673
0.367765
0.432656
0.508553
0.593387
0.66632
0.700729
0.7073
0.710656
0.714173
0.724802
0.762886
0.833673
0.923453
0.983324
0.998762
0.999971
1
1
1
1
1
1
0.248497
0.24918
0.250029
0.250382
0.250484
0.25053
0.250645
0.249986
0.249567
0.249399
0.250288
0.250099
0.248805
0.247791
0.252084
0.26422
0.277127
0.322953
0.370267
0.435191
0.511238
0.596408
0.668297
0.701284
0.707467
0.710854
0.714225
0.725256
0.763834
0.835395
0.925075
0.983978
0.998844
0.999974
1
1
1
1
1
1
0.248542
0.249175
0.25003
0.250371
0.250482
0.250554
0.250664
0.249928
0.249477
0.249301
0.250183
0.250089
0.249058
0.247985
0.2521
0.264154
0.278753
0.324789
0.372305
0.437734
0.514163
0.599672
0.670335
0.701877
0.707717
0.711245
0.714574
0.725883
0.764884
0.837212
0.92694
0.984697
0.998925
0.999976
1
1
1
1
1
1
0.248597
0.24921
0.250032
0.250352
0.250475
0.250564
0.250665
0.249829
0.249333
0.249178
0.250142
0.250123
0.249257
0.248024
0.251861
0.264109
0.279859
0.327065
0.374363
0.440403
0.517558
0.603013
0.672418
0.702508
0.708046
0.711666
0.714796
0.72648
0.766159
0.839286
0.92899
0.985461
0.999003
0.999978
1
1
1
1
1
1
0.248656
0.249233
0.250029
0.250335
0.250465
0.250565
0.250621
0.249689
0.249133
0.249022
0.250132
0.250224
0.249427
0.248017
0.251178
0.264106
0.281085
0.329889
0.376713
0.443309
0.521273
0.60639
0.67453
0.703148
0.70839
0.711849
0.714051
0.726991
0.767512
0.841656
0.931021
0.986197
0.999079
0.99998
1
1
1
1
1
1
0.248728
0.249251
0.250015
0.250317
0.250449
0.250558
0.25053
0.249549
0.248945
0.248847
0.250107
0.250309
0.249526
0.247772
0.250186
0.263992
0.283602
0.333045
0.379454
0.446483
0.524922
0.609903
0.676667
0.703774
0.708712
0.711977
0.713214
0.727722
0.768935
0.844099
0.933046
0.98692
0.999154
0.999982
1
1
1
1
1
1
0.248809
0.249271
0.249993
0.250297
0.250436
0.250541
0.250435
0.249434
0.248803
0.248694
0.250032
0.250304
0.249526
0.247043
0.249221
0.263771
0.287123
0.335978
0.382465
0.449811
0.52872
0.613654
0.678815
0.704367
0.708928
0.712221
0.713248
0.728768
0.770444
0.84653
0.935144
0.987662
0.999227
0.999984
1
1
1
1
1
1
0.248879
0.249309
0.249976
0.250279
0.250417
0.250528
0.250338
0.249357
0.2487
0.248586
0.249959
0.250296
0.249503
0.24662
0.248773
0.263936
0.289661
0.338191
0.385552
0.453279
0.532848
0.617585
0.680962
0.70492
0.709013
0.712286
0.713723
0.729838
0.772
0.848995
0.937343
0.988412
0.999297
0.999986
1
1
1
1
1
1
0.248949
0.249371
0.249972
0.250246
0.250358
0.250522
0.25025
0.249323
0.248631
0.248512
0.249908
0.250415
0.249636
0.246566
0.248696
0.265902
0.291801
0.339722
0.38869
0.457004
0.537273
0.621596
0.683106
0.705439
0.709035
0.712276
0.713927
0.731042
0.773607
0.851577
0.939644
0.989157
0.999365
0.999988
1
1
1
1
1
1
0.249058
0.249427
0.249968
0.250133
0.250225
0.250473
0.250194
0.249317
0.248591
0.248456
0.249873
0.250676
0.249901
0.246585
0.248721
0.269355
0.294303
0.340795
0.391969
0.460988
0.541853
0.625736
0.685257
0.705954
0.709064
0.712139
0.713806
0.732445
0.775321
0.854411
0.94203
0.989905
0.99943
0.999989
1
1
1
1
1
1
0.249223
0.249465
0.249945
0.249994
0.250078
0.250373
0.250146
0.249321
0.248573
0.248405
0.249842
0.25075
0.250027
0.246544
0.24888
0.271796
0.296778
0.341643
0.395517
0.465153
0.546663
0.630051
0.687416
0.706489
0.7091
0.711652
0.713634
0.733802
0.777343
0.857531
0.94447
0.99065
0.999492
0.999991
1
1
1
1
1
1
0.249392
0.249512
0.249863
0.249878
0.249972
0.250273
0.250093
0.249329
0.248569
0.248368
0.249635
0.250747
0.250088
0.246496
0.249135
0.273295
0.298889
0.34283
0.399417
0.469511
0.551808
0.634505
0.689578
0.707032
0.709089
0.711353
0.713701
0.73511
0.779752
0.860813
0.946972
0.991382
0.99955
0.999992
1
1
1
1
1
1
0.249529
0.249592
0.249757
0.249771
0.249914
0.250215
0.250054
0.249338
0.248569
0.248414
0.249449
0.250708
0.250116
0.246537
0.249316
0.27384
0.300865
0.345589
0.403607
0.474115
0.55729
0.639073
0.691719
0.707546
0.708903
0.711304
0.714212
0.736475
0.782313
0.864226
0.949555
0.992102
0.999605
0.999993
1
1
1
1
1
1
0.249659
0.249669
0.249666
0.249666
0.249888
0.250202
0.250042
0.249351
0.248668
0.248644
0.249556
0.250535
0.250151
0.246865
0.249243
0.273457
0.302983
0.348935
0.407891
0.479087
0.563101
0.643775
0.693801
0.707983
0.708636
0.711292
0.714519
0.737799
0.785004
0.867826
0.952204
0.992806
0.999655
0.999994
1
1
1
1
1
1
0.249805
0.249729
0.249556
0.249545
0.249859
0.250209
0.250053
0.249526
0.249019
0.248915
0.249667
0.250366
0.250269
0.246964
0.248939
0.272809
0.305457
0.351884
0.412222
0.484561
0.569287
0.648581
0.695784
0.708309
0.708377
0.711133
0.714624
0.738992
0.787876
0.871643
0.954899
0.993491
0.999702
0.999995
1
1
1
1
1
1
0.249961
0.249769
0.249424
0.249394
0.249751
0.250185
0.250186
0.249972
0.249433
0.249194
0.249619
0.250352
0.25047
0.246945
0.249079
0.273916
0.308647
0.355048
0.416894
0.490586
0.575777
0.653444
0.697658
0.708495
0.708166
0.710506
0.714945
0.740098
0.790988
0.875711
0.957648
0.994155
0.999745
0.999996
1
1
1
1
1
1
0.250102
0.249783
0.249312
0.249244
0.249598
0.250107
0.250376
0.250309
0.249856
0.249445
0.249535
0.250343
0.250696
0.24799
0.250777
0.278139
0.312548
0.358742
0.422149
0.497046
0.582516
0.658349
0.699414
0.708548
0.708079
0.709939
0.716359
0.741264
0.794399
0.880002
0.96043
0.994792
0.999784
0.999997
1
1
1
1
1
1
0.250207
0.249753
0.249242
0.249124
0.24952
0.250046
0.250458
0.250487
0.250339
0.249647
0.249452
0.250156
0.251036
0.249848
0.253244
0.282354
0.316046
0.363108
0.427926
0.503878
0.589565
0.663281
0.70103
0.708566
0.708058
0.709768
0.717842
0.742574
0.798116
0.884481
0.963226
0.995399
0.999819
0.999997
1
1
1
1
1
1
0.250268
0.249714
0.2492
0.249042
0.249475
0.24998
0.25048
0.250612
0.250753
0.249827
0.249418
0.248955
0.251141
0.250782
0.254628
0.284795
0.318478
0.368168
0.434023
0.511102
0.596972
0.668205
0.702472
0.708587
0.708059
0.709821
0.718639
0.744046
0.802142
0.88915
0.966035
0.995973
0.99985
0.999998
1
1
1
1
1
1
0.250297
0.249647
0.24918
0.24901
0.249434
0.249905
0.250489
0.250758
0.250977
0.249977
0.249084
0.247549
0.250724
0.251156
0.256249
0.286926
0.320063
0.373645
0.440268
0.518806
0.604802
0.673072
0.703726
0.708613
0.708067
0.710096
0.719171
0.745681
0.806452
0.894049
0.968844
0.996511
0.999877
0.999998
1
1
1
1
1
1
0.250302
0.249594
0.249174
0.249013
0.249431
0.249827
0.250448
0.250855
0.251098
0.249994
0.24828
0.246509
0.249711
0.251087
0.258314
0.290669
0.321656
0.379709
0.446852
0.527188
0.61298
0.677781
0.704786
0.708661
0.708136
0.710644
0.720197
0.747658
0.811048
0.899188
0.971638
0.997012
0.999901
0.999999
1
1
1
1
1
1
0.250233
0.249583
0.249194
0.249112
0.249472
0.249782
0.250429
0.250928
0.251153
0.249977
0.247866
0.245877
0.248972
0.250903
0.260222
0.295459
0.326287
0.386861
0.454155
0.536296
0.621372
0.682266
0.705648
0.708874
0.708453
0.7113
0.723026
0.750512
0.815913
0.904531
0.974403
0.997473
0.999921
0.999999
1
1
1
1
1
1
0.250092
0.249631
0.249266
0.249264
0.249495
0.249766
0.250445
0.250994
0.251202
0.250133
0.247658
0.245541
0.248648
0.251252
0.262118
0.29946
0.334367
0.394688
0.462417
0.546014
0.629879
0.686466
0.706309
0.709187
0.70872
0.711926
0.726386
0.754345
0.821022
0.910072
0.977115
0.997891
0.999938
0.999999
1
1
1
1
1
1
0.249933
0.249697
0.249396
0.249451
0.249531
0.249758
0.250445
0.251032
0.251226
0.250407
0.24748
0.245308
0.248545
0.252625
0.26428
0.302604
0.341295
0.402276
0.471523
0.556233
0.638494
0.690341
0.706783
0.709297
0.708779
0.712544
0.727888
0.758327
0.826379
0.915794
0.979757
0.998266
0.999952
0.999999
1
1
1
1
1
1
0.249807
0.249744
0.249525
0.249704
0.249608
0.24972
0.250426
0.251017
0.251041
0.250394
0.247239
0.245145
0.248199
0.254793
0.266708
0.305006
0.347689
0.409785
0.481291
0.567063
0.647172
0.69383
0.707114
0.709308
0.708775
0.713125
0.727637
0.762029
0.832071
0.921705
0.982303
0.998596
0.999964
1
1
1
1
1
1
1
0.249659
0.249872
0.249844
0.249973
0.249733
0.249654
0.250209
0.250829
0.25081
0.250162
0.246877
0.244997
0.247218
0.257326
0.269963
0.307077
0.354659
0.417614
0.491906
0.578584
0.655736
0.696925
0.707414
0.709342
0.708935
0.713578
0.725997
0.765743
0.838342
0.927824
0.984726
0.998884
0.999973
1
1
1
1
1
1
1
0.249537
0.249982
0.250171
0.250231
0.249908
0.249649
0.249894
0.250577
0.250665
0.250079
0.246479
0.244612
0.246517
0.259776
0.274288
0.309897
0.362746
0.426228
0.503455
0.590693
0.664082
0.699637
0.707719
0.709417
0.709322
0.71413
0.725708
0.770089
0.845378
0.934052
0.987004
0.999129
0.99998
1
1
1
1
1
1
1
0.249436
0.250045
0.250429
0.250433
0.250027
0.24969
0.249645
0.250249
0.250567
0.250072
0.246328
0.244311
0.246469
0.262921
0.278816
0.315883
0.372022
0.435984
0.516092
0.603382
0.672037
0.701982
0.707866
0.709399
0.709635
0.715551
0.727526
0.775644
0.85309
0.940324
0.989123
0.999335
0.999986
1
1
1
1
1
1
1
0.24936
0.250096
0.250605
0.250551
0.2501
0.249634
0.2494
0.249783
0.250454
0.250102
0.246757
0.244524
0.247567
0.266896
0.28243
0.324574
0.381739
0.447275
0.529829
0.616445
0.679422
0.703942
0.707902
0.709328
0.709942
0.717708
0.733646
0.782119
0.861263
0.94659
0.991051
0.999503
0.99999
1
1
1
1
1
1
1
0.24937
0.250147
0.250704
0.250572
0.250135
0.249606
0.249136
0.249202
0.250215
0.24998
0.247589
0.244731
0.248709
0.269122
0.285137
0.333437
0.391294
0.460102
0.544593
0.629683
0.686093
0.705526
0.707908
0.709407
0.710325
0.718582
0.73911
0.788362
0.869795
0.952819
0.992785
0.999638
0.999993
1
1
1
1
1
1
1
0.24948
0.250164
0.25074
0.250492
0.250113
0.249698
0.248922
0.2487
0.249595
0.249905
0.248541
0.244864
0.249111
0.270256
0.289232
0.34353
0.401415
0.474368
0.560358
0.642875
0.691944
0.706742
0.707962
0.709751
0.710852
0.718195
0.742288
0.794301
0.878817
0.958994
0.994319
0.999744
0.999996
1
1
1
1
1
1
1
0.24982
0.250054
0.250566
0.250354
0.250073
0.24991
0.248909
0.248496
0.249072
0.250204
0.249697
0.245686
0.249244
0.2716
0.298426
0.354856
0.413156
0.49018
0.577187
0.655775
0.69687
0.707624
0.708083
0.710213
0.711387
0.717681
0.745498
0.801241
0.888384
0.96502
0.995643
0.999824
0.999997
1
1
1
1
1
1
1
0.250029
0.250069
0.250199
0.250156
0.250143
0.25014
0.24936
0.248553
0.248733
0.250323
0.250817
0.24792
0.250242
0.27395
0.309225
0.365595
0.427093
0.507767
0.595072
0.667854
0.700777
0.708242
0.708291
0.710645
0.711511
0.718377
0.750234
0.810061
0.898402
0.970736
0.996751
0.999883
0.999998
1
1
1
1
1
1
1
0.250257
0.250078
0.249861
0.24989
0.25018
0.250315
0.250002
0.248986
0.248527
0.249062
0.25114
0.249507
0.251853
0.278543
0.320527
0.376006
0.44322
0.526955
0.613638
0.678675
0.703709
0.70855