/*--------------------------------*- C++ -*----------------------------------*\
  =========                 |
  \\      /  F ield         | OpenFOAM: The Open Source CFD Toolbox
   \\    /   O peration     | Website:  https://openfoam.org
    \\  /    A nd           | Version:  7
     \\/     M anipulation  |
\*---------------------------------------------------------------------------*/
FoamFile
{
    version     2.0;
    format      ascii;
    class       volScalarField;
    location    "10";
    object      p;
}
// * * * * * * * * * * * * * * * * * * * * * * * * * * * * * * * * * * * * * //

dimensions      [1 -1 -2 0 0 0 0];

internalField   nonuniform List<scalar> 
90000
(
0.592453
0.682171
0.742959
0.814362
0.860903
0.870212
0.870011
0.865904
0.85105
0.827898
0.808683
0.787288
0.766038
0.745688
0.726633
0.70802
0.693363
0.680114
0.669278
0.661413
0.65547
0.650368
0.646859
0.644985
0.645202
0.647046
0.650303
0.653472
0.657702
0.662102
0.6667
0.671459
0.675427
0.678928
0.681497
0.684113
0.687449
0.69029
0.692822
0.694558
0.69557
0.695909
0.694605
0.693181
0.691506
0.690407
0.687879
0.684249
0.679743
0.673564
0.66776
0.664914
0.666437
0.669167
0.673641
0.680246
0.687461
0.693549
0.697467
0.69902
0.699774
0.700314
0.699279
0.696701
0.694519
0.693637
0.693894
0.696772
0.703192
0.710511
0.717636
0.72092
0.722611
0.723639
0.726047
0.732492
0.743331
0.755629
0.765204
0.772508
0.774716
0.781659
0.792863
0.809306
0.817301
0.827235
0.831153
0.840896
0.848935
0.854901
0.864314
0.867849
0.8776
0.882816
0.890662
0.900917
0.903639
0.909134
0.912396
0.918535
0.640595
0.646871
0.653651
0.660442
0.670139
0.680889
0.692131
0.703253
0.712044
0.717842
0.7187
0.715579
0.70921
0.702214
0.694215
0.687076
0.680765
0.675366
0.671743
0.668225
0.666743
0.665472
0.666052
0.667225
0.669655
0.671965
0.674655
0.677004
0.67961
0.68174
0.68322
0.683585
0.682935
0.679775
0.674439
0.668568
0.664272
0.660922
0.659001
0.657496
0.657286
0.65741
0.658174
0.658276
0.659568
0.661208
0.663963
0.66615
0.668538
0.669746
0.670253
0.672111
0.678931
0.686616
0.692315
0.696596
0.70016
0.702763
0.704284
0.703678
0.701434
0.698206
0.693849
0.693459
0.694235
0.696859
0.702201
0.708687
0.716993
0.722499
0.72497
0.724018
0.724327
0.726653
0.73261
0.744748
0.756939
0.766983
0.772094
0.776475
0.780795
0.793148
0.803718
0.818182
0.820752
0.83094
0.836876
0.848937
0.852095
0.859303
0.865463
0.870909
0.881092
0.885727
0.895077
0.903587
0.907239
0.912632
0.915655
0.922209
0.602456
0.619399
0.625743
0.635153
0.643117
0.649166
0.650653
0.653885
0.658074
0.663353
0.668658
0.67467
0.679229
0.6837
0.686165
0.687853
0.687412
0.686131
0.683361
0.679882
0.675357
0.671037
0.667487
0.665123
0.664169
0.664104
0.665066
0.666633
0.669257
0.673077
0.678502
0.683559
0.688103
0.690102
0.689724
0.686944
0.68488
0.68351
0.683038
0.682211
0.682098
0.682394
0.684044
0.686162
0.689272
0.693188
0.698272
0.703898
0.709732
0.715452
0.720214
0.721745
0.721323
0.720665
0.719325
0.716228
0.712719
0.707896
0.702334
0.696553
0.690417
0.688262
0.690217
0.694494
0.702388
0.711273
0.718942
0.723613
0.725279
0.726169
0.726272
0.725951
0.7281
0.735001
0.74518
0.75962
0.766752
0.775504
0.777723
0.782413
0.791176
0.805296
0.815966
0.822061
0.824721
0.833049
0.843167
0.855143
0.856591
0.863641
0.866639
0.874525
0.883615
0.888406
0.899103
0.90564
0.910597
0.91611
0.919372
0.925852
0.214775
0.400892
0.466951
0.526561
0.568903
0.621387
0.640336
0.644967
0.649427
0.654674
0.658224
0.657464
0.657024
0.657429
0.658503
0.660316
0.661501
0.66319
0.664919
0.667509
0.669882
0.67222
0.674059
0.675689
0.676959
0.678085
0.678863
0.679042
0.677557
0.67486
0.672222
0.670313
0.669858
0.669759
0.669712
0.669443
0.669689
0.673289
0.678969
0.683862
0.687035
0.689152
0.689474
0.690567
0.691866
0.691699
0.691386
0.691126
0.691916
0.69291
0.694547
0.694328
0.692288
0.689938
0.688089
0.68658
0.685766
0.686127
0.687684
0.690194
0.693235
0.697712
0.705538
0.71418
0.720797
0.726171
0.729934
0.732503
0.730947
0.728158
0.726608
0.728773
0.737122
0.748722
0.762414
0.770767
0.775369
0.779809
0.783244
0.790888
0.805784
0.814465
0.824237
0.825705
0.830117
0.841645
0.852741
0.859092
0.860871
0.86779
0.871219
0.879837
0.885659
0.891147
0.902536
0.907249
0.913671
0.919129
0.922549
0.928775
0.0276133
0.0304255
0.0421767
0.0708942
0.114011
0.297898
0.416635
0.48041
0.540832
0.586984
0.627609
0.640501
0.645223
0.649607
0.654811
0.658312
0.657834
0.658516
0.658974
0.65931
0.658998
0.658847
0.659083
0.659981
0.660605
0.661496
0.662607
0.664569
0.667714
0.671409
0.674482
0.676627
0.678308
0.679617
0.680346
0.680904
0.680259
0.677161
0.674372
0.674079
0.674988
0.677053
0.678923
0.680687
0.687529
0.694004
0.699115
0.703034
0.704949
0.709148
0.712268
0.713073
0.710925
0.709373
0.708571
0.709731
0.71234
0.71653
0.721746
0.72807
0.734895
0.740258
0.742831
0.744321
0.741882
0.739559
0.733279
0.729115
0.724407
0.723048
0.727791
0.739104
0.754295
0.763585
0.773734
0.776378
0.780377
0.784617
0.791914
0.804234
0.818476
0.822524
0.827411
0.829058
0.837697
0.849336
0.861
0.86179
0.864551
0.869911
0.875782
0.884788
0.887299
0.893966
0.904842
0.908542
0.916441
0.921666
0.925284
0.930048
0.0269318
0.0269015
0.0268684
0.0268362
0.0268104
0.0267653
0.0323235
0.0510027
0.0908345
0.160421
0.33959
0.426794
0.497489
0.553857
0.602075
0.634609
0.642417
0.646726
0.650302
0.65447
0.656563
0.658335
0.661015
0.663347
0.664961
0.665996
0.666596
0.667104
0.666958
0.666563
0.666596
0.667522
0.667833
0.668132
0.66833
0.669193
0.67169
0.676667
0.679547
0.682122
0.684336
0.686626
0.688807
0.689359
0.686391
0.685976
0.687365
0.689809
0.691352
0.69336
0.700716
0.706361
0.708645
0.707568
0.70921
0.709772
0.708471
0.707542
0.708255
0.710408
0.714215
0.718004
0.719278
0.719645
0.720683
0.72131
0.723379
0.727046
0.732076
0.738434
0.749892
0.761683
0.772139
0.776869
0.782098
0.781386
0.78488
0.792553
0.805027
0.819425
0.825831
0.826729
0.828949
0.833003
0.847891
0.858975
0.864958
0.864056
0.867182
0.875455
0.882034
0.888584
0.891284
0.89903
0.906086
0.910455
0.919122
0.923599
0.927061
0.928784
0.0268792
0.0268703
0.0268629
0.0268557
0.0268482
0.0268444
0.0268214
0.0267904
0.0267674
0.0267152
0.0288535
0.0410171
0.0708642
0.124439
0.204993
0.362827
0.451774
0.523767
0.574823
0.617951
0.645916
0.653298
0.653527
0.655856
0.658249
0.658363
0.658874
0.661616
0.66413
0.666403
0.668597
0.670396
0.671642
0.67261
0.673085
0.673523
0.67361
0.673186
0.674167
0.675494
0.676452
0.677596
0.679395
0.682592
0.688202
0.69098
0.693741
0.696357
0.698592
0.700849
0.698199
0.697577
0.698491
0.699174
0.700246
0.709139
0.71574
0.720363
0.724415
0.730298
0.733956
0.736348
0.739442
0.7427
0.747067
0.752703
0.757971
0.763474
0.769801
0.774727
0.777661
0.776436
0.773693
0.773242
0.77616
0.781266
0.793015
0.808552
0.821531
0.831539
0.831948
0.828486
0.830418
0.841235
0.859209
0.865382
0.867036
0.865823
0.873698
0.881302
0.887117
0.891546
0.895244
0.903677
0.907536
0.914357
0.921666
0.925155
0.926794
0.926211
0.0268652
0.026859
0.0268517
0.0268444
0.0268372
0.0268304
0.026824
0.026819
0.0268138
0.0268143
0.0267986
0.0267684
0.0267371
0.026717
0.0266695
0.0326671
0.0545717
0.0998625
0.168492
0.257334
0.391656
0.492941
0.559114
0.605022
0.63359
0.654999
0.658993
0.659991
0.664112
0.665656
0.664253
0.664657
0.66668
0.668331
0.669744
0.672045
0.673893
0.67618
0.677983
0.679351
0.680651
0.681883
0.682584
0.683532
0.683873
0.685986
0.687141
0.688308
0.68927
0.692684
0.698548
0.700956
0.703786
0.706283
0.708747
0.707092
0.707962
0.710744
0.71344
0.718168
0.728227
0.734809
0.738313
0.74403
0.746103
0.745965
0.74759
0.749272
0.754079
0.759611
0.763126
0.767519
0.771875
0.781299
0.791519
0.806237
0.823996
0.834938
0.839529
0.831933
0.823963
0.825901
0.838818
0.856525
0.86969
0.869945
0.865151
0.868148
0.881508
0.886454
0.891288
0.894323
0.900651
0.907279
0.910337
0.920265
0.92587
0.925825
0.924117
0.926397
0.0268816
0.0268797
0.0268771
0.0268761
0.0268749
0.0268765
0.0268764
0.0268798
0.0268797
0.0268855
0.0268878
0.0268965
0.0269047
0.0269187
0.0269388
0.0269265
0.0268984
0.0268904
0.0268356
0.0276781
0.0408393
0.0798392
0.146913
0.234946
0.327953
0.448105
0.54647
0.608004
0.638898
0.655192
0.662503
0.664172
0.668929
0.670804
0.669038
0.671074
0.67323
0.674914
0.675518
0.676759
0.678167
0.679475
0.680848
0.682878
0.685651
0.68849
0.690375
0.692218
0.693359
0.694027
0.694601
0.697019
0.698244
0.69951
0.703044
0.70989
0.713074
0.717358
0.72126
0.725356
0.725331
0.728315
0.731703
0.735333
0.747374
0.754343
0.760476
0.769652
0.775506
0.779747
0.786491
0.791856
0.798941
0.808532
0.813686
0.819713
0.820908
0.817598
0.819124
0.824937
0.833396
0.847323
0.865717
0.877367
0.869424
0.861878
0.865981
0.878608
0.890775
0.891861
0.895842
0.901669
0.906159
0.909183
0.914267
0.927687
0.929444
0.925549
0.924934
0.929372
0.0269434
0.0269444
0.0269477
0.0269494
0.0269541
0.0269574
0.0269632
0.0269672
0.0269727
0.0269779
0.0269851
0.026989
0.0269944
0.0269993
0.0270028
0.0270071
0.0270107
0.0270157
0.0270196
0.0270268
0.0269811
0.0269309
0.0268775
0.0268667
0.033759
0.0635117
0.129425
0.22757
0.338245
0.436623
0.540469
0.614504
0.650038
0.665233
0.670249
0.669988
0.674844
0.672496
0.670013
0.672406
0.677212
0.680955
0.684136
0.686064
0.687128
0.687204
0.687606
0.688996
0.691203
0.693674
0.697339
0.700934
0.702882
0.704381
0.706166
0.707223
0.710421
0.712892
0.715711
0.72305
0.729198
0.732822
0.737638
0.743013
0.744297
0.749637
0.755177
0.760153
0.771434
0.778715
0.784384
0.793027
0.797047
0.801272
0.806983
0.813745
0.82455
0.833394
0.844634
0.856786
0.865998
0.870289
0.861816
0.853474
0.856447
0.867896
0.885152
0.898484
0.889777
0.888549
0.90208
0.911312
0.910001
0.91155
0.921808
0.935273
0.932499
0.929209
0.931696
0.938417
0.0270187
0.027024
0.0270288
0.027033
0.0270376
0.0270428
0.0270487
0.0270535
0.0270576
0.0270606
0.0270635
0.0270616
0.0270625
0.0270594
0.0270586
0.0270522
0.0270477
0.0270361
0.0270303
0.0270148
0.0270036
0.0269873
0.0269715
0.0269649
0.0269172
0.0268566
0.0268047
0.0267175
0.0341804
0.0622119
0.129054
0.235139
0.360419
0.465183
0.555003
0.62704
0.662889
0.671437
0.673931
0.675576
0.683177
0.678926
0.677805
0.678619
0.683585
0.686515
0.689306
0.69303
0.696353
0.69706
0.697821
0.698732
0.700549
0.702554
0.706226
0.710815
0.714469
0.717384
0.719858
0.720576
0.724834
0.728776
0.732431
0.737976
0.747891
0.752845
0.760113
0.766794
0.768864
0.77406
0.779335
0.787021
0.801961
0.813225
0.824317
0.834198
0.837243
0.83954
0.843253
0.845618
0.851032
0.854403
0.858724
0.869192
0.883133
0.895886
0.894984
0.883812
0.883425
0.898414
0.911815
0.905101
0.908686
0.918604
0.931832
0.937744
0.936859
0.939393
0.942932
0.946099
0.02711
0.027116
0.0271197
0.0271228
0.0271234
0.0271249
0.027125
0.0271252
0.0271214
0.0271185
0.0271121
0.0271042
0.0270934
0.0270837
0.0270707
0.027056
0.0270384
0.0270227
0.0270071
0.0269878
0.0269708
0.0269488
0.0269288
0.0269054
0.0268904
0.0268743
0.026862
0.0268635
0.0268258
0.0267869
0.0267804
0.0267423
0.0369607
0.0730665
0.151585
0.268749
0.402703
0.504045
0.59054
0.648602
0.677474
0.678237
0.677906
0.683463
0.688319
0.684247
0.685289
0.690291
0.694792
0.695538
0.697576
0.700637
0.702832
0.705838
0.709908
0.711814
0.712291
0.714798
0.717928
0.721843
0.727716
0.733128
0.736858
0.740872
0.744969
0.750687
0.755835
0.762161
0.771951
0.778593
0.786313
0.794716
0.797339
0.802967
0.811496
0.823967
0.837032
0.844563
0.851581
0.858382
0.862606
0.867503
0.874103
0.879128
0.883165
0.885522
0.886388
0.89522
0.90436
0.912104
0.902548
0.908062
0.918187
0.92371
0.926114
0.932063
0.938808
0.946343
0.950079
0.940044
0.0271954
0.0271947
0.0271943
0.0271918
0.0271883
0.0271828
0.027176
0.0271675
0.0271567
0.0271466
0.0271351
0.0271195
0.0271018
0.0270837
0.0270645
0.0270455
0.0270224
0.0270024
0.0269838
0.0269662
0.0269495
0.0269363
0.0269238
0.0269172
0.0269212
0.0269301
0.0269436
0.02696
0.0269813
0.0270102
0.0270488
0.0271117
0.0270943
0.0270878
0.0270241
0.027969
0.04571
0.0971097
0.196245
0.332847
0.473842
0.562142
0.63833
0.674102
0.690995
0.689046
0.687793
0.691687
0.694462
0.689778
0.694926
0.701583
0.703714
0.706993
0.710306
0.710633
0.712676
0.718637
0.722288
0.724839
0.727296
0.729614
0.733724
0.739899
0.747237
0.755107
0.761349
0.766766
0.771927
0.777285
0.782515
0.794384
0.804626
0.810645
0.817912
0.823523
0.830264
0.840237
0.845795
0.852902
0.858951
0.864453
0.873084
0.877046
0.884477
0.893574
0.900032
0.903683
0.905897
0.90393
0.915529
0.923958
0.921234
0.917959
0.929605
0.939689
0.937892
0.933578
0.92697
0.924811
0.0272165
0.02721
0.0272041
0.0271962
0.0271879
0.0271774
0.0271653
0.0271525
0.0271382
0.0271256
0.0271135
0.0270963
0.0270767
0.0270553
0.0270351
0.027018
0.0270024
0.02699
0.0269826
0.0269768
0.0269756
0.0269806
0.0269909
0.0270086
0.0270364
0.0270679
0.0271033
0.0271364
0.0271668
0.0271902
0.0272191
0.0272421
0.0272596
0.0272618
0.0272575
0.0272467
0.0271688
0.0270903
0.0269762
0.0335175
0.0706838
0.153976
0.28879
0.435444
0.560139
0.633644
0.677837
0.692327
0.699178
0.691022
0.694709
0.701186
0.69639
0.702783
0.712238
0.714327
0.717056
0.721749
0.719616
0.720548
0.724649
0.729667
0.737994
0.744991
0.749062
0.753855
0.759055
0.766523
0.77633
0.782233
0.786784
0.791469
0.799952
0.807687
0.815325
0.825833
0.83755
0.846583
0.854229
0.852885
0.853346
0.858281
0.864525
0.880924
0.891376
0.895644
0.900918
0.903881
0.902738
0.907038
0.912744
0.917117
0.921043
0.929011
0.937179
0.941461
0.942185
0.941671
0.940398
0.941685
0.0272276
0.0272162
0.0272049
0.0271923
0.0271799
0.0271671
0.0271528
0.0271389
0.0271249
0.0271141
0.0271065
0.0270974
0.0270872
0.0270766
0.0270653
0.0270582
0.0270543
0.0270571
0.0270688
0.0270865
0.0271078
0.0271343
0.0271613
0.0271972
0.0272382
0.0272777
0.0273108
0.0273407
0.0273562
0.0273643
0.0273682
0.0273677
0.0273589
0.0273326
0.027302
0.0272565
0.0272155
0.0271748
0.0271665
0.027117
0.0271
0.0270377
0.0290498
0.0552499
0.131637
0.265812
0.42352
0.561731
0.63275
0.680625
0.691522
0.708825
0.700494
0.702359
0.712936
0.708832
0.714091
0.722787
0.721137
0.722599
0.72681
0.729287
0.737008
0.742654
0.748362
0.757816
0.764766
0.771648
0.77788
0.781117
0.785995
0.794918
0.80443
0.812474
0.8199
0.826142
0.833054
0.840043
0.8471
0.855488
0.862488
0.867707
0.875641
0.87513
0.874805
0.878431
0.884948
0.895835
0.90991
0.91514
0.921486
0.922263
0.921483
0.927337
0.936903
0.943826
0.946717
0.949038
0.949832
0.947281
0.0271988
0.0271902
0.0271832
0.0271758
0.0271693
0.0271643
0.0271596
0.0271569
0.0271558
0.0271567
0.027162
0.0271681
0.027178
0.0271908
0.0272031
0.0272148
0.0272279
0.0272443
0.0272675
0.0272942
0.0273268
0.0273581
0.027384
0.02741
0.0274377
0.0274572
0.027468
0.0274694
0.02746
0.027446
0.0274225
0.0273978
0.0273646
0.0273322
0.02729
0.0272611
0.0272478
0.0272536
0.0272652
0.0273023
0.0273485
0.0274124
0.0274566
0.0274417
0.0273881
0.027857
0.0504479
0.129899
0.260357
0.432001
0.560836
0.65451
0.689647
0.69925
0.718483
0.712361
0.716088
0.720473
0.715898
0.720118
0.726636
0.730309
0.739862
0.745665
0.752376
0.761808
0.764992
0.770477
0.777948
0.783813
0.793263
0.801667
0.805253
0.810065
0.818842
0.828518
0.836348
0.843616
0.849631
0.851473
0.85758
0.861926
0.869054
0.878231
0.888778
0.896447
0.900444
0.905398
0.905765
0.908439
0.916798
0.923247
0.921582
0.92034
0.932664
0.943572
0.9492
0.948108
0.946872
0.942904
0.027248
0.0272512
0.0272567
0.0272623
0.0272697
0.0272794
0.027289
0.0273029
0.0273178
0.0273334
0.0273524
0.0273707
0.0273913
0.0274184
0.0274425
0.0274626
0.0274799
0.0274956
0.0275103
0.027524
0.0275377
0.027549
0.0275553
0.0275576
0.0275586
0.0275515
0.0275367
0.0275112
0.0274836
0.0274514
0.0274183
0.0273822
0.0273587
0.0273439
0.0273376
0.0273538
0.0274012
0.0274668
0.0275371
0.0276101
0.0276737
0.0277251
0.0277436
0.0277593
0.0277901
0.0278012
0.0277133
0.0276147
0.0276909
0.0518558
0.132596
0.277382
0.457743
0.579476
0.678172
0.703075
0.719732
0.725298
0.721013
0.720669
0.722348
0.727193
0.741396
0.749718
0.758235
0.76669
0.764723
0.771259
0.780503
0.784324
0.7934
0.802176
0.805995
0.815332
0.827852
0.832149
0.834973
0.839823
0.845758
0.853085
0.861413
0.866772
0.871733
0.877682
0.884786
0.889765
0.900633
0.908475
0.906815
0.906537
0.913562
0.924976
0.936283
0.942918
0.942876
0.939249
0.941448
0.947517
0.952749
0.951789
0.0274559
0.0274717
0.0274869
0.0274985
0.0275127
0.0275275
0.0275396
0.0275534
0.0275661
0.0275796
0.027598
0.0276112
0.0276203
0.0276365
0.0276517
0.02766
0.0276636
0.0276595
0.0276491
0.0276374
0.0276212
0.0276043
0.0275862
0.0275682
0.0275465
0.0275246
0.0274983
0.0274699
0.0274442
0.0274288
0.0274186
0.027415
0.0274336
0.0274753
0.0275354
0.0276218
0.0277236
0.0278228
0.0279097
0.0279735
0.0280013
0.0279896
0.0279653
0.0279475
0.0279225
0.0278588
0.0278032
0.027776
0.0277948
0.0278245
0.027858
0.0285726
0.0605128
0.153084
0.324026
0.491246
0.619523
0.691954
0.711612
0.725785
0.725129
0.732855
0.741346
0.746792
0.760876
0.77063
0.768919
0.775466
0.782305
0.782899
0.795443
0.808156
0.810571
0.818364
0.8277
0.830236
0.836568
0.847974
0.852903
0.853441
0.85768
0.863327
0.869216
0.88185
0.889132
0.891761
0.891983
0.89776
0.90211
0.906343
0.912185
0.922005
0.929496
0.941261
0.949032
0.952901
0.939891
0.92787
0.924023
0.927367
0.0277157
0.0277268
0.0277382
0.0277462
0.0277538
0.027756
0.0277543
0.0277521
0.0277479
0.0277466
0.027751
0.0277476
0.0277384
0.0277344
0.0277309
0.0277225
0.0277099
0.0276899
0.0276648
0.027634
0.0276032
0.027575
0.027553
0.027536
0.02752
0.0275046
0.0274977
0.0274985
0.0275091
0.027542
0.0275932
0.0276499
0.027724
0.0278115
0.0279154
0.0280282
0.0281244
0.0281957
0.0282364
0.0282475
0.0282144
0.0281634
0.028106
0.0280597
0.0280022
0.0279605
0.0279648
0.0280144
0.0281223
0.0282937
0.0285228
0.0287537
0.0288485
0.0288438
0.0328035
0.0772169
0.190583
0.378677
0.532898
0.656422
0.701239
0.731096
0.748282
0.752826
0.767269
0.766759
0.766218
0.778953
0.786143
0.788952
0.803091
0.811998
0.810629
0.819027
0.8309
0.833785
0.841137
0.850748
0.851147
0.851655
0.860592
0.869671
0.873794
0.881311
0.884519
0.884786
0.890682
0.900958
0.9077
0.913071
0.91805
0.916684
0.917506
0.921598
0.928896
0.939915
0.946214
0.94558
0.943532
0.93805
0.0279174
0.027916
0.0279102
0.0279013
0.0278862
0.0278654
0.0278429
0.0278218
0.027803
0.0277905
0.0277824
0.0277725
0.0277598
0.0277462
0.0277294
0.0277113
0.0276929
0.0276771
0.0276602
0.0276417
0.0276257
0.0276179
0.0276219
0.0276415
0.027666
0.0276922
0.0277309
0.0277825
0.027841
0.0279199
0.028009
0.028095
0.0281648
0.0282316
0.0283032
0.0283672
0.0284056
0.0284129
0.0283952
0.0283485
0.0282871
0.0282269
0.0281903
0.0281665
0.0281747
0.0282267
0.0283216
0.0284776
0.0286828
0.0289277
0.0291374
0.0293055
0.0294292
0.0294939
0.0294886
0.0294166
0.0292288
0.0410446
0.104778
0.252985
0.442297
0.591478
0.688014
0.734465
0.776664
0.766908
0.776078
0.784996
0.782388
0.79078
0.810307
0.816735
0.817292
0.82685
0.833169
0.832637
0.840198
0.853492
0.856474
0.858529
0.866442
0.86919
0.870672
0.879304
0.885881
0.890096
0.894457
0.901497
0.905627
0.909704
0.91596
0.918741
0.919912
0.92229
0.927573
0.929645
0.935867
0.942183
0.943704
0.940206
0.0280541
0.0280363
0.0280157
0.0279979
0.0279682
0.0279291
0.0278938
0.02786
0.0278303
0.0278107
0.027801
0.0277963
0.0277944
0.0277946
0.0277944
0.0277967
0.027806
0.027821
0.027843
0.0278706
0.0279013
0.0279353
0.0279802
0.0280428
0.0281063
0.0281559
0.0282037
0.028253
0.0283032
0.0283619
0.0284293
0.0284817
0.0285069
0.0285261
0.0285407
0.0285447
0.028528
0.0284987
0.0284556
0.028407
0.0283727
0.0283704
0.0284162
0.0285047
0.0286464
0.0288111
0.0290119
0.0292183
0.0294469
0.0296327
0.0297615
0.0298299
0.0298356
0.0297826
0.0297757
0.0297202
0.0296821
0.0296814
0.0298792
0.0301326
0.0581579
0.149227
0.324217
0.500054
0.637154
0.71625
0.770989
0.803371
0.78946
0.803846
0.812382
0.808602
0.81766
0.83355
0.835674
0.837383
0.848751
0.857588
0.855646
0.857394
0.867476
0.873589
0.87824
0.88661
0.888513
0.887648
0.891674
0.902281
0.91197
0.919559
0.9235
0.924231
0.923947
0.923057
0.923931
0.926685
0.939285
0.948233
0.950402
0.948264
0.0279673
0.0279534
0.0279409
0.0279288
0.0279162
0.0279045
0.027895
0.0278906
0.0278926
0.0279098
0.0279425
0.0279772
0.0280177
0.0280741
0.0281295
0.0281794
0.0282376
0.0282991
0.0283622
0.0284316
0.028498
0.0285501
0.0285927
0.0286415
0.0286772
0.0286854
0.0286741
0.0286619
0.0286602
0.0286773
0.0287026
0.0287158
0.0287126
0.0286942
0.0286725
0.0286449
0.0286203
0.0285985
0.0285913
0.0286187
0.0286799
0.0288038
0.0289842
0.0292063
0.029421
0.0296408
0.0298167
0.0299819
0.0301121
0.0301699
0.0301879
0.0301317
0.0300898
0.0300358
0.0300006
0.0301116
0.0303797
0.0307808
0.0314619
0.0323695
0.0330948
0.0335358
0.0372374
0.0804603
0.194593
0.391587
0.558839
0.672298
0.754793
0.810385
0.825218
0.815839
0.827924
0.832059
0.825167
0.834405
0.85728
0.861898
0.860687
0.866041
0.87214
0.872617
0.875372
0.883917
0.889526
0.89516
0.903816
0.910118
0.911167
0.913034
0.916759
0.923142
0.933542
0.938879
0.939624
0.940603
0.93944
0.941231
0.944715
0.948828
0.028154
0.0281867
0.0282164
0.0282461
0.028278
0.0283153
0.0283697
0.0284386
0.0285004
0.0285563
0.0286195
0.0286786
0.0287389
0.0288132
0.0288787
0.0289306
0.0289684
0.0289985
0.0290258
0.0290584
0.0290919
0.0291147
0.0291195
0.029103
0.0290656
0.0290162
0.0289538
0.0289
0.0288693
0.0288686
0.0288769
0.0288837
0.0288835
0.0288792
0.0288698
0.0288654
0.0288852
0.0289307
0.0290331
0.0291784
0.0293662
0.0295853
0.0298414
0.0300708
0.0302629
0.0303965
0.0304825
0.0305566
0.0305762
0.0305698
0.0305418
0.0305123
0.0305393
0.0306687
0.030927
0.0314987
0.0322949
0.0332069
0.0341757
0.0349799
0.0356745
0.0362926
0.0368363
0.0371646
0.037463
0.0500273
0.113358
0.25229
0.455911
0.601225
0.70633
0.786632
0.850653
0.839763
0.841684
0.846562
0.85414
0.844996
0.856263
0.874399
0.879146
0.877447
0.880141
0.886116
0.889889
0.896108
0.904161
0.909629
0.913084
0.917846
0.922225
0.927836
0.93573
0.938828
0.936988
0.935206
0.933996
0.935379
0.938921
0.944391
0.0292192
0.02926
0.0292984
0.0293327
0.0293608
0.0293861
0.0294148
0.0294399
0.0294554
0.0294667
0.0294681
0.0294623
0.0294579
0.0294579
0.0294543
0.0294525
0.0294409
0.0294044
0.0293624
0.0293241
0.0292906
0.0292696
0.0292438
0.0291805
0.0291115
0.0290613
0.0290295
0.0290193
0.0290358
0.0290679
0.0291102
0.0291617
0.0292275
0.029314
0.0294023
0.0295108
0.0296269
0.0297851
0.0299771
0.0301861
0.0304033
0.0305961
0.0307663
0.0308828
0.0309662
0.0309956
0.0310398
0.0310606
0.0310856
0.0311343
0.0312518
0.0314656
0.0319153
0.0326025
0.0334832
0.0345115
0.0354376
0.0362811
0.0370291
0.0374909
0.0378954
0.038392
0.0390633
0.0398312
0.0411333
0.0424261
0.0432033
0.0436588
0.0662553
0.146237
0.303039
0.500487
0.645305
0.732081
0.822031
0.86779
0.871608
0.85891
0.870497
0.872837
0.865729
0.868045
0.885207
0.891899
0.894981
0.901827
0.906401
0.9075
0.912176
0.918926
0.92227
0.92649
0.934732
0.938258
0.938741
0.940394
0.94107
0.939567
0.938098
0.939107
0.0300115
0.0299976
0.0299871
0.0299741
0.0299414
0.0298789
0.0298443
0.0298187
0.0297839
0.0297413
0.0296765
0.0296228
0.0295845
0.0295477
0.0295077
0.0294708
0.0294376
0.0293788
0.0292804
0.0292203
0.0291783
0.0291473
0.029131
0.0291286
0.0291492
0.0292279
0.02935
0.029491
0.029635
0.0297683
0.0299072
0.0300454
0.0302151
0.0303915
0.0305689
0.0307234
0.0308554
0.0310064
0.0311538
0.0313094
0.0314432
0.0315385
0.0316023
0.0316325
0.0316766
0.0317411
0.0318424
0.0320326
0.0322981
0.0327648
0.0334188
0.0342869
0.0353427
0.0363351
0.0373093
0.0380489
0.0385619
0.0390685
0.0395006
0.0399576
0.0404824
0.041219
0.0421508
0.0433267
0.0446875
0.0455349
0.0464011
0.0475031
0.0481361
0.0488856
0.0494198
0.0810409
0.177634
0.356184
0.548795
0.680782
0.758735
0.831711
0.906608
0.892565
0.888156
0.879286
0.881682
0.875743
0.888035
0.907395
0.914541
0.914258
0.915686
0.918755
0.921732
0.928913
0.936442
0.937847
0.938178
0.93791
0.938332
0.938702
0.943441
0.949759
0.0294621
0.0294454
0.0294316
0.0294261
0.0294071
0.02937
0.0293381
0.0293194
0.0293215
0.0293225
0.0292985
0.0292738
0.0292651
0.0292779
0.0293117
0.0293502
0.0293838
0.0294118
0.0294505
0.0294996
0.0295809
0.0297034
0.0298573
0.0300415
0.0302582
0.0305187
0.0307665
0.0309807
0.0311446
0.0312922
0.0314337
0.0315712
0.0317065
0.0318257
0.0319392
0.0320176
0.0321043
0.0321971
0.0322954
0.0324095
0.0325258
0.0326333
0.032785
0.0329941
0.0333321
0.0338071
0.0344375
0.0351893
0.0360748
0.0369738
0.0378489
0.0386901
0.0393901
0.039989
0.0405001
0.0408577
0.0412103
0.0415673
0.0420315
0.0427139
0.0436462
0.0447057
0.0458296
0.0469711
0.0479354
0.0489577
0.0499045
0.0508272
0.0518255
0.0528478
0.0540508
0.0549854
0.0560039
0.0593605
0.0995284
0.217414
0.389856
0.580902
0.719494
0.791337
0.863435
0.908685
0.913046
0.893179
0.900878
0.90189
0.896962
0.906665
0.922686
0.927152
0.931083
0.935318
0.934576
0.930965
0.932431
0.937983
0.942607
0.942904
0.944768
0.948452
0.0297182
0.0297884
0.0298594
0.0299321
0.0300079
0.0300898
0.0301756
0.030264
0.0303659
0.0304617
0.0305426
0.0306344
0.0307372
0.0308491
0.0309718
0.0310855
0.0311771
0.0312757
0.0313973
0.0315285
0.0316708
0.0318483
0.0320324
0.0321645
0.0322717
0.0323779
0.0324984
0.0326138
0.0327135
0.0328114
0.032897
0.0329933
0.0330828
0.0331828
0.0332833
0.0334164
0.0335885
0.0338292
0.0341433
0.0345203
0.0349685
0.0355389
0.0361879
0.0369753
0.0377709
0.0386041
0.039368
0.0400759
0.0406971
0.0411933
0.0416574
0.0420316
0.0423774
0.0427254
0.0430632
0.0435473
0.044087
0.0447247
0.0455332
0.046618
0.0478186
0.0489902
0.050077
0.0508913
0.0517443
0.0525428
0.0534238
0.0542962
0.055346
0.0565928
0.0580592
0.0597283
0.0613548
0.0622866
0.0629068
0.0636704
0.069073
0.118169
0.237566
0.440248
0.632774
0.761873
0.82721
0.874091
0.940479
0.932038
0.910549
0.91576
0.916629
0.912206
0.924972
0.940661
0.94221
0.939997
0.937388
0.93745
0.937893
0.93654
0.94208
0.948583
0.0323305
0.0323788
0.0324309
0.032481
0.0325321
0.0325881
0.0326469
0.0327077
0.0327698
0.0328306
0.0328931
0.0329574
0.0330273
0.0331
0.0331699
0.0332484
0.0333426
0.0334439
0.0335456
0.0336535
0.0337647
0.0338783
0.0339868
0.0341175
0.0342658
0.0344342
0.0346056
0.0347993
0.0350203
0.0352766
0.035572
0.0358899
0.0362494
0.0366391
0.0370965
0.037598
0.0381494
0.0387087
0.0392805
0.0398322
0.0404165
0.0409457
0.04149
0.0419781
0.0424324
0.0428587
0.043212
0.0435591
0.0438285
0.0441108
0.0444022
0.0447325
0.0451795
0.0457179
0.0464659
0.0473358
0.0483842
0.0493929
0.0504532
0.051412
0.052332
0.0532589
0.0539748
0.0546317
0.055268
0.0560959
0.0571771
0.0583655
0.0598456
0.0615052
0.0632813
0.0646201
0.0654197
0.0662773
0.0678602
0.0696221
0.0711462
0.0722056
0.0730226
0.0859189
0.147282
0.302908
0.497998
0.686019
0.800374
0.858018
0.899098
0.953613
0.944652
0.923073
0.92898
0.928503
0.928443
0.935247
0.944359
0.945942
0.944413
0.93868
0.939636
0.944863
0.0349748
0.0350543
0.0351355
0.0352167
0.0353027
0.0354023
0.0355134
0.0356232
0.035736
0.0358595
0.0359965
0.0361432
0.0363007
0.0364704
0.0366533
0.0368463
0.0370524
0.0372748
0.0375185
0.0377704
0.0380355
0.0383085
0.0385943
0.0388778
0.0391779
0.0394826
0.039801
0.0401192
0.0404469
0.0407773
0.0411027
0.0414311
0.041766
0.0421217
0.0424717
0.0428275
0.0431508
0.0434614
0.0437651
0.0440471
0.0443298
0.0445975
0.0448804
0.0451531
0.0454692
0.0457545
0.0461078
0.0464813
0.0469177
0.0474669
0.0480828
0.0488905
0.0497641
0.050821
0.0518478
0.0528944
0.0537663
0.054594
0.0552868
0.0558578
0.0564823
0.0571336
0.0578469
0.0586797
0.0596491
0.060965
0.0624036
0.0641138
0.0656318
0.0669706
0.0681597
0.0691103
0.0700529
0.0715272
0.0730993
0.074415
0.0759323
0.0774442
0.0794267
0.0813985
0.0817593
0.0823217
0.102228
0.189012
0.350556
0.571113
0.752872
0.846585
0.894328
0.921083
0.962309
0.943659
0.932513
0.930987
0.933828
0.936439
0.940338
0.943655
0.944073
0.944819
0.0401338
0.0402306
0.0403372
0.0404485
0.0405639
0.0406808
0.0407964
0.0409173
0.041048
0.0411869
0.0413256
0.0414667
0.0416114
0.0417631
0.0419168
0.0420715
0.0422251
0.0423878
0.0425487
0.0427141
0.0428813
0.0430548
0.043233
0.0434206
0.0436114
0.0438142
0.044023
0.0442449
0.0444677
0.0446981
0.0449391
0.0451916
0.0454569
0.0457241
0.0459952
0.0462711
0.0465386
0.0468182
0.0470998
0.0474124
0.0477695
0.048192
0.0486645
0.0492217
0.0498324
0.050487
0.0512184
0.051973
0.0528047
0.0535718
0.0543819
0.0551052
0.0558499
0.0565618
0.0572491
0.0578818
0.0584127
0.0589637
0.0594322
0.0600149
0.0606896
0.061657
0.0628784
0.0642278
0.0656111
0.0670873
0.0687021
0.0700992
0.071108
0.0720135
0.0729405
0.0742131
0.0757631
0.0771509
0.0782035
0.0797025
0.0814053
0.0832239
0.0848215
0.0855912
0.0868021
0.0888044
0.0899389
0.0908887
0.0915107
0.129749
0.249948
0.44315
0.660749
0.820043
0.895277
0.912508
0.949547
0.959882
0.951178
0.939727
0.93443
0.936034
0.940525
0.946106
0.0448205
0.0449033
0.0449837
0.0450597
0.0451437
0.0452483
0.0453604
0.0454626
0.0455695
0.045686
0.0458053
0.0459274
0.0460606
0.0462027
0.0463477
0.0464955
0.0466493
0.0468107
0.0469823
0.0471625
0.0473515
0.0475445
0.0477462
0.0479573
0.0481837
0.0484255
0.0486765
0.0489469
0.0492376
0.0495587
0.0499038
0.0502791
0.0506707
0.0510826
0.0514957
0.0519263
0.0523491
0.0528031
0.053267
0.0537499
0.054263
0.0548037
0.0553477
0.0559263
0.0565022
0.0570793
0.0576438
0.0582226
0.0587628
0.0592524
0.05971
0.0601105
0.060554
0.0610115
0.0616034
0.0622257
0.062967
0.0637562
0.0647421
0.0658212
0.0671746
0.0686274
0.0701488
0.0713903
0.0725468
0.0736806
0.0747913
0.0757735
0.0767934
0.0777358
0.0788963
0.0802746
0.0817035
0.0829651
0.0843866
0.0858875
0.0872015
0.0882906
0.089137
0.0904128
0.0920142
0.0933893
0.09437
0.0951603
0.0961884
0.0969708
0.0974533
0.104571
0.170837
0.340973
0.561325
0.749443
0.885993
0.906184
0.932772
0.951489
0.949212
0.941347
0.935977
0.940749
0.0506472
0.0507552
0.0508768
0.0510085
0.0511405
0.0512627
0.0513909
0.0515433
0.0517101
0.0518619
0.052006
0.0521582
0.0523269
0.0525035
0.0526749
0.0528464
0.0530157
0.0531901
0.0533689
0.0535508
0.0537406
0.0539335
0.05414
0.0543578
0.0545956
0.0548496
0.0551217
0.0554115
0.055726
0.0560455
0.0563827
0.0567173
0.0570649
0.057408
0.0577635
0.0581172
0.0584839
0.0588589