/*--------------------------------*- C++ -*----------------------------------*\
  =========                 |
  \\      /  F ield         | OpenFOAM: The Open Source CFD Toolbox
   \\    /   O peration     | Website:  https://openfoam.org
    \\  /    A nd           | Version:  7
     \\/     M anipulation  |
\*---------------------------------------------------------------------------*/
FoamFile
{
    version     2.0;
    format      ascii;
    class       volVectorField;
    location    "15";
    object      U;
}
// * * * * * * * * * * * * * * * * * * * * * * * * * * * * * * * * * * * * * //

dimensions      [0 1 -1 0 0 0 0];

internalField   nonuniform List<vector> 
90000
(
(0.911388 -0.340863 0)
(1.02186 -0.209953 0)
(1.093 -0.0964861 0)
(1.14396 0.0234975 0)
(1.23046 0.115846 0)
(1.31879 0.198092 0)
(1.40467 0.261272 0)
(1.49154 0.331118 0)
(1.588 0.377147 0)
(1.68318 0.416699 0)
(1.7723 0.440316 0)
(1.85607 0.470944 0)
(1.93924 0.478912 0)
(2.01388 0.493024 0)
(2.08425 0.498646 0)
(2.14942 0.502155 0)
(2.20843 0.498985 0)
(2.26131 0.497485 0)
(2.30799 0.490404 0)
(2.35229 0.484717 0)
(2.39296 0.47404 0)
(2.43096 0.467488 0)
(2.46554 0.456204 0)
(2.4975 0.448166 0)
(2.52673 0.438261 0)
(2.55444 0.429672 0)
(2.58077 0.424366 0)
(2.60596 0.415123 0)
(2.62975 0.409652 0)
(2.65176 0.401985 0)
(2.6722 0.394364 0)
(2.69067 0.385157 0)
(2.70716 0.377404 0)
(2.72084 0.36749 0)
(2.73162 0.360273 0)
(2.74078 0.35513 0)
(2.74875 0.35525 0)
(2.75549 0.358476 0)
(2.76115 0.363055 0)
(2.76551 0.368801 0)
(2.76879 0.373707 0)
(2.77066 0.379208 0)
(2.77065 0.387027 0)
(2.77093 0.395092 0)
(2.76967 0.404004 0)
(2.77036 0.413686 0)
(2.76967 0.422092 0)
(2.76936 0.428893 0)
(2.77063 0.436569 0)
(2.7697 0.44047 0)
(2.77357 0.446294 0)
(2.77531 0.448107 0)
(2.77527 0.4512 0)
(2.77274 0.444481 0)
(2.77156 0.437021 0)
(2.77095 0.429038 0)
(2.77125 0.422125 0)
(2.77171 0.414837 0)
(2.77282 0.409148 0)
(2.77258 0.407556 0)
(2.77254 0.408001 0)
(2.7732 0.409619 0)
(2.77497 0.4128 0)
(2.77559 0.416268 0)
(2.77497 0.415975 0)
(2.77376 0.413544 0)
(2.77227 0.40655 0)
(2.7704 0.39428 0)
(2.76867 0.381953 0)
(2.76889 0.377353 0)
(2.76862 0.375195 0)
(2.76831 0.374164 0)
(2.76787 0.374613 0)
(2.76691 0.37209 0)
(2.76524 0.365242 0)
(2.76248 0.356664 0)
(2.75799 0.344193 0)
(2.75527 0.339049 0)
(2.75292 0.332253 0)
(2.75142 0.330031 0)
(2.74991 0.319541 0)
(2.74934 0.310566 0)
(2.74757 0.300039 0)
(2.74729 0.298173 0)
(2.74611 0.292769 0)
(2.74391 0.289766 0)
(2.7415 0.279775 0)
(2.74126 0.275555 0)
(2.74042 0.268022 0)
(2.73913 0.264487 0)
(2.73713 0.257582 0)
(2.73755 0.252206 0)
(2.73866 0.246858 0)
(2.74009 0.243589 0)
(2.74003 0.24107 0)
(2.73918 0.23486 0)
(2.73957 0.231575 0)
(2.74106 0.22747 0)
(2.74226 0.223711 0)
(2.74185 0.215488 0)
(0.444793 -0.491992 0)
(0.431046 -0.476391 0)
(0.418995 -0.45125 0)
(0.409104 -0.411648 0)
(0.404148 -0.352512 0)
(0.413484 -0.274905 0)
(0.436381 -0.184546 0)
(0.478345 -0.0913664 0)
(0.536906 -0.00303319 0)
(0.611468 0.0725165 0)
(0.69637 0.134161 0)
(0.79011 0.179011 0)
(0.885091 0.217034 0)
(0.982343 0.24198 0)
(1.0783 0.261952 0)
(1.1718 0.277276 0)
(1.26195 0.28515 0)
(1.34789 0.297279 0)
(1.43176 0.301334 0)
(1.51048 0.312918 0)
(1.58682 0.318835 0)
(1.65907 0.329356 0)
(1.72825 0.336446 0)
(1.79495 0.346061 0)
(1.86021 0.354267 0)
(1.92395 0.363645 0)
(1.98681 0.373562 0)
(2.04871 0.382082 0)
(2.10952 0.392169 0)
(2.17009 0.400249 0)
(2.22979 0.40839 0)
(2.28843 0.41599 0)
(2.34511 0.424504 0)
(2.39918 0.431101 0)
(2.44942 0.439695 0)
(2.49556 0.445224 0)
(2.53676 0.452705 0)
(2.57325 0.460216 0)
(2.60512 0.470637 0)
(2.63295 0.48026 0)
(2.65705 0.489839 0)
(2.67721 0.496784 0)
(2.69322 0.502237 0)
(2.70587 0.50447 0)
(2.71482 0.506513 0)
(2.72159 0.504366 0)
(2.72623 0.501818 0)
(2.72909 0.493913 0)
(2.73175 0.485345 0)
(2.73277 0.471165 0)
(2.73518 0.457345 0)
(2.7382 0.441724 0)
(2.74538 0.428874 0)
(2.74986 0.417619 0)
(2.75148 0.407445 0)
(2.75256 0.399935 0)
(2.75418 0.39756 0)
(2.75727 0.397659 0)
(2.76013 0.400693 0)
(2.76451 0.402814 0)
(2.76942 0.408455 0)
(2.77405 0.414524 0)
(2.77446 0.420822 0)
(2.77306 0.419888 0)
(2.77123 0.414595 0)
(2.76974 0.40425 0)
(2.76748 0.392304 0)
(2.76689 0.385832 0)
(2.76688 0.377557 0)
(2.7673 0.375362 0)
(2.76808 0.374813 0)
(2.76844 0.373202 0)
(2.76771 0.371895 0)
(2.7661 0.366159 0)
(2.76395 0.35825 0)
(2.75969 0.345071 0)
(2.75768 0.338609 0)
(2.75425 0.333866 0)
(2.75269 0.330668 0)
(2.74934 0.323234 0)
(2.74725 0.311173 0)
(2.74627 0.300472 0)
(2.74708 0.297534 0)
(2.74647 0.294836 0)
(2.74544 0.29155 0)
(2.74276 0.285325 0)
(2.73982 0.275372 0)
(2.73978 0.272538 0)
(2.73868 0.26547 0)
(2.73696 0.262671 0)
(2.73539 0.254685 0)
(2.73575 0.250305 0)
(2.73698 0.244561 0)
(2.7386 0.242476 0)
(2.73807 0.23888 0)
(2.73663 0.233175 0)
(2.7372 0.229987 0)
(2.73936 0.226325 0)
(2.74073 0.224922 0)
(2.74004 0.217307 0)
(0.408688 -0.386702 0)
(0.394681 -0.371956 0)
(0.375916 -0.356286 0)
(0.363054 -0.333227 0)
(0.353889 -0.309052 0)
(0.351128 -0.285013 0)
(0.34636 -0.261257 0)
(0.346552 -0.234793 0)
(0.346421 -0.202151 0)
(0.351085 -0.161652 0)
(0.356284 -0.112981 0)
(0.372228 -0.0629496 0)
(0.398843 -0.0162969 0)
(0.434063 0.0255371 0)
(0.475556 0.0621822 0)
(0.52299 0.0922655 0)
(0.574456 0.116959 0)
(0.630744 0.132569 0)
(0.689314 0.143237 0)
(0.749825 0.149922 0)
(0.811627 0.150796 0)
(0.873748 0.152418 0)
(0.936798 0.151625 0)
(1.00031 0.154165 0)
(1.06524 0.157608 0)
(1.13136 0.164441 0)
(1.19951 0.174446 0)
(1.2691 0.189642 0)
(1.34073 0.210335 0)
(1.4149 0.234869 0)
(1.49273 0.2613 0)
(1.57432 0.286366 0)
(1.65893 0.309462 0)
(1.74585 0.327957 0)
(1.83323 0.343131 0)
(1.91922 0.352321 0)
(2.00256 0.357584 0)
(2.08209 0.35535 0)
(2.15785 0.351958 0)
(2.22889 0.347266 0)
(2.29551 0.344787 0)
(2.3573 0.342101 0)
(2.41399 0.341866 0)
(2.46555 0.339512 0)
(2.51187 0.341278 0)
(2.55291 0.342534 0)
(2.58918 0.345723 0)
(2.62029 0.348636 0)
(2.64697 0.3489 0)
(2.6685 0.350446 0)
(2.68512 0.348259 0)
(2.69581 0.349247 0)
(2.70542 0.348456 0)
(2.71653 0.357089 0)
(2.72794 0.36408 0)
(2.73659 0.374117 0)
(2.74402 0.385294 0)
(2.74805 0.398792 0)
(2.75397 0.40986 0)
(2.75575 0.419979 0)
(2.7593 0.427302 0)
(2.76557 0.432594 0)
(2.76212 0.422585 0)
(2.7603 0.410534 0)
(2.75945 0.398507 0)
(2.76028 0.388368 0)
(2.75922 0.378173 0)
(2.76131 0.375027 0)
(2.76213 0.373808 0)
(2.76368 0.374199 0)
(2.76673 0.373296 0)
(2.7664 0.370792 0)
(2.76462 0.364764 0)
(2.76235 0.352321 0)
(2.76014 0.34546 0)
(2.75777 0.336312 0)
(2.75699 0.336414 0)
(2.75404 0.331341 0)
(2.75161 0.327226 0)
(2.74752 0.315392 0)
(2.74541 0.304641 0)
(2.74595 0.294301 0)
(2.74691 0.295165 0)
(2.74623 0.29205 0)
(2.74471 0.288544 0)
(2.74093 0.279344 0)
(2.73904 0.272516 0)
(2.73898 0.268865 0)
(2.73741 0.263096 0)
(2.73511 0.260152 0)
(2.73411 0.252771 0)
(2.73435 0.248968 0)
(2.73524 0.243017 0)
(2.73671 0.241009 0)
(2.73564 0.23619 0)
(2.73456 0.230636 0)
(2.73516 0.227314 0)
(2.73764 0.224738 0)
(2.73898 0.225128 0)
(2.73835 0.219395 0)
(0.455856 -0.312869 0)
(0.448478 -0.287725 0)
(0.43228 -0.27417 0)
(0.428369 -0.260761 0)
(0.418314 -0.254033 0)
(0.411548 -0.242659 0)
(0.402257 -0.230321 0)
(0.395778 -0.216293 0)
(0.389522 -0.203152 0)
(0.390225 -0.189702 0)
(0.395156 -0.176051 0)
(0.40265 -0.160999 0)
(0.408596 -0.142473 0)
(0.416247 -0.122843 0)
(0.424243 -0.102087 0)
(0.43419 -0.0815677 0)
(0.445021 -0.0599497 0)
(0.458459 -0.0378104 0)
(0.472939 -0.0136879 0)
(0.491798 0.00921717 0)
(0.512867 0.0318685 0)
(0.537464 0.0516903 0)
(0.564073 0.069321 0)
(0.592729 0.084989 0)
(0.623439 0.0987307 0)
(0.656852 0.109997 0)
(0.693931 0.118013 0)
(0.73464 0.121396 0)
(0.778368 0.122558 0)
(0.825582 0.122423 0)
(0.877415 0.12447 0)
(0.934153 0.130117 0)
(0.996908 0.139214 0)
(1.06602 0.151436 0)
(1.14108 0.165804 0)
(1.22073 0.182035 0)
(1.30298 0.20544 0)
(1.38776 0.23068 0)
(1.47558 0.257288 0)
(1.56567 0.278145 0)
(1.65694 0.298881 0)
(1.74943 0.314363 0)
(1.84022 0.331068 0)
(1.93021 0.343264 0)
(2.02006 0.351709 0)
(2.10681 0.3596 0)
(2.19023 0.368168 0)
(2.26826 0.3808 0)
(2.34091 0.392948 0)
(2.40729 0.405916 0)
(2.46672 0.418729 0)
(2.51695 0.432465 0)
(2.55876 0.441617 0)
(2.59305 0.450713 0)
(2.62406 0.45723 0)
(2.6504 0.45815 0)
(2.67289 0.457501 0)
(2.68915 0.451474 0)
(2.70287 0.44589 0)
(2.71176 0.435306 0)
(2.71973 0.422915 0)
(2.72958 0.402748 0)
(2.73874 0.385302 0)
(2.7407 0.375052 0)
(2.74172 0.367242 0)
(2.74244 0.366184 0)
(2.74607 0.362829 0)
(2.7552 0.365418 0)
(2.75739 0.367514 0)
(2.76046 0.370873 0)
(2.76044 0.36873 0)
(2.75815 0.36254 0)
(2.75606 0.353279 0)
(2.75634 0.345735 0)
(2.75507 0.337986 0)
(2.75421 0.333503 0)
(2.75307 0.333936 0)
(2.75148 0.328028 0)
(2.7484 0.320104 0)
(2.74377 0.303406 0)
(2.74341 0.29726 0)
(2.7456 0.292884 0)
(2.74629 0.293778 0)
(2.74587 0.289708 0)
(2.7438 0.284398 0)
(2.73945 0.273804 0)
(2.73883 0.270543 0)
(2.73729 0.265925 0)
(2.73575 0.260818 0)
(2.7335 0.256957 0)
(2.73281 0.251516 0)
(2.73286 0.247741 0)
(2.73369 0.241381 0)
(2.7349 0.239186 0)
(2.73321 0.233233 0)
(2.73334 0.227874 0)
(2.73367 0.22407 0)
(2.73556 0.222007 0)
(2.73639 0.223204 0)
(2.73616 0.219289 0)
(0.572691 -0.259577 0)
(0.555742 -0.240697 0)
(0.544636 -0.258764 0)
(0.561438 -0.264239 0)
(0.564527 -0.251943 0)
(0.557075 -0.229483 0)
(0.53828 -0.205424 0)
(0.524668 -0.188559 0)
(0.513897 -0.181634 0)
(0.513373 -0.173309 0)
(0.508181 -0.165405 0)
(0.503278 -0.156612 0)
(0.497265 -0.148094 0)
(0.492223 -0.140127 0)
(0.491645 -0.130946 0)
(0.492733 -0.119462 0)
(0.49586 -0.10565 0)
(0.5011 -0.0913477 0)
(0.507152 -0.0774838 0)
(0.51528 -0.0644617 0)
(0.522149 -0.0502472 0)
(0.530325 -0.0375487 0)
(0.538358 -0.0257156 0)
(0.547625 -0.0156386 0)
(0.557271 -0.00614995 0)
(0.567606 0.00280779 0)
(0.57725 0.0143856 0)
(0.587328 0.0291785 0)
(0.600209 0.044905 0)
(0.61693 0.0583289 0)
(0.636219 0.0712233 0)
(0.657964 0.0838561 0)
(0.682792 0.0960345 0)
(0.711364 0.1078 0)
(0.744502 0.119737 0)
(0.784016 0.126824 0)
(0.829246 0.126316 0)
(0.879077 0.123259 0)
(0.933519 0.124087 0)
(0.993427 0.127418 0)
(1.0592 0.134588 0)
(1.13071 0.144741 0)
(1.20744 0.155494 0)
(1.28691 0.177493 0)
(1.37219 0.208238 0)
(1.46438 0.234179 0)
(1.56143 0.26066 0)
(1.66358 0.278537 0)
(1.7656 0.297544 0)
(1.8709 0.309088 0)
(1.97736 0.315108 0)
(2.08143 0.318047 0)
(2.17807 0.322507 0)
(2.26537 0.322009 0)
(2.34461 0.325085 0)
(2.41618 0.325105 0)
(2.47978 0.331157 0)
(2.53408 0.33206 0)
(2.57906 0.337604 0)
(2.61495 0.337059 0)
(2.6424 0.343044 0)
(2.65969 0.339339 0)
(2.68174 0.349197 0)
(2.70211 0.35415 0)
(2.71494 0.365791 0)
(2.72351 0.372731 0)
(2.72941 0.383152 0)
(2.73563 0.384719 0)
(2.74017 0.387116 0)
(2.74174 0.3763 0)
(2.74276 0.359222 0)
(2.74617 0.346182 0)
(2.74751 0.335045 0)
(2.74751 0.334053 0)
(2.74826 0.330553 0)
(2.74958 0.331173 0)
(2.74872 0.330471 0)
(2.74564 0.322315 0)
(2.74039 0.310159 0)
(2.73822 0.298776 0)
(2.74203 0.292141 0)
(2.74452 0.29175 0)
(2.74506 0.292063 0)
(2.74426 0.285983 0)
(2.74106 0.278206 0)
(2.73842 0.270865 0)
(2.7381 0.268889 0)
(2.737 0.262246 0)
(2.73498 0.258464 0)
(2.73257 0.2536 0)
(2.73135 0.250805 0)
(2.73087 0.246306 0)
(2.7317 0.240171 0)
(2.73233 0.237385 0)
(2.73173 0.230615 0)
(2.73162 0.225583 0)
(2.7334 0.221154 0)
(2.73411 0.219042 0)
(2.73424 0.2199 0)
(2.73333 0.217338 0)
(2.04284 -1.16632 0)
(1.51365 -1.02443 0)
(0.968559 -0.69176 0)
(0.885774 -0.508269 0)
(0.781325 -0.330322 0)
(0.724049 -0.18967 0)
(0.667577 -0.123019 0)
(0.642344 -0.149097 0)
(0.656588 -0.174725 0)
(0.671308 -0.17045 0)
(0.672285 -0.153569 0)
(0.657384 -0.133815 0)
(0.644091 -0.114135 0)
(0.630206 -0.107308 0)
(0.628083 -0.0971873 0)
(0.623629 -0.0874551 0)
(0.617383 -0.0789221 0)
(0.609816 -0.0719198 0)
(0.60214 -0.0674879 0)
(0.5974 -0.0620156 0)
(0.592653 -0.0577745 0)
(0.589676 -0.0527462 0)
(0.588613 -0.0468481 0)
(0.589835 -0.0401963 0)
(0.591939 -0.0323815 0)
(0.595718 -0.0233548 0)
(0.600086 -0.0138899 0)
(0.606626 -0.00643089 0)
(0.61291 0.001186 0)
(0.619495 0.00893174 0)
(0.62498 0.0166131 0)
(0.632521 0.0230504 0)
(0.641165 0.0290362 0)
(0.650799 0.035175 0)
(0.661583 0.040634 0)
(0.671173 0.0512068 0)
(0.681605 0.0657627 0)
(0.697897 0.0774551 0)
(0.716854 0.0881842 0)
(0.738963 0.0979268 0)
(0.764043 0.10911 0)
(0.793594 0.119248 0)
(0.828716 0.130472 0)
(0.870654 0.126907 0)
(0.918548 0.125225 0)
(0.972877 0.128153 0)
(1.03537 0.135951 0)
(1.10668 0.148464 0)
(1.18696 0.160932 0)
(1.27273 0.191893 0)
(1.37012 0.225231 0)
(1.47669 0.256678 0)
(1.59079 0.275543 0)
(1.70386 0.29824 0)
(1.82027 0.310989 0)
(1.93592 0.319933 0)
(2.04808 0.330293 0)
(2.15203 0.34131 0)
(2.24737 0.350413 0)
(2.33267 0.36318 0)
(2.4081 0.375377 0)
(2.46788 0.38742 0)
(2.51866 0.392846 0)
(2.56551 0.39613 0)
(2.60504 0.390614 0)
(2.63621 0.384868 0)
(2.6605 0.370954 0)
(2.68026 0.351261 0)
(2.69984 0.333763 0)
(2.71567 0.314435 0)
(2.72529 0.305851 0)
(2.7333 0.306217 0)
(2.7383 0.313051 0)
(2.74064 0.322791 0)
(2.7406 0.331067 0)
(2.74203 0.332996 0)
(2.73779 0.327441 0)
(2.73253 0.309746 0)
(2.73168 0.298726 0)
(2.73292 0.291087 0)
(2.73774 0.290257 0)
(2.74356 0.292105 0)
(2.74253 0.288271 0)
(2.74062 0.280964 0)
(2.73767 0.272825 0)
(2.73684 0.269339 0)
(2.7366 0.267717 0)
(2.73497 0.259543 0)
(2.73362 0.25615 0)
(2.7322 0.251226 0)
(2.73075 0.249025 0)
(2.72975 0.243365 0)
(2.73087 0.238222 0)
(2.73116 0.234678 0)
(2.73014 0.229498 0)
(2.73002 0.224344 0)
(2.73181 0.219472 0)
(2.73286 0.216748 0)
(2.73286 0.215977 0)
(2.73134 0.212727 0)
(2.70238 -1.91428 0)
(2.70285 -1.91519 0)
(2.66362 -1.87943 0)
(2.53388 -1.80628 0)
(2.35036 -1.61268 0)
(2.09111 -1.42177 0)
(1.88081 -1.10313 0)
(1.26483 -0.788528 0)
(1.05624 -0.551145 0)
(0.945728 -0.339361 0)
(0.860865 -0.171921 0)
(0.792252 -0.0752543 0)
(0.762132 -0.0759292 0)
(0.757711 -0.095865 0)
(0.769405 -0.0932733 0)
(0.774082 -0.0799781 0)
(0.7647 -0.0669905 0)
(0.754356 -0.0527025 0)
(0.742336 -0.0497344 0)
(0.73916 -0.043159 0)
(0.73416 -0.0358501 0)
(0.726657 -0.0279499 0)
(0.717328 -0.0228552 0)
(0.709571 -0.0167888 0)
(0.701123 -0.0115319 0)
(0.694396 -0.00568167 0)
(0.687041 -0.00267557 0)
(0.681366 -0.000108516 0)
(0.676201 0.000600113 0)
(0.672645 0.00293975 0)
(0.67091 0.00631755 0)
(0.670909 0.0101299 0)
(0.671643 0.0144698 0)
(0.674033 0.0191406 0)
(0.678005 0.024925 0)
(0.683775 0.0311651 0)
(0.689763 0.0374794 0)
(0.694507 0.0434298 0)
(0.699357 0.0485785 0)
(0.706523 0.0523588 0)
(0.714493 0.0573625 0)
(0.724115 0.0613059 0)
(0.733685 0.0681852 0)
(0.741873 0.0822943 0)
(0.757211 0.0943993 0)
(0.77617 0.104662 0)
(0.798285 0.11665 0)
(0.826261 0.126993 0)
(0.861651 0.138859 0)
(0.90534 0.133607 0)
(0.957584 0.132023 0)
(1.01932 0.136136 0)
(1.09175 0.145903 0)
(1.17416 0.152494 0)
(1.26283 0.17648 0)
(1.36416 0.196528 0)
(1.47488 0.218535 0)
(1.59054 0.236942 0)
(1.7076 0.262449 0)
(1.82918 0.273362 0)
(1.94985 0.281874 0)
(2.06319 0.282423 0)
(2.16806 0.283805 0)
(2.26489 0.291065 0)
(2.35092 0.302342 0)
(2.42447 0.309698 0)
(2.48575 0.312361 0)
(2.53641 0.313227 0)
(2.58032 0.316083 0)
(2.61973 0.32968 0)
(2.65255 0.347123 0)
(2.67788 0.357669 0)
(2.69521 0.36386 0)
(2.705 0.365081 0)
(2.70841 0.350912 0)
(2.71154 0.329696 0)
(2.7182 0.303106 0)
(2.71523 0.28269 0)
(2.72344 0.279931 0)
(2.72846 0.287605 0)
(2.7326 0.293439 0)
(2.73474 0.291822 0)
(2.73493 0.278827 0)
(2.73559 0.272485 0)
(2.73384 0.267242 0)
(2.73579 0.269883 0)
(2.73414 0.26589 0)
(2.73251 0.256474 0)
(2.73227 0.253176 0)
(2.73195 0.250286 0)
(2.72928 0.247678 0)
(2.72783 0.241209 0)
(2.72988 0.23739 0)
(2.73027 0.234271 0)
(2.7289 0.231531 0)
(2.72847 0.226394 0)
(2.73 0.219301 0)
(2.73128 0.215708 0)
(2.73142 0.213381 0)
(2.73016 0.208653 0)
(2.70904 -1.93959 0)
(2.71001 -1.94178 0)
(2.71168 -1.94257 0)
(2.7135 -1.94272 0)
(2.71506 -1.94353 0)
(2.71713 -1.94389 0)
(2.71853 -1.9449 0)
(2.7132 -1.93759 0)
(2.63332 -1.86989 0)
(2.45893 -1.70832 0)
(2.2165 -1.47548 0)
(1.93324 -1.15372 0)
(1.66719 -0.828846 0)
(1.21814 -0.514806 0)
(1.0785 -0.294801 0)
(0.987631 -0.129154 0)
(0.90705 -0.0395624 0)
(0.881268 -0.0253488 0)
(0.871814 -0.0361868 0)
(0.877133 -0.0321332 0)
(0.88014 -0.0201972 0)
(0.874285 -0.00715852 0)
(0.861673 -0.000883909 0)
(0.855417 0.00612955 0)
(0.849731 0.00677723 0)
(0.843374 0.0105362 0)
(0.833012 0.0119041 0)
(0.822305 0.0139704 0)
(0.811321 0.0177604 0)
(0.801244 0.0234544 0)
(0.790608 0.0281615 0)
(0.780983 0.0328682 0)
(0.771532 0.0362209 0)
(0.76286 0.0379817 0)
(0.755062 0.0391243 0)
(0.74823 0.040459 0)
(0.742788 0.0381597 0)
(0.738616 0.0381584 0)
(0.736696 0.0396203 0)
(0.736331 0.0420043 0)
(0.736695 0.0453592 0)
(0.739197 0.0491038 0)
(0.74262 0.0557285 0)
(0.748487 0.0610007 0)
(0.751769 0.0668371 0)
(0.757416 0.0700801 0)
(0.764541 0.0744998 0)
(0.773982 0.077418 0)
(0.784043 0.0842582 0)
(0.793027 0.098369 0)
(0.810146 0.108317 0)
(0.831134 0.117737 0)
(0.857239 0.12494 0)
(0.888976 0.136546 0)
(0.929728 0.136502 0)
(0.980038 0.141593 0)
(1.04216 0.145232 0)
(1.11653 0.145247 0)
(1.20243 0.148839 0)
(1.29542 0.183176 0)
(1.39868 0.228749 0)
(1.51298 0.261633 0)
(1.63707 0.279651 0)
(1.76624 0.272333 0)
(1.89319 0.267417 0)
(2.01183 0.274799 0)
(2.11891 0.289283 0)
(2.21616 0.300448 0)
(2.30409 0.303208 0)
(2.38443 0.30073 0)
(2.45752 0.294436 0)
(2.52102 0.288369 0)
(2.57491 0.281823 0)
(2.61785 0.273722 0)
(2.6484 0.266381 0)
(2.66399 0.265132 0)
(2.67841 0.261193 0)
(2.6869 0.284179 0)
(2.69724 0.302268 0)
(2.70537 0.307436 0)
(2.71016 0.29789 0)
(2.71777 0.27501 0)
(2.72155 0.25554 0)
(2.72953 0.262927 0)
(2.73079 0.270275 0)
(2.7309 0.269846 0)
(2.72916 0.259137 0)
(2.72861 0.250419 0)
(2.73033 0.254085 0)
(2.72986 0.250992 0)
(2.72785 0.245182 0)
(2.72844 0.237248 0)
(2.7299 0.238015 0)
(2.73011 0.236948 0)
(2.72837 0.236095 0)
(2.72726 0.230638 0)
(2.72841 0.222396 0)
(2.73025 0.215707 0)
(2.73036 0.211436 0)
(2.72891 0.205446 0)
(2.73298 -1.95019 0)
(2.73496 -1.95113 0)
(2.73682 -1.95244 0)
(2.73896 -1.95349 0)
(2.7408 -1.95501 0)
(2.74309 -1.95602 0)
(2.74469 -1.95778 0)
(2.74782 -1.95905 0)
(2.74867 -1.96053 0)
(2.75022 -1.96068 0)
(2.75093 -1.96215 0)
(2.75294 -1.96212 0)
(2.7533 -1.964 0)
(2.68481 -1.89252 0)
(2.50555 -1.72241 0)
(2.26254 -1.45298 0)
(1.98382 -1.09379 0)
(1.76636 -0.765928 0)
(1.3973 -0.433249 0)
(1.18006 -0.197547 0)
(1.06407 -0.0543676 0)
(1.00425 0.0125203 0)
(0.983844 0.0103962 0)
(0.975488 0.0115759 0)
(0.980227 0.0234131 0)
(0.977192 0.0346299 0)
(0.968695 0.0437224 0)
(0.959865 0.049622 0)
(0.954666 0.0468186 0)
(0.949138 0.0483311 0)
(0.937232 0.047124 0)
(0.925501 0.0482051 0)
(0.913373 0.0510512 0)
(0.901768 0.0529604 0)
(0.889763 0.0545425 0)
(0.878094 0.0532732 0)
(0.866659 0.0543127 0)
(0.85491 0.0555927 0)
(0.843312 0.0587433 0)
(0.831557 0.0614102 0)
(0.820353 0.0640326 0)
(0.810367 0.0649223 0)
(0.801317 0.0651577 0)
(0.795126 0.0611209 0)
(0.790635 0.0591787 0)
(0.789193 0.0597442 0)
(0.789019 0.0619046 0)
(0.790612 0.0653494 0)
(0.793708 0.0712863 0)
(0.799542 0.0767045 0)
(0.803091 0.0815398 0)
(0.808128 0.0838256 0)
(0.8149 0.0847797 0)
(0.823838 0.0867934 0)
(0.831927 0.0980211 0)
(0.847162 0.101655 0)
(0.861598 0.113618 0)
(0.884439 0.123893 0)
(0.920432 0.132238 0)
(0.967012 0.110796 0)
(1.02658 0.101139 0)
(1.09148 0.122197 0)
(1.16439 0.162032 0)
(1.25192 0.197548 0)
(1.3609 0.205976 0)
(1.47949 0.194319 0)
(1.60186 0.187715 0)
(1.72587 0.203173 0)
(1.8454 0.229294 0)
(1.9639 0.250574 0)
(2.08092 0.259689 0)
(2.19192 0.260736 0)
(2.29462 0.272344 0)
(2.38471 0.287656 0)
(2.45975 0.310556 0)
(2.51726 0.319196 0)
(2.56067 0.329761 0)
(2.59232 0.318993 0)
(2.61689 0.293749 0)
(2.64323 0.262918 0)
(2.66831 0.242191 0)
(2.68812 0.232862 0)
(2.69932 0.254508 0)
(2.70996 0.277269 0)
(2.71496 0.281129 0)
(2.71256 0.263721 0)
(2.7183 0.242204 0)
(2.72379 0.249399 0)
(2.7259 0.253328 0)
(2.72343 0.247665 0)
(2.72426 0.237982 0)
(2.72761 0.237835 0)
(2.72855 0.238095 0)
(2.72865 0.237278 0)
(2.72712 0.237139 0)
(2.72572 0.232153 0)
(2.72751 0.225635 0)
(2.72931 0.219799 0)
(2.72917 0.214528 0)
(2.72757 0.204381 0)
(2.75039 -1.96453 0)
(2.7515 -1.96594 0)
(2.75339 -1.96631 0)
(2.7545 -1.96786 0)
(2.75645 -1.96823 0)
(2.75759 -1.9698 0)
(2.7596 -1.97016 0)
(2.76077 -1.97171 0)
(2.76275 -1.97213 0)
(2.76399 -1.9737 0)
(2.76606 -1.9741 0)
(2.76726 -1.97572 0)
(2.76951 -1.97613 0)
(2.77037 -1.97731 0)
(2.77207 -1.97662 0)
(2.77279 -1.97773 0)
(2.77487 -1.97683 0)
(2.7751 -1.9786 0)
(2.70797 -1.88696 0)
(2.48829 -1.66001 0)
(2.21437 -1.32391 0)
(1.92681 -0.921656 0)
(1.71803 -0.567017 0)
(1.37434 -0.258946 0)
(1.21276 -0.0603089 0)
(1.10292 0.0353446 0)
(1.07198 0.0446758 0)
(1.06403 0.0498006 0)
(1.06426 0.0625489 0)
(1.06272 0.0748203 0)
(1.05336 0.0846028 0)
(1.04778 0.0817034 0)
(1.04561 0.0758543 0)
(1.03854 0.0736261 0)
(1.02763 0.0750271 0)
(1.01604 0.0772328 0)
(1.00458 0.0817722 0)
(0.992169 0.0824784 0)
(0.979656 0.081873 0)
(0.966363 0.0793861 0)
(0.953095 0.0744517 0)
(0.939519 0.0709143 0)
(0.925422 0.0681179 0)
(0.911274 0.070204 0)
(0.897129 0.0746868 0)
(0.883609 0.0789361 0)
(0.871265 0.0829352 0)
(0.859935 0.0822729 0)
(0.849226 0.0814971 0)
(0.841896 0.0759033 0)
(0.836434 0.0721558 0)
(0.833021 0.0726972 0)
(0.831271 0.0743478 0)
(0.832342 0.0776037 0)
(0.835248 0.0809484 0)
(0.835365 0.08357 0)
(0.83645 0.0868027 0)
(0.838532 0.0909143 0)
(0.841885 0.0972672 0)
(0.850461 0.106485 0)
(0.872208 0.102758 0)
(0.898441 0.0941478 0)
(0.926243 0.0947643 0)
(0.958497 0.121814 0)
(1.00144 0.159907 0)
(1.06541 0.181036 0)
(1.14904 0.172095 0)
(1.24538 0.14458 0)
(1.35011 0.13012 0)
(1.46196 0.155815 0)
(1.57881 0.199241 0)
(1.70515 0.229139 0)
(1.83812 0.232804 0)
(1.9671 0.222584 0)
(2.09098 0.217344 0)
(2.20405 0.229087 0)
(2.30217 0.234659 0)
(2.38343 0.240506 0)
(2.44734 0.235168 0)
(2.50146 0.244822 0)
(2.55355 0.255311 0)
(2.5971 0.284753 0)
(2.62749 0.289797 0)
(2.64926 0.274618 0)
(2.66817 0.24773 0)
(2.68288 0.221444 0)
(2.69541 0.24302 0)
(2.70642 0.255487 0)
(2.70993 0.251114 0)
(2.71275 0.229154 0)
(2.71692 0.238028 0)
(2.72108 0.238784 0)
(2.72259 0.233965 0)
(2.72352 0.233261 0)
(2.72298 0.230904 0)
(2.72249 0.225412 0)
(2.72576 0.22457 0)
(2.72896 0.224403 0)
(2.7288 0.222364 0)
(2.72623 0.209683 0)
(2.76782 -1.97176 0)
(2.76894 -1.97239 0)
(2.77 -1.97316 0)
(2.77119 -1.97379 0)
(2.7723 -1.97458 0)
(2.77353 -1.9752 0)
(2.7747 -1.97591 0)
(2.77586 -1.97664 0)
(2.77714 -1.9772 0)
(2.77824 -1.97801 0)
(2.77967 -1.97831 0)
(2.78058 -1.97937 0)
(2.78217 -1.97935 0)
(2.78288 -1.98061 0)
(2.7845 -1.98051 0)
(2.78511 -1.98189 0)
(2.78679 -1.98151 0)
(2.78723 -1.98336 0)
(2.78853 -1.98233 0)
(2.78874 -1.98325 0)
(2.79022 -1.98217 0)
(2.79022 -1.98399 0)
(2.77805 -1.94588 0)
(2.62938 -1.77002 0)
(2.35067 -1.4414 0)
(2.04175 -1.00788 0)
(1.79602 -0.610147 0)
(1.51668 -0.274389 0)
(1.31338 -0.0470466 0)
(1.1804 0.0641694 0)
(1.14594 0.0712353 0)
(1.13482 0.0806931 0)
(1.13357 0.0980203 0)
(1.12811 0.109842 0)
(1.12566 0.107638 0)
(1.12516 0.100028 0)
(1.12344 0.0920666 0)
(1.11225 0.0879081 0)
(1.10148 0.0877511 0)
(1.09034 0.0928326 0)
(1.07845 0.0950666 0)
(1.06698 0.0998244 0)
(1.05406 0.10102 0)
(1.04055 0.100881 0)
(1.02681 0.0973789 0)
(1.01177 0.0934849 0)
(0.99662 0.0886406 0)
(0.980739 0.0866841 0)
(0.964571 0.0836514 0)
(0.948164 0.084867 0)
(0.931312 0.0886822 0)
(0.913766 0.0913972 0)
(0.897188 0.0925368 0)
(0.882218 0.0913482 0)
(0.871126 0.084106 0)
(0.863894 0.0788959 0)
(0.858067 0.0795064 0)
(0.852505 0.0831279 0)
(0.847574 0.090439 0)
(0.843888 0.0986278 0)
(0.843714 0.101839 0)
(0.850584 0.0974697 0)
(0.864382 0.0918518 0)
(0.879195 0.0807188 0)
(0.888806 0.0809042 0)
(0.897632 0.104971 0)
(0.914848 0.137683 0)
(0.9552 0.149612 0)
(1.01314 0.131868 0)
(1.0819 0.0983039 0)
(1.16258 0.0875505 0)
(1.25103 0.119259 0)
(1.35023 0.174072 0)
(1.46539 0.206027 0)
(1.59499 0.21082 0)
(1.7297 0.202545 0)
(1.86444 0.20152 0)
(1.99383 0.221696 0)
(2.10789 0.247205 0)
(2.2078 0.251547 0)
(2.29961 0.249194 0)
(2.38365 0.23466 0)
(2.45823 0.219341 0)
(2.51579 0.224265 0)
(2.56185 0.227749 0)
(2.59925 0.265896 0)
(2.62828 0.265084 0)
(2.65109 0.252111 0)
(2.67209 0.219221 0)
(2.68316 0.237765 0)
(2.69383 0.239841 0)
(2.70266 0.224796 0)
(2.71299 0.213498 0)
(2.71748 0.217838 0)
(2.71811 0.216404 0)
(2.72 0.214212 0)
(2.7224 0.217921 0)
(2.72712 0.224658 0)
(2.7272 0.226224 0)
(2.72473 0.217054 0)
(2.77797 -1.98208 0)
(2.77887 -1.98232 0)
(2.77959 -1.9829 0)
(2.78065 -1.98301 0)
(2.78141 -1.98367 0)
(2.78257 -1.98369 0)
(2.78325 -1.9844 0)
(2.7844 -1.98432 0)
(2.78502 -1.98503 0)
(2.78619 -1.98487 0)
(2.78688 -1.98545 0)
(2.78792 -1.98544 0)
(2.78873 -1.98574 0)
(2.78972 -1.98571 0)
(2.79042 -1.98609 0)
(2.79148 -1.98578 0)
(2.79209 -1.98609 0)
(2.79294 -1.98603 0)
(2.79385 -1.98578 0)
(2.79446 -1.98609 0)
(2.79551 -1.98547 0)
(2.79598 -1.98642 0)
(2.7968 -1.98515 0)
(2.7974 -1.98473 0)
(2.79832 -1.9837 0)
(2.7985 -1.98444 0)
(2.78945 -1.95445 0)
(2.66909 -1.78874 0)
(2.38813 -1.44269 0)
(2.0592 -0.973243 0)
(1.79572 -0.550947 0)
(1.51463 -0.208072 0)
(1.32898 0.00354809 0)
(1.22698 0.0796774 0)
(1.19855 0.091322 0)
(1.193 0.106588 0)
(1.18712 0.122857 0)
(1.18238 0.127058 0)
(1.1805 0.119133 0)
(1.18213 0.109088 0)
(1.17311 0.103621 0)
(1.16527 0.103632 0)
(1.15393 0.106487 0)
(1.14287 0.108223 0)
(1.13311 0.111137 0)
(1.12242 0.112163 0)
(1.11091 0.111661 0)
(1.09832 0.111253 0)
(1.08393 0.111156 0)
(1.06756 0.110947 0)
(1.04973 0.109325 0)
(1.03014 0.105218 0)
(1.00938 0.10079 0)
(0.988182 0.0951081 0)
(0.967047 0.0941195 0)
(0.947184 0.0964352 0)
(0.928264 0.0983843 0)
(0.910066 0.0998298 0)
(0.891229 0.102522 0)
(0.87366 0.0998979 0)
(0.862303 0.10007 0)
(0.859792 0.0990675 0)
(0.862426 0.0962782 0)
(0.86673 0.0880684 0)
(0.86998 0.0821551 0)
(0.872328 0.0796398 0)
(0.871891 0.0876633 0)
(0.867651 0.107469 0)
(0.875073 0.123593 0)
(0.898819 0.123615 0)
(0.935254 0.100205 0)
(0.979997 0.0670734 0)
(1.03482 0.049371 0)
(1.09411 0.083774 0)
(1.16365 0.143177 0)
(1.25652 0.184049 0)
(1.37273 0.189723 0)
(1.50285 0.169427 0)
(1.63651 0.147785 0)
(1.76803 0.151192 0)
(1.89382 0.172502 0)
(2.01409 0.201082 0)
(2.13116 0.232324 0)
(2.23899 0.246256 0)
(2.3305 0.25654 0)
(2.40699 0.224777 0)
(2.47481 0.215151 0)
(2.53358 0.204271 0)
(2.57627 0.241224 0)
(2.60628 0.247573 0)
(2.6319 0.232766 0)
(2.65687 0.220229 0)
(2.67896 0.229581 0)
(2.69195 0.228522 0)
(2.69784 0.206214 0)
(2.70864 0.197534 0)
(2.71718 0.201294 0)
(2.72119 0.211779 0)
(2.72069 0.221482 0)
(2.72056 0.218614 0)
(2.78936 -1.98309 0)
(2.78978 -1.98352 0)
(2.79049 -1.98357 0)
(2.79109 -1.9839 0)
(2.79186 -1.98397 0)
(2.7925 -1.98423 0)
(2.79321 -1.98427 0)
(2.79376 -1.98442 0)
(2.79437 -1.98444 0)
(2.79502 -1.98434 0)
(2.79551 -1.98449 0)
(2.79616 -1.9843 0)
(2.79659 -1.98445 0)
(2.79728 -1.98408 0)
(2.79761 -1.98429 0)
(2.79833 -1.98373 0)
(2.79854 -1.98397 0)
(2.79924 -1.98333 0)
(2.79932 -1.98368 0)
(2.79998 -1.98301 0)
(2.79996 -1.98343 0)
(2.80067 -1.98248 0)
(2.80061 -1.98284 0)
(2.80151 -1.98154 0)
(2.80099 -1.98233 0)
(2.80158 -1.98114 0)
(2.80141 -1.98149 0)
(2.80104 -1.9821 0)
(2.80158 -1.98078 0)
(2.80105 -1.98153 0)
(2.78119 -1.93635 0)
(2.61331 -1.72047 0)
(2.29355 -1.29262 0)
(1.9905 -0.811943 0)
(1.67996 -0.37591 0)
(1.42886 -0.0740234 0)
(1.28464 0.0816657 0)
(1.24476 0.101128 0)
(1.2308 0.11319 0)
(1.22496 0.120675 0)
(1.22059 0.13257 0)
(1.22333 0.127447 0)
(1.22071 0.123305 0)
(1.21213 0.117166 0)
(1.20509 0.116374 0)
(1.197 0.119892 0)
(1.18746 0.120681 0)
(1.17926 0.124238 0)
(1.17001 0.124724 0)
(1.15999 0.122944 0)
(1.14775 0.121801 0)
(1.13286 0.122158 0)
(1.11576 0.124023 0)
(1.09638 0.125898 0)
(1.07533 0.124728 0)
(1.05402 0.119921 0)
(1.03236 0.113738 0)
(1.0102 0.108172 0)
(0.985261 0.10542 0)
(0.958079 0.108514 0)
(0.932023 0.114684 0)
(0.910324 0.115843 0)
(0.893767 0.109791 0)
(0.884849 0.10005 0)
(0.882444 0.0893672 0)
(0.878745 0.0828877 0)
(0.876063 0.077941 0)
(0.870157 0.0788487 0)
(0.861261 0.0879283 0)
(0.852364 0.103033 0)
(0.856395 0.107744 0)
(0.872184 0.100776 0)
(0.892418 0.0830674 0)
(0.916037 0.0618223 0)
(0.945484 0.0519756 0)
(0.982947 0.0791986 0)
(1.03535 0.124876 0)
(1.10744 0.161605 0)
(1.20481 0.164545 0)
(1.31325 0.143494 0)
(1.42788 0.120637 0)
(1.55018 0.123369 0)
(1.68195 0.147379 0)
(1.81686 0.180995 0)
(1.95097 0.190852 0)
(2.07128 0.203236 0)
(2.18388 0.20595 0)
(2.286 0.229544 0)
(2.36848 0.215588 0)
(2.43693 0.207625 0)
(2.49656 0.210728 0)
(2.54929 0.224679 0)
(2.59275 0.228526 0)
(2.62453 0.22844 0)
(2.64725 0.233992 0)
(2.66938 0.227271 0)
(2.68815 0.213126 0)
(2.70176 0.194054 0)
(2.70852 0.197231 0)
(2.71243 0.204645 0)
(2.79456 -1.98722 0)
(2.79501 -1.9871 0)
(2.79543 -1.98712 0)
(2.79594 -1.98705 0)
(2.79646 -1.98697 0)
(2.79684 -1.98711 0)
(2.79736 -1.98692 0)
(2.79766 -1.98704 0)
(2.7981 -1.98682 0)
(2.79836 -1.98686 0)
(2.79876 -1.98654 0)
(2.79886 -1.9866 0)
(2.79925 -1.98605 0)
(2.79928 -1.98609 0)
(2.79973 -1.98539 0)
(2.79957 -1.98568 0)
(2.80002 -1.98491 0)
(2.79994 -1.98498 0)
(2.80028 -1.98426 0)
(2.80012 -1.98423 0)
(2.80025 -1.98369 0)
(2.80013 -1.9836 0)
(2.80044 -1.98275 0)
(2.80031 -1.98243 0)
(2.80032 -1.98177 0)
(2.80012 -1.98135 0)
(2.8002 -1.98025 0)
(2.80013 -1.97932 0)
(2.79978 -1.97868 0)
(2.79946 -1.97766 0)
(2.79971 -1.9758 0)
(2.79932 -1.97554 0)
(2.79921 -1.9747 0)
(2.79915 -1.97413 0)
(2.72365 -1.8554 0)
(2.43204 -1.49545 0)
(2.07933 -0.957625 0)
(1.77101 -0.468143 0)
(1.46548 -0.106596 0)
(1.29858 0.0694493 0)
(1.27057 0.0964946 0)
(1.2551 0.121219 0)
(1.24894 0.136736 0)
(1.2423 0.138527 0)
(1.24559 0.130907 0)
(1.24544 0.127824 0)
(1.23638 0.127079 0)
(1.23064 0.129618 0)
(1.22267 0.132885 0)
(1.21539 0.136016 0)
(1.20752 0.137978 0)
(1.19845 0.138381 0)
(1.1885 0.13803 0)
(1.1762 0.13709 0)
(1.16118 0.137574 0)
(1.1441 0.13789 0)
(1.12601 0.135245 0)
(1.10688 0.131923 0)
(1.08549 0.128983 0)
(1.06145 0.12708 0)
(1.03277 0.126067 0)
(1.00231 0.125176 0)
(0.975046 0.118356 0)
(0.95201 0.111621 0)
(0.933691 0.101395 0)
(0.918041 0.0879526 0)
(0.904262 0.0783004 0)
(0.891254 0.0749724 0)
(0.877868 0.0766313 0)
(0.865505 0.0804007 0)
(0.85548 0.0899367 0)
(0.849147 0.0947613 0)