/*--------------------------------*- C++ -*----------------------------------*\
  =========                 |
  \\      /  F ield         | OpenFOAM: The Open Source CFD Toolbox
   \\    /   O peration     | Website:  https://openfoam.org
    \\  /    A nd           | Version:  7
     \\/     M anipulation  |
\*---------------------------------------------------------------------------*/
FoamFile
{
    version     2.0;
    format      ascii;
    class       volScalarField;
    location    "0.5";
    object      rho;
}
// * * * * * * * * * * * * * * * * * * * * * * * * * * * * * * * * * * * * * //

dimensions      [1 -3 0 0 0 0 0];

internalField   nonuniform List<scalar> 
60000
(
0.193695
0.221914
0.247248
0.292498
0.332166
0.354409
0.394449
0.451252
0.504508
0.552319
0.598189
0.643085
0.685328
0.71771
0.739353
0.758268
0.752926
0.741119
0.727619
0.720393
0.708361
0.706495
0.713695
0.71176
0.71116
0.717917
0.731182
0.746923
0.763751
0.779579
0.791076
0.794431
0.79582
0.791478
0.782147
0.767801
0.755264
0.746212
0.745674
0.747686
0.750979
0.751686
0.746963
0.739596
0.733657
0.732141
0.73337
0.736702
0.741249
0.744306
0.745672
0.751111
0.762307
0.775953
0.789519
0.803076
0.812847
0.820913
0.831492
0.845837
0.86515
0.889801
0.904717
0.918195
0.925178
0.933223
0.938164
0.941517
0.948447
0.965146
0.986359
1.00226
1.02459
1.0321
1.02933
1.03483
1.05615
1.11617
1.19402
1.26337
1.30793
1.32825
1.34004
1.3511
1.36463
1.38103
1.39467
1.39981
1.40024
1.40014
1.40003
1.40001
1.40001
1.40001
1.40001
1.40001
1.40001
1.40001
1.40001
1.40001
0.165125
0.16498
0.164919
0.164839
0.164842
0.164732
0.165834
0.169594
0.178697
0.195933
0.221733
0.260799
0.313799
0.384907
0.462862
0.554185
0.627192
0.684489
0.734519
0.774244
0.776381
0.770321
0.75229
0.730511
0.717378
0.704879
0.691799
0.692313
0.692565
0.692731
0.692876
0.696045
0.695735
0.693741
0.690594
0.687605
0.687846
0.687783
0.68637
0.682678
0.676411
0.667336
0.658184
0.653603
0.652416
0.653333
0.65579
0.659806
0.66472
0.672079
0.683899
0.700574
0.719333
0.736237
0.752488
0.769414
0.786504
0.804087
0.818834
0.829761
0.847353
0.864614
0.874567
0.886565
0.894577
0.898754
0.897216
0.896887
0.902352
0.924556
0.943448
0.953614
0.972458
0.982788
0.988557
1.00247
1.03469
1.10251
1.1893
1.26495
1.30785
1.32586
1.33701
1.34801
1.36206
1.37935
1.3939
1.3996
1.40019
1.40012
1.40003
1.40001
1.40001
1.40001
1.40001
1.40001
1.40001
1.40001
1.40001
1.40001
0.164626
0.164692
0.164757
0.16486
0.164993
0.165207
0.165381
0.165738
0.166438
0.166447
0.166431
0.166399
0.166399
0.167162
0.17417
0.196524
0.240343
0.305277
0.40341
0.507591
0.59777
0.673127
0.724553
0.752909
0.745834
0.730408
0.731488
0.715929
0.694346
0.673856
0.659403
0.647992
0.63171
0.631308
0.635701
0.639263
0.644156
0.644126
0.640406
0.632839
0.622946
0.611309
0.601285
0.597802
0.598025
0.599977
0.603492
0.606882
0.610366
0.616621
0.628584
0.644
0.658213
0.671284
0.683857
0.696886
0.71092
0.726282
0.742847
0.755617
0.773003
0.789364
0.800717
0.810011
0.818493
0.827855
0.832357
0.833096
0.838294
0.854901
0.883755
0.913334
0.938249
0.954743
0.966499
0.983628
1.02082
1.09282
1.18779
1.26928
1.30845
1.32378
1.33381
1.34455
1.3592
1.37757
1.39313
1.39939
1.40014
1.4001
1.40003
1.40001
1.40001
1.40001
1.40001
1.40001
1.40001
1.40001
1.40001
1.40001
0.165673
0.165789
0.165896
0.166017
0.166149
0.16627
0.166343
0.16645
0.166496
0.166571
0.16665
0.166691
0.166813
0.16696
0.16689
0.166812
0.166627
0.166327
0.166318
0.176453
0.207428
0.266555
0.365019
0.494638
0.624398
0.722801
0.761097
0.727635
0.691719
0.668495
0.651001
0.626036
0.60557
0.612237
0.621648
0.632289
0.641274
0.638303
0.627987
0.614815
0.600354
0.586069
0.574929
0.570359
0.569384
0.569699
0.571216
0.572255
0.572548
0.57485
0.581434
0.590368
0.600526
0.612034
0.622772
0.633074
0.645049
0.658552
0.673195
0.690707
0.710667
0.72065
0.727432
0.734667
0.744145
0.755819
0.767401
0.778204
0.792516
0.817675
0.856995
0.902274
0.940297
0.961106
0.971653
0.985651
1.02037
1.09227
1.19347
1.27501
1.30885
1.32169
1.33039
1.3408
1.35616
1.37575
1.39238
1.39921
1.40009
1.40008
1.40003
1.40001
1.40001
1.40001
1.40001
1.40001
1.40001
1.40001
1.40001
1.40001
0.166435
0.166539
0.166604
0.166664
0.166758
0.166783
0.166776
0.166761
0.166814
0.166923
0.166905
0.166813
0.166752
0.166655
0.166442
0.166239
0.166068
0.165955
0.165861
0.165611
0.165291
0.16507
0.164664
0.173343
0.217448
0.321077
0.486054
0.586824
0.634146
0.64483
0.632773
0.606143
0.602877
0.615614
0.615955
0.623552
0.63368
0.632308
0.626977
0.617586
0.605116
0.593124
0.579739
0.570848
0.568009
0.568592
0.570297
0.571616
0.571137
0.571406
0.57477
0.580359
0.588171
0.597579
0.605716
0.612548
0.620177
0.629573
0.641924
0.657617
0.671104
0.680493
0.690895
0.703222
0.718796
0.736897
0.75481
0.771396
0.79045
0.821144
0.868697
0.923143
0.965316
0.984713
0.9909
0.998829
1.02811
1.0986
1.20063
1.28023
1.3083
1.31862
1.3263
1.3368
1.35308
1.37397
1.39168
1.39904
1.40005
1.40006
1.40003
1.40001
1.40001
1.40001
1.40001
1.40001
1.40001
1.40001
1.40001
1.40001
0.16717
0.167178
0.167123
0.167071
0.167065
0.16703
0.166913
0.166832
0.166731
0.166554
0.166332
0.166129
0.165955
0.1658
0.165702
0.165614
0.165488
0.165268
0.164975
0.164572
0.16415
0.163747
0.163299
0.162875
0.162654
0.16238
0.170949
0.210995
0.295081
0.412537
0.503317
0.569471
0.612642
0.629825
0.621531
0.624461
0.62979
0.628644
0.626901
0.621203
0.610582
0.602347
0.591188
0.581578
0.578131
0.576493
0.57527
0.575525
0.57359
0.57349
0.57544
0.57942
0.586041
0.593515
0.598639
0.602678
0.608088
0.616161
0.628113
0.642019
0.655937
0.670681
0.687243
0.705692
0.726866
0.749836
0.772623
0.794586
0.819241
0.854647
0.910007
0.986353
1.0374
1.05436
1.05465
1.05533
1.07728
1.14
1.22805
1.2847
1.30488
1.31378
1.32151
1.33265
1.35007
1.37232
1.39108
1.3989
1.40002
1.40004
1.40002
1.40001
1.40001
1.40001
1.40001
1.40001
1.40001
1.40001
1.40001
1.40001
0.166685
0.166626
0.166531
0.16647
0.166418
0.166354
0.166287
0.16622
0.166112
0.165949
0.165741
0.165499
0.165214
0.16485
0.164418
0.164031
0.163641
0.163293
0.163005
0.162763
0.162542
0.162315
0.162047
0.161784
0.161514
0.161251
0.161083
0.161098
0.161266
0.165682
0.192827
0.257816
0.362501
0.457532
0.523148
0.56399
0.595408
0.612408
0.622191
0.621487
0.615422
0.607315
0.593891
0.580549
0.5734
0.568278
0.565294
0.563954
0.560587
0.560227
0.561881
0.567572
0.577388
0.590093
0.602989
0.61415
0.626286
0.641191
0.657787
0.675186
0.692134
0.709778
0.728992
0.750951
0.776997
0.805301
0.831815
0.856735
0.885477
0.925608
0.984535
1.04838
1.08684
1.10468
1.10993
1.11213
1.13135
1.18636
1.25123
1.28443
1.29807
1.30682
1.31562
1.32815
1.34708
1.37088
1.39063
1.39881
1.4
1.40003
1.40002
1.40001
1.40001
1.40001
1.40001
1.40001
1.40001
1.40001
1.40001
1.40001
0.166087
0.165939
0.165766
0.165567
0.165334
0.165081
0.164794
0.164493
0.164169
0.163825
0.163477
0.163101
0.162765
0.162445
0.162161
0.161963
0.161804
0.161613
0.161403
0.161217
0.161056
0.160952
0.160856
0.160816
0.160812
0.160749
0.160666
0.160677
0.160747
0.160731
0.160538
0.160361
0.160102
0.173438
0.213627
0.277281
0.366331
0.45274
0.524132
0.585477
0.61768
0.616183
0.604072
0.58483
0.578192
0.57149
0.568258
0.572465
0.574771
0.576163
0.582391
0.5942
0.607128
0.619306
0.630444
0.639737
0.650243
0.664924
0.685218
0.708871
0.733087
0.758276
0.785145
0.814694
0.846891
0.877771
0.903596
0.926212
0.951339
0.987201
1.0346
1.07641
1.10813
1.12977
1.14395
1.15624
1.18017
1.22351
1.26257
1.28075
1.28958
1.29752
1.30784
1.32298
1.34418
1.36922
1.38998
1.39869
1.39998
1.40002
1.40001
1.40001
1.40001
1.40001
1.40001
1.40001
1.40001
1.40001
1.40001
1.40001
0.163844
0.163623
0.163376
0.163128
0.162879
0.162633
0.162377
0.162145
0.161907
0.161682
0.161497
0.161325
0.161172
0.161053
0.160994
0.160969
0.16094
0.160853
0.160696
0.160522
0.160435
0.160455
0.16052
0.160598
0.160771
0.160881
0.160895
0.160874
0.160764
0.160536
0.160133
0.159743
0.158714
0.156829
0.154962
0.153249
0.15188
0.165728
0.204592
0.277055
0.374865
0.457322
0.524276
0.542785
0.551491
0.562614
0.571283
0.583287
0.596298
0.603592
0.614145
0.628982
0.645256
0.659943
0.674144
0.686592
0.698099
0.713295
0.735747
0.762889
0.789963
0.815905
0.840484
0.864674
0.888872
0.911714
0.932661
0.953424
0.979093
1.01294
1.04973
1.07997
1.10597
1.12888
1.15026
1.17288
1.20087
1.23506
1.26251
1.2737
1.28009
1.28754
1.29902
1.31658
1.34066
1.36839
1.3903
1.3988
1.39997
1.40001
1.40001
1.40001
1.40001
1.40001
1.40001
1.40001
1.40001
1.40001
1.40001
1.40001
0.161516
0.161384
0.16125
0.161136
0.16105
0.160969
0.1609
0.160844
0.160776
0.16073
0.160711
0.160715
0.1607
0.160724
0.160835
0.160922
0.160943
0.160941
0.160861
0.160691
0.160731
0.160912
0.161037
0.161098
0.161156
0.161342
0.16145
0.161437
0.160833
0.159449
0.157837
0.15611
0.154356
0.152745
0.151372
0.150359
0.149328
0.148675
0.148413
0.148623
0.15054
0.169233
0.216421
0.286586
0.354708
0.422217
0.480418
0.516452
0.54792
0.571222
0.586309
0.609925
0.64265
0.671366
0.696485
0.720735
0.742394
0.764795
0.791369
0.819521
0.844494
0.865215
0.881717
0.8964
0.911726
0.928622
0.947175
0.969603
0.996591
1.02396
1.04768
1.07087
1.09491
1.11905
1.14506
1.17311
1.20268
1.23137
1.25154
1.26434
1.27382
1.28179
1.29281
1.31057
1.33585
1.3666
1.39038
1.39891
1.39998
1.40001
1.40001
1.40001
1.40001
1.40001
1.40001
1.40001
1.40001
1.40001
1.40001
1.40001
0.160311
0.160365
0.160432
0.160505
0.16057
0.16064
0.160704
0.160743
0.160773
0.160832
0.160932
0.161081
0.16125
0.161474
0.161626
0.161637
0.16158
0.161515
0.161445
0.161235
0.161272
0.161566
0.161627
0.161649
0.161356
0.160272
0.158752
0.157112
0.155435
0.153781
0.152499
0.151764
0.15123
0.150572
0.150278
0.150207
0.150457
0.150895
0.151995
0.153584
0.155748
0.158058
0.160296
0.162336
0.164004
0.17603
0.205634
0.246258
0.294898
0.352924
0.408256
0.457924
0.514366
0.567745
0.612962
0.654475
0.691743
0.724066
0.755884
0.788949
0.819082
0.843486
0.863677
0.88247
0.90209
0.92383
0.947708
0.975437
1.00208
1.02205
1.0374
1.05488
1.07712
1.10523
1.13724
1.16992
1.20015
1.22225
1.23582
1.24789
1.2593
1.27049
1.28442
1.30475
1.33457
1.3679
1.39128
1.3991
1.39998
1.40001
1.40001
1.40001
1.40001
1.40001
1.40001
1.40001
1.40001
1.40001
1.40001
1.40001
0.1619
0.161962
0.162006
0.162003
0.161992
0.161958
0.161926
0.161927
0.161962
0.161981
0.162017
0.162161
0.162218
0.162205
0.162158
0.162045
0.161924
0.161677
0.161356
0.160962
0.160181
0.158706
0.156938
0.155458
0.154298
0.153389
0.152592
0.151771
0.151123
0.150559
0.150441
0.15053
0.150705
0.15101
0.151546
0.152345
0.153308
0.154683
0.156674
0.158921
0.161439
0.164032
0.166603
0.169443
0.172876
0.176815
0.181597
0.186292
0.191086
0.196322
0.202164
0.211189
0.226954
0.253778
0.287581
0.329507
0.380509
0.437039
0.498167
0.563723
0.630348
0.69116
0.746659
0.797637
0.843757
0.884589
0.920422
0.953155
0.982685
1.00574
1.02415
1.04448
1.07232
1.10358
1.1327
1.16039
1.18649
1.20778
1.22266
1.2327
1.24247
1.25518
1.27261
1.29778
1.33118
1.36842
1.39246
1.39934
1.39999
1.40001
1.40001
1.40001
1.40001
1.40001
1.40001
1.40001
1.40001
1.40001
1.40001
1.40001
0.162413
0.162326
0.162239
0.16214
0.162021
0.161883
0.161719
0.161501
0.161203
0.160797
0.160247
0.159529
0.158651
0.157685
0.15668
0.155605
0.154504
0.153465
0.152512
0.151628
0.150875
0.15035
0.150113
0.150156
0.150309
0.150373
0.150363
0.150237
0.150101
0.150137
0.150481
0.151333
0.151535
0.151556
0.152368
0.154343
0.156971
0.159993
0.1623
0.164722
0.167048
0.170274
0.174478
0.179205
0.184163
0.189669
0.195569
0.20157
0.207792
0.214079
0.220429
0.226839
0.234105
0.241585
0.248524
0.255197
0.262239
0.269693
0.277874
0.291965
0.315444
0.35099
0.398364
0.457392
0.528149
0.605961
0.685808
0.757845
0.823482
0.887725
0.949513
1.00439
1.04724
1.08141
1.10934
1.13329
1.15498
1.17526
1.19346
1.20893
1.22325
1.23935
1.26076
1.29071
1.33141
1.37149
1.39424
1.3996
1.4
1.40001
1.40001
1.40001
1.40001
1.40001
1.40001
1.40001
1.40001
1.40001
1.40001
1.40001
0.157163
0.156609
0.156028
0.15543
0.154825
0.154228
0.153636
0.15305
0.152482
0.151944
0.15144
0.150971
0.150552
0.150179
0.149841
0.149618
0.149461
0.149272
0.149281
0.149221
0.149051
0.148992
0.149041
0.149265
0.149718
0.150003
0.150143
0.150442
0.150855
0.151067
0.15131
0.15211
0.154339
0.158131
0.161819
0.16467
0.167119
0.16965
0.172965
0.177194
0.182856
0.188566
0.19302
0.19717
0.202003
0.207484
0.213194
0.218759
0.224387
0.230045
0.235994
0.241792
0.24796
0.25462
0.262113
0.270113
0.278445
0.287075
0.296114
0.306375
0.318255
0.330527
0.343556
0.357465
0.372201
0.391533
0.418771
0.455819
0.505584
0.568617
0.647153
0.740734
0.841079
0.933979
1.00518
1.05584
1.0932
1.12268
1.14769
1.1702
1.19144
1.2142
1.24169
1.28245
1.33419
1.3768
1.3963
1.39981
1.4
1.40001
1.40001
1.40001
1.40001
1.40001
1.40001
1.40001
1.40001
1.40001
1.40001
1.40001
0.148852
0.148777
0.148711
0.148647
0.148587
0.148537
0.148488
0.148453
0.148431
0.148421
0.148409
0.148413
0.148438
0.148493
0.148575
0.148709
0.148877
0.149066
0.149408
0.150055
0.150509
0.150722
0.150929
0.151282
0.151804
0.152688
0.154244
0.156529
0.159566
0.163407
0.16709
0.170404
0.173345
0.175914
0.178312
0.181313
0.185077
0.189358
0.194084
0.198937
0.202647
0.20574
0.209018
0.21346
0.218583
0.223461
0.22805
0.232949
0.238089
0.243737
0.24998
0.256833
0.2635
0.270069
0.27743
0.285767
0.295465
0.306504
0.318044
0.329564
0.342036
0.355277
0.3693
0.384039
0.399148
0.416753
0.435183
0.45626
0.478753
0.502585
0.530006
0.566339
0.618965
0.693176
0.788775
0.887922
0.972489
1.03374
1.07392
1.10475
1.13457
1.17526
1.22919
1.28812
1.34435
1.38403
1.39813
1.39994
1.4
1.40001
1.40001
1.40001
1.40001
1.40001
1.40001
1.40001
1.40001
1.40001
1.40001
1.40001
0.14972
0.149903
0.150103
0.150329
0.150585
0.150876
0.1512
0.151558
0.151954
0.152402
0.152915
0.153478
0.154099
0.15484
0.155661
0.156532
0.15742
0.158429
0.159628
0.161006
0.162637
0.164367
0.166373
0.168661
0.170996
0.173442
0.175684
0.177755
0.179846
0.181913
0.184027
0.186339
0.188905
0.191746
0.194948
0.198625
0.202177
0.205455
0.208434
0.21121
0.213892
0.217515
0.222294
0.22721
0.231526
0.235844
0.240776
0.246514
0.252473
0.25867
0.264978
0.272508
0.280701
0.289221
0.297959
0.307074
0.316838
0.327457
0.339367
0.351959
0.364549
0.37767
0.392413
0.408224
0.425415
0.443358
0.463744
0.485706
0.508714
0.533556
0.559002
0.586175
0.618686
0.659404
0.712042
0.778822
0.854917
0.937624
1.0105
1.06838
1.12356
1.17838
1.23747
1.30215
1.35953
1.39136
1.39933
1.39999
1.4
1.40001
1.40001
1.40001
1.40001
1.40001
1.40001
1.40001
1.40001
1.40001
1.40001
1.40001
0.158478
0.158906
0.159378
0.159881
0.160426
0.161006
0.161628
0.162302
0.163023
0.163804
0.164633
0.165534
0.166514
0.167531
0.16864
0.169819
0.171139
0.172553
0.173968
0.175447
0.176983
0.178574
0.180227
0.181798
0.183398
0.185034
0.186756
0.188799
0.191042
0.193424
0.19607
0.1989
0.201789
0.204753
0.207774
0.210502
0.212954
0.215792
0.218991
0.222879
0.227652
0.232724
0.237505
0.241754
0.246533
0.252305
0.258831
0.265194
0.271769
0.278564
0.286156
0.293916
0.302383
0.311678
0.321369
0.331564
0.342106
0.352713
0.363609
0.375694
0.388999
0.403165
0.417911
0.434033
0.452511
0.472327
0.494162
0.517366
0.542803
0.571531
0.602098
0.632796
0.663197
0.694918
0.732703
0.782641
0.846568
0.914074
0.985521
1.05665
1.12329
1.18953
1.25939
1.32771
1.37721
1.39681
1.39986
1.4
1.40001
1.40001
1.40001
1.40001
1.40001
1.40001
1.40001
1.40001
1.40001
1.40001
1.40001
1.40001
0.169339
0.169983
0.170679
0.171419
0.172208
0.173041
0.173931
0.17486
0.175854
0.176889
0.177995
0.17915
0.180361
0.181641
0.18298
0.184372
0.185833
0.187319
0.188908
0.190585
0.192302
0.19413
0.196057
0.1981
0.200328
0.202645
0.20513
0.207676
0.210234
0.213009
0.215816
0.218668
0.221697
0.22488
0.228147
0.231728
0.235847
0.240215
0.244755
0.249424
0.253988
0.258574
0.263246
0.268661
0.274768
0.281087
0.287261
0.293532
0.300376
0.308063
0.316105
0.324172
0.332349
0.340777
0.350066
0.360228
0.371073
0.382802
0.395182
0.408109
0.42209
0.437374
0.453894
0.471878
0.490745
0.511701
0.533633
0.557908
0.584205
0.612
0.643005
0.677874
0.715143
0.753162
0.790872
0.82976
0.87414
0.92814
0.992796
1.06629
1.14405
1.22271
1.29844
1.35971
1.39167
1.39936
1.39999
1.4
1.40001
1.40001
1.40001
1.40001
1.40001
1.40001
1.40001
1.40001
1.40001
1.40001
1.40001
1.40001
0.189469
0.190317
0.19122
0.192171
0.193158
0.194195
0.195263
0.196388
0.197544
0.198763
0.200021
0.201335
0.2027
0.204123
0.205596
0.207143
0.208741
0.21042
0.212175
0.213971
0.215888
0.217872
0.219918
0.222078
0.224281
0.226577
0.228986
0.231451
0.234118
0.236844
0.239685
0.242751
0.245898
0.2492
0.252722
0.256425
0.260174
0.263994
0.268027
0.272224
0.276676
0.281579
0.286968
0.292601
0.298262
0.304008
0.310048
0.316831
0.324083
0.331547
0.339116
0.347618
0.356847
0.366693
0.377036
0.387749
0.399122
0.41157
0.42528
0.439969
0.455356
0.471994
0.490333
0.509904
0.530901
0.553033
0.577564
0.603962
0.632246
0.662543
0.694433
0.728555
0.766316
0.808315
0.853975
0.902122
0.952507
1.0066
1.0665
1.13365
1.20723
1.28228
1.34718
1.38629
1.3985
1.39995
1.4
1.40001
1.40001
1.40001
1.40001
1.40001
1.40001
1.40001
1.40001
1.40001
1.40001
1.40001
1.40001
1.40001
0.211297
0.212126
0.21301
0.213934
0.2149
0.215904
0.216952
0.21804
0.219173
0.220352
0.221579
0.222857
0.224189
0.225577
0.22703
0.22854
0.230116
0.231764
0.233464
0.235262
0.237119
0.239067
0.24111
0.243233
0.245458
0.247806
0.250241
0.252815
0.255504
0.258296
0.261286
0.264367
0.267608
0.271046
0.274626
0.27835
0.282315
0.286588
0.291048
0.295816
0.300916
0.30619
0.311677
0.317407
0.323572
0.33021
0.337462
0.345061
0.352967
0.361169
0.37009
0.379397
0.3894
0.400094
0.411348
0.423561
0.436806
0.450677
0.465053
0.48055
0.497482
0.515494
0.534285
0.554477
0.576671
0.601172
0.627408
0.655485
0.685664
0.718286
0.753673
0.791691
0.832115
0.87505
0.92075
0.969509
1.02202
1.07962
1.14351
1.21304
1.28382
1.34552
1.38435
1.39794
1.39991
1.4
1.40001
1.40001
1.40001
1.40001
1.40001
1.40001
1.40001
1.40001
1.40001
1.40001
1.40001
1.40001
1.40001
1.40001
0.236296
0.237177
0.238119
0.239104
0.240137
0.241209
0.242333
0.243496
0.244715
0.245986
0.247317
0.248707
0.250157
0.251674
0.253259
0.254912
0.256647
0.258446
0.260349
0.262317
0.264401
0.26657
0.268848
0.271232
0.27373
0.276351
0.279087
0.281985
0.284989
0.288187
0.291522
0.295017
0.29873
0.302598
0.306674
0.311005
0.315561
0.32031
0.325356
0.330669
0.336218
0.342104
0.348351
0.355007
0.361988
0.369374
0.377102
0.385142
0.393587
0.40273
0.412408
0.422639
0.433257
0.444377
0.456354
0.469108
0.482506
0.496858
0.512427
0.529048
0.546602
0.565495
0.58628
0.608954
0.633262
0.659139
0.686976
0.717049
0.74947
0.784316
0.821805
0.862381
0.906486
0.954256
1.00542
1.05955
1.11649
1.17648
1.23922
1.30143
1.35432
1.38684
1.39818
1.39991
1.4
1.40001
1.40001
1.40001
1.40001
1.40001
1.40001
1.40001
1.40001
1.40001
1.40001
1.40001
1.40001
1.40001
1.40001
1.40001
0.265036
0.265985
0.266989
0.268051
0.269156
0.270317
0.271527
0.272787
0.274098
0.275472
0.276911
0.27841
0.279975
0.281607
0.283316
0.285111
0.286977
0.28894
0.290976
0.293124
0.295358
0.297704
0.300157
0.302727
0.305431
0.308248
0.311223
0.314314
0.317579
0.320998
0.324578
0.328362
0.332308
0.336466
0.340851
0.345442
0.35027
0.355375
0.360739
0.366389
0.372362
0.37866
0.385295
0.392248
0.39961
0.40736
0.415497
0.424145
0.433361
0.443002
0.45314
0.463897
0.475482
0.487961
0.501198
0.515227
0.530242
0.546298
0.563403
0.581771
0.601677
0.623159
0.646114
0.670632
0.697007
0.725476
0.756067
0.788792
0.823781
0.861257
0.901439
0.944505
0.990676
1.04024
1.09338
1.1499
1.20889
1.26825
1.32352
1.3669
1.39118
1.39887
1.39995
1.4
1.40001
1.40001
1.40001
1.40001
1.40001
1.40001
1.40001
1.40001
1.40001
1.40001
1.40001
1.40001
1.40001
1.40001
1.40001
1.40001
0.298993
0.300036
0.301145
0.302309
0.30353
0.304804
0.306143
0.307531
0.308975
0.310489
0.312075
0.313735
0.315463
0.317263
0.319155
0.321133
0.323204
0.325357
0.327619
0.329986
0.33247
0.335064
0.337778
0.340631
0.343613
0.346745
0.350012
0.353455
0.357071
0.36086
0.364844
0.369015
0.373411
0.378031
0.382878
0.387986
0.393366
0.399023
0.404984
0.411266
0.417885
0.424857
0.432194
0.439936
0.448075
0.456641
0.4657
0.475246
0.48528
0.495918
0.507242
0.519292
0.532074
0.545623
0.560057
0.575484
0.591961
0.609583
0.628486
0.648755
0.670436
0.693651
0.71861
0.745475
0.774303
0.805135
0.838097
0.873383
0.91119
0.951695
0.995037
1.04128
1.09037
1.14204
1.19566
1.24989
1.30201
1.34725
1.37938
1.39516
1.39946
1.39998
1.4
1.40001
1.40001
1.40001
1.40001
1.40001
1.40001
1.40001
1.40001
1.40001
1.40001
1.40001
1.40001
1.40001
1.40001
1.40001
1.40001
1.40001
0.339689
0.340855
0.342085
0.343379
0.344733
0.346152
0.34764
0.349185
0.350794
0.352472
0.354231
0.356078
0.357999
0.359999
0.362096
0.364299
0.366596
0.368997
0.371508
0.374134
0.376883
0.379759
0.382776
0.38594
0.389249
0.392705
0.39634
0.400156
0.404152
0.408347
0.41275
0.417376
0.422231
0.427328
0.432686
0.438317
0.444238
0.450469
0.457019
0.463911
0.471161
0.478791
0.486824
0.495266
0.504154
0.513529
0.523417
0.533873
0.544966
0.55674
0.569241
0.582531
0.596684
0.611777
0.627876
0.645058
0.663421
0.683066
0.704084
0.726582
0.750693
0.776541
0.804207
0.833763
0.86531
0.898973
0.934879
0.973137
1.01383
1.05698
1.10249
1.15008
1.19906
1.24818
1.29531
1.33722
1.36983
1.3898
1.39798
1.39981
1.4
1.4
1.40001
1.40001
1.40001
1.40001
1.40001
1.40001
1.40001
1.40001
1.40001
1.40001
1.40001
1.40001
1.40001
1.40001
1.40001
1.40001
1.40001
1.40001
0.388858
0.390159
0.391535
0.392981
0.394495
0.396082
0.397742
0.399476
0.401279
0.403152
0.405118
0.407185
0.409331
0.411567
0.413915
0.416372
0.418935
0.421604
0.424399
0.427342
0.430419
0.433631
0.436997
0.440515
0.444196
0.448065
0.452121
0.456365
0.460815
0.465487
0.470395
0.475545
0.480945
0.486614
0.492569
0.498824
0.505397
0.512306
0.519569
0.527202
0.535228
0.543671
0.552559
0.561924
0.571803
0.582238
0.593285
0.605004
0.617446
0.630672
0.644745
0.659729
0.675688
0.692692
0.710823
0.730168
0.750811
0.772842
0.796361
0.821473
0.848271
0.876833
0.907237
0.939557
0.973862
1.0102
1.04859
1.08896
1.13112
1.17463
1.21874
1.26222
1.30324
1.33939
1.36798
1.38695
1.3964
1.39943
1.39996
1.4
1.4
1.40001
1.40001
1.40001
1.40001
1.40001
1.40001
1.40001
1.40001
1.40001
1.40001
1.40001
1.40001
1.40001
1.40001
1.40001
1.40001
1.40001
1.40001
1.40001
0.448582
0.450038
0.451591
0.453224
0.454935
0.45672
0.458585
0.460534
0.462546
0.464645
0.466879
0.469212
0.471612
0.474123
0.476764
0.479521
0.482387
0.485386
0.488551
0.49185
0.495285
0.49889
0.502671
0.506623
0.510766
0.515107
0.519647
0.52441
0.529412
0.534655
0.540153
0.54593
0.551994
0.558345
0.565004
0.572002
0.579358
0.587086
0.595209
0.603753
0.612747
0.622222
0.632217
0.642779
0.653958
0.665806
0.678379
0.691738
0.705938
0.721038
0.737094
0.754168
0.772323
0.79163
0.812165
0.834003
0.857224
0.881908
0.90813
0.935951
0.965415
0.996548
1.02935
1.06379
1.09976
1.13708
1.1754
1.21414
1.25246
1.28917
1.32271
1.35137
1.37353
1.3883
1.39618
1.39918
1.3999
1.4
1.4
1.40001
1.40001
1.40001
1.40001
1.40001
1.40001
1.40001
1.40001
1.40001
1.40001
1.40001
1.40001
1.40001
1.40001
1.40001
1.40001
1.40001
1.40001
1.40001
1.40001
1.40001
0.521627
0.523278
0.525038
0.52689
0.528831
0.530857
0.532978
0.535179
0.537464
0.539876
0.542401
0.545
0.547737
0.550611
0.553593
0.556721
0.56
0.563415
0.566974
0.570709
0.574623
0.578709
0.582997
0.587499
0.592188
0.597099
0.602263
0.607667
0.613324
0.61928
0.625531
0.632073
0.638938
0.646153
0.653722
0.661663
0.670017
0.678817
0.688084
0.697849
0.708156
0.719049
0.730572
0.742772
0.755702
0.769415
0.783962
0.799392
0.815755
0.8331
0.851477
0.870937
0.891535
0.913323
0.936352
0.960668
0.986307
1.01329
1.0416
1.07119
1.10197
1.13379
1.16642
1.19951
1.23258
1.26494
1.29575
1.32399
1.34854
1.36843
1.38303
1.39238
1.39733
1.39933
1.39989
1.39999
1.4
1.40001
1.40001
1.40001
1.40001
1.40001
1.40001
1.40001
1.40001
1.40001
1.40001
1.40001
1.40001
1.40001
1.40001
1.40001
1.40001
1.40001
1.40001
1.40001
1.40001
1.40001
1.40001
1.40001
0.61198
0.613892
0.615936
0.618071
0.620294
0.622609
0.625024
0.627555
0.630247
0.632979
0.635948
0.638956
0.642034
0.645355
0.64885
0.652426
0.656174
0.660138
0.664236
0.668505
0.673052
0.677798
0.682712
0.687892
0.693325
0.698967
0.704898
0.711174
0.717719
0.724542
0.731742
0.739334
0.747278
0.755607
0.764382
0.773624
0.783351
0.793604
0.804425
0.815846
0.827904
0.840644
0.854105
0.868322
0.883331
0.899168
0.91587
0.933469
0.951994
0.971471
0.991923
1.01337
1.0358
1.05922
1.08359
1.10884
1.1349
1.1616
1.18874
1.21607
1.24323
1.26978
1.2952
1.31888
1.34019
1.35849
1.37332
1.38444
1.392
1.3965
1.39876
1.39966
1.39994
1.4
1.4
1.4
1.40001
1.40001
1.40001
1.40001
1.40001
1.40001
1.40001
1.40001
1.40001
1.40001
1.40001
1.40001
1.40001
1.40001
1.40001
1.40001
1.40001
1.40001
1.40001
1.40001
1.40001
1.40001
1.40001
1.40001
0.725928
0.728099
0.730449
0.733001
0.735653
0.738417
0.741313
0.74421
0.747296
0.750551
0.753917
0.757472
0.761294
0.765086
0.769056
0.773366
0.77778
0.782357
0.787258
0.792302
0.797522
0.803088
0.808898
0.814913
0.821295
0.827991
0.834895
0.84215
0.84987
0.857947
0.866346
0.875183
0.884513
0.894305
0.904567
0.915355
0.926704
0.938627
0.951147
0.964286
0.978065
0.992503
1.00762
1.02341
1.03989
1.05706
1.0749
1.09341
1.11255
1.13229
1.15255
1.17327
1.19432
1.21557
1.23684
1.2579
1.27851
1.29837
1.31714
1.3345
1.35009
1.36362
1.37487
1.38373
1.39026
1.39471
1.39745
1.39893
1.39963
1.3999
1.39998
1.4
1.4
1.4
1.40001
1.40001
1.40001
1.40001
1.40001
1.40001
1.40001
1.40001
1.40001
1.40001
1.40001
1.40001
1.40001
1.40001
1.40001
1.40001
1.40001
1.40001
1.40001
1.40001
1.40001
1.40001
1.40001
1.40001
1.40001
1.40001
0.872091
0.874855
0.877656
0.880462
0.883503
0.8867
0.890028
0.89377
0.8974
0.901134
0.905169
0.909213
0.913467
0.918179
0.922914
0.927736
0.932866
0.938249
0.943917
0.949807
0.955856
0.962238
0.969008
0.975966
0.983172
0.990823
0.998834
1.0071
1.01573
1.02483
1.03431
1.04414
1.05439
1.06509
1.07622
1.08777
1.09975
1.11216
1.125
1.13824
1.15186
1.16584
1.18015
1.19475
1.20959
1.2246
1.23971
1.25483
1.26985
1.28467
1.29914
1.31312
1.32644
1.33895
1.35049
1.3609
1.37006
1.37788
1.38432
1.38942
1.39326
1.39598
1.39779
1.39889
1.3995
1.3998
1.39993
1.39998
1.4
1.4
1.4
1.40001
1.40001
1.40001
1.40001
1.40001
1.40001
1.40001
1.40001
1.40001
1.40001
1.40001
1.40001
1.40001
1.40001
1.40001
1.40001
1.40001
1.40001
1.40001
1.40001
1.40001
1.40001
1.40001
1.40001
1.40001
1.40001
1.40001
1.40001
1.40001
1.05455
1.05747
1.06071
1.06391
1.06721
1.07062
1.07414
1.07796
1.08207
1.08608
1.09037
1.0948
1.09924
1.10397
1.10907
1.11423
1.11942
1.12486
1.13068
1.13672
1.1428
1.14909
1.15577
1.16266
1.16965
1.17687
1.18439
1.19212
1.20002
1.20815
1.2165
1.22502
1.2337
1.24253
1.2515
1.26057
1.26971
1.27889
1.28808
1.29723
1.30629
1.31522
1.32396
1.33245
1.34064
1.34846
1.35584
1.36273
1.36906
1.37481
1.37992
1.38437
1.38816
1.3913
1.39382
1.39579
1.39725
1.39829
1.399
1.39945
1.39972
1.39987
1.39995
1.39998
1.4
1.4
1.4
1.4
1.40001
1.40001
1.40001
1.40001
1.40001
1.40001
1.40001
1.40001
1.40001
1.40001
1.40001
1.40001
1.40001
1.40001
1.40001
1.40001
1.40001
1.40001
1.40001
1.40001
1.40001
1.40001
1.40001
1.40001
1.40001
1.40001
1.40001
1.40001
1.40001
1.40001
1.40001
1.40001
1.24457
1.24691
1.24947
1.25207
1.25466
1.25735
1.2601
1.26294
1.26598
1.26917
1.27234
1.27549
1.27876
1.2822
1.28577
1.28936
1.29295
1.29662
1.30047
1.3044
1.30831
1.31226
1.31632
1.32044
1.32455
1.32867
1.33282
1.33698
1.34111
1.34521
1.34928
1.35328
1.35721
1.36105
1.36477
1.36837
1.37182
1.3751
1.37821
1.38113
1.38383
1.38632
1.38858
1.3906
1.39239
1.39395
1.39528
1.3964
1.39732
1.39805
1.39863
1.39906
1.39938
1.39961
1.39976
1.39986
1.39993
1.39996
1.39998
1.4
1.4
1.4
1.4
1.4
1.4
1.40001
1.40001
1.40001
1.40001
1.40001
1.40001
1.40001
1.40001
1.40001
1.40001
1.40001
1.40001
1.40001
1.40001
1.40001
1.40001
1.40001
1.40001
1.40001
1.40001
1.40001
1.40001
1.40001
1.40001
1.40001
1.40001
1.40001
1.40001
1.40001
1.40001
1.40001
1.40001
1.40001
1.40001
1.40001
1.36547
1.36636
1.36731
1.3683
1.36928
1.37026
1.37125
1.37225
1.3733
1.3744
1.37545
1.37647
1.37752
1.37862
1.3797
1.38076
1.38181
1.38286
1.38392
1.38496
1.38597
1.38697
1.38796
1.38892
1.38984
1.39074
1.3916
1.39243
1.39321
1.39396
1.39466
1.39532
1.39593
1.39649
1.397
1.39746
1.39788
1.39825
1.39857
1.39885
1.39909
1.39929
1.39946
1.39959
1.3997
1.39978
1.39985
1.3999
1.39993
1.39996
1.39997
1.39999
1.39999
1.4
1.4
1.4
1.4
1.4
1.4
1.4
1.40001
1.40001
1.40001
1.40001
1.40001
1.40001
1.40001
1.40001
1.40001
1.40001
1.40001
1.40001
1.40001
1.40001
1.40001
1.40001
1.40001
1.40001
1.40001
1.40001
1.40001
1.40001
1.40001
1.40001
1.40001
1.40001
1.40001
1.40001
1.40001
1.40001
1.40001
1.40001
1.40001
1.40001
1.40001
1.40001
1.40001
1.40001
1.40001
1.40001
1.39736
1.39747
1.39759
1.3977
1.39781
1.39792
1.39802
1.39812
1.39824
1.39835
1.39845
1.39854
1.39864
1.39874
1.39883
1.39892
1.39901
1.3991
1.39918
1.39925
1.39933
1.3994
1.39946
1.39952
1.39958
1.39963
1.39968
1.39972
1.39976
1.3998
1.39983
1.39986
1.39989
1.39991
1.39993
1.39994
1.39995
1.39997
1.39997
1.39998
1.39999
1.39999
1.4
1.4
1.4
1.4
1.4
1.4
1.4
1.4
1.4
1.4
1.4
1.4
1.40001
1.40001
1.40001
1.40001
1.40001
1.40001
1.40001
1.40001
1.40001
1.40001
1.40001
1.40001
1.40001
1.40001
1.40001
1.40001
1.40001
1.40001
1.40001
1.40001
1.40001
1.40001
1.40001
1.40001
1.40001
1.40001
1.40001
1.40001
1.40001
1.40001
1.40001
1.40001
1.40001
1.40001
1.40001
1.40001
1.40001
1.40001
1.40001
1.40001
1.40001
1.40001
1.40001
1.40001
1.40001
1.40001
1.39994
1.39995
1.39995
1.39995
1.39996
1.39996
1.39996
1.39997
1.39997
1.39997
1.39997
1.39998
1.39998
1.39998
1.39998
1.39999
1.39999
1.39999
1.39999
1.39999
1.39999
1.4
1.4
1.4
1.4
1.4
1.4
1.4
1.4
1.4
1.4
1.4
1.4
1.4
1.4
1.4
1.4
1.4
1.4
1.4
1.4
1.4
1.4
1.4
1.40001
1.40001
1.40001
1.40001
1.40001
1.40001
1.40001
1.40001
1.40001
1.40001
1.40001
1.40001
1.40001
1.40001
1.40001
1.40001
1.40001
1.40001
1.40001
1.40001
1.40001
1.40001
1.40001
1.40001
1.40001
1.40001
1.40001
1.40001
1.40001
1.40001
1.40001
1.40001
1.40001
1.40001
1.40001
1.40001
1.40001
1.40001
1.40001
1.40001
1.40001
1.40001