/*--------------------------------*- C++ -*----------------------------------*\
  =========                 |
  \\      /  F ield         | OpenFOAM: The Open Source CFD Toolbox
   \\    /   O peration     | Website:  https://openfoam.org
    \\  /    A nd           | Version:  7
     \\/     M anipulation  |
\*---------------------------------------------------------------------------*/
FoamFile
{
    version     2.0;
    format      ascii;
    class       volScalarField;
    location    "0.5";
    object      T;
}
// * * * * * * * * * * * * * * * * * * * * * * * * * * * * * * * * * * * * * //

dimensions      [0 0 0 1 0 0 0];

internalField   nonuniform List<scalar> 
60000
(
0.642519
0.767508
0.898755
1.03385
1.0293
1.03533
1.11014
1.16034
1.17665
1.20654
1.24587
1.27485
1.29373
1.30846
1.31781
1.31356
1.29852
1.28035
1.26392
1.25358
1.23878
1.23373
1.23598
1.22939
1.21927
1.22131
1.22683
1.23356
1.24012
1.24671
1.25083
1.24882
1.245
1.23633
1.22195
1.20451
1.18762
1.1736
1.162
1.15199
1.14207
1.13137
1.11515
1.09608
1.07801
1.06072
1.04573
1.03278
1.02062
1.00782
0.993958
0.983067
0.976039
0.970977
0.967603
0.96597
0.963802
0.962025
0.96255
0.96521
0.970815
0.97978
0.985213
0.99011
0.993015
0.996784
1.00064
1.00431
1.00915
1.01845
1.03307
1.05207
1.07216
1.07415
1.06702
1.05699
1.05727
1.06041
1.05283
1.02657
0.994797
0.982204
0.981939
0.983792
0.988458
0.994365
0.998584
0.999966
1.00007
1.00004
1.00001
1
1
1
1
1
1
1
1
1
0.418886
0.418424
0.417988
0.417519
0.417164
0.416561
0.422804
0.44633
0.496826
0.582892
0.691075
0.816896
0.943116
1.06014
1.15445
1.23779
1.29238
1.34019
1.38306
1.41735
1.41888
1.41338
1.39585
1.37743
1.36498
1.35303
1.33949
1.33903
1.33825
1.33775
1.33664
1.3379
1.33697
1.33242
1.32444
1.31553
1.30708
1.29887
1.28882
1.27635
1.26094
1.24175
1.22056
1.20114
1.18267
1.16538
1.14915
1.1333
1.11679
1.10068
1.0869
1.07671
1.06856
1.05937
1.05
1.04234
1.03682
1.03398
1.03045
1.02626
1.02749
1.03073
1.03365
1.03927
1.04455
1.04816
1.05048
1.0543
1.06036
1.07384
1.08922
1.10519
1.11731
1.11333
1.09962
1.08255
1.07409
1.06962
1.05512
1.02421
0.991942
0.980914
0.980887
0.982964
0.987882
0.99398
0.998383
0.999907
1.00005
1.00003
1.00001
1
1
1
1
1
1
1
1
1
0.416346
0.415971
0.415532
0.415094
0.414646
0.414264
0.413795
0.413583
0.41362
0.413394
0.413143
0.412932
0.412837
0.416082
0.45057
0.554479
0.724599
0.902144
1.06125
1.18512
1.27179
1.34048
1.38734
1.42496
1.42223
1.41699
1.42643
1.41743
1.40149
1.3856
1.37472
1.36659
1.35718
1.35448
1.35764
1.3602
1.36072
1.35883
1.35197
1.34062
1.32671
1.31047
1.29603
1.28434
1.27287
1.26304
1.25393
1.24367
1.23114
1.21895
1.21125
1.20486
1.19685
1.18672
1.17503
1.16371
1.15488
1.14875
1.14288
1.13317
1.12923
1.13026
1.13255
1.13658
1.14033
1.14338
1.14344
1.14206
1.14237
1.14776
1.15764
1.15768
1.14938
1.13619
1.11906
1.10166
1.08984
1.07805
1.05562
1.01967
0.988009
0.97947
0.979676
0.982057
0.987288
0.993594
0.998183
0.99985
1.00004
1.00003
1.00001
1
1
1
1
1
1
1
1
1
0.41373
0.413444
0.413168
0.412941
0.412768
0.412649
0.412524
0.412497
0.412431
0.412432
0.412469
0.412548
0.412775
0.413102
0.413424
0.413903
0.414404
0.415015
0.416036
0.466417
0.60421
0.80295
1.01512
1.19071
1.32621
1.42406
1.47513
1.4502
1.42111
1.40428
1.39327
1.3761
1.36328
1.36939
1.37617
1.38379
1.38356
1.37935
1.36876
1.35715
1.34586
1.33521
1.32699
1.32145
1.31564
1.31097
1.30922
1.30763
1.30413
1.30324
1.30447
1.3048
1.30446
1.30304
1.29937
1.29448
1.29115
1.288
1.28221
1.27355
1.26702
1.25897
1.25118
1.24435
1.23698
1.22887
1.22
1.21045
1.2024
1.19895
1.19531
1.17941
1.15144
1.13001
1.11453
1.10235
1.09293
1.0789
1.05264
1.01263
0.983695
0.97801
0.978416
0.981129
0.986686
0.993193
0.997982
0.999795
1.00003
1.00002
1.00001
1
1
1
1
1
1
1
1
1
0.41209
0.412103
0.412115
0.412143
0.412223
0.412333
0.412466
0.412651
0.413009
0.413532
0.414085
0.414689
0.415479
0.416372
0.417289
0.41834
0.419512
0.420726
0.422048
0.422757
0.4234
0.424235
0.424768
0.467689
0.662778
0.949425
1.20892
1.3226
1.38189
1.40756
1.39765
1.3768
1.37163
1.38385
1.38142
1.38388
1.38257
1.37763
1.37066
1.36352
1.35722
1.35323
1.34778
1.34308
1.33828
1.33725
1.33906
1.34312
1.34695
1.35131
1.35563
1.35768
1.36031
1.36371
1.36469
1.36404
1.36171
1.35626
1.34774
1.33814
1.32618
1.31164
1.29791
1.28438
1.27074
1.25719
1.24358
1.22955
1.21591
1.20367
1.18822
1.15657
1.11354
1.0876
1.08186
1.08133
1.07931
1.06903
1.04121
1.00284
0.979718
0.976475
0.977114
0.980234
0.986078
0.992769
0.997779
0.999744
1.00001
1.00001
1.00001
1
1
1
1
1
1
1
1
1
0.413397
0.413703
0.413999
0.414372
0.414865
0.4154
0.415947
0.416622
0.417368
0.418118
0.41891
0.419779
0.420691
0.421606
0.422533
0.423438
0.424252
0.424913
0.425466
0.425861
0.426206
0.426511
0.426616
0.426741
0.427023
0.427206
0.467477
0.644905
0.898103
1.11173
1.22776
1.30933
1.3667
1.39359
1.38629
1.38341
1.37825
1.36997
1.36528
1.35999
1.3554
1.35823
1.35917
1.35917
1.35776
1.35433
1.35395
1.35703
1.36073
1.36435
1.36502
1.36289
1.36011
1.35911
1.35689
1.35225
1.34477
1.33351
1.32015
1.30652
1.29334
1.28142
1.27032
1.25819
1.24446
1.23013
1.21679
1.20461
1.19179
1.17353
1.14159
1.09441
1.04502
1.02834
1.03064
1.03992
1.0493
1.04513
1.02387
0.992016
0.97604
0.974779
0.975826
0.979421
0.985467
0.992329
0.997584
0.9997
1.00001
1.00001
1
1
1
1
1
1
1
1
1
1
0.417247
0.417848
0.418477
0.419172
0.419906
0.420652
0.421405
0.422167
0.422882
0.423521
0.424081
0.424566
0.424989
0.425328
0.4256
0.425894
0.42614
0.42636
0.426573
0.426742
0.426892
0.426987
0.426986
0.426989
0.426964
0.426889
0.426873
0.426953
0.427194
0.446054
0.566945
0.786094
1.00132
1.14001
1.22646
1.28275
1.31882
1.32963
1.33551
1.33642
1.33792
1.34561
1.34959
1.35041
1.34841
1.34174
1.33592
1.33628
1.3367
1.33682
1.33448
1.3273
1.31728
1.31198
1.31031
1.30789
1.30191
1.28995
1.27209
1.25367
1.23884
1.22775
1.21638
1.20162
1.18414
1.16661
1.15148
1.13914
1.12589
1.10424
1.06823
1.0201
0.981502
0.974056
0.976922
0.986267
1.00089
1.0046
0.996815
0.979924
0.972372
0.972562
0.974464
0.978627
0.984818
0.991893
0.99742
0.999668
0.999998
1.00001
1
1
1
1
1
1
1
1
1
1
0.423321
0.423738
0.42414
0.424516
0.424851
0.425158
0.425414
0.425642
0.425827
0.425969
0.426093
0.426166
0.426252
0.426324
0.426393
0.426498
0.426613
0.426682
0.426745
0.426807
0.426778
0.426755
0.426741
0.426749
0.426734
0.426641
0.426534
0.42654
0.426598
0.426499
0.426107
0.425677
0.425048
0.486527
0.649736
0.838634
0.999252
1.11322
1.19307
1.26351
1.29433
1.31866
1.32032
1.32234
1.32516
1.3206
1.30998
1.30879
1.3064
1.3016
1.29555
1.28359
1.26557
1.25066
1.24178
1.2344
1.22416
1.20828
1.18829
1.16905
1.15478
1.14504
1.1356
1.12336
1.10778
1.09057
1.07481
1.06162
1.04811
1.03011
1.00494
0.974927
0.95393
0.949053
0.9497
0.953546
0.963782
0.973332
0.973238
0.969615
0.968603
0.969748
0.972807
0.977664
0.984123
0.991376
0.997207
0.999633
0.999993
1
1
1
1
1
1
1
1
1
1
1
0.426264
0.426342
0.426394
0.42644
0.426477
0.42651
0.426514
0.426529
0.426523
0.426522
0.426533
0.426533
0.426539
0.426548
0.426566
0.426606
0.426618
0.426587
0.426514
0.426418
0.426384
0.426415
0.426487
0.426574
0.426703
0.426692
0.426607
0.426462
0.426246
0.425792
0.42507
0.42439
0.423063
0.420651
0.418454
0.415859
0.417641
0.48989
0.649716
0.852942
1.00146
1.09881
1.17313
1.21786
1.24143
1.25238
1.24972
1.24864
1.24883
1.24633
1.23947
1.22475
1.20517
1.18759
1.17601
1.16635
1.15437
1.13898
1.12193
1.10569
1.09235
1.08185
1.07141
1.05894
1.04402
1.02822
1.01411
1.00279
0.993391
0.983837
0.971119
0.955759
0.943842
0.939451
0.93957
0.941443
0.947154
0.955732
0.96139
0.963358
0.964964
0.96722
0.970825
0.976121
0.983152
0.99111
0.997288
0.999662
0.999992
1
1
1
1
1
1
1
1
1
1
1
0.426632
0.426632
0.426619
0.426619
0.426627
0.426626
0.42662
0.426609
0.426571
0.426541
0.426534
0.426543
0.426534
0.426562
0.426674
0.426757
0.426754
0.426717
0.426576
0.426391
0.426442
0.426583
0.426614
0.426671
0.426835
0.426897
0.426809
0.426503
0.425345
0.423548
0.421658
0.419627
0.417558
0.415694
0.414129
0.412841
0.411762
0.411046
0.41042
0.410494
0.417865
0.494168
0.652513
0.824234
0.920455
0.991815
1.04859
1.07206
1.0896
1.10608
1.10468
1.10103
1.0982
1.09412
1.09109
1.08943
1.08637
1.08109
1.07404
1.06566
1.05644
1.04661
1.0354
1.02268
1.00933
0.996788
0.986249
0.978447
0.972046
0.964441
0.954604
0.945073
0.93835
0.935736
0.936347
0.938611
0.942962
0.949257
0.955322
0.960039
0.963306
0.96583
0.969162
0.974396
0.981755
0.990593
0.997313
0.999694
0.999992
1
1
1
1
1
1
1
1
1
1
1
0.426319
0.426375
0.426434
0.426493
0.42653
0.426576
0.426621
0.426628
0.426636
0.426671
0.426755
0.426879
0.427018
0.427214
0.42721
0.427147
0.426992
0.426869
0.426729
0.426497
0.426547
0.426705
0.426608
0.426415
0.425675
0.424169
0.422409
0.420579
0.418692
0.416828
0.415349
0.414354
0.413624
0.412955
0.412707
0.412321
0.412356
0.412498
0.413314
0.414767
0.416489
0.419136
0.421615
0.423768
0.425668
0.461597
0.551408
0.643464
0.720441
0.792129
0.839727
0.866733
0.896987
0.927983
0.948848
0.963938
0.975908
0.983534
0.988114
0.991901
0.993779
0.992211
0.988199
0.982542
0.976647
0.971629
0.967674
0.964705
0.960326
0.952701
0.943742
0.936843
0.933452
0.933972
0.935965
0.939221
0.943693
0.948115
0.951831
0.955677
0.959197
0.9625
0.96661
0.97264
0.98141
0.990994
0.997568
0.999746
0.999994
1
1
1
1
1
1
1
1
1
1
1
0.427624
0.427659
0.427657
0.427646
0.427635
0.427602
0.427581
0.427583
0.427617
0.427618
0.427641
0.427713
0.427669
0.427558
0.427379
0.427122
0.426845
0.426387
0.425808
0.425073
0.423868
0.422064
0.420135
0.418565
0.417258
0.416138
0.415137
0.414166
0.413422
0.412738
0.412571
0.412666
0.412783
0.412916
0.413213
0.413747
0.414511
0.41586
0.417888
0.420174
0.422725
0.425292
0.427819
0.430611
0.434114
0.437456
0.441945
0.446527
0.451264
0.456323
0.462373
0.477286
0.507368
0.553162
0.603518
0.654299
0.704743
0.748821
0.784857
0.818231
0.851092
0.878333
0.899716
0.916511
0.929264
0.938157
0.943226
0.944568
0.943139
0.939387
0.93435
0.931757
0.932798
0.934785
0.936642
0.939086
0.942658
0.946432
0.949415
0.951633
0.954153
0.957798
0.963018
0.970591
0.980459
0.99117
0.997905
0.999815
0.999996
1
1
1
1
1
1
1
1
1
1
1
0.427463
0.427327
0.427176
0.426995
0.426774
0.426518
0.42622
0.425853
0.425391
0.424807
0.424066
0.423157
0.422096
0.420963
0.419813
0.418601
0.417344
0.416134
0.415014
0.413987
0.413144
0.412573
0.412176
0.41214
0.412173
0.412157
0.412064
0.411875
0.411761
0.411774
0.411993
0.412664
0.412554
0.412343
0.413002
0.415049
0.417925
0.421145
0.423498
0.425843
0.428099
0.431194
0.43526
0.439897
0.444705
0.450012
0.455615
0.461138
0.466707
0.472223
0.477733
0.483141
0.4883
0.494612
0.500483
0.506074
0.511896
0.517983
0.524618
0.540248
0.56824
0.606546
0.651525
0.698853
0.744736
0.786102
0.821712
0.848323
0.868234
0.88626
0.902341
0.915297
0.92314
0.927236
0.929758
0.932035
0.934637
0.937739
0.941093
0.944507
0.948275
0.952997
0.959508
0.968565
0.980588
0.992059
0.9984
0.999887
0.999998
1
1
1
1
1
1
1
1
1
1
1
0.420805
0.420149
0.419457
0.418744
0.41802
0.417301
0.416587
0.415877
0.415185
0.414521
0.413889
0.413302
0.412775
0.412296
0.411855
0.411536
0.411269
0.410972
0.411011
0.410992
0.410855
0.410728
0.410745
0.410885
0.411233
0.411552
0.411528
0.411399
0.411265
0.411306
0.411531
0.412351
0.41474
0.418894
0.422826
0.425746
0.428142
0.430563
0.433787
0.437885
0.443363
0.448791
0.452963
0.456819
0.461276
0.466241
0.471289
0.476152
0.480988
0.485788
0.490774
0.495635
0.500761
0.506191
0.512209
0.518499
0.524959
0.531591
0.538454
0.545933
0.55375
0.562639
0.572012
0.58162
0.591271
0.60484
0.625578
0.652
0.683858
0.720234
0.760136
0.800887
0.83896
0.869816
0.890748
0.903968
0.912983
0.920028
0.926322
0.932401
0.938488
0.94533
0.953777
0.966167
0.981432
0.993551
0.99897
0.999946
0.999999
1
1
1
1
1
1
1
1
1
1
1
0.410955
0.410857
0.410765
0.410672
0.410578
0.410493
0.410407
0.410333
0.410267
0.410208
0.410128
0.410081
0.410081
0.410092
0.410121
0.410193
0.410308
0.410474
0.410799
0.411221
0.411221
0.411152
0.411207
0.411511
0.412112
0.413131
0.414867
0.41734
0.420531
0.424429
0.428086
0.431391
0.434293
0.436764
0.439049
0.441899
0.445485
0.449512
0.453894
0.45835
0.4617
0.464478
0.467443
0.471403
0.475873
0.480076
0.483983
0.488131
0.492426
0.497109
0.502169
0.507701
0.512998
0.518153
0.523871
0.530265
0.537567
0.545708
0.554095
0.562311
0.571058
0.580126
0.589504
0.599022
0.608366
0.618735
0.628766
0.639651
0.65149
0.663906
0.678036
0.697033
0.724147
0.760579
0.802371
0.840521
0.869891
0.889605
0.901936
0.911323
0.920488
0.933189
0.949973
0.967873
0.984346
0.995563
0.999476
0.999981
1
1
1
1
1
1
1
1
1
1
1
1
0.411006
0.411134
0.411278
0.41145
0.411654
0.411896
0.412175
0.412492
0.412852
0.413269
0.413761
0.414304
0.414909
0.415644
0.416464
0.41734
0.418225
0.419234
0.420437
0.421855
0.423566
0.425376
0.427452
0.429746
0.432032
0.434391
0.436525
0.438505
0.440498
0.442475
0.444476
0.446639
0.449043
0.45167
0.454642
0.458026
0.46124
0.464205
0.466869
0.469311
0.471689
0.474857
0.479012
0.483207
0.486846
0.490473
0.494579
0.499274
0.504109
0.509076
0.514095
0.519952
0.526244
0.532706
0.539213
0.545912
0.55299
0.560558
0.568877
0.577549
0.586049
0.594697
0.604116
0.613814
0.623985
0.633974
0.644953
0.656263
0.667745
0.68007
0.6925
0.705499
0.72068
0.739342
0.762803
0.791446
0.82202
0.853032
0.878725
0.898315
0.916524
0.934115
0.952548
0.972044
0.988667
0.997598
0.999811
0.999996
1
1
1
1
1
1
1
1
1
1
1
1
0.419136
0.419577
0.420065
0.420586
0.421149
0.421749
0.422391
0.423085
0.423824
0.424623
0.425467
0.426381
0.427372
0.428393
0.429503
0.430675
0.431986
0.433377
0.434765
0.436201
0.437682
0.439209
0.440779
0.442271
0.443787
0.445335
0.446953
0.448867
0.45095
0.453148
0.455587
0.458181
0.460804
0.46349
0.46619
0.468603
0.470756
0.473212
0.47597
0.479297
0.48337
0.487673
0.491662
0.495177
0.499108
0.503796
0.509032
0.514043
0.519158
0.524366
0.530158
0.535956
0.542207
0.548962
0.555894
0.563068
0.570382
0.577676
0.585043
0.593028
0.60166
0.610631
0.619621
0.629098
0.63941
0.650088
0.661242
0.672752
0.685094
0.698732
0.713072
0.72734
0.741216
0.755348
0.771625
0.792285
0.817716
0.843347
0.869286
0.89401
0.916254
0.937586
0.959238
0.979527
0.993644
0.999109
0.999959
0.999999
1
1
1
1
1
1
1
1
1
1
1
1
0.430063
0.430683
0.431352
0.432063
0.432818
0.433616
0.434466
0.435351
0.436297
0.437278
0.438326
0.439416
0.440555
0.441758
0.443012
0.444311
0.445671
0.447046
0.448513
0.450059
0.451632
0.453312
0.455067
0.456931
0.458958
0.461056
0.463309
0.465593
0.467881
0.470344
0.472805
0.475299
0.477917
0.480652
0.483436
0.486466
0.489944
0.493584
0.497334
0.501162
0.504847
0.508512
0.512214
0.516467
0.521188
0.526012
0.530652
0.535357
0.540413
0.546029
0.551763
0.557507
0.563257
0.569099
0.575463
0.582322
0.589523
0.597172
0.605142
0.613305
0.621865
0.630915
0.640405
0.650306
0.66025
0.670764
0.681453
0.692994
0.705282
0.718104
0.732156
0.747625
0.763812
0.779999
0.795753
0.811541
0.828937
0.84917
0.872311
0.89751
0.9231
0.947973
0.970917
0.988696
0.997678
0.999819
0.999996
1
1
1
1
1
1
1
1
1
1
1
1
1
0.449211
0.450001
0.450841
0.451723
0.452636
0.453593
0.454575
0.455607
0.456664
0.457776
0.458917
0.460108
0.461339
0.46262
0.463938
0.465321
0.466741
0.468231
0.469778
0.471356
0.473035
0.474758
0.476535
0.478395
0.480284
0.482245
0.484285
0.486368
0.488604
0.490873
0.49323
0.495751
0.498325
0.501005
0.503843
0.506807
0.509775
0.512792
0.515946
0.519195
0.522627
0.526358
0.530425
0.534621
0.538804
0.543004
0.547392
0.55224
0.55738
0.562582
0.567844
0.573639
0.57985
0.586407
0.593175
0.600097
0.60737
0.615183
0.623563
0.632309
0.641251
0.650602
0.66046
0.67052
0.680888
0.691491
0.702925
0.714973
0.72768
0.741114
0.755071
0.769716
0.785477
0.802453
0.820309
0.838546
0.857078
0.876417
0.89717
0.919578
0.943119
0.966083
0.985101
0.996171
0.999579
0.999985
1
1
1
1
1
1
1
1
1
1
1
1
1
1
0.468853
0.46958
0.470355
0.471163
0.472005
0.472878
0.473789
0.47473
0.47571
0.476726
0.477781
0.478876
0.480015
0.481197
0.482432
0.483709
0.485041
0.486425
0.48785
0.48935
0.490893
0.492506
0.494187
0.495931
0.497745
0.499655
0.501621
0.503695
0.505843
0.508065
0.51043
0.512848
0.515381
0.518048
0.520804
0.52365
0.526665
0.52988
0.533214
0.536752
0.540495
0.544337
0.548286
0.552381
0.556733
0.561373
0.566389
0.571589
0.576911
0.582392
0.588263
0.594336
0.600766
0.607522
0.614552
0.622063
0.630034
0.638211
0.646525
0.655241
0.664416
0.673793
0.68322
0.692996
0.703383
0.714515
0.726183
0.738488
0.75155
0.765462
0.780269
0.79583
0.811973
0.828645
0.84584
0.863579
0.882053
0.901672
0.922723
0.944834
0.96648
0.984597
0.995623
0.99942
0.999973
1
1
1
1
1
1
1
1
1
1
1
1
1
1
1
0.490106
0.490837
0.491617
0.492432
0.493283
0.494165
0.495088
0.496041
0.497036
0.498072
0.499153
0.50028
0.501451
0.502674
0.503944
0.505268
0.506649
0.50808
0.509584
0.511136
0.51277
0.514465
0.516238
0.518081
0.520008
0.522014
0.524103
0.526299
0.528564
0.530962
0.533442
0.536031
0.538759
0.541581
0.544536
0.54765
0.550897
0.55426
0.5578
0.561493
0.565319
0.569336
0.573563
0.578012
0.582635
0.587477
0.592481
0.59763
0.602996
0.608727
0.61472
0.620967
0.627374
0.63401
0.641041
0.648388
0.655965
0.663897
0.672252
0.680889
0.689715
0.698891
0.708624
0.718886
0.729595
0.740783
0.752647
0.765296
0.778733
0.792926
0.807876
0.823652
0.840316
0.857831
0.87603
0.894705
0.91375
0.933189
0.952851
0.971663
0.987097
0.996313
0.999488
0.999973
0.999999
1
1
1
1
1
1
1
1
1
1
1
1
1
1
1
0.513128
0.513868
0.514651
0.515476
0.516333
0.517232
0.518166
0.519136
0.520143
0.521196
0.522295
0.523438
0.524626
0.525862
0.527152
0.528502
0.529901
0.531367
0.532883
0.534475
0.536125
0.53785
0.539643
0.541516
0.543474
0.545507
0.547641
0.549847
0.552165
0.554575
0.557088
0.559723
0.562455
0.565315
0.568308
0.571419
0.574668
0.578074
0.581625
0.585334
0.589221
0.593283
0.59752
0.601922
0.606537
0.611343
0.616344
0.621604
0.62714
0.632871
0.638829
0.645076
0.651708
0.658728
0.666036
0.673625
0.681552
0.689794
0.698313
0.707165
0.71643
0.726092
0.736116
0.746573
0.757619
0.769364
0.781814
0.79495
0.808771
0.82329
0.838504
0.854392
0.870951
0.888208
0.906155
0.924662
0.943389
0.961655
0.978125
0.990663
0.997525
0.999679
0.999983
1
1
1
1
1
1
1
1
1
1
1
1
1
1
1
1
1
0.538641
0.539402
0.54021
0.541058
0.541944
0.542868
0.543836
0.544836
0.545875
0.54696
0.548094
0.549277
0.550505
0.551779
0.553114
0.554506
0.555958
0.557462
0.559036
0.560678
0.562392
0.564175
0.566033
0.567976
0.569999
0.572111
0.574303
0.576601
0.578999
0.5815
0.584112
0.586831
0.589677
0.592648
0.595743
0.59898
0.602365
0.605897
0.609588
0.613446
0.617476
0.621683
0.626072
0.630659
0.635436
0.640416
0.645628
0.651061
0.656711
0.66263
0.668846
0.675361
0.682158
0.689229
0.696602
0.704289
0.712277
0.720571
0.729192
0.73815
0.747457
0.757173
0.767405
0.778238
0.789703
0.801812
0.814586
0.828043
0.84219
0.857013
0.872482
0.888554
0.905144
0.922117
0.939231
0.956045
0.971745
0.985
0.994189
0.998638
0.999845
0.999993
1
1
1
1
1
1
1
1
1
1
1
1
1
1
1
1
1
1
0.567173
0.567965
0.568799
0.569675
0.570589
0.571544
0.572542
0.573576
0.574651
0.57577
0.57694
0.578166
0.579436
0.580754
0.582131
0.583573
0.585072
0.586634
0.588259
0.589951
0.591715
0.593554
0.595475
0.597481
0.599569
0.601739
0.604009
0.60638
0.608848
0.611424
0.614113
0.61692
0.619848
0.622901
0.62609
0.629417
0.632891
0.636518
0.640303
0.644253
0.648376
0.652678
0.657168
0.661845
0.666723
0.671817
0.677133
0.682691
0.688512
0.694603
0.700968
0.707615
0.714551
0.721781
0.729303
0.737118
0.745239
0.753682
0.762471
0.771649
0.78128
0.791426
0.802133
0.813429
0.825337
0.837871
0.851028
0.864785
0.879107
0.89394
0.909196
0.924733
0.940306
0.955514
0.969732
0.982069
0.99146
0.997124
0.999429
0.999945
0.999998
1
1
1
1
1
1
1
1
1
1
1
1
1
1
1
1
1
1
1
0.599143
0.59996
0.600822
0.601725
0.602668
0.603655
0.604687
0.605762
0.606878
0.608034
0.609244
0.61051
0.61182
0.613183
0.61461
0.616098
0.617647
0.619251
0.620925
0.622682
0.624512
0.626415
0.6284
0.630463
0.632612
0.63486
0.637206
0.639651
0.6422
0.64486
0.647638
0.650536
0.653556
0.656707
0.659995
0.663427
0.667008
0.670744
0.674642
0.678709
0.68295
0.687374
0.691989
0.696806
0.701835
0.707086
0.712576
0.718318
0.72432
0.730588
0.73713
0.743948
0.751043
0.75842
0.766089
0.774067
0.782374
0.791043
0.800118
0.809649
0.81968
0.830243
0.841355
0.853022
0.865233
0.87796
0.891156
0.904749
0.918627
0.932618
0.946467
0.959794
0.972083
0.982684
0.990919
0.996311
0.998981
0.999837
0.999987
0.999999
1
1
1
1
1
1
1
1
1
1
1
1
1
1
1
1
1
1
1
1
0.63494
0.63578
0.636676
0.637617
0.638601
0.639628
0.640699
0.641812
0.642955
0.644143
0.645405
0.64672
0.648072
0.649483
0.650961
0.652498
0.654089
0.655751
0.657499
0.659314
0.661197
0.663164
0.665217
0.667356
0.669589
0.671917
0.67434
0.676868
0.67951
0.682267
0.685142
0.688145
0.691278
0.69454
0.697938
0.701485
0.705188
0.709051
0.713078
0.717279
0.721661
0.726232
0.731003
0.735986
0.741191
0.746629
0.75231
0.758241
0.764429
0.770877
0.777588
0.784568
0.791827
0.799378
0.807244
0.815451
0.824032
0.833023
0.842456
0.852352
0.862717
0.873544
0.884805
0.896457
0.908431
0.920628
0.932907
0.945071
0.956854
0.967909
0.977822
0.986145
0.992494
0.99669
0.998917
0.999767
0.999971
0.999998
1
1
1
1
1
1
1
1
1
1
1
1
1
1
1
1
1
1
1
1
1
1
0.675118
0.675993
0.676923
0.677899
0.678918
0.679978
0.681085
0.68223
0.683419
0.684681
0.685998
0.687347
0.688762
0.690239
0.691764
0.69336
0.695033
0.69677
0.69857
0.700454
0.702422
0.704468
0.706609
0.708847
0.711167
0.713584
0.716114
0.718751
0.721497
0.724371
0.727372
0.730494
0.733749
0.737147
0.740688
0.744374
0.748219
0.752234
0.756421
0.760786
0.765342
0.770096
0.775056
0.780231
0.785629
0.791258
0.797123
0.80323
0.809584
0.816192
0.823063
0.83021
0.837649
0.845401
0.853486
0.861923
0.870725
0.879895
0.889419
0.899267
0.909391
0.919719
0.930157
0.940578
0.950816
0.960668
0.969889
0.978203
0.985332
0.991038
0.995192
0.997841
0.999241
0.999808
0.999968
0.999997
1
1
1
1
1
1
1
1
1
1
1
1
1
1
1
1
1
1
1
1
1
1
1
1
0.720482
0.721402
0.722384
0.723409
0.724475
0.725588
0.726744
0.727951
0.729233
0.730522
0.731914
0.733335
0.734785
0.736344
0.737988
0.739662
0.741403
0.743238
0.745132
0.747097
0.749178
0.751345
0.753578
0.75592
0.75837
0.760903
0.763547
0.766328
0.769212
0.772201
0.775332
0.778609
0.782013
0.78555
0.789241
0.793091
0.797101
0.801278
0.805633
0.81017
0.814895
0.819815
0.824935
0.83026
0.835794
0.841542
0.84751
0.853705
0.860134
0.866805
0.873725
0.880902
0.888337
0.896026
0.903957
0.912107
0.920435
0.928888
0.937391
0.945853
0.954161
0.96218
0.969759
0.97673
0.982927
0.988198
0.992433
0.995592
0.997731
0.999005
0.999645
0.999903
0.999981
0.999997
1
1
1
1
1
1
1
1
1
1
1
1
1
1
1
1
1
1
1
1
1
1
1
1
1
1
0.772392
0.773344
0.774369
0.775477
0.776627
0.777816
0.779065
0.780319
0.781647
0.783052
0.784499
0.786006
0.787621
0.789224
0.790892
0.792703
0.79456
0.796474
0.798509
0.800596
0.802743
0.805018
0.807385
0.809821
0.812384
0.815059
0.817802
0.820659
0.823675
0.826806
0.830033
0.833394
0.836908
0.840558
0.844343
0.848277
0.852366
0.856611
0.861014
0.865579
0.870307
0.875201
0.880264
0.885496
0.890896
0.896464
0.902198
0.908094
0.914143
0.920334
0.926646
0.933053
0.93952
0.945999
0.952436
0.958762
0.964899
0.970764
0.976263
0.981304
0.9858
0.989674
0.992876
0.99539
0.99724
0.998499
0.999274
0.999696
0.999893
0.99997
0.999993
0.999999
1
1
1
1
1
1
1
1
1
1
1
1
1
1
1
1
1
1
1
1
1
1
1
1
1
1
1
1
0.832219
0.833285
0.834369
0.835453
0.836623
0.837853
0.839121
0.840539
0.841917
0.843324
0.844847
0.846376
0.847969
0.849723
0.851478
0.85325
0.855126
0.857087
0.85914
0.861266
0.863435
0.865707
0.8681
0.870543
0.873053
0.875696
0.878443
0.881253
0.884167
0.88721
0.890354
0.893586
0.896924
0.90038
0.903944
0.907611
0.911383
0.915259
0.919237
0.92331
0.927472
0.931717
0.936035
0.940417
0.944846
0.949305
0.953773
0.958224
0.96263
0.966955
0.971162
0.975209
0.979052
0.982646
0.985947
0.988915
0.991519
0.993737
0.995562
0.997004
0.998089
0.998859
0.99937
0.999682
0.999856
0.999942
0.99998
0.999994
0.999999
1
1
1
1
1
1
1
1
1
1
1
1
1
1
1
1
1
1
1
1
1
1
1
1
1
1
1
1
1
1
1
0.898027
0.898995
0.900066
0.901117
0.9022
0.903318
0.904466
0.905708
0.907042
0.908331
0.909699
0.911112
0.912522
0.914021
0.915634
0.917254
0.918874
0.920559
0.922355
0.924208
0.926067
0.92798
0.930001
0.932078
0.93417
0.936318
0.938546
0.940825
0.943143
0.945518
0.947947
0.950415
0.952918
0.955456
0.958025
0.960616
0.96322
0.96583
0.968435
0.971025
0.973588
0.976108
0.978573
0.980967
0.983273
0.985473
0.987551
0.989489
0.991274
0.99289
0.994329
0.995583
0.996651
0.997537
0.99825
0.998804
0.999218
0.999513
0.999714
0.999842
0.999919
0.999961
0.999983
0.999993
0.999998
0.999999
1
1
1
1
1
1
1
1
1
1
1
1
1
1
1
1
1
1
1
1
1
1
1
1
1
1
1
1
1
1
1
1
1
1
0.957281
0.957941
0.958661
0.959388
0.960108
0.960856
0.961621
0.962409
0.963252
0.964138
0.96501
0.965876
0.966772
0.967716
0.968695
0.96968
0.97066
0.971661
0.972711
0.973782
0.974845
0.975917
0.977023
0.978143
0.979258
0.980375
0.981503
0.982633
0.983755
0.98487
0.985977
0.98707
0.988142
0.989189
0.990209
0.991195
0.992144
0.99305
0.993908
0.994714
0.995465
0.996156
0.996786
0.997351
0.997853
0.99829
0.998665
0.998979
0.999238
0.999446
0.999609
0.999732
0.999823
0.999887
0.999931
0.99996
0.999978
0.999988
0.999994
0.999997
0.999999
1
1
1
1
1
1
1
1
1
1
1
1
1
1
1
1
1
1
1
1
1
1
1
1
1
1
1
1
1
1
1
1
1
1
1
1
1
1
1
0.990745
0.990978
0.991227
0.991485
0.99174
0.991995
0.992252
0.992513
0.992789
0.99308
0.993356
0.993622
0.9939
0.994188
0.994474
0.994754
0.995033
0.995314
0.995597
0.995874
0.996145
0.996413
0.996678
0.996937
0.997188
0.997431
0.997666
0.997892
0.998107
0.998312
0.998505
0.998686
0.998855
0.999011
0.999154
0.999283
0.999399
0.999503
0.999594
0.999672
0.99974
0.999797
0.999844
0.999882
0.999913
0.999937
0.999955
0.999969
0.999979
0.999986
0.999991
0.999995
0.999997
0.999998
0.999999
0.999999
1
1
1
1
1
1
1
1
1
1
1
1
1
1
1
1
1
1
1
1
1
1
1
1
1
1
1
1
1
1
1
1
1
1
1
1
1
1
1
1
1
1
1
1
0.999272
0.999302
0.999333
0.999362
0.999392
0.999422
0.99945
0.999478
0.999508
0.999539
0.999566
0.999593
0.99962
0.999647
0.999672
0.999697
0.999721
0.999745
0.999767
0.999789
0.999809
0.999828
0.999846
0.999863
0.999879
0.999894
0.999908
0.99992
0.999931
0.999942
0.999951
0.999959
0.999966
0.999972
0.999977
0.999982
0.999986
0.999989
0.999991
0.999993
0.999995
0.999996
0.999997
0.999998
0.999999
0.999999
0.999999
1
1
1
1
1
1
1
1
1
1
1
1
1
1
1
1
1
1
1
1
1
1
1
1
1
1
1
1
1
1
1
1
1
1
1
1
1
1
1
1
1
1
1
1
1
1
1
1
1
1
1
1
1
0.999982
0.999983
0.999984
0.999985
0.999986
0.999987
0.999988
0.999989
0.99999
0.99999
0.999991
0.999992
0.999992
0.999993
0.999994
0.999994
0.999995
0.999995
0.999996
0.999996
0.999997
0.999997
0.999998
0.999998
0.999998
0.999998
0.999999
0.999999
0.999999
0.999999
0.999999
0.999999
1
1
1
1
1
1
1
1
1
1
1
1
1
1
1
1
1
1
1
1
1
1
1
1
1
1
1
1
1
1
1
1
1
1
1
1
1
1
1
1
1
1
1
1
1
1
1
1
1
1
1
1
1
1
1
1
1
1
1
1
1
1
1
1
1
1
1
1
1
1
1
1
1
1
1
1
1
1
1
1
1
1
1
1
1
1
1
1
1
1
1
1
1
1
1
1
1
1
1
1
1
1
1
1
1
1
1
1
1
1
1
1
1
1
1
1
1
1
1
1
1
1
1
1
1
1
1
1
1
1
1
1
1
1
1
1
1
1
1
1
1
1
1
1
1
1
1
1
1
1
1
1
1
1
1
1
1
1
1
1
1
1
1
1
1
1
1
1
1
1
1
1
1
1
1
1
1
1
1
1
1
1
1
1
1
1
1
1
1
1
1
1
1
1
1
1
1
1
1
1
1
1
1
1
1
1
1
1
1
1
1
1
1
1
1
1
1
1
1
1
1
1
1
1
1
1
1
1
1
1
1
1
1
1
1
1
1
1
1
1
1
1
1
1
1
1
1
1
1
1
1
1
1
1
1
1
1
1
1
1
1
1
1
1
1
1
1
1
1
1
1
1
1
1
1
1
1
1
1
1
1
1
1
1
1
1
1
1
1
1
1
1
1
1
1
1
1
1
1
1
1
1
1
1
1
1
1
1
1
1
1
1
1
1
1
1
1
1
1
1
1
1
1
1
1
1
1
1
1
1
1
1
1
1
1
1
1
1
1
1
1
1
1
1
1
1
1
1
1
1
1
1
1
1
1
1
1
1
1
1
1
1
1
1
1
1
1
1
1
1
1
1
1
1
1
1
1
1
1
1
1
1
1
1
1
1
1
1
1
1
1
1
1
1
1
1
1
1
1
1
1
1
1
1
1
1
1
1
1
1
1
1
1
1
1
1
1
1
1
1
1
1
1
1
1
1
1
1
1
1
1
1
1
1
1
1
1
1
1
1
1
1
1
1
1
1
1
1
1
1
1
1
1
1
1
1
1
1
1
1
1
1
1
1
1
1
1
1
1
1
1
1
1
1
1
1
1
1
1
1
1
1
1
1
1
1
1
1
1
1
1
1
1
1
1
1
1
1
1
1
1
1
1
1
1
1
1
1
1
1
1
1
1
1
1
1
1
1
1
1
1
1
1
1
1
1
1
1
1
1
1
1
1
1
1
1
1
1
1
1
1
1
1
1
1
1
1
1
1
1
1
1
1
1
1
1
1
1
1
1
1
1
1
1
1
1
1
1
1
1
1
1
1
1
1
1
1
1
1
1
1
1
1
1
1
1
1
1
1
1
1
1
1
1
1
1
1
1
1
1
1
1
1
1
1
1
1
1
1
1
1
1
1
1
1
1
1
1
1
1
1
1
1
1
1
1
1
1
1
1
1
1
1
1
1
1
1
1
1
1
1
1
1
1
1
1
1
1
1
1
1
1
1
1
1
1
1
1
1
1
1
1
1
1
1
1
1
1
1
1
1
1
1
1
1
1
1
1
1
1
1
1
1
1
1
1
1
1
1
1
1
1
1
1
1
1
1
1
1
1
1
1
1
1
1
1
1
1
1
1
1
1
1
1
1
1
1
1
1
1
1
1
1
1
1
1
1
1
1
1
1
1
1
1
1
1
1
1
1
1
1
1
1
1
1
1
1
1
1
1
1
1
1
1
1
1
1
1
1
1
1
1
1
1
1
1
1
1
1
1
1
1
1
1
1
1
1
1
1
1
1
1
1
1
1
1
1
1
1
1
1
1
1
1
1
1
1
1
1
1
1
1
1
1
1
1
1
1
1
1
1
1
1
1
1
1
1
1
1
1
1
1
1
1
1
1
1
1
1
1
1
1
1
1
1
1
1
1
1
1
1
1
1
1
1
1
1
1
1
1
1
1
1
1
1
1
1
1
1
1
1
1
1
1
1
1
1
1
1
1
1
1
1
1
1
1
1
1
1
1
1
1
1
1
1
1
1
1
1
1
1
1
1
1
1
1
1
1
1
1
1
1
1
1
1
1
1
1
1
1
1
1
1
1
1
1
1
1
1
1
1
1
1
1
1
1
1
1
1
1
1
1
1
1
1
1
1
1
1
1
1
1
1
1
1
1
1
1
1
1
1
1
1
1
1
1
1
1
1
1
1
1
1
1
1
1
1
1
1
1
1
1
1
1
1
1
1
1
1
1
1
1
1
1
1
1
1
1
1
1
1
1
1
1
1
1
1
1
1
1
1
1
1
1
1
1
1
1
1
1
1
1
1
1
1
1
1
1
1
1
1
1
1
1
1
1
1
1
1
1
1
1
1
1
1
1
1
1
1
1
1
1
1
1
1
1
1
1
1
1
1
1
1
1
1
1
1
1
1
1
1
1
1
1
1
1
1
1
1
1
1
1
1
1
1
1
1
1
1
1
1
1
1
1
1
1
1
1
1
1
1
1
1
1
1
1
1
1
1
1
1
1
1
1
1
1
1
1
1
1
1
1
1
1
1
1
1
1
1
1
1
1
1
1
1
1
1
1
1
1
1
1
1
1
1
1
1
1
1
1
1
1
1
1
1
1
1
1
1
1
1
1
1
1
1
1
1
1
1
1
1
1
1
1
1
1
1
1
1
1
1
1
1
1
1
1
1
1
1
1
1
1
1
1
1
1
1
1
1
1
1
1
1
1
1
1
1
1
1
1
1
1
1
1
1
1
1
1
1
1
1
1
1
1
1
1
1
1
1
1
1
1
1
1
1
1
1
1
1
1
1
1
1
1
1
1
1
1
1
1
1
1
1
1
1
1
1
1
1
1
1
1
1
1
1
1
1
1
1
1
1
1
1
1
1
1
1
1
1
1
1
1
1
1
1
1
1
1
1
1
1
1
1
1
1
1
1
1
1
1
1
1
1
1
1
1
1
1
1
1
1
1
1
1
1
1
1
1
1
1
1
1
1
1
1
1
1
1
1
1
1
1
1
1
1
1
1
1
1
1
1
1
1
1
1
1
1
1
1
1
1
1
1
1
1
1
1
1
1
1
1
1
1
1
1
1
1
1
1
1
1
1
1
1
1
1
1
1
1
1
1
1
1
1
1
1
1
1
1
1
1
1
1
1
1
1
1
1
1
1
1
1
1
1
1
1
1
1
1
1
1
1
1
1
1
1
1
1
1
1
1
1
1
1
1
1
1
1
1
1
1
1
1
1
1
1
1
1
1
1
1
1
1
1
1
1
1
1
1
1
1
1
1
1
1
1
1
1
1
1
1
1
1
1
1
1
1
1
1
1
1
1
1
1
1
1
1
1
1
1
1
1
1
1
1
1
1
1
1
1
1
1
1
1
1
1
1
1
1
1
1
1
1
1
1
1
1
1
1
1
1
1
1
1
1
1
1
1
1
1
1
1
1
1
1
1
1
1
1
1
1
1
1
1
1
1
1
1
1
1
1
1
1
1
1
1
1
1
1
1
1
1
1
1
1
1
1
1
1
1
1
1
1
1
1
1
1
1
1
1
1
1
1
1
1
1
1
1
0.420599
0.419289
0.41671
0.414035
0.412082
0.413145
0.416705
0.422895
0.426164
0.426638
0.426271
0.427591
0.427607
0.4214
0.411107
0.410867
0.418721
0.429477
0.448464
0.468154
0.489406
0.512422
0.537911
0.566415
0.598358
0.634134
0.674281
0.719607
0.771486
0.831236
0.897082
0.956633
0.990512
0.999242
0.999981
1
1
1
1
1
1
1
1
1
1
1
1
1
1
1