/*--------------------------------*- C++ -*----------------------------------*\
  =========                 |
  \\      /  F ield         | OpenFOAM: The Open Source CFD Toolbox
   \\    /   O peration     | Website:  https://openfoam.org
    \\  /    A nd           | Version:  7
     \\/     M anipulation  |
\*---------------------------------------------------------------------------*/
FoamFile
{
    version     2.0;
    format      ascii;
    class       volVectorField;
    location    "3";
    object      U;
}
// * * * * * * * * * * * * * * * * * * * * * * * * * * * * * * * * * * * * * //

dimensions      [0 1 -1 0 0 0 0];

internalField   nonuniform List<vector> 
90000
(
(3.09832 -0.291849 0)
(3.09392 -0.27179 0)
(3.08932 -0.250512 0)
(3.0858 -0.23376 0)
(3.08197 -0.215884 0)
(3.07918 -0.203246 0)
(3.07579 -0.188068 0)
(3.07333 -0.178255 0)
(3.07005 -0.164471 0)
(3.06784 -0.156783 0)
(3.06453 -0.143696 0)
(3.06256 -0.137649 0)
(3.0592 -0.124889 0)
(3.0575 -0.120096 0)
(3.05403 -0.107479 0)
(3.05262 -0.103521 0)
(3.049 -0.0908421 0)
(3.04801 -0.0877046 0)
(3.04417 -0.075083 0)
(3.04363 -0.0721951 0)
(3.03952 -0.0598806 0)
(3.03956 -0.0569001 0)
(3.0351 -0.0452326 0)
(3.03555 -0.0414636 0)
(3.03105 -0.0312674 0)
(3.03115 -0.0260124 0)
(3.0281 -0.0190175 0)
(3.02656 -0.0141483 0)
(3.02617 -0.00938615 0)
(3.02491 -0.00523848 0)
(3.02274 -0.00262226 0)
(3.02034 0.00249106 0)
(3.01831 0.00343048 0)
(3.01768 0.00758481 0)
(3.01733 0.00809166 0)
(3.01605 0.00575952 0)
(3.01518 0.0041127 0)
(3.01432 0.00214209 0)
(3.0137 0.000219011 0)
(3.01295 -0.00131972 0)
(3.0124 -0.00303332 0)
(3.01197 -0.00249237 0)
(3.01236 -0.00341226 0)
(3.0122 -0.0023193 0)
(3.01284 -0.00181203 0)
(3.01392 -0.000642569 0)
(3.01526 0.000681107 0)
(3.0161 0.00129099 0)
(3.01685 0.00141728 0)
(3.01706 0.00139116 0)
(3.01796 0.00049479 0)
(3.01802 0.000109574 0)
(3.01797 -0.000993694 0)
(3.0179 -0.00127782 0)
(3.01775 -0.00147771 0)
(3.01814 -0.000273694 0)
(3.01861 0.000131239 0)
(3.01953 0.000714034 0)
(3.02045 0.000833507 0)
(3.02061 0.000753006 0)
(3.02142 0.000195676 0)
(3.02153 -0.000281316 0)
(3.02143 -0.00114812 0)
(3.02206 -0.000757934 0)
(3.02251 -0.000389229 0)
(3.02329 5.74664e-05 0)
(3.02403 0.00038731 0)
(3.02455 2.19661e-05 0)
(3.02534 -0.000183471 0)
(3.02565 -0.000229535 0)
(3.02625 -8.70269e-05 0)
(3.02684 1.46762e-05 0)
(3.0277 0.000144615 0)
(3.02867 4.1119e-05 0)
(3.02927 -0.000252029 0)
(3.02988 -0.000475899 0)
(3.03036 -0.000334385 0)
(3.03116 8.40555e-06 0)
(3.03185 0.000253643 0)
(3.03257 -0.000163085 0)
(3.03328 -0.000168026 0)
(3.03407 3.02303e-05 0)
(3.03491 -9.05527e-05 0)
(3.03581 -0.000212156 0)
(3.03678 -8.42183e-05 0)
(3.03772 6.8106e-05 0)
(3.03865 -0.000185317 0)
(3.03953 -0.000314994 0)
(3.0406 -0.000154158 0)
(3.04167 4.55372e-05 0)
(3.04288 -0.000217983 0)
(3.04434 -0.000282856 0)
(3.04534 -0.000195365 0)
(3.04618 -3.96244e-05 0)
(3.04706 8.52125e-05 0)
(3.04819 0.00013435 0)
(3.04922 5.66688e-05 0)
(3.05006 -0.000190135 0)
(3.05073 -0.000282478 0)
(3.05082 -0.000148787 0)
(3.10109 -0.30981 0)
(3.09992 -0.309073 0)
(3.09792 -0.307529 0)
(3.09536 -0.305135 0)
(3.09225 -0.301365 0)
(3.08897 -0.296824 0)
(3.08529 -0.29058 0)
(3.08172 -0.283891 0)
(3.07771 -0.274774 0)
(3.07413 -0.266029 0)
(3.06983 -0.254046 0)
(3.06637 -0.243673 0)
(3.0618 -0.228851 0)
(3.05865 -0.217314 0)
(3.05382 -0.19971 0)
(3.05118 -0.187459 0)
(3.04609 -0.167262 0)
(3.04428 -0.1553 0)
(3.03891 -0.133079 0)
(3.03798 -0.121656 0)
(3.03245 -0.0982347 0)
(3.03246 -0.0881064 0)
(3.02676 -0.0643648 0)
(3.02747 -0.055729 0)
(3.0219 -0.033273 0)
(3.02285 -0.0262625 0)
(3.01748 -0.00670501 0)
(3.01795 -0.00113043 0)
(3.01348 0.0140451 0)
(3.01309 0.0179749 0)
(3.01013 0.0267781 0)
(3.00928 0.0288978 0)
(3.00868 0.026739 0)
(3.00808 0.0214661 0)
(3.00804 0.0157976 0)
(3.00982 0.0102693 0)
(3.01069 0.00450318 0)
(3.01242 0.00204762 0)
(3.01342 -0.000975711 0)
(3.01356 -0.00297467 0)
(3.01353 -0.00333582 0)
(3.01368 -0.00319745 0)
(3.01406 -0.00254406 0)
(3.01533 -0.000213729 0)
(3.01632 0.00258859 0)
(3.016 0.00326501 0)
(3.0163 0.00494655 0)
(3.01641 0.00512984 0)
(3.01622 0.00402394 0)
(3.0164 0.0026221 0)
(3.01618 -8.34919e-05 0)
(3.01649 -0.00183488 0)
(3.0169 -0.00390979 0)
(3.01724 -0.00403025 0)
(3.018 -0.00274156 0)
(3.01849 -0.00080188 0)
(3.01899 0.000824366 0)
(3.01939 0.00245947 0)
(3.02013 0.00233071 0)
(3.02018 0.00124016 0)
(3.02032 -0.000438082 0)
(3.02073 -0.00218926 0)
(3.021 -0.00223044 0)
(3.02169 -0.00122624 0)
(3.02252 9.43637e-05 0)
(3.02289 0.00111832 0)
(3.02372 0.000792243 0)
(3.02399 5.43237e-05 0)
(3.02454 -0.000975382 0)
(3.02509 -0.0010681 0)
(3.02605 -0.000439575 0)
(3.02678 0.000644723 0)
(3.02721 0.000867695 0)
(3.02819 0.00011086 0)
(3.0288 -0.000697386 0)
(3.02939 -0.000599989 0)
(3.0301 -0.000198405 0)
(3.03076 0.000395822 0)
(3.03141 0.000201438 0)
(3.03214 -4.47144e-06 0)
(3.03292 -0.000237009 0)
(3.03373 -0.000320277 0)
(3.03459 -0.000183704 0)
(3.03548 -7.42143e-06 0)
(3.03649 -0.000165866 0)
(3.03742 -0.000304503 0)
(3.03839 -0.000330001 0)
(3.03926 -0.000236363 0)
(3.04032 -0.000336542 0)
(3.04141 -0.000237635 0)
(3.04259 -0.00020921 0)
(3.04406 -0.000231313 0)
(3.04511 -0.000230171 0)
(3.046 -0.000186901 0)
(3.04691 -8.75823e-05 0)
(3.04798 -0.000100798 0)
(3.04903 -0.000247167 0)
(3.05 -0.000194307 0)
(3.05064 2.31916e-05 0)
(3.05061 5.42065e-05 0)
(3.09884 -0.309662 0)
(3.0989 -0.309534 0)
(3.09898 -0.309621 0)
(3.09903 -0.309711 0)
(3.09914 -0.309612 0)
(3.09913 -0.309478 0)
(3.09905 -0.309244 0)
(3.09887 -0.308927 0)
(3.09855 -0.308572 0)
(3.09809 -0.30793 0)
(3.09748 -0.307007 0)
(3.09671 -0.305638 0)
(3.09577 -0.303912 0)
(3.09461 -0.301483 0)
(3.09315 -0.298303 0)
(3.09142 -0.294088 0)
(3.08934 -0.288739 0)
(3.08715 -0.282484 0)
(3.08437 -0.274077 0)
(3.0816 -0.265395 0)
(3.07787 -0.253082 0)
(3.07471 -0.242301 0)
(3.06999 -0.225299 0)
(3.0668 -0.213132 0)
(3.06129 -0.191558 0)
(3.05851 -0.17946 0)
(3.05249 -0.154378 0)
(3.05046 -0.143711 0)
(3.04465 -0.117589 0)
(3.04361 -0.109875 0)
(3.03886 -0.0859816 0)
(3.03952 -0.0803926 0)
(3.0345 -0.0610707 0)
(3.03646 -0.0558136 0)
(3.02835 -0.0391061 0)
(3.02846 -0.0315348 0)
(3.02359 -0.0223902 0)
(3.02319 -0.0168623 0)
(3.02142 -0.0113998 0)
(3.02115 -0.00671646 0)
(3.01936 -0.00350227 0)
(3.01835 0.000248489 0)
(3.01741 0.00490343 0)
(3.01702 0.00768469 0)
(3.01629 0.00802457 0)
(3.01487 0.0069192 0)
(3.01404 0.00514809 0)
(3.01328 0.0019493 0)
(3.01309 -0.000334673 0)
(3.01355 -0.00341514 0)
(3.01378 -0.00486111 0)
(3.01476 -0.00468965 0)
(3.01599 -0.00388308 0)
(3.01744 -0.0018528 0)
(3.01805 -0.000388181 0)
(3.01876 0.00130765 0)
(3.0189 0.00213416 0)
(3.01863 0.00164136 0)
(3.01838 0.000392107 0)
(3.01822 -0.00184635 0)
(3.01864 -0.00217471 0)
(3.01945 -0.00207417 0)
(3.0206 -0.000980272 0)
(3.02077 3.63931e-05 0)
(3.02206 0.000975835 0)
(3.02201 0.000570608 0)
(3.02238 -0.000530379 0)
(3.02265 -0.0013797 0)
(3.02345 -0.00134247 0)
(3.02426 -0.000740362 0)
(3.02534 0.000686959 0)
(3.02571 0.000593805 0)
(3.02631 -0.000182887 0)
(3.02683 -0.000914643 0)
(3.02768 -0.00103503 0)
(3.02845 -0.000695042 0)
(3.0292 7.96689e-05 0)
(3.02981 -8.15094e-05 0)
(3.03042 -0.000348013 0)
(3.03113 -0.000425211 0)
(3.03202 -0.000473221 0)
(3.03289 -0.000226456 0)
(3.03374 -0.000234212 0)
(3.03467 -0.000540143 0)
(3.0357 -0.000600496 0)
(3.03663 -0.000288648 0)
(3.03769 -0.000446419 0)
(3.0386 -0.000650681 0)
(3.03973 -0.000574086 0)
(3.04083 -9.24989e-05 0)
(3.04199 -0.000357717 0)
(3.04341 -0.000545578 0)
(3.04459 -0.000613361 0)
(3.04552 -0.000534306 0)
(3.04649 -0.000484206 0)
(3.04759 -0.000399736 0)
(3.04877 -0.000196644 0)
(3.04968 -8.52648e-05 0)
(3.05031 -0.000184551 0)
(3.05037 -0.000298813 0)
(3.09479 -0.309093 0)
(3.09489 -0.309137 0)
(3.09498 -0.30933 0)
(3.09512 -0.309328 0)
(3.09523 -0.30923 0)
(3.09532 -0.309349 0)
(3.09542 -0.309357 0)
(3.0955 -0.309377 0)
(3.09558 -0.30936 0)
(3.09568 -0.309253 0)
(3.09576 -0.30919 0)
(3.09586 -0.309139 0)
(3.09593 -0.309145 0)
(3.09607 -0.309 0)
(3.09617 -0.308886 0)
(3.09622 -0.308591 0)
(3.09625 -0.308376 0)
(3.09614 -0.308046 0)
(3.0959 -0.307519 0)
(3.09556 -0.306651 0)
(3.09508 -0.305459 0)
(3.0944 -0.303545 0)
(3.09345 -0.300727 0)
(3.09223 -0.296863 0)
(3.09043 -0.291168 0)
(3.08837 -0.284325 0)
(3.08513 -0.273496 0)
(3.08208 -0.26268 0)
(3.07679 -0.243929 0)
(3.0732 -0.229313 0)
(3.06542 -0.200346 0)
(3.06253 -0.183588 0)
(3.05227 -0.143851 0)
(3.05167 -0.12841 0)
(3.04096 -0.0859316 0)
(3.04116 -0.0755366 0)
(3.03084 -0.0402463 0)
(3.03099 -0.0338096 0)
(3.02364 -0.0101959 0)
(3.02314 -0.00492716 0)
(3.01927 0.0069883 0)
(3.01669 0.0101576 0)
(3.01573 0.0146629 0)
(3.01378 0.0113877 0)
(3.01321 0.00648304 0)
(3.01291 0.0019243 0)
(3.013 0.000578288 0)
(3.01225 -0.00237704 0)
(3.01236 -0.00257919 0)
(3.01295 -0.00211657 0)
(3.01364 -0.0012713 0)
(3.01491 0.00163558 0)
(3.01562 0.00303318 0)
(3.0161 0.00494278 0)
(3.01695 0.00301446 0)
(3.01664 0.00128585 0)
(3.01652 -0.000404332 0)
(3.01629 -0.00277775 0)
(3.01649 -0.00256275 0)
(3.01695 -0.00208619 0)
(3.01783 -9.56016e-05 0)
(3.01892 0.000650211 0)
(3.01922 0.00188689 0)
(3.01996 0.000249653 0)
(3.02021 -0.000924974 0)
(3.02059 -0.00182173 0)
(3.02118 -0.00113952 0)
(3.02173 -0.00046956 0)
(3.02272 0.000440915 0)
(3.02314 0.000801642 0)
(3.02418 -7.31128e-06 0)
(3.02434 -0.000641356 0)
(3.02517 -0.000685478 0)
(3.0257 -0.000287387 0)
(3.02663 -8.49096e-05 0)
(3.02714 0.000477703 0)
(3.02809 -0.00030067 0)
(3.02873 -0.000362069 0)
(3.02933 -0.000247789 0)
(3.03013 -0.000123593 0)
(3.03095 -1.40823e-05 0)
(3.03187 -0.000369561 0)
(3.03276 -0.000491071 0)
(3.0338 -0.000262707 0)
(3.0347 -0.000124061 0)
(3.03584 -0.000468561 0)
(3.03683 -0.000681722 0)
(3.03787 -0.000669491 0)
(3.03906 -0.000486127 0)
(3.04016 -0.000298814 0)
(3.04128 -0.000541204 0)
(3.04275 -0.000842304 0)
(3.04398 -0.000772256 0)
(3.04512 -0.000553863 0)
(3.04617 -0.000245632 0)
(3.04728 -0.000225508 0)
(3.04851 -0.00029978 0)
(3.0494 -0.000419773 0)
(3.05006 -0.000431235 0)
(3.05024 -0.000254238 0)
(3.09129 -0.308714 0)
(3.09138 -0.308703 0)
(3.09148 -0.308889 0)
(3.09158 -0.308955 0)
(3.0917 -0.30886 0)
(3.09182 -0.308914 0)
(3.09194 -0.308987 0)
(3.09208 -0.308999 0)
(3.09226 -0.308948 0)
(3.09244 -0.308905 0)
(3.09261 -0.30904 0)
(3.0928 -0.309049 0)
(3.09299 -0.309107 0)
(3.09316 -0.309211 0)
(3.09336 -0.30918 0)
(3.09353 -0.309083 0)
(3.09371 -0.309182 0)
(3.09386 -0.309239 0)
(3.09404 -0.309193 0)
(3.09423 -0.309032 0)
(3.09437 -0.309092 0)
(3.09457 -0.309033 0)
(3.0947 -0.308944 0)
(3.09494 -0.308693 0)
(3.09502 -0.308395 0)
(3.09508 -0.308076 0)
(3.09503 -0.307512 0)
(3.09481 -0.306342 0)
(3.09438 -0.304654 0)
(3.09356 -0.301587 0)
(3.09224 -0.297193 0)
(3.09029 -0.290219 0)
(3.08714 -0.280146 0)
(3.08341 -0.267013 0)
(3.07769 -0.246779 0)
(3.0728 -0.227433 0)
(3.06437 -0.195329 0)
(3.05963 -0.174412 0)
(3.04992 -0.13548 0)
(3.04689 -0.120276 0)
(3.03877 -0.0852365 0)
(3.03683 -0.0774182 0)
(3.03178 -0.0543207 0)
(3.03194 -0.0506744 0)
(3.02575 -0.0357632 0)
(3.02416 -0.0286856 0)
(3.02183 -0.02044 0)
(3.01897 -0.0140288 0)
(3.01919 -0.00751016 0)
(3.01727 -0.00147779 0)
(3.01419 0.00370317 0)
(3.01465 0.0074149 0)
(3.01393 0.00647715 0)
(3.01352 0.00499563 0)
(3.01297 0.000612037 0)
(3.01295 -0.00207182 0)
(3.01398 -0.00569084 0)
(3.01464 -0.00609677 0)
(3.01562 -0.00428646 0)
(3.01716 -0.00117222 0)
(3.01769 0.000395374 0)
(3.01862 0.00213555 0)
(3.01831 0.00133237 0)
(3.01834 -0.000427754 0)
(3.01889 -0.00279705 0)
(3.01952 -0.00307292 0)
(3.02074 -0.00220859 0)
(3.02149 -0.00125396 0)
(3.02266 0.000516469 0)
(3.02273 0.00030882 0)
(3.02334 -0.000520808 0)
(3.0236 -0.00127036 0)
(3.02427 -0.0012698 0)
(3.02513 -0.00118729 0)
(3.02617 -1.9183e-05 0)
(3.02675 1.05831e-05 0)
(3.02743 -0.000374438 0)
(3.02814 -0.000898114 0)
(3.02883 -0.000914958 0)
(3.02971 -0.00042436 0)
(3.03047 -0.00040042 0)
(3.03138 -0.000719566 0)
(3.03237 -0.000921755 0)
(3.03339 -0.000753036 0)
(3.03436 -0.00074518 0)
(3.03543 -0.000953649 0)
(3.03648 -0.00107168 0)
(3.03762 -0.000909254 0)
(3.03883 -0.000668654 0)
(3.03997 -0.000642123 0)
(3.04109 -0.000821155 0)
(3.04253 -0.00090472 0)
(3.04381 -0.000811477 0)
(3.04509 -0.000503941 0)
(3.04631 -0.00031992 0)
(3.04737 -0.000376471 0)
(3.0486 -0.000385448 0)
(3.04958 -0.000409307 0)
(3.0502 -0.000343654 0)
(3.05045 -0.000240115 0)
(3.08978 -0.308481 0)
(3.08991 -0.308376 0)
(3.09006 -0.308434 0)
(3.09018 -0.308647 0)
(3.09033 -0.308634 0)
(3.0905 -0.308567 0)
(3.09066 -0.308645 0)
(3.09082 -0.308698 0)
(3.09099 -0.308738 0)
(3.0912 -0.308622 0)
(3.09139 -0.308636 0)
(3.09159 -0.308674 0)
(3.09179 -0.308708 0)
(3.09199 -0.308784 0)
(3.09219 -0.308849 0)
(3.09243 -0.308689 0)
(3.09266 -0.308747 0)
(3.0929 -0.308841 0)
(3.09316 -0.308956 0)
(3.09343 -0.308878 0)
(3.09372 -0.308998 0)
(3.09398 -0.309092 0)
(3.09424 -0.309203 0)
(3.09451 -0.309088 0)
(3.09477 -0.309211 0)
(3.09505 -0.30921 0)
(3.09531 -0.309263 0)
(3.0956 -0.309159 0)
(3.09586 -0.309169 0)
(3.09604 -0.309081 0)
(3.09635 -0.308933 0)
(3.09645 -0.308655 0)
(3.09659 -0.308153 0)
(3.09655 -0.307045 0)
(3.09615 -0.305034 0)
(3.09521 -0.301232 0)
(3.09326 -0.294675 0)
(3.09024 -0.284559 0)
(3.08506 -0.267618 0)
(3.07961 -0.247801 0)
(3.07034 -0.214939 0)
(3.06424 -0.188424 0)
(3.0517 -0.141596 0)
(3.04786 -0.115008 0)
(3.03689 -0.0702032 0)
(3.034 -0.050604 0)
(3.02758 -0.0223204 0)
(3.02418 -0.00794321 0)
(3.0219 0.00536197 0)
(3.0178 0.0159749 0)
(3.01617 0.0164019 0)
(3.01441 0.00929821 0)
(3.0134 0.00213518 0)
(3.01398 0.00102466 0)
(3.01263 -0.00343725 0)
(3.01311 -0.00363913 0)
(3.01407 -0.0036414 0)
(3.01556 -0.00146339 0)
(3.01752 0.00142335 0)
(3.01817 0.00154008 0)
(3.0181 0.00115421 0)
(3.01779 -6.52664e-05 0)
(3.01723 -0.001792 0)
(3.01804 -0.00192309 0)
(3.01866 -0.00181855 0)
(3.01972 -0.00106391 0)
(3.0211 0.000202747 0)
(3.02209 0.000392179 0)
(3.02233 -0.000227869 0)
(3.02239 -0.00101388 0)
(3.02338 -0.00115019 0)
(3.02397 -0.000758128 0)
(3.02498 -0.000349773 0)
(3.02556 0.000415014 0)
(3.02634 -0.000216698 0)
(3.02718 -0.000382593 0)
(3.02788 -0.000458475 0)
(3.02859 -0.000513302 0)
(3.02935 -0.000498893 0)
(3.03006 -0.000675402 0)
(3.03091 -0.00062369 0)
(3.0318 -0.000466238 0)
(3.03289 -0.000452678 0)
(3.03382 -0.000427119 0)
(3.03489 -0.00072348 0)
(3.03588 -0.000910509 0)
(3.03701 -0.000844844 0)
(3.03819 -0.000898766 0)
(3.03936 -0.000782701 0)
(3.04052 -0.000739469 0)
(3.04172 -0.000875145 0)
(3.04305 -0.00121441 0)
(3.04433 -0.00113055 0)
(3.04571 -0.000745223 0)
(3.04701 -0.000482485 0)
(3.04803 -0.000525855 0)
(3.04916 -0.000649837 0)
(3.05014 -0.000781448 0)
(3.05076 -0.000703874 0)
(3.05113 -0.000485803 0)
(3.09026 -0.308459 0)
(3.09044 -0.308381 0)
(3.09059 -0.308282 0)
(3.09079 -0.30844 0)
(3.09094 -0.308593 0)
(3.09114 -0.308544 0)
(3.09133 -0.308541 0)
(3.09152 -0.308588 0)
(3.09171 -0.308673 0)
(3.09194 -0.308629 0)
(3.09218 -0.30858 0)
(3.09241 -0.308656 0)
(3.09265 -0.30865 0)
(3.09288 -0.308684 0)
(3.0931 -0.30879 0)
(3.09338 -0.308692 0)
(3.09365 -0.308665 0)
(3.09392 -0.308784 0)
(3.09418 -0.308845 0)
(3.09446 -0.30882 0)
(3.09475 -0.308837 0)
(3.09504 -0.308927 0)
(3.09531 -0.309029 0)
(3.09561 -0.308956 0)
(3.09592 -0.308999 0)
(3.09622 -0.309082 0)
(3.09652 -0.309184 0)
(3.09682 -0.309149 0)
(3.09711 -0.309256 0)
(3.09741 -0.309281 0)
(3.09768 -0.309369 0)
(3.09795 -0.309336 0)
(3.09825 -0.309404 0)
(3.09859 -0.309357 0)
(3.09878 -0.309441 0)
(3.09927 -0.309316 0)
(3.09938 -0.30918 0)
(3.09954 -0.308713 0)
(3.09954 -0.307666 0)
(3.0991 -0.305394 0)
(3.09777 -0.300612 0)
(3.09541 -0.292581 0)
(3.09071 -0.277329 0)
(3.0856 -0.259203 0)
(3.07619 -0.224812 0)
(3.07039 -0.200483 0)
(3.05816 -0.151389 0)
(3.05419 -0.131401 0)
(3.04439 -0.0891077 0)
(3.04273 -0.076797 0)
(3.03705 -0.0539345 0)
(3.03862 -0.0452884 0)
(3.02912 -0.0282055 0)
(3.02822 -0.0214215 0)
(3.02405 -0.012704 0)
(3.02256 -0.00543243 0)
(3.01916 0.00160299 0)
(3.01794 0.00497187 0)
(3.01761 0.00417029 0)
(3.01708 0.00115106 0)
(3.01708 -0.00203196 0)
(3.01749 -0.00555437 0)
(3.01807 -0.00551752 0)
(3.01928 -0.00368075 0)
(3.02056 -0.00130808 0)
(3.02169 0.00137296 0)
(3.02238 0.000971842 0)
(3.02243 -0.000151854 0)
(3.02276 -0.00209239 0)
(3.02316 -0.00245849 0)
(3.02393 -0.00194534 0)
(3.02481 -0.000838733 0)
(3.02616 2.98382e-05 0)
(3.02655 0.000164461 0)
(3.0273 -0.000351543 0)
(3.02811 -0.0010756 0)
(3.02893 -0.00120593 0)
(3.02967 -0.000921191 0)
(3.03036 -0.000558923 0)
(3.03112 -0.000836444 0)
(3.03198 -0.0011986 0)
(3.03289 -0.00129833 0)
(3.03392 -0.000912056 0)
(3.03489 -0.000869996 0)
(3.03595 -0.00115664 0)
(3.03696 -0.00146298 0)
(3.03816 -0.00140628 0)
(3.03928 -0.00111096 0)
(3.04042 -0.00102518 0)
(3.04156 -0.00122132 0)
(3.04281 -0.00134238 0)
(3.04413 -0.00158799 0)
(3.04524 -0.00160756 0)
(3.04674 -0.00108615 0)
(3.04801 -0.000838194 0)
(3.04897 -0.000746249 0)
(3.04996 -0.000630883 0)
(3.0509 -0.000861995 0)
(3.05159 -0.000946808 0)
(3.0521 -0.000662366 0)
(3.09193 -0.3085 0)
(3.09209 -0.308526 0)
(3.09229 -0.308381 0)
(3.09247 -0.308362 0)
(3.09266 -0.308499 0)
(3.09286 -0.308549 0)
(3.09305 -0.308559 0)
(3.09323 -0.308572 0)
(3.09343 -0.308683 0)
(3.09365 -0.308724 0)
(3.09391 -0.308627 0)
(3.09415 -0.308652 0)
(3.0944 -0.308637 0)
(3.09464 -0.308635 0)
(3.09486 -0.308804 0)
(3.09511 -0.308832 0)
(3.09541 -0.308673 0)
(3.0957 -0.308717 0)
(3.09596 -0.308831 0)
(3.09623 -0.308883 0)
(3.09652 -0.308817 0)
(3.09682 -0.308892 0)
(3.0971 -0.308973 0)
(3.09739 -0.308996 0)
(3.09769 -0.308948 0)
(3.09799 -0.309053 0)
(3.09829 -0.309115 0)
(3.09859 -0.309107 0)
(3.09889 -0.309162 0)
(3.09919 -0.309219 0)
(3.09949 -0.309299 0)
(3.0998 -0.309292 0)
(3.10007 -0.309397 0)
(3.10032 -0.309456 0)
(3.10057 -0.309508 0)
(3.10084 -0.309524 0)
(3.10108 -0.309654 0)
(3.10133 -0.309667 0)
(3.10165 -0.309657 0)
(3.10185 -0.309641 0)
(3.10228 -0.30953 0)
(3.10244 -0.309208 0)
(3.10251 -0.308431 0)
(3.10219 -0.306522 0)
(3.10099 -0.302116 0)
(3.09861 -0.293778 0)
(3.09345 -0.276971 0)
(3.08788 -0.256197 0)
(3.07637 -0.215289 0)
(3.07055 -0.185925 0)
(3.05424 -0.123948 0)
(3.05337 -0.0972617 0)
(3.03949 -0.0436333 0)
(3.03903 -0.0282139 0)
(3.03129 0.000305938 0)
(3.02729 0.010888 0)
(3.02504 0.0187487 0)
(3.02141 0.0109076 0)
(3.0195 0.00210878 0)
(3.01834 -0.0023876 0)
(3.01862 -0.00530303 0)
(3.01937 -0.00531246 0)
(3.02091 -0.00336705 0)
(3.02289 0.000932619 0)
(3.02344 0.00203305 0)
(3.02339 0.00163937 0)
(3.02304 4.10402e-05 0)
(3.02321 -0.00233093 0)
(3.02351 -0.00261067 0)
(3.02446 -0.00210565 0)
(3.0257 -0.000791289 0)
(3.02611 0.000294815 0)
(3.02729 -9.90479e-05 0)
(3.02763 -0.00047881 0)
(3.02863 -0.000761434 0)
(3.02916 -0.000828732 0)
(3.03005 -0.000711155 0)
(3.03068 -0.000795272 0)
(3.03154 -0.000998283 0)
(3.03234 -0.00110825 0)
(3.03322 -0.00109416 0)
(3.03421 -0.000892945 0)
(3.03503 -0.00100156 0)
(3.03616 -0.0011251 0)
(3.03716 -0.00131655 0)
(3.03832 -0.00127932 0)
(3.03948 -0.00101329 0)
(3.0404 -0.00125724 0)
(3.04154 -0.00124924 0)
(3.04267 -0.00107702 0)
(3.04389 -0.000995044 0)
(3.0452 -0.00125855 0)
(3.04626 -0.00147187 0)
(3.04772 -0.00100487 0)
(3.04903 -0.000794394 0)
(3.04981 -0.000774252 0)
(3.05075 -0.000658151 0)
(3.05161 -0.00069121 0)
(3.0524 -0.000736761 0)
(3.05303 -0.000714479 0)
(3.09379 -0.308429 0)
(3.09395 -0.308377 0)
(3.0941 -0.30836 0)
(3.09428 -0.308481 0)
(3.09446 -0.308527 0)
(3.09466 -0.308384 0)
(3.09484 -0.308409 0)
(3.09504 -0.308494 0)
(3.09524 -0.308557 0)
(3.09542 -0.308691 0)
(3.09565 -0.308667 0)
(3.09588 -0.30866 0)
(3.09612 -0.308666 0)
(3.09637 -0.308555 0)
(3.09661 -0.308624 0)
(3.09681 -0.308834 0)
(3.09708 -0.308798 0)
(3.09736 -0.308677 0)
(3.09763 -0.308772 0)
(3.09788 -0.308843 0)
(3.09814 -0.308867 0)
(3.09841 -0.308839 0)
(3.09868 -0.308943 0)
(3.09895 -0.308966 0)
(3.09922 -0.308967 0)
(3.0995 -0.30903 0)
(3.09978 -0.309073 0)
(3.10006 -0.309113 0)
(3.10034 -0.309106 0)
(3.10062 -0.309225 0)
(3.1009 -0.309224 0)
(3.10118 -0.309287 0)
(3.10146 -0.309311 0)
(3.10173 -0.309437 0)
(3.102 -0.30947 0)
(3.10227 -0.309558 0)
(3.10254 -0.309602 0)
(3.10278 -0.309717 0)
(3.10302 -0.309738 0)
(3.10324 -0.309767 0)
(3.10348 -0.309766 0)
(3.10372 -0.309787 0)
(3.10401 -0.309749 0)
(3.10421 -0.309825 0)
(3.10467 -0.309668 0)
(3.10475 -0.309424 0)
(3.10471 -0.308657 0)
(3.10417 -0.30637 0)
(3.10261 -0.301202 0)
(3.09943 -0.289853 0)
(3.09341 -0.270042 0)
(3.08604 -0.241747 0)
(3.07456 -0.197446 0)
(3.0673 -0.162916 0)
(3.05571 -0.111236 0)
(3.05187 -0.0903795 0)
(3.04578 -0.0584196 0)
(3.04688 -0.0500909 0)
(3.03682 -0.0295669 0)
(3.03117 -0.0205536 0)
(3.03143 -0.0105538 0)
(3.02751 -0.00272391 0)
(3.02401 0.00480795 0)
(3.02367 0.00426734 0)
(3.02321 0.00170725 0)
(3.02292 -0.0016941 0)
(3.02361 -0.00522528 0)
(3.02407 -0.00504466 0)
(3.0254 -0.00316544 0)
(3.02701 -0.000350441 0)
(3.02717 0.000214662 0)
(3.02809 5.69569e-05 0)
(3.02819 -0.00074915 0)
(3.02904 -0.0019146 0)
(3.02963 -0.0017245 0)
(3.03052 -0.00101861 0)
(3.03108 -0.0003415 0)
(3.03184 -0.000913687 0)
(3.0326 -0.00150151 0)
(3.03337 -0.00176061 0)
(3.03431 -0.00159097 0)
(3.03523 -0.00106339 0)
(3.03614 -0.00132139 0)
(3.03714 -0.00171634 0)
(3.03821 -0.00170568 0)
(3.03931 -0.00160833 0)
(3.04035 -0.00127859 0)
(3.04127 -0.0012972 0)
(3.0423 -0.00160776 0)
(3.04345 -0.0014944 0)
(3.04462 -0.00140637 0)
(3.0459 -0.00161288 0)
(3.04697 -0.00175855 0)
(3.04837 -0.00135321 0)
(3.0497 -0.00118111 0)
(3.05037 -0.00113571 0)
(3.05123 -0.000927757 0)
(3.05209 -0.00119641 0)
(3.05296 -0.00114343 0)
(3.05368 -0.000838464 0)
(3.09521 -0.308201 0)
(3.09535 -0.30835 0)
(3.09548 -0.308439 0)
(3.09566 -0.308298 0)
(3.09582 -0.308293 0)
(3.09599 -0.308385 0)
(3.09618 -0.308402 0)
(3.09637 -0.30837 0)
(3.09656 -0.308347 0)
(3.09674 -0.308494 0)
(3.09693 -0.308578 0)
(3.09713 -0.308582 0)
(3.09734 -0.308639 0)
(3.09758 -0.308546 0)
(3.09781 -0.308432 0)
(3.09803 -0.308622 0)
(3.09824 -0.308731 0)
(3.09849 -0.308643 0)
(3.09875 -0.308618 0)
(3.09899 -0.308719 0)
(3.09924 -0.308745 0)
(3.09948 -0.308757 0)
(3.09973 -0.308784 0)
(3.09998 -0.308874 0)
(3.10023 -0.308871 0)
(3.10049 -0.30894 0)
(3.10075 -0.308978 0)
(3.10101 -0.309006 0)
(3.10126 -0.309063 0)
(3.10152 -0.309106 0)
(3.10178 -0.309197 0)
(3.10203 -0.30919 0)
(3.10229 -0.309305 0)
(3.10254 -0.309326 0)
(3.10278 -0.309461 0)
(3.10303 -0.309458 0)
(3.10327 -0.309615 0)
(3.10352 -0.309635 0)
(3.10376 -0.309792 0)
(3.104 -0.309785 0)
(3.10425 -0.30986 0)
(3.1045 -0.309876 0)
(3.10472 -0.309925 0)
(3.10495 -0.309988 0)
(3.10519 -0.309942 0)
(3.10542 -0.310036 0)
(3.10572 -0.310046 0)
(3.10584 -0.310205 0)
(3.10633 -0.310171 0)
(3.10634 -0.30981 0)
(3.10605 -0.308468 0)
(3.10503 -0.304582 0)
(3.10217 -0.294927 0)
(3.09732 -0.277688 0)
(3.08747 -0.242996 0)
(3.07939 -0.207792 0)
(3.06244 -0.142831 0)
(3.05876 -0.104953 0)
(3.04586 -0.0465018 0)
(3.0403 -0.0219861 0)
(3.03696 0.00220231 0)
(3.03194 0.018294 0)
(3.02802 0.0147347 0)
(3.0264 0.00368525 0)
(3.02466 -0.00252668 0)
(3.02502 -0.00547078 0)
(3.02576 -0.00545936 0)
(3.02799 -0.0023152 0)
(3.02967 0.0020857 0)
(3.0295 0.00176461 0)
(3.02899 0.000821714 0)
(3.02892 -0.000670679 0)
(3.02951 -0.00163224 0)
(3.03009 -0.00177815 0)
(3.03114 -0.00111768 0)
(3.0321 -0.000639322 0)
(3.03236 -0.000642367 0)
(3.03304 -0.00127093 0)
(3.0335 -0.00156674 0)
(3.03423 -0.00167576 0)
(3.03512 -0.00128501 0)
(3.03601 -0.00158139 0)
(3.03701 -0.00183894 0)
(3.03789 -0.0019692 0)
(3.03891 -0.00189825 0)
(3.03986 -0.0015946 0)
(3.04077 -0.00132911 0)
(3.04173 -0.00156671 0)
(3.04278 -0.0016802 0)
(3.04388 -0.00159092 0)
(3.04506 -0.00161192 0)
(3.04627 -0.00187709 0)
(3.0473 -0.00194945 0)
(3.04867 -0.0015905 0)
(3.04997 -0.00148115 0)
(3.05061 -0.00149864 0)
(3.05143 -0.00119682 0)
(3.05241 -0.00138581 0)
(3.05328 -0.00146829 0)
(3.05403 -0.00113215 0)
(3.09602 -0.308031 0)
(3.09615 -0.307961 0)
(3.0963 -0.308109 0)
(3.09641 -0.30826 0)
(3.09657 -0.308208 0)
(3.09674 -0.308138 0)
(3.0969 -0.308176 0)
(3.09707 -0.308246 0)
(3.09726 -0.308154 0)
(3.09744 -0.308166 0)
(3.09761 -0.308294 0)
(3.09778 -0.308341 0)
(3.09796 -0.308429 0)
(3.09815 -0.30846 0)
(3.09839 -0.308261 0)
(3.09861 -0.308281 0)
(3.09882 -0.308477 0)
(3.09903 -0.308497 0)
(3.09926 -0.308472 0)
(3.0995 -0.308477 0)
(3.09974 -0.308583 0)
(3.09997 -0.308565 0)
(3.10021 -0.308637 0)
(3.10045 -0.308666 0)
(3.10069 -0.308742 0)
(3.10093 -0.308787 0)
(3.10117 -0.308848 0)
(3.10142 -0.308839 0)
(3.10166 -0.308947 0)
(3.1019 -0.308988 0)
(3.10215 -0.309047 0)
(3.10239 -0.309084 0)
(3.10262 -0.309169 0)
(3.10286 -0.309268 0)
(3.1031 -0.309304 0)
(3.10332 -0.309431 0)
(3.10354 -0.309497 0)
(3.10375 -0.309611 0)
(3.10397 -0.309705 0)
(3.10418 -0.309817 0)
(3.10441 -0.30983 0)
(3.10464 -0.309899 0)
(3.10487 -0.310034 0)
(3.10512 -0.310089 0)
(3.10537 -0.310114 0)
(3.10565 -0.310195 0)
(3.1059 -0.310273 0)
(3.10615 -0.310383 0)
(3.10639 -0.310634 0)
(3.10668 -0.310683 0)
(3.10691 -0.310925 0)
(3.10737 -0.310808 0)
(3.10741 -0.310473 0)
(3.1073 -0.309155 0)
(3.10646 -0.30533 0)
(3.1042 -0.29696 0)
(3.09801 -0.276507 0)
(3.09124 -0.250627 0)
(3.07668 -0.193734 0)
(3.07186 -0.164723 0)
(3.05583 -0.0965735 0)
(3.05586 -0.0818191 0)
(3.04643 -0.0509483 0)
(3.04666 -0.037925 0)
(3.03832 -0.0220045 0)
(3.03504 -0.0103789 0)
(3.03214 -0.00225025 0)
(3.03066 0.00254045 0)
(3.02987 0.00178322 0)
(3.02867 -6.87337e-05 0)
(3.02802 -0.00271819 0)
(3.02898 -0.0038875 0)
(3.03009 -0.00325244 0)
(3.03141 -0.00116371 0)
(3.03231 -0.000524355 0)
(3.03248 -0.000850982 0)
(3.03273 -0.00150556 0)
(3.03359 -0.00211118 0)
(3.03403 -0.00207424 0)
(3.03491 -0.00115813 0)
(3.03564 -0.00142722 0)
(3.03667 -0.00185745 0)
(3.03735 -0.00239804 0)
(3.03827 -0.00237969 0)
(3.03919 -0.00193531 0)
(3.04007 -0.0017034 0)
(3.04099 -0.00174375 0)
(3.04192 -0.00177089 0)
(3.04297 -0.00183519 0)
(3.044 -0.00172014 0)
(3.04527 -0.00186237 0)
(3.04641 -0.00200817 0)
(3.0474 -0.00201543 0)
(3.04883 -0.00174044 0)
(3.05005 -0.00170312 0)
(3.05072 -0.00176519 0)
(3.05149 -0.00145693 0)
(3.05253 -0.00159903 0)
(3.05342 -0.00152737 0)
(3.0542 -0.0012389 0)
(3.09624 -0.307908 0)
(3.0964 -0.307813 0)
(3.09652 -0.307704 0)
(3.09668 -0.307847 0)
(3.0968 -0.307995 0)
(3.09694 -0.307981 0)
(3.0971 -0.307921 0)
(3.09725 -0.308003 0)
(3.09741 -0.308028 0)
(3.09759 -0.307904 0)
(3.09777 -0.307944 0)
(3.09794 -0.308002 0)
(3.09811 -0.308062 0)
(3.09826 -0.308247 0)
(3.09848 -0.308196 0)
(3.09869 -0.30801 0)
(3.09892 -0.308108 0)
(3.09912 -0.308219 0)
(3.09933 -0.3083 0)
(3.09956 -0.308294 0)
(3.0998 -0.308364 0)
(3.10003 -0.308396 0)
(3.10026 -0.308418 0)
(3.1005 -0.308511 0)
(3.10073 -0.308506 0)
(3.10096 -0.30867 0)
(3.1012 -0.308657 0)
(3.10144 -0.308695 0)
(3.10167 -0.308755 0)
(3.10189 -0.308921 0)
(3.10214 -0.308899 0)
(3.10238 -0.308965 0)
(3.1026 -0.309096 0)
(3.10282 -0.309219 0)
(3.10306 -0.309204 0)
(3.10328 -0.309329 0)
(3.10349 -0.309433 0)
(3.10367 -0.309513 0)
(3.10387 -0.309685 0)
(3.10407 -0.309836 0)
(3.10428 -0.309858 0)
(3.10448 -0.309915 0)
(3.10469 -0.310069 0)
(3.10491 -0.310141 0)
(3.10517 -0.310163 0)
(3.10547 -0.310235 0)
(3.10574 -0.310238 0)
(3.10603 -0.310459 0)
(3.10629 -0.310655 0)
(3.10656 -0.310865 0)
(3.10683 -0.311027 0)
(3.10711 -0.31118 0)
(3.10743 -0.311294 0)
(3.10791 -0.310999 0)
(3.10848 -0.310683 0)
(3.10855 -0.310123 0)
(3.10841 -0.30904 0)
(3.10745 -0.305433 0)
(3.10403 -0.294645 0)
(3.09903 -0.27511 0)
(3.08539 -0.227216 0)
(3.0806 -0.192612 0)
(3.05674 -0.0993967 0)
(3.06119 -0.07881 0)
(3.0429 -0.0116822 0)
(3.0391 -0.0029633 0)
(3.03542 0.0203866 0)
(3.03007 0.0111714 0)
(3.02762 0.000437551 0)
(3.02835 -0.00421286 0)
(3.02872 -0.00443266 0)
(3.02988 -0.00336424 0)
(3.0318 2.68456e-06 0)
(3.03212 0.00101194 0)
(3.03196 0.000119354 0)
(3.03154 -0.00154929 0)
(3.03267 -0.00266098 0)
(3.03324 -0.00256614 0)
(3.03418 -0.00127751 0)
(3.03541 -0.0012306 0)
(3.03575 -0.00167447 0)
(3.03654 -0.00255012 0)
(3.03724 -0.00268218 0)
(3.03808 -0.00239001 0)
(3.03907 -0.00179244 0)
(3.04012 -0.00191049 0)
(3.04094 -0.00208842 0)
(3.0419 -0.00200951 0)
(3.04292 -0.00191923 0)
(3.04402 -0.00186456 0)
(3.04517 -0.00220091 0)
(3.04636 -0.00220785 0)
(3.04735 -0.00202655 0)
(3.04895 -0.0018911 0)
(3.04998 -0.00192435 0)
(3.0507 -0.00202467 0)
(3.05149 -0.00173064 0)
(3.05254 -0.00191054 0)
(3.05342 -0.00174101 0)
(3.05425 -0.00133262 0)
(3.096 -0.307605 0)
(3.09612 -0.307622 0)
(3.09628 -0.307476 0)
(3.09643 -0.307428 0)
(3.09658 -0.307543 0)
(3.09672 -0.307631 0)
(3.09688 -0.307589 0)
(3.09704 -0.307591 0)
(3.09719 -0.307701 0)
(3.09738 -0.307663 0)
(3.09757 -0.307625 0)
(3.09776 -0.307684 0)
(3.09795 -0.30768 0)
(3.09814 -0.307849 0)
(3.09829 -0.308014 0)
(3.09852 -0.307904 0)
(3.09874 -0.307863 0)
(3.09896 -0.307958 0)
(3.09916 -0.308081 0)
(3.09936 -0.308159 0)
(3.09959 -0.308181 0)
(3.09983 -0.308213 0)
(3.10005 -0.308276 0)
(3.10028 -0.308312 0)
(3.10051 -0.308346 0)
(3.10074 -0.308472 0)
(3.10096 -0.308597 0)
(3.10119 -0.308516 0)
(3.10143 -0.308625 0)
(3.10165 -0.308852 0)
(3.10189 -0.30887 0)
(3.1021 -0.308787 0)
(3.10234 -0.30906 0)
(3.10255 -0.309227 0)
(3.10279 -0.309226 0)
(3.10304 -0.30931 0)
(3.10326 -0.309428 0)
(3.10344 -0.309515 0)
(3.10362 -0.309746 0)
(3.1038 -0.309924 0)
(3.104 -0.309958 0)
(3.10421 -0.309966 0)
(3.10441 -0.310092 0)
(3.10462 -0.310151 0)
(3.10489 -0.310158 0)
(3.1052 -0.310147 0)
(3.10547 -0.3101 0)
(3.10575 -0.310281 0)
(3.10604 -0.310585 0)
(3.10631 -0.310755 0)
(3.10661 -0.310966 0)
(3.1069 -0.311165 0)
(3.10722 -0.311367 0)
(3.10775 -0.311097 0)
(3.10828 -0.310834 0)
(3.10868 -0.310534 0)
(3.1089 -0.310511 0)
(3.10926 -0.310823 0)
(3.10928 -0.310626 0)
(3.10898 -0.309094 0)
(3.10769 -0.303863 0)
(3.10414 -0.289128 0)
(3.09567 -0.259523 0)
(3.08649 -0.218142 0)
(3.07006 -0.149352 0)
(3.06471 -0.119965 0)
(3.05288 -0.064533 0)
(3.05792 -0.054857 0)
(3.04173 -0.0281692 0)
(3.03743 -0.0159683 0)
(3.03614 -0.00831896 0)
(3.03148 0.00101853 0)
(3.0316 0.0016486 0)
(3.0304 -5.28729e-05 0)
(3.02926 -0.00365443 0)
(3.03092 -0.00373663 0)
(3.03183 -0.00312617 0)
(3.03311 -0.00158528 0)
(3.03437 -0.00118384 0)
(3.03465 -0.00186662 0)