/*--------------------------------*- C++ -*----------------------------------*\
  =========                 |
  \\      /  F ield         | OpenFOAM: The Open Source CFD Toolbox
   \\    /   O peration     | Website:  https://openfoam.org
    \\  /    A nd           | Version:  7
     \\/     M anipulation  |
\*---------------------------------------------------------------------------*/
FoamFile
{
    version     2.0;
    format      ascii;
    class       volScalarField;
    location    "9";
    object      p;
}
// * * * * * * * * * * * * * * * * * * * * * * * * * * * * * * * * * * * * * //

dimensions      [1 -1 -2 0 0 0 0];

internalField   nonuniform List<scalar> 
90000
(
0.551824
0.563081
0.575257
0.587534
0.597965
0.607851
0.618125
0.628311
0.637803
0.647864
0.658832
0.671555
0.68538
0.700656
0.71636
0.732682
0.748671
0.765099
0.780951
0.797319
0.812793
0.828872
0.843832
0.859545
0.873869
0.88919
0.902615
0.917047
0.929073
0.942317
0.952688
0.964455
0.972758
0.982349
0.988346
0.994369
0.999285
1.00193
1.0025
1.00273
1.00206
1.00109
0.998741
0.993842
0.985118
0.976679
0.970554
0.969168
0.970203
0.973548
0.978584
0.984147
0.989559
0.993492
0.996703
0.996198
0.995855
0.995164
0.993618
0.991183
0.98771
0.985043
0.984814
0.986707
0.989783
0.993379
0.99783
0.999466
1.001
0.999735
0.997616
0.994244
0.989637
0.987708
0.988168
0.989586
0.991753
0.991706
0.991328
0.989931
0.988142
0.988694
0.990176
0.990398
0.991521
0.992801
0.993439
0.993903
0.993137
0.992673
0.99241
0.992098
0.992514
0.993341
0.993577
0.993781
0.993656
0.992769
0.992004
0.991139
0.542039
0.542389
0.54305
0.544242
0.54584
0.54761
0.550011
0.553089
0.556506
0.560175
0.564457
0.569311
0.57484
0.580966
0.588072
0.595882
0.604775
0.614304
0.625093
0.636409
0.649035
0.662052
0.676564
0.691283
0.707457
0.723627
0.7411
0.758237
0.776393
0.794218
0.812587
0.830601
0.848338
0.865907
0.882029
0.898809
0.911842
0.927184
0.937019
0.948014
0.954199
0.961453
0.964655
0.969633
0.978129
0.988444
0.994786
0.9995
1
0.999045
0.996987
0.994182
0.991027
0.988421
0.986469
0.985348
0.985575
0.98578
0.986562
0.988263
0.990922
0.993859
0.996916
0.999575
0.9991
0.997533
0.995681
0.992407
0.991517
0.991292
0.990867
0.99248
0.995962
0.995369
0.993689
0.991026
0.989065
0.986297
0.986743
0.98996
0.992244
0.992539
0.990829
0.989305
0.99014
0.993059
0.99494
0.994048
0.992148
0.990709
0.991612
0.993
0.993663
0.992837
0.992862
0.993704
0.993829
0.993334
0.992587
0.991471
0.542214
0.542193
0.542177
0.542237
0.542189
0.542121
0.542064
0.542028
0.541989
0.541958
0.54198
0.542075
0.542219
0.542422
0.542707
0.543093
0.54362
0.544458
0.545608
0.547039
0.548884
0.551153
0.554146
0.557789
0.562472
0.567923
0.57488
0.582765
0.592761
0.603762
0.617636
0.632474
0.650807
0.669846
0.692666
0.715912
0.74253
0.769472
0.79823
0.827315
0.855213
0.884303
0.90931
0.936235
0.951584
0.965147
0.971024
0.97717
0.979186
0.981159
0.981893
0.982839
0.983018
0.982303
0.980731
0.980803
0.981662
0.985064
0.989802
0.995105
0.999866
1.0032
1.00397
1.00263
0.998578
0.993611
0.988444
0.982542
0.981803
0.984458
0.990517
0.99619
0.99973
0.998982
0.995025
0.990085
0.984761
0.985506
0.988489
0.992173
0.993952
0.992507
0.990069
0.989204
0.990164
0.99238
0.993996
0.993546
0.992476
0.992216
0.992655
0.993253
0.993035
0.992543
0.992582
0.993076
0.993491
0.993371
0.992781
0.991571
0.541496
0.541504
0.541509
0.541491
0.541444
0.541371
0.541306
0.541256
0.541208
0.541161
0.54113
0.541118
0.541122
0.541139
0.541179
0.541222
0.541341
0.54136
0.541339
0.541298
0.54126
0.541258
0.541315
0.54141
0.541538
0.5417
0.541935
0.542257
0.542733
0.543399
0.544657
0.546499
0.549233
0.552753
0.557881
0.564266
0.573592
0.584709
0.600554
0.618166
0.64219
0.667675
0.700078
0.732882
0.76861
0.804677
0.836151
0.869107
0.891691
0.917038
0.930777
0.946954
0.954559
0.964347
0.966805
0.972813
0.979982
0.990154
0.995797
0.999892
1.00263
1.00307
1.0026
0.999677
0.995014
0.991071
0.987705
0.986338
0.988468
0.991499
0.995484
0.995372
0.994595
0.992335
0.989992
0.989355
0.990107
0.991863
0.992506
0.992284
0.991864
0.99154
0.991308
0.991704
0.99199
0.992398
0.992605
0.992672
0.992139
0.992313
0.992504
0.993151
0.993211
0.992723
0.99241
0.992742
0.993472
0.993579
0.993227
0.992083
0.541793
0.541792
0.541783
0.541751
0.541719
0.541693
0.541673
0.541653
0.541626
0.541608
0.541614
0.54163
0.54164
0.541644
0.541636
0.541624
0.541612
0.5416
0.541566
0.541526
0.541501
0.541501
0.541526
0.541575
0.541641
0.54171
0.541799
0.541942
0.542096
0.542332
0.542357
0.542428
0.542549
0.542687
0.542868
0.543123
0.543504
0.544063
0.544961
0.546537
0.549365
0.553425
0.560362
0.569422
0.584419
0.602455
0.629956
0.6599
0.699697
0.739864
0.78457
0.827843
0.866689
0.905927
0.932894
0.960056
0.970581
0.979986
0.985637
0.989372
0.99212
0.991678
0.987494
0.977465
0.978525
0.981823
0.98965
0.994825
0.997512
0.995815
0.995142
0.992197
0.988475
0.986097
0.987248
0.990905
0.995131
0.995708
0.994193
0.990684
0.988927
0.989583
0.991587
0.993768
0.99336
0.991873
0.990688
0.991107
0.992678
0.993417
0.993112
0.99258
0.992267
0.992445
0.992481
0.992476
0.992778
0.99317
0.993296
0.992576
0.541378
0.541376
0.541371
0.541359
0.541356
0.541366
0.541381
0.541398
0.541424
0.541454
0.54148
0.541516
0.541559
0.541596
0.541623
0.541646
0.541678
0.541722
0.541761
0.541809
0.541904
0.542008
0.542046
0.542094
0.542204
0.542378
0.542594
0.542762
0.542825
0.5429
0.543032
0.543165
0.543292
0.543448
0.543647
0.543833
0.544052
0.54431
0.544714
0.544894
0.545044
0.545217
0.545414
0.545699
0.546339
0.547502
0.549902
0.55384
0.561592
0.572806
0.592373
0.616851
0.653214
0.692695
0.742835
0.789872
0.834143
0.872024
0.900083
0.922548
0.937122
0.94879
0.954267
0.967489
0.98064
0.992016
1.00138
1.00219
1.00136
0.996791
0.987672
0.980847
0.981144
0.983709
0.990046
0.997448
0.998238
0.997509
0.994927
0.991816
0.989152
0.990227
0.992493
0.994864
0.994449
0.991805
0.989792
0.990071
0.991813
0.993891
0.994061
0.99297
0.991885
0.992146
0.992691
0.992735
0.99261
0.99281
0.992892
0.992531
0.540894
0.540899
0.540893
0.5409
0.54092
0.540947
0.540971
0.541005
0.541044
0.541076
0.541116
0.541191
0.541292
0.541377
0.541439
0.541499
0.541555
0.541615
0.541707
0.541911
0.542085
0.542141
0.542194
0.54233
0.542564
0.5428
0.542981
0.543106
0.543192
0.543334
0.54346
0.543523
0.543583
0.543664
0.543784
0.543951
0.544159
0.544335
0.544567
0.544871
0.545154
0.545346
0.545474
0.545572
0.545562
0.545517
0.545425
0.545424
0.545521
0.54586
0.546773
0.548781
0.552997
0.560331
0.57453
0.594738
0.628867
0.668481
0.720533
0.772539
0.827138
0.875215
0.917739
0.959545
0.97792
0.987688
0.996607
0.997306
0.99121
0.971618
0.971548
0.975205
0.983911
0.992698
0.996654
0.997687
0.996487
0.992942
0.988652
0.989344
0.991824
0.994218
0.994201
0.993802
0.992391
0.991229
0.990248
0.99101
0.9917
0.992538
0.992464
0.992413
0.992414
0.992386
0.992393
0.992313
0.992449
0.992706
0.993096
0.992867
0.540648
0.540706
0.540785
0.540875
0.540951
0.541
0.54105
0.541112
0.541171
0.541213
0.541268
0.541353
0.541467
0.541617
0.541747
0.541882
0.541976
0.542035
0.542222
0.542486
0.542573
0.54261
0.542708
0.542932
0.543186
0.543304
0.543383
0.543452
0.543522
0.543596
0.543615
0.54363
0.543657
0.543694
0.543777
0.543922
0.544066
0.544198
0.544389
0.544683
0.544975
0.54516
0.545289
0.54531
0.54525
0.545115
0.54495
0.544794
0.544636
0.544514
0.544471
0.544398
0.544269
0.544271
0.544463
0.54549
0.548327
0.554507
0.566417
0.58773
0.619556
0.663489
0.719613
0.772787
0.832421
0.872948
0.908714
0.932653
0.947647
0.956447
0.980071
0.991114
0.999234
1.00081
0.999766
0.992496
0.984104
0.985507
0.987629
0.993245
0.998724
0.998252
0.996178
0.991675
0.989425
0.989977
0.991482
0.993153
0.992739
0.991672
0.991013
0.991698
0.992747
0.99291
0.992543
0.99212
0.992117
0.992244
0.992587
0.992966
0.541807
0.541882
0.542014
0.542061
0.542067
0.542093
0.542172
0.542306
0.542426
0.542466
0.542505
0.542589
0.542712
0.542862
0.542956
0.542951
0.542962
0.543037
0.543224
0.543489
0.543575
0.543602
0.543672
0.543787
0.543834
0.543854
0.543853
0.543832
0.543825
0.543824
0.543826
0.543838
0.543874
0.54388
0.543871
0.543886
0.543954
0.544092
0.544296
0.544479
0.544615
0.544739
0.544786
0.544747
0.544604
0.544423
0.544287
0.544153
0.543994
0.543846
0.543664
0.543412
0.543106
0.5426
0.542212
0.542191
0.54228
0.542534
0.543092
0.544418
0.547234
0.55374
0.566705
0.590415
0.628903
0.683398
0.748619
0.812132
0.886662
0.942802
0.977581
0.986551
0.996237
0.995575
0.98569
0.969105
0.973177
0.981902
0.993248
1.00032
0.999876
0.996946
0.990997
0.989138
0.989485
0.991995
0.994149
0.993783
0.991934
0.989784
0.990142
0.99167
0.992625
0.992716
0.992485
0.992077
0.992007
0.992011
0.992238
0.992833
0.542488
0.542593
0.542694
0.542751
0.542793
0.542897
0.543113
0.54325
0.543266
0.54326
0.543266
0.543312
0.543375
0.543454
0.543571
0.543616
0.543687
0.543868
0.543944
0.543994
0.544056
0.544155
0.544263
0.544291
0.544273
0.544205
0.544102
0.544035
0.544015
0.544001
0.543976
0.543933
0.543861
0.543792
0.543728
0.543687
0.543697
0.543804
0.543911
0.543929
0.543944
0.543955
0.54392
0.543754
0.543472
0.543291
0.543147
0.542981
0.542849
0.542745
0.5426
0.542409
0.54212
0.541661
0.541287
0.541169
0.541167
0.541232
0.541424
0.541559
0.541613
0.541725
0.542142
0.543597
0.546991
0.557231
0.575262
0.61331
0.664537
0.736339
0.809186
0.859842
0.91568
0.933365
0.949247
0.965376
0.990148
1.00042
1.00082
1.00022
0.993183
0.986662
0.986937
0.989261
0.993724
0.996457
0.995816
0.992334
0.989703
0.989692
0.990779
0.991984
0.992442
0.992119
0.992015
0.992055
0.992004
0.991848
0.991975
0.992716
0.543399
0.543493
0.543543
0.543585
0.543641
0.543715
0.543811
0.54391
0.543977
0.544063
0.544164
0.544198
0.544212
0.544235
0.544288
0.544346
0.544383
0.544406
0.544451
0.544567
0.544686
0.544748
0.544768
0.544759
0.544708
0.544587
0.544431
0.544318
0.544256
0.544194
0.54412
0.544043
0.54394
0.54382
0.543777
0.543788
0.543754
0.543642
0.543483
0.543312
0.543191
0.543105
0.542914
0.542471
0.542101
0.541904
0.541758
0.541716
0.541719
0.541759
0.541774
0.541727
0.541558
0.541228
0.540852
0.540664
0.540652
0.540704
0.540794
0.540851
0.540981
0.541192
0.541209
0.541137
0.541113
0.541388
0.542244
0.545503
0.552702
0.57416
0.606371
0.669446
0.743233
0.819157
0.908521
0.957838
0.985573
0.994609
0.996652
0.986114
0.975531
0.978811
0.988103
0.996462
0.998401
0.997511
0.993235
0.988509
0.988853
0.990789
0.992695
0.992376
0.99138
0.991227
0.991798
0.992125
0.992035
0.991679
0.991817
0.992687
0.544092
0.544059
0.544038
0.544038
0.544037
0.544053
0.544176
0.544232
0.544231
0.544223
0.544237
0.544238
0.544218
0.544217
0.544225
0.544256
0.544335
0.544349
0.544354
0.544443
0.544493
0.544501
0.54453
0.544559
0.544515
0.544389
0.544339
0.544252
0.54415
0.544116
0.544087
0.543997
0.543839
0.543762
0.543701
0.543534
0.54329
0.543073
0.542876
0.542673
0.542478
0.542236
0.541757
0.541107
0.540893
0.540852
0.540827
0.540824
0.540888
0.541069
0.541232
0.54125
0.541199
0.541004
0.54069
0.540485
0.54043
0.540437
0.540491
0.540579
0.54072
0.540982
0.541315
0.541441
0.541452
0.54129
0.541251
0.541403
0.541774
0.542895
0.545541
0.554979
0.572939
0.619034
0.679814
0.763069
0.845175
0.889624
0.937104
0.946001
0.975608
0.987008
1.00007
1.00035
0.998494
0.991425
0.987504
0.988375
0.991566
0.994241
0.993837
0.991237
0.990072
0.990626
0.991549
0.992131
0.991638
0.991517
0.992166
0.99293
0.544454
0.544397
0.544323
0.544251
0.544204
0.544169
0.544115
0.544094
0.544144
0.54429
0.544425
0.544471
0.54446
0.544436
0.544405
0.544364
0.544356
0.544379
0.54441
0.54444
0.54449
0.544541
0.544594
0.54461
0.544565
0.544415
0.544265
0.544141
0.543964
0.543732
0.543506
0.543344
0.543294
0.543258
0.543125
0.542953
0.542831
0.542708
0.542548
0.542364
0.542143
0.541789
0.541224
0.540699
0.540535
0.540514
0.540505
0.540502
0.540566
0.540751
0.540966
0.541066
0.541045
0.541035
0.541017
0.540948
0.540788
0.540607
0.540535
0.540545
0.540659
0.540989
0.541494
0.541804
0.541846
0.541845
0.541812
0.541805
0.541881
0.542073
0.542271
0.542538
0.543282
0.546918
0.556257
0.58716
0.635664
0.718372
0.810142
0.89085
0.966402
0.981026
0.996875
0.993907
0.979908
0.979258
0.983976
0.992767
0.996556
0.995745
0.991868
0.989431
0.990046
0.991763
0.99189
0.991326
0.990807
0.991348
0.992904
0.993054
0.544777
0.544697
0.544615
0.544536
0.54445
0.544372
0.544325
0.544256
0.544107
0.543972
0.5439
0.543826
0.543781
0.543805
0.543857
0.543892
0.543894
0.543862
0.543724
0.543488
0.543403
0.543401
0.543402
0.543375
0.54322
0.542959
0.54279
0.5426
0.542493
0.542483
0.542495
0.542554
0.542713
0.542775
0.54272
0.542669
0.542642
0.542576
0.542455
0.542277
0.542014
0.541607
0.541081
0.540639
0.540464
0.540452
0.540461
0.540467
0.540519
0.540692
0.54091
0.541112
0.541438
0.541838
0.541955
0.541964
0.541924
0.54171
0.54132
0.541123
0.541099
0.541191
0.541605
0.542044
0.54214
0.542149
0.542123
0.542011
0.54194
0.541954
0.542007
0.542006
0.541968
0.541943
0.542157
0.543609
0.548798
0.568145
0.605053
0.680786
0.769331
0.842585
0.925094
0.935646
0.960225
0.976439
0.996181
0.998697
0.996474
0.99028
0.9881
0.989522
0.9933
0.993164
0.991522
0.98993
0.990373
0.992603
0.993289
0.992838
0.543247
0.543237
0.543222
0.54318
0.543065
0.542852
0.542743
0.542749
0.542801
0.542831
0.542839
0.542832
0.542778
0.542674
0.542624
0.542614
0.542592
0.542535
0.542373
0.542227
0.542162
0.542097
0.542021
0.541896
0.541567
0.54127
0.54122
0.541224
0.541292
0.541484
0.541687
0.541813
0.541913
0.542088
0.542487
0.542827
0.542881
0.542886
0.542873
0.542793
0.542563
0.542182
0.541754
0.541318
0.541028
0.541043
0.54112
0.541103
0.54111
0.541246
0.541493
0.541725
0.541994
0.542424
0.542777
0.54282
0.54282
0.542735
0.542339
0.541876
0.541781
0.541786
0.541975
0.542343
0.542443
0.542448
0.542406
0.542261
0.542076
0.54195
0.541926
0.541921
0.541891
0.5419
0.541924
0.541982
0.542115
0.542887
0.545651
0.558707
0.58548
0.655017
0.744276
0.837647
0.943492
0.969408
0.993048
0.991724
0.978644
0.979318
0.985462
0.995119
0.99553
0.993604
0.988731
0.989111
0.991786
0.99399
0.993238
0.991697
0.542522
0.542577
0.542598
0.542608
0.542591
0.54246
0.542269
0.542194
0.54222
0.542264
0.542271
0.542265
0.542223
0.542148
0.542065
0.541961
0.54178
0.54156
0.541462
0.541421
0.541355
0.541222
0.541072
0.54085
0.540474
0.54036
0.540356
0.540408
0.540586
0.540907
0.541212
0.54137
0.541479
0.541666
0.542
0.542361
0.542638
0.542782
0.542781
0.542713
0.542555
0.542313
0.541999
0.541598
0.541281
0.541302
0.541534
0.541699
0.541793
0.541884
0.541952
0.542017
0.542118
0.542417
0.543017
0.543223
0.543229
0.543201
0.542999
0.542649
0.54259
0.542589
0.542682
0.542787
0.542773
0.542777
0.542728
0.54259
0.542451
0.542314
0.542169
0.542102
0.542102
0.542174
0.542273
0.542366
0.542437
0.54242
0.542424
0.542697
0.544176
0.552705
0.573627
0.63782
0.722349
0.811733
0.912872
0.928054
0.955623
0.975496
0.997567
0.998821
0.994678
0.986981
0.987727
0.992265
0.994466
0.993758
0.990728
0.990797
0.542487
0.542504
0.542524
0.542539
0.542541
0.542537
0.542493
0.542419
0.542396
0.542386
0.542387
0.54238
0.54231
0.54217
0.542029
0.541901
0.541697
0.541429
0.541332
0.541316
0.541262
0.54115
0.541021
0.54076
0.540496
0.540446
0.540478
0.540727
0.540857
0.540949
0.541167
0.541441
0.541603
0.541752
0.541967
0.542216
0.54246
0.542721
0.54287
0.5428
0.542592
0.542371
0.542165
0.541886
0.541631
0.541664
0.541939
0.54239
0.542613
0.54261
0.542482
0.542377
0.542349
0.5424
0.542833
0.543377
0.543447
0.543442
0.543371
0.543112
0.543011
0.543009
0.543048
0.543054
0.542992
0.542837
0.542771
0.542767
0.542724
0.542703
0.542646
0.542554
0.542566
0.542698
0.542819
0.54289
0.542846
0.542707
0.542409
0.542312
0.542139
0.542122
0.542857
0.549382
0.567518
0.628004
0.714956
0.819719
0.936658
0.967695
0.992998
0.990623
0.972528
0.978601
0.99099
0.997696
0.995766
0.989506
0.988613
0.990929
0.543172
0.543178
0.543182
0.543183
0.543181
0.543166
0.543109
0.543079
0.543097
0.543103
0.543118
0.543125
0.543084
0.542925
0.542691
0.542483
0.542298
0.542138
0.542033
0.541953
0.541723
0.541562
0.54152
0.541422
0.541167
0.540837
0.540673
0.540632
0.540615
0.540647
0.540833
0.541247
0.54163
0.541843
0.541989
0.542143
0.542345
0.542605
0.542875
0.542877
0.542649
0.542329
0.542119
0.541932
0.54185
0.541956
0.542396
0.543057
0.543193
0.543194
0.543018
0.542585
0.542426
0.5424
0.542543
0.543119
0.543373
0.543388
0.543363
0.543105
0.542828
0.542822
0.542919
0.542933
0.542747
0.542386
0.542332
0.542482
0.542944
0.543162
0.543148
0.543101
0.543171
0.543306
0.543375
0.543342
0.543218
0.543065
0.542661
0.542224
0.541961
0.541795
0.541702
0.541823
0.542526
0.548242
0.565709
0.626941
0.713455
0.81282
0.907202
0.932866
0.953435
0.991126
0.998354
0.996961
0.986679
0.98569
0.98828
0.994187
0.543194
0.543214
0.543229
0.543241
0.54324
0.543207
0.543182
0.543185
0.543207
0.543212
0.543208
0.543234
0.543239
0.543125
0.542863
0.542808
0.542811
0.542797
0.542694
0.542416
0.542019
0.541933
0.541931
0.54183
0.541472
0.541033
0.540878
0.540797
0.54064
0.540575
0.540689
0.541119
0.541738
0.542068
0.542163
0.542219
0.542268
0.542392
0.542668
0.542781
0.542627
0.542396
0.542319
0.542261
0.54227
0.542435
0.543035
0.543495
0.54355
0.543557
0.54337
0.542755
0.542531
0.542496
0.542773
0.543163
0.5431
0.542847
0.542757
0.542604
0.542481
0.542515
0.542788
0.542952
0.542801
0.542218
0.542048
0.542222
0.542936
0.543468
0.543493
0.543456
0.543491
0.543516
0.543524
0.543462
0.543277
0.542804
0.542339
0.542134
0.54195
0.541933
0.542077
0.542279
0.542712
0.542864
0.543573
0.548927
0.567126
0.628135
0.717838
0.836218
0.940355
0.982304
0.993483
0.977735
0.972055
0.982243
0.995756
0.995607
0.542391
0.542454
0.542526
0.542606
0.542681
0.542742
0.542795
0.542868
0.542914
0.542929
0.542926
0.54295
0.542957
0.542789
0.542601
0.542599
0.542639
0.542612
0.542308
0.541766
0.541676
0.541715
0.541716
0.541535
0.541237
0.541067
0.540987
0.54107
0.541154
0.541146
0.541236
0.541679
0.542127
0.542196
0.542224
0.542349
0.542485
0.542437
0.54236
0.542368
0.542392
0.542407
0.542567
0.542622
0.542675
0.543021
0.543488
0.543526
0.543412
0.543377
0.543316
0.542818
0.542348
0.542213
0.542392
0.542667
0.542646
0.542219
0.541884
0.541846
0.541875
0.542046
0.542541
0.54328
0.543397
0.542943
0.542472
0.542559
0.543074
0.543538
0.543571
0.543515
0.543498
0.543454
0.543254
0.54277
0.542297
0.542102
0.54216
0.542157
0.542266
0.542658
0.542941
0.54297
0.543047
0.54307
0.543
0.542944
0.543463
0.548395
0.569991
0.632623
0.736048
0.8402
0.909227
0.941618
0.971387
1.00047
1.00023
0.991644
0.540387
0.540621
0.541053
0.541432
0.541474
0.541479
0.541541
0.54164
0.541691
0.541724
0.541744
0.54174
0.541747
0.541791
0.54186
0.542013
0.542044
0.541754
0.541067
0.540938
0.541021
0.541209
0.541175
0.541058
0.54116
0.54127
0.541458
0.542012
0.542336
0.542431
0.542654
0.542944
0.543
0.543013
0.543088
0.543253
0.543323
0.543242
0.542789
0.542201
0.542046
0.542066
0.54229
0.542317
0.542338
0.542528
0.542583
0.542132
0.541388
0.541288
0.541636
0.542251
0.542146
0.541727
0.5417
0.542231
0.542519
0.542348
0.541818
0.541614
0.541652
0.541907
0.542357
0.543157
0.543666
0.543597
0.543245
0.543099
0.543222
0.543447
0.543477
0.543377
0.54318
0.542859
0.542333
0.541714
0.541628
0.541778
0.542184
0.542598
0.542975
0.543223
0.543336
0.543358
0.5433
0.543239
0.542984
0.542356
0.541851
0.541924
0.542969
0.549462
0.578691
0.646937
0.754277
0.896819
0.962469
0.995664
0.988664
0.975612
0.53691
0.537081
0.537524
0.537573
0.537502
0.537552
0.537673
0.538192
0.539251
0.539443
0.539489
0.539615
0.539769
0.53986
0.539955
0.540003
0.539894
0.5397
0.539688
0.539681
0.539591
0.539278
0.538742
0.538221
0.5382
0.538463
0.539238
0.540482
0.54107
0.541354
0.541622
0.541844
0.541836
0.541766
0.541767
0.542011
0.542178
0.542157
0.541948
0.54165
0.541445
0.541215
0.540426
0.539978
0.540185
0.540585
0.540502
0.539352
0.53839
0.538344
0.538637
0.539644
0.540793
0.541054
0.541301
0.542116
0.542803
0.54287
0.542575
0.542102
0.542022
0.542109
0.54239
0.543087
0.543603
0.543572
0.543404
0.543322
0.543211
0.542918
0.542493
0.542187
0.54196
0.541733
0.541476
0.541325
0.541438
0.541886
0.542612
0.543232
0.543346
0.543305
0.543336
0.543376
0.543293
0.542857
0.542164
0.541654
0.541586
0.541665
0.542104
0.542717
0.544602
0.552487
0.589725
0.667752
0.781514
0.88599
0.926748
0.969702
0.531676
0.531585
0.531453
0.531251
0.531173
0.531179
0.531257
0.531601
0.532423
0.533716
0.53491
0.535535
0.535858
0.536315
0.536773
0.536827
0.536824
0.536847
0.536835
0.53663
0.535985
0.534845
0.533384
0.531928
0.531201
0.531383
0.532313
0.532846
0.532722
0.532486
0.53242
0.532562
0.532806
0.532864
0.533029
0.533575
0.534345
0.535262
0.536482
0.537322
0.537365
0.537194
0.536412
0.536027
0.536124
0.536721
0.537301
0.53734
0.53733
0.53764
0.538085
0.538076
0.538072
0.538336
0.539078
0.540558
0.541996
0.542344
0.542204
0.541977
0.541998
0.542135
0.542433
0.542667
0.542644
0.54262
0.542541
0.542283
0.54159
0.540657
0.540354
0.540462
0.540667
0.540869
0.541153
0.54146
0.541849
0.542371
0.543023
0.543347
0.543312
0.543224
0.543115
0.542954
0.542476
0.541715
0.541504
0.541551
0.541652
0.542112
0.543057
0.543519
0.543587
0.543774
0.545726
0.557226
0.605526
0.696296
0.833209
0.960192
0.524895
0.52478
0.524578
0.524534
0.52456
0.524687
0.524984
0.525526
0.526204
0.527238
0.528951
0.530151
0.53102
0.531538
0.531903
0.532647
0.534035
0.534683
0.534759
0.534702
0.533519
0.532326
0.53242
0.532159
0.530336
0.528117
0.527921
0.528081
0.527806
0.526654
0.526234
0.526135
0.526156
0.526405
0.526975
0.527716
0.528583
0.529736
0.531571
0.533742
0.534818
0.534882
0.534766
0.534285
0.533519
0.533439
0.533741
0.533881
0.533728
0.533612
0.534268
0.53474
0.534655
0.534627
0.534692
0.534817
0.535307
0.536423
0.537537
0.537691
0.537599
0.537524
0.537523
0.537114
0.536714
0.536698
0.536927
0.537571
0.538157
0.538528
0.538955
0.539649
0.5404
0.540973
0.541267
0.541568
0.541933
0.542441
0.542988
0.543053
0.542842
0.542337
0.541751
0.541317
0.540952
0.540991
0.541234
0.541936
0.542457
0.542888
0.54347
0.543657
0.54363
0.543325
0.542489
0.542701
0.545959
0.567057
0.622553
0.787876
0.526857
0.526815
0.526816
0.526862
0.526956
0.527198
0.527632
0.528212
0.528958
0.529977
0.531149
0.532109
0.532673
0.533056
0.533467
0.534218
0.535447
0.537038
0.538341
0.53862
0.538647
0.53873
0.538956
0.538633
0.536684
0.534873
0.535121
0.536526
0.536826
0.535879
0.533202
0.530813
0.529536
0.528829
0.528659
0.528834
0.529463
0.530985
0.534237
0.537847
0.538649
0.538524
0.538196
0.537459
0.537061
0.537022
0.537293
0.537031
0.536222
0.535348
0.535249
0.535749
0.535977
0.535845
0.53509
0.532783
0.530819
0.53068
0.53096
0.532198
0.53372
0.534028
0.533829
0.533076
0.532363
0.532226
0.532455
0.533306
0.534533
0.53539
0.5357
0.536665
0.538268
0.539413
0.539953
0.54068
0.540866
0.540586
0.540122
0.53968
0.539302
0.539301
0.539473
0.539849
0.540365
0.541107
0.542019
0.542653
0.543107
0.543264
0.543485
0.543507
0.543186
0.542382
0.541849
0.5419
0.542129
0.543462
0.549235
0.625658
0.542876
0.542095
0.541467
0.540935
0.540828
0.540869
0.541018
0.541253
0.541551
0.542017
0.542903
0.543417
0.543975
0.544783
0.54555
0.546237
0.547378
0.548651
0.549079
0.549096
0.549271
0.550378
0.551006
0.550796
0.550042
0.549971
0.550812
0.552263
0.552306
0.551678
0.549856
0.546496
0.542732
0.54025
0.538739
0.537704
0.537109
0.537278
0.538833
0.539722
0.539649
0.539848
0.540011
0.53922
0.53806
0.537606
0.5371
0.53608
0.534193
0.53265
0.532399
0.532953
0.534824
0.535703
0.535559
0.533396
0.529527
0.528661
0.528755
0.529714
0.532124
0.533759
0.53377
0.533059
0.531797
0.531334
0.531501
0.532125
0.532851
0.533944
0.536096
0.536781
0.536485
0.53622
0.53588
0.535608
0.535202
0.534943
0.535009
0.53516
0.535475
0.536075
0.537042
0.538217
0.539812
0.540995
0.541958
0.542445
0.54302
0.542947
0.542516
0.541955
0.541326
0.541273
0.541438
0.542144
0.542779
0.542934
0.543151
0.555133
0.568439
0.569031
0.569587
0.569486
0.567136
0.561383
0.559005
0.558949
0.559291
0.560248
0.56149
0.562534
0.562645
0.562259
0.561965
0.56222
0.562401
0.562335
0.561817
0.560436
0.557554
0.554801
0.554441
0.555223
0.556771
0.556748
0.556662
0.557475
0.560161
0.561537
0.56111
0.557638
0.553548
0.553118
0.554131
0.554991
0.55478
0.553081
0.54974
0.548171
0.548512
0.549477
0.549523
0.548089
0.544597
0.541782
0.540791
0.539996
0.538126
0.536179
0.536029
0.536651
0.538873
0.542942
0.545287
0.545014
0.542736
0.538152
0.534606
0.534269
0.534977
0.537192
0.540126
0.541331
0.54137
0.541035
0.539694
0.537307
0.536175
0.536363
0.537736
0.538073
0.537541
0.536102
0.534984
0.534402
0.533981
0.53351
0.533024
0.532982
0.533171
0.533794
0.534743
0.535757
0.536929
0.538605
0.539529
0.539735
0.539437
0.538885
0.538893
0.539221
0.539847
0.54116
0.541689
0.542479
0.542919
0.543012
0.5427
0.543451
0.617404
0.616956
0.612384
0.606913
0.606327
0.606371
0.60648
0.607622
0.610019
0.611026
0.611015
0.610861
0.610762
0.611215
0.611622
0.611426
0.610401
0.608391
0.606411
0.605155
0.603586
0.601075
0.59952
0.599403
0.599363
0.599237
0.598924
0.598572
0.598157
0.597568
0.595492
0.59056
0.588371
0.588586
0.588942
0.588726
0.588926
0.588458
0.58616
0.585236
0.585721
0.586953
0.587015
0.584923
0.582348
0.581552
0.580152
0.577785
0.575034
0.571193
0.566506
0.564079
0.563774
0.564614
0.565726
0.565878
0.565433
0.562795
0.558802
0.555588
0.553052
0.55148
0.550639
0.549957
0.549302
0.548193
0.546584
0.543502
0.539112
0.537139
0.53726
0.537366
0.536833
0.535707
0.53482
0.534384
0.534119
0.533866
0.533959
0.534474
0.535527
0.536919
0.538062
0.538055
0.537907
0.537309
0.536558
0.535578
0.534795
0.534895
0.535247
0.535824
0.537123
0.539087
0.540974
0.542107
0.542412
0.542085
0.541332
0.541755
0.666656
0.667107
0.666906
0.664986
0.659594
0.656343
0.655469
0.654748
0.653643
0.652967
0.652361
0.650822
0.650419
0.652313
0.655994
0.655778
0.652863
0.649964
0.646834
0.642504
0.640614
0.641484
0.642429
0.641992
0.642045
0.644174
0.645317
0.644511
0.6442
0.64412
0.64357
0.641686
0.636427
0.63436
0.634512
0.633783
0.631184
0.628054
0.624294
0.617682
0.612393
0.612004
0.612523
0.611987
0.610626
0.610703
0.61132
0.611199
0.609682
0.605436
0.602217
0.600332
0.596449
0.590163
0.586324
0.58313
0.580763
0.580621
0.580531
0.580191
0.579158
0.575628
0.568792
0.561463
0.55853
0.558718
0.560202
0.560715
0.559053
0.554087
0.548127
0.545834
0.545946
0.546256
0.546029
0.546018
0.546519
0.546722
0.546409
0.545429
0.544468
0.543528
0.542311
0.540549
0.538669
0.536869
0.535909
0.535137
0.534691
0.534927
0.535388
0.536623
0.538755
0.539594
0.539473
0.538406
0.53826
0.538435
0.539188
0.541173
0.726541
0.726844
0.72679
0.725231
0.723231
0.720969
0.716909
0.71554
0.715836
0.715664
0.714793
0.714665
0.715739
0.717167
0.716179
0.71246
0.711594
0.711124
0.708732
0.706052
0.704516
0.702607
0.700031
0.699366
0.699726
0.699923
0.69912
0.696648
0.693664
0.690516
0.689587
0.689458
0.688667
0.685998
0.684413
0.68436
0.685009
0.685006
0.682688
0.677651
0.674226
0.67262
0.671318
0.669815
0.667168
0.66206
0.656037
0.654695
0.654602
0.653731
0.650997
0.650292
0.649064
0.645014
0.641698
0.639329
0.634265
0.627582
0.625469
0.624393
0.622847
0.620803
0.617998
0.612939
0.605212
0.600537
0.599213
0.598692
0.596945
0.591584
0.584351
0.579031
0.575972
0.573015
0.569151
0.565604
0.561553
0.558099
0.554932
0.551453
0.54782
0.544456
0.542083
0.540671
0.539128
0.538364
0.537314
0.537658
0.53881
0.540276
0.540867
0.540979
0.540526
0.53903
0.53714
0.535674
0.535759
0.536094
0.5372
0.539505
0.78389
0.783538
0.783765
0.784587
0.784415
0.780163
0.77492
0.774507
0.775609
0.776861
0.776606
0.774438
0.7738
0.773788
0.770794
0.767261
0.766993
0.76624
0.76616
0.766153
0.765629
0.762996
0.760334
0.760155
0.760518
0.760498
0.759867
0.757323
0.754459
0.753931
0.75372
0.75286
0.750617
0.747132
0.74257
0.739568
0.737838
0.73406
0.72906
0.728119
0.727523
0.724754
0.721687
0.721419
0.720415
0.71791
0.713879
0.710036
0.707302
0.705045
0.701829
0.695679
0.687975
0.685492
0.685351
0.68445
0.680729
0.674934
0.67148
0.667134
0.658156
0.653805
0.6524
0.649986
0.646747
0.642214
0.635545
0.62801
0.622978
0.620491
0.617109
0.611837
0.605689
0.600554
0.595876
0.591457
0.587351
0.582856
0.578191
0.573947
0.569357
0.564908
0.562755
0.561578
0.559088
0.557474
0.555895
0.5546
0.553283
0.55144
0.548617
0.545149
0.540878
0.538256
0.536869
0.53572
0.53609
0.537437
0.540032
0.540181
0.851293
0.85017
0.85004
0.850307
0.850117
0.848054
0.846234
0.846241
0.846061
0.843971
0.841098
0.840927
0.841449
0.841317
0.840173
0.83737
0.835068
0.833072
0.832243
0.831775
0.831162
0.829696
0.826582
0.821738
0.820223
0.820299
0.820136
0.818373
0.815006
0.813178
0.812406
0.811214
0.808556
0.805914
0.803686
0.801957
0.801051
0.799803
0.797762
0.795162
0.792113
0.788057
0.782601
0.778825
0.776767
0.774456
0.771015
0.766904
0.762801
0.760603
0.758894
0.755898
0.751597
0.747176
0.743902
0.739018
0.730458
0.728361
0.728046
0.72564
0.718931
0.713044
0.708302
0.700861
0.696816
0.694528
0.691894
0.68589
0.67607
0.67174
0.67018
0.667268
0.660906
0.652976
0.646857
0.640992
0.635847
0.630074
0.623263
0.615588
0.608735
0.602276
0.594908
0.588134
0.582552
0.575859
0.569999
0.565036
0.560803
0.555673
0.550104
0.546225
0.544929
0.543261
0.543075
0.543788
0.545505
0.545151
0.543764
0.53989
0.924547
0.924216
0.922399
0.921854
0.921917
0.921241
0.917961
0.916404
0.916581
0.916432
0.915666
0.913974
0.911169
0.910796
0.910996
0.910387
0.907975
0.903995
0.902155
0.902254
0.902583
0.902314
0.899977
0.894472
0.892356
0.892509
0.892464
0.89107
0.886204
0.882844
0.882261
0.881682
0.879699
0.876028
0.872465
0.869415
0.866801
0.864413
0.861902
0.859412
0.85724
0.854903
0.848803
0.843157
0.840924
0.839987
0.837863
0.83286
0.826783
0.822887
0.820236
0.816813
0.811444
0.805886
0.802484
0.799049
0.793783
0.788265
0.783911
0.779455
0.771061
0.765436
0.762159
0.757889
0.752752
0.744252
0.735967
0.73037
0.725915
0.71983
0.712499
0.706068
0.700171
0.693408
0.686329
0.679267
0.671778
0.664374
0.657295
0.650514
0.643994
0.636975
0.629768
0.62234
0.614984
0.608249
0.601288
0.595229
0.589462
0.583925
0.578775
0.573131
0.571646
0.569399
0.565788
0.561245
0.556572
0.550362
0.544822
0.539907
1.00306
1.00273