/*--------------------------------*- C++ -*----------------------------------*\
  =========                 |
  \\      /  F ield         | OpenFOAM: The Open Source CFD Toolbox
   \\    /   O peration     | Website:  https://openfoam.org
    \\  /    A nd           | Version:  7
     \\/     M anipulation  |
\*---------------------------------------------------------------------------*/
FoamFile
{
    version     2.0;
    format      ascii;
    class       volScalarField;
    location    "8.5";
    object      p;
}
// * * * * * * * * * * * * * * * * * * * * * * * * * * * * * * * * * * * * * //

dimensions      [1 -1 -2 0 0 0 0];

internalField   nonuniform List<scalar> 
90000
(
0.224425
0.269894
0.313378
0.350464
0.379868
0.416156
0.458755
0.497988
0.543913
0.59465
0.644606
0.695484
0.743347
0.787897
0.823396
0.853268
0.870949
0.884893
0.888314
0.888162
0.884196
0.875559
0.868168
0.862625
0.861067
0.862406
0.862729
0.864763
0.867185
0.869838
0.870686
0.868619
0.867224
0.866534
0.867313
0.870384
0.873685
0.876714
0.879996
0.883428
0.886612
0.890702
0.893187
0.893138
0.891926
0.89059
0.890108
0.89088
0.891327
0.891291
0.891957
0.893297
0.895387
0.897411
0.897248
0.896297
0.895178
0.895121
0.895491
0.895874
0.896336
0.897007
0.897262
0.897126
0.897034
0.897435
0.898246
0.898867
0.899271
0.899483
0.899189
0.898377
0.897502
0.896553
0.895568
0.894345
0.893467
0.894073
0.895593
0.896353
0.895941
0.894303
0.892524
0.891347
0.890264
0.888713
0.887178
0.886709
0.886445
0.885231
0.884244
0.883881
0.883197
0.881584
0.880054
0.87821
0.876498
0.874745
0.873909
0.87275
0.176702
0.176658
0.176613
0.176566
0.176542
0.176968
0.178632
0.182003
0.188594
0.199714
0.217782
0.243227
0.279031
0.32273
0.377281
0.438314
0.504929
0.570949
0.635133
0.689268
0.741918
0.77831
0.81182
0.838805
0.859072
0.879563
0.888789
0.8974
0.895528
0.892556
0.886028
0.878633
0.879447
0.880496
0.880705
0.882849
0.881147
0.87977
0.880119
0.88254
0.886371
0.890831
0.892397
0.892598
0.892775
0.894642
0.896722
0.897996
0.897054
0.895838
0.894953
0.895114
0.89531
0.895785
0.896073
0.896647
0.897464
0.898574
0.898818
0.898107
0.89764
0.897325
0.897239
0.897219
0.897611
0.898298
0.898841
0.898827
0.898372
0.898127
0.897602
0.896604
0.89546
0.893923
0.892818
0.892748
0.892826
0.894707
0.896509
0.896149
0.895109
0.89364
0.89229
0.891339
0.889967
0.888462
0.887265
0.886905
0.886815
0.886178
0.884943
0.884472
0.883807
0.882212
0.880818
0.879501
0.877707
0.875695
0.874776
0.873034
0.17674
0.176742
0.176751
0.176765
0.176782
0.176801
0.176824
0.176761
0.176669
0.176576
0.176485
0.176401
0.176344
0.176173
0.176541
0.178359
0.184055
0.195597
0.216729
0.247665
0.290731
0.34684
0.409985
0.483464
0.553441
0.630486
0.696151
0.758312
0.808205
0.846973
0.870749
0.884356
0.892566
0.895812
0.895505
0.894342
0.888636
0.888253
0.886059
0.887599
0.889688
0.889792
0.887621
0.886472
0.887386
0.89121
0.894195
0.895643
0.895807
0.895816
0.896817
0.897283
0.896875
0.895395
0.894386
0.894422
0.895769
0.897271
0.897853
0.897843
0.897868
0.897409
0.896494
0.895878
0.896231
0.897312
0.898226
0.898378
0.898142
0.897861
0.897304
0.896423
0.895358
0.893926
0.893056
0.893199
0.89654
0.899987
0.900431
0.896925
0.893678
0.892345
0.892927
0.893672
0.892657
0.891448
0.890896
0.890722
0.889535
0.887551
0.885837
0.884703
0.883446
0.881979
0.880619
0.879146
0.877783
0.876461
0.87546
0.873
0.176862
0.176876
0.176889
0.1769
0.176913
0.17692
0.176922
0.176923
0.176937
0.17695
0.176973
0.176991
0.177018
0.177047
0.177049
0.177118
0.176899
0.176639
0.176391
0.176179
0.176048
0.175733
0.176948
0.182179
0.194952
0.218137
0.258652
0.311466
0.38718
0.471325
0.565874
0.654277
0.724202
0.79014
0.826577
0.85948
0.874606
0.883425
0.884584
0.891508
0.892897
0.890716
0.885756
0.888184
0.894235
0.898117
0.896988
0.894524
0.895476
0.898271
0.900692
0.900034
0.898087
0.895998
0.895895
0.89724
0.89862
0.89901
0.898874
0.898765
0.898729
0.898108
0.896529
0.895345
0.895546
0.89685
0.89806
0.898585
0.898814
0.898961
0.898985
0.899051
0.899138
0.898931
0.899109
0.900325
0.902247
0.902507
0.899898
0.895868
0.894211
0.894142
0.894656
0.895175
0.894716
0.894011
0.893454
0.892725
0.890455
0.888069
0.886225
0.885062
0.883792
0.882323
0.880705
0.8791
0.877558
0.876359
0.8755
0.873245
0.176953
0.176951
0.176952
0.176947
0.176946
0.176938
0.176937
0.176928
0.176926
0.17691
0.176905
0.17688
0.176873
0.176835
0.176825
0.176769
0.176751
0.176735
0.176764
0.176776
0.176823
0.176851
0.17684
0.176949
0.176638
0.176308
0.176083
0.175718
0.176353
0.180716
0.19561
0.227809
0.280361
0.35577
0.449834
0.549017
0.646763
0.728184
0.791576
0.83363
0.851707
0.867077
0.87443
0.886196
0.903015
0.898689
0.893534
0.889066
0.895245
0.900107
0.897988
0.893905
0.893456
0.895322
0.897922
0.898908
0.898107
0.897069
0.896856
0.896981
0.897158
0.896908
0.896287
0.896056
0.896508
0.897326
0.898188
0.899503
0.900714
0.901288
0.901491
0.902037
0.903129
0.904027
0.904288
0.904186
0.903683
0.901242
0.8983
0.895865
0.89475
0.894461
0.894794
0.895112
0.894754
0.894488
0.894322
0.893593
0.891369
0.88913
0.887498
0.885823
0.883623
0.881767
0.880216
0.878566
0.877196
0.875943
0.874947
0.872823
0.176931
0.176933
0.176929
0.176929
0.176923
0.176922
0.176912
0.176909
0.176897
0.176891
0.176875
0.176864
0.176846
0.176831
0.176816
0.176796
0.176785
0.176759
0.176745
0.1767
0.176686
0.176625
0.176623
0.176539
0.176528
0.176527
0.176602
0.176652
0.176719
0.176815
0.176598
0.17633
0.176268
0.175951
0.179448
0.192596
0.228293
0.287197
0.376129
0.480646
0.588206
0.68356
0.765351
0.81287
0.84938
0.8599
0.8754
0.886604
0.904834
0.909809
0.903042
0.896372
0.898352
0.901238
0.89895
0.895553
0.894486
0.896004
0.898111
0.899136
0.899642
0.899165
0.897934
0.898138
0.8991
0.899974
0.900861
0.901916
0.902524
0.902298
0.901777
0.901979
0.902972
0.9039
0.904395
0.904378
0.903102
0.900484
0.89705
0.894778
0.894273
0.895243
0.896157
0.896046
0.895406
0.895256
0.895105
0.893872
0.891282
0.889012
0.887388
0.885893
0.884098
0.882338
0.8807
0.879046
0.877822
0.876678
0.875737
0.873468
0.176938
0.176928
0.176917
0.176904
0.176889
0.176876
0.17686
0.176846
0.176827
0.176813
0.17679
0.176774
0.176747
0.176731
0.176703
0.17669
0.176661
0.176649
0.176618
0.176607
0.17658
0.176579
0.176566
0.176575
0.176582
0.176599
0.176617
0.176629
0.176654
0.176645
0.17665
0.176707
0.176761
0.176819
0.176882
0.176687
0.17652
0.176421
0.176428
0.182067
0.206102
0.254696
0.338379
0.442208
0.558904
0.663319
0.75787
0.824713
0.853665
0.874055
0.882931
0.894933
0.907041
0.911941
0.906806
0.899373
0.895573
0.895057
0.895009
0.895053
0.896421
0.898427
0.899816
0.901868
0.902666
0.901667
0.900834
0.901221
0.901874
0.901594
0.900695
0.900064
0.900089
0.900515
0.901167
0.901545
0.900343
0.89728
0.894755
0.894091
0.895125
0.896153
0.896014
0.895194
0.894846
0.894817
0.894584
0.893026
0.890662
0.889046
0.888093
0.886538
0.884648
0.882888
0.881324
0.87996
0.878766
0.877583
0.87585
0.87294
0.17673
0.176718
0.176708
0.176693
0.176682
0.176666
0.176655
0.176639
0.176629
0.176613
0.176601
0.176582
0.176571
0.176555
0.176547
0.176532
0.176524
0.176509
0.176503
0.176494
0.176491
0.176493
0.176498
0.176511
0.176526
0.176556
0.176578
0.176618
0.176644
0.176687
0.176707
0.176748
0.176732
0.17676
0.176707
0.17672
0.176725
0.176768
0.176783
0.176629
0.176461
0.176367
0.176191
0.179537
0.19687
0.246383
0.326634
0.446716
0.567227
0.686571
0.778977
0.851967
0.873263
0.890479
0.893579
0.900063
0.907098
0.906762
0.902113
0.897288
0.896161
0.895889
0.896929
0.900588
0.904879
0.905344
0.903802
0.90136
0.899639
0.898376
0.897519
0.897601
0.89766
0.897444
0.89747
0.897077
0.895188
0.89267
0.89151
0.89245
0.894529
0.895322
0.894348
0.892206
0.891021
0.890583
0.890419
0.889258
0.888261
0.888129
0.887265
0.885352
0.883265
0.881572
0.880229
0.878881
0.877726
0.87649
0.874785
0.872523
0.176653
0.176647
0.176638
0.17663
0.17662
0.176612
0.176602
0.176594
0.176586
0.17658
0.176571
0.176561
0.176554
0.17655
0.176549
0.176547
0.176547
0.176546
0.17655
0.176553
0.176565
0.176576
0.1766
0.176619
0.176658
0.176688
0.176736
0.176763
0.176804
0.176816
0.17684
0.176833
0.176835
0.17682
0.176808
0.176801
0.176778
0.176771
0.176709
0.176678
0.176629
0.176607
0.176578
0.176488
0.176413
0.176435
0.176415
0.180508
0.200894
0.257975
0.361139
0.498743
0.625802
0.751652
0.82462
0.883282
0.890675
0.897599
0.899363
0.900507
0.902313
0.90039
0.8989
0.900724
0.902909
0.902053
0.902079
0.89999
0.897691
0.896538
0.896189
0.896625
0.896552
0.896248
0.896066
0.895479
0.893809
0.891852
0.891874
0.893686
0.89587
0.895765
0.893847
0.890984
0.889219
0.888955
0.888399
0.886759
0.885545
0.885993
0.886324
0.885033
0.883376
0.881945
0.880678
0.879073
0.87786
0.876689
0.875272
0.873356
0.176578
0.176571
0.176566
0.176564
0.176561
0.176557
0.176553
0.176551
0.176549
0.17655
0.176549
0.176551
0.176552
0.176559
0.176566
0.176579
0.176589
0.176604
0.176615
0.176635
0.176652
0.17668
0.176703
0.176739
0.176772
0.176813
0.176843
0.176874
0.17689
0.176895
0.176892
0.176877
0.176858
0.176828
0.176806
0.176771
0.176752
0.176719
0.176691
0.176657
0.176615
0.176587
0.176555
0.176572
0.176604
0.176693
0.176772
0.17679
0.176787
0.176815
0.176768
0.18518
0.224969
0.30756
0.450277
0.615581
0.734867
0.830025
0.87397
0.895345
0.901385
0.898928
0.899059
0.901949
0.902501
0.89999
0.898347
0.894111
0.892186
0.892514
0.893283
0.893842
0.89307
0.892305
0.892117
0.891673
0.890784
0.890764
0.892999
0.896254
0.896216
0.894966
0.893046
0.890878
0.888485
0.886641
0.88486
0.883425
0.883362
0.885108
0.886463
0.885288
0.884061
0.882837
0.881636
0.88017
0.879029
0.877568
0.876041
0.873656
0.176648
0.176646
0.176647
0.176647
0.176649
0.176651
0.176657
0.176662
0.176671
0.176678
0.176689
0.176699
0.176713
0.176726
0.176742
0.176759
0.17678
0.176797
0.176816
0.176833
0.176855
0.176877
0.176901
0.176925
0.176952
0.176978
0.176995
0.177004
0.176999
0.176985
0.176959
0.17693
0.176892
0.176856
0.176817
0.176781
0.176751
0.17672
0.176696
0.17667
0.176661
0.176659
0.176688
0.176727
0.176775
0.176842
0.176889
0.176941
0.176948
0.176932
0.176902
0.176838
0.176778
0.176695
0.181362
0.21086
0.302786
0.440978
0.612649
0.74464
0.854942
0.87378
0.892475
0.898663
0.892441
0.890306
0.89501
0.891613
0.891572
0.892925
0.895033
0.895746
0.894587
0.89315
0.89255
0.8921
0.892189
0.894552
0.898099
0.898523
0.895989
0.892734
0.890728
0.889379
0.888089
0.88636
0.884343
0.883278
0.883651
0.885502
0.885774
0.884785
0.883842
0.883018
0.881804
0.880441
0.879227
0.877528
0.875968
0.873577
0.176653
0.176659
0.176667
0.176677
0.176687
0.176699
0.176712
0.176726
0.176741
0.176757
0.176773
0.176791
0.176808
0.176826
0.176841
0.176856
0.176872
0.176886
0.176899
0.176909
0.17692
0.17693
0.176942
0.17695
0.176958
0.176962
0.17696
0.176947
0.176926
0.176894
0.176856
0.176812
0.176767
0.176725
0.176687
0.176657
0.176635
0.176623
0.176619
0.176633
0.176663
0.17671
0.176771
0.176823
0.176872
0.176912
0.176939
0.176941
0.176913
0.176859
0.176805
0.176751
0.1767
0.176643
0.176593
0.176602
0.176628
0.179663
0.213421
0.309912
0.470515
0.650868
0.796226
0.867006
0.866713
0.890032
0.904464
0.897721
0.901874
0.901997
0.902956
0.90349
0.901505
0.900272
0.899275
0.898512
0.899074
0.901925
0.902598
0.899039
0.894295
0.891194
0.890023
0.889678
0.888756
0.886584
0.884395
0.883995
0.884989
0.886047
0.885294
0.884186
0.883734
0.883253
0.881784
0.880332
0.878977
0.877157
0.875568
0.873595
0.176727
0.176743
0.17676
0.176778
0.176797
0.176814
0.176832
0.176848
0.176866
0.176883
0.176898
0.176913
0.176927
0.176939
0.176948
0.176954
0.176958
0.176959
0.176957
0.176956
0.176954
0.176952
0.176948
0.176942
0.176934
0.176922
0.176904
0.176878
0.176846
0.176807
0.176765
0.176721
0.17668
0.176644
0.17662
0.176606
0.176607
0.176623
0.176656
0.176708
0.176775
0.176851
0.17692
0.176964
0.176991
0.177004
0.176985
0.176953
0.176924
0.176853
0.17678
0.176722
0.176669
0.176623
0.176626
0.176678
0.176797
0.176893
0.17698
0.176973
0.182567
0.235506
0.358295
0.539046
0.710927
0.843289
0.886596
0.895952
0.911182
0.910758
0.91016
0.908371
0.905361
0.904828
0.904307
0.903739
0.905136
0.906038
0.903277
0.897929
0.892359
0.890858
0.892026
0.893274
0.89265
0.890363
0.888221
0.888562
0.88926
0.887504
0.885132
0.8841
0.884101
0.883452
0.881906
0.880384
0.878849
0.877028
0.875489
0.873921
0.176851
0.176865
0.176882
0.176902
0.176922
0.176941
0.176958
0.17697
0.176979
0.176986
0.176988
0.176991
0.176992
0.17699
0.176983
0.176975
0.176966
0.176957
0.176942
0.176925
0.176907
0.17689
0.176873
0.176854
0.176835
0.176814
0.176786
0.176755
0.176719
0.176683
0.176646
0.176614
0.176591
0.176579
0.176583
0.176604
0.176641
0.176693
0.176756
0.176829
0.176908
0.176977
0.177019
0.177032
0.177033
0.177018
0.176968
0.176918
0.176874
0.176787
0.176705
0.176657
0.176622
0.176622
0.176679
0.17676
0.176898
0.176993
0.177015
0.177014
0.176963
0.176835
0.176663
0.193552
0.278486
0.438181
0.633394
0.780985
0.883059
0.893842
0.90556
0.908042
0.906597
0.906607
0.905346
0.903773
0.905176
0.905694
0.901112
0.893237
0.891474
0.893107
0.895512
0.897403
0.897035
0.895451
0.894444
0.895081
0.89367
0.888983
0.885325
0.884803
0.88501
0.883783
0.882121
0.880628
0.878895
0.877056
0.875612
0.87441
0.177012
0.177017
0.177022
0.177029
0.177035
0.177043
0.177051
0.177056
0.177057
0.177053
0.177045
0.177035
0.177025
0.17701
0.17699
0.176966
0.176942
0.176918
0.176893
0.176869
0.176845
0.176823
0.176801
0.176778
0.176754
0.176728
0.176699
0.17667
0.176643
0.176621
0.176604
0.176597
0.176604
0.176624
0.176661
0.176711
0.176771
0.176838
0.176905
0.17697
0.177029
0.177065
0.177071
0.177053
0.177037
0.177027
0.176975
0.17691
0.176829
0.176739
0.176684
0.176659
0.176666
0.176727
0.176804
0.176906
0.17701
0.177028
0.177022
0.177009
0.176933
0.176747
0.176632
0.176592
0.176612
0.180157
0.231225
0.371655
0.577774
0.728399
0.843087
0.880583
0.891785
0.904057
0.902434
0.900112
0.90048
0.898442
0.890953
0.889457
0.893054
0.896006
0.896992
0.898268
0.898648
0.89832
0.898867
0.898614
0.89559
0.889176
0.886018
0.8862
0.885963
0.884181
0.882214
0.880759
0.878937
0.877097
0.875806
0.874736
0.177067
0.177069
0.177069
0.177068
0.177065
0.177061
0.177056
0.177047
0.177034
0.177018
0.176998
0.176977
0.176957
0.176935
0.176909
0.176883
0.176856
0.176826
0.176796
0.176766
0.176741
0.176717
0.176693
0.176671
0.176653
0.176638
0.176627
0.176619
0.176618
0.176627
0.176645
0.176677
0.176719
0.176767
0.176821
0.176875
0.176925
0.176969
0.177006
0.177032
0.177048
0.177041
0.177017
0.176986
0.176966
0.17695
0.1769
0.176831
0.176739
0.176694
0.176684
0.176719
0.176796
0.176897
0.176966
0.177032
0.177044
0.177003
0.176973
0.176915
0.176782
0.176642
0.176584
0.176598
0.176734
0.176892
0.177131
0.177192
0.201762
0.319185
0.515691
0.716962
0.81836
0.879421
0.884065
0.881401
0.890339
0.886312
0.883532
0.889186
0.89702
0.896989
0.896771
0.897549
0.89812
0.898099
0.899885
0.899692
0.895498
0.888995
0.88694
0.887469
0.886316
0.883939
0.881886
0.880616
0.878792
0.876983
0.876002
0.874861
0.177034
0.177026
0.177017
0.177006
0.176996
0.176985
0.176971
0.176955
0.176937
0.176916
0.176894
0.176869
0.176846
0.17683
0.176804
0.176772
0.176742
0.176715
0.176691
0.176668
0.17665
0.176634
0.176618
0.176608
0.176609
0.176621
0.176641
0.176666
0.1767
0.176742
0.176787
0.176841
0.176898
0.176942
0.176979
0.177008
0.177025
0.177035
0.177037
0.177023
0.177001
0.176974
0.176938
0.176908
0.176889
0.176861
0.176812
0.176753
0.17672
0.176732
0.176784
0.176885
0.177008
0.177078
0.177102
0.177082
0.177048
0.176996
0.176909
0.17681
0.17669
0.176622
0.176628
0.176742
0.177017
0.177231
0.177317
0.177335
0.177232
0.17692
0.189779
0.285216
0.482744
0.705977
0.830519
0.860959
0.891313
0.883396
0.886173
0.89807
0.89965
0.895379
0.891259
0.89006
0.890692
0.893178
0.897426
0.896575
0.890588
0.887208
0.888149
0.888162
0.886205
0.883065
0.881408
0.880461
0.878655
0.87684
0.876267
0.874915
0.176873
0.176862
0.176849
0.176836
0.176826
0.176813
0.176795
0.176785
0.176771
0.176749
0.176731
0.176719
0.176698
0.176678
0.176663
0.176649
0.17664
0.176632
0.176622
0.176616
0.176616
0.176624
0.176644
0.176672
0.176709
0.176757
0.17681
0.176854
0.176906
0.17696
0.176997
0.177032
0.177067
0.177075
0.177072
0.177067
0.177049
0.177026
0.177008
0.176961
0.176914
0.176873
0.176826
0.17679
0.176758
0.176737
0.176735
0.176756
0.176797
0.176871
0.17698
0.177108
0.177176
0.177202
0.177168
0.177087
0.17699
0.176855
0.176774
0.176704
0.176637
0.176672
0.17678
0.177035
0.177319
0.177375
0.177348
0.177271
0.177048
0.176766
0.176647
0.176639
0.186175
0.262954
0.467866
0.696298
0.855993
0.873171
0.899445
0.909758
0.901472
0.889232
0.882228
0.881295
0.881328
0.884311
0.888583
0.88699
0.883806
0.885832
0.889069
0.88841
0.884972
0.882091
0.881249
0.880454
0.878673
0.8771
0.876864
0.875071
0.176732
0.176718
0.176707
0.176698
0.17669
0.176682
0.176672
0.176662
0.176654
0.176649
0.176644
0.176639
0.176637
0.176639
0.176646
0.176653
0.176666
0.176686
0.176708
0.176741
0.176774
0.176808
0.176859
0.176914
0.176959
0.177015
0.177067
0.177103
0.177144
0.177171
0.17718
0.177183
0.177174
0.177148
0.177116
0.177086
0.177041
0.177
0.176973
0.176924
0.176861
0.176825
0.176772
0.176728
0.176707
0.176725
0.17678
0.176859
0.176964
0.177088
0.177204
0.177268
0.17727
0.177237
0.177161
0.177043
0.176889
0.176764
0.176702
0.176653
0.176679
0.176823
0.177045
0.177362
0.177466
0.177427
0.177348
0.177141
0.176833
0.176656
0.17666
0.176744
0.177
0.177108
0.18488
0.266695
0.464451
0.689206
0.866241
0.893097
0.895688
0.884288
0.880159
0.878782
0.878025
0.881372
0.883384
0.881007
0.880869
0.885744
0.889756
0.887793
0.883595
0.881309
0.881627
0.880823
0.878922
0.877752
0.877414
0.875437
0.176646
0.17664
0.176637
0.176635
0.176635
0.176637
0.176642
0.17665
0.176664
0.176683
0.176706
0.176732
0.176757
0.176786
0.176823
0.17686
0.176902
0.176939
0.176972
0.177019
0.177064
0.1771
0.177146
0.177185
0.177212
0.177238
0.177261
0.177272
0.177268
0.177258
0.17724
0.17721
0.177166
0.177114
0.177074
0.17703
0.176972
0.176931
0.176893
0.176826
0.176761
0.176712
0.176685
0.176692
0.176727
0.176819
0.176965
0.17709
0.177225
0.177297
0.17732
0.177298
0.177255
0.177189
0.177054
0.176895
0.176785
0.1767
0.17665
0.176665
0.176821
0.177105
0.177376
0.177542
0.177516
0.177417
0.177172
0.176899
0.176678
0.176659
0.176736
0.177001
0.17731
0.17738
0.177271
0.176949
0.183249
0.272399
0.485569
0.705305
0.830816
0.877618
0.889235
0.891047
0.885843
0.885428
0.882413
0.879102
0.881363
0.890519
0.89037
0.886139
0.882223
0.881551
0.882396
0.881395
0.87942
0.878731
0.877803
0.875646
0.176677
0.17669
0.176705
0.176726
0.176747
0.176768
0.176797
0.176829
0.176862
0.176897
0.176939
0.176979
0.177016
0.177053
0.177084
0.17712
0.177154
0.177176
0.1772
0.177224
0.177242
0.17726
0.177276
0.177288
0.177295
0.177291
0.177288
0.177285
0.177271
0.177236
0.177187
0.177133
0.177068
0.177012
0.17696
0.176909
0.176874
0.176844
0.176809
0.176771
0.176744
0.176747
0.176782
0.176845
0.176951
0.177105
0.177225
0.177322
0.177397
0.177394
0.177359
0.177274
0.177156
0.177062
0.17694
0.176798
0.176727
0.176686
0.176714
0.176854
0.177215
0.177482
0.177631
0.177603
0.177462
0.177221
0.176966
0.176734
0.176675
0.176709
0.176955
0.177358
0.177525
0.177459
0.177181
0.176892
0.176815
0.176869
0.187154
0.293016
0.517466
0.767941
0.877454
0.900305
0.897496
0.900256
0.890236
0.883371
0.890713
0.89599
0.89108
0.884167
0.881887
0.882993
0.882932
0.881648
0.879862
0.879651
0.878385
0.875868
0.176963
0.17699
0.17702
0.177048
0.17708
0.177106
0.17713
0.177156
0.177185
0.177213
0.177231
0.177247
0.177269
0.177287
0.177296
0.177295
0.17729
0.177288
0.177289
0.177288
0.177284
0.177282
0.177285
0.177268
0.177247
0.17724
0.177213
0.177156
0.1771
0.177043
0.176992
0.176941
0.1769
0.176874
0.176847
0.176821
0.176817
0.176825
0.17685
0.176891
0.176951
0.177028
0.177102
0.177179
0.177265
0.177352
0.177405
0.17743
0.17742
0.177345
0.177225
0.177073
0.176979
0.176922
0.176855
0.176767
0.176774
0.176872
0.177043
0.177385
0.177686
0.177776
0.177735
0.177552
0.177259
0.177046
0.176827
0.176711
0.176738
0.17698
0.177428
0.177704
0.177669
0.177456
0.177108
0.176924
0.176998
0.177297
0.17748
0.17746
0.194766
0.321243
0.56939
0.798998
0.884982
0.905822
0.895022
0.892388
0.900723
0.897472
0.88774
0.882596
0.882854
0.884427
0.883397
0.881658
0.880391
0.880168
0.878879
0.876304
0.177318
0.177337
0.177342
0.177338
0.177343
0.177354
0.17736
0.177364
0.177376
0.177378
0.17737
0.177369
0.177364
0.177343
0.177321
0.177313
0.177301
0.177283
0.177262
0.177234
0.177217
0.177206
0.177178
0.17713
0.177107
0.177082
0.177033
0.176966
0.176929
0.176909
0.176886
0.176853
0.176822
0.176813
0.176825
0.17687
0.17695
0.177051
0.177157
0.177286
0.177414
0.177473
0.177494
0.177469
0.177441
0.177446
0.177429
0.177337
0.177277
0.177201
0.177078
0.176946
0.176889
0.176856
0.176835
0.176904
0.177119
0.177376
0.177626
0.177929
0.177973
0.1779
0.177733
0.177366
0.177117
0.17696
0.176797
0.176827
0.177064
0.177534
0.177906
0.177898
0.177746
0.177407
0.177126
0.177173
0.17743
0.177761
0.177815
0.177678
0.177559
0.177565
0.21381
0.371235
0.621866
0.838219
0.881688
0.89335
0.906963
0.898036
0.884182
0.883475
0.885018
0.884852
0.883527
0.881818
0.880997
0.880464
0.878912
0.876818
0.177526
0.177519
0.177511
0.177501
0.177487
0.17747
0.177455
0.177442
0.177425
0.177402
0.177369
0.177337
0.177301
0.177251
0.177201
0.177158
0.177108
0.177061
0.177031
0.177015
0.177008
0.177001
0.176989
0.176982
0.176981
0.176965
0.176928
0.176912
0.176884
0.176854
0.176849
0.176872
0.17694
0.177035
0.177133
0.177246
0.177391
0.177518
0.177647
0.177807
0.177847
0.177826
0.177768
0.177644
0.177473
0.177395
0.177283
0.177129
0.177106
0.177107
0.177043
0.176931
0.176885
0.17693
0.177107
0.177465
0.177849
0.178032
0.178203
0.178193
0.178079
0.177877
0.177566
0.177209
0.177063
0.176959
0.177039
0.177313
0.177744
0.17814
0.178155
0.178015
0.177703
0.177389
0.17737
0.177524
0.177897
0.178114
0.178032
0.177862
0.177865
0.17797
0.178214
0.178302
0.239481
0.441355
0.687202
0.849775
0.897876
0.876784
0.886093
0.886475
0.885649
0.884134
0.882833
0.881838
0.881311
0.880404
0.878715
0.877453
0.177497
0.17748
0.177458
0.177426
0.177401
0.177378
0.177346
0.177317
0.177291
0.177256
0.177218
0.177186
0.177154
0.177122
0.177088
0.177054
0.177024
0.176995
0.176967
0.176958
0.176953
0.176949
0.176948
0.176961
0.176992
0.177043
0.177102
0.177157
0.177217
0.177293
0.177376
0.177471
0.177604
0.177701
0.177771
0.177849
0.177897
0.177933
0.177995
0.178025
0.178006
0.177945
0.177859
0.177717
0.177539
0.177392
0.177214
0.177089
0.17707
0.177067
0.177083
0.177176
0.177384
0.177613
0.177946
0.178342
0.17846
0.178474
0.178428
0.178292
0.178011
0.177766
0.177426
0.177191
0.177175
0.177333
0.177697
0.178105
0.178435
0.178444
0.178285
0.177983
0.177686
0.177581
0.1777
0.178082
0.178409
0.178451
0.178259
0.178182
0.178257
0.178499
0.178706
0.178849
0.178892
0.183873
0.280974
0.515965
0.76715
0.832375
0.893823
0.889431
0.884394
0.882837
0.88215
0.881896
0.88161
0.880569
0.879036
0.878093
0.177376
0.177366
0.177338
0.177323
0.177321
0.177306
0.177274
0.177258
0.177241
0.177211
0.17719
0.177181
0.177174
0.177166
0.177162
0.177167
0.177174
0.177188
0.17721
0.177238
0.177277
0.17733
0.177403
0.17749
0.177581
0.177703
0.17783
0.177944
0.178036
0.178095
0.17814
0.17819
0.178221
0.178217
0.178212
0.178209
0.178175
0.17808
0.178032
0.178016
0.177969
0.177892
0.177782
0.177661
0.177567
0.177443
0.177268
0.177246
0.177293
0.177436
0.177692
0.178132
0.178403
0.17855
0.178764
0.178837
0.178756
0.17862
0.178414
0.178156
0.177974
0.177731
0.177428
0.177453
0.177672
0.178163
0.178587
0.17884
0.178799
0.178575
0.178237
0.177954
0.177919
0.178086
0.178561
0.178946
0.178963
0.178798
0.178559
0.178638
0.178972
0.179318
0.179444
0.179627
0.179817
0.179963
0.180093
0.201235
0.345137
0.619599
0.852056
0.86595
0.883421
0.882622
0.882725
0.882408
0.881987
0.88124
0.880029
0.878877
0.177539
0.177545
0.17755
0.177564
0.177585
0.177606
0.177622
0.177631
0.177654
0.177689
0.177693
0.177715
0.17776
0.177771
0.1778
0.177866
0.177882
0.177886
0.177925
0.178005
0.178065
0.178133
0.17822
0.178286
0.178351
0.178445
0.178518
0.178611
0.178653
0.17863
0.178613
0.178592
0.178532
0.178444
0.178378
0.178354
0.178313
0.178182
0.178025
0.177934
0.177891
0.177842
0.177756
0.177671
0.177616
0.177631
0.177702
0.177882
0.178161
0.178475
0.178844
0.179177
0.179217
0.179214
0.179155
0.178992
0.178808
0.178528
0.178252
0.178121
0.177967
0.177773
0.177888
0.178211
0.178766
0.179221
0.179383
0.179275
0.179029
0.178617
0.178246
0.17832
0.178623
0.179221
0.179697
0.17971
0.179582
0.179478
0.179671
0.18008
0.180449
0.1806
0.18086
0.181217
0.181369
0.181543
0.18194
0.182361
0.182567
0.241289
0.460404
0.695786
0.864142
0.867534
0.883334
0.884267
0.88406
0.882618
0.881092
0.879459
0.178324
0.178365
0.178416
0.178471
0.178525
0.178588
0.178636
0.178694
0.178787
0.178818
0.178843
0.178918
0.17896
0.178961
0.178982
0.17902
0.179025
0.179008
0.178994
0.178995
0.178984
0.178957
0.178933
0.178908
0.178884
0.178855
0.178827
0.178821
0.17883
0.178776
0.178687
0.178636
0.178516
0.178378
0.178356
0.178359
0.178304
0.178181
0.178064
0.17794
0.177885
0.177908
0.177982
0.178099
0.178307
0.178526
0.178778
0.179122
0.179367
0.179627
0.179832
0.179799
0.179647
0.179443
0.179176
0.178931
0.178676
0.178419
0.178344
0.17824
0.178307
0.178628
0.179151
0.179641
0.180132
0.180121
0.179982
0.179644
0.179268
0.179064
0.179232
0.179644
0.180331
0.180809
0.180787
0.180735
0.180657
0.180794
0.181205
0.181613
0.181775
0.182197
0.182511
0.182653
0.182909
0.183338
0.184047
0.184472
0.184859
0.185073
0.192335
0.314808
0.594607
0.777844
0.88196
0.875452
0.885122
0.883604
0.882665
0.880468
0.179432
0.179456
0.179487
0.179522
0.179549
0.179579
0.179612
0.179636
0.179655
0.179669
0.179671
0.179664
0.179646
0.179624
0.179594
0.179548
0.179517
0.179492
0.179452
0.179367
0.179304
0.179268
0.179196
0.179116
0.179061
0.178948
0.178824
0.178796
0.178763
0.178712
0.178664
0.178572
0.178457
0.178441
0.178476
0.178498
0.17849
0.178455
0.178467
0.178517
0.178647
0.178891
0.179178
0.179585
0.179952
0.18018
0.180368
0.18047
0.180478
0.180419
0.180312
0.180069
0.179672
0.17943
0.179191
0.17898
0.178917
0.179029
0.179288
0.179681
0.18019
0.18069
0.181001
0.18122
0.181178
0.181016
0.180663
0.180332
0.180437
0.180899
0.181527
0.182026
0.1824
0.18223
0.182159
0.182226
0.182447
0.18284
0.183293
0.183632
0.183956
0.18434
0.184595
0.184689
0.185006
0.185492
0.186256
0.186542
0.186896
0.18782
0.188482
0.188751
0.226351
0.429659
0.717638
0.814608
0.884288
0.880402
0.8835
0.88036
0.180025
0.17999
0.179963
0.17995
0.179942
0.179938
0.179934
0.179924
0.179909
0.179884
0.179845
0.179817
0.17977
0.179692
0.179661
0.179607
0.179514
0.1795
0.179485
0.179378
0.179343
0.179349
0.179285
0.179241
0.179234
0.179185
0.179082
0.179082
0.179114
0.179154
0.179222
0.179333
0.179482
0.179629
0.179766
0.179927
0.180161
0.180443
0.180671
0.180834
0.181008
0.181181
0.181333
0.18154
0.181621
0.181623
0.18157
0.181438
0.181243
0.181042
0.180778
0.180382
0.18028
0.180319
0.18046
0.1807
0.181069
0.181616
0.18214
0.18251
0.182714
0.182722
0.182589
0.18251
0.182413
0.182159
0.182181
0.182447
0.182904
0.183503
0.183947
0.184223
0.184107
0.18392
0.183977
0.184284
0.184896
0.1856
0.185796
0.186171
0.186573
0.186651
0.187052
0.187542
0.188082
0.18879
0.18939
0.190299
0.190717
0.191068
0.192056
0.192995
0.193536
0.199324
0.296399
0.553009
0.801037
0.848766
0.88186
0.879672
0.180814
0.180767
0.180711
0.180697
0.180734
0.180746
0.180687
0.18058
0.180503
0.180437
0.180374
0.180353
0.180347
0.180351
0.180361
0.180379
0.180414
0.18046
0.180511
0.180565
0.18064
0.180761
0.180893
0.181007
0.18111
0.181219
0.181337
0.181488
0.181695
0.181903
0.182129
0.18236
0.182601
0.182781
0.182899
0.183024
0.183175
0.183321
0.183313
0.183278
0.183276
0.183256
0.183156
0.183091
0.183079
0.182969
0.182772
0.182698
0.182633
0.182459
0.182409
0.182495
0.182665
0.182935
0.18329
0.183655
0.184042
0.184393
0.184577
0.184663
0.184625
0.184416
0.18435
0.184283
0.18429
0.184438
0.184863
0.185449
0.185922
0.186155
0.186279
0.186381
0.186366
0.186465
0.186802
0.187494
0.188129
0.188682
0.189031
0.189226
0.189737
0.19036
0.190918
0.191648
0.192669
0.193545
0.193761
0.194545
0.195301
0.195837
0.196652
0.197624
0.198459
0.199296
0.20009
0.234169
0.40488
0.667151
0.83379
0.868794
0.182231
0.182304
0.182384
0.182385
0.182392
0.182433
0.182489
0.18258
0.182636
0.182679
0.182732
0.182866
0.183054
0.183154
0.183257
0.183388
0.183527
0.183701
0.183895
0.184003
0.184106
0.184324
0.184514
0.1846
0.184695
0.184802
0.184895
0.185001
0.185194
0.18532
0.185377
0.18547
0.185553
0.18553
0.185453
0.18542
0.185391
0.185407
0.185343
0.185175
0.185183
0.18512
0.185032
0.185038
0.184978
0.184884
0.184851
0.184846
0.184829
0.184906
0.185139
0.185402
0.185696
0.18607
0.186398
0.18666
0.186892
0.18689
0.186871
0.186897
0.186933
0.187024
0.187185
0.187443
0.18773
0.188059
0.18842
0.188852
0.189346
0.189337
0.189352
0.189568
0.190197
0.190947
0.191554
0.192319
0.192696
0.193008
0.193757
0.194412
0.194882
0.195577
0.196124
0.19686
0.197691
0.198753
0.19949
0.199957
0.201214
0.202879
0.203674
0.204728
0.205538
0.206479
0.207601
0.207869
0.210178
0.303835
0.534055
0.799015
0.186529
0.18661
0.186773
0.186915
0.18692
0.18694
0.187007
0.187072
0.187161
0.187275
0.187375
0.187481
0.187617
0.187746
0.187851
0.187947
0.18802
0.188093
0.18821
0.188285
0.188304
0.188345
0.188404
0.188447
0.18847
0.188451
0.188398
0.188363
0.188294
0.188104
0.187988
0.187996
0.187969
0.18787
0.187748
0.18765
0.187582
0.187501
0.18735
0.187326
0.187313
0.187282
0.187326
0.187383
0.187441
0.187602
0.187797
0.188045
0.188306
0.18864
0.189054
0.189495
0.189976
0.190429
0.190782
0.190932
0.191115
0.191208
0.191189
0.191218
0.191417
0.191721
0.19207
0.192499
0.192944
0.193362
0.193664
0.19395
0.194433
0.195123
0.19572
0.196249
0.196789
0.197621
0.198407
0.198715
0.199341
0.199891
0.200386
0.201192
0.201746
0.202351
0.203335
0.204446
0.204973
0.205606
0.206794
0.207623
0.208332
0.209007
0.209823
0.210794
0.211967
0.212617
0.213276
0.214027
0.215092
0.215708
0.238056
0.524343