/*--------------------------------*- C++ -*----------------------------------*\
  =========                 |
  \\      /  F ield         | OpenFOAM: The Open Source CFD Toolbox
   \\    /   O peration     | Website:  https://openfoam.org
    \\  /    A nd           | Version:  7
     \\/     M anipulation  |
\*---------------------------------------------------------------------------*/
FoamFile
{
    version     2.0;
    format      ascii;
    class       volVectorField;
    location    "8.5";
    object      U;
}
// * * * * * * * * * * * * * * * * * * * * * * * * * * * * * * * * * * * * * //

dimensions      [0 1 -1 0 0 0 0];

internalField   nonuniform List<vector> 
90000
(
(2.0463 -0.909832 0)
(1.99587 -0.82867 0)
(1.96233 -0.728236 0)
(1.94296 -0.587002 0)
(1.94806 -0.525207 0)
(1.95322 -0.490566 0)
(1.93224 -0.377693 0)
(1.93803 -0.320715 0)
(1.93059 -0.255212 0)
(1.92938 -0.209785 0)
(1.91329 -0.134516 0)
(1.91292 -0.106003 0)
(1.89685 -0.0505873 0)
(1.89238 -0.033122 0)
(1.87801 0.0032905 0)
(1.87212 0.00903141 0)
(1.86685 0.0249888 0)
(1.86563 0.0263804 0)
(1.86424 0.0261076 0)
(1.86644 0.02699 0)
(1.86872 0.0283785 0)
(1.87286 0.0301614 0)
(1.87787 0.0340499 0)
(1.88098 0.038281 0)
(1.88117 0.0376578 0)
(1.88083 0.0348838 0)
(1.88097 0.0289974 0)
(1.87891 0.0196519 0)
(1.87817 0.010189 0)
(1.87667 0.000790795 0)
(1.87648 -0.00784444 0)
(1.87647 -0.0130687 0)
(1.87572 -0.0163174 0)
(1.87237 -0.0190749 0)
(1.87023 -0.0201307 0)
(1.86706 -0.0210245 0)
(1.86421 -0.0206315 0)
(1.86156 -0.0188393 0)
(1.85964 -0.0177771 0)
(1.85715 -0.015624 0)
(1.85495 -0.0136233 0)
(1.85231 -0.0140772 0)
(1.84856 -0.0154525 0)
(1.84713 -0.0164132 0)
(1.84573 -0.016875 0)
(1.84467 -0.0184085 0)
(1.84242 -0.0213257 0)
(1.8413 -0.0243417 0)
(1.83928 -0.0263801 0)
(1.83864 -0.0271594 0)
(1.83795 -0.0265096 0)
(1.837 -0.0251537 0)
(1.83608 -0.023977 0)
(1.83437 -0.0216179 0)
(1.83372 -0.0205872 0)
(1.83301 -0.0207691 0)
(1.83221 -0.0222363 0)
(1.83112 -0.0244637 0)
(1.82988 -0.0263417 0)
(1.82931 -0.0268167 0)
(1.82865 -0.0266405 0)
(1.82789 -0.0263736 0)
(1.8273 -0.0257496 0)
(1.82729 -0.0256474 0)
(1.82705 -0.0261605 0)
(1.8266 -0.027025 0)
(1.82596 -0.0275022 0)
(1.8253 -0.0272326 0)
(1.82484 -0.0264029 0)
(1.82473 -0.0253794 0)
(1.82487 -0.0245703 0)
(1.8248 -0.0237502 0)
(1.82467 -0.0228514 0)
(1.82505 -0.0219719 0)
(1.82587 -0.0210909 0)
(1.82685 -0.0208497 0)
(1.8276 -0.0214359 0)
(1.82755 -0.0233749 0)
(1.82743 -0.0257768 0)
(1.8279 -0.0277115 0)
(1.82998 -0.0279093 0)
(1.8313 -0.0275662 0)
(1.8329 -0.0275168 0)
(1.83445 -0.02766 0)
(1.83647 -0.0278393 0)
(1.83846 -0.027578 0)
(1.84048 -0.0273212 0)
(1.84195 -0.027503 0)
(1.84357 -0.0282402 0)
(1.84586 -0.0293083 0)
(1.8481 -0.0303103 0)
(1.85021 -0.0310938 0)
(1.85255 -0.0320934 0)
(1.8555 -0.0331483 0)
(1.85831 -0.0336423 0)
(1.86065 -0.0343179 0)
(1.86322 -0.034735 0)
(1.86571 -0.0361193 0)
(1.86789 -0.0377279 0)
(1.8716 -0.0395727 0)
(2.13271 -1.02768 0)
(2.13272 -1.02755 0)
(2.13274 -1.02745 0)
(2.13277 -1.02728 0)
(2.13272 -1.02709 0)
(2.13184 -1.02595 0)
(2.1288 -1.02074 0)
(2.12362 -1.01162 0)
(2.11412 -0.994634 0)
(2.09959 -0.967368 0)
(2.07799 -0.920249 0)
(2.05247 -0.866294 0)
(2.01719 -0.779902 0)
(1.98499 -0.700161 0)
(1.9424 -0.588421 0)
(1.91225 -0.501896 0)
(1.87006 -0.387297 0)
(1.85021 -0.314255 0)
(1.81668 -0.219738 0)
(1.80148 -0.15709 0)
(1.7905 -0.109865 0)
(1.77413 -0.0506557 0)
(1.77338 -0.0401337 0)
(1.76667 -0.0156977 0)
(1.76296 0.00251122 0)
(1.7622 -0.00059001 0)
(1.7616 0.00914755 0)
(1.76029 0.0168512 0)
(1.76669 0.0136683 0)
(1.77595 0.0135154 0)
(1.78342 0.0148971 0)
(1.79248 0.0152015 0)
(1.79387 0.0139504 0)
(1.79296 0.0096555 0)
(1.79315 0.00456638 0)
(1.79021 -0.00184713 0)
(1.7885 -0.00472436 0)
(1.78806 -0.00795328 0)
(1.78799 -0.00984328 0)
(1.78682 -0.0124312 0)
(1.78476 -0.0145359 0)
(1.7832 -0.0155307 0)
(1.78281 -0.0128382 0)
(1.78362 -0.0101982 0)
(1.7842 -0.00748818 0)
(1.78406 -0.00714201 0)
(1.78371 -0.00782295 0)
(1.7844 -0.0079305 0)
(1.78588 -0.00956532 0)
(1.78801 -0.0112405 0)
(1.78849 -0.0145289 0)
(1.7899 -0.0166872 0)
(1.79035 -0.0198168 0)
(1.79108 -0.0199934 0)
(1.79191 -0.0189128 0)
(1.79262 -0.0172289 0)
(1.79312 -0.0167479 0)
(1.7934 -0.0170009 0)
(1.79444 -0.0179804 0)
(1.79578 -0.0196448 0)
(1.79684 -0.0210475 0)
(1.79764 -0.0225232 0)
(1.79867 -0.0226636 0)
(1.79988 -0.0221241 0)
(1.80102 -0.0218508 0)
(1.80198 -0.0223575 0)
(1.80277 -0.023505 0)
(1.80364 -0.0244308 0)
(1.80463 -0.025294 0)
(1.80577 -0.0254456 0)
(1.80754 -0.02575 0)
(1.80925 -0.0255786 0)
(1.81077 -0.0252923 0)
(1.81285 -0.0251928 0)
(1.81493 -0.0247679 0)
(1.81725 -0.0240666 0)
(1.81913 -0.0242344 0)
(1.81997 -0.0260957 0)
(1.82069 -0.0282204 0)
(1.82249 -0.0293193 0)
(1.82522 -0.02904 0)
(1.82728 -0.0282067 0)
(1.82907 -0.027692 0)
(1.83083 -0.02803 0)
(1.83332 -0.027991 0)
(1.83571 -0.0275314 0)
(1.83776 -0.0277015 0)
(1.83946 -0.0284825 0)
(1.84115 -0.0293983 0)
(1.84377 -0.03047 0)
(1.84642 -0.0313976 0)
(1.84878 -0.032537 0)
(1.8512 -0.0334344 0)
(1.8539 -0.0339733 0)
(1.85655 -0.0341869 0)
(1.85893 -0.0351534 0)
(1.86143 -0.0353899 0)
(1.86414 -0.0364094 0)
(1.86649 -0.0384607 0)
(1.87112 -0.0407861 0)
(2.13208 -1.02678 0)
(2.13203 -1.02669 0)
(2.13191 -1.0267 0)
(2.13182 -1.02665 0)
(2.13168 -1.02671 0)
(2.13166 -1.02657 0)
(2.13146 -1.02675 0)
(2.13149 -1.02675 0)
(2.13163 -1.02631 0)
(2.13166 -1.02625 0)
(2.13182 -1.02579 0)
(2.13178 -1.02588 0)
(2.13197 -1.02538 0)
(2.1319 -1.02566 0)
(2.13128 -1.02477 0)
(2.1278 -1.01937 0)
(2.11837 -1.00433 0)
(2.10115 -0.975711 0)
(2.0724 -0.925078 0)
(2.03679 -0.853804 0)
(1.9958 -0.768591 0)
(1.94879 -0.652333 0)
(1.91261 -0.556071 0)
(1.87065 -0.443084 0)
(1.8338 -0.33143 0)
(1.82092 -0.270463 0)
(1.77033 -0.153633 0)
(1.76407 -0.119037 0)
(1.73388 -0.0580682 0)
(1.72267 -0.0333477 0)
(1.71663 -0.0142646 0)
(1.71562 -0.0050434 0)
(1.71985 -0.0097352 0)
(1.72665 -0.00876511 0)
(1.7366 -0.0052373 0)
(1.73974 -0.00490027 0)
(1.74626 -0.00665216 0)
(1.74857 -0.00962303 0)
(1.75126 -0.0122004 0)
(1.75111 -0.0154846 0)
(1.75079 -0.0172769 0)
(1.75413 -0.0187521 0)
(1.75847 -0.017972 0)
(1.76032 -0.0169823 0)
(1.76151 -0.0165191 0)
(1.76138 -0.0176631 0)
(1.76254 -0.0185494 0)
(1.76475 -0.0175555 0)
(1.76745 -0.0171674 0)
(1.76972 -0.0173248 0)
(1.77082 -0.0185546 0)
(1.7723 -0.0202771 0)
(1.77417 -0.0214824 0)
(1.77674 -0.0217512 0)
(1.7785 -0.0215728 0)
(1.77993 -0.0215009 0)
(1.78077 -0.0216417 0)
(1.78171 -0.0223773 0)
(1.78355 -0.0230376 0)
(1.78555 -0.0232561 0)
(1.78712 -0.0233488 0)
(1.78868 -0.0241101 0)
(1.79052 -0.0246227 0)
(1.79217 -0.0242288 0)
(1.79364 -0.0240069 0)
(1.79495 -0.0243335 0)
(1.79633 -0.0250589 0)
(1.79784 -0.0253298 0)
(1.79922 -0.0254001 0)
(1.80069 -0.0254014 0)
(1.80269 -0.0256372 0)
(1.80482 -0.025535 0)
(1.80679 -0.025277 0)
(1.80928 -0.0250486 0)
(1.81176 -0.0248268 0)
(1.81402 -0.0255922 0)
(1.8153 -0.0286771 0)
(1.81633 -0.032461 0)
(1.81853 -0.0334381 0)
(1.82138 -0.0314359 0)
(1.82412 -0.0279182 0)
(1.82598 -0.0268639 0)
(1.82771 -0.0284389 0)
(1.82948 -0.0302578 0)
(1.83231 -0.0304944 0)
(1.83456 -0.030242 0)
(1.83634 -0.0308098 0)
(1.83773 -0.0319063 0)
(1.83961 -0.0324714 0)
(1.84238 -0.0320986 0)
(1.84523 -0.032707 0)
(1.84815 -0.0331431 0)
(1.85131 -0.0330353 0)
(1.85438 -0.0333096 0)
(1.85734 -0.0339351 0)
(1.86008 -0.0346622 0)
(1.86274 -0.0358517 0)
(1.86584 -0.0376216 0)
(1.86881 -0.0388067 0)
(1.87452 -0.0398664 0)
(2.13142 -1.02648 0)
(2.13134 -1.02664 0)
(2.13141 -1.02653 0)
(2.13136 -1.02671 0)
(2.13147 -1.0266 0)
(2.13144 -1.02688 0)
(2.13166 -1.0267 0)
(2.13168 -1.02699 0)
(2.13198 -1.02679 0)
(2.13198 -1.0273 0)
(2.13241 -1.02708 0)
(2.13244 -1.02782 0)
(2.13308 -1.02745 0)
(2.13313 -1.02849 0)
(2.13402 -1.0279 0)
(2.13439 -1.02967 0)
(2.13511 -1.02849 0)
(2.13577 -1.02841 0)
(2.13678 -1.0276 0)
(2.13737 -1.02809 0)
(2.1386 -1.0273 0)
(2.13908 -1.02844 0)
(2.13777 -1.0258 0)
(2.12999 -1.0101 0)
(2.1136 -0.976232 0)
(2.08697 -0.925649 0)
(2.04343 -0.829723 0)
(2.0036 -0.735959 0)
(1.94471 -0.591932 0)
(1.90199 -0.470157 0)
(1.85868 -0.354267 0)
(1.81983 -0.244402 0)
(1.79246 -0.159831 0)
(1.7768 -0.107105 0)
(1.75455 -0.0424617 0)
(1.75186 -0.0408521 0)
(1.75137 -0.0256563 0)
(1.74906 -0.0174544 0)
(1.75013 -0.0116509 0)
(1.75067 -0.016446 0)
(1.75703 -0.0144341 0)
(1.76402 -0.0155789 0)
(1.76999 -0.0156313 0)
(1.76767 -0.0177775 0)
(1.76367 -0.02346 0)
(1.76301 -0.0293781 0)
(1.76807 -0.0284599 0)
(1.77169 -0.0249589 0)
(1.77274 -0.0231604 0)
(1.77253 -0.0234648 0)
(1.77152 -0.0255954 0)
(1.77517 -0.0250949 0)
(1.77717 -0.0240736 0)
(1.7802 -0.0232536 0)
(1.78119 -0.0238029 0)
(1.78174 -0.0254264 0)
(1.78256 -0.0268653 0)
(1.78447 -0.027987 0)
(1.78664 -0.027891 0)
(1.78856 -0.0272383 0)
(1.79 -0.0264055 0)
(1.7921 -0.026311 0)
(1.79382 -0.025442 0)
(1.7952 -0.0246367 0)
(1.79642 -0.024657 0)
(1.79752 -0.0255759 0)
(1.79914 -0.0267516 0)
(1.80102 -0.0270083 0)
(1.80251 -0.027064 0)
(1.80384 -0.0273258 0)
(1.80541 -0.0277222 0)
(1.8071 -0.0279655 0)
(1.80888 -0.0283378 0)
(1.81089 -0.0286562 0)
(1.81288 -0.0291085 0)
(1.81435 -0.0310548 0)
(1.81543 -0.0338523 0)
(1.81804 -0.0345197 0)
(1.82014 -0.0326871 0)
(1.82344 -0.0296901 0)
(1.82556 -0.0286516 0)
(1.82725 -0.0294252 0)
(1.82927 -0.0309276 0)
(1.83156 -0.0319819 0)
(1.83435 -0.0326952 0)
(1.83676 -0.0330575 0)
(1.83884 -0.0336146 0)
(1.84067 -0.0339996 0)
(1.84298 -0.0332375 0)
(1.84571 -0.032623 0)
(1.84861 -0.0326138 0)
(1.85178 -0.0334929 0)
(1.85535 -0.0343651 0)
(1.85889 -0.0342935 0)
(1.86216 -0.0343885 0)
(1.8651 -0.0352467 0)
(1.86815 -0.0359537 0)
(1.87166 -0.0370872 0)
(1.87494 -0.0384586 0)
(1.8809 -0.0403901 0)
(2.13275 -1.0273 0)
(2.13307 -1.02719 0)
(2.13321 -1.02754 0)
(2.13361 -1.02743 0)
(2.13381 -1.02781 0)
(2.13429 -1.02771 0)
(2.13458 -1.02812 0)
(2.13515 -1.02806 0)
(2.13554 -1.02851 0)
(2.13622 -1.0285 0)
(2.13675 -1.02894 0)
(2.13752 -1.02906 0)
(2.13824 -1.02944 0)
(2.13911 -1.02974 0)
(2.14005 -1.03 0)
(2.141 -1.03055 0)
(2.14228 -1.03054 0)
(2.14317 -1.03158 0)
(2.14469 -1.03153 0)
(2.14555 -1.03309 0)
(2.14742 -1.03281 0)
(2.14823 -1.03498 0)
(2.15056 -1.03423 0)
(2.15176 -1.03769 0)
(2.15328 -1.03624 0)
(2.15449 -1.0364 0)
(2.15617 -1.03581 0)
(2.15726 -1.03682 0)
(2.15746 -1.03623 0)
(2.15216 -1.02258 0)
(2.13451 -0.98482 0)
(2.10001 -0.912882 0)
(2.05205 -0.792744 0)
(2.00415 -0.667532 0)
(1.94714 -0.497505 0)
(1.92194 -0.391546 0)
(1.86703 -0.245543 0)
(1.85203 -0.172275 0)
(1.82294 -0.104741 0)
(1.82013 -0.0732049 0)
(1.80058 -0.0381322 0)
(1.79512 -0.0263643 0)
(1.78999 -0.0143431 0)
(1.78518 -0.0148463 0)
(1.78515 -0.0166076 0)
(1.78944 -0.0123538 0)
(1.79512 -0.0114231 0)
(1.79829 -0.012942 0)
(1.79278 -0.0167235 0)
(1.78924 -0.02349 0)
(1.78997 -0.0251693 0)
(1.79489 -0.0235855 0)
(1.79605 -0.0222498 0)
(1.7965 -0.0232278 0)
(1.7968 -0.0243923 0)
(1.79761 -0.0241315 0)
(1.79922 -0.0229521 0)
(1.80092 -0.0219634 0)
(1.80216 -0.0223993 0)
(1.80342 -0.022935 0)
(1.80462 -0.0236856 0)
(1.80636 -0.0247721 0)
(1.80794 -0.0247514 0)
(1.8091 -0.0248341 0)
(1.80992 -0.0249301 0)
(1.81067 -0.025075 0)
(1.81187 -0.025914 0)
(1.81346 -0.0274749 0)
(1.81513 -0.0286186 0)
(1.81654 -0.0289491 0)
(1.81785 -0.0294881 0)
(1.81924 -0.0305725 0)
(1.82073 -0.0324611 0)
(1.82226 -0.03422 0)
(1.82388 -0.0347465 0)
(1.82526 -0.0348956 0)
(1.82656 -0.0352798 0)
(1.82869 -0.033705 0)
(1.83068 -0.0322177 0)
(1.83341 -0.0320498 0)
(1.835 -0.0316485 0)
(1.83667 -0.031144 0)
(1.8384 -0.0314394 0)
(1.84056 -0.0322037 0)
(1.84317 -0.0324222 0)
(1.84553 -0.0327636 0)
(1.84757 -0.0337007 0)
(1.84968 -0.0343769 0)
(1.85207 -0.0338613 0)
(1.85478 -0.0336356 0)
(1.85746 -0.0339325 0)
(1.86048 -0.0341991 0)
(1.8639 -0.0345028 0)
(1.8673 -0.0351331 0)
(1.87046 -0.0357939 0)
(1.8733 -0.0367759 0)
(1.87635 -0.0375873 0)
(1.8797 -0.0392948 0)
(1.88283 -0.0405561 0)
(1.88831 -0.041309 0)
(2.13753 -1.02957 0)
(2.138 -1.02975 0)
(2.13849 -1.03004 0)
(2.13908 -1.03021 0)
(2.13964 -1.03057 0)
(2.14033 -1.03073 0)
(2.14095 -1.03119 0)
(2.14178 -1.03132 0)
(2.14246 -1.03189 0)
(2.14342 -1.032 0)
(2.14419 -1.03269 0)
(2.14531 -1.03277 0)
(2.14616 -1.03358 0)
(2.14743 -1.03361 0)
(2.14834 -1.03456 0)
(2.14976 -1.03458 0)
(2.15075 -1.03563 0)
(2.15227 -1.03571 0)
(2.15339 -1.03678 0)
(2.15502 -1.03695 0)
(2.15632 -1.03786 0)
(2.15798 -1.03822 0)
(2.15948 -1.03889 0)
(2.16104 -1.03967 0)
(2.16294 -1.03979 0)
(2.1642 -1.04124 0)
(2.16616 -1.04128 0)
(2.16717 -1.04339 0)
(2.1693 -1.0429 0)
(2.17074 -1.04634 0)
(2.17214 -1.04532 0)
(2.17312 -1.04559 0)
(2.17463 -1.04491 0)
(2.17504 -1.04685 0)
(2.17081 -1.03649 0)
(2.15707 -1.00284 0)
(2.11969 -0.917173 0)
(2.07651 -0.794952 0)
(2.01713 -0.619076 0)
(1.98316 -0.481104 0)
(1.93155 -0.317377 0)
(1.91136 -0.226634 0)
(1.87588 -0.142745 0)
(1.86642 -0.0955355 0)
(1.85044 -0.0573154 0)
(1.83563 -0.0223871 0)
(1.82649 -0.0180687 0)
(1.8236 -0.0114127 0)
(1.81691 -0.0161568 0)
(1.82291 -0.012401 0)
(1.82644 -0.0103893 0)
(1.82786 -0.0147884 0)
(1.82552 -0.0212699 0)
(1.8244 -0.0295339 0)
(1.82511 -0.0333912 0)
(1.82726 -0.0320945 0)
(1.82768 -0.029318 0)
(1.82745 -0.0286048 0)
(1.82849 -0.0285623 0)
(1.82933 -0.0263156 0)
(1.83061 -0.0246607 0)
(1.83136 -0.0254181 0)
(1.83222 -0.027082 0)
(1.83276 -0.0292244 0)
(1.83319 -0.0307484 0)
(1.83332 -0.0307031 0)
(1.83385 -0.0302665 0)
(1.83474 -0.0311363 0)
(1.83594 -0.0324925 0)
(1.83727 -0.0327237 0)
(1.8384 -0.0319904 0)
(1.83952 -0.0309656 0)
(1.84066 -0.0311394 0)
(1.84187 -0.0314357 0)
(1.84289 -0.031231 0)
(1.84356 -0.0314529 0)
(1.8446 -0.0319249 0)
(1.84621 -0.031323 0)
(1.84818 -0.0301626 0)
(1.85035 -0.0292085 0)
(1.851 -0.0295954 0)
(1.85163 -0.0308791 0)
(1.85266 -0.0319312 0)
(1.8545 -0.0327891 0)
(1.85663 -0.0334436 0)
(1.85849 -0.0340987 0)
(1.8602 -0.0350527 0)
(1.86223 -0.0353724 0)
(1.86416 -0.0351094 0)
(1.86653 -0.0352794 0)
(1.8687 -0.0358415 0)
(1.87118 -0.03565 0)
(1.874 -0.034905 0)
(1.8769 -0.034655 0)
(1.87958 -0.0350053 0)
(1.88205 -0.0359602 0)
(1.88469 -0.0368854 0)
(1.88755 -0.0382446 0)
(1.89035 -0.0391148 0)
(1.89503 -0.0403134 0)
(2.14603 -1.03302 0)
(2.14658 -1.03346 0)
(2.14735 -1.0336 0)
(2.14799 -1.03409 0)
(2.14884 -1.03422 0)
(2.14955 -1.03474 0)
(2.15048 -1.03491 0)
(2.15125 -1.03547 0)
(2.15226 -1.03567 0)
(2.15312 -1.03626 0)
(2.15419 -1.03652 0)
(2.15514 -1.03713 0)
(2.15626 -1.0375 0)
(2.15732 -1.03807 0)
(2.15847 -1.03853 0)
(2.15963 -1.03901 0)
(2.16081 -1.03958 0)
(2.16208 -1.04001 0)
(2.16325 -1.04077 0)
(2.16464 -1.0411 0)
(2.16577 -1.04202 0)
(2.16726 -1.04219 0)
(2.16829 -1.04332 0)
(2.16985 -1.04338 0)
(2.17073 -1.04478 0)
(2.17232 -1.04471 0)
(2.17311 -1.04618 0)
(2.17473 -1.04597 0)
(2.17543 -1.04753 0)
(2.17699 -1.04722 0)
(2.17767 -1.04864 0)
(2.17921 -1.04843 0)
(2.17964 -1.05034 0)
(2.18115 -1.04971 0)
(2.18209 -1.05243 0)
(2.18311 -1.05129 0)
(2.18358 -1.05157 0)
(2.18448 -1.0511 0)
(2.18447 -1.05205 0)
(2.17864 -1.03656 0)
(2.15311 -0.975855 0)
(2.11445 -0.861903 0)
(2.06013 -0.698092 0)
(2.01054 -0.508867 0)
(1.98792 -0.382851 0)
(1.93323 -0.218013 0)
(1.91789 -0.163388 0)
(1.88613 -0.100709 0)
(1.87392 -0.061376 0)
(1.86733 -0.0356908 0)
(1.85694 -0.0127851 0)
(1.85057 -0.0120661 0)
(1.84439 -0.0152212 0)
(1.85108 -0.0153751 0)
(1.85423 -0.0151623 0)
(1.85506 -0.0161195 0)
(1.85425 -0.0227187 0)
(1.85304 -0.0303181 0)
(1.85557 -0.033142 0)
(1.85619 -0.031724 0)
(1.85614 -0.0289436 0)
(1.85538 -0.0257804 0)
(1.85582 -0.0236696 0)
(1.85531 -0.0253394 0)
(1.85568 -0.0290545 0)
(1.85569 -0.0311655 0)
(1.85606 -0.0326081 0)
(1.85642 -0.0327297 0)
(1.8567 -0.0319202 0)
(1.85782 -0.0303675 0)
(1.85857 -0.0300057 0)
(1.85899 -0.0307064 0)
(1.85949 -0.0324034 0)
(1.86023 -0.0336402 0)
(1.86072 -0.0337723 0)
(1.861 -0.0329664 0)
(1.86173 -0.0319117 0)
(1.86313 -0.0305392 0)
(1.86502 -0.0290476 0)
(1.86561 -0.0292427 0)
(1.86584 -0.0304755 0)
(1.86579 -0.0322889 0)
(1.86638 -0.0329482 0)
(1.86772 -0.0325478 0)
(1.86937 -0.0318063 0)
(1.87075 -0.0318408 0)
(1.87234 -0.0325501 0)
(1.87347 -0.0326719 0)
(1.87523 -0.0330191 0)
(1.87686 -0.0338361 0)
(1.87852 -0.0341693 0)
(1.88052 -0.0343062 0)
(1.88283 -0.0340602 0)
(1.88496 -0.0343321 0)
(1.88706 -0.0348103 0)
(1.88922 -0.0354147 0)
(1.89137 -0.0365161 0)
(1.89386 -0.0381294 0)
(1.89607 -0.039933 0)
(1.89985 -0.041758 0)
(2.15576 -1.03888 0)
(2.15643 -1.03914 0)
(2.15713 -1.03945 0)
(2.15787 -1.03976 0)
(2.15864 -1.04005 0)
(2.15942 -1.04041 0)
(2.16025 -1.0407 0)
(2.16105 -1.04112 0)
(2.16195 -1.04139 0)
(2.16278 -1.04187 0)
(2.16375 -1.04211 0)
(2.16462 -1.04265 0)
(2.16565 -1.04287 0)
(2.1665 -1.04351 0)
(2.16758 -1.04368 0)
(2.16842 -1.04442 0)
(2.16956 -1.04452 0)
(2.17039 -1.04534 0)
(2.17159 -1.04537 0)
(2.17237 -1.04629 0)
(2.17361 -1.04623 0)
(2.17432 -1.04724 0)
(2.17556 -1.04715 0)
(2.1762 -1.04822 0)
(2.17742 -1.04808 0)
(2.17796 -1.04924 0)
(2.17913 -1.04909 0)
(2.17961 -1.05022 0)
(2.18074 -1.05005 0)
(2.18119 -1.05113 0)
(2.18225 -1.05103 0)
(2.1827 -1.05203 0)
(2.18369 -1.05202 0)
(2.18428 -1.05265 0)
(2.18507 -1.0529 0)
(2.18592 -1.05289 0)
(2.18636 -1.05366 0)
(2.18715 -1.05344 0)
(2.18764 -1.0546 0)
(2.18829 -1.05375 0)
(2.18877 -1.05385 0)
(2.18961 -1.05331 0)
(2.1898 -1.05418 0)
(2.18657 -1.04452 0)
(2.16967 -1.00145 0)
(2.12594 -0.876469 0)
(2.08532 -0.731257 0)
(2.01282 -0.498859 0)
(1.9884 -0.357372 0)
(1.94984 -0.220374 0)
(1.90622 -0.108823 0)
(1.89939 -0.0883559 0)
(1.87837 -0.0517538 0)
(1.8761 -0.0356529 0)
(1.87015 -0.0204653 0)
(1.87072 -0.0133819 0)
(1.86555 -0.0150871 0)
(1.86836 -0.0204762 0)
(1.87108 -0.0247223 0)
(1.87302 -0.0272608 0)
(1.87199 -0.0293331 0)
(1.87107 -0.0309738 0)
(1.87036 -0.0310731 0)
(1.86872 -0.032153 0)
(1.86866 -0.0314468 0)
(1.86985 -0.0293565 0)
(1.87018 -0.0296393 0)
(1.87034 -0.0309671 0)
(1.87013 -0.0322506 0)
(1.87103 -0.0319761 0)
(1.87133 -0.0308414 0)
(1.87112 -0.0293995 0)
(1.87082 -0.0293243 0)
(1.87128 -0.0298659 0)
(1.87174 -0.0303931 0)
(1.87205 -0.0303654 0)
(1.87284 -0.0301938 0)
(1.87374 -0.0285693 0)
(1.87489 -0.028763 0)
(1.87467 -0.0299568 0)
(1.87452 -0.0321826 0)
(1.87503 -0.0334611 0)
(1.87559 -0.0332359 0)
(1.87631 -0.0332626 0)
(1.87731 -0.0337677 0)
(1.87828 -0.0340389 0)
(1.87967 -0.0338758 0)
(1.88104 -0.0332955 0)
(1.88297 -0.0328713 0)
(1.88372 -0.0337634 0)
(1.88493 -0.0356546 0)
(1.88651 -0.0364022 0)
(1.88847 -0.0363482 0)
(1.89006 -0.0365539 0)
(1.89187 -0.0368771 0)
(1.89378 -0.0376176 0)
(1.89555 -0.0387918 0)
(1.89783 -0.0402953 0)
(1.89976 -0.0415208 0)
(1.9029 -0.0421875 0)
(2.16636 -1.0425 0)
(2.16696 -1.04264 0)
(2.1675 -1.04301 0)
(2.16817 -1.04314 0)
(2.16874 -1.04354 0)
(2.16946 -1.04366 0)
(2.17004 -1.04412 0)
(2.17079 -1.04424 0)
(2.17137 -1.04475 0)
(2.17215 -1.04484 0)
(2.17274 -1.0454 0)
(2.17358 -1.04546 0)
(2.17417 -1.04603 0)
(2.17502 -1.04606 0)
(2.17558 -1.0467 0)
(2.17644 -1.04674 0)
(2.17699 -1.04741 0)
(2.17785 -1.04746 0)
(2.17838 -1.04814 0)
(2.17923 -1.04818 0)
(2.17974 -1.04886 0)
(2.18056 -1.04892 0)
(2.18103 -1.04961 0)
(2.18178 -1.04974 0)
(2.18223 -1.05038 0)
(2.1829 -1.05056 0)
(2.18335 -1.05112 0)
(2.18393 -1.05141 0)
(2.18442 -1.05183 0)
(2.18496 -1.05217 0)
(2.18554 -1.05241 0)
(2.18603 -1.05287 0)
(2.18671 -1.05287 0)
(2.18715 -1.05337 0)
(2.18783 -1.05326 0)
(2.18818 -1.05377 0)
(2.1888 -1.05363 0)
(2.18916 -1.05401 0)
(2.18972 -1.05393 0)
(2.19026 -1.05394 0)
(2.1907 -1.05424 0)
(2.19127 -1.05411 0)
(2.1916 -1.05473 0)
(2.19205 -1.05428 0)
(2.19217 -1.05451 0)
(2.19259 -1.05425 0)
(2.19238 -1.05528 0)
(2.1877 -1.04472 0)
(2.16842 -0.993458 0)
(2.12134 -0.857897 0)
(2.06165 -0.661576 0)
(2.01529 -0.464173 0)
(1.95116 -0.245666 0)
(1.94466 -0.176764 0)
(1.8917 -0.0629151 0)
(1.88477 -0.0529689 0)
(1.87904 -0.0339485 0)
(1.87677 -0.0300579 0)
(1.87649 -0.025619 0)
(1.87564 -0.0236055 0)
(1.87549 -0.024464 0)
(1.87672 -0.0247285 0)
(1.87608 -0.02675 0)
(1.87468 -0.0304397 0)
(1.87515 -0.0339169 0)
(1.8762 -0.0333 0)
(1.87556 -0.0303612 0)
(1.87454 -0.0275071 0)
(1.87453 -0.0272367 0)
(1.87587 -0.0269306 0)
(1.87621 -0.0262375 0)
(1.87529 -0.0253433 0)
(1.87456 -0.0250409 0)
(1.87476 -0.025163 0)
(1.87515 -0.0255328 0)
(1.87562 -0.0255475 0)
(1.87647 -0.0251493 0)
(1.87722 -0.0251738 0)
(1.87757 -0.0262178 0)
(1.87738 -0.0292745 0)
(1.87814 -0.0312413 0)
(1.87946 -0.0316799 0)
(1.88037 -0.0314579 0)
(1.88073 -0.0305663 0)
(1.88063 -0.0302716 0)
(1.88119 -0.0302563 0)
(1.88202 -0.0303156 0)
(1.88411 -0.0305589 0)
(1.88631 -0.031946 0)
(1.887 -0.0344183 0)
(1.88842 -0.0354889 0)
(1.88982 -0.0353637 0)
(1.89151 -0.0352044 0)
(1.89289 -0.0356405 0)
(1.89472 -0.0363392 0)
(1.89652 -0.0374445 0)
(1.89817 -0.0387324 0)
(1.9003 -0.0399862 0)
(1.90183 -0.0407989 0)
(1.90465 -0.0415323 0)
(2.17434 -1.04729 0)
(2.17471 -1.0476 0)
(2.17522 -1.04764 0)
(2.17561 -1.04797 0)
(2.17615 -1.04799 0)
(2.17655 -1.04833 0)
(2.1771 -1.04836 0)
(2.1775 -1.04873 0)
(2.17806 -1.04878 0)
(2.17845 -1.04917 0)
(2.17902 -1.04923 0)
(2.17943 -1.04961 0)
(2.18 -1.04967 0)
(2.1804 -1.05006 0)
(2.18096 -1.05013 0)
(2.18135 -1.05053 0)
(2.18189 -1.05065 0)
(2.18229 -1.05103 0)
(2.1828 -1.05118 0)
(2.1832 -1.05151 0)
(2.18367 -1.0517 0)
(2.18406 -1.05202 0)
(2.18449 -1.05226 0)
(2.18488 -1.05252 0)
(2.18524 -1.05283 0)
(2.18562 -1.05304 0)
(2.18595 -1.05338 0)
(2.18638 -1.05346 0)
(2.18669 -1.05382 0)
(2.18716 -1.05384 0)
(2.18753 -1.05413 0)
(2.18802 -1.05419 0)
(2.18843 -1.0544 0)
(2.18892 -1.0544 0)
(2.18933 -1.05452 0)
(2.18977 -1.05455 0)
(2.19019 -1.05454 0)
(2.19055 -1.05471 0)
(2.19101 -1.05456 0)
(2.19133 -1.05479 0)
(2.19179 -1.05464 0)
(2.19208 -1.0548 0)
(2.19243 -1.05479 0)
(2.19266 -1.05492 0)
(2.19282 -1.05516 0)
(2.19295 -1.05527 0)
(2.19285 -1.0559 0)
(2.19307 -1.05561 0)
(2.19308 -1.05588 0)
(2.19333 -1.05573 0)
(2.19333 -1.05626 0)
(2.18424 -1.03459 0)
(2.1469 -0.937024 0)
(2.0985 -0.77132 0)
(2.00828 -0.492024 0)
(1.99778 -0.345542 0)
(1.9186 -0.126803 0)
(1.90299 -0.0876161 0)
(1.88158 -0.0409956 0)
(1.87637 -0.0359671 0)
(1.8784 -0.031038 0)
(1.87912 -0.0274774 0)
(1.87657 -0.0268571 0)
(1.87459 -0.0294812 0)
(1.87672 -0.0313602 0)
(1.87837 -0.0294872 0)
(1.87701 -0.0272504 0)
(1.8761 -0.0232862 0)
(1.8758 -0.0233258 0)
(1.87628 -0.0242961 0)
(1.87687 -0.0250773 0)
(1.87607 -0.0252191 0)
(1.8755 -0.0247919 0)
(1.87599 -0.0243347 0)
(1.87657 -0.0242869 0)
(1.87711 -0.0242391 0)
(1.87768 -0.0242059 0)
(1.87808 -0.0249257 0)
(1.87769 -0.027583 0)
(1.87756 -0.0304269 0)
(1.87975 -0.0320518 0)
(1.88081 -0.0314893 0)
(1.88199 -0.029911 0)
(1.88242 -0.0279843 0)
(1.88226 -0.0273266 0)
(1.88256 -0.027492 0)
(1.88336 -0.0276938 0)
(1.88537 -0.0285073 0)
(1.88658 -0.0305427 0)
(1.88805 -0.0331709 0)
(1.88965 -0.0346635 0)
(1.8912 -0.0346364 0)
(1.89291 -0.0345379 0)
(1.89453 -0.0352078 0)
(1.89648 -0.0360772 0)
(1.89812 -0.0369688 0)
(1.89987 -0.038093 0)
(1.90168 -0.0394615 0)
(1.90288 -0.0402943 0)
(1.90568 -0.0417359 0)
(2.18116 -1.04865 0)
(2.18146 -1.04872 0)
(2.18173 -1.04889 0)
(2.18204 -1.04898 0)
(2.18231 -1.04917 0)
(2.18263 -1.04928 0)
(2.18289 -1.04948 0)
(2.18321 -1.04961 0)
(2.18349 -1.0498 0)
(2.18379 -1.04995 0)
(2.18408 -1.05012 0)
(2.18437 -1.0503 0)
(2.18467 -1.05048 0)
(2.18496 -1.05069 0)
(2.18525 -1.05089 0)
(2.18554 -1.05109 0)
(2.18583 -1.0513 0)
(2.18609 -1.05155 0)
(2.18638 -1.05175 0)
(2.18663 -1.05201 0)
(2.18693 -1.05214 0)
(2.18715 -1.05244 0)
(2.18744 -1.05259 0)
(2.18765 -1.05286 0)
(2.18795 -1.05296 0)
(2.18814 -1.05322 0)
(2.18841 -1.05336 0)
(2.18866 -1.05354 0)
(2.18897 -1.05362 0)
(2.18927 -1.05376 0)
(2.18963 -1.05382 0)
(2.18998 -1.05393 0)
(2.19036 -1.05397 0)
(2.19073 -1.05398 0)
(2.19106 -1.05406 0)
(2.1914 -1.05406 0)
(2.19168 -1.05416 0)
(2.19198 -1.0542 0)
(2.19225 -1.05427 0)
(2.19252 -1.05432 0)
(2.19275 -1.05443 0)
(2.19295 -1.05456 0)
(2.19313 -1.05469 0)
(2.19316 -1.05506 0)
(2.19332 -1.05517 0)
(2.19333 -1.05546 0)
(2.19334 -1.05575 0)
(2.19343 -1.05591 0)
(2.1936 -1.05604 0)
(2.1938 -1.05615 0)
(2.19401 -1.05623 0)
(2.1942 -1.05619 0)
(2.19446 -1.05622 0)
(2.19463 -1.05643 0)
(2.18964 -1.04475 0)
(2.1642 -0.970293 0)
(2.09402 -0.765563 0)
(2.04034 -0.546866 0)
(1.97301 -0.317947 0)
(1.9111 -0.134944 0)
(1.90311 -0.0900727 0)
(1.8882 -0.0228097 0)
(1.86857 -0.0219326 0)
(1.87242 -0.0292096 0)
(1.87629 -0.0252344 0)
(1.87194 -0.022793 0)
(1.8711 -0.0260621 0)
(1.87416 -0.0246563 0)
(1.8741 -0.0243467 0)
(1.87401 -0.0253293 0)
(1.87516 -0.0265553 0)
(1.87549 -0.0270022 0)
(1.87609 -0.0266041 0)
(1.87696 -0.0262391 0)
(1.87766 -0.0260861 0)
(1.87838 -0.0258039 0)
(1.87898 -0.0260924 0)
(1.87874 -0.0283184 0)
(1.87724 -0.0325259 0)
(1.87922 -0.0332509 0)
(1.8807 -0.0323879 0)
(1.88242 -0.0303931 0)
(1.88354 -0.0286611 0)
(1.88381 -0.0272253 0)
(1.88403 -0.0265996 0)
(1.8846 -0.0262898 0)
(1.8856 -0.0262359 0)
(1.8869 -0.0269975 0)
(1.88733 -0.0292031 0)
(1.88873 -0.0321382 0)
(1.89046 -0.0339911 0)
(1.89208 -0.0341261 0)
(1.89382 -0.034596 0)
(1.89562 -0.0358102 0)
(1.89759 -0.0366735 0)
(1.89912 -0.037415 0)
(1.90093 -0.0385495 0)
(1.90259 -0.0397261 0)
(1.90359 -0.0406225 0)
(1.90629 -0.0423218 0)
(2.18484 -1.05172 0)
(2.185 -1.05181 0)
(2.18517 -1.0519 0)
(2.18534 -1.05201 0)
(2.18551 -1.05212 0)
(2.18569 -1.05224 0)
(2.18586 -1.05237 0)
(2.18602 -1.05253 0)
(2.1862 -1.05265 0)
(2.18636 -1.05282 0)
(2.18655 -1.05292 0)
(2.18671 -1.05307 0)
(2.1869 -1.05319 0)
(2.18707 -1.05335 0)
(2.18725 -1.05351 0)
(2.18745 -1.05363 0)
(2.18763 -1.05379 0)
(2.18782 -1.05393 0)
(2.188 -1.05409 0)
(2.18819 -1.05424 0)
(2.18838 -1.05436 0)
(2.18858 -1.05447 0)
(2.18877 -1.05459 0)
(2.18896 -1.05471 0)
(2.18914 -1.05482 0)
(2.18934 -1.0549 0)
(2.18953 -1.05499 0)
(2.18977 -1.05505 0)
(2.19004 -1.05504 0)
(2.19032 -1.05508 0)
(2.19064 -1.05507 0)
(2.19094 -1.05514 0)
(2.19126 -1.05514 0)
(2.19156 -1.05513 0)
(2.19185 -1.05512 0)
(2.19211 -1.05512 0)
(2.19235 -1.05516 0)
(2.19255 -1.05522 0)
(2.19273 -1.0553 0)
(2.1929 -1.05536 0)
(2.19295 -1.05559 0)
(2.19307 -1.05569 0)
(2.19307 -1.05594 0)
(2.19313 -1.05617 0)
(2.19321 -1.05634 0)
(2.1933 -1.0565 0)
(2.19341 -1.05663 0)
(2.19355 -1.05682 0)
(2.19381 -1.05668 0)
(2.19411 -1.0566 0)
(2.19438 -1.05649 0)
(2.19468 -1.05651 0)
(2.19499 -1.05659 0)
(2.19534 -1.05673 0)
(2.19555 -1.05672 0)
(2.19584 -1.0567 0)
(2.19588 -1.05715 0)
(2.19299 -1.04918 0)
(2.16029 -0.97171 0)
(2.0854 -0.749077 0)
(2.03372 -0.518562 0)
(1.94366 -0.238551 0)
(1.93057 -0.142587 0)
(1.89659 -0.0613623 0)
(1.88401 9.81953e-05 0)
(1.86357 -0.010027 0)
(1.87023 -0.0302621 0)
(1.8777 -0.0289867 0)
(1.87138 -0.0316612 0)
(1.87068 -0.0344988 0)
(1.8722 -0.0356955 0)
(1.87468 -0.0350129 0)
(1.87702 -0.0337734 0)
(1.87809 -0.0328788 0)
(1.87858 -0.0322121 0)
(1.87948 -0.031863 0)
(1.87981 -0.0328977 0)
(1.87897 -0.0350451 0)
(1.87965 -0.0359722 0)
(1.88128 -0.0353017 0)
(1.88359 -0.0317641 0)
(1.88478 -0.0297084 0)
(1.88501 -0.0290725 0)
(1.88509 -0.0286679 0)
(1.88534 -0.0281578 0)
(1.88582 -0.0273218 0)
(1.88718 -0.026963 0)
(1.88782 -0.0277087 0)
(1.88808 -0.0301495 0)
(1.88995 -0.03263 0)
(1.89164 -0.0338162 0)
(1.89344 -0.0342105 0)
(1.89466 -0.0352335 0)
(1.89661 -0.0366914 0)
(1.89819 -0.0374153 0)
(1.89974 -0.0381137 0)
(1.90161 -0.0391383 0)
(1.90332 -0.0401273 0)
(1.90425 -0.0411248 0)
(1.90691 -0.0428525 0)
(2.18796 -1.0524 0)
(2.18803 -1.05249 0)
(2.18812 -1.05257 0)
(2.1882 -1.05267 0)
(2.18827 -1.05278 0)
(2.18836 -1.0529 0)
(2.18844 -1.05302 0)
(2.18853 -1.05315 0)
(2.18864 -1.05324 0)
(2.18873 -1.0534 0)
(2.18885 -1.05348 0)
(2.18895 -1.0536 0)
(2.18906 -1.0537 0)
(2.18918 -1.0538 0)
(2.18929 -1.05392 0)
(2.18944 -1.05399 0)
(2.18956 -1.05412 0)
(2.1897 -1.05424 0)
(2.18984 -1.05436 0)
(2.18999 -1.05443 0)
(2.19014 -1.0545 0)
(2.1903 -1.05454 0)
(2.19046 -1.0546 0)
(2.19063 -1.0546 0)
(2.19077 -1.05466 0)
(2.19093 -1.05468 0)
(2.1911 -1.05475 0)
(2.1913 -1.05477 0)
(2.19153 -1.05475 0)
(2.19179 -1.05471 0)
(2.19205 -1.05468 0)
(2.19231 -1.05467 0)
(2.19255 -1.05469 0)
(2.19279 -1.05468 0)
(2.19299 -1.05472 0)
(2.19317 -1.05477 0)
(2.19332 -1.05483 0)
(2.19342 -1.05496 0)
(2.19353 -1.05504 0)
(2.19356 -1.05522 0)
(2.19355 -1.05544 0)
(2.19351 -1.05571 0)
(2.19354 -1.05589 0)
(2.19358 -1.05615 0)
(2.1937 -1.05629 0)
(2.19388 -1.05637 0)
(2.19406 -1.05649 0)
(2.19431 -1.05651 0)
(2.19457 -1.05641 0)
(2.19471 -1.05628 0)
(2.19505 -1.05623 0)
(2.19533 -1.05624 0)
(2.19557 -1.05629 0)
(2.19576 -1.05631 0)
(2.19599 -1.05642 0)
(2.19605 -1.05679 0)
(2.19626 -1.05697 0)
(2.19605 -1.05761 0)
(2.19618 -1.05781 0)
(2.19634 -1.05819 0)
(2.19103 -1.04359 0)
(2.14131 -0.922872 0)
(2.06991 -0.656802 0)
(2.01274 -0.414579 0)
(1.93836 -0.179564 0)
(1.93045 -0.123839 0)
(1.91519 -0.0644206 0)
(1.89408 -0.0352572 0)
(1.87449 -0.0332995 0)
(1.87371 -0.0352247 0)
(1.87787 -0.0364166 0)
(1.8804 -0.0367967 0)
(1.88203 -0.037082 0)
(1.88048 -0.0379669 0)
(1.88086 -0.0372754 0)
(1.8822 -0.0353864 0)
(1.88256 -0.0355746 0)
(1.88089 -0.0376714 0)
(1.88169 -0.0381648 0)
(1.88505 -0.0346168 0)
(1.88688 -0.0309507 0)
(1.88633 -0.0298403 0)
(1.88589 -0.0306633 0)
(1.88617 -0.0321114 0)
(1.88677 -0.0321196 0)
(1.88761 -0.0309721 0)
(1.88886 -0.030735 0)
(1.88893 -0.0317906 0)
(1.88901 -0.0339196 0)
(1.89103 -0.0347392 0)
(1.89304 -0.0343123 0)
(1.89438 -0.0347088 0)
(1.89559 -0.0359982 0)
(1.89734 -0.0374691 0)
(1.89906 -0.0377376 0)
(1.90075 -0.0384242 0)
(1.90258 -0.03953 0)
(1.90411 -0.0403492 0)
(1.9051 -0.0414134 0)
(1.90753 -0.0431345 0)
(2.18922 -1.05453 0)
(2.18927 -1.05459 0)
(2.18931 -1.05465 0)
(2.18936 -1.05469 0)
(2.18939 -1.05476 0)
(2.18945 -1.0548 0)
(2.18951 -1.05488 0)
(2.18957 -1.05498 0)
(2.18965 -1.05505 0)
(2.18972 -1.05517 0)
(2.18981 -1.05524 0)
(2.1899 -1.05527 0)
(2.18998 -1.05534 0)
(2.19009 -1.0554 0)
(2.1902 -1.05546 0)
(2.19033 -1.05547 0)
(2.19048 -1.05545 0)
(2.19061 -1.05548 0)
(2.19073 -1.05556 0)
(2.19087 -1.05561 0)
(2.19101 -1.05564 0)
(2.19115 -1.05563 0)
(2.19128 -1.05567 0)
(2.19143 -1.05561 0)
(2.19158 -1.05556 0)
(2.19173 -1.05555 0)
(2.19189 -1.05556 0)
(2.19207 -1.05557 0)
(2.19228 -1.05553 0)
(2.19248 -1.0555 0)
(2.19268 -1.05548 0)
(2.19289 -1.05547 0)
(2.19306 -1.05551 0)
(2.19324 -1.05552 0)
(2.19335 -1.05561 0)
(2.19344 -1.05569 0)
(2.1935 -1.05582 0)