/*--------------------------------*- C++ -*----------------------------------*\
  =========                 |
  \\      /  F ield         | OpenFOAM: The Open Source CFD Toolbox
   \\    /   O peration     | Website:  https://openfoam.org
    \\  /    A nd           | Version:  7
     \\/     M anipulation  |
\*---------------------------------------------------------------------------*/
FoamFile
{
    version     2.0;
    format      ascii;
    class       volScalarField;
    location    "4.5";
    object      T;
}
// * * * * * * * * * * * * * * * * * * * * * * * * * * * * * * * * * * * * * //

dimensions      [0 0 0 1 0 0 0];

internalField   nonuniform List<scalar> 
90000
(
0.620498
0.709341
0.785145
0.847703
0.889455
0.920055
0.951407
0.974649
0.990744
1.00598
1.02244
1.03581
1.04701
1.05793
1.06964
1.08148
1.09357
1.10565
1.11842
1.13155
1.14572
1.1597
1.17497
1.19005
1.2054
1.21932
1.23345
1.24632
1.26039
1.27214
1.28266
1.29005
1.28994
1.28828
1.28564
1.28162
1.27747
1.27205
1.26642
1.2611
1.25705
1.25271
1.24959
1.24601
1.24333
1.23994
1.23582
1.22943
1.22209
1.21518
1.21271
1.21442
1.21887
1.22227
1.22678
1.23279
1.2379
1.2413
1.24308
1.24098
1.2344
1.22402
1.21384
1.20603
1.20087
1.19753
1.1986
1.20138
1.20537
1.20818
1.20747
1.20321
1.1956
1.18779
1.1821
1.17967
1.18071
1.18297
1.18497
1.18256
1.17584
1.16907
1.164
1.16127
1.16202
1.16156
1.15803
1.15336
1.14877
1.14619
1.14564
1.14391
1.14158
1.13895
1.13649
1.1365
1.13629
1.1355
1.13481
1.13385
0.524729
0.524429
0.524102
0.52376
0.523409
0.523051
0.52269
0.522329
0.521961
0.521595
0.521206
0.52085
0.520231
0.520549
0.522178
0.526685
0.533965
0.546325
0.562428
0.585497
0.612252
0.647616
0.685726
0.732614
0.777956
0.829602
0.877994
0.930481
0.978364
1.02941
1.07362
1.11809
1.15389
1.18333
1.20888
1.22943
1.24898
1.26229
1.27614
1.2832
1.29204
1.29336
1.29492
1.29314
1.29129
1.28747
1.28445
1.28053
1.28219
1.28604
1.29231
1.29549
1.29586
1.29603
1.29779
1.2976
1.2956
1.29128
1.28381
1.27591
1.26951
1.26651
1.26457
1.2639
1.26337
1.26151
1.26164
1.26233
1.26214
1.25929
1.25427
1.2471
1.24213
1.23679
1.23597
1.2344
1.23499
1.23449
1.23088
1.2239
1.21681
1.21094
1.20773
1.20676
1.20509
1.2007
1.19488
1.18878
1.18437
1.18176
1.17963
1.17605
1.17208
1.16759
1.16435
1.1629
1.16179
1.16012
1.15753
1.15364
0.520226
0.519988
0.51973
0.51947
0.519201
0.518922
0.518648
0.518375
0.518102
0.517821
0.517526
0.517218
0.516914
0.516601
0.516272
0.515967
0.515606
0.51523
0.514863
0.514512
0.514184
0.513874
0.513591
0.51332
0.513077
0.512854
0.512671
0.512507
0.512391
0.512203
0.514846
0.530233
0.556882
0.606616
0.662367
0.737854
0.807303
0.88561
0.949897
1.01477
1.06547
1.11401
1.15529
1.19282
1.22808
1.25733
1.28736
1.30907
1.33392
1.34265
1.34955
1.34891
1.34624
1.34206
1.33754
1.32993
1.31924
1.30567
1.29161
1.28708
1.28903
1.29305
1.29813
1.30265
1.30755
1.31246
1.31226
1.30987
1.30367
1.29577
1.28827
1.28025
1.28047
1.28223
1.28774
1.28756
1.28578
1.28003
1.27246
1.26515
1.2606
1.2578
1.25625
1.25481
1.25081
1.24509
1.2384
1.23291
1.22933
1.22687
1.22284
1.21693
1.21106
1.20696
1.20391
1.20208
1.19929
1.19453
1.19005
1.18505
0.515652
0.515473
0.515281
0.515094
0.514909
0.514723
0.514545
0.514374
0.51421
0.514039
0.513861
0.513682
0.513506
0.513339
0.513182
0.513033
0.512888
0.512742
0.512603
0.512481
0.512359
0.512241
0.512136
0.512039
0.511946
0.511871
0.511823
0.51179
0.511763
0.511723
0.511709
0.511708
0.511729
0.511769
0.511786
0.511778
0.511761
0.511785
0.511857
0.511925
0.516088
0.541166
0.580161
0.653545
0.727396
0.824721
0.906549
0.994115
1.05739
1.11667
1.1654
1.20147
1.23686
1.25702
1.27805
1.28473
1.29432
1.29387
1.29933
1.30503
1.31653
1.32216
1.32696
1.33043
1.33108
1.33235
1.33071
1.324
1.31525
1.31256
1.31197
1.3099
1.3109
1.31285
1.31644
1.31621
1.31323
1.3067
1.30016
1.29521
1.29532
1.29717
1.29639
1.29325
1.28855
1.28233
1.27787
1.27277
1.27248
1.27068
1.26617
1.26006
1.25494
1.25162
1.24936
1.24607
1.24143
1.23624
1.23205
1.22616
0.5125
0.512443
0.512384
0.512324
0.512276
0.512231
0.512183
0.512132
0.512079
0.512029
0.511983
0.511934
0.511884
0.511839
0.511798
0.511763
0.511722
0.511687
0.511667
0.511655
0.511635
0.511598
0.511559
0.511533
0.511514
0.511513
0.51152
0.511543
0.51156
0.511571
0.511588
0.511617
0.511666
0.511697
0.511692
0.511656
0.511642
0.511683
0.511813
0.511918
0.512006
0.512128
0.512267
0.51233
0.512377
0.512436
0.512478
0.512494
0.51781
0.557733
0.617211
0.720483
0.814578
0.923282
1.00656
1.08454
1.15871
1.22202
1.2831
1.30786
1.32551
1.32949
1.33359
1.335
1.33426
1.32976
1.31999
1.30695
1.30866
1.31363
1.31948
1.32813
1.33322
1.33277
1.3304
1.32479
1.31698
1.3125
1.31307
1.31308
1.31542
1.31794
1.31673
1.3132
1.30828
1.30301
1.30344
1.30454
1.30283
1.2992
1.29492
1.29161
1.28904
1.28826
1.28648
1.28378
1.27971
1.27547
1.27214
1.26708
0.511576
0.511581
0.511586
0.511591
0.5116
0.5116
0.511599
0.511601
0.511603
0.511603
0.511603
0.511603
0.511597
0.511587
0.511577
0.511573
0.511579
0.511589
0.511613
0.51164
0.511655
0.511665
0.511674
0.511698
0.511766
0.511849
0.511898
0.511896
0.511898
0.51192
0.511991
0.512073
0.512147
0.512183
0.512169
0.512127
0.512115
0.512151
0.512274
0.512344
0.512368
0.51242
0.512649
0.512788
0.512783
0.512767
0.512676
0.512608
0.512589
0.512571
0.512511
0.512305
0.512033
0.511958
0.512241
0.550623
0.62147
0.764877
0.893688
1.01974
1.09787
1.1586
1.21091
1.23873
1.26871
1.27662
1.28505
1.29445
1.3156
1.32579
1.3347
1.3386
1.33821
1.33643
1.32673
1.31782
1.31385
1.31425
1.31683
1.32323
1.32834
1.32695
1.32256
1.31651
1.31484
1.31378
1.31564
1.31961
1.31839
1.31512
1.31103
1.31093
1.31162
1.31256
1.31131
1.30906
1.30646
1.30354
1.30249
1.30001
0.511946
0.511959
0.511969
0.511981
0.511996
0.512006
0.512016
0.512029
0.512033
0.512033
0.512034
0.512041
0.512044
0.512037
0.512029
0.512034
0.51204
0.512056
0.512091
0.512114
0.512114
0.512127
0.512158
0.512162
0.512212
0.512352
0.512452
0.512495
0.512492
0.512443
0.512439
0.512474
0.512504
0.512508
0.512487
0.512458
0.512442
0.512442
0.512473
0.512483
0.512479
0.512484
0.512558
0.512749
0.51278
0.512774
0.512735
0.512582
0.51241
0.512361
0.512306
0.512114
0.511887
0.511833
0.511832
0.511803
0.511727
0.511592
0.511497
0.518008
0.549798
0.661384
0.776122
0.912192
1.01661
1.11146
1.20562
1.26752
1.30664
1.31519
1.32463
1.32818
1.32718
1.31977
1.30722
1.30739
1.30974
1.31758
1.32406
1.32765
1.32728
1.32171
1.31454
1.31386
1.31486
1.32053
1.32408
1.32318
1.32048
1.31819
1.31752
1.31928
1.32204
1.32344
1.32309
1.32171
1.31974
1.32001
1.3204
1.32011
0.512293
0.512291
0.512292
0.5123
0.512316
0.512328
0.51234
0.512355
0.512355
0.512355
0.512356
0.512364
0.512364
0.512352
0.512353
0.512357
0.512367
0.512386
0.512418
0.512431
0.512431
0.512436
0.512425
0.512413
0.512498
0.512698
0.51274
0.512742
0.512734
0.512683
0.512637
0.512629
0.512624
0.512609
0.51259
0.512579
0.512571
0.512543
0.512505
0.512484
0.512481
0.512482
0.51247
0.512448
0.512411
0.512368
0.51231
0.512216
0.512096
0.51199
0.511832
0.51166
0.511613
0.51163
0.511622
0.511564
0.511444
0.511342
0.511411
0.511554
0.511548
0.511453
0.511402
0.511408
0.516988
0.598806
0.730291
0.91353
1.03295
1.12299
1.19438
1.23069
1.26713
1.27262
1.2904
1.30264
1.32005
1.3275
1.32736
1.3266
1.31808
1.3096
1.30972
1.31161
1.31866
1.32619
1.32555
1.32092
1.31778
1.31815
1.32173
1.32682
1.32817
1.32762
1.32679
1.32625
1.32664
1.3273
1.3295
1.33044
0.51257
0.512575
0.512578
0.512583
0.512589
0.512588
0.512591
0.512603
0.512613
0.512614
0.51261
0.512605
0.512599
0.512575
0.512562
0.512568
0.512578
0.51258
0.51259
0.512597
0.512594
0.512553
0.51248
0.512479
0.512604
0.51281
0.512823
0.512822
0.512802
0.512723
0.512685
0.512678
0.512663
0.512627
0.512598
0.51258
0.512558
0.512515
0.512421
0.512244
0.512085
0.512067
0.512056
0.512023
0.511975
0.511923
0.511861
0.511761
0.511661
0.511565
0.511423
0.5114
0.511412
0.511399
0.511341
0.511247
0.511164
0.511165
0.511367
0.511592
0.511587
0.511496
0.511435
0.511465
0.511542
0.511567
0.511501
0.511173
0.519001
0.623965
0.75708
0.922098
1.05648
1.16635
1.26699
1.30129
1.32197
1.32628
1.3258
1.31725
1.29901
1.30144
1.30961
1.31954
1.32501
1.32565
1.32171
1.31495
1.31595
1.32083
1.32718
1.3295
1.32927
1.32804
1.3275
1.32769
1.32949
1.33223
1.33333
1.33455
0.512639
0.512642
0.512644
0.512645
0.512644
0.512628
0.512615
0.512624
0.512635
0.512638
0.512639
0.512633
0.512611
0.512581
0.512561
0.512549
0.512512
0.512494
0.512519
0.512527
0.512487
0.512309
0.512229
0.512269
0.512474
0.512547
0.512559
0.512574
0.512572
0.512555
0.512482
0.512394
0.512356
0.512331
0.512287
0.51221
0.512118
0.512022
0.511892
0.511699
0.511533
0.511521
0.511584
0.511609
0.511594
0.511557
0.511506
0.511418
0.511312
0.511234
0.511152
0.511081
0.511092
0.511112
0.511129
0.5111
0.511068
0.51111
0.511377
0.511564
0.51155
0.511463
0.511341
0.511321
0.511294
0.511133
0.510815
0.510082
0.509378
0.508959
0.508469
0.507668
0.531446
0.698684
0.885153
1.06024
1.16538
1.22352
1.27546
1.27981
1.29412
1.31174
1.32715
1.33063
1.32981
1.32199
1.31452
1.31481
1.32148
1.32938
1.33095
1.33056
1.32867
1.32748
1.32763
1.32938
1.33302
1.335
1.3351
1.33582
0.512472
0.512464
0.512456
0.512448
0.512443
0.512438
0.512419
0.512407
0.512409
0.51241
0.512396
0.512327
0.512269
0.512267
0.512267
0.512239
0.512191
0.512211
0.512324
0.512328
0.512152
0.511943
0.511959
0.51206
0.512039
0.512008
0.512076
0.512236
0.512248
0.512234
0.512165
0.512016
0.511882
0.511781
0.511669
0.511552
0.511465
0.511384
0.511251
0.511113
0.511083
0.511098
0.511189
0.511306
0.511308
0.51129
0.511257
0.511198
0.511099
0.510986
0.510862
0.510842
0.510903
0.51105
0.511156
0.511137
0.511103
0.511142
0.51137
0.51143
0.51138
0.511193
0.510843
0.510447
0.509881
0.509267
0.508489
0.508015
0.507804
0.507451
0.506831
0.506322
0.506076
0.505889
0.505611
0.541416
0.65187
0.862716
1.03754
1.17797
1.29172
1.32418
1.33825
1.33668
1.32733
1.30666
1.31037
1.32245
1.33145
1.33178
1.33133
1.32864
1.32765
1.32698
1.32851
1.33152
1.33344
1.33452
1.33467
1.33637
0.512131
0.512119
0.512109
0.512103
0.512098
0.512081
0.512061
0.512057
0.512053
0.512038
0.51199
0.511913
0.511855
0.51183
0.511802
0.511707
0.511664
0.511698
0.511701
0.511648
0.511487
0.511415
0.511402
0.511315
0.511122
0.511118
0.511354
0.511685
0.511703
0.511682
0.511599
0.511474
0.51134
0.511206
0.511086
0.510991
0.510922
0.510836
0.510721
0.510684
0.510691
0.510723
0.510806
0.510948
0.511027
0.511026
0.510997
0.510963
0.510905
0.510754
0.510611
0.510635
0.510723
0.510914
0.511092
0.511075
0.511018
0.511042
0.511057
0.510884
0.510425
0.50947
0.508545
0.507885
0.507465
0.506935
0.506418
0.506163
0.505962
0.50572
0.5054
0.505347
0.505369
0.505238
0.505227
0.50545
0.505553
0.5052
0.517431
0.688771
0.92077
1.09691
1.20826
1.25969
1.28581
1.29358
1.32363
1.34088
1.33669
1.33192
1.32703
1.3241
1.32437
1.32682
1.32982
1.33206
1.33159
1.33189
1.33258
1.33532
0.511624
0.511596
0.511564
0.511535
0.511511
0.51149
0.511466
0.511414
0.511297
0.511118
0.510961
0.510943
0.510981
0.511006
0.510996
0.510933
0.510913
0.510933
0.510933
0.510843
0.510767
0.510815
0.510845
0.510748
0.510521
0.510518
0.510807
0.511292
0.511377
0.511369
0.511326
0.511245
0.511128
0.510977
0.510849
0.51078
0.510733
0.510669
0.51057
0.510513
0.510513
0.510537
0.510648
0.510795
0.5108
0.510751
0.510733
0.510742
0.510715
0.510526
0.510123
0.509885
0.509918
0.510279
0.510366
0.510282
0.510049
0.509721
0.509172
0.508379
0.507254
0.506344
0.505958
0.505833
0.50568
0.50536
0.505089
0.504904
0.504819
0.504665
0.504675
0.504954
0.50536
0.505433
0.505494
0.505683
0.505371
0.50503
0.50514
0.506045
0.507629
0.563932
0.743012
0.953327
1.13778
1.25752
1.30931
1.31939
1.32138
1.3118
1.31237
1.31442
1.319
1.32153
1.32368
1.32483
1.32488
1.32597
1.32832
1.33099
0.510702
0.510691
0.510689
0.510697
0.510717
0.51072
0.510713
0.510584
0.510317
0.510248
0.510254
0.510327
0.510556
0.51066
0.510661
0.510644
0.510629
0.510625
0.510597
0.510517
0.51051
0.510623
0.510677
0.510584
0.510328
0.5103
0.510498
0.510966
0.511188
0.5112
0.511174
0.511084
0.51092
0.510754
0.510672
0.510635
0.51059
0.510484
0.510243
0.510007
0.509947
0.50999
0.510214
0.510279
0.510158
0.50996
0.509943
0.509954
0.509939
0.509725
0.508958
0.508025
0.507646
0.507424
0.507109
0.506696
0.506503
0.506415
0.506215
0.505686
0.504996
0.504772
0.504769
0.504769
0.504669
0.504415
0.504333
0.504417
0.504468
0.504456
0.504552
0.505337
0.506658
0.50696
0.506579
0.505721
0.505238
0.506214
0.509783
0.513421
0.516097
0.517379
0.517884
0.518318
0.614492
0.895329
1.0591
1.15754
1.23581
1.25323
1.29437
1.30335
1.31042
1.30626
1.3069
1.30776
1.30988
1.31319
1.31609
1.31817
0.510642
0.510634
0.510632
0.510669
0.51068
0.510676
0.510629
0.510452
0.510346
0.510336
0.510351
0.510492
0.510764
0.510847
0.510845
0.51083
0.510786
0.51066
0.51046
0.510417
0.510436
0.510497
0.510494
0.510324
0.510121
0.510127
0.510266
0.510448
0.510472
0.510438
0.510275
0.509977
0.509606
0.509287
0.509194
0.509162
0.509053
0.508761
0.508233
0.507563
0.507292
0.50733
0.507423
0.507418
0.507307
0.507131
0.507006
0.506955
0.506924
0.506796
0.506372
0.505811
0.505514
0.505312
0.505134
0.505015
0.504918
0.504806
0.504591
0.504195
0.503962
0.503984
0.504123
0.504207
0.504154
0.504064
0.504143
0.504868
0.5058
0.506085
0.506276
0.506636
0.507926
0.509161
0.509447
0.510042
0.511492
0.514101
0.518259
0.521483
0.521069
0.521418
0.523967
0.527423
0.529732
0.531078
0.567552
0.754367
0.961101
1.12661
1.22367
1.24572
1.26998
1.27796
1.2874
1.28538
1.28688
1.28989
1.29206
1.29552
0.510369
0.510302
0.510253
0.510206
0.510137
0.510044
0.509925
0.509794
0.509686
0.509598
0.50953
0.509469
0.509373
0.5092
0.508954
0.508687
0.508459
0.508249
0.508078
0.507929
0.507793
0.507589
0.507232
0.506862
0.506723
0.506718
0.506763
0.506825
0.50682
0.506718
0.50651
0.506353
0.506221
0.506006
0.505899
0.505956
0.505989
0.505945
0.505653
0.505305
0.505276
0.505323
0.505413
0.505467
0.505465
0.505446
0.505305
0.50512
0.505093
0.505079
0.504917
0.504515
0.504223
0.504029
0.50399
0.504056
0.504149
0.504145
0.504024
0.503719
0.503647
0.503725
0.504046
0.504388
0.5045
0.504744
0.505666
0.507373
0.509653
0.511681
0.512102
0.511827
0.511847
0.513137
0.515758
0.518609
0.521188
0.522418
0.523689
0.526582
0.528767
0.529555
0.531455
0.53481
0.537724
0.540812
0.541966
0.542943
0.551446
0.716037
0.910023
1.06156
1.17687
1.20889
1.23812
1.24924
1.26103
1.26046
1.26074
1.26374
0.505868
0.505865
0.505809
0.505645
0.505459
0.50535
0.505275
0.505206
0.505127
0.505044
0.504987
0.504934
0.504825
0.504651
0.50448
0.504268
0.504099
0.504011
0.503996
0.504014
0.504123
0.504185
0.504164
0.504044
0.503976
0.504039
0.504303
0.504491
0.504505
0.504524
0.504619
0.504796
0.504812
0.504768
0.504787
0.505003
0.505126
0.50511
0.504927
0.504677
0.504639
0.504601
0.504492
0.504445
0.504497
0.504497
0.50439
0.504223
0.504251
0.504342
0.504327
0.504076
0.50381
0.503725
0.503723
0.503793
0.503962
0.504031
0.503999
0.503974
0.504159
0.504993
0.50669
0.508752
0.510452
0.511866
0.512999
0.513828
0.515282
0.517874
0.519206
0.519127
0.51903
0.519804
0.522254
0.525619
0.529611
0.532565
0.532932
0.534144
0.537334
0.538917
0.539712
0.541643
0.544494
0.547709
0.550063
0.551534
0.552587
0.555833
0.557323
0.684258
0.859173
1.0238
1.14578
1.18102
1.20879
1.22521
1.22914
1.23157
0.502497
0.502544
0.502579
0.502616
0.502688
0.502828
0.502946
0.50299
0.503
0.503
0.503002
0.503015
0.503011
0.503012
0.503024
0.503004
0.502907
0.502869
0.502899
0.503085
0.503428
0.50352
0.503477
0.503416
0.503451
0.503716
0.504123
0.504135
0.504008
0.503929
0.503963
0.504126
0.504357
0.504448
0.504516
0.504702
0.50483
0.504838
0.504781
0.504597
0.504424
0.504282
0.50409
0.503933
0.504001
0.504037
0.503952
0.503911
0.50401
0.504219
0.504289
0.504217
0.504139
0.504185
0.504329
0.504761
0.505599
0.50694
0.508591
0.5104
0.512531
0.514821
0.516954
0.518929
0.520867
0.522273
0.52228
0.521755
0.521592
0.522417
0.523971
0.52519
0.526667
0.529379
0.533079
0.536907
0.539255
0.541564
0.542376
0.542187
0.542642
0.54486
0.548186
0.552229
0.555363
0.556025
0.55687
0.558141
0.560892
0.56485
0.567207
0.567097
0.567477
0.666374
0.829441
0.998796
1.12056
1.16089
1.18066
1.20144
0.503787
0.503978
0.504198
0.504497
0.50484
0.505074
0.505212
0.505385
0.50544
0.505436
0.505404
0.505305
0.505282
0.505317
0.505433
0.505442
0.505416
0.505429
0.50564
0.505785
0.505749
0.505546
0.505237
0.505187
0.505348
0.505547
0.505522
0.50522
0.504637
0.504563
0.504704
0.504987
0.505219
0.50543
0.505622
0.505623
0.505585
0.505609
0.505816
0.50609
0.506103
0.505678
0.504504
0.504204
0.504292
0.504588
0.504755
0.504991
0.50543
0.506313
0.508026
0.510282
0.512431
0.514138
0.515844
0.517713
0.519511
0.521231
0.522816
0.524222
0.525412
0.526099
0.526202
0.526342
0.527016
0.527509
0.527351
0.526687
0.526996
0.528727
0.532761
0.537862
0.541955
0.544082
0.545614
0.547533
0.547669
0.547516
0.548146
0.549555
0.551616
0.554946
0.558254
0.561235
0.562442
0.562304
0.562844
0.565242
0.569113
0.571854
0.573514
0.574561
0.575693
0.57787
0.579962
0.665349
0.813113
0.978967
1.09454
1.15467
0.50613
0.506153
0.506359
0.506519
0.506663
0.506819
0.506838
0.506803
0.506804
0.506837
0.506846
0.506807
0.50674
0.506672
0.506624
0.50662
0.506667
0.506782
0.506802
0.506763
0.50625
0.505381
0.505228
0.505258
0.505397
0.505468
0.505368
0.50486
0.504684
0.504694
0.504981
0.505479
0.505766
0.506027
0.506597
0.507205
0.507501
0.507817
0.508513
0.510014
0.51173
0.512886
0.513773
0.514768
0.516078
0.517608
0.519197
0.520477
0.521634
0.523011
0.524686
0.526493
0.528064
0.529141
0.529964
0.530517
0.530755
0.530947
0.531339
0.531565
0.531448
0.530821
0.529926
0.529963
0.530959
0.533487
0.53696
0.540608
0.544167
0.547313
0.54985
0.55199
0.553961
0.554178
0.553571
0.552848
0.552953
0.553473
0.555513
0.559161
0.563768
0.56666
0.567389
0.567055
0.567455
0.569782
0.573492
0.576356
0.57777
0.578688
0.580135
0.582347
0.584804
0.585981
0.589043
0.589896
0.590087
0.662455
0.802312
1.04838
0.509848
0.509857
0.509905
0.510064
0.51047
0.510562
0.510562
0.510564
0.510605
0.510742
0.510994
0.511505
0.512007
0.512599
0.513348
0.51385
0.514056
0.514208
0.514505
0.514808
0.515068
0.515527
0.516308
0.517217
0.51791
0.518257
0.518581
0.519209
0.520262
0.521416
0.522326
0.523056
0.523733
0.524422
0.525261
0.526407
0.527679
0.528762
0.529711
0.530936
0.531941
0.532363
0.532757
0.533374
0.534048
0.534487
0.534709
0.534869
0.535072
0.535387
0.536056
0.5366
0.536543
0.536111
0.535736
0.535678
0.535663
0.535911
0.53676
0.538248
0.539987
0.542018
0.544325
0.547118
0.550078
0.552896
0.55538
0.557746
0.559796
0.560174
0.559617
0.558807
0.558748
0.558663
0.558049
0.558932
0.561621
0.565873
0.570117
0.572373
0.574378
0.575262
0.575059
0.575305
0.576565
0.578999
0.582778
0.585258
0.584907
0.585278
0.586556
0.589418
0.593463
0.594471
0.595162
0.596992
0.598765
0.600554
0.601038
0.772404
0.529007
0.529051
0.52928
0.529688
0.530212
0.530942
0.531587
0.53169
0.53163
0.531556
0.531573
0.531746
0.532249
0.533071
0.533773
0.533943
0.533956
0.534016
0.534232
0.534593
0.534987
0.535233
0.535401
0.535709
0.536095
0.536186
0.536192
0.536228
0.536406
0.536721
0.536998
0.537222
0.537365
0.537455
0.537555
0.537835
0.53825
0.538508
0.538655
0.538995
0.539249
0.539315
0.539569
0.540119
0.540355
0.540481
0.540689
0.54137
0.54159
0.541539
0.541734
0.542823
0.544617
0.546071
0.547273
0.548695
0.550749
0.553135
0.555309
0.557408
0.559513
0.561644
0.563612
0.565144
0.565502
0.565241
0.564699
0.564834
0.565
0.56485
0.563634
0.563189
0.564071
0.566472
0.570826
0.575411
0.578436
0.580596
0.581981
0.581662
0.580902
0.58092
0.581808
0.584169
0.587292
0.589356
0.590816
0.592438
0.593659
0.594568
0.596017
0.597991
0.600599
0.602867
0.6026
0.603236
0.605525
0.609218
0.61028
0.610959
0.543566
0.54364
0.54367
0.543703
0.543781
0.543888
0.544006
0.544093
0.54412
0.544129
0.544156
0.544375
0.544549
0.544512
0.544459
0.544479
0.544636
0.545053
0.545678
0.546152
0.546238
0.546203
0.5462
0.546402
0.547355
0.548034
0.547996
0.547898
0.547932
0.548203
0.548563
0.548926
0.5493
0.549319
0.54922
0.549244
0.549587
0.550333
0.550891
0.551273
0.551936
0.553357
0.555472
0.557155
0.557708
0.558023
0.558659
0.559853
0.561274
0.562547
0.563581
0.564663
0.565898
0.56717
0.568308
0.569199
0.569965
0.570575
0.570856
0.570822
0.570616
0.570491
0.570884
0.571342
0.571322
0.570795
0.57019
0.570438
0.571597
0.573655
0.576707
0.580195
0.583212
0.585518
0.587582
0.588507
0.588401
0.588256
0.58802
0.587082
0.587545
0.589423
0.592567
0.596129
0.598779
0.600168
0.599858
0.600088
0.601351
0.603315
0.605626
0.606899
0.607633
0.609521
0.610763
0.611706
0.613527
0.616385
0.618022
0.619185
0.559659
0.559507
0.559475
0.559487
0.559628
0.560217
0.560495
0.56049
0.5604
0.560336
0.560367
0.560692
0.561172
0.561365
0.561527
0.561898
0.562329
0.562571
0.562831
0.563207
0.563544
0.563934
0.564479
0.564896
0.565271
0.565641
0.565888
0.566038
0.566216
0.56652
0.566885
0.567241
0.567689
0.567997
0.56821
0.568544
0.568967
0.569522
0.569953
0.570437
0.571209
0.571768
0.572143
0.57244
0.572808
0.57331
0.573804
0.574132
0.574378
0.574771
0.575025
0.57498
0.574943
0.575036
0.575326
0.575743
0.576302
0.576866
0.577325
0.577743
0.577855
0.577856
0.578206
0.579431
0.581488
0.584169
0.587242
0.589718
0.591503
0.592997
0.594289
0.595172
0.595798
0.595767
0.59555
0.594955
0.593883
0.594024
0.595157
0.597895
0.601592
0.604872
0.606469
0.607462
0.607311
0.607137
0.607284
0.608152
0.609853
0.612849
0.615528
0.617117
0.617007
0.617148
0.618507
0.62117
0.62304
0.62365
0.624729
0.626247
0.575637
0.575716
0.575834
0.575962
0.576081
0.57632
0.576522
0.576519
0.57648
0.576539
0.576653
0.576654
0.576648
0.576748
0.577109
0.577186
0.577063
0.576997
0.577036
0.57724
0.577626
0.577831
0.57782
0.577693
0.577674
0.577767
0.578079
0.578471
0.578732
0.57893
0.579077
0.579279
0.579698
0.580253
0.581005
0.581381
0.581502
0.581649
0.581955
0.582288
0.582307
0.582163
0.582106
0.582199
0.582548
0.583284
0.584231
0.584959
0.585525
0.586261
0.58711
0.58794
0.588703
0.589407
0.590202
0.591082
0.591954
0.592966
0.594286
0.595944
0.597816
0.599655
0.600943
0.601144
0.601284
0.601571
0.60227
0.603236
0.603371
0.603166
0.602627
0.602296
0.60181
0.601927
0.602349
0.603701
0.60593
0.609
0.611778
0.613976
0.615073
0.615787
0.615536
0.614791
0.614557
0.615364
0.617231
0.620349
0.623017
0.624392
0.624429
0.624692
0.62479
0.625286
0.626778
0.629235
0.631512
0.631564
0.631934
0.634031
0.59191
0.592003
0.592112
0.592203
0.592283
0.592365
0.592434
0.592496
0.592713
0.592828
0.592884
0.593065
0.59329
0.59335
0.59339
0.593545
0.593613
0.593606
0.593721
0.594107
0.594466
0.594709
0.595027
0.595438
0.595694
0.595845
0.59613
0.596675
0.597191
0.597444
0.597611
0.597816
0.598062
0.598274
0.598493
0.598802
0.599072
0.599448
0.599996
0.600495
0.601013
0.601611
0.602481
0.603031
0.603366
0.604003
0.604619
0.604631
0.604578
0.604688
0.605164
0.605869
0.606477
0.606978
0.607504
0.608282
0.608838
0.608814
0.608587
0.608309
0.608269
0.60854
0.609152
0.609523
0.609494
0.608966
0.608293
0.608273
0.608683
0.609357
0.610558
0.61229
0.614515
0.617041
0.619593
0.621659
0.623259
0.624184
0.62462
0.62446
0.623871
0.623065
0.623046
0.623871
0.626057
0.628953
0.631444
0.632724
0.633325
0.632706
0.631946
0.632425
0.633669
0.636352
0.638869
0.639688
0.640321
0.640872
0.641426
0.642965
0.610192
0.610257
0.610322
0.610403
0.610526
0.610699
0.61084
0.610899
0.610942
0.611009
0.611113
0.61127
0.611487
0.611648
0.611673
0.611688
0.611877
0.612182
0.612209
0.61216
0.612165
0.612308
0.612695
0.61291
0.612971
0.613084
0.613305
0.613579
0.613775
0.61379
0.613834
0.614123
0.614253
0.614311
0.61441
0.6145
0.614623
0.614969
0.615441
0.615852
0.615996
0.615937
0.615885
0.615939
0.616218
0.616721
0.61689
0.616797
0.616688
0.616777
0.617203
0.617278
0.617053
0.616626
0.616534
0.616761
0.617676
0.618515
0.619105
0.619924
0.620146
0.62013
0.620441
0.621619
0.623654
0.626024
0.627759
0.628713
0.629676
0.63101
0.632459
0.633491
0.634306
0.634515
0.634635
0.634446
0.634206
0.633553
0.633087
0.632598
0.633058
0.634336
0.636652
0.638867
0.640871
0.641896
0.642572
0.642037
0.641286
0.641304
0.64226
0.644007
0.64621
0.648006
0.648798
0.648527
0.648264
0.648639
0.649809
0.651757
0.627825
0.627827
0.627864
0.627935
0.628127
0.628356
0.628408
0.62845
0.628624
0.628709
0.628599
0.628556
0.628697
0.628787
0.628698
0.628584
0.628598
0.62886
0.62909
0.629034
0.62877
0.628682
0.628731
0.629027
0.62941
0.629577
0.629637
0.629694
0.629807
0.629978
0.630141
0.630375
0.630778
0.631081
0.631113
0.631121
0.631195
0.631441
0.631538
0.63151
0.631526
0.631657
0.631802
0.63189
0.632071
0.632488
0.633082
0.633688
0.63415
0.634559
0.635194
0.635975
0.636447
0.636687
0.636941
0.637392
0.638129
0.638688
0.639091
0.639861
0.640895
0.64166
0.642325
0.642475
0.642463
0.642608
0.642946
0.643271
0.643225
0.642979
0.642446
0.641994
0.641576
0.640875
0.640139
0.640111
0.640568
0.641739
0.643552
0.646038
0.648611
0.6506
0.652199
0.652877
0.652747
0.652065
0.651584
0.651247
0.651708
0.652823
0.654901
0.656295
0.657992
0.657876
0.657526
0.657581
0.657985
0.658718
0.659915
0.661412
0.646724
0.646896
0.646883
0.646608
0.64644
0.646416
0.646482
0.64698
0.647284
0.64729
0.647298
0.647383
0.647433
0.647422
0.647411
0.64746
0.647627
0.647691
0.647777
0.648016
0.64816
0.648112
0.6479
0.647816
0.647866
0.648069
0.64841
0.648668
0.648691
0.648635
0.648612
0.648696
0.649017
0.649353
0.649404
0.649402
0.649413
0.649519
0.649823
0.650394
0.650938
0.651184
0.651391
0.65166
0.651876
0.65206
0.652232
0.652258
0.652154
0.652092
0.652205
0.652624
0.653041
0.65335
0.653779
0.654317
0.65439
0.654217
0.653975
0.65363
0.653534
0.653656
0.653849
0.653859
0.653695
0.653216
0.653137
0.653323
0.653626
0.653963
0.654588
0.655596
0.656906
0.658518
0.660168
0.661898
0.663259
0.664464
0.665117
0.665667
0.665522
0.665165
0.664549
0.663892
0.663248
0.662385
0.662581
0.663395
0.664951
0.666609
0.667797
0.668078
0.667866
0.667465
0.66724
0.667551
0.668056
0.6692
0.6699
0.670163
0.667436
0.667495
0.667563
0.667589
0.66755
0.667407
0.667342
0.667345
0.667379
0.667428
0.667604
0.667745
0.667715
0.667745
0.667865
0.667871
0.667913
0.668144
0.66823
0.668189
0.668201
0.668389
0.668516
0.66845
0.66825
0.668238
0.668361
0.668566
0.668808
0.668955
0.668946
0.668892
0.668968
0.669372
0.669611
0.669598
0.669462
0.669318
0.669311
0.669372
0.669495
0.669517
0.66949
0.669487
0.66953
0.66969
0.669959
0.670216
0.670518
0.670791
0.670848
0.670776
0.670448
0.670076
0.670036
0.670114
0.670344
0.670767
0.671271
0.671439
0.671407
0.671418
0.671626
0.672115
0.672732
0.67338
0.673899
0.674267
0.674644
0.675137
0.675626
0.676025
0.676297
0.676465
0.676351
0.676121
0.675637
0.674972
0.674027
0.672792
0.671363
0.670479
0.669684
0.670064
0.67113
0.673135
0.675349
0.677492
0.678528
0.678974
0.678532
0.677862
0.677184
0.676693
0.677016
0.67787
0.679015
0.680225
0.680192
0.680071
0.688557
0.688567
0.688409
0.688328
0.688355
0.68843
0.688495
0.688541
0.688517
0.688386
0.688278
0.688286
0.688459
0.688566
0.688518
0.688327
0.688278
0.688366
0.688574
0.688598
0.688544
0.688512
0.688532
0.688577
0.688579
0.688476
0.688221
0.688141
0.68814
0.688156
0.688229
0.68834
0.688354
0.688312
0.688247
0.688234
0.688236
0.688219
0.688133
0.688041
0.688042
0.688087
0.688152
0.688171
0.688178
0.688188
0.688172
0.688069
0.687914
0.687904
0.687937
0.687963
0.688013
0.688184
0.688515
0.688717
0.688679
0.688474
0.688276
0.688301
0.688515
0.688923
0.68923
0.689222
0.689054
0.688879
0.688809
0.68873
0.688599
0.688383
0.687983
0.68755
0.687078
0.686621
0.686242
0.685704
0.685712
0.685943
0.68653
0.68746
0.688892
0.690428
0.691985
0.693172
0.693809
0.694076
0.693802
0.693255
0.692313
0.691181
0.690127
0.688985
0.688996
0.689786
0.690976
0.692014
0.692209
0.691692
0.690798
0.689807
0.711192
0.711
0.710835
0.710755
0.710757
0.710965
0.711149
0.711103
0.710906
0.710868
0.710898
0.71086
0.710807
0.710805
0.710845
0.710976
0.711001
0.710948
0.710864
0.710734
0.710646
0.710767
0.711156
0.711221
0.710966
0.710441
0.710319
0.710348
0.710475
0.710557
0.710558
0.71051
0.710366
0.710292
0.710299
0.710357
0.71039
0.710353
0.710226
0.710062
0.709952
0.709907
0.709885
0.709883
0.709879
0.709865
0.709872
0.709925
0.709942
0.709915
0.709832
0.709721
0.709563
0.709337
0.709245
0.709244
0.709213
0.709203
0.70921
0.709165
0.709019
0.708721
0.708372
0.708241
0.70825
0.708247
0.708166
0.707967
0.7077
0.707591
0.707578
0.707539
0.707561
0.707668
0.707854
0.708011
0.708106
0.708266
0.708224
0.708115
0.707802
0.707266
0.70645
0.705307
0.70381
0.702188
0.700351
0.699073
0.697812
0.698208
0.69934
0.701266
0.702877
0.704394
0.704175
0.703717
0.702537
0.701564
0.700492
0.700939
0.735311
0.735247
0.735085
0.734887
0.734839
0.734847
0.734863
0.73486
0.734859
0.734834
0.734692
0.734595
0.734602
0.734597
0.734419
0.734267
0.734274
0.734233
0.734141
0.734144
0.734162
0.73413
0.733965
0.733872
0.733827
0.733718
0.733564
0.733437
0.733293
0.733181
0.733148
0.733103
0.732958
0.732652
0.732438
0.732352
0.732307
0.732248
0.73212
0.731896
0.731661
0.731512
0.731401
0.731281
0.731137
0.730947
0.730696
0.730466
0.730301
0.730134
0.72992
0.72967
0.729423
0.729168
0.728856
0.728531
0.728254
0.728005
0.727724
0.72742
0.727161
0.726949
0.72672
0.726441
0.726156
0.725855
0.725532
0.725284
0.725022
0.724659
0.72436
0.724106
0.723775
0.723325
0.722908
0.722521
0.722109
0.721498
0.720809
0.720064
0.719371
0.71869
0.718098
0.717719
0.717883
0.718371
0.719177
0.720047
0.720826
0.721225
0.721003
0.720398
0.719417
0.718002
0.716373
0.714777
0.713127
0.71267
0.713178
0.713719
0.760913
0.760985
0.761059
0.760975
0.760607
0.760534
0.760603
0.760581
0.760386
0.760334
0.760351
0.760282
0.760046
0.759913
0.759743
0.759556
0.759544
0.759527
0.759332
0.759191
0.759197
0.759148
0.758911
0.75859
0.75848
0.758384
0.758291
0.758167
0.757966
0.757782
0.757658
0.757508
0.757254
0.756973
0.756777
0.756628
0.75646
0.756279
0.756119
0.755891
0.755591
0.755336
0.755143
0.754952
0.754719
0.754461
0.754186
0.753819
0.753456
0.753147
0.75288
0.752582
0.752232
0.751915
0.751586
0.751195
0.750784
0.750426
0.750134
0.749821
0.749414
0.748955
0.748548