/*--------------------------------*- C++ -*----------------------------------*\
  =========                 |
  \\      /  F ield         | OpenFOAM: The Open Source CFD Toolbox
   \\    /   O peration     | Website:  https://openfoam.org
    \\  /    A nd           | Version:  7
     \\/     M anipulation  |
\*---------------------------------------------------------------------------*/
FoamFile
{
    version     2.0;
    format      ascii;
    class       volVectorField;
    location    "4";
    object      U;
}
// * * * * * * * * * * * * * * * * * * * * * * * * * * * * * * * * * * * * * //

dimensions      [0 1 -1 0 0 0 0];

internalField   nonuniform List<vector> 
90000
(
(2.33557 -1.39319 0)
(2.27011 -1.01055 0)
(2.30257 -0.797992 0)
(2.26203 -0.45493 0)
(2.3263 -0.214855 0)
(2.41319 -0.148306 0)
(2.41583 -0.00198098 0)
(2.43379 0.147418 0)
(2.45152 0.282029 0)
(2.47412 0.357797 0)
(2.47458 0.453783 0)
(2.48324 0.539069 0)
(2.49152 0.609237 0)
(2.50412 0.661966 0)
(2.51033 0.712774 0)
(2.52454 0.728362 0)
(2.54095 0.736701 0)
(2.57137 0.723985 0)
(2.61773 0.689376 0)
(2.63734 0.66007 0)
(2.67966 0.623949 0)
(2.72333 0.574075 0)
(2.73538 0.532081 0)
(2.77987 0.498862 0)
(2.80695 0.469142 0)
(2.83212 0.44447 0)
(2.85252 0.429982 0)
(2.86806 0.428946 0)
(2.88259 0.431408 0)
(2.89707 0.42974 0)
(2.90973 0.424126 0)
(2.92355 0.412792 0)
(2.93334 0.396341 0)
(2.93748 0.378365 0)
(2.93788 0.359217 0)
(2.93797 0.338909 0)
(2.93962 0.320644 0)
(2.94334 0.30946 0)
(2.94864 0.299147 0)
(2.9555 0.294665 0)
(2.96287 0.288097 0)
(2.9685 0.289729 0)
(2.9721 0.287163 0)
(2.97447 0.287475 0)
(2.97634 0.285794 0)
(2.97768 0.285193 0)
(2.9776 0.289065 0)
(2.97739 0.291704 0)
(2.97634 0.297804 0)
(2.97664 0.300531 0)
(2.97731 0.303764 0)
(2.97776 0.303724 0)
(2.97858 0.304517 0)
(2.97818 0.306059 0)
(2.97718 0.308776 0)
(2.9768 0.310438 0)
(2.97806 0.310728 0)
(2.97883 0.305841 0)
(2.98053 0.300913 0)
(2.98121 0.295823 0)
(2.98155 0.290614 0)
(2.98286 0.283371 0)
(2.98247 0.274288 0)
(2.98385 0.270087 0)
(2.98495 0.266358 0)
(2.9872 0.265945 0)
(2.98959 0.265982 0)
(2.9935 0.266786 0)
(2.9971 0.266271 0)
(2.99816 0.262458 0)
(2.99877 0.254032 0)
(2.99875 0.246439 0)
(2.99911 0.237871 0)
(3.002 0.23373 0)
(3.00392 0.230022 0)
(3.00849 0.228314 0)
(3.01049 0.225011 0)
(3.011 0.217165 0)
(3.00949 0.204048 0)
(3.00792 0.192937 0)
(3.006 0.176196 0)
(3.00732 0.174335 0)
(3.00378 0.155336 0)
(3.00357 0.149641 0)
(2.99835 0.129781 0)
(2.99631 0.115528 0)
(2.99485 0.103976 0)
(2.98939 0.0822705 0)
(2.98807 0.0731808 0)
(2.97145 0.0353013 0)
(2.95937 0.00775493 0)
(2.95619 -0.00335216 0)
(2.94446 -0.0319465 0)
(2.93666 -0.0453526 0)
(2.92988 -0.0469896 0)
(2.92358 -0.0670169 0)
(2.91157 -0.0922253 0)
(2.8715 -0.136525 0)
(2.94043 -0.0943268 0)
(3.00527 0.00661469 0)
(2.6535 -1.91032 0)
(2.65371 -1.91016 0)
(2.65399 -1.90997 0)
(2.65416 -1.91001 0)
(2.65456 -1.90976 0)
(2.6545 -1.91026 0)
(2.64917 -1.8979 0)
(2.63178 -1.85687 0)
(2.60209 -1.77429 0)
(2.56106 -1.65378 0)
(2.50463 -1.48307 0)
(2.43626 -1.22566 0)
(2.38374 -0.998549 0)
(2.30597 -0.700859 0)
(2.25699 -0.476054 0)
(2.17872 -0.210461 0)
(2.14649 -0.0094389 0)
(2.09566 0.206395 0)
(2.0951 0.328331 0)
(2.07641 0.449586 0)
(2.09352 0.488783 0)
(2.12341 0.535058 0)
(2.16785 0.527559 0)
(2.24275 0.491925 0)
(2.28333 0.433511 0)
(2.33404 0.373904 0)
(2.38502 0.320088 0)
(2.43069 0.272275 0)
(2.47994 0.252804 0)
(2.51496 0.252584 0)
(2.54097 0.259656 0)
(2.55943 0.280128 0)
(2.59061 0.298111 0)
(2.62927 0.312187 0)
(2.66729 0.319212 0)
(2.70183 0.31982 0)
(2.73447 0.322325 0)
(2.76418 0.328262 0)
(2.7898 0.334299 0)
(2.81079 0.341474 0)
(2.82673 0.348344 0)
(2.84056 0.356113 0)
(2.8557 0.362023 0)
(2.87052 0.366358 0)
(2.88484 0.368875 0)
(2.89772 0.369182 0)
(2.90842 0.370107 0)
(2.91757 0.369188 0)
(2.92467 0.369296 0)
(2.9301 0.369587 0)
(2.9342 0.367601 0)
(2.93787 0.361781 0)
(2.94152 0.353966 0)
(2.94376 0.343073 0)
(2.94571 0.333559 0)
(2.94688 0.323 0)
(2.94969 0.312438 0)
(2.95421 0.298133 0)
(2.96017 0.282169 0)
(2.96297 0.267233 0)
(2.96588 0.258014 0)
(2.96558 0.254181 0)
(2.97366 0.255272 0)
(2.97614 0.25605 0)
(2.97889 0.258261 0)
(2.98097 0.262769 0)
(2.98441 0.268414 0)
(2.98591 0.268399 0)
(2.98564 0.264516 0)
(2.98573 0.254722 0)
(2.98598 0.24291 0)
(2.99003 0.235693 0)
(2.99108 0.231321 0)
(2.99629 0.229151 0)
(3.00066 0.228198 0)
(3.00418 0.227139 0)
(3.00427 0.220916 0)
(3.00239 0.208251 0)
(3.00139 0.195969 0)
(3.00089 0.1871 0)
(3.00012 0.174583 0)
(3.00017 0.169546 0)
(2.99756 0.151746 0)
(2.99681 0.142602 0)
(2.99145 0.124504 0)
(2.99077 0.112262 0)
(2.98963 0.100847 0)
(2.98424 0.0784195 0)
(2.98218 0.068897 0)
(2.96501 0.0286073 0)
(2.95296 0.00367426 0)
(2.94832 -0.0143235 0)
(2.93979 -0.0322328 0)
(2.92863 -0.0471527 0)
(2.91547 -0.0611162 0)
(2.90497 -0.0626768 0)
(2.87156 -0.0917837 0)
(2.78489 -0.129999 0)
(2.85652 -0.0862914 0)
(2.95866 0.0164037 0)
(2.65469 -1.90857 0)
(2.65495 -1.90855 0)
(2.65507 -1.90884 0)
(2.65539 -1.90902 0)
(2.65566 -1.90953 0)
(2.65597 -1.90985 0)
(2.65711 -1.91128 0)
(2.65759 -1.91196 0)
(2.65869 -1.91139 0)
(2.65895 -1.91235 0)
(2.66034 -1.91208 0)
(2.66086 -1.91362 0)
(2.66296 -1.91309 0)
(2.66385 -1.91524 0)
(2.66142 -1.90931 0)
(2.63295 -1.85622 0)
(2.55425 -1.725 0)
(2.41504 -1.48509 0)
(2.25232 -1.17153 0)
(2.06901 -0.800872 0)
(1.89925 -0.448615 0)
(1.76692 -0.152357 0)
(1.65729 0.100991 0)
(1.59769 0.291766 0)
(1.60153 0.384982 0)
(1.62451 0.430173 0)
(1.71944 0.414957 0)
(1.79557 0.358615 0)
(1.87261 0.286902 0)
(1.9333 0.221738 0)
(2.00464 0.190407 0)
(2.04831 0.184076 0)
(2.08092 0.190158 0)
(2.11342 0.210962 0)
(2.16094 0.250588 0)
(2.21843 0.289554 0)
(2.27342 0.313515 0)
(2.32351 0.326887 0)
(2.36945 0.321809 0)
(2.40379 0.300331 0)
(2.4412 0.277181 0)
(2.48236 0.269496 0)
(2.52359 0.274039 0)
(2.56111 0.279268 0)
(2.59569 0.281485 0)
(2.62948 0.277192 0)
(2.66371 0.274836 0)
(2.69784 0.269234 0)
(2.72892 0.266847 0)
(2.7554 0.262643 0)
(2.77895 0.258906 0)
(2.8012 0.251234 0)
(2.82264 0.245371 0)
(2.84211 0.237628 0)
(2.85931 0.235617 0)
(2.87347 0.236052 0)
(2.88469 0.237936 0)
(2.89377 0.244393 0)
(2.90219 0.247046 0)
(2.91412 0.251033 0)
(2.92627 0.259494 0)
(2.93488 0.271616 0)
(2.94304 0.284813 0)
(2.94848 0.29285 0)
(2.95275 0.293533 0)
(2.95535 0.289718 0)
(2.95759 0.280054 0)
(2.96063 0.265342 0)
(2.96562 0.242952 0)
(2.96988 0.229934 0)
(2.96988 0.220858 0)
(2.97986 0.218693 0)
(2.985 0.222293 0)
(2.99168 0.229381 0)
(2.99374 0.230379 0)
(2.99314 0.225329 0)
(2.99158 0.210277 0)
(2.9911 0.192628 0)
(2.99495 0.184829 0)
(2.99517 0.175808 0)
(2.99501 0.169429 0)
(2.99427 0.161967 0)
(2.99096 0.144446 0)
(2.99008 0.134718 0)
(2.98619 0.1163 0)
(2.98758 0.106136 0)
(2.98627 0.0936027 0)
(2.9802 0.0709266 0)
(2.97679 0.0589524 0)
(2.96107 0.0163508 0)
(2.9475 -0.00734957 0)
(2.93976 -0.0165045 0)
(2.92627 -0.0410526 0)
(2.90748 -0.0690888 0)
(2.89172 -0.060302 0)
(2.86195 -0.0621329 0)
(2.79546 -0.0805871 0)
(2.65297 -0.128705 0)
(2.72395 -0.108688 0)
(2.87154 -0.00150041 0)
(2.65543 -1.91339 0)
(2.65614 -1.91391 0)
(2.65724 -1.91417 0)
(2.65833 -1.9148 0)
(2.65959 -1.91542 0)
(2.66095 -1.91622 0)
(2.6625 -1.91691 0)
(2.66417 -1.91786 0)
(2.66643 -1.91829 0)
(2.66846 -1.91962 0)
(2.6712 -1.92027 0)
(2.6734 -1.92235 0)
(2.67668 -1.92327 0)
(2.67957 -1.9251 0)
(2.68341 -1.92755 0)
(2.68637 -1.92788 0)
(2.68932 -1.92835 0)
(2.69116 -1.9312 0)
(2.69554 -1.93141 0)
(2.69703 -1.9364 0)
(2.68098 -1.91098 0)
(2.58137 -1.78256 0)
(2.3571 -1.507 0)
(2.06545 -1.08196 0)
(1.78932 -0.636102 0)
(1.44802 -0.21336 0)
(1.23272 0.0745375 0)
(1.2225 0.20619 0)
(1.28514 0.204391 0)
(1.43477 0.23465 0)
(1.53851 0.226513 0)
(1.59049 0.205777 0)
(1.62384 0.181104 0)
(1.6685 0.188552 0)
(1.71929 0.214739 0)
(1.73938 0.233876 0)
(1.74664 0.253401 0)
(1.76512 0.262338 0)
(1.79166 0.278907 0)
(1.80956 0.26346 0)
(1.88337 0.267173 0)
(1.95317 0.252271 0)
(2.01214 0.232314 0)
(2.0674 0.214023 0)
(2.12005 0.219542 0)
(2.17315 0.23025 0)
(2.22553 0.245297 0)
(2.27724 0.253072 0)
(2.32563 0.249879 0)
(2.37429 0.251931 0)
(2.42314 0.264619 0)
(2.47103 0.284828 0)
(2.5185 0.302015 0)
(2.56505 0.313384 0)
(2.60995 0.318748 0)
(2.65084 0.31681 0)
(2.68499 0.316171 0)
(2.7139 0.311677 0)
(2.74066 0.306102 0)
(2.76826 0.294451 0)
(2.79499 0.283749 0)
(2.81877 0.268559 0)
(2.83992 0.256936 0)
(2.85891 0.24234 0)
(2.87658 0.230419 0)
(2.89287 0.217364 0)
(2.90685 0.20974 0)
(2.91714 0.206134 0)
(2.92471 0.208295 0)
(2.94155 0.218072 0)
(2.94624 0.232391 0)
(2.95293 0.242152 0)
(2.9605 0.248807 0)
(2.96617 0.244382 0)
(2.96885 0.229726 0)
(2.97291 0.200205 0)
(2.9737 0.18187 0)
(2.97594 0.165655 0)
(2.98368 0.163667 0)
(2.98581 0.161389 0)
(2.98714 0.159518 0)
(2.98483 0.146657 0)
(2.98124 0.128881 0)
(2.98109 0.120651 0)
(2.97748 0.100778 0)
(2.97989 0.0932539 0)
(2.9771 0.0798139 0)
(2.96954 0.0560704 0)
(2.96493 0.0392998 0)
(2.94683 -0.00478977 0)
(2.93428 -0.0156761 0)
(2.9122 -0.0235168 0)
(2.89503 -0.0455695 0)
(2.86638 -0.0485094 0)
(2.83097 -0.0465033 0)
(2.77276 -0.0523715 0)
(2.66278 -0.0640835 0)
(2.48282 -0.104624 0)
(2.54582 -0.105055 0)
(2.73167 0.00912165 0)
(2.66823 -1.91348 0)
(2.66993 -1.91373 0)
(2.67128 -1.91491 0)
(2.67339 -1.91531 0)
(2.67496 -1.91686 0)
(2.6774 -1.91744 0)
(2.67912 -1.91941 0)
(2.68198 -1.92011 0)
(2.68396 -1.92248 0)
(2.68725 -1.92345 0)
(2.68946 -1.92639 0)
(2.69319 -1.92762 0)
(2.69575 -1.93086 0)
(2.69974 -1.93251 0)
(2.70271 -1.93594 0)
(2.70738 -1.93758 0)
(2.71036 -1.94207 0)
(2.71565 -1.94399 0)
(2.71906 -1.94911 0)
(2.72435 -1.95091 0)
(2.73069 -1.95834 0)
(2.73389 -1.96055 0)
(2.7372 -1.962 0)
(2.74023 -1.96537 0)
(2.73882 -1.96306 0)
(2.55685 -1.77297 0)
(2.14399 -1.35234 0)
(1.71041 -0.718599 0)
(1.24989 -0.229246 0)
(1.26548 -0.0143766 0)
(1.27501 0.126098 0)
(1.32579 0.199587 0)
(1.41764 0.192701 0)
(1.49543 0.213539 0)
(1.54261 0.231969 0)
(1.5251 0.198649 0)
(1.52504 0.142535 0)
(1.52978 0.130534 0)
(1.54744 0.124725 0)
(1.55599 0.160707 0)
(1.59246 0.209679 0)
(1.62265 0.225709 0)
(1.6516 0.210382 0)
(1.70326 0.202148 0)
(1.75806 0.198336 0)
(1.79833 0.20628 0)
(1.83228 0.212144 0)
(1.86147 0.2256 0)
(1.89196 0.225727 0)
(1.94399 0.212884 0)
(1.99923 0.193034 0)
(2.05514 0.178907 0)
(2.10878 0.182802 0)
(2.16227 0.195818 0)
(2.2158 0.210424 0)
(2.2684 0.213779 0)
(2.32302 0.207289 0)
(2.37757 0.213069 0)
(2.42914 0.226552 0)
(2.47862 0.240839 0)
(2.52712 0.240242 0)
(2.57226 0.238232 0)
(2.6135 0.235762 0)
(2.65178 0.236725 0)
(2.68863 0.236354 0)
(2.72482 0.237454 0)
(2.75922 0.246737 0)
(2.78976 0.258747 0)
(2.81339 0.263517 0)
(2.83736 0.263405 0)
(2.85535 0.252972 0)
(2.87016 0.234117 0)
(2.88676 0.21092 0)
(2.90365 0.191129 0)
(2.9166 0.174372 0)
(2.92506 0.171874 0)
(2.93747 0.170926 0)
(2.94286 0.181106 0)
(2.94891 0.186646 0)
(2.95213 0.179383 0)
(2.95554 0.169384 0)
(2.95393 0.14436 0)
(2.95685 0.127487 0)
(2.96036 0.123872 0)
(2.95517 0.109908 0)
(2.95535 0.105328 0)
(2.94812 0.0877768 0)
(2.93879 0.0601174 0)
(2.92821 0.0350148 0)
(2.91112 0.0218819 0)
(2.88742 -0.00707028 0)
(2.85912 -0.0263942 0)
(2.823 -0.0305751 0)
(2.77445 -0.0463798 0)
(2.71309 -0.0526054 0)
(2.62012 -0.0451195 0)
(2.46507 -0.0466886 0)
(2.29645 -0.111263 0)
(2.35529 -0.133644 0)
(2.56191 -0.0234229 0)
(2.68129 -1.92619 0)
(2.68286 -1.92792 0)
(2.68533 -1.92873 0)
(2.68706 -1.9309 0)
(2.68988 -1.93184 0)
(2.6918 -1.93434 0)
(2.69509 -1.93525 0)
(2.69701 -1.93834 0)
(2.70073 -1.93933 0)
(2.70278 -1.94294 0)
(2.70696 -1.94401 0)
(2.70924 -1.94798 0)
(2.71384 -1.94908 0)
(2.71632 -1.95332 0)
(2.72114 -1.95473 0)
(2.72401 -1.95909 0)
(2.72901 -1.96084 0)
(2.73245 -1.96496 0)
(2.73738 -1.9673 0)
(2.74162 -1.97088 0)
(2.7461 -1.97418 0)
(2.75095 -1.97739 0)
(2.75595 -1.98094 0)
(2.76128 -1.9841 0)
(2.76737 -1.98812 0)
(2.77097 -1.99072 0)
(2.77613 -1.99095 0)
(2.77813 -1.99239 0)
(2.55888 -1.78547 0)
(2.26659 -1.40659 0)
(1.99916 -0.905641 0)
(1.80287 -0.450835 0)
(1.76047 -0.204808 0)
(1.70019 -0.0498254 0)
(1.65419 0.0699913 0)
(1.60347 0.0792808 0)
(1.60118 0.0677589 0)
(1.59546 0.0867334 0)
(1.59521 0.108308 0)
(1.63743 0.137091 0)
(1.64294 0.135897 0)
(1.61154 0.140058 0)
(1.60318 0.138336 0)
(1.63788 0.144258 0)
(1.67585 0.156007 0)
(1.69352 0.15396 0)
(1.70495 0.148722 0)
(1.72029 0.137806 0)
(1.72584 0.166309 0)
(1.74307 0.199099 0)
(1.76936 0.209761 0)
(1.80228 0.204638 0)
(1.83666 0.192049 0)
(1.87066 0.18857 0)
(1.89926 0.19965 0)
(1.92574 0.206945 0)
(1.96763 0.208376 0)
(2.02191 0.190671 0)
(2.07709 0.179687 0)
(2.12829 0.185212 0)
(2.17591 0.206212 0)
(2.22624 0.206891 0)
(2.27687 0.200055 0)
(2.32994 0.202991 0)
(2.3805 0.220918 0)
(2.43142 0.232492 0)
(2.48358 0.228794 0)
(2.53486 0.219536 0)
(2.58071 0.217583 0)
(2.62275 0.202252 0)
(2.66283 0.18935 0)
(2.69803 0.18136 0)
(2.7293 0.18192 0)
(2.75816 0.191295 0)
(2.78468 0.197932 0)
(2.80686 0.205223 0)
(2.82775 0.205976 0)
(2.84282 0.187318 0)
(2.85675 0.159798 0)
(2.87186 0.133318 0)
(2.88487 0.124755 0)
(2.88791 0.117114 0)
(2.89385 0.115867 0)
(2.89936 0.111735 0)
(2.89399 0.0868203 0)
(2.89603 0.0715381 0)
(2.88649 0.0502172 0)
(2.87519 0.0277614 0)
(2.84795 0.0155537 0)
(2.82757 -0.00408636 0)
(2.7903 -0.00779064 0)
(2.74469 -0.00635123 0)
(2.68789 -0.024519 0)
(2.61649 -0.0366791 0)
(2.53003 -0.0332948 0)
(2.40206 -0.0378775 0)
(2.23538 -0.00480221 0)
(2.13278 -0.102336 0)
(2.1882 -0.126928 0)
(2.40603 -0.0286119 0)
(2.70349 -1.9373 0)
(2.70623 -1.93805 0)
(2.7079 -1.94062 0)
(2.71099 -1.94147 0)
(2.71287 -1.94424 0)
(2.71614 -1.94538 0)
(2.71834 -1.94827 0)
(2.72185 -1.94961 0)
(2.72425 -1.95277 0)
(2.72813 -1.9541 0)
(2.73066 -1.95755 0)
(2.73472 -1.95907 0)
(2.73764 -1.96241 0)
(2.74175 -1.96432 0)
(2.74511 -1.96752 0)
(2.74942 -1.96955 0)
(2.7532 -1.9725 0)
(2.75718 -1.97538 0)
(2.76159 -1.97778 0)
(2.76567 -1.98071 0)
(2.76997 -1.98347 0)
(2.77373 -1.98727 0)
(2.77861 -1.98956 0)
(2.78294 -1.99282 0)
(2.78775 -1.9953 0)
(2.79244 -1.99828 0)
(2.79674 -2.0019 0)
(2.80259 -2.00457 0)
(2.8051 -2.00774 0)
(2.81013 -2.00743 0)
(2.81067 -2.0138 0)
(2.77632 -1.94668 0)
(2.65115 -1.72706 0)
(2.45645 -1.39532 0)
(2.20752 -0.886956 0)
(2.09461 -0.539506 0)
(1.97538 -0.270665 0)
(1.91128 -0.0720442 0)
(1.78805 0.102846 0)
(1.75728 0.148372 0)
(1.71412 0.125337 0)
(1.68296 0.119976 0)
(1.67491 0.136653 0)
(1.714 0.150784 0)
(1.73002 0.148327 0)
(1.72503 0.134847 0)
(1.72079 0.113186 0)
(1.73831 0.11659 0)
(1.76348 0.123378 0)
(1.7636 0.136716 0)
(1.75801 0.146077 0)
(1.75975 0.152898 0)
(1.77341 0.156397 0)
(1.79065 0.156968 0)
(1.80416 0.14803 0)
(1.81245 0.159328 0)
(1.82173 0.187075 0)
(1.84351 0.205629 0)
(1.87696 0.20794 0)
(1.90545 0.198013 0)
(1.93284 0.186551 0)
(1.9584 0.1963 0)
(1.99081 0.192496 0)
(2.0378 0.170493 0)
(2.0872 0.152664 0)
(2.13305 0.158429 0)
(2.17659 0.180178 0)
(2.22526 0.182678 0)
(2.27759 0.177487 0)
(2.32336 0.201553 0)
(2.3733 0.218264 0)
(2.42265 0.221466 0)
(2.46789 0.204378 0)
(2.50922 0.192826 0)
(2.54878 0.179923 0)
(2.58795 0.164632 0)
(2.62314 0.140713 0)
(2.65526 0.13032 0)
(2.6825 0.129741 0)
(2.70961 0.136289 0)
(2.73287 0.156075 0)
(2.74445 0.14816 0)
(2.75667 0.131586 0)
(2.76666 0.115219 0)
(2.76659 0.0907802 0)
(2.76585 0.0930407 0)
(2.76046 0.085453 0)
(2.7396 0.0652032 0)
(2.70187 0.0489799 0)
(2.67012 0.0245205 0)
(2.61978 -0.00189681 0)
(2.55803 -0.0194569 0)
(2.48684 -0.0209413 0)
(2.40129 -0.0192498 0)
(2.29831 0.000438385 0)
(2.16402 0.020637 0)
(2.03887 0.0122377 0)
(1.99865 -0.0930045 0)
(2.05207 -0.154163 0)
(2.27093 -0.0677872 0)
(2.72369 -1.95779 0)
(2.7257 -1.95966 0)
(2.72843 -1.96082 0)
(2.73054 -1.96305 0)
(2.73356 -1.96422 0)
(2.73574 -1.96681 0)
(2.73902 -1.96805 0)
(2.74156 -1.97051 0)
(2.74473 -1.9723 0)
(2.74766 -1.97458 0)
(2.75091 -1.97659 0)
(2.75392 -1.97902 0)
(2.75738 -1.98094 0)
(2.76061 -1.98332 0)
(2.76404 -1.9856 0)
(2.76771 -1.98772 0)
(2.77139 -1.98993 0)
(2.77504 -1.99239 0)
(2.77896 -1.9945 0)
(2.78269 -1.99698 0)
(2.78689 -1.99875 0)
(2.78989 -2.0024 0)
(2.79462 -2.00348 0)
(2.79767 -2.00718 0)
(2.8031 -2.00737 0)
(2.80525 -2.01248 0)
(2.81129 -2.01202 0)
(2.81316 -2.01774 0)
(2.81991 -2.01646 0)
(2.8211 -2.02268 0)
(2.8273 -2.0222 0)
(2.82951 -2.02361 0)
(2.8307 -2.02737 0)
(2.83493 -2.02717 0)
(2.83576 -2.03421 0)
(2.82266 -1.97669 0)
(2.72879 -1.78463 0)
(2.58637 -1.44195 0)
(2.40826 -0.952252 0)
(2.31087 -0.608643 0)
(2.18073 -0.314918 0)
(2.08055 -0.0767749 0)
(1.93304 0.109207 0)
(1.86288 0.166974 0)
(1.8248 0.154741 0)
(1.80505 0.151442 0)
(1.80444 0.154123 0)
(1.83405 0.157674 0)
(1.8418 0.147105 0)
(1.8304 0.13743 0)
(1.81083 0.128861 0)
(1.80389 0.131975 0)
(1.80656 0.135861 0)
(1.81011 0.13441 0)
(1.81501 0.128691 0)
(1.83223 0.1334 0)
(1.83558 0.144084 0)
(1.83437 0.155415 0)
(1.84024 0.165122 0)
(1.84832 0.162498 0)
(1.86074 0.154904 0)
(1.87811 0.14519 0)
(1.88719 0.16404 0)
(1.90708 0.178642 0)
(1.93746 0.180179 0)
(1.96447 0.168039 0)
(1.98912 0.166724 0)
(2.01026 0.185987 0)
(2.04326 0.177773 0)
(2.08108 0.149292 0)
(2.11866 0.147192 0)
(2.15665 0.148631 0)
(2.1947 0.153946 0)
(2.23561 0.14196 0)
(2.27684 0.13767 0)
(2.31477 0.154197 0)
(2.3531 0.169984 0)
(2.39261 0.16726 0)
(2.42906 0.158911 0)
(2.4644 0.147015 0)
(2.49591 0.129898 0)
(2.51687 0.103377 0)
(2.53859 0.0938611 0)
(2.55424 0.0956367 0)
(2.56069 0.0763403 0)
(2.55741 0.0544406 0)
(2.55549 0.0371497 0)
(2.5284 0.0196687 0)
(2.48385 0.0128746 0)
(2.44256 0.000838387 0)
(2.38562 -0.000806367 0)
(2.32133 0.00593625 0)
(2.2508 -0.00856224 0)
(2.17047 -0.0229041 0)
(2.07143 -0.0115335 0)
(1.97457 0.026234 0)
(1.9093 0.0067111 0)
(1.89119 -0.0813702 0)
(1.93573 -0.160488 0)
(2.12303 -0.0841662 0)
(2.75111 -1.96888 0)
(2.75353 -1.96994 0)
(2.75552 -1.97184 0)
(2.75809 -1.97308 0)
(2.76026 -1.97504 0)
(2.76291 -1.97648 0)
(2.76514 -1.97867 0)
(2.76814 -1.97986 0)
(2.77035 -1.98227 0)
(2.77338 -1.98371 0)
(2.77584 -1.98607 0)
(2.77892 -1.98763 0)
(2.78137 -1.99012 0)
(2.78484 -1.99121 0)
(2.78714 -1.99414 0)
(2.79101 -1.99494 0)
(2.79345 -1.99795 0)
(2.79746 -1.99879 0)
(2.79985 -2.00204 0)
(2.80401 -2.00281 0)
(2.80621 -2.00635 0)
(2.81039 -2.007 0)
(2.81222 -2.01108 0)
(2.81695 -2.01067 0)
(2.81886 -2.01437 0)
(2.82335 -2.01442 0)
(2.82523 -2.01844 0)
(2.82977 -2.01886 0)
(2.83178 -2.02298 0)
(2.83577 -2.02401 0)
(2.83916 -2.02574 0)
(2.83981 -2.03125 0)
(2.84523 -2.02953 0)
(2.84487 -2.03554 0)
(2.85022 -2.03256 0)
(2.84879 -2.04056 0)
(2.8512 -2.0421 0)
(2.85433 -2.04082 0)
(2.85519 -2.04362 0)
(2.85125 -2.00823 0)
(2.78611 -1.81231 0)
(2.67699 -1.44347 0)
(2.52775 -0.992386 0)
(2.36808 -0.599963 0)
(2.22595 -0.275281 0)
(2.11961 -0.0333245 0)
(2.00634 0.11085 0)
(1.96083 0.158764 0)
(1.93182 0.151639 0)
(1.92555 0.152493 0)
(1.91453 0.162 0)
(1.91841 0.162186 0)
(1.91258 0.15937 0)
(1.89465 0.145789 0)
(1.88933 0.140408 0)
(1.89107 0.139914 0)
(1.8909 0.151685 0)
(1.88025 0.155089 0)
(1.86981 0.149888 0)
(1.86863 0.143363 0)
(1.87426 0.134582 0)
(1.88709 0.131448 0)
(1.90037 0.136981 0)
(1.90538 0.145595 0)
(1.912 0.15433 0)
(1.92582 0.154544 0)
(1.93962 0.148635 0)
(1.95366 0.142607 0)
(1.95602 0.164333 0)
(1.97801 0.170797 0)
(1.99493 0.15526 0)
(2.01168 0.144651 0)
(2.03008 0.142348 0)
(2.05141 0.146824 0)
(2.08029 0.131794 0)
(2.10751 0.108544 0)
(2.1358 0.101878 0)
(2.1613 0.115576 0)
(2.19166 0.113402 0)
(2.22179 0.103408 0)
(2.2476 0.102099 0)
(2.26858 0.108139 0)
(2.29221 0.122125 0)
(2.30996 0.126271 0)
(2.32003 0.123477 0)
(2.32054 0.11542 0)
(2.31582 0.0878718 0)
(2.2905 0.0541803 0)
(2.24808 0.039776 0)
(2.20182 0.0292493 0)
(2.15146 0.0125263 0)
(2.09948 0.00680334 0)
(2.0456 0.0209255 0)
(1.98814 0.0200917 0)
(1.91318 0.00184041 0)
(1.86865 0.0259079 0)
(1.83028 0.00591959 0)
(1.82156 -0.0927916 0)
(1.85544 -0.189981 0)
(1.97862 -0.11312 0)
(2.77072 -1.98867 0)
(2.77247 -1.99021 0)
(2.77469 -1.9913 0)
(2.77659 -1.99301 0)
(2.77906 -1.99399 0)
(2.78098 -1.99583 0)
(2.78359 -1.99669 0)
(2.7855 -1.99856 0)
(2.78818 -1.99944 0)
(2.78995 -2.00179 0)
(2.79295 -2.00255 0)
(2.79477 -2.00507 0)
(2.79786 -2.00576 0)
(2.79968 -2.00833 0)
(2.80302 -2.00872 0)
(2.80482 -2.01154 0)
(2.80863 -2.01149 0)
(2.81043 -2.01444 0)
(2.81432 -2.01443 0)
(2.81587 -2.01776 0)
(2.81979 -2.01775 0)
(2.82133 -2.02101 0)
(2.82471 -2.02156 0)
(2.82678 -2.02383 0)
(2.83001 -2.02448 0)
(2.83242 -2.02621 0)
(2.83494 -2.02814 0)
(2.83843 -2.02876 0)
(2.83967 -2.03265 0)
(2.84368 -2.0324 0)
(2.84432 -2.03637 0)
(2.8479 -2.03586 0)
(2.8481 -2.03944 0)
(2.85113 -2.03912 0)
(2.85237 -2.04107 0)
(2.85413 -2.04263 0)
(2.8576 -2.04085 0)
(2.85801 -2.04426 0)
(2.86285 -2.03992 0)
(2.86278 -2.04676 0)
(2.86503 -2.04379 0)
(2.86659 -2.04216 0)
(2.86683 -2.04427 0)
(2.86141 -2.00726 0)
(2.77886 -1.7671 0)
(2.63535 -1.28861 0)
(2.50941 -0.870238 0)
(2.32967 -0.458637 0)
(2.22565 -0.171007 0)
(2.14515 0.0112433 0)
(2.05779 0.128194 0)
(2.02703 0.141758 0)
(2.00108 0.167162 0)
(1.98663 0.167139 0)
(1.99528 0.179374 0)
(2.0005 0.165888 0)
(1.99628 0.149759 0)
(1.97934 0.124196 0)
(1.96264 0.123613 0)
(1.95697 0.132358 0)
(1.94608 0.143882 0)
(1.93905 0.14801 0)
(1.94041 0.143106 0)
(1.93785 0.141982 0)
(1.93511 0.142113 0)
(1.9403 0.13744 0)
(1.94908 0.132139 0)
(1.95801 0.132735 0)
(1.96405 0.136558 0)
(1.96756 0.143155 0)
(1.97104 0.138728 0)
(1.97727 0.132648 0)
(1.98726 0.124147 0)
(1.99659 0.126373 0)
(2.00641 0.134586 0)
(2.01985 0.131842 0)
(2.03137 0.110847 0)
(2.04445 0.100277 0)
(2.05663 0.105176 0)
(2.0709 0.110786 0)
(2.0875 0.117494 0)
(2.10175 0.0922797 0)
(2.11747 0.0758278 0)
(2.13085 0.0533359 0)
(2.1397 0.042396 0)
(2.13755 0.0479227 0)
(2.12303 0.0616743 0)
(2.10299 0.0631457 0)
(2.06935 0.0542233 0)
(2.03046 0.0460887 0)
(1.99093 0.0436174 0)
(1.95669 0.0334547 0)
(1.91801 0.0252973 0)
(1.87995 0.0395991 0)
(1.84 0.0416744 0)
(1.82083 0.0485286 0)
(1.79715 0.0153777 0)
(1.7828 -0.0947648 0)
(1.79058 -0.181596 0)
(1.84952 -0.117715 0)
(2.79513 -1.99718 0)
(2.7971 -1.99781 0)
(2.79845 -1.99952 0)
(2.80072 -2 0)
(2.80214 -2.0018 0)
(2.80453 -2.00223 0)
(2.80584 -2.00423 0)
(2.80833 -2.0045 0)
(2.80958 -2.00658 0)
(2.81211 -2.00694 0)
(2.8135 -2.00905 0)
(2.81615 -2.00949 0)
(2.81743 -2.01187 0)
(2.81999 -2.0124 0)
(2.82157 -2.01435 0)
(2.8239 -2.01532 0)
(2.82587 -2.017 0)
(2.82849 -2.01776 0)
(2.83051 -2.01939 0)
(2.83285 -2.02055 0)
(2.83488 -2.02216 0)
(2.83728 -2.02314 0)
(2.83904 -2.02499 0)
(2.841 -2.02643 0)
(2.84366 -2.02676 0)
(2.84461 -2.02948 0)
(2.84779 -2.02905 0)
(2.84873 -2.03173 0)
(2.8514 -2.03208 0)
(2.85206 -2.03511 0)
(2.85505 -2.03453 0)
(2.85509 -2.03772 0)
(2.85694 -2.03823 0)
(2.85938 -2.03801 0)
(2.85981 -2.04069 0)
(2.86233 -2.03999 0)
(2.86325 -2.04138 0)
(2.86513 -2.04084 0)
(2.86663 -2.04085 0)
(2.86768 -2.0415 0)
(2.87024 -2.03967 0)
(2.87001 -2.04169 0)
(2.87242 -2.03919 0)
(2.87183 -2.04052 0)
(2.87199 -2.04162 0)
(2.87379 -2.03986 0)
(2.8733 -2.04215 0)
(2.83739 -1.93143 0)
(2.72242 -1.57956 0)
(2.56557 -1.05543 0)
(2.45065 -0.639643 0)
(2.35819 -0.33045 0)
(2.21793 -0.0690051 0)
(2.15429 0.0704797 0)
(2.09218 0.149824 0)
(2.06325 0.176934 0)
(2.06129 0.180759 0)
(2.06403 0.175733 0)
(2.06294 0.157257 0)
(2.06418 0.158755 0)
(2.0406 0.149023 0)
(2.03021 0.138171 0)
(2.02482 0.128856 0)
(2.01568 0.131065 0)
(2.00777 0.142188 0)
(1.99934 0.152139 0)
(1.99456 0.15068 0)
(1.99249 0.141506 0)
(1.99139 0.130503 0)
(1.98754 0.125855 0)
(1.98559 0.120252 0)
(1.987 0.116059 0)
(1.99218 0.110731 0)
(2.00093 0.110721 0)
(2.00387 0.110098 0)
(2.00558 0.108403 0)
(2.00885 0.0991183 0)
(2.01606 0.0947452 0)
(2.02326 0.0902962 0)
(2.02818 0.0896232 0)
(2.03294 0.0891145 0)
(2.03856 0.0849332 0)
(2.04134 0.0926282 0)
(2.05021 0.0888714 0)
(2.05377 0.0695451 0)
(2.05027 0.0502399 0)
(2.03538 0.0334907 0)
(2.01115 0.0288285 0)
(1.98375 0.0234275 0)
(1.95336 0.0153555 0)
(1.92274 0.0142114 0)
(1.89453 0.011241 0)
(1.86923 0.00821873 0)
(1.84078 0.0204174 0)
(1.81474 0.0417117 0)
(1.80787 0.0590037 0)
(1.79482 0.0248735 0)
(1.77111 -0.0943346 0)
(1.74825 -0.195612 0)
(1.74971 -0.14461 0)
(2.8103 -2.01354 0)
(2.81148 -2.01466 0)
(2.8132 -2.01515 0)
(2.81445 -2.0164 0)
(2.81626 -2.01689 0)
(2.8175 -2.01824 0)
(2.81938 -2.01869 0)
(2.82072 -2.01992 0)
(2.82267 -2.02032 0)
(2.82394 -2.02177 0)
(2.82599 -2.02216 0)
(2.82766 -2.02307 0)
(2.82931 -2.02402 0)
(2.83088 -2.02501 0)
(2.83264 -2.02578 0)
(2.83419 -2.02691 0)
(2.83571 -2.0283 0)
(2.83775 -2.02896 0)
(2.83927 -2.03037 0)
(2.84127 -2.03098 0)
(2.84249 -2.03274 0)
(2.84508 -2.03242 0)
(2.84569 -2.03486 0)
(2.84836 -2.03414 0)
(2.84882 -2.03635 0)
(2.85107 -2.03609 0)
(2.85172 -2.0382 0)
(2.85457 -2.03727 0)
(2.85456 -2.04021 0)
(2.85695 -2.03967 0)
(2.85804 -2.04078 0)
(2.85902 -2.04208 0)
(2.86127 -2.04126 0)
(2.86165 -2.0433 0)
(2.8643 -2.04174 0)
(2.86474 -2.04354 0)
(2.86664 -2.04252 0)
(2.86809 -2.04201 0)
(2.86885 -2.04259 0)
(2.87157 -2.03963 0)
(2.87099 -2.04161 0)
(2.87346 -2.03858 0)
(2.87281 -2.03978 0)
(2.87282 -2.0409 0)
(2.87493 -2.03753 0)
(2.87552 -2.03674 0)
(2.8766 -2.03496 0)
(2.8767 -2.03506 0)
(2.87747 -2.03372 0)
(2.87831 -2.03288 0)
(2.87659 -2.01642 0)
(2.8103 -1.80141 0)
(2.64164 -1.29002 0)
(2.53799 -0.84599 0)
(2.34935 -0.379778 0)
(2.28281 -0.113586 0)
(2.18317 0.0591305 0)
(2.144 0.120241 0)
(2.1224 0.145162 0)
(2.11624 0.168724 0)
(2.10802 0.17656 0)
(2.10784 0.173724 0)
(2.10856 0.162327 0)
(2.10028 0.138697 0)
(2.09786 0.140848 0)
(2.07855 0.145083 0)
(2.06691 0.140179 0)
(2.05964 0.131517 0)
(2.05443 0.119496 0)
(2.04824 0.119771 0)
(2.03917 0.12623 0)
(2.02897 0.129292 0)
(2.02281 0.125663 0)
(2.02063 0.113332 0)
(2.01804 0.100164 0)
(2.0153 0.0894438 0)
(2.01678 0.0826247 0)
(2.0216 0.0816584 0)
(2.02486 0.0789894 0)
(2.0263 0.0787715 0)
(2.02707 0.0746529 0)
(2.03054 0.0732186 0)
(2.03108 0.0787347 0)
(2.03189 0.0817427 0)
(2.02997 0.0744936 0)
(2.0238 0.0611349 0)
(2.0116 0.0475516 0)
(1.98672 0.0408092 0)
(1.95848 0.0371623 0)
(1.9328 0.0291459 0)
(1.90734 0.0251353 0)
(1.87946 0.0243823 0)
(1.8583 0.0197582 0)
(1.83428 0.0245466 0)
(1.81537 0.0357304 0)
(1.80958 0.050225 0)
(1.80674 0.0235606 0)
(1.78365 -0.0862127 0)
(1.73578 -0.178216 0)
(1.68964 -0.142333 0)
(2.82982 -2.01771 0)
(2.83139 -2.01766 0)
(2.83213 -2.01892 0)
(2.83371 -2.01896 0)
(2.83468 -2.0199 0)
(2.83595 -2.02043 0)
(2.83726 -2.02098 0)
(2.83826 -2.02204 0)
(2.83992 -2.02219 0)
(2.8407 -2.02361 0)
(2.84236 -2.02379 0)
(2.84325 -2.02504 0)
(2.84492 -2.02514 0)
(2.84552 -2.02671 0)
(2.84733 -2.02657 0)
(2.84785 -2.02832 0)
(2.84968 -2.02833 0)
(2.85037 -2.02997 0)
(2.85215 -2.03002 0)
(2.85279 -2.03159 0)
(2.85424 -2.032 0)
(2.85537 -2.03283 0)
(2.85649 -2.03358 0)
(2.85774 -2.03401 0)
(2.85901 -2.03424 0)
(2.85958 -2.03561 0)
(2.86104 -2.03577 0)
(2.86208 -2.03656 0)
(2.86309 -2.03736 0)
(2.86401 -2.03836 0)
(2.8655 -2.03828 0)
(2.86671 -2.03838 0)
(2.86744 -2.03915 0)
(2.86931 -2.0378 0)
(2.86995 -2.03869 0)
(2.87167 -2.03756 0)
(2.87235 -2.03807 0)
(2.8738 -2.03669 0)
(2.87454 -2.03611 0)
(2.87514 -2.03567 0)
(2.87563 -2.03534 0)
(2.87629 -2.03465 0)
(2.87661 -2.03437 0)
(2.87718 -2.03357 0)
(2.87699 -2.03397 0)
(2.8763 -2.03566 0)
(2.87825 -2.0323 0)
(2.87841 -2.03188 0)
(2.87933 -2.03001 0)
(2.8806 -2.02706 0)
(2.88124 -2.02594 0)
(2.88292 -2.02188 0)
(2.88401 -2.0197 0)
(2.88301 -2.02123 0)
(2.82421 -1.86748 0)
(2.6943 -1.4235 0)
(2.51745 -0.846344 0)
(2.38678 -0.415998 0)
(2.33644 -0.166207 0)
(2.18438 0.0520033 0)
(2.17456 0.107497 0)
(2.15283 0.160442 0)
(2.14418 0.180219 0)
(2.14438 0.164325 0)
(2.15627 0.162605 0)
(2.14223 0.151188 0)
(2.13249 0.130279 0)
(2.12682 0.119342 0)
(2.12134 0.116928 0)
(2.11682 0.121872 0)
(2.10527 0.126265 0)
(2.09257 0.119983 0)
(2.07956 0.106771 0)
(2.07078 0.0922468 0)
(2.06303 0.0817604 0)
(2.05782 0.0857636 0)
(2.05156 0.0962315 0)
(2.04956 0.0990295 0)
(2.04415 0.0922633 0)
(2.03914 0.0814196 0)
(2.03889 0.0738276 0)
(2.04044 0.065336 0)
(2.03869 0.0643631 0)
(2.0366 0.0662724 0)
(2.03 0.0640169 0)
(2.01935 0.0566106 0)
(2.00703 0.0495128 0)
(1.9858 0.0504498 0)
(1.95764 0.0483829 0)
(1.93308 0.0396735 0)
(1.90833 0.0318461 0)
(1.88086 0.0313288 0)
(1.85881 0.0272744 0)
(1.83823 0.0253379 0)
(1.82269 0.0330107 0)
(1.81906 0.0439614 0)
(1.82372 0.0160123 0)
(1.80828 -0.0755729 0)
(1.75016 -0.17106 0)
(1.67501 -0.148015 0)
(2.83961 -2.0299 0)
(2.84074 -2.02994 0)
(2.8413 -2.0309 0)
(2.84253 -2.03087 0)
(2.84317 -2.03169 0)
(2.84414 -2.0321 0)
(2.84511 -2.03256 0)
(2.846 -2.03314 0)
(2.84683 -2.03379 0)
(2.84792 -2.034 0)
(2.8484 -2.03498 0)
(2.84957 -2.03498 0)
(2.84984 -2.03627 0)
(2.85122 -2.03606 0)
(2.85168 -2.03721 0)
(2.85297 -2.03723 0)
(2.85368 -2.03816 0)
(2.85513 -2.03794 0)
(2.85571 -2.03886 0)
(2.85709 -2.03849 0)
(2.85772 -2.03927 0)
(2.8589 -2.03932 0)
(2.85982 -2.03971 0)
(2.86093 -2.03969 0)
(2.86203 -2.03953 0)
(2.86258 -2.04032 0)
(2.86387 -2.04005 0)
(2.86479 -2.0404 0)
(2.86579 -2.04062 0)
(2.86634 -2.0417 0)
(2.86787 -2.04091 0)
(2.86886 -2.04081 0)
(2.86999 -2.04015 0)
(2.87105 -2.03943 0)
(2.8721 -2.03888 0)
(2.87317 -2.03832 0)
(2.87431 -2.0373 0)
(2.8753 -2.03615 0)
(2.87532 -2.03614 0)
(2.8763 -2.03439 0)
(2.87661 -2.03377 0)
(2.87663 -2.03363 0)
(2.87725 -2.03285 0)
(2.87761 -2.0324 0)
(2.87778 -2.03266 0)
(2.8795 -2.03005 0)
(2.88005 -2.02939 0)
(2.88153 -2.02618 0)
(2.88171 -2.02537 0)
(2.88308 -2.02104 0)
(2.8835 -2.01863 0)
(2.88417 -2.01524 0)
(2.88351 -2.01374 0)
(2.88393 -2.00945 0)
(2.88153 -2.01074 0)
(2.88239 -2.00545 0)
(2.87786 -2.00977 0)
(2.8375 -1.88933 0)
(2.71679 -1.48799 0)
(2.48072 -0.817885 0)
(2.43139 -0.433795 0)
(2.28542 -0.0764938 0)
(2.21622 0.0741499 0)
(2.18974 0.117328 0)
(2.17962 0.157376 0)
(2.17392 0.169584 0)
(2.17242 0.151679 0)
(2.17665 0.14301 0)
(2.16937 0.116422 0)
(2.17006 0.113352 0)
(2.16257 0.110297 0)
(2.1484 0.110716 0)
(2.13849 0.114453 0)
(2.13 0.11066 0)
(2.12325 0.0984565 0)
(2.11852 0.0869104 0)
(2.10953 0.0816659 0)
(2.10318 0.0794854 0)
(2.09339 0.0727615 0)
(2.08528 0.071339 0)
(2.08211 0.0731254 0)
(2.07902 0.0733909 0)
(2.07423 0.073001 0)
(2.0692 0.0712456 0)
(2.05844 0.066543 0)
(2.0434 0.0641345 0)
(2.02661 0.0616876 0)
(2.00578 0.0589694 0)
(1.97808 0.056686 0)
(1.95282 0.0478384 0)
(1.92822 0.0352745 0)