/*--------------------------------*- C++ -*----------------------------------*\
  =========                 |
  \\      /  F ield         | OpenFOAM: The Open Source CFD Toolbox
   \\    /   O peration     | Website:  https://openfoam.org
    \\  /    A nd           | Version:  7
     \\/     M anipulation  |
\*---------------------------------------------------------------------------*/
FoamFile
{
    version     2.0;
    format      ascii;
    class       volVectorField;
    location    "4.5001";
    object      U;
}
// * * * * * * * * * * * * * * * * * * * * * * * * * * * * * * * * * * * * * //

dimensions      [0 1 -1 0 0 0 0];

internalField   nonuniform List<vector> 
60000
(
(3.03194 -1.15297 0)
(2.98044 -1.08925 0)
(2.92295 -0.79534 0)
(2.9405 -0.636008 0)
(2.92973 -0.697488 0)
(2.94088 -0.743844 0)
(2.83972 -0.408372 0)
(2.92111 -0.291102 0)
(2.97737 -0.392843 0)
(2.96 -0.370786 0)
(2.89525 -0.151731 0)
(2.94179 -0.181682 0)
(2.94016 -0.117114 0)
(2.92728 -0.0516674 0)
(2.97709 -0.0729313 0)
(2.94937 0.0126593 0)
(2.93011 0.0738961 0)
(2.90994 0.0697059 0)
(2.90291 0.0552554 0)
(2.92352 0.0536454 0)
(2.92293 0.0556938 0)
(2.91144 0.0536333 0)
(2.90758 0.0484304 0)
(2.90701 0.0440598 0)
(2.91561 0.0506294 0)
(2.91224 0.0619591 0)
(2.90904 0.0621694 0)
(2.90743 0.0648815 0)
(2.90785 0.0666096 0)
(2.90636 0.0665555 0)
(2.89912 0.0685776 0)
(2.89268 0.071198 0)
(2.88912 0.0690452 0)
(2.88709 0.0654456 0)
(2.89056 0.0660445 0)
(2.89453 0.0601755 0)
(2.89333 0.0548281 0)
(2.88727 0.0482309 0)
(2.88349 0.041862 0)
(2.87755 0.0366525 0)
(2.87371 0.0345107 0)
(2.87423 0.0293984 0)
(2.87692 0.0308952 0)
(2.88003 0.0343677 0)
(2.88591 0.0457882 0)
(2.89052 0.051223 0)
(2.89408 0.0636198 0)
(2.89591 0.0597305 0)
(2.89537 0.0575795 0)
(2.89451 0.0514365 0)
(2.89268 0.0483026 0)
(2.8906 0.0440767 0)
(2.88812 0.039591 0)
(2.88453 0.0361026 0)
(2.88513 0.0390469 0)
(2.8873 0.0443229 0)
(2.89262 0.0489593 0)
(2.8966 0.0553481 0)
(2.90346 0.0543722 0)
(2.90508 0.0538804 0)
(2.90495 0.0496191 0)
(2.90379 0.0442209 0)
(2.90251 0.0396519 0)
(2.90181 0.0355115 0)
(2.90307 0.0371651 0)
(2.90605 0.0403934 0)
(2.91093 0.0472086 0)
(2.91411 0.0480005 0)
(2.91548 0.045252 0)
(2.91573 0.0393281 0)
(2.91452 0.0314593 0)
(2.91465 0.0314952 0)
(2.91615 0.0352228 0)
(2.91927 0.0412827 0)
(2.92326 0.0453684 0)
(2.9245 0.0428021 0)
(2.92457 0.035883 0)
(2.92307 0.027694 0)
(2.92288 0.0232965 0)
(2.92421 0.0246709 0)
(2.92721 0.0311942 0)
(2.93046 0.0352724 0)
(2.93283 0.0348727 0)
(2.9331 0.031344 0)
(2.93416 0.0273504 0)
(2.9351 0.0270803 0)
(2.93742 0.0297449 0)
(2.94066 0.0322194 0)
(2.94124 0.0302034 0)
(2.94106 0.0252119 0)
(2.93955 0.0182367 0)
(2.93993 0.0180738 0)
(2.94222 0.0212285 0)
(2.94362 0.0234195 0)
(2.94342 0.0212969 0)
(2.94226 0.0157358 0)
(2.93999 0.0101396 0)
(2.94039 0.00909432 0)
(2.94214 0.0106911 0)
(2.94533 0.00776857 0)
(3.11397 -1.30342 0)
(3.11385 -1.30342 0)
(3.11383 -1.30344 0)
(3.11381 -1.30344 0)
(3.1136 -1.3033 0)
(3.1135 -1.30324 0)
(3.11304 -1.30167 0)
(3.113 -1.29944 0)
(3.11208 -1.30169 0)
(3.09891 -1.28732 0)
(3.08335 -1.21382 0)
(3.08502 -1.21308 0)
(3.06826 -1.16215 0)
(3.02718 -1.00369 0)
(3.02602 -0.9612 0)
(2.99992 -0.813612 0)
(2.95511 -0.675722 0)
(2.92228 -0.563498 0)
(2.92213 -0.451355 0)
(2.94629 -0.368291 0)
(2.86922 -0.210447 0)
(2.8548 -0.138083 0)
(2.8937 -0.107849 0)
(2.86497 -0.0370921 0)
(2.842 0.0301871 0)
(2.84412 0.0499974 0)
(2.85705 0.0594456 0)
(2.84688 0.0879699 0)
(2.84164 0.0906588 0)
(2.83593 0.105516 0)
(2.8296 0.127689 0)
(2.83052 0.146814 0)
(2.83078 0.145846 0)
(2.83237 0.13355 0)
(2.8378 0.11123 0)
(2.84299 0.091807 0)
(2.83753 0.0681229 0)
(2.83342 0.0428694 0)
(2.83747 0.0392292 0)
(2.83845 0.0303093 0)
(2.84359 0.0227719 0)
(2.84759 0.0276698 0)
(2.85089 0.03594 0)
(2.85637 0.055427 0)
(2.85751 0.072394 0)
(2.85606 0.0871671 0)
(2.85363 0.0877399 0)
(2.84894 0.0830123 0)
(2.84356 0.072889 0)
(2.84061 0.0651349 0)
(2.83903 0.0547236 0)
(2.84016 0.0523709 0)
(2.84161 0.0467716 0)
(2.84319 0.0465946 0)
(2.84823 0.0499069 0)
(2.85313 0.0558158 0)
(2.86249 0.0650795 0)
(2.8636 0.0654437 0)
(2.86487 0.0622328 0)
(2.86363 0.0515676 0)
(2.86287 0.0440202 0)
(2.86199 0.0368393 0)
(2.86257 0.0389534 0)
(2.86427 0.0425576 0)
(2.86762 0.0469757 0)
(2.87159 0.0535073 0)
(2.87511 0.0534223 0)
(2.87696 0.0519257 0)
(2.87717 0.045807 0)
(2.87722 0.0388942 0)
(2.8772 0.0348585 0)
(2.87872 0.035911 0)
(2.88161 0.0389166 0)
(2.88711 0.0436356 0)
(2.88862 0.0432849 0)
(2.88954 0.041694 0)
(2.88824 0.0348742 0)
(2.88679 0.0267399 0)
(2.8879 0.0258348 0)
(2.8909 0.0279496 0)
(2.89504 0.0316505 0)
(2.89881 0.033169 0)
(2.89979 0.0308784 0)
(2.90036 0.0272806 0)
(2.90212 0.0252684 0)
(2.90389 0.0268456 0)
(2.90706 0.0321448 0)
(2.91084 0.0333195 0)
(2.91071 0.0275967 0)
(2.91039 0.0202935 0)
(2.9095 0.0179457 0)
(2.91051 0.0200402 0)
(2.91353 0.0258253 0)
(2.91491 0.0259438 0)
(2.91404 0.0210545 0)
(2.91196 0.0132928 0)
(2.91102 0.00881541 0)
(2.9115 0.00907292 0)
(2.91308 0.0109438 0)
(2.91722 0.00806703 0)
(3.11166 -1.30313 0)
(3.11169 -1.30307 0)
(3.11126 -1.30298 0)
(3.11089 -1.303 0)
(3.11051 -1.3029 0)
(3.10965 -1.30247 0)
(3.10946 -1.30233 0)
(3.10935 -1.30216 0)
(3.10912 -1.30191 0)
(3.10827 -1.30148 0)
(3.10812 -1.30138 0)
(3.10807 -1.30096 0)
(3.10807 -1.30091 0)
(3.10765 -1.30038 0)
(3.10715 -1.30004 0)
(3.10693 -1.29992 0)
(3.10657 -1.3001 0)
(3.10601 -1.29967 0)
(3.1013 -1.28747 0)
(3.09135 -1.26246 0)
(3.06758 -1.21607 0)
(3.03622 -1.10809 0)
(3.02356 -1.01943 0)
(2.99003 -0.888888 0)
(2.94461 -0.773891 0)
(2.9188 -0.607842 0)
(2.93734 -0.537122 0)
(2.90244 -0.387521 0)
(2.88213 -0.338742 0)
(2.85296 -0.220376 0)
(2.86749 -0.187095 0)
(2.84384 -0.0803854 0)
(2.8387 -0.0653373 0)
(2.83118 -0.0164617 0)
(2.83294 -0.0216409 0)
(2.82912 -0.000803747 0)
(2.83022 0.0162635 0)
(2.82857 0.0246061 0)
(2.82851 0.0291132 0)
(2.82788 0.0325975 0)
(2.82917 0.0389775 0)
(2.82787 0.0460571 0)
(2.82234 0.0586107 0)
(2.82068 0.0666635 0)
(2.81899 0.0692045 0)
(2.8147 0.0676092 0)
(2.81006 0.0638817 0)
(2.80676 0.0563926 0)
(2.80472 0.0485503 0)
(2.80546 0.0414758 0)
(2.8074 0.0366885 0)
(2.81144 0.0358061 0)
(2.81463 0.0394682 0)
(2.82037 0.0457607 0)
(2.82748 0.0567828 0)
(2.8322 0.0588892 0)
(2.83193 0.058567 0)
(2.83033 0.056271 0)
(2.82684 0.049797 0)
(2.82494 0.046582 0)
(2.82536 0.0378575 0)
(2.82598 0.0340365 0)
(2.82882 0.0355373 0)
(2.83201 0.0403336 0)
(2.83733 0.0482298 0)
(2.83894 0.0494013 0)
(2.84018 0.0479122 0)
(2.83972 0.0397695 0)
(2.83974 0.0333579 0)
(2.84058 0.031452 0)
(2.84189 0.0315232 0)
(2.84518 0.036475 0)
(2.84883 0.0443069 0)
(2.85409 0.0465506 0)
(2.85412 0.0433783 0)
(2.8528 0.0344861 0)
(2.8513 0.0258712 0)
(2.85179 0.0227909 0)
(2.85437 0.0245166 0)
(2.85814 0.0318226 0)
(2.86451 0.0388885 0)
(2.86616 0.0385114 0)
(2.86698 0.0338574 0)
(2.86831 0.0272859 0)
(2.8698 0.0268954 0)
(2.87285 0.0301581 0)
(2.87788 0.0315257 0)
(2.87949 0.0305728 0)
(2.87952 0.0284556 0)
(2.87889 0.020047 0)
(2.87898 0.0170839 0)
(2.8813 0.0194429 0)
(2.88531 0.0229031 0)
(2.88596 0.0229512 0)
(2.88452 0.0196227 0)
(2.88193 0.0121611 0)
(2.88218 0.00968536 0)
(2.8839 0.009563 0)
(2.8857 0.0126082 0)
(2.8912 0.0075853 0)
(3.10778 -1.30198 0)
(3.10773 -1.30176 0)
(3.10719 -1.3014 0)
(3.10685 -1.30131 0)
(3.10653 -1.30122 0)
(3.10595 -1.3009 0)
(3.10551 -1.3007 0)
(3.10545 -1.30039 0)
(3.10543 -1.30017 0)
(3.10485 -1.29994 0)
(3.10353 -1.29963 0)
(3.10333 -1.29977 0)
(3.1031 -1.29995 0)
(3.10279 -1.29978 0)
(3.1027 -1.29958 0)
(3.10255 -1.29954 0)
(3.10221 -1.29951 0)
(3.10168 -1.29908 0)
(3.10175 -1.29859 0)
(3.10193 -1.29834 0)
(3.10183 -1.29839 0)
(3.10158 -1.29881 0)
(3.10159 -1.29902 0)
(3.10141 -1.29894 0)
(3.1012 -1.29858 0)
(3.10102 -1.2986 0)
(3.09825 -1.29193 0)
(3.08781 -1.26439 0)
(3.07003 -1.21936 0)
(3.03865 -1.11428 0)
(3.01208 -1.00709 0)
(2.96873 -0.823237 0)
(2.9421 -0.706099 0)
(2.89479 -0.502804 0)
(2.88895 -0.397686 0)
(2.84094 -0.200625 0)
(2.85574 -0.144106 0)
(2.81966 -0.0140198 0)
(2.82752 0.0289067 0)
(2.79786 0.10534 0)
(2.78891 0.123101 0)
(2.78848 0.14762 0)
(2.78333 0.139383 0)
(2.78063 0.120473 0)
(2.78776 0.0885688 0)
(2.79283 0.0634538 0)
(2.79852 0.0526481 0)
(2.80018 0.0449031 0)
(2.7994 0.041592 0)
(2.80288 0.0375941 0)
(2.80324 0.0362861 0)
(2.80489 0.0383045 0)
(2.8115 0.0501965 0)
(2.81619 0.0623801 0)
(2.8134 0.0699634 0)
(2.81302 0.0697215 0)
(2.81078 0.0624207 0)
(2.80837 0.0527465 0)
(2.8055 0.0404243 0)
(2.80352 0.035116 0)
(2.8035 0.0400672 0)
(2.80609 0.0437096 0)
(2.81105 0.0491336 0)
(2.81505 0.0505901 0)
(2.81834 0.0531112 0)
(2.81788 0.0520627 0)
(2.81544 0.0477956 0)
(2.81268 0.0425314 0)
(2.81422 0.0344624 0)
(2.81687 0.0332761 0)
(2.81996 0.0371567 0)
(2.82393 0.0412839 0)
(2.82794 0.0451422 0)
(2.82841 0.0452448 0)
(2.8276 0.0421386 0)
(2.82527 0.0351916 0)
(2.82574 0.0248851 0)
(2.82746 0.0246923 0)
(2.83199 0.0283957 0)
(2.83579 0.0332592 0)
(2.84112 0.034055 0)
(2.84167 0.0310358 0)
(2.84174 0.0277622 0)
(2.84345 0.0260297 0)
(2.84574 0.0275211 0)
(2.8487 0.0321926 0)
(2.85421 0.0360892 0)
(2.85448 0.0321286 0)
(2.85265 0.0202595 0)
(2.85363 0.0183011 0)
(2.85507 0.0191199 0)
(2.85846 0.0243842 0)
(2.86289 0.028445 0)
(2.86238 0.0244114 0)
(2.8594 0.015045 0)
(2.85844 0.00919256 0)
(2.85951 0.00821496 0)
(2.86215 0.0106982 0)
(2.86548 0.0116814 0)
(2.87041 0.00747578 0)
(3.10349 -1.30081 0)
(3.10353 -1.30067 0)
(3.10326 -1.3004 0)
(3.10296 -1.30032 0)
(3.10278 -1.30035 0)
(3.10266 -1.30034 0)
(3.10211 -1.29995 0)
(3.10179 -1.29983 0)
(3.10174 -1.29951 0)
(3.10182 -1.29916 0)
(3.10145 -1.29915 0)
(3.10091 -1.29913 0)
(3.10089 -1.29914 0)
(3.10094 -1.29908 0)
(3.10097 -1.29907 0)
(3.10089 -1.29922 0)
(3.10026 -1.29927 0)
(3.1001 -1.29928 0)
(3.10006 -1.29901 0)
(3.1004 -1.29839 0)
(3.10063 -1.29808 0)
(3.0998 -1.29858 0)
(3.09965 -1.29927 0)
(3.09968 -1.2993 0)
(3.0994 -1.29924 0)
(3.09902 -1.2992 0)
(3.09876 -1.29881 0)
(3.09842 -1.29863 0)
(3.09846 -1.2991 0)
(3.09855 -1.29899 0)
(3.09855 -1.2989 0)
(3.09856 -1.29875 0)
(3.09822 -1.2995 0)
(3.09552 -1.29253 0)
(3.08492 -1.26241 0)
(3.05708 -1.1796 0)
(3.02758 -1.06755 0)
(2.98501 -0.87786 0)
(2.96173 -0.735468 0)
(2.92484 -0.531704 0)
(2.91732 -0.432076 0)
(2.8791 -0.249621 0)
(2.87713 -0.186218 0)
(2.84362 -0.0964346 0)
(2.84546 -0.064586 0)
(2.82284 -0.0205514 0)
(2.82359 -0.0137761 0)
(2.81514 0.00488227 0)
(2.81398 0.0154241 0)
(2.81202 0.0286534 0)
(2.80719 0.0385901 0)
(2.80101 0.0560018 0)
(2.80143 0.0687732 0)
(2.80057 0.0750603 0)
(2.79417 0.07096 0)
(2.7902 0.060486 0)
(2.78868 0.0462484 0)
(2.78767 0.0328365 0)
(2.79473 0.0315376 0)
(2.79627 0.0320945 0)
(2.79905 0.0361761 0)
(2.80274 0.0419228 0)
(2.80692 0.0533544 0)
(2.80951 0.0540524 0)
(2.80989 0.0525682 0)
(2.80877 0.0479795 0)
(2.80561 0.0385429 0)
(2.80263 0.0325849 0)
(2.80596 0.0315817 0)
(2.80847 0.0342396 0)
(2.81286 0.0408907 0)
(2.81654 0.0475144 0)
(2.81725 0.0473485 0)
(2.81725 0.0434469 0)
(2.81611 0.0347772 0)
(2.81496 0.0247581 0)
(2.8156 0.0223506 0)
(2.81806 0.0254168 0)
(2.8213 0.0337157 0)
(2.82659 0.0404551 0)
(2.82727 0.038609 0)
(2.82744 0.0347991 0)
(2.8277 0.0265086 0)
(2.82907 0.0259573 0)
(2.83263 0.0299081 0)
(2.83611 0.0330567 0)
(2.83814 0.0315356 0)
(2.83761 0.0291693 0)
(2.83484 0.0229223 0)
(2.83903 0.0161108 0)
(2.84134 0.0177725 0)
(2.84546 0.0236287 0)
(2.8482 0.0243537 0)
(2.84681 0.0229025 0)
(2.84278 0.0152652 0)
(2.8443 0.00930313 0)
(2.84621 0.00953152 0)
(2.84813 0.0106387 0)
(2.85384 0.0128113 0)
(2.85592 0.00765699 0)
(3.10092 -1.3 0)
(3.10067 -1.29981 0)
(3.10056 -1.29977 0)
(3.10049 -1.29975 0)
(3.10037 -1.29974 0)
(3.10022 -1.29995 0)
(3.09998 -1.29982 0)
(3.09973 -1.29929 0)
(3.09966 -1.29887 0)
(3.09982 -1.2986 0)
(3.09994 -1.29861 0)
(3.09974 -1.29872 0)
(3.09975 -1.29872 0)
(3.09992 -1.29873 0)
(3.09994 -1.29882 0)
(3.09981 -1.29889 0)
(3.09974 -1.299 0)
(3.0997 -1.29886 0)
(3.09969 -1.29876 0)
(3.09978 -1.29833 0)
(3.10034 -1.29748 0)
(3.10021 -1.29728 0)
(3.09948 -1.29834 0)
(3.09965 -1.29876 0)
(3.09978 -1.29867 0)
(3.09976 -1.29859 0)
(3.09945 -1.29801 0)
(3.09852 -1.29821 0)
(3.09827 -1.29899 0)
(3.09828 -1.299 0)
(3.09834 -1.29855 0)
(3.09847 -1.2982 0)
(3.09827 -1.2985 0)
(3.09812 -1.29889 0)
(3.09812 -1.29894 0)
(3.09867 -1.29862 0)
(3.09892 -1.29843 0)
(3.09905 -1.29837 0)
(3.09913 -1.29844 0)
(3.09676 -1.29026 0)
(3.08537 -1.25139 0)
(3.05075 -1.12425 0)
(3.01845 -0.975319 0)
(2.95616 -0.692159 0)
(2.94569 -0.553689 0)
(2.8811 -0.294147 0)
(2.8951 -0.220773 0)
(2.84125 -0.0468733 0)
(2.85034 -0.00442061 0)
(2.81516 0.0859238 0)
(2.79869 0.106486 0)
(2.79619 0.131102 0)
(2.78763 0.116027 0)
(2.78311 0.0850239 0)
(2.78944 0.0616911 0)
(2.78946 0.0519128 0)
(2.78648 0.0410305 0)
(2.78917 0.0389965 0)
(2.79558 0.0393963 0)
(2.80028 0.0395763 0)
(2.80504 0.0448998 0)
(2.80802 0.0529802 0)
(2.80803 0.0573038 0)
(2.80691 0.0560925 0)
(2.80476 0.0487986 0)
(2.80226 0.0400486 0)
(2.80092 0.0300743 0)
(2.80154 0.0297848 0)
(2.80453 0.0321532 0)
(2.80991 0.0410321 0)
(2.81389 0.0462408 0)
(2.81495 0.0479023 0)
(2.81426 0.0461262 0)
(2.81121 0.0363504 0)
(2.81134 0.0283165 0)
(2.81178 0.0209166 0)
(2.8131 0.0223108 0)
(2.81705 0.0312566 0)
(2.81851 0.0377723 0)
(2.8228 0.0377548 0)
(2.82271 0.0351081 0)
(2.82212 0.029329 0)
(2.82221 0.0256472 0)
(2.82443 0.0276247 0)
(2.82765 0.0338117 0)
(2.83082 0.0368481 0)
(2.8308 0.0340817 0)
(2.82992 0.0251986 0)
(2.82905 0.0167312 0)
(2.83265 0.0183001 0)
(2.83614 0.0235005 0)
(2.84022 0.0282196 0)
(2.84021 0.026849 0)
(2.83954 0.0198475 0)
(2.83706 0.0106346 0)
(2.8381 0.00735055 0)
(2.84018 0.00874533 0)
(2.84147 0.0119547 0)
(2.84661 0.0119396 0)
(2.84772 0.00774382 0)
(3.10015 -1.29816 0)
(3.1 -1.29836 0)
(3.09989 -1.2983 0)
(3.09975 -1.29815 0)
(3.0997 -1.29815 0)
(3.09965 -1.29828 0)
(3.09983 -1.29846 0)
(3.09953 -1.29822 0)
(3.09934 -1.29794 0)
(3.09915 -1.29792 0)
(3.09948 -1.29754 0)
(3.09964 -1.29728 0)
(3.09967 -1.29718 0)
(3.10008 -1.29754 0)
(3.10019 -1.29765 0)
(3.10009 -1.29788 0)
(3.10002 -1.29819 0)
(3.09992 -1.29822 0)
(3.09992 -1.29794 0)
(3.10007 -1.29775 0)
(3.10014 -1.29745 0)
(3.10043 -1.29706 0)
(3.0999 -1.29724 0)
(3.09959 -1.29813 0)
(3.09972 -1.29825 0)
(3.09975 -1.29795 0)
(3.09927 -1.29777 0)
(3.09846 -1.29811 0)
(3.09827 -1.2985 0)
(3.09812 -1.29873 0)
(3.0982 -1.2987 0)
(3.09833 -1.29845 0)
(3.09845 -1.2983 0)
(3.09848 -1.29848 0)
(3.09847 -1.2986 0)
(3.09891 -1.29851 0)
(3.09944 -1.29814 0)
(3.09957 -1.29797 0)
(3.09956 -1.29792 0)
(3.09959 -1.29782 0)
(3.09969 -1.29765 0)
(3.09972 -1.29755 0)
(3.09977 -1.29726 0)
(3.09988 -1.29715 0)
(3.09866 -1.29199 0)
(3.0799 -1.23303 0)
(3.05343 -1.12452 0)
(3.00755 -0.917036 0)
(2.98526 -0.753878 0)
(2.94005 -0.498244 0)
(2.94301 -0.402771 0)
(2.89694 -0.193694 0)
(2.89756 -0.152087 0)
(2.84567 -0.0569523 0)
(2.84563 -0.028439 0)
(2.82792 0.00625896 0)
(2.82247 0.024646 0)
(2.81892 0.0437514 0)
(2.81436 0.0483314 0)
(2.80998 0.0512797 0)
(2.81097 0.0617099 0)
(2.80827 0.0667253 0)
(2.80255 0.0600089 0)
(2.79846 0.0452881 0)
(2.7982 0.0334783 0)
(2.79638 0.0227991 0)
(2.79859 0.0252825 0)
(2.8029 0.0309666 0)
(2.81067 0.0427036 0)
(2.81474 0.0521629 0)
(2.81629 0.0523212 0)
(2.81498 0.0490036 0)
(2.81148 0.0391105 0)
(2.807 0.026548 0)
(2.80666 0.0171047 0)
(2.8086 0.0196207 0)
(2.81451 0.0296478 0)
(2.81769 0.0372663 0)
(2.82031 0.0414075 0)
(2.82022 0.0382175 0)
(2.81965 0.0308972 0)
(2.81982 0.0243898 0)
(2.82072 0.0246624 0)
(2.82471 0.0311432 0)
(2.82702 0.0362542 0)
(2.82878 0.035787 0)
(2.82806 0.0309902 0)
(2.82666 0.0197444 0)
(2.82776 0.0145457 0)
(2.8301 0.0166815 0)
(2.83485 0.0245587 0)
(2.83701 0.027667 0)
(2.83681 0.0252091 0)
(2.83491 0.014776 0)
(2.83464 0.00829309 0)
(2.83488 0.00770862 0)
(2.83719 0.0113608 0)
(2.83893 0.0132518 0)
(2.84186 0.0122174 0)
(2.84444 0.00659192 0)
(3.09992 -1.29674 0)
(3.09978 -1.2968 0)
(3.09968 -1.29695 0)
(3.09968 -1.29702 0)
(3.09996 -1.29716 0)
(3.09992 -1.29692 0)
(3.0997 -1.29685 0)
(3.09959 -1.29694 0)
(3.09948 -1.29708 0)
(3.09943 -1.29715 0)
(3.09952 -1.29705 0)
(3.09956 -1.29688 0)
(3.09955 -1.29669 0)
(3.09989 -1.29704 0)
(3.10013 -1.29726 0)
(3.10022 -1.29747 0)
(3.10026 -1.29758 0)
(3.10011 -1.29759 0)
(3.09997 -1.29756 0)
(3.10007 -1.29764 0)
(3.10008 -1.2976 0)
(3.10007 -1.29745 0)
(3.09998 -1.29727 0)
(3.09943 -1.29769 0)
(3.09934 -1.29825 0)
(3.09943 -1.29819 0)
(3.09929 -1.2978 0)
(3.09872 -1.29781 0)
(3.09855 -1.29828 0)
(3.09844 -1.29859 0)
(3.0983 -1.29875 0)
(3.09849 -1.29871 0)
(3.09869 -1.29853 0)
(3.09867 -1.29853 0)
(3.09863 -1.29869 0)
(3.09885 -1.29873 0)
(3.0997 -1.29825 0)
(3.09982 -1.29785 0)
(3.09976 -1.29782 0)
(3.09981 -1.29775 0)
(3.1001 -1.29737 0)
(3.10021 -1.29721 0)
(3.10029 -1.29698 0)
(3.10026 -1.29692 0)
(3.10041 -1.29662 0)
(3.10138 -1.29636 0)
(3.10155 -1.29637 0)
(3.10161 -1.2965 0)
(3.10137 -1.29707 0)
(3.0967 -1.28194 0)
(3.08255 -1.22004 0)
(3.03731 -1.02494 0)
(3.01008 -0.828531 0)
(2.93612 -0.492076 0)
(2.94548 -0.376521 0)
(2.88058 -0.130347 0)
(2.88875 -0.0762411 0)
(2.84612 0.0394518 0)
(2.82395 0.076681 0)
(2.8129 0.102895 0)
(2.80822 0.0957886 0)
(2.80238 0.0746315 0)
(2.80204 0.0533369 0)
(2.80246 0.0407602 0)
(2.80134 0.0323791 0)
(2.80504 0.0329684 0)
(2.80872 0.0330663 0)
(2.8167 0.0429088 0)
(2.8178 0.053727 0)
(2.81711 0.0552253 0)
(2.81421 0.0505545 0)
(2.81026 0.0399737 0)
(2.80807 0.0308336 0)
(2.80619 0.02256 0)
(2.80701 0.0214958 0)
(2.81302 0.0291534 0)
(2.8184 0.0391006 0)
(2.8206 0.0438485 0)
(2.8201 0.0415165 0)
(2.81802 0.0330564 0)
(2.81753 0.0253093 0)
(2.81882 0.0246154 0)
(2.82245 0.0298287 0)
(2.82604 0.0369333 0)
(2.82796 0.0393066 0)
(2.82754 0.0349549 0)
(2.8248 0.023649 0)
(2.82493 0.0155592 0)
(2.82621 0.0149609 0)
(2.83118 0.0229205 0)
(2.83506 0.0287592 0)
(2.83528 0.0284309 0)
(2.83432 0.0222459 0)
(2.83167 0.0129174 0)
(2.83105 0.00708989 0)
(2.83246 0.00821259 0)
(2.83404 0.0116397 0)
(2.83814 0.0135585 0)
(2.83948 0.0119322 0)
(2.84263 0.00530913 0)
(3.09954 -1.29631 0)
(3.09952 -1.29633 0)
(3.09941 -1.29639 0)
(3.09939 -1.29648 0)
(3.09965 -1.29663 0)
(3.09991 -1.29659 0)
(3.09985 -1.29651 0)
(3.09958 -1.29652 0)
(3.0992 -1.2969 0)
(3.09909 -1.29724 0)
(3.0993 -1.29744 0)
(3.09931 -1.29744 0)
(3.09934 -1.29743 0)
(3.09966 -1.29734 0)
(3.0999 -1.2974 0)
(3.09991 -1.29762 0)
(3.09989 -1.2979 0)
(3.09996 -1.29797 0)
(3.0999 -1.29805 0)
(3.09982 -1.29806 0)
(3.09979 -1.29809 0)
(3.09976 -1.29806 0)
(3.09982 -1.29779 0)
(3.09957 -1.29772 0)
(3.09909 -1.29846 0)
(3.0991 -1.29884 0)
(3.09907 -1.29861 0)
(3.09882 -1.29826 0)
(3.09871 -1.29834 0)
(3.09869 -1.29864 0)
(3.09857 -1.29886 0)
(3.09866 -1.29899 0)
(3.09892 -1.29869 0)
(3.09904 -1.29854 0)
(3.09899 -1.29881 0)
(3.09884 -1.29901 0)
(3.09979 -1.29866 0)
(3.10037 -1.29796 0)
(3.10042 -1.29774 0)
(3.10035 -1.2977 0)
(3.10046 -1.29741 0)
(3.10055 -1.29721 0)
(3.10064 -1.29705 0)
(3.10062 -1.29701 0)
(3.10069 -1.29676 0)
(3.10152 -1.29647 0)
(3.10166 -1.29644 0)
(3.10173 -1.29652 0)
(3.10151 -1.29684 0)
(3.10119 -1.2972 0)
(3.10073 -1.29762 0)
(3.10051 -1.29708 0)
(3.09993 -1.298 0)
(3.09742 -1.29117 0)
(3.08425 -1.23711 0)
(3.04395 -1.06732 0)
(3.01539 -0.877455 0)
(2.95977 -0.575093 0)
(2.95627 -0.438382 0)
(2.89677 -0.188838 0)
(2.89283 -0.14334 0)
(2.84506 -0.0519098 0)
(2.84807 -0.0263602 0)
(2.83396 0.00618532 0)
(2.82668 0.0269371 0)
(2.82524 0.0429237 0)
(2.82003 0.0488812 0)
(2.82454 0.0625845 0)
(2.81366 0.0619673 0)
(2.80681 0.0518757 0)
(2.80353 0.0343013 0)
(2.80219 0.0201056 0)
(2.80434 0.0141859 0)
(2.80556 0.0175764 0)
(2.81071 0.0270589 0)
(2.81808 0.040096 0)
(2.82146 0.0464575 0)
(2.82055 0.0437751 0)
(2.81831 0.0351458 0)
(2.81595 0.0235675 0)
(2.81645 0.0223581 0)
(2.8196 0.0269211 0)
(2.8238 0.0356841 0)
(2.82708 0.0420215 0)
(2.82686 0.0386999 0)
(2.82507 0.0272768 0)
(2.82142 0.0155896 0)
(2.82294 0.0120195 0)
(2.82609 0.0174171 0)
(2.83107 0.0266674 0)
(2.83442 0.0314597 0)
(2.83362 0.0275534 0)
(2.8307 0.0156483 0)
(2.82829 0.00797234 0)
(2.82868 0.00742843 0)
(2.83131 0.0105037 0)
(2.83222 0.0144071 0)
(2.837 0.0137368 0)
(2.83786 0.010684 0)
(2.8397 0.00336222 0)
(3.09898 -1.29725 0)
(3.09902 -1.29733 0)
(3.09902 -1.29755 0)
(3.09898 -1.29762 0)
(3.09896 -1.29781 0)
(3.09894 -1.29802 0)
(3.09928 -1.29788 0)
(3.09948 -1.29752 0)
(3.09903 -1.29729 0)
(3.09861 -1.2976 0)
(3.09899 -1.29801 0)
(3.09903 -1.29801 0)
(3.09905 -1.29795 0)
(3.09909 -1.29837 0)
(3.09935 -1.29873 0)
(3.09941 -1.29876 0)
(3.09945 -1.29868 0)
(3.09948 -1.29861 0)
(3.09957 -1.29851 0)
(3.09963 -1.29846 0)
(3.0996 -1.29847 0)
(3.09954 -1.29854 0)
(3.09943 -1.29847 0)
(3.09946 -1.2982 0)
(3.09926 -1.29852 0)
(3.09919 -1.29904 0)
(3.09888 -1.29893 0)
(3.09885 -1.29876 0)
(3.09899 -1.29866 0)
(3.09907 -1.29855 0)
(3.0991 -1.29858 0)
(3.09909 -1.29872 0)
(3.09949 -1.29869 0)
(3.10002 -1.29821 0)
(3.10009 -1.2983 0)
(3.09995 -1.29863 0)
(3.09984 -1.29864 0)
(3.10036 -1.29812 0)
(3.10072 -1.29773 0)
(3.10081 -1.29741 0)
(3.10082 -1.2971 0)
(3.10093 -1.29688 0)
(3.10102 -1.29673 0)
(3.10096 -1.29674 0)
(3.10146 -1.29654 0)
(3.10198 -1.29661 0)
(3.10234 -1.29653 0)
(3.10272 -1.29641 0)
(3.10268 -1.29653 0)
(3.10167 -1.29733 0)
(3.1008 -1.29756 0)
(3.10006 -1.29707 0)
(3.09952 -1.29737 0)
(3.09937 -1.2978 0)
(3.1 -1.29862 0)
(3.10074 -1.29909 0)
(3.10136 -1.29962 0)
(3.10187 -1.2978 0)
(3.09116 -1.24696 0)
(3.04173 -1.04152 0)
(3.00719 -0.818426 0)
(2.92062 -0.441232 0)
(2.93928 -0.320572 0)
(2.86971 -0.0765714 0)
(2.85714 0.00449236 0)
(2.83903 0.0687337 0)
(2.82461 0.113889 0)
(2.80849 0.0972051 0)
(2.80265 0.0684455 0)
(2.80629 0.048585 0)
(2.80598 0.0271569 0)
(2.80864 0.0253648 0)
(2.80962 0.0214712 0)
(2.81467 0.0290119 0)
(2.82182 0.0468226 0)
(2.82283 0.0509968 0)
(2.82082 0.0474402 0)
(2.81619 0.0386298 0)
(2.81504 0.0310636 0)
(2.81392 0.0227291 0)
(2.81666 0.0251933 0)
(2.82402 0.0381589 0)
(2.82671 0.0456557 0)
(2.8273 0.0434103 0)
(2.82484 0.0335427 0)
(2.82353 0.0228582 0)
(2.82014 0.012658 0)
(2.82203 0.0142007 0)
(2.82815 0.0258908 0)
(2.83225 0.0326616 0)
(2.83245 0.0312242 0)
(2.83001 0.0229565 0)
(2.82831 0.0130989 0)
(2.82657 0.00742794 0)
(2.82768 0.00897504 0)
(2.83011 0.0130579 0)
(2.83174 0.0157051 0)
(2.83402 0.0130302 0)
(2.83516 0.00874813 0)
(2.83693 0.00223887 0)
(3.09859 -1.29804 0)
(3.09863 -1.29808 0)
(3.09873 -1.29826 0)
(3.0987 -1.29847 0)
(3.09878 -1.29853 0)
(3.09878 -1.29881 0)
(3.09876 -1.29882 0)
(3.09897 -1.29862 0)
(3.09907 -1.29857 0)
(3.09888 -1.29838 0)
(3.09879 -1.29823 0)
(3.09903 -1.29819 0)
(3.09919 -1.29819 0)
(3.09941 -1.29826 0)
(3.09954 -1.2984 0)
(3.09955 -1.29866 0)
(3.09949 -1.29873 0)
(3.09944 -1.29877 0)
(3.09945 -1.29876 0)
(3.09947 -1.29874 0)
(3.09971 -1.29844 0)
(3.09986 -1.29818 0)
(3.09982 -1.29816 0)
(3.09986 -1.29774 0)
(3.10008 -1.29751 0)
(3.0999 -1.29791 0)
(3.09957 -1.29842 0)
(3.09955 -1.29852 0)
(3.09959 -1.29845 0)
(3.09967 -1.29815 0)
(3.09978 -1.29787 0)
(3.09991 -1.29774 0)
(3.10061 -1.29756 0)
(3.10138 -1.29722 0)
(3.10146 -1.29707 0)
(3.10134 -1.29714 0)
(3.10094 -1.29747 0)
(3.10086 -1.29753 0)
(3.10117 -1.29732 0)
(3.10137 -1.29726 0)
(3.10153 -1.29684 0)
(3.10167 -1.29647 0)
(3.10188 -1.29624 0)
(3.10205 -1.29617 0)
(3.102 -1.29666 0)
(3.1022 -1.29728 0)
(3.10258 -1.29763 0)
(3.10318 -1.29742 0)
(3.10304 -1.29779 0)
(3.10233 -1.2975 0)
(3.10142 -1.29728 0)
(3.10036 -1.29685 0)
(3.09981 -1.29677 0)
(3.09941 -1.2975 0)
(3.09981 -1.29856 0)
(3.10088 -1.29913 0)
(3.10159 -1.29947 0)
(3.1028 -1.29986 0)
(3.10402 -1.29835 0)
(3.10391 -1.29619 0)
(3.10355 -1.29581 0)
(3.09832 -1.28004 0)
(3.07851 -1.19649 0)
(3.02591 -0.969669 0)
(2.98866 -0.72907 0)
(2.94194 -0.453017 0)
(2.91195 -0.240272 0)
(2.90087 -0.159277 0)
(2.84666 -0.0512666 0)
(2.85603 -0.0258264 0)
(2.83398 -4.87789e-06 0)
(2.83353 0.0202234 0)
(2.82806 0.0381079 0)
(2.82026 0.0526503 0)
(2.81982 0.0591884 0)
(2.81385 0.0505345 0)
(2.8111 0.03644 0)
(2.80368 0.0180978 0)
(2.80705 0.0161739 0)
(2.81136 0.0205872 0)
(2.82149 0.0351339 0)
(2.82734 0.0459713 0)
(2.82711 0.0455336 0)
(2.824 0.0369144 0)
(2.82076 0.0209773 0)
(2.81782 0.0097721 0)
(2.81921 0.0113934 0)
(2.82441 0.0210197 0)
(2.82983 0.0335325 0)
(2.83221 0.0343961 0)
(2.83033 0.0290186 0)
(2.82585 0.0136981 0)
(2.82476 0.00660485 0)
(2.82548 0.00786051 0)
(2.82798 0.0120207 0)
(2.82943 0.016688 0)
(2.83099 0.0148771 0)
(2.83121 0.0109907 0)
(2.83188 0.00585392 0)
(2.83418 0.000207627 0)
(3.09845 -1.29854 0)
(3.09862 -1.2986 0)
(3.09879 -1.29869 0)
(3.09876 -1.29881 0)
(3.09874 -1.29881 0)
(3.09883 -1.29862 0)
(3.09898 -1.29857 0)
(3.09899 -1.29864 0)
(3.09904 -1.29869 0)
(3.0992 -1.29869 0)
(3.0994 -1.29828 0)
(3.09957 -1.29795 0)
(3.09977 -1.29786 0)
(3.09997 -1.29781 0)
(3.10002 -1.2978 0)
(3.10023 -1.2977 0)
(3.10029 -1.29765 0)
(3.10022 -1.2976 0)
(3.10024 -1.29762 0)
(3.10021 -1.29768 0)
(3.10033 -1.29765 0)
(3.10041 -1.29753 0)
(3.10041 -1.29742 0)
(3.10036 -1.29704 0)
(3.10039 -1.29681 0)
(3.10024 -1.29699 0)
(3.10025 -1.29707 0)
(3.10035 -1.29719 0)
(3.10058 -1.29711 0)
(3.10072 -1.29681 0)
(3.10073 -1.29672 0)
(3.1009 -1.29681 0)
(3.10177 -1.29655 0)
(3.1024 -1.29626 0)
(3.10242 -1.2962 0)
(3.10239 -1.29607 0)
(3.10184 -1.29625 0)
(3.10133 -1.29665 0)
(3.10119 -1.29685 0)
(3.10114 -1.29688 0)
(3.10114 -1.29684 0)
(3.10129 -1.29675 0)
(3.10152 -1.29676 0)
(3.10184 -1.29689 0)
(3.10165 -1.2978 0)
(3.1018 -1.29849 0)
(3.10225 -1.29892 0)
(3.10285 -1.29904 0)
(3.10357 -1.29869 0)
(3.10315 -1.2977 0)
(3.10234 -1.29705 0)
(3.10139 -1.2964 0)
(3.09995 -1.29617 0)
(3.0995 -1.29772 0)
(3.09955 -1.29876 0)
(3.10095 -1.29911 0)
(3.10251 -1.29956 0)
(3.10322 -1.29964 0)
(3.10462 -1.29883 0)
(3.1045 -1.29574 0)
(3.10421 -1.29491 0)
(3.10384 -1.295 0)
(3.10323 -1.29724 0)
(3.10256 -1.2985 0)
(3.10221 -1.29905 0)
(3.09054 -1.26299 0)
(3.05151 -1.09383 0)
(3.0071 -0.825592 0)
(2.91592 -0.418359 0)
(2.95901 -0.312406 0)
(2.86267 -0.0368379 0)
(2.85395 0.0128916 0)
(2.83088 0.104798 0)
(2.82042 0.0986871 0)
(2.81163 0.0709689 0)
(2.81243 0.0446419 0)
(2.80906 0.0280029 0)
(2.81024 0.0262703 0)
(2.81099 0.0212405 0)
(2.82462 0.0352455 0)
(2.83244 0.0560731 0)
(2.82907 0.0512472 0)
(2.82416 0.0423163 0)
(2.81803 0.0267212 0)
(2.81536 0.0127606 0)
(2.81614 0.0113116 0)
(2.82134 0.0180926 0)
(2.82961 0.0350918 0)
(2.8318 0.037395 0)
(2.83122 0.0340343 0)
(2.8271 0.0214171 0)
(2.82414 0.00968845 0)
(2.82369 0.00794342 0)
(2.8255 0.0107352 0)
(2.82747 0.0153049 0)
(2.82902 0.0175786 0)
(2.82907 0.0144035 0)
(2.82941 0.00879738 0)
(2.83039 0.00333153 0)
(2.83262 -0.000600792 0)
(3.09905 -1.29884 0)
(3.09911 -1.29878 0)
(3.0992 -1.29861 0)
(3.09919 -1.29853 0)
(3.09919 -1.29853 0)
(3.0993 -1.29855 0)
(3.09953 -1.29837 0)
(3.0995 -1.2984 0)
(3.09936 -1.29826 0)
(3.09967 -1.29789 0)
(3.0999 -1.29753 0)
(3.10017 -1.29749 0)
(3.10039 -1.29741 0)
(3.10043 -1.29743 0)
(3.10051 -1.29737 0)
(3.10062 -1.2972 0)
(3.10065 -1.29721 0)
(3.10066 -1.29711 0)
(3.10064 -1.29685 0)
(3.10061 -1.29687 0)
(3.10068 -1.29684 0)
(3.10093 -1.29665 0)
(3.10122 -1.29627 0)
(3.10148 -1.29578 0)
(3.10159 -1.29567 0)
(3.10152 -1.29572 0)
(3.10146 -1.29584 0)
(3.10183 -1.29575 0)
(3.10207 -1.29568 0)
(3.102 -1.29578 0)
(3.10197 -1.29595 0)
(3.10235 -1.29603 0)
(3.10304 -1.29584 0)
(3.10312 -1.29583 0)
(3.10306 -1.29583 0)
(3.10312 -1.29551 0)
(3.10284 -1.29558 0)
(3.10148 -1.29627 0)
(3.10098 -1.29648 0)
(3.10074 -1.29655 0)
(3.10048 -1.29697 0)
(3.10048 -1.29738 0)
(3.10087 -1.29761 0)
(3.10106 -1.29815 0)
(3.10119 -1.2988 0)
(3.1015 -1.29937 0)
(3.10217 -1.30007 0)
(3.10297 -1.29991 0)
(3.10378 -1.29936 0)
(3.10425 -1.29816 0)
(3.10338 -1.29685 0)
(3.10214 -1.29578 0)
(3.10035 -1.2955 0)
(3.10005 -1.29772 0)
(3.09957 -1.2987 0)
(3.10046 -1.29885 0)
(3.10293 -1.29959 0)
(3.1034 -1.29971 0)
(3.10427 -1.29939 0)
(3.10446 -1.29635 0)
(3.10427 -1.29489 0)
(3.10428 -1.29505 0)
(3.10396 -1.29673 0)
(3.10262 -1.29917 0)
(3.10193 -1.2992 0)
(3.10029 -1.29928 0)
(3.0992 -1.29947 0)
(3.09816 -1.30287 0)
(3.09118 -1.28184 0)
(3.07074 -1.17531 0)
(3.00996 -0.901254 0)
(2.97729 -0.652764 0)
(2.92034 -0.331172 0)
(2.91454 -0.200587 0)
(2.86019 -0.0810713 0)
(2.86929 -0.0409005 0)
(2.84435 -0.00377468 0)
(2.84256 0.0228478 0)
(2.8368 0.0422895 0)
(2.83634 0.0593982 0)
(2.8294 0.0574256 0)
(2.81539 0.0425948 0)
(2.80941 0.0212696 0)
(2.80438 0.00240465 0)
(2.81009 0.00628323 0)
(2.8153 0.0129758 0)
(2.82702 0.0312265 0)
(2.83247 0.0427165 0)
(2.83165 0.039388 0)
(2.82826 0.0251837 0)
(2.82174 0.00577163 0)
(2.82122 0.00382619 0)
(2.82263 0.00735845 0)
(2.8249 0.0137525 0)
(2.8279 0.0183577 0)
(2.82811 0.0168637 0)
(2.82751 0.0105949 0)
(2.82849 0.00424693 0)
(2.82988 0.000332084 0)
(2.83238 -0.0022941 0)
(3.09966 -1.29876 0)
(3.0996 -1.29873 0)
(3.0996 -1.29873 0)
(3.09958 -1.29869 0)
(3.09959 -1.29868 0)
(3.09973 -1.29883 0)
(3.10072 -1.29861 0)
(3.10104 -1.29815 0)
(3.10102 -1.29812 0)
(3.10097 -1.29815 0)
(3.10095 -1.29802 0)
(3.10097 -1.29744 0)
(3.10116 -1.29702 0)
(3.10122 -1.29681 0)
(3.10143 -1.29653 0)
(3.10138 -1.29632 0)
(3.10141 -1.29626 0)
(3.10174 -1.29598 0)
(3.10177 -1.2956 0)
(3.10173 -1.29552 0)
(3.1017 -1.29547 0)
(3.10178 -1.2956 0)
(3.102 -1.29564 0)
(3.1026 -1.29549 0)
(3.10267 -1.29543 0)
(3.10253 -1.29558 0)
(3.10246 -1.29573 0)
(3.1029 -1.29568 0)
(3.1032 -1.29559 0)
(3.10308 -1.29577 0)
(3.1028 -1.29608 0)
(3.10272 -1.29628 0)
(3.10364 -1.29578 0)
(3.10383 -1.29568 0)
(3.10372 -1.29583 0)
(3.10351 -1.29552 0)
(3.10337 -1.29533 0)
(3.10165 -1.29551 0)
(3.10045 -1.29634 0)
(3.10017 -1.29682 0)
(3.1001 -1.29703 0)
(3.10013 -1.29737 0)
(3.10033 -1.29844 0)
(3.10023 -1.29907 0)
(3.10039 -1.2998 0)
(3.10099 -1.30052 0)
(3.1021 -1.30097 0)
(3.10301 -1.30089 0)
(3.10369 -1.30034 0)
(3.10476 -1.29895 0)
(3.1044 -1.29658 0)
(3.1032 -1.29539 0)
(3.10116 -1.29488 0)
(3.10067 -1.29675 0)
(3.09982 -1.29808 0)
(3.10011 -1.2987 0)
(3.10282 -1.29988 0)
(3.10334 -1.29991 0)
(3.10393 -1.29937 0)
(3.10409 -1.297 0)
(3.1042 -1.2955 0)
(3.10427 -1.29553 0)
(3.104 -1.29733 0)
(3.1025 -1.30017 0)
(3.10107 -1.30091 0)
(3.0986 -1.30035 0)
(3.09577 -1.30118 0)
(3.09593 -1.30226 0)
(3.09508 -1.30223 0)
(3.0948 -1.30214 0)
(3.09481 -1.30193 0)
(3.09524 -1.3004 0)