/*--------------------------------*- C++ -*----------------------------------*\
  =========                 |
  \\      /  F ield         | OpenFOAM: The Open Source CFD Toolbox
   \\    /   O peration     | Website:  https://openfoam.org
    \\  /    A nd           | Version:  7
     \\/     M anipulation  |
\*---------------------------------------------------------------------------*/
FoamFile
{
    version     2.0;
    format      ascii;
    class       volScalarField;
    location    "9.5";
    object      p;
}
// * * * * * * * * * * * * * * * * * * * * * * * * * * * * * * * * * * * * * //

dimensions      [1 -1 -2 0 0 0 0];

internalField   nonuniform List<scalar> 
90000
(
0.18531
0.225665
0.268449
0.307068
0.330988
0.359121
0.391613
0.418425
0.444271
0.475318
0.509549
0.545326
0.581132
0.622121
0.6658
0.710745
0.757974
0.804929
0.852619
0.89375
0.932182
0.959733
0.9841
0.989638
0.994172
0.992884
0.990734
0.987504
0.98264
0.976254
0.97154
0.966699
0.966082
0.96532
0.964173
0.962171
0.958851
0.953609
0.945725
0.934692
0.932556
0.93641
0.946848
0.958773
0.971879
0.983556
0.992785
0.995308
0.989431
0.978752
0.96605
0.955859
0.950855
0.950988
0.956077
0.963105
0.970837
0.977963
0.97696
0.973551
0.96767
0.962645
0.961764
0.963658
0.968329
0.973917
0.97514
0.972902
0.968132
0.964849
0.964565
0.967776
0.972468
0.973943
0.971841
0.968983
0.967598
0.969245
0.973579
0.974605
0.972359
0.969365
0.968557
0.969969
0.971318
0.971129
0.970338
0.96976
0.969426
0.968939
0.968573
0.968695
0.968622
0.968129
0.967528
0.967698
0.96852
0.969632
0.970712
0.972908
0.147726
0.147707
0.147683
0.147657
0.147629
0.147601
0.147576
0.147554
0.147536
0.148069
0.149657
0.152937
0.158017
0.166668
0.178757
0.196738
0.219786
0.252075
0.290114
0.338736
0.393264
0.45673
0.523656
0.58948
0.651731
0.706354
0.757372
0.798611
0.837579
0.864187
0.890245
0.906708
0.923931
0.935556
0.947156
0.950937
0.956481
0.957397
0.95711
0.96247
0.973853
0.982863
0.986333
0.988368
0.988269
0.989047
0.985192
0.976998
0.964436
0.954114
0.952204
0.955205
0.96033
0.966105
0.971147
0.975588
0.978366
0.976884
0.972423
0.965328
0.959357
0.958354
0.96176
0.966915
0.97362
0.976702
0.975121
0.97009
0.9655
0.965148
0.967381
0.972419
0.975031
0.973099
0.970055
0.96846
0.969725
0.974229
0.974741
0.97277
0.969255
0.967374
0.967904
0.970846
0.971872
0.970916
0.969806
0.969692
0.969582
0.969155
0.96891
0.968783
0.968397
0.967794
0.96756
0.968096
0.969051
0.970456
0.971701
0.973626
0.147717
0.147716
0.147716
0.147718
0.147719
0.147722
0.147726
0.147733
0.147737
0.147758
0.147733
0.147697
0.147659
0.147623
0.147591
0.147565
0.147542
0.147526
0.147509
0.147508
0.14746
0.148461
0.151916
0.161171
0.176243
0.20133
0.233323
0.277354
0.327515
0.390075
0.455611
0.527239
0.597683
0.666565
0.735868
0.796642
0.85752
0.905379
0.952557
0.982789
0.999694
1.00542
1.00396
1.00078
0.994713
0.983143
0.964755
0.94069
0.930345
0.934911
0.944364
0.954968
0.96507
0.973272
0.978201
0.981352
0.979181
0.971747
0.962898
0.958955
0.959695
0.964461
0.972349
0.976136
0.975832
0.972712
0.966358
0.962497
0.961441
0.966777
0.973623
0.976085
0.973699
0.968509
0.966313
0.967163
0.970754
0.976076
0.975591
0.971229
0.968599
0.968544
0.970409
0.970808
0.970502
0.970534
0.97037
0.969695
0.968615
0.967792
0.96815
0.968951
0.968561
0.967845
0.967517
0.968457
0.969653
0.9703
0.971224
0.973148
0.147755
0.147757
0.147759
0.14776
0.147762
0.147763
0.147763
0.147761
0.14776
0.147756
0.147753
0.147752
0.147751
0.147749
0.147747
0.147746
0.147746
0.147746
0.147744
0.147743
0.147746
0.147725
0.147695
0.147669
0.147652
0.147642
0.147641
0.147642
0.147656
0.147643
0.148987
0.155472
0.16823
0.193357
0.228049
0.280367
0.343854
0.426866
0.517903
0.609076
0.695976
0.764984
0.830234
0.867621
0.903555
0.91243
0.923356
0.92734
0.942912
0.955816
0.970593
0.979172
0.986347
0.986879
0.986074
0.981674
0.968263
0.957134
0.95312
0.955027
0.961192
0.969411
0.979401
0.981572
0.976832
0.967629
0.961133
0.961098
0.966104
0.970313
0.977566
0.97638
0.970927
0.966783
0.966504
0.971423
0.975792
0.974933
0.971816
0.967076
0.965837
0.967806
0.971765
0.972568
0.970678
0.969228
0.969526
0.970062
0.969476
0.968939
0.968616
0.968012
0.967539
0.967327
0.967811
0.968441
0.969939
0.971605
0.972236
0.973818
0.147796
0.147795
0.147794
0.147792
0.14779
0.147788
0.147786
0.147782
0.147778
0.147775
0.147771
0.147768
0.147765
0.14776
0.147756
0.147752
0.147749
0.147746
0.147744
0.147743
0.147741
0.14774
0.147743
0.147747
0.147755
0.147764
0.147774
0.147782
0.147787
0.147796
0.147788
0.147775
0.147761
0.147748
0.147737
0.14773
0.147708
0.148552
0.153836
0.172477
0.204967
0.262129
0.336247
0.435422
0.544565
0.655522
0.767782
0.856289
0.923342
0.946271
0.963477
0.969977
0.976872
0.978562
0.974776
0.958862
0.945678
0.950063
0.957413
0.969175
0.979195
0.982435
0.98093
0.97595
0.966417
0.958657
0.958597
0.961735
0.970488
0.979185
0.977863
0.971563
0.965004
0.964732
0.967085
0.973102
0.978668
0.975387
0.968641
0.966327
0.96815
0.970989
0.970975
0.970622
0.970193
0.970267
0.969294
0.968245
0.967734
0.967864
0.969
0.968868
0.968012
0.967334
0.968424
0.969692
0.969685
0.970352
0.972349
0.97417
0.147778
0.147775
0.147773
0.147771
0.147769
0.147767
0.147765
0.147763
0.147761
0.147759
0.147756
0.147754
0.147752
0.147751
0.14775
0.14775
0.14775
0.147749
0.147749
0.147749
0.147749
0.147749
0.147753
0.147756
0.147759
0.147761
0.147763
0.147763
0.147762
0.147761
0.147761
0.147756
0.147745
0.147734
0.147722
0.147709
0.147698
0.147673
0.147647
0.147625
0.147613
0.147616
0.147615
0.149121
0.158283
0.189921
0.245968
0.342804
0.459731
0.582424
0.696826
0.775527
0.851035
0.884037
0.914606
0.921276
0.942497
0.962437
0.98457
0.99642
0.993161
0.984411
0.973827
0.957524
0.953997
0.95579
0.962257
0.97408
0.985668
0.983499
0.973925
0.96314
0.962154
0.965007
0.974728
0.980134
0.978165
0.970304
0.964642
0.965388
0.969095
0.972445
0.971818
0.969696
0.969025
0.970023
0.970345
0.969112
0.968235
0.968355
0.96802
0.967753
0.96737
0.967637
0.967765
0.969538
0.971387
0.97184
0.972173
0.974506
0.147728
0.147727
0.147727
0.147728
0.147728
0.147729
0.14773
0.147731
0.147732
0.147734
0.147734
0.147735
0.147736
0.147737
0.147738
0.14774
0.14774
0.14774
0.147741
0.147742
0.147742
0.147743
0.147744
0.147745
0.147746
0.147744
0.147739
0.147733
0.147728
0.147724
0.147721
0.147711
0.147695
0.14768
0.147664
0.147647
0.147631
0.147619
0.147611
0.147612
0.147625
0.147648
0.147681
0.147697
0.147711
0.147723
0.147747
0.147752
0.14992
0.170275
0.213079
0.297458
0.407565
0.542181
0.683569
0.802938
0.904837
0.942548
0.967654
0.976276
0.981023
0.977829
0.959373
0.946226
0.951614
0.967095
0.980027
0.986144
0.984821
0.972295
0.961052
0.958842
0.963114
0.975744
0.98321
0.980417
0.970181
0.963896
0.963656
0.968354
0.973516
0.973427
0.971139
0.969186
0.969035
0.969742
0.969749
0.968345
0.968107
0.968498
0.968738
0.967594
0.967211
0.96765
0.969465
0.969172
0.969997
0.972361
0.97331
0.974372
0.147709
0.147711
0.147715
0.147719
0.147723
0.147727
0.14773
0.147733
0.147736
0.147737
0.147738
0.14774
0.147743
0.147745
0.147747
0.147749
0.147749
0.147749
0.147748
0.147747
0.147746
0.147746
0.147744
0.14774
0.147738
0.14773
0.147718
0.147708
0.147702
0.147695
0.147688
0.147679
0.147666
0.147653
0.147644
0.147637
0.14763
0.147626
0.147625
0.147634
0.147656
0.147687
0.147722
0.147744
0.147759
0.147769
0.147782
0.147792
0.147801
0.147816
0.147825
0.14782
0.147791
0.161832
0.200601
0.295302
0.42702
0.575072
0.717526
0.804901
0.892272
0.913158
0.93173
0.946856
0.976951
0.996768
0.996846
0.993377
0.972299
0.953176
0.95424
0.962048
0.977408
0.989463
0.986397
0.970677
0.960695
0.960612
0.966719
0.975475
0.975064
0.972646
0.9688
0.968229
0.969915
0.970325
0.969096
0.967916
0.96828
0.969122
0.968595
0.967286
0.967104
0.967853
0.969552
0.970597
0.970683
0.971801
0.973675
0.975221
0.147748
0.147753
0.147757
0.147761
0.147764
0.147766
0.147768
0.14777
0.147772
0.147772
0.147773
0.147775
0.147775
0.147774
0.147773
0.147771
0.14777
0.147768
0.147764
0.147759
0.147755
0.147752
0.147747
0.147738
0.147732
0.147724
0.147712
0.147701
0.147693
0.147687
0.14768
0.147673
0.147667
0.147662
0.147658
0.147655
0.147656
0.147657
0.147658
0.14767
0.147694
0.147727
0.147755
0.147766
0.147768
0.147766
0.147764
0.147769
0.14778
0.147791
0.1478
0.147804
0.147791
0.147763
0.147751
0.147752
0.148378
0.170986
0.226893
0.343563
0.500285
0.667632
0.832234
0.924202
0.96646
0.980174
0.985302
0.974524
0.942934
0.948024
0.962427
0.980262
0.989305
0.987564
0.972511
0.956948
0.957165
0.964251
0.975692
0.977128
0.974339
0.967852
0.966708
0.970055
0.971701
0.969716
0.967124
0.967568
0.969497
0.969296
0.967778
0.966755
0.967326
0.969151
0.970151
0.970827
0.971579
0.97284
0.973516
0.9752
0.1478
0.1478
0.147799
0.147796
0.147794
0.147792
0.147792
0.147792
0.147791
0.147788
0.147785
0.147783
0.147779
0.147776
0.147772
0.147767
0.147762
0.147758
0.147751
0.147743
0.147733
0.147727
0.147721
0.147714
0.147707
0.147701
0.147695
0.147689
0.147683
0.14768
0.147677
0.147674
0.147671
0.147671
0.147673
0.147677
0.147685
0.147692
0.147696
0.147703
0.147725
0.14775
0.147758
0.147756
0.147751
0.14774
0.147728
0.147726
0.147734
0.147745
0.147755
0.147766
0.147766
0.14776
0.147769
0.147781
0.147773
0.147764
0.147762
0.14776
0.15414
0.202673
0.307734
0.48109
0.657681
0.778307
0.882425
0.911325
0.93136
0.961887
0.994879
1.00149
0.996964
0.971255
0.950827
0.952427
0.962709
0.978175
0.982181
0.977696
0.967056
0.964354
0.968866
0.9733
0.971313
0.967466
0.966416
0.968745
0.970325
0.968836
0.966475
0.966811
0.968489
0.970064
0.970054
0.970993
0.972548
0.973462
0.973839
0.975771
0.147793
0.147789
0.147784
0.147779
0.147773
0.147768
0.147764
0.147761
0.147758
0.147753
0.147749
0.147744
0.14774
0.147735
0.14773
0.147724
0.147717
0.14771
0.147703
0.147695
0.147686
0.147678
0.147674
0.147674
0.147676
0.14768
0.147685
0.147689
0.147692
0.147697
0.1477
0.147702
0.147703
0.147706
0.147707
0.147712
0.147725
0.147734
0.147733
0.147731
0.147748
0.147756
0.147745
0.147736
0.147728
0.147712
0.147699
0.147694
0.147698
0.147711
0.147725
0.147738
0.147752
0.147783
0.147824
0.147826
0.147809
0.147781
0.147771
0.147766
0.14777
0.147783
0.147786
0.155393
0.194965
0.307029
0.478673
0.681013
0.865451
0.949781
0.985669
0.987698
0.974764
0.936993
0.944143
0.963331
0.978723
0.984363
0.979799
0.965971
0.962231
0.965687
0.974115
0.973278
0.969832
0.965742
0.966959
0.970389
0.970004
0.967123
0.966122
0.96753
0.969734
0.970334
0.970483
0.971435
0.973252
0.973851
0.973916
0.976179
0.147724
0.147716
0.147708
0.147703
0.147698
0.147694
0.14769
0.147685
0.147682
0.147679
0.147677
0.147674
0.147672
0.147668
0.147664
0.14766
0.147656
0.14765
0.147643
0.147636
0.147633
0.147635
0.147642
0.147653
0.147668
0.147688
0.147708
0.147722
0.147732
0.147742
0.14775
0.147755
0.147758
0.147757
0.147754
0.147755
0.147767
0.147771
0.147766
0.14776
0.147759
0.147753
0.147737
0.147724
0.147714
0.1477
0.14769
0.147692
0.147705
0.147722
0.147741
0.147762
0.147797
0.14787
0.147896
0.147892
0.147864
0.147798
0.147767
0.147763
0.147767
0.147782
0.147809
0.147868
0.147987
0.148057
0.153624
0.206471
0.348683
0.545967
0.727021
0.845957
0.909148
0.922284
0.963933
0.993366
0.992999
0.98774
0.963228
0.955926
0.960696
0.97511
0.977763
0.972204
0.964393
0.96511
0.970309
0.971636
0.969362
0.965763
0.966233
0.969042
0.970339
0.970423
0.970764
0.97213
0.973548
0.974172
0.97447
0.977531
0.147659
0.147653
0.147644
0.147637
0.147634
0.147632
0.147629
0.147625
0.147621
0.147618
0.147618
0.147619
0.14762
0.147621
0.147622
0.147623
0.147623
0.147622
0.147622
0.147623
0.147629
0.14764
0.147659
0.147686
0.147715
0.147745
0.14777
0.14779
0.147805
0.147815
0.147823
0.147828
0.147832
0.147826
0.147812
0.147803
0.147802
0.147804
0.147802
0.147795
0.147787
0.147779
0.14777
0.147755
0.147741
0.147736
0.147738
0.147742
0.147752
0.14777
0.14779
0.147814
0.147858
0.14792
0.147928
0.147923
0.147893
0.147818
0.147767
0.147762
0.147774
0.147829
0.14796
0.148097
0.148182
0.148273
0.148388
0.148414
0.148385
0.164839
0.243294
0.410189
0.649194
0.846667
0.952939
0.980967
0.986238
0.965014
0.945552
0.956719
0.974445
0.982512
0.976624
0.960798
0.961398
0.96836
0.973892
0.972096
0.964702
0.964079
0.967608
0.970682
0.970529
0.970441
0.971276
0.973343
0.973667
0.974168
0.974855
0.978924
0.147644
0.147641
0.147636
0.147629
0.147625
0.147623
0.147622
0.14762
0.147619
0.147619
0.147624
0.14763
0.147634
0.147639
0.147647
0.14766
0.147671
0.14768
0.147688
0.147693
0.147699
0.147709
0.147732
0.147765
0.147793
0.147817
0.147836
0.147852
0.147863
0.147869
0.147871
0.147878
0.147881
0.14787
0.147839
0.147821
0.147817
0.147814
0.14781
0.147804
0.147798
0.147788
0.147782
0.147781
0.147779
0.147788
0.147803
0.147809
0.147814
0.147821
0.147828
0.147847
0.147894
0.147934
0.147933
0.147921
0.147883
0.147808
0.147764
0.147771
0.147818
0.147939
0.148186
0.148304
0.148314
0.148354
0.148407
0.148395
0.148314
0.148132
0.147768
0.14861
0.186846
0.34513
0.565282
0.737954
0.894578
0.908709
0.948806
0.98245
0.991639
0.986871
0.95845
0.954685
0.962742
0.975967
0.975198
0.966656
0.961436
0.964589
0.971463
0.97149
0.970156
0.970455
0.972416
0.974067
0.973955
0.974162
0.975585
0.980725
0.147646
0.147645
0.147642
0.14764
0.147639
0.147638
0.147639
0.147642
0.147647
0.147653
0.147665
0.147681
0.147687
0.147691
0.147701
0.147715
0.14773
0.147745
0.14776
0.147762
0.147761
0.147765
0.147788
0.147815
0.147829
0.14784
0.147848
0.147853
0.147859
0.147865
0.147867
0.14787
0.147877
0.147865
0.147839
0.147828
0.147817
0.147805
0.147799
0.147796
0.147794
0.147788
0.147786
0.14779
0.147811
0.147869
0.147887
0.147868
0.147848
0.147848
0.147854
0.147861
0.147906
0.147919
0.147912
0.147894
0.147861
0.147801
0.147804
0.14786
0.147969
0.148173
0.148402
0.148435
0.148421
0.148407
0.148375
0.148266
0.148095
0.147813
0.147578
0.147527
0.147543
0.147624
0.165998
0.274718
0.488265
0.729037
0.923946
0.97233
0.983002
0.964355
0.937514
0.955598
0.979423
0.979608
0.970019
0.958207
0.960232
0.971591
0.973506
0.97118
0.969336
0.970772
0.974002
0.974572
0.973891
0.974367
0.977099
0.982518
0.147749
0.147752
0.147755
0.147759
0.147762
0.147763
0.147764
0.147769
0.147774
0.147778
0.14779
0.147804
0.147804
0.1478
0.147799
0.147801
0.147802
0.147802
0.147802
0.147801
0.1478
0.147802
0.147821
0.147832
0.147831
0.147822
0.147811
0.147806
0.147806
0.147812
0.147821
0.147829
0.147845
0.147846
0.147833
0.14781
0.147791
0.147787
0.147792
0.147801
0.147805
0.147814
0.14783
0.147856
0.147917
0.147966
0.147967
0.147933
0.147874
0.14786
0.147855
0.147847
0.147857
0.147891
0.147898
0.147891
0.147851
0.147848
0.147908
0.148026
0.148182
0.148402
0.148497
0.148495
0.148477
0.148428
0.148274
0.148036
0.147795
0.147569
0.147493
0.147512
0.147658
0.147955
0.148304
0.14838
0.154425
0.247241
0.45038
0.670214
0.863399
0.902712
0.937188
0.990987
0.993573
0.982378
0.953957
0.955087
0.968042
0.977448
0.973469
0.968109
0.969015
0.973543
0.975251
0.974083
0.97359
0.974764
0.97969
0.9838
0.147911
0.147907
0.147902
0.147898
0.147896
0.147894
0.14789
0.147883
0.147876
0.147871
0.147867
0.147862
0.147855
0.147847
0.147843
0.147832
0.147808
0.147799
0.147795
0.147792
0.147792
0.147788
0.147779
0.147769
0.147765
0.147763
0.14776
0.147758
0.147761
0.147775
0.147795
0.147812
0.147829
0.147843
0.147846
0.147847
0.147851
0.147865
0.147887
0.147884
0.147885
0.147897
0.147913
0.147944
0.147993
0.148006
0.148002
0.147969
0.1479
0.147862
0.147849
0.147832
0.147825
0.147863
0.147892
0.147901
0.147924
0.148004
0.148108
0.148209
0.148349
0.148493
0.148528
0.148517
0.148467
0.14833
0.148028
0.147754
0.147528
0.147434
0.147452
0.147562
0.147914
0.148285
0.148471
0.148463
0.14826
0.147644
0.15003
0.222428
0.413775
0.688441
0.905143
0.9826
0.98224
0.949779
0.943672
0.96389
0.980956
0.978276
0.96588
0.966547
0.972049
0.975964
0.974785
0.973089
0.973536
0.977775
0.982387
0.984522
0.148013
0.148003
0.147985
0.147972
0.147965
0.147955
0.147945
0.147934
0.14792
0.147904
0.14789
0.147872
0.147852
0.147836
0.147819
0.14779
0.147763
0.14776
0.147763
0.147762
0.147754
0.147746
0.147739
0.147737
0.147744
0.147753
0.147754
0.147753
0.147756
0.147772
0.147807
0.147856
0.147904
0.147939
0.147958
0.147965
0.147976
0.147988
0.147978
0.147952
0.147953
0.147959
0.147957
0.14797
0.148
0.148007
0.147995
0.14794
0.147855
0.147837
0.147837
0.147823
0.14782
0.147859
0.147944
0.148017
0.148163
0.148314
0.148326
0.148342
0.148408
0.148505
0.148521
0.148426
0.148243
0.147963
0.147661
0.147501
0.147398
0.147387
0.147427
0.147749
0.148262
0.148454
0.148496
0.148312
0.147766
0.147236
0.147044
0.147096
0.147828
0.218244
0.426495
0.680461
0.848282
0.906825
0.94607
0.995286
0.990905
0.968252
0.960165
0.967174
0.977632
0.977099
0.972986
0.972396
0.975361
0.981862
0.98451
0.984779
0.148001
0.14799
0.14796
0.147928
0.147925
0.147923
0.147912
0.147889
0.14785
0.14781
0.147788
0.147777
0.147772
0.147766
0.147758
0.147748
0.14774
0.147742
0.147744
0.147741
0.147739
0.147743
0.147746
0.14774
0.14774
0.147756
0.147785
0.14779
0.147791
0.147815
0.147879
0.147968
0.148036
0.148049
0.148048
0.148038
0.148037
0.148028
0.147985
0.147957
0.147965
0.147973
0.147959
0.147916
0.14788
0.147869
0.147859
0.147817
0.147802
0.147817
0.147833
0.147853
0.147901
0.148007
0.14813
0.14827
0.148449
0.148495
0.148466
0.148403
0.148425
0.14846
0.148358
0.148099
0.147837
0.147522
0.147348
0.147324
0.147347
0.147372
0.147608
0.148138
0.148444
0.148509
0.148258
0.14777
0.147188
0.146945
0.146979
0.147322
0.14797
0.147985
0.149935
0.21516
0.426462
0.740967
0.920439
0.985052
0.978331
0.949869
0.963235
0.97928
0.980251
0.975229
0.970943
0.972404
0.979669
0.984445
0.984913
0.984947
0.14791
0.147887
0.147877
0.147876
0.147877
0.147877
0.14787
0.147836
0.147773
0.147744
0.147741
0.147743
0.14775
0.147765
0.147775
0.147775
0.147774
0.147777
0.147788
0.147803
0.147814
0.147827
0.147843
0.147845
0.147848
0.147865
0.147877
0.147874
0.147877
0.147914
0.147993
0.148072
0.148106
0.148108
0.1481
0.148084
0.148066
0.148031
0.147972
0.147951
0.147953
0.147932
0.147869
0.147786
0.147721
0.147705
0.147707
0.147728
0.147788
0.147841
0.147917
0.148008
0.14812
0.148227
0.148309
0.148442
0.148532
0.148532
0.148497
0.148412
0.148309
0.148132
0.147776
0.147568
0.147397
0.147222
0.147174
0.147205
0.14727
0.147577
0.148083
0.148446
0.148504
0.148257
0.147747
0.14724
0.146885
0.146889
0.147193
0.147871
0.1483
0.148161
0.147682
0.147456
0.150037
0.239266
0.4758
0.767295
0.863553
0.930091
0.989206
0.987259
0.978561
0.967972
0.968999
0.978194
0.985843
0.985182
0.984094
0.984833
0.147875
0.147881
0.147888
0.147894
0.147898
0.147895
0.147882
0.147874
0.14787
0.147872
0.147879
0.14788
0.147882
0.147889
0.147911
0.147922
0.14792
0.147921
0.147929
0.147941
0.147945
0.147944
0.147939
0.14793
0.147919
0.147917
0.147914
0.14791
0.147918
0.147958
0.148024
0.148086
0.148104
0.148102
0.14809
0.148071
0.14804
0.147972
0.147906
0.147887
0.147855
0.147778
0.147679
0.147606
0.14759
0.147584
0.147595
0.147647
0.147727
0.147902
0.148128
0.148264
0.148311
0.148317
0.148349
0.148471
0.148507
0.148459
0.148285
0.148055
0.14782
0.147446
0.147129
0.147126
0.147109
0.147107
0.147112
0.147185
0.147564
0.14817
0.148608
0.148538
0.148284
0.147705
0.147305
0.146982
0.146837
0.147098
0.147953
0.148663
0.148612
0.148057
0.147639
0.147998
0.149014
0.14921
0.160481
0.263374
0.539203
0.840823
0.957507
0.979402
0.974252
0.962107
0.975608
0.985856
0.985114
0.984372
0.984804
0.985804
0.148055
0.148057
0.14806
0.148064
0.148071
0.148085
0.14809
0.14809
0.148083
0.14807
0.148062
0.148045
0.14803
0.148027
0.148023
0.14801
0.14799
0.147968
0.147957
0.147957
0.147956
0.147949
0.147933
0.147911
0.147879
0.147812
0.14777
0.147762
0.14777
0.147775
0.147769
0.147773
0.147801
0.147826
0.147829
0.147823
0.147792
0.147749
0.147719
0.147683
0.147629
0.147555
0.147465
0.147433
0.147408
0.147416
0.14747
0.147574
0.14776
0.148116
0.148405
0.148426
0.148394
0.148312
0.148265
0.148219
0.14813
0.147945
0.14774
0.147561
0.147318
0.14702
0.146942
0.146958
0.147012
0.147141
0.147391
0.147831
0.148395
0.148863
0.148809
0.148365
0.147753
0.147308
0.147139
0.146893
0.147377
0.148457
0.149386
0.14933
0.148927
0.148087
0.148686
0.150327
0.151832
0.151818
0.151712
0.152043
0.176965
0.327467
0.604439
0.853641
0.927632
0.958778
0.995233
0.988866
0.982926
0.984347
0.985769
0.985936
0.14806
0.148059
0.148052
0.148038
0.148045
0.148056
0.148055
0.148053
0.148055
0.148052
0.148024
0.147975
0.147937
0.147911
0.147887
0.147855
0.147806
0.147743
0.147681
0.14763
0.147585
0.147537
0.147486
0.147433
0.14737
0.147302
0.147279
0.147271
0.147266
0.147266
0.147282
0.147326
0.147384
0.147453
0.147496
0.147509
0.147518
0.147519
0.147503
0.147475
0.147437
0.147381
0.147378
0.147404
0.147495
0.147648
0.147833
0.148027
0.148263
0.148522
0.148544
0.148514
0.148416
0.148204
0.147958
0.147759
0.147574
0.147473
0.147432
0.147346
0.147148
0.146972
0.146951
0.147004
0.147276
0.147824
0.148503
0.148948
0.149259
0.149177
0.148787
0.14795
0.14745
0.147271
0.147139
0.148172
0.149747
0.150862
0.150701
0.150144
0.149444
0.150486
0.152068
0.153487
0.153917
0.154632
0.155911
0.157657
0.158664
0.159143
0.203451
0.402308
0.731981
0.914799
0.987488
0.98026
0.982708
0.984649
0.98539
0.986544
0.147679
0.147675
0.147658
0.147638
0.147617
0.14757
0.14754
0.147533
0.14753
0.147508
0.147456
0.147413
0.14738
0.147341
0.147294
0.147249
0.147223
0.147207
0.14719
0.147169
0.147162
0.147157
0.147145
0.14712
0.147094
0.147081
0.147073
0.147069
0.147068
0.147072
0.147107
0.147179
0.147245
0.147315
0.147396
0.147457
0.147507
0.147557
0.147626
0.147746
0.147865
0.147991
0.148108
0.148206
0.148302
0.148404
0.148486
0.1486
0.148716
0.148714
0.148613
0.148404
0.148178
0.147941
0.147745
0.147556
0.14736
0.147358
0.147386
0.147345
0.147219
0.147233
0.147466
0.147959
0.148825
0.149559
0.149965
0.149887
0.149809
0.149407
0.148673
0.147768
0.147791
0.148488
0.150356
0.152146
0.153078
0.15284
0.151968
0.151929
0.15355
0.156163
0.157331
0.157264
0.157972
0.159627
0.161306
0.162712
0.164242
0.165376
0.166014
0.167711
0.254523
0.511268
0.829284
0.903403
0.979269
0.985743
0.98424
0.985874
0.147234
0.14726
0.147309
0.147321
0.147316
0.147309
0.147321
0.147341
0.147347
0.14734
0.147313
0.147264
0.147247
0.147246
0.147236
0.147207
0.147192
0.147189
0.147184
0.147172
0.147168
0.147173
0.147177
0.147181
0.147192
0.147209
0.147226
0.147246
0.147286
0.147361
0.14747
0.147609
0.147708
0.147771
0.147868
0.148074
0.148336
0.148521
0.148696
0.148854
0.148915
0.148957
0.148978
0.148994
0.149021
0.149048
0.149043
0.148998
0.148882
0.14877
0.148616
0.14836
0.148069
0.147774
0.147626
0.147512
0.147481
0.147534
0.147728
0.148102
0.148655
0.149395
0.150188
0.150847
0.151505
0.15149
0.151054
0.150519
0.150243
0.14933
0.149415
0.150306
0.152355
0.15438
0.156398
0.156308
0.15583
0.155431
0.156032
0.158403
0.160547
0.162146
0.16245
0.163053
0.164014
0.165175
0.166782
0.168328
0.170128
0.171745
0.172641
0.174551
0.175557
0.194794
0.338575
0.642876
0.9117
0.949863
0.980959
0.989862
0.147224
0.147252
0.147314
0.147341
0.147343
0.147339
0.147351
0.147386
0.147394
0.147374
0.147369
0.147394
0.147456
0.147529
0.147585
0.147624
0.147658
0.147707
0.14781
0.147968
0.148095
0.148172
0.148248
0.148372
0.14858
0.148776
0.14887
0.148938
0.149035
0.149192
0.149386
0.14946
0.149458
0.149475
0.149556
0.149693
0.149768
0.149838
0.149876
0.14987
0.149838
0.149747
0.149638
0.149602
0.149559
0.149439
0.149289
0.149037
0.148761
0.148666
0.148579
0.148349
0.148246
0.148293
0.148428
0.148712
0.1492
0.150029
0.15109
0.152071
0.152862
0.153467
0.153863
0.153873
0.153717
0.153227
0.152375
0.152298
0.1527
0.154202
0.156489
0.158902
0.160328
0.161156
0.160978
0.160573
0.160807
0.161935
0.164188
0.166705
0.167197
0.167436
0.168462
0.170093
0.171454
0.172943
0.174938
0.176433
0.177123
0.178307
0.17934
0.180424
0.182677
0.183709
0.184203
0.242454
0.470835
0.749117
0.932156
0.97887
0.148731
0.1488
0.148871
0.148964
0.149087
0.149211
0.149324
0.149459
0.14957
0.14965
0.14973
0.149826
0.149962
0.15022
0.150385
0.15038
0.150371
0.150407
0.150527
0.150739
0.150844
0.150832
0.150827
0.150872
0.151012
0.151144
0.151166
0.151167
0.151187
0.151194
0.15118
0.151151
0.151104
0.151036
0.150975
0.1509
0.150814
0.150702
0.150533
0.15037
0.150211
0.149892
0.149684
0.149735
0.149746
0.149691
0.149678
0.149713
0.14986
0.150107
0.150558
0.151303
0.152277
0.153362
0.15448
0.155502
0.156358
0.157123
0.157709
0.158049
0.158115
0.158146
0.15814
0.157879
0.157973
0.1585
0.159593
0.161134
0.163051
0.165075
0.166008
0.166696
0.166743
0.166481
0.166544
0.167361
0.169106
0.171402
0.173212
0.174003
0.174565
0.17531
0.176389
0.177701
0.179114
0.180863
0.181987
0.182938
0.183895
0.185174
0.187247
0.188624
0.190014
0.1915
0.19256
0.193088
0.200097
0.336292
0.612765
0.909024
0.152804
0.15275
0.152671
0.152629
0.152619
0.152645
0.152718
0.152715
0.152737
0.152744
0.152718
0.152726
0.152709
0.152682
0.152658
0.152614
0.152622
0.15262
0.152534
0.152516
0.152508
0.152434
0.152422
0.152426
0.152341
0.152334
0.152336
0.152221
0.152237
0.152239
0.152023
0.151985
0.152031
0.151893
0.151855
0.151921
0.152016
0.152062
0.15219
0.152533
0.1531
0.15377
0.154495
0.1553
0.156156
0.157114
0.158153
0.159228
0.160187
0.161095
0.161962
0.162779
0.163527
0.164066
0.164545
0.164866
0.165203
0.16519
0.165076
0.16487
0.164672
0.164814
0.165305
0.166256
0.167475
0.168936
0.170555
0.171968
0.172893
0.173697
0.17367
0.173366
0.173618
0.174491
0.176206
0.177961
0.179527
0.181367
0.181624
0.18185
0.18272
0.18409
0.185319
0.186303
0.187664
0.189264
0.190288
0.191228
0.192565
0.193645
0.195082
0.196703
0.19727
0.198313
0.199471
0.200945
0.202097
0.202644
0.237616
0.59038
0.158039
0.158079
0.158132
0.158191
0.158261
0.158349
0.158431
0.158542
0.158685
0.158796
0.158881
0.159006
0.159243
0.159421
0.159542
0.159788
0.160069
0.160317
0.16054
0.16077
0.161066
0.161379
0.161666
0.161984
0.162372
0.162786
0.163174
0.163637
0.164146
0.164492
0.164852
0.165337
0.165868
0.166385
0.166883
0.167286
0.167705
0.168262
0.168887
0.169471
0.16989
0.170225
0.170649
0.171106
0.171403
0.171679
0.172009
0.172214
0.172316
0.172392
0.172374
0.172421
0.17238
0.172035
0.171927
0.171889
0.172043
0.172192
0.172494
0.173076
0.174148
0.175424
0.176792
0.178205
0.17957
0.180741
0.181578
0.182234
0.18222
0.182361
0.182916
0.183786
0.184634
0.185909
0.187418
0.188692
0.18964
0.189926
0.190405
0.191213
0.192126
0.193373
0.194576
0.196167
0.197544
0.198063
0.199074
0.199993
0.200665
0.201333
0.202423
0.204281
0.205495
0.206272
0.207909
0.209282
0.209831
0.211114
0.211598
0.272072
0.173576
0.173666
0.173776
0.173879
0.173949
0.174054
0.174168
0.174291
0.174532
0.17464
0.174676
0.174805
0.175075
0.175175
0.175188
0.175292
0.175505
0.175657
0.175781
0.175915
0.176055
0.176177
0.176276
0.176382
0.176505
0.176642
0.176801
0.176947
0.177051
0.177113
0.177228
0.177475
0.177637
0.17774
0.177732
0.177718
0.177771
0.177973
0.178196
0.178226
0.178035
0.177912
0.17802
0.178054
0.177836
0.177759
0.177959
0.177985
0.177951
0.178154
0.178591
0.179211
0.179813
0.180463
0.181283
0.182432
0.183789
0.185366
0.186961
0.188386
0.189607
0.190587
0.191347
0.191908
0.192369
0.192388
0.192259
0.192316
0.19278
0.19323
0.194016
0.19506
0.196378
0.197526
0.198178
0.198952
0.199487
0.20004
0.200813
0.201755
0.20293
0.204026
0.204935
0.205913
0.206883
0.207316
0.207631
0.208531
0.209896
0.211704
0.212859
0.213404
0.214175
0.214913
0.215601
0.216324
0.217827
0.218928
0.219746
0.220717
0.186973
0.186986
0.187019
0.187075
0.187067
0.187072
0.187129
0.187153
0.187156
0.187182
0.187245
0.187305
0.187387
0.187435
0.187409
0.187399
0.187467
0.187586
0.187759
0.187782
0.187781
0.187862
0.187917
0.188005
0.188154
0.188286
0.188399
0.188524
0.188733
0.188899
0.189061
0.189231
0.1895
0.189903
0.190193
0.190368
0.190623
0.191016
0.191508
0.192061
0.192681
0.193316
0.193907
0.194526
0.195236
0.195987
0.196748
0.197514
0.198341
0.199069
0.199657
0.200254
0.200975
0.201715
0.202236
0.202653
0.202902
0.203096
0.203313
0.203441
0.203356
0.203126
0.202767
0.202765
0.202746
0.202781
0.202942
0.203476
0.20433
0.205601
0.206912
0.207964
0.208988
0.2096
0.210099
0.210215
0.210578
0.211247
0.211896
0.212653
0.213494
0.214493
0.215606
0.215812
0.216273
0.217373
0.218249
0.218984
0.219795
0.221144
0.221686
0.221723
0.2224
0.223743
0.224755
0.226025
0.226874
0.227474
0.228333
0.229879
0.204447
0.204521
0.2046
0.204669
0.204789
0.204906
0.204974
0.205067
0.205181
0.205291
0.205483
0.205644
0.205685
0.205784
0.205947
0.206143
0.206458
0.206595
0.206624
0.20669
0.206857
0.207093
0.207333
0.207556
0.207715
0.207856
0.208051
0.20827
0.208436
0.20859
0.208801
0.209027
0.209245
0.20948
0.209739
0.209981
0.210204
0.210451
0.210668
0.21085
0.211036
0.211232
0.211397
0.211476
0.211541
0.21167
0.211696
0.211726
0.211846
0.211879
0.211756
0.211612
0.211636
0.211558
0.211211
0.210977
0.210682
0.210355
0.210425
0.210722
0.210873
0.211143
0.211809
0.21279
0.214016
0.215494
0.217023
0.218419
0.219441
0.220466
0.220778
0.221166
0.221078
0.221101
0.221227
0.22135
0.221695
0.22241
0.223576
0.224819
0.225642
0.226323
0.227037
0.227614
0.227705
0.228045
0.229003
0.230213
0.230713
0.231068
0.231735
0.232913
0.233806
0.234397
0.235229
0.235616
0.235707
0.236383
0.237218
0.238368
0.221997
0.222043
0.222091
0.222127
0.222163
0.222189
0.222213
0.222281
0.222388
0.222403
0.222324
0.222289
0.222359
0.222465
0.222482
0.222515
0.222593
0.222605
0.222571
0.222562
0.222615
0.222789
0.222894
0.222884
0.222838
0.222851
0.222968
0.223134
0.223143
0.223085
0.223078
0.223116
0.223147
0.223175
0.22317
0.223152
0.223173
0.223231
0.223204
0.223062
0.223012
0.223102
0.223327
0.223354
0.223383
0.223521
0.223788
0.224095
0.224397
0.224753
0.225162
0.225582
0.226045
0.226646
0.227441
0.228337
0.229259
0.230186
0.23106
0.231903
0.232737
0.233545
0.234306
0.234874
0.235262
0.235498
0.23544
0.235213
0.235024
0.234749
0.234273
0.233808
0.233827
0.234056
0.23461
0.235581
0.236741
0.23771
0.238635
0.239116
0.23943
0.239263
0.239129
0.239376
0.239894
0.240261
0.240877
0.241705
0.242365
0.242689
0.242821
0.243236
0.24342
0.243774
0.244171
0.244678
0.245556
0.246384
0.246835