/*--------------------------------*- C++ -*----------------------------------*\
  =========                 |
  \\      /  F ield         | OpenFOAM: The Open Source CFD Toolbox
   \\    /   O peration     | Website:  https://openfoam.org
    \\  /    A nd           | Version:  7
     \\/     M anipulation  |
\*---------------------------------------------------------------------------*/
FoamFile
{
    version     2.0;
    format      ascii;
    class       volScalarField;
    location    "6";
    object      p;
}
// * * * * * * * * * * * * * * * * * * * * * * * * * * * * * * * * * * * * * //

dimensions      [1 -1 -2 0 0 0 0];

internalField   nonuniform List<scalar> 
90000
(
0.687373
0.696869
0.706447
0.716453
0.726054
0.735046
0.743288
0.751809
0.759766
0.767622
0.775068
0.783044
0.790887
0.800728
0.811827
0.825136
0.838886
0.853776
0.868275
0.883233
0.897449
0.911729
0.925044
0.938302
0.950543
0.962343
0.972904
0.983311
0.991538
0.999533
1.00638
1.01054
1.01395
1.01785
1.01833
1.01801
1.01691
1.01549
1.01317
1.00741
0.998833
0.990154
0.983881
0.981578
0.982444
0.984959
0.98876
0.992657
0.995191
0.996402
0.998553
0.999101
0.998639
0.997284
0.994765
0.992467
0.990136
0.989239
0.989341
0.990039
0.991887
0.992266
0.993796
0.995058
0.99518
0.994539
0.993976
0.992882
0.992513
0.992707
0.992782
0.994031
0.995272
0.996909
0.995704
0.994654
0.993433
0.993146
0.993929
0.99536
0.996116
0.995723
0.994979
0.994823
0.995185
0.995542
0.99526
0.995023
0.995068
0.995483
0.995553
0.995385
0.995231
0.995175
0.995249
0.995376
0.995493
0.995763
0.995776
0.995244
0.680522
0.68109
0.682125
0.68369
0.685939
0.688756
0.691901
0.695658
0.700041
0.704925
0.710214
0.716067
0.722288
0.728949
0.735935
0.743825
0.752236
0.761768
0.771872
0.783004
0.794995
0.80747
0.820956
0.834615
0.84886
0.863596
0.878006
0.892617
0.907269
0.920636
0.934487
0.946441
0.959212
0.968399
0.976467
0.985748
0.991199
0.993423
0.995486
0.999086
1.00496
1.00775
1.00902
1.00781
1.00498
1.00082
0.99626
0.992654
0.990419
0.987744
0.988252
0.989144
0.990814
0.992938
0.995565
0.998535
0.999367
0.998579
0.996433
0.993556
0.990571
0.987503
0.987345
0.988494
0.991632
0.995636
0.998232
0.997177
0.994908
0.992268
0.99071
0.991657
0.994756
0.997756
0.997369
0.995454
0.992624
0.991988
0.99323
0.995953
0.99669
0.995973
0.994595
0.994329
0.994902
0.995752
0.995624
0.995341
0.99525
0.995207
0.995493
0.995604
0.995427
0.995257
0.995209
0.99523
0.995498
0.995834
0.995793
0.995424
0.680615
0.680627
0.680639
0.680653
0.680675
0.680714
0.680776
0.680893
0.681071
0.681334
0.681689
0.682169
0.682941
0.683999
0.685314
0.686933
0.688892
0.691292
0.694132
0.697637
0.701756
0.706891
0.712802
0.720036
0.728279
0.738302
0.749356
0.762426
0.776935
0.792746
0.810626
0.82951
0.848563
0.869759
0.891031
0.909752
0.930836
0.948545
0.96557
0.97963
0.989788
0.994748
0.997913
0.998574
0.999024
0.99919
0.998473
0.996853
0.99344
0.989081
0.986678
0.987953
0.990259
0.993558
0.996458
0.999272
0.999522
0.998483
0.996327
0.992795
0.989392
0.986336
0.986707
0.988577
0.991217
0.994388
0.996356
0.996648
0.995566
0.992998
0.992438
0.992914
0.994305
0.995667
0.996437
0.995906
0.994944
0.993955
0.994127
0.994792
0.995658
0.995738
0.995381
0.994793
0.994757
0.995035
0.995239
0.99532
0.995308
0.995367
0.995616
0.995607
0.995534
0.995375
0.995262
0.995263
0.995381
0.995739
0.995825
0.995577
0.681154
0.68116
0.681159
0.681156
0.681138
0.681113
0.681091
0.681087
0.6811
0.681131
0.681178
0.681286
0.681299
0.681317
0.681334
0.681338
0.681348
0.681393
0.681483
0.681628
0.681827
0.68212
0.682524
0.683307
0.684411
0.685943
0.688007
0.690824
0.6945
0.699691
0.705876
0.71461
0.724923
0.738069
0.753558
0.77289
0.793178
0.817069
0.842954
0.868407
0.893935
0.914836
0.937032
0.950656
0.964371
0.971428
0.978954
0.982047
0.983522
0.985952
0.991262
0.99491
0.99749
0.998522
0.998417
0.997995
0.996979
0.99482
0.99332
0.991572
0.991327
0.991662
0.991892
0.99215
0.991819
0.991458
0.9917
0.992562
0.993757
0.996077
0.996955
0.996171
0.994732
0.993219
0.993851
0.994844
0.99651
0.996078
0.995078
0.993938
0.994232
0.995023
0.995686
0.995198
0.99455
0.994603
0.995079
0.9956
0.995597
0.995376
0.99545
0.99559
0.995662
0.995551
0.995351
0.995232
0.995346
0.9957
0.99586
0.995727
0.681625
0.681632
0.681641
0.68165
0.681654
0.681653
0.681652
0.681636
0.681613
0.681596
0.681586
0.681584
0.68159
0.681573
0.681555
0.681519
0.681473
0.681441
0.681435
0.681463
0.681514
0.681564
0.681672
0.68164
0.681633
0.681637
0.681644
0.681677
0.681778
0.681961
0.682338
0.683039
0.684134
0.68596
0.688574
0.692843
0.698553
0.707432
0.71849
0.734819
0.75351
0.778702
0.805612
0.836424
0.867184
0.895412
0.92382
0.944602
0.966099
0.978158
0.985816
0.98818
0.991027
0.991935
0.992002
0.990371
0.986537
0.986264
0.987754
0.991163
0.994668
0.99716
0.997185
0.995541
0.99271
0.989445
0.988864
0.989613
0.991757
0.994524
0.997057
0.997049
0.995781
0.99403
0.993247
0.994051
0.995345
0.996459
0.996246
0.995162
0.994121
0.994373
0.994977
0.99533
0.994976
0.994636
0.99492
0.99541
0.995802
0.995618
0.995522
0.995669
0.995765
0.995676
0.995434
0.995297
0.995338
0.995546
0.995783
0.995748
0.681913
0.681929
0.681945
0.681959
0.681972
0.68198
0.681977
0.681968
0.681959
0.681956
0.681955
0.68195
0.681944
0.681937
0.681936
0.681926
0.6819
0.681873
0.681855
0.681841
0.681825
0.681801
0.681753
0.681669
0.681587
0.681524
0.681494
0.681474
0.681442
0.681437
0.681381
0.68128
0.68118
0.681141
0.681139
0.681204
0.681364
0.681827
0.682769
0.684643
0.687668
0.693193
0.700999
0.714225
0.730712
0.755238
0.782394
0.815583
0.850185
0.881473
0.912501
0.931085
0.951161
0.95884
0.968702
0.972062
0.977893
0.984249
0.992099
0.996943
0.998733
0.998498
0.997382
0.994475
0.991927
0.990357
0.990041
0.991301
0.993754
0.994291
0.994539
0.994344
0.993902
0.99426
0.995104
0.995665
0.99552
0.99549
0.995274
0.995076
0.994837
0.994506
0.994499
0.994691
0.995068
0.994965
0.99491
0.995085
0.995413
0.995699
0.99565
0.995606
0.995747
0.995758
0.995614
0.995439
0.995381
0.995518
0.995762
0.995828
0.68219
0.682205
0.68222
0.682234
0.682245
0.682256
0.682262
0.682258
0.682254
0.682268
0.682269
0.682239
0.682212
0.682203
0.682206
0.682197
0.682164
0.682142
0.682127
0.682111
0.682086
0.682049
0.681997
0.681929
0.681846
0.681758
0.681681
0.681602
0.681504
0.681392
0.68127
0.681143
0.681015
0.680911
0.680829
0.68073
0.68072
0.680672
0.680623
0.680623
0.680684
0.68087
0.681289
0.682242
0.684012
0.687799
0.693817
0.705375
0.720828
0.746085
0.774832
0.811789
0.849054
0.884248
0.918804
0.942957
0.969295
0.979912
0.988148
0.992102
0.994899
0.992841
0.987393
0.98538
0.987013
0.990957
0.99486
0.996381
0.996305
0.99471
0.991379
0.990853
0.991616
0.99402
0.995981
0.99638
0.99603
0.99515
0.994479
0.994757
0.995237
0.995044
0.994405
0.994333
0.994583
0.995273
0.995315
0.995165
0.995173
0.995452
0.995965
0.995847
0.995719
0.99575
0.995764
0.995626
0.995437
0.995482
0.995675
0.995744
0.682387
0.682384
0.682385
0.68239
0.682396
0.682403
0.682413
0.682421
0.682424
0.682426
0.682441
0.682443
0.682418
0.682387
0.682365
0.682328
0.682293
0.682278
0.682262
0.682232
0.682182
0.682129
0.682082
0.682031
0.681961
0.681886
0.681811
0.681722
0.68162
0.681525
0.681424
0.681303
0.681179
0.681065
0.680947
0.680818
0.680692
0.68056
0.68039
0.680289
0.680253
0.68026
0.680268
0.680281
0.680314
0.680408
0.680672
0.681322
0.682679
0.685962
0.691768
0.704031
0.721018
0.749694
0.781677
0.821974
0.861777
0.89494
0.927727
0.942402
0.960899
0.966613
0.975662
0.984264
0.993408
0.998726
0.999369
0.998695
0.994625
0.990383
0.98942
0.99012
0.992645
0.996129
0.996354
0.99582
0.994651
0.993964
0.994226
0.995039
0.995508
0.995042
0.994484
0.994276
0.994499
0.994962
0.99538
0.995207
0.995071
0.995326
0.995701
0.996051
0.995864
0.995804
0.995862
0.995823
0.995588
0.995536
0.9956
0.995759
0.682381
0.682381
0.682382
0.682383
0.682384
0.682386
0.682388
0.682389
0.68239
0.68239
0.682389
0.682401
0.682423
0.682419
0.682395
0.682331
0.68228
0.682259
0.682236
0.682188
0.682109
0.682064
0.682043
0.682009
0.681954
0.681889
0.681815
0.681717
0.681607
0.681513
0.681423
0.681328
0.681231
0.681136
0.68103
0.680905
0.68077
0.680627
0.680449
0.680264
0.680184
0.680142
0.680075
0.680017
0.680022
0.680073
0.680144
0.680215
0.68028
0.680372
0.680537
0.681103
0.682544
0.686551
0.693958
0.709969
0.73162
0.767191
0.806199
0.850635
0.894477
0.9286
0.964837
0.978922
0.989048
0.993977
0.994764
0.990132
0.985101
0.986817
0.990848
0.994293
0.995949
0.996167
0.99525
0.992716
0.992812
0.993614
0.995
0.995599
0.995317
0.994792
0.994553
0.994714
0.994941
0.994881
0.994922
0.994944
0.995137
0.995394
0.995514
0.995726
0.995949
0.995931
0.995966
0.995926
0.995752
0.995603
0.995543
0.995676
0.682283
0.682277
0.682273
0.682272
0.682274
0.68227
0.68226
0.682255
0.68225
0.682246
0.682243
0.682246
0.682269
0.682267
0.682234
0.682191
0.682178
0.682168
0.682147
0.682108
0.682066
0.682037
0.682003
0.681946
0.6819
0.681865
0.681824
0.681758
0.681666
0.681547
0.681409
0.681294
0.681188
0.681088
0.68099
0.680893
0.6808
0.680704
0.680582
0.680442
0.680341
0.680287
0.680231
0.680145
0.6801
0.680089
0.680099
0.680139
0.680227
0.680343
0.680451
0.680404
0.680264
0.680239
0.680404
0.681374
0.683918
0.690822
0.702795
0.727337
0.757967
0.802407
0.847741
0.888196
0.926802
0.944325
0.962946
0.96942
0.984165
0.992506
0.998526
0.998437
0.997554
0.993624
0.990104
0.990406
0.992201
0.995238
0.995741
0.995245
0.993984
0.994097
0.994762
0.995571
0.995389
0.994974
0.994523
0.994697
0.995222
0.995505
0.995415
0.995452
0.995715
0.996054
0.996084
0.996043
0.995932
0.995714
0.995561
0.995644
0.681551
0.68153
0.681526
0.681524
0.681516
0.681493
0.681476
0.681471
0.68146
0.681444
0.681437
0.681439
0.681439
0.681417
0.681401
0.6814
0.68141
0.68142
0.681417
0.681405
0.681398
0.681391
0.681371
0.681331
0.681318
0.681312
0.681299
0.681266
0.681225
0.681201
0.681184
0.681141
0.681071
0.680993
0.680923
0.680859
0.680798
0.680739
0.68067
0.680571
0.680454
0.680359
0.680278
0.680237
0.680221
0.680231
0.680266
0.680339
0.680452
0.680572
0.680656
0.680665
0.680629
0.680572
0.680559
0.680425
0.680398
0.680564
0.68131
0.683868
0.689528
0.703581
0.724866
0.763227
0.807536
0.857509
0.907462
0.945058
0.97782
0.98703
0.994983
0.993873
0.988724
0.985215
0.987598
0.992193
0.996059
0.996289
0.99533
0.992552
0.992705
0.994151
0.995967
0.995909
0.995444
0.994591
0.994312
0.994786
0.995356
0.995338
0.995232
0.995278
0.995613
0.996044
0.996121
0.996116
0.996061
0.995846
0.99561
0.995646
0.68098
0.680969
0.680961
0.680954
0.680934
0.680891
0.680877
0.680871
0.68086
0.680836
0.680823
0.680815
0.680805
0.680798
0.680793
0.680793
0.680804
0.680816
0.680833
0.680844
0.680841
0.680837
0.680836
0.680834
0.680836
0.680845
0.680846
0.680839
0.68084
0.680855
0.680881
0.680904
0.680913
0.680913
0.680907
0.680875
0.680847
0.680827
0.680798
0.680737
0.680627
0.680492
0.680389
0.680367
0.680385
0.68044
0.68053
0.680654
0.680806
0.68095
0.681048
0.681109
0.681134
0.6811
0.681023
0.680929
0.680824
0.680801
0.680755
0.680769
0.680945
0.681819
0.684302
0.69152
0.705007
0.733962
0.771737
0.822667
0.876032
0.9106
0.950614
0.959206
0.972213
0.982018
0.994819
0.998012
0.997562
0.994382
0.990327
0.990673
0.993055
0.99637
0.996468
0.995701
0.994355
0.994275
0.99481
0.995439
0.995378
0.994938
0.994951
0.995274
0.995741
0.996106
0.996149
0.996178
0.996149
0.99595
0.995676
0.995682
0.680447
0.680433
0.680419
0.680404
0.680378
0.68034
0.680319
0.680319
0.680322
0.680317
0.680303
0.680292
0.680291
0.680291
0.680289
0.680295
0.680303
0.680303
0.680313
0.680332
0.680331
0.680328
0.680333
0.680349
0.680372
0.680389
0.680403
0.680428
0.680459
0.680492
0.680542
0.680617
0.680704
0.680744
0.680751
0.68076
0.680803
0.680864
0.680874
0.680846
0.680755
0.68061
0.680462
0.680377
0.680387
0.680453
0.680567
0.680718
0.680899
0.681075
0.681217
0.681328
0.681429
0.681537
0.681594
0.681584
0.681533
0.681436
0.681246
0.681021
0.680973
0.681006
0.681149
0.681534
0.682565
0.686101
0.693814
0.71467
0.745028
0.796521
0.853431
0.903741
0.958277
0.976289
0.989815
0.99337
0.989255
0.983395
0.986346
0.992381
0.997265
0.997177
0.995869
0.99306
0.993372
0.994762
0.995889
0.995702
0.994824
0.994539
0.99483
0.995473
0.995678
0.995901
0.996152
0.996234
0.996173
0.995986
0.995768
0.995813
0.680244
0.680225
0.680203
0.680178
0.680152
0.68013
0.680118
0.680108
0.680097
0.680086
0.680075
0.680062
0.680049
0.680035
0.680018
0.68
0.679989
0.679984
0.679978
0.679965
0.679949
0.679944
0.679948
0.679956
0.679959
0.679965
0.679982
0.680018
0.680069
0.680135
0.680214
0.680293
0.680366
0.680441
0.68053
0.680641
0.680756
0.68087
0.680939
0.68093
0.680874
0.680799
0.680714
0.680609
0.680522
0.680527
0.680591
0.680705
0.680837
0.680964
0.681083
0.681201
0.681316
0.681455
0.681693
0.681856
0.681861
0.681839
0.681729
0.681464
0.68122
0.681119
0.681099
0.68119
0.681353
0.681513
0.681874
0.683442
0.687925
0.702685
0.727315
0.775995
0.831353
0.882384
0.931947
0.950068
0.966085
0.97741
0.994445
0.998369
0.997909
0.99443
0.990799
0.991545
0.994607
0.996612
0.996316
0.994867
0.994162
0.994491
0.995256
0.99579
0.995593
0.995664
0.996039
0.996213
0.996085
0.99595
0.995934
0.995978
0.680328
0.680313
0.680291
0.680271
0.680255
0.680238
0.680216
0.68019
0.680163
0.68014
0.680116
0.680089
0.68006
0.680028
0.679993
0.67996
0.679927
0.679897
0.679869
0.679837
0.679812
0.679804
0.679807
0.67982
0.679822
0.679821
0.679832
0.679874
0.679944
0.680025
0.680116
0.680218
0.68032
0.680413
0.680502
0.680598
0.680702
0.680805
0.680893
0.680936
0.680956
0.680982
0.680995
0.680984
0.680946
0.680888
0.680879
0.680884
0.680875
0.680866
0.68089
0.680945
0.681039
0.681207
0.681481
0.681752
0.681828
0.681826
0.681786
0.681621
0.68134
0.681157
0.681105
0.68114
0.681202
0.681369
0.681468
0.681411
0.681423
0.682176
0.68502
0.696012
0.716454
0.762249
0.817376
0.875645
0.940859
0.970344
0.98864
0.993368
0.988505
0.983314
0.987007
0.993917
0.99775
0.996807
0.994442
0.993611
0.994074
0.995417
0.995555
0.995407
0.995337
0.995628
0.995946
0.996018
0.995914
0.995949
0.996179
0.996162
0.680881
0.680886
0.680889
0.680892
0.680896
0.680897
0.680893
0.680878
0.680852
0.68082
0.680789
0.68076
0.680716
0.680669
0.680623
0.680576
0.680519
0.680441
0.680357
0.680276
0.680193
0.680117
0.680062
0.680021
0.679982
0.67995
0.679949
0.679977
0.68001
0.680042
0.680094
0.680169
0.680247
0.680318
0.680393
0.680476
0.680558
0.680637
0.680713
0.680799
0.680902
0.681018
0.681136
0.681225
0.681248
0.681251
0.681235
0.681186
0.681096
0.680929
0.680732
0.680687
0.680727
0.680838
0.681067
0.681419
0.681585
0.681592
0.681562
0.681464
0.68128
0.681057
0.680932
0.680922
0.681017
0.681287
0.681511
0.681546
0.681511
0.681301
0.68124
0.681726
0.683806
0.692465
0.710185
0.752537
0.806771
0.865776
0.921744
0.94575
0.964367
0.977649
0.996092
0.998713
0.997104
0.991853
0.991925
0.993263
0.995818
0.996537
0.995789
0.994823
0.995125
0.995728
0.995891
0.995673
0.99571
0.996054
0.996362
0.996283
0.681291
0.681321
0.681346
0.681369
0.681388
0.681398
0.681405
0.681415
0.681419
0.681416
0.681411
0.681403
0.681388
0.681361
0.681331
0.681287
0.681229
0.681167
0.68111
0.681035
0.68092
0.680786
0.680675
0.680585
0.680501
0.680426
0.680366
0.680312
0.680246
0.680214
0.680244
0.680306
0.680317
0.680335
0.680386
0.680454
0.680516
0.68058
0.680665
0.680782
0.680917
0.681043
0.681161
0.681317
0.681472
0.681518
0.681532
0.681532
0.681475
0.681256
0.680898
0.680632
0.680557
0.680574
0.680698
0.680959
0.681195
0.681271
0.681266
0.681239
0.681155
0.680977
0.680757
0.680692
0.680769
0.681038
0.6814
0.681572
0.681555
0.681445
0.681293
0.681194
0.681245
0.681712
0.68346
0.690691
0.706671
0.748144
0.802827
0.86626
0.938128
0.97008
0.991067
0.992847
0.983519
0.984668
0.989877
0.996072
0.997103
0.996177
0.994179
0.994424
0.995648
0.99578
0.995509
0.995299
0.995626
0.996237
0.996401
0.996283
0.681319
0.681355
0.681395
0.681434
0.681471
0.681509
0.681547
0.681585
0.681626
0.681665
0.681691
0.681704
0.681712
0.681714
0.681711
0.681711
0.681716
0.681715
0.681703
0.681644
0.681564
0.681505
0.681445
0.681373
0.681289
0.681208
0.681136
0.681056
0.680958
0.680904
0.680904
0.680896
0.680844
0.680815
0.680825
0.680808
0.680779
0.680778
0.680801
0.680856
0.680938
0.681025
0.681137
0.68131
0.681539
0.681678
0.681702
0.681711
0.681698
0.681563
0.681201
0.680752
0.6805
0.680477
0.680535
0.680681
0.680858
0.680981
0.680988
0.681008
0.681059
0.681047
0.680876
0.680636
0.680618
0.680808
0.681199
0.681417
0.681413
0.681363
0.68128
0.681181
0.681168
0.681249
0.681439
0.681894
0.683293
0.689796
0.705442
0.74657
0.802754
0.866126
0.924611
0.948907
0.965156
0.984816
0.99743
0.997614
0.995506
0.992303
0.993339
0.996163
0.996512
0.995774
0.994656
0.994951
0.995891
0.996331
0.996256
0.996211
0.681212
0.681262
0.681314
0.681372
0.681436
0.681504
0.681573
0.681639
0.681695
0.681739
0.681777
0.681818
0.681863
0.681912
0.681964
0.682016
0.682064
0.6821
0.682111
0.68211
0.68211
0.682116
0.682111
0.682079
0.682019
0.681953
0.681879
0.681807
0.681749
0.681699
0.681641
0.681551
0.681426
0.681312
0.681232
0.681156
0.681056
0.680967
0.680928
0.680916
0.68094
0.681046
0.681179
0.681339
0.681551
0.681784
0.681869
0.681874
0.681867
0.681793
0.681532
0.681122
0.68073
0.680527
0.680524
0.680592
0.680741
0.680861
0.680874
0.680882
0.681041
0.681139
0.681107
0.68088
0.68077
0.68084
0.681026
0.681153
0.6812
0.681199
0.681176
0.681124
0.68111
0.681148
0.681349
0.681561
0.681653
0.681913
0.683208
0.689589
0.70607
0.749385
0.80781
0.878086
0.948262
0.978114
0.993186
0.990456
0.982893
0.987461
0.995055
0.997266
0.99635
0.993828
0.994125
0.995586
0.99619
0.996066
0.9959
0.996167
0.681057
0.681113
0.681166
0.681218
0.681276
0.681333
0.681391
0.681454
0.681522
0.68159
0.681646
0.6817
0.681758
0.681818
0.681875
0.68193
0.681977
0.682011
0.68204
0.682083
0.682144
0.682207
0.682241
0.682241
0.682219
0.682168
0.682091
0.682039
0.68202
0.681997
0.68196
0.681889
0.681785
0.681659
0.681521
0.681388
0.681259
0.681136
0.681014
0.680886
0.680804
0.680779
0.680783
0.680829
0.680954
0.681192
0.681583
0.681852
0.681879
0.681853
0.681727
0.681509
0.681269
0.681052
0.680946
0.680938
0.680931
0.680951
0.680981
0.680992
0.681136
0.681265
0.681242
0.6811
0.681022
0.681019
0.681004
0.680982
0.680989
0.681032
0.681078
0.681097
0.681126
0.681185
0.6813
0.681479
0.681618
0.681623
0.681623
0.68186
0.683297
0.690084
0.70896
0.75461
0.819588
0.884979
0.934699
0.958327
0.974103
0.996337
0.998055
0.996349
0.991965
0.992687
0.995417
0.99669
0.99618
0.995379
0.995584
0.996254
0.680957
0.680963
0.680975
0.680991
0.681013
0.681041
0.681073
0.6811
0.681132
0.681174
0.681225
0.681281
0.681332
0.681378
0.681434
0.681501
0.681572
0.681638
0.6817
0.681762
0.681837
0.681942
0.682021
0.682016
0.681996
0.68199
0.681992
0.682019
0.682041
0.682024
0.681971
0.681907
0.681838
0.681754
0.681653
0.681542
0.681434
0.68132
0.681178
0.680978
0.680693
0.680512
0.680479
0.680473
0.680489
0.680631
0.681042
0.681572
0.681804
0.681812
0.681762
0.681658
0.681605
0.681533
0.681447
0.681429
0.681362
0.681196
0.68113
0.681157
0.681306
0.681376
0.681342
0.681304
0.681306
0.681266
0.681101
0.680989
0.680999
0.681065
0.681142
0.681166
0.681202
0.68127
0.681345
0.681403
0.68145
0.68143
0.681377
0.681331
0.68137
0.681703
0.683568
0.69147
0.715326
0.766246
0.832779
0.914541
0.963381
0.991712
0.9916
0.982055
0.986167
0.994197
0.997307
0.996449
0.994623
0.994815
0.99584
0.996329
0.681049
0.681038
0.681028
0.681027
0.681028
0.68102
0.680993
0.680938
0.680903
0.680916
0.680937
0.680949
0.680959
0.680975
0.680997
0.681008
0.681022
0.681057
0.681111
0.681168
0.68126
0.681433
0.681593
0.68161
0.681552
0.681497
0.681486
0.681496
0.681511
0.681524
0.681537
0.68156
0.681586
0.681588
0.681599
0.681609
0.681606
0.681584
0.681488
0.681262
0.680878
0.680417
0.680222
0.680204
0.680218
0.680363
0.680792
0.681374
0.681706
0.681746
0.681705
0.681636
0.681665
0.681658
0.681547
0.681508
0.681509
0.68141
0.681312
0.681314
0.681315
0.681277
0.681252
0.681307
0.681488
0.681563
0.681481
0.68133
0.681303
0.681322
0.681348
0.681334
0.681325
0.681346
0.681352
0.681328
0.681275
0.681217
0.68119
0.681167
0.68116
0.681193
0.681296
0.68173
0.684352
0.693779
0.724794
0.779918
0.851535
0.918392
0.948706
0.966077
0.992627
0.997769
0.996477
0.992406
0.993543
0.995632
0.996479
0.99621
0.681107
0.681104
0.681094
0.681076
0.681053
0.681029
0.680999
0.680932
0.680835
0.680838
0.680921
0.680964
0.680963
0.680967
0.680971
0.680968
0.680957
0.680956
0.680971
0.68093
0.680849
0.680803
0.680816
0.680776
0.680709
0.680697
0.680742
0.680846
0.680952
0.681117
0.681238
0.681281
0.681346
0.681557
0.681891
0.681951
0.681945
0.68192
0.681867
0.681745
0.681483
0.681071
0.680825
0.680789
0.680795
0.680891
0.681235
0.681577
0.681656
0.681622
0.681509
0.681484
0.681548
0.681542
0.681412
0.681357
0.681406
0.681531
0.681537
0.681349
0.681124
0.681035
0.681048
0.681206
0.681548
0.681813
0.681821
0.681702
0.68159
0.681533
0.681505
0.681492
0.681456
0.681418
0.681379
0.681305
0.681172
0.6811
0.681087
0.681111
0.681201
0.681339
0.681468
0.68147
0.681513
0.681965
0.685527
0.698596
0.738402
0.799849
0.881307
0.952334
0.984837
0.993387
0.982266
0.98596
0.992466
0.996488
0.996169
0.995476
0.681103
0.681077
0.681082
0.68112
0.681202
0.681272
0.681304
0.681314
0.681327
0.681423
0.681543
0.68157
0.681568
0.681529
0.681396
0.681307
0.681261
0.681175
0.681031
0.680878
0.680701
0.680481
0.680364
0.680312
0.680297
0.680319
0.680419
0.680603
0.680786
0.680954
0.681129
0.681308
0.681541
0.681994
0.682365
0.682407
0.682415
0.682373
0.682201
0.682009
0.681768
0.681443
0.681288
0.681256
0.681239
0.681232
0.681371
0.681682
0.681721
0.681592
0.681375
0.681344
0.681381
0.681326
0.681106
0.681024
0.681112
0.681428
0.681682
0.681654
0.681423
0.681156
0.681094
0.681215
0.681508
0.681769
0.681862
0.681816
0.681703
0.681597
0.681484
0.681413
0.681395
0.681406
0.681433
0.681413
0.681305
0.681203
0.681204
0.681252
0.681371
0.681468
0.681482
0.681469
0.681299
0.681017
0.68109
0.682088
0.687678
0.707572
0.756066
0.83042
0.897592
0.944021
0.963291
0.990506
0.996852
0.996054
0.992979
0.994717
0.68096
0.680982
0.681018
0.681075
0.681154
0.681251
0.681375
0.681525
0.681767
0.682112
0.68223
0.682251
0.682255
0.682233
0.68219
0.682078
0.681897
0.681856
0.681886
0.681861
0.681735
0.681462
0.681131
0.681027
0.681024
0.681028
0.681023
0.681097
0.681244
0.681315
0.681416
0.68159
0.68192
0.682311
0.682396
0.682403
0.682361
0.682086
0.68183
0.681805
0.681709
0.68147
0.681402
0.681433
0.681454
0.681403
0.681343
0.681527
0.681872
0.681919
0.681697
0.681374
0.681284
0.681153
0.68093
0.680874
0.68098
0.681359
0.681815
0.682024
0.681956
0.681769
0.681601
0.681571
0.681631
0.68169
0.681742
0.681701
0.681626
0.681533
0.681336
0.681168
0.681159
0.681206
0.681316
0.681425
0.68146
0.681453
0.681466
0.681508
0.681539
0.681525
0.681525
0.681388
0.681081
0.680838
0.680794
0.68084
0.681133
0.68321
0.692231
0.722835
0.781147
0.861029
0.942413
0.982249
0.993184
0.982012
0.986322
0.993792
0.680065
0.680119
0.68019
0.680269
0.680363
0.680467
0.680603
0.680809
0.68112
0.681472
0.681651
0.681686
0.681684
0.681672
0.681655
0.681608
0.681493
0.681459
0.681486
0.681474
0.681377
0.681164
0.680914
0.680839
0.680815
0.6808
0.680801
0.680889
0.681079
0.681085
0.680975
0.681012
0.681172
0.681199
0.681083
0.680824
0.680802
0.680833
0.680738
0.680648
0.680641
0.680715
0.680917
0.681091
0.681107
0.680971
0.680723
0.680829
0.681404
0.682106
0.68229
0.682124
0.681749
0.681369
0.681063
0.680946
0.681073
0.681446
0.681801
0.682033
0.68212
0.682104
0.682067
0.68199
0.681781
0.681522
0.68142
0.681336
0.681306
0.681321
0.681265
0.681152
0.681157
0.68123
0.681432
0.681637
0.681723
0.681736
0.681696
0.681625
0.681596
0.681559
0.681422
0.681204
0.681058
0.680877
0.68084
0.680937
0.68123
0.681467
0.682102
0.685801
0.70044
0.74237
0.815301
0.887486
0.940654
0.962429
0.990995
0.996598
0.676252
0.676225
0.676209
0.676203
0.676204
0.676239
0.676368
0.67658
0.676879
0.677216
0.677517
0.6778
0.678081
0.678349
0.678695
0.679201
0.679517
0.67958
0.679564
0.679526
0.679469
0.679322
0.679121
0.679073
0.679026
0.67886
0.678703
0.678705
0.678724
0.678554
0.678319
0.67836
0.678637
0.678869
0.678999
0.679237
0.679948
0.68038
0.6804
0.68026
0.67979
0.679435
0.679384
0.679412
0.679494
0.679625
0.679828
0.680284
0.681177
0.682012
0.682347
0.682317
0.682143
0.68189
0.681525
0.681204
0.681241
0.681466
0.681651
0.681805
0.681961
0.681993
0.682011
0.68199
0.681638
0.681078
0.680886
0.680903
0.681002
0.681213
0.681364
0.681472
0.681569
0.681667
0.681786
0.681822
0.681827
0.681808
0.681738
0.681532
0.681262
0.681154
0.681093
0.681117
0.681094
0.681085
0.681151
0.68129
0.681477
0.68157
0.681547
0.681655
0.682839
0.689462
0.715224
0.770869
0.852494
0.939456
0.981417
0.991857
0.672841
0.672792
0.672746
0.672736
0.672743
0.672773
0.672846
0.673002
0.673256
0.673549
0.673853
0.674146
0.674472
0.674883
0.675443
0.676206
0.676715
0.676922
0.677031
0.677095
0.677147
0.677187
0.677165
0.677131
0.677166
0.677113
0.676892
0.676821
0.676772
0.67661
0.676487
0.676485
0.676585
0.676785
0.677175
0.678424
0.680011
0.680209
0.680201
0.680031
0.679437
0.678456
0.678012
0.677968
0.677951
0.677987
0.678255
0.678921
0.679837
0.680662
0.681346
0.6817
0.681683
0.681541
0.681214
0.680665
0.68034
0.680177
0.680053
0.680005
0.68006
0.680394
0.680885
0.68108
0.681039
0.68081
0.680718
0.680857
0.68127
0.681551
0.681673
0.681816
0.681915
0.681919
0.681907
0.681892
0.681855
0.681769
0.681545
0.681087
0.68085
0.680905
0.681038
0.681302
0.681439
0.681481
0.681565
0.681621
0.681633
0.681529
0.68148
0.681449
0.681494
0.681876
0.68475
0.697424
0.737299
0.811488
0.88314
0.950361
0.674509
0.674273
0.674047
0.673984
0.674017
0.674113
0.674222
0.67452
0.675287
0.675945
0.676003
0.675968
0.676139
0.676746
0.677733
0.678179
0.678143
0.678077
0.678114
0.678085
0.677892
0.677772
0.677718
0.677765
0.678154
0.678466
0.678896
0.679461
0.679484
0.679425
0.679695
0.680089
0.680079
0.679953
0.680062
0.681021
0.682386
0.682609
0.682515
0.682182
0.681507
0.680325
0.679441
0.679165
0.678896
0.678477
0.67811
0.6778
0.677695
0.677691
0.677851
0.678484
0.679023
0.679035
0.678885
0.678577
0.678281
0.678069
0.677949
0.677997
0.678205
0.678568
0.679057
0.679683
0.680187
0.680447
0.680764
0.681232
0.681624
0.681742
0.681756
0.681813
0.68185
0.681822
0.681674
0.681412
0.681204
0.681053
0.680864
0.680643
0.680661
0.680829
0.681296
0.681671
0.681759
0.681761
0.681726
0.68169
0.68152
0.68137
0.68142
0.681443
0.681498
0.681612
0.681755
0.682741
0.688701
0.713512
0.767063
0.885589
0.689093
0.68836
0.687731
0.687196
0.686737
0.686599
0.686684
0.687163
0.687603
0.687666
0.687618
0.687535
0.687442
0.687395
0.68716
0.686588
0.686217
0.685824
0.684924
0.683309
0.682229
0.681871
0.681679
0.681743
0.68191
0.682003
0.682348
0.682868
0.682938
0.682532
0.682439
0.682662
0.682725
0.682809
0.682787
0.682402
0.682179
0.681867
0.681112
0.680085
0.679312
0.679079
0.679153
0.679108
0.678597
0.677756
0.677526
0.677531
0.677452
0.677169
0.677077
0.677226
0.677271
0.677085
0.676918
0.676989
0.677321
0.677812
0.678246
0.678468
0.678455
0.678321
0.678289
0.678464
0.678893
0.679518
0.680325
0.680862
0.68088
0.68065
0.680134
0.67981
0.679771
0.679802
0.679936
0.680024
0.680109
0.680235
0.680446
0.680621
0.681
0.681479
0.681872
0.681902
0.681848
0.681808
0.681733
0.681529
0.681292
0.681313
0.681402
0.681577
0.68176
0.681893
0.681904
0.681839
0.681969
0.684474
0.696082
0.771153
0.704141
0.703987
0.702638
0.699461
0.698575
0.698325
0.698261
0.698488
0.698954
0.700267
0.701367
0.701484
0.700782
0.700259
0.700514
0.700305
0.698919
0.697449
0.695538
0.693371
0.691917
0.691188
0.691195
0.691625
0.692286
0.692484
0.692125
0.6907
0.690066
0.69018
0.690468
0.690361
0.68862
0.686843
0.685521
0.683986
0.683493
0.683462
0.68336
0.682802
0.682084
0.682041
0.682551
0.683142
0.68297
0.681563
0.681036
0.681359
0.6823
0.682418
0.682202
0.681341
0.680217
0.679078
0.678586
0.678552
0.679201
0.68119
0.682848
0.683137
0.68304
0.682596
0.681384
0.679972
0.679389
0.67931
0.679615
0.680023
0.67986
0.679366
0.678715
0.67829
0.678239
0.678295
0.67857
0.678827
0.679027
0.679308
0.679725
0.680602
0.6812
0.681559
0.681826
0.681793
0.681581
0.681365
0.681146
0.681125
0.681186
0.681425
0.681763
0.681995
0.682063
0.682028
0.681982
0.681747
0.681366
0.681349
0.682187
0.705381
0.738231
0.737117
0.73583
0.733657
0.730061
0.727707
0.727428
0.727686
0.728687
0.72921
0.729071
0.728755
0.728635
0.728465
0.727908
0.725855
0.724031
0.723871
0.724623
0.724854
0.723776
0.72191
0.721561
0.722258
0.723466
0.723555
0.722577
0.721282
0.721071
0.721412
0.72281
0.722963
0.721257
0.717197
0.713162
0.710309
0.707952
0.706876
0.70662
0.705879
0.70357
0.702104
0.702683
0.703612
0.702991
0.699312
0.696605
0.69656
0.697672
0.699338
0.699373
0.698119
0.695222
0.691605
0.688018
0.686648
0.686716
0.687077
0.687
0.68639
0.685678
0.684716
0.683253
0.681312
0.679189
0.678661
0.67876
0.678805
0.678732
0.678687
0.67854
0.678324
0.67833
0.678455
0.678877
0.67966
0.68035
0.680679
0.680715
0.680532
0.680547
0.680489
0.680408
0.680115
0.679947
0.680022
0.680305
0.68075
0.681197
0.681785
0.681999
0.682073
0.682044
0.681957
0.681721
0.681477
0.681211
0.681273
0.681384
0.685334
0.785566
0.786063
0.786374
0.786219
0.784238
0.779781
0.778523
0.778629
0.778507
0.777728
0.776386
0.775976
0.775283
0.773348
0.770898
0.768692
0.767881
0.767553
0.766172
0.765098
0.765377
0.765096
0.762976
0.75987
0.757916
0.756229
0.753143
0.751708
0.751269
0.749848
0.747873
0.747145
0.745257
0.74209
0.741622
0.741935
0.741719
0.741061
0.740029
0.737
0.73499
0.734815
0.733974
0.731999
0.728924
0.722947
0.714482
0.710398
0.710512
0.711946
0.711509
0.709883
0.70958
0.709647
0.70879
0.705169
0.700146
0.696196
0.692572
0.689933
0.689265
0.689121
0.689434
0.689273
0.687876
0.684691
0.682447
0.682429
0.682702
0.682728
0.68286
0.683509
0.68342
0.683168
0.683241
0.683329
0.683093
0.682484
0.681665
0.680831
0.680162
0.679865
0.679608
0.679391
0.679347
0.679441
0.679831
0.680356
0.681194
0.681667
0.68185
0.681767
0.681494
0.681254
0.681176
0.68125
0.681406
0.681758
0.681856
0.682387
0.838582
0.836945