/*--------------------------------*- C++ -*----------------------------------*\
  =========                 |
  \\      /  F ield         | OpenFOAM: The Open Source CFD Toolbox
   \\    /   O peration     | Website:  https://openfoam.org
    \\  /    A nd           | Version:  7
     \\/     M anipulation  |
\*---------------------------------------------------------------------------*/
FoamFile
{
    version     2.0;
    format      ascii;
    class       volScalarField;
    location    "6";
    object      rho;
}
// * * * * * * * * * * * * * * * * * * * * * * * * * * * * * * * * * * * * * //

dimensions      [1 -3 0 0 0 0 0];

internalField   nonuniform List<scalar> 
90000
(
1.04374
1.05187
1.06026
1.06929
1.07819
1.08663
1.09452
1.10281
1.11068
1.11853
1.1261
1.13425
1.14219
1.15199
1.16296
1.17601
1.18942
1.20387
1.21791
1.23233
1.24603
1.25972
1.27248
1.28513
1.2968
1.308
1.31803
1.32788
1.33569
1.34328
1.34977
1.35375
1.35703
1.36083
1.36147
1.36125
1.36042
1.35944
1.3575
1.35201
1.34361
1.33556
1.32976
1.32869
1.32985
1.33268
1.33658
1.3405
1.34319
1.34439
1.34652
1.34718
1.34681
1.34566
1.34334
1.34129
1.33906
1.33857
1.33886
1.33969
1.34174
1.34222
1.34383
1.34531
1.34558
1.34513
1.34476
1.34391
1.34385
1.3442
1.34449
1.34587
1.34723
1.34918
1.34814
1.34737
1.34632
1.34638
1.34725
1.34877
1.34985
1.34965
1.34908
1.34921
1.34971
1.35027
1.35016
1.35013
1.35036
1.35095
1.35119
1.3512
1.35123
1.35135
1.35159
1.3519
1.3522
1.35265
1.35284
1.35259
1.03868
1.03926
1.04032
1.04192
1.04421
1.04706
1.05025
1.05406
1.05852
1.06349
1.06888
1.07487
1.08133
1.08833
1.09571
1.10402
1.11288
1.12285
1.13338
1.14491
1.15727
1.17006
1.18382
1.19768
1.21207
1.22685
1.24124
1.25573
1.27016
1.28324
1.29671
1.30818
1.32045
1.32905
1.33651
1.34517
1.34986
1.35124
1.35252
1.3553
1.36034
1.36261
1.36333
1.36209
1.35923
1.35512
1.35077
1.34745
1.3455
1.34303
1.34355
1.34449
1.3462
1.34833
1.35088
1.35387
1.35455
1.35378
1.3517
1.34888
1.34601
1.34302
1.34312
1.3443
1.3474
1.35128
1.35388
1.35286
1.3507
1.34819
1.34682
1.34784
1.3509
1.35397
1.3536
1.35178
1.34902
1.34869
1.34999
1.35258
1.35359
1.35295
1.35163
1.35161
1.35221
1.35319
1.35315
1.35299
1.35304
1.35314
1.35353
1.35376
1.35369
1.35365
1.35372
1.35387
1.35424
1.35471
1.35478
1.35462
1.04036
1.0404
1.04045
1.04051
1.04058
1.04067
1.04078
1.04096
1.0412
1.04153
1.04197
1.04254
1.04344
1.04465
1.04615
1.04797
1.05016
1.05282
1.05595
1.0598
1.0643
1.06988
1.07627
1.08405
1.09289
1.10358
1.11535
1.12917
1.14447
1.16104
1.17966
1.19918
1.2188
1.24038
1.26193
1.28075
1.30174
1.31911
1.33566
1.34918
1.35868
1.36273
1.36503
1.36478
1.36451
1.36398
1.3631
1.36136
1.35786
1.35346
1.35112
1.35236
1.35457
1.35774
1.36045
1.36321
1.36302
1.36183
1.35961
1.35612
1.3528
1.34974
1.35009
1.35189
1.35447
1.35756
1.35949
1.35961
1.35853
1.35608
1.35541
1.35586
1.3572
1.35851
1.35916
1.3586
1.35757
1.35657
1.35674
1.35734
1.3582
1.35823
1.35784
1.35727
1.35722
1.35749
1.35768
1.35778
1.35777
1.35785
1.35812
1.35813
1.35806
1.35793
1.35783
1.35787
1.358
1.35838
1.3585
1.3583
1.04331
1.04334
1.04337
1.0434
1.04341
1.04342
1.04343
1.04347
1.04353
1.04361
1.04371
1.04389
1.04395
1.04403
1.04411
1.04418
1.04426
1.04437
1.04454
1.04477
1.04505
1.04545
1.04596
1.0469
1.04819
1.04994
1.05226
1.05539
1.05944
1.06511
1.07183
1.08126
1.09236
1.10643
1.12294
1.14337
1.16479
1.18976
1.2167
1.24299
1.2693
1.29062
1.31305
1.32653
1.34002
1.34658
1.35359
1.35609
1.35689
1.35874
1.36341
1.36651
1.36873
1.36936
1.36906
1.36856
1.36753
1.36533
1.36401
1.36245
1.36212
1.3624
1.36251
1.36261
1.3622
1.36178
1.36197
1.36271
1.36378
1.36596
1.36664
1.3658
1.3643
1.36265
1.36319
1.36408
1.36556
1.36505
1.36398
1.36273
1.36295
1.36363
1.36414
1.36359
1.36285
1.36284
1.36321
1.36366
1.36355
1.36325
1.36327
1.36334
1.36331
1.36313
1.36287
1.36268
1.36274
1.36302
1.36311
1.3629
1.04611
1.04613
1.04617
1.0462
1.04622
1.04624
1.04627
1.04628
1.04628
1.04628
1.0463
1.04632
1.04635
1.04636
1.04636
1.04635
1.04634
1.04634
1.04637
1.04644
1.04653
1.04663
1.04681
1.04682
1.04686
1.04692
1.04698
1.04707
1.04722
1.04747
1.04794
1.04875
1.04999
1.05203
1.05491
1.05957
1.06578
1.07537
1.08728
1.10471
1.12463
1.15122
1.17955
1.21159
1.24346
1.27235
1.30121
1.32205
1.34344
1.35516
1.36254
1.36452
1.36707
1.36769
1.36752
1.36584
1.36213
1.36175
1.3632
1.36657
1.36996
1.3724
1.37212
1.37032
1.36734
1.36424
1.36343
1.3641
1.36613
1.36876
1.37116
1.37095
1.36961
1.36784
1.36698
1.36774
1.36892
1.36987
1.36961
1.36846
1.36732
1.36752
1.36803
1.36824
1.36784
1.36737
1.3676
1.36799
1.36822
1.36795
1.36775
1.36781
1.36777
1.36757
1.36724
1.36699
1.36694
1.36704
1.36718
1.36699
1.04793
1.04796
1.04799
1.04801
1.04804
1.04806
1.04807
1.04807
1.04807
1.04808
1.04809
1.0481
1.0481
1.04811
1.04812
1.04812
1.04811
1.04809
1.04809
1.04809
1.04809
1.04807
1.04804
1.04796
1.04788
1.04783
1.04781
1.04781
1.04779
1.04781
1.04777
1.04769
1.0476
1.0476
1.04763
1.04772
1.04792
1.04844
1.04949
1.05154
1.05483
1.06082
1.06925
1.08342
1.10104
1.12698
1.15563
1.19023
1.22618
1.25835
1.29013
1.30905
1.32933
1.3371
1.347
1.35029
1.35593
1.36206
1.36945
1.37398
1.37549
1.37523
1.37408
1.37119
1.36858
1.36699
1.36651
1.36767
1.37004
1.37048
1.37068
1.37046
1.36996
1.37029
1.37108
1.37152
1.37132
1.3712
1.37093
1.37071
1.37043
1.37005
1.37
1.37013
1.37042
1.37028
1.37015
1.37025
1.37048
1.37067
1.37055
1.37042
1.37047
1.3704
1.37018
1.36992
1.36977
1.36984
1.37001
1.36992
1.04895
1.04897
1.04899
1.04901
1.04903
1.04904
1.04906
1.04906
1.04906
1.04908
1.04908
1.04905
1.04903
1.04903
1.04903
1.04903
1.049
1.04898
1.04897
1.04895
1.04893
1.0489
1.04884
1.04877
1.04869
1.04859
1.04851
1.04842
1.04832
1.0482
1.04807
1.04793
1.04779
1.04769
1.04761
1.04751
1.04751
1.04748
1.04744
1.04745
1.04752
1.04774
1.0482
1.04925
1.05117
1.05527
1.06177
1.07417
1.0907
1.11747
1.14782
1.18635
1.22499
1.26099
1.29608
1.32035
1.34648
1.35699
1.36513
1.36898
1.3717
1.36973
1.36442
1.36265
1.36424
1.36803
1.37185
1.37329
1.37319
1.37158
1.36828
1.36777
1.36851
1.37083
1.37277
1.373
1.37264
1.37177
1.37105
1.37129
1.37171
1.37149
1.37085
1.37073
1.37095
1.37162
1.37157
1.37139
1.37137
1.37161
1.37205
1.37191
1.37174
1.37173
1.3717
1.37153
1.37127
1.37129
1.37144
1.37141
1.04942
1.04942
1.04942
1.04943
1.04944
1.04945
1.04946
1.04947
1.04948
1.04948
1.0495
1.0495
1.04948
1.04945
1.04943
1.04939
1.04935
1.04934
1.04932
1.04929
1.04923
1.04917
1.04912
1.04907
1.04899
1.04891
1.04883
1.04873
1.04862
1.04852
1.0484
1.04827
1.04813
1.04801
1.04788
1.04774
1.04761
1.04747
1.04729
1.0472
1.04717
1.04719
1.0472
1.04721
1.04725
1.04735
1.04764
1.04836
1.04984
1.0534
1.05967
1.07283
1.09099
1.12129
1.15495
1.19671
1.2377
1.27138
1.30453
1.31931
1.33786
1.34365
1.35266
1.36114
1.37015
1.37542
1.37618
1.37549
1.37143
1.36725
1.36634
1.36702
1.36949
1.37289
1.37315
1.3726
1.37144
1.37076
1.371
1.37177
1.37218
1.37171
1.37116
1.37093
1.37114
1.37159
1.37198
1.3718
1.37165
1.3719
1.37225
1.37257
1.37238
1.37231
1.37235
1.3723
1.37205
1.37198
1.37203
1.37215
1.0495
1.04951
1.04951
1.04951
1.04951
1.04952
1.04952
1.04952
1.04952
1.04952
1.04952
1.04954
1.04956
1.04956
1.04953
1.04946
1.0494
1.04938
1.04936
1.04931
1.04922
1.04917
1.04915
1.04911
1.04905
1.04898
1.04891
1.04881
1.04869
1.04859
1.04849
1.04839
1.04828
1.04818
1.04806
1.04793
1.04778
1.04763
1.04744
1.04724
1.04716
1.04712
1.04704
1.04698
1.04699
1.04705
1.04714
1.04723
1.04731
1.04741
1.04759
1.04822
1.0498
1.05416
1.06217
1.07932
1.10242
1.13988
1.18067
1.2264
1.2711
1.30537
1.34141
1.35519
1.36531
1.37006
1.37117
1.36666
1.36176
1.36347
1.36748
1.37091
1.37256
1.37276
1.37186
1.3694
1.3695
1.3703
1.37166
1.3723
1.37202
1.37149
1.37126
1.37141
1.37164
1.37159
1.37164
1.37167
1.37186
1.37212
1.37224
1.37243
1.37266
1.37264
1.37268
1.37264
1.37246
1.37231
1.37225
1.37238
1.04947
1.04947
1.04947
1.04947
1.04947
1.04947
1.04946
1.04945
1.04944
1.04944
1.04944
1.04944
1.04946
1.04946
1.04942
1.04938
1.04937
1.04936
1.04934
1.0493
1.04925
1.04922
1.04919
1.04913
1.04908
1.04905
1.04901
1.04894
1.04885
1.04872
1.04857
1.04845
1.04833
1.04822
1.04812
1.04801
1.04792
1.04781
1.04768
1.04752
1.04741
1.04736
1.0473
1.04721
1.04718
1.04718
1.0472
1.04725
1.04736
1.04749
1.04762
1.04757
1.04742
1.04741
1.04761
1.04869
1.05149
1.05898
1.0719
1.09807
1.13055
1.17687
1.22376
1.26486
1.30389
1.32136
1.33992
1.34635
1.36078
1.36899
1.3749
1.37483
1.37398
1.3701
1.36669
1.36701
1.36881
1.37187
1.37237
1.3719
1.37069
1.37081
1.37147
1.37231
1.37214
1.37172
1.37132
1.37151
1.37204
1.37232
1.37224
1.37228
1.37254
1.37288
1.37293
1.37289
1.37278
1.37257
1.37243
1.37252
1.04879
1.04877
1.04876
1.04876
1.04875
1.04873
1.04871
1.04871
1.04869
1.04868
1.04867
1.04867
1.04867
1.04865
1.04864
1.04864
1.04865
1.04866
1.04866
1.04865
1.04865
1.04864
1.04863
1.04859
1.04858
1.04858
1.04857
1.04854
1.0485
1.04847
1.04846
1.04841
1.04834
1.04826
1.04818
1.04812
1.04806
1.048
1.04793
1.04783
1.0477
1.0476
1.04751
1.04748
1.04748
1.0475
1.04754
1.04763
1.04777
1.04792
1.04803
1.04804
1.04801
1.04795
1.04795
1.04782
1.0478
1.048
1.04886
1.05168
1.05786
1.07301
1.09582
1.13632
1.1827
1.23408
1.28482
1.32235
1.35464
1.36367
1.37155
1.37049
1.36545
1.36201
1.36441
1.36896
1.37283
1.37301
1.37207
1.36937
1.36952
1.37095
1.37279
1.37273
1.37229
1.37148
1.37124
1.37172
1.37231
1.37228
1.37218
1.37224
1.37258
1.37302
1.37311
1.37311
1.37306
1.37286
1.37264
1.37268
1.04832
1.0483
1.0483
1.04829
1.04827
1.04822
1.04821
1.0482
1.04819
1.04817
1.04816
1.04815
1.04814
1.04813
1.04813
1.04814
1.04815
1.04817
1.04819
1.0482
1.0482
1.0482
1.04821
1.04821
1.04822
1.04824
1.04824
1.04824
1.04825
1.04827
1.0483
1.04833
1.04834
1.04835
1.04835
1.04833
1.04831
1.0483
1.04828
1.04823
1.04811
1.04797
1.04786
1.04784
1.04786
1.04792
1.04802
1.04816
1.04834
1.04851
1.04865
1.04874
1.04879
1.04877
1.0487
1.04859
1.04847
1.04845
1.04842
1.04846
1.04869
1.04969
1.05243
1.06026
1.07481
1.10566
1.14564
1.19851
1.25342
1.28841
1.32856
1.33707
1.34985
1.35944
1.37191
1.37496
1.37453
1.37135
1.36744
1.36778
1.37012
1.37344
1.37351
1.37275
1.37148
1.37143
1.37196
1.37259
1.37253
1.37211
1.37214
1.37246
1.37293
1.3733
1.37335
1.37339
1.37336
1.37317
1.3729
1.37293
1.04794
1.04793
1.04791
1.0479
1.04787
1.04783
1.04781
1.04781
1.04781
1.04781
1.0478
1.04779
1.04779
1.04779
1.04779
1.0478
1.04781
1.04781
1.04782
1.04784
1.04784
1.04784
1.04785
1.04787
1.0479
1.04793
1.04795
1.04798
1.04802
1.04806
1.04813
1.04822
1.04832
1.04839
1.0484
1.04842
1.04848
1.04856
1.04857
1.04855
1.04846
1.04832
1.04817
1.04808
1.0481
1.04817
1.04829
1.04846
1.04866
1.04886
1.04903
1.04916
1.04929
1.04943
1.04952
1.04952
1.04949
1.04939
1.04918
1.04894
1.04891
1.04896
1.04915
1.04961
1.05077
1.05463
1.06301
1.08541
1.11783
1.17183
1.23079
1.28184
1.33625
1.35396
1.36726
1.37076
1.3667
1.36099
1.36395
1.36991
1.37472
1.37462
1.37329
1.37058
1.37088
1.37225
1.37337
1.37317
1.37228
1.37206
1.37234
1.373
1.37319
1.37341
1.37366
1.37375
1.37369
1.37351
1.3733
1.37335
1.04795
1.04793
1.04791
1.04788
1.04786
1.04784
1.04782
1.04782
1.0478
1.04779
1.04779
1.04778
1.04776
1.04775
1.04773
1.04771
1.0477
1.0477
1.04769
1.04768
1.04766
1.04766
1.04766
1.04767
1.04768
1.04769
1.04771
1.04775
1.04781
1.04789
1.04798
1.04807
1.04816
1.04825
1.04836
1.04849
1.04862
1.04875
1.04884
1.04883
1.04877
1.0487
1.04862
1.04852
1.04844
1.04845
1.04853
1.04867
1.04883
1.04898
1.04912
1.04925
1.04937
1.04952
1.0498
1.05002
1.05004
1.05003
1.04994
1.04967
1.04939
1.04929
1.04929
1.04942
1.04964
1.04985
1.05028
1.05203
1.05694
1.07288
1.09932
1.15061
1.20837
1.26052
1.31069
1.32884
1.34472
1.35583
1.37241
1.3762
1.37574
1.37224
1.36877
1.36951
1.37253
1.37448
1.37417
1.37271
1.37207
1.3724
1.37315
1.37368
1.3735
1.37357
1.37394
1.37412
1.37399
1.37385
1.37384
1.37389
1.04825
1.04823
1.04821
1.04819
1.04817
1.04815
1.04813
1.0481
1.04807
1.04805
1.04802
1.048
1.04797
1.04794
1.0479
1.04787
1.04784
1.04781
1.04778
1.04776
1.04774
1.04773
1.04774
1.04775
1.04776
1.04776
1.04777
1.04781
1.04789
1.04799
1.0481
1.04822
1.04834
1.04845
1.04856
1.04867
1.04879
1.0489
1.049
1.04905
1.04907
1.0491
1.04913
1.04912
1.0491
1.04906
1.04907
1.0491
1.04912
1.04913
1.04917
1.04923
1.04932
1.0495
1.04979
1.05011
1.05023
1.05024
1.05023
1.05009
1.04979
1.04959
1.04954
1.04958
1.04969
1.04991
1.05006
1.05002
1.05009
1.05095
1.05407
1.06599
1.08804
1.13658
1.19438
1.25415
1.31979
1.34892
1.36693
1.37161
1.36683
1.36178
1.36548
1.37231
1.37603
1.37507
1.37267
1.37194
1.37241
1.37376
1.37387
1.37371
1.37368
1.37396
1.37428
1.37433
1.37423
1.37426
1.3745
1.37448
1.04911
1.04912
1.04912
1.04912
1.04913
1.04913
1.04912
1.04911
1.04908
1.04904
1.04901
1.04898
1.04893
1.04888
1.04884
1.04879
1.04873
1.04864
1.04856
1.04847
1.04838
1.04829
1.04823
1.04819
1.04816
1.04813
1.04814
1.04817
1.04822
1.04827
1.04834
1.04843
1.04853
1.04862
1.04871
1.04881
1.0489
1.04898
1.04907
1.04917
1.04929
1.04942
1.04954
1.04965
1.04969
1.04971
1.04971
1.04968
1.0496
1.04944
1.04924
1.0492
1.04924
1.04936
1.04961
1.05001
1.05023
1.05025
1.05024
1.05016
1.04999
1.04976
1.04963
1.04962
1.04974
1.05006
1.05035
1.0504
1.05039
1.05021
1.05017
1.05072
1.05302
1.06245
1.08161
1.12663
1.18363
1.24427
1.30121
1.32535
1.34384
1.35689
1.37489
1.37738
1.37574
1.37051
1.37063
1.37199
1.37455
1.3752
1.37445
1.37356
1.37386
1.37446
1.37459
1.37438
1.37443
1.37478
1.37508
1.375
1.04984
1.04987
1.0499
1.04992
1.04994
1.04996
1.04997
1.04998
1.04998
1.04998
1.04997
1.04997
1.04995
1.04993
1.0499
1.04985
1.04979
1.04972
1.04966
1.04957
1.04944
1.04929
1.04917
1.04907
1.04898
1.0489
1.04885
1.0488
1.04874
1.04872
1.04875
1.04883
1.04885
1.04888
1.04895
1.04904
1.04911
1.04918
1.04929
1.04942
1.04958
1.04973
1.04986
1.05003
1.05021
1.05028
1.05031
1.05032
1.05027
1.05004
1.04965
1.04937
1.0493
1.04932
1.04946
1.04976
1.05005
1.05015
1.05016
1.05015
1.05008
1.0499
1.04969
1.04963
1.04972
1.05003
1.05045
1.05066
1.05065
1.05055
1.05042
1.05034
1.05041
1.05096
1.0529
1.06079
1.0781
1.12229
1.17991
1.24529
1.31774
1.34937
1.37001
1.37184
1.3627
1.36384
1.36902
1.37514
1.3761
1.37515
1.37322
1.37348
1.37471
1.37481
1.37454
1.37439
1.3747
1.37531
1.37546
1.37534
1.05011
1.05015
1.0502
1.05024
1.05029
1.05033
1.05037
1.05042
1.05046
1.05051
1.05054
1.05056
1.05057
1.05057
1.05057
1.05058
1.05059
1.05059
1.05057
1.05051
1.05041
1.05035
1.05028
1.0502
1.05011
1.05002
1.04995
1.04988
1.04978
1.04973
1.04974
1.04974
1.04969
1.04966
1.04968
1.04966
1.04964
1.04964
1.04967
1.04975
1.04985
1.04995
1.05008
1.05028
1.05054
1.05071
1.05075
1.05077
1.05076
1.05061
1.05021
1.04972
1.04946
1.04945
1.04952
1.04969
1.0499
1.05006
1.05007
1.05011
1.05018
1.05018
1.05
1.04976
1.04975
1.04998
1.05043
1.05069
1.05069
1.05065
1.05058
1.0505
1.05051
1.05063
1.05086
1.05139
1.05294
1.06004
1.077
1.12087
1.18
1.24523
1.30469
1.3291
1.34521
1.36453
1.37685
1.37691
1.37478
1.3717
1.37272
1.37551
1.37579
1.37506
1.37401
1.3743
1.37523
1.37565
1.37559
1.37555
1.05023
1.05029
1.05035
1.05041
1.05048
1.05056
1.05064
1.05071
1.05077
1.05082
1.05086
1.05091
1.05096
1.05101
1.05106
1.05112
1.05117
1.05121
1.05123
1.05123
1.05124
1.05125
1.05126
1.05123
1.05117
1.0511
1.05102
1.05095
1.05089
1.05085
1.05079
1.0507
1.05057
1.05045
1.05036
1.05028
1.05017
1.05007
1.05003
1.05002
1.05004
1.05016
1.05032
1.0505
1.05074
1.051
1.05111
1.05113
1.05113
1.05106
1.05079
1.05035
1.04993
1.04972
1.04972
1.04981
1.04998
1.05012
1.05014
1.05016
1.05035
1.05048
1.05045
1.05021
1.05011
1.05019
1.05042
1.05058
1.05065
1.05065
1.05064
1.05061
1.05061
1.05067
1.05091
1.05116
1.05128
1.05159
1.05302
1.05999
1.07786
1.12407
1.18555
1.25788
1.32821
1.3578
1.37273
1.37003
1.36265
1.36721
1.37472
1.37681
1.37588
1.37341
1.37371
1.37514
1.37573
1.37561
1.37547
1.37574
1.05029
1.05035
1.05041
1.05046
1.05053
1.05059
1.05065
1.05073
1.05081
1.05088
1.05095
1.05101
1.05107
1.05114
1.0512
1.05126
1.05131
1.05135
1.05138
1.05144
1.05151
1.05159
1.05163
1.05163
1.05161
1.05155
1.05147
1.05142
1.05141
1.05139
1.05135
1.05128
1.05117
1.05103
1.05088
1.05073
1.05059
1.05047
1.05034
1.05021
1.05013
1.05011
1.05011
1.05017
1.05031
1.05056
1.05098
1.0513
1.05133
1.05131
1.05118
1.05096
1.05072
1.05051
1.0504
1.05039
1.05038
1.0504
1.05044
1.05046
1.05064
1.05081
1.05079
1.05065
1.05056
1.05056
1.05056
1.05056
1.05058
1.05063
1.05069
1.05072
1.05076
1.05084
1.05098
1.05119
1.05137
1.05138
1.05141
1.05169
1.05328
1.0607
1.08115
1.12982
1.19772
1.2649
1.31528
1.33891
1.35448
1.37629
1.37784
1.3761
1.37178
1.37249
1.37517
1.3764
1.37589
1.37513
1.37534
1.376
1.05036
1.05037
1.05038
1.0504
1.05042
1.05046
1.0505
1.05053
1.05057
1.05062
1.05069
1.05076
1.05082
1.05088
1.05095
1.05103
1.05111
1.05119
1.05126
1.05133
1.05141
1.05152
1.05161
1.0516
1.05158
1.05157
1.05157
1.05159
1.05161
1.05159
1.05152
1.05145
1.05138
1.0513
1.05119
1.05108
1.05096
1.05084
1.0507
1.0505
1.05021
1.05004
1.05001
1.05
1.05002
1.05017
1.05061
1.05118
1.05144
1.05145
1.05139
1.05129
1.05125
1.0512
1.05112
1.0511
1.05102
1.05084
1.05077
1.0508
1.05097
1.05106
1.05103
1.051
1.05102
1.05098
1.0508
1.05069
1.05071
1.05079
1.05089
1.05093
1.05097
1.05105
1.05115
1.05123
1.05129
1.05128
1.05124
1.05122
1.05128
1.05166
1.05372
1.06233
1.08809
1.14227
1.21167
1.29496
1.34352
1.37153
1.37145
1.36211
1.36621
1.37414
1.37717
1.3763
1.37451
1.37471
1.37573
1.3762
1.05061
1.0506
1.05059
1.05059
1.0506
1.0506
1.05057
1.05052
1.05049
1.0505
1.05053
1.05055
1.05057
1.0506
1.05063
1.05065
1.05067
1.05071
1.05077
1.05084
1.05094
1.05113
1.05131
1.05133
1.05127
1.05121
1.05119
1.05119
1.0512
1.0512
1.05121
1.05123
1.05127
1.05127
1.05128
1.0513
1.0513
1.05129
1.05119
1.05095
1.05054
1.05004
1.04984
1.04983
1.04985
1.05
1.05047
1.05111
1.05148
1.05152
1.05148
1.05141
1.05145
1.05145
1.05134
1.0513
1.0513
1.0512
1.0511
1.05111
1.05111
1.05107
1.05105
1.05112
1.05134
1.05143
1.05134
1.05118
1.05116
1.05119
1.05124
1.05123
1.05122
1.05125
1.05126
1.05124
1.0512
1.05114
1.05113
1.05112
1.05112
1.05115
1.05127
1.05175
1.05463
1.06489
1.09828
1.15669
1.23083
1.29902
1.32946
1.34671
1.37276
1.37776
1.37644
1.37243
1.37357
1.37563
1.37646
1.37619
1.05084
1.05084
1.05084
1.05082
1.0508
1.05077
1.05074
1.05067
1.05057
1.05057
1.05066
1.05071
1.05071
1.05071
1.05072
1.05072
1.05071
1.05072
1.05074
1.05069
1.0506
1.05056
1.05057
1.05053
1.05046
1.05045
1.0505
1.05061
1.05073
1.05091
1.05104
1.05108
1.05114
1.05136
1.05174
1.05184
1.05184
1.05182
1.05177
1.05163
1.05133
1.05085
1.0506
1.05057
1.05058
1.05069
1.05106
1.05144
1.05154
1.05151
1.05139
1.05136
1.05142
1.05141
1.05127
1.05122
1.05128
1.05143
1.05144
1.05123
1.051
1.05092
1.05093
1.05111
1.0515
1.0518
1.05181
1.05169
1.05157
1.05151
1.05148
1.05147
1.05143
1.05139
1.05136
1.05129
1.05114
1.05107
1.05107
1.0511
1.0512
1.05136
1.0515
1.05151
1.05156
1.05207
1.05597
1.07019
1.11287
1.17771
1.2616
1.3327
1.36481
1.3734
1.36245
1.36615
1.3726
1.37656
1.37623
1.37555
1.05098
1.05095
1.05096
1.051
1.05109
1.05117
1.05121
1.05122
1.05124
1.05135
1.05148
1.0515
1.0515
1.05145
1.0513
1.0512
1.05115
1.05105
1.05088
1.05072
1.05052
1.05028
1.05016
1.05011
1.05009
1.05012
1.05023
1.05044
1.05064
1.05083
1.05102
1.05122
1.05148
1.05197
1.05239
1.05245
1.05246
1.05241
1.05222
1.052
1.05172
1.05134
1.05119
1.05117
1.05116
1.05116
1.05131
1.05165
1.0517
1.05156
1.05132
1.05128
1.05132
1.05125
1.05101
1.05094
1.05104
1.0514
1.05169
1.05166
1.0514
1.05111
1.05105
1.05119
1.05153
1.05182
1.05192
1.05187
1.05175
1.05164
1.05152
1.05144
1.05143
1.05144
1.05148
1.05146
1.05135
1.05124
1.05125
1.0513
1.05144
1.05155
1.05157
1.05156
1.05138
1.05108
1.05116
1.05227
1.05838
1.07996
1.13172
1.20919
1.2781
1.32496
1.34413
1.37082
1.37698
1.37616
1.37313
1.37486
1.0509
1.05093
1.05096
1.05102
1.05111
1.05121
1.05134
1.0515
1.05177
1.05217
1.05229
1.0523
1.0523
1.05227
1.05222
1.05209
1.05188
1.05184
1.05187
1.05185
1.05171
1.05141
1.05105
1.05097
1.05098
1.05099
1.05099
1.05107
1.05124
1.05131
1.05142
1.05161
1.05198
1.05244
1.05253
1.05252
1.05247
1.05215
1.05186
1.05181
1.05169
1.05141
1.05136
1.05141
1.05144
1.0514
1.05135
1.05156
1.05195
1.052
1.05175
1.05139
1.05128
1.05113
1.05089
1.05084
1.05097
1.0514
1.05191
1.05214
1.05206
1.05185
1.05167
1.05165
1.05173
1.05179
1.05184
1.0518
1.05172
1.05162
1.05142
1.05124
1.05123
1.05128
1.0514
1.05152
1.05157
1.05156
1.05158
1.05163
1.05168
1.05166
1.05166
1.05151
1.05117
1.05091
1.05087
1.05092
1.05125
1.05354
1.06339
1.09637
1.15828
1.24106
1.32295
1.36233
1.37328
1.36228
1.36659
1.374
1.04995
1.05
1.05007
1.05015
1.05025
1.05035
1.0505
1.05072
1.05106
1.05144
1.05164
1.05169
1.05169
1.05168
1.05166
1.05162
1.0515
1.05147
1.0515
1.05149
1.05139
1.05116
1.05089
1.05085
1.05085
1.05085
1.05085
1.05095
1.05116
1.05116
1.05104
1.05108
1.05125
1.05128
1.05114
1.05084
1.05079
1.05081
1.05069
1.05059
1.05058
1.05067
1.05091
1.05113
1.05115
1.05102
1.05076
1.05088
1.0515
1.05226
1.05246
1.05227
1.05185
1.05144
1.05112
1.051
1.05114
1.05155
1.05193
1.05218
1.05228
1.05227
1.05224
1.05217
1.05194
1.05164
1.05153
1.05143
1.05141
1.05143
1.05137
1.05125
1.05125
1.05133
1.05156
1.05179
1.05189
1.05191
1.05187
1.05179
1.05176
1.05172
1.05157
1.05133
1.05118
1.05098
1.05094
1.05105
1.05138
1.05166
1.05237
1.05643
1.07236
1.11733
1.19368
1.26793
1.32167
1.34334
1.37139
1.37681
1.04574
1.04571
1.04569
1.04568
1.04568
1.04571
1.04585
1.04608
1.04641
1.04678
1.04712
1.04743
1.04775
1.04805
1.04843
1.049
1.0494
1.04949
1.04947
1.04944
1.04938
1.04922
1.04901
1.04897
1.04893
1.04877
1.0486
1.0486
1.04862
1.04843
1.04816
1.04821
1.0485
1.04874
1.04886
1.04909
1.04983
1.05033
1.05037
1.05023
1.04973
1.04936
1.04932
1.04935
1.04945
1.0496
1.04982
1.05032
1.05128
1.05217
1.05254
1.05251
1.05233
1.05207
1.05168
1.05133
1.05137
1.05161
1.0518
1.05196
1.05214
1.05218
1.05221
1.05219
1.0518
1.05117
1.05097
1.05099
1.05111
1.05135
1.05151
1.05162
1.05173
1.05184
1.05198
1.05203
1.05204
1.05202
1.05194
1.05172
1.05142
1.0513
1.05124
1.05126
1.05124
1.05124
1.05131
1.05147
1.05169
1.05181
1.0518
1.05193
1.05323
1.06047
1.08832
1.14757
1.23241
1.31998
1.36166
1.37206
1.04199
1.04193
1.04188
1.04187
1.04188
1.04191
1.042
1.04217
1.04245
1.04278
1.04311
1.04344
1.04381
1.04427
1.04489
1.04574
1.04632
1.04658
1.04672
1.04681
1.04687
1.04691
1.04689
1.04686
1.0469
1.04685
1.04662
1.04654
1.04648
1.04629
1.04614
1.04613
1.04623
1.04642
1.04682
1.04812
1.0499
1.05018
1.05019
1.05003
1.04941
1.04834
1.04783
1.04778
1.04776
1.04781
1.0481
1.04883
1.04981
1.05069
1.05146
1.05188
1.05187
1.05174
1.05139
1.05079
1.05041
1.05021
1.05006
1.05001
1.05007
1.05046
1.05102
1.05122
1.05116
1.0509
1.0508
1.05097
1.05144
1.05176
1.05188
1.05203
1.05214
1.05215
1.05214
1.05212
1.05209
1.052
1.05176
1.05125
1.051
1.05106
1.05121
1.0515
1.05165
1.0517
1.0518
1.05187
1.0519
1.0518
1.05175
1.05173
1.05178
1.0522
1.05536
1.06916
1.11201
1.18972
1.26379
1.33101
1.04383
1.04361
1.0434
1.04334
1.04337
1.04349
1.04361
1.04395
1.0448
1.04555
1.04562
1.04559
1.04578
1.04645
1.04756
1.04805
1.048
1.04792
1.04795
1.04791
1.04766
1.04754
1.04751
1.04757
1.04801
1.04837
1.04886
1.04949
1.04951
1.04944
1.04972
1.05008
1.05003
1.04985
1.04995
1.05098
1.05258
1.0529
1.05283
1.05251
1.05179
1.05045
1.04944
1.04913
1.04884
1.04839
1.04799
1.04764
1.04748
1.04748
1.04766
1.04838
1.04901
1.04903
1.04887
1.04853
1.04819
1.04792
1.04777
1.04782
1.04806
1.04848
1.04904
1.04973
1.05026
1.05053
1.05087
1.05139
1.05186
1.052
1.052
1.05204
1.05209
1.05207
1.05191
1.05163
1.0514
1.05124
1.05104
1.0508
1.05082
1.05101
1.05152
1.05194
1.05203
1.05204
1.05201
1.05197
1.0518
1.05165
1.05171
1.05174
1.0518
1.05193
1.05209
1.05317
1.05969
1.0865
1.14379
1.26466
1.06002
1.05923
1.05856
1.05803
1.05757
1.05744
1.05753
1.05806
1.05857
1.05865
1.05861
1.05851
1.0584
1.05833
1.05806
1.0574
1.05696
1.0565
1.05549
1.05367
1.05243
1.05205
1.0519
1.05199
1.0522
1.05233
1.05275
1.05335
1.05343
1.05296
1.05282
1.05299
1.05298
1.05301
1.05298
1.05257
1.05241
1.05216
1.05142
1.05032
1.0494
1.04907
1.04914
1.0491
1.04856
1.04768
1.04739
1.04738
1.04727
1.04693
1.04686
1.04704
1.0471
1.0469
1.04671
1.04679
1.04715
1.04768
1.04813
1.04836
1.04835
1.04822
1.0482
1.0484
1.04887
1.04953
1.05041
1.05102
1.05105
1.05081
1.05024
1.04988
1.04984
1.04988
1.05004
1.05014
1.05024
1.05038
1.05062
1.05082
1.05123
1.05176
1.05218
1.05221
1.05215
1.05211
1.05203
1.05182
1.05158
1.05161
1.05171
1.05191
1.05211
1.05226
1.05227
1.0522
1.05234
1.05509
1.06777
1.14667
1.07671
1.07655
1.07509
1.07165
1.0707
1.07043
1.07036
1.0706
1.07112
1.07257
1.07372
1.07381
1.07301
1.07239
1.07265
1.07239
1.07082
1.06914
1.06699
1.06457
1.06299
1.06225
1.06226
1.06276
1.06354
1.0638
1.06344
1.06194
1.06126
1.06138
1.06165
1.06151
1.05952
1.0575
1.05606
1.05446
1.05398
1.05395
1.05383
1.0532
1.05235
1.05229
1.05285
1.05357
1.05342
1.05194
1.05131
1.05164
1.05263
1.05275
1.05251
1.05158
1.05036
1.0491
1.04859
1.04856
1.04928
1.05147
1.05326
1.05356
1.05345
1.05296
1.05165
1.05011
1.04946
1.04937
1.04969
1.05014
1.04996
1.04942
1.04871
1.04824
1.04819
1.04825
1.04856
1.04885
1.04907
1.04938
1.04985
1.05082
1.05147
1.05187
1.05216
1.05212
1.05188
1.05165
1.0514
1.05141
1.05149
1.05176
1.05214
1.05239
1.05246
1.05242
1.05236
1.05211
1.05169
1.05168
1.0526
1.07767
1.11349
1.11231
1.11094
1.1086
1.10472
1.10225
1.10198
1.10226
1.10335
1.10391
1.10376
1.1034
1.10327
1.10308
1.10247
1.10023
1.09826
1.0981
1.09893
1.0992
1.09805
1.09608
1.09575
1.09653
1.0979
1.09803
1.09702
1.09562
1.09536
1.09571
1.09713
1.09724
1.0953
1.09077
1.08631
1.08323
1.08071
1.07957
1.07929
1.07849
1.07598
1.07443
1.07509
1.07616
1.07553
1.07164
1.06859
1.0685
1.06965
1.07141
1.07144
1.07007
1.06692
1.06295
1.05901
1.05754
1.05763
1.05801
1.05791
1.05721
1.05641
1.05534
1.05374
1.05163
1.04929
1.04868
1.04878
1.04882
1.04874
1.04869
1.04853
1.0483
1.0483
1.04845
1.04892
1.04979
1.05055
1.05092
1.05097
1.05077
1.05078
1.05072
1.05063
1.0503
1.05011
1.05019
1.05051
1.05101
1.05152
1.05218
1.05242
1.05248
1.05245
1.05235
1.05209
1.05182
1.05153
1.05161
1.05173
1.05607
1.16443
1.16495
1.16527
1.1651
1.16299
1.15822
1.15684
1.15695
1.15682
1.15597
1.15452
1.15405
1.15328
1.15121
1.1486
1.14628
1.14544
1.1451
1.14364
1.14246
1.14273
1.14241
1.1401
1.13676
1.13468
1.13289
1.12961
1.12811
1.12767
1.12617
1.12405
1.12328
1.12126
1.11789
1.11742
1.11777
1.11754
1.11683
1.11572
1.11247
1.11024
1.10998
1.10901
1.10684
1.10352
1.09709
1.08796
1.08351
1.08363
1.0852
1.08476
1.08301
1.08265
1.0827
1.08173
1.07772
1.07224
1.06795
1.06397
1.06106
1.06035
1.0602
1.06055
1.06037
1.05882
1.05529
1.05284
1.05283
1.05314
1.05317
1.05331
1.05403
1.05394
1.05368
1.05377
1.05387
1.05361
1.05295
1.05205
1.05113
1.05039
1.05006
1.04976
1.04951
1.04946
1.04956
1.05
1.05059
1.05152
1.05206
1.05226
1.05216
1.05185
1.05158
1.0515
1.05159
1.05176
1.05215
1.05226
1.05284
1.21981
1.21811
1.21706
1.215
1.21096
1.20964
1.21009
1.21045
1.2091
1.20789
1.2083
1.20873
1.20717
1.20499
1.20473
1.20421
1.20234
1.20151
1.20122
1.20054
1.20064
1.20086
1.19989
1.19568
1.19264
1.19254
1.19246
1.19021
1.18698
1.18616
1.18538
1.18374
1.17965
1.17293
1.16837
1.16677
1.16482
1.16055
1.15848
1.15757
1.1557
1.15259
1.15137
1.15275
1.1537
1.15146
1.14403
1.13651
1.13327
1.1315
1.12828
1.12145
1.11656
1.1164
1.11738
1.11559
1.11073
1.10771
1.10442
1.09728
1.09181
1.09004
1.09013
1.09013
1.08843
1.08272
1.07487
1.07143
1.07085
1.06984
1.06717
1.06379
1.06068
1.05832
1.05673
1.05516
1.05315
1.05165
1.05097
1.05041
1.05008
1.04991
1.04972
1.0498
1.05022
1.05093
1.05178
1.05182
1.05152
1.05138
1.05101
1.05053
1.05046
1.05059
1.0508
1.05133
1.05192
1.05226
1.05225
1.05213
1.28789
1.28688
1.28359
1.27981
1.27909
1.27932
1.28049
1.28079
1.27928
1.27607
1.27542
1.27465
1.27265
1.26917
1.26772
1.26791
1.26748
1.26465
1.26305
1.26307
1.26212
1.25946
1.25789
1.25626
1.25301
1.2494
1.24757
1.24514
1.24362
1.24285
1.24059
1.23841
1.23709
1.23431
1.23106
1.23031
1.2292
1.22683
1.22311
1.21904
1.21424
1.21091
1.20742
1.20161
1.19864
1.19698
1.19343
1.18495
1.18151
1.18209
1.18148
1.17715
1.17078
1.16718
1.16234
1.15113
1.14395
1.14392
1.14264
1.13721
1.133
1.12822
1.12032
1.11458
1.11127
1.10807
1.1032
1.09466
1.08846
1.08635
1.08377
1.07893
1.07286
1.06801
1.06474
1.06273
1.06014
1.05702
1.05638
1.0564
1.05536
1.05509
1.05531
1.0557
1.05552
1.055
1.05433
1.05336
1.05239
1.05105
1.0505
1.05028
1.05034
1.05067
1.05127
1.05206
1.05208
1.05206
1.05178
1.05146
1.3547
1.35373
1.35272
1.3517
1.34962
1.34667
1.34509
1.34512
1.34591
1.346
1.34542
1.34269
1.33907
1.33874
1.33872
1.33821
1.33617
1.33202
1.3309
1.33087
1.33036
1.32776
1.32455
1.32388
1.32325
1.3207
1.31677
1.3155
1.31447
1.31236
1.30877
1.30468
1.30156
1.29906
1.29505
1.29176
1.28997
1.2878
1.28466
1.28046
1.27441
1.27203
1.27071
1.26777
1.26398
1.26073
1.25734
1.25159
1.24518
1.24094
1.23728
1.2297
1.22387
1.22268
1.22028
1.214
1.20713
1.20142
1.19155
1.18473
1.18441
1.18239
1.17669
1.16812
1.15761
1.15315
1.15067
1.14721
1.13964
1.1311
1.12626
1.12208
1.11628
1.10949
1.10321
1.09798
1.09295
1.087
1.0812
1.07681
1.07178
1.06758
1.06337
1.06037
1.0574
1.05503
1.05347
1.05255
1.05203
1.05119
1.05089
1.05129
1.0521
1.05281
1.0526
1.05201
1.05172
1.05107
1.05057
1.05071
1.42859
1.42751
1.42569
1.42498
1.4245
1.42278
1.41952
1.41724
1.41705
1.41767
1.41771
1.41654
1.41395
1.41016
1.40781
1.40792
1.40784
1.40645
1.40323
1.4008
1.39962
1.3981
1.39608
1.39398
1.39176
1.38948
1.38706
1.38425
1.38189
1.37968
1.377
1.37356
1.37083
1.36898
1.36622
1.36261
1.35967
1.35676
1.35338
1.34949
1.34455
1.33932
1.33572
1.33274
1.32831
1.32311
1.31927
1.31558
1.30999
1.30517
1.30166
1.29705
1.29072
1.28463
1.27913
1.27224
1.26505
1.25945
1.25397
1.24783
1.2428
1.2361
1.22729
1.22009
1.21274
1.20749
1.2005
1.1921
1.18436
1.17715
1.16941
1.1612
1.15356
1.14529
1.13731
1.12913
1.1219
1.11399
1.10637
1.09869
1.09154
1.08433
1.07756
1.07188
1.06681
1.06272
1.05948
1.05818
1.05686
1.05714
1.05783
1.05796
1.05749
1.05634
1.05478
1.05332
1.05161
1.0508
1.05049
1.05079
1.50395
1.5028
1.50173
1.50076
1.49986
1.49896
1.49776
1.49538
1.49301
1.49288
1.49306
1.49234
1.4903
1.48704
1.4829
1.48222