/*--------------------------------*- C++ -*----------------------------------*\
  =========                 |
  \\      /  F ield         | OpenFOAM: The Open Source CFD Toolbox
   \\    /   O peration     | Website:  https://openfoam.org
    \\  /    A nd           | Version:  7
     \\/     M anipulation  |
\*---------------------------------------------------------------------------*/
FoamFile
{
    version     2.0;
    format      ascii;
    class       volScalarField;
    location    "10";
    object      T;
}
// * * * * * * * * * * * * * * * * * * * * * * * * * * * * * * * * * * * * * //

dimensions      [0 0 0 1 0 0 0];

internalField   nonuniform List<scalar> 
12750
(
1.08114
1.25581
1.3107
1.35578
1.36594
1.37467
1.36713
1.35303
1.36103
1.36117
1.36218
1.35716
1.34503
1.33832
1.32804
1.31125
1.29108
1.27411
1.27073
1.26648
1.25414
1.23548
1.22148
1.21586
1.21371
1.20659
1.19532
1.18884
1.18963
1.18849
0.545243
0.573311
0.703979
0.890659
1.1163
1.28204
1.41625
1.50116
1.57475
1.58276
1.57324
1.53826
1.50952
1.48863
1.4608
1.41918
1.41151
1.41487
1.41021
1.39742
1.36932
1.33701
1.3184
1.30575
1.29377
1.28012
1.26553
1.25551
1.2486
1.23509
0.528501
0.519686
0.509421
0.498419
0.485351
0.510201
0.665524
0.942332
1.15578
1.33623
1.469
1.54847
1.59858
1.59185
1.56562
1.53989
1.54243
1.54048
1.52869
1.515
1.49056
1.45918
1.43995
1.42917
1.41781
1.40276
1.38325
1.36448
1.34703
1.32043
0.493082
0.487528
0.481675
0.477084
0.474064
0.471609
0.468958
0.466481
0.46256
0.510397
0.70073
1.05774
1.29848
1.45854
1.57796
1.61619
1.61716
1.60098
1.58131
1.5767
1.56936
1.5632
1.55498
1.54179
1.53087
1.51876
1.50326
1.48783
1.47208
1.44237
0.473634
0.471237
0.469253
0.467819
0.467401
0.467045
0.465613
0.462586
0.459927
0.45696
0.454789
0.453273
0.484675
0.719065
1.11876
1.41076
1.53175
1.58565
1.60168
1.60892
1.60794
1.60802
1.61405
1.60801
1.59698
1.59014
1.58753
1.58193
1.57147
1.54389
0.464558
0.463018
0.461844
0.461225
0.460792
0.459994
0.457984
0.45514
0.452372
0.451825
0.451325
0.450468
0.4491
0.448688
0.447773
0.631411
0.971588
1.33381
1.53534
1.5959
1.61551
1.61495
1.61947
1.61501
1.61259
1.61272
1.6151
1.6143
1.60941
1.59649
0.456498
0.455362
0.454477
0.453901
0.45317
0.451949
0.450279
0.448003
0.447334
0.448242
0.448776
0.448263
0.44767
0.447847
0.447521
0.446166
0.445269
0.54889
0.92292
1.24295
1.45494
1.53905
1.58212
1.59368
1.60275
1.60494
1.61149
1.61006
1.60803
1.60086
0.451722
0.451228
0.450483
0.449565
0.44877
0.448104
0.44711
0.446064
0.446161
0.447363
0.448209
0.447697
0.447271
0.447915
0.449559
0.452187
0.457469
0.464936
0.471537
0.522866
0.84211
1.19983
1.37193
1.4621
1.5243
1.53924
1.55245
1.55529
1.56481
1.57652
0.451697
0.451113
0.450132
0.449361
0.448719
0.448335
0.447688
0.447359
0.447991
0.450357
0.451597
0.449893
0.449307
0.451536
0.458656
0.466685
0.474214
0.479261
0.487198
0.495596
0.498959
0.556593
0.813761
1.10714
1.28938
1.37733
1.44938
1.46416
1.48565
1.50184
0.451131
0.451426
0.4527
0.454677
0.456475
0.456623
0.455891
0.455875
0.457232
0.461548
0.469754
0.47465
0.476579
0.477102
0.477171
0.480067
0.484448
0.487645
0.492541
0.502228
0.515122
0.520907
0.519818
0.562272
0.808403
1.07505
1.22305
1.31094
1.37945
1.3922
0.459601
0.462426
0.465325
0.467488
0.468179
0.468076
0.466389
0.465747
0.467439
0.473349
0.483299
0.493293
0.49802
0.499693
0.500223
0.50133
0.50395
0.506303
0.507503
0.510013
0.520654
0.533151
0.54157
0.541109
0.541582
0.601108
0.825995
1.08031
1.1835
1.27548
0.484671
0.485494
0.485611
0.486677
0.490053
0.493625
0.495099
0.495585
0.496856
0.499871
0.504989
0.511165
0.514645
0.517796
0.522921
0.528817
0.533688
0.537114
0.540057
0.541621
0.541414
0.545459
0.556928
0.56339
0.566778
0.569089
0.570923
0.669796
0.859203
1.15207
0.513044
0.514742
0.51768
0.520945
0.523641
0.525366
0.525581
0.525453
0.526443
0.52983
0.535768
0.540253
0.542243
0.54348
0.546502
0.550939
0.554674
0.558212
0.562791
0.569323
0.573649
0.574282
0.576051
0.582423
0.588723
0.59055
0.592335
0.594951
0.596503
0.890735
0.548473
0.549462
0.55021
0.550176
0.550113
0.550384
0.550357
0.550272
0.551854
0.556908
0.564643
0.56986
0.570341
0.570339
0.57119
0.572514
0.574927
0.578094
0.581983
0.588438
0.595803
0.597356
0.59769
0.599662
0.603358
0.607099
0.611522
0.616404
0.61763
0.625698
0.584233
0.584586
0.584759
0.585086
0.585596
0.587198
0.588757
0.588448
0.588215
0.589409
0.592319
0.594228
0.595582
0.597762
0.601372
0.604231
0.607177
0.608529
0.607512
0.607313
0.610922
0.616541
0.619781
0.621001
0.623341
0.627516
0.631898
0.635385
0.637817
0.640296
0.621986
0.62122
0.620748
0.620113
0.619982
0.621394
0.622796
0.622578
0.62264
0.624056
0.626952
0.63031
0.631205
0.631845
0.633481
0.636134
0.639142
0.641175
0.641633
0.642191
0.643265
0.645884
0.648967
0.65002
0.651022
0.652441
0.652608
0.6535
0.656375
0.660854
0.664051
0.662173
0.66132
0.660875
0.661184
0.663185
0.665258
0.665325
0.664665
0.664242
0.664303
0.665414
0.668109
0.669053
0.668696
0.667984
0.668257
0.6697
0.672364
0.674412
0.674512
0.674314
0.674601
0.675248
0.675785
0.676503
0.677615
0.678861
0.678894
0.679522
0.709736
0.706582
0.705316
0.70472
0.70553
0.707178
0.70808
0.708242
0.707095
0.704838
0.704259
0.704681
0.705428
0.705544
0.705371
0.704936
0.704504
0.703853
0.702346
0.700633
0.700842
0.701778
0.701816
0.701881
0.702146
0.702828
0.702912
0.702781
0.702779
0.702634
0.758064
0.754224
0.752893
0.753424
0.755756
0.755898
0.754973
0.75326
0.751006
0.750686
0.7507
0.749356
0.747195
0.746562
0.746292
0.745328
0.742954
0.742284
0.742085
0.741207
0.739767
0.738413
0.737094
0.735286
0.732864
0.730586
0.729265
0.727398
0.725013
0.72447
0.809642
0.805734
0.804461
0.806002
0.808602
0.808002
0.805633
0.801494
0.798647
0.798922
0.798637
0.795651
0.791946
0.790333
0.789288
0.787449
0.784543
0.781652
0.779433
0.777361
0.774636
0.771736
0.769219
0.766816
0.764136
0.761072
0.758798
0.757759
0.75627
0.751659
0.864314
0.860334
0.859713
0.86247
0.864461
0.863131
0.859274
0.852859
0.849832
0.850306
0.849413
0.844346
0.839209
0.83761
0.835807
0.832702
0.82867
0.824774
0.821416
0.818299
0.814898
0.8111
0.807218
0.80287
0.799535
0.796173
0.791759
0.787595
0.784662
0.7789
0.921857
0.918009
0.917861
0.921103
0.922678
0.920928
0.91561
0.906944
0.903595
0.904004
0.902472
0.895403
0.889281
0.887658
0.885347
0.88081
0.875212
0.870135
0.866016
0.861688
0.856927
0.851478
0.846567
0.841458
0.835979
0.83046
0.825542
0.819857
0.814311
0.806753
0.982814
0.977863
0.977404
0.980093
0.982199
0.980624
0.97466
0.964219
0.959426
0.959621
0.957793
0.949249
0.942253
0.940348
0.937522
0.931371
0.924653
0.918525
0.913415
0.908059
0.901739
0.895204
0.888677
0.882375
0.875498
0.868776
0.862315
0.85572
0.849804
0.83955
1.05086
1.04268
1.03957
1.04043
1.04308
1.04204
1.03587
1.0254
1.01765
1.01736
1.01566
1.00712
0.99813
0.99499
0.991431
0.984432
0.976514
0.96953
0.962993
0.956416
0.948649
0.940901
0.933168
0.925201
0.917154
0.908941
0.900771
0.892108
0.884536
0.872455
1.12446
1.11658
1.1092
1.10791
1.10776
1.10576
1.10053
1.09149
1.08173
1.08
1.0777
1.06955
1.0588
1.05288
1.0474
1.04001
1.03118
1.02273
1.01447
1.00628
0.997679
0.988212
0.979231
0.969942
0.960634
0.950938
0.941335
0.931659
0.922707
0.908361
1.17848
1.17516
1.17213
1.17031
1.16803
1.16485
1.1613
1.15641
1.1493
1.14478
1.14069
1.13367
1.12485
1.1171
1.10894
1.09997
1.0904
1.08024
1.07008
1.05963
1.04925
1.03833
1.02745
1.01673
1.0057
0.994793
0.983889
0.972499
0.962496
0.946148
1.18891
1.18886
1.18856
1.18788
1.18726
1.18689
1.18657
1.18595
1.18458
1.18319
1.18149
1.17867
1.17493
1.17068
1.16546
1.1588
1.15086
1.14163
1.13129
1.12
1.10763
1.09489
1.08156
1.06818
1.055
1.04156
1.02865
1.01558
1.00385
0.985182
1.17626
1.17905
1.18111
1.18183
1.18148
1.18065
1.18149
1.18261
1.18316
1.18323
1.18324
1.18329
1.18311
1.18259
1.18187
1.18099
1.17963
1.17751
1.17399
1.16867
1.16144
1.15213
1.14058
1.12702
1.11204
1.09623
1.08003
1.06358
1.04914
1.02678
1.11177
1.11533
1.1217
1.13138
1.13433
1.13546
1.13788
1.14231
1.14902
1.15603
1.15812
1.16105
1.16644
1.16943
1.17107
1.17328
1.17553
1.17635
1.17624
1.17587
1.17512
1.17382
1.17144
1.16753
1.16073
1.15055
1.13685
1.12007
1.10314
1.07541
1.02592
1.02809
1.03063
1.03425
1.03973
1.04423
1.04821
1.05297
1.05948
1.06813
1.07521
1.08289
1.09295
1.10316
1.11213
1.12159
1.13207
1.14151
1.14895
1.15652
1.16199
1.16523
1.1682
1.16815
1.16785
1.16684
1.16435
1.15931
1.15101
1.12851
1.00113
1.00131
1.00154
1.00182
1.00228
1.00288
1.00357
1.00438
1.0054
1.00703
1.00917
1.01172
1.01521
1.01995
1.02593
1.03323
1.04262
1.05404
1.06715
1.08118
1.09698
1.11137
1.12624
1.13843
1.1477
1.15492
1.15945
1.15913
1.15866
1.15456
1.00001
1.00001
1.00002
1.00002
1.00003
1.00004
1.00005
1.00007
1.00009
1.00013
1.0002
1.0003
1.00045
1.0007
1.0011
1.00174
1.00283
1.00453
1.00738
1.01163
1.01832
1.02787
1.04057
1.05722
1.07585
1.09515
1.11448
1.13045
1.14156
1.14908
1
1
1
1
1
1
1
1
1
1
1
1
1
1.00001
1.00001
1.00002
1.00004
1.00007
1.00015
1.0003
1.00063
1.00133
1.00274
1.00554
1.01075
1.01963
1.0334
1.05284
1.07367
1.1073
1
1
1
1
1
1
1
1
1
1
1
1
1
1
1
1
1
1
1
1
1.00001
1.00001
1.00004
1.0001
1.00029
1.00079
1.00204
1.00521
1.01094
1.03391
1
1
1
1
1
1
1
1
1
1
1
1
1
1
1
1
1
1
1
1
1
1
1
1
1
1.00001
1.00003
1.00011
1.00032
1.00291
0.559954
0.552465
0.536541
0.500416
0.477179
0.466632
0.458278
0.45237
0.451825
0.451308
0.45775
0.483947
0.51191
0.547674
0.583709
0.623255
0.666672
0.714095
0.764978
0.818499
0.874783
0.93368
0.995966
1.06241
1.13142
1.18101
1.18895
1.17325
1.10661
1.02266
1.00094
1.00001
1
1
1
0.559765
0.552519
0.532233
0.495937
0.475887
0.46579
0.458249
0.452486
0.451038
0.451851
0.460617
0.489891
0.516759
0.553377
0.590037
0.629669
0.673809
0.722244
0.774715
0.830854
0.889998
0.950929
1.0129
1.07646
1.14196
1.18511
1.18906
1.1694
1.09687
1.01669
1.00053
1
1
1
1
0.563913
0.556854
0.532164
0.495385
0.476978
0.465962
0.458868
0.452923
0.448702
0.449565
0.463516
0.491206
0.518489
0.554694
0.592243
0.631889
0.676882
0.725893
0.779034
0.836321
0.896515
0.957932
1.01972
1.0834
1.14908
1.1879
1.18924
1.16753
1.08619
1.01196
1.00031
1
1
1
1
0.568264
0.559656
0.531956
0.494845
0.477873
0.465973
0.458999
0.452404
0.446798
0.447275
0.46539
0.491003
0.520487
0.555273
0.59355
0.632671
0.678167
0.727683
0.781028
0.83892
0.899885
0.961764
1.02414
1.09023
1.15775
1.19035
1.18971
1.16277
1.07151
1.00813
1.00018
1
1
1
1
0.570501
0.561196
0.531904
0.494549
0.479062
0.467211
0.460236
0.451272
0.44634
0.447547
0.469355
0.491994
0.524458
0.559708
0.59766
0.638727
0.684596
0.73514
0.788383
0.844321
0.903944
0.96656
1.03258
1.10515
1.16867
1.19198
1.18929
1.14932
1.05914
1.00569
1.00011
1
1
1
1
0.571686
0.562401
0.531969
0.494987
0.480669
0.46891
0.46175
0.451082
0.44724
0.452113
0.477893
0.500833
0.534375
0.571089
0.611454
0.654837
0.702934
0.75558
0.810805
0.868018
0.927512
0.990305
1.05623
1.12291
1.17648
1.19274
1.1862
1.1402
1.04985
1.00391
1.00006
1
1
1
1
0.572097
0.563461
0.531901
0.495948
0.482665
0.46994
0.462406
0.451054
0.448599
0.45674
0.482828
0.508252
0.540576
0.577432
0.617875
0.661989
0.710888
0.764647
0.821774
0.881634
0.943682
1.00653
1.06927
1.13235
1.18158
1.19319
1.18332
1.13307
1.04027
1.00249
1.00003
1
1
1
1
0.572211
0.564208
0.53192
0.496938
0.48442
0.470478
0.462566
0.451198
0.44899
0.459413
0.485075
0.511733
0.54374
0.58103
0.621495
0.665982
0.715597
0.769585
0.827483
0.888487
0.950964
1.01361
1.07637
1.14038
1.18664
1.19356
1.18252
1.12341
1.03017
1.00151
1.00002
1
1
1
1
0.572699
0.564376
0.531654
0.497038
0.485164
0.470619
0.46234
0.451333
0.449433
0.461373
0.485265
0.5141
0.545799
0.583344
0.624666
0.668378
0.718632
0.772274
0.830056
0.891789
0.955
1.01834
1.08397
1.15153
1.19112
1.19398
1.18188
1.10783
1.02209
1.00091
1.00001
1
1
1
1
0.572998
0.563907
0.53002
0.496099
0.484995
0.469806
0.460968
0.451632
0.45018
0.464897
0.484135
0.516209
0.547811
0.587087
0.630633
0.676594
0.727473
0.782218
0.839575
0.899401
0.962978
1.03022
1.10203
1.16453
1.19385
1.19427
1.17251
1.09379
1.01606
1.00053
1.00001
1
1
1
1
0.572842
0.561877
0.528248
0.495526
0.483791
0.467748
0.458858
0.451894
0.450407
0.469432
0.486768
0.520847
0.557911
0.601753
0.6483
0.697023
0.750019
0.807026
0.866158
0.927454
0.991177
1.05651
1.12042
1.17334
1.19528
1.19362
1.16276
1.0811
1.01129
1.00031
1
1
1
1
1
0.571872
0.55961
0.527758
0.495493
0.482144
0.465493
0.456167
0.451902
0.450298
0.471854
0.494019
0.529013
0.565822
0.609678
0.656795
0.706104
0.759912
0.818307
0.87941
0.94271
1.00674
1.06932
1.13004
1.17978
1.19614
1.19153
1.15677
1.06879
1.0077
1.00017
1
1
1
1
1
0.570528
0.5588
0.528489
0.497325
0.480526
0.463423
0.45272
0.450715
0.451725
0.472449
0.498762
0.532931
0.569156
0.613309
0.660753
0.710601
0.765092
0.823989
0.886401
0.950579
1.01449
1.07702
1.13876
1.18611
1.19674
1.19125
1.15143
1.056
1.00496
1.00009
1
1
1
1
1
0.569171
0.558876
0.532775
0.501193
0.479394
0.461642
0.450371
0.449973
0.455888
0.471643
0.50362
0.536257
0.5735
0.615497
0.663088
0.712239
0.767338
0.826259
0.889353
0.95497
1.02031
1.0862
1.15144
1.19164
1.19721
1.19147
1.13892
1.04271
1.00291
1.00005
1
1
1
1
1
0.568614
0.561192
0.537811
0.504589
0.47884
0.460052
0.449419
0.451859
0.461884
0.473036
0.510518
0.54165
0.579596
0.621152
0.668992
0.721533
0.778847
0.839653
0.902742
0.968213
1.03733
1.10722
1.16543
1.19511
1.19738
1.18557
1.12071
1.03119
1.00172
1.00002
1
1
1
1
1
0.56917
0.565216
0.540796
0.506352
0.478182
0.458429
0.449391
0.452938
0.466254
0.483646
0.521336
0.558474
0.597394
0.644338
0.694478
0.748782
0.807721
0.869625
0.933695
0.999329
1.06442
1.12532
1.17456
1.19687
1.19695
1.17681
1.10754
1.02359
1.00106
1.00001
1
1
1
1
1
0.572187
0.569949
0.541943
0.506769
0.475797
0.456553
0.449614
0.453419
0.46945
0.495485
0.53139
0.570719
0.609397
0.656226
0.707094
0.761138
0.820423
0.883482
0.948402
1.01377
1.07657
1.13522
1.18148
1.19805
1.19586
1.17166
1.09572
1.01683
1.00059
1.00001
1
1
1
1
1
0.579072
0.574587
0.542303
0.506557
0.472808
0.454633
0.449914
0.455682
0.471975
0.500801
0.534381
0.574233
0.613636
0.660256
0.712422
0.767
0.826755
0.890863
0.956968
1.02248
1.08548
1.14522
1.18841
1.19902
1.19599
1.16829
1.0806
1.01075
1.00029
1
1
1
1
1
1
0.586851
0.576848
0.542235
0.504521
0.470487
0.45396
0.451569
0.457824
0.472135
0.50201
0.535527
0.573744
0.615012
0.660557
0.714039
0.769407
0.829718
0.894677
0.962439
1.03059
1.09826
1.15937
1.19415
1.19972
1.19651
1.15864
1.06299
1.00651
1.00015
1
1
1
1
1
1
0.589821
0.576506
0.539724
0.502313
0.469371
0.454297
0.452792
0.458175
0.471091
0.501781
0.534765
0.572734
0.615078
0.665616
0.721975
0.783431
0.848816
0.916365
0.985003
1.05533
1.12202
1.17247
1.19742
1.20001
1.1932
1.1396
1.04778
1.00397
1.00007
1
1
1
1
1
1
0.589615
0.572349
0.536786
0.500563
0.469192
0.455601
0.451944
0.456925
0.474364
0.50523
0.542777
0.587959
0.636218
0.694045
0.754029
0.817105
0.882402
0.949335
1.01704
1.08158
1.13818
1.18065
1.19892
1.1997
1.18532
1.1265
1.03705
1.00242
1.00004
1
1
1
1
1
1
0.589249
0.569703
0.536089
0.50006
0.469695
0.456836
0.451364
0.454011
0.483906
0.52117
0.563479
0.609703
0.656124
0.710707
0.769601
0.83173
0.897201
0.964288
1.03105
1.09347
1.14817
1.18717
1.19975
1.19826
1.18023
1.11516
1.02711
1.00134
1.00002
1
1
1
1
1
1
0.588869
0.569539
0.536936
0.500287
0.469833
0.457027
0.453295
0.458795
0.494059
0.531104
0.570593
0.618171
0.662771
0.717004
0.777035
0.83921
0.905429
0.974017
1.04157
1.1045
1.15948
1.19321
1.20027
1.19814
1.17735
1.09892
1.01749
1.00065
1.00001
1
1
1
1
1
1
0.583065
0.56933
0.538044
0.499743
0.467515
0.454902
0.454539
0.465959
0.501694
0.534873
0.573926
0.620841
0.667632
0.719332
0.780767
0.843825
0.911502
0.983041
1.05477
1.1221
1.17333
1.19733
1.20064
1.19872
1.16936
1.07785
1.01065
1.00032
1
1
1
1
1
1
1
0.579694
0.568452
0.538875
0.494146
0.46058
0.450928
0.454389
0.467745
0.503752
0.536155
0.579123
0.622992
0.674312
0.732707
0.798712
0.86978
0.94313
1.01601
1.08552
1.14444
1.18329
1.19929
1.20077
1.19579
1.14963
1.06029
1.00659
1.00016
1
1
1
1
1
1
1
0.579998
0.5701
0.535907
0.485922
0.45608
0.448628
0.454036
0.469849
0.503459
0.541348
0.592704
0.650098
0.706058
0.770711
0.838826
0.907385
0.976685
1.04501
1.1071
1.15733
1.18941
1.20028
1.20047
1.18834
1.13609
1.04699
1.00388
1.00007
1
1
1
1
1
1
1
0.586255
0.570721
0.528703
0.480618
0.455626
0.448596
0.456286
0.482785
0.520745
0.567514
0.618446
0.673368
0.727415
0.789506
0.855728
0.923661
0.992569
1.05948
1.11947
1.16716
1.19451
1.20095
1.19947
1.18364
1.1249
1.03433
1.00212
1.00003
1
1
1
1
1
1
1
0.595936
0.571248
0.520617
0.477661
0.460742
0.454563
0.462803
0.496745
0.5333
0.580133
0.6255
0.680712
0.734846
0.797828
0.86572
0.934504
1.00492
1.07328
1.13405
1.17861
1.19846
1.20143
1.19976
1.18164
1.1083
1.02211
1.00101
1.00001
1
1
1
1
1
1
1
0.60434
0.570994
0.516696
0.476947
0.465036
0.461556
0.468032
0.501992
0.535746
0.582072
0.628845
0.681395
0.738814
0.801895
0.873646
0.947718
1.02316
1.09585
1.15467
1.18853
1.20042
1.20191
1.20025
1.17439
1.08448
1.01301
1.00045
1.00001
1
1
1
1
1
1
1
0.608841
0.571166
0.518505
0.479357
0.465127
0.462965
0.469161
0.501629
0.539637
0.580611
0.633466
0.687766
0.751188
0.829077
0.909488
0.988375
1.06178
1.12531
1.17044
1.1941
1.20111
1.20199
1.19716
1.15293
1.06462
1.00782
1.00021
1
1
1
1
1
1
1
1
0.609177
0.571315
0.529872
0.484398
0.46017
0.457103
0.468697
0.498448
0.544969
0.598041
0.657715
0.734238
0.803562
0.87657
0.950643
1.02058
1.08634
1.1417
1.17976
1.19746
1.20135
1.20077
1.18896
1.13795
1.04984
1.00449
1.00009
1
1
1
1
1
1
1
1
0.603077
0.571746
0.538217
0.484929
0.453541
0.446655
0.467761
0.510602
0.57072
0.635092
0.699199
0.765479
0.829294
0.89881
0.969639
1.03852
1.1028
1.1549
1.18814
1.19984
1.20137
1.19911
1.18319
1.12558
1.03545
1.0023
1.00004
1
1
1
1
1
1
1
1
0.597685
0.572327
0.538554
0.482368
0.451333
0.446432
0.487304
0.543588
0.59642
0.655755
0.712588
0.776887
0.842002
0.912798
0.98545
1.05652
1.12218
1.17074
1.19522
1.20109
1.20136
1.19926
1.1803
1.10679
1.0216
1.00101
1.00001
1
1
1
1
1
1
1
1
0.596941
0.575269
0.533188
0.473163
0.454325
0.459871
0.509687
0.558687
0.602399
0.659355
0.718675
0.781718
0.851718
0.929486
1.01062
1.08742
1.14811
1.18426
1.19889
1.20142
1.20138
1.19979
1.17079
1.07957
1.0118
1.00041
1
1
1
1
1
1
1
1
1
0.60137
0.581963
0.525648
0.464942
0.457668
0.480142
0.518604
0.559622
0.606549
0.656374
0.723638
0.804916
0.889277
0.975437
1.05444
1.11961
1.16659
1.1917
1.20037
1.20144
1.20156
1.19467
1.14639
1.05821
1.00661
1.00017
1
1
1
1
1
1
1
1
1
0.612599
0.585551
0.519874
0.461627
0.458275
0.487755
0.524967
0.55933
0.614785
0.688011
0.772569
0.862008
0.939349
1.01435
1.0828
1.139
1.1782
1.1964
1.20108
1.20111
1.19992
1.18517
1.12999
1.04316
1.00351
1.00007
1
1
1
1
1
1
1
1
1
0.621676
0.581589
0.507189
0.458446
0.461815
0.493373
0.530642
0.590517
0.663435
0.742049
0.819963
0.895597
0.966954
1.03852
1.1043
1.15643
1.18839
1.19959
1.20137
1.20114
1.1984
1.17902
1.11557
1.02835
1.0016
1.00002
1
1
1
1
1
1
1
1
1
0.62491
0.575645
0.501601
0.457473
0.476994
0.511441
0.562052
0.62937
0.696429
0.769337
0.842791
0.917627
0.991167
1.06469
1.13064
1.17519
1.1955
1.20122
1.20181
1.20171
1.19925
1.17505
1.09159
1.0151
1.0006
1.00001
1
1
1
1
1
1
1
1
1
0.62451
0.573599
0.507451
0.467838
0.485161
0.534721
0.582971
0.647677
0.711504
0.784215
0.864437
0.946411
1.02764
1.10217
1.15829
1.18817
1.19884
1.20199
1.20228
1.202
1.1982
1.15753
1.06204
1.00722
1.00021
1
1
1
1
1
1
1
1
1
1
0.618066
0.567645
0.510331
0.47226
0.486255
0.541221
0.590204
0.653732
0.728766
0.811977
0.906075
0.998004
1.07352
1.13434
1.17561
1.19495
1.20055
1.20232
1.2021
1.20134
1.18719
1.12816
1.04165
1.00361
1.00008
1
1
1
1
1
1
1
1
1
1
0.61633
0.556514
0.498483
0.470803
0.483281
0.533554
0.599761
0.673624
0.774153
0.87505
0.96438
1.04144
1.10519
1.15556
1.18728
1.19893
1.20155
1.20231
1.20103
1.19772
1.17563
1.10966
1.02794
1.00164
1.00003
1
1
1
1
1
1
1
1
1
1
0.631363
0.54636
0.474613
0.452534
0.487086
0.546095
0.644147
0.747892
0.837842
0.922843
1.00211
1.07294
1.13189
1.17413
1.19613
1.2009
1.20186
1.20211
1.20062
1.19439
1.16717
1.08987
1.01515
1.0006
1.00001
1
1
1
1
1
1
1
1
1
1
0.650287
0.538254
0.454474
0.439954
0.501703
0.614638
0.711786
0.794872
0.875225
0.957887
1.03746
1.1081
1.16018
1.18864
1.20081
1.20159
1.20176
1.2018
1.20133
1.19416
1.15501
1.05935
1.00636
1.00018
1
1
1
1
1
1
1
1
1
1
1
0.652663
0.519715
0.443103
0.446301
0.56473
0.667813
0.743015
0.82429
0.912938
1.0033
1.08437
1.14577
1.18111
1.19606
1.20257
1.20176
1.20156
1.20138
1.20139
1.19069
1.12319
1.03364
1.00249
1.00005
1
1
1
1
1
1
1
1
1
1
1
0.642917
0.498875
0.437778
0.501583
0.616884
0.694484
0.772637
0.868763
0.971134
1.06153
1.12868
1.17143
1.19237
1.19927
1.20308
1.20173
1.20164
1.20075
1.19794
1.16976
1.09321
1.01949
1.00099
1.00002
1
1
1
1
1
1
1
1
1
1
1
0.635309
0.490373
0.451008
0.56262
0.633525
0.715558
0.831157
0.945796
1.03725
1.10865
1.15855
1.1875
1.19828
1.2005
1.20325
1.20161
1.20199
1.20005
1.19092
1.15302
1.07138
1.01019
1.00034
1
1
1
1
1
1
1
1
1
1
1
1
0.62528
0.482882
0.47199
0.589911
0.67426
0.790787
0.91804
1.01213
1.08699
1.14438
1.18066
1.19751
1.20057
1.2008
1.20332
1.20144
1.20221
1.20077
1.18629
1.13655
1.04575
1.0039
1.00009
1
1
1
1
1
1
1
1
1
1
1
1
0.595451
0.475882
0.522642
0.613315
0.745294
0.890756
0.988745
1.06653
1.13037
1.17382
1.19514
1.20184
1.20095
1.20068
1.20347
1.20124
1.20203
1.2012
1.18266
1.10476
1.02113
1.00113
1.00002
1
1
1
1
1
1
1
1
1
1
1
1
0.578355
0.509242
0.576779
0.706577
0.85707
0.96535
1.0494
1.11965
1.16751
1.19229
1.20149
1.20278
1.20095
1.20049
1.20367
1.20143
1.20033
1.19582
1.15723
1.0663
1.00888
1.00031
1
1
1
1
1
1
1
1
1
1
1
1
1
0.417664
0.516136
0.649697
0.817248
0.943694
1.03561
1.11223
1.1625
1.18971
1.20054
1.20345
1.20288
1.20038
1.20043
1.20407
1.20177
1.1984
1.18258
1.1258
1.0413
1.00376
1.00009
1
1
1
1
1
1
1
1
1
1
1
1
1
0.262777
0.545363
0.766927
0.920296
1.02663
1.10892
1.16024
1.18767
1.1999
1.20332
1.20373
1.2025
1.2002
1.20044
1.20435
1.20176
1.19738
1.17152
1.1007
1.02223
1.00117
1.00002
1
1
1
1
1
1
1
1
1
1
1
1
1
0.315281
0.668266
0.88861
1.01931
1.10695
1.16093
1.18808
1.19916
1.20311
1.2038
1.20368
1.20196
1.20011
1.20101
1.20447
1.20045
1.19705
1.15756
1.06426
1.00738
1.00023
1
1
1
1
1
1
1
1
1
1
1
1
1
1
0.286771
0.764294
0.992284
1.10885
1.16596
1.1904
1.19997
1.20244
1.20348
1.20375
1.20347
1.20159
1.20007
1.2016
1.20439
1.19808
1.18355
1.11879
1.02908
1.00181
1.00004
1
1
1
1
1
1
1
1
1
1
1
1
1
1
0.58604
0.931217
1.10975
1.17232
1.19434
1.20145
1.20291
1.20281
1.20306
1.20357
1.20335
1.20147
1.20006
1.20207
1.20352
1.19356
1.1608
1.07811
1.01197
1.00043
1.00001
1
1
1
1
1
1
1
1
1
1
1
1
1
1
0.952436
1.12253
1.18332
1.19882
1.20295
1.20339
1.20305
1.20247
1.20293
1.20365
1.20331
1.20116
1.20001
1.20241
1.20303
1.18591
1.1368
1.04507
1.00344
1.00005
1
1
1
1
1
1
1
1
1
1
1
1
1
1
1
1.20277
1.20344
1.20403
1.20425
1.20414
1.20329
1.20256
1.20234
1.20317
1.204
1.20312
1.20087
1.19981
1.20255
1.20121
1.17449
1.101
1.01308
0.999838
0.999984
1
1
1
1
1
1
1
1
1
1
1
1
1
1
1
1.20273
1.20326
1.20391
1.20423
1.20422
1.20343
1.20269
1.20226
1.20298
1.20416
1.20363
1.2016
1.19884
1.20014
1.20031
1.17446
1.08756
1.013
1.00041
1
1
1
1
1
1
1
1
1
1
1
1
1
1
1
1
1.20299
1.2033
1.20399
1.20439
1.20433
1.20372
1.20292
1.20249
1.20281
1.20391
1.20366
1.20218
1.19817
1.19796
1.19748
1.15907
1.06343
1.00523
1.00007
1
1
1
1
1
1
1
1
1
1
1
1
1
1
1
1
1.20313
1.20327
1.20387
1.20436
1.20443
1.20418
1.20352
1.20289
1.20252
1.20309
1.20326
1.20289
1.19811
1.19532
1.19478
1.14581
1.04603
1.00267
1.00003
1
1
1
1
1
1
1
1
1
1
1
1
1
1
1
1
1.20318
1.20318
1.2035
1.20404
1.20449
1.20448
1.20415
1.20321
1.20225
1.20194
1.2028
1.20339
1.20023
1.19469
1.19126
1.12594
1.02967
1.00114
1.00001
1
1
1
1
1
1
1
1
1
1
1
1
1
1
1
1
1.20311
1.20303
1.20311
1.20349
1.20425
1.20459
1.20457
1.20358
1.20201
1.2011
1.20242
1.20407
1.20229
1.19461
1.18352
1.10306
1.0173
1.00048
1
1
1
1
1
1
1
1
1
1
1
1
1
1
1
1
1
1.20315
1.20297
1.20283
1.20306
1.20386
1.20462
1.20471
1.20385
1.20188
1.20068
1.20211
1.20495
1.20346
1.19286
1.16756
1.08107
1.00932
1.00018
1
1
1
1
1
1
1
1
1
1
1
1
1
1
1
1
1
1.20332
1.20298
1.20275
1.20286
1.20355
1.2045
1.20468
1.20392
1.20184
1.20046
1.20165
1.20522
1.20369
1.19114
1.15521
1.06169
1.00476
1.00007
1
1
1
1
1
1
1
1
1
1
1
1
1
1
1
1
1
1.20352
1.20311
1.20281
1.2028
1.2033
1.2042
1.20448
1.20392
1.20182
1.20037
1.20089
1.20461
1.20339
1.18955
1.14086
1.04191
1.0022
1.00002
1
1
1
1
1
1
1
1
1
1
1
1
1
1
1
1
1
1.2037
1.2035
1.20319
1.20297
1.20323
1.20383
1.20422
1.204
1.20218
1.20051
1.20038
1.20288
1.20147
1.18094
1.12003
1.02483
1.00088
1.00001
1
1
1
1
1
1
1
1
1
1
1
1
1
1
1
1
1
1.20376
1.20381
1.2037
1.20347
1.20351
1.20357
1.20388
1.20409
1.20315
1.20113
1.20025
1.20205
1.20024
1.17252
1.09707
1.01439
1.00035
1
1
1
1
1
1
1
1
1
1
1
1
1
1
1
1
1
1
1.20369
1.20391
1.20407
1.20408
1.20374
1.20343
1.20329
1.2042
1.20395
1.20269
1.20007
1.20065
1.19968
1.16499
1.07392
1.00729
1.00012
1
1
1
1
1
1
1
1
1
1
1
1
1
1
1
1
1
1
1.20336
1.20386
1.20423
1.2045
1.2039
1.20316
1.20289
1.20384
1.20434
1.20425
1.19997
1.19749
1.19581
1.15034
1.0499
1.00319
1.00004
1
1
1
1
1
1
1
1
1
1
1
1
1
1
1
1
1
1
1.20271
1.20349
1.20426
1.20463
1.20406
1.20307
1.20265
1.20347
1.20457
1.20498
1.20094
1.19401
1.18903
1.12955
1.03274
1.0014
1.00001
1
1
1
1
1
1
1
1
1
1
1
1
1
1
1
1
1
1
1.20226
1.20296
1.20399
1.20458
1.20419
1.20313
1.20251
1.203
1.20452
1.20517
1.20226
1.19304
1.18333
1.10913
1.01917
1.00054
1
1
1
1
1
1
1
1
1
1
1
1
1
1
1
1
1
1
1
1.20215
1.20257
1.20355
1.20437
1.2043
1.20337
1.20241
1.20216
1.20362
1.20496
1.20293
1.19278
1.17427
1.08088
1.00905
1.00018
1
1
1
1
1
1
1
1
1
1
1
1
1
1
1
1
1
1
1
1.20217
1.20244
1.2032
1.20407
1.20425
1.2038
1.2024
1.20164
1.20242
1.20465
1.20282
1.18947
1.15353
1.05695
1.00429
1.00006
1
1
1
1
1
1
1
1
1
1
1
1
1
1
1
1
1
1
1
1.20265
1.20258
1.20306
1.20376
1.20429
1.20442
1.20316
1.20142
1.20124
1.20436
1.20284
1.18711
1.13562
1.03789
1.00177
1.00002
1
1
1
1
1
1
1
1
1
1
1
1
1
1
1
1
1
1
1
1.20371
1.20326
1.20305
1.20355
1.20442
1.20488
1.20409
1.20121
1.20009
1.2028
1.20262
1.18544
1.11256
1.02044
1.00061
1
1
1
1
1
1
1
1
1
1
1
1
1
1
1
1
1
1
1
1
1.20443
1.20372
1.20322
1.20331
1.20431
1.20515
1.20484
1.20194
1.19923
1.19996
1.19972
1.17056
1.08566
1.01039
1.00021
1
1
1
1
1
1
1
1
1
1
1
1
1
1
1
1
1
1
1
1
1.20464
1.20392
1.20329
1.20313
1.20401
1.20522
1.20519
1.20338
1.19936
1.19895
1.19745
1.15587
1.06204
1.00481
1.00007
1
1
1
1
1
1
1
1
1
1
1
1
1
1
1
1
1
1
1
1
1.20455
1.20395
1.20331
1.20309
1.20351
1.20481
1.20525
1.20485
1.20125
1.1987
1.19633
1.13751
1.03723
1.00177
1.00002
1
1
1
1
1
1
1
1
1
1
1
1
1
1
1
1
1
1
1
1
1.20351
1.20352
1.20329
1.20321
1.203
1.20361
1.20495
1.20564
1.20301
1.19642
1.18584
1.10887
1.01971
1.00061
1
1
1
1
1
1
1
1
1
1
1
1
1
1
1
1
1
1
1
1
1
1.20222
1.20285
1.20326
1.20345
1.20278
1.20252
1.2039
1.20591
1.20403
1.1936
1.17017
1.08445
1.01006
1.00019
1
1
1
1
1
1
1
1
1
1
1
1
1
1
1
1
1
1
1
1
1
1.20163
1.20251
1.20341
1.20368
1.20272
1.20186
1.20265
1.20596
1.20428
1.19247
1.15577
1.05773
1.00396
1.00005
1
1
1
1
1
1
1
1
1
1
1
1
1
1
1
1
1
1
1
1
1
1.20148
1.20234
1.20376
1.20444
1.20332
1.20149
1.20131
1.20418
1.20357
1.18968
1.13312
1.03255
1.0014
1.00001
1
1
1
1
1
1
1
1
1
1
1
1
1
1
1
1
1
1
1
1
1
1.20158
1.20226
1.20399
1.20505
1.20441
1.20172
1.20081
1.203
1.20195
1.17756
1.10527
1.01754
1.00047
1
1
1
1
1
1
1
1
1
1
1
1
1
1
1
1
1
1
1
1
1
1
1.20235
1.20257
1.20409
1.20518
1.2051
1.203
1.20103
1.20294
1.20171
1.16702
1.07695
1.00762
1.00013
1
1
1
1
1
1
1
1
1
1
1
1
1
1
1
1
1
1
1
1
1
1
1.20315
1.20303
1.20402
1.20516
1.20545
1.20478
1.20207
1.20241
1.2006
1.1481
1.04543
1.00263
1.00003
1
1
1
1
1
1
1
1
1
1
1
1
1
1
1
1
1
1
1
1
1
1
1.20364
1.20323
1.20346
1.20424
1.20547
1.20673
1.20369
1.19807
1.18934
1.11823
1.02484
1.00087
1.00001
1
1
1
1
1
1
1
1
1
1
1
1
1
1
1
1
1
1
1
1
1
1
1.20378
1.20321
1.2025
1.20235
1.20461
1.20735
1.20589
1.19616
1.17599
1.09144
1.01156
1.00024
1
1
1
1
1
1
1
1
1
1
1
1
1
1
1
1
1
1
1
1
1
1
1
1.2034
1.20268
1.20181
1.201
1.2027
1.20725
1.20676
1.19645
1.15977
1.05741
1.00395
1.00005
1
1
1
1
1
1
1
1
1
1
1
1
1
1
1
1
1
1
1
1
1
1
1
1.20295
1.20242
1.20164
1.20036
1.20111
1.20557
1.20638
1.1908
1.13201
1.03145
1.0013
1.00001
1
1
1
1
1
1
1
1
1
1
1
1
1
1
1
1
1
1
1
1
1
1
1
1.20233
1.2022
1.20181
1.20061
1.20077
1.20472
1.20526
1.17939
1.10192
1.01512
1.00036
1
1
1
1
1
1
1
1
1
1
1
1
1
1
1
1
1
1
1
1
1
1
1
1
1.20178
1.2018
1.20241
1.20273
1.20098
1.20513
1.20589
1.16612
1.06596
1.00523
1.00008
1
1
1
1
1
1
1
1
1
1
1
1
1
1
1
1
1
1
1
1
1
1
1
1
1.20177
1.20162
1.20331
1.20504
1.203
1.20431
1.20172
1.1364
1.03384
1.00151
1.00002
1
1
1
1
1
1
1
1
1
1
1
1
1
1
1
1
1
1
1
1
1
1
1
1
1.20209
1.20152
1.20354
1.20777
1.20733
1.20084
1.18642
1.10255
1.01597
1.0004
1
1
1
1
1
1
1
1
1
1
1
1
1
1
1
1
1
1
1
1
1
1
1
1
1
1.20223
1.20137
1.20206
1.20938
1.21191
1.20038
1.16737
1.06785
1.00541
1.00008
1
1
1
1
1
1
1
1
1
1
1
1
1
1
1
1
1
1
1
1
1
1
1
1
1
1.20142
1.20067
1.20046
1.21035
1.21298
1.19993
1.13794
1.03269
1.00138
1.00001
1
1
1
1
1
1
1
1
1
1
1
1
1
1
1
1
1
1
1
1
1
1
1
1
1
1.20034
1.2003
1.19947
1.20948
1.21269
1.18412
1.09838
1.01361
1.00032
1
1
1
1
1
1
1
1
1
1
1
1
1
1
1
1
1
1
1
1
1
1
1
1
1
1
1.1991
1.20123
1.20172
1.20815
1.21024
1.16408
1.06164
1.0043
1.00006
1
1
1
1
1
1
1
1
1
1
1
1
1
1
1
1
1
1
1
1
1
1
1
1
1
1
1.19729
1.20281
1.20652
1.20722
1.20534
1.13268
1.02712
1.00098
1.00001
1
1
1
1
1
1
1
1
1
1
1
1
1
1
1
1
1
1
1
1
1
1
1
1
1
1
1.19591
1.20457
1.21246
1.20393
1.18453
1.08607
1.00911
1.00018
1
1
1
1
1
1
1
1
1
1
1
1
1
1
1
1
1
1
1
1
1
1
1
1
1
1
1
1.19577
1.20827
1.21663
1.20046
1.1538
1.04611
1.00257
1.00003
1
1
1
1
1
1
1
1
1
1
1
1
1
1
1
1
1
1
1
1
1
1
1
1
1
1
1
1.20083
1.21335
1.21892
1.19368
1.11363
1.01726
1.00046
1
1
1
1
1
1
1
1
1
1
1
1
1
1
1
1
1
1
1
1
1
1
1
1
1
1
1
1
1.20782
1.215
1.21947
1.17456
1.06125
1.00437
1.00007
1
1
1
1
1
1
1
1
1
1
1
1
1
1
1
1
1
1
1
1
1
1
1
1
1
1
1
1
1.21388
1.21097
1.21028
1.12689
1.02497
1.00089
1.00001
1
1
1
1
1
1
1
1
1
1
1
1
1
1
1
1
1
1
1
1
1
1
1
1
1
1
1
1
1.23379
1.19844
1.18184
1.07726
1.00758
1.00014
1
1
1
1
1
1
1
1
1
1
1
1
1
1
1
1
1
1
1
1
1
1
1
1
1
1
1
1
1
1.25167
1.18444
1.13705
1.03259
1.00154
1.00002
1
1
1
1
1
1
1
1
1
1
1
1
1
1
1
1
1
1
1
1
1
1
1
1
1
1
1
1
1
1.25887
1.16486
1.08066
1.00996