/*--------------------------------*- C++ -*----------------------------------*\
  =========                 |
  \\      /  F ield         | OpenFOAM: The Open Source CFD Toolbox
   \\    /   O peration     | Website:  https://openfoam.org
    \\  /    A nd           | Version:  7
     \\/     M anipulation  |
\*---------------------------------------------------------------------------*/
FoamFile
{
    version     2.0;
    format      ascii;
    class       volScalarField;
    location    "10";
    object      rho;
}
// * * * * * * * * * * * * * * * * * * * * * * * * * * * * * * * * * * * * * //

dimensions      [1 -3 0 0 0 0 0];

internalField   nonuniform List<scalar> 
90000
(
0.186233
0.226988
0.266483
0.307414
0.334001
0.357587
0.398619
0.437419
0.469948
0.513522
0.558254
0.601828
0.644582
0.689176
0.730052
0.765531
0.79815
0.821975
0.840183
0.85104
0.854943
0.856807
0.855812
0.849575
0.846523
0.843025
0.843648
0.846985
0.849535
0.854594
0.865061
0.877463
0.884296
0.888243
0.892591
0.898563
0.904676
0.911026
0.918099
0.92475
0.931272
0.937793
0.944826
0.952282
0.960104
0.968682
0.97851
0.989598
1.00234
1.01513
1.02711
1.03576
1.04317
1.04365
1.04176
1.03907
1.03704
1.03445
1.03402
1.03602
1.03969
1.04488
1.05047
1.05375
1.05655
1.05705
1.05575
1.0523
1.04825
1.04539
1.04606
1.04933
1.05114
1.05172
1.05041
1.04708
1.04648
1.04828
1.05198
1.05349
1.05343
1.05378
1.0576
1.06476
1.07185
1.07779
1.08418
1.09231
1.09869
1.10349
1.1073
1.11276
1.11728
1.12192
1.12533
1.12941
1.13364
1.13832
1.14274
1.14746
0.144599
0.144621
0.144649
0.144683
0.144732
0.144784
0.14485
0.14496
0.145914
0.149622
0.156689
0.167893
0.184146
0.207067
0.238072
0.276484
0.32501
0.38296
0.445516
0.51099
0.573122
0.636895
0.684866
0.726617
0.755797
0.776043
0.783861
0.787663
0.782938
0.779522
0.77473
0.774679
0.77574
0.774182
0.776145
0.780005
0.782971
0.785712
0.79219
0.803403
0.819044
0.835923
0.852121
0.866746
0.880111
0.891543
0.900852
0.908924
0.91574
0.922658
0.928514
0.936386
0.943264
0.94996
0.956244
0.964257
0.974679
0.985294
0.995916
1.00516
1.01357
1.02252
1.02781
1.03095
1.03047
1.03097
1.03189
1.03482
1.03796
1.04214
1.04656
1.05114
1.05111
1.04953
1.0452
1.04461
1.04636
1.05115
1.0537
1.05415
1.05419
1.05655
1.06334
1.07002
1.07626
1.08137
1.09017
1.09669
1.10391
1.10696
1.1114
1.11635
1.11957
1.12338
1.12659
1.13019
1.13398
1.13909
1.14378
1.14949
0.145322
0.145406
0.1455
0.145605
0.145717
0.145838
0.145968
0.146099
0.146248
0.146323
0.146399
0.146491
0.146587
0.146685
0.146783
0.1469
0.146996
0.147338
0.150866
0.161276
0.180476
0.21041
0.25408
0.307007
0.375284
0.445432
0.512367
0.572634
0.623467
0.665812
0.70121
0.725618
0.748391
0.75545
0.760105
0.756099
0.745488
0.73684
0.727643
0.720412
0.718234
0.720214
0.728509
0.743236
0.762944
0.782291
0.798079
0.807831
0.814163
0.817789
0.822047
0.828904
0.840934
0.856765
0.872747
0.887378
0.900494
0.911511
0.921426
0.929979
0.938771
0.947884
0.957957
0.96822
0.978246
0.988262
0.998498
1.00975
1.01957
1.02886
1.033
1.03166
1.02989
1.03181
1.03592
1.04271
1.04811
1.05242
1.05287
1.05264
1.05424
1.06125
1.06917
1.07392
1.07871
1.08549
1.09546
1.10143
1.10734
1.1101
1.11599
1.11919
1.12192
1.12518
1.12796
1.13126
1.13481
1.1397
1.14434
1.15095
0.146405
0.1465
0.146597
0.146697
0.146795
0.146898
0.147
0.147106
0.147204
0.147303
0.147402
0.147501
0.147597
0.147696
0.147789
0.147883
0.147972
0.148075
0.148126
0.14818
0.148239
0.148303
0.148385
0.148456
0.148619
0.153078
0.168247
0.194238
0.23738
0.290668
0.363537
0.438244
0.519407
0.588873
0.646875
0.692366
0.713428
0.734767
0.728793
0.72157
0.71237
0.699427
0.693785
0.688457
0.688824
0.693468
0.705858
0.723178
0.738794
0.750551
0.75662
0.75923
0.763187
0.769638
0.778547
0.789235
0.798713
0.806813
0.815558
0.826597
0.840835
0.856483
0.871804
0.886566
0.901189
0.91497
0.928722
0.94128
0.953216
0.964035
0.974908
0.984244
0.995834
1.00848
1.02131
1.03535
1.03874
1.03717
1.03855
1.04445
1.05386
1.06461
1.07095
1.07475
1.07923
1.08856
1.09781
1.10304
1.10842
1.11295
1.11943
1.12176
1.12505
1.12769
1.13044
1.1335
1.13619
1.14022
1.14486
1.15164
0.147386
0.147442
0.147499
0.147555
0.147615
0.147678
0.147744
0.147808
0.147873
0.147934
0.147995
0.148058
0.14812
0.148182
0.148246
0.148312
0.14838
0.148448
0.148513
0.148588
0.148668
0.148756
0.148845
0.14893
0.149016
0.149061
0.149099
0.149135
0.149164
0.149204
0.149226
0.154766
0.172174
0.212793
0.269557
0.357406
0.447022
0.547057
0.618023
0.66487
0.701451
0.704724
0.70251
0.695036
0.682059
0.675072
0.668667
0.669664
0.676313
0.690818
0.70743
0.718957
0.725202
0.719968
0.713137
0.712819
0.717857
0.730085
0.744754
0.757101
0.765513
0.772996
0.783823
0.79737
0.811102
0.823959
0.83612
0.851364
0.867802
0.884632
0.903773
0.922946
0.941028
0.955006
0.967331
0.977512
0.989779
1.00281
1.01721
1.03342
1.04825
1.05943
1.06167
1.06745
1.07698
1.08984
1.09713
1.10217
1.10738
1.11372
1.12023
1.12258
1.1272
1.13056
1.13421
1.138
1.14046
1.14203
1.14446
1.15072
0.147969
0.148005
0.148042
0.148083
0.148124
0.148169
0.148215
0.148259
0.148307
0.148354
0.148402
0.148452
0.148503
0.148557
0.148614
0.14867
0.148731
0.14879
0.148853
0.14892
0.14899
0.149068
0.149149
0.149217
0.149272
0.149327
0.149376
0.149407
0.149434
0.14945
0.149457
0.14945
0.149441
0.149439
0.149444
0.149457
0.15706
0.183987
0.246256
0.329887
0.445026
0.538814
0.602156
0.658158
0.671678
0.678797
0.672554
0.665897
0.664898
0.667587
0.677388
0.692376
0.704663
0.704714
0.698954
0.691735
0.68668
0.68926
0.698246
0.709582
0.716592
0.719812
0.720825
0.724807
0.736393
0.750214
0.762283
0.77031
0.782959
0.798816
0.815408
0.832746
0.849797
0.866696
0.883661
0.904249
0.928908
0.952495
0.971743
0.987106
0.999116
1.01313
1.03002
1.05094
1.07041
1.07704
1.07926
1.08805
1.09838
1.10823
1.11497
1.12098
1.12795
1.13158
1.13578
1.14035
1.14427
1.14558
1.14475
1.14826
0.148396
0.148425
0.148457
0.148491
0.148526
0.148562
0.148598
0.148634
0.148674
0.148714
0.148753
0.148798
0.148845
0.148894
0.148943
0.148991
0.149042
0.149095
0.149148
0.149203
0.149259
0.149327
0.149393
0.149438
0.149474
0.149507
0.149527
0.149535
0.149544
0.149545
0.14953
0.149522
0.149522
0.149526
0.149542
0.149574
0.149613
0.149661
0.149701
0.149713
0.156866
0.192024
0.254789
0.358825
0.467054
0.558882
0.625076
0.650115
0.666574
0.667876
0.673016
0.677318
0.684058
0.686347
0.689407
0.688847
0.685735
0.682529
0.682713
0.684176
0.689429
0.695448
0.699073
0.700187
0.700445
0.703919
0.711554
0.718591
0.723751
0.732873
0.745884
0.759104
0.773096
0.788695
0.805746
0.824439
0.844301
0.865197
0.885362
0.907076
0.931397
0.957666
0.983275
1.00508
1.0178
1.03211
1.04877
1.06735
1.08093
1.08773
1.0954
1.10578
1.11651
1.12423
1.13263
1.13937
1.14464
1.14644
1.14673
1.14749
0.148737
0.148763
0.148793
0.148824
0.148857
0.148891
0.148924
0.148958
0.148994
0.149028
0.14906
0.1491
0.149142
0.149183
0.149222
0.149259
0.149296
0.149336
0.149377
0.149415
0.149457
0.149509
0.149558
0.149589
0.149609
0.149625
0.149631
0.149631
0.149629
0.149619
0.149594
0.149586
0.149587
0.149594
0.149616
0.149662
0.149722
0.149776
0.14981
0.149815
0.149801
0.149775
0.149755
0.149726
0.165793
0.208862
0.298895
0.410843
0.522833
0.582462
0.634865
0.648095
0.659347
0.674139
0.686417
0.692044
0.690395
0.687376
0.684571
0.680295
0.679928
0.681852
0.685955
0.68884
0.689883
0.688489
0.689361
0.693642
0.698822
0.700936
0.705646
0.713464
0.72114
0.730121
0.743249
0.757306
0.772693
0.789258
0.808408
0.828868
0.851747
0.874045
0.896804
0.918396
0.942829
0.967822
0.989984
1.00764
1.02219
1.04062
1.05779
1.07155
1.08105
1.09075
1.10117
1.1106
1.12139
1.13368
1.1432
1.14797
0.149055
0.149082
0.14911
0.149138
0.149166
0.149196
0.149226
0.149255
0.149282
0.149305
0.149326
0.14935
0.149379
0.149411
0.149438
0.149462
0.149485
0.149511
0.149536
0.149561
0.149592
0.149631
0.149669
0.149689
0.149698
0.149706
0.14971
0.149704
0.149689
0.149659
0.149635
0.149634
0.149636
0.149649
0.149689
0.149753
0.149809
0.149847
0.149855
0.149845
0.149819
0.149779
0.149744
0.14972
0.1497
0.149689
0.149667
0.154473
0.186175
0.260307
0.370999
0.486487
0.570444
0.642542
0.671188
0.689622
0.694341
0.694157
0.688607
0.681409
0.678638
0.680087
0.683943
0.68783
0.688089
0.68746
0.685983
0.686293
0.688221
0.691288
0.690939
0.692633
0.697709
0.703296
0.708924
0.716765
0.725582
0.736657
0.749731
0.766518
0.783478
0.800698
0.818991
0.839955
0.863811
0.884478
0.904817
0.92534
0.949438
0.972842
0.99173
1.0092
1.02644
1.0435
1.05879
1.0704
1.08108
1.09248
1.10575
1.12579
0.149372
0.149394
0.149415
0.149434
0.149453
0.149472
0.149491
0.149508
0.149517
0.149525
0.149533
0.149541
0.149553
0.14957
0.14959
0.149606
0.14962
0.149634
0.149647
0.149662
0.149686
0.149721
0.149747
0.149756
0.149759
0.149758
0.149753
0.149741
0.149715
0.149672
0.149656
0.149657
0.149663
0.149692
0.149756
0.149822
0.149863
0.149877
0.149872
0.149847
0.14979
0.149732
0.149719
0.149715
0.14971
0.149704
0.149699
0.149703
0.14973
0.149858
0.149967
0.173867
0.234976
0.349746
0.47814
0.590919
0.666688
0.675758
0.685951
0.68619
0.684176
0.681303
0.682206
0.684971
0.686511
0.687428
0.687688
0.688224
0.688615
0.688024
0.687791
0.688009
0.68963
0.694976
0.69992
0.703023
0.707248
0.712998
0.720576
0.727886
0.738129
0.749674
0.764368
0.779259
0.795862
0.812813
0.829326
0.847471
0.865507
0.884973
0.90577
0.928234
0.94907
0.968656
0.988288
1.00866
1.02795
1.04282
1.05305
1.07247
0.149641
0.149646
0.14965
0.149654
0.149662
0.14967
0.149675
0.149673
0.149658
0.14965
0.149651
0.149651
0.149651
0.149655
0.149666
0.149678
0.149688
0.1497
0.14971
0.149721
0.149741
0.149768
0.149783
0.149785
0.149784
0.149778
0.149768
0.149753
0.149715
0.149673
0.149668
0.14967
0.149687
0.149746
0.14982
0.149868
0.149882
0.149872
0.149838
0.149778
0.149712
0.149702
0.149709
0.149725
0.149763
0.149815
0.149857
0.149895
0.149969
0.150126
0.150234
0.15027
0.150294
0.150283
0.169765
0.236718
0.379518
0.513698
0.62384
0.677054
0.686719
0.681863
0.681909
0.684457
0.684695
0.686931
0.690514
0.690964
0.689479
0.68784
0.687986
0.688742
0.690773
0.6934
0.696482
0.698442
0.700499
0.705434
0.71205
0.717283
0.723311
0.728317
0.732991
0.740859
0.751158
0.762985
0.777169
0.790427
0.805113
0.81877
0.834301
0.850121
0.868575
0.888743
0.907379
0.92443
0.944512
0.965654
0.981639
1.00578
0.149764
0.149744
0.149738
0.149738
0.149742
0.149745
0.149744
0.149729
0.149695
0.149679
0.14968
0.149682
0.149681
0.149682
0.149687
0.149698
0.14971
0.149722
0.149738
0.149761
0.149782
0.149799
0.149813
0.149819
0.149818
0.14981
0.149799
0.149785
0.14975
0.149724
0.149721
0.149725
0.149753
0.149809
0.149865
0.149864
0.149843
0.149809
0.149767
0.149714
0.149697
0.149701
0.149719
0.149797
0.149944
0.150058
0.150093
0.150105
0.150145
0.15024
0.150288
0.150276
0.150242
0.150199
0.150094
0.149823
0.149684
0.183626
0.276312
0.434081
0.577666
0.643111
0.681794
0.680484
0.683658
0.688865
0.694454
0.693051
0.689364
0.687519
0.689436
0.692636
0.69593
0.696745
0.698183
0.699595
0.701709
0.7047
0.708721
0.713215
0.716761
0.72223
0.727104
0.731625
0.736576
0.740734
0.74587
0.754079
0.762617
0.774273
0.785905
0.797624
0.808724
0.820338
0.834607
0.850023
0.865281
0.883219
0.901491
0.928905
0.14974
0.149733
0.14973
0.14973
0.149733
0.149734
0.149729
0.149691
0.149665
0.149664
0.149668
0.149679
0.149683
0.149686
0.149696
0.149716
0.14974
0.149766
0.149813
0.149866
0.149892
0.149908
0.149925
0.14994
0.149941
0.149934
0.149919
0.149899
0.149861
0.149804
0.149781
0.149781
0.1498
0.149804
0.149798
0.149788
0.149767
0.149753
0.149737
0.149713
0.149703
0.149712
0.149784
0.149992
0.150202
0.150268
0.150259
0.150222
0.150214
0.150255
0.150244
0.150187
0.150117
0.150033
0.149859
0.149616
0.149562
0.149578
0.149617
0.160358
0.223272
0.363487
0.528773
0.623402
0.684358
0.689819
0.69502
0.693838
0.687864
0.689552
0.695286
0.699697
0.700369
0.699711
0.699916
0.701561
0.704769
0.708339
0.711535
0.714962
0.717905
0.720889
0.725274
0.728386
0.732909
0.737089
0.740335
0.744627
0.747851
0.751643
0.757656
0.76601
0.775314
0.782283
0.790336
0.802685
0.816574
0.82586
0.834055
0.856045
0.149759
0.149754
0.149755
0.149756
0.149757
0.149755
0.149739
0.149706
0.149701
0.149704
0.149714
0.149732
0.149753
0.149781
0.149817
0.149851
0.149878
0.149914
0.149982
0.150027
0.150033
0.150037
0.150038
0.150036
0.150026
0.150003
0.149974
0.14994
0.149888
0.149801
0.149733
0.149717
0.149708
0.149692
0.149695
0.149713
0.149733
0.149741
0.149744
0.149746
0.149757
0.149801
0.149974
0.150263
0.150364
0.150362
0.150334
0.150261
0.150224
0.150175
0.150119
0.15006
0.150001
0.149895
0.149695
0.149546
0.149537
0.149551
0.149646
0.149808
0.150138
0.150429
0.185397
0.303971
0.481861
0.593124
0.677242
0.6791
0.687646
0.696198
0.704318
0.70515
0.702273
0.702126
0.703946
0.706776
0.710061
0.712367
0.713955
0.716224
0.719859
0.723473
0.72737
0.729861
0.73107
0.734168
0.738159
0.741474
0.745896
0.748066
0.751374
0.75472
0.760821
0.767968
0.774071
0.77598
0.78037
0.790185
0.795937
0.80806
0.149783
0.149784
0.149785
0.149789
0.149792
0.14979
0.149785
0.149789
0.149799
0.14981
0.149825
0.14985
0.149879
0.149914
0.149946
0.149963
0.149978
0.15001
0.150057
0.150075
0.150075
0.150072
0.150061
0.150048
0.150031
0.149998
0.149942
0.149882
0.149804
0.149691
0.149614
0.149601
0.149605
0.14962
0.149647
0.149688
0.14973
0.149767
0.149832
0.149906
0.149946
0.150025
0.150263
0.150411
0.150416
0.150397
0.15035
0.150265
0.15007
0.149953
0.149952
0.14995
0.149924
0.149833
0.149652
0.149535
0.149534
0.149594
0.149828
0.150348
0.151099
0.151601
0.151544
0.151311
0.169614
0.265333
0.440557
0.579922
0.68048
0.697575
0.704112
0.709922
0.705501
0.706403
0.711843
0.714788
0.716357
0.717811
0.718598
0.72063
0.724578
0.726722
0.729051
0.73127
0.733503
0.737119
0.740881
0.743123
0.744436
0.746482
0.749631
0.752812
0.755374
0.760065
0.763725
0.765819
0.768642
0.773787
0.780861
0.789411
0.149855
0.14986
0.149869
0.149882
0.149898
0.149911
0.14992
0.149944
0.149972
0.149974
0.149974
0.149977
0.149987
0.150006
0.150013
0.150013
0.150017
0.150036
0.150048
0.150045
0.150041
0.150028
0.150002
0.149976
0.149946
0.14988
0.1498
0.14974
0.14968
0.149616
0.149574
0.149566
0.149574
0.149597
0.149646
0.14974
0.149842
0.149948
0.150078
0.150149
0.150187
0.150277
0.150412
0.150429
0.150412
0.150374
0.150305
0.150128
0.149853
0.149758
0.149778
0.149863
0.149871
0.149816
0.149665
0.149571
0.149648
0.150008
0.150579
0.151291
0.151989
0.152147
0.151968
0.15197
0.152174
0.152634
0.161499
0.245549
0.42225
0.577702
0.668715
0.707418
0.714241
0.717414
0.727146
0.726011
0.724569
0.728095
0.729023
0.731296
0.733505
0.734159
0.735777
0.737903
0.739631
0.741517
0.7438
0.745349
0.746777
0.749442
0.752273
0.754295
0.755704
0.757307
0.760403
0.764413
0.768618
0.770329
0.773037
0.780717
0.150043
0.150047
0.150051
0.150055
0.150056
0.150057
0.150054
0.150051
0.15005
0.150049
0.150044
0.150034
0.15002
0.150005
0.149987
0.149964
0.149941
0.149914
0.149875
0.149847
0.149835
0.14982
0.149801
0.14979
0.149774
0.149733
0.14968
0.149643
0.149622
0.149607
0.149594
0.1496
0.149635
0.149711
0.149851
0.150004
0.15011
0.150205
0.150278
0.150314
0.150319
0.150363
0.150358
0.150318
0.150247
0.150193
0.150127
0.149968
0.149746
0.149667
0.149683
0.149808
0.149861
0.149846
0.149875
0.149986
0.150419
0.151226
0.15222
0.152625
0.15285
0.153036
0.153069
0.153402
0.154367
0.156612
0.159135
0.160454
0.164208
0.237588
0.399866
0.580061
0.700207
0.721795
0.748545
0.747833
0.742076
0.745948
0.743546
0.74797
0.748373
0.748311
0.748835
0.749637
0.751004
0.75221
0.754074
0.755054
0.754739
0.75578
0.756558
0.757169
0.75816
0.759447
0.762102
0.766564
0.770765
0.772481
0.774117
0.776723
0.150127
0.150112
0.150099
0.150086
0.150072
0.150058
0.150041
0.150017
0.149982
0.149939
0.149893
0.149838
0.149801
0.149778
0.149761
0.149742
0.149711
0.149678
0.149649
0.149621
0.149622
0.14963
0.149629
0.149642
0.149653
0.149654
0.149651
0.14967
0.149742
0.149821
0.149862
0.149913
0.149984
0.150076
0.150221
0.150334
0.150346
0.150352
0.150386
0.150391
0.150331
0.1503
0.150282
0.150212
0.150096
0.150075
0.150046
0.149921
0.149725
0.149652
0.149669
0.149799
0.150095
0.150462
0.150992
0.151762
0.152527
0.153138
0.154081
0.154254
0.154133
0.154382
0.155361
0.156785
0.158755
0.161992
0.165123
0.166802
0.168483
0.170093
0.171483
0.227844
0.403177
0.590001
0.713102
0.754545
0.7653
0.773077
0.769826
0.772655
0.767414
0.770439
0.770493
0.771223
0.772133
0.771919
0.771659
0.770484
0.768666
0.769828
0.771414
0.772397
0.772766
0.772283
0.772405
0.77334
0.775334
0.77674
0.777059
0.779836
0.149802
0.149737
0.149689
0.149649
0.149616
0.149593
0.149567
0.149549
0.149537
0.149518
0.149507
0.149509
0.149518
0.149543
0.149576
0.149581
0.149576
0.149563
0.149536
0.149521
0.149536
0.149559
0.149569
0.149595
0.149667
0.149784
0.149903
0.15005
0.150238
0.150319
0.150334
0.150371
0.150416
0.150465
0.150532
0.150537
0.150508
0.150487
0.150489
0.150453
0.150287
0.150238
0.150274
0.150201
0.150065
0.150064
0.150084
0.150068
0.149996
0.149985
0.150076
0.150481
0.151247
0.152193
0.153161
0.15421
0.1551
0.15536
0.155722
0.156567
0.157138
0.158066
0.159917
0.162778
0.166276
0.168662
0.170137
0.171674
0.173853
0.176947
0.180435
0.183268
0.185044
0.239602
0.391535
0.604895
0.729991
0.786352
0.809062
0.813202
0.803333
0.804842
0.798153
0.802017
0.803287
0.801574
0.799038
0.796476
0.795421
0.795605
0.794883
0.79276
0.791422
0.791533
0.792917
0.793244
0.793048
0.792091
0.790102
0.789331
0.149225
0.14922
0.149196
0.149188
0.149191
0.149201
0.149216
0.149236
0.149257
0.149284
0.149321
0.149364
0.149418
0.14951
0.149614
0.149674
0.149712
0.149718
0.149714
0.149732
0.14982
0.149925
0.150024
0.150085
0.150152
0.15027
0.150387
0.150536
0.150716
0.15073
0.150696
0.150693
0.150728
0.150783
0.15078
0.150728
0.150663
0.150661
0.150668
0.150598
0.150403
0.150396
0.150357
0.150231
0.150242
0.150361
0.150634
0.150992
0.151444
0.152054
0.152715
0.153461
0.154332
0.15538
0.156331
0.157025
0.157939
0.158363
0.158799
0.159787
0.162057
0.165068
0.167641
0.170291
0.173377
0.175115
0.176624
0.179026
0.18182
0.184455
0.188014
0.190979
0.193501
0.195212
0.196461
0.243885
0.397933
0.609643
0.771143
0.812845
0.839171
0.857453
0.844602
0.843915
0.837851
0.836504
0.838138
0.835576
0.8318
0.828699
0.826871
0.825683
0.825613
0.82462
0.82246
0.819802
0.817027
0.815517
0.815062
0.813771
0.149255
0.149287
0.149314
0.149346
0.149394
0.149459
0.149543
0.149644
0.149742
0.149832
0.14993
0.150053
0.15022
0.150475
0.150713
0.150793
0.150794
0.150789
0.150784
0.150791
0.150818
0.150878
0.15091
0.150887
0.150819
0.150808
0.150823
0.150867
0.150955
0.15096
0.150947
0.150976
0.151054
0.15105
0.150991
0.150893
0.150802
0.150798
0.150827
0.150795
0.150657
0.150702
0.150783
0.150785
0.150861
0.151107
0.151807
0.153046
0.154517
0.155939
0.157267
0.158485
0.159349
0.160149
0.160965
0.161322
0.161726
0.162959
0.164832
0.167133
0.169805
0.173024
0.176378
0.1786
0.180303
0.182196
0.184124
0.186495
0.188892
0.191616
0.195566
0.198353
0.20006
0.202456
0.205354
0.208148
0.210179
0.24533
0.394309
0.613588
0.789391
0.84811
0.882602
0.899422
0.888656
0.878692
0.87589
0.873719
0.876521
0.874847
0.872065
0.868635
0.865777
0.863781
0.861636
0.858782
0.856159
0.854234
0.852684
0.847632
0.150251
0.150402
0.150539
0.150682
0.15083
0.150953
0.151069
0.1512
0.151309
0.151376
0.151425
0.151494
0.151602
0.151737
0.151824
0.151817
0.151679
0.151548
0.151562
0.151569
0.151502
0.151421
0.151393
0.151354
0.151273
0.151196
0.151111
0.150983
0.150968
0.151016
0.151163
0.151277
0.151269
0.151145
0.151002
0.150925
0.150921
0.150986
0.151232
0.151752
0.152439
0.153168
0.153988
0.154906
0.155924
0.156961
0.158057
0.159128
0.160273
0.161398
0.162361
0.163391
0.164078
0.164577
0.165494
0.166747
0.168395
0.170967
0.174153
0.177772
0.180729
0.182406
0.184481
0.185943
0.186973
0.1885
0.191047
0.19402
0.197368
0.200765
0.203286
0.205858
0.20765
0.20941
0.212423
0.216253
0.220048
0.221617
0.222626
0.253609
0.389808
0.616086
0.819822
0.884905
0.923027
0.934424
0.929494
0.920022
0.916742
0.914756
0.917588
0.916344
0.91268
0.908609
0.905813
0.903723
0.901219
0.898086
0.895129
0.889988
0.152228
0.152281
0.152319
0.152338
0.152334
0.152302
0.152291
0.152307
0.152341
0.152314
0.152195
0.152131
0.152134
0.152162
0.15217
0.152113
0.151932
0.151843
0.151864
0.151885
0.151845
0.151688
0.151523
0.151428
0.151363
0.151328
0.151282
0.151241
0.151279
0.15141
0.151686
0.152091
0.152486
0.152894
0.153335
0.153811
0.154374
0.155204
0.156387
0.157705
0.158844
0.159944
0.161027
0.162167
0.163338
0.164335
0.165018
0.16549
0.166053
0.166703
0.167428
0.168506
0.169965
0.171709
0.17395
0.176781
0.180248
0.183287
0.185625
0.187491
0.189222
0.190079
0.190795
0.192228
0.194108
0.196758
0.20012
0.203277
0.206943
0.209655
0.210452
0.212078
0.214497
0.217123
0.221496
0.225065
0.227248
0.229975
0.232706
0.235135
0.237239
0.261776
0.389877
0.622977
0.844502
0.91994
0.956959
0.976877
0.969645
0.958618
0.957049
0.954492
0.956448
0.955075
0.95194
0.94864
0.946728
0.945073
0.94307
0.937072
0.152168
0.152175
0.15219
0.152149
0.15206
0.152049
0.152074
0.152137
0.152141
0.152055
0.151879
0.15185
0.151875
0.151983
0.152046
0.152056
0.152094
0.152307
0.152475
0.152539
0.152777
0.153066
0.153125
0.153252
0.153538
0.154005
0.154577
0.155216
0.156007
0.156953
0.157909
0.15882
0.159709
0.160617
0.161609
0.162625
0.163639
0.164647
0.165442
0.165992
0.166448
0.167075
0.167877
0.168717
0.169594
0.170399
0.171291
0.172285
0.17357
0.175169
0.177195
0.179641
0.182331
0.185085
0.18745
0.189638
0.191218
0.192503
0.193499
0.19404
0.195044
0.196373
0.198015
0.20089
0.204545
0.208276
0.211331
0.213404
0.214869
0.216201
0.217529
0.219661
0.223619
0.227832
0.231132
0.233896
0.235461
0.237302
0.240266
0.244534
0.248843
0.250595
0.251952
0.273253
0.395593
0.641556
0.867199
0.95944
0.992837
1.00706
1.00626
0.995747
0.993741
0.991992
0.994705
0.994192
0.991901
0.989191
0.98666
0.981933
0.154177
0.15438
0.154594
0.154813
0.155044
0.15533
0.155619
0.15588
0.156193
0.156573
0.15696
0.157355
0.157805
0.15829
0.158746
0.159264
0.159822
0.160288
0.160766
0.161323
0.161872
0.16251
0.163164
0.163691
0.164215
0.164881
0.165489
0.166004
0.166594
0.167214
0.167784
0.168313
0.168854
0.1695
0.170277
0.171058
0.17181
0.172494
0.173066
0.173605
0.174379
0.175372
0.176343
0.177411
0.178805
0.180692
0.182889
0.185195
0.187294
0.189291
0.191285
0.192853
0.194376
0.1956
0.196521
0.197512
0.198189
0.199111
0.200247
0.201694
0.203783
0.206869
0.210576
0.213882
0.216636
0.218179
0.219749
0.221218
0.221796
0.223246
0.226514
0.23014
0.234153
0.238248
0.239146
0.240638
0.243187
0.245847
0.249921
0.253967
0.257108
0.260045
0.263039
0.264944
0.26698
0.290156
0.41065
0.663398
0.902581
0.990254
1.03732
1.036
1.03954
1.03046
1.03028
1.02905
1.03093
1.0304
1.02809
1.02386
0.165602
0.165758
0.165932
0.166129
0.166339
0.166554
0.166794
0.16704
0.167279
0.167545
0.167821
0.168099
0.168385
0.168678
0.168961
0.169239
0.169508
0.169799
0.170152
0.170582
0.171043
0.171527
0.172036
0.172547
0.173081
0.173592
0.174109
0.174692
0.1753
0.175869
0.176444
0.177071
0.177865
0.178804
0.179783
0.180802
0.181922
0.183222
0.184737
0.186355
0.187851
0.189103
0.19038
0.191779
0.193319
0.194861
0.196267
0.197639
0.198926
0.20008
0.200871
0.201442
0.202318
0.203175
0.203989
0.205034
0.206794
0.20902
0.211645
0.214649
0.217504
0.220333
0.222622
0.223815
0.22511
0.225788
0.226635
0.22844
0.231404
0.234792
0.238727
0.242334
0.244345
0.247034
0.248213
0.249467
0.252452
0.25687
0.261575
0.264008
0.266109
0.268908
0.271812
0.275307
0.280032
0.28253
0.284186
0.307378
0.438829
0.696909
0.947792
1.02318
1.06856
1.06873
1.07253
1.06496
1.06283
1.06313
1.06459
1.06289
0.175617
0.175831
0.17607
0.176334
0.176631
0.176952
0.177271
0.177586
0.17789
0.178203
0.17855
0.178925
0.179331
0.179732
0.180145
0.180608
0.181092
0.181624
0.182285
0.182952
0.183574
0.184245
0.18499
0.18575
0.186513
0.18735
0.188258
0.189164
0.190085
0.190998
0.191877
0.192747
0.193586
0.194398
0.195221
0.196087
0.19701
0.198073
0.199142
0.200128
0.201017
0.201878
0.202708
0.20346
0.204127
0.204723
0.205418
0.206377
0.207361
0.208235
0.209231
0.210337
0.211765
0.213676
0.216045
0.218541
0.220944
0.22328
0.225495
0.227393
0.228833
0.230041
0.23126
0.232098
0.233122
0.235161
0.237765
0.240788
0.244437
0.24795
0.250548
0.2531
0.253793
0.254706
0.25757
0.261446
0.264511
0.268291
0.271118
0.273302
0.27585
0.278729
0.282178
0.286999
0.290108
0.293181
0.29719
0.299561
0.301083
0.328948
0.46849
0.742857
0.992483
1.05411
1.09956
1.09993
1.1012
1.09528
1.0922
1.09467
0.19119
0.191406
0.191666
0.191957
0.19227
0.192582
0.192878
0.193171
0.193478
0.193819
0.19419
0.194579
0.19505
0.195536
0.195955
0.196384
0.196811
0.197203
0.197621
0.198057
0.198445
0.198814
0.199275
0.199749
0.20019
0.200637
0.201186
0.201775
0.202347
0.202893
0.20346
0.204025
0.204598
0.205151
0.205678
0.206178
0.206772
0.207422
0.208066
0.208782
0.209652
0.210627
0.211746
0.212728
0.213718
0.21498
0.216381
0.217898
0.219491
0.22131
0.223264
0.225294
0.22719
0.229061
0.230779
0.232409
0.23393
0.235076
0.236141
0.237011
0.237908
0.23894
0.240512
0.242926
0.245786
0.248765
0.252186
0.25502
0.257069
0.259165
0.260342
0.261768
0.263903
0.266235
0.269825
0.273838
0.277765
0.280474
0.281974
0.284751
0.287521
0.290108
0.294403
0.298074
0.300489
0.303852
0.307099
0.310231
0.314022
0.316841
0.318716
0.35719
0.520569
0.800578
1.04077
1.08375
1.12749
1.13123
1.12862
1.12393
0.203922
0.204104
0.204294
0.204485
0.204708
0.204965
0.205251
0.205528
0.205792
0.20606
0.20634
0.206622
0.20694
0.207285
0.207652
0.208023
0.208382
0.208767
0.209185
0.209624
0.210077
0.210534
0.211029
0.21155
0.212043
0.212542
0.213163
0.213799
0.214383
0.215049
0.215884
0.216802
0.217713
0.218627
0.219568
0.220513
0.221401
0.22225
0.223138
0.2241
0.225235
0.226507
0.22791
0.22943
0.230931
0.232277
0.23348
0.234544
0.235685
0.236851
0.237944
0.239125
0.240122
0.24097
0.241649
0.242482
0.243668
0.244711
0.24592
0.247662
0.249906
0.252672
0.255522
0.258301
0.261319
0.26379
0.265536
0.267279
0.268513
0.26977
0.271396
0.273761
0.276884
0.281062
0.284307
0.287061
0.289804
0.2911
0.293372
0.296244
0.298983
0.303088
0.306966
0.309236
0.313059
0.315857
0.318362
0.321763
0.325477
0.329022
0.332671
0.334999
0.336749
0.392627
0.587939
0.86435
1.08448
1.11446
1.154
1.15879
0.219445
0.219652
0.219885
0.220136
0.220398
0.220654
0.220889
0.221133
0.221494
0.221857
0.222143
0.222438
0.222789
0.223206
0.223684
0.224148
0.224587
0.225039
0.225515
0.226018
0.226555
0.227122
0.227691
0.22826
0.228843
0.22942
0.229954
0.230452
0.230983
0.231639
0.232368
0.233068
0.233731
0.234461
0.235249
0.236064
0.236892
0.237715
0.238552
0.239382
0.240148
0.24087
0.241529
0.242233
0.243002
0.243817
0.244624
0.245346
0.246221
0.247097
0.248037
0.249336
0.250741
0.252036
0.253607
0.255469
0.257671
0.260184
0.262646
0.265129
0.267815
0.270091
0.272213
0.273993
0.275232
0.276428
0.277142
0.278336
0.280423
0.282515
0.285615
0.288993
0.292763
0.295942
0.297872
0.299886
0.301117
0.303404
0.306549
0.309152
0.313534
0.317907
0.31967
0.322904
0.32586
0.327691
0.331296
0.335369
0.338389
0.341263
0.344803
0.348466
0.352004
0.354115
0.355483
0.433675
0.666274
0.934494
1.11918
1.15994
0.235692
0.235904
0.236148
0.236409
0.236659
0.236897
0.237138
0.237388
0.237631
0.237918
0.238234
0.238532
0.23881
0.23908
0.239381
0.239725
0.240072
0.240404
0.240758
0.241142
0.241545
0.241954
0.242392
0.242846
0.243315
0.243818
0.244359
0.24493
0.245521
0.246077
0.246586
0.247119
0.247719
0.248301
0.248875
0.249523
0.250267
0.251106
0.252086
0.253038
0.253939
0.254883
0.255929
0.257073
0.258274
0.259514
0.260896
0.262352
0.263844
0.265377
0.267
0.268607
0.270336
0.272269
0.274154
0.27595
0.277516
0.278906
0.280333
0.2815
0.282721
0.283712
0.284715
0.286133
0.287124
0.288546
0.29053
0.293301
0.296384
0.300233
0.303697
0.306511
0.308929
0.310424
0.312045
0.313473
0.31581
0.319128
0.322228
0.325837
0.329194
0.330832
0.333602
0.336083
0.338134
0.342441
0.345836
0.34817
0.350878
0.35425
0.357333
0.360158
0.362807
0.365405
0.368349
0.37026
0.372517
0.485814
0.737163
1.05751
0.253591
0.253763
0.253985
0.254255
0.254537
0.254797
0.255034
0.25527
0.255526
0.255825
0.256156
0.256475
0.25678
0.257109
0.257462
0.257834
0.258229
0.258633
0.259043
0.259487
0.259967
0.26047
0.260987
0.261503
0.262045
0.262644
0.263258
0.263871
0.264485
0.265123
0.265778
0.266455
0.267128
0.267828
0.268605
0.26942
0.270279
0.27119
0.272127
0.273107
0.274097
0.27511
0.276119
0.277098
0.278098
0.279135
0.280173
0.281306
0.282409
0.283503
0.284582
0.285532
0.286376
0.287363
0.288351
0.289362
0.29045
0.291479
0.292881
0.294232
0.295693
0.297544
0.299866
0.302408
0.305632
0.308617
0.311801
0.31459
0.316913
0.319056
0.320813
0.322469
0.323255
0.324592
0.326506
0.328982
0.332278
0.335277
0.338317
0.34168
0.343207
0.34555
0.34855
0.350563
0.353724
0.356815
0.358724
0.361151
0.364144
0.366645
0.368721
0.37106
0.373743
0.376283
0.37864
0.38083
0.383244
0.384186
0.39422
0.673124
0.273783
0.273973
0.274166
0.274354
0.274559
0.27481
0.275103
0.275384
0.275669
0.27595
0.276223
0.276542
0.276894
0.277225
0.277558
0.27791
0.278272
0.278645
0.279034
0.279425
0.279811
0.28021
0.280615
0.28104
0.281486
0.281957
0.282458
0.283
0.283584
0.284193
0.284839
0.285547
0.286268
0.286986
0.287694
0.288411
0.289113
0.289816
0.290479
0.29116
0.291879
0.292618
0.29344
0.294308
0.295192
0.296119
0.297053
0.298023
0.299048
0.300118
0.301348
0.302798
0.30426
0.305763
0.307393
0.309217
0.311198
0.313422
0.315585
0.318002
0.320315
0.32264
0.324749
0.326628
0.328259
0.329678
0.331014
0.331953
0.332957
0.33371
0.33501
0.336787
0.339047
0.341595
0.344404
0.347527
0.3502
0.352669
0.354995
0.356704
0.358971
0.3612
0.362802
0.365488
0.368022
0.369299
0.371695
0.374335
0.376288
0.378148
0.380539
0.382648
0.384324
0.385978
0.387561
0.389086
0.390283
0.391913
0.392283
0.401592
0.296388
0.296547
0.296767
0.297029
0.297289
0.297526
0.297748
0.297951
0.298199
0.29851
0.298808
0.299082
0.299353
0.299666
0.300012
0.30036
0.300708
0.301074
0.301472
0.301895
0.302344
0.302813
0.303298
0.303807
0.304334
0.304863
0.305403
0.305941
0.306486
0.307039
0.307609