/*--------------------------------*- C++ -*----------------------------------*\
  =========                 |
  \\      /  F ield         | OpenFOAM: The Open Source CFD Toolbox
   \\    /   O peration     | Website:  https://openfoam.org
    \\  /    A nd           | Version:  7
     \\/     M anipulation  |
\*---------------------------------------------------------------------------*/
FoamFile
{
    version     2.0;
    format      ascii;
    class       volVectorField;
    location    "4.8";
    object      U;
}
// * * * * * * * * * * * * * * * * * * * * * * * * * * * * * * * * * * * * * //

dimensions      [0 1 -1 0 0 0 0];

internalField   nonuniform List<vector> 
8400
(
(2.43521 -0.605803 0)
(2.48526 -0.348848 0)
(2.46289 -0.0139024 0)
(2.48253 0.0767696 0)
(2.49997 0.141093 0)
(2.49131 0.290394 0)
(2.5097 0.279246 0)
(2.52496 0.32163 0)
(2.55762 0.363336 0)
(2.57714 0.338545 0)
(2.60823 0.311959 0)
(2.64391 0.316106 0)
(2.67401 0.305474 0)
(2.67345 0.235788 0)
(2.70073 0.20439 0)
(2.71314 0.159006 0)
(2.72067 0.110908 0)
(2.74231 0.0706196 0)
(2.74797 0.0915928 0)
(2.75104 0.111456 0)
(2.76461 0.146353 0)
(2.77067 0.17307 0)
(2.77839 0.179377 0)
(2.78117 0.163901 0)
(2.7804 0.120707 0)
(2.78531 0.0840728 0)
(2.79277 0.0627842 0)
(2.79401 0.0437148 0)
(2.79384 0.0424674 0)
(2.80213 0.0375958 0)
(2.56895 -1.3917 0)
(2.59653 -1.40686 0)
(2.61124 -1.36698 0)
(2.61729 -1.23987 0)
(2.59836 -1.08815 0)
(2.5583 -0.848748 0)
(2.53419 -0.688083 0)
(2.52126 -0.524862 0)
(2.4967 -0.279037 0)
(2.51395 -0.20562 0)
(2.51108 -0.129203 0)
(2.50236 -0.0203498 0)
(2.51809 0.0426962 0)
(2.53534 0.0241775 0)
(2.54907 0.0376065 0)
(2.58306 0.0542242 0)
(2.59459 0.0673305 0)
(2.60643 0.0830482 0)
(2.61239 0.100612 0)
(2.60161 0.107811 0)
(2.62191 0.0697329 0)
(2.63216 0.0543011 0)
(2.63525 0.0576942 0)
(2.63735 0.0647955 0)
(2.64047 0.0820376 0)
(2.64706 0.081404 0)
(2.6614 0.0830771 0)
(2.67151 0.0741379 0)
(2.67275 0.0571913 0)
(2.6947 0.0414348 0)
(2.82177 -1.46673 0)
(2.85729 -1.49537 0)
(2.89667 -1.52414 0)
(2.94028 -1.56432 0)
(2.9654 -1.60424 0)
(3.01084 -1.63977 0)
(3.03688 -1.68813 0)
(3.05333 -1.70229 0)
(3.0234 -1.61889 0)
(2.96519 -1.44533 0)
(2.87201 -1.24913 0)
(2.75778 -0.977431 0)
(2.65463 -0.634251 0)
(2.62723 -0.433161 0)
(2.52236 -0.121215 0)
(2.53707 -0.00222916 0)
(2.50737 0.137163 0)
(2.47191 0.217406 0)
(2.49719 0.254051 0)
(2.49985 0.224201 0)
(2.51054 0.140813 0)
(2.55822 0.0922388 0)
(2.56926 0.0567284 0)
(2.57985 0.0337357 0)
(2.58942 0.0283495 0)
(2.59482 0.0797307 0)
(2.60151 0.0704478 0)
(2.6127 0.0515306 0)
(2.62198 0.0322553 0)
(2.65197 0.0222951 0)
(2.97144 -1.62853 0)
(2.99501 -1.65963 0)
(3.02072 -1.68136 0)
(3.04505 -1.69545 0)
(3.05725 -1.71118 0)
(3.07697 -1.72725 0)
(3.0952 -1.74615 0)
(3.09603 -1.74926 0)
(3.10643 -1.75061 0)
(3.11682 -1.74227 0)
(3.11751 -1.7424 0)
(3.10232 -1.74424 0)
(3.08618 -1.73463 0)
(3.04715 -1.6352 0)
(2.95378 -1.39153 0)
(2.87585 -1.14556 0)
(2.78725 -0.81585 0)
(2.73442 -0.52639 0)
(2.68121 -0.236576 0)
(2.66348 -0.0889336 0)
(2.64613 -0.0262126 0)
(2.61941 0.0354871 0)
(2.60893 0.0405126 0)
(2.60127 0.0258528 0)
(2.62075 0.0190523 0)
(2.63172 0.0417044 0)
(2.61324 0.037895 0)
(2.61624 0.0222678 0)
(2.63712 0.0167339 0)
(2.66129 0.0100025 0)
(3.09467 -1.73021 0)
(3.09536 -1.74056 0)
(3.09999 -1.74011 0)
(3.10413 -1.73754 0)
(3.10532 -1.74219 0)
(3.10343 -1.74258 0)
(3.10328 -1.74576 0)
(3.10493 -1.75087 0)
(3.10833 -1.75095 0)
(3.11492 -1.73471 0)
(3.11382 -1.71969 0)
(3.08682 -1.71106 0)
(3.05248 -1.68217 0)
(3.04512 -1.66959 0)
(3.06402 -1.63307 0)
(3.07677 -1.62345 0)
(3.07558 -1.64136 0)
(3.06142 -1.59575 0)
(2.99424 -1.28705 0)
(2.91586 -0.926635 0)
(2.86511 -0.612379 0)
(2.79312 -0.328632 0)
(2.73568 -0.13032 0)
(2.74498 -0.0712231 0)
(2.70254 -0.000589687 0)
(2.67494 0.0447147 0)
(2.65567 0.0231897 0)
(2.68599 0.064038 0)
(2.70303 0.0610119 0)
(2.7083 0.0312119 0)
(3.09301 -1.7724 0)
(3.09873 -1.76755 0)
(3.10408 -1.74786 0)
(3.10649 -1.7337 0)
(3.10359 -1.72908 0)
(3.09357 -1.7263 0)
(3.08221 -1.70767 0)
(3.07281 -1.68765 0)
(3.05599 -1.63473 0)
(3.07259 -1.58357 0)
(3.09876 -1.56437 0)
(3.08591 -1.59682 0)
(3.0739 -1.63711 0)
(3.06209 -1.59623 0)
(3.06586 -1.54113 0)
(3.09255 -1.51085 0)
(3.09442 -1.52621 0)
(3.0992 -1.49539 0)
(3.09445 -1.51091 0)
(3.09459 -1.49469 0)
(3.10179 -1.46928 0)
(3.05937 -1.31263 0)
(2.99102 -1.04483 0)
(2.95135 -0.738651 0)
(2.91215 -0.507629 0)
(2.84914 -0.269518 0)
(2.8663 -0.133053 0)
(2.82395 0.0130144 0)
(2.78085 0.0302292 0)
(2.77116 0.0386826 0)
(3.10742 -1.5843 0)
(3.10948 -1.56427 0)
(3.10831 -1.55388 0)
(3.10887 -1.541 0)
(3.10292 -1.53784 0)
(3.08612 -1.55292 0)
(3.07774 -1.55194 0)
(3.06988 -1.54739 0)
(3.06934 -1.56035 0)
(3.08815 -1.53895 0)
(3.11698 -1.52074 0)
(3.12036 -1.5222 0)
(3.10749 -1.54253 0)
(3.0904 -1.55128 0)
(3.07608 -1.50859 0)
(3.07855 -1.49326 0)
(3.09268 -1.46174 0)
(3.09853 -1.44442 0)
(3.0964 -1.41234 0)
(3.09329 -1.39435 0)
(3.10582 -1.35037 0)
(3.10342 -1.36075 0)
(3.10739 -1.34683 0)
(3.1097 -1.33068 0)
(3.09798 -1.26095 0)
(3.05726 -1.01619 0)
(3.05503 -0.812746 0)
(2.99201 -0.506735 0)
(3.00877 -0.414616 0)
(2.9162 -0.135033 0)
(3.08764 -1.57025 0)
(3.09009 -1.55663 0)
(3.09046 -1.55279 0)
(3.1009 -1.54162 0)
(3.10729 -1.53615 0)
(3.10306 -1.54107 0)
(3.08541 -1.5627 0)
(3.07351 -1.54566 0)
(3.08598 -1.50037 0)
(3.09267 -1.48923 0)
(3.10812 -1.46487 0)
(3.14681 -1.40389 0)
(3.1438 -1.39635 0)
(3.1271 -1.36769 0)
(3.1189 -1.33504 0)
(3.12286 -1.31769 0)
(3.11609 -1.33635 0)
(3.11922 -1.30801 0)
(3.11024 -1.30662 0)
(3.11108 -1.29536 0)
(3.10994 -1.30345 0)
(3.11707 -1.2795 0)
(3.12133 -1.25452 0)
(3.1269 -1.24805 0)
(3.13061 -1.22322 0)
(3.12611 -1.20907 0)
(3.1178 -1.21035 0)
(3.10654 -1.18187 0)
(3.09903 -1.05503 0)
(3.05299 -0.657245 0)
(3.12028 -1.40065 0)
(3.1247 -1.38014 0)
(3.12541 -1.36587 0)
(3.14732 -1.3251 0)
(3.16125 -1.30707 0)
(3.16443 -1.30425 0)
(3.15549 -1.30795 0)
(3.13499 -1.31353 0)
(3.12457 -1.30577 0)
(3.12726 -1.26913 0)
(3.13615 -1.24783 0)
(3.1464 -1.2366 0)
(3.14027 -1.24311 0)
(3.12198 -1.26757 0)
(3.1212 -1.24486 0)
(3.12958 -1.22783 0)
(3.12874 -1.23189 0)
(3.13114 -1.23937 0)
(3.12496 -1.21463 0)
(3.12979 -1.2005 0)
(3.13219 -1.18414 0)
(3.13595 -1.16941 0)
(3.13405 -1.14614 0)
(3.13291 -1.1275 0)
(3.12283 -1.12929 0)
(3.11657 -1.1248 0)
(3.1169 -1.12458 0)
(3.1215 -1.11752 0)
(3.12344 -1.11816 0)
(3.12641 -1.10358 0)
(3.13039 -1.26917 0)
(3.12576 -1.25799 0)
(3.12727 -1.24942 0)
(3.13626 -1.23144 0)
(3.14746 -1.21132 0)
(3.15747 -1.20522 0)
(3.15515 -1.20959 0)
(3.13821 -1.2287 0)
(3.12048 -1.23606 0)
(3.11944 -1.21911 0)
(3.12727 -1.20926 0)
(3.12854 -1.20803 0)
(3.12756 -1.20756 0)
(3.12414 -1.20697 0)
(3.11883 -1.19751 0)
(3.11892 -1.17179 0)
(3.12821 -1.14905 0)
(3.13661 -1.14342 0)
(3.1386 -1.13116 0)
(3.13273 -1.10294 0)
(3.13479 -1.09041 0)
(3.13515 -1.08266 0)
(3.12973 -1.08516 0)
(3.12531 -1.08185 0)
(3.12032 -1.08397 0)
(3.12092 -1.08347 0)
(3.12986 -1.06366 0)
(3.1335 -1.0533 0)
(3.13765 -1.02443 0)
(3.13461 -1.00853 0)
(3.15125 -1.12775 0)
(3.13885 -1.12347 0)
(3.13096 -1.09946 0)
(3.13788 -1.07899 0)
(3.14072 -1.07045 0)
(3.15401 -1.06478 0)
(3.15658 -1.06614 0)
(3.15228 -1.07848 0)
(3.14447 -1.09656 0)
(3.13627 -1.07029 0)
(3.1456 -1.04459 0)
(3.14877 -1.02693 0)
(3.15175 -1.00972 0)
(3.1496 -1.00804 0)
(3.14108 -1.00723 0)
(3.13589 -1.00169 0)
(3.138 -1.00145 0)
(3.14105 -1.00305 0)
(3.13997 -1.00633 0)
(3.13794 -1.00134 0)
(3.1325 -1.00803 0)
(3.13223 -1.00005 0)
(3.13127 -1.00622 0)
(3.13276 -0.991536 0)
(3.13569 -0.985266 0)
(3.14052 -0.97231 0)
(3.14103 -0.961142 0)
(3.13848 -0.940882 0)
(3.13321 -0.942223 0)
(3.12939 -0.946901 0)
(3.16147 -0.971339 0)
(3.14786 -0.977172 0)
(3.13244 -0.967576 0)
(3.13729 -0.94729 0)
(3.14111 -0.92695 0)
(3.1492 -0.915998 0)
(3.15745 -0.919237 0)
(3.15537 -0.922026 0)
(3.14472 -0.936823 0)
(3.13144 -0.945632 0)
(3.13294 -0.930944 0)
(3.14154 -0.92664 0)
(3.14453 -0.92806 0)
(3.146 -0.930869 0)
(3.1403 -0.927977 0)
(3.1374 -0.924821 0)
(3.13834 -0.917611 0)
(3.13942 -0.916455 0)
(3.14007 -0.912972 0)
(3.13843 -0.90772 0)
(3.13861 -0.904936 0)
(3.13944 -0.900724 0)
(3.1415 -0.894352 0)
(3.14247 -0.891687 0)
(3.14341 -0.880911 0)
(3.14073 -0.87856 0)
(3.1357 -0.879105 0)
(3.13138 -0.883649 0)
(3.12256 -0.898558 0)
(3.12798 -0.897606 0)
(3.15575 -0.795392 0)
(3.14814 -0.803339 0)
(3.13711 -0.814135 0)
(3.13141 -0.805724 0)
(3.13822 -0.788549 0)
(3.14201 -0.772247 0)
(3.15299 -0.767587 0)
(3.15033 -0.783905 0)
(3.14383 -0.793602 0)
(3.13639 -0.800003 0)
(3.13245 -0.791716 0)
(3.13608 -0.785444 0)
(3.14366 -0.784073 0)
(3.14578 -0.786671 0)
(3.14178 -0.791851 0)
(3.13875 -0.793522 0)
(3.13615 -0.792184 0)
(3.13717 -0.792395 0)
(3.13766 -0.793709 0)
(3.13804 -0.795362 0)
(3.13808 -0.797211 0)
(3.1393 -0.795054 0)
(3.13894 -0.792428 0)
(3.13737 -0.79431 0)
(3.13585 -0.796303 0)
(3.12974 -0.807832 0)
(3.12916 -0.810656 0)
(3.13061 -0.815959 0)
(3.13265 -0.814329 0)
(3.1367 -0.810175 0)
(3.13935 -0.625482 0)
(3.14009 -0.632268 0)
(3.13187 -0.64551 0)
(3.12158 -0.653056 0)
(3.12312 -0.648205 0)
(3.12754 -0.634364 0)
(3.13468 -0.611321 0)
(3.14443 -0.618084 0)
(3.13365 -0.641941 0)
(3.12665 -0.64885 0)
(3.12074 -0.660341 0)
(3.12312 -0.661081 0)
(3.13276 -0.657041 0)
(3.13914 -0.65956 0)
(3.13673 -0.667225 0)
(3.13234 -0.670955 0)
(3.12779 -0.673828 0)
(3.12878 -0.681255 0)
(3.13026 -0.682002 0)
(3.13186 -0.684223 0)
(3.13198 -0.689073 0)
(3.12882 -0.698567 0)
(3.13052 -0.708943 0)
(3.13023 -0.717877 0)
(3.12926 -0.723959 0)
(3.13058 -0.725926 0)
(3.1321 -0.728182 0)
(3.13287 -0.729115 0)
(3.135 -0.724599 0)
(3.13553 -0.724268 0)
(3.1272 -0.450417 0)
(3.11872 -0.470945 0)
(3.11707 -0.47453 0)
(3.10259 -0.488551 0)
(3.0965 -0.49395 0)
(3.09946 -0.490957 0)
(3.11028 -0.474818 0)
(3.12729 -0.471506 0)
(3.12332 -0.490327 0)
(3.11689 -0.501793 0)
(3.10682 -0.518721 0)
(3.10481 -0.520693 0)
(3.11273 -0.519639 0)
(3.124 -0.528121 0)
(3.12238 -0.539556 0)
(3.11963 -0.541921 0)
(3.11824 -0.545228 0)
(3.11914 -0.562872 0)
(3.11853 -0.567841 0)
(3.12022 -0.573129 0)
(3.12282 -0.582679 0)
(3.12409 -0.586968 0)
(3.12312 -0.594213 0)
(3.12354 -0.594954 0)
(3.12439 -0.598417 0)
(3.12394 -0.599695 0)
(3.12387 -0.608039 0)
(3.11971 -0.615275 0)
(3.1241 -0.628665 0)
(3.12625 -0.645171 0)
(3.08564 -0.267387 0)
(3.08878 -0.291759 0)
(3.08951 -0.298376 0)
(3.08203 -0.324751 0)
(3.06986 -0.346674 0)
(3.06417 -0.349551 0)
(3.0763 -0.338024 0)
(3.09762 -0.326696 0)
(3.10433 -0.33271 0)
(3.09617 -0.352349 0)
(3.08882 -0.378082 0)
(3.08258 -0.38569 0)
(3.08875 -0.383584 0)
(3.10173 -0.393329 0)
(3.10327 -0.408316 0)
(3.10067 -0.413123 0)
(3.10043 -0.416587 0)
(3.10359 -0.440018 0)
(3.10188 -0.447415 0)
(3.10388 -0.456733 0)
(3.10764 -0.465103 0)
(3.10983 -0.476237 0)
(3.1086 -0.486228 0)
(3.11004 -0.50403 0)
(3.11171 -0.516217 0)
(3.11263 -0.528261 0)
(3.11341 -0.542972 0)
(3.1143 -0.554935 0)
(3.11596 -0.570135 0)
(3.12098 -0.58028 0)
(3.03404 -0.0953989 0)
(3.04576 -0.112468 0)
(3.04571 -0.142874 0)
(3.04676 -0.153836 0)
(3.04263 -0.184879 0)
(3.03538 -0.20958 0)
(3.03882 -0.210682 0)
(3.05767 -0.189998 0)
(3.06664 -0.182279 0)
(3.06739 -0.200732 0)
(3.06339 -0.234065 0)
(3.05351 -0.250437 0)
(3.05593 -0.247009 0)
(3.07357 -0.262498 0)
(3.07628 -0.281628 0)
(3.07452 -0.282868 0)
(3.07681 -0.294905 0)
(3.0796 -0.313066 0)
(3.07918 -0.329769 0)
(3.08106 -0.340091 0)
(3.08602 -0.352218 0)
(3.08969 -0.365057 0)
(3.09057 -0.379901 0)
(3.09175 -0.395932 0)
(3.09367 -0.403553 0)
(3.09681 -0.41837 0)
(3.0985 -0.431834 0)
(3.09965 -0.440055 0)
(3.10133 -0.448767 0)
(3.10674 -0.465676 0)
(2.97673 0.0475497 0)
(2.98537 0.0441713 0)
(2.99483 0.0118195 0)
(2.99804 -0.00343823 0)
(3.00262 -0.0325377 0)
(2.99587 -0.0650208 0)
(2.99329 -0.0728031 0)
(3.00764 -0.0560795 0)
(3.01845 -0.0426455 0)
(3.02763 -0.0601309 0)
(3.02692 -0.0958667 0)
(3.01565 -0.11853 0)
(3.01598 -0.114626 0)
(3.03338 -0.130106 0)
(3.0399 -0.153286 0)
(3.03903 -0.157902 0)
(3.04296 -0.169709 0)
(3.04814 -0.19091 0)
(3.04874 -0.208761 0)
(3.05067 -0.220375 0)
(3.05753 -0.238026 0)
(3.06258 -0.251956 0)
(3.0652 -0.268507 0)
(3.06763 -0.285751 0)
(3.07166 -0.30338 0)
(3.07559 -0.317791 0)
(3.07841 -0.332341 0)
(3.08168 -0.35168 0)
(3.08542 -0.37106 0)
(3.09326 -0.393752 0)
(2.91237 0.176742 0)
(2.91858 0.182304 0)
(2.92824 0.167997 0)
(2.93736 0.140087 0)
(2.94693 0.115335 0)
(2.9452 0.0829764 0)
(2.93869 0.0656771 0)
(2.94887 0.0726663 0)
(2.95827 0.0880633 0)
(2.97081 0.0743149 0)
(2.9771 0.0375704 0)
(2.97012 0.0122312 0)
(2.96964 0.0164696 0)
(2.98608 -0.00409796 0)
(2.99328 -0.0286559 0)
(2.99426 -0.0345545 0)
(3.00198 -0.049926 0)
(3.0098 -0.0722982 0)
(3.01098 -0.0857722 0)
(3.01587 -0.105661 0)
(3.02292 -0.123675 0)
(3.02906 -0.138339 0)
(3.03476 -0.159461 0)
(3.03848 -0.176359 0)
(3.0436 -0.194732 0)
(3.04892 -0.213483 0)
(3.05395 -0.233926 0)
(3.05816 -0.249507 0)
(3.06303 -0.267433 0)
(3.07284 -0.293901 0)
(2.84978 0.302377 0)
(2.85768 0.29157 0)
(2.86338 0.291041 0)
(2.8696 0.282052 0)
(2.88167 0.250828 0)
(2.87933 0.231231 0)
(2.87767 0.228181 0)
(2.88565 0.219114 0)
(2.8934 0.21588 0)
(2.90549 0.199022 0)
(2.91687 0.161306 0)
(2.91753 0.149055 0)
(2.91841 0.152995 0)
(2.93524 0.125899 0)
(2.94227 0.0995365 0)
(2.94567 0.0868228 0)
(2.95448 0.0707082 0)
(2.96475 0.0477444 0)
(2.97037 0.0288791 0)
(2.97537 0.0132765 0)
(2.98445 -0.0100241 0)
(2.99178 -0.028106 0)
(2.99889 -0.0478653 0)
(3.00581 -0.0702524 0)
(3.01177 -0.0880556 0)
(3.01927 -0.110669 0)
(3.02552 -0.13199 0)
(3.03178 -0.151998 0)
(3.039 -0.173267 0)
(3.0517 -0.204058 0)
(2.8159 0.370638 0)
(2.8179 0.367901 0)
(2.82114 0.365233 0)
(2.825 0.363807 0)
(2.82895 0.3596 0)
(2.83109 0.351767 0)
(2.83061 0.347902 0)
(2.83466 0.338981 0)
(2.84109 0.329906 0)
(2.84947 0.319653 0)
(2.85919 0.301373 0)
(2.86368 0.286805 0)
(2.86651 0.27986 0)
(2.87849 0.257459 0)
(2.88801 0.232356 0)
(2.89283 0.219591 0)
(2.90515 0.194602 0)
(2.91359 0.177184 0)
(2.92408 0.151968 0)
(2.93274 0.129207 0)
(2.94201 0.106488 0)
(2.95174 0.0834883 0)
(2.96087 0.0615612 0)
(2.97004 0.0373715 0)
(2.97873 0.0128441 0)
(2.98626 -0.00692906 0)
(2.99562 -0.0330658 0)
(3.00402 -0.0562308 0)
(3.0124 -0.0777694 0)
(3.02764 -0.111785 0)
(2.82016 0.367495 0)
(2.8204 0.36755 0)
(2.82109 0.368623 0)
(2.82183 0.373181 0)
(2.82055 0.377204 0)
(2.81974 0.377861 0)
(2.81874 0.376945 0)
(2.81973 0.372429 0)
(2.82214 0.366311 0)
(2.82334 0.363647 0)
(2.82528 0.363528 0)
(2.827 0.3652 0)
(2.83108 0.361614 0)
(2.83666 0.350737 0)
(2.8405 0.341098 0)
(2.84549 0.332008 0)
(2.8542 0.31695 0)
(2.86369 0.298468 0)
(2.8729 0.279778 0)
(2.88365 0.256553 0)
(2.89419 0.231972 0)
(2.9054 0.205814 0)
(2.91764 0.177418 0)
(2.92823 0.152551 0)
(2.94009 0.123006 0)
(2.95075 0.095858 0)
(2.96172 0.068653 0)
(2.97236 0.0431796 0)
(2.98315 0.0172751 0)
(3.00111 -0.0207405 0)
(2.85328 0.31279 0)
(2.85108 0.308479 0)
(2.8484 0.316862 0)
(2.84569 0.332138 0)
(2.83943 0.344712 0)
(2.83883 0.365423 0)
(2.8385 0.369544 0)
(2.83083 0.358467 0)
(2.8289 0.348645 0)
(2.83017 0.35041 0)
(2.83007 0.358321 0)
(2.83303 0.365954 0)
(2.83241 0.365887 0)
(2.83177 0.363575 0)
(2.83043 0.36046 0)
(2.83114 0.359312 0)
(2.83298 0.358277 0)
(2.83558 0.356575 0)
(2.8393 0.3527 0)
(2.8439 0.345425 0)
(2.84986 0.333248 0)
(2.85763 0.317926 0)
(2.86864 0.297526 0)
(2.88049 0.27365 0)
(2.89335 0.245005 0)
(2.90588 0.215307 0)
(2.92046 0.181424 0)
(2.93413 0.150852 0)
(2.94791 0.120199 0)
(2.96991 0.0748096 0)
(2.93369 0.151094 0)
(2.9332 0.148529 0)
(2.91874 0.171543 0)
(2.90725 0.209067 0)
(2.90654 0.214316 0)
(2.90387 0.219773 0)
(2.89512 0.241229 0)
(2.88832 0.253687 0)
(2.88494 0.251803 0)
(2.87372 0.267286 0)
(2.86159 0.300953 0)
(2.86059 0.314505 0)
(2.86154 0.310819 0)
(2.8535 0.321772 0)
(2.84542 0.336831 0)
(2.84265 0.341483 0)
(2.84146 0.340095 0)
(2.8403 0.347499 0)
(2.84081 0.349412 0)
(2.84053 0.349509 0)
(2.84035 0.348471 0)
(2.84154 0.34626 0)
(2.84382 0.343517 0)
(2.84759 0.339601 0)
(2.85361 0.330834 0)
(2.86177 0.316455 0)
(2.87347 0.294333 0)
(2.88704 0.267629 0)
(2.90266 0.236701 0)
(2.92932 0.184634 0)
(2.99069 0.0213205 0)
(2.98861 0.0255867 0)
(2.98646 0.0282243 0)
(2.9825 0.036223 0)
(2.9804 0.0417329 0)
(2.97655 0.0507822 0)
(2.97224 0.0611867 0)
(2.96871 0.0687538 0)
(2.96064 0.0853213 0)
(2.95591 0.0918102 0)
(2.94258 0.119208 0)
(2.93694 0.13597 0)
(2.92741 0.158008 0)
(2.91753 0.176733 0)
(2.9082 0.197723 0)
(2.8929 0.232413 0)
(2.88878 0.240859 0)
(2.87288 0.274344 0)
(2.86646 0.291201 0)
(2.86422 0.297798 0)
(2.85193 0.322327 0)
(2.85045 0.325333 0)
(2.84745 0.331297 0)
(2.84683 0.335951 0)
(2.84704 0.335884 0)
(2.84783 0.335291 0)
(2.8502 0.332526 0)
(2.85487 0.327701 0)
(2.86225 0.318967 0)
(2.88362 0.288292 0)
(2.99972 0.000599564 0)
(2.99964 0.0007338 0)
(2.99952 0.000950199 0)
(2.99934 0.00123552 0)
(2.9991 0.00175964 0)
(2.99886 0.00221389 0)
(2.99842 0.00316581 0)
(2.99796 0.00407327 0)
(2.99705 0.00581249 0)
(2.99599 0.00753864 0)
(2.99397 0.0112642 0)
(2.99193 0.0157868 0)
(2.9892 0.0214335 0)
(2.98523 0.0288098 0)
(2.9792 0.040694 0)
(2.972 0.0559701 0)
(2.96458 0.0715562 0)
(2.95225 0.0967374 0)
(2.94129 0.120387 0)
(2.9283 0.148634 0)
(2.9101 0.189392 0)
(2.90436 0.204373 0)
(2.88333 0.248194 0)
(2.87263 0.272844 0)
(2.86898 0.282619 0)
(2.85624 0.311851 0)
(2.85235 0.3186 0)
(2.85416 0.32132 0)
(2.85539 0.321113 0)
(2.86275 0.318156 0)
(3 5.09744e-06 0)
(3 6.49209e-06 0)
(3 8.40002e-06 0)
(2.99999 1.18052e-05 0)
(2.99999 1.63912e-05 0)
(2.99999 2.41664e-05 0)
(2.99998 3.39931e-05 0)
(2.99997 5.24729e-05 0)
(2.99996 7.65712e-05 0)
(2.99993 0.000124094 0)
(2.99988 0.000196501 0)
(2.99981 0.00034408 0)
(2.9997 0.000537465 0)
(2.99949 0.000898426 0)
(2.99912 0.00156235 0)
(2.99853 0.00266654 0)
(2.99754 0.00454413 0)
(2.99589 0.00752253 0)
(2.99319 0.0127421 0)
(2.98903 0.0208141 0)
(2.98308 0.0322688 0)
(2.97398 0.0514796 0)
(2.96298 0.0731202 0)
(2.94828 0.104132 0)
(2.9311 0.14113 0)
(2.91423 0.177735 0)
(2.89769 0.214039 0)
(2.88158 0.251205 0)
(2.87099 0.275143 0)
(2.86713 0.296442 0)
(3 2.69002e-08 0)
(3 3.4304e-08 0)
(3 4.52474e-08 0)
(3 6.17045e-08 0)
(3 8.73336e-08 0)
(3 1.24028e-07 0)
(3 1.84665e-07 0)
(3 2.75148e-07 0)
(3 4.36813e-07 0)
(3 6.97007e-07 0)
(3 1.21226e-06 0)
(3 2.14978e-06 0)
(3 3.79486e-06 0)
(3 7.0126e-06 0)
(2.99999 1.36677e-05 0)
(2.99998 2.78424e-05 0)
(2.99997 5.51733e-05 0)
(2.99993 0.000118276 0)
(2.99986 0.000246913 0)
(2.9997 0.000533825 0)
(2.99936 0.00113656 0)
(2.99867 0.00239345 0)
(2.99731 0.00490342 0)
(2.99467 0.00993204 0)
(2.99025 0.0183283 0)
(2.98234 0.03404 0)
(2.97144 0.0558993 0)
(2.95498 0.0899829 0)
(2.93819 0.124782 0)
(2.91002 0.190153 0)
(3 1.17165e-10 0)
(3 1.49645e-10 0)
(3 2.00184e-10 0)
(3 2.73477e-10 0)
(3 3.82559e-10 0)
(3 5.47039e-10 0)
(3 7.98138e-10 0)
(3 1.20351e-09 0)
(3 1.86738e-09 0)
(3 3.02572e-09 0)
(3 5.13022e-09 0)
(3 9.12497e-09 0)
(3 1.63414e-08 0)
(3 3.08139e-08 0)
(3 6.24096e-08 0)
(3 1.29478e-07 0)
(3 2.81443e-07 0)
(3 6.38504e-07 0)
(3 1.51805e-06 0)
(3 3.74227e-06 0)
(2.99999 9.45203e-06 0)
(2.99999 2.51254e-05 0)
(2.99996 6.62141e-05 0)
(2.9999 0.000181937 0)
(2.99973 0.00047844 0)
(2.99929 0.00128191 0)
(2.99828 0.0031325 0)
(2.99582 0.00783026 0)
(2.99177 0.0155115 0)
(2.9763 0.0479253 0)
(3 3.91262e-13 0)
(3 5.03553e-13 0)
(3 6.81002e-13 0)
(3 9.40178e-13 0)
(3 1.31872e-12 0)
(3 1.89138e-12 0)
(3 2.77855e-12 0)
(3 4.1605e-12 0)
(3 6.48155e-12 0)
(3 1.03279e-11 0)
(3 1.74076e-11 0)
(3 3.03526e-11 0)
(3 5.42615e-11 0)
(3 1.01841e-10 0)
(3 2.06113e-10 0)
(3 4.28499e-10 0)
(3 9.45557e-10 0)
(3 2.18018e-09 0)
(3 5.36868e-09 0)
(3 1.36002e-08 0)
(3 3.68931e-08 0)
(3 1.03198e-07 0)
(3 3.08687e-07 0)
(3 9.41831e-07 0)
(3 3.05607e-06 0)
(2.99999 9.91309e-06 0)
(2.99997 3.37312e-05 0)
(2.99991 0.000114079 0)
(2.99974 0.000336571 0)
(2.99804 0.00246399 0)
(2.42165 -1.31386 0)
(2.5316 -1.38711 0)
(2.78229 -1.43891 0)
(2.93969 -1.60323 0)
(3.09105 -1.70543 0)
(3.08865 -1.77709 0)
(3.10156 -1.60641 0)
(3.09015 -1.58484 0)
(3.12748 -1.42573 0)
(3.14813 -1.27631 0)
(3.16473 -1.1337 0)
(3.16902 -0.969802 0)
(3.1596 -0.787943 0)
(3.13803 -0.592563 0)
(3.09865 -0.394404 0)
(3.0657 -0.241727 0)
(3.02278 -0.103131 0)
(2.96905 0.0359055 0)
(2.90629 0.171621 0)
(2.84145 0.315144 0)
(2.8149 0.374054 0)
(2.81872 0.366397 0)
(2.85766 0.316698 0)
(2.94011 0.143137 0)
(2.99278 0.0168591 0)
(2.99979 0.000467674 0)
(3 4.22367e-06 0)
(3 2.22295e-08 0)
(3 9.55618e-11 0)
(3 3.16691e-13 0)
(2.42302 -1.30296 0)
(2.55669 -1.39213 0)
(2.80273 -1.45407 0)
(2.96047 -1.6194 0)
(3.09011 -1.71732 0)
(3.08011 -1.77865 0)
(3.09983 -1.60915 0)
(3.09814 -1.56888 0)
(3.14643 -1.40752 0)
(3.17622 -1.2321 0)
(3.1818 -1.07317 0)
(3.1686 -0.860933 0)
(3.14079 -0.677973 0)
(3.11178 -0.514026 0)
(3.08499 -0.376217 0)
(3.0517 -0.239104 0)
(3.0108 -0.100843 0)
(2.96014 0.0434055 0)
(2.89751 0.19286 0)
(2.83422 0.332955 0)
(2.81344 0.380639 0)
(2.8211 0.368614 0)
(2.86726 0.299517 0)
(2.95366 0.109254 0)
(2.99575 0.00975989 0)
(2.99992 0.00018071 0)
(3 1.34375e-06 0)
(3 7.4937e-09 0)
(3 3.57487e-11 0)
(3 1.25879e-13 0)
(2.41587 -1.30516 0)
(2.56077 -1.39026 0)
(2.80324 -1.45378 0)
(2.95042 -1.61102 0)
(3.08585 -1.71281 0)
(3.07223 -1.78409 0)
(3.10127 -1.59959 0)
(3.11757 -1.53034 0)
(3.16565 -1.35955 0)
(3.1697 -1.15892 0)
(3.14553 -0.963673 0)
(3.13746 -0.811227 0)
(3.12677 -0.691093 0)
(3.10733 -0.547686 0)
(3.07963 -0.401616 0)
(3.04916 -0.243846 0)
(3.01112 -0.082819 0)
(2.95814 0.0792958 0)
(2.88705 0.238494 0)
(2.82747 0.353742 0)
(2.81078 0.385883 0)
(2.82521 0.375275 0)
(2.88408 0.259683 0)
(2.96553 0.0795744 0)
(2.99751 0.00560594 0)
(2.99996 8.61998e-05 0)
(3 5.95291e-07 0)
(3 3.2401e-09 0)
(3 1.52067e-11 0)
(3 5.32808e-14 0)
(2.40625 -1.30193 0)
(2.56331 -1.39064 0)
(2.80249 -1.45829 0)
(2.94284 -1.61783 0)
(3.0806 -1.71638 0)
(3.071 -1.78424 0)
(3.10712 -1.58083 0)
(3.11726 -1.50698 0)
(3.13613 -1.28299 0)
(3.14759 -1.11226 0)
(3.13858 -0.979714 0)
(3.13323 -0.854084 0)
(3.12296 -0.714343 0)
(3.10934 -0.553638 0)
(3.09226 -0.370929 0)
(3.05841 -0.175547 0)
(3.00059 0.00651375 0)
(2.92978 0.16448 0)
(2.8605 0.294389 0)
(2.8177 0.37126 0)
(2.8107 0.386973 0)
(2.82767 0.365583 0)
(2.90376 0.219415 0)
(2.97678 0.0547461 0)
(2.99873 0.00290448 0)
(2.99998 3.76671e-05 0)
(3 2.51002e-07 0)
(3 1.35454e-09 0)
(3 6.30983e-12 0)
(3 2.21061e-14 0)
(2.39968 -1.30093 0)
(2.56361 -1.38462 0)
(2.79788 -1.46974 0)
(2.93994 -1.61451 0)
(3.08393 -1.70668 0)
(3.07282 -1.77874 0)
(3.11022 -1.5434 0)
(3.11143 -1.45001 0)
(3.13201 -1.30208 0)
(3.14602 -1.15504 0)
(3.13664 -1.01145 0)
(3.13809 -0.859464 0)
(3.14644 -0.677492 0)
(3.13506 -0.475362 0)
(3.08563 -0.2574 0)
(3.02215 -0.0754115 0)
(2.96594 0.0672392 0)
(2.90584 0.19531 0)
(2.84533 0.313022 0)
(2.81127 0.377561 0)
(2.81364 0.38308 0)
(2.84298 0.333631 0)
(2.91118 0.204811 0)
(2.98354 0.0390467 0)
(2.99932 0.00156372 0)
(2.99999 1.69483e-05 0)
(3 1.06426e-07 0)
(3 5.63787e-10 0)
(3 2.58341e-12 0)
(3 8.4873e-15 0)
(2.37934 -1.29488 0)
(2.54361 -1.37272 0)
(2.79113 -1.4744 0)
(2.93206 -1.63265 0)
(3.08784 -1.70364 0)
(3.0797 -1.76461 0)
(3.11465 -1.52013 0)
(3.11624 -1.46487 0)
(3.13129 -1.33035 0)
(3.14877 -1.16934 0)
(3.16355 -0.994953 0)
(3.17734 -0.791854 0)
(3.15106 -0.563602 0)
(3.09607 -0.358528 0)
(3.05106 -0.200348 0)
(3.01033 -0.0713458 0)
(2.95995 0.0574666 0)
(2.89981 0.188896 0)
(2.83827 0.321951 0)
(2.80826 0.379804 0)
(2.81462 0.375095 0)
(2.85124 0.322502 0)
(2.9265 0.170003 0)
(2.98928 0.0246798 0)
(2.99965 0.000765528 0)
(3 7.17667e-06 0)
(3 4.38584e-08 0)
(3 2.29853e-10 0)
(3 1.04189e-12 0)
(3 1.56651e-15 0)
(2.36044 -1.28692 0)
(2.52582 -1.36556 0)
(2.78607 -1.47376 0)
(2.92202 -1.65361 0)
(3.10244 -1.69963 0)
(3.08647 -1.77423 0)
(3.11419 -1.53446 0)
(3.11852 -1.48859 0)
(3.15771 -1.31447 0)
(3.19002 -1.12471 0)
(3.20378 -0.899395 0)
(3.15756 -0.674685 0)
(3.10886 -0.490709 0)
(3.07945 -0.354712 0)
(3.04518 -0.226818 0)
(3.00307 -0.0842028 0)
(2.95291 0.0707594 0)
(2.88981 0.22753 0)
(2.82708 0.353467 0)
(2.80687 0.384975 0)
(2.81666 0.370683 0)
(2.85596 0.31784 0)
(2.95083 0.116352 0)
(2.99421 0.0136141 0)
(2.99985 0.000325339 0)
(3 2.8456e-06 0)
(3 1.72141e-08 0)
(3 9.02645e-11 0)
(3 4.09381e-13 0)
(3 -4.20014e-16 0)
(2.35089 -1.28244 0)
(2.51544 -1.36115 0)
(2.78085 -1.47296 0)
(2.91948 -1.6795 0)
(3.1083 -1.70332 0)
(3.08828 -1.78608 0)
(3.12458 -1.52214 0)
(3.14766 -1.46739 0)
(3.19773 -1.21582 0)
(3.19241 -0.988947 0)
(3.16001 -0.797167 0)
(3.13202 -0.651136 0)
(3.10445 -0.527408 0)
(3.07266 -0.379208 0)
(3.04189 -0.22045 0)
(3.00307 -0.0353496 0)
(2.9363 0.149098 0)
(2.86027 0.294731 0)
(2.81475 0.377492 0)
(2.80608 0.393971 0)
(2.81904 0.374795 0)
(2.88188 0.264056 0)
(2.96269 0.0922296 0)
(2.99689 0.00776653 0)
(2.99994 0.000146289 0)
(3 1.1351e-06 0)
(3 6.68895e-09 0)
(3 3.47407e-11 0)
(3 1.55827e-13 0)
(3 -1.59402e-15 0)
(2.34367 -1.27878 0)
(2.50043 -1.35145 0)
(2.77208 -1.47204 0)
(2.92042 -1.68626 0)
(3.11379 -1.71271 0)
(3.09924 -1.78742 0)
(3.14458 -1.48809 0)
(3.16727 -1.35181 0)
(3.16827 -1.12455 0)
(3.15534 -0.930672 0)
(3.14137 -0.827471 0)
(3.12505 -0.689512 0)
(3.10413 -0.536944 0)
(3.08445 -0.343324 0)
(3.04407 -0.126902 0)
(2.97496 0.0606526 0)
(2.90856 0.201103 0)
(2.84541 0.314709 0)
(2.80944 0.385277 0)
(2.80555 0.399108 0)
(2.82286 0.37993 0)
(2.89913 0.237539 0)
(2.97248 0.0718819 0)
(2.99827 0.00435605 0)
(2.99997 6.42231e-05 0)
(3 4.58253e-07 0)
(3 2.61103e-09 0)
(3 1.33109e-11 0)
(3 5.72215e-14 0)
(3 -2.55499e-15 0)
(2.33701 -1.27523 0)
(2.49748 -1.3452 0)
(2.76418 -1.48481 0)
(2.92597 -1.68464 0)
(3.10677 -1.70508 0)
(3.12511 -1.74978 0)
(3.15657 -1.44905 0)
(3.13779 -1.28811 0)
(3.15059 -1.1718 0)
(3.1517 -0.985279 0)
(3.13701 -0.847302 0)
(3.13484 -0.682541 0)
(3.13217 -0.463812 0)
(3.07676 -0.216822 0)
(3.00464 -0.0289586 0)
(2.95463 0.0897482 0)
(2.89827 0.20545 0)
(2.837 0.323932 0)
(2.80615 0.388201 0)
(2.80837 0.398598 0)
(2.83336 0.357691 0)
(2.90229 0.235606 0)
(2.9817 0.044851 0)
(2.99912 0.00211926 0)
(2.99999 2.63957e-05 0)
(3 1.78895e-07 0)
(3 1.00211e-09 0)
(3 5.03964e-12 0)
(3 1.96008e-14 0)
(3 -2.99341e-15 0)
(2.33499 -1.27513 0)
(2.50181 -1.35062 0)
(2.76077 -1.49903 0)
(2.94273 -1.68616 0)
(3.10289 -1.68657 0)
(3.11631 -1.70858 0)
(3.13312 -1.45428 0)
(3.12549 -1.32496 0)
(3.14764 -1.18529 0)
(3.15587 -0.998503 0)
(3.16976 -0.801378 0)
(3.16718 -0.5717 0)
(3.10119 -0.319098 0)
(3.04185 -0.151111 0)
(2.99453 -0.0278624 0)
(2.94279 0.0972141 0)
(2.88406 0.241182 0)
(2.82415 0.356472 0)
(2.80351 0.388654 0)
(2.80743 0.385484 0)
(2.84368 0.33357 0)
(2.92366 0.170633 0)
(2.9883 0.0270995 0)
(2.99957 0.000970256 0)
(3 1.01993e-05 0)
(3 6.69894e-08 0)
(3 3.72615e-10 0)
(3 1.86089e-12 0)
(3 4.72646e-15 0)
(3 -3.68371e-15 0)
(2.33134 -1.27537 0)
(2.50021 -1.35268 0)
(2.76109 -1.51726 0)
(2.96093 -1.69599 0)
(3.10588 -1.66594 0)
(3.08879 -1.62873 0)
(3.10453 -1.48875 0)
(3.12786 -1.33065 0)
(3.17909 -1.14733 0)
(3.20278 -0.933126 0)
(3.17989 -0.661194 0)
(3.10992 -0.427041 0)
(3.07138 -0.290626 0)
(3.03137 -0.174492 0)
(2.98551 -0.0255157 0)
(2.92631 0.157995 0)
(2.85419 0.307661 0)
(2.81121 0.38226 0)
(2.80124 0.390201 0)
(2.81111 0.372421 0)
(2.84986 0.313866 0)
(2.95329 0.112309 0)
(2.99381 0.0152075 0)
(2.99983 0.000389381 0)
(3 3.69732e-06 0)
(3 2.39154e-08 0)
(3 1.33008e-10 0)
(3 6.63024e-13 0)
(3 -1.46242e-15 0)
(3 -4.26013e-15 0)
(2.32781 -1.27456 0)
(2.48853 -1.34676 0)
(2.74642 -1.53319 0)
(2.97147 -1.71317 0)
(3.11658 -1.63366 0)
(3.0973 -1.63623 0)
(3.11783 -1.48464 0)
(3.17019 -1.28489 0)
(3.19809 -1.064 0)
(3.1841 -0.788718 0)
(3.13073 -0.572674 0)
(3.09563 -0.4393 0)
(3.059 -0.321239 0)
(3.02403 -0.160331 0)
(2.97478 0.0492772 0)
(2.89807 0.224636 0)
(2.83877 0.332795 0)
(2.8049 0.39344 0)
(2.79974 0.396903 0)
(2.81762 0.364149 0)
(2.88955 0.25029 0)
(2.96327 0.0954568 0)
(2.99705 0.0076094 0)
(2.99993 0.00015513 0)
(3 1.31647e-06 0)
(3 8.29894e-09 0)
(3 4.58906e-11 0)
(3 2.28217e-13 0)
(3 -4.5193e-15 0)
(3 -4.11591e-15 0)
(2.31849 -1.26859 0)
(2.46407 -1.33147 0)
(2.71322 -1.52122 0)
(2.96492 -1.69997 0)
(3.10906 -1.67413 0)
(3.09988 -1.65211 0)
(3.15907 -1.42878 0)
(3.20282 -1.17376 0)
(3.18884 -0.959617 0)
(3.14844 -0.752196 0)
(3.12074 -0.621829 0)
(3.08817 -0.471328 0)
(3.06311 -0.291884 0)
(3.01542 -0.0541218 0)
(2.94575 0.128278 0)
(2.88805 0.238237 0)
(2.83013 0.344423 0)
(2.80061 0.401088 0)
(2.79855 0.405573 0)
(2.82262 0.37302 0)
(2.90316 0.234136 0)
(2.97617 0.0657888 0)
(2.99851 0.00402917 0)
(2.99997 6.3549e-05 0)
(3 4.80481e-07 0)
(3 2.90516e-09 0)
(3 1.57278e-11 0)
(3 7.66079e-14 0)
(3 -5.29312e-15 0)
(3 -3.80346e-15 0)
(2.30507 -1.25703 0)
(2.44344 -1.31935 0)
(2.68968 -1.51838 0)
(2.96593 -1.67101 0)
(3.08342 -1.70251 0)
(3.11588 -1.64789 0)
(3.19026 -1.32529 0)
(3.18156 -1.1373 0)
(3.16007 -0.97133 0)
(3.13443 -0.795232 0)
(3.11662 -0.633368 0)
(3.10676 -0.426313 0)
(3.05584 -0.150785 0)
(2.97978 0.0410786 0)
(2.93214 0.145066 0)
(2.87256 0.269609 0)
(2.81861 0.369068 0)
(2.79978 0.402819 0)
(2.80669 0.408844 0)
(2.83292 0.378644 0)
(2.90833 0.232321 0)
(2.98437 0.0400926 0)
(2.99925 0.00193283 0)
(2.99999 2.41662e-05 0)
(3 1.72081e-07 0)
(3 1.013e-09 0)
(3 5.37225e-12 0)
(3 2.57209e-14 0)
(3 -5.35526e-15 0)
(3 -3.33923e-15 0)
(2.29888 -1.25001 0)
(2.43002 -1.31086 0)
(2.6739 -1.52644 0)
(2.96191 -1.65534 0)
(3.06686 -1.69862 0)
(3.1611 -1.5457 0)
(3.18435 -1.29435 0)
(3.15105 -1.14279 0)
(3.14984 -0.982781 0)
(3.14712 -0.775478 0)
(3.15099 -0.539452 0)
(3.09712 -0.255683 0)
(3.01839 -0.0597265 0)
(2.96655 0.0494299 0)
(2.91205 0.187982 0)
(2.84652 0.327287 0)
(2.8068 0.387594 0)
(2.80133 0.399158 0)
(2.80409 0.39689 0)
(2.84121 0.337924 0)
(2.93246 0.151533 0)
(2.98988 0.0238203 0)
(2.99967 0.000769367 0)
(3 8.42367e-06 0)
(3 5.81722e-08 0)
(3 3.4018e-10 0)
(3 1.78752e-12 0)
(3 8.34998e-15 0)
(3 -5.23616e-15 0)
(3 -3.04879e-15 0)
(2.30013 -1.24941 0)
(2.42358 -1.31147 0)
(2.66593 -1.54112 0)
(2.955 -1.65376 0)
(3.06767 -1.64407 0)
(3.15294 -1.39958 0)
(3.15398 -1.3135 0)
(3.16188 -1.13066 0)
(3.18737 -0.922676 0)
(3.17999 -0.629931 0)
(3.11414 -0.34986 0)
(3.05429 -0.180242 0)
(3.00547 -0.0749171 0)