/*--------------------------------*- C++ -*----------------------------------*\
  =========                 |
  \\      /  F ield         | OpenFOAM: The Open Source CFD Toolbox
   \\    /   O peration     | Website:  https://openfoam.org
    \\  /    A nd           | Version:  7
     \\/     M anipulation  |
\*---------------------------------------------------------------------------*/
FoamFile
{
    version     2.0;
    format      ascii;
    class       volScalarField;
    location    "4";
    object      p;
}
// * * * * * * * * * * * * * * * * * * * * * * * * * * * * * * * * * * * * * //

dimensions      [1 -1 -2 0 0 0 0];

internalField   nonuniform List<scalar> 
90000
(
0.803109
0.804902
0.807474
0.810127
0.81265
0.81763
0.8226
0.826343
0.82941
0.833615
0.837724
0.841666
0.845098
0.848982
0.852544
0.856139
0.859602
0.863253
0.866893
0.870546
0.874598
0.878385
0.882884
0.887477
0.89273
0.89822
0.904203
0.91124
0.918677
0.92757
0.936827
0.946949
0.956895
0.966719
0.975716
0.984525
0.991627
0.998159
1.00412
1.00945
1.01236
1.01621
1.01934
1.02375
1.02315
1.01927
1.00712
0.992268
0.978897
0.970331
0.964391
0.96546
0.969617
0.975712
0.981023
0.985618
0.989479
0.992996
0.994902
0.995887
0.995132
0.991704
0.985629
0.978026
0.971714
0.970072
0.971215
0.974694
0.980787
0.987475
0.991914
0.991994
0.98991
0.983858
0.977838
0.974407
0.975603
0.978476
0.981986
0.985792
0.986322
0.984513
0.981355
0.978488
0.979937
0.983476
0.986104
0.985576
0.983352
0.982056
0.982057
0.983896
0.984779
0.983711
0.981751
0.981506
0.982231
0.983933
0.984023
0.982909
0.803311
0.80356
0.803928
0.804398
0.804902
0.80537
0.805924
0.806676
0.808148
0.810414
0.813074
0.815838
0.818644
0.821804
0.825178
0.828628
0.832015
0.835498
0.839081
0.842873
0.846597
0.850314
0.853919
0.857765
0.861773
0.865887
0.870302
0.874968
0.880127
0.88598
0.892247
0.899669
0.90724
0.915951
0.924931
0.934076
0.943815
0.953404
0.962523
0.97195
0.979999
0.987112
0.992926
0.9985
1.00118
1.00292
1.00441
1.00663
1.00585
1.00269
0.995695
0.986819
0.979898
0.975557
0.973162
0.972506
0.973591
0.976764
0.979926
0.984244
0.988917
0.99287
0.995098
0.993019
0.987948
0.981528
0.976412
0.972913
0.973275
0.975482
0.978874
0.983678
0.990685
0.990491
0.987251
0.980733
0.976127
0.97436
0.976137
0.981141
0.986792
0.986817
0.984181
0.981098
0.980598
0.98166
0.983868
0.985315
0.984385
0.98294
0.982855
0.983687
0.984035
0.983817
0.982547
0.981941
0.982265
0.983443
0.983714
0.983002
0.805104
0.805122
0.805152
0.805202
0.805233
0.805268
0.805291
0.805326
0.80537
0.80533
0.805346
0.805489
0.805761
0.806177
0.806726
0.807358
0.80805
0.808865
0.809866
0.811102
0.81303
0.815252
0.817573
0.820149
0.823015
0.826246
0.829512
0.833109
0.836711
0.840861
0.84508
0.849826
0.854889
0.860632
0.867193
0.8742
0.882625
0.891073
0.901249
0.91155
0.922616
0.933918
0.944799
0.955261
0.965902
0.973539
0.983116
0.987379
0.989883
0.992713
0.99661
1.00062
1.00189
1.0005
0.996572
0.990856
0.984414
0.979496
0.977339
0.977766
0.979345
0.982357
0.985677
0.989071
0.993302
0.993067
0.990029
0.982996
0.976023
0.971579
0.97208
0.975004
0.980702
0.986498
0.99166
0.990212
0.983929
0.977971
0.975927
0.977448
0.981249
0.984921
0.987417
0.985272
0.981872
0.980095
0.981281
0.983683
0.98556
0.984346
0.98273
0.982943
0.983989
0.984491
0.983809
0.98209
0.981843
0.982428
0.98359
0.983358
0.806843
0.806873
0.806903
0.80693
0.806953
0.806973
0.806986
0.807009
0.807005
0.806967
0.806865
0.806778
0.806754
0.80682
0.807016
0.807268
0.807505
0.807821
0.808274
0.809116
0.809436
0.809518
0.809592
0.809782
0.810211
0.810914
0.811692
0.812517
0.813453
0.814615
0.816001
0.818123
0.820749
0.823735
0.827347
0.831413
0.836391
0.841866
0.848815
0.856187
0.865619
0.875472
0.887386
0.899528
0.91348
0.927344
0.942619
0.95595
0.967971
0.978095
0.984468
0.988406
0.990178
0.990951
0.992172
0.991673
0.989643
0.986332
0.982916
0.980095
0.978508
0.978971
0.980142
0.981989
0.98408
0.984129
0.984732
0.984607
0.983097
0.979592
0.975743
0.973847
0.97463
0.976936
0.981517
0.984446
0.987789
0.986985
0.983333
0.979076
0.97787
0.97965
0.982847
0.986908
0.986325
0.983548
0.980771
0.981328
0.983117
0.985452
0.984522
0.983059
0.983296
0.984102
0.984564
0.983383
0.982112
0.982311
0.983129
0.983373
0.809883
0.809924
0.809926
0.809896
0.809868
0.809878
0.809922
0.809986
0.810155
0.810238
0.810228
0.810236
0.81027
0.810439
0.810512
0.810483
0.810517
0.810777
0.811192
0.811382
0.811393
0.811384
0.811402
0.811531
0.811822
0.812191
0.812527
0.812852
0.81325
0.813729
0.814448
0.814512
0.814606
0.814797
0.815105
0.81555
0.816198
0.817457
0.819311
0.821742
0.825111
0.829252
0.834795
0.841735
0.849682
0.860796
0.872052
0.887108
0.902768
0.917835
0.934163
0.946966
0.958018
0.965898
0.975107
0.978142
0.981117
0.981969
0.983565
0.986607
0.987346
0.986684
0.985179
0.983818
0.981389
0.97893
0.979107
0.980082
0.982034
0.983931
0.983408
0.980776
0.97693
0.97446
0.97546
0.978846
0.982751
0.98488
0.986578
0.985093
0.981935
0.979159
0.979754
0.981899
0.983952
0.985552
0.984095
0.981673
0.981724
0.983038
0.985433
0.984899
0.983745
0.983304
0.984035
0.983986
0.98299
0.982135
0.982378
0.983162
0.813185
0.813195
0.813188
0.813137
0.813062
0.813014
0.813013
0.813059
0.813077
0.813094
0.813239
0.81339
0.813382
0.813293
0.813282
0.813332
0.813659
0.813936
0.813942
0.813809
0.813638
0.81361
0.813681
0.813923
0.814017
0.814029
0.81403
0.814036
0.814073
0.814176
0.81429
0.814376
0.814504
0.814699
0.814909
0.815114
0.81551
0.815496
0.81552
0.815609
0.815766
0.816005
0.816496
0.817517
0.819059
0.821772
0.825541
0.831649
0.839333
0.850553
0.863741
0.880097
0.898049
0.916011
0.933946
0.948606
0.963757
0.973215
0.980816
0.983859
0.984684
0.984049
0.983034
0.980102
0.975461
0.976038
0.977563
0.979207
0.980903
0.982265
0.982558
0.982131
0.980759
0.977962
0.976968
0.978207
0.979605
0.982287
0.984176
0.98484
0.984669
0.982952
0.980335
0.98035
0.981321
0.983088
0.984012
0.983514
0.982623
0.982263
0.983198
0.984309
0.985037
0.984384
0.983749
0.983751
0.983508
0.982706
0.982199
0.982762
0.816059
0.816076
0.816094
0.816097
0.816084
0.816053
0.816046
0.816075
0.816195
0.816409
0.816659
0.816823
0.816832
0.816812
0.816841
0.816987
0.81718
0.817248
0.817227
0.817082
0.816962
0.816955
0.817059
0.817178
0.817165
0.817093
0.817041
0.816967
0.816828
0.81666
0.81653
0.816432
0.816356
0.816281
0.816205
0.816097
0.815995
0.815863
0.815734
0.815659
0.815576
0.815528
0.815404
0.815207
0.814869
0.814816
0.814857
0.8151
0.815788
0.817592
0.82088
0.826787
0.835063
0.847259
0.860952
0.880056
0.898409
0.91764
0.936108
0.947576
0.958561
0.964193
0.969263
0.97091
0.974566
0.980011
0.982243
0.982148
0.981818
0.980954
0.980016
0.979652
0.979723
0.980842
0.981112
0.980732
0.980349
0.980449
0.981162
0.98293
0.983716
0.98408
0.983102
0.981335
0.980985
0.981425
0.98276
0.983238
0.983393
0.982925
0.982753
0.983282
0.984049
0.984481
0.984131
0.983787
0.983494
0.982862
0.982086
0.98228
0.817009
0.817009
0.817006
0.817007
0.817008
0.817024
0.817076
0.817176
0.817359
0.817492
0.817539
0.817533
0.817527
0.817561
0.81768
0.817791
0.817828
0.817826
0.817794
0.817709
0.817682
0.817724
0.817887
0.818085
0.818168
0.818187
0.81819
0.81819
0.818165
0.818094
0.818038
0.818017
0.818019
0.818028
0.818
0.817814
0.817541
0.81729
0.81703
0.816742
0.816443
0.816153
0.815835
0.81542
0.815016
0.814692
0.814347
0.813623
0.813038
0.812936
0.813009
0.813427
0.814418
0.81647
0.819712
0.825915
0.834703
0.84881
0.864897
0.885542
0.906255
0.926779
0.945317
0.960633
0.97244
0.978442
0.98094
0.980893
0.979251
0.974691
0.975328
0.977254
0.980195
0.982939
0.983403
0.983133
0.982072
0.979886
0.979943
0.980526
0.982544
0.983721
0.983526
0.98282
0.981568
0.981182
0.981628
0.98269
0.983002
0.983047
0.982963
0.983121
0.983408
0.984001
0.984134
0.983983
0.983641
0.983097
0.982193
0.982213
0.816959
0.816954
0.816952
0.816953
0.816963
0.816993
0.817056
0.817177
0.817343
0.817442
0.81746
0.817467
0.817486
0.817539
0.817627
0.817683
0.8177
0.817691
0.817657
0.817591
0.817565
0.817604
0.817779
0.817996
0.818052
0.818034
0.818022
0.818014
0.817972
0.817834
0.81767
0.817635
0.817635
0.817623
0.817631
0.81774
0.817755
0.817715
0.817613
0.817452
0.817241
0.817
0.816693
0.816299
0.815833
0.815162
0.814176
0.813329
0.812894
0.812762
0.812681
0.812673
0.812696
0.812662
0.812469
0.812643
0.813473
0.815634
0.81978
0.827822
0.839695
0.856826
0.877719
0.901258
0.923177
0.938843
0.953414
0.961891
0.966861
0.970252
0.977843
0.981469
0.983171
0.983806
0.983155
0.981549
0.980679
0.979992
0.980341
0.9812
0.982035
0.982546
0.982447
0.982269
0.982361
0.982115
0.982046
0.982107
0.982465
0.982769
0.983188
0.983202
0.983278
0.983512
0.983848
0.984076
0.983911
0.983462
0.982718
0.982415
0.816256
0.816263
0.816269
0.816312
0.816379
0.816411
0.816439
0.816481
0.816587
0.816783
0.816937
0.817026
0.817071
0.817093
0.817089
0.817046
0.816936
0.816852
0.816791
0.81668
0.816597
0.816612
0.816681
0.816691
0.816551
0.816388
0.816378
0.816341
0.816165
0.815837
0.815674
0.815651
0.815655
0.81572
0.815741
0.815748
0.815789
0.815793
0.815761
0.815646
0.815474
0.815327
0.815174
0.814982
0.81469
0.814114
0.813719
0.813563
0.813439
0.813278
0.813018
0.812684
0.812524
0.812455
0.812334
0.812135
0.812012
0.811976
0.812049
0.812488
0.813843
0.817625
0.824566
0.837575
0.856436
0.878896
0.905008
0.927099
0.950453
0.966264
0.976274
0.979602
0.981887
0.980536
0.976582
0.977216
0.979151
0.981345
0.98238
0.982281
0.981243
0.980127
0.980707
0.981568
0.982808
0.982791
0.982521
0.981923
0.98201
0.982403
0.983063
0.983243
0.983162
0.983182
0.983434
0.983925
0.983898
0.983724
0.98338
0.982801
0.815057
0.815098
0.815123
0.815146
0.815161
0.815158
0.815138
0.81512
0.815126
0.815205
0.815282
0.815272
0.815246
0.815258
0.815246
0.815158
0.815024
0.814934
0.814892
0.814814
0.814709
0.814692
0.814684
0.814585
0.814368
0.814323
0.814335
0.814274
0.813949
0.813688
0.813687
0.8137
0.813677
0.813691
0.813711
0.813673
0.813664
0.81369
0.813686
0.813631
0.8136
0.813632
0.813714
0.813704
0.813512
0.81311
0.813036
0.813086
0.813085
0.812991
0.812769
0.812632
0.81255
0.812467
0.812369
0.812138
0.811952
0.811889
0.81194
0.811916
0.811735
0.811712
0.811996
0.813779
0.817788
0.827348
0.840699
0.862037
0.885641
0.910491
0.933386
0.946637
0.961332
0.965132
0.972637
0.978193
0.982949
0.983458
0.983109
0.981177
0.979141
0.979288
0.980399
0.9823
0.98286
0.98271
0.982194
0.981848
0.982103
0.982646
0.982814
0.983047
0.982993
0.983078
0.983336
0.983665
0.983767
0.983809
0.983785
0.983365
0.813053
0.813052
0.81304
0.813036
0.813051
0.8131
0.813121
0.813119
0.813107
0.813081
0.813068
0.813083
0.813078
0.813052
0.812996
0.812934
0.812923
0.812929
0.812915
0.812879
0.812892
0.812929
0.812883
0.812629
0.812543
0.812554
0.812543
0.812389
0.812059
0.811978
0.812021
0.812056
0.812055
0.812078
0.812081
0.811992
0.81189
0.811904
0.811958
0.81194
0.811924
0.811971
0.812069
0.812065
0.811975
0.811969
0.812069
0.812357
0.812546
0.812567
0.812556
0.812552
0.812556
0.812529
0.812466
0.812377
0.812382
0.812527
0.812684
0.812713
0.812634
0.812465
0.812414
0.812421
0.81269
0.813519
0.815718
0.821363
0.830635
0.848221
0.869269
0.896627
0.923188
0.944652
0.968441
0.975657
0.981442
0.981098
0.9779
0.976144
0.977391
0.980181
0.982497
0.982635
0.982368
0.981296
0.981428
0.982013
0.982556
0.98259
0.982461
0.982575
0.982715
0.983001
0.983151
0.983292
0.983569
0.983929
0.984008
0.983695
0.811149
0.811147
0.811137
0.811124
0.811118
0.811121
0.811143
0.811184
0.811197
0.811195
0.8112
0.811191
0.81112
0.811072
0.811065
0.811105
0.811134
0.811121
0.811116
0.811149
0.811291
0.8114
0.811403
0.81132
0.811229
0.8111
0.810862
0.810599
0.810425
0.810368
0.81038
0.810415
0.810424
0.810418
0.810377
0.810253
0.810014
0.809894
0.80991
0.80991
0.809891
0.809916
0.809981
0.810035
0.810089
0.810207
0.810495
0.811027
0.811752
0.81223
0.812308
0.812337
0.812325
0.812258
0.812167
0.812127
0.812247
0.812584
0.813135
0.813601
0.813691
0.813568
0.813366
0.813359
0.813491
0.813651
0.813642
0.813917
0.815024
0.818039
0.82452
0.838078
0.856568
0.883618
0.9111
0.932174
0.954644
0.960989
0.966936
0.974301
0.980609
0.98272
0.982636
0.98093
0.97983
0.980283
0.981731
0.98291
0.9828
0.982387
0.982025
0.982141
0.982595
0.983066
0.98296
0.983029
0.983456
0.984081
0.984131
0.983872
0.810545
0.810552
0.810551
0.810536
0.810525
0.810522
0.810539
0.810573
0.810567
0.810558
0.81056
0.810554
0.810518
0.810495
0.810483
0.810489
0.8105
0.810483
0.810465
0.810484
0.810638
0.810689
0.810702
0.810729
0.810736
0.810665
0.810399
0.810142
0.810061
0.81005
0.810079
0.810107
0.81011
0.810095
0.810053
0.809895
0.809536
0.809374
0.809329
0.809247
0.80918
0.809185
0.809205
0.809214
0.809238
0.809333
0.809603
0.810094
0.810764
0.811341
0.811496
0.81152
0.811513
0.8114
0.811253
0.811285
0.811565
0.81223
0.81305
0.813646
0.813729
0.813585
0.813542
0.813792
0.813934
0.81389
0.813653
0.813411
0.813415
0.813675
0.814392
0.816307
0.820624
0.831818
0.848119
0.87582
0.903916
0.931537
0.958569
0.971581
0.977248
0.980521
0.97767
0.975209
0.977331
0.98094
0.982756
0.982555
0.981777
0.981513
0.981919
0.982456
0.982646
0.982613
0.982561
0.982827
0.983484
0.983953
0.983987
0.983867
0.810428
0.810428
0.810436
0.81043
0.810424
0.810428
0.810466
0.810468
0.81043
0.810419
0.810423
0.810424
0.810396
0.810355
0.810341
0.810344
0.81034
0.810312
0.810293
0.810331
0.810424
0.810425
0.810402
0.810437
0.810545
0.810521
0.810394
0.810361
0.810509
0.810772
0.81082
0.810835
0.810843
0.810818
0.810788
0.810661
0.810316
0.809898
0.809545
0.809215
0.809036
0.808992
0.808982
0.808978
0.808993
0.809092
0.809448
0.810168
0.811075
0.811847
0.812332
0.812536
0.812527
0.812339
0.811964
0.811865
0.812058
0.812434
0.812815
0.813221
0.813253
0.813053
0.813014
0.813266
0.81349
0.813465
0.813209
0.812742
0.812649
0.812877
0.813284
0.813493
0.813676
0.814785
0.818385
0.827841
0.843351
0.869161
0.897327
0.924344
0.94424
0.959375
0.965893
0.974202
0.982032
0.982521
0.981992
0.980076
0.980152
0.981232
0.982681
0.982994
0.982674
0.98203
0.982236
0.982975
0.983605
0.983854
0.983843
0.983931
0.810852
0.810879
0.8109
0.810906
0.810912
0.81093
0.810921
0.810811
0.810707
0.810687
0.810683
0.81069
0.810704
0.810696
0.810698
0.810748
0.810784
0.81079
0.810826
0.810944
0.810956
0.810913
0.810911
0.810975
0.811086
0.81118
0.811265
0.811386
0.811633
0.811972
0.812195
0.81228
0.812314
0.812359
0.812421
0.812419
0.812241
0.81187
0.811571
0.811353
0.811082
0.81072
0.810345
0.810118
0.810057
0.810077
0.810215
0.810614
0.8112
0.81182
0.812414
0.812719
0.812667
0.812362
0.812036
0.811937
0.812048
0.812246
0.812352
0.812357
0.812155
0.811886
0.811914
0.812367
0.812745
0.81276
0.812501
0.811973
0.811852
0.812051
0.812604
0.813226
0.813607
0.813523
0.813635
0.814628
0.817694
0.825575
0.840206
0.864379
0.895556
0.925016
0.953993
0.971097
0.979231
0.979407
0.974553
0.975759
0.978666
0.981851
0.982528
0.982338
0.981675
0.981915
0.982816
0.983237
0.983216
0.983321
0.983599
0.983999
0.811332
0.81134
0.811344
0.811364
0.811384
0.81138
0.811362
0.811281
0.811085
0.810964
0.810942
0.81094
0.810993
0.811039
0.811078
0.811212
0.81129
0.811298
0.811308
0.811327
0.811371
0.81146
0.811528
0.811583
0.811652
0.811794
0.811972
0.812114
0.812303
0.812768
0.813203
0.813347
0.813428
0.813574
0.813738
0.813764
0.813649
0.813596
0.813616
0.813561
0.813313
0.812865
0.812285
0.811742
0.811384
0.811284
0.811324
0.811524
0.811776
0.812105
0.812618
0.812926
0.812818
0.812365
0.812212
0.812204
0.81215
0.812028
0.812059
0.812096
0.811794
0.811184
0.811108
0.811363
0.811676
0.811743
0.811568
0.811187
0.811077
0.811229
0.81182
0.8126
0.813149
0.813384
0.81346
0.813565
0.81384
0.814638
0.817052
0.824101
0.838338
0.862648
0.893077
0.922793
0.94449
0.958804
0.965549
0.976827
0.982181
0.982112
0.981381
0.980213
0.980674
0.982369
0.983643
0.983356
0.982806
0.982889
0.983444
0.984089
0.811811
0.811766
0.811766
0.811807
0.811829
0.811833
0.811842
0.811834
0.811755
0.811571
0.811478
0.811483
0.811484
0.811491
0.811539
0.811612
0.811633
0.811626
0.811625
0.811646
0.811803
0.811863
0.811826
0.811812
0.811841
0.811937
0.812062
0.812187
0.812449
0.812996
0.813535
0.813818
0.813984
0.814171
0.814435
0.814704
0.814845
0.814915
0.814949
0.814969
0.81491
0.814576
0.813989
0.813344
0.812805
0.812594
0.812605
0.812684
0.812743
0.812963
0.813297
0.813321
0.813054
0.812672
0.812614
0.812573
0.812367
0.812157
0.812171
0.812164
0.811808
0.811114
0.81083
0.810845
0.81093
0.811014
0.811128
0.811281
0.811309
0.811372
0.811551
0.81185
0.8124
0.81278
0.812886
0.812935
0.813039
0.813178
0.813458
0.814281
0.816931
0.823764
0.838708
0.863556
0.894526
0.928323
0.958161
0.973006
0.979526
0.978092
0.974638
0.977061
0.981074
0.983226
0.982954
0.982177
0.98234
0.983104
0.983495
0.983869
0.812865
0.81292
0.812978
0.812979
0.812984
0.813032
0.813149
0.813192
0.81321
0.813223
0.813192
0.81309
0.813041
0.813023
0.812968
0.812837
0.812742
0.812721
0.812722
0.812745
0.812753
0.812683
0.812504
0.812452
0.812393
0.81235
0.812353
0.812397
0.812466
0.812681
0.813106
0.813259
0.813301
0.813385
0.813629
0.81408
0.814584
0.814717
0.814737
0.814743
0.814689
0.814521
0.814243
0.813775
0.813227
0.812943
0.812903
0.812909
0.813066
0.813551
0.813659
0.813499
0.813111
0.813018
0.812992
0.812843
0.812614
0.812581
0.812704
0.812763
0.812581
0.812141
0.811483
0.810856
0.810694
0.810752
0.810996
0.811324
0.811542
0.811596
0.811603
0.811634
0.811718
0.812023
0.812222
0.812178
0.812184
0.812362
0.812602
0.8129
0.813381
0.814431
0.817367
0.824636
0.840644
0.866504
0.898385
0.928875
0.948425
0.961975
0.969428
0.98122
0.982784
0.982314
0.980408
0.980782
0.982514
0.983892
0.983589
0.983611
0.813752
0.814035
0.814246
0.814269
0.814272
0.814296
0.814347
0.814383
0.814402
0.814412
0.814423
0.814393
0.814188
0.814074
0.813971
0.813719
0.813606
0.813549
0.813455
0.813337
0.813182
0.812974
0.81292
0.812895
0.812824
0.812663
0.8126
0.812601
0.812592
0.812547
0.812538
0.81258
0.81257
0.812595
0.812717
0.813053
0.813627
0.813981
0.814015
0.813991
0.813903
0.813781
0.813557
0.813046
0.812429
0.812154
0.812108
0.812159
0.812556
0.813179
0.813251
0.813038
0.812761
0.812748
0.8128
0.812698
0.812633
0.812885
0.813449
0.813651
0.813678
0.813569
0.813194
0.812564
0.811997
0.811654
0.811501
0.81157
0.811786
0.811859
0.811804
0.81155
0.811413
0.811417
0.811508
0.811689
0.811786
0.811782
0.811883
0.812134
0.812498
0.812804
0.813096
0.813943
0.817189
0.824858
0.843635
0.871599
0.903453
0.943701
0.9642
0.978609
0.978934
0.97569
0.97639
0.979408
0.982707
0.983258
0.983208
0.983528
0.814287
0.814316
0.814375
0.814585
0.814942
0.815015
0.815024
0.814993
0.814963
0.814983
0.814991
0.814985
0.814886
0.814742
0.814528
0.814183
0.814122
0.814123
0.814082
0.813816
0.813459
0.813413
0.813411
0.813388
0.813287
0.81312
0.812869
0.812583
0.812469
0.812422
0.812339
0.812232
0.812183
0.812227
0.812329
0.812534
0.812958
0.813215
0.813256
0.813257
0.813227
0.813122
0.81285
0.812294
0.811739
0.811483
0.811443
0.811557
0.812219
0.813141
0.813389
0.81328
0.813198
0.813236
0.813273
0.813165
0.8131
0.813418
0.813715
0.813732
0.813835
0.814095
0.814147
0.814003
0.813495
0.812624
0.812239
0.81226
0.81244
0.81258
0.81247
0.811996
0.811377
0.81122
0.811266
0.811515
0.811813
0.811944
0.812035
0.812234
0.812565
0.812848
0.81293
0.812973
0.813143
0.813968
0.81786
0.826415
0.848712
0.877621
0.910197
0.944384
0.955316
0.966483
0.975969
0.982632
0.982224
0.981436
0.982175
0.983393
0.81189
0.812107
0.812684
0.813208
0.813311
0.81332
0.813265
0.813241
0.813313
0.813471
0.813526
0.813483
0.813448
0.813436
0.813377
0.813161
0.812998
0.812958
0.81292
0.812847
0.812707
0.812581
0.812539
0.812521
0.812459
0.812326
0.812008
0.811427
0.811215
0.811249
0.811224
0.811255
0.811506
0.812118
0.812521
0.812616
0.812758
0.812898
0.81293
0.812859
0.81266
0.812426
0.812181
0.81193
0.811677
0.811472
0.811506
0.811929
0.812863
0.813599
0.813873
0.813906
0.813928
0.814038
0.81401
0.813898
0.813949
0.813865
0.813444
0.813246
0.813254
0.813527
0.813884
0.813968
0.813815
0.813049
0.81208
0.811933
0.81218
0.812748
0.81298
0.812805
0.812293
0.812024
0.812067
0.812314
0.812465
0.812401
0.812183
0.812149
0.812239
0.812396
0.812436
0.812373
0.812301
0.81228
0.812548
0.813806
0.818977
0.830036
0.856517
0.88798
0.924042
0.960717
0.972626
0.98053
0.975668
0.976814
0.979827
0.983007
0.807633
0.807968
0.808388
0.808672
0.809023
0.809284
0.809369
0.809638
0.810416
0.811029
0.811061
0.810906
0.810862
0.810972
0.810932
0.810609
0.810395
0.810326
0.810292
0.81026
0.810267
0.810281
0.810236
0.810177
0.810048
0.809711
0.809587
0.809605
0.80968
0.809833
0.810195
0.811107
0.812566
0.813665
0.814047
0.814163
0.81427
0.814459
0.814541
0.814505
0.814176
0.81363
0.813171
0.812728
0.812232
0.811945
0.812023
0.812586
0.813151
0.813492
0.813888
0.814085
0.814162
0.814222
0.814372
0.814684
0.814811
0.814471
0.813062
0.812131
0.812059
0.812374
0.813506
0.814208
0.814173
0.813609
0.812416
0.811802
0.811911
0.812429
0.813136
0.813303
0.813184
0.812996
0.812995
0.813124
0.813181
0.813064
0.81266
0.812244
0.812189
0.81217
0.812139
0.812074
0.811931
0.811834
0.811794
0.811862
0.812377
0.814386
0.821313
0.835783
0.866266
0.901007
0.930501
0.955874
0.963742
0.9777
0.980898
0.982645
0.802904
0.803218
0.803428
0.803711
0.803997
0.804174
0.804415
0.804948
0.805639
0.8058
0.805587
0.805499
0.805878
0.807037
0.807955
0.807998
0.80775
0.807661
0.807761
0.807894
0.808062
0.808324
0.808444
0.808446
0.80828
0.807569
0.807015
0.806974
0.807138
0.807849
0.809083
0.81078
0.812504
0.813444
0.813661
0.813504
0.8134
0.813522
0.813776
0.813788
0.813523
0.813219
0.812936
0.812504
0.811999
0.811705
0.811761
0.811879
0.81175
0.81166
0.811948
0.812897
0.813517
0.813708
0.813934
0.814295
0.814415
0.813968
0.81243
0.81106
0.810813
0.811048
0.812208
0.81366
0.813939
0.8137
0.813004
0.812451
0.812462
0.812702
0.813122
0.813406
0.813436
0.813404
0.813416
0.813494
0.81356
0.813481
0.813187
0.812763
0.812585
0.812497
0.81232
0.812094
0.811898
0.811864
0.811898
0.811989
0.811995
0.812117
0.812905
0.815882
0.82545
0.84467
0.878936
0.915208
0.950374
0.97408
0.978662
0.976762
0.806875
0.807053
0.807217
0.807602
0.807987
0.807799
0.806937
0.80502
0.804263
0.80421
0.804356
0.80437
0.804303
0.804529
0.804815
0.804802
0.804848
0.805084
0.806004
0.806588
0.806685
0.806989
0.807377
0.807378
0.806943
0.805726
0.804409
0.803653
0.803244
0.803216
0.803626
0.804533
0.805205
0.805129
0.804701
0.804538
0.804685
0.805363
0.807634
0.810051
0.810341
0.810398
0.810265
0.809755
0.808982
0.807895
0.807108
0.807049
0.807061
0.807194
0.807943
0.80909
0.809982
0.810618
0.811166
0.811857
0.812428
0.812489
0.812259
0.8119
0.811312
0.810878
0.811062
0.811937
0.813042
0.813274
0.813143
0.81317
0.813254
0.813245
0.813201
0.813275
0.813311
0.813297
0.813304
0.81334
0.813301
0.81312
0.812938
0.812946
0.813009
0.813059
0.812982
0.812705
0.812443
0.812326
0.812243
0.812239
0.812297
0.812401
0.812477
0.812738
0.813891
0.818393
0.83117
0.855663
0.892631
0.926343
0.949421
0.967866
0.80666
0.807013
0.807365
0.807509
0.807105
0.803459
0.799327
0.798875
0.799051
0.800547
0.801617
0.801654
0.801335
0.80069
0.799821
0.799078
0.799273
0.800112
0.800655
0.801167
0.801707
0.80232
0.803376
0.804735
0.805276
0.805249
0.804959
0.804314
0.803491
0.802289
0.800219
0.797946
0.795904
0.793882
0.792982
0.792941
0.793521
0.79526
0.798284
0.802159
0.805067
0.8064
0.806662
0.806509
0.80598
0.804857
0.803029
0.801769
0.801598
0.80185
0.802942
0.804734
0.805625
0.806043
0.806598
0.807371
0.808407
0.810234
0.811479
0.8115
0.811469
0.811109
0.810326
0.810029
0.810218
0.811134
0.812352
0.81286
0.812992
0.813009
0.812951
0.812768
0.812805
0.813002
0.813084
0.813056
0.812933
0.812777
0.812768
0.812864
0.813125
0.813346
0.813376
0.813311
0.813155
0.812997
0.812833
0.812674
0.812616
0.812605
0.812614
0.812637
0.812705
0.813093
0.815079
0.821778
0.840195
0.869359
0.908664
0.957399
0.806819
0.806728
0.806335
0.805825
0.803712
0.80128
0.800754
0.800699
0.80099
0.801739
0.802385
0.80273
0.802879
0.802874
0.802367
0.801176
0.800897
0.801027
0.801607
0.802527
0.803569
0.805
0.807365
0.81016
0.812223
0.81287
0.812786
0.812123
0.810873
0.808697
0.804193
0.798848
0.795408
0.793741
0.793231
0.793348
0.794223
0.796214
0.798922
0.801669
0.804089
0.805976
0.80757
0.808419
0.808251
0.807472
0.805906
0.804025
0.80351
0.803601
0.803431
0.803386
0.80397
0.804132
0.80418
0.804176
0.804105
0.80433
0.805521
0.807675
0.80857
0.808542
0.807649
0.806393
0.806012
0.806229
0.807285
0.808907
0.810204
0.81073
0.810947
0.811123
0.811418
0.811853
0.812345
0.812779
0.813062
0.813125
0.813089
0.81314
0.813334
0.813523
0.813576
0.813572
0.813531
0.813443
0.813326
0.813224
0.813134
0.812971
0.812832
0.812793
0.812825
0.812883
0.81297
0.813663
0.816956
0.827855
0.849884
0.902467
0.820178
0.820074
0.819315
0.815444
0.811096
0.810696
0.811254
0.812082
0.811767
0.810977
0.810972
0.812291
0.815492
0.816452
0.816308
0.81507
0.81417
0.81455
0.816566
0.817694
0.817509
0.817328
0.818259
0.820182
0.822233
0.825106
0.825987
0.825723
0.825533
0.824415
0.819408
0.814591
0.81234
0.811638
0.811638
0.811531
0.810913
0.808558
0.805593
0.805374
0.806401
0.806938
0.807179
0.807695
0.808214
0.808026
0.806684
0.804526
0.804226
0.80445
0.804473
0.804851
0.805476
0.805769
0.805726
0.804917
0.803522
0.80265
0.802368
0.802566
0.803527
0.805095
0.805396
0.804688
0.803337
0.802831
0.802914
0.80359
0.804908
0.80629
0.807505
0.80869
0.809511
0.810015
0.810776
0.811973
0.812929
0.813119
0.813094
0.813111
0.8133
0.813574
0.813672
0.813683
0.81366
0.813527
0.81329
0.813153
0.813186
0.813287
0.813264
0.813204
0.813264
0.813301
0.81323
0.81303
0.813091
0.814463
0.819633
0.851897
0.87194
0.870705
0.868737
0.864987
0.856464
0.849677
0.847938
0.847894
0.848483
0.849149
0.848841
0.847
0.843953
0.841589
0.84074
0.840359
0.840519
0.841637
0.841782
0.8405
0.837588
0.833783
0.829616
0.827984
0.828174
0.830568
0.833558
0.83373
0.831211
0.828365
0.828861
0.830102
0.82984
0.830007
0.831135
0.831392
0.831017
0.828987
0.823987
0.818381
0.814663
0.813492
0.814101
0.815013
0.815145
0.814785
0.811715
0.806289
0.80454
0.804781
0.806972
0.808546
0.809398
0.810508
0.811796
0.811648
0.809145
0.804668
0.802879
0.802899
0.803671
0.80517
0.807066
0.808577
0.8085
0.807512
0.805609
0.804137
0.804079
0.804775
0.806275
0.806699
0.80641
0.805931
0.805999
0.806706
0.807995
0.808884
0.809516
0.810114
0.810829
0.811719
0.812519
0.812905
0.813227
0.813304
0.813271
0.813243
0.813191
0.813191
0.81324
0.813428
0.813628
0.813654
0.81349
0.813003
0.812716
0.812807
0.813464
0.82347
0.921134
0.920905
0.919594
0.917328
0.914529
0.909303
0.903254
0.901912
0.901928
0.902186
0.90213
0.902168
0.903519
0.904997
0.904526
0.902524
0.901514
0.901282
0.900218
0.899058
0.899699
0.899518
0.895148
0.887031
0.88319
0.883405
0.884576
0.884781
0.88173
0.877838
0.876457
0.874442
0.87086
0.866799
0.861716
0.85859
0.858694
0.859084
0.856903
0.8512
0.850467
0.853161
0.853576
0.852885
0.852831
0.852553
0.849503
0.842247
0.833392
0.826733
0.825619
0.826084
0.827001
0.828086
0.828517
0.828168
0.826701
0.8236
0.817749
0.810733
0.807473
0.807443
0.808886
0.812194
0.813432
0.812683
0.810064
0.806563
0.805256
0.805221
0.805082
0.804526
0.803972
0.803654
0.803674
0.803997
0.804682
0.805426
0.806334
0.807172
0.807889
0.80878
0.810099
0.811337
0.812032
0.812694
0.812751
0.812853
0.812948
0.81302
0.813309
0.813704
0.813788
0.813793
0.813609
0.812865
0.812573
0.812681
0.813068
0.815337
0.989296
0.98615
0.983513
0.982437
0.982301
0.982453
0.982999
0.982074
0.976926
0.970579
0.968233
0.968281
0.969299
0.969579
0.968055
0.964376
0.959109
0.955247
0.954842
0.955396
0.955297
0.953295
0.949003
0.945441
0.943085
0.940644
0.939235
0.939402
0.939834
0.938312
0.937338
0.937504
0.935473
0.930205
0.928605
0.927807
0.925795
0.921665
0.915463
0.907642
0.899527
0.895263
0.893776
0.891639
0.885815
0.882974
0.883444
0.882772
0.878287
0.870855
0.866442
0.865892
0.864815
0.859476
0.847957
0.841208
0.8415
0.842977
0.840358
0.83518
0.834065
0.832596
0.826637
0.819409
0.817927
0.817363
0.815822
0.81369
0.810944
0.808177
0.807529
0.807088
0.806111
0.805834
0.80621
0.807443
0.808702
0.809085
0.809515
0.809457
0.808897
0.808159
0.808082
0.808412
0.808511
0.808742
0.809238
0.810181
0.811552
0.812552
0.812886
0.813216
0.813343
0.81321
0.812791
0.812486
0.812559
0.813191
0.813891
0.814052
1.06166
1.06204
1.06171
1.06105
1.0611
1.06136
1.06114
1.05795
1.05279
1.05186
1.05259
1.05286
1.05153
1.04908
1.04875
1.04816
1.04357
1.0388
1.03875
1.03879
1.03761
1.03481
1.0305
1.02759
1.02589
1.0226
1.01702
1.01478
1.0143
1.01349
1.01157
1.0086
1.00072
0.995029
0.994153
0.99298
0.989592
0.985188
0.981443
0.974119
0.968258
0.96811
0.967784
0.965417
0.960417
0.955829
0.952117
0.944116
0.930832
0.926056
0.923736
0.920276
0.918235
0.915715
0.909453
0.902792
0.899182
0.892494
0.878046
0.869723
0.869984
0.8716
0.870825
0.865332
0.853606
0.843398
0.842
0.843159
0.842384
0.835905
0.828505
0.826204
0.824497
0.822076
0.819288
0.816592
0.814283
0.811261
0.80889
0.807842
0.806508
0.805791
0.805783
0.805984
0.806188
0.806507
0.807097
0.807833
0.808797
0.809886
0.810459
0.811007
0.811515
0.811665
0.811797
0.812088
0.812912
0.814142
0.81452
0.81433
1.15325
1.15192
1.15067
1.15004
1.14918
1.14581
1.14443
1.14427
1.14262
1.13995
1.13954
1.1389
1.13517
1.13097
1.1309
1.13065
1.12937
1.12594
1.12082
1.11944
1.11877
1.1171
1.11274
1.10892
1.10724
1.10507
1.1009
1.0979
1.09657
1.09473
1.09104
1.08903
1.08677
1.0831
1.07913
1.07539
1.07148
1.06699
1.0615
1.05482
1.04839
1.04316
1.03551
1.02833
1.02764
1.02746
1.02574
1.02039
1.01203
1.00366
0.997098
0.991845
0.982748
0.972388
0.965925
0.963224
0.961239
0.956045
0.946087
0.936714
0.924901
0.914365
0.91182
0.908882
0.90328
0.893962
0.880498
0.873548
0.871017
0.867465
0.85736
0.847107
0.841828
0.837896
0.833159
0.826188
0.819823
0.815366
0.811657
0.810538
0.809487
0.80806
0.807985
0.808544
0.810457
0.811818
0.811266
0.81036
0.809824
0.809137
0.808451
0.8087
0.809186
0.809821
0.810508
0.811881
0.812827
0.813917
0.814118
0.813798
1.24664
1.24406
1.24327
1.2431
1.24182
1.23948
1.23885
1.23756
1.23364
1.23
1.2298
1.23046
1.23012
1.22824