/*--------------------------------*- C++ -*----------------------------------*\
  =========                 |
  \\      /  F ield         | OpenFOAM: The Open Source CFD Toolbox
   \\    /   O peration     | Website:  https://openfoam.org
    \\  /    A nd           | Version:  7
     \\/     M anipulation  |
\*---------------------------------------------------------------------------*/
FoamFile
{
    version     2.0;
    format      ascii;
    class       volScalarField;
    location    "2";
    object      T;
}
// * * * * * * * * * * * * * * * * * * * * * * * * * * * * * * * * * * * * * //

dimensions      [0 0 0 1 0 0 0];

internalField   nonuniform List<scalar> 
90000
(
0.657052
0.716343
0.764633
0.801607
0.835779
0.861614
0.879719
0.89723
0.914564
0.927601
0.939177
0.951211
0.96304
0.973937
0.9851
0.996292
1.00788
1.01986
1.03215
1.04474
1.05813
1.07157
1.08565
1.09953
1.1142
1.12761
1.13987
1.14896
1.15458
1.15635
1.15699
1.15638
1.15547
1.15341
1.15161
1.14927
1.14623
1.14277
1.13925
1.13579
1.13211
1.12836
1.12546
1.12249
1.11955
1.11567
1.11632
1.11826
1.12108
1.12438
1.1275
1.13057
1.13364
1.13613
1.13855
1.13837
1.13676
1.13327
1.12869
1.12467
1.12091
1.12109
1.12296
1.12591
1.12966
1.13197
1.13157
1.12976
1.12679
1.12299
1.11937
1.11855
1.119
1.12146
1.12445
1.12575
1.12504
1.12209
1.11878
1.11697
1.11785
1.11967
1.12119
1.12037
1.11791
1.11633
1.11621
1.11754
1.11822
1.11779
1.11722
1.11702
1.11791
1.1184
1.11791
1.1179
1.11835
1.11897
1.12006
1.12525
0.600372
0.600225
0.600062
0.59989
0.599713
0.599531
0.599344
0.599149
0.598955
0.598733
0.598563
0.599069
0.600456
0.603325
0.607863
0.615015
0.624619
0.637934
0.654128
0.674988
0.699006
0.727952
0.759654
0.795412
0.831322
0.869367
0.905501
0.941561
0.972516
0.999712
1.02224
1.04256
1.06081
1.07565
1.08978
1.10014
1.11073
1.11707
1.124
1.12723
1.13099
1.13227
1.13451
1.13422
1.13434
1.13542
1.14074
1.14455
1.14874
1.15076
1.15308
1.15354
1.15375
1.15336
1.15238
1.14947
1.1433
1.13819
1.13496
1.1353
1.13464
1.13579
1.13797
1.14045
1.14139
1.14096
1.1387
1.1342
1.128
1.12516
1.12403
1.12439
1.12715
1.13054
1.13377
1.13242
1.12921
1.12466
1.12178
1.12099
1.12313
1.12666
1.12563
1.12275
1.11916
1.11747
1.11821
1.12021
1.12004
1.11882
1.11774
1.11816
1.11929
1.11942
1.11872
1.1187
1.11907
1.11981
1.12084
1.12655
0.597989
0.597853
0.597705
0.59755
0.597387
0.597221
0.59705
0.596875
0.596692
0.596506
0.596312
0.596101
0.595896
0.595638
0.595361
0.59508
0.594801
0.594531
0.59427
0.594023
0.593785
0.593563
0.593346
0.593147
0.592952
0.592797
0.592562
0.594456
0.599752
0.612776
0.631524
0.661466
0.69496
0.737568
0.77855
0.824451
0.865523
0.908118
0.944875
0.98103
1.01369
1.04425
1.07287
1.09735
1.12142
1.13832
1.14944
1.15334
1.15738
1.15799
1.15893
1.15838
1.15662
1.15264
1.14514
1.13381
1.12978
1.13154
1.13513
1.13895
1.14357
1.14836
1.14908
1.14791
1.14586
1.14176
1.13486
1.12929
1.12476
1.12475
1.12632
1.13071
1.13645
1.13629
1.13504
1.13064
1.12482
1.12171
1.12183
1.12453
1.12838
1.12793
1.12549
1.12111
1.11772
1.1179
1.11971
1.12009
1.11943
1.11769
1.11722
1.11798
1.11909
1.11895
1.11841
1.11848
1.11887
1.11962
1.12068
1.12673
0.594973
0.594851
0.594722
0.594588
0.59445
0.594311
0.594172
0.594033
0.593892
0.593753
0.593612
0.593469
0.593324
0.59318
0.593041
0.592908
0.592783
0.592667
0.592558
0.592448
0.592343
0.592247
0.592155
0.592069
0.591987
0.591912
0.591844
0.591773
0.5917
0.59163
0.591566
0.591515
0.591475
0.591441
0.591418
0.591405
0.59138
0.593348
0.599889
0.618221
0.645624
0.690147
0.738484
0.797912
0.854444
0.911687
0.955351
0.994031
1.02469
1.04911
1.07136
1.08512
1.09782
1.10428
1.11013
1.11422
1.12723
1.13558
1.14534
1.14891
1.15337
1.15302
1.15136
1.1478
1.14041
1.13095
1.12302
1.12052
1.12111
1.12424
1.13065
1.13586
1.13755
1.13564
1.12955
1.12336
1.11935
1.11957
1.12276
1.12816
1.12775
1.12561
1.12034
1.11682
1.1158
1.11813
1.11974
1.11917
1.11671
1.11543
1.11589
1.11808
1.11827
1.11748
1.11725
1.11748
1.11788
1.11866
1.11979
1.12625
0.59265
0.592583
0.592512
0.592441
0.59237
0.592299
0.59223
0.592163
0.592097
0.592035
0.591974
0.591913
0.591855
0.591798
0.591745
0.591697
0.591656
0.591619
0.591581
0.591536
0.591496
0.591467
0.591445
0.59142
0.591395
0.591371
0.591347
0.59132
0.591292
0.591267
0.591248
0.591247
0.59125
0.591255
0.591269
0.591289
0.591284
0.591273
0.591253
0.591224
0.591185
0.59115
0.591119
0.591082
0.59106
0.594407
0.605628
0.638201
0.680863
0.742707
0.802049
0.866161
0.921953
0.974644
1.0273
1.07379
1.10678
1.12207
1.13416
1.13836
1.14254
1.14188
1.13918
1.13328
1.12429
1.11718
1.11457
1.11675
1.12167
1.12766
1.13073
1.13195
1.13156
1.12566
1.11811
1.11511
1.11587
1.12009
1.12453
1.12581
1.12442
1.11867
1.11328
1.11303
1.1151
1.11793
1.11767
1.11559
1.11278
1.11296
1.1151
1.11656
1.11619
1.11513
1.11534
1.11575
1.116
1.11675
1.11797
1.12489
0.591431
0.591412
0.591391
0.591371
0.591352
0.591331
0.591308
0.591287
0.591273
0.59126
0.591248
0.591236
0.591229
0.591224
0.59122
0.591216
0.591212
0.591206
0.591195
0.591184
0.591178
0.591174
0.59117
0.591166
0.591159
0.591154
0.591152
0.591149
0.591139
0.591128
0.591128
0.591135
0.591152
0.591172
0.591198
0.591241
0.591244
0.591237
0.591226
0.591197
0.59115
0.591116
0.591086
0.591034
0.590994
0.590993
0.59101
0.591049
0.591065
0.59106
0.591043
0.591378
0.599128
0.630493
0.685371
0.773482
0.849122
0.921144
0.971351
1.01372
1.04905
1.06929
1.08956
1.09687
1.1036
1.10575
1.11834
1.12409
1.12955
1.13202
1.1316
1.12982
1.12015
1.11219
1.11017
1.11156
1.11764
1.12465
1.12532
1.12362
1.11622
1.11136
1.10976
1.11218
1.11714
1.11724
1.11537
1.11084
1.10964
1.11164
1.11491
1.11471
1.11302
1.11271
1.11341
1.11405
1.11408
1.11478
1.11606
1.12328
0.591126
0.591127
0.591126
0.591127
0.591126
0.591121
0.591111
0.591104
0.591103
0.591103
0.591103
0.591105
0.591111
0.591127
0.591141
0.59114
0.591138
0.591135
0.591134
0.591135
0.591134
0.591133
0.591137
0.591149
0.591149
0.591146
0.591147
0.59115
0.59115
0.591144
0.591142
0.591146
0.591161
0.591179
0.591195
0.591226
0.59127
0.591271
0.591263
0.591232
0.59118
0.591131
0.591076
0.590981
0.590872
0.590866
0.590898
0.590949
0.590934
0.590911
0.590909
0.590935
0.590995
0.59113
0.591313
0.591621
0.591938
0.602265
0.62894
0.696633
0.768913
0.852245
0.919131
0.982458
1.04388
1.08666
1.11344
1.12091
1.12797
1.12739
1.12552
1.11739
1.10306
1.1039
1.10944
1.11812
1.12132
1.12323
1.12246
1.11555
1.10724
1.1075
1.1103
1.11579
1.11691
1.11548
1.10999
1.10732
1.10862
1.11233
1.11379
1.1126
1.1104
1.11087
1.11232
1.11263
1.11288
1.11347
1.11469
1.12187
0.591193
0.591192
0.591192
0.591192
0.591192
0.591191
0.59119
0.591186
0.591183
0.591184
0.591188
0.591194
0.591212
0.591233
0.591233
0.591233
0.591232
0.591231
0.591228
0.591224
0.591219
0.591215
0.591205
0.591198
0.591198
0.591197
0.591182
0.591163
0.591165
0.591176
0.591189
0.591198
0.591195
0.591185
0.591183
0.591202
0.59122
0.591212
0.591173
0.591079
0.591002
0.590947
0.590892
0.590815
0.59073
0.590719
0.590748
0.59079
0.590774
0.590731
0.590715
0.59073
0.590808
0.590998
0.591267
0.591583
0.592082
0.592717
0.593307
0.593903
0.594994
0.595689
0.604905
0.649615
0.723895
0.830604
0.908986
0.972898
1.0242
1.05142
1.07952
1.08451
1.09549
1.10742
1.12031
1.12639
1.12526
1.12353
1.11353
1.10532
1.10574
1.10955
1.11606
1.11931
1.11749
1.11041
1.10612
1.10643
1.11096
1.11406
1.11323
1.10916
1.10856
1.11024
1.11216
1.11176
1.11183
1.11258
1.11415
1.12115
0.591242
0.591231
0.591221
0.591216
0.591215
0.591211
0.591211
0.591216
0.591222
0.591224
0.591232
0.591232
0.591231
0.59123
0.59123
0.591229
0.591229
0.591227
0.591222
0.591215
0.591205
0.591191
0.591176
0.591154
0.591123
0.59109
0.591052
0.591011
0.591
0.591002
0.591011
0.591023
0.59102
0.591003
0.591011
0.591027
0.591022
0.590999
0.59092
0.590814
0.590758
0.59076
0.590751
0.590724
0.590674
0.590617
0.590622
0.590653
0.590638
0.590594
0.590573
0.590591
0.59068
0.590879
0.59122
0.591628
0.592195
0.592738
0.593164
0.593807
0.594876
0.59602
0.596656
0.597011
0.597405
0.597906
0.60365
0.650586
0.721572
0.826629
0.915635
0.999211
1.07475
1.10856
1.1236
1.12676
1.12505
1.11546
1.09771
1.09971
1.10999
1.11828
1.11987
1.11909
1.11245
1.10471
1.10497
1.10997
1.11422
1.11411
1.11027
1.10706
1.10806
1.11104
1.11242
1.11146
1.11145
1.11228
1.11408
1.12094
0.591231
0.591225
0.591217
0.591201
0.591195
0.591197
0.591212
0.591225
0.591223
0.591212
0.591193
0.591181
0.591172
0.591159
0.591133
0.59111
0.591095
0.591084
0.591071
0.591053
0.591027
0.590991
0.590956
0.590931
0.590905
0.590865
0.590831
0.590821
0.590812
0.590798
0.590787
0.590772
0.590763
0.590776
0.590831
0.59083
0.59081
0.590736
0.590658
0.590617
0.590614
0.59062
0.590644
0.590646
0.590633
0.590606
0.590571
0.590567
0.590551
0.590514
0.590481
0.590492
0.590582
0.590794
0.591201
0.591725
0.592216
0.592608
0.59299
0.593696
0.594952
0.596267
0.59692
0.597107
0.597283
0.59769
0.598638
0.599696
0.599898
0.599897
0.608967
0.677619
0.785875
0.904851
0.978676
1.03101
1.06675
1.07953
1.09009
1.1057
1.12357
1.12354
1.1222
1.11414
1.10569
1.10394
1.10781
1.11601
1.11592
1.112
1.10652
1.10694
1.11025
1.11259
1.11163
1.11033
1.11117
1.11265
1.11444
1.12102
0.591126
0.591122
0.591119
0.591115
0.591111
0.591111
0.591109
0.591104
0.591089
0.591053
0.591007
0.590955
0.590926
0.590925
0.590922
0.590909
0.590891
0.590875
0.590862
0.59084
0.590798
0.590747
0.590709
0.590663
0.590615
0.590615
0.590645
0.590652
0.59064
0.590605
0.590574
0.590573
0.590576
0.590619
0.590671
0.590667
0.590639
0.590558
0.590497
0.590493
0.590509
0.590533
0.590553
0.590578
0.590585
0.590583
0.590573
0.590553
0.590526
0.590486
0.590454
0.590464
0.590544
0.590764
0.591191
0.591803
0.592235
0.592546
0.592911
0.593619
0.59491
0.596367
0.597117
0.597234
0.597274
0.597447
0.597921
0.598833
0.599664
0.599877
0.600081
0.600618
0.601157
0.609621
0.654642
0.760151
0.869843
0.978454
1.07068
1.10783
1.12491
1.12306
1.11813
1.10012
1.10082
1.10632
1.11466
1.11777
1.11508
1.10678
1.10466
1.10813
1.1132
1.11305
1.11005
1.11017
1.1116
1.11362
1.11507
1.12121
0.59093
0.590926
0.590922
0.590922
0.590917
0.590909
0.5909
0.590877
0.590803
0.590705
0.590677
0.590679
0.590691
0.590716
0.590714
0.590705
0.590679
0.590661
0.590664
0.590668
0.590663
0.59064
0.590551
0.590447
0.590434
0.590472
0.590551
0.590553
0.590545
0.590525
0.590485
0.590461
0.590465
0.5905
0.590549
0.590547
0.590521
0.590443
0.590394
0.590393
0.590417
0.590467
0.590512
0.590547
0.590579
0.590604
0.590598
0.590598
0.590598
0.590564
0.590495
0.590498
0.590573
0.590782
0.591192
0.591837
0.592366
0.592592
0.592885
0.593623
0.594934
0.596422
0.597281
0.597298
0.597263
0.597346
0.597637
0.598025
0.598603
0.599322
0.599974
0.600689
0.601514
0.601945
0.602224
0.602383
0.604415
0.652101
0.783215
0.903728
0.984147
1.03439
1.07696
1.08233
1.10342
1.1182
1.12069
1.11899
1.1075
1.10232
1.10484
1.11365
1.11526
1.11158
1.10903
1.11016
1.11315
1.11522
1.116
1.1217
0.590753
0.590752
0.590748
0.590737
0.590727
0.590724
0.590719
0.590689
0.590625
0.590592
0.590591
0.590594
0.590602
0.590612
0.590616
0.59062
0.590618
0.590603
0.59058
0.590573
0.590575
0.590558
0.590462
0.590389
0.590399
0.590492
0.590559
0.590558
0.590546
0.590515
0.590484
0.590473
0.590485
0.590528
0.590532
0.590524
0.590486
0.590395
0.590345
0.59034
0.590366
0.59044
0.590512
0.590561
0.59061
0.590645
0.590639
0.59064
0.590661
0.590662
0.590629
0.590598
0.590637
0.590827
0.591222
0.591844
0.592475
0.592697
0.592914
0.59363
0.594975
0.59631
0.597247
0.597289
0.597258
0.597325
0.597517
0.59769
0.59793
0.598457
0.599452
0.600671
0.601673
0.602123
0.602336
0.602437
0.602519
0.60276
0.602843
0.610187
0.665981
0.793819
0.918566
1.03123
1.10008
1.12163
1.12099
1.10987
1.09571
1.10004
1.11145
1.11684
1.1147
1.10803
1.10859
1.11275
1.11481
1.11583
1.11654
1.1226
0.590703
0.590703
0.590699
0.590691
0.590676
0.590649
0.590607
0.590588
0.590588
0.590592
0.590597
0.590601
0.590603
0.590607
0.590608
0.590608
0.590608
0.590598
0.590575
0.590547
0.590519
0.590482
0.590445
0.590433
0.590448
0.59053
0.590574
0.590572
0.590556
0.590511
0.590459
0.590455
0.590501
0.590579
0.590587
0.590583
0.590556
0.590437
0.590313
0.590287
0.590312
0.590398
0.590493
0.590559
0.590608
0.59065
0.590672
0.590685
0.59071
0.590719
0.590699
0.590644
0.590656
0.590819
0.591221
0.591839
0.592488
0.592819
0.593067
0.59394
0.595224
0.595864
0.596624
0.597124
0.597161
0.597256
0.597384
0.597463
0.597591
0.598014
0.599048
0.600573
0.601705
0.602168
0.602401
0.60224
0.602175
0.602203
0.602289
0.602489
0.602947
0.603377
0.616377
0.735855
0.865773
0.969898
1.05685
1.07084
1.09104
1.10808
1.12035
1.11926
1.10758
1.10534
1.11016
1.11672
1.11614
1.11511
1.11663
1.1238
0.590704
0.590697
0.590668
0.590646
0.590639
0.590617
0.590569
0.590549
0.590552
0.590554
0.590551
0.590549
0.590553
0.590566
0.590572
0.590566
0.590558
0.590555
0.590549
0.590511
0.590434
0.590412
0.590425
0.590464
0.590478
0.590504
0.590542
0.590551
0.590539
0.590467
0.590427
0.590441
0.590528
0.590571
0.590574
0.590561
0.590505
0.590407
0.590316
0.590271
0.590283
0.590346
0.590405
0.59046
0.59052
0.590594
0.590673
0.590734
0.590772
0.590791
0.590765
0.590652
0.59063
0.590814
0.591217
0.59179
0.59242
0.59288
0.593343
0.594249
0.595113
0.595302
0.595619
0.596359
0.596975
0.597145
0.59717
0.597199
0.597286
0.597699
0.598669
0.600089
0.601431
0.602063
0.601848
0.601475
0.601478
0.601549
0.601776
0.602126
0.602795
0.603364
0.603309
0.603234
0.602967
0.668255
0.798639
0.949257
1.07453
1.11235
1.12068
1.11358
1.09801
1.10513
1.11804
1.11797
1.11386
1.11421
1.11716
1.12517
0.590637
0.590611
0.590579
0.590573
0.590569
0.590541
0.590477
0.590454
0.590457
0.59046
0.590461
0.590474
0.590497
0.590509
0.59051
0.590508
0.590498
0.590489
0.590478
0.590436
0.59036
0.590339
0.590358
0.59042
0.590426
0.590414
0.590429
0.590495
0.590504
0.590455
0.590441
0.590461
0.590559
0.59064
0.590648
0.590622
0.590521
0.59041
0.59034
0.59027
0.590236
0.590213
0.590186
0.590193
0.590282
0.590465
0.590635
0.59076
0.59084
0.590864
0.590804
0.590683
0.590737
0.590983
0.591211
0.591547
0.592202
0.592847
0.593509
0.594324
0.59469
0.594789
0.595004
0.595736
0.596735
0.597039
0.597043
0.59705
0.597127
0.597591
0.598352
0.599176
0.600113
0.600264
0.600106
0.600113
0.600251
0.600478
0.600793
0.601306
0.601943
0.602238
0.602314
0.602122
0.602008
0.602229
0.602622
0.644124
0.781467
0.925665
1.02903
1.06969
1.08778
1.11953
1.12495
1.11697
1.1103
1.11372
1.11777
1.12594
0.590484
0.590489
0.590501
0.590504
0.590504
0.590499
0.590482
0.590436
0.59037
0.590357
0.590373
0.590402
0.590398
0.59038
0.590373
0.590367
0.590362
0.590359
0.590312
0.590262
0.590264
0.59026
0.590258
0.590307
0.590329
0.590324
0.59033
0.5904
0.590437
0.59042
0.590419
0.590447
0.590552
0.590661
0.590677
0.590642
0.590536
0.590431
0.590376
0.590308
0.590185
0.589972
0.589863
0.589873
0.590012
0.590301
0.590531
0.590731
0.59089
0.590916
0.590836
0.590688
0.590762
0.59092
0.590902
0.590955
0.591506
0.59253
0.593505
0.594204
0.594353
0.594398
0.594564
0.595227
0.59638
0.596866
0.596828
0.596694
0.596788
0.597213
0.597726
0.598324
0.59859
0.598602
0.598636
0.598742
0.598935
0.59921
0.5997
0.600606
0.60116
0.601425
0.601381
0.601319
0.601456
0.60192
0.602742
0.603137
0.603302
0.630768
0.739763
0.922997
1.06
1.12188
1.12075
1.10243
1.10724
1.11753
1.11832
1.12518
0.590448
0.590448
0.590454
0.590479
0.590496
0.590493
0.590469
0.59045
0.590409
0.590325
0.590317
0.590323
0.590305
0.590254
0.590198
0.590146
0.590143
0.590193
0.590235
0.590213
0.590193
0.590185
0.590162
0.590133
0.590073
0.589977
0.58994
0.589967
0.590096
0.590221
0.590315
0.5904
0.590386
0.59038
0.590466
0.590566
0.590556
0.590462
0.590239
0.590033
0.58991
0.589759
0.589644
0.589643
0.589824
0.59011
0.590202
0.590358
0.590658
0.590828
0.590799
0.590536
0.590271
0.590279
0.590301
0.59027
0.590488
0.591301
0.592554
0.593635
0.593885
0.593947
0.594116
0.594677
0.595601
0.596165
0.596206
0.596121
0.596172
0.596388
0.596596
0.596917
0.59717
0.597296
0.597425
0.597645
0.597934
0.598458
0.599308
0.600222
0.600685
0.600808
0.600754
0.60085
0.601229
0.602022
0.60299
0.603048
0.603147
0.60353
0.604099
0.62589
0.778434
0.936792
1.04006
1.06967
1.11343
1.12155
1.11865
1.12328
0.590608
0.590652
0.590655
0.590648
0.590637
0.590621
0.590588
0.590573
0.590547
0.590433
0.590375
0.590379
0.590374
0.590279
0.590047
0.589984
0.59005
0.590285
0.590357
0.590347
0.590251
0.590004
0.5897
0.589392
0.589058
0.588786
0.588724
0.588795
0.589013
0.589217
0.589418
0.589564
0.58954
0.589527
0.589615
0.589929
0.590103
0.590044
0.589827
0.589602
0.589567
0.58956
0.58948
0.589506
0.589703
0.589704
0.589524
0.589336
0.589457
0.589791
0.589851
0.589686
0.589322
0.589289
0.589319
0.589313
0.589394
0.58986
0.590971
0.59241
0.592904
0.592996
0.593174
0.593818
0.595017
0.595933
0.596211
0.59619
0.596164
0.596102
0.596071
0.596135
0.596263
0.596414
0.596644
0.596998
0.597493
0.598551
0.59962
0.60003
0.600091
0.600276
0.600451
0.600768
0.601852
0.60307
0.603286
0.60321
0.603391
0.604842
0.607226
0.608018
0.6081
0.633633
0.781594
0.980503
1.0926
1.10948
1.10892
1.11897
0.590359
0.590374
0.590381
0.590369
0.590338
0.590301
0.590246
0.590173
0.590125
0.590031
0.589863
0.589778
0.589733
0.589679
0.589607
0.589566
0.589525
0.589438
0.589312
0.589136
0.588856
0.588455
0.588062
0.587764
0.587581
0.587544
0.587557
0.587749
0.588242
0.588328
0.588319
0.588478
0.588759
0.588863
0.58891
0.589031
0.589223
0.589254
0.589121
0.588852
0.588823
0.588801
0.588658
0.588571
0.588582
0.588572
0.588446
0.588235
0.58823
0.588368
0.588486
0.588457
0.588232
0.588132
0.588181
0.588272
0.588494
0.589083
0.590386
0.592021
0.592534
0.592599
0.592791
0.593547
0.594924
0.595857
0.596136
0.596108
0.59591
0.59562
0.595547
0.595596
0.595835
0.596145
0.596487
0.596888
0.59798
0.599451
0.600177
0.599944
0.599883
0.600098
0.600403
0.602083
0.604006
0.605722
0.605833
0.606182
0.607532
0.609255
0.611167
0.611848
0.612298
0.612959
0.613722
0.680511
0.851628
0.989734
1.06117
1.11115
0.588631
0.588694
0.588741
0.588807
0.588833
0.588828
0.588791
0.588715
0.58863
0.588546
0.58846
0.58837
0.588253
0.588138
0.58805
0.58791
0.587755
0.587663
0.587556
0.587469
0.587353
0.587199
0.587167
0.587128
0.587001
0.586971
0.587022
0.587325
0.587977
0.588158
0.588094
0.588101
0.588328
0.588521
0.588491
0.588454
0.588532
0.58863
0.588527
0.587992
0.587655
0.587572
0.587468
0.58737
0.587336
0.587298
0.58719
0.587152
0.587239
0.587556
0.58784
0.587879
0.587825
0.587761
0.587794
0.58792
0.588228
0.588899
0.590343
0.592357
0.593066
0.593195
0.59353
0.594378
0.595278
0.595664
0.595687
0.595595
0.595322
0.595286
0.595325
0.595426
0.595726
0.596228
0.597137
0.598642
0.600521
0.60147
0.601571
0.601202
0.601306
0.602119
0.605004
0.60797
0.608721
0.609047
0.609854
0.611515
0.613257
0.61353
0.614427
0.616536
0.618347
0.619317
0.62089
0.621973
0.62338
0.742692
0.922119
1.09555
0.586855
0.586861
0.586898
0.587132
0.587544
0.587615
0.587605
0.587551
0.587535
0.587551
0.587569
0.587564
0.587548
0.587523
0.587493
0.587475
0.587475
0.587454
0.587352
0.587335
0.587406
0.587709
0.5882
0.588353
0.588277
0.587941
0.587745
0.587759
0.587808
0.587789
0.58769
0.587709
0.58773
0.587731
0.587645
0.587617
0.587759
0.587961
0.587922
0.587626
0.587355
0.587231
0.587111
0.587008
0.586964
0.586919
0.586799
0.586774
0.586899
0.587311
0.587731
0.587858
0.587883
0.587892
0.587923
0.588067
0.58849
0.589627
0.591707
0.593913
0.594837
0.595083
0.595345
0.595605
0.595548
0.595513
0.595513
0.595442
0.595242
0.595411
0.596125
0.59754
0.599423
0.601913
0.603487
0.605157
0.605002
0.604979
0.605255
0.606214
0.608451
0.61066
0.612865
0.612992
0.612876
0.613005
0.614134
0.616948
0.619569
0.620586
0.621792
0.623815
0.625486
0.626338
0.626933
0.628273
0.62993
0.630513
0.653159
0.968386
0.588789
0.588772
0.588801
0.589018
0.589308
0.589354
0.58935
0.589269
0.589153
0.589094
0.589061
0.589031
0.589008
0.588964
0.588928
0.58894
0.589054
0.589177
0.589109
0.588959
0.588971
0.589141
0.589245
0.589216
0.589057
0.588577
0.587948
0.587669
0.587588
0.587586
0.587666
0.587684
0.587595
0.587596
0.587775
0.587991
0.587997
0.588024
0.58812
0.588077
0.587727
0.587419
0.587243
0.587158
0.587106
0.587069
0.587041
0.587129
0.587583
0.588441
0.589427
0.590135
0.590523
0.590902
0.591169
0.591441
0.592053
0.593081
0.59423
0.595664
0.59725
0.598136
0.598325
0.598666
0.599691
0.600829
0.601363
0.60173
0.602513
0.60408
0.606199
0.607837
0.608478
0.609094
0.609673
0.609613
0.609095
0.609606
0.610902
0.61371
0.616276
0.618374
0.618217
0.618595
0.619773
0.622072
0.624571
0.625732
0.626903
0.628276
0.62872
0.628994
0.630261
0.632517
0.634295
0.635109
0.636141
0.637903
0.638459
0.72896
0.588419
0.588371
0.588341
0.588339
0.588444
0.588554
0.588538
0.588388
0.588333
0.588395
0.588671
0.588808
0.588824
0.588809
0.588824
0.588989
0.589535
0.589896
0.589918
0.589803
0.589399
0.588936
0.588582
0.588269
0.587924
0.587434
0.587018
0.586991
0.587054
0.5871
0.587186
0.587431
0.587684
0.587868
0.588153
0.588482
0.588844
0.589473
0.590058
0.59055
0.590861
0.590883
0.590856
0.590902
0.59122
0.591878
0.592733
0.593859
0.595087
0.595931
0.596416
0.596876
0.597451
0.59813
0.598963
0.599872
0.600713
0.601388
0.601871
0.602532
0.603508
0.603918
0.604187
0.604703
0.606043
0.608329
0.6105
0.611815
0.612473
0.612818
0.613647
0.614784
0.614943
0.614585
0.614782
0.615806
0.61812
0.621014
0.623469
0.62535
0.626086
0.626267
0.626636
0.627559
0.629137
0.631106
0.632496
0.632699
0.633243
0.634749
0.636957
0.63822
0.639196
0.640171
0.641599
0.642582
0.643223
0.643839
0.644826
0.647575
0.591084
0.591219
0.591395
0.591579
0.591806
0.592181
0.592629
0.592798
0.592794
0.592736
0.592711
0.592768
0.593014
0.593359
0.593658
0.593925
0.594432
0.595246
0.595818
0.595933
0.595805
0.595599
0.595492
0.595454
0.595488
0.595783
0.596517
0.597405
0.59827
0.59918
0.599911
0.600063
0.599993
0.599992
0.600156
0.600385
0.600684
0.601371
0.602446
0.603755
0.604507
0.604745
0.604847
0.604977
0.605132
0.60526
0.605552
0.606045
0.606359
0.606388
0.606347
0.606341
0.606428
0.606639
0.607101
0.607727
0.608022
0.608406
0.609072
0.610292
0.612038
0.613709
0.614989
0.616046
0.61715
0.618582
0.620166
0.621721
0.62316
0.623858
0.623909
0.624272
0.625491
0.627324
0.62912
0.63036
0.631574
0.63235
0.633476
0.633365
0.633081
0.633418
0.63471
0.636182
0.637805
0.639391
0.64045
0.641471
0.642393
0.643587
0.645199
0.646473
0.646853
0.647066
0.647651
0.649198
0.6504
0.651302
0.65266
0.652832
0.606792
0.606909
0.607134
0.607406
0.607712
0.608146
0.608655
0.608798
0.608706
0.608628
0.608679
0.608699
0.608786
0.609042
0.609214
0.609329
0.609664
0.61022
0.610712
0.611303
0.611664
0.611707
0.611728
0.611759
0.611733
0.61172
0.611747
0.611708
0.611595
0.611629
0.611713
0.611679
0.611441
0.611314
0.611264
0.611223
0.61121
0.611272
0.611413
0.611538
0.611661
0.611823
0.612119
0.612405
0.612352
0.611989
0.611952
0.6119
0.6119
0.61203
0.612463
0.613161
0.613825
0.614527
0.615486
0.616962
0.618842
0.620599
0.621831
0.623031
0.624861
0.627301
0.6296
0.631157
0.632036
0.632764
0.633021
0.633106
0.633395
0.634375
0.635373
0.635703
0.636029
0.636907
0.638633
0.640061
0.640157
0.639978
0.640199
0.641236
0.642965
0.644864
0.646598
0.648038
0.648894
0.649235
0.64985
0.650584
0.651186
0.651595
0.651533
0.651893
0.65333
0.655613
0.657193
0.657709
0.658112
0.658607
0.659171
0.66008
0.620003
0.620374
0.620786
0.621027
0.621032
0.620918
0.620647
0.620455
0.620503
0.620829
0.621052
0.621014
0.620728
0.620311
0.620231
0.620305
0.620505
0.620555
0.620631
0.62086
0.621109
0.621153
0.621302
0.622193
0.622822
0.622823
0.623083
0.623211
0.623206
0.62345
0.623918
0.624092
0.624053
0.623879
0.623719
0.623721
0.623718
0.623621
0.623619
0.623763
0.624189
0.624989
0.626181
0.627512
0.628653
0.629625
0.630544
0.631252
0.631609
0.631883
0.632394
0.633264
0.63432
0.635364
0.636382
0.637357
0.638437
0.639613
0.640523
0.640965
0.641301
0.641866
0.642722
0.643193
0.643207
0.643254
0.643399
0.643496
0.643628
0.644118
0.645344
0.647035
0.648183
0.648839
0.649511
0.650568
0.651585
0.652463
0.653385
0.654265
0.65494
0.655617
0.65599
0.656549
0.656628
0.656956
0.657488
0.658498
0.659608
0.660749
0.661942
0.663153
0.663844
0.664513
0.664858
0.66478
0.665156
0.665878
0.666372
0.667136
0.638612
0.638928
0.638986
0.638921
0.638549
0.637979
0.637725
0.637753
0.637932
0.638423
0.639131
0.63937
0.639179
0.638935
0.638992
0.639219
0.639202
0.639161
0.639257
0.639464
0.63946
0.639467
0.639971
0.640824
0.641025
0.641119
0.64135
0.64184
0.641931
0.641883
0.64192
0.642224
0.642761
0.643215
0.643525
0.64374
0.643924
0.644097
0.644293
0.644551
0.644716
0.644741
0.644792
0.644887
0.645087
0.645306
0.645308
0.645218
0.645199
0.645328
0.645685
0.646046
0.646092
0.646028
0.645857
0.645718
0.645779
0.646199
0.647075
0.647657
0.648055
0.64863
0.649312
0.650149
0.65094
0.65181
0.653042
0.654752
0.656518
0.657913
0.65878
0.659578
0.660534
0.661301
0.661888
0.661852
0.661845
0.661979
0.662516
0.663087
0.663458
0.663802
0.66441
0.665339
0.666531
0.667715
0.668848
0.669649
0.669887
0.670272
0.670704
0.671562
0.671621
0.671839
0.672316
0.673286
0.674034
0.674941
0.675082
0.674936
0.654084
0.654251
0.654474
0.654482
0.654361
0.654238
0.654227
0.654383
0.654935
0.655588
0.655776
0.655703
0.655631
0.655676
0.655701
0.655575
0.655458
0.655497
0.655757
0.656136
0.656202
0.656007
0.655581
0.655469
0.655247
0.654974
0.654962
0.654892
0.654518
0.653958
0.653871
0.654035
0.654222
0.654195
0.654188
0.654275
0.654481
0.654688
0.654869
0.655083
0.65534
0.655425
0.655446
0.655515
0.655797
0.656103
0.656055
0.655345
0.654265
0.654094
0.654422
0.655384
0.656517
0.657492
0.658554
0.659694
0.660482
0.661171
0.662287
0.663949
0.665842
0.667641
0.66936
0.670613
0.671404
0.671933
0.672395
0.672731
0.672859
0.672854
0.672826
0.672712
0.6724
0.672134
0.672043
0.672192
0.672664
0.673222
0.674154
0.675473
0.676771
0.677709
0.678406
0.678847
0.679132
0.678995
0.678802
0.678386
0.678415
0.678674
0.679131
0.679783
0.680752
0.681677
0.682163
0.682357
0.682262
0.682082
0.682032
0.682095
0.67142
0.671497
0.671507
0.671491
0.671532
0.671605
0.671552
0.671349
0.671295
0.671352
0.671536
0.671588
0.67154
0.671507
0.67159
0.671661
0.67161
0.671599
0.67165
0.67177
0.671916
0.672069
0.672171
0.672259
0.672396
0.67263
0.673016
0.673352
0.673398
0.673424
0.673571
0.673831
0.673879
0.67372
0.673523
0.673479
0.673445
0.673389
0.6734
0.673402
0.673389
0.673455
0.673776
0.674218
0.674665
0.675195
0.675911
0.676374
0.676497
0.676634
0.676992
0.677287
0.677292
0.677234
0.677415
0.678022
0.678768
0.679566
0.680695
0.681408
0.681404
0.681336
0.681533
0.681644
0.681609
0.681377
0.681062
0.68063
0.680062
0.679703
0.679778
0.680198
0.680899
0.681966
0.683227
0.684675
0.686021
0.687176
0.687993
0.68813
0.688002
0.687684
0.687182
0.686536
0.685985
0.685907
0.686337
0.687361
0.688781
0.689782
0.690558
0.690515
0.690311
0.689941
0.689464
0.689696
0.690082
0.690503
0.690663
0.690469
0.688806
0.688759
0.688723
0.688711
0.68872
0.688831
0.688957
0.68894
0.688716
0.688606
0.688821
0.689152
0.689116
0.688874
0.688811
0.688909
0.689034
0.688966
0.688763
0.68873
0.688796
0.689016
0.689082
0.689049
0.688913
0.688674
0.688554
0.688574
0.688657
0.688693
0.688734
0.688827
0.688914
0.68895
0.688998
0.689169
0.689294
0.689255
0.689255
0.689319
0.689279
0.689024
0.688602
0.68819
0.687742
0.687289
0.687155
0.68732
0.687731
0.687994
0.687991
0.687985
0.688137
0.688428
0.688478
0.688224
0.687862
0.68788
0.688244
0.689386
0.690382
0.690644
0.690892
0.691472
0.692427
0.693518
0.694434
0.695177
0.696081
0.697076
0.698045
0.698931
0.699542
0.700237
0.70048
0.700398
0.69999
0.699567
0.698966
0.698315
0.697618
0.697215
0.697189
0.697727
0.698786
0.7001
0.701048
0.701468
0.701281
0.700629
0.699792
0.699218
0.698613
0.698904
0.699512
0.700354
0.700349
0.700191
0.699785
0.698886
0.707322
0.707257
0.707108
0.707058
0.70707
0.707068
0.707103
0.707288
0.707362
0.707319
0.707037
0.706891
0.707028
0.707173
0.707106
0.707001
0.706998
0.707037
0.707015
0.706937
0.706913
0.706918
0.70692
0.706914
0.706838
0.706647
0.706601
0.706628
0.70661
0.706415
0.70619
0.706171
0.706152
0.706029
0.705971
0.70604
0.706094
0.706113
0.706177
0.706318
0.706398
0.706493
0.706597
0.706597
0.70651
0.706454
0.706514
0.706548
0.70638
0.706139
0.706279
0.706568
0.706598
0.706795
0.707548
0.708441
0.708854
0.70919
0.70982
0.710711
0.711371
0.711868
0.71245
0.713075
0.713205
0.713176
0.713057
0.712882
0.712594
0.712146
0.711712
0.711167
0.710561
0.7098
0.709089
0.708348
0.707639
0.707664
0.708018
0.708799
0.709911
0.71108
0.712044
0.712765
0.712649
0.712187
0.71111
0.709906
0.708836
0.707491
0.707847
0.70855
0.709551
0.710469
0.710394
0.709763
0.708882
0.707858
0.707523
0.707386
0.726297
0.726348
0.726326
0.72607
0.725998
0.726004
0.725972
0.72591
0.725907
0.725952
0.726009
0.725919
0.725667
0.725662
0.725763
0.725727
0.725621
0.725588
0.725528
0.725396
0.72528
0.725224
0.725219
0.725258
0.725349
0.72534
0.725164
0.724974
0.724969
0.724985
0.72494
0.724911
0.724888
0.72481
0.724613
0.724395
0.724136
0.723817
0.723697
0.723631
0.723498
0.723312
0.723143
0.722952
0.722784
0.72278
0.722939
0.723067
0.723082
0.723065
0.722986
0.722757
0.722402
0.722136
0.722179
0.722336
0.722439
0.722659
0.723159
0.723689
0.723896
0.723952
0.723962
0.723921
0.723688
0.723249
0.723021
0.722867
0.722699
0.722712
0.722815
0.723022
0.723442
0.72412
0.724858
0.725599
0.726176
0.726714
0.727121
0.72712
0.726866
0.726312
0.725407
0.724344
0.723096
0.721892
0.72071
0.720429
0.720792
0.721774
0.723035
0.722841
0.722469
0.721331
0.719986
0.71876
0.718115
0.71804
0.718187
0.717651
0.746639
0.746391
0.746312
0.746363
0.74639
0.746087
0.745655
0.745601
0.745665
0.745806
0.745922
0.745949
0.745915
0.745747
0.745534
0.745476
0.745519
0.745544
0.745404
0.745137
0.744969
0.744809
0.744665
0.74466
0.744707
0.744674
0.74436
0.743906
0.743823
0.743783
0.743664
0.743632
0.743608
0.743519
0.743248
0.742901
0.74282
0.74287
0.742897
0.742814
0.742547
0.742287
0.742111
0.741937
0.741683
0.741283
0.740953
0.74077
0.740674
0.740504
0.740232
0.740179
0.740353
0.740668
0.740736
0.740743
0.740791
0.740986
0.741286
0.741801
0.742346
0.742659