/*--------------------------------*- C++ -*----------------------------------*\
  =========                 |
  \\      /  F ield         | OpenFOAM: The Open Source CFD Toolbox
   \\    /   O peration     | Website:  https://openfoam.org
    \\  /    A nd           | Version:  7
     \\/     M anipulation  |
\*---------------------------------------------------------------------------*/
FoamFile
{
    version     2.0;
    format      ascii;
    class       volScalarField;
    location    "0.5799";
    object      T;
}
// * * * * * * * * * * * * * * * * * * * * * * * * * * * * * * * * * * * * * //

dimensions      [0 0 0 1 0 0 0];

internalField   nonuniform List<scalar> 
324000
(
0.842658
0.922145
1.01183
1.10397
1.15372
1.15662
1.1357
1.11631
1.10368
1.10544
1.11311
1.11531
1.1143
1.1131
1.11278
1.11299
1.11367
1.11344
1.11253
1.11072
1.10806
1.10502
1.10397
1.10409
1.10391
1.10327
1.10239
1.10121
1.09961
1.09774
1.09663
1.09577
1.09503
1.09426
1.09277
1.09079
1.08898
1.08465
1.07864
1.07213
1.06575
1.06064
1.05693
1.0524
1.04654
1.04044
1.03454
1.03107
1.02973
1.02838
1.02552
1.02521
1.02768
1.03506
1.03883
1.0367
1.02831
1.00946
1.00306
1.00975
1.01108
1.00687
0.996878
0.989583
0.988672
0.988764
0.989899
0.992502
0.995791
0.998526
0.999811
1.00003
1.00003
1.00001
1
1
1
1
1
1
0.558796
0.559365
0.630959
0.861234
1.03883
1.14756
1.1511
1.15391
1.14851
1.1436
1.13973
1.13431
1.13558
1.13662
1.13711
1.13829
1.13821
1.13687
1.13586
1.13525
1.13359
1.13164
1.13059
1.13065
1.13097
1.13087
1.13086
1.13058
1.12999
1.12889
1.12729
1.12585
1.12554
1.1252
1.12433
1.12289
1.12119
1.11604
1.10971
1.10344
1.09818
1.09399
1.09042
1.08578
1.0799
1.07424
1.06978
1.06803
1.06691
1.0646
1.06071
1.06025
1.06112
1.06481
1.06474
1.05864
1.04477
1.02239
1.00908
1.01198
1.01193
1.00773
0.996826
0.989384
0.988195
0.988323
0.989566
0.992267
0.995626
0.998428
0.999778
1.00002
1.00002
1.00001
1
1
1
1
1
1
0.557807
0.556707
0.555818
0.555116
0.644257
0.841482
1.02384
1.13528
1.15966
1.16013
1.15598
1.14863
1.14729
1.14529
1.14532
1.145
1.14423
1.14268
1.14244
1.14207
1.14074
1.14022
1.14009
1.1409
1.14188
1.14234
1.14233
1.14188
1.14155
1.14125
1.14084
1.13987
1.13987
1.13987
1.13951
1.138
1.13644
1.13194
1.12675
1.12215
1.11843
1.11544
1.11283
1.10934
1.10588
1.10308
1.10126
1.1013
1.10054
1.09792
1.09378
1.09177
1.09044
1.08839
1.08221
1.07079
1.05338
1.03348
1.0179
1.01552
1.01488
1.00923
0.996748
0.988998
0.987677
0.987869
0.98924
0.992046
0.995465
0.998331
0.999745
1.00002
1.00002
1.00001
1
1
1
1
1
1
0.55606
0.555401
0.555075
0.554946
0.554955
0.555021
0.645243
0.839937
1.00596
1.10275
1.14239
1.14724
1.15155
1.14978
1.14925
1.14587
1.14386
1.14269
1.14172
1.14126
1.14113
1.14137
1.14199
1.14259
1.14298
1.14351
1.14398
1.14384
1.14336
1.1428
1.14262
1.14274
1.14307
1.14326
1.14238
1.14078
1.1397
1.13599
1.13227
1.12933
1.12661
1.1245
1.1231
1.1219
1.12053
1.12086
1.12268
1.12476
1.12374
1.12074
1.11673
1.11248
1.10616
1.09687
1.08546
1.07075
1.05384
1.03745
1.02629
1.02075
1.0188
1.01069
0.996549
0.988477
0.987168
0.98743
0.988927
0.99183
0.995304
0.998234
0.999713
1.00001
1.00002
1.00001
1
1
1
1
1
1
0.555131
0.554983
0.554929
0.554953
0.55508
0.555388
0.555924
0.556232
0.639665
0.831855
1.00099
1.08897
1.13724
1.14142
1.14406
1.13987
1.13823
1.1386
1.13952
1.14032
1.14053
1.14089
1.1414
1.14186
1.14277
1.14322
1.14363
1.14321
1.14233
1.14155
1.14176
1.14207
1.14279
1.14258
1.14134
1.13994
1.13855
1.13528
1.13201
1.12948
1.12784
1.12659
1.12546
1.12556
1.12599
1.128
1.13212
1.13495
1.13404
1.13041
1.12423
1.1173
1.10808
1.09548
1.0774
1.06328
1.04958
1.03755
1.03067
1.02599
1.02248
1.0117
0.996179
0.987895
0.986684
0.987015
0.988631
0.991617
0.995138
0.998135
0.999681
1.00001
1.00002
1.00001
1
1
1
1
1
1
0.554879
0.554882
0.554969
0.555219
0.555615
0.556163
0.556569
0.556982
0.557303
0.557418
0.637561
0.837316
1.00621
1.08155
1.11803
1.12835
1.13419
1.13698
1.13718
1.1379
1.13874
1.1399
1.14131
1.14141
1.14057
1.14053
1.14095
1.14049
1.13962
1.13903
1.1393
1.13994
1.14089
1.1407
1.13983
1.13868
1.13656
1.1337
1.13078
1.12848
1.12688
1.12535
1.12422
1.12469
1.12739
1.1317
1.13591
1.13684
1.13535
1.13046
1.12361
1.11524
1.10204
1.08269
1.06014
1.04251
1.0351
1.03268
1.03104
1.02872
1.0248
1.01209
0.995608
0.987279
0.986215
0.986624
0.988354
0.991403
0.994964
0.998035
0.999651
1
1.00001
1.00001
1
1
1
1
1
1
0.554911
0.555113
0.555462
0.555896
0.556388
0.556793
0.557132
0.557408
0.557523
0.557619
0.557683
0.557683
0.638672
0.85285
1.01014
1.09236
1.1214
1.13603
1.13544
1.1367
1.13601
1.13638
1.13756
1.13793
1.1372
1.13616
1.13581
1.13555
1.13593
1.13636
1.13645
1.13629
1.13679
1.13701
1.13673
1.13578
1.1333
1.13005
1.12716
1.12516
1.12411
1.12283
1.12275
1.12473
1.12862
1.13285
1.13614
1.13595
1.13298
1.12532
1.11614
1.10353
1.08794
1.06243
1.03101
1.01834
1.01822
1.02217
1.02794
1.0288
1.02451
1.01137
0.994678
0.986602
0.985748
0.98625
0.988091
0.991185
0.994782
0.997934
0.999622
0.999995
1.00001
1.00001
1
1
1
1
1
1
0.555353
0.555769
0.556219
0.556661
0.55701
0.557274
0.55747
0.557571
0.557633
0.557675
0.557671
0.557668
0.557674
0.561237
0.660548
0.865369
1.02222
1.10758
1.11794
1.12977
1.13164
1.13178
1.13228
1.13216
1.13137
1.12972
1.12878
1.12934
1.13163
1.13283
1.13231
1.13176
1.13217
1.13307
1.1336
1.13307
1.13087
1.12715
1.12374
1.12208
1.12165
1.12164
1.12279
1.12588
1.12928
1.1318
1.13304
1.13132
1.1259
1.11855
1.10523
1.08673
1.06366
1.03445
1.00291
0.995046
0.997989
1.00583
1.01702
1.02365
1.02195
1.00966
0.993317
0.985863
0.98528
0.985885
0.987837
0.990963
0.994595
0.997833
0.999594
0.999991
1.00001
1.00001
1
1
1
1
1
1
0.556118
0.556537
0.556893
0.557177
0.557387
0.557526
0.557605
0.55764
0.557664
0.557658
0.557659
0.557677
0.557708
0.557734
0.557756
0.566643
0.703777
0.895481
1.0303
1.10761
1.1182
1.1255
1.12799
1.12739
1.12558
1.12384
1.12335
1.12514
1.12806
1.12835
1.12739
1.12758
1.12867
1.13026
1.13102
1.13024
1.1276
1.1233
1.12038
1.11978
1.12004
1.12122
1.12356
1.1264
1.12781
1.12866
1.12823
1.12589
1.11866
1.10379
1.08321
1.06083
1.03775
1.01165
0.986212
0.979391
0.98292
0.991964
1.00612
1.01718
1.01613
1.00578
0.991334
0.985138
0.98481
0.98553
0.987593
0.990739
0.994404
0.997733
0.999568
0.999987
1.00001
1.00001
1
1
1
1
1
1
0.556813
0.557128
0.55733
0.557487
0.55759
0.557625
0.557648
0.557647
0.557646
0.557653
0.55768
0.557712
0.557746
0.557773
0.557798
0.557822
0.557848
0.573547
0.73708
0.935127
1.04141
1.10848
1.11587
1.11774
1.122
1.12117
1.12172
1.12519
1.12629
1.12469
1.12352
1.12465
1.12626
1.12767
1.12764
1.12658
1.12378
1.12002
1.11875
1.11893
1.11958
1.12126
1.12388
1.12543
1.12529
1.12501
1.12348
1.11833
1.10528
1.08389
1.05936
1.03635
1.01657
0.998011
0.980636
0.973372
0.973894
0.979111
0.990959
1.00352
1.00435
0.998387
0.98886
0.984381
0.984289
0.98519
0.987365
0.990512
0.994211
0.997637
0.999545
0.999983
1.00001
1.00001
1
1
1
1
1
1
0.557331
0.557496
0.557582
0.557619
0.557638
0.557627
0.557622
0.55763
0.557662
0.557696
0.557727
0.557753
0.557779
0.557809
0.55784
0.557882
0.557952
0.558013
0.558074
0.591025
0.786167
0.981941
1.08248
1.10612
1.1231
1.12179
1.12441
1.12659
1.12468
1.12016
1.12125
1.12369
1.12579
1.12626
1.12608
1.12429
1.12074
1.11806
1.11808
1.11842
1.11952
1.12197
1.12418
1.12401
1.12342
1.12233
1.11899
1.10833
1.08827
1.06254
1.03761
1.01836
1.00498
0.991403
0.978422
0.971554
0.96981
0.971306
0.9784
0.99125
0.995115
0.991934
0.986109
0.983517
0.983731
0.984901
0.987151
0.990278
0.994018
0.997549
0.999526
0.99998
1.00001
1
1
1
1
1
1
1
0.557575
0.557614
0.557631
0.557613
0.557611
0.557622
0.557653
0.557684
0.557714
0.557743
0.557763
0.557786
0.557811
0.557842
0.557892
0.557963
0.558046
0.558135
0.558238
0.558327
0.558405
0.630916
0.855911
1.03409
1.11299
1.11772
1.1267
1.12788
1.12094
1.1184
1.12136
1.12411
1.126
1.12583
1.12403
1.12144
1.11834
1.11747
1.1183
1.11946
1.12128
1.1237
1.12476
1.12476
1.12355
1.11985
1.1108
1.09344
1.06826
1.04162
1.01979
1.00576
0.996342
0.985662
0.976211
0.970454
0.967505
0.967621
0.970692
0.978676
0.984833
0.985191
0.983303
0.982601
0.983171
0.984619
0.986922
0.990028
0.993829
0.99747
0.999511
0.999978
1.00001
1
1
1
1
1
1
1
0.557609
0.557602
0.557605
0.557618
0.557645
0.557672
0.5577
0.557727
0.55775
0.557774
0.557799
0.557822
0.557858
0.557917
0.557992
0.558066
0.558144
0.558227
0.558331
0.55845
0.558582
0.558665
0.562652
0.712935
0.923309
1.05335
1.12259
1.12362
1.11547
1.12099
1.12414
1.1249
1.12566
1.12489
1.12343
1.12194
1.12059
1.12071
1.12153
1.12285
1.12468
1.1266
1.12687
1.12515
1.12105
1.11307
1.09803
1.07557
1.04963
1.02625
1.00905
0.998596
0.990404
0.981566
0.974609
0.969987
0.96683
0.96613
0.96717
0.971377
0.977542
0.980645
0.980973
0.981546
0.982635
0.984309
0.986633
0.989751
0.993653
0.997411
0.9995
0.999976
1
1
1
1
1
1
1
1
0.557602
0.557622
0.557645
0.557666
0.557688
0.557712
0.557734
0.557756
0.557781
0.557805
0.557834
0.557881
0.557948
0.558022
0.558092
0.558156
0.558218
0.558291
0.558394
0.558515
0.558633
0.558749
0.558875
0.558967
0.5898
0.798847
1.00291
1.08631
1.10818
1.13067
1.12877
1.12494
1.12595
1.12676
1.1263
1.12524
1.12547
1.12622
1.12664
1.12731
1.12873
1.129
1.12687
1.1222
1.11473
1.10099
1.08019
1.05579
1.03302
1.01506
1.00361
0.995789
0.987696
0.979566
0.973673
0.969686
0.966903
0.96572
0.966154
0.969014
0.97404
0.977737
0.979306
0.980622
0.982071
0.983886
0.986256
0.989453
0.993485
0.997364
0.999496
0.999975
1
1
1
1
1
1
1
1
0.557636
0.557656
0.557679
0.557706
0.557732
0.557753
0.557775
0.557797
0.557821
0.557857
0.557911
0.55798
0.558052
0.558118
0.558175
0.558225
0.558277
0.558337
0.558425
0.558526
0.558621
0.558716
0.558825
0.558957
0.55909
0.559206
0.655926
0.891551
1.06838
1.13135
1.12794
1.12366
1.12928
1.13143
1.13228
1.13197
1.13179
1.13195
1.13144
1.13128
1.13093
1.12878
1.12325
1.11453
1.10164
1.08317
1.06133
1.03962
1.02066
1.00742
0.999937
0.99332
0.98533
0.977897
0.97294
0.969403
0.966836
0.965867
0.966298
0.968545
0.97275
0.976341
0.978387
0.979891
0.981444
0.98334
0.985801
0.989146
0.993346
0.997307
0.999486
0.999973
1
1
1
1
1
1
1
1
0.557677
0.557703
0.557726
0.557747
0.55777
0.557792
0.557814
0.557846
0.557892
0.557951
0.558019
0.558087
0.558148
0.558197
0.558241
0.558289
0.55834
0.558394
0.558461
0.558529
0.558563
0.558584
0.558622
0.558702
0.558852
0.559036
0.559162
0.574379
0.778024
1.00485
1.08289
1.11941
1.13678
1.13582
1.13801
1.13848
1.13785
1.13637
1.13431
1.13262
1.13001
1.12433
1.11436
1.10161
1.08488
1.06489
1.04539
1.02724
1.01296
1.00445
0.998072
0.991102
0.982972
0.976155
0.971742
0.968654
0.9665
0.965916
0.966386
0.968464
0.972222
0.975469
0.9776
0.979178
0.980796
0.982757
0.985331
0.988832
0.9932
0.997301
0.999498
0.999974
1
1
1
1
1
1
1
1
0.557717
0.557739
0.557761
0.557783
0.557807
0.557835
0.557874
0.557927
0.557992
0.558059
0.558123
0.558182
0.558228
0.558265
0.558307
0.558359
0.558408
0.558462
0.558515
0.558549
0.558543
0.55851
0.558481
0.558477
0.55851
0.558594
0.558681
0.558694
0.558663
0.652441
0.902642
1.08474
1.13389
1.13522
1.14219
1.14177
1.14018
1.13721
1.13414
1.13028
1.12459
1.11428
1.10114
1.08508
1.06619
1.04715
1.03154
1.01774
1.00862
1.00266
0.996062
0.988495
0.980537
0.974173
0.969897
0.967269
0.965894
0.965632
0.966199
0.968512
0.971976
0.974704
0.976668
0.978333
0.980091
0.982157
0.984865
0.988551
0.993057
0.997266
0.999504
0.999975
1
1
1
1
1
1
1
1
0.557757
0.55778
0.557805
0.557831
0.557866
0.557915
0.557976
0.55804
0.558102
0.55816
0.558213
0.558262
0.558298
0.558331
0.55838
0.558434
0.55848
0.558532
0.558576
0.558576
0.558558
0.558511
0.558467
0.558429
0.558374
0.55832
0.55823
0.558107
0.557976
0.557427
0.580457
0.800905
1.03641
1.10854
1.14154
1.13789
1.13926
1.13636
1.1313
1.1251
1.11505
1.10087
1.08676
1.0688
1.04874
1.03305
1.02235
1.01253
1.00574
0.999789
0.993123
0.985505
0.97821
0.972348
0.968068
0.96572
0.965162
0.965208
0.96597
0.968413
0.971534
0.974036
0.975887
0.977582
0.979423
0.981589
0.984409
0.98824
0.992954
0.997296
0.999519
0.999976
1
1
1
1
1
1
1
1
0.557809
0.557838
0.557874
0.557919
0.557973
0.558031
0.55809
0.558145
0.558194
0.558243
0.558291
0.55834
0.558372
0.558406
0.558458
0.558521
0.558581
0.558647
0.558661
0.558652
0.558626
0.558578
0.558528
0.558472
0.558365
0.558235
0.558054
0.557842
0.557571
0.557044
0.555972
0.553515
0.700361
0.982293
1.12868
1.13034
1.13988
1.13294
1.12702
1.11516
1.09973
1.08662
1.07372
1.05599
1.03683
1.02566
1.01774
1.00871
1.0028
0.996304
0.988941
0.982032
0.976126
0.970672
0.966375
0.964328
0.964355
0.964635
0.965536
0.967862
0.970658
0.972971
0.974822
0.976655
0.978663
0.980986
0.983984
0.987966
0.9928
0.997292
0.999535
0.999977
1
1
1
1
1
1
1
1
0.557881
0.557928
0.557981
0.558036
0.558089
0.558139
0.558186
0.558231
0.558276
0.558322
0.558375
0.558425
0.55846
0.558501
0.558564
0.558652
0.558753
0.558849
0.558865
0.558858
0.558847
0.558835
0.558765
0.558689
0.558566
0.558377
0.558205
0.557905
0.557448
0.556751
0.555125
0.552939
0.551467
0.635646
0.906217
1.08872
1.12951
1.1224
1.11771
1.10131
1.08257
1.07346
1.06221
1.04591
1.02976
1.02184
1.01329
1.00404
0.997653
0.990823
0.983567
0.978362
0.973832
0.96874
0.964689
0.963291
0.963388
0.96387
0.96493
0.966947
0.969565
0.971888
0.973766
0.975657
0.977778
0.980273
0.983457
0.987665
0.992802
0.997343
0.999556
0.999979
1
1
1
1
1
1
1
1
0.557997
0.558051
0.558099
0.558142
0.558185
0.558226
0.558268
0.558311
0.558359
0.558411
0.558468
0.558518
0.558562
0.558615
0.558691
0.5588
0.558933
0.559064
0.559106
0.559115
0.559131
0.559166
0.559129
0.559053
0.558967
0.558812
0.558564
0.558168
0.557293
0.55526
0.553095
0.551774
0.551645
0.551642
0.569312
0.825195
1.0246
1.09461
1.09168
1.08304
1.06896
1.06272
1.04984
1.03631
1.02597
1.01911
1.00853
0.998859
0.991604
0.984003
0.977967
0.975298
0.971341
0.966484
0.963232
0.962479
0.96239
0.962821
0.964102
0.965925
0.968226
0.970684
0.973027
0.975129
0.977154
0.979643
0.98298
0.987359
0.992689
0.997383
0.999582
0.999981
1
1
1
1
1
1
1
1
0.558111
0.558153
0.55819
0.558225
0.558263
0.558306
0.558353
0.5584
0.558452
0.558508
0.558564
0.558614
0.558665
0.558727
0.558808
0.55892
0.55906
0.559191
0.559245
0.559264
0.559273
0.559305
0.559308
0.559217
0.559088
0.558891
0.558562
0.55763
0.555457
0.553226
0.551761
0.551569
0.551592
0.551821
0.553469
0.555957
0.698771
0.933635
1.0366
1.05511
1.0528
1.05151
1.03967
1.03
1.02198
1.01248
1.00048
0.992242
0.985939
0.978534
0.975358
0.973213
0.968671
0.964155
0.962165
0.961636
0.961275
0.961529
0.962897
0.964947
0.966978
0.969198
0.971586
0.973975
0.976411
0.979104
0.982513
0.987154
0.992746
0.997461
0.999611
0.999983
1
1
1
1
1
1
1
1
0.558195
0.558231
0.558267
0.558309
0.558357
0.558404
0.55845
0.558499
0.55855
0.558601
0.558645
0.558687
0.558738
0.558806
0.55889
0.558991
0.559116
0.559227
0.559272
0.559287
0.559292
0.559311
0.559314
0.559223
0.559069
0.558563
0.557342
0.55525
0.55299
0.551741
0.551304
0.55106
0.551485
0.552877
0.555868
0.561964
0.56647
0.621276
0.790034
0.948281
1.03112
1.02907
1.02237
1.02352
1.0184
1.00546
0.991261
0.988098
0.983521
0.97739
0.975395
0.971774
0.96581
0.962061
0.96116
0.960452
0.960025
0.960166
0.961296
0.963558
0.966061
0.968189
0.970267
0.972605
0.97526
0.978309
0.982024
0.986839
0.992698
0.997545
0.999644
0.999986
1
1
1
1
1
1
1
1
0.558279
0.558321
0.558365
0.558411
0.55846
0.558508
0.558555
0.558599
0.558633
0.55866
0.558681
0.558702
0.558746
0.558821
0.558906
0.559006
0.559128
0.559219
0.559266
0.55927
0.559284
0.559285
0.559267
0.559027
0.558117
0.55642
0.55429
0.552578
0.551196
0.550794
0.550867
0.551019
0.552524
0.556956
0.562145
0.56784
0.574088
0.580301
0.584296
0.677148
0.848768
0.936692
0.982407
1.01141
1.00687
0.99677
0.984286
0.988177
0.983358
0.978213
0.975583
0.969997
0.962744
0.959959
0.959713
0.958816
0.958607
0.958961
0.959837
0.96183
0.964533
0.96721
0.969589
0.971848
0.97438
0.977473
0.981477
0.986768
0.992804
0.997657
0.999679
0.999988
1
1
1
1
1
1
1
1
0.558387
0.558432
0.558474
0.558516
0.55856
0.558605
0.55865
0.558674
0.558674
0.558679
0.55869
0.5587
0.558724
0.558789
0.55884
0.558914
0.558979
0.558913
0.558905
0.55885
0.558775
0.558642
0.558159
0.557101
0.555532
0.553627
0.551653
0.550654
0.550458
0.550466
0.550945
0.553107
0.556554
0.561388
0.56741
0.57326
0.579149
0.585157
0.591317
0.596764
0.61058
0.698096
0.842827
0.9291
0.962674
0.974362
0.981473
0.988946
0.982456
0.978418
0.974297
0.967439
0.960195
0.95914
0.957672
0.95662
0.956973
0.957859
0.958853
0.960318
0.962643
0.965441
0.968191
0.970836
0.973658
0.976908
0.980967
0.98648
0.99287
0.997789
0.999717
0.99999
1
1
1
1
1
1
1
1
0.558499
0.55854
0.558576
0.558607
0.558636
0.55867
0.558704
0.558701
0.558688
0.558695
0.558717
0.558727
0.558742
0.55877
0.558745
0.558673
0.558587
0.558427
0.55823
0.558004
0.55761
0.55699
0.556044
0.554671
0.553031
0.551283
0.550212
0.550145
0.550318
0.55088
0.553341
0.55786
0.562448
0.566866
0.572903
0.579004
0.584773
0.590341
0.595929
0.601686
0.607399
0.613534
0.629808
0.709032
0.825724
0.914435
0.972918
0.981023
0.974964
0.975586
0.972156
0.962285
0.958775
0.957572
0.954763
0.954287
0.955134
0.956217
0.957633
0.959263
0.961162
0.963554
0.966353
0.969369
0.972502
0.976014
0.980538
0.986545
0.993049
0.99794
0.999755
0.999992
1
1
1
1
1
1
1
1
0.558604
0.558627
0.558646
0.558664
0.558685
0.558712
0.558734
0.558725
0.558725
0.558748
0.558787
0.558799
0.558777
0.558735
0.558661
0.558508
0.558313
0.558111
0.55776
0.557295
0.556549
0.555519
0.554181
0.552488
0.551
0.55019
0.550102
0.550183
0.551258
0.554555
0.558074
0.561975
0.567687
0.573222
0.5781
0.583322
0.589005
0.594912
0.600982
0.607308
0.613543
0.619723
0.62606
0.632643
0.646801
0.714766
0.825047
0.896545
0.939698
0.966504
0.962163
0.954703
0.959209
0.956272
0.952009
0.952608
0.953
0.953556
0.955023
0.95732
0.959812
0.962282
0.964946
0.968015
0.971423
0.975202
0.979959
0.986361
0.993237
0.998113
0.999794
0.999994
1
1
1
1
1
1
1
1
0.558659
0.558668
0.558684
0.558712
0.558753
0.558774
0.55879
0.558801
0.55882
0.558844
0.558889
0.558937
0.558906
0.558738
0.558638
0.558493
0.558244
0.558019
0.557513
0.556804
0.55557
0.553824
0.552048
0.550769
0.550302
0.550334
0.550833
0.552589
0.555311
0.55899
0.563319
0.567323
0.572252
0.578362
0.583376
0.588747
0.594366
0.600164
0.606421
0.612717
0.619133
0.625611
0.632053
0.638629
0.645489
0.652181
0.666955
0.727435
0.833927
0.909071
0.934372
0.950973
0.960385
0.95373
0.949472
0.951031
0.950315
0.95019
0.951358
0.954209
0.957573
0.960631
0.963697
0.966932
0.970333
0.974375
0.979756
0.986494
0.993507
0.998299
0.999832
0.999996
1
1
1
1
1
1
1
1
0.558688
0.558716
0.558751
0.558797
0.55886
0.558884
0.558886
0.558911
0.558952
0.558947
0.558954
0.558981
0.558982
0.558909
0.558766
0.558689
0.558408
0.55794
0.557014
0.555338
0.553322
0.551692
0.550723
0.550593
0.551031
0.552215
0.554214
0.557149
0.559781
0.562701
0.567762
0.573431
0.577554
0.582502
0.588885
0.595148
0.601097
0.607034
0.612791
0.618526
0.624335
0.630435
0.636856
0.64348
0.650398
0.657833
0.665022
0.672287
0.691577
0.756232
0.858777
0.936485
0.953316
0.946921
0.95057
0.948764
0.946826
0.947556
0.949
0.951417
0.954789
0.958328
0.96176
0.965339
0.969178
0.973517
0.979207
0.986522
0.993834
0.998504
0.999867
0.999997
1
1
1
1
1
1
1
1
0.558775
0.558827
0.558863
0.558895
0.558935
0.558971
0.558961
0.558968
0.558986
0.558969
0.558943
0.55894
0.55896
0.55894
0.558786
0.558443
0.557631
0.556047
0.554212
0.552667
0.551647
0.551062
0.551367
0.552035
0.55319
0.5554
0.557312
0.559808
0.563949
0.568108
0.572133
0.578309
0.584648
0.589757
0.595153
0.600602
0.606133
0.611803
0.617377
0.623301
0.629512
0.635762
0.642103
0.648982
0.655904
0.663062
0.670421
0.677853
0.686021
0.694326
0.725279
0.811643
0.886799
0.929026
0.947396
0.942486
0.942593
0.945113
0.947727
0.950052
0.9525
0.955869
0.959756
0.963638
0.967779
0.972762
0.979206
0.986781
0.994228
0.998715
0.999899
0.999998
1
1
1
1
1
1
1
1
0.558927
0.558953
0.558953
0.558946
0.558959
0.558986
0.558975
0.558976
0.558986
0.558965
0.55895
0.55889
0.558715
0.558411
0.557549
0.556028
0.554421
0.553007
0.552077
0.551605
0.55164
0.551973
0.552625
0.553802
0.555072
0.557438
0.560198
0.563271
0.568403
0.574933
0.580334
0.584644
0.590411
0.596333
0.601398
0.606451
0.611707
0.61697
0.622759
0.628438
0.634267
0.641016
0.647815
0.654668
0.661747
0.669148
0.676985
0.684601
0.692214
0.699647
0.708226
0.723752
0.781776
0.878819
0.927095
0.935404
0.942614
0.943905
0.945028
0.947494
0.95081
0.953977
0.957656
0.962023
0.966562
0.971751
0.97875
0.987056
0.994702
0.998933
0.999927
0.999999
1
1
1
1
1
1
1
1
0.558977
0.558964
0.558911
0.558808
0.55875
0.558679
0.55863
0.558635
0.558607
0.558512
0.558294
0.557742
0.556671
0.55541
0.554226
0.552999
0.55211
0.551523
0.551273
0.551509
0.552045
0.552607
0.553527
0.555332
0.55729
0.559881
0.565584
0.571651
0.575984
0.580819
0.586927
0.592125
0.596188
0.601014
0.60632
0.611381
0.616932
0.622539
0.628348
0.634765
0.641045
0.64696
0.653719
0.660661
0.667574
0.674367
0.681862
0.69007
0.698633
0.706865
0.714549
0.723388
0.734403
0.775775
0.855241
0.918988
0.937759
0.939445
0.939523
0.941998
0.946476
0.95129
0.955681
0.960015
0.965052
0.971266
0.978893
0.987534
0.995236
0.999145
0.99995
0.999999
1
1
1
1
1
1
1
1
0.558778
0.558633
0.558487
0.558325
0.55823
0.558177
0.558082
0.557904
0.557565
0.556947
0.556076
0.555126
0.554041
0.55283
0.551997
0.551338
0.550907
0.551009
0.550995
0.551068
0.551936
0.553111
0.554935
0.558143
0.563635
0.569046
0.573128
0.578386
0.583814
0.588003
0.591799
0.597035
0.602109
0.606507
0.611519
0.617119
0.622496
0.62838
0.634019
0.639712
0.646402
0.653089
0.659524
0.666309
0.673724
0.681149
0.688027
0.695439
0.703305
0.712211
0.721251
0.729761
0.738288
0.748884
0.779229
0.850329
0.905839
0.92686
0.933315
0.937085
0.941515
0.946994
0.952815
0.958225
0.963579
0.970292
0.978829
0.988148
0.995841
0.999347
0.999968
1
1
1
1
1
1
1
1
1
0.558402
0.558343
0.55829
0.558204
0.55801
0.557784
0.557499
0.557003
0.556236
0.555247
0.553989
0.552793
0.551923
0.551179
0.55094
0.550946
0.550768
0.550843
0.551216
0.551801
0.553567
0.557506
0.562458
0.567079
0.571266
0.576455
0.580804
0.584258
0.588477
0.593644
0.598
0.601874
0.607114
0.612826
0.617821
0.623314
0.628922
0.634585
0.640802
0.646809
0.652523
0.659019
0.665759
0.67241
0.679178
0.686783
0.694582
0.702128
0.709905
0.71806
0.726704
0.73601
0.745313
0.754177
0.764945
0.791223
0.851796
0.906191
0.929178
0.936282
0.940148
0.944114
0.949443
0.955765
0.962344
0.970153
0.979181
0.98894
0.996486
0.999528
0.999981
1
1
1
1
1
1
1
1
1
0.558504
0.55844
0.558399
0.558336
0.558103
0.557501
0.556659
0.55554
0.554154
0.552961
0.55197
0.551283
0.551048
0.550926
0.550921
0.551112
0.551628
0.552412
0.554825
0.558744
0.562503
0.566077
0.569903
0.57447
0.577937
0.581169
0.585825
0.59017
0.594086
0.598322
0.603837
0.609178
0.613763
0.618776
0.624463
0.629609
0.635187
0.640688
0.646187
0.652449
0.658828
0.66509
0.671691
0.678736
0.685708
0.692712
0.700493
0.708468
0.716633
0.724667
0.73353
0.742622
0.751814
0.761095
0.770328
0.782382
0.807515
0.859915
0.906936
0.927525
0.935434
0.941456
0.947353
0.953262
0.960301
0.969339
0.97965
0.989953
0.997166
0.999682
0.99999
1
1
1
1
1
1
1
1
1
0.558227
0.557884
0.557304
0.556453
0.555396
0.55423
0.553218
0.552536
0.55195
0.551427
0.551223
0.551143
0.551268
0.551821
0.552481
0.553716
0.556302
0.559501
0.562059
0.565081
0.568614
0.57217
0.575247
0.578712
0.583467
0.587248
0.59114
0.596193
0.60148
0.606116
0.610455
0.615357
0.620634
0.625418
0.630303
0.635555
0.640819
0.646529
0.652253
0.657989
0.664122
0.670599
0.677348
0.684306
0.691575
0.698841
0.706381
0.71454
0.722677
0.731489
0.740034
0.749061
0.75882
0.768354
0.777341
0.786815
0.800949
0.826292
0.870119
0.90624
0.925251
0.935988
0.943714
0.950974
0.959708
0.969596
0.980551
0.991159
0.997836
0.999803
0.999995
1
1
1
1
1
1
1
1
1
0.556057
0.555143
0.554158
0.553282
0.552648
0.552266
0.551981
0.551928
0.551926
0.551966
0.552347
0.553006
0.553486
0.554687
0.556793
0.55878
0.560941
0.563947
0.566924
0.569729
0.573027
0.577033
0.581707
0.585514
0.589744
0.59511
0.599575
0.603668
0.607914
0.612543
0.617197
0.621573
0.626059
0.63123
0.636156
0.641531
0.646992
0.652585
0.658682
0.664929
0.671397
0.677871
0.684595
0.691367
0.698556
0.706046
0.71327
0.720856
0.72934
0.737918
0.746784
0.755914
0.765661
0.775648
0.785441
0.794482
0.805368
0.821514
0.84684
0.883307
0.912642
0.928728
0.938655
0.947621
0.958281
0.969798
0.98187
0.992556
0.998459
0.99989
0.999998
1
1
1
1
1
1
1
1
1
0.553242
0.552552
0.552053
0.551702
0.551651
0.551786
0.551915
0.552151
0.552726
0.553228
0.553727
0.555035
0.556457
0.557763
0.560219
0.563018
0.565571
0.568589
0.572671
0.576958
0.581177
0.585291
0.589464
0.594196
0.597984
0.601644
0.60588
0.610001
0.613971
0.61818
0.622547
0.627419
0.632272
0.637027
0.64242
0.647835
0.653486
0.65936
0.665283
0.671226
0.677499
0.684272
0.690953
0.697948
0.705059
0.712618
0.720541
0.72834
0.736191
0.744525
0.753525
0.762965
0.772227
0.78248
0.792883
0.802872
0.812023
0.824555
0.843233
0.867837
0.895739
0.918171
0.934073
0.946983
0.958596
0.970824
0.983644
0.994065
0.998996
0.999946
0.999999
1
1
1
1
1
1
1
1
1
0.551637
0.551527
0.551579
0.55159
0.55154
0.55169
0.551976
0.552174
0.552951
0.554453
0.555489
0.556878
0.560139
0.562939
0.565507
0.56952
0.57393
0.577755
0.581592
0.585611
0.589404
0.593163
0.596609
0.600054
0.604109
0.607721
0.611456
0.615606
0.620079
0.624551
0.629302
0.633937
0.639021
0.644336
0.649575
0.654923
0.660539
0.666277
0.672112
0.67846
0.684601
0.690903
0.697651
0.704578
0.711594
0.718757
0.726669
0.734914
0.743242
0.751984
0.760772
0.769767
0.779499
0.789407
0.799857
0.810511
0.820696
0.831801
0.846816
0.867621
0.889921
0.911301
0.929827
0.945344
0.958931
0.972523
0.985849
0.99559
0.999417
0.999977
1
1
1
1
1
1
1
1
1
1
0.551348
0.551408
0.551643
0.551897
0.551988
0.55223
0.55335
0.555081
0.556284
0.558439
0.562398
0.565562
0.568242
0.572322
0.575907
0.578903
0.582363
0.585754
0.588884
0.592117
0.595502
0.598726
0.602531
0.606086
0.609696
0.613995
0.618211
0.622416
0.626892
0.631449
0.636135
0.641131
0.645947
0.650921
0.656182
0.661631
0.667101
0.67265
0.678537
0.684404
0.691057
0.697569
0.704339
0.711383
0.718765
0.726267
0.733612
0.741608
0.750141
0.758648
0.767804
0.777309
0.78694
0.796723
0.807077
0.817778
0.828752
0.838977
0.851346
0.868441
0.889481
0.911026
0.930173
0.946024
0.960498
0.975055
0.98845
0.997029
0.999709
0.999992
1
1
1
1
1
1
1
1
1
1
0.552649
0.553467
0.554275
0.555466
0.557222
0.559124
0.560797
0.563216
0.566247
0.568531
0.571024
0.574273
0.576893
0.579611
0.582923
0.585625
0.588415
0.591831
0.595007
0.598254
0.601869
0.605675
0.609286
0.613385
0.617449
0.621377
0.625603
0.629989
0.634222
0.638852
0.643325
0.647885
0.652804
0.657823
0.662803
0.668117
0.673668
0.67954
0.685568
0.691778
0.697902
0.704714
0.711488
0.718516
0.72583
0.73352
0.741478
0.749392
0.757624
0.76646
0.775301
0.784595
0.79427
0.804471
0.814738
0.825509
0.836623
0.848148
0.859586
0.872738
0.890302
0.910409
0.929501
0.946559
0.96262
0.978206
0.991271
0.998251
0.999882
0.999998
1
1
1
1
1
1
1
1
1
1
0.55586
0.556945
0.558091
0.559505
0.561498
0.563813
0.565704
0.567604
0.570906
0.573794
0.575798
0.578805
0.582434
0.584945
0.588002
0.591954
0.595167
0.598298
0.602232
0.60596
0.60935
0.613129
0.616913
0.620517
0.62439
0.628376
0.632206
0.636318
0.640729
0.644844
0.649591
0.65437
0.659111
0.664154
0.669732
0.67517
0.68083
0.686623
0.692634
0.699047
0.705584
0.712087
0.719039
0.726102
0.733213
0.740612
0.748572
0.756826
0.765198
0.773807
0.782991
0.792285
0.802059
0.812182
0.822779
0.833504
0.844481
0.855583
0.867376
0.880451
0.895563
0.912963
0.930909
0.948564
0.9659
0.982122
0.994112
0.999148
0.999964
1
1
1
1
1
1
1
1
1
1
1
0.559623
0.561419
0.563898
0.566221
0.568203
0.570908
0.57461
0.577385
0.579377
0.582774
0.586356
0.588832
0.591851
0.59532
0.598081
0.600966
0.604404
0.60749
0.610419
0.613771
0.617203
0.620285
0.62389
0.627506
0.631078
0.634911
0.639141
0.643174
0.647496
0.652279
0.656755
0.661598
0.66685
0.672112
0.67729
0.68286
0.688564
0.694377
0.700369
0.706354
0.712822
0.719527
0.726288
0.733359
0.740828
0.748467
0.756122
0.76424
0.772777
0.781628
0.790755
0.800321
0.809942
0.81988
0.830362
0.841653
0.853363
0.864778
0.875593
0.887115
0.901147
0.917731
0.935524
0.953454
0.971107
0.986801
0.996648
0.999681
0.999992
1
1
1
1
1
1
1
1
1
1
1
0.568523
0.570735
0.573101
0.575819
0.578304
0.580433
0.582972
0.585993
0.588341
0.590483
0.593519
0.596168
0.598428
0.60139
0.604308
0.606832
0.609684
0.613119
0.6161
0.619133
0.622687
0.62643
0.629833
0.633809
0.637917
0.641976
0.64619
0.650804
0.655239
0.659794
0.664696
0.669426
0.674234
0.679392
0.684646
0.689981
0.695499
0.70129
0.707313
0.713784
0.720123
0.726789
0.733764
0.740944
0.748266
0.755865
0.763939
0.772197
0.780682
0.789431
0.798503
0.80796
0.818031
0.828364
0.838729
0.849375
0.860816
0.872975
0.885225
0.897295
0.909914
0.924036
0.940339
0.958617
0.976929
0.99146
0.998495
0.999917
0.999999
1
1
1
1
1
1
1
1
1
1
1
0.576135
0.578332
0.580254
0.582413
0.585244
0.587646
0.589389
0.591838
0.595156
0.597442
0.599492
0.602796
0.605716
0.608116
0.611302
0.614679
0.617665
0.62073
0.62442
0.627906
0.63125
0.634929
0.638784
0.6424
0.646304
0.650355
0.654325
0.658415
0.662878
0.667167
0.67166
0.676598
0.681529
0.6865
0.69193
0.697441
0.703162
0.709129
0.715241
0.721435
0.728155
0.734963
0.741865
0.748948
0.756421
0.764198
0.772057
0.78023
0.788795
0.797789
0.807086
0.816513
0.826156
0.83641
0.847291
0.858496
0.869782
0.881141
0.892957
0.905686
0.919367
0.934078
0.950179
0.967617
0.984312
0.995642
0.999531
0.999987
1
1
1
1
1
1
1
1
1
1
1
1
0.584832
0.587185
0.589566
0.591574
0.59371
0.596527
0.59909
0.601024
0.603494
0.606533
0.608891
0.611249
0.61434
0.61705
0.619659
0.622748
0.625864
0.628827
0.631858
0.635284
0.638661
0.641903
0.645545
0.649319
0.652997
0.656933
0.661244
0.665402
0.669663
0.674454
0.679102
0.683866
0.689087
0.694439
0.699686
0.705398
0.711153
0.717004
0.723249
0.729755
0.73612
0.742777
0.749852
0.75715
0.764484
0.772071
0.78016
0.788605
0.797203
0.805982
0.815197
0.824902
0.834936
0.845147
0.855657
0.86674
0.878451
0.890521
0.902698
0.915127
0.928283
0.94289
0.959403
0.97676
0.991209
0.998432
0.999914