/*--------------------------------*- C++ -*----------------------------------*\
  =========                 |
  \\      /  F ield         | OpenFOAM: The Open Source CFD Toolbox
   \\    /   O peration     | Website:  https://openfoam.org
    \\  /    A nd           | Version:  7
     \\/     M anipulation  |
\*---------------------------------------------------------------------------*/
FoamFile
{
    version     2.0;
    format      ascii;
    class       volScalarField;
    location    "15";
    object      rho;
}
// * * * * * * * * * * * * * * * * * * * * * * * * * * * * * * * * * * * * * //

dimensions      [1 -3 0 0 0 0 0];

internalField   nonuniform List<scalar> 
90000
(
0.185497
0.23203
0.26278
0.301176
0.339384
0.363314
0.392566
0.436209
0.474846
0.51092
0.558314
0.602572
0.645199
0.690403
0.729424
0.765715
0.799575
0.820559
0.841662
0.850343
0.855571
0.857262
0.855551
0.848799
0.845714
0.844029
0.844647
0.845242
0.847933
0.856126
0.867898
0.878362
0.884405
0.887352
0.891971
0.899615
0.906571
0.912302
0.918806
0.9256
0.932365
0.938899
0.945423
0.952402
0.960303
0.969544
0.980203
0.991398
1.00317
1.01487
1.02706
1.03681
1.04482
1.04556
1.04436
1.0412
1.03724
1.03567
1.03584
1.03788
1.04094
1.04505
1.05068
1.05513
1.05885
1.06008
1.05899
1.05555
1.05147
1.04878
1.0493
1.05205
1.05483
1.0563
1.0559
1.05353
1.05132
1.05197
1.05486
1.05754
1.05918
1.06159
1.06756
1.07637
1.08373
1.08866
1.09399
1.1018
1.10937
1.1147
1.11962
1.12572
1.13223
1.13811
1.14347
1.1487
1.15376
1.15869
1.16295
1.17019
0.144597
0.144639
0.144679
0.144716
0.14476
0.144807
0.144869
0.144928
0.146157
0.149396
0.156547
0.168288
0.184103
0.207372
0.237981
0.27636
0.32528
0.383306
0.446
0.511321
0.574621
0.634653
0.68659
0.727526
0.754011
0.778417
0.783662
0.786684
0.782884
0.780404
0.776088
0.77515
0.774812
0.774089
0.775947
0.78011
0.784325
0.787422
0.79319
0.803671
0.819309
0.836124
0.85247
0.867019
0.880664
0.892837
0.9022
0.910456
0.916388
0.92256
0.929288
0.937627
0.944639
0.950908
0.957924
0.96614
0.975869
0.986243
0.997198
1.00731
1.01639
1.02522
1.0328
1.03588
1.03478
1.03503
1.03551
1.03752
1.04068
1.04533
1.04969
1.05395
1.05549
1.05388
1.05103
1.04919
1.05065
1.05467
1.0577
1.05851
1.05993
1.06468
1.07406
1.08296
1.08802
1.0917
1.09836
1.10685
1.11317
1.11778
1.12294
1.12956
1.13562
1.14077
1.14579
1.1508
1.1556
1.16035
1.16465
1.17175
0.145343
0.145432
0.145528
0.145632
0.145744
0.145863
0.145991
0.14612
0.146274
0.146345
0.14641
0.146493
0.14659
0.146695
0.146791
0.146902
0.146991
0.14743
0.150774
0.161626
0.180191
0.211512
0.253115
0.309457
0.374889
0.44704
0.513249
0.572863
0.625312
0.667105
0.700996
0.726233
0.748442
0.755326
0.760461
0.755818
0.746061
0.737489
0.727099
0.719966
0.718078
0.720379
0.729367
0.743922
0.763548
0.783686
0.798728
0.808556
0.81476
0.817654
0.822294
0.830601
0.842989
0.858167
0.874356
0.889495
0.902552
0.913372
0.92284
0.93152
0.940998
0.951569
0.962312
0.971891
0.980536
0.990423
1.00103
1.0122
1.02278
1.03316
1.03972
1.03894
1.03661
1.03646
1.03885
1.0452
1.05195
1.05624
1.05807
1.05776
1.06014
1.0696
1.08071
1.08661
1.09017
1.0949
1.10381
1.11177
1.11635
1.12033
1.12638
1.13327
1.13873
1.14363
1.1485
1.15313
1.1576
1.16229
1.16665
1.17355
0.146412
0.146511
0.146614
0.146717
0.14682
0.146923
0.147022
0.147128
0.147226
0.14732
0.147412
0.147505
0.147596
0.147692
0.147784
0.147879
0.147964
0.148063
0.148109
0.148159
0.14821
0.148269
0.148331
0.148405
0.148506
0.152997
0.168744
0.194747
0.238531
0.291915
0.364804
0.438931
0.521217
0.589142
0.648639
0.691927
0.71411
0.735438
0.727827
0.721431
0.711565
0.70029
0.693649
0.688341
0.690035
0.695459
0.706917
0.722973
0.739177
0.751066
0.758427
0.760532
0.762908
0.768762
0.778816
0.790788
0.800815
0.808809
0.817175
0.827915
0.842004
0.85904
0.876219
0.891087
0.904454
0.918045
0.932267
0.945697
0.957608
0.968214
0.980654
0.991651
1.00264
1.01394
1.02445
1.03581
1.04412
1.04549
1.0465
1.05098
1.0602
1.0737
1.08277
1.08729
1.09051
1.0977
1.10823
1.11381
1.11765
1.12296
1.13048
1.13679
1.14154
1.14639
1.15104
1.15523
1.1595
1.1643
1.16875
1.17537
0.147386
0.147449
0.147513
0.147575
0.147638
0.147701
0.147764
0.147825
0.147886
0.147945
0.148
0.148057
0.148116
0.148176
0.148235
0.148295
0.148358
0.148423
0.148489
0.148564
0.148633
0.148704
0.148774
0.148848
0.148926
0.148984
0.14904
0.149096
0.149144
0.149205
0.149243
0.154802
0.172647
0.213403
0.270002
0.35883
0.447544
0.549709
0.617421
0.669057
0.697365
0.705912
0.70297
0.692503
0.685157
0.67663
0.668853
0.669433
0.676717
0.691907
0.708979
0.720132
0.724989
0.718989
0.713438
0.714533
0.721339
0.733485
0.746689
0.757665
0.766491
0.775063
0.787525
0.801649
0.815005
0.827577
0.839669
0.854551
0.871202
0.888144
0.907914
0.928931
0.948017
0.96404
0.975964
0.984077
0.994016
1.00786
1.02471
1.04324
1.05981
1.07176
1.07314
1.07713
1.08571
1.09941
1.10942
1.11346
1.11731
1.12405
1.13238
1.13791
1.14281
1.14825
1.15278
1.15685
1.16128
1.16641
1.17082
1.17705
0.14798
0.148022
0.148062
0.148102
0.148143
0.148185
0.148227
0.148269
0.148313
0.148356
0.1484
0.148444
0.14849
0.14854
0.148591
0.148642
0.148698
0.148755
0.148816
0.148884
0.148944
0.149
0.149057
0.149114
0.149172
0.149246
0.149319
0.149378
0.14942
0.149459
0.149492
0.149497
0.149502
0.149508
0.149521
0.149536
0.157097
0.184657
0.248201
0.332343
0.445143
0.535882
0.614081
0.652229
0.674469
0.678929
0.672369
0.665959
0.666169
0.668306
0.678213
0.692495
0.70582
0.705494
0.699427
0.6926
0.687839
0.691013
0.699293
0.709771
0.717166
0.720487
0.722901
0.728113
0.73841
0.750897
0.76307
0.773389
0.787143
0.802606
0.81945
0.837486
0.855615
0.872991
0.891377
0.911136
0.934596
0.959852
0.983091
1.00342
1.01663
1.02697
1.04155
1.05864
1.07775
1.09425
1.09522
1.1004
1.11076
1.12339
1.13189
1.13653
1.14243
1.14844
1.153
1.15718
1.16192
1.16759
1.17193
1.17801
0.148405
0.148435
0.148467
0.148499
0.148531
0.148564
0.148598
0.148631
0.148668
0.148707
0.148748
0.148792
0.148839
0.148885
0.148928
0.14897
0.149016
0.149064
0.149115
0.14917
0.149216
0.149254
0.149297
0.149338
0.149381
0.149435
0.149482
0.149514
0.149538
0.149556
0.149565
0.149573
0.149581
0.149592
0.149611
0.149643
0.149668
0.149695
0.149727
0.149745
0.158303
0.191111
0.258065
0.366349
0.465285
0.566017
0.625721
0.646163
0.662901
0.668324
0.671278
0.678351
0.685507
0.68723
0.689706
0.688029
0.685896
0.683297
0.683047
0.684697
0.690405
0.696914
0.700181
0.699921
0.701083
0.706907
0.71632
0.724099
0.72871
0.737543
0.749396
0.761409
0.775318
0.792507
0.811138
0.831436
0.853343
0.876289
0.898223
0.921279
0.94591
0.972025
0.997674
1.02042
1.03634
1.04643
1.06054
1.0798
1.09926
1.10865
1.11343
1.1231
1.13364
1.14155
1.14798
1.15457
1.1611
1.16757
1.17182
1.17805
0.148746
0.148772
0.148801
0.14883
0.148861
0.148893
0.148926
0.148959
0.148993
0.149028
0.149065
0.149105
0.149145
0.149181
0.149211
0.14924
0.149272
0.149306
0.149344
0.149381
0.149412
0.149441
0.149469
0.149499
0.14953
0.149566
0.149596
0.149615
0.14963
0.149639
0.149644
0.149647
0.14965
0.149656
0.149671
0.149705
0.149753
0.149798
0.149829
0.149848
0.149845
0.14983
0.14979
0.149737
0.162841
0.210281
0.30064
0.413833
0.518699
0.591556
0.625234
0.657007
0.663549
0.674993
0.688585
0.688164
0.688493
0.687587
0.683699
0.681613
0.682096
0.683753
0.686594
0.691301
0.691329
0.688911
0.690388
0.696149
0.702636
0.703733
0.707136
0.714219
0.721988
0.732322
0.747224
0.763053
0.780732
0.79897
0.819311
0.841619
0.865657
0.889155
0.912133
0.935633
0.958421
0.984324
1.00904
1.03026
1.04481
1.06113
1.08136
1.0999
1.11312
1.12228
1.13246
1.14276
1.15154
1.15882
1.1642
1.17376
0.149065
0.14909
0.149117
0.149145
0.149176
0.149205
0.149234
0.149264
0.149291
0.149316
0.149344
0.149375
0.149403
0.149423
0.149437
0.149448
0.149462
0.149482
0.149505
0.149528
0.14955
0.149571
0.149593
0.149615
0.149638
0.149663
0.149681
0.14969
0.149699
0.149704
0.149699
0.149694
0.149694
0.149697
0.149712
0.149757
0.149814
0.149853
0.149866
0.149866
0.149858
0.149825
0.149753
0.149716
0.149701
0.149695
0.149687
0.155543
0.186635
0.264213
0.375596
0.493199
0.579519
0.641825
0.67729
0.682874
0.69216
0.693455
0.686873
0.681624
0.681269
0.682081
0.684631
0.68615
0.686373
0.685857
0.686272
0.688031
0.691737
0.694521
0.693337
0.694044
0.698491
0.7047
0.71169
0.721208
0.73106
0.743508
0.758077
0.77546
0.79349
0.810731
0.830803
0.853438
0.878201
0.902556
0.924795
0.947214
0.973059
0.999306
1.02154
1.03834
1.05583
1.07469
1.09251
1.10803
1.12281
1.13632
1.14669
1.16218
0.149393
0.149413
0.149433
0.149451
0.149469
0.149487
0.149506
0.149524
0.149539
0.149554
0.149569
0.14958
0.149591
0.149595
0.149588
0.149585
0.149587
0.149598
0.149613
0.149628
0.149642
0.14966
0.149678
0.149695
0.149718
0.149737
0.149744
0.149747
0.149749
0.149745
0.149728
0.14972
0.14972
0.149722
0.149744
0.149803
0.14986
0.149881
0.149874
0.149848
0.149814
0.149755
0.149705
0.1497
0.149705
0.149714
0.149744
0.149771
0.149808
0.149864
0.150543
0.171705
0.240066
0.350336
0.4942
0.584576
0.660639
0.686108
0.68903
0.687437
0.687669
0.685677
0.685591
0.685316
0.683991
0.684235
0.685356
0.687735
0.689923
0.690731
0.689619
0.688893
0.689952
0.695622
0.701354
0.706269
0.711759
0.717338
0.725254
0.734043
0.746397
0.759808
0.773071
0.788889
0.805718
0.823372
0.843923
0.86542
0.889131
0.912647
0.934754
0.959391
0.984879
1.00868
1.03035
1.05094
1.0694
1.08587
1.10125
1.12465
0.149672
0.149681
0.149683
0.149678
0.149675
0.149676
0.149681
0.149686
0.149691
0.149697
0.149695
0.149691
0.149691
0.149685
0.149662
0.149653
0.149653
0.149657
0.149665
0.149675
0.149686
0.149704
0.149727
0.149752
0.149778
0.149793
0.149797
0.149796
0.149793
0.14978
0.149757
0.149751
0.149751
0.149758
0.149795
0.149857
0.149883
0.149866
0.149811
0.149766
0.149732
0.149702
0.149696
0.149703
0.149733
0.149821
0.149933
0.150012
0.150074
0.150147
0.150196
0.150246
0.150268
0.150235
0.171492
0.247069
0.377632
0.525434
0.622574
0.672103
0.689348
0.690503
0.689896
0.688534
0.685259
0.686037
0.688236
0.689793
0.689447
0.688988
0.688913
0.689427
0.691618
0.694829
0.698592
0.701593
0.704527
0.709809
0.715607
0.721115
0.726228
0.732364
0.740561
0.749374
0.760584
0.773765
0.788084
0.804424
0.819621
0.836624
0.857475
0.877673
0.898996
0.921558
0.945542
0.968599
0.991833
1.01511
1.03551
1.06695
0.149778
0.149777
0.149771
0.149748
0.14973
0.149728
0.149728
0.14973
0.149733
0.14973
0.149722
0.149721
0.14972
0.149708
0.149681
0.14967
0.14967
0.149675
0.149686
0.1497
0.149714
0.149737
0.149789
0.149835
0.149854
0.149864
0.149872
0.149875
0.149869
0.149848
0.149826
0.14982
0.14982
0.149824
0.149857
0.149862
0.149847
0.14979
0.149724
0.149708
0.149697
0.149699
0.149707
0.149751
0.149872
0.150061
0.150176
0.150221
0.150229
0.150236
0.150253
0.150253
0.150203
0.150124
0.150062
0.14995
0.149681
0.187249
0.287605
0.438566
0.576691
0.646327
0.68588
0.686269
0.688824
0.693901
0.696456
0.694303
0.690003
0.687492
0.688911
0.692639
0.696839
0.69933
0.701642
0.703675
0.706003
0.708661
0.712221
0.715751
0.720524
0.725464
0.73042
0.735827
0.740614
0.746608
0.75504
0.763991
0.776249
0.7874
0.799885
0.815999
0.831876
0.849024
0.868114
0.888827
0.90919
0.931931
0.952469
0.986653
0.14978
0.149778
0.149776
0.14977
0.149744
0.14972
0.149719
0.149721
0.149724
0.14972
0.149715
0.149715
0.149713
0.1497
0.149679
0.149677
0.149682
0.149698
0.149729
0.149766
0.149799
0.149843
0.14992
0.149967
0.14997
0.149967
0.149959
0.149954
0.149941
0.149916
0.149881
0.149857
0.14985
0.149844
0.14982
0.149789
0.149759
0.149724
0.149697
0.149694
0.149703
0.149718
0.149777
0.149915
0.15012
0.150292
0.150332
0.150322
0.150281
0.150255
0.150237
0.150185
0.150069
0.149982
0.149901
0.149758
0.149573
0.149539
0.149545
0.160791
0.225821
0.372644
0.536179
0.625294
0.684231
0.691143
0.697075
0.695805
0.688837
0.689528
0.694238
0.698799
0.701491
0.702348
0.70378
0.706033
0.709179
0.711982
0.714742
0.71716
0.71952
0.723312
0.727079
0.730431
0.734585
0.739289
0.745433
0.751017
0.755367
0.762341
0.769826
0.777471
0.788862
0.80175
0.814379
0.828657
0.843724
0.858055
0.874366
0.907199
0.149823
0.149821
0.149818
0.149813
0.149801
0.149771
0.149757
0.149758
0.149759
0.149754
0.149752
0.14975
0.149736
0.149734
0.149741
0.149763
0.14979
0.149825
0.149879
0.14992
0.149946
0.14998
0.150021
0.15003
0.150028
0.150017
0.149996
0.149975
0.149951
0.149916
0.149869
0.14982
0.149784
0.149759
0.149732
0.149708
0.149712
0.149711
0.149701
0.149705
0.149732
0.149815
0.149977
0.150182
0.150345
0.150391
0.150382
0.150348
0.150288
0.150229
0.150158
0.150035
0.149918
0.149867
0.1498
0.149663
0.149547
0.149536
0.149568
0.149751
0.150334
0.150652
0.189857
0.312207
0.491451
0.598048
0.678141
0.680505
0.687951
0.696084
0.704352
0.70383
0.705005
0.705736
0.707092
0.710129
0.713561
0.715526
0.717303
0.719338
0.722493
0.726222
0.729207
0.731417
0.733508
0.737236
0.741957
0.746199
0.750197
0.753838
0.759084
0.76465
0.768152
0.773707
0.783108
0.791537
0.802642
0.816427
0.824652
0.844572
0.149849
0.149847
0.149844
0.149839
0.14983
0.149811
0.149795
0.149795
0.149797
0.149803
0.149812
0.149819
0.149828
0.149845
0.149875
0.149901
0.14992
0.149951
0.149987
0.150005
0.150012
0.150024
0.150031
0.150029
0.150015
0.149992
0.149962
0.14993
0.149881
0.149808
0.149748
0.149713
0.1497
0.149698
0.149694
0.149697
0.149711
0.149737
0.149762
0.149807
0.149902
0.150071
0.150264
0.150401
0.150412
0.15041
0.150392
0.150311
0.150188
0.150102
0.149981
0.149844
0.149812
0.149806
0.149763
0.149639
0.149566
0.149607
0.149751
0.150238
0.15107
0.151606
0.151502
0.151042
0.173028
0.27639
0.456279
0.59087
0.685241
0.696584
0.707848
0.704983
0.711452
0.711298
0.713869
0.716422
0.718559
0.719984
0.721521
0.724254
0.726846
0.729348
0.731655
0.733497
0.736428
0.740156
0.743933
0.74706
0.749179
0.752034
0.755659
0.759747
0.764524
0.768777
0.772723
0.778681
0.781577
0.786782
0.796941
0.811066
0.149885
0.149891
0.149897
0.149899
0.149899
0.149898
0.149899
0.149903
0.149908
0.149915
0.149923
0.149929
0.149936
0.149951
0.149973
0.14998
0.149985
0.150002
0.150022
0.150022
0.150013
0.149987
0.149954
0.149916
0.14988
0.149851
0.149832
0.149812
0.149771
0.1497
0.149666
0.149666
0.149671
0.149689
0.149726
0.149784
0.149866
0.149938
0.149995
0.150065
0.150176
0.150348
0.15044
0.150438
0.150413
0.150365
0.150261
0.150066
0.149967
0.149927
0.149822
0.149732
0.149751
0.149785
0.149765
0.149689
0.149751
0.150098
0.150648
0.151229
0.151709
0.152076
0.151869
0.151649
0.151938
0.152423
0.165045
0.25867
0.44314
0.585564
0.689078
0.701609
0.722262
0.719487
0.726859
0.724844
0.726705
0.728427
0.729839
0.733006
0.734283
0.73598
0.737932
0.739843
0.741736
0.743956
0.746506
0.749173
0.752209
0.75497
0.757668
0.760705
0.763663
0.767686
0.770841
0.774551
0.777758
0.781247
0.784439
0.793951
0.150036
0.150038
0.150035
0.150023
0.150002
0.14999
0.149988
0.149987
0.149986
0.149983
0.149979
0.149972
0.14997
0.149969
0.149964
0.149954
0.14994
0.149918
0.149897
0.149874
0.149842
0.1498
0.149757
0.149742
0.149737
0.149737
0.149741
0.149744
0.149731
0.149693
0.149663
0.14967
0.14973
0.149857
0.149967
0.150061
0.15014
0.150194
0.150225
0.150257
0.15033
0.150429
0.150435
0.150404
0.150327
0.150224
0.150055
0.149874
0.149849
0.14983
0.149759
0.14971
0.149725
0.149815
0.14999
0.150163
0.150564
0.1513
0.152336
0.152711
0.152655
0.152832
0.15319
0.154017
0.15514
0.156947
0.158586
0.159786
0.167938
0.252534
0.431187
0.599659
0.703906
0.725406
0.749915
0.740542
0.746739
0.74394
0.746052
0.748795
0.748727
0.749513
0.749576
0.750415
0.752195
0.75457
0.756578
0.758003
0.758935
0.75963
0.760758
0.763396
0.767525
0.771057
0.773294
0.775846
0.778937
0.782109
0.784348
0.789125
0.150079
0.150075
0.150065
0.150036
0.149993
0.149947
0.149911
0.149885
0.149864
0.149843
0.149814
0.14979
0.149771
0.14975
0.149725
0.1497
0.149679
0.149657
0.149646
0.149642
0.149633
0.149634
0.149639
0.149648
0.149669
0.149704
0.149717
0.149743
0.149821
0.149851
0.149863
0.149924
0.150079
0.15024
0.150283
0.150302
0.150327
0.150328
0.150317
0.15031
0.150324
0.150367
0.15037
0.150334
0.150263
0.150157
0.149979
0.149831
0.149823
0.149801
0.149757
0.149779
0.149894
0.150321
0.151116
0.151929
0.152585
0.153124
0.15388
0.154594
0.154318
0.154265
0.155039
0.156858
0.159285
0.16224
0.164719
0.167262
0.168724
0.169268
0.172364
0.250335
0.429383
0.616493
0.724116
0.751931
0.78044
0.768513
0.774772
0.771291
0.769648
0.770918
0.770845
0.772181
0.772775
0.772682
0.772096
0.77191
0.772565
0.774104
0.774788
0.776043
0.776695
0.776916
0.777628
0.778926
0.782809
0.786903
0.787745
0.790785
0.14984
0.149808
0.149774
0.149729
0.149652
0.149544
0.149468
0.149447
0.149436
0.149425
0.149417
0.149419
0.149427
0.149442
0.149451
0.149461
0.149469
0.14948
0.149495
0.149514
0.149543
0.149583
0.149617
0.149658
0.149746
0.149837
0.149901
0.150037
0.150272
0.150322
0.150332
0.150388
0.150524
0.150542
0.150512
0.150454
0.150433
0.150395
0.150336
0.150292
0.150287
0.150347
0.150388
0.150356
0.150279
0.150159
0.15001
0.149985
0.150022
0.15006
0.150199
0.15062
0.151266
0.152167
0.153172
0.154308
0.155089
0.155293
0.155619
0.156752
0.157522
0.158419
0.159833
0.162206
0.165577
0.168268
0.170666
0.172867
0.17434
0.17655
0.180062
0.183721
0.185158
0.254421
0.427401
0.630734
0.749306
0.783543
0.819467
0.80541
0.807105
0.802869
0.799714
0.802394
0.802808
0.801699
0.798907
0.797874
0.797951
0.79767
0.79637
0.794569
0.793938
0.794757
0.795314
0.795121
0.794877
0.795021
0.793967
0.794654
0.149289
0.149288
0.149282
0.149258
0.149208
0.149172
0.149166
0.149168
0.149177
0.149193
0.149216
0.149247
0.149294
0.149351
0.149401
0.149445
0.149512
0.149603
0.149693
0.149788
0.149921
0.15005
0.15014
0.150225
0.150319
0.150414
0.150524
0.150681
0.150801
0.150809
0.150815
0.15082
0.150809
0.150771
0.15068
0.150577
0.150545
0.150505
0.150432
0.15043
0.150477
0.150533
0.150489
0.150418
0.150419
0.150485
0.150671
0.150903
0.151234
0.151744
0.152477
0.153431
0.154468
0.155455
0.156156
0.157032
0.158112
0.158571
0.158924
0.159768
0.162031
0.165072
0.167755
0.170468
0.172877
0.174998
0.177029
0.178889
0.181596
0.184969
0.188337
0.191197
0.193561
0.195005
0.19641
0.258988
0.428896
0.648468
0.782584
0.816612
0.855411
0.845742
0.845531
0.84149
0.835919
0.836539
0.836688
0.835375
0.831802
0.829423
0.828267
0.827823
0.826558
0.823404
0.820406
0.817841
0.815936
0.815594
0.815709
0.814051
0.149312
0.14934
0.149382
0.149424
0.149471
0.149528
0.149589
0.149654
0.149722
0.149794
0.149869
0.149943
0.150045
0.15019
0.1503
0.150397
0.150495
0.150577
0.150656
0.150737
0.150805
0.150856
0.150902
0.150953
0.151
0.151061
0.151155
0.151168
0.151141
0.151141
0.151145
0.151113
0.151029
0.150937
0.150851
0.150819
0.150825
0.150812
0.150751
0.150753
0.150663
0.150654
0.150726
0.150832
0.151066
0.151527
0.152306
0.153232
0.154324
0.155571
0.156971
0.158184
0.159253
0.160233
0.160718
0.161037
0.161948
0.163428
0.164857
0.166612
0.169512
0.172921
0.17644
0.178747
0.18063
0.182335
0.183668
0.186021
0.188886
0.192323
0.195098
0.197557
0.200538
0.202782
0.205516
0.208355
0.210028
0.267022
0.433511
0.662119
0.815553
0.851376
0.895849
0.891026
0.88612
0.878627
0.873501
0.874151
0.875306
0.873906
0.870428
0.866798
0.863429
0.860815
0.85861
0.856262
0.852797
0.849266
0.846418
0.841252
0.150244
0.150495
0.150791
0.151
0.151093
0.151134
0.151166
0.151198
0.151216
0.151228
0.151227
0.151225
0.151242
0.151292
0.151337
0.151368
0.151368
0.151363
0.151368
0.151397
0.151395
0.151365
0.151361
0.151379
0.151413
0.151461
0.15147
0.151393
0.151251
0.151239
0.151246
0.151211
0.151069
0.150921
0.150881
0.150901
0.15104
0.151202
0.151341
0.151618
0.152116
0.15286
0.153671
0.154613
0.155628
0.156786
0.158046
0.15936
0.160632
0.161659
0.162558
0.16324
0.163864
0.164705
0.165452
0.166438
0.168096
0.171005
0.174307
0.177797
0.180365
0.182659
0.184567
0.185885
0.187314
0.188779
0.191038
0.193842
0.197642
0.201006
0.203169
0.205347
0.2076
0.209392
0.211826
0.216135
0.221458
0.222147
0.223001
0.27553
0.442877
0.680784
0.85241
0.887778
0.932729
0.92989
0.926142
0.917795
0.913515
0.914914
0.916095
0.913847
0.909283
0.905562
0.902556
0.899811
0.8956
0.89035
0.887286
0.881769
0.152509
0.152518
0.152516
0.152512
0.152492
0.152423
0.152339
0.152295
0.152242
0.15215
0.152014
0.151873
0.151817
0.151826
0.151821
0.151817
0.151806
0.151748
0.151723
0.151727
0.151706
0.151637
0.151634
0.151658
0.151663
0.151707
0.151725
0.151678
0.151602
0.151615
0.151745
0.152013
0.152187
0.152385
0.152765
0.153423
0.154388
0.155484
0.156647
0.157834
0.159059
0.160218
0.161296
0.162306
0.16317
0.164012
0.164725
0.165431
0.166163
0.166825
0.167573
0.168516
0.169773
0.171497
0.174169
0.177156
0.18039
0.183138
0.185882
0.187855
0.189157
0.190338
0.191055
0.192264
0.193865
0.196782
0.200504
0.203671
0.206586
0.20914
0.210756
0.211749
0.213501
0.217405
0.221435
0.224825
0.22954
0.230463
0.231266
0.23373
0.236707
0.288315
0.456324
0.700399
0.887592
0.923359
0.970554
0.969614
0.965468
0.957879
0.953949
0.955774
0.956193
0.953656
0.948889
0.945081
0.94202
0.939431
0.936014
0.928581
0.151785
0.151763
0.151764
0.151802
0.151796
0.151786
0.151794
0.151759
0.151751
0.151763
0.151735
0.15173
0.151764
0.151873
0.15192
0.151954
0.152049
0.152129
0.152226
0.152387
0.152571
0.152775
0.15303
0.153394
0.153875
0.154439
0.15501
0.155621
0.156285
0.157008
0.157785
0.158617
0.159556
0.160582
0.161669
0.162695
0.163617
0.164398
0.165149
0.165937
0.166769
0.167563
0.168316
0.169007
0.169611
0.170244
0.17098
0.172015
0.173408
0.175258
0.177346
0.179899
0.182454
0.185099
0.187502
0.189729
0.191207
0.19231
0.193647
0.194304
0.195118
0.196127
0.198053
0.20081
0.204488
0.207782
0.211149
0.213812
0.214503
0.215864
0.217977
0.220268
0.223289
0.228193
0.232292
0.23296
0.234418
0.236669
0.239615
0.243797
0.247892
0.250374
0.252012
0.302315
0.476081
0.729536
0.925044
0.961053
1.00902
1.00698
1.00278
0.995891
0.992417
0.994115
0.995258
0.993015
0.988765
0.985313
0.982528
0.976676
0.153638
0.153896
0.154189
0.15448
0.154785
0.155121
0.155475
0.155874
0.156317
0.156745
0.157158
0.157624
0.158138
0.158613
0.159015
0.159394
0.159836
0.160367
0.160894
0.16134
0.161797
0.162302
0.16286
0.163442
0.164036
0.164646
0.165211
0.16577
0.166357
0.167028
0.167726
0.168428
0.169161
0.169887
0.170539
0.171123
0.171648
0.172196
0.172863
0.173626
0.174459
0.175359
0.176382
0.177638
0.179178
0.180907
0.182961
0.185
0.187099
0.189158
0.191148
0.192955
0.194522
0.195628
0.196493
0.197563
0.198086
0.198761
0.199921
0.201847
0.204083
0.207078
0.210375
0.213507
0.216507
0.218418
0.219696
0.221272
0.222074
0.223287
0.226339
0.23106
0.234679
0.237148
0.240203
0.240892
0.241571
0.244797
0.251397
0.255596
0.256922
0.259333
0.262882
0.265082
0.266746
0.322555
0.507293
0.766279
0.966799
0.997988
1.04431
1.04155
1.03831
1.03208
1.02994
1.03036
1.03148
1.03026
1.02746
1.02265
0.165485
0.165693
0.165914
0.166134
0.166365
0.16661
0.166864
0.167135
0.167411
0.167687
0.167963
0.16824
0.16852
0.168813
0.169136
0.16948
0.169826
0.170171
0.170532
0.170918
0.171327
0.171733
0.172144
0.172551
0.172979
0.173411
0.173896
0.174457
0.17508
0.17575
0.17645
0.177206
0.178011
0.178887
0.179861
0.180936
0.182133
0.183467
0.1848
0.186149
0.187454
0.188818
0.19027
0.191814
0.193403
0.194995
0.19643
0.197738
0.198872
0.199839
0.200674
0.201486
0.202513
0.203163
0.203961
0.205222
0.207121
0.20916
0.211626
0.214585
0.217747
0.220247
0.222589
0.224164
0.225128
0.226096
0.22682
0.228371
0.231418
0.234966
0.238027
0.241943
0.245138
0.245805
0.247389
0.250689
0.253971
0.257585
0.261045
0.263925
0.266585
0.269344
0.272109
0.275001
0.279236
0.282333
0.283964
0.346276
0.548182
0.811325
1.00925
1.03543
1.07883
1.07525
1.07247
1.06464
1.06597
1.06716
1.06652
1.06366
0.175483
0.175701
0.175966
0.17625
0.176543
0.176834
0.177119
0.177427
0.177774
0.178139
0.178524
0.178945
0.179373
0.179815
0.180288
0.180812
0.18138
0.181958
0.182557
0.183192
0.183853
0.184527
0.185224
0.185943
0.186703
0.187504
0.188291
0.189079
0.18991
0.190757
0.191597
0.192444
0.193377
0.194352
0.195349
0.196333
0.197354
0.198332
0.199244
0.200103
0.200936
0.201741
0.202535
0.203313
0.204093
0.20485
0.205655
0.206595
0.207322
0.208136
0.20903
0.210234
0.211837
0.213894
0.216052
0.218369
0.220886
0.223558
0.225671
0.227312
0.228959
0.229978
0.231078
0.232282
0.233182
0.234744
0.237519
0.240714
0.244393
0.248381
0.250499
0.252001
0.254009
0.255403
0.257012
0.259815
0.264725
0.268872
0.27082
0.273525
0.276955
0.279856
0.282268
0.285753
0.290413
0.29386
0.296772
0.298838
0.300623
0.377573
0.605399
0.86935
1.05186
1.07334
1.11077
1.10374
1.10455
1.09817
1.0998
1.10044
0.191205
0.19145
0.191709
0.191969
0.192256
0.192572
0.192903
0.19324
0.19356
0.193875
0.194219
0.194606
0.195004
0.195387
0.195767
0.19617
0.196593
0.197025
0.197477
0.197939
0.198393
0.198854
0.199317
0.199818
0.200334
0.200853
0.201371
0.201892
0.202404
0.202909
0.203426
0.203961
0.204496
0.205035
0.205591
0.206189
0.206814
0.207467
0.20817
0.208949
0.209776
0.21065
0.211608
0.21255
0.213655
0.214857
0.216277
0.217834
0.219606
0.22143
0.223409
0.225345
0.227229
0.229044
0.230799
0.232326
0.23369
0.235156
0.236237
0.23695
0.238055
0.239237
0.240417
0.242434
0.245387
0.248822
0.252093
0.255094
0.257152
0.259384
0.2612
0.26192
0.263417
0.266912
0.270395
0.274084
0.277478
0.280114
0.282441
0.284137
0.286468
0.289354
0.2929
0.29805
0.301663
0.304097
0.307162
0.310881
0.314861
0.317323
0.318968
0.416723
0.669958
0.934842
1.09089
1.11099
1.14313
1.13066
1.1339
1.13055
0.204025
0.204217
0.204432
0.204657
0.204888
0.205115
0.205338
0.205575
0.205851
0.206136
0.206408
0.206671
0.206965
0.207282
0.207609
0.207944
0.208301
0.208674
0.209064
0.209482
0.209927
0.210387
0.210889
0.211426
0.211989
0.212573
0.213189
0.213856
0.214567
0.215312
0.216085
0.216874
0.217684
0.218498
0.219333
0.220197
0.221086
0.222071
0.223119
0.224292
0.225547
0.226862
0.228181
0.229529
0.230805
0.232063
0.233243
0.234376
0.235553
0.236799
0.238056
0.239203
0.240074
0.240907
0.241887
0.242669
0.243429
0.244538
0.246106
0.247795
0.249865
0.252463
0.255661
0.258413
0.261142
0.263754
0.265625
0.267394
0.268254
0.269316
0.271564
0.274129
0.27716
0.280292
0.2842
0.287905
0.289478
0.291269
0.293015
0.295089
0.298247
0.30224
0.307454
0.311154
0.312913
0.315445
0.31913
0.322707
0.325734
0.328766
0.332826
0.334661
0.342918
0.469284
0.745049
1.00878
1.12911
1.14482
1.17329
1.16282
0.219478
0.219693
0.21991
0.22014
0.220402
0.220692
0.221007
0.221309
0.221591
0.221895
0.222242
0.222609
0.222979
0.223359
0.223752
0.224165
0.224605
0.225058
0.225513
0.225987
0.2265
0.227018
0.227533
0.228071
0.228642
0.229216
0.229823
0.230444
0.231088
0.23175
0.232422
0.233121
0.233832
0.234571
0.235318
0.236073
0.236861
0.23764
0.238443
0.239216
0.239977
0.240732
0.24149
0.242275
0.243033
0.243835
0.244542
0.245274
0.246115
0.247055
0.248097
0.249372
0.250528
0.251874
0.253683
0.255819
0.257914
0.260173
0.262535
0.265229
0.267737
0.269905
0.27201
0.273796
0.275097
0.276161
0.277206
0.278418
0.280204
0.282602
0.285215
0.289015
0.292676
0.295657
0.298232
0.29974
0.301736
0.303804
0.306699
0.310898
0.314685
0.31821
0.321149
0.322315
0.324561
0.327965
0.331306
0.334398
0.337583
0.340999
0.344372
0.347805
0.351654
0.353045
0.375451
0.540014
0.834991
1.07961
1.164
1.18261
0.235565
0.235745
0.235982
0.236248
0.236506
0.236755
0.23699
0.237217
0.237513
0.237846
0.238141
0.238415
0.238714
0.239035
0.239376
0.239735
0.240096
0.240448
0.240803
0.241187
0.241596
0.242014
0.242447
0.242894
0.243351
0.243825
0.244323
0.244833
0.245362
0.2459
0.246457
0.247034
0.247636
0.248284
0.248966
0.249682
0.250434
0.251205
0.252017
0.252855
0.253773
0.254767
0.25581
0.256932
0.258141
0.259444
0.260901
0.262399
0.263903
0.265414
0.266963
0.268606
0.270506
0.272463
0.27413
0.275765
0.277607
0.279144
0.280341
0.2815
0.282591
0.28367
0.284429
0.285701
0.286957
0.288354
0.290623
0.293332
0.29692
0.300359
0.303725
0.306526
0.308676
0.31096
0.312072
0.31364
0.315986
0.318809
0.322407
0.325523
0.328437
0.331022
0.332685
0.335406
0.339031
0.34258
0.345495
0.348295
0.351405
0.354384
0.35724
0.359928
0.362448
0.365583
0.367793
0.369213
0.414561
0.637671
0.941625
1.15495
0.253522
0.253746
0.253984
0.25421
0.254429
0.254643
0.25488
0.255166
0.255471
0.255764
0.256064
0.256388
0.25672
0.257057
0.257417
0.2578
0.258193
0.258593
0.259036
0.259504
0.259968
0.260442
0.260957
0.261495
0.262048
0.262617
0.263198
0.263803
0.264424
0.265071
0.265738
0.266429
0.26715
0.267889
0.268664
0.269478
0.27033
0.271214
0.272131
0.273097
0.274079
0.275069
0.276068
0.277082
0.278124
0.279149
0.280169
0.281244
0.282334
0.283425
0.284529
0.285529
0.286616
0.287687
0.288524
0.289319
0.29068
0.291703
0.292657
0.293969
0.295584
0.297559
0.299621
0.302234
0.305235
0.308669
0.311643
0.314501
0.316983
0.31899
0.320975
0.322053
0.323257
0.324496
0.326465
0.329287
0.332154
0.335533
0.338453
0.340828
0.343227
0.345353
0.348198
0.351265
0.353949
0.356273
0.358742
0.361443
0.363951
0.366374
0.368895
0.371449
0.374167
0.376633
0.378767
0.38108
0.382473
0.383436
0.456747
0.848008
0.273728
0.27388
0.27407
0.274304
0.274572
0.274841
0.275096
0.275341
0.275596
0.275891
0.276202
0.276506
0.276819
0.277144
0.277478
0.277827
0.278196
0.278572
0.27895
0.279337
0.279738
0.280157
0.280588
0.281043
0.281532
0.282047
0.282577
0.283126
0.283703
0.284303
0.284922
0.285559
0.286222
0.286905
0.287601
0.288303
0.289007
0.28973
0.290454
0.291203
0.291941
0.292679
0.293493
0.294324
0.295205
0.296087
0.296988
0.297979
0.299042
0.300194
0.301527
0.302872
0.304273
0.305883
0.307795
0.309614
0.311412
0.313359
0.315587
0.317808
0.320116
0.322296
0.324539
0.326449
0.328099
0.329707
0.330921
0.332086
0.33294
0.334029
0.335029
0.336539
0.338622
0.341157
0.344515
0.347748
0.350792
0.353269
0.355159
0.357127
0.358791
0.360821
0.362996
0.365154
0.367272
0.369561
0.372162
0.374569
0.376676
0.378598
0.380356
0.38221
0.383986
0.385651
0.387249
0.388802
0.390182
0.391721
0.392209
0.480208
0.296314
0.296507
0.296741
0.296977
0.297207
0.297427
0.29764
0.297897
0.298168
0.298437
0.298719
0.299034
0.299356
0.299685
0.300021
0.300362
0.300721
0.301113
0.301533
0.301948
0.302366
0.30282
0.303304
0.303794
0.304282
0.304777
0.305298
0.305839
0.306397
0.306968
0.307574