/*--------------------------------*- C++ -*----------------------------------*\
  =========                 |
  \\      /  F ield         | OpenFOAM: The Open Source CFD Toolbox
   \\    /   O peration     | Website:  https://openfoam.org
    \\  /    A nd           | Version:  7
     \\/     M anipulation  |
\*---------------------------------------------------------------------------*/
FoamFile
{
    version     2.0;
    format      ascii;
    class       volVectorField;
    location    "10";
    object      U;
}
// * * * * * * * * * * * * * * * * * * * * * * * * * * * * * * * * * * * * * //

dimensions      [0 1 -1 0 0 0 0];

internalField   nonuniform List<vector> 
90000
(
(3.12095 -0.829618 0)
(3.08782 -0.736394 0)
(3.06764 -0.695022 0)
(3.04842 -0.632422 0)
(3.03166 -0.550507 0)
(3.02483 -0.495075 0)
(3.02628 -0.479758 0)
(3.01307 -0.408172 0)
(3.0115 -0.37061 0)
(3.00901 -0.32583 0)
(3.01087 -0.30194 0)
(3.00395 -0.24709 0)
(3.007 -0.229574 0)
(3.00155 -0.180609 0)
(3.00425 -0.167641 0)
(2.99852 -0.121254 0)
(3.0014 -0.112558 0)
(2.99637 -0.0710624 0)
(2.99963 -0.0676514 0)
(2.99598 -0.0307094 0)
(2.99683 -0.0332467 0)
(2.99158 -0.00755054 0)
(2.99382 -0.0150058 0)
(2.9839 0.00035911 0)
(2.98104 0.0026077 0)
(2.97862 0.00827215 0)
(2.97484 0.0112825 0)
(2.97435 0.0115478 0)
(2.97397 0.0118477 0)
(2.9735 0.0118384 0)
(2.97277 0.012071 0)
(2.97225 0.0130071 0)
(2.97204 0.0142554 0)
(2.97146 0.0173925 0)
(2.97018 0.0203128 0)
(2.96854 0.0239625 0)
(2.96579 0.0283063 0)
(2.96169 0.0311386 0)
(2.96024 0.035456 0)
(2.95851 0.033273 0)
(2.95707 0.0315937 0)
(2.95471 0.0280276 0)
(2.95228 0.0228361 0)
(2.95125 0.0189378 0)
(2.95022 0.0139741 0)
(2.94983 0.0120883 0)
(2.94916 0.0093081 0)
(2.94865 0.00811203 0)
(2.94908 0.00939632 0)
(2.95039 0.0126692 0)
(2.95269 0.0184042 0)
(2.95488 0.0214671 0)
(2.95384 0.0242972 0)
(2.95288 0.0238641 0)
(2.95112 0.0223345 0)
(2.9487 0.0201561 0)
(2.94748 0.0174147 0)
(2.94656 0.0135396 0)
(2.94651 0.0128832 0)
(2.94722 0.0141404 0)
(2.94835 0.0163342 0)
(2.94961 0.020933 0)
(2.95023 0.0207185 0)
(2.94936 0.0202907 0)
(2.94745 0.0191178 0)
(2.94646 0.0172773 0)
(2.94592 0.0138931 0)
(2.94633 0.0144783 0)
(2.94745 0.0165286 0)
(2.94848 0.0190157 0)
(2.94839 0.0184661 0)
(2.94788 0.0168649 0)
(2.94709 0.0146954 0)
(2.94673 0.0146593 0)
(2.94712 0.0158603 0)
(2.94816 0.01758 0)
(2.94866 0.01891 0)
(2.94831 0.018019 0)
(2.94763 0.0165249 0)
(2.9477 0.0162328 0)
(2.94811 0.0173067 0)
(2.94855 0.0186917 0)
(2.94914 0.0192682 0)
(2.94915 0.0186914 0)
(2.949 0.01748 0)
(2.94916 0.0175409 0)
(2.94939 0.017938 0)
(2.94963 0.0179114 0)
(2.94998 0.0177407 0)
(2.95021 0.0180301 0)
(2.95051 0.0181596 0)
(2.95075 0.0178225 0)
(2.95097 0.0176081 0)
(2.95125 0.0176912 0)
(2.95145 0.0178992 0)
(2.9516 0.0178684 0)
(2.95172 0.0177451 0)
(2.95196 0.0179112 0)
(2.95222 0.0179762 0)
(2.95263 0.0181477 0)
(3.15013 -0.885992 0)
(3.15007 -0.885946 0)
(3.15 -0.885879 0)
(3.14991 -0.885779 0)
(3.14971 -0.885503 0)
(3.14942 -0.88479 0)
(3.14871 -0.883831 0)
(3.14728 -0.881526 0)
(3.14549 -0.877917 0)
(3.14313 -0.872246 0)
(3.14004 -0.864985 0)
(3.13568 -0.852386 0)
(3.13067 -0.838307 0)
(3.12398 -0.815281 0)
(3.1168 -0.792664 0)
(3.10678 -0.754024 0)
(3.09769 -0.721745 0)
(3.08415 -0.664372 0)
(3.074 -0.623354 0)
(3.05683 -0.545461 0)
(3.04826 -0.500524 0)
(3.02831 -0.407834 0)
(3.02293 -0.366128 0)
(3.00199 -0.269685 0)
(3.00233 -0.240084 0)
(2.98305 -0.155741 0)
(2.98609 -0.136606 0)
(2.9691 -0.0703032 0)
(2.97227 -0.0585927 0)
(2.95855 -0.010661 0)
(2.96139 -0.00366413 0)
(2.95278 0.0268188 0)
(2.95532 0.0318833 0)
(2.95024 0.049062 0)
(2.95077 0.0529116 0)
(2.94745 0.0613813 0)
(2.94646 0.0639854 0)
(2.94544 0.0611441 0)
(2.94468 0.055515 0)
(2.94434 0.0445811 0)
(2.9453 0.0311357 0)
(2.94659 0.0234621 0)
(2.94749 0.0179702 0)
(2.94777 0.0144044 0)
(2.94791 0.011548 0)
(2.9481 0.0101359 0)
(2.94824 0.0101162 0)
(2.94886 0.0129076 0)
(2.94962 0.0195802 0)
(2.95068 0.0266619 0)
(2.94747 0.0306373 0)
(2.94634 0.0304532 0)
(2.9453 0.0280482 0)
(2.94348 0.0239117 0)
(2.94182 0.0192245 0)
(2.93992 0.0140707 0)
(2.93968 0.0109939 0)
(2.93896 0.013661 0)
(2.93948 0.0163307 0)
(2.94166 0.0218544 0)
(2.94301 0.0250043 0)
(2.94268 0.0271951 0)
(2.94204 0.0261272 0)
(2.94071 0.0215629 0)
(2.93975 0.0157384 0)
(2.93894 0.0138978 0)
(2.93954 0.0146655 0)
(2.94097 0.0175229 0)
(2.94239 0.0208907 0)
(2.94247 0.0233607 0)
(2.94151 0.0219176 0)
(2.9401 0.019477 0)
(2.94007 0.0153347 0)
(2.94059 0.0153616 0)
(2.94148 0.0164734 0)
(2.94289 0.0194793 0)
(2.94249 0.0196222 0)
(2.94157 0.0189191 0)
(2.94103 0.0168732 0)
(2.94179 0.0160184 0)
(2.94236 0.0160079 0)
(2.94289 0.016687 0)
(2.943 0.0166814 0)
(2.94312 0.0170099 0)
(2.943 0.0173355 0)
(2.94324 0.0171017 0)
(2.94344 0.0169725 0)
(2.9438 0.016953 0)
(2.94415 0.0172411 0)
(2.94446 0.0173911 0)
(2.9447 0.0174825 0)
(2.94489 0.0174646 0)
(2.9451 0.0173475 0)
(2.94528 0.0176654 0)
(2.94546 0.0180273 0)
(2.94556 0.0181364 0)
(2.94578 0.0181323 0)
(2.94607 0.0185218 0)
(2.94638 0.0192602 0)
(2.94692 0.0188906 0)
(3.14665 -0.885016 0)
(3.14643 -0.884988 0)
(3.14622 -0.8849 0)
(3.14597 -0.884876 0)
(3.14573 -0.884787 0)
(3.14543 -0.884787 0)
(3.14517 -0.884656 0)
(3.14502 -0.88459 0)
(3.14486 -0.884496 0)
(3.14469 -0.884367 0)
(3.1445 -0.884236 0)
(3.1443 -0.884142 0)
(3.14408 -0.884047 0)
(3.14385 -0.883932 0)
(3.1436 -0.883838 0)
(3.14334 -0.883729 0)
(3.14307 -0.88367 0)
(3.14275 -0.883529 0)
(3.14232 -0.883104 0)
(3.14154 -0.881596 0)
(3.13984 -0.878756 0)
(3.13666 -0.871895 0)
(3.13217 -0.860878 0)
(3.12436 -0.838763 0)
(3.11511 -0.81114 0)
(3.10113 -0.762594 0)
(3.08844 -0.71723 0)
(3.06971 -0.638886 0)
(3.05765 -0.585724 0)
(3.03645 -0.486063 0)
(3.0292 -0.438918 0)
(3.00773 -0.333562 0)
(3.00637 -0.300504 0)
(2.98641 -0.204957 0)
(2.98744 -0.186703 0)
(2.97201 -0.113425 0)
(2.97242 -0.107743 0)
(2.96342 -0.0617817 0)
(2.96651 -0.0647548 0)
(2.95427 -0.0396408 0)
(2.95543 -0.0310414 0)
(2.94998 -0.017447 0)
(2.9511 -0.0132351 0)
(2.94836 -0.00657605 0)
(2.94781 0.000529714 0)
(2.94543 0.00576809 0)
(2.94114 0.016145 0)
(2.93602 0.0248778 0)
(2.93679 0.0351608 0)
(2.93513 0.0342856 0)
(2.93121 0.0314509 0)
(2.92878 0.0254957 0)
(2.92821 0.018383 0)
(2.92817 0.0119751 0)
(2.93013 0.00725424 0)
(2.93103 0.00767553 0)
(2.93203 0.0079499 0)
(2.93507 0.0138753 0)
(2.93601 0.0180287 0)
(2.93752 0.024594 0)
(2.9378 0.0250529 0)
(2.93745 0.0244418 0)
(2.93565 0.0195335 0)
(2.93459 0.0168085 0)
(2.93484 0.0122478 0)
(2.93509 0.0123084 0)
(2.93689 0.0158278 0)
(2.93845 0.0190796 0)
(2.9393 0.0211694 0)
(2.93896 0.0209313 0)
(2.93744 0.0171801 0)
(2.93603 0.0151997 0)
(2.9368 0.014974 0)
(2.93799 0.0170419 0)
(2.93895 0.0192691 0)
(2.93898 0.0192528 0)
(2.93878 0.018106 0)
(2.93813 0.015819 0)
(2.93787 0.015736 0)
(2.93818 0.0170589 0)
(2.939 0.019405 0)
(2.93898 0.019194 0)
(2.93875 0.0179806 0)
(2.93901 0.0164718 0)
(2.93883 0.0170425 0)
(2.93903 0.0178497 0)
(2.93922 0.0176879 0)
(2.93959 0.0174685 0)
(2.93979 0.0177815 0)
(2.94007 0.0182343 0)
(2.94012 0.0179018 0)
(2.94017 0.0174902 0)
(2.94031 0.0175885 0)
(2.94044 0.0177583 0)
(2.9406 0.0178223 0)
(2.94061 0.017667 0)
(2.94098 0.0177086 0)
(2.94127 0.0179439 0)
(2.94163 0.0180873 0)
(2.94218 0.0183007 0)
(3.142 -0.88365 0)
(3.1418 -0.88362 0)
(3.1416 -0.883556 0)
(3.14138 -0.883518 0)
(3.14117 -0.883446 0)
(3.14094 -0.883416 0)
(3.14073 -0.883333 0)
(3.14049 -0.883311 0)
(3.14027 -0.883231 0)
(3.14003 -0.883227 0)
(3.13981 -0.883139 0)
(3.13957 -0.883138 0)
(3.13936 -0.883049 0)
(3.13912 -0.883064 0)
(3.13892 -0.882966 0)
(3.13869 -0.882976 0)
(3.13851 -0.88287 0)
(3.13829 -0.882911 0)
(3.13815 -0.882795 0)
(3.13783 -0.882851 0)
(3.13775 -0.882745 0)
(3.13769 -0.882623 0)
(3.13764 -0.882549 0)
(3.1376 -0.882445 0)
(3.13754 -0.882453 0)
(3.1375 -0.882337 0)
(3.13744 -0.882392 0)
(3.1373 -0.882108 0)
(3.13687 -0.880977 0)
(3.13538 -0.876832 0)
(3.13248 -0.868195 0)
(3.12581 -0.847452 0)
(3.11696 -0.818313 0)
(3.1013 -0.761036 0)
(3.08691 -0.705648 0)
(3.06272 -0.602265 0)
(3.04974 -0.535688 0)
(3.01902 -0.39911 0)
(3.0162 -0.342046 0)
(2.98363 -0.205822 0)
(2.9894 -0.169836 0)
(2.95989 -0.0667859 0)
(2.96542 -0.0443617 0)
(2.94321 0.0182869 0)
(2.94445 0.0366382 0)
(2.93164 0.0658133 0)
(2.92758 0.0798632 0)
(2.92428 0.0755397 0)
(2.92413 0.056488 0)
(2.92373 0.0345556 0)
(2.92723 0.0244641 0)
(2.92723 0.0181819 0)
(2.92527 0.0134976 0)
(2.92553 0.012739 0)
(2.92638 0.0122028 0)
(2.92781 0.0121433 0)
(2.93307 0.0210333 0)
(2.93445 0.0243455 0)
(2.9354 0.0283085 0)
(2.93454 0.0277008 0)
(2.93281 0.0233294 0)
(2.93122 0.01788 0)
(2.93094 0.010132 0)
(2.93111 0.0121028 0)
(2.93202 0.0130233 0)
(2.93503 0.0184819 0)
(2.93599 0.0202267 0)
(2.93766 0.0236495 0)
(2.93709 0.0222031 0)
(2.93554 0.0178637 0)
(2.93447 0.0126896 0)
(2.93478 0.0133843 0)
(2.93584 0.0162329 0)
(2.93643 0.0194899 0)
(2.93758 0.020313 0)
(2.93718 0.0193659 0)
(2.93657 0.0166189 0)
(2.936 0.0140101 0)
(2.93625 0.0152171 0)
(2.93635 0.0172267 0)
(2.93726 0.0182803 0)
(2.93716 0.0181087 0)
(2.93704 0.0172148 0)
(2.93677 0.0167914 0)
(2.93709 0.0169565 0)
(2.93714 0.017201 0)
(2.93706 0.0172904 0)
(2.93719 0.0173223 0)
(2.93737 0.0175114 0)
(2.93742 0.0177224 0)
(2.9373 0.017667 0)
(2.93729 0.017314 0)
(2.93745 0.0174427 0)
(2.93759 0.0177454 0)
(2.93775 0.0178907 0)
(2.9377 0.017959 0)
(2.9382 0.0181765 0)
(2.93843 0.01866 0)
(2.93879 0.0190351 0)
(2.939 0.0183319 0)
(3.1384 -0.882717 0)
(3.13831 -0.882682 0)
(3.13821 -0.882673 0)
(3.13811 -0.882637 0)
(3.13801 -0.882622 0)
(3.13792 -0.882584 0)
(3.13783 -0.882566 0)
(3.13774 -0.882518 0)
(3.13765 -0.882509 0)
(3.13757 -0.882469 0)
(3.1375 -0.882458 0)
(3.13743 -0.882442 0)
(3.13736 -0.88244 0)
(3.13731 -0.8824 0)
(3.13725 -0.882405 0)
(3.13721 -0.882379 0)
(3.13717 -0.882366 0)
(3.13713 -0.882354 0)
(3.13711 -0.882348 0)
(3.1371 -0.882345 0)
(3.13709 -0.882325 0)
(3.13709 -0.882341 0)
(3.13711 -0.882328 0)
(3.13713 -0.882319 0)
(3.13716 -0.88234 0)
(3.13719 -0.882375 0)
(3.13724 -0.882394 0)
(3.13729 -0.882423 0)
(3.13734 -0.882434 0)
(3.13739 -0.88239 0)
(3.13744 -0.88241 0)
(3.1375 -0.882373 0)
(3.13755 -0.882435 0)
(3.13764 -0.882387 0)
(3.13768 -0.882478 0)
(3.13756 -0.881805 0)
(3.13672 -0.87888 0)
(3.133 -0.868049 0)
(3.12625 -0.84562 0)
(3.11181 -0.796704 0)
(3.09646 -0.734687 0)
(3.07206 -0.629409 0)
(3.05704 -0.54703 0)
(3.03055 -0.411889 0)
(3.0242 -0.347123 0)
(3.00125 -0.228044 0)
(3.00104 -0.187008 0)
(2.98161 -0.115914 0)
(2.98873 -0.0908921 0)
(2.96226 -0.0427636 0)
(2.96265 -0.0295035 0)
(2.9519 -0.0104179 0)
(2.94736 0.000618261 0)
(2.94579 0.01175 0)
(2.9424 0.0224037 0)
(2.93729 0.0301544 0)
(2.93635 0.0391627 0)
(2.93383 0.0368234 0)
(2.93053 0.0294519 0)
(2.92806 0.018892 0)
(2.92623 0.00993977 0)
(2.92624 0.00179398 0)
(2.92746 0.00329025 0)
(2.93107 0.0107112 0)
(2.93412 0.0188957 0)
(2.93496 0.0240294 0)
(2.93618 0.0256189 0)
(2.93542 0.0227731 0)
(2.93317 0.0166854 0)
(2.93077 0.00868356 0)
(2.93146 0.00964712 0)
(2.93382 0.0147354 0)
(2.93457 0.0193119 0)
(2.93631 0.023203 0)
(2.9359 0.0212208 0)
(2.93488 0.0170721 0)
(2.9336 0.0124427 0)
(2.93429 0.0142098 0)
(2.93487 0.0166306 0)
(2.93588 0.0195905 0)
(2.93587 0.0189304 0)
(2.93534 0.0166755 0)
(2.93559 0.0161452 0)
(2.93582 0.016784 0)
(2.93627 0.0173369 0)
(2.93621 0.0172652 0)
(2.93603 0.0172718 0)
(2.93614 0.0174678 0)
(2.93646 0.0178716 0)
(2.93644 0.0178413 0)
(2.93624 0.0174861 0)
(2.93625 0.0173459 0)
(2.93647 0.0175692 0)
(2.93671 0.0177372 0)
(2.93679 0.0177401 0)
(2.93678 0.0176656 0)
(2.93711 0.0179579 0)
(2.93743 0.0182673 0)
(2.93754 0.0185555 0)
(2.93747 0.0183891 0)
(3.13695 -0.882453 0)
(3.13693 -0.882459 0)
(3.13693 -0.88245 0)
(3.13691 -0.88246 0)
(3.13691 -0.882458 0)
(3.13691 -0.882459 0)
(3.13691 -0.882473 0)
(3.13691 -0.882466 0)
(3.13692 -0.882472 0)
(3.13693 -0.882483 0)
(3.13694 -0.882494 0)
(3.13697 -0.882496 0)
(3.13699 -0.88251 0)
(3.13702 -0.882508 0)
(3.13705 -0.882507 0)
(3.13708 -0.882513 0)
(3.13712 -0.882516 0)
(3.13717 -0.882516 0)
(3.13721 -0.882541 0)
(3.13727 -0.882539 0)
(3.13732 -0.882573 0)
(3.13738 -0.88259 0)
(3.13744 -0.882613 0)
(3.1375 -0.882615 0)
(3.13756 -0.88263 0)
(3.13764 -0.882624 0)
(3.1377 -0.882663 0)
(3.13777 -0.882681 0)
(3.13785 -0.882699 0)
(3.13793 -0.882704 0)
(3.138 -0.882744 0)
(3.13809 -0.88274 0)
(3.13816 -0.882793 0)
(3.13825 -0.882778 0)
(3.13832 -0.882861 0)
(3.13838 -0.882822 0)
(3.13842 -0.882824 0)
(3.13847 -0.882808 0)
(3.1385 -0.882859 0)
(3.13854 -0.882833 0)
(3.13855 -0.882935 0)
(3.13841 -0.882375 0)
(3.13739 -0.879038 0)
(3.1328 -0.863658 0)
(3.12424 -0.832624 0)
(3.105 -0.753753 0)
(3.08894 -0.672938 0)
(3.05164 -0.498284 0)
(3.04935 -0.412339 0)
(3.00666 -0.221178 0)
(3.01624 -0.180541 0)
(2.97763 -0.0470941 0)
(2.98069 -0.0288799 0)
(2.95684 0.0370179 0)
(2.94579 0.0479969 0)
(2.94436 0.0651344 0)
(2.93656 0.0527982 0)
(2.93196 0.0335318 0)
(2.93337 0.0256763 0)
(2.92883 0.0119584 0)
(2.92881 0.010687 0)
(2.92925 0.00913283 0)
(2.93245 0.0134579 0)
(2.93687 0.023795 0)
(2.93669 0.0294157 0)
(2.93553 0.0280987 0)
(2.9336 0.0224353 0)
(2.93153 0.0157425 0)
(2.92951 0.0102645 0)
(2.92982 0.0109348 0)
(2.9318 0.0149414 0)
(2.93439 0.0202761 0)
(2.93554 0.0245228 0)
(2.93466 0.0221204 0)
(2.93284 0.0176262 0)
(2.9318 0.0124504 0)
(2.93232 0.013988 0)
(2.93384 0.0167571 0)
(2.93495 0.0200042 0)
(2.93484 0.0196001 0)
(2.93402 0.0178309 0)
(2.93348 0.0161438 0)
(2.93383 0.0168517 0)
(2.93463 0.0176949 0)
(2.93477 0.0176498 0)
(2.93478 0.0170076 0)
(2.93498 0.0171514 0)
(2.93536 0.0178116 0)
(2.93581 0.0184071 0)
(2.93574 0.0178209 0)
(2.93568 0.016988 0)
(2.93584 0.0172244 0)
(2.93613 0.017894 0)
(2.93622 0.0179469 0)
(2.93626 0.0174984 0)
(2.93643 0.0176424 0)
(2.93664 0.0180318 0)
(2.93698 0.018505 0)
(2.937 0.0186382 0)
(2.93684 0.0181924 0)
(3.1371 -0.882506 0)
(3.13713 -0.882514 0)
(3.13716 -0.882516 0)
(3.13719 -0.882523 0)
(3.13722 -0.882527 0)
(3.13726 -0.88253 0)
(3.1373 -0.882531 0)
(3.13734 -0.882547 0)
(3.13738 -0.88256 0)
(3.13743 -0.882575 0)
(3.13747 -0.882578 0)
(3.13752 -0.882602 0)
(3.13757 -0.882599 0)
(3.13761 -0.882616 0)
(3.13766 -0.88262 0)
(3.13771 -0.882637 0)
(3.13776 -0.882646 0)
(3.13781 -0.882658 0)
(3.13786 -0.882659 0)
(3.13792 -0.882676 0)
(3.13798 -0.882672 0)
(3.13803 -0.88269 0)
(3.13809 -0.882695 0)
(3.13814 -0.882711 0)
(3.13818 -0.882743 0)
(3.13823 -0.882764 0)
(3.13829 -0.882759 0)
(3.13834 -0.882796 0)
(3.1384 -0.882799 0)
(3.13845 -0.882816 0)
(3.1385 -0.882833 0)
(3.13855 -0.882868 0)
(3.1386 -0.882898 0)
(3.13865 -0.88292 0)
(3.1387 -0.882908 0)
(3.13873 -0.882931 0)
(3.13876 -0.882932 0)
(3.13877 -0.882969 0)
(3.13878 -0.882975 0)
(3.13876 -0.88301 0)
(3.13875 -0.883056 0)
(3.13877 -0.883026 0)
(3.1388 -0.882996 0)
(3.13881 -0.882983 0)
(3.13883 -0.882965 0)
(3.13884 -0.882937 0)
(3.13879 -0.882733 0)
(3.13743 -0.878744 0)
(3.13307 -0.863133 0)
(3.11855 -0.811322 0)
(3.10205 -0.731976 0)
(3.07175 -0.586015 0)
(3.05924 -0.48468 0)
(3.02322 -0.299693 0)
(3.0217 -0.249593 0)
(2.98943 -0.113938 0)
(2.99604 -0.103069 0)
(2.96313 -0.0473611 0)
(2.96513 -0.0288337 0)
(2.94991 -0.00918233 0)
(2.9501 0.00812344 0)
(2.9446 0.0212946 0)
(2.93783 0.0356406 0)
(2.93672 0.0386747 0)
(2.93305 0.0337747 0)
(2.9285 0.0186246 0)
(2.929 0.00943574 0)
(2.92807 0.00215215 0)
(2.92857 0.00527394 0)
(2.93221 0.0150911 0)
(2.9348 0.0217184 0)
(2.93587 0.0255125 0)
(2.93474 0.0228813 0)
(2.9317 0.0163601 0)
(2.93005 0.00954127 0)
(2.93081 0.0121022 0)
(2.93267 0.0166167 0)
(2.93455 0.0208447 0)
(2.93441 0.0198864 0)
(2.93347 0.0171874 0)
(2.93257 0.0146891 0)
(2.93309 0.0155338 0)
(2.93378 0.017597 0)
(2.93404 0.0176719 0)
(2.93373 0.0169267 0)
(2.93395 0.0165667 0)
(2.93438 0.0172011 0)
(2.93493 0.0182149 0)
(2.93496 0.0178998 0)
(2.93489 0.0169506 0)
(2.93502 0.0170467 0)
(2.93525 0.0177383 0)
(2.93559 0.0180567 0)
(2.93553 0.0177058 0)
(2.93563 0.017448 0)
(2.9358 0.0176657 0)
(2.93598 0.0183851 0)
(2.93625 0.0187052 0)
(2.93628 0.0185805 0)
(2.93615 0.0177967 0)
(3.13785 -0.882664 0)
(3.13787 -0.882669 0)
(3.1379 -0.882677 0)
(3.13794 -0.882683 0)
(3.13797 -0.882694 0)
(3.138 -0.882703 0)
(3.13803 -0.882719 0)
(3.13807 -0.882724 0)
(3.1381 -0.882734 0)
(3.13814 -0.882749 0)
(3.13817 -0.882751 0)
(3.13821 -0.882746 0)
(3.13824 -0.882744 0)
(3.13828 -0.88274 0)
(3.13831 -0.882745 0)
(3.13835 -0.882742 0)
(3.13838 -0.882746 0)
(3.13842 -0.882754 0)
(3.13845 -0.882771 0)
(3.13848 -0.882777 0)
(3.13851 -0.882801 0)
(3.13854 -0.882807 0)
(3.13857 -0.882818 0)
(3.13859 -0.882827 0)
(3.13862 -0.882839 0)
(3.13864 -0.882869 0)
(3.13866 -0.882882 0)
(3.13869 -0.882904 0)
(3.13871 -0.882927 0)
(3.13874 -0.882923 0)
(3.13876 -0.882946 0)
(3.13878 -0.882958 0)
(3.13881 -0.882957 0)
(3.13883 -0.882986 0)
(3.13884 -0.882988 0)
(3.13886 -0.882958 0)
(3.13886 -0.88296 0)
(3.13885 -0.882963 0)
(3.13884 -0.88295 0)
(3.13881 -0.882956 0)
(3.1388 -0.882971 0)
(3.13881 -0.88298 0)
(3.13883 -0.882989 0)
(3.13885 -0.882972 0)
(3.13887 -0.882967 0)
(3.1389 -0.882938 0)
(3.13891 -0.882977 0)
(3.13891 -0.882955 0)
(3.1389 -0.882956 0)
(3.13891 -0.882886 0)
(3.1389 -0.882953 0)
(3.1384 -0.881206 0)
(3.1356 -0.870935 0)
(3.12277 -0.82406 0)
(3.10649 -0.745643 0)
(3.06355 -0.561113 0)
(3.05701 -0.441202 0)
(3.00283 -0.211287 0)
(3.00898 -0.142525 0)
(2.96897 -0.0163747 0)
(2.97116 0.0229454 0)
(2.94479 0.0717639 0)
(2.93959 0.0695584 0)
(2.93255 0.0447491 0)
(2.93354 0.0280279 0)
(2.93023 0.00961708 0)
(2.93069 0.00870236 0)
(2.93116 0.008294 0)
(2.93547 0.018126 0)
(2.93891 0.0317312 0)
(2.93836 0.029615 0)
(2.93597 0.0245645 0)
(2.93254 0.0167246 0)
(2.93019 0.0115171 0)
(2.93059 0.0120624 0)
(2.93352 0.0179793 0)
(2.93596 0.0231536 0)
(2.93549 0.0219166 0)
(2.93412 0.0182989 0)
(2.93335 0.0157938 0)
(2.93373 0.016228 0)
(2.93486 0.0172529 0)
(2.93511 0.0184676 0)
(2.93487 0.0178047 0)
(2.93442 0.016807 0)
(2.93464 0.0167989 0)
(2.93519 0.0178138 0)
(2.93531 0.0183626 0)
(2.93503 0.0177114 0)
(2.93481 0.0169847 0)
(2.93497 0.0174436 0)
(2.93516 0.0178685 0)
(2.93531 0.017693 0)
(2.93523 0.0173485 0)
(2.93524 0.0174262 0)
(2.93537 0.017939 0)
(2.93547 0.0183503 0)
(2.93551 0.0183983 0)
(2.93552 0.0183132 0)
(2.9354 0.0177475 0)
(3.13849 -0.882748 0)
(3.13851 -0.882751 0)
(3.13853 -0.882752 0)
(3.13854 -0.882755 0)
(3.13856 -0.88276 0)
(3.13858 -0.882762 0)
(3.1386 -0.882753 0)
(3.13862 -0.882751 0)
(3.13864 -0.882751 0)
(3.13866 -0.882761 0)
(3.13867 -0.882769 0)
(3.13869 -0.882774 0)
(3.1387 -0.882781 0)
(3.13872 -0.882792 0)
(3.13874 -0.882793 0)
(3.13875 -0.882794 0)
(3.13877 -0.882794 0)
(3.13878 -0.882788 0)
(3.13879 -0.8828 0)
(3.13881 -0.882801 0)
(3.13882 -0.882809 0)
(3.13882 -0.882833 0)
(3.13882 -0.882836 0)
(3.13882 -0.882858 0)
(3.13881 -0.882882 0)
(3.13882 -0.882889 0)
(3.13882 -0.882907 0)
(3.13883 -0.88292 0)
(3.13883 -0.882922 0)
(3.13884 -0.882919 0)
(3.13885 -0.882925 0)
(3.13886 -0.882944 0)
(3.13887 -0.882952 0)
(3.13888 -0.882931 0)
(3.13889 -0.882923 0)
(3.1389 -0.882918 0)
(3.13891 -0.882898 0)
(3.1389 -0.882877 0)
(3.13888 -0.882878 0)
(3.13886 -0.882889 0)
(3.13886 -0.882886 0)
(3.13887 -0.882884 0)
(3.1389 -0.882871 0)
(3.13892 -0.882876 0)
(3.13895 -0.882882 0)
(3.13897 -0.8829 0)
(3.13898 -0.882913 0)
(3.13897 -0.882985 0)
(3.13898 -0.883032 0)
(3.13901 -0.883011 0)
(3.13906 -0.88306 0)
(3.13911 -0.883034 0)
(3.13914 -0.883036 0)
(3.13921 -0.883006 0)
(3.1392 -0.88314 0)
(3.13856 -0.881153 0)
(3.13474 -0.866235 0)
(3.11769 -0.807288 0)
(3.09323 -0.682262 0)
(3.06627 -0.536769 0)
(3.03228 -0.343167 0)
(3.01634 -0.22863 0)
(2.9949 -0.132373 0)
(2.97339 -0.0757297 0)
(2.9749 -0.041021 0)
(2.95619 -0.0139343 0)
(2.95152 0.0068113 0)
(2.94176 0.024644 0)
(2.93766 0.0376456 0)
(2.93454 0.034051 0)
(2.93243 0.0214636 0)
(2.93044 0.0103495 0)
(2.9285 0.00172031 0)
(2.92992 0.00560502 0)
(2.93382 0.0157514 0)
(2.93727 0.0235296 0)
(2.93729 0.0234377 0)
(2.9357 0.0191643 0)
(2.93382 0.0127178 0)
(2.93429 0.0131083 0)
(2.93574 0.01581 0)
(2.93666 0.0186351 0)
(2.9364 0.0179827 0)
(2.93569 0.0162344 0)
(2.93535 0.0160161 0)
(2.93562 0.017498 0)
(2.93609 0.0184666 0)
(2.93585 0.0178762 0)
(2.93516 0.016773 0)
(2.93506 0.0167457 0)
(2.9352 0.017388 0)
(2.93531 0.0182734 0)
(2.93521 0.0180264 0)
(2.93496 0.0174764 0)
(2.93498 0.017485 0)
(2.93513 0.0179528 0)
(2.93526 0.0184252 0)
(2.93519 0.0184585 0)
(2.93504 0.0181481 0)
(2.93476 0.0174026 0)
(3.13884 -0.882878 0)
(3.13885 -0.882881 0)
(3.13886 -0.882885 0)
(3.13886 -0.882889 0)
(3.13887 -0.882896 0)
(3.13888 -0.8829 0)
(3.13889 -0.882903 0)
(3.13889 -0.882904 0)
(3.1389 -0.882907 0)
(3.13891 -0.882904 0)
(3.13891 -0.882912 0)
(3.13891 -0.882912 0)
(3.13892 -0.882916 0)
(3.13892 -0.882925 0)
(3.13892 -0.882931 0)
(3.13892 -0.882948 0)
(3.13892 -0.882952 0)
(3.13891 -0.882959 0)
(3.1389 -0.882978 0)
(3.13889 -0.882976 0)
(3.13888 -0.882986 0)
(3.13886 -0.883007 0)
(3.13885 -0.882996 0)
(3.13884 -0.883003 0)
(3.13883 -0.88302 0)
(3.13883 -0.883014 0)
(3.13882 -0.883019 0)
(3.13882 -0.883029 0)
(3.13882 -0.883029 0)
(3.13882 -0.883012 0)
(3.13884 -0.882995 0)
(3.13886 -0.882985 0)
(3.13888 -0.882985 0)
(3.13891 -0.882979 0)
(3.13892 -0.882959 0)
(3.13894 -0.882931 0)
(3.13896 -0.882917 0)
(3.13897 -0.882894 0)
(3.13897 -0.882869 0)
(3.13896 -0.882863 0)
(3.13896 -0.882881 0)
(3.13897 -0.882902 0)
(3.139 -0.882919 0)
(3.13902 -0.882947 0)
(3.13904 -0.883001 0)
(3.13906 -0.883044 0)
(3.13909 -0.88308 0)
(3.13907 -0.883191 0)
(3.13909 -0.883255 0)
(3.13914 -0.883254 0)
(3.13923 -0.883221 0)
(3.13929 -0.883206 0)
(3.13939 -0.883176 0)
(3.13946 -0.88315 0)
(3.13951 -0.883189 0)
(3.13955 -0.883277 0)
(3.13963 -0.883331 0)
(3.13969 -0.883385 0)
(3.13973 -0.883278 0)
(3.13812 -0.877241 0)
(3.12721 -0.838041 0)
(3.10494 -0.73555 0)
(3.0634 -0.539407 0)
(3.02005 -0.313332 0)
(3.01654 -0.18272 0)
(2.97782 -0.0348759 0)
(2.9609 0.0452688 0)
(2.95107 0.0880993 0)
(2.93827 0.0693417 0)
(2.93777 0.0325253 0)
(2.93606 0.0147894 0)
(2.93129 0.00833842 0)
(2.9319 0.00769288 0)
(2.93952 0.0189191 0)
(2.94205 0.029602 0)
(2.94119 0.028226 0)
(2.93799 0.0216402 0)
(2.93507 0.0144396 0)
(2.93477 0.0136161 0)
(2.93635 0.0152222 0)
(2.93791 0.0195287 0)
(2.93749 0.0193772 0)
(2.93648 0.0178911 0)
(2.9352 0.0159782 0)
(2.93546 0.016628 0)
(2.93629 0.0193452 0)
(2.9361 0.0188623 0)
(2.9356 0.0175618 0)
(2.93475 0.0162165 0)
(2.935 0.0170073 0)
(2.93513 0.0185031 0)
(2.93512 0.017929 0)
(2.93469 0.0172385 0)
(2.93455 0.0171685 0)
(2.93473 0.017847 0)
(2.93495 0.0185142 0)
(2.93499 0.0184722 0)
(2.93484 0.0182743 0)
(2.93458 0.0180068 0)
(2.93419 0.0173092 0)
(3.13898 -0.882927 0)
(3.13898 -0.882922 0)
(3.13898 -0.882929 0)
(3.13898 -0.882927 0)
(3.13898 -0.882928 0)
(3.13897 -0.882935 0)
(3.13897 -0.882931 0)
(3.13897 -0.88294 0)
(3.13896 -0.882943 0)
(3.13896 -0.882943 0)
(3.13895 -0.882957 0)
(3.13894 -0.882968 0)
(3.13893 -0.882984 0)
(3.13893 -0.882985 0)
(3.13893 -0.882979 0)
(3.13891 -0.882997 0)
(3.1389 -0.883004 0)
(3.13889 -0.883 0)
(3.13887 -0.883011 0)
(3.13886 -0.883007 0)
(3.13884 -0.883005 0)
(3.13882 -0.883022 0)
(3.13881 -0.883038 0)
(3.13881 -0.883025 0)
(3.13882 -0.883007 0)
(3.13882 -0.883001 0)
(3.13883 -0.882996 0)
(3.13885 -0.882988 0)
(3.13886 -0.882985 0)
(3.13888 -0.882972 0)
(3.13891 -0.882965 0)
(3.13893 -0.882955 0)
(3.13896 -0.882946 0)
(3.139 -0.882936 0)
(3.13904 -0.882924 0)
(3.13906 -0.882893 0)
(3.13909 -0.882875 0)
(3.13912 -0.882857 0)
(3.13914 -0.882843 0)
(3.13914 -0.882836 0)
(3.13915 -0.882841 0)
(3.13917 -0.882881 0)
(3.13921 -0.882903 0)
(3.13924 -0.882954 0)
(3.13924 -0.883054 0)
(3.13926 -0.88311 0)
(3.13928 -0.883175 0)
(3.13926 -0.883309 0)
(3.13931 -0.88336 0)
(3.13939 -0.883339 0)
(3.13942 -0.883333 0)
(3.1395 -0.88329 0)
(3.13962 -0.883211 0)
(3.13969 -0.883174 0)
(3.13974 -0.88318 0)
(3.13978 -0.883217 0)
(3.13986 -0.883274 0)
(3.13992 -0.883335 0)
(3.13993 -0.883419 0)
(3.13996 -0.883463 0)
(3.14002 -0.883465 0)
(3.14007 -0.88346 0)
(3.13881 -0.879182 0)
(3.12907 -0.845933 0)
(3.10455 -0.732802 0)
(3.0745 -0.576764 0)
(3.03055 -0.343953 0)
(3.0295 -0.222282 0)
(2.9893 -0.107853 0)
(2.99048 -0.0679601 0)
(2.96468 -0.0241257 0)
(2.95578 0.00341354 0)
(2.94982 0.0227266 0)
(2.94627 0.0326936 0)
(2.94188 0.0298605 0)
(2.93517 0.0195541 0)
(2.93231 0.00614627 0)
(2.93296 0.00783656 0)
(2.93533 0.0129916 0)
(2.93892 0.0198399 0)
(2.93723 0.0207823 0)
(2.93585 0.0180543 0)
(2.93413 0.0149003 0)
(2.93426 0.0154249 0)
(2.93537 0.0183489 0)
(2.93561 0.0200721 0)
(2.93509 0.0185394 0)
(2.93413 0.0160427 0)
(2.93422 0.0162068 0)
(2.93496 0.0178932 0)
(2.9349 0.0191576 0)
(2.93448 0.0182003 0)
(2.93401 0.0171359 0)
(2.93415 0.0173554 0)
(2.9346 0.0182176 0)
(2.93472 0.0185212 0)
(2.93456 0.0183696 0)
(2.93432 0.0180726 0)
(2.93399 0.017556 0)
(2.93368 0.0171001 0)
(3.13892 -0.883013 0)
(3.13892 -0.88301 0)
(3.13892 -0.883008 0)
(3.13891 -0.883015 0)
(3.13892 -0.883008 0)
(3.13891 -0.88301 0)
(3.13891 -0.883014 0)
(3.13891 -0.883004 0)
(3.13891 -0.883005 0)
(3.13891 -0.883008 0)
(3.13891 -0.883002 0)
(3.13891 -0.883 0)
(3.13892 -0.883005 0)
(3.13892 -0.883006 0)
(3.13892 -0.882996 0)
(3.13892 -0.88299 0)
(3.13891 -0.88301 0)
(3.13891 -0.883022 0)
(3.1389 -0.88301 0)
(3.13889 -0.883006 0)
(3.13888 -0.883027 0)
(3.13888 -0.883038 0)
(3.13888 -0.883037 0)
(3.13889 -0.883025 0)
(3.1389 -0.883011 0)
(3.13892 -0.883008 0)
(3.13895 -0.882988 0)
(3.13898 -0.882974 0)
(3.139 -0.882976 0)
(3.13902 -0.882969 0)
(3.13908 -0.88297 0)
(3.13911 -0.882971 0)
(3.13914 -0.882972 0)
(3.13918 -0.88297 0)
(3.13922 -0.882947 0)
(3.13925 -0.882935 0)
(3.13928 -0.882945 0)
(3.13931 -0.882946 0)
(3.13933 -0.882939 0)
(3.13936 -0.882916 0)
(3.13936 -0.882967 0)
(3.13938 -0.883014 0)
(3.13944 -0.88302 0)
(3.13944 -0.883121 0)
(3.13946 -0.883189 0)
(3.1395 -0.883204 0)
(3.13946 -0.883335 0)
(3.13951 -0.883422 0)
(3.13955 -0.883433 0)
(3.13958 -0.883435 0)
(3.13964 -0.883432 0)
(3.13971 -0.883373 0)
(3.13979 -0.883257 0)
(3.13986 -0.883187 0)
(3.13992 -0.883174 0)
(3.13996 -0.883187 0)
(3.13998 -0.883221 0)
(3.14002 -0.883288 0)
(3.14006 -0.883358 0)
(3.14004 -0.883443 0)
(3.14006 -0.883516 0)
(3.14015 -0.88354 0)
(3.1402 -0.883529 0)
(3.14028 -0.883454 0)
(3.14029 -0.88345 0)
(3.13922 -0.87938 0)
(3.12692 -0.833483 0)
(3.1068 -0.720475 0)
(3.04154 -0.424005 0)
(3.05391 -0.300709 0)
(2.98213 -0.026149 0)
(2.96995 0.000813948 0)
(2.96759 0.0831925 0)
(2.94268 0.0570636 0)
(2.93574 0.0269561 0)
(2.93417 0.0126027 0)
(2.93381 0.010268 0)
(2.93463 0.0114866 0)
(2.94202 0.0275137 0)
(2.93639 0.0258125 0)
(2.93377 0.0209995 0)
(2.93198 0.0142597 0)
(2.93207 0.0141519 0)
(2.93393 0.0179419 0)
(2.93518 0.0220331 0)
(2.93455 0.0203642 0)
(2.93359 0.0168286 0)
(2.93288 0.0149436 0)
(2.93389 0.0169733 0)
(2.93469 0.019427 0)
(2.9344 0.0188737 0)
(2.93361 0.0171184 0)
(2.93357 0.0168566 0)
(2.93408 0.0178906 0)
(2.9344 0.0188169 0)
(2.93425 0.0186889 0)
(2.93402 0.0182319 0)
(2.93386 0.0178265 0)
(2.93361 0.0173377 0)
(2.93341 0.0169501 0)
(3.13892 -0.882988 0)
(3.13893 -0.882987 0)
(3.13894 -0.882985 0)
(3.13896 -0.88298 0)
(3.13897 -0.882975 0)
(3.13897 -0.88297 0)
(3.13898 -0.882965 0)
(3.139 -0.882957 0)
(3.13901 -0.882954 0)
(3.13903 -0.882949 0)
(3.13905 -0.882952 0)
(3.13907 -0.882953 0)
(3.13908 -0.882949 0)
(3.1391 -0.882933 0)
(3.13911 -0.882917 0)
(3.13912 -0.882915 0)
(3.13913 -0.882913 0)
(3.13915 -0.882906 0)
(3.13915 -0.882904 0)
(3.13915 -0.882911 0)
(3.13915 -0.88292 0)
(3.13915 -0.882927 0)
(3.13916 -0.882929 0)
(3.13918 -0.882925 0)
(3.13918 -0.882924 0)
(3.1392 -0.882928 0)
(3.13923 -0.882929 0)
(3.13926 -0.88292 0)
(3.13928 -0.882912 0)
(3.1393 -0.882917 0)
(3.13935 -0.882938 0)
(3.13938 -0.882948 0)
(3.1394 -0.882956 0)
(3.13942 -0.882966 0)
(3.13944 -0.882966 0)
(3.13948 -0.882958 0)
(3.13949 -0.882988 0)
(3.13949 -0.883044 0)
(3.13951 -0.88305 0)
(3.13953 -0.883048 0)
(3.13955 -0.883099 0)
(3.1396 -0.883095 0)
(3.13966 -0.8831 0)
(3.13969 -0.883161 0)
(3.13973 -0.883191 0)
(3.13976 -0.883227 0)
(3.13979 -0.883334 0)
(3.13979 -0.883385 0)
(3.1398 -0.883399 0)
(3.13984 -0.883412 0)
(3.13989 -0.883418 0)
(3.13991 -0.883361 0)
(3.13994 -0.883235 0)
(3.13999 -0.883149 0)
(3.14005 -0.883132 0)
(3.14008 -0.883138 0)
(3.14012 -0.883165 0)
(3.14016 -0.883221 0)
(3.14014 -0.883311 0)
(3.14008 -0.883403 0)
(3.1401 -0.883474 0)
(3.14019 -0.88351 0)
(3.14024 -0.883508 0)
(3.14036 -0.883451 0)
(3.14042 -0.883397 0)
(3.14039 -0.883407 0)
(3.14036 -0.883423 0)
(3.14039 -0.883442 0)
(3.13674 -0.871915 0)
(3.12347 -0.809835 0)
(3.08389 -0.62096 0)
(3.06202 -0.448242 0)
(3.01008 -0.175444 0)
(3.01882 -0.136508 0)
(2.9684 -0.0482173 0)
(2.95806 -0.0170067 0)
(2.95391 0.00348939 0)
(2.9371 0.0281368 0)
(2.93604 0.0310358 0)
(2.92992 0.0244353 0)
(2.92665 0.00889203 0)
(2.92794 0.00925324 0)
(2.93154 0.0145464 0)
(2.93454 0.0215849 0)
(2.93437 0.021545 0)
(2.93215 0.0159049 0)
(2.93123 0.0131904 0)
(2.93227 0.0148202 0)
(2.93426 0.0198749 0)
(2.93425 0.0196217 0)
(2.93335 0.0172702 0)
(2.93302 0.0160578 0)
(2.93339 0.0169772 0)
(2.93402 0.0187517 0)
(2.93398 0.018807 0)
(2.93378 0.0183561 0)
(2.93367 0.0179 0)
(2.93358 0.0175121 0)
(2.9334 0.0169364 0)
(2.93326 0.0167434 0)
(3.13913 -0.88296 0)
(3.13914 -0.882957 0)
(3.13916 -0.882951 0)
(3.13918 -0.882938 0)
(3.13919 -0.882918 0)
(3.13921 -0.882907 0)
(3.13923 -0.882903 0)
(3.13925 -0.882895 0)
(3.13926 -0.882893 0)
(3.1393 -0.882893 0)
(3.13933 -0.8829 0)
(3.13935 -0.8829 0)
(3.13936 -0.882894 0)
(3.13938 -0.882886 0)
(3.1394 -0.882878 0)
(3.13943 -0.882874 0)
(3.13945 -0.88287 0)
(3.13947 -0.882852 0)
(3.13948 -0.882845 0)
(3.13949 -0.88285 0)
(3.13949 -0.882859 0)
(3.1395 -0.882874 0)
(3.13951 -0.882894 0)
(3.13952 -0.882901 0)
(3.13952 -0.8829 0)
(3.13953 -0.882908 0)
(3.13955 -0.882928 0)
(3.13956 -0.882942 0)
(3.13958 -0.882946 0)
(3.13959 -0.882972 0)
(3.13961 -0.883014 0)
(3.13962 -0.883033 0)
(3.13962 -0.883047 0)
(3.13962 -0.88308 0)
(3.13963 -0.883083 0)
(3.13965 -0.883062 0)
(3.13963 -0.883121 0)
(3.13962 -0.883165 0)
(3.13963 -0.883182 0)
(3.13965 -0.883207 0)
(3.1397 -0.883194 0)
(3.13976 -0.883199 0)
(3.13982 -0.88321 0)
(3.13988 -0.883201 0)
(3.13994 -0.883198 0)