/*--------------------------------*- C++ -*----------------------------------*\
  =========                 |
  \\      /  F ield         | OpenFOAM: The Open Source CFD Toolbox
   \\    /   O peration     | Website:  https://openfoam.org
    \\  /    A nd           | Version:  7
     \\/     M anipulation  |
\*---------------------------------------------------------------------------*/
FoamFile
{
    version     2.0;
    format      ascii;
    class       volVectorField;
    location    "9";
    object      U;
}
// * * * * * * * * * * * * * * * * * * * * * * * * * * * * * * * * * * * * * //

dimensions      [0 1 -1 0 0 0 0];

internalField   nonuniform List<vector> 
90000
(
(5.00778 -0.141702 0)
(5.00698 -0.133902 0)
(5.00755 -0.125954 0)
(5.01025 -0.121799 0)
(5.00663 -0.111983 0)
(5.0062 -0.107339 0)
(5.00661 -0.105707 0)
(5.00551 -0.100813 0)
(5.00361 -0.0955873 0)
(5.00245 -0.0942541 0)
(5.00087 -0.0917979 0)
(4.99936 -0.0890673 0)
(4.99791 -0.0867398 0)
(4.99631 -0.0846881 0)
(4.9946 -0.0829237 0)
(4.99296 -0.0809653 0)
(4.99161 -0.0797159 0)
(4.99014 -0.0773632 0)
(4.98892 -0.0749827 0)
(4.98785 -0.0740034 0)
(4.98673 -0.0718799 0)
(4.98563 -0.0694414 0)
(4.98448 -0.065479 0)
(4.98392 -0.0646098 0)
(4.98278 -0.0592831 0)
(4.98242 -0.0576831 0)
(4.98171 -0.0518943 0)
(4.9817 -0.0506216 0)
(4.98117 -0.04447 0)
(4.98118 -0.042264 0)
(4.98073 -0.0359047 0)
(4.98056 -0.031833 0)
(4.9805 -0.028325 0)
(4.97972 -0.0200336 0)
(4.98003 -0.0200741 0)
(4.97877 -0.011114 0)
(4.97852 -0.00861642 0)
(4.97778 -0.00375034 0)
(4.97714 0.000149225 0)
(4.97675 0.00372755 0)
(4.97593 0.00900493 0)
(4.97556 0.00981303 0)
(4.97447 0.0128991 0)
(4.97286 0.0130848 0)
(4.97249 0.0106191 0)
(4.97082 0.0065385 0)
(4.97037 -0.00458057 0)
(4.96972 -0.0124496 0)
(4.97037 -0.0260416 0)
(4.96912 -0.0310112 0)
(4.96678 -0.0389489 0)
(4.96547 -0.0399068 0)
(4.96333 -0.0402134 0)
(4.96034 -0.0376953 0)
(4.95733 -0.0334992 0)
(4.9543 -0.0273098 0)
(4.95206 -0.0219735 0)
(4.95151 -0.0181307 0)
(4.94982 -0.0140503 0)
(4.9514 -0.00698483 0)
(4.95157 -0.00551247 0)
(4.95267 -0.00770245 0)
(4.95335 -0.00995802 0)
(4.95547 -0.0183344 0)
(4.95477 -0.0203846 0)
(4.95722 -0.0251041 0)
(4.95711 -0.0258241 0)
(4.95626 -0.0242443 0)
(4.95469 -0.0204101 0)
(4.9538 -0.0165385 0)
(4.95227 -0.00638983 0)
(4.95248 -0.00432655 0)
(4.9533 -0.00649171 0)
(4.95432 -0.00992163 0)
(4.95534 -0.0134215 0)
(4.95742 -0.0184643 0)
(4.95759 -0.019343 0)
(4.9572 -0.0168381 0)
(4.95717 -0.014523 0)
(4.95637 -0.00892547 0)
(4.95689 -0.0112229 0)
(4.95687 -0.0123975 0)
(4.9571 -0.0157921 0)
(4.95813 -0.0139321 0)
(4.95823 -0.0137781 0)
(4.95816 -0.0132858 0)
(4.95816 -0.0117231 0)
(4.95832 -0.0120764 0)
(4.95891 -0.0126755 0)
(4.95965 -0.0129044 0)
(4.95985 -0.0123482 0)
(4.95981 -0.0115921 0)
(4.95992 -0.011818 0)
(4.95998 -0.0128357 0)
(4.9606 -0.0138363 0)
(4.96087 -0.0140674 0)
(4.96104 -0.0127379 0)
(4.96111 -0.0121646 0)
(4.96111 -0.0128334 0)
(4.96126 -0.0135639 0)
(5.00676 -0.147061 0)
(5.00672 -0.147131 0)
(5.00662 -0.147203 0)
(5.00646 -0.147363 0)
(5.00624 -0.147314 0)
(5.00599 -0.147244 0)
(5.00579 -0.146854 0)
(5.00547 -0.146056 0)
(5.00502 -0.144408 0)
(5.00445 -0.142698 0)
(5.00395 -0.141151 0)
(5.00358 -0.138899 0)
(5.00341 -0.136726 0)
(5.00306 -0.134274 0)
(5.00265 -0.132435 0)
(5.00213 -0.129571 0)
(5.00184 -0.12784 0)
(5.00136 -0.125564 0)
(5.00078 -0.122645 0)
(5.00025 -0.1208 0)
(4.99975 -0.11869 0)
(4.999 -0.116017 0)
(4.99821 -0.113265 0)
(4.9975 -0.112775 0)
(4.99634 -0.109402 0)
(4.99529 -0.107806 0)
(4.99402 -0.104334 0)
(4.9928 -0.102687 0)
(4.9912 -0.0988761 0)
(4.98949 -0.0956622 0)
(4.98753 -0.0916629 0)
(4.98541 -0.0861538 0)
(4.98352 -0.08257 0)
(4.98107 -0.0737836 0)
(4.98011 -0.0712761 0)
(4.97744 -0.058925 0)
(4.9774 -0.0577073 0)
(4.97501 -0.0450842 0)
(4.9745 -0.0415133 0)
(4.97399 -0.0351945 0)
(4.97308 -0.0261981 0)
(4.97481 -0.0249154 0)
(4.97218 -0.0154374 0)
(4.97451 -0.010825 0)
(4.97244 -0.00467971 0)
(4.97209 0.00031075 0)
(4.97069 0.00519631 0)
(4.97081 0.00686652 0)
(4.97112 0.00552294 0)
(4.97179 0.00251087 0)
(4.97235 -0.00230884 0)
(4.97281 -0.00814675 0)
(4.97339 -0.0178046 0)
(4.97235 -0.019714 0)
(4.97098 -0.0230349 0)
(4.97067 -0.0228603 0)
(4.97054 -0.0209873 0)
(4.97015 -0.018974 0)
(4.96933 -0.0166969 0)
(4.96792 -0.0129807 0)
(4.9671 -0.00928959 0)
(4.96668 -0.00478512 0)
(4.96616 -0.00417836 0)
(4.9662 -0.0059934 0)
(4.96663 -0.0116618 0)
(4.96731 -0.016545 0)
(4.96848 -0.0232508 0)
(4.96834 -0.0255727 0)
(4.96773 -0.0238617 0)
(4.96723 -0.0193649 0)
(4.96645 -0.0153364 0)
(4.96499 -0.00916317 0)
(4.9642 -0.00353823 0)
(4.96413 -0.00495151 0)
(4.96443 -0.0100819 0)
(4.96466 -0.0124216 0)
(4.96522 -0.0203993 0)
(4.96587 -0.0172135 0)
(4.96555 -0.0150408 0)
(4.96469 -0.0125989 0)
(4.96485 -0.00863281 0)
(4.96367 -0.00937112 0)
(4.96332 -0.0112631 0)
(4.96296 -0.0147396 0)
(4.9635 -0.0165617 0)
(4.96337 -0.0150177 0)
(4.96321 -0.0125931 0)
(4.96312 -0.0105934 0)
(4.9632 -0.0116027 0)
(4.96355 -0.0134237 0)
(4.96359 -0.0141834 0)
(4.96358 -0.0138965 0)
(4.96349 -0.0123396 0)
(4.96348 -0.0123418 0)
(4.96356 -0.013036 0)
(4.96388 -0.0143582 0)
(4.9639 -0.0145693 0)
(4.96397 -0.0137575 0)
(4.96403 -0.0124664 0)
(4.96414 -0.0126374 0)
(5.00454 -0.148137 0)
(5.00454 -0.148124 0)
(5.00452 -0.148026 0)
(5.00452 -0.147969 0)
(5.00461 -0.148137 0)
(5.00462 -0.148233 0)
(5.00463 -0.148312 0)
(5.00462 -0.148284 0)
(5.00461 -0.148427 0)
(5.00459 -0.148393 0)
(5.0044 -0.148056 0)
(5.00425 -0.147759 0)
(5.00411 -0.147349 0)
(5.00398 -0.146927 0)
(5.00385 -0.146483 0)
(5.00363 -0.145725 0)
(5.00347 -0.145296 0)
(5.00319 -0.144185 0)
(5.00295 -0.142982 0)
(5.00278 -0.141732 0)
(5.00244 -0.140458 0)
(5.00197 -0.138749 0)
(5.00143 -0.136808 0)
(5.00097 -0.135536 0)
(5.00035 -0.133508 0)
(4.99965 -0.130421 0)
(4.99917 -0.128337 0)
(4.99856 -0.125342 0)
(4.99791 -0.122774 0)
(4.99701 -0.119225 0)
(4.99625 -0.11623 0)
(4.99514 -0.111652 0)
(4.99425 -0.10886 0)
(4.99254 -0.102313 0)
(4.99163 -0.0998214 0)
(4.98932 -0.0905964 0)
(4.98835 -0.087852 0)
(4.98557 -0.0765647 0)
(4.98443 -0.0734461 0)
(4.98153 -0.061476 0)
(4.97944 -0.0546298 0)
(4.97812 -0.0481726 0)
(4.9751 -0.0336651 0)
(4.97479 -0.0320455 0)
(4.97292 -0.0221869 0)
(4.97165 -0.0140619 0)
(4.97295 -0.0161312 0)
(4.97005 -0.00760499 0)
(4.97017 -0.0072996 0)
(4.96945 -0.00390459 0)
(4.96958 -0.00215576 0)
(4.96938 -0.00467541 0)
(4.97 -0.00654402 0)
(4.97083 -0.00804075 0)
(4.97252 -0.0114951 0)
(4.97465 -0.0149245 0)
(4.97704 -0.0191155 0)
(4.97828 -0.0219957 0)
(4.97911 -0.0229446 0)
(4.97834 -0.0221955 0)
(4.97692 -0.0205616 0)
(4.9753 -0.0181591 0)
(4.97418 -0.0155496 0)
(4.97351 -0.0119712 0)
(4.973 -0.00883313 0)
(4.97295 -0.00849072 0)
(4.9733 -0.00993399 0)
(4.97418 -0.0132659 0)
(4.97497 -0.0158793 0)
(4.97648 -0.0192259 0)
(4.97638 -0.0184914 0)
(4.97516 -0.0164538 0)
(4.97378 -0.0142808 0)
(4.97273 -0.00761079 0)
(4.97188 -0.00426939 0)
(4.9718 -0.00462312 0)
(4.97248 -0.00972372 0)
(4.97229 -0.0122322 0)
(4.97344 -0.0192244 0)
(4.97285 -0.0188665 0)
(4.97171 -0.016698 0)
(4.97061 -0.0117411 0)
(4.96983 -0.00898302 0)
(4.96971 -0.0113029 0)
(4.96981 -0.013955 0)
(4.9698 -0.015909 0)
(4.96949 -0.0146963 0)
(4.96912 -0.0125511 0)
(4.96881 -0.0105609 0)
(4.96885 -0.0118763 0)
(4.9688 -0.0133308 0)
(4.96865 -0.0127936 0)
(4.96845 -0.0115977 0)
(4.96819 -0.0120204 0)
(4.96818 -0.0126945 0)
(4.96829 -0.0146623 0)
(4.9684 -0.0139294 0)
(4.96829 -0.0134164 0)
(4.96817 -0.0128124 0)
(4.96816 -0.0131703 0)
(5.00182 -0.145943 0)
(5.00178 -0.146083 0)
(5.00166 -0.146343 0)
(5.00162 -0.146461 0)
(5.00162 -0.146474 0)
(5.00163 -0.146433 0)
(5.00163 -0.146377 0)
(5.00167 -0.146565 0)
(5.00174 -0.146766 0)
(5.00171 -0.14692 0)
(5.00173 -0.146987 0)
(5.00171 -0.147127 0)
(5.00166 -0.147342 0)
(5.0017 -0.147465 0)
(5.00174 -0.147522 0)
(5.00171 -0.147621 0)
(5.00162 -0.147983 0)
(5.00151 -0.147888 0)
(5.00143 -0.147665 0)
(5.00128 -0.148184 0)
(5.00112 -0.147841 0)
(5.0011 -0.147504 0)
(5.00107 -0.147506 0)
(5.00101 -0.147614 0)
(5.00087 -0.14747 0)
(5.00066 -0.146927 0)
(5.00049 -0.146635 0)
(5.00027 -0.145987 0)
(5.00003 -0.145442 0)
(4.9998 -0.144557 0)
(4.9994 -0.143522 0)
(4.99895 -0.142262 0)
(4.99846 -0.140655 0)
(4.99797 -0.138982 0)
(4.99745 -0.136518 0)
(4.99693 -0.133871 0)
(4.9963 -0.130432 0)
(4.99541 -0.126127 0)
(4.99457 -0.122011 0)
(4.9933 -0.115578 0)
(4.99223 -0.1103 0)
(4.9905 -0.101635 0)
(4.98894 -0.0944846 0)
(4.98683 -0.0846039 0)
(4.98471 -0.0758418 0)
(4.98214 -0.0636405 0)
(4.98089 -0.0598662 0)
(4.97734 -0.0410245 0)
(4.9771 -0.0434272 0)
(4.9744 -0.03275 0)
(4.97465 -0.029938 0)
(4.97387 -0.0246765 0)
(4.97312 -0.0185111 0)
(4.97191 -0.0163984 0)
(4.97274 -0.0138039 0)
(4.97299 -0.0116238 0)
(4.97339 -0.0110478 0)
(4.97396 -0.0101368 0)
(4.9752 -0.0122808 0)
(4.97531 -0.0127195 0)
(4.97547 -0.0155011 0)
(4.97539 -0.0180423 0)
(4.97521 -0.0188762 0)
(4.97487 -0.0201668 0)
(4.97431 -0.0179872 0)
(4.97389 -0.0136885 0)
(4.97342 -0.0115576 0)
(4.97382 -0.00845381 0)
(4.97449 -0.00835801 0)
(4.97638 -0.0124841 0)
(4.97664 -0.01481 0)
(4.97784 -0.019492 0)
(4.97757 -0.0198636 0)
(4.97603 -0.0165936 0)
(4.97565 -0.0134265 0)
(4.97479 -0.0077348 0)
(4.97461 -0.00626161 0)
(4.97482 -0.00776342 0)
(4.97532 -0.0111829 0)
(4.97614 -0.0156242 0)
(4.97549 -0.0170636 0)
(4.97484 -0.016077 0)
(4.97415 -0.0135105 0)
(4.9734 -0.00943432 0)
(4.97342 -0.00995954 0)
(4.97368 -0.0121672 0)
(4.97387 -0.0153438 0)
(4.97362 -0.0147873 0)
(4.97319 -0.0134048 0)
(4.97282 -0.0107325 0)
(4.97277 -0.0120057 0)
(4.97271 -0.0141175 0)
(4.97251 -0.0138239 0)
(4.97239 -0.0126934 0)
(4.97222 -0.0118993 0)
(4.97228 -0.0126364 0)
(4.97238 -0.0142349 0)
(4.97228 -0.0140199 0)
(4.97214 -0.0130822 0)
(4.9719 -0.0123397 0)
(5.00012 -0.147056 0)
(5.00004 -0.14724 0)
(4.99989 -0.147506 0)
(4.99984 -0.147669 0)
(4.99974 -0.147827 0)
(4.99972 -0.147984 0)
(4.99975 -0.148052 0)
(4.99976 -0.14806 0)
(4.99975 -0.148091 0)
(4.99974 -0.148229 0)
(4.99977 -0.148339 0)
(4.99979 -0.148415 0)
(4.99986 -0.148482 0)
(4.99989 -0.148431 0)
(4.9999 -0.148487 0)
(4.9997 -0.148945 0)
(4.99963 -0.149087 0)
(4.99966 -0.149396 0)
(4.99972 -0.149528 0)
(4.9998 -0.149493 0)
(4.99974 -0.149691 0)
(4.99958 -0.150135 0)
(4.99963 -0.150318 0)
(4.99968 -0.150452 0)
(4.99967 -0.150674 0)
(4.9996 -0.150716 0)
(4.9995 -0.150921 0)
(4.99937 -0.15071 0)
(4.99925 -0.150518 0)
(4.99908 -0.150886 0)
(4.99895 -0.150358 0)
(4.99902 -0.150147 0)
(4.99904 -0.150177 0)
(4.99901 -0.150126 0)
(4.99893 -0.150033 0)
(4.99879 -0.149537 0)
(4.99862 -0.148873 0)
(4.9985 -0.147849 0)
(4.99841 -0.146502 0)
(4.99822 -0.144559 0)
(4.99801 -0.142534 0)
(4.99729 -0.138368 0)
(4.99676 -0.135215 0)
(4.99534 -0.127203 0)
(4.99463 -0.123305 0)
(4.99215 -0.110309 0)
(4.99126 -0.105466 0)
(4.98729 -0.0861009 0)
(4.9871 -0.0824586 0)
(4.98202 -0.0570402 0)
(4.98254 -0.0567605 0)
(4.97829 -0.0331337 0)
(4.97865 -0.0345249 0)
(4.97488 -0.0172779 0)
(4.97497 -0.0192534 0)
(4.97319 -0.0115164 0)
(4.9723 -0.0102202 0)
(4.97193 -0.0080233 0)
(4.97166 -0.0098558 0)
(4.97188 -0.0107329 0)
(4.9725 -0.0141303 0)
(4.97293 -0.0153267 0)
(4.97357 -0.0155042 0)
(4.97391 -0.0170904 0)
(4.97449 -0.015644 0)
(4.9744 -0.01397 0)
(4.97468 -0.0113223 0)
(4.97452 -0.010976 0)
(4.97446 -0.00985127 0)
(4.97445 -0.0101138 0)
(4.97466 -0.0110095 0)
(4.97518 -0.0127197 0)
(4.97591 -0.0151413 0)
(4.97632 -0.0161943 0)
(4.97606 -0.0153284 0)
(4.97518 -0.013197 0)
(4.97528 -0.0127276 0)
(4.97475 -0.0102248 0)
(4.97502 -0.0100206 0)
(4.97548 -0.01133 0)
(4.97586 -0.0134926 0)
(4.97606 -0.0165939 0)
(4.97579 -0.0165631 0)
(4.97486 -0.0146049 0)
(4.97473 -0.0120276 0)
(4.97486 -0.0106504 0)
(4.97524 -0.0116993 0)
(4.97547 -0.0133291 0)
(4.97541 -0.0143059 0)
(4.97515 -0.0137777 0)
(4.97492 -0.0112415 0)
(4.97495 -0.0117105 0)
(4.97489 -0.0127797 0)
(4.97507 -0.0138493 0)
(4.97494 -0.0132607 0)
(4.97491 -0.0131636 0)
(4.97498 -0.0137723 0)
(4.97498 -0.0144501 0)
(4.97489 -0.0140101 0)
(4.97466 -0.013182 0)
(4.99955 -0.147339 0)
(4.99958 -0.147442 0)
(4.9996 -0.147584 0)
(4.99959 -0.147635 0)
(4.9996 -0.147721 0)
(4.99961 -0.147746 0)
(4.99964 -0.147673 0)
(4.99951 -0.147792 0)
(4.99947 -0.148047 0)
(4.99959 -0.148384 0)
(4.99961 -0.148738 0)
(4.99959 -0.148825 0)
(4.99966 -0.148804 0)
(4.99968 -0.148744 0)
(4.99962 -0.14886 0)
(4.99951 -0.149209 0)
(4.99948 -0.149336 0)
(4.9996 -0.149516 0)
(4.99964 -0.149516 0)
(4.99973 -0.149466 0)
(4.99971 -0.149694 0)
(4.99964 -0.149912 0)
(4.99962 -0.149951 0)
(4.99968 -0.150183 0)
(4.99974 -0.150358 0)
(4.99978 -0.150428 0)
(4.99967 -0.150701 0)
(4.99957 -0.150843 0)
(4.99949 -0.151059 0)
(4.99957 -0.151317 0)
(4.99963 -0.151359 0)
(4.9996 -0.15151 0)
(4.99948 -0.151782 0)
(4.9995 -0.151927 0)
(4.99953 -0.152034 0)
(4.99934 -0.152301 0)
(4.99946 -0.152399 0)
(4.99966 -0.152292 0)
(4.99982 -0.152129 0)
(4.99996 -0.151929 0)
(5.00008 -0.151787 0)
(5.00023 -0.151225 0)
(5.00033 -0.150313 0)
(5.00036 -0.149389 0)
(5.00003 -0.14773 0)
(4.99951 -0.145717 0)
(4.99863 -0.141675 0)
(4.99762 -0.137207 0)
(4.99632 -0.130099 0)
(4.99427 -0.119654 0)
(4.99326 -0.113116 0)
(4.9896 -0.0928776 0)
(4.98878 -0.0874556 0)
(4.98508 -0.0669185 0)
(4.98409 -0.0614815 0)
(4.98085 -0.0421029 0)
(4.97984 -0.0412047 0)
(4.97849 -0.0361644 0)
(4.97813 -0.0304358 0)
(4.97636 -0.0245388 0)
(4.97666 -0.0197794 0)
(4.97622 -0.0178625 0)
(4.97573 -0.0157743 0)
(4.97507 -0.0130995 0)
(4.97486 -0.0116553 0)
(4.9749 -0.0118964 0)
(4.97468 -0.0125879 0)
(4.97448 -0.0135172 0)
(4.9743 -0.0149744 0)
(4.97378 -0.0138713 0)
(4.97397 -0.0124585 0)
(4.97399 -0.011874 0)
(4.97446 -0.0120358 0)
(4.97457 -0.0121167 0)
(4.9755 -0.0154382 0)
(4.97571 -0.0164983 0)
(4.97538 -0.0157763 0)
(4.97496 -0.014547 0)
(4.97529 -0.0128502 0)
(4.97531 -0.0117382 0)
(4.97528 -0.0117113 0)
(4.97562 -0.0129672 0)
(4.97599 -0.0152721 0)
(4.97617 -0.0154169 0)
(4.97577 -0.0143616 0)
(4.97578 -0.0132985 0)
(4.97568 -0.011988 0)
(4.97596 -0.012196 0)
(4.9763 -0.013015 0)
(4.97631 -0.0139855 0)
(4.9761 -0.0136853 0)
(4.97607 -0.0124119 0)
(4.97619 -0.0118759 0)
(4.97641 -0.0124366 0)
(4.97646 -0.0131954 0)
(4.97642 -0.0131682 0)
(4.97643 -0.0132134 0)
(4.97655 -0.0137587 0)
(4.97658 -0.0137363 0)
(4.97645 -0.0132668 0)
(5.00078 -0.146602 0)
(5.00086 -0.146894 0)
(5.00087 -0.147315 0)
(5.00089 -0.147453 0)
(5.00089 -0.147432 0)
(5.00088 -0.147461 0)
(5.00069 -0.147654 0)
(5.00061 -0.147786 0)
(5.00063 -0.148037 0)
(5.00074 -0.148167 0)
(5.0008 -0.148121 0)
(5.00076 -0.147936 0)
(5.00078 -0.147807 0)
(5.00083 -0.147639 0)
(5.00077 -0.147683 0)
(5.00082 -0.147983 0)
(5.00089 -0.148129 0)
(5.00094 -0.14819 0)
(5.00105 -0.148523 0)
(5.0011 -0.148731 0)
(5.00115 -0.149005 0)
(5.00109 -0.149204 0)
(5.00099 -0.149361 0)
(5.00099 -0.149686 0)
(5.00099 -0.149817 0)
(5.00092 -0.149817 0)
(5.00081 -0.149733 0)
(5.00081 -0.149708 0)
(5.00086 -0.149763 0)
(5.00098 -0.149987 0)
(5.00104 -0.150139 0)
(5.00101 -0.150215 0)
(5.00096 -0.150489 0)
(5.00102 -0.150852 0)
(5.0011 -0.151085 0)
(5.00107 -0.151238 0)
(5.00106 -0.151315 0)
(5.0011 -0.151351 0)
(5.0013 -0.151436 0)
(5.0016 -0.151443 0)
(5.00167 -0.151448 0)
(5.00189 -0.151447 0)
(5.0021 -0.151235 0)
(5.0022 -0.151152 0)
(5.00229 -0.151052 0)
(5.00235 -0.150904 0)
(5.00229 -0.15054 0)
(5.00224 -0.149965 0)
(5.00214 -0.148794 0)
(5.00182 -0.147138 0)
(5.00112 -0.143904 0)
(5.00003 -0.138916 0)
(4.99879 -0.132124 0)
(4.99645 -0.120174 0)
(4.99461 -0.109981 0)
(4.99142 -0.0936188 0)
(4.98904 -0.0772142 0)
(4.98596 -0.0573175 0)
(4.98549 -0.0479909 0)
(4.98135 -0.024064 0)
(4.98467 -0.0264065 0)
(4.97934 -0.0102867 0)
(4.97847 -0.00622456 0)
(4.97733 -0.00172105 0)
(4.97547 -0.00548814 0)
(4.97497 -0.0103365 0)
(4.97432 -0.0133076 0)
(4.97451 -0.0150747 0)
(4.97485 -0.0150725 0)
(4.97507 -0.0139786 0)
(4.97507 -0.0126469 0)
(4.97567 -0.0104851 0)
(4.97549 -0.0109434 0)
(4.97517 -0.0120653 0)
(4.97558 -0.0135009 0)
(4.97594 -0.0149079 0)
(4.97635 -0.0163752 0)
(4.97624 -0.0158205 0)
(4.97628 -0.0141636 0)
(4.97663 -0.0134204 0)
(4.97629 -0.0124683 0)
(4.97601 -0.0126047 0)
(4.97634 -0.0133704 0)
(4.97699 -0.014202 0)
(4.97687 -0.014855 0)
(4.97669 -0.0142373 0)
(4.97673 -0.0133452 0)
(4.97669 -0.012818 0)
(4.97673 -0.0128259 0)
(4.97701 -0.0132419 0)
(4.97715 -0.0136259 0)
(4.97695 -0.0134908 0)
(4.97706 -0.0129823 0)
(4.97707 -0.0124532 0)
(4.97729 -0.0126725 0)
(4.97731 -0.0129866 0)
(4.97741 -0.0132001 0)
(4.97756 -0.0135419 0)
(4.97773 -0.0136049 0)
(4.97769 -0.0133757 0)
(5.00198 -0.148439 0)
(5.00204 -0.148286 0)
(5.00212 -0.148165 0)
(5.00222 -0.14815 0)
(5.00208 -0.148501 0)
(5.00199 -0.148628 0)
(5.00196 -0.148643 0)
(5.002 -0.148885 0)
(5.00206 -0.149164 0)
(5.00217 -0.149301 0)
(5.00212 -0.149124 0)
(5.0021 -0.148818 0)
(5.00219 -0.148705 0)
(5.00216 -0.148773 0)
(5.00207 -0.148913 0)
(5.00212 -0.149126 0)
(5.00222 -0.149189 0)
(5.00204 -0.148995 0)
(5.00202 -0.148816 0)
(5.00198 -0.148831 0)
(5.0019 -0.149055 0)
(5.00197 -0.149254 0)
(5.00204 -0.149292 0)
(5.00206 -0.149266 0)
(5.00202 -0.149169 0)
(5.00193 -0.14919 0)
(5.0019 -0.149234 0)
(5.0019 -0.149247 0)
(5.00191 -0.149244 0)
(5.00194 -0.149212 0)
(5.00198 -0.149187 0)
(5.00203 -0.149241 0)
(5.00208 -0.149369 0)
(5.00208 -0.149435 0)
(5.00208 -0.149641 0)
(5.00206 -0.149863 0)
(5.00206 -0.150003 0)
(5.00216 -0.150068 0)
(5.00238 -0.149982 0)
(5.00264 -0.149895 0)
(5.00287 -0.149967 0)
(5.00299 -0.149964 0)
(5.00313 -0.149901 0)
(5.00341 -0.149916 0)
(5.00379 -0.150133 0)
(5.00398 -0.149901 0)
(5.00401 -0.149669 0)
(5.00405 -0.149863 0)
(5.00413 -0.149701 0)
(5.0042 -0.149605 0)
(5.00423 -0.149882 0)
(5.0045 -0.148605 0)
(5.00443 -0.147568 0)
(5.00407 -0.146165 0)
(5.0032 -0.14271 0)
(5.00196 -0.13781 0)
(5.00024 -0.129479 0)
(4.99805 -0.117247 0)
(4.99611 -0.105049 0)
(4.99301 -0.0860718 0)
(4.99117 -0.0699186 0)
(4.98944 -0.0573028 0)
(4.98839 -0.0489552 0)
(4.98696 -0.0352888 0)
(4.98684 -0.0367969 0)
(4.98251 -0.0270603 0)
(4.98199 -0.0229772 0)
(4.98047 -0.018317 0)
(4.97989 -0.0160469 0)
(4.97809 -0.012042 0)
(4.9781 -0.0115931 0)
(4.9779 -0.0120649 0)
(4.97708 -0.013975 0)
(4.97698 -0.0139145 0)
(4.97693 -0.0146953 0)
(4.97716 -0.0148641 0)
(4.97734 -0.0149012 0)
(4.97824 -0.0147499 0)
(4.97809 -0.0145794 0)
(4.97798 -0.0143884 0)
(4.97758 -0.0138549 0)
(4.97726 -0.0133462 0)
(4.97738 -0.0132439 0)
(4.97763 -0.0133699 0)
(4.97794 -0.0137671 0)
(4.978 -0.014096 0)
(4.97793 -0.0139175 0)
(4.9777 -0.0136568 0)
(4.9777 -0.0132485 0)
(4.97777 -0.0132557 0)
(4.97811 -0.0135352 0)
(4.97808 -0.0136064 0)
(4.97798 -0.0133955 0)
(4.97782 -0.0129131 0)
(4.97791 -0.0126665 0)
(4.97809 -0.0127256 0)
(4.97826 -0.0128747 0)
(4.97842 -0.013052 0)
(4.97865 -0.0133854 0)
(4.97866 -0.0133781 0)
(5.00348 -0.14986 0)
(5.0035 -0.14977 0)
(5.00353 -0.149703 0)
(5.00352 -0.149772 0)
(5.00352 -0.149956 0)
(5.00352 -0.149999 0)
(5.00352 -0.150015 0)
(5.00356 -0.150234 0)
(5.00358 -0.150408 0)
(5.00359 -0.150515 0)
(5.00347 -0.150362 0)
(5.00343 -0.150103 0)
(5.00351 -0.149986 0)
(5.00359 -0.149977 0)
(5.0036 -0.150046 0)
(5.00366 -0.150177 0)
(5.00378 -0.150226 0)
(5.00364 -0.149946 0)
(5.00362 -0.149654 0)
(5.00362 -0.14961 0)
(5.00364 -0.14973 0)
(5.0037 -0.14983 0)
(5.00375 -0.149865 0)
(5.00368 -0.149807 0)
(5.00358 -0.149752 0)
(5.00362 -0.14965 0)
(5.00367 -0.149585 0)
(5.00369 -0.149561 0)
(5.00374 -0.14946 0)
(5.00377 -0.14935 0)
(5.00379 -0.149217 0)
(5.00384 -0.149071 0)
(5.00387 -0.149051 0)
(5.00388 -0.149086 0)
(5.00389 -0.149119 0)
(5.00394 -0.149062 0)
(5.00403 -0.149021 0)
(5.00419 -0.148843 0)
(5.00442 -0.148475 0)
(5.00459 -0.148242 0)
(5.00469 -0.148038 0)
(5.00482 -0.147766 0)
(5.00486 -0.147678 0)
(5.0049 -0.147686 0)
(5.0049 -0.148041 0)
(5.00493 -0.148143 0)
(5.00499 -0.148121 0)
(5.00506 -0.148204 0)
(5.00512 -0.14835 0)
(5.00539 -0.148254 0)
(5.00569 -0.14843 0)
(5.00602 -0.148092 0)
(5.00611 -0.147595 0)
(5.00604 -0.147445 0)
(5.00607 -0.14685 0)
(5.00601 -0.146452 0)
(5.00585 -0.14574 0)
(5.00535 -0.143732 0)
(5.00455 -0.139819 0)
(5.00322 -0.132797 0)
(5.00142 -0.122247 0)
(4.99869 -0.105766 0)
(4.99656 -0.0914678 0)
(4.99232 -0.0659631 0)
(4.99126 -0.0517517 0)
(4.98887 -0.0343434 0)
(4.98582 -0.0167491 0)
(4.98696 -0.013832 0)
(4.98443 -0.00310051 0)
(4.98265 -0.00463676 0)
(4.98141 -0.0104677 0)
(4.98028 -0.0140464 0)
(4.97916 -0.01641 0)
(4.97898 -0.0157174 0)
(4.97909 -0.0147816 0)
(4.97962 -0.0135621 0)
(4.9793 -0.0122191 0)
(4.98008 -0.013173 0)
(4.97981 -0.0140778 0)
(4.97955 -0.014874 0)
(4.97962 -0.0154675 0)
(4.97955 -0.01438 0)
(4.97912 -0.0131363 0)
(4.97932 -0.0126523 0)
(4.97932 -0.0131705 0)
(4.97947 -0.0136654 0)
(4.97922 -0.0142457 0)
(4.97918 -0.0139295 0)
(4.97923 -0.0136792 0)
(4.97911 -0.0134561 0)
(4.97904 -0.0134638 0)
(4.9792 -0.0136201 0)
(4.97912 -0.0135121 0)
(4.97903 -0.0131719 0)
(4.97884 -0.0128164 0)
(4.97898 -0.0127236 0)
(4.97909 -0.0127145 0)
(4.97926 -0.0128865 0)
(4.97942 -0.0130395 0)
(4.97947 -0.0135262 0)
(5.00549 -0.151052 0)
(5.00547 -0.150918 0)
(5.00548 -0.15082 0)
(5.00547 -0.150764 0)
(5.00554 -0.150697 0)
(5.00555 -0.150667 0)
(5.00556 -0.150664 0)
(5.00555 -0.150724 0)
(5.00552 -0.150815 0)
(5.00546 -0.150946 0)
(5.00533 -0.151045 0)
(5.0053 -0.150932 0)
(5.00536 -0.150855 0)
(5.00539 -0.150831 0)
(5.00558 -0.150717 0)
(5.00569 -0.150608 0)
(5.00573 -0.150478 0)
(5.00579 -0.150296 0)
(5.00582 -0.150205 0)
(5.00586 -0.15007 0)
(5.0059 -0.149882 0)
(5.00595 -0.149813 0)
(5.00591 -0.149933 0)
(5.00582 -0.150021 0)
(5.00581 -0.149891 0)
(5.00587 -0.149833 0)
(5.00587 -0.149852 0)
(5.00592 -0.14975 0)
(5.00624 -0.149353 0)
(5.00629 -0.149106 0)
(5.00628 -0.148989 0)
(5.00631 -0.148702 0)
(5.0063 -0.148503 0)
(5.0063 -0.148578 0)
(5.00632 -0.148584 0)
(5.00642 -0.148374 0)
(5.00655 -0.148194 0)
(5.0067 -0.148006 0)
(5.00691 -0.147525 0)
(5.00703 -0.146877 0)
(5.00704 -0.146493 0)
(5.0071 -0.146385 0)
(5.00715 -0.146144 0)
(5.00706 -0.145902 0)
(5.00688 -0.145835 0)
(5.00674 -0.14576 0)
(5.00661 -0.145691 0)
(5.00654 -0.145827 0)
(5.00653 -0.146163 0)
(5.00666 -0.146393 0)
(5.00693 -0.146692 0)
(5.00713 -0.14683 0)
(5.00724 -0.146651 0)
(5.00726 -0.146669 0)
(5.00727 -0.146477 0)
(5.00717 -0.146032 0)
(5.0071 -0.145859 0)
(5.00714 -0.145792 0)
(5.00723 -0.145708 0)
(5.00723 -0.14523 0)
(5.00706 -0.1441 0)
(5.00628 -0.139993 0)
(5.00534 -0.134898 0)
(5.00264 -0.120717 0)
(5.00147 -0.112991 0)
(4.99669 -0.0852666 0)
(4.99623 -0.0827167 0)
(4.99182 -0.0534408 0)
(4.99266 -0.0527966 0)
(4.99052 -0.039273 0)
(4.99198 -0.0354734 0)
(4.98829 -0.0272273 0)
(4.98481 -0.0211879 0)
(4.98373 -0.0181015 0)
(4.98149 -0.0134876 0)
(4.98164 -0.0128505 0)
(4.98138 -0.0138063 0)
(4.98124 -0.0141025 0)
(4.981 -0.0159337 0)
(4.98092 -0.0158602 0)
(4.98088 -0.0156104 0)
(4.98128 -0.01391 0)
(4.98111 -0.0133948 0)
(4.98096 -0.0135555 0)
(4.98068 -0.0137432 0)
(4.98043 -0.0137817 0)
(4.98026 -0.0138307 0)
(4.98045 -0.0137191 0)
(4.98015 -0.0138122 0)
(4.98013 -0.0138076 0)
(4.97989 -0.0137933 0)
(4.97994 -0.0136333 0)
(4.98 -0.013489 0)
(4.98002 -0.0132848 0)
(4.98001 -0.0130315 0)
(4.97988 -0.0128114 0)
(4.97993 -0.0127002 0)
(4.97998 -0.0126101 0)
(4.98012 -0.0129407 0)
(4.98022 -0.0133818 0)
(5.00706 -0.151121 0)
(5.00707 -0.151157 0)
(5.00709 -0.151178 0)
(5.00719 -0.151029 0)
(5.00722 -0.150946 0)
(5.00722 -0.150873 0)
(5.00723 -0.15074 0)
(5.00718 -0.150636 0)
(5.00712 -0.150626 0)
(5.00706 -0.150666 0)
(5.00705 -0.150664 0)
(5.00698 -0.150591 0)
(5.00693 -0.150539 0)
(5.00693 -0.150404 0)
(5.00701 -0.150259 0)
(5.00698 -0.150157 0)
(5.00707 -0.149989 0)
(5.00717 -0.149877 0)
(5.00717 -0.149661 0)
(5.00723 -0.149433 0)
(5.00731 -0.149395 0)
(5.00734 -0.149409 0)
(5.00735 -0.149419 0)
(5.00739 -0.1494 0)
(5.00744 -0.149222 0)
(5.00748 -0.149061 0)
(5.00748 -0.149055 0)
(5.00747 -0.149001 0)
(5.00761 -0.148657 0)
(5.00772 -0.148385 0)
(5.00787 -0.148121 0)
(5.00785 -0.147857 0)
(5.00779 -0.147845 0)
(5.00777 -0.147874 0)
(5.00779 -0.147873 0)
(5.00785 -0.147874 0)
(5.00802 -0.148014 0)
(5.00823 -0.147983 0)
(5.00841 -0.147298 0)
(5.00835 -0.14684 0)
(5.00835 -0.146794 0)
(5.00834 -0.146636 0)
(5.00827 -0.146356 0)
(5.00814 -0.146192 0)
(5.00797 -0.145781 0)
(5.0079 -0.145583 0)
(5.00774 -0.145382 0)
(5.00768 -0.145328 0)
(5.00769 -0.145387 0)
(5.00781 -0.145577 0)
(5.00795 -0.145669 0)
(5.00798 -0.145826 0)
(5.008 -0.145856 0)
(5.00804 -0.145958 0)
(5.00802 -0.1459 0)
(5.00794 -0.145573 0)
(5.00783 -0.145325 0)
(5.00779 -0.145358 0)
(5.00779 -0.14543 0)
(5.00782 -0.145537 0)
(5.00788 -0.145803 0)
(5.00795 -0.145846 0)
(5.00789 -0.145279 0)
(5.0075 -0.14383 0)
(5.00674 -0.140761 0)
(5.0048 -0.133201 0)
(5.00309 -0.124839 0)
(4.99816 -0.100754 0)
(4.99826 -0.0929319 0)
(4.9919 -0.0528931 0)
(4.99587 -0.0514335 0)
(4.98991 -0.0186715 0)
(4.98988 -0.0186992 0)
(4.98635 -0.00297695 0)
(4.98345 -0.00631876 0)
(4.98202 -0.011838 0)
(4.98169 -0.01544 0)
(4.98181 -0.0160385 0)
(4.98188 -0.0159512 0)
(4.9819 -0.0146308 0)
(4.98214 -0.0128834 0)
(4.98204 -0.0130513 0)
(4.9818 -0.0140097 0)
(4.98163 -0.0150702 0)
(4.98104 -0.0143995 0)
(4.98092 -0.0139801 0)
(4.98082 -0.0132545 0)
(4.98086 -0.0135172 0)
(4.98074 -0.013771 0)
(4.9806 -0.0141161 0)
(4.98064 -0.0139805 0)
(4.98063 -0.0137408 0)
(4.98067 -0.0134434 0)
(4.98068 -0.0133358 0)
(4.98065 -0.01327 0)
(4.9808 -0.0130598 0)
(4.98062 -0.0126572 0)
(4.98066 -0.0126147 0)
(4.98071 -0.0127704 0)
(4.98082 -0.0132232 0)
(5.00755 -0.151596 0)
(5.00748 -0.1516 0)
(5.00774 -0.151319 0)
(5.00776 -0.151166 0)
(5.00775 -0.151024 0)
(5.00777 -0.150812 0)
(5.00765 -0.15062 0)
(5.00756 -0.150592 0)
(5.0075 -0.150764 0)
(5.00748 -0.150742 0)
(5.00752 -0.150571 0)
(5.00749 -0.150473 0)
(5.00756 -0.150193 0)
(5.00757 -0.149818 0)
(5.00749 -0.149634 0)
(5.00739 -0.149634 0)
(5.00728 -0.149569 0)
(5.00737 -0.149297 0)
(5.00741 -0.149014 0)
(5.00746 -0.148767 0)
(5.00755 -0.148603 0)
(5.00768 -0.148507 0)
(5.00776 -0.148522 0)
(5.00784 -0.148548 0)
(5.00792 -0.148425 0)
(5.00797 -0.148254 0)
(5.00798 -0.14822 0)
(5.00799 -0.148161 0)
(5.00802 -0.147965 0)
(5.0081 -0.14779 0)
(5.00821 -0.147675 0)
(5.00826 -0.147542 0)
(5.00831 -0.14753 0)
(5.00827 -0.147851 0)
(5.00827 -0.148163 0)
(5.0083 -0.148322 0)
(5.00852 -0.148111 0)
(5.00876 -0.147182 0)
(5.00882 -0.146833 0)
(5.00885 -0.146761 0)
(5.0088 -0.146621 0)
(5.00865 -0.146331 0)
(5.00857 -0.146079 0)
(5.00841 -0.145758 0)
(5.00823 -0.14524 0)
(5.00815 -0.14486 0)
(5.00809 -0.14478 0)
(5.00801 -0.144778 0)
(5.00802 -0.144794 0)
(5.00809 -0.144923 0)
(5.00811 -0.145084 0)
(5.00812 -0.14524 0)
(5.00805 -0.145503 0)
(5.00801 -0.145606 0)
(5.0081 -0.145529 0)
(5.00815 -0.145447 0)
(5.00819 -0.145262 0)
(5.00813 -0.14523 0)
(5.00795 -0.145431 0)
(5.00786 -0.145502 0)
(5.00769 -0.145705 0)
(5.00761 -0.146179 0)
(5.00771 -0.146382 0)
(5.0079 -0.146382 0)
(5.00783 -0.146207 0)
(5.00751 -0.145787 0)
(5.00681 -0.144359 0)
(5.00558 -0.140974 0)
(5.00373 -0.131771 0)
(5.00145 -0.11927 0)
(4.99903 -0.100705 0)
(4.99613 -0.0802369 0)
(4.99417 -0.066048 0)
(4.992 -0.0471557 0)
(4.99343 -0.0467065 0)
(4.98931 -0.0328334 0)
(4.98756 -0.0255311 0)
(4.98691 -0.0197289 0)
(4.98343 -0.0159558 0)
(4.9828 -0.0127378 0)
(4.9824 -0.0137949 0)
(4.98183 -0.0147287 0)
(4.9818 -0.0167844 0)
(4.98165 -0.0160371 0)
(4.98161 -0.0149949 0)
(4.98152 -0.0136131 0)
(4.98139 -0.0132882 0)
(4.98118 -0.0135222 0)
(4.98106 -0.0144249 0)
(4.981 -0.0145312 0)
(4.9811 -0.0140477 0)
(4.98109 -0.0138256 0)
(4.98112 -0.0134748 0)
(4.98121 -0.0135935 0)
(4.98125 -0.0133187 0)
(4.98134 -0.0131355 0)
(4.98124 -0.0126647 0)
(4.98128 -0.0126321 0)
(4.98118 -0.0129678 0)
(4.98122 -0.0132231 0)
(5.00739 -0.150678 0)
(5.00731 -0.150794 0)
(5.00733 -0.150692 0)
(5.00739 -0.150407 0)
(5.00735 -0.150318 0)
(5.0073 -0.150317 0)
(5.00729 -0.150194 0)
(5.00724 -0.150001 0)
(5.00723 -0.150029 0)
(5.00727 -0.15029 0)
(5.00723 -0.15052 0)
(5.00726 -0.150477 0)
(5.00737 -0.150118 0)
(5.00732 -0.149859 0)
(5.00722 -0.149702 0)
(5.0071 -0.149511 0)
(5.007 -0.149361 0)
(5.00694 -0.149338 0)
(5.00691 -0.149321 0)
(5.00697 -0.149224 0)
(5.00707 -0.149118 0)
(5.00715 -0.149026 0)
(5.00723 -0.14898 0)
(5.00734 -0.148936 0)
(5.0075 -0.148786 0)
(5.00757 -0.148632 0)
(5.00763 -0.148565 0)
(5.0077 -0.148479 0)
(5.00777 -0.148315 0)
(5.00789 -0.148173 0)
(5.00798 -0.147987 0)
(5.00809 -0.14776 0)
(5.00824 -0.147768 0)
(5.00828 -0.14829 0)
(5.00826 -0.148658 0)
(5.00827 -0.148813 0)
(5.00858 -0.148357 0)
(5.00868 -0.148031 0)
(5.00882 -0.147862 0)
(5.00883 -0.147813 0)
(5.0087 -0.147766 0)
(5.0085 -0.14762 0)
(5.00832 -0.147401 0)
(5.00818 -0.147138 0)
(5.00796 -0.14688 0)
(5.0078 -0.146306 0)
(5.00782 -0.145885 0)
(5.00782 -0.14583 0)
(5.00781 -0.145784 0)
(5.00783 -0.145732 0)
(5.00784 -0.145752 0)
(5.00779 -0.145867 0)
(5.00763 -0.146183 0)
(5.0076 -0.146382 0)
(5.0079 -0.146159 0)
(5.00814 -0.145896 0)
(5.00818 -0.145787 0)
(5.00817 -0.145583 0)
(5.00793 -0.145413 0)
(5.00775 -0.145439 0)
(5.00732 -0.145662 0)
(5.00695 -0.146122 0)
(5.00716 -0.146309 0)
(5.00758 -0.14639 0)
(5.00758 -0.14649 0)
(5.00748 -0.146603 0)
(5.00713 -0.146679 0)
(5.0068 -0.146491 0)
(5.0065 -0.145633 0)
(5.00605 -0.143008 0)
(5.00503 -0.13693 0)
(5.00294 -0.126006 0)
(4.99973 -0.108888 0)
(4.99535 -0.0863267 0)
(4.99385 -0.0653184 0)
(4.99014 -0.0347058 0)
(4.99055 -0.026708 0)
(4.98772 -0.00778901 0)
(4.98591 -0.0047435 0)
(4.9839 -0.0109302 0)
(4.9824 -0.0160457 0)
(4.98192 -0.0169463 0)
(4.98206 -0.0167477 0)
(4.98216 -0.015702 0)
(4.98252 -0.0126954 0)
(4.98227 -0.0127513 0)
(4.98162 -0.0135067 0)
(4.98126 -0.0141893 0)
(4.98121 -0.0142158 0)
(4.98118 -0.0140064 0)
(4.98124 -0.0136845 0)
(4.98126 -0.0136506 0)
(4.9813 -0.0137649 0)
(4.98157 -0.0135041 0)
(4.98168 -0.0132813 0)
(4.98165 -0.0129911 0)
(4.98161 -0.012904 0)
(4.98161 -0.0128891 0)
(4.98148 -0.0128665 0)
(4.98142 -0.0129608 0)
(5.00754 -0.149009 0)
(5.0074 -0.149149 0)
(5.00739 -0.149055 0)
(5.00748 -0.148759 0)
(5.00743 -0.148658 0)
(5.00735 -0.148655 0)
(5.00734 -0.148511 0)
(5.00728 -0.148303 0)
(5.00723 -0.148283 0)
(5.00725 -0.148513 0)
(5.00721 -0.148749 0)
(5.00719 -0.148746 0)
(5.0072 -0.148501 0)
(5.00715 -0.148262 0)