/*--------------------------------*- C++ -*----------------------------------*\
  =========                 |
  \\      /  F ield         | OpenFOAM: The Open Source CFD Toolbox
   \\    /   O peration     | Website:  https://openfoam.org
    \\  /    A nd           | Version:  7
     \\/     M anipulation  |
\*---------------------------------------------------------------------------*/
FoamFile
{
    version     2.0;
    format      ascii;
    class       volScalarField;
    location    "1.4";
    object      rho;
}
// * * * * * * * * * * * * * * * * * * * * * * * * * * * * * * * * * * * * * //

dimensions      [1 -3 0 0 0 0 0];

internalField   nonuniform List<scalar> 
1750
(
0.282535
0.495652
0.718314
0.912035
0.932105
0.979282
1.06453
1.0858
1.08343
1.13962
0.0948082
0.153328
0.256304
0.554061
0.920598
1.06286
1.08452
1.06467
1.07217
1.13915
0.0883635
0.107024
0.136753
0.200827
0.472524
0.798354
0.944844
1.00544
1.05376
1.11603
0.123404
0.137276
0.159246
0.239379
0.364508
0.434472
0.528883
0.688251
0.836383
0.974335
0.186271
0.190751
0.217681
0.313248
0.456371
0.488982
0.496656
0.518704
0.577492
0.771575
0.320872
0.338286
0.365525
0.434564
0.545994
0.584022
0.593384
0.611254
0.642464
0.801344
0.52328
0.531827
0.546293
0.588969
0.679792
0.733347
0.760767
0.787916
0.819361
0.956268
0.849098
0.834243
0.833402
0.848011
0.875511
0.895267
0.916673
0.947867
0.994479
1.13853
1.21936
1.1782
1.14426
1.12575
1.10738
1.10243
1.11929
1.15104
1.19835
1.30199
1.39654
1.37364
1.3452
1.32049
1.29951
1.29264
1.29964
1.31763
1.34505
1.38264
1.4116
1.40543
1.39837
1.39072
1.38457
1.38332
1.3849
1.38901
1.39454
1.39899
1.40394
1.40217
1.40077
1.39974
1.39918
1.39915
1.39927
1.39954
1.39984
1.39999
1.40021
1.40014
1.40006
1.40001
1.39999
1.39999
1.39999
1.4
1.4
1.4
1.40001
1.40001
1.40001
1.40001
1.4
1.4
1.4
1.4
1.40001
1.40001
1.40001
1.40001
1.40001
1.40001
1.40001
1.40001
1.40001
1.40001
1.40001
1.40001
0.0929383
0.0831619
0.082329
0.106424
0.190977
0.313978
0.520231
0.866918
1.25035
1.41076
1.41787
1.40521
1.40026
1.40001
1.40001
0.076558
0.077969
0.0889809
0.119771
0.23425
0.380289
0.632903
1.01731
1.35097
1.43337
1.42442
1.40462
1.40016
1.40001
1.40001
0.0725525
0.0705013
0.10174
0.132016
0.251525
0.422843
0.726629
1.13582
1.40808
1.44486
1.42721
1.40397
1.40011
1.40001
1.40001
0.0680421
0.0590402
0.106538
0.150311
0.271434
0.505314
0.859382
1.25397
1.44617
1.4554
1.42737
1.40287
1.40007
1.40001
1.40001
0.0663932
0.0541446
0.0999313
0.178866
0.347343
0.61784
0.981186
1.3472
1.47079
1.46384
1.42261
1.40167
1.40004
1.40001
1.40001
0.057754
0.0538746
0.0936426
0.229092
0.440814
0.726076
1.11546
1.43142
1.48854
1.46673
1.41693
1.40089
1.40002
1.40001
1.40001
0.044207
0.0624792
0.123105
0.293568
0.525923
0.864464
1.27212
1.48802
1.49995
1.46094
1.41044
1.4004
1.40001
1.40001
1.40001
0.0337859
0.0758834
0.175488
0.35976
0.643472
1.05765
1.40713
1.51647
1.50631
1.44757
1.40556
1.40017
1.40001
1.40001
1.40001
0.024267
0.0832781
0.22281
0.456808
0.84634
1.24767
1.49488
1.53066
1.50453
1.43282
1.40264
1.40007
1.40001
1.40001
1.40001
0.0145856
0.0818341
0.305948
0.650325
1.06844
1.40452
1.54319
1.5395
1.48541
1.41817
1.40098
1.40002
1.40001
1.40001
1.40001
0.0101657
0.152553
0.464254
0.892523
1.27925
1.51696
1.56212
1.54435
1.46188
1.40808
1.40032
1.40001
1.40001
1.40001
1.40001
0.0493093
0.312866
0.714824
1.14677
1.46102
1.573
1.56868
1.51626
1.43247
1.4027
1.40008
1.40001
1.40001
1.40001
1.40001
0.183898
0.52929
1.03251
1.39459
1.57069
1.59133
1.57038
1.48017
1.41376
1.40077
1.40002
1.40001
1.40001
1.40001
1.40001
0.455021
0.914794
1.33749
1.54935
1.61085
1.59735
1.53155
1.44052
1.4041
1.40015
1.40001
1.40001
1.40001
1.40001
1.40001
0.949745
1.34025
1.55397
1.60986
1.62
1.5798
1.48295
1.4139
1.40081
1.40003
1.40001
1.40001
1.40001
1.40001
1.40001
1.62061
1.6265
1.63081
1.62486
1.62065
1.53157
1.43077
1.40106
1.40001
1.40001
1.40001
1.40001
1.40001
1.40001
1.40001
1.6254
1.63454
1.64017
1.63007
1.61154
1.52241
1.43058
1.40248
1.40007
1.40001
1.40001
1.40001
1.40001
1.40001
1.40001
1.63241
1.64535
1.65055
1.6353
1.59147
1.4754
1.40993
1.40039
1.40001
1.40001
1.40001
1.40001
1.40001
1.40001
1.40001
1.63819
1.65221
1.65407
1.63238
1.55507
1.44571
1.40415
1.40013
1.40001
1.40001
1.40001
1.40001
1.40001
1.40001
1.40001
1.64055
1.65681
1.65477
1.61299
1.51284
1.42167
1.40131
1.40004
1.40001
1.40001
1.40001
1.40001
1.40001
1.40001
1.40001
1.64208
1.65956
1.65469
1.58225
1.47026
1.40896
1.40038
1.40001
1.40001
1.40001
1.40001
1.40001
1.40001
1.40001
1.40001
1.65478
1.65815
1.64575
1.54004
1.43551
1.40304
1.4001
1.40001
1.40001
1.40001
1.40001
1.40001
1.40001
1.40001
1.40001
1.68098
1.6399
1.61065
1.49057
1.41576
1.4009
1.40003
1.40001
1.40001
1.40001
1.40001
1.40001
1.40001
1.40001
1.40001
1.70276
1.62438
1.56259
1.45068
1.40576
1.40024
1.40001
1.40001
1.40001
1.40001
1.40001
1.40001
1.40001
1.40001
1.40001
1.71353
1.60147
1.50764
1.42252
1.4017
1.40006
1.40001
1.40001
1.40001
1.40001
1.40001
1.40001
1.40001
1.40001
1.40001
1.70968
1.56073
1.46313
1.40893
1.40045
1.40002
1.40001
1.40001
1.40001
1.40001
1.40001
1.40001
1.40001
1.40001
1.40001
1.67363
1.51706
1.42995
1.40264
1.40009
1.40001
1.40001
1.40001
1.40001
1.40001
1.40001
1.40001
1.40001
1.40001
1.40001
1.62379
1.47204
1.41141
1.4006
1.40002
1.40001
1.40001
1.40001
1.40001
1.40001
1.40001
1.40001
1.40001
1.40001
1.40001
1.55481
1.4325
1.40276
1.40009
1.40001
1.40001
1.40001
1.40001
1.40001
1.40001
1.40001
1.40001
1.40001
1.40001
1.40001
1.46855
1.40915
1.40041
1.40001
1.40001
1.40001
1.40001
1.40001
1.40001
1.40001
1.40001
1.40001
1.40001
1.40001
1.40001
1.40001
1.40001
1.40001
1.40001
1.40001
1.40001
1.40001
1.40001
1.40001
1.40001
1.40001
1.40001
1.40001
1.40001
1.40001
1.40001
1.40001
1.40001
1.40001
1.40001
1.40001
1.40001
1.40001
1.40001
1.40001
1.40001
1.40001
1.40001
1.40001
1.40001
1.40001
1.40001
1.40001
1.40001
1.40001
1.40001
1.40001
1.40001
1.40001
1.40001
1.40001
1.40001
1.40001
1.40001
1.40001
1.40001
1.40001
1.40001
1.40001
1.40001
1.40001
1.40001
1.40001
1.40001
1.40001
1.40001
1.40001
1.40001
1.40001
1.40001
1.40001
1.40001
1.40001
1.40001
1.40001
1.40001
1.40001
1.40001
1.40001
1.40001
1.40001
1.40001
1.40001
1.40001
1.40001
1.40001
1.40001
1.40001
1.40001
1.40001
1.40001
1.40001
1.40001
1.40001
1.40001
1.40001
1.40001
1.40001
1.40001
1.40001
1.40001
1.40001
1.40001
1.40001
1.40001
1.40001
1.40001
1.40001
1.40001
1.40001
1.40001
1.40001
1.40001
1.40001
1.40001
1.40001
1.40001
1.40001
1.40001
1.40001
1.40001
1.40001
1.40001
1.40001
1.40001
1.40001
1.40001
1.40001
1.40001
1.40001
1.40001
1.40001
1.40001
1.40001
1.40001
1.40001
1.40001
1.40001
1.40001
1.40001
1.40001
1.40001
1.40001
1.40001
1.40001
1.40001
1.40001
1.40001
1.40001
1.40001
1.40001
1.40001
1.40001
1.40001
1.40001
1.40001
1.40001
1.40001
1.40001
1.40001
1.40001
1.40001
1.40001
1.40001
1.40001
1.40001
1.40001
1.40001
1.40001
1.40001
1.40001
1.40001
1.40001
1.40001
1.40001
1.40001
1.40001
1.40001
1.40001
1.40001
1.40001
1.40001
1.40001
1.40001
1.40001
1.40001
1.40001
1.40001
1.40001
1.40001
1.40001
1.40001
1.40001
1.40001
1.40001
1.40001
1.40001
1.40001
1.40001
1.40001
1.40001
1.40001
1.40001
1.40001
1.40001
1.40001
1.40001
1.40001
1.40001
1.40001
1.40001
1.40001
1.40001
1.40001
1.40001
1.40001
1.40001
1.40001
1.40001
1.40001
1.40001
1.40001
1.40001
1.40001
1.40001
1.40001
1.40001
1.40001
1.40001
1.40001
1.40001
1.40001
1.40001
1.40001
1.40001
1.40001
1.40001
1.40001
1.40001
1.40001
1.40001
1.40001
1.40001
1.40001
1.40001
1.40001
1.40001
1.40001
1.40001
1.40001
1.40001
1.40001
1.40001
1.40001
1.40001
1.40001
1.40001
1.40001
1.40001
1.40001
1.40001
1.40001
1.40001
1.40001
1.40001
1.40001
1.40001
1.40001
1.40001
1.40001
1.40001
1.40001
1.40001
1.40001
1.40001
1.40001
1.40001
1.40001
1.40001
1.40001
1.40001
1.40001
1.40001
1.40001
1.40001
1.40001
1.40001
1.40001
1.40001
1.40001
1.40001
1.40001
1.40001
1.40001
1.40001
1.40001
1.40001
1.40001
1.40001
1.40001
1.40001
1.40001
1.40001
1.40001
1.40001
1.40001
1.40001
1.40001
1.40001
1.40001
1.40001
1.40001
1.40001
1.40001
1.40001
1.40001
1.40001
1.40001
1.40001
1.40001
1.40001
1.40001
1.40001
1.40001
1.40001
1.40001
1.40001
1.40001
1.40001
1.40001
1.40001
1.40001
1.40001
1.40001
1.40001
1.40001
1.40001
1.40001
1.40001
1.40001
1.40001
1.40001
1.40001
1.40001
1.40001
1.40001
1.40001
1.40001
1.40001
1.40001
1.40001
1.40001
1.40001
1.40001
1.40001
1.40001
1.40001
1.40001
1.40001
1.40001
2.41419
1.39777
1.40001
1.40001
1.40001
1.40001
1.40001
1.40001
1.40001
1.40001
1.40001
1.40001
1.40001
1.40001
1.40001
1.40001
1.40001
1.40001
1.40001
1.40001
4.86175
2.16256
1.4
1.40001
1.40001
1.40001
1.40001
1.40001
1.40001
1.40001
1.40001
1.40001
1.40001
1.40001
1.40001
1.40001
1.40001
1.40001
1.40001
1.40001
6.87599
4.91476
3.2783
1.55192
1.39999
1.40001
1.40001
1.40001
1.40001
1.40001
1.40001
1.40001
1.40001
1.40001
1.40001
1.40001
1.40001
1.40001
1.40001
1.40001
5.63834
4.858
4.84179
3.62304
1.66142
1.39924
1.40001
1.40001
1.40001
1.40001
1.40001
1.40001
1.40001
1.40001
1.40001
1.40001
1.40001
1.40001
1.40001
1.40001
4.86978
4.5274
4.57303
4.45525
3.14464
1.49748
1.4
1.40001
1.40001
1.40001
1.40001
1.40001
1.40001
1.40001
1.40001
1.40001
1.40001
1.40001
1.40001
1.40001
4.55129
4.41757
4.38751
4.2968
4.00211
2.21393
1.39719
1.40001
1.40001
1.40001
1.40001
1.40001
1.40001
1.40001
1.40001
1.40001
1.40001
1.40001
1.40001
1.40001
4.4696
4.36438
4.27384
4.16512
4.18723
3.33686
1.57118
1.4
1.40001
1.40001
1.40001
1.40001
1.40001
1.40001
1.40001
1.40001
1.40001
1.40001
1.40001
1.40001
4.40568
4.31967
4.26455
4.14882
4.12782
3.81604
2.15293
1.39756
1.40001
1.40001
1.40001
1.40001
1.40001
1.40001
1.40001
1.40001
1.40001
1.40001
1.40001
1.40001
4.34519
4.29331
4.27577
4.20244
4.1841
4.08172
2.91435
1.44577
1.40001
1.40001
1.40001
1.40001
1.40001
1.40001
1.40001
1.40001
1.40001
1.40001
1.40001
1.40001
4.31876
4.28465
4.28026
4.23409
4.20369
4.1297
3.51594
1.71595
1.4
1.40001
1.40001
1.40001
1.40001
1.40001
1.40001
1.40001
1.40001
1.40001
1.40001
1.40001
4.32903
4.29277
4.27966
4.22373
4.22427
4.19517
3.95293
2.21072
1.39722
1.40001
1.40001
1.40001
1.40001
1.40001
1.40001
1.40001
1.40001
1.40001
1.40001
1.40001
4.36303
4.30546
4.27278
4.20302
4.21072
4.19348
4.12701
2.88308
1.45252
1.4
1.40001
1.40001
1.40001
1.40001
1.40001
1.40001
1.40001
1.40001
1.40001
1.40001
4.38194
4.31508
4.26504
4.20189
4.21435
4.22537
4.24215
3.49469
1.63186
1.39994
1.40001
1.40001
1.40001
1.40001
1.40001
1.40001
1.40001
1.40001
1.40001
1.40001
4.38064
4.32643
4.26518
4.20606
4.2098
4.24249
4.24986
3.89657
2.24581
1.40126
1.40001
1.40001
1.40001
1.40001
1.40001
1.40001
1.40001
1.40001
1.40001
1.40001
4.34497
4.30425
4.25826
4.22883
4.21993
4.25828
4.26597
4.07494
2.41831
1.31891
1.4
1.40001
1.40001
1.40001
1.40001
1.40001
1.40001
1.40001
1.40001
1.40001
1.9899
2.93028
3.40683
3.69628
3.8922
4.04721
4.18341
4.19807
3.75504
2.14322
1.45264
1.40074
1.40001
1.40001
1.40001
1.40001
1.40001
1.40001
1.40001
1.40001
0.620423
1.72793
2.369
2.83381
3.20111
3.51164
3.8033
4.03474
3.92092
3.34525
1.96545
1.43327
1.40039
1.40001
1.40001
1.40001
1.40001
1.40001
1.40001
1.40001
0.341348
0.973501
1.57185
2.11384
2.52624
2.89705
3.24155
3.62883
3.6481
3.61171
2.90888
1.69709
1.40919
1.40007
1.40001
1.40001
1.40001
1.40001
1.40001
1.40001
0.397568
0.745007
1.04351
1.47229
1.93976
2.32018
2.66111
3.00175
3.27413
3.40741
3.22814
2.24976
1.48257
1.40123
1.40001
1.40001
1.40001
1.40001
1.40001
1.40001
0.553573
0.706038
0.829027
1.09884
1.46903
1.87162
2.14624
2.42343
2.78823
3.10666
3.0951
2.68501
1.73008
1.41229
1.40009
1.40001
1.40001
1.40001
1.40001
1.40001
0.713725
0.652873
0.693667
0.970834
1.2076
1.52845
1.81317
2.06441
2.36926
2.77772
2.98202
2.89053
2.05239
1.45145
1.40055
1.40001
1.40001
1.40001
1.40001
1.40001
0.747203
0.640214
0.63202
0.837465
0.999468
1.24106
1.54644
1.80254
2.08861
2.49686
2.81872
2.83046
2.33141
1.54363
1.40271
1.40002
1.40001
1.40001
1.40001
1.40001
0.734473
0.642395
0.632863
0.725128
0.831332
1.01423
1.27881
1.51061
1.79557
2.21313
2.63623
2.72439
2.47068
1.67431
1.40945
1.40006
1.40001
1.40001
1.40001
1.40001
0.708033
0.653256
0.65921
0.694205
0.759289
0.918653
1.11102
1.3138
1.53505
1.88635
2.37772
2.54496
2.45237
1.80579
1.42385
1.4002
1.40001
1.40001
1.40001
1.40001
0.669325
0.658181
0.6927
0.689609
0.715352
0.866876
1.01835
1.22484
1.42057
1.70712
2.16135
2.41803
2.40129
1.87942
1.44023
1.40042
1.40001
1.40001
1.40001
1.40001
0.626104
0.656869
0.710337
0.696392
0.693029
0.817152
0.94295
1.1381
1.33458
1.61471
2.08184
2.36953
2.37756
1.90392
1.44956
1.40061
1.40001
1.40001
1.40001
1.40001
0.628831
0.666204
0.723805
0.709777
0.700619
0.791207
0.895476
1.01818
1.21071
1.48562
1.98585
2.30005
2.32517
1.89129
1.45064
1.40067
1.40001
1.40001
1.40001
1.40001
0.668118
0.710638
0.760503
0.746254
0.732444
0.788291
0.869349
0.948064
1.12691
1.37081
1.84564
2.19928
2.23755
1.85041
1.44722
1.40064
1.40001
1.40001
1.40001
1.40001
0.738533
0.78022
0.822112
0.808851
0.776375
0.781807
0.832886
0.928294
1.07619
1.33514
1.80887
2.1281
2.14827
1.78296
1.43777
1.40049
1.40001
1.40001
1.40001
1.40001
0.846593
0.849584
0.880036
0.864378
0.813705
0.774364
0.800685
0.911851
1.03958
1.33363
1.82038
2.09368
2.07387
1.70486
1.42554
1.4003
1.40001
1.40001
1.40001
1.40001
0.815069
0.902549
0.928353
0.908319
0.839429
0.781899
0.809794
0.92886
1.0514
1.38649
1.88096
2.06591
1.99166
1.61073
1.41214
1.40011
1.40001
1.40001
1.40001
1.40001
0.842509
0.968564
0.992256
0.973105
0.894565
0.825978
0.852815
0.982741
1.10505
1.48968
1.93362
2.02262
1.88062
1.51505
1.40375
1.40003
1.40001
1.40001
1.40001
1.40001
0.929629
1.03469
1.06981
1.05369
0.98599
0.914316
0.928028
1.07144
1.22411
1.63214
1.94095
1.95042
1.71658
1.43915
1.40059
1.40001
1.40001
1.40001
1.40001
1.40001
0.984748
1.05929
1.09575
1.10649
1.08975
1.03779
1.03907
1.20036
1.40315
1.73446
1.89112
1.81119
1.52937
1.40597
1.40004
1.4
1.4
1.40001
1.40001
1.40001
0.970355
1.03815
1.07892
1.13799
1.19128
1.19044
1.1972
1.34466
1.52801
1.73966
1.75351
1.58766
1.42122
1.40028
1.4
1.4
1.40001
1.40001
1.40001
1.40001
1.00882
1.03733
1.06849
1.15482
1.22781
1.27639
1.31315
1.40009
1.54019
1.6305
1.54556
1.42793
1.40056
1.39996
1.4
1.4
1.40001
1.40001
1.40001
1.40001
1.09593
1.08335
1.0857
1.14726
1.21765
1.27669
1.32407
1.39883
1.46923
1.43662
1.40117
1.39755
1.39972
1.39998
1.4
1.40001
1.40001
1.40001
1.40001
1.40001
1.13828
1.13038
1.1198
1.14209
1.17966
1.23072
1.2896
1.32981
1.32443
1.3414
1.38197
1.39784
1.39989
1.4
1.4
1.40001
1.40001
1.40001
1.40001
1.40001
1.14197
1.15617
1.14378
1.12726
1.12649
1.14165
1.18242
1.21566
1.26867
1.33891
1.38573
1.39896
1.39998
1.4
1.40001
1.40001
1.40001
1.40001
1.40001
1.40001
1.17688
1.21751
1.2098
1.1812
1.14711
1.14627
1.167
1.19914
1.27486
1.35232
1.3928
1.39971
1.4
1.40001
1.40001
1.40001
1.40001
1.40001
1.40001
1.40001
)
;

boundaryField
{
    inlet
    {
        type            calculated;
        value           uniform 1.40001;
    }
    outlet
    {
        type            calculated;
        value           nonuniform List<scalar> 
35
(
1.17716
1.21704
1.20937
1.18097
1.14722
1.14643
1.16683
1.19845
1.27392
1.35143
1.39253
1.3997
1.4
1.40001
1.40001
1.40001
1.40001
1.40001
1.40001
1.40001
1.14087
1.14094
1.11788
0.976235
0.770538
0.79933
0.953827
1.13588
1.30019
1.38207
1.39894
1.39999
1.4
1.40001
1.40001
)
;
    }
    airfoil
    {
        type            calculated;
        value           nonuniform List<scalar> 
60
(
0.0929383
0.076558
0.0725525
0.0680421
0.0663932
0.057754
0.044207
0.0337859
0.024267
0.0145856
0.0101657
0.0493093
0.183898
0.455021
0.949745
1.62061
1.6254
1.63241
1.63819
1.64055
1.64208
1.65478
1.68098
1.70276
1.71353
1.70968
1.67363
1.62379
1.55481
1.46855
2.41419
4.86175
6.87599
5.63834
4.86978
4.55129
4.4696
4.40568
4.34519
4.31876
4.32903
4.36303
4.38194
4.38064
4.34497
1.9899
0.620423
0.341348
0.397568
0.553573
0.713725
0.747203
0.734473
0.708033
0.669325
0.626104
0.628831
0.668118
0.738533
0.846593
)
;
    }
    top
    {
        type            symmetryPlane;
    }
    bottom
    {
        type            symmetryPlane;
    }
    defaultFaces
    {
        type            empty;
    }
}


// ************************************************************************* //
