/*--------------------------------*- C++ -*----------------------------------*\
  =========                 |
  \\      /  F ield         | OpenFOAM: The Open Source CFD Toolbox
   \\    /   O peration     | Website:  https://openfoam.org
    \\  /    A nd           | Version:  7
     \\/     M anipulation  |
\*---------------------------------------------------------------------------*/
FoamFile
{
    version     2.0;
    format      ascii;
    class       volVectorField;
    location    "1";
    object      U;
}
// * * * * * * * * * * * * * * * * * * * * * * * * * * * * * * * * * * * * * //

dimensions      [0 1 -1 0 0 0 0];

internalField   nonuniform List<vector> 
90000
(
(2.77234 -0.982423 0)
(2.76134 -0.900318 0)
(2.75559 -0.82217 0)
(2.75235 -0.747119 0)
(2.75584 -0.694744 0)
(2.75515 -0.632507 0)
(2.75636 -0.565684 0)
(2.76336 -0.525317 0)
(2.7635 -0.478468 0)
(2.76498 -0.43858 0)
(2.76438 -0.378194 0)
(2.76867 -0.356794 0)
(2.76517 -0.303885 0)
(2.7675 -0.277919 0)
(2.76358 -0.231571 0)
(2.76301 -0.201936 0)
(2.76182 -0.171885 0)
(2.75802 -0.130231 0)
(2.76089 -0.120518 0)
(2.75696 -0.0787601 0)
(2.76176 -0.0747665 0)
(2.76211 -0.0433087 0)
(2.76111 -0.0477279 0)
(2.76112 -0.0352702 0)
(2.76124 -0.0431041 0)
(2.76084 -0.0402468 0)
(2.76341 -0.0442958 0)
(2.76407 -0.0467008 0)
(2.76574 -0.0463372 0)
(2.76861 -0.0441889 0)
(2.77063 -0.0429879 0)
(2.77284 -0.0402554 0)
(2.77531 -0.0345574 0)
(2.77947 -0.0312221 0)
(2.77939 -0.0366553 0)
(2.77624 -0.0367414 0)
(2.76922 -0.0386916 0)
(2.76245 -0.0320219 0)
(2.75924 -0.0311439 0)
(2.75212 -0.0314071 0)
(2.74149 -0.036298 0)
(2.73298 -0.0401316 0)
(2.72591 -0.0471665 0)
(2.72282 -0.0509883 0)
(2.71856 -0.0586952 0)
(2.71791 -0.0576731 0)
(2.71705 -0.0539688 0)
(2.71876 -0.0471458 0)
(2.71942 -0.041608 0)
(2.71609 -0.0431314 0)
(2.71196 -0.0518361 0)
(2.70988 -0.0586482 0)
(2.71001 -0.0661771 0)
(2.7122 -0.0688397 0)
(2.72248 -0.0587403 0)
(2.73866 -0.0438248 0)
(2.7585 -0.0293322 0)
(2.77782 -0.0152589 0)
(2.80456 0.00388588 0)
(2.82058 0.0181735 0)
(2.83084 0.0215758 0)
(2.83449 0.0255136 0)
(2.83373 0.0281591 0)
(2.83141 0.0309204 0)
(2.82855 0.0319543 0)
(2.82502 0.033739 0)
(2.82132 0.0288644 0)
(2.81949 0.025781 0)
(2.81635 0.0213126 0)
(2.81509 0.0203229 0)
(2.81507 0.0219692 0)
(2.81648 0.0264515 0)
(2.81787 0.025193 0)
(2.81761 0.022557 0)
(2.81781 0.0194537 0)
(2.81873 0.016892 0)
(2.82217 0.0185636 0)
(2.82529 0.0213643 0)
(2.82985 0.0219271 0)
(2.83349 0.0219807 0)
(2.83966 0.0226746 0)
(2.85039 0.0271501 0)
(2.86403 0.03382 0)
(2.88103 0.0362257 0)
(2.89621 0.0381608 0)
(2.91302 0.0405803 0)
(2.9305 0.0429159 0)
(2.94803 0.0426484 0)
(2.96574 0.0450836 0)
(2.98196 0.0490455 0)
(2.99288 0.0467685 0)
(2.99863 0.0440469 0)
(3.00565 0.047748 0)
(3.03298 0.0673591 0)
(3.07054 0.0934611 0)
(3.08573 0.135635 0)
(3.0894 0.165756 0)
(3.05758 0.156705 0)
(2.99052 0.129031 0)
(2.96288 0.0869643 0)
(2.78315 -1.0494 0)
(2.78249 -1.04892 0)
(2.78201 -1.04841 0)
(2.78128 -1.04789 0)
(2.78044 -1.04738 0)
(2.77945 -1.04681 0)
(2.77898 -1.0465 0)
(2.77798 -1.04593 0)
(2.77685 -1.04472 0)
(2.77499 -1.0426 0)
(2.77161 -1.03824 0)
(2.76724 -1.03161 0)
(2.76114 -1.01996 0)
(2.75388 -1.00407 0)
(2.74452 -0.97988 0)
(2.73325 -0.948538 0)
(2.71942 -0.90667 0)
(2.70262 -0.853771 0)
(2.68425 -0.793423 0)
(2.66131 -0.7147 0)
(2.64116 -0.643237 0)
(2.61341 -0.538159 0)
(2.59574 -0.473567 0)
(2.56977 -0.360444 0)
(2.57119 -0.299299 0)
(2.56483 -0.220074 0)
(2.55929 -0.141741 0)
(2.57373 -0.110413 0)
(2.55623 -0.0332446 0)
(2.55971 -0.012651 0)
(2.54524 0.0285366 0)
(2.54235 0.0457787 0)
(2.54389 0.0539285 0)
(2.54337 0.0638683 0)
(2.54514 0.0580146 0)
(2.55114 0.051617 0)
(2.56549 0.0413915 0)
(2.566 0.0212818 0)
(2.56968 -0.00133659 0)
(2.56711 -0.0276186 0)
(2.56297 -0.0476177 0)
(2.56289 -0.0516108 0)
(2.56671 -0.054114 0)
(2.56863 -0.0519501 0)
(2.56748 -0.0484595 0)
(2.5693 -0.034713 0)
(2.56302 -0.0267409 0)
(2.56085 -0.0134698 0)
(2.54712 -0.0102329 0)
(2.5368 -0.0150216 0)
(2.53299 -0.0226708 0)
(2.53049 -0.0310677 0)
(2.53077 -0.0404768 0)
(2.53548 -0.0479022 0)
(2.54517 -0.0503046 0)
(2.54979 -0.0442531 0)
(2.56081 -0.0321894 0)
(2.57441 -0.0267513 0)
(2.589 -0.0188547 0)
(2.60339 -0.00305052 0)
(2.60878 0.0111934 0)
(2.61329 0.0228597 0)
(2.61769 0.0309297 0)
(2.6193 0.0355315 0)
(2.61916 0.0375968 0)
(2.61774 0.037118 0)
(2.61502 0.0327428 0)
(2.61563 0.0282593 0)
(2.61578 0.0248013 0)
(2.61754 0.0247083 0)
(2.62007 0.0266745 0)
(2.62422 0.0256549 0)
(2.62487 0.0234195 0)
(2.62654 0.0226106 0)
(2.62888 0.0220038 0)
(2.63284 0.0226915 0)
(2.63749 0.0212217 0)
(2.64128 0.0195989 0)
(2.6479 0.0190125 0)
(2.65501 0.0217364 0)
(2.6627 0.0244185 0)
(2.67615 0.0309346 0)
(2.69372 0.0336677 0)
(2.712 0.0337732 0)
(2.73009 0.0346718 0)
(2.74964 0.037589 0)
(2.77073 0.0380785 0)
(2.79181 0.0377346 0)
(2.81332 0.0376923 0)
(2.83259 0.0393367 0)
(2.84589 0.0445865 0)
(2.85299 0.048126 0)
(2.86322 0.0520962 0)
(2.89778 0.0648921 0)
(2.95984 0.0912826 0)
(3.02002 0.130519 0)
(3.05708 0.165461 0)
(3.04946 0.164016 0)
(2.9856 0.134248 0)
(2.95658 0.0878156 0)
(2.77559 -1.04324 0)
(2.77477 -1.04269 0)
(2.77378 -1.04215 0)
(2.77249 -1.04159 0)
(2.77115 -1.04099 0)
(2.77006 -1.04045 0)
(2.7685 -1.03977 0)
(2.76698 -1.0391 0)
(2.76555 -1.03858 0)
(2.76477 -1.03834 0)
(2.76371 -1.03777 0)
(2.76248 -1.03691 0)
(2.76132 -1.03637 0)
(2.76008 -1.03588 0)
(2.75885 -1.03468 0)
(2.75758 -1.03375 0)
(2.75682 -1.03345 0)
(2.75597 -1.03322 0)
(2.75489 -1.03302 0)
(2.75364 -1.03213 0)
(2.75267 -1.03169 0)
(2.7504 -1.02898 0)
(2.74552 -1.02181 0)
(2.73548 -1.00523 0)
(2.72164 -0.976944 0)
(2.70269 -0.936078 0)
(2.68083 -0.877431 0)
(2.65874 -0.811698 0)
(2.63229 -0.718624 0)
(2.61239 -0.64338 0)
(2.58385 -0.536088 0)
(2.56121 -0.445115 0)
(2.54525 -0.371424 0)
(2.51538 -0.268045 0)
(2.50744 -0.230977 0)
(2.49184 -0.164179 0)
(2.49136 -0.14469 0)
(2.49005 -0.126815 0)
(2.49215 -0.113587 0)
(2.49764 -0.0914265 0)
(2.49899 -0.0862196 0)
(2.49895 -0.0822826 0)
(2.49644 -0.0778784 0)
(2.48863 -0.0675168 0)
(2.4784 -0.0453098 0)
(2.47271 -0.0228319 0)
(2.46863 -0.0179696 0)
(2.45929 -0.0198604 0)
(2.44965 -0.0239477 0)
(2.4454 -0.0301227 0)
(2.4482 -0.0369315 0)
(2.44925 -0.0427938 0)
(2.45114 -0.0472341 0)
(2.45661 -0.0526411 0)
(2.46302 -0.0535318 0)
(2.46397 -0.0518244 0)
(2.46579 -0.0407318 0)
(2.46468 -0.0322629 0)
(2.46456 -0.0217206 0)
(2.46157 -0.00555937 0)
(2.45765 0.00966894 0)
(2.45534 0.0212242 0)
(2.4563 0.0353826 0)
(2.45596 0.0358502 0)
(2.45676 0.0309724 0)
(2.45743 0.0278423 0)
(2.45723 0.0243219 0)
(2.46013 0.0204328 0)
(2.46193 0.0213609 0)
(2.46527 0.0246108 0)
(2.46749 0.0269372 0)
(2.471 0.0221776 0)
(2.47108 0.0197571 0)
(2.47331 0.0158875 0)
(2.4776 0.0165938 0)
(2.48208 0.0192863 0)
(2.48548 0.0209566 0)
(2.48968 0.0208986 0)
(2.49673 0.0186701 0)
(2.50444 0.0207055 0)
(2.51329 0.0227368 0)
(2.52784 0.0272221 0)
(2.54425 0.0293024 0)
(2.56052 0.0307705 0)
(2.57742 0.0324601 0)
(2.59616 0.0342076 0)
(2.61597 0.0353533 0)
(2.63473 0.0354719 0)
(2.65325 0.0386399 0)
(2.67025 0.0429976 0)
(2.6818 0.0391313 0)
(2.68777 0.0349049 0)
(2.69989 0.0381277 0)
(2.74258 0.0535823 0)
(2.81922 0.0781082 0)
(2.91237 0.119927 0)
(2.99096 0.158345 0)
(3.0177 0.168818 0)
(2.97231 0.139702 0)
(2.94822 0.0877305 0)
(2.76637 -1.03633 0)
(2.76535 -1.03585 0)
(2.76421 -1.03532 0)
(2.76321 -1.03487 0)
(2.76213 -1.0345 0)
(2.76076 -1.0338 0)
(2.75951 -1.03318 0)
(2.75854 -1.03279 0)
(2.75786 -1.03267 0)
(2.75688 -1.03245 0)
(2.75575 -1.03179 0)
(2.75472 -1.03115 0)
(2.75374 -1.03079 0)
(2.75278 -1.03073 0)
(2.75203 -1.03042 0)
(2.75141 -1.03019 0)
(2.75098 -1.02987 0)
(2.75045 -1.02987 0)
(2.74998 -1.02955 0)
(2.74941 -1.0295 0)
(2.74896 -1.02914 0)
(2.74849 -1.02889 0)
(2.74808 -1.02866 0)
(2.74768 -1.02838 0)
(2.74734 -1.02818 0)
(2.74693 -1.02792 0)
(2.74649 -1.02758 0)
(2.74617 -1.0274 0)
(2.74581 -1.02725 0)
(2.74544 -1.02675 0)
(2.74277 -1.02142 0)
(2.73501 -1.00433 0)
(2.71895 -0.967995 0)
(2.69023 -0.900805 0)
(2.65552 -0.807196 0)
(2.61317 -0.690282 0)
(2.56436 -0.543339 0)
(2.54463 -0.438895 0)
(2.51151 -0.28334 0)
(2.51332 -0.207022 0)
(2.49737 -0.114843 0)
(2.48508 -0.0452175 0)
(2.46631 0.0162623 0)
(2.44864 0.0488957 0)
(2.44312 0.0524164 0)
(2.43528 0.0411354 0)
(2.42917 0.0057464 0)
(2.42791 -0.0199283 0)
(2.43172 -0.0359388 0)
(2.43341 -0.0406028 0)
(2.43754 -0.0417715 0)
(2.4396 -0.0462829 0)
(2.43819 -0.051695 0)
(2.43636 -0.0536422 0)
(2.43209 -0.0478608 0)
(2.42746 -0.0435742 0)
(2.42333 -0.0418936 0)
(2.41592 -0.0359086 0)
(2.40996 -0.0242936 0)
(2.40168 -0.0101435 0)
(2.39301 0.00432523 0)
(2.38428 0.022531 0)
(2.37644 0.0377268 0)
(2.37184 0.0378844 0)
(2.37168 0.0351485 0)
(2.37329 0.0307646 0)
(2.37445 0.0229724 0)
(2.37656 0.0217826 0)
(2.38012 0.0221233 0)
(2.38292 0.0272219 0)
(2.38473 0.0254565 0)
(2.38531 0.0238131 0)
(2.38596 0.0195028 0)
(2.38777 0.0175399 0)
(2.3922 0.0190675 0)
(2.39563 0.0198909 0)
(2.39793 0.020039 0)
(2.40157 0.0184895 0)
(2.40686 0.0183761 0)
(2.41223 0.020329 0)
(2.42008 0.0232273 0)
(2.43298 0.0271774 0)
(2.44534 0.0274849 0)
(2.45802 0.0275056 0)
(2.47123 0.0289852 0)
(2.48519 0.0321643 0)
(2.49931 0.033388 0)
(2.51258 0.0327305 0)
(2.52423 0.0334963 0)
(2.53658 0.034268 0)
(2.54692 0.0367416 0)
(2.55723 0.0405826 0)
(2.57684 0.0408783 0)
(2.62856 0.0477179 0)
(2.70931 0.0670812 0)
(2.80361 0.107877 0)
(2.89655 0.149152 0)
(2.95485 0.169731 0)
(2.94493 0.143786 0)
(2.93787 0.0873063 0)
(2.75713 -1.03185 0)
(2.75649 -1.03159 0)
(2.75586 -1.03139 0)
(2.75523 -1.03127 0)
(2.7546 -1.03112 0)
(2.75398 -1.03079 0)
(2.75333 -1.03051 0)
(2.75293 -1.03039 0)
(2.75252 -1.03028 0)
(2.75203 -1.0302 0)
(2.75156 -1.03008 0)
(2.75116 -1.0298 0)
(2.75084 -1.0296 0)
(2.75057 -1.02955 0)
(2.75036 -1.02956 0)
(2.75023 -1.02941 0)
(2.7501 -1.02932 0)
(2.74996 -1.02926 0)
(2.74983 -1.02921 0)
(2.74974 -1.02911 0)
(2.74956 -1.0289 0)
(2.74932 -1.02878 0)
(2.7491 -1.02864 0)
(2.74897 -1.02846 0)
(2.74871 -1.02818 0)
(2.74848 -1.02796 0)
(2.74827 -1.02772 0)
(2.74803 -1.02754 0)
(2.74777 -1.02735 0)
(2.74749 -1.02715 0)
(2.74708 -1.02697 0)
(2.74665 -1.02672 0)
(2.74614 -1.02651 0)
(2.74548 -1.02634 0)
(2.74481 -1.02609 0)
(2.74379 -1.02551 0)
(2.74187 -1.02184 0)
(2.73414 -1.00585 0)
(2.7159 -0.96307 0)
(2.69279 -0.897152 0)
(2.66079 -0.782225 0)
(2.63723 -0.681316 0)
(2.60556 -0.523491 0)
(2.59595 -0.43336 0)
(2.56677 -0.295909 0)
(2.53181 -0.208632 0)
(2.5252 -0.156975 0)
(2.48579 -0.100273 0)
(2.47319 -0.0713578 0)
(2.46499 -0.0502239 0)
(2.45521 -0.0390919 0)
(2.44671 -0.0422872 0)
(2.43862 -0.0407744 0)
(2.43197 -0.0373197 0)
(2.41307 -0.0358452 0)
(2.39834 -0.0372294 0)
(2.38893 -0.0338572 0)
(2.38451 -0.0278358 0)
(2.38359 -0.0180735 0)
(2.38241 -0.00467307 0)
(2.37837 0.0100904 0)
(2.36812 0.0280931 0)
(2.35457 0.0360933 0)
(2.3474 0.0331321 0)
(2.34369 0.027965 0)
(2.34485 0.0204561 0)
(2.34698 0.0192806 0)
(2.35051 0.0206721 0)
(2.35354 0.0248858 0)
(2.35675 0.0254127 0)
(2.35658 0.0224808 0)
(2.35622 0.0173286 0)
(2.35635 0.0152056 0)
(2.35757 0.0153998 0)
(2.36119 0.0186492 0)
(2.36242 0.0194105 0)
(2.36316 0.0184574 0)
(2.36603 0.0164319 0)
(2.36784 0.0167801 0)
(2.37277 0.0181218 0)
(2.37913 0.0206242 0)
(2.38848 0.0236804 0)
(2.3975 0.0247259 0)
(2.40681 0.025389 0)
(2.41489 0.0271461 0)
(2.42222 0.0309953 0)
(2.43094 0.031972 0)
(2.43801 0.0322799 0)
(2.44481 0.0339562 0)
(2.45512 0.0360528 0)
(2.4684 0.0368773 0)
(2.48863 0.0358073 0)
(2.52831 0.0320506 0)
(2.5861 0.0360886 0)
(2.65676 0.053151 0)
(2.7272 0.0946803 0)
(2.80406 0.136488 0)
(2.87958 0.163421 0)
(2.90718 0.143692 0)
(2.92633 0.0853091 0)
(2.75231 -1.02834 0)
(2.7521 -1.02827 0)
(2.7519 -1.02827 0)
(2.75172 -1.02827 0)
(2.75157 -1.0282 0)
(2.75144 -1.02815 0)
(2.75135 -1.02815 0)
(2.7513 -1.02816 0)
(2.75122 -1.02822 0)
(2.75115 -1.02823 0)
(2.75109 -1.02819 0)
(2.75103 -1.0282 0)
(2.75099 -1.02822 0)
(2.751 -1.02813 0)
(2.75106 -1.02801 0)
(2.75103 -1.02807 0)
(2.75105 -1.02815 0)
(2.75101 -1.02813 0)
(2.75094 -1.0281 0)
(2.75088 -1.02805 0)
(2.75077 -1.02798 0)
(2.75063 -1.02788 0)
(2.75046 -1.02774 0)
(2.75024 -1.02757 0)
(2.74997 -1.0274 0)
(2.74971 -1.0272 0)
(2.74943 -1.02697 0)
(2.74906 -1.02683 0)
(2.74868 -1.02658 0)
(2.74827 -1.02633 0)
(2.74782 -1.02608 0)
(2.74727 -1.02597 0)
(2.74681 -1.02558 0)
(2.74622 -1.02527 0)
(2.74556 -1.02495 0)
(2.74478 -1.02461 0)
(2.74392 -1.02434 0)
(2.74318 -1.02375 0)
(2.7422 -1.02347 0)
(2.74134 -1.02251 0)
(2.74025 -1.02203 0)
(2.73838 -1.02097 0)
(2.73428 -1.0109 0)
(2.72363 -0.976166 0)
(2.69652 -0.886815 0)
(2.65325 -0.720641 0)
(2.62938 -0.583262 0)
(2.56693 -0.353827 0)
(2.54734 -0.247754 0)
(2.51445 -0.146011 0)
(2.48499 -0.0662165 0)
(2.45132 -0.0201256 0)
(2.4318 -0.0131866 0)
(2.41967 -0.0208318 0)
(2.40824 -0.0327279 0)
(2.39174 -0.03264 0)
(2.39074 -0.0244199 0)
(2.39324 -0.012984 0)
(2.38955 -0.00510268 0)
(2.38847 0.00583817 0)
(2.38317 0.019171 0)
(2.36911 0.0281936 0)
(2.35196 0.0262633 0)
(2.34582 0.0232515 0)
(2.34106 0.020331 0)
(2.34209 0.018908 0)
(2.34654 0.0209309 0)
(2.35066 0.0271572 0)
(2.35096 0.0268482 0)
(2.35026 0.0219942 0)
(2.35011 0.0162261 0)
(2.34952 0.0113915 0)
(2.35077 0.0127693 0)
(2.35138 0.0169178 0)
(2.3533 0.0189991 0)
(2.35296 0.0168184 0)
(2.3518 0.013878 0)
(2.35392 0.0134336 0)
(2.35622 0.0152466 0)
(2.36133 0.018153 0)
(2.36753 0.0192357 0)
(2.37466 0.0205613 0)
(2.38183 0.0228632 0)
(2.38865 0.0240702 0)
(2.39282 0.0255289 0)
(2.39412 0.0296363 0)
(2.40002 0.0305931 0)
(2.40428 0.0310046 0)
(2.40978 0.0322191 0)
(2.42052 0.0342555 0)
(2.43788 0.0366221 0)
(2.46606 0.0342917 0)
(2.51152 0.0211206 0)
(2.57006 0.0201781 0)
(2.62782 0.0392804 0)
(2.68154 0.084443 0)
(2.74865 0.12568 0)
(2.82258 0.155542 0)
(2.87153 0.140305 0)
(2.91505 0.0825352 0)
(2.75138 -1.02725 0)
(2.75145 -1.02733 0)
(2.75149 -1.02744 0)
(2.75151 -1.02755 0)
(2.75157 -1.02767 0)
(2.75163 -1.02788 0)
(2.75162 -1.02797 0)
(2.75163 -1.02808 0)
(2.75166 -1.02824 0)
(2.75166 -1.02836 0)
(2.75165 -1.02844 0)
(2.75166 -1.02847 0)
(2.75166 -1.02848 0)
(2.75166 -1.02848 0)
(2.75165 -1.02846 0)
(2.75164 -1.02841 0)
(2.75159 -1.02837 0)
(2.75152 -1.02831 0)
(2.75144 -1.02825 0)
(2.75138 -1.02812 0)
(2.75126 -1.02802 0)
(2.75114 -1.02785 0)
(2.75099 -1.02766 0)
(2.75084 -1.02741 0)
(2.75061 -1.02727 0)
(2.75045 -1.02693 0)
(2.75012 -1.02648 0)
(2.74963 -1.02614 0)
(2.74908 -1.02587 0)
(2.74856 -1.0255 0)
(2.74801 -1.02509 0)
(2.74732 -1.02493 0)
(2.74672 -1.02451 0)
(2.74608 -1.02412 0)
(2.74547 -1.0236 0)
(2.74465 -1.02357 0)
(2.74389 -1.02306 0)
(2.74276 -1.02247 0)
(2.74174 -1.02149 0)
(2.74072 -1.02046 0)
(2.73959 -1.01962 0)
(2.73848 -1.01878 0)
(2.73747 -1.01846 0)
(2.7364 -1.01819 0)
(2.73531 -1.01779 0)
(2.73366 -1.01674 0)
(2.73188 -1.01262 0)
(2.71837 -0.980252 0)
(2.69153 -0.890894 0)
(2.65091 -0.758097 0)
(2.58782 -0.526339 0)
(2.56045 -0.397974 0)
(2.50224 -0.228569 0)
(2.47599 -0.16766 0)
(2.443 -0.102839 0)
(2.42472 -0.0603542 0)
(2.41945 -0.0241955 0)
(2.4178 -0.0015109 0)
(2.41448 0.00708102 0)
(2.4098 0.0159657 0)
(2.39271 0.0206159 0)
(2.3741 0.0125865 0)
(2.35833 0.0092577 0)
(2.34891 0.00774834 0)
(2.34819 0.0123132 0)
(2.35031 0.0209987 0)
(2.35345 0.0285823 0)
(2.35295 0.0293677 0)
(2.35104 0.0251059 0)
(2.34732 0.017818 0)
(2.3454 0.00946829 0)
(2.34679 0.0110011 0)
(2.34988 0.015132 0)
(2.35096 0.0199423 0)
(2.34983 0.0176091 0)
(2.34754 0.0128724 0)
(2.34735 0.00988654 0)
(2.34925 0.0115153 0)
(2.3528 0.0144793 0)
(2.35726 0.0169908 0)
(2.36264 0.0168274 0)
(2.36955 0.0170925 0)
(2.37664 0.0201273 0)
(2.38235 0.0235727 0)
(2.38491 0.0278487 0)
(2.38545 0.0308329 0)
(2.39073 0.0315385 0)
(2.3948 0.0322578 0)
(2.40045 0.03379 0)
(2.41176 0.0356563 0)
(2.43076 0.0356371 0)
(2.46054 0.0282983 0)
(2.50187 0.0146127 0)
(2.55127 0.0114337 0)
(2.59802 0.0289638 0)
(2.65348 0.0721877 0)
(2.72472 0.113251 0)
(2.79185 0.143786 0)
(2.84508 0.131667 0)
(2.90538 0.078204 0)
(2.75125 -1.02878 0)
(2.75134 -1.02886 0)
(2.75139 -1.02893 0)
(2.75148 -1.02902 0)
(2.75157 -1.02908 0)
(2.75163 -1.02917 0)
(2.75165 -1.02921 0)
(2.75169 -1.02924 0)
(2.75179 -1.02926 0)
(2.75182 -1.02923 0)
(2.7518 -1.02921 0)
(2.75181 -1.02915 0)
(2.75182 -1.02907 0)
(2.75178 -1.02902 0)
(2.75177 -1.02887 0)
(2.75182 -1.02873 0)
(2.75178 -1.02855 0)
(2.75165 -1.02834 0)
(2.75163 -1.02799 0)
(2.75167 -1.0277 0)
(2.75144 -1.0273 0)
(2.75121 -1.02694 0)
(2.751 -1.0266 0)
(2.75074 -1.02624 0)
(2.75037 -1.02598 0)
(2.75001 -1.02562 0)
(2.74962 -1.02527 0)
(2.74923 -1.02484 0)
(2.74871 -1.02452 0)
(2.7482 -1.02412 0)
(2.74766 -1.02375 0)
(2.74712 -1.02332 0)
(2.74648 -1.023 0)
(2.74589 -1.02252 0)
(2.74529 -1.02201 0)
(2.74461 -1.02153 0)
(2.74375 -1.02106 0)
(2.74274 -1.02061 0)
(2.74175 -1.0199 0)
(2.74071 -1.01944 0)
(2.73987 -1.01861 0)
(2.73885 -1.01821 0)
(2.73795 -1.0176 0)
(2.73699 -1.01691 0)
(2.73598 -1.01632 0)
(2.73499 -1.01541 0)
(2.73379 -1.01471 0)
(2.73259 -1.01376 0)
(2.73144 -1.01312 0)
(2.72956 -1.01222 0)
(2.72542 -1.00274 0)
(2.70745 -0.95236 0)
(2.65518 -0.808611 0)
(2.58603 -0.579153 0)
(2.54204 -0.391551 0)
(2.47431 -0.166932 0)
(2.45947 -0.0971491 0)
(2.44806 -0.0425217 0)
(2.44317 -0.000535266 0)
(2.42195 0.0218537 0)
(2.40529 0.0170431 0)
(2.38663 0.00846121 0)
(2.37254 0.0122795 0)
(2.36433 0.0129217 0)
(2.3601 0.0179017 0)
(2.36359 0.0327154 0)
(2.35974 0.0324818 0)
(2.35572 0.0278883 0)
(2.3511 0.0202636 0)
(2.34712 0.0119397 0)
(2.34725 0.0115768 0)
(2.35086 0.0171486 0)
(2.3518 0.0204309 0)
(2.35093 0.018904 0)
(2.34818 0.0141144 0)
(2.34677 0.0106971 0)
(2.34786 0.0112536 0)
(2.34895 0.0136367 0)
(2.35071 0.0159348 0)
(2.35399 0.0155599 0)
(2.35933 0.0157844 0)
(2.36606 0.0174254 0)
(2.37311 0.0207723 0)
(2.37905 0.0256837 0)
(2.38183 0.0307426 0)
(2.38334 0.031392 0)
(2.38841 0.0318788 0)
(2.39299 0.0328906 0)
(2.39959 0.0341814 0)
(2.41277 0.0355493 0)
(2.43302 0.0342758 0)
(2.4643 0.0255736 0)
(2.5084 0.00863467 0)
(2.54975 0.00386755 0)
(2.58674 0.0225356 0)
(2.63009 0.0601035 0)
(2.69283 0.10183 0)
(2.77014 0.134138 0)
(2.82966 0.1227 0)
(2.89819 0.0735583 0)
(2.75199 -1.02943 0)
(2.75206 -1.02948 0)
(2.75214 -1.02951 0)
(2.7522 -1.02953 0)
(2.75226 -1.02953 0)
(2.7523 -1.02948 0)
(2.75231 -1.02943 0)
(2.7523 -1.02942 0)
(2.75237 -1.02934 0)
(2.75236 -1.02916 0)
(2.75221 -1.02899 0)
(2.75217 -1.02878 0)
(2.75213 -1.02861 0)
(2.75199 -1.02841 0)
(2.7519 -1.02819 0)
(2.75182 -1.02803 0)
(2.75159 -1.0278 0)
(2.75141 -1.02752 0)
(2.75135 -1.02731 0)
(2.75122 -1.0271 0)
(2.75101 -1.02676 0)
(2.75077 -1.02637 0)
(2.75053 -1.02605 0)
(2.75028 -1.02566 0)
(2.74998 -1.02526 0)
(2.74956 -1.02498 0)
(2.74924 -1.02452 0)
(2.74889 -1.024 0)
(2.74842 -1.02363 0)
(2.74792 -1.02325 0)
(2.74744 -1.02276 0)
(2.7469 -1.02217 0)
(2.74624 -1.02177 0)
(2.74561 -1.02126 0)
(2.74494 -1.02079 0)
(2.74421 -1.02008 0)
(2.74333 -1.01939 0)
(2.74239 -1.0185 0)
(2.74132 -1.01789 0)
(2.7404 -1.01742 0)
(2.73956 -1.017 0)
(2.73886 -1.01637 0)
(2.73809 -1.01559 0)
(2.73723 -1.01495 0)
(2.73637 -1.01413 0)
(2.73543 -1.01377 0)
(2.73463 -1.01308 0)
(2.73356 -1.01294 0)
(2.73266 -1.0118 0)
(2.73144 -1.01136 0)
(2.73016 -1.01036 0)
(2.72884 -1.00963 0)
(2.72664 -1.0083 0)
(2.72414 -1.00331 0)
(2.70431 -0.956825 0)
(2.65277 -0.818551 0)
(2.58445 -0.577169 0)
(2.53314 -0.348641 0)
(2.48386 -0.161569 0)
(2.46404 -0.0732374 0)
(2.44308 -0.0407201 0)
(2.41846 -0.0210675 0)
(2.39589 0.000538153 0)
(2.3821 0.0190983 0)
(2.37217 0.0403322 0)
(2.36283 0.0357234 0)
(2.35643 0.0286186 0)
(2.35117 0.0178931 0)
(2.34787 0.00532216 0)
(2.34859 0.00709884 0)
(2.35351 0.0174839 0)
(2.35474 0.0241986 0)
(2.35376 0.0227009 0)
(2.35068 0.0154057 0)
(2.34824 0.00918507 0)
(2.34837 0.0114122 0)
(2.34943 0.0155923 0)
(2.35019 0.017947 0)
(2.35114 0.0159712 0)
(2.35376 0.01591 0)
(2.35903 0.0170264 0)
(2.36575 0.0189662 0)
(2.37248 0.0217008 0)
(2.37756 0.0276932 0)
(2.38043 0.031273 0)
(2.38296 0.0301654 0)
(2.38785 0.0304851 0)
(2.39366 0.0317021 0)
(2.40347 0.0322782 0)
(2.42138 0.0312129 0)
(2.44798 0.0275518 0)
(2.48613 0.0158278 0)
(2.53131 -0.00282126 0)
(2.56576 -0.00220896 0)
(2.59258 0.0187445 0)
(2.62416 0.0560625 0)
(2.67724 0.0904198 0)
(2.75955 0.120289 0)
(2.8268 0.111825 0)
(2.8965 0.0658167 0)
(2.75254 -1.03032 0)
(2.75258 -1.03027 0)
(2.75259 -1.0302 0)
(2.75262 -1.03015 0)
(2.75263 -1.03001 0)
(2.75256 -1.02986 0)
(2.75256 -1.02971 0)
(2.75258 -1.02954 0)
(2.75245 -1.02934 0)
(2.75238 -1.02911 0)
(2.7523 -1.02882 0)
(2.75211 -1.02862 0)
(2.75209 -1.0284 0)
(2.75197 -1.02817 0)
(2.75173 -1.02789 0)
(2.7517 -1.02749 0)
(2.75164 -1.02713 0)
(2.75145 -1.0268 0)
(2.75128 -1.02643 0)
(2.75092 -1.02615 0)
(2.75068 -1.02572 0)
(2.75039 -1.02522 0)
(2.74999 -1.02496 0)
(2.74968 -1.02456 0)
(2.74939 -1.02401 0)
(2.74889 -1.02368 0)
(2.74849 -1.0232 0)
(2.74811 -1.02267 0)
(2.74763 -1.02222 0)
(2.74704 -1.02189 0)
(2.74658 -1.02128 0)
(2.74594 -1.02078 0)
(2.74531 -1.02019 0)
(2.74463 -1.0196 0)
(2.74407 -1.01884 0)
(2.74343 -1.01826 0)
(2.74282 -1.01779 0)
(2.74228 -1.0174 0)
(2.74179 -1.01708 0)
(2.74133 -1.01666 0)
(2.74063 -1.01621 0)
(2.73995 -1.01542 0)
(2.73912 -1.01483 0)
(2.73843 -1.01398 0)
(2.73753 -1.01343 0)
(2.73676 -1.01254 0)
(2.73574 -1.01188 0)
(2.73474 -1.01075 0)
(2.73348 -1.01017 0)
(2.7324 -1.00929 0)
(2.73128 -1.00865 0)
(2.73001 -1.00807 0)
(2.72892 -1.00683 0)
(2.72711 -1.00644 0)
(2.72557 -1.0052 0)
(2.7224 -1.00367 0)
(2.71857 -0.996372 0)
(2.69354 -0.937055 0)
(2.62138 -0.722748 0)
(2.58033 -0.506522 0)
(2.50717 -0.239649 0)
(2.44666 -0.0711312 0)
(2.42052 -0.000362117 0)
(2.37966 0.0534306 0)
(2.36807 0.0613344 0)
(2.35926 0.0391132 0)
(2.35672 0.0232419 0)
(2.3525 0.010197 0)
(2.3525 0.00744731 0)
(2.35852 0.0185361 0)
(2.35981 0.030569 0)
(2.35726 0.0286763 0)
(2.35297 0.020372 0)
(2.3487 0.0104376 0)
(2.34841 0.0104901 0)
(2.35063 0.0156024 0)
(2.35125 0.021809 0)
(2.35017 0.0203791 0)
(2.35111 0.0162374 0)
(2.35351 0.0148724 0)
(2.35934 0.0165753 0)
(2.36622 0.0198219 0)
(2.37201 0.0235053 0)
(2.3762 0.0271947 0)
(2.38063 0.0281877 0)
(2.38574 0.0278759 0)
(2.39096 0.0277964 0)
(2.40001 0.0269429 0)
(2.4174 0.0257923 0)
(2.4432 0.0254891 0)
(2.47737 0.0201481 0)
(2.51806 0.00448762 0)
(2.5574 -0.013178 0)
(2.5839 -0.010049 0)
(2.60452 0.0103346 0)
(2.63038 0.0471685 0)
(2.6784 0.0776912 0)
(2.75193 0.105734 0)
(2.81974 0.0994698 0)
(2.89191 0.0606691 0)
(2.75311 -1.03063 0)
(2.75311 -1.03049 0)
(2.75311 -1.03044 0)
(2.75303 -1.03022 0)
(2.75286 -1.03 0)
(2.75279 -1.0297 0)
(2.75281 -1.02955 0)
(2.75272 -1.02924 0)
(2.75256 -1.02897 0)
(2.75257 -1.02867 0)
(2.75243 -1.0284 0)
(2.75222 -1.02811 0)
(2.75221 -1.02779 0)
(2.75206 -1.02746 0)
(2.7518 -1.02728 0)
(2.75161 -1.02691 0)
(2.75137 -1.02662 0)
(2.75119 -1.02634 0)
(2.75116 -1.02599 0)
(2.75087 -1.02567 0)
(2.7505 -1.02515 0)
(2.75046 -1.02456 0)
(2.75016 -1.02422 0)
(2.74997 -1.02378 0)
(2.74964 -1.02325 0)
(2.74921 -1.02278 0)
(2.74894 -1.02226 0)
(2.74865 -1.02174 0)
(2.74821 -1.02137 0)
(2.74777 -1.02079 0)
(2.74727 -1.02023 0)
(2.74671 -1.0197 0)
(2.74606 -1.0192 0)
(2.7456 -1.01855 0)
(2.74511 -1.01806 0)
(2.74467 -1.01761 0)
(2.74419 -1.01717 0)
(2.7436 -1.01677 0)
(2.74301 -1.01602 0)
(2.74215 -1.01537 0)
(2.74145 -1.01438 0)
(2.74063 -1.01385 0)
(2.73998 -1.01317 0)
(2.7392 -1.01285 0)
(2.73845 -1.01225 0)
(2.7376 -1.01168 0)
(2.73672 -1.01098 0)
(2.73583 -1.01027 0)
(2.73493 -1.00958 0)
(2.73392 -1.00893 0)
(2.73283 -1.00802 0)
(2.7315 -1.00719 0)
(2.72998 -1.00647 0)
(2.72855 -1.00519 0)
(2.72689 -1.00392 0)
(2.72522 -1.00232 0)
(2.72239 -1.00245 0)
(2.72014 -0.999475 0)
(2.71288 -0.999936 0)
(2.70391 -0.98177 0)
(2.65996 -0.882926 0)
(2.59842 -0.708625 0)
(2.51497 -0.435791 0)
(2.47273 -0.271433 0)
(2.40826 -0.0967648 0)
(2.4093 -0.0673119 0)
(2.3859 -0.0252886 0)
(2.37609 0.000469204 0)
(2.36751 0.0163828 0)
(2.3594 0.0358952 0)
(2.35506 0.0342592 0)
(2.3467 0.0208573 0)
(2.34321 0.00234174 0)
(2.34454 0.00523624 0)
(2.34826 0.01209 0)
(2.35191 0.0212847 0)
(2.35095 0.0222991 0)
(2.3484 0.0181707 0)
(2.34895 0.0132794 0)
(2.35261 0.0137286 0)
(2.35898 0.0172193 0)
(2.3652 0.0214074 0)
(2.37013 0.0223728 0)
(2.37609 0.0229266 0)
(2.38305 0.0232716 0)
(2.38973 0.02401 0)
(2.39851 0.0240442 0)
(2.41513 0.0196268 0)
(2.44017 0.0144389 0)
(2.47211 0.0115153 0)
(2.509 0.00465552 0)
(2.5461 -0.0107313 0)
(2.57733 -0.0227078 0)
(2.59762 -0.0137815 0)
(2.61645 0.00766668 0)
(2.64202 0.0428614 0)
(2.68786 0.0697225 0)
(2.7545 0.0933147 0)
(2.81562 0.0872875 0)
(2.88758 0.0541107 0)
(2.75414 -1.03003 0)
(2.75401 -1.02977 0)
(2.75399 -1.02973 0)
(2.75391 -1.02965 0)
(2.75367 -1.02929 0)
(2.75354 -1.0291 0)
(2.75346 -1.02882 0)
(2.75348 -1.02865 0)
(2.75332 -1.02831 0)
(2.75312 -1.02797 0)
(2.75314 -1.02759 0)
(2.75294 -1.02726 0)
(2.75278 -1.02708 0)
(2.75258 -1.0268 0)
(2.75236 -1.02648 0)
(2.75215 -1.02619 0)
(2.75189 -1.02588 0)
(2.75183 -1.02542 0)
(2.75176 -1.02496 0)
(2.75143 -1.0247 0)
(2.75125 -1.02412 0)
(2.75106 -1.02358 0)
(2.75079 -1.02318 0)
(2.75079 -1.02271 0)
(2.75046 -1.02232 0)
(2.74997 -1.02187 0)
(2.74981 -1.02111 0)
(2.74952 -1.02066 0)
(2.7491 -1.0204 0)
(2.74871 -1.01977 0)
(2.74831 -1.01898 0)
(2.74776 -1.01862 0)
(2.74701 -1.01809 0)
(2.7468 -1.0176 0)
(2.74644 -1.01705 0)
(2.74591 -1.01648 0)
(2.74537 -1.0159 0)
(2.74475 -1.01517 0)
(2.7441 -1.01454 0)
(2.74345 -1.01389 0)
(2.7427 -1.01337 0)
(2.74204 -1.01259 0)
(2.74126 -1.01199 0)
(2.74053 -1.01115 0)
(2.73967 -1.01054 0)
(2.73882 -1.00986 0)
(2.73786 -1.00917 0)
(2.7369 -1.00856 0)
(2.73607 -1.00789 0)
(2.73511 -1.00719 0)
(2.73408 -1.00626 0)
(2.73277 -1.00548 0)
(2.73135 -1.00435 0)
(2.72965 -1.00356 0)
(2.72796 -1.00284 0)
(2.72612 -1.00206 0)
(2.72424 -1.00015 0)
(2.72118 -0.999451 0)
(2.71713 -0.998149 0)
(2.71034 -0.996719 0)
(2.6993 -0.995078 0)
(2.67124 -0.99618 0)
(2.64937 -0.968657 0)
(2.60186 -0.870932 0)
(2.5112 -0.592128 0)
(2.49263 -0.378668 0)
(2.41627 -0.108929 0)
(2.41141 -0.0228557 0)
(2.36283 0.0608437 0)
(2.3583 0.06291 0)
(2.35452 0.0344008 0)
(2.34733 0.0115281 0)
(2.34707 0.00740634 0)
(2.3486 0.00824481 0)
(2.3554 0.0260286 0)
(2.35308 0.0261821 0)
(2.34816 0.0206107 0)
(2.34582 0.0124391 0)
(2.34751 0.011741 0)
(2.35243 0.0160943 0)
(2.35908 0.0217238 0)
(2.36276 0.0200865 0)
(2.36989 0.0180709 0)
(2.37868 0.0187391 0)
(2.38737 0.0202463 0)
(2.39679 0.0219284 0)
(2.4122 0.0182992 0)
(2.43608 0.00975741 0)
(2.46701 0.00392324 0)
(2.50118 0.000558254 0)
(2.53597 -0.00820491 0)
(2.56706 -0.0238568 0)
(2.59148 -0.0290513 0)
(2.60714 -0.0179231 0)
(2.62484 0.00286452 0)
(2.65132 0.0358277 0)
(2.69592 0.0592706 0)
(2.75652 0.0803263 0)
(2.81313 0.0759173 0)
(2.88314 0.0487525 0)
(2.75552 -1.02873 0)
(2.75537 -1.02852 0)
(2.75513 -1.02822 0)
(2.75508 -1.02813 0)
(2.75497 -1.02794 0)
(2.75473 -1.02761 0)
(2.75456 -1.0273 0)
(2.75445 -1.02691 0)
(2.7544 -1.0268 0)
(2.75423 -1.02644 0)
(2.75405 -1.02601 0)
(2.75391 -1.02576 0)
(2.75372 -1.0256 0)
(2.75336 -1.02539 0)
(2.75304 -1.02502 0)
(2.7529 -1.02462 0)
(2.75265 -1.02439 0)
(2.75262 -1.02401 0)
(2.75255 -1.02349 0)
(2.75227 -1.02318 0)
(2.75213 -1.02258 0)
(2.7518 -1.02211 0)
(2.75148 -1.0216 0)
(2.75151 -1.0211 0)
(2.75122 -1.0207 0)
(2.75077 -1.02033 0)
(2.75057 -1.01966 0)
(2.75041 -1.01904 0)
(2.74997 -1.01871 0)
(2.74946 -1.01822 0)
(2.74913 -1.01747 0)
(2.7487 -1.01685 0)
(2.74822 -1.01618 0)
(2.74807 -1.01585 0)
(2.74773 -1.01554 0)
(2.74707 -1.01509 0)
(2.74654 -1.01456 0)
(2.74598 -1.01402 0)
(2.74541 -1.01348 0)
(2.74478 -1.01303 0)
(2.74407 -1.01246 0)
(2.74332 -1.0119 0)
(2.7426 -1.01119 0)
(2.74184 -1.0105 0)
(2.74109 -1.0098 0)
(2.74039 -1.00902 0)
(2.73963 -1.00824 0)
(2.73874 -1.0073 0)
(2.73757 -1.0065 0)
(2.7362 -1.00604 0)
(2.73505 -1.00529 0)
(2.73372 -1.00456 0)
(2.73237 -1.00358 0)
(2.73095 -1.00253 0)
(2.7294 -1.00141 0)
(2.7276 -1.00026 0)
(2.72539 -0.999284 0)
(2.7226 -0.99795 0)
(2.71849 -0.996676 0)
(2.71172 -0.995761 0)
(2.69979 -0.994599 0)
(2.67942 -0.994267 0)
(2.65281 -0.994584 0)
(2.63298 -0.995134 0)
(2.62669 -0.992309 0)
(2.61428 -0.951456 0)
(2.56873 -0.796381 0)
(2.50464 -0.509964 0)
(2.47141 -0.300788 0)
(2.40849 -0.113382 0)
(2.40952 -0.0698087 0)
(2.38323 -0.02114 0)
(2.36889 0.00423416 0)
(2.3599 0.0255024 0)
(2.35436 0.0344388 0)
(2.34432 0.024243 0)
(2.33921 0.00588763 0)
(2.34148 0.00556956 0)
(2.34705 0.0115642 0)
(2.3547 0.0233336 0)
(2.36027 0.0196656 0)
(2.36337 0.0161065 0)
(2.36976 0.0128025 0)
(2.3813 0.0127501 0)
(2.39374 0.0151074 0)
(2.40829 0.0172597 0)
(2.4313 0.0131183 0)
(2.4599 0.0012969 0)
(2.49203 -0.00850646 0)
(2.52433 -0.0150121 0)
(2.55577 -0.0246336 0)
(2.58369 -0.0333581 0)
(2.60242 -0.033411 0)
(2.61555 -0.0211634 0)
(2.63243 -0.00182316 0)
(2.6591 0.027915 0)
(2.70293 0.0491093 0)
(2.76101 0.0681519 0)
(2.81637 0.0632578 0)
(2.88276 0.0402636 0)
(2.75654 -1.02671 0)
(2.75634 -1.0265 0)
(2.75623 -1.02625 0)
(2.75616 -1.02614 0)
(2.75593 -1.02584 0)
(2.75574 -1.02549 0)
(2.75555 -1.0252 0)
(2.75524 -1.02486 0)
(2.75509 -1.02468 0)
(2.755 -1.0246 0)
(2.75482 -1.02441 0)
(2.75465 -1.02415 0)
(2.75452 -1.02385 0)
(2.75432 -1.02369 0)
(2.75406 -1.02337 0)
(2.7537 -1.02296 0)
(2.75329 -1.02264 0)
(2.75324 -1.02228 0)
(2.75315 -1.0219 0)
(2.75285 -1.02142 0)
(2.75291 -1.021 0)
(2.75274 -1.02059 0)
(2.75266 -1.02013 0)
(2.7527 -1.01992 0)
(2.75256 -1.01947 0)
(2.75234 -1.0191 0)
(2.7522 -1.01864 0)
(2.752 -1.01803 0)
(2.7517 -1.01753 0)
(2.75125 -1.01713 0)
(2.75074 -1.01641 0)
(2.75053 -1.01586 0)
(2.7503 -1.01556 0)
(2.74979 -1.01498 0)
(2.74934 -1.01435 0)
(2.74864 -1.01371 0)
(2.74804 -1.01289 0)
(2.74737 -1.01219 0)
(2.74671 -1.01162 0)
(2.74601 -1.01112 0)
(2.74533 -1.0105 0)
(2.7446 -1.00991 0)
(2.74385 -1.0094 0)
(2.74314 -1.00885 0)
(2.74239 -1.00834 0)
(2.7416 -1.00774 0)
(2.74074 -1.00704 0)
(2.73983 -1.00621 0)
(2.73894 -1.00509 0)
(2.73773 -1.00428 0)
(2.73642 -1.00333 0)
(2.73486 -1.0027 0)
(2.73342 -1.00187 0)
(2.73204 -1.00104 0)
(2.7305 -1.00019 0)
(2.72873 -0.999191 0)
(2.72668 -0.997813 0)
(2.72389 -0.996571 0)
(2.71982 -0.995329 0)
(2.713 -0.994109 0)
(2.70045 -0.993854 0)
(2.67969 -0.992904 0)
(2.65226 -0.99392 0)
(2.63295 -0.99409 0)
(2.62701 -0.994223 0)