/*--------------------------------*- C++ -*----------------------------------*\
  =========                 |
  \\      /  F ield         | OpenFOAM: The Open Source CFD Toolbox
   \\    /   O peration     | Website:  https://openfoam.org
    \\  /    A nd           | Version:  7
     \\/     M anipulation  |
\*---------------------------------------------------------------------------*/
FoamFile
{
    version     2.0;
    format      ascii;
    class       volScalarField;
    location    "0.5499";
    object      p;
}
// * * * * * * * * * * * * * * * * * * * * * * * * * * * * * * * * * * * * * //

dimensions      [1 -1 -2 0 0 0 0];

internalField   nonuniform List<scalar> 
324000
(
0.25624
0.398541
0.626529
0.862855
0.930712
0.879665
0.867424
0.849569
0.829548
0.833771
0.841403
0.841134
0.844304
0.84874
0.852304
0.849344
0.843581
0.838357
0.837354
0.839511
0.839987
0.839336
0.838729
0.838247
0.838731
0.839728
0.840982
0.8423
0.842408
0.842994
0.843119
0.842613
0.843612
0.845354
0.842819
0.836605
0.828664
0.821214
0.816041
0.810013
0.804738
0.800433
0.798085
0.799434
0.80229
0.804141
0.805873
0.806726
0.80721
0.810734
0.821846
0.835483
0.853913
0.860928
0.86412
0.85641
0.844793
0.86643
0.912425
0.946558
0.959989
0.957277
0.958468
0.961575
0.965265
0.971725
0.981063
0.991182
0.998025
1.00001
1.00011
1.00006
1.00002
1
1
1
1
1
1
1
0.131501
0.13196
0.182947
0.355839
0.630257
0.797342
0.879982
0.873317
0.856768
0.862645
0.857734
0.836658
0.834192
0.836223
0.841058
0.839214
0.839334
0.841085
0.842512
0.842489
0.842096
0.841224
0.839536
0.838409
0.838556
0.838592
0.838212
0.839782
0.842755
0.844144
0.842559
0.841062
0.840023
0.840922
0.840284
0.834567
0.82759
0.821317
0.81603
0.810326
0.805469
0.801219
0.798587
0.799409
0.800625
0.801235
0.802646
0.803519
0.805339
0.80966
0.820148
0.83481
0.853722
0.862569
0.859379
0.854302
0.844366
0.864762
0.908697
0.946449
0.958594
0.95609
0.957557
0.960368
0.964063
0.970684
0.980254
0.990658
0.997804
0.999962
1.0001
1.00006
1.00002
1
1
1
1
1
1
1
0.131732
0.131721
0.131649
0.131492
0.176578
0.348937
0.591833
0.782245
0.873996
0.883727
0.853457
0.820691
0.821141
0.828396
0.835013
0.8356
0.839903
0.84094
0.839256
0.839126
0.840345
0.840897
0.840275
0.839403
0.839223
0.839471
0.839817
0.840105
0.842169
0.843709
0.842682
0.842121
0.842454
0.84436
0.843517
0.836003
0.82691
0.819289
0.813397
0.808368
0.804333
0.800982
0.797578
0.796531
0.796537
0.798052
0.800893
0.806654
0.81187
0.818328
0.825864
0.837212
0.853728
0.862473
0.85573
0.848542
0.846403
0.864673
0.906298
0.946009
0.956995
0.955037
0.956474
0.959073
0.962822
0.969644
0.979454
0.990141
0.997589
0.999915
1.00008
1.00005
1.00002
1
1
1
1
1
1
1
0.131702
0.131687
0.1317
0.13164
0.131627
0.131599
0.167564
0.336928
0.594593
0.781887
0.818114
0.833444
0.831885
0.835641
0.833065
0.829804
0.836729
0.843792
0.841684
0.841621
0.842405
0.842472
0.842175
0.841022
0.840208
0.840818
0.843242
0.844197
0.844955
0.843958
0.842733
0.843522
0.844904
0.847302
0.845073
0.83659
0.826858
0.818336
0.811539
0.806227
0.802377
0.79925
0.796966
0.796747
0.797898
0.800719
0.804224
0.80774
0.810356
0.81612
0.824568
0.837508
0.852394
0.862704
0.854711
0.846471
0.84681
0.865217
0.904625
0.944433
0.955201
0.953899
0.955174
0.957634
0.961515
0.968595
0.978659
0.989632
0.99738
0.999869
1.00007
1.00005
1.00002
1
1
1
1
1
1
1
0.131702
0.131657
0.13163
0.131622
0.131606
0.131604
0.131681
0.1316
0.170341
0.327468
0.584652
0.793702
0.83377
0.849481
0.846937
0.832605
0.838377
0.842737
0.841508
0.842609
0.843388
0.841483
0.839955
0.839089
0.838864
0.841938
0.845426
0.846048
0.845387
0.842822
0.842464
0.845025
0.848227
0.849582
0.846211
0.836928
0.827045
0.81858
0.811207
0.806212
0.804325
0.804099
0.802581
0.799323
0.799163
0.798072
0.800669
0.80603
0.811048
0.817071
0.825718
0.839263
0.847441
0.853668
0.853514
0.847576
0.849235
0.866998
0.904656
0.942342
0.95331
0.952572
0.953667
0.956044
0.960146
0.967529
0.97786
0.989132
0.997181
0.999827
1.00006
1.00004
1.00001
1
1
1
1
1
1
1
0.131633
0.131623
0.131625
0.131637
0.13164
0.131702
0.131653
0.131659
0.13171
0.131671
0.180685
0.365781
0.593297
0.778797
0.827631
0.831429
0.847927
0.845578
0.843718
0.841854
0.841256
0.840695
0.838708
0.837812
0.83986
0.843763
0.845488
0.844231
0.842752
0.841223
0.841591
0.844239
0.846973
0.848145
0.8441
0.835179
0.825805
0.818228
0.812255
0.809083
0.808187
0.80727
0.803376
0.795788
0.794085
0.798412
0.804737
0.81128
0.81429
0.817855
0.823569
0.835097
0.851858
0.854393
0.849343
0.845378
0.850949
0.868783
0.905269
0.939793
0.951199
0.951048
0.951989
0.954351
0.958748
0.966443
0.97705
0.988639
0.996992
0.999787
1.00005
1.00004
1.00001
1
1
1
1
1
1
1
0.131636
0.131632
0.131644
0.131649
0.131683
0.131682
0.131682
0.131712
0.131663
0.131657
0.131668
0.132563
0.197927
0.377455
0.599818
0.750059
0.829613
0.83634
0.84374
0.841312
0.836258
0.838955
0.836768
0.836084
0.84008
0.844406
0.843333
0.84028
0.840367
0.842555
0.84582
0.84857
0.84876
0.846624
0.841113
0.832226
0.825286
0.819314
0.813713
0.810252
0.808
0.803693
0.79853
0.796475
0.799132
0.802529
0.806607
0.80954
0.81049
0.811871
0.821754
0.838917
0.851343
0.84635
0.854214
0.851445
0.854905
0.871837
0.90517
0.936588
0.949112
0.949303
0.95011
0.952601
0.957346
0.96534
0.976229
0.988158
0.996815
0.999751
1.00004
1.00003
1.00001
1
1
1
1
1
1
1
0.131633
0.131647
0.13166
0.131681
0.13169
0.131687
0.131694
0.131676
0.131652
0.131658
0.131672
0.131687
0.131681
0.133051
0.199886
0.388384
0.638181
0.754716
0.835606
0.829415
0.834055
0.847127
0.843382
0.840875
0.845088
0.845189
0.84056
0.837296
0.839962
0.844379
0.847229
0.847592
0.845468
0.841952
0.836212
0.828334
0.822824
0.817768
0.812045
0.807723
0.803939
0.800232
0.799132
0.800969
0.804372
0.810078
0.81149
0.809228
0.809105
0.812206
0.820745
0.835113
0.846318
0.847897
0.855419
0.851577
0.852064
0.866026
0.897359
0.933928
0.947895
0.947196
0.94799
0.95083
0.955952
0.964223
0.975402
0.987691
0.996653
0.999719
1.00004
1.00003
1.00001
1
1
1
1
1
1
1
0.131654
0.131677
0.131685
0.131694
0.131683
0.131672
0.131666
0.131662
0.131667
0.131676
0.131686
0.131687
0.131672
0.131647
0.13163
0.136004
0.205693
0.420841
0.690611
0.788202
0.826125
0.85529
0.850675
0.845344
0.847493
0.843901
0.838386
0.838648
0.842181
0.84466
0.845681
0.844561
0.842152
0.838567
0.832395
0.826522
0.821998
0.815374
0.809414
0.805222
0.801929
0.800712
0.801801
0.804638
0.807454
0.810033
0.808025
0.802234
0.801491
0.809692
0.822707
0.838776
0.84604
0.849136
0.857753
0.858877
0.861431
0.875948
0.901155
0.933609
0.945287
0.944542
0.945879
0.949084
0.954546
0.963094
0.974579
0.987244
0.996505
0.999691
1.00003
1.00003
1.00001
1
1
1
1
1
1
1
0.131704
0.131703
0.131682
0.131664
0.131655
0.131645
0.13166
0.131676
0.131687
0.131693
0.131689
0.131668
0.131643
0.131632
0.131636
0.131634
0.131631
0.141041
0.238421
0.481761
0.714431
0.832863
0.836633
0.846419
0.849219
0.842335
0.838193
0.843161
0.845173
0.843552
0.843366
0.843195
0.84164
0.837862
0.832575
0.828122
0.821924
0.814598
0.809354
0.805736
0.802358
0.80221
0.803012
0.803345
0.803327
0.802728
0.802028
0.800591
0.803178
0.811509
0.824125
0.837629
0.839575
0.844018
0.854639
0.860742
0.865354
0.878119
0.898937
0.925523
0.940682
0.941805
0.943683
0.947216
0.953081
0.961949
0.973765
0.98682
0.996375
0.999667
1.00002
1.00002
1.00001
1
1
1
1
1
1
1
0.131676
0.131653
0.131632
0.131632
0.131649
0.131673
0.131686
0.131691
0.131691
0.131677
0.13165
0.131635
0.131633
0.131639
0.131644
0.131642
0.131637
0.13164
0.131651
0.155582
0.294568
0.561182
0.724641
0.83295
0.835568
0.830552
0.84447
0.85031
0.844957
0.839316
0.83982
0.840851
0.841289
0.839894
0.837526
0.831855
0.823148
0.815823
0.811538
0.807093
0.80318
0.801796
0.800366
0.79803
0.79551
0.796146
0.79653
0.799035
0.807511
0.817003
0.826505
0.831888
0.833166
0.841165
0.852131
0.860851
0.86882
0.881432
0.906133
0.928222
0.938308
0.939019
0.941308
0.945236
0.951563
0.960776
0.97296
0.986425
0.996266
0.999648
1.00002
1.00002
1.00001
1
1
1
1
1
1
1
0.131617
0.13163
0.131664
0.131685
0.131697
0.1317
0.131697
0.131682
0.131654
0.131636
0.13163
0.131638
0.13165
0.131656
0.131649
0.131637
0.131628
0.131632
0.131639
0.13167
0.131678
0.174533
0.378869
0.659385
0.770644
0.816213
0.862185
0.85659
0.837991
0.837416
0.840985
0.84575
0.848409
0.847368
0.842446
0.833894
0.82439
0.817058
0.812767
0.806966
0.801906
0.798539
0.795736
0.791259
0.789454
0.792965
0.798062
0.807246
0.816605
0.822474
0.828897
0.83081
0.832762
0.841707
0.852575
0.860859
0.869783
0.883526
0.907209
0.927738
0.934536
0.93612
0.938895
0.943285
0.95
0.95956
0.972155
0.986051
0.996176
0.999635
1.00001
1.00002
1.00001
1
1
1
1
1
1
1
0.131666
0.131681
0.131697
0.131704
0.131703
0.131685
0.131656
0.131637
0.131629
0.131633
0.131643
0.131653
0.131657
0.131652
0.13164
0.131628
0.131627
0.131635
0.131649
0.131657
0.131657
0.131609
0.134859
0.219961
0.466759
0.728297
0.844166
0.84885
0.82822
0.84012
0.847322
0.851387
0.854407
0.852441
0.845131
0.832863
0.821005
0.816002
0.812107
0.804707
0.798809
0.796164
0.791554
0.785908
0.787497
0.794751
0.80272
0.812595
0.818136
0.823514
0.82957
0.831272
0.8339
0.841729
0.851932
0.861033
0.870738
0.885651
0.907652
0.925291
0.931238
0.933548
0.936665
0.941379
0.94842
0.958309
0.971359
0.985735
0.996085
0.999619
1.00001
1.00001
1.00001
1
1
1
1
1
1
1
0.1317
0.131705
0.131703
0.131687
0.131665
0.131647
0.131633
0.131631
0.131638
0.131647
0.131656
0.131659
0.131659
0.131647
0.131631
0.131631
0.131639
0.131651
0.131663
0.131671
0.131652
0.131591
0.131511
0.131375
0.15029
0.299572
0.575062
0.750749
0.805775
0.857174
0.855701
0.855717
0.856794
0.852163
0.839065
0.825265
0.819535
0.816194
0.809323
0.80215
0.798848
0.796799
0.790389
0.786361
0.792978
0.800132
0.805363
0.810505
0.81309
0.818139
0.824677
0.828135
0.831901
0.839905
0.850269
0.860323
0.871472
0.887064
0.906851
0.922199
0.927689
0.930872
0.934439
0.939532
0.94685
0.957054
0.970554
0.985427
0.996053
0.999621
1.00001
1.00001
1.00001
1
1
1
1
1
1
1
0.131701
0.131688
0.131669
0.13165
0.131637
0.131632
0.131635
0.131642
0.13165
0.131657
0.13166
0.131658
0.131653
0.131638
0.131636
0.131649
0.131667
0.131683
0.131694
0.131693
0.131662
0.131593
0.131494
0.131413
0.13131
0.13112
0.184322
0.428176
0.706849
0.846399
0.849016
0.848214
0.842787
0.836907
0.830091
0.823703
0.820343
0.814109
0.806524
0.801958
0.801939
0.800469
0.793762
0.792859
0.799837
0.802988
0.805599
0.808403
0.809763
0.81328
0.819056
0.823802
0.828464
0.836909
0.848373
0.859622
0.871575
0.887037
0.905372
0.918281
0.923904
0.927757
0.931948
0.937574
0.945215
0.955798
0.969845
0.985096
0.995992
0.999615
1
1.00001
1.00001
1
1
1
1
1
1
1
0.13167
0.131654
0.13164
0.131632
0.131634
0.131642
0.131649
0.131653
0.131655
0.131657
0.131656
0.131656
0.131652
0.131648
0.131661
0.131692
0.131735
0.131772
0.131787
0.131775
0.131742
0.131673
0.131605
0.131524
0.1314
0.131254
0.131078
0.1418
0.279084
0.585446
0.740409
0.831506
0.829014
0.82778
0.828142
0.82375
0.819797
0.815489
0.807111
0.803474
0.805728
0.802167
0.797563
0.80077
0.8034
0.799433
0.800476
0.802588
0.80498
0.809695
0.81607
0.82098
0.826097
0.834962
0.846947
0.859136
0.871215
0.886034
0.902883
0.914531
0.920706
0.924921
0.929492
0.935494
0.943505
0.954499
0.969073
0.984941
0.996066
0.999632
1
1.00001
1
1
1
1
1
1
1
1
0.131641
0.131635
0.131637
0.131641
0.131646
0.131651
0.131653
0.131655
0.131654
0.131653
0.131654
0.13166
0.131664
0.131671
0.131698
0.131747
0.131807
0.131869
0.131907
0.131908
0.131891
0.131874
0.131861
0.131794
0.131756
0.131648
0.131535
0.131277
0.130593
0.18525
0.446974
0.767137
0.818426
0.835415
0.83942
0.828395
0.825178
0.816751
0.808341
0.808805
0.808716
0.80012
0.798208
0.802844
0.80234
0.797223
0.796481
0.796666
0.799609
0.806924
0.814347
0.818845
0.825159
0.834766
0.846283
0.858345
0.870659
0.884961
0.899851
0.910341
0.916904
0.921744
0.926857
0.933226
0.941664
0.953269
0.968357
0.984669
0.996084
0.999644
1
1.00001
1
1
1
1
1
1
1
1
0.131638
0.131645
0.13165
0.131651
0.131652
0.131651
0.131652
0.131651
0.131653
0.131656
0.131666
0.131677
0.131684
0.131699
0.131728
0.131783
0.131849
0.131917
0.131982
0.13201
0.13201
0.13203
0.132049
0.132018
0.131971
0.131912
0.131724
0.131434
0.130944
0.129238
0.144712
0.330612
0.652244
0.825701
0.845599
0.829281
0.827687
0.810979
0.80605
0.810597
0.806598
0.79789
0.799337
0.805611
0.798455
0.792367
0.79231
0.792732
0.799191
0.808881
0.814487
0.817467
0.824716
0.834982
0.845709
0.857002
0.869429
0.883279
0.896585
0.906483
0.913182
0.918458
0.924041
0.930827
0.939708
0.951841
0.967695
0.984772
0.996187
0.999662
1
1.00001
1
1
1
1
1
1
1
1
0.13165
0.131653
0.131651
0.131648
0.131648
0.131648
0.131653
0.131657
0.131664
0.131674
0.131686
0.131693
0.131704
0.13172
0.131751
0.131806
0.13187
0.131935
0.132003
0.132051
0.132061
0.132069
0.13209
0.132078
0.131999
0.131928
0.131715
0.131364
0.130403
0.128561
0.126239
0.124935
0.234475
0.540753
0.796768
0.802065
0.825857
0.808524
0.808161
0.807935
0.795332
0.790264
0.796566
0.796612
0.78868
0.785585
0.78839
0.794359
0.805427
0.814184
0.813727
0.81544
0.823559
0.833983
0.844221
0.854918
0.867182
0.880847
0.893107
0.902574
0.909793
0.915988
0.921958
0.928739
0.937915
0.950578
0.966916
0.984614
0.996286
0.999685
0.999999
1
1
1
1
1
1
1
1
1
0.13165
0.131648
0.131645
0.131645
0.131649
0.131655
0.131664
0.131673
0.131684
0.131695
0.1317
0.131694
0.131692
0.131706
0.131742
0.131801
0.131868
0.131934
0.132004
0.132053
0.132065
0.132066
0.132072
0.132058
0.13196
0.131791
0.131267
0.12991
0.127872
0.125822
0.124637
0.124466
0.124551
0.179619
0.430427
0.691323
0.795811
0.789442
0.817366
0.805429
0.788596
0.784948
0.790706
0.784523
0.780968
0.786553
0.792392
0.801027
0.813037
0.815535
0.81124
0.813198
0.82181
0.831477
0.841527
0.852404
0.864305
0.877644
0.889639
0.898418
0.905242
0.911711
0.918661
0.926511
0.936168
0.949274
0.966653
0.984828
0.996437
0.99971
0.999999
1
1
1
1
1
1
1
1
1
0.131643
0.131645
0.131648
0.131654
0.131664
0.131675
0.131686
0.131695
0.131701
0.131698
0.131687
0.131667
0.131651
0.13166
0.131682
0.131727
0.131793
0.131841
0.131906
0.131932
0.131946
0.131972
0.131916
0.131852
0.131514
0.130575
0.129185
0.127411
0.125631
0.124458
0.124207
0.124379
0.124831
0.126342
0.140632
0.317604
0.573676
0.73443
0.801548
0.787234
0.784893
0.790179
0.784934
0.774961
0.780418
0.79471
0.798135
0.806207
0.815946
0.811091
0.807839
0.811955
0.819631
0.827687
0.837961
0.849849
0.861573
0.873744
0.885735
0.895159
0.901757
0.907736
0.914722
0.923291
0.934046
0.947936
0.965963
0.984924
0.996613
0.99974
0.999999
1
1
1
1
1
1
1
1
1
0.131649
0.131658
0.131668
0.131676
0.131686
0.131695
0.131705
0.131708
0.131695
0.131673
0.131655
0.131641
0.13163
0.131636
0.131633
0.13163
0.131639
0.131593
0.13154
0.131489
0.131385
0.131366
0.13118
0.130685
0.129877
0.128616
0.127012
0.125359
0.124199
0.124139
0.124181
0.124906
0.127447
0.130888
0.135067
0.1385
0.198622
0.426642
0.651964
0.730425
0.778435
0.795267
0.775874
0.767088
0.790755
0.799135
0.795947
0.802004
0.808602
0.804344
0.804825
0.811171
0.81631
0.822748
0.833764
0.847088
0.859445
0.870057
0.880598
0.890309
0.898533
0.905543
0.912413
0.920688
0.93172
0.94671
0.966097
0.98529
0.996824
0.99977
0.999999
1
1
1
1
1
1
1
1
1
0.131675
0.131686
0.131695
0.1317
0.1317
0.1317
0.1317
0.131694
0.131669
0.13165
0.131646
0.131643
0.131637
0.131638
0.131623
0.131573
0.131502
0.131375
0.131178
0.13103
0.130793
0.130527
0.13013
0.129363
0.128296
0.126792
0.125113
0.124125
0.124043
0.124157
0.125173
0.127679
0.130983
0.134714
0.139221
0.144911
0.149484
0.164527
0.259301
0.477976
0.675136
0.766614
0.763186
0.779246
0.809208
0.800375
0.790835
0.79501
0.795495
0.795874
0.803577
0.809715
0.811736
0.817821
0.8298
0.843255
0.856408
0.867647
0.876135
0.884304
0.892729
0.900915
0.909213
0.918614
0.930037
0.945228
0.965562
0.98564
0.997071
0.999803
0.999999
1
1
1
1
1
1
1
1
1
0.131701
0.131703
0.131699
0.131692
0.131688
0.131688
0.131691
0.131686
0.131664
0.131654
0.131663
0.131687
0.131696
0.131673
0.131634
0.131553
0.131423
0.131259
0.131023
0.130747
0.130407
0.129888
0.129262
0.128206
0.126672
0.12501
0.124127
0.124029
0.124347
0.125765
0.128205
0.130717
0.134291
0.139237
0.144172
0.1492
0.154747
0.160452
0.165307
0.190836
0.296622
0.480512
0.663249
0.758268
0.78784
0.781524
0.77162
0.785377
0.781564
0.788715
0.803676
0.805867
0.804868
0.814241
0.826383
0.838218
0.850839
0.862806
0.872554
0.879906
0.887042
0.895414
0.904827
0.915163
0.927633
0.944598
0.965952
0.986192
0.997336
0.999834
0.999999
1
1
1
1
1
1
1
1
1
0.131699
0.131689
0.131679
0.131673
0.13168
0.131694
0.131703
0.131702
0.131697
0.131705
0.131728
0.131784
0.131834
0.131801
0.131747
0.131653
0.13147
0.131302
0.131098
0.130748
0.130254
0.129416
0.128125
0.126407
0.12502
0.124301
0.124287
0.124842
0.126384
0.128389
0.130958
0.134118
0.138232
0.143693
0.149245
0.154406
0.16019
0.165969
0.172087
0.178105
0.183652
0.208676
0.314274
0.479167
0.616339
0.713215
0.745868
0.779962
0.773738
0.791114
0.802518
0.798199
0.800703
0.812298
0.821878
0.831283
0.842231
0.854694
0.866296
0.875731
0.883799
0.891866
0.901288
0.912202
0.925336
0.943184
0.965986
0.986836
0.997632
0.999866
0.999999
1
1
1
1
1
1
1
1
1
0.131669
0.131674
0.131678
0.131686
0.131698
0.131722
0.131742
0.131747
0.131768
0.131794
0.131803
0.131831
0.131889
0.131871
0.131801
0.131742
0.131611
0.131436
0.131185
0.13071
0.129671
0.127996
0.126137
0.125037
0.124623
0.125015
0.12582
0.127108
0.128702
0.130625
0.134001
0.139092
0.143628
0.147749
0.153103
0.15918
0.165091
0.171396
0.177867
0.184461
0.191185
0.198061
0.204728
0.228813
0.309293
0.476438
0.659254
0.76011
0.767507
0.805304
0.803721
0.789912
0.794629
0.807673
0.815739
0.823759
0.834218
0.846119
0.857974
0.868724
0.878393
0.888127
0.898078
0.909046
0.923399
0.943219
0.966615
0.987615
0.997935
0.999894
1
1
1
1
1
1
1
1
1
1
0.131675
0.131692
0.13171
0.131725
0.131737
0.131759
0.13178
0.131783
0.1318
0.13183
0.131826
0.131835
0.131878
0.131869
0.131781
0.131713
0.131603
0.131262
0.130423
0.12908
0.127275
0.125929
0.125043
0.12511
0.12548
0.126177
0.127385
0.128802
0.131097
0.134557
0.138175
0.143203
0.149129
0.154521
0.1599
0.165704
0.171207
0.177234
0.183196
0.189529
0.196552
0.20367
0.211274
0.219829
0.227944
0.250059
0.346305
0.505396
0.680189
0.78094
0.786345
0.775808
0.80104
0.803555
0.807345
0.81851
0.831178
0.841085
0.850582
0.860968
0.871405
0.882149
0.893481
0.905821
0.920995
0.942056
0.967206
0.988542
0.998253
0.99992
1
1
1
1
1
1
1
1
1
1
0.131728
0.131751
0.131768
0.131767
0.13176
0.131764
0.131782
0.131785
0.131791
0.131814
0.131806
0.131749
0.131721
0.13172
0.131561
0.131062
0.130304
0.129227
0.127719
0.126464
0.125529
0.125098
0.125277
0.125474
0.126153
0.127148
0.128535
0.130596
0.134391
0.139598
0.144704
0.148879
0.154097
0.160237
0.165658
0.170955
0.176744
0.182449
0.188725
0.195416
0.202141
0.209597
0.217761
0.226048
0.234911
0.244885
0.255125
0.285024
0.397866
0.565241
0.692925
0.762447
0.803386
0.796498
0.79858
0.812173
0.82507
0.836407
0.846176
0.854764
0.865197
0.876705
0.88855
0.902119
0.919605
0.942412
0.968287
0.989575
0.998563
0.999942
1
1
1
1
1
1
1
1
1
1
0.13179
0.131794
0.131791
0.131761
0.131711
0.131639
0.131599
0.131566
0.131481
0.131437
0.131445
0.131395
0.13113
0.130646
0.129985
0.129012
0.127769
0.126633
0.125616
0.124909
0.124955
0.124847
0.125268
0.125693
0.126539
0.128173
0.131447
0.13637
0.140372
0.144837
0.150661
0.156093
0.160471
0.165115
0.170373
0.175522
0.181286
0.187271
0.193678
0.200867
0.208669
0.216553
0.224861
0.233987
0.243391
0.253184
0.263063
0.273999
0.287905
0.340091
0.49818
0.693944
0.778693
0.777239
0.795473
0.807794
0.815292
0.825137
0.837255
0.84907
0.859631
0.871177
0.884279
0.898644
0.916985
0.942031
0.969605
0.990753
0.998864
0.999961
1
1
1
1
1
1
1
1
1
1
0.131766
0.13173
0.131669
0.131568
0.131433
0.131303
0.131155
0.131056
0.130967
0.130827
0.130612
0.13031
0.129807
0.128937
0.127895
0.126864
0.125751
0.124945
0.124558
0.124344
0.124539
0.124753
0.125111
0.126773
0.129264
0.133128
0.137388
0.142204
0.147458
0.151605
0.155462
0.160502
0.165863
0.170382
0.175601
0.181616
0.18774
0.194457
0.201535
0.208237
0.215637
0.223949
0.232327
0.240762
0.25035
0.260871
0.272329
0.283608
0.294878
0.307239
0.337275
0.454312
0.619335
0.740934
0.788989
0.79479
0.798802
0.809291
0.823146
0.83802
0.852191
0.86505
0.878579
0.895111
0.916647
0.942871
0.971335
0.992
0.99914
0.999975
1
1
1
1
1
1
1
1
1
1
0.131569
0.13151
0.131418
0.131338
0.131252
0.131114
0.130949
0.130824
0.130679
0.130394
0.129857
0.129073
0.128185
0.127114
0.125964
0.12516
0.124541
0.124355
0.124417
0.124341
0.124535
0.125927
0.128029
0.131251
0.13557
0.140176
0.144457
0.147628
0.151882
0.156884
0.161335
0.165233
0.170259
0.176304
0.181976
0.187856
0.194147
0.200543
0.207599
0.215373
0.222854
0.230704
0.239691
0.248943
0.25825
0.267756
0.278856
0.291375
0.304505
0.317239
0.331584
0.354162
0.437597
0.611876
0.729312
0.765412
0.785482
0.800268
0.812432
0.825779
0.84161
0.858089
0.87371
0.890954
0.914479
0.943687
0.973489
0.993326
0.999383
0.999985
1
1
1
1
1
1
1
1
1
1
0.131384
0.131376
0.13134
0.131297
0.131267
0.131183
0.13103
0.130829
0.130467
0.129787
0.128705
0.127343
0.126156
0.125307
0.124714
0.124522
0.124454
0.124409
0.124721
0.126012
0.12789
0.130715
0.134564
0.138342
0.141773
0.14484
0.14917
0.153481
0.156946
0.161172
0.166541
0.172215
0.177102
0.182509
0.188675
0.194872
0.2011
0.207917
0.214346
0.221482
0.229692
0.237986
0.246375
0.256088
0.266511
0.277169
0.28762
0.299347
0.312642
0.326979
0.340441
0.356651
0.377645
0.446309
0.592212
0.720168
0.779128
0.79712
0.808698
0.820758
0.833367
0.849211
0.867647
0.888618
0.914718
0.945452
0.976008
0.994648
0.999584
0.999992
1
1
1
1
1
1
1
1
1
1
0.131462
0.131415
0.131368
0.131304
0.131238
0.131076
0.130661
0.129841
0.128652
0.127381
0.126343
0.125542
0.125014
0.124752
0.124731
0.124832
0.125527
0.126824
0.128337
0.130662
0.133883
0.136594
0.139384
0.14251
0.146365
0.150033
0.153316
0.158365
0.163603
0.168351
0.173059
0.178323
0.184195
0.189719
0.195172
0.201252
0.207702
0.214464
0.222114
0.229592
0.237475
0.246252
0.255371
0.264745
0.274835
0.28627
0.298211
0.310118
0.322979
0.337018
0.352809
0.367072
0.383627
0.406815
0.468979
0.601131
0.719773
0.770051
0.790328
0.806817
0.824937
0.842719
0.861045
0.884121
0.913966
0.947859
0.978994
0.995933
0.999741
0.999996
1
1
1
1
1
1
1
1
1
1
0.131173
0.130917
0.130549
0.130003
0.129268
0.128378
0.1274
0.126619
0.126061
0.125607
0.12529
0.125119
0.125127
0.125358
0.126106
0.126988
0.128261
0.130324
0.132686
0.134661
0.137265
0.140336
0.143627
0.147134
0.151119
0.156475
0.16118
0.165199
0.1701
0.17515
0.180322
0.185083
0.190126
0.195818
0.201735
0.207669
0.214376
0.22097
0.228216
0.236326
0.244735
0.253659
0.263293
0.273266
0.283673
0.295012
0.307591
0.320522
0.333916
0.348466
0.363693
0.380443
0.396056
0.413387
0.440174
0.502023
0.616053
0.712948
0.762125
0.789325
0.811944
0.83326
0.855531
0.883357
0.915235
0.951256
0.982299
0.997104
0.999853
0.999998
1
1
1
1
1
1
1
1
1
1
0.129869
0.129338
0.128597
0.12774
0.126908
0.126257
0.125708
0.125394
0.125424
0.125422
0.125539
0.125936
0.126341
0.126768
0.127832
0.129389
0.13078
0.132722
0.135689
0.138887
0.141945
0.145923
0.150448
0.15528
0.159479
0.163157
0.16797
0.172451
0.176668
0.181189
0.1859
0.19117
0.196635
0.202146
0.208356
0.215179
0.221943
0.229666
0.237387
0.245444
0.254015
0.262965
0.27253
0.282647
0.29354
0.304442
0.316619
0.330641
0.344964
0.359609
0.375722
0.393418
0.411143
0.427818
0.447655
0.480028
0.542543
0.64376
0.728028
0.773147
0.799414
0.82164
0.847339
0.880086
0.917122
0.95581
0.985847
0.998098
0.999925
0.999999
1
1
1
1
1
1
1
1
1
1
0.127998
0.127112
0.126327
0.125714
0.125291
0.125059
0.124988
0.124959
0.125108
0.125468
0.125725
0.12636
0.127547
0.128533
0.129727
0.132266
0.135282
0.138374
0.141882
0.146146
0.150451
0.154365
0.158085
0.161716
0.165908
0.16979
0.173396
0.177921
0.182473
0.187357
0.192355
0.197803
0.203501
0.209896
0.216285
0.222999
0.230213
0.237592
0.245445
0.253919
0.263014
0.272203
0.281986
0.292708
0.303967
0.315964
0.327946
0.340804
0.355342
0.371242
0.388129
0.405482
0.424493
0.444274
0.462449
0.486607
0.525854
0.58753
0.670682
0.738301
0.781262
0.813593
0.846699
0.881458
0.921088
0.961417
0.989396
0.998872
0.999967
1
1
1
1
1
1
1
1
1
1
1
0.125549
0.125165
0.125067
0.12503
0.125026
0.125006
0.125004
0.124991
0.12508
0.125744
0.12693
0.12803
0.130143
0.133548
0.136529
0.139271
0.143149
0.146789
0.15013
0.153418
0.15685
0.160308
0.163915
0.167443
0.170946
0.175534
0.179948
0.184346
0.189368
0.19449
0.200036
0.205897
0.21193
0.218006
0.224668
0.231554
0.238836
0.246307
0.254369
0.262679
0.271308
0.281225
0.291177
0.301738
0.313233
0.326158
0.339757
0.353294
0.367948
0.38363
0.400079
0.418546
0.438407
0.458616
0.479559
0.501865
0.533191
0.582603
0.640133
0.702424
0.755903
0.802059
0.843482
0.88382
0.927154
0.967963
0.99269
0.999411
0.999988
1
1
1
1
1
1
1
1
1
1
1
0.124916
0.12495
0.125134
0.125278
0.125373
0.125641
0.1263
0.127475
0.128798
0.130184
0.132645
0.13571
0.138047
0.140716
0.14411
0.146855
0.149591
0.15281
0.155834
0.159027
0.162409
0.165888
0.169691
0.173927
0.178269
0.182378
0.187257
0.192208
0.197165
0.202513
0.208015
0.213446
0.219594
0.225999
0.232509
0.239364
0.246617
0.254481
0.262929
0.271885
0.281305
0.290867
0.30173
0.312689
0.324391
0.33648
0.350154
0.365255
0.380422
0.396678
0.41451
0.432843
0.452563
0.473703
0.495909
0.518202
0.544705
0.58249
0.636427
0.694461
0.752268
0.802031
0.845287
0.889248
0.935396
0.975152
0.995496
0.999739
0.999996
1
1
1
1
1
1
1
1
1
1
1
0.125842
0.126337
0.126728
0.127406
0.128395
0.129583
0.130934
0.132617
0.134784
0.13686
0.138821
0.141616
0.144199
0.146356
0.149242
0.152611
0.15515
0.158331
0.162076
0.165633
0.169352
0.173466
0.17749
0.181613
0.18609
0.190625
0.195109
0.199983
0.205101
0.21025
0.215696
0.221779
0.227509
0.233894
0.240886
0.248323
0.255997
0.264218
0.272567
0.281678
0.29156
0.301893
0.312523
0.324469
0.33685
0.349833
0.363252
0.377819
0.393838
0.410557
0.428198
0.447697
0.468231
0.490336
0.513164
0.537537
0.563618
0.595295
0.638305
0.692463
0.748415
0.799837
0.8478
0.896678
0.945321
0.982405
0.997617
0.999907
0.999999
1
1
1
1
1
1
1
1
1
1
1
0.127258
0.127907
0.128453
0.129313
0.130771
0.132356
0.133985
0.135742
0.138021
0.141039
0.143396
0.145704
0.14936
0.152695
0.155349
0.158838
0.162878
0.166117
0.169566
0.173483
0.177282
0.18095
0.184918
0.189061
0.193012
0.197509
0.202174
0.206972
0.211989
0.217593
0.223286
0.22918
0.236117
0.243011
0.250096
0.257575
0.265785
0.274241
0.283357
0.292702
0.30236
0.312998
0.324019
0.335489
0.348239
0.36211
0.376528
0.391334
0.40745
0.424905
0.443411
0.462992
0.484482
0.507114
0.531267
0.555793
0.582014
0.612481
0.651229
0.699283
0.751921
0.803694
0.855158
0.907829
0.957104
0.989091
0.998977
0.999975
1
1
1
1
1
1
1
1
1
1
1
1
0.129376
0.130714
0.132873
0.134795
0.136623
0.139096
0.142124
0.144863
0.147182
0.149867
0.153349
0.156064
0.158559
0.16189
0.165043
0.167724
0.170884
0.174319
0.177499
0.180741
0.184419
0.188124
0.191965
0.19604
0.20065
0.205082
0.210065
0.215373
0.220977
0.226579
0.232869
0.239341
0.245824
0.252931
0.260474
0.268251
0.276171
0.284643
0.293631
0.303342
0.313709
0.324229
0.335949
0.348281
0.361123
0.374645
0.389481
0.405573
0.422233
0.440053
0.459139
0.479269
0.500453
0.524079
0.550136
0.577534
0.604114
0.631017
0.664244
0.708402
0.759877
0.813561
0.868181
0.923183
0.969995
0.994409
0.999669
0.999995
1
1
1
1
1
1
1
1
1
1
1
1
0.136391
0.13819
0.140278
0.142722
0.144852
0.146938
0.149325
0.151942
0.154387
0.156601
0.159226
0.162249
0.1645
0.16712
0.170418
0.173348
0.176169
0.179563
0.18333
0.186996
0.190656
0.195014
0.199449
0.203938
0.208684
0.213935
0.219074
0.2245
0.230249
0.236223
0.24212
0.248654
0.255427
0.262334
0.269662
0.27764
0.286052
0.295118
0.304505
0.314377
0.324905
0.336447
0.348222
0.36094
0.374476
0.388974
0.404123
0.420021
0.437225
0.455497
0.475227
0.496636
0.519211
0.542486
0.567715
0.595773
0.626028
0.657085
0.689779
0.727311
0.771952
0.824667
0.883417
0.940767
0.982093
0.997808
0.999927
0.999999
1
1
1
1
1
1
1
1
1
1
1
1
0.142602
0.144649
0.146315
0.148523
0.151201
0.153505
0.155437
0.157821
0.160899
0.163662
0.165861
0.168791
0.17246
0.175168
0.178042
0.181838
0.185469
0.188895
0.192565
0.196633
0.200788
0.204742
0.209139
0.213756
0.218304
0.223136
0.22837
0.233635
0.239045
0.245104
0.25151
0.2579
0.265026
0.272689
0.280544
0.288751
0.297664
0.30678
0.316713
0.32727
0.338268
0.349574
0.361975
0.375113
0.389057
0.403647
0.419216
0.436036
0.453986
0.472972
0.492831
0.514123
0.537503
0.562946
0.589735
0.617302
0.645848
0.67713
0.712827
0.753428
0.799491
0.85183
0.909051
0.961359
0.991746
0.999416
0.99999
1
1
1
1
1
1
1
1
1
1
1
1
1
0.150599
0.152959
0.155309
0.157212
0.159527
0.162219
0.1648
0.166977
0.169435
0.172442
0.175226
0.177567
0.1806
0.18398
0.186747
0.18985
0.193462
0.196905
0.200474
0.204137
0.208197
0.212472
0.216633
0.221224
0.22636
0.23137
0.236717
0.242589
0.248747
0.25477
0.261512
0.268819
0.276012
0.283711
0.292032
0.300638
0.309545
0.319369
0.329385
0.339773
0.351099
0.363367
0.375952
0.389228
0.403471
0.41896
0.435322
0.452287
0.470394
0.490065
0.51129
0.533706
0.557178
0.582323
0.610021
0.640208
0.671829
0.704394
0.739006
0.777952
0.824288
0.879026
0.936216
0.979845
0.997404
0.99991
0.999999
1
1
1
1
1
1
1
1
1
1
1
1
1
0.158281
0.160109
0.162504
0.164815
0.16665
0.168712
0.171382
0.174119
0.176214
0.178557
0.181732
0.184742
0.187065
0.190221
0.194061
0.197155
0.200436
0.204446
0.208421
0.212524
0.216758
0.221326
0.226221
0.231169
0.236227
0.241904
0.247656
0.253544
0.259766
0.266529
0.27315
0.280208
0.287971
0.295732
0.303875
0.312777
0.322182
0.331694
0.342208
0.353493
0.36502
0.377109
0.390385
0.404636
0.419438
0.434875
0.451546
0.469571
0.488652
0.508653
0.530011
0.553304
0.57845
0.605
0.632907
0.662675
0.695235
0.731063
0.769971
0.812675
0.861139
0.915046
0.964698
0.992871
0.999544
0.999993
1
1
1
1
1
1
1
1
1
1
1
1
1
1
0.16632
0.168361
0.170229
0.172735
0.175287
0.177482
0.179621
0.182385
0.18548
0.187975
0.190582
0.193942
0.19733
0.200207
0.203599
0.207578
0.211151
0.21482
0.218998
0.223216
0.227614
0.232166
0.236908
0.241959
0.247227
0.252415