/*--------------------------------*- C++ -*----------------------------------*\
  =========                 |
  \\      /  F ield         | OpenFOAM: The Open Source CFD Toolbox
   \\    /   O peration     | Website:  https://openfoam.org
    \\  /    A nd           | Version:  7
     \\/     M anipulation  |
\*---------------------------------------------------------------------------*/
FoamFile
{
    version     2.0;
    format      ascii;
    class       volScalarField;
    location    "3";
    object      rho;
}
// * * * * * * * * * * * * * * * * * * * * * * * * * * * * * * * * * * * * * //

dimensions      [1 -3 0 0 0 0 0];

internalField   nonuniform List<scalar> 
90000
(
0.256591
0.28556
0.318644
0.34571
0.361606
0.386783
0.414452
0.433859
0.457329
0.487061
0.518635
0.55111
0.586337
0.625049
0.665039
0.705319
0.747276
0.786746
0.823817
0.8587
0.885008
0.906215
0.92202
0.935475
0.940415
0.94788
0.948926
0.947227
0.94494
0.941007
0.938688
0.935804
0.931751
0.92856
0.924772
0.921241
0.914381
0.906116
0.898164
0.889513
0.889889
0.895032
0.908273
0.922917
0.938628
0.950658
0.961253
0.960482
0.956391
0.948271
0.93622
0.92693
0.919009
0.92035
0.924282
0.931637
0.938776
0.946183
0.949513
0.948939
0.945567
0.939445
0.935418
0.935684
0.938251
0.944237
0.950231
0.950882
0.949441
0.949002
0.950689
0.957074
0.967171
0.971001
0.970525
0.966932
0.967852
0.977226
0.991856
1.01087
1.02877
1.02843
1.02082
1.01672
1.02078
1.02766
1.03487
1.03608
1.0361
1.03946
1.04704
1.05735
1.066
1.07763
1.09322
1.11011
1.12561
1.13678
1.14681
1.15218
0.230035
0.23006
0.230093
0.230136
0.230182
0.230235
0.230291
0.23036
0.230435
0.230533
0.230609
0.231209
0.233176
0.237926
0.245727
0.257976
0.274703
0.298449
0.32659
0.363112
0.406835
0.454256
0.508464
0.564275
0.617349
0.663338
0.703757
0.736667
0.768967
0.791119
0.813734
0.829504
0.845399
0.863315
0.873824
0.885502
0.889172
0.891636
0.891647
0.89074
0.894838
0.904583
0.909944
0.911943
0.913437
0.914077
0.913448
0.908712
0.897094
0.888229
0.885097
0.888155
0.893084
0.900105
0.906744
0.91078
0.914984
0.914656
0.912103
0.906213
0.899355
0.896745
0.899664
0.904469
0.911658
0.91542
0.917755
0.915703
0.91288
0.913877
0.91817
0.927141
0.938798
0.941798
0.940374
0.93513
0.936394
0.947625
0.966243
0.992202
1.01246
1.0116
1.01147
1.01598
1.02267
1.03294
1.03726
1.03568
1.03623
1.0405
1.05022
1.06065
1.06893
1.08055
1.09601
1.11277
1.12802
1.13879
1.14836
1.15402
0.23084
0.230923
0.231015
0.231111
0.231212
0.23132
0.231437
0.231561
0.23169
0.231825
0.231957
0.232128
0.232205
0.232277
0.232358
0.232453
0.232558
0.232677
0.232806
0.232931
0.233085
0.233195
0.233597
0.236401
0.245153
0.258981
0.280069
0.308056
0.342856
0.38541
0.430702
0.486209
0.542758
0.603495
0.662026
0.7176
0.77101
0.81611
0.860273
0.8874
0.905328
0.918449
0.916488
0.911745
0.907382
0.898858
0.883785
0.86599
0.84542
0.848025
0.855794
0.866941
0.878569
0.889247
0.896259
0.900398
0.903582
0.900691
0.890885
0.880941
0.877133
0.87968
0.887112
0.895715
0.900532
0.899299
0.896412
0.890425
0.890334
0.89408
0.904307
0.917048
0.922259
0.921965
0.920052
0.916534
0.919859
0.931504
0.952006
0.977362
0.993468
0.995478
1.00466
1.01646
1.03086
1.03719
1.03807
1.03537
1.03698
1.04328
1.0539
1.06315
1.07127
1.08308
1.09826
1.11443
1.12969
1.1403
1.14933
1.15434
0.23197
0.232059
0.232154
0.232249
0.232346
0.232444
0.232548
0.232658
0.232772
0.232887
0.233005
0.233118
0.233235
0.233358
0.233484
0.233611
0.233737
0.233865
0.233982
0.234096
0.234202
0.234295
0.234403
0.234436
0.234466
0.234502
0.234548
0.234599
0.234659
0.234712
0.234775
0.234816
0.236412
0.243639
0.261431
0.28731
0.329546
0.384721
0.451972
0.536099
0.608624
0.684626
0.73643
0.769071
0.808
0.831696
0.837042
0.846453
0.849779
0.860693
0.870141
0.88317
0.892594
0.900904
0.901258
0.900559
0.896935
0.883964
0.872731
0.869078
0.870706
0.877172
0.885116
0.893628
0.897057
0.894303
0.886752
0.881233
0.882391
0.887552
0.898878
0.914212
0.915646
0.91369
0.910427
0.908194
0.910757
0.92357
0.944773
0.965078
0.973799
0.982452
1.00166
1.02377
1.03913
1.04059
1.03802
1.03524
1.03825
1.04721
1.05772
1.0647
1.07298
1.08525
1.10015
1.11578
1.13127
1.14143
1.14995
1.15499
0.233161
0.233239
0.233322
0.233404
0.233485
0.233567
0.233649
0.233735
0.233821
0.233908
0.233991
0.234073
0.234155
0.234235
0.234312
0.234387
0.234463
0.234535
0.234598
0.23466
0.234717
0.234771
0.234812
0.234851
0.234891
0.234937
0.234985
0.235034
0.235084
0.235133
0.235182
0.235242
0.235272
0.235308
0.23535
0.235413
0.235476
0.235566
0.235633
0.237464
0.2468
0.271076
0.316449
0.374945
0.450315
0.546993
0.640828
0.732437
0.800649
0.842991
0.86044
0.875019
0.883666
0.891535
0.89361
0.891179
0.880282
0.863663
0.865676
0.87284
0.884005
0.893632
0.895077
0.892988
0.890673
0.885485
0.878193
0.878207
0.881231
0.893284
0.905981
0.913235
0.909898
0.906763
0.906445
0.908472
0.912133
0.92447
0.942647
0.952978
0.957663
0.973142
1.00258
1.03309
1.04386
1.04257
1.03413
1.03495
1.04087
1.0515
1.0603
1.06543
1.07419
1.08707
1.10205
1.11788
1.13361
1.14248
1.15037
1.15572
0.234161
0.234212
0.234266
0.234317
0.234367
0.234416
0.234465
0.234513
0.23456
0.234607
0.234651
0.234692
0.234735
0.234776
0.234817
0.234859
0.234902
0.23494
0.234975
0.23501
0.235044
0.23507
0.235093
0.235116
0.235143
0.235177
0.235217
0.235258
0.235303
0.235352
0.235404
0.235466
0.235538
0.235613
0.235692
0.235772
0.235844
0.235925
0.235998
0.236028
0.236055
0.236094
0.236136
0.236163
0.236173
0.23809
0.254744
0.292451
0.368116
0.457382
0.560436
0.651888
0.719176
0.780875
0.811861
0.845138
0.852704
0.867625
0.877258
0.89676
0.909199
0.907599
0.899181
0.890593
0.883734
0.875608
0.875815
0.878377
0.88951
0.906121
0.91239
0.910376
0.904128
0.904657
0.906902
0.911509
0.914906
0.925663
0.939578
0.941131
0.945575
0.968385
1.01003
1.04077
1.0446
1.0404
1.03085
1.03447
1.04511
1.05549
1.06113
1.06585
1.07559
1.08909
1.10425
1.12093
1.13574
1.14411
1.15107
1.15506
0.234777
0.234804
0.234831
0.234858
0.234883
0.234908
0.234932
0.234956
0.23498
0.235003
0.235023
0.235044
0.235066
0.235087
0.235109
0.235135
0.23516
0.235183
0.235207
0.235232
0.235254
0.235271
0.235288
0.235311
0.235344
0.235391
0.235444
0.235498
0.235556
0.235617
0.235685
0.235762
0.23584
0.23591
0.235972
0.236022
0.236069
0.236116
0.236147
0.236168
0.236187
0.236217
0.236241
0.236255
0.236267
0.236277
0.236297
0.23633
0.236379
0.236411
0.242497
0.263924
0.315303
0.388016
0.495017
0.612357
0.719461
0.814328
0.860309
0.885417
0.896337
0.900482
0.898629
0.894245
0.880029
0.873913
0.882592
0.89307
0.904355
0.913772
0.91377
0.904084
0.903233
0.906443
0.91349
0.915827
0.917474
0.927059
0.933559
0.933175
0.941234
0.975658
1.02203
1.04251
1.0417
1.03032
1.02945
1.03622
1.04938
1.05688
1.05911
1.06451
1.07695
1.09069
1.10601
1.12345
1.13737
1.14585
1.15227
1.15492
0.235108
0.235124
0.23514
0.235156
0.235171
0.235185
0.235197
0.235209
0.235223
0.235234
0.235245
0.235257
0.235268
0.23528
0.235296
0.235316
0.235336
0.235357
0.235381
0.235407
0.235432
0.235456
0.235484
0.235525
0.235582
0.235653
0.235721
0.235784
0.235845
0.235908
0.235978
0.236052
0.236112
0.236158
0.236189
0.236206
0.236221
0.236237
0.236243
0.236245
0.236249
0.23626
0.236271
0.236283
0.236298
0.236322
0.236365
0.236425
0.236476
0.236522
0.236523
0.236497
0.236482
0.236497
0.236519
0.245198
0.290886
0.371016
0.498936
0.625502
0.721215
0.803148
0.844033
0.870768
0.875461
0.881397
0.905087
0.913492
0.914681
0.917125
0.902036
0.896678
0.90496
0.918337
0.92215
0.918244
0.912364
0.918698
0.925871
0.93239
0.951885
0.993133
1.02902
1.03647
1.0275
1.02039
1.02722
1.04114
1.05136
1.05442
1.05619
1.06418
1.07832
1.09144
1.10705
1.12581
1.13885
1.14596
1.1516
1.15441
0.235346
0.235355
0.235364
0.235372
0.23538
0.235387
0.235394
0.235403
0.235412
0.235421
0.23543
0.235438
0.235447
0.235459
0.235475
0.235496
0.235519
0.235549
0.235582
0.235618
0.235656
0.235697
0.235747
0.235809
0.235883
0.235958
0.236019
0.236073
0.23612
0.236172
0.236226
0.236274
0.236305
0.236329
0.236339
0.236326
0.236316
0.236311
0.236297
0.236291
0.236291
0.236293
0.236302
0.236315
0.236327
0.236345
0.236398
0.236488
0.23652
0.236536
0.236548
0.236514
0.236474
0.236467
0.23651
0.23657
0.236591
0.236589
0.236579
0.250365
0.307674
0.403284
0.547797
0.695326
0.806699
0.865416
0.897444
0.90594
0.90973
0.90112
0.88331
0.896176
0.922477
0.929593
0.925565
0.905062
0.899442
0.906586
0.919501
0.93996
0.970931
1.01089
1.02914
1.02269
1.01132
1.01478
1.02686
1.04555
1.05159
1.05031
1.05289
1.06426
1.07892
1.09163
1.10748
1.12753
1.13968
1.14598
1.15119
1.1537
0.23552
0.235528
0.235537
0.235545
0.235553
0.235562
0.23557
0.235579
0.235589
0.235602
0.235618
0.235634
0.235652
0.235674
0.235698
0.235725
0.235759
0.235801
0.235844
0.235887
0.23593
0.23598
0.236038
0.236098
0.236159
0.236211
0.236249
0.236277
0.236304
0.23634
0.236373
0.236395
0.236409
0.23642
0.236416
0.236384
0.236365
0.236352
0.236325
0.236316
0.236316
0.236317
0.236321
0.23633
0.236326
0.236333
0.236409
0.236535
0.236541
0.236532
0.236537
0.236507
0.236449
0.236441
0.236499
0.236565
0.236636
0.236831
0.236908
0.236819
0.236831
0.237005
0.239704
0.271332
0.36555
0.509171
0.655449
0.750441
0.826284
0.859648
0.883882
0.914009
0.939952
0.935872
0.917988
0.887082
0.889642
0.899715
0.920542
0.954233
0.991959
1.02394
1.01901
1.00578
1.00265
1.01156
1.03479
1.04741
1.04544
1.04501
1.05095
1.06594
1.07903
1.09068
1.10754
1.12867
1.14003
1.14542
1.15026
1.1529
0.235708
0.235722
0.235737
0.235752
0.235766
0.235783
0.235802
0.235821
0.23584
0.235859
0.235881
0.235906
0.235932
0.235963
0.235992
0.236021
0.236058
0.236098
0.236133
0.236164
0.236194
0.236229
0.236265
0.236297
0.236325
0.236352
0.23637
0.236381
0.236396
0.236418
0.236436
0.236447
0.236458
0.23646
0.236448
0.236415
0.236407
0.236402
0.236376
0.236359
0.236357
0.236357
0.23636
0.236356
0.236327
0.236326
0.236416
0.236532
0.236533
0.236485
0.236474
0.23649
0.23649
0.236516
0.236587
0.236619
0.236774
0.237096
0.237161
0.237044
0.237008
0.237129
0.237209
0.237098
0.236926
0.236481
0.259424
0.343266
0.481414
0.661187
0.823328
0.903901
0.926985
0.927977
0.902124
0.881747
0.884325
0.901197
0.926448
0.958069
1.00127
1.00886
0.997429
0.991827
0.999611
1.01906
1.04056
1.04342
1.03749
1.03979
1.05002
1.06748
1.07814
1.08975
1.10829
1.12861
1.13904
1.14422
1.14903
1.15223
0.236015
0.236032
0.236052
0.23607
0.236087
0.236108
0.23613
0.23615
0.236173
0.236193
0.236211
0.236233
0.236255
0.236274
0.236288
0.236302
0.23632
0.236338
0.236349
0.236357
0.236365
0.23637
0.236367
0.236366
0.236373
0.236384
0.236393
0.236401
0.23641
0.236424
0.236441
0.236451
0.236455
0.236451
0.23644
0.236446
0.236466
0.236494
0.236491
0.236459
0.236442
0.236441
0.236443
0.236426
0.23636
0.236343
0.236395
0.236439
0.236434
0.236409
0.236434
0.236501
0.236583
0.236683
0.23682
0.236865
0.237014
0.23724
0.237273
0.237147
0.237155
0.23719
0.237049
0.236774
0.236585
0.236386
0.236052
0.235946
0.236067
0.263834
0.375486
0.568426
0.738374
0.861396
0.878207
0.888851
0.892601
0.908239
0.932441
0.964683
0.989927
0.984858
0.98223
0.988319
1.007
1.03329
1.04151
1.03564
1.03168
1.03715
1.05325
1.0669
1.07609
1.08912
1.11031
1.12874
1.13824
1.14323
1.14808
1.15186
0.236294
0.236307
0.236322
0.236337
0.236354
0.236373
0.236388
0.236401
0.236419
0.236429
0.236433
0.23644
0.236448
0.236449
0.236443
0.236436
0.236432
0.236426
0.236421
0.236415
0.23641
0.236401
0.236382
0.23636
0.236352
0.23635
0.23635
0.236352
0.236356
0.236369
0.236399
0.23641
0.236411
0.236414
0.236431
0.236482
0.236549
0.236612
0.23664
0.236605
0.23656
0.236551
0.23654
0.236479
0.236392
0.23638
0.236375
0.236354
0.236326
0.236353
0.236447
0.236583
0.23672
0.236899
0.237133
0.23721
0.237217
0.237272
0.23723
0.237239
0.237372
0.237265
0.2366
0.236281
0.236257
0.236267
0.236097
0.23602
0.236367
0.237081
0.237195
0.245895
0.31901
0.519066
0.744539
0.867315
0.873015
0.89477
0.923549
0.970673
0.973629
0.974922
0.98306
1.00129
1.02961
1.03979
1.03846
1.02415
1.02675
1.03809
1.05683
1.06506
1.07366
1.08916
1.11344
1.12927
1.13794
1.14304
1.14796
1.15196
0.236468
0.236476
0.236484
0.236494
0.236506
0.236513
0.236513
0.23651
0.236509
0.23651
0.236511
0.236509
0.236505
0.236494
0.236474
0.236455
0.236442
0.236431
0.236415
0.236391
0.236369
0.236349
0.236319
0.236299
0.236298
0.236301
0.236312
0.236317
0.236323
0.236338
0.236373
0.236391
0.236393
0.236397
0.236438
0.236544
0.236633
0.236701
0.236754
0.236734
0.236682
0.236669
0.236642
0.236515
0.236444
0.236448
0.236419
0.236291
0.236257
0.236358
0.236572
0.236723
0.236893
0.237181
0.237462
0.237465
0.2373
0.237118
0.237148
0.237392
0.237457
0.237095
0.235985
0.235741
0.235877
0.23621
0.236334
0.2364
0.236778
0.237104
0.237071
0.23671
0.236084
0.236091
0.311239
0.508331
0.688655
0.81155
0.879099
0.944124
0.966707
0.98634
1.00005
1.03219
1.05187
1.04049
1.02412
1.01773
1.02446
1.0449
1.05773
1.06246
1.07226
1.0923
1.11753
1.13071
1.13869
1.14401
1.14873
1.15273
0.23654
0.236541
0.236543
0.236546
0.236547
0.236546
0.236535
0.236503
0.236489
0.236492
0.236495
0.23649
0.236483
0.236471
0.236444
0.23643
0.236422
0.236413
0.236397
0.23637
0.23634
0.236312
0.236289
0.236283
0.236283
0.236288
0.236305
0.236312
0.236319
0.236337
0.236368
0.236393
0.236397
0.236409
0.236512
0.236626
0.23667
0.236722
0.236797
0.236811
0.236789
0.236782
0.236755
0.236604
0.236506
0.236497
0.236407
0.236241
0.236249
0.236541
0.236772
0.236852
0.237074
0.237493
0.237707
0.237637
0.237236
0.236758
0.236807
0.237123
0.237187
0.236784
0.235663
0.235401
0.235562
0.236273
0.236745
0.236909
0.237162
0.237104
0.236906
0.236285
0.235879
0.235968
0.236328
0.237085
0.303055
0.411627
0.541076
0.663542
0.792685
0.908918
0.976121
1.01273
1.0296
1.03486
1.01007
1.02045
1.03936
1.05349
1.05573
1.06056
1.07567
1.09985
1.12259
1.13473
1.14216
1.14751
1.15129
1.15439
0.236619
0.236616
0.236613
0.236607
0.236595
0.236579
0.236562
0.236514
0.236466
0.236461
0.236451
0.236447
0.236452
0.236464
0.236471
0.236471
0.236463
0.236447
0.236433
0.236416
0.236377
0.236339
0.236334
0.236331
0.236329
0.236339
0.236374
0.236383
0.236389
0.236418
0.236442
0.236436
0.236418
0.236438
0.236588
0.236663
0.236648
0.236671
0.236775
0.236832
0.23684
0.236864
0.236861
0.236736
0.236609
0.236558
0.236381
0.236237
0.236337
0.236763
0.236894
0.23694
0.237267
0.237715
0.237799
0.237705
0.237065
0.236192
0.236109
0.236412
0.236662
0.236482
0.235586
0.235286
0.235451
0.236526
0.237284
0.237439
0.237384
0.237172
0.236719
0.236025
0.235837
0.236122
0.237404
0.23857
0.241371
0.249255
0.26158
0.275089
0.321252
0.41391
0.569263
0.724324
0.851057
0.954799
0.992074
1.0388
1.06028
1.05731
1.05634
1.06355
1.0858
1.10872
1.12764
1.1397
1.14769
1.1533
1.15574
1.15705
0.236531
0.236547
0.236558
0.236557
0.236546
0.236522
0.236488
0.236437
0.236369
0.236352
0.236355
0.236371
0.236406
0.23645
0.236515
0.236598
0.236624
0.23663
0.236647
0.23667
0.236667
0.236644
0.236617
0.236584
0.236533
0.236505
0.236516
0.236527
0.23652
0.236535
0.236563
0.23655
0.236467
0.236413
0.236431
0.236446
0.236438
0.236515
0.236709
0.236813
0.23684
0.236894
0.236931
0.236845
0.236736
0.236704
0.236557
0.236447
0.236551
0.23688
0.236921
0.236979
0.237411
0.237774
0.2378
0.237649
0.236775
0.235685
0.235555
0.235888
0.236423
0.236377
0.23569
0.235446
0.235695
0.237035
0.237862
0.23786
0.237574
0.237125
0.236451
0.235951
0.236122
0.237569
0.239556
0.241291
0.243944
0.250315
0.262408
0.274518
0.283956
0.289495
0.291208
0.317123
0.404089
0.576665
0.818616
0.996816
1.04072
1.06303
1.06579
1.07435
1.10202
1.11771
1.13303
1.14524
1.15262
1.15726
1.15852
1.16049
0.236513
0.236535
0.23656
0.236563
0.236556
0.236531
0.23646
0.236421
0.236426
0.23645
0.236501
0.236567
0.236617
0.236663
0.236741
0.236864
0.2369
0.236901
0.236908
0.236913
0.236911
0.2369
0.236862
0.236791
0.236712
0.236664
0.23667
0.236691
0.236679
0.236679
0.236698
0.236679
0.236557
0.236259
0.236081
0.236068
0.236095
0.236371
0.236703
0.236726
0.236745
0.236843
0.236965
0.236937
0.236903
0.236945
0.236909
0.236802
0.236839
0.236933
0.236892
0.236943
0.23728
0.237435
0.237447
0.237294
0.236501
0.235462
0.235301
0.235553
0.236324
0.236468
0.236371
0.236438
0.236796
0.237845
0.238279
0.238189
0.237646
0.237006
0.236278
0.236997
0.239432
0.241166
0.242125
0.243251
0.245126
0.250265
0.261781
0.27864
0.292458
0.301088
0.30501
0.305726
0.309513
0.313904
0.369489
0.537606
0.780201
0.983791
1.05169
1.09026
1.12827
1.12985
1.14196
1.15419
1.15982
1.16166
1.16176
1.16617
0.236691
0.23678
0.236796
0.23679
0.236775
0.236739
0.236699
0.236693
0.236708
0.236727
0.236749
0.236762
0.236775
0.236801
0.236859
0.236948
0.236985
0.236987
0.236985
0.23697
0.236949
0.236933
0.236893
0.236833
0.236773
0.236715
0.236719
0.236729
0.236699
0.236697
0.236654
0.23653
0.236389
0.236148
0.23591
0.235867
0.235881
0.236046
0.236484
0.236629
0.236595
0.236627
0.236864
0.237145
0.237228
0.237254
0.237181
0.237022
0.236954
0.236842
0.236688
0.23666
0.236742
0.236806
0.236855
0.236845
0.236405
0.235466
0.235257
0.235443
0.236421
0.237329
0.237583
0.23788
0.238283
0.23859
0.238643
0.238343
0.237674
0.237387
0.238366
0.240808
0.244491
0.244981
0.244667
0.245418
0.248193
0.254366
0.26599
0.28392
0.298359
0.308269
0.315276
0.317317
0.318971
0.32421
0.330789
0.333265
0.371595
0.519393
0.805546
1.02886
1.12286
1.139
1.15594
1.16686
1.17162
1.17307
1.1723
1.17637
0.237179
0.237192
0.23718
0.237144
0.237088
0.237014
0.236896
0.2368
0.236774
0.236755
0.236724
0.236711
0.236712
0.236725
0.236762
0.236837
0.236864
0.236865
0.236837
0.236807
0.236811
0.236813
0.236797
0.236774
0.236712
0.236623
0.236614
0.236584
0.236501
0.236377
0.236224
0.2362
0.236154
0.235966
0.235858
0.235845
0.235845
0.235945
0.236359
0.23671
0.236723
0.23669
0.236853
0.237421
0.237619
0.23761
0.23743
0.237149
0.236944
0.236657
0.236365
0.236368
0.236507
0.236554
0.236587
0.236619
0.236489
0.235983
0.235648
0.235761
0.236836
0.238513
0.2389
0.23919
0.239431
0.239163
0.239054
0.239223
0.24009
0.242026
0.244414
0.245738
0.247674
0.248722
0.249464
0.251284
0.256407
0.266206
0.281158
0.296991
0.306452
0.312415
0.318891
0.324583
0.328728
0.332111
0.338601
0.345603
0.345645
0.34709
0.385739
0.565783
0.887045
1.06834
1.16842
1.18193
1.19093
1.19053
1.18884
1.19115
0.237228
0.237215
0.23717
0.237117
0.237052
0.236958
0.236853
0.236744
0.236616
0.23641
0.236195
0.236067
0.236011
0.235976
0.235956
0.235974
0.236003
0.236011
0.235996
0.235913
0.235872
0.235852
0.235834
0.235829
0.235834
0.235847
0.235896
0.235918
0.235887
0.235836
0.235841
0.235947
0.23597
0.235987
0.236022
0.2361
0.236211
0.236435
0.236962
0.237405
0.237445
0.23742
0.237536
0.237787
0.237829
0.237759
0.237529
0.237316
0.23718
0.236822
0.236306
0.236236
0.236449
0.236582
0.236617
0.236667
0.236843
0.237392
0.237757
0.237861
0.238391
0.239609
0.240348
0.240385
0.240518
0.240727
0.241275
0.242432
0.244127
0.246647
0.250192
0.2502
0.250325
0.252767
0.256743
0.26029
0.265326
0.275501
0.290276
0.306457
0.31833
0.322493
0.325268
0.331683
0.338947
0.342279
0.345648
0.352676
0.355782
0.358432
0.362388
0.365449
0.426948
0.731195
1.08625
1.18188
1.21281
1.20679
1.20469
1.20771
0.236535
0.23652
0.236504
0.236481
0.236461
0.236429
0.236369
0.236358
0.236328
0.236129
0.235853
0.235721
0.23559
0.23547
0.23547
0.235495
0.235469
0.235487
0.235499
0.235453
0.235446
0.235458
0.235448
0.235454
0.235496
0.235609
0.235824
0.235915
0.23594
0.236024
0.236248
0.236599
0.236855
0.237028
0.237177
0.237325
0.237531
0.237945
0.238249
0.238247
0.238207
0.238122
0.237958
0.237865
0.237852
0.237657
0.237481
0.237491
0.237491
0.237218
0.236525
0.236393
0.236612
0.236844
0.236932
0.237214
0.238282
0.240141
0.241689
0.242263
0.242337
0.242634
0.243464
0.243691
0.244084
0.245389
0.247149
0.248989
0.250877
0.252792
0.25597
0.258621
0.259701
0.261179
0.264637
0.268566
0.273719
0.283257
0.296164
0.310964
0.326072
0.335748
0.338513
0.340774
0.34517
0.349247
0.351685
0.356251
0.363302
0.36862
0.373124
0.378056
0.379899
0.391494
0.608885
1.01159
1.20735
1.21685
1.21786
1.22434
0.236411
0.236442
0.236465
0.236479
0.236477
0.236423
0.23635
0.236363
0.236372
0.236275
0.235999
0.235852
0.235699
0.235556
0.235551
0.235632
0.235625
0.235655
0.235787
0.235864
0.235952
0.235971
0.235991
0.236059
0.236207
0.236444
0.23675
0.237016
0.237256
0.237479
0.237731
0.23802
0.238286
0.238514
0.238718
0.238947
0.239041
0.239014
0.238903
0.238738
0.238574
0.23827
0.237827
0.237586
0.237571
0.237639
0.237788
0.237899
0.237873
0.237698
0.237501
0.237569
0.237842
0.238294
0.239011
0.240412
0.242713
0.244809
0.246553
0.24818
0.24846
0.248123
0.248613
0.250237
0.251834
0.253573
0.256132
0.259627
0.263296
0.264891
0.265839
0.268346
0.271361
0.273445
0.275665
0.278909
0.283997
0.292216
0.303503
0.316713
0.332119
0.344928
0.348836
0.349971
0.352026
0.356663
0.360338
0.363274
0.370161
0.37798
0.382983
0.387381
0.391091
0.393289
0.395783
0.564121
1.01556
1.18409
1.2315
1.24296
0.23665
0.236706
0.236773
0.236869
0.236931
0.236957
0.237031
0.23729
0.237436
0.237432
0.237381
0.237253
0.237214
0.237226
0.237369
0.237421
0.237417
0.237541
0.237943
0.23832
0.238448
0.238466
0.238486
0.238511
0.238543
0.238634
0.238717
0.238807
0.238963
0.239095
0.239246
0.239437
0.23957
0.239683
0.239763
0.239733
0.239532
0.2392
0.238843
0.238578
0.238369
0.238092
0.237781
0.237637
0.237672
0.237825
0.238133
0.238719
0.239663
0.241052
0.24284
0.244598
0.246161
0.247557
0.248833
0.250131
0.251526
0.252292
0.252995
0.254685
0.255687
0.256025
0.256844
0.259045
0.262579
0.265419
0.268089
0.271229
0.274284
0.275965
0.276519
0.27769
0.2808
0.284203
0.286908
0.28997
0.294212
0.301013
0.312566
0.328333
0.341975
0.352105
0.357358
0.360042
0.363536
0.368797
0.374609
0.379355
0.383322
0.388171
0.392055
0.395655
0.400431
0.404894
0.409211
0.409939
0.530453
0.95873
1.21315
1.25579
0.239526
0.239593
0.239653
0.239724
0.239777
0.239829
0.239969
0.240264
0.240347
0.240334
0.240284
0.240158
0.240001
0.239982
0.239975
0.239947
0.239954
0.24004
0.240286
0.240357
0.24036
0.240357
0.240296
0.240238
0.240184
0.240067
0.240015
0.240062
0.240192
0.240203
0.24012
0.240131
0.240305
0.240351
0.240283
0.240132
0.239771
0.239477
0.239604
0.23999
0.240116
0.240407
0.241161
0.242303
0.243641
0.245221
0.247189
0.249436
0.251727
0.253827
0.255364
0.256679
0.257845
0.258615
0.259306
0.259932
0.26011
0.25998
0.260198
0.261334
0.263889
0.267074
0.269858
0.272545
0.275901
0.279141
0.280579
0.281457
0.282834
0.284766
0.286547
0.288447
0.291483
0.295041
0.297591
0.300261
0.30387
0.310583
0.324441
0.344806
0.357033
0.36276
0.368467
0.373709
0.37818
0.383447
0.38895
0.394063
0.397158
0.399531
0.402541
0.40507
0.408737
0.412595
0.416175
0.420518
0.421782
0.541195
0.990587
1.23241
0.241847
0.241816
0.241752
0.241724
0.241727
0.241723
0.241694
0.241537
0.241311
0.241283
0.241286
0.241325
0.24138
0.241362
0.24121
0.241082
0.241111
0.24106
0.240947
0.24072
0.240669
0.240825
0.240854
0.24092
0.241162
0.241384
0.241586
0.241903
0.24239
0.242876
0.243353
0.243945
0.244666
0.245496
0.246438
0.247501
0.248713
0.250007
0.251339
0.252825
0.254513
0.256256
0.257998
0.259599
0.260899
0.26206
0.263201
0.263865
0.264215
0.2648
0.265437
0.265837
0.266092
0.266305
0.267059
0.26824
0.269373
0.270913
0.273097
0.276038
0.279364
0.282871
0.285662
0.286995
0.288359
0.291157
0.291944
0.29218
0.293141
0.295494
0.299058
0.302136
0.304352
0.307096
0.309534
0.31171
0.315117
0.322196
0.336573
0.356732
0.370183
0.376105
0.380971
0.38588
0.389794
0.393753
0.39755
0.401588
0.404684
0.407847
0.411185
0.414769
0.418052
0.421668
0.424656
0.428852
0.434
0.434793
0.537891
1.02411
0.245725
0.245941
0.246201
0.246493
0.246791
0.24709
0.24741
0.247749
0.248137
0.248568
0.249035
0.249552
0.250095
0.250643
0.251214
0.251765
0.252323
0.252945
0.25362
0.25435
0.255065
0.255757
0.256515
0.257329
0.258161
0.258963
0.259707
0.260479
0.261286
0.261931
0.262584
0.263278
0.263856
0.264473
0.265256
0.26596
0.266593
0.267356
0.268172
0.268856
0.269542
0.270218
0.270847
0.271277
0.271516
0.271918
0.272506
0.272502
0.272557
0.273129
0.274627
0.275775
0.2769
0.278846
0.281866
0.285136
0.288007
0.290609
0.293438
0.295613
0.296528
0.297526
0.298874
0.298934
0.298996
0.299973
0.302243
0.304802
0.307226
0.309838
0.313255
0.316602
0.317978
0.319205
0.321063
0.323261
0.326823
0.334213
0.347217
0.364586
0.380655
0.388891
0.393738
0.397802
0.400805
0.401796
0.403993
0.406267
0.410663
0.416036
0.420623
0.425475
0.429005
0.433406
0.438253
0.44208
0.445945
0.448823
0.448104
0.760321
0.265106
0.265311
0.265557
0.265806
0.266056
0.266279
0.266505
0.266764
0.267014
0.26726
0.267533
0.267854
0.268197
0.268532
0.268845
0.269131
0.269437
0.269775
0.270157
0.270506
0.270882
0.271292
0.27166
0.271986
0.272408
0.272822
0.273272
0.273592
0.273907
0.274257
0.274811
0.275191
0.27542
0.275762
0.276379
0.276631
0.276881
0.277607
0.278297
0.278785
0.279489
0.280311
0.2812
0.282155
0.283302
0.284652
0.286134
0.287948
0.290088
0.292284
0.294586
0.297052
0.299605
0.301853
0.303129
0.303908
0.304565
0.30508
0.306405
0.307312
0.307324
0.307531
0.308705
0.310315
0.311795
0.313506
0.316606
0.320593
0.324308
0.326557
0.327258
0.328689
0.329986
0.331066
0.332811
0.335456
0.339563
0.347836
0.359883
0.373856
0.389536
0.400998
0.407194
0.411657
0.41436
0.416406
0.419557
0.423312
0.427084
0.431673
0.436501
0.440853
0.443749
0.446345
0.449284
0.45285
0.45563
0.459308
0.461459
0.534251
0.280791
0.280983
0.281167
0.281343
0.281602
0.281754
0.281881
0.282071
0.282379
0.282754
0.283107
0.283454
0.283806
0.284095
0.284397
0.284731
0.285106
0.285461
0.285804
0.286216
0.286672
0.287144
0.287647
0.288012
0.28842
0.288922
0.289328
0.289772
0.290369
0.291133
0.291903
0.292703
0.293596
0.294583
0.295648
0.296772
0.297957
0.299201
0.300451
0.301709
0.302943
0.304243
0.305526
0.306693
0.307748
0.308726
0.309633
0.310404
0.311149
0.311993
0.312756
0.313365
0.314402
0.315139
0.315003
0.315021
0.315056
0.315139
0.31584
0.317703
0.320172
0.322334
0.324489
0.327675
0.331388
0.334338
0.336235
0.337107
0.338699
0.340233
0.340176
0.340452
0.342075
0.345049
0.348222
0.351147
0.355031
0.36189
0.372948
0.386549
0.401697
0.41416
0.420296
0.424244
0.427392
0.431421
0.435303
0.439937
0.444573
0.447284
0.449567
0.451998
0.45569
0.459572
0.462271
0.463475
0.46532
0.468156
0.470972
0.476321
0.302038
0.302225
0.302474
0.302724
0.302945
0.30318
0.303417
0.303697
0.304022
0.304343
0.304665
0.305004
0.305341
0.30566
0.305952
0.306296
0.306667
0.307015
0.30738
0.307813
0.30825
0.308701
0.309193
0.30972
0.310212
0.310761
0.311378
0.311974
0.312601
0.313251
0.313775
0.314222
0.31468
0.315113
0.31548
0.315802
0.316161
0.316499
0.316898
0.317338
0.317875
0.318447
0.31902
0.319625
0.320116
0.320748
0.321453
0.321703
0.322038
0.322808
0.323341
0.323707
0.324492
0.32601
0.32796
0.329857
0.332018
0.334697
0.337248
0.339643
0.342107
0.344322
0.345946
0.347084
0.348335
0.349554
0.349603
0.349319
0.349585
0.351181
0.353721
0.356083
0.359054
0.362397
0.364857
0.367125
0.369982
0.374418
0.383788
0.400466
0.419821
0.432554
0.436005
0.437558
0.441021
0.445814
0.449763
0.453824
0.458124
0.460187
0.461676
0.463853
0.466274
0.469709
0.473367
0.476952
0.47856
0.480455
0.481837
0.483425
0.321531
0.321635
0.321769
0.321877
0.321974
0.322125
0.322323
0.322555
0.322788
0.322977
0.32317
0.323373
0.323557
0.323775
0.323967
0.324229
0.324577
0.324809
0.324964
0.325216
0.325574
0.325925
0.326222
0.326482
0.326824
0.327151
0.327475
0.327835
0.328461
0.329021
0.329228
0.329406
0.329839
0.330515
0.331278
0.33199
0.332687
0.333459
0.334262
0.335058
0.335802
0.336488
0.337151
0.337889
0.33879
0.339892
0.341258
0.342962
0.344675
0.346366
0.348029
0.349705
0.351343
0.352622
0.353618
0.354659
0.355803
0.35722
0.358412
0.358884
0.359268
0.359803
0.360006
0.359959
0.36027
0.361298
0.362608
0.364264
0.366487
0.369543
0.372966
0.375804
0.377992
0.379621
0.380451
0.38156
0.383632
0.387888
0.397458
0.415609
0.436816
0.450461
0.454617
0.456211
0.458226
0.46203
0.466719
0.469362
0.470232
0.472254
0.475362
0.478962
0.482599
0.484389
0.48627
0.487995
0.490461
0.492057
0.493822
0.497706
0.343842
0.343959
0.344109
0.344319
0.344592
0.344907
0.345174
0.345385
0.345592
0.345807
0.346038
0.346241
0.346481
0.346694
0.346997
0.347415
0.347582
0.347767
0.348012
0.348398
0.34878
0.349122
0.349448
0.349781
0.350155
0.350598
0.351079
0.351679
0.352399
0.353001
0.353453
0.353847
0.35433
0.355137
0.355982
0.35656
0.357086
0.357649
0.358264
0.358918
0.359603
0.36036
0.361193
0.362155
0.363177
0.363905
0.364445
0.364893
0.365305
0.3658
0.366309
0.366903
0.367813
0.368169
0.368336
0.368675
0.36881
0.369245
0.370323
0.37078
0.371262
0.372597
0.374795
0.377194
0.379434
0.382174
0.385406
0.388324
0.390455
0.391974
0.393482
0.394068
0.393975
0.39451
0.395864
0.397509
0.400123
0.405918
0.417382
0.434591
0.452451
0.465008
0.471923
0.474834
0.476997
0.479539
0.483511
0.48506
0.486578
0.488955
0.492634
0.495538
0.498187
0.500876
0.501486
0.502373
0.503633
0.505266
0.507124
0.510431
0.367209
0.367306
0.367449
0.367633
0.367747
0.367892
0.368078
0.368223
0.368378
0.368548
0.36872
0.368929
0.369176
0.369445
0.369629
0.369959
0.370303
0.370522
0.370792
0.371099
0.371448
0.371907
0.372243
0.372508
0.372869
0.373201
0.373636
0.374228
0.374499
0.374732
0.375095
0.375243
0.375412
0.375863
0.376013
0.376168
0.376554
0.377096
0.377673
0.378124
0.378542
0.379027
0.379459
0.380121
0.381277
0.381659
0.381819
0.382154
0.382907
0.384029
0.385184
0.386033
0.386798
0.388029
0.389742
0.391412
0.39292
0.394267
0.395858
0.397965
0.400207
0.402048
0.403668
0.40526
0.406563
0.407196
0.407845
0.408483
0.408429
0.408339
0.408809
0.409608
0.410435
0.41176
0.414064
0.41718
0.420792
0.426096
0.435564
0.450386
0.467888
0.48291
0.490663
0.494087
0.496459
0.497554
0.498716
0.501465
0.504392
0.507144
0.509618
0.512303
0.513829
0.515223
0.51717
0.519406
0.520572
0.521571
0.522702
0.52537
0.393635
0.393773
0.393931
0.394095
0.394201
0.39437
0.394576
0.394633
0.394755
0.395058
0.39536
0.395435
0.395537
0.395755
0.396027
0.396277
0.396466
0.396705
0.396909
0.397135
0.397609
0.397805
0.397737
0.39775
0.397988
0.398394
0.398768
0.399134
0.399617
0.400111
0.400528
0.401098
0.401732
0.402217