/*--------------------------------*- C++ -*----------------------------------*\
  =========                 |
  \\      /  F ield         | OpenFOAM: The Open Source CFD Toolbox
   \\    /   O peration     | Website:  https://openfoam.org
    \\  /    A nd           | Version:  7
     \\/     M anipulation  |
\*---------------------------------------------------------------------------*/
FoamFile
{
    version     2.0;
    format      ascii;
    class       volVectorField;
    location    "5.6";
    object      U;
}
// * * * * * * * * * * * * * * * * * * * * * * * * * * * * * * * * * * * * * //

dimensions      [0 1 -1 0 0 0 0];

internalField   nonuniform List<vector> 
11200
(
(2.54342 -0.624861 0)
(2.51908 -0.208149 0)
(2.49949 0.0777086 0)
(2.54148 0.127909 0)
(2.51621 0.358276 0)
(2.53092 0.342104 0)
(2.56572 0.398394 0)
(2.60519 0.421943 0)
(2.61982 0.380394 0)
(2.63747 0.315692 0)
(2.67757 0.276913 0)
(2.68497 0.218934 0)
(2.68572 0.151466 0)
(2.70493 0.0967255 0)
(2.73691 0.119333 0)
(2.75476 0.162487 0)
(2.77256 0.193694 0)
(2.76979 0.184133 0)
(2.7671 0.160385 0)
(2.76047 0.126644 0)
(2.77977 0.113403 0)
(2.79379 0.124002 0)
(2.81146 0.135687 0)
(2.82221 0.141201 0)
(2.82389 0.13077 0)
(2.82669 0.107177 0)
(2.83433 0.0935027 0)
(2.83821 0.0731542 0)
(2.85375 0.0611562 0)
(2.85815 0.0518398 0)
(2.66903 -1.44449 0)
(2.67913 -1.42837 0)
(2.66834 -1.24345 0)
(2.62719 -1.08755 0)
(2.52396 -0.660316 0)
(2.50738 -0.486932 0)
(2.44812 -0.209389 0)
(2.44476 -0.0096449 0)
(2.46635 0.0687909 0)
(2.47437 0.100657 0)
(2.49374 0.14196 0)
(2.51962 0.114583 0)
(2.55364 0.112447 0)
(2.56482 0.101537 0)
(2.58588 0.10128 0)
(2.59514 0.103419 0)
(2.5946 0.108546 0)
(2.5883 0.123898 0)
(2.60238 0.131447 0)
(2.61978 0.129264 0)
(2.65172 0.123901 0)
(2.67028 0.123978 0)
(2.68776 0.129509 0)
(2.69716 0.119596 0)
(2.70562 0.0978365 0)
(2.7153 0.089788 0)
(2.72753 0.0940015 0)
(2.73394 0.0849229 0)
(2.75157 0.0846407 0)
(2.76252 0.0632762 0)
(2.84556 -1.51955 0)
(2.89653 -1.52395 0)
(2.91129 -1.58191 0)
(2.92931 -1.58158 0)
(2.94524 -1.58658 0)
(2.95012 -1.57454 0)
(2.89496 -1.43157 0)
(2.78077 -1.12536 0)
(2.69514 -0.8332 0)
(2.56774 -0.446368 0)
(2.54676 -0.250609 0)
(2.4723 0.0224622 0)
(2.44327 0.171344 0)
(2.43205 0.210077 0)
(2.46619 0.212617 0)
(2.48174 0.172608 0)
(2.48428 0.119979 0)
(2.50034 0.10049 0)
(2.51198 0.111798 0)
(2.53012 0.139131 0)
(2.55308 0.139211 0)
(2.56718 0.121488 0)
(2.57602 0.109324 0)
(2.58013 0.109811 0)
(2.59251 0.0982125 0)
(2.60778 0.0849462 0)
(2.62316 0.0807662 0)
(2.63225 0.0637477 0)
(2.64764 0.0608207 0)
(2.66486 0.049969 0)
(2.98089 -1.61693 0)
(2.99619 -1.62648 0)
(3.01358 -1.62101 0)
(3.02376 -1.62291 0)
(3.03253 -1.6202 0)
(3.04137 -1.61457 0)
(3.04829 -1.62509 0)
(3.0516 -1.63037 0)
(3.05907 -1.64227 0)
(3.0463 -1.6142 0)
(2.9825 -1.46004 0)
(2.86499 -1.13247 0)
(2.7509 -0.709708 0)
(2.68782 -0.365285 0)
(2.55192 -0.0280356 0)
(2.53145 0.0562048 0)
(2.53268 0.0809917 0)
(2.53898 0.105809 0)
(2.53359 0.120423 0)
(2.53118 0.124014 0)
(2.52585 0.111751 0)
(2.5252 0.0950656 0)
(2.52639 0.098251 0)
(2.53125 0.109088 0)
(2.54231 0.105887 0)
(2.55723 0.0929034 0)
(2.56888 0.0772694 0)
(2.57692 0.0631888 0)
(2.58729 0.06806 0)
(2.60254 0.0557116 0)
(3.0593 -1.63097 0)
(3.06367 -1.62371 0)
(3.06197 -1.62417 0)
(3.05865 -1.62322 0)
(3.05536 -1.62453 0)
(3.05496 -1.62581 0)
(3.05577 -1.62768 0)
(3.06483 -1.63873 0)
(3.07089 -1.64308 0)
(3.07431 -1.64649 0)
(3.07675 -1.65133 0)
(3.07691 -1.65551 0)
(3.07938 -1.65577 0)
(3.03314 -1.5178 0)
(2.82671 -0.945802 0)
(2.75248 -0.505466 0)
(2.60057 -0.017451 0)
(2.58958 0.0526886 0)
(2.57676 0.153449 0)
(2.54556 0.125276 0)
(2.52972 0.105109 0)
(2.53058 0.0881848 0)
(2.53507 0.0944768 0)
(2.53879 0.0928536 0)
(2.54302 0.0836625 0)
(2.55269 0.075751 0)
(2.55975 0.0647782 0)
(2.56652 0.0526096 0)
(2.57295 0.0579907 0)
(2.58438 0.049232 0)
(3.07356 -1.62084 0)
(3.07224 -1.62027 0)
(3.06977 -1.61881 0)
(3.06594 -1.61851 0)
(3.06096 -1.62085 0)
(3.05917 -1.62419 0)
(3.05923 -1.6294 0)
(3.06838 -1.64209 0)
(3.07271 -1.64588 0)
(3.07526 -1.64709 0)
(3.07692 -1.65139 0)
(3.07264 -1.66209 0)
(3.07407 -1.6635 0)
(3.07638 -1.6597 0)
(3.06792 -1.65652 0)
(3.04977 -1.61314 0)
(2.9276 -1.24351 0)
(2.8305 -0.758245 0)
(2.71105 -0.252603 0)
(2.7109 -0.088699 0)
(2.60646 0.0768454 0)
(2.5628 0.0748389 0)
(2.56467 0.0993595 0)
(2.56412 0.0804721 0)
(2.56577 0.0499024 0)
(2.57457 0.0515083 0)
(2.57306 0.0392768 0)
(2.58004 0.0409128 0)
(2.58409 0.045485 0)
(2.59128 0.0347257 0)
(3.06917 -1.63593 0)
(3.06605 -1.63604 0)
(3.06243 -1.63678 0)
(3.05961 -1.63938 0)
(3.05959 -1.64335 0)
(3.06181 -1.64826 0)
(3.06488 -1.65167 0)
(3.07023 -1.65457 0)
(3.07341 -1.65591 0)
(3.07445 -1.656 0)
(3.07417 -1.65699 0)
(3.06557 -1.66219 0)
(3.0587 -1.66529 0)
(3.06369 -1.6629 0)
(3.06266 -1.65749 0)
(3.06048 -1.65896 0)
(3.05145 -1.64712 0)
(3.05717 -1.63068 0)
(3.00203 -1.38536 0)
(2.92635 -0.906085 0)
(2.77995 -0.363317 0)
(2.74439 -0.129265 0)
(2.65067 0.0917895 0)
(2.60399 0.070788 0)
(2.61765 0.0898201 0)
(2.62534 0.077639 0)
(2.61851 0.0519724 0)
(2.62593 0.0620108 0)
(2.62456 0.0624252 0)
(2.62638 0.0548988 0)
(3.0538 -1.64394 0)
(3.05377 -1.64448 0)
(3.05244 -1.64476 0)
(3.05418 -1.65404 0)
(3.0556 -1.65694 0)
(3.05744 -1.65923 0)
(3.06122 -1.66017 0)
(3.06532 -1.65739 0)
(3.06874 -1.65563 0)
(3.07186 -1.65518 0)
(3.07137 -1.65402 0)
(3.05843 -1.65555 0)
(3.04748 -1.66243 0)
(3.05039 -1.65456 0)
(3.05546 -1.64806 0)
(3.04978 -1.65788 0)
(3.0453 -1.6285 0)
(3.05575 -1.57634 0)
(3.07678 -1.565 0)
(3.08452 -1.56053 0)
(3.04651 -1.41648 0)
(2.97194 -0.998202 0)
(2.85413 -0.459248 0)
(2.84423 -0.199829 0)
(2.72356 0.0335291 0)
(2.67144 0.0679604 0)
(2.6756 0.0818545 0)
(2.69817 0.0690595 0)
(2.68901 0.023143 0)
(2.69257 0.0190121 0)
(3.04844 -1.65194 0)
(3.05193 -1.65395 0)
(3.05336 -1.65435 0)
(3.05381 -1.65626 0)
(3.05528 -1.65707 0)
(3.05734 -1.65518 0)
(3.05433 -1.65806 0)
(3.0523 -1.65341 0)
(3.05094 -1.63644 0)
(3.05707 -1.62578 0)
(3.06236 -1.61295 0)
(3.0643 -1.61291 0)
(3.05862 -1.63813 0)
(3.06081 -1.61716 0)
(3.06669 -1.59487 0)
(3.05949 -1.60342 0)
(3.0553 -1.58329 0)
(3.0453 -1.57463 0)
(3.05419 -1.54964 0)
(3.07508 -1.49018 0)
(3.09032 -1.49994 0)
(3.0968 -1.48092 0)
(3.08418 -1.38611 0)
(3.04016 -1.01962 0)
(2.92612 -0.557283 0)
(2.87576 -0.252597 0)
(2.79502 -0.00355375 0)
(2.75201 0.0754917 0)
(2.74506 0.0705633 0)
(2.76029 0.0620768 0)
(3.06439 -1.6309 0)
(3.06644 -1.62766 0)
(3.07188 -1.61876 0)
(3.072 -1.61827 0)
(3.07073 -1.6188 0)
(3.07185 -1.61071 0)
(3.0663 -1.61132 0)
(3.05666 -1.62794 0)
(3.05941 -1.61066 0)
(3.06811 -1.58958 0)
(3.07437 -1.57695 0)
(3.09632 -1.54438 0)
(3.09435 -1.54124 0)
(3.08416 -1.54183 0)
(3.07614 -1.53829 0)
(3.07681 -1.54497 0)
(3.07936 -1.52267 0)
(3.0771 -1.50481 0)
(3.0687 -1.49628 0)
(3.06718 -1.46896 0)
(3.07387 -1.43422 0)
(3.08038 -1.41378 0)
(3.10526 -1.37099 0)
(3.11125 -1.36218 0)
(3.10174 -1.34006 0)
(3.04646 -1.01655 0)
(2.97888 -0.581822 0)
(2.91193 -0.262755 0)
(2.8593 -0.0399875 0)
(2.80529 0.056722 0)
(3.05343 -1.6187 0)
(3.05614 -1.62044 0)
(3.06274 -1.61486 0)
(3.07194 -1.60597 0)
(3.07355 -1.61195 0)
(3.07845 -1.59726 0)
(3.08204 -1.58352 0)
(3.07373 -1.58963 0)
(3.069 -1.58622 0)
(3.06995 -1.55914 0)
(3.07218 -1.52139 0)
(3.09411 -1.4903 0)
(3.10036 -1.48222 0)
(3.09883 -1.48297 0)
(3.09138 -1.45017 0)
(3.10204 -1.41823 0)
(3.1055 -1.41778 0)
(3.11248 -1.38361 0)
(3.10325 -1.3782 0)
(3.09481 -1.37384 0)
(3.08938 -1.36791 0)
(3.08148 -1.37182 0)
(3.08057 -1.35235 0)
(3.10064 -1.30958 0)
(3.11801 -1.27551 0)
(3.11388 -1.27469 0)
(3.10083 -1.26864 0)
(3.04748 -0.945175 0)
(3.02137 -0.606882 0)
(2.89888 -0.146306 0)
(3.08553 -1.50738 0)
(3.08962 -1.49891 0)
(3.09581 -1.49566 0)
(3.10635 -1.4752 0)
(3.10958 -1.46692 0)
(3.11052 -1.4661 0)
(3.11439 -1.45981 0)
(3.10888 -1.46182 0)
(3.09328 -1.48136 0)
(3.0831 -1.47436 0)
(3.08694 -1.42983 0)
(3.09714 -1.40774 0)
(3.09661 -1.41193 0)
(3.09569 -1.42283 0)
(3.09046 -1.39212 0)
(3.09275 -1.36279 0)
(3.09745 -1.3587 0)
(3.10664 -1.34391 0)
(3.11469 -1.30928 0)
(3.11641 -1.29376 0)
(3.11665 -1.28477 0)
(3.10829 -1.27067 0)
(3.09113 -1.27276 0)
(3.08824 -1.26528 0)
(3.1038 -1.23918 0)
(3.12148 -1.21095 0)
(3.12393 -1.19804 0)
(3.11227 -1.19047 0)
(3.10688 -1.18611 0)
(3.01822 -0.616657 0)
(3.099 -1.46064 0)
(3.09813 -1.44993 0)
(3.10005 -1.44565 0)
(3.10465 -1.42781 0)
(3.10163 -1.40481 0)
(3.10767 -1.37673 0)
(3.11917 -1.36417 0)
(3.11875 -1.3606 0)
(3.10814 -1.3649 0)
(3.09668 -1.36942 0)
(3.09688 -1.36299 0)
(3.09977 -1.35762 0)
(3.1082 -1.34378 0)
(3.10691 -1.34145 0)
(3.09531 -1.33461 0)
(3.08975 -1.31213 0)
(3.09509 -1.29841 0)
(3.10011 -1.28852 0)
(3.10236 -1.27138 0)
(3.10878 -1.23892 0)
(3.12085 -1.21381 0)
(3.123 -1.20496 0)
(3.11533 -1.19565 0)
(3.10122 -1.19571 0)
(3.10016 -1.185 0)
(3.11164 -1.174 0)
(3.1224 -1.14693 0)
(3.12521 -1.13574 0)
(3.12128 -1.12385 0)
(3.11651 -1.1105 0)
(3.1218 -1.3094 0)
(3.11947 -1.30791 0)
(3.11641 -1.29976 0)
(3.1122 -1.29711 0)
(3.11008 -1.28545 0)
(3.10839 -1.27533 0)
(3.11662 -1.2609 0)
(3.1217 -1.25908 0)
(3.11918 -1.26955 0)
(3.11747 -1.26478 0)
(3.11541 -1.23494 0)
(3.11334 -1.20887 0)
(3.12454 -1.18404 0)
(3.13116 -1.1758 0)
(3.12044 -1.17735 0)
(3.11549 -1.18226 0)
(3.11836 -1.18234 0)
(3.11916 -1.17852 0)
(3.11037 -1.18243 0)
(3.10466 -1.18255 0)
(3.11182 -1.16076 0)
(3.11934 -1.14134 0)
(3.12335 -1.12877 0)
(3.12355 -1.12204 0)
(3.11858 -1.10494 0)
(3.11432 -1.1019 0)
(3.1176 -1.09692 0)
(3.12351 -1.08062 0)
(3.12652 -1.06916 0)
(3.1262 -1.053 0)
(3.12672 -1.20695 0)
(3.12409 -1.20762 0)
(3.12016 -1.21438 0)
(3.11499 -1.20183 0)
(3.1134 -1.18524 0)
(3.11155 -1.17841 0)
(3.12208 -1.15686 0)
(3.13118 -1.1459 0)
(3.13151 -1.14693 0)
(3.1196 -1.16148 0)
(3.11238 -1.16959 0)
(3.11157 -1.15856 0)
(3.1148 -1.15525 0)
(3.11993 -1.15488 0)
(3.11683 -1.13866 0)
(3.11588 -1.1126 0)
(3.12605 -1.09318 0)
(3.1319 -1.07989 0)
(3.12949 -1.0771 0)
(3.12311 -1.08307 0)
(3.11811 -1.09146 0)
(3.11839 -1.07587 0)
(3.12596 -1.05269 0)
(3.13169 -1.04152 0)
(3.13257 -1.03328 0)
(3.12737 -1.02503 0)
(3.12229 -1.02067 0)
(3.12286 -1.01793 0)
(3.12617 -1.01568 0)
(3.12908 -1.00042 0)
(3.13475 -1.05257 0)
(3.13294 -1.06058 0)
(3.12872 -1.07097 0)
(3.12368 -1.0691 0)
(3.11927 -1.06455 0)
(3.11766 -1.05852 0)
(3.12845 -1.03246 0)
(3.13826 -1.01922 0)
(3.13785 -1.02004 0)
(3.1315 -1.02479 0)
(3.12822 -1.02094 0)
(3.12773 -1.01825 0)
(3.12998 -1.00513 0)
(3.13337 -0.996052 0)
(3.12621 -1.00021 0)
(3.12126 -1.01567 0)
(3.12505 -1.01985 0)
(3.1254 -1.01011 0)
(3.13216 -0.996134 0)
(3.13539 -0.979216 0)
(3.13335 -0.974133 0)
(3.12976 -0.976424 0)
(3.12813 -0.979772 0)
(3.13073 -0.969137 0)
(3.13325 -0.967466 0)
(3.13366 -0.960971 0)
(3.13156 -0.957066 0)
(3.12935 -0.951297 0)
(3.12995 -0.945762 0)
(3.13062 -0.941754 0)
(3.13639 -0.924908 0)
(3.13755 -0.926654 0)
(3.13471 -0.934685 0)
(3.13098 -0.95075 0)
(3.12618 -0.946032 0)
(3.12803 -0.931367 0)
(3.13037 -0.92555 0)
(3.13496 -0.911786 0)
(3.134 -0.90876 0)
(3.12984 -0.91658 0)
(3.12828 -0.929763 0)
(3.12853 -0.930187 0)
(3.12971 -0.924683 0)
(3.13272 -0.918437 0)
(3.1335 -0.914851 0)
(3.13399 -0.908267 0)
(3.13367 -0.90478 0)
(3.13153 -0.906268 0)
(3.12984 -0.910466 0)
(3.13147 -0.911491 0)
(3.1327 -0.908848 0)
(3.13437 -0.900541 0)
(3.13399 -0.897558 0)
(3.13087 -0.898081 0)
(3.13052 -0.896583 0)
(3.1331 -0.892562 0)
(3.13441 -0.889902 0)
(3.13388 -0.886403 0)
(3.1341 -0.882153 0)
(3.13249 -0.880094 0)
(3.13802 -0.787139 0)
(3.13735 -0.791923 0)
(3.13669 -0.797692 0)
(3.13137 -0.81226 0)
(3.12905 -0.81727 0)
(3.13377 -0.80895 0)
(3.13739 -0.793299 0)
(3.13653 -0.775432 0)
(3.13519 -0.778265 0)
(3.13101 -0.791512 0)
(3.13208 -0.801534 0)
(3.13393 -0.802436 0)
(3.13487 -0.795836 0)
(3.13338 -0.791131 0)
(3.13516 -0.795177 0)
(3.13351 -0.799969 0)
(3.13427 -0.799772 0)
(3.13648 -0.796048 0)
(3.13699 -0.792893 0)
(3.13411 -0.795295 0)
(3.13277 -0.797234 0)
(3.13233 -0.80223 0)
(3.13307 -0.803338 0)
(3.13376 -0.804136 0)
(3.13311 -0.805432 0)
(3.13225 -0.808949 0)
(3.13269 -0.812687 0)
(3.13307 -0.814321 0)
(3.13306 -0.815001 0)
(3.13235 -0.817552 0)
(3.13566 -0.646659 0)
(3.13236 -0.6548 0)
(3.13301 -0.65764 0)
(3.12497 -0.670619 0)
(3.12257 -0.673637 0)
(3.12611 -0.671065 0)
(3.1315 -0.654859 0)
(3.13323 -0.6456 0)
(3.13246 -0.6549 0)
(3.13027 -0.664045 0)
(3.12474 -0.677343 0)
(3.12349 -0.679034 0)
(3.12973 -0.679513 0)
(3.13106 -0.68127 0)
(3.13091 -0.683879 0)
(3.13087 -0.684883 0)
(3.12983 -0.691176 0)
(3.12869 -0.699425 0)
(3.12868 -0.704532 0)
(3.13005 -0.705912 0)
(3.13158 -0.707114 0)
(3.1305 -0.715886 0)
(3.13004 -0.71865 0)
(3.1314 -0.716388 0)
(3.13276 -0.723111 0)
(3.13201 -0.722715 0)
(3.131 -0.729165 0)
(3.1306 -0.735955 0)
(3.13039 -0.738269 0)
(3.1305 -0.746094 0)
(3.121 -0.494962 0)
(3.11916 -0.498662 0)
(3.118 -0.50712 0)
(3.10769 -0.531753 0)
(3.10416 -0.538479 0)
(3.11055 -0.530347 0)
(3.11878 -0.509379 0)
(3.12418 -0.506362 0)
(3.12078 -0.517543 0)
(3.11783 -0.534759 0)
(3.11132 -0.546177 0)
(3.11331 -0.547443 0)
(3.11889 -0.550084 0)
(3.12082 -0.555003 0)
(3.1203 -0.558247 0)
(3.12107 -0.56379 0)
(3.12183 -0.573625 0)
(3.11999 -0.576987 0)
(3.11985 -0.581436 0)
(3.12216 -0.593011 0)
(3.12329 -0.597903 0)
(3.12218 -0.596882 0)
(3.12409 -0.614126 0)
(3.12412 -0.622396 0)
(3.12511 -0.62997 0)
(3.12557 -0.639062 0)
(3.12539 -0.641771 0)
(3.12562 -0.652337 0)
(3.12556 -0.663634 0)
(3.12646 -0.673169 0)
(3.09468 -0.342188 0)
(3.09486 -0.345103 0)
(3.09365 -0.363676 0)
(3.08338 -0.391498 0)
(3.07791 -0.398404 0)
(3.08748 -0.381349 0)
(3.09727 -0.358051 0)
(3.10258 -0.360467 0)
(3.09981 -0.37622 0)
(3.09624 -0.401397 0)
(3.08958 -0.413238 0)
(3.09451 -0.411799 0)
(3.10264 -0.419273 0)
(3.10339 -0.427557 0)
(3.10249 -0.432948 0)
(3.10393 -0.438721 0)
(3.10549 -0.451402 0)
(3.10505 -0.46684 0)
(3.10596 -0.47286 0)
(3.10806 -0.476657 0)
(3.11099 -0.497229 0)
(3.11067 -0.502289 0)
(3.11239 -0.513795 0)
(3.11423 -0.527271 0)
(3.11412 -0.532039 0)
(3.11626 -0.550093 0)
(3.11701 -0.563021 0)
(3.11831 -0.572563 0)
(3.11945 -0.585755 0)
(3.12026 -0.599827 0)
(3.05776 -0.189886 0)
(3.0617 -0.195238 0)
(3.05857 -0.224481 0)
(3.04914 -0.247751 0)
(3.04222 -0.251164 0)
(3.0557 -0.225777 0)
(3.06662 -0.206181 0)
(3.0712 -0.215087 0)
(3.06979 -0.236607 0)
(3.0648 -0.267201 0)
(3.05973 -0.277388 0)
(3.06753 -0.272769 0)
(3.07846 -0.285692 0)
(3.0781 -0.297426 0)
(3.07679 -0.300116 0)
(3.08021 -0.313392 0)
(3.08268 -0.333233 0)
(3.08143 -0.338294 0)
(3.08608 -0.356949 0)
(3.08945 -0.365168 0)
(3.09171 -0.376544 0)
(3.09339 -0.395063 0)
(3.0954 -0.407095 0)
(3.09805 -0.420425 0)
(3.10021 -0.436897 0)
(3.10202 -0.447746 0)
(3.10399 -0.465315 0)
(3.10524 -0.476264 0)
(3.10645 -0.484744 0)
(3.10916 -0.509449 0)
(3.01238 -0.0399852 0)
(3.01938 -0.0532253 0)
(3.01398 -0.0847887 0)
(3.00367 -0.100973 0)
(2.99953 -0.100434 0)
(3.01292 -0.0768755 0)
(3.02656 -0.0614816 0)
(3.03114 -0.0726581 0)
(3.03076 -0.0989355 0)
(3.02479 -0.132476 0)
(3.02136 -0.140778 0)
(3.03093 -0.135277 0)
(3.04529 -0.152761 0)
(3.04474 -0.165645 0)
(3.04376 -0.171692 0)
(3.04724 -0.184897 0)
(3.05127 -0.210248 0)
(3.05263 -0.22 0)
(3.05818 -0.233075 0)
(3.06343 -0.24924 0)
(3.06599 -0.264704 0)
(3.06906 -0.28318 0)
(3.07274 -0.29916 0)
(3.07635 -0.313958 0)
(3.08057 -0.336584 0)
(3.08296 -0.350371 0)
(3.08596 -0.367191 0)
(3.08959 -0.389401 0)
(3.09249 -0.408868 0)
(3.09667 -0.433008 0)
(2.96061 0.10896 0)
(2.96415 0.0875375 0)
(2.96147 0.0623734 0)
(2.95203 0.0470183 0)
(2.94894 0.0434941 0)
(2.95885 0.0560306 0)
(2.97307 0.0707466 0)
(2.97947 0.066643 0)
(2.9825 0.040313 0)
(2.97793 0.00312334 0)
(2.97405 -0.00784289 0)
(2.98217 -0.00172539 0)
(2.99999 -0.0226675 0)
(3.00102 -0.0368461 0)
(3.00147 -0.042367 0)
(3.00829 -0.0633136 0)
(3.01139 -0.0840281 0)
(3.01548 -0.0995545 0)
(3.02266 -0.113224 0)
(3.02968 -0.130756 0)
(3.03385 -0.150985 0)
(3.0375 -0.167522 0)
(3.0437 -0.188352 0)
(3.0495 -0.208264 0)
(3.05381 -0.226277 0)
(3.0585 -0.24733 0)
(3.06409 -0.271503 0)
(3.06794 -0.287159 0)
(3.07177 -0.305614 0)
(3.07816 -0.338061 0)
(2.88992 0.248589 0)
(2.89349 0.23313 0)
(2.89162 0.222362 0)
(2.89154 0.207877 0)
(2.89048 0.193794 0)
(2.8944 0.19223 0)
(2.90413 0.202511 0)
(2.91395 0.199193 0)
(2.92562 0.174126 0)
(2.92296 0.13939 0)
(2.92018 0.132393 0)
(2.92334 0.13707 0)
(2.94262 0.109663 0)
(2.94773 0.0903202 0)
(2.95138 0.0824551 0)
(2.96056 0.063095 0)
(2.96654 0.0400987 0)
(2.97087 0.0248473 0)
(2.98023 0.00445221 0)
(2.98796 -0.0120956 0)
(2.99548 -0.0357069 0)
(3.00079 -0.0531539 0)
(3.0096 -0.0786353 0)
(3.01561 -0.0963275 0)
(3.02306 -0.121219 0)
(3.02999 -0.144714 0)
(3.03583 -0.164719 0)
(3.04298 -0.190754 0)
(3.04907 -0.214156 0)
(3.0578 -0.249746 0)
(2.82596 0.358228 0)
(2.82967 0.34937 0)
(2.8303 0.348155 0)
(2.8319 0.3455 0)
(2.83613 0.334703 0)
(2.83781 0.330419 0)
(2.84315 0.325437 0)
(2.84953 0.318743 0)
(2.85733 0.303525 0)
(2.86136 0.2856 0)
(2.86281 0.279748 0)
(2.87012 0.268403 0)
(2.8821 0.245341 0)
(2.88724 0.232377 0)
(2.89664 0.212918 0)
(2.90486 0.195639 0)
(2.91447 0.170878 0)
(2.92111 0.153699 0)
(2.93228 0.129197 0)
(2.94184 0.107784 0)
(2.95121 0.0840693 0)
(2.96079 0.0587533 0)
(2.96949 0.0366796 0)
(2.97922 0.0106835 0)
(2.98837 -0.0153014 0)
(2.99602 -0.0366072 0)
(3.00623 -0.0670488 0)
(3.01417 -0.090763 0)
(3.02194 -0.115463 0)
(3.03385 -0.156629 0)
(2.81336 0.382843 0)
(2.81355 0.3812 0)
(2.81339 0.379902 0)
(2.81392 0.378629 0)
(2.81483 0.377646 0)
(2.8155 0.377867 0)
(2.81649 0.377678 0)
(2.81774 0.377273 0)
(2.81966 0.375038 0)
(2.82226 0.369654 0)
(2.82401 0.366545 0)
(2.82685 0.363145 0)
(2.8317 0.355141 0)
(2.8365 0.346122 0)
(2.84295 0.335592 0)
(2.85122 0.321378 0)
(2.85935 0.30507 0)
(2.86807 0.285784 0)
(2.87876 0.262588 0)
(2.88917 0.239822 0)
(2.90184 0.211022 0)
(2.91229 0.186037 0)
(2.92568 0.153747 0)
(2.93644 0.127699 0)
(2.94903 0.0961869 0)
(2.96042 0.0670999 0)
(2.97178 0.0375417 0)
(2.98264 0.00826219 0)
(2.99288 -0.0205489 0)
(3.00776 -0.0646984 0)
(2.82869 0.351601 0)
(2.82602 0.349607 0)
(2.82541 0.354067 0)
(2.82719 0.359566 0)
(2.82689 0.361908 0)
(2.82614 0.373167 0)
(2.8265 0.379594 0)
(2.81954 0.37733 0)
(2.81851 0.370355 0)
(2.82278 0.366572 0)
(2.82462 0.368132 0)
(2.82425 0.372032 0)
(2.82362 0.373071 0)
(2.82448 0.371492 0)
(2.82497 0.369344 0)
(2.82601 0.36781 0)
(2.82855 0.365369 0)
(2.8321 0.36136 0)
(2.8367 0.35446 0)
(2.84261 0.34421 0)
(2.85107 0.328894 0)
(2.86127 0.309261 0)
(2.87359 0.283791 0)
(2.88647 0.255499 0)
(2.90165 0.220984 0)
(2.9153 0.18859 0)
(2.9311 0.150194 0)
(2.94489 0.115942 0)
(2.95825 0.0818605 0)
(2.97742 0.0305705 0)
(2.89811 0.231134 0)
(2.89536 0.224433 0)
(2.89181 0.227754 0)
(2.87783 0.25189 0)
(2.87888 0.262635 0)
(2.87738 0.273411 0)
(2.87037 0.296883 0)
(2.86638 0.310444 0)
(2.85923 0.302237 0)
(2.85337 0.302769 0)
(2.84682 0.319636 0)
(2.8483 0.335431 0)
(2.84942 0.335065 0)
(2.84102 0.346047 0)
(2.83836 0.348981 0)
(2.83553 0.35202 0)
(2.83435 0.356874 0)
(2.83426 0.359335 0)
(2.83413 0.359301 0)
(2.83448 0.358307 0)
(2.83518 0.356933 0)
(2.83708 0.354372 0)
(2.84057 0.349839 0)
(2.84587 0.341985 0)
(2.85464 0.327335 0)
(2.86596 0.306158 0)
(2.88099 0.27503 0)
(2.89673 0.239844 0)
(2.91375 0.200668 0)
(2.93886 0.139282 0)
(2.97868 0.0501724 0)
(2.97657 0.0538134 0)
(2.9704 0.0685246 0)
(2.96726 0.0724254 0)
(2.96461 0.0735721 0)
(2.95732 0.0862984 0)
(2.9533 0.101732 0)
(2.95095 0.113996 0)
(2.94553 0.122363 0)
(2.93963 0.12815 0)
(2.92547 0.15461 0)
(2.91965 0.174894 0)
(2.91723 0.180604 0)
(2.90125 0.21228 0)
(2.89659 0.22509 0)
(2.8826 0.253102 0)
(2.8754 0.268667 0)
(2.86853 0.284601 0)
(2.85744 0.309699 0)
(2.85558 0.313715 0)
(2.84694 0.330334 0)
(2.84374 0.338724 0)
(2.84282 0.341073 0)
(2.84294 0.341886 0)
(2.84334 0.341753 0)
(2.84503 0.340147 0)
(2.84894 0.33507 0)
(2.85564 0.325403 0)
(2.86627 0.30781 0)
(2.89047 0.258912 0)
(2.99892 0.00247863 0)
(2.99874 0.00276957 0)
(2.99847 0.00322254 0)
(2.99806 0.00402817 0)
(2.99763 0.00459331 0)
(2.99677 0.00609704 0)
(2.99619 0.0074244 0)
(2.99542 0.00969166 0)
(2.99455 0.0116218 0)
(2.99293 0.0141236 0)
(2.99039 0.0182097 0)
(2.98725 0.0251282 0)
(2.98442 0.0311453 0)
(2.97959 0.0402858 0)
(2.97345 0.0530622 0)
(2.96626 0.0676073 0)
(2.95695 0.0870374 0)
(2.94655 0.108642 0)
(2.93328 0.13696 0)
(2.92088 0.164202 0)
(2.90465 0.19899 0)
(2.89233 0.226955 0)
(2.87801 0.258293 0)
(2.86566 0.286271 0)
(2.85833 0.303993 0)
(2.85247 0.317739 0)
(2.84949 0.328503 0)
(2.84983 0.328546 0)
(2.85082 0.327722 0)
(2.85768 0.31936 0)
(2.99999 2.73559e-05 0)
(2.99998 3.18456e-05 0)
(2.99998 3.89405e-05 0)
(2.99997 4.93238e-05 0)
(2.99997 6.1975e-05 0)
(2.99995 8.34347e-05 0)
(2.99994 0.000113552 0)
(2.99992 0.000155645 0)
(2.99989 0.000212906 0)
(2.99984 0.000284501 0)
(2.99976 0.000421318 0)
(2.99963 0.000659642 0)
(2.99947 0.000961073 0)
(2.99918 0.00147369 0)
(2.99871 0.0023151 0)
(2.99796 0.00371579 0)
(2.9968 0.00587093 0)
(2.99488 0.00948229 0)
(2.99191 0.0150812 0)
(2.98731 0.0240747 0)
(2.98059 0.0370453 0)
(2.97083 0.0567982 0)
(2.95824 0.0822808 0)
(2.94193 0.116008 0)
(2.92381 0.154749 0)
(2.9051 0.195712 0)
(2.8869 0.236097 0)
(2.87321 0.26868 0)
(2.86256 0.293796 0)
(2.85845 0.308376 0)
(3 1.6112e-07 0)
(3 1.88531e-07 0)
(3 2.33956e-07 0)
(3 2.94581e-07 0)
(3 3.82038e-07 0)
(3 5.07995e-07 0)
(3 7.02548e-07 0)
(3 9.74028e-07 0)
(3 1.39495e-06 0)
(3 1.96636e-06 0)
(3 3.05005e-06 0)
(3 4.96792e-06 0)
(3 7.97382e-06 0)
(2.99999 1.32882e-05 0)
(2.99999 2.35002e-05 0)
(2.99997 4.30757e-05 0)
(2.99995 8.0364e-05 0)
(2.99991 0.00015836 0)
(2.99982 0.000312254 0)
(2.99963 0.000649584 0)
(2.99925 0.00131807 0)
(2.99844 0.00280264 0)
(2.99691 0.00560069 0)
(2.99376 0.0115579 0)
(2.98841 0.0216551 0)
(2.97878 0.0406471 0)
(2.9654 0.0671556 0)
(2.94521 0.109099 0)
(2.92585 0.150232 0)
(2.89372 0.221528 0)
(3 7.29101e-10 0)
(3 8.7832e-10 0)
(3 1.08268e-09 0)
(3 1.39858e-09 0)
(3 1.79601e-09 0)
(3 2.42899e-09 0)
(3 3.28642e-09 0)
(3 4.63265e-09 0)
(3 6.58312e-09 0)
(3 9.62555e-09 0)
(3 1.47725e-08 0)
(3 2.42174e-08 0)
(3 3.94571e-08 0)
(3 6.78492e-08 0)
(3 1.22903e-07 0)
(3 2.33818e-07 0)
(3 4.63214e-07 0)
(3 9.74326e-07 0)
(3 2.13277e-06 0)
(3 4.97184e-06 0)
(2.99999 1.19552e-05 0)
(2.99998 3.08854e-05 0)
(2.99995 8.01383e-05 0)
(2.99987 0.000222345 0)
(2.99966 0.000594354 0)
(2.99907 0.00166715 0)
(2.99769 0.00418283 0)
(2.99412 0.0109619 0)
(2.98825 0.0221628 0)
(2.96555 0.0691606 0)
(3 2.56063e-12 0)
(3 3.08528e-12 0)
(3 3.89255e-12 0)
(3 5.00286e-12 0)
(3 6.57697e-12 0)
(3 8.82873e-12 0)
(3 1.21458e-11 0)
(3 1.69558e-11 0)
(3 2.46307e-11 0)
(3 3.58134e-11 0)
(3 5.58681e-11 0)
(3 8.97532e-11 0)
(3 1.48971e-10 0)
(3 2.54208e-10 0)
(3 4.69488e-10 0)
(3 8.86548e-10 0)
(3 1.81128e-09 0)
(3 3.81392e-09 0)
(3 8.75724e-09 0)
(3 2.06665e-08 0)
(3 5.36955e-08 0)
(3 1.43397e-07 0)
(3 4.24511e-07 0)
(3 1.27628e-06 0)
(3 4.27382e-06 0)
(2.99999 1.42352e-05 0)
(2.99996 5.15887e-05 0)
(2.99985 0.000183403 0)
(2.99955 0.000585385 0)
(2.99616 0.00464359 0)
(2.59448 -1.4043 0)
(2.64488 -1.41767 0)
(2.80246 -1.48338 0)
(2.94876 -1.61306 0)
(3.05471 -1.6285 0)
(3.08272 -1.62561 0)
(3.07311 -1.63462 0)
(3.0552 -1.6428 0)
(3.04649 -1.6493 0)
(3.0618 -1.63594 0)
(3.05121 -1.62295 0)
(3.08225 -1.5185 0)
(3.10167 -1.46719 0)
(3.12263 -1.31112 0)
(3.12756 -1.20557 0)
(3.13443 -1.04679 0)
(3.1345 -0.90674 0)
(3.12956 -0.754794 0)
(3.1206 -0.605523 0)
(3.10562 -0.453627 0)
(3.08034 -0.302984 0)
(3.04653 -0.156011 0)
(3.00232 -0.0117523 0)
(2.9381 0.138306 0)
(2.86988 0.275258 0)
(2.81987 0.366612 0)
(2.81327 0.383761 0)
(2.83253 0.357207 0)
(2.90313 0.229969 0)
(2.98012 0.0478875 0)
(2.9991 0.0020531 0)
(2.99999 2.40417e-05 0)
(3 1.39826e-07 0)
(3 6.28961e-10 0)
(3 2.1857e-12 0)
(2.59639 -1.40322 0)
(2.66391 -1.41698 0)
(2.81982 -1.5016 0)
(2.96611 -1.62416 0)
(3.06347 -1.63079 0)
(3.08358 -1.62943 0)
(3.07444 -1.6413 0)
(3.05991 -1.65049 0)
(3.04907 -1.65032 0)
(3.0533 -1.65112 0)
(3.05599 -1.61082 0)
(3.08687 -1.5118 0)
(3.11201 -1.43206 0)
(3.12161 -1.25586 0)
(3.12341 -1.1411 0)
(3.12566 -0.978725 0)
(3.12597 -0.858279 0)
(3.12371 -0.720506 0)
(3.11411 -0.576813 0)
(3.09539 -0.427344 0)
(3.0643 -0.268125 0)
(3.02323 -0.110731 0)
(2.97387 0.0373128 0)
(2.91763 0.169668 0)
(2.85686 0.293767 0)
(2.81426 0.375246 0)
(2.81377 0.383975 0)
(2.83718 0.358502 0)
(2.91143 0.204152 0)
(2.98485 0.0344098 0)
(2.99948 0.00110052 0)
(2.99999 1.02117e-05 0)
(3 5.98129e-08 0)
(3 2.94024e-10 0)
(3 1.06971e-12 0)
(2.59457 -1.4014 0)
(2.66697 -1.39634 0)
(2.81305 -1.50284 0)
(2.96427 -1.6266 0)
(3.06399 -1.63279 0)
(3.08308 -1.64059 0)
(3.07393 -1.65048 0)
(3.06768 -1.6595 0)
(3.05546 -1.65074 0)
(3.03687 -1.67085 0)
(3.07043 -1.59102 0)
(3.09231 -1.51227 0)
(3.10655 -1.35216 0)
(3.11131 -1.23156 0)
(3.11556 -1.12207 0)
(3.12401 -1.00487 0)
(3.12338 -0.887089 0)
(3.12218 -0.756694 0)
(3.11276 -0.610332 0)
(3.09262 -0.459613 0)
(3.06243 -0.300187 0)
(3.02172 -0.138217 0)
(2.97105 0.0176254 0)
(2.91197 0.159232 0)
(2.84933 0.30015 0)
(2.81137 0.379961 0)
(2.81374 0.380922 0)
(2.8389 0.337344 0)
(2.92494 0.162733 0)
(2.98931 0.0230986 0)
(2.9997 0.000623886 0)
(3 5.36581e-06 0)
(3 3.08455e-08 0)
(3 1.50272e-10 0)
(3 5.44145e-13 0)
(2.57185 -1.39122 0)
(2.65317 -1.40266 0)
(2.80481 -1.51775 0)
(2.96002 -1.62344 0)
(3.05437 -1.63692 0)
(3.07829 -1.64339 0)
(3.07546 -1.65617 0)
(3.07269 -1.66336 0)
(3.06372 -1.65892 0)
(3.0292 -1.6749 0)
(3.08013 -1.53847 0)
(3.09855 -1.48258 0)
(3.11499 -1.34735 0)
(3.10839 -1.25976 0)
(3.11279 -1.14919 0)
(3.11705 -1.02623 0)
(3.12344 -0.890898 0)
(3.12691 -0.751987 0)
(3.11968 -0.599864 0)
(3.10003 -0.443141 0)
(3.06605 -0.288481 0)
(3.0214 -0.134694 0)
(2.96909 0.0164852 0)
(2.90935 0.168434 0)
(2.84375 0.318125 0)
(2.80989 0.384351 0)
(2.81336 0.378084 0)
(2.85793 0.2989 0)
(2.94441 0.125219 0)
(2.99368 0.0144022 0)
(2.99985 0.000332089 0)
(3 2.70729e-06 0)
(3 1.54511e-08 0)
(3 7.50368e-11 0)
(3 2.71865e-13 0)
(2.54673 -1.38274 0)
(2.63909 -1.40908 0)
(2.7922 -1.5376 0)
(2.9501 -1.62147 0)
(3.04729 -1.64123 0)
(3.07994 -1.64618 0)
(3.08518 -1.66166 0)
(3.08501 -1.67081 0)
(3.06957 -1.67958 0)
(3.03385 -1.66719 0)
(3.08016 -1.50159 0)
(3.09131 -1.48649 0)
(3.11571 -1.37509 0)
(3.11606 -1.25928 0)
(3.11945 -1.14565 0)
(3.13494 -0.999476 0)
(3.14625 -0.830445 0)
(3.14547 -0.680084 0)
(3.13288 -0.520812 0)
(3.10792 -0.361736 0)
(3.07322 -0.212244 0)
(3.02778 -0.0671078 0)
(2.97146 0.0787105 0)
(2.89771 0.233069 0)
(2.83024 0.350903 0)
(2.80819 0.389467 0)
(2.81279 0.376769 0)
(2.86866 0.286815 0)
(2.95345 0.1129 0)
(2.99577 0.0103311 0)
(2.99992 0.000190374 0)
(3 1.41019e-06 0)
(3 7.80531e-09 0)
(3 3.73522e-11 0)
(3 1.34393e-13 0)
(2.53158 -1.37507 0)
(2.6264 -1.41434 0)
(2.78265 -1.54288 0)
(2.94571 -1.62009 0)
(3.0457 -1.64239 0)
(3.08438 -1.64891 0)
(3.09175 -1.6704 0)
(3.09812 -1.68533 0)
(3.0697 -1.69822 0)
(3.05024 -1.6464 0)
(3.08771 -1.5358 0)
(3.09654 -1.48823 0)
(3.12035 -1.37856 0)
(3.14577 -1.20977 0)
(3.14362 -1.08315 0)
(3.13945 -0.907552 0)
(3.12238 -0.742114 0)
(3.11039 -0.590156 0)
(3.09433 -0.437843 0)
(3.06623 -0.28286 0)
(3.02952 -0.131157 0)
(2.9861 0.0141625 0)
(2.93062 0.154107 0)
(2.8674 0.280689 0)
(2.81889 0.367245 0)
(2.80718 0.39206 0)
(2.8166 0.378204 0)
(2.87282 0.295766 0)
(2.96031 0.0980771 0)
(2.99711 0.00684814 0)
(2.99995 0.000105533 0)
(3 7.2938e-07 0)
(3 3.93383e-09 0)
(3 1.85256e-11 0)
(3 6.60757e-14 0)
(2.52347 -1.37237 0)
(2.61692 -1.41935 0)
(2.77858 -1.53926 0)
(2.94457 -1.61958 0)
(3.04615 -1.6412 0)
(3.08761 -1.64988 0)
(3.09249 -1.68107 0)
(3.10114 -1.69423 0)
(3.06929 -1.70308 0)
(3.06589 -1.58925 0)
(3.07981 -1.56125 0)
(3.1168 -1.46569 0)
(3.14559 -1.3258 0)
(3.13983 -1.13811 0)
(3.12754 -1.01223 0)
(3.12175 -0.858826 0)
(3.1221 -0.744031 0)
(3.11383 -0.595341 0)
(3.09778 -0.450509 0)
(3.06919 -0.293625 0)
(3.0268 -0.130178 0)
(2.97515 0.0246234 0)
(2.91826 0.161795 0)
(2.86117 0.280274 0)
(2.81391 0.373122 0)
(2.80715 0.392321 0)
(2.82179 0.382024 0)
(2.88073 0.270166 0)
(2.96992 0.0687095 0)
(2.99818 0.00401888 0)
(2.99997 5.38629e-05 0)
(3 3.62305e-07 0)
(3 1.93777e-09 0)
(3 9.0491e-12 0)
(3 3.22999e-14 0)
(2.52241 -1.3714 0)
(2.60817 -1.42541 0)
(2.77824 -1.53672 0)
(2.94492 -1.61755 0)
(3.04748 -1.63668 0)
(3.08871 -1.65225 0)
(3.0953 -1.68779 0)
(3.10005 -1.69961 0)
(3.07485 -1.69761 0)
(3.07642 -1.54731 0)
(3.06519 -1.57227 0)
(3.1294 -1.40732 0)
(3.13464 -1.25754 0)
(3.12656 -1.14964 0)
(3.12457 -1.03479 0)
(3.1258 -0.897089 0)
(3.1187 -0.774622 0)
(3.1116 -0.627645 0)
(3.0934 -0.476414 0)
(3.06413 -0.318325 0)
(3.02325 -0.15594 0)
(2.97279 0.00166919 0)
(2.91468 0.14688 0)
(2.85512 0.287826 0)
(2.81003 0.381583 0)
(2.80797 0.389882 0)
(2.82236 0.366712 0)
(2.90391 0.212633 0)
(2.97885 0.0477585 0)
(2.99898 0.00223601 0)
(2.99999 2.66834e-05 0)
(3 1.75169e-07 0)
(3 9.32219e-10 0)
(3 4.33384e-12 0)
(3 1.56343e-14 0)
(2.52601 -1.37178 0)
(2.60201 -1.434 0)
(2.78083 -1.53323 0)
(2.95191 -1.60831 0)
(3.04634 -1.62595 0)
(3.08463 -1.65685 0)
(3.09163 -1.6923 0)
(3.09263 -1.70195 0)
(3.07783 -1.69221 0)
(3.07697 -1.53757 0)
(3.05602 -1.56382 0)
(3.11891 -1.33156 0)
(3.12082 -1.27778 0)
(3.11715 -1.15725 0)
(3.12011 -1.04449 0)
(3.12253 -0.909159 0)
(3.12836 -0.758878 0)
(3.12262 -0.608173 0)
(3.10614 -0.444048 0)
(3.07422 -0.284365 0)
(3.0289 -0.129063 0)
(2.97527 0.023937 0)
(2.91365 0.178505 0)
(2.84373 0.32706 0)
(2.80621 0.390658 0)
(2.80626 0.387965 0)
(2.83467 0.33595 0)
(2.91719 0.186111 0)
(2.98492 0.0359473 0)
(2.99943 0.00128957 0)
(2.99999 1.33106e-05 0)
(3 8.41086e-08 0)
(3 4.42024e-10 0)
(3 2.04137e-12 0)
(3 7.41586e-15 0)
(2.52867 -1.37219 0)
(2.59742 -1.44593 0)
(2.7877 -1.53237 0)
(2.95949 -1.5962 0)
(3.03894 -1.61633 0)
(3.07209 -1.64984 0)
(3.08244 -1.67934 0)
(3.08309 -1.69415 0)
(3.07636 -1.69363 0)
(3.07989 -1.52801 0)
(3.07289 -1.51636 0)
(3.12438 -1.33421 0)
(3.11722 -1.29261 0)
(3.13426 -1.13803 0)
(3.13931 -1.01037 0)
(3.14529 -0.858869 0)
(3.14451 -0.671726 0)
(3.13321 -0.514638 0)
(3.10424 -0.344535 0)
(3.06729 -0.185452 0)
(3.0215 -0.0355264 0)
(2.9632 0.111592 0)
(2.88839 0.254929 0)
(2.82697 0.357671 0)
(2.80381 0.395748 0)