/*--------------------------------*- C++ -*----------------------------------*\
  =========                 |
  \\      /  F ield         | OpenFOAM: The Open Source CFD Toolbox
   \\    /   O peration     | Website:  https://openfoam.org
    \\  /    A nd           | Version:  7
     \\/     M anipulation  |
\*---------------------------------------------------------------------------*/
FoamFile
{
    version     2.0;
    format      ascii;
    class       volScalarField;
    location    "3.3999";
    object      p;
}
// * * * * * * * * * * * * * * * * * * * * * * * * * * * * * * * * * * * * * //

dimensions      [1 -1 -2 0 0 0 0];

internalField   nonuniform List<scalar> 
324000
(
0.237119
0.372375
0.577835
0.77768
0.889808
0.895943
0.863659
0.862056
0.855366
0.832247
0.831259
0.84994
0.875604
0.883156
0.871549
0.854889
0.850859
0.856278
0.866973
0.871959
0.865819
0.859017
0.857509
0.86164
0.866279
0.867074
0.864189
0.860073
0.858245
0.858729
0.859287
0.859174
0.857583
0.856994
0.857629
0.85701
0.854786
0.853369
0.85331
0.852937
0.8518
0.850662
0.850271
0.850338
0.850044
0.849281
0.848258
0.847104
0.846323
0.845653
0.8448
0.843673
0.842862
0.841909
0.840633
0.839109
0.837808
0.837156
0.838237
0.841313
0.846213
0.853279
0.859555
0.863544
0.867205
0.870542
0.873749
0.872923
0.877672
0.888305
0.896492
0.909253
0.927461
0.937638
0.928206
0.932275
0.939391
0.947676
0.956251
0.973087
0.0927648
0.0926834
0.124337
0.249876
0.475986
0.681255
0.779873
0.862846
0.855097
0.846961
0.867411
0.879145
0.87969
0.861067
0.848654
0.85189
0.862445
0.872819
0.871088
0.865069
0.85368
0.850701
0.854097
0.863886
0.87042
0.868121
0.862612
0.859366
0.859513
0.861803
0.861962
0.859532
0.85661
0.855708
0.855801
0.855739
0.854633
0.854147
0.85434
0.853808
0.853066
0.852242
0.851614
0.850775
0.84939
0.847785
0.846259
0.844557
0.84356
0.843105
0.842567
0.842213
0.842555
0.842429
0.841261
0.839786
0.838884
0.838854
0.840726
0.843709
0.847743
0.854924
0.860143
0.862787
0.864915
0.866378
0.871681
0.872656
0.878388
0.889325
0.898562
0.910865
0.928137
0.937185
0.927762
0.931965
0.940219
0.948669
0.9574
0.974409
0.0927686
0.0927932
0.0927665
0.092659
0.105572
0.170578
0.333008
0.532476
0.69904
0.844278
0.904133
0.90404
0.880493
0.829576
0.824913
0.842101
0.862283
0.88027
0.873
0.857059
0.851471
0.856834
0.865961
0.865619
0.865585
0.861698
0.859797
0.85978
0.861104
0.860654
0.858968
0.85772
0.857184
0.857761
0.856422
0.855067
0.854945
0.855937
0.854919
0.852005
0.849724
0.84943
0.84985
0.850141
0.849885
0.849791
0.849677
0.848167
0.846532
0.845922
0.845639
0.845876
0.846099
0.845149
0.843648
0.842322
0.841403
0.840541
0.840199
0.841373
0.844724
0.851842
0.858597
0.864612
0.867582
0.868746
0.870342
0.869629
0.874252
0.887531
0.900266
0.91315
0.929434
0.935118
0.926796
0.932942
0.941612
0.949751
0.958328
0.975729
0.0927648
0.0927716
0.0928474
0.0929457
0.0928675
0.0928394
0.0926537
0.110272
0.205035
0.386862
0.576448
0.73359
0.787862
0.820004
0.838452
0.869439
0.882465
0.87962
0.859616
0.845726
0.848687
0.858793
0.873808
0.870836
0.862565
0.857537
0.858064
0.862459
0.864906
0.862887
0.858507
0.857122
0.857923
0.859091
0.858685
0.857015
0.85538
0.855127
0.853953
0.85224
0.850299
0.849964
0.849552
0.849175
0.848234
0.846702
0.84656
0.846842
0.847649
0.847733
0.846861
0.844982
0.842912
0.840137
0.837669
0.835699
0.834311
0.833918
0.836842
0.842274
0.848506
0.855785
0.860804
0.865208
0.868512
0.871533
0.873671
0.87284
0.875295
0.88552
0.898576
0.913304
0.930169
0.932344
0.926322
0.9338
0.943061
0.950859
0.959208
0.976923
0.0927411
0.0928061
0.0928788
0.0928963
0.0929213
0.0929024
0.0928307
0.0927316
0.092862
0.0929227
0.13615
0.254037
0.465455
0.703189
0.818481
0.866803
0.868094
0.859877
0.833163
0.843601
0.861657
0.872536
0.871361
0.865662
0.858058
0.855836
0.858452
0.862794
0.864334
0.860852
0.857375
0.857003
0.858681
0.858443
0.856081
0.854672
0.855424
0.855227
0.853913
0.853383
0.853837
0.854293
0.853013
0.851245
0.849248
0.846434
0.844921
0.843971
0.843463
0.842995
0.84192
0.84095
0.840461
0.839906
0.838616
0.837243
0.836566
0.837825
0.840952
0.845851
0.851791
0.858472
0.861348
0.86159
0.863389
0.867006
0.871805
0.874322
0.878984
0.89001
0.90138
0.914311
0.930337
0.929384
0.925681
0.934673
0.944221
0.951907
0.960115
0.9781
0.0927924
0.0928048
0.0928702
0.092919
0.0928943
0.0928206
0.0927318
0.0927365
0.0929206
0.0930889
0.0930421
0.0929241
0.105287
0.193864
0.389102
0.59278
0.721398
0.800285
0.819227
0.865341
0.884933
0.877498
0.86515
0.855697
0.853141
0.85733
0.866836
0.866736
0.863158
0.857994
0.856476
0.860227
0.861506
0.857885
0.854675
0.854106
0.855187
0.854905
0.852983
0.852213
0.853132
0.854101
0.852209
0.850036
0.848603
0.847833
0.847023
0.846156
0.844997
0.844161
0.843826
0.843708
0.843675
0.843167
0.841993
0.840997
0.840703
0.841717
0.843208
0.845895
0.850032
0.855548
0.860792
0.862458
0.86371
0.865745
0.868868
0.871753
0.87795
0.892164
0.904637
0.915822
0.929335
0.926694
0.925158
0.935416
0.945032
0.952943
0.961267
0.979333
0.0928413
0.0928332
0.0929089
0.0929487
0.0928875
0.0927826
0.0926942
0.0927178
0.0928936
0.0930626
0.0930648
0.0930029
0.0928873
0.0928107
0.0948167
0.140591
0.282618
0.51688
0.725108
0.838991
0.860136
0.868179
0.859784
0.848174
0.856566
0.868387
0.871294
0.865545
0.855302
0.854011
0.859811
0.864204
0.860806
0.854782
0.853051
0.855528
0.856156
0.853907
0.851787
0.852847
0.854145
0.852803
0.85095
0.84941
0.848575
0.848123
0.847721
0.847103
0.846031
0.845261
0.845158
0.845276
0.844899
0.843567
0.842319
0.841631
0.841583
0.842189
0.842705
0.844732
0.848631
0.854455
0.860187
0.863255
0.864948
0.866711
0.869334
0.871549
0.876822
0.890971
0.904348
0.915979
0.927134
0.924585
0.924955
0.935993
0.945444
0.953831
0.962512
0.980387
0.0929041
0.0928999
0.0929484
0.0929495
0.0928675
0.0927378
0.0926425
0.0926858
0.0928713
0.0930398
0.0930527
0.0930091
0.0929268
0.0928577
0.0928413
0.0928867
0.0930131
0.112857
0.241923
0.452022
0.627302
0.796229
0.807937
0.846395
0.870463
0.878433
0.873864
0.853939
0.849659
0.858864
0.867918
0.864744
0.856793
0.852372
0.855567
0.858561
0.855854
0.851909
0.852194
0.854565
0.85379
0.851049
0.849436
0.849272
0.848593
0.848087
0.847931
0.847633
0.846728
0.846086
0.846035
0.845452
0.844094
0.842128
0.840543
0.839875
0.839793
0.840039
0.841521
0.84475
0.849135
0.854918
0.859759
0.862929
0.866181
0.867949
0.870439
0.872299
0.877568
0.890905
0.902877
0.915057
0.924387
0.923384
0.924912
0.936067
0.945011
0.954242
0.963149
0.981011
0.0929598
0.092972
0.0929891
0.09296
0.0928491
0.0927028
0.0926097
0.0926559
0.0928149
0.0930085
0.093048
0.0930265
0.0929645
0.0928904
0.0928701
0.0928826
0.0930024
0.0932216
0.0932642
0.0996922
0.188673
0.395406
0.625182
0.817568
0.854119
0.869996
0.855168
0.843629
0.857277
0.868409
0.867251
0.860453
0.85255
0.854127
0.859646
0.858237
0.853624
0.852025
0.854614
0.855169
0.852771
0.849977
0.849883
0.849598
0.848304
0.84758
0.84745
0.847306
0.846799
0.846614
0.846273
0.845159
0.843186
0.841244
0.839799
0.839227
0.838769
0.839429
0.841438
0.844981
0.849788
0.855551
0.859387
0.862016
0.865685
0.868488
0.871569
0.873739
0.878762
0.89181
0.902553
0.914405
0.922046
0.921574
0.924962
0.935248
0.943281
0.952738
0.962655
0.981381
0.0930123
0.0930533
0.0930517
0.0929777
0.0928337
0.0926781
0.0926009
0.0926284
0.0927482
0.0929601
0.0930394
0.0930328
0.0929973
0.0929286
0.0928975
0.0929018
0.0929739
0.0931646
0.0932609
0.0932166
0.093097
0.0929164
0.173931
0.366473
0.57962
0.786539
0.804713
0.842838
0.878497
0.876121
0.866844
0.847501
0.849753
0.861203
0.863171
0.857388
0.85195
0.853238
0.857366
0.856158
0.852043
0.849807
0.850745
0.849886
0.847952
0.847074
0.847243
0.846994
0.846732
0.846857
0.845979
0.844031
0.841881
0.840342
0.83913
0.838576
0.838402
0.839352
0.842002
0.845947
0.851578
0.856789
0.858954
0.861095
0.86453
0.868371
0.872283
0.875423
0.880939
0.893584
0.902554
0.914172
0.921157
0.922869
0.925853
0.934376
0.941223
0.951233
0.961682
0.981503
0.0930699
0.0931194
0.0931019
0.0930327
0.0928479
0.0926693
0.0926026
0.0926106
0.0926824
0.0928842
0.0930313
0.0930403
0.0930236
0.0929733
0.0929254
0.092928
0.0929973
0.0931899
0.093252
0.0931889
0.093061
0.0929351
0.0928918
0.0928703
0.158291
0.347524
0.602423
0.813165
0.86614
0.869585
0.84458
0.84104
0.858849
0.86978
0.862406
0.849855
0.850347
0.857491
0.858765
0.854428
0.850638
0.851233
0.851754
0.849714
0.847871
0.847556
0.847119
0.846345
0.846056
0.846096
0.845068
0.843062
0.841694
0.840857
0.840043
0.839603
0.839714
0.840809
0.84331
0.84667
0.851782
0.856612
0.858462
0.86025
0.863567
0.86789
0.87212
0.876175
0.88043
0.892752
0.902743
0.913697
0.919274
0.92213
0.925941
0.933407
0.940171
0.950628
0.96126
0.981769
0.0931229
0.0931735
0.093167
0.0931084
0.0928964
0.0926718
0.0926122
0.0926099
0.0926454
0.092799
0.0929989
0.0930351
0.0930308
0.0930048
0.0929564
0.0929615
0.093055
0.0932343
0.0932589
0.0931728
0.0930286
0.0929626
0.0929145
0.0928776
0.0928741
0.0928919
0.1639
0.354627
0.588426
0.77009
0.809969
0.844897
0.881163
0.876416
0.850279
0.846467
0.854981
0.861579
0.858686
0.849942
0.84929
0.853703
0.852795
0.849292
0.847702
0.848605
0.847795
0.846772
0.846503
0.846185
0.844965
0.843174
0.842771
0.842506
0.841893
0.84138
0.841235
0.841913
0.843655
0.846405
0.8508
0.855436
0.857626
0.85968
0.863301
0.867768
0.872072
0.876154
0.880212
0.89243
0.902988
0.914413
0.922474
0.925341
0.926789
0.932823
0.940113
0.950839
0.961504
0.981544
0.0931677
0.0932473
0.0932419
0.0931799
0.0929513
0.0926893
0.0926301
0.0926248
0.0926366
0.0927315
0.0929463
0.0930291
0.093031
0.0930161
0.0929806
0.0930036
0.093139
0.0932658
0.0932512
0.0931068
0.0930008
0.0929704
0.0929384
0.0928913
0.0928715
0.0929064
0.0930524
0.0931254
0.158472
0.362771
0.653068
0.824515
0.872958
0.859833
0.836509
0.849619
0.864067
0.862704
0.852043
0.846934
0.851815
0.855438
0.852082
0.847499
0.848402
0.84956
0.848495
0.84716
0.847839
0.847226
0.845585
0.843829
0.843338
0.842744
0.841945
0.841396
0.841217
0.841859
0.843386
0.846164
0.850053
0.854284
0.857006
0.859855
0.863935
0.868389
0.872547
0.876758
0.88005
0.892207
0.90366
0.916311
0.924295
0.925456
0.926731
0.933
0.940896
0.951501
0.962051
0.981683
0.0932389
0.0933274
0.0933189
0.0932326
0.0930001
0.0927255
0.0926573
0.0926502
0.0926512
0.0926975
0.0928721
0.0930071
0.0930169
0.0930083
0.0929881
0.0930507
0.0932337
0.0932798
0.0932237
0.0930275
0.0929814
0.0929827
0.0929548
0.0928906
0.0928691
0.0929038
0.0930342
0.0931299
0.0931119
0.0930793
0.178017
0.405873
0.680772
0.766057
0.831128
0.869768
0.868888
0.861189
0.843847
0.846352
0.858428
0.856684
0.847705
0.846685
0.850949
0.850178
0.847703
0.84731
0.848361
0.84747
0.844726
0.843719
0.843388
0.842671
0.841775
0.841149
0.84084
0.841614
0.843262
0.846243
0.849853
0.853865
0.856995
0.860352
0.86486
0.869881
0.873581
0.875985
0.880271
0.892856
0.906273
0.918737
0.92496
0.92418
0.92604
0.933834
0.942244
0.952526
0.962875
0.98203
0.0933267
0.0933836
0.0933647
0.0932562
0.0930502
0.0927945
0.0926922
0.0926819
0.0926785
0.092692
0.0927977
0.0929449
0.0929736
0.0929714
0.0929821
0.0931099
0.0932946
0.0932956
0.0932042
0.0930019
0.0929889
0.093002
0.092982
0.0928938
0.0928659
0.0929032
0.0930307
0.0931006
0.0930775
0.0930551
0.093066
0.0985264
0.196396
0.467066
0.759134
0.848057
0.864073
0.840371
0.839639
0.856463
0.8623
0.852328
0.843494
0.849261
0.852685
0.849458
0.846346
0.848379
0.848858
0.845737
0.84358
0.843563
0.843509
0.842643
0.841626
0.840997
0.840903
0.841731
0.843359
0.846396
0.850267
0.854735
0.857759
0.861186
0.865763
0.871611
0.87538
0.875745
0.881662
0.89506
0.909583
0.921199
0.924658
0.922511
0.92555
0.935014
0.944803
0.954503
0.964072
0.982673
0.0933751
0.0933986
0.0933698
0.0932664
0.0930977
0.0928788
0.0927319
0.0927112
0.0927047
0.0927045
0.0927519
0.0928673
0.0929223
0.0929268
0.0929582
0.0931584
0.0933198
0.0933114
0.0932034
0.0930166
0.0929925
0.0930138
0.0929995
0.0929069
0.092865
0.0929058
0.0930356
0.0930622
0.093017
0.0930043
0.0930331
0.0931091
0.0931213
0.110704
0.255881
0.522744
0.7682
0.805277
0.845071
0.873964
0.866752
0.840264
0.842841
0.855782
0.854119
0.84591
0.84602
0.849918
0.84764
0.843385
0.843231
0.844273
0.84379
0.842729
0.841867
0.841295
0.84141
0.842218
0.843559
0.846263
0.850925
0.855621
0.859
0.862378
0.866664
0.872484
0.875674
0.875298
0.882688
0.897831
0.91259
0.921965
0.922811
0.920274
0.925747
0.937227
0.948599
0.957604
0.965627
0.983559
0.0933633
0.0933835
0.0933535
0.0932726
0.0931381
0.0929392
0.0927747
0.0927364
0.092727
0.0927207
0.0927369
0.0928041
0.0928555
0.0928732
0.0929354
0.0931957
0.0933249
0.0933089
0.0932028
0.0930289
0.0930046
0.0930251
0.0930095
0.0929097
0.0928746
0.0929312
0.0930394
0.0930382
0.0929838
0.0929713
0.0930017
0.0930866
0.0931149
0.0931069
0.093063
0.13206
0.32271
0.632275
0.823779
0.866677
0.845553
0.830805
0.853016
0.860102
0.849201
0.842347
0.848555
0.850829
0.84529
0.841954
0.843718
0.844815
0.843831
0.842745
0.842192
0.841859
0.842035
0.842545
0.843587
0.845901
0.850717
0.855996
0.860274
0.863618
0.867924
0.873102
0.875863
0.87509
0.884343
0.900214
0.913498
0.920864
0.919989
0.918419
0.927538
0.941742
0.952946
0.960766
0.967352
0.98453
0.0933262
0.093356
0.0933364
0.0932822
0.093173
0.0929873
0.0928149
0.0927608
0.0927509
0.0927417
0.0927418
0.0927645
0.0927841
0.0928063
0.0929116
0.093223
0.0933109
0.0932907
0.0931744
0.0930312
0.0930222
0.0930371
0.0930133
0.0929099
0.092893
0.0929598
0.0930435
0.093033
0.0929729
0.0929552
0.0929778
0.0930579
0.0930979
0.0930953
0.0930822
0.0930388
0.0929365
0.176163
0.419174
0.705026
0.7839
0.834294
0.872518
0.864641
0.8385
0.842151
0.853934
0.850445
0.842399
0.842585
0.846633
0.845482
0.843437
0.842629
0.842442
0.842209
0.842297
0.842261
0.842786
0.845127
0.850444
0.856406
0.86123
0.864717
0.869638
0.873731
0.876132
0.875301
0.885113
0.901392
0.913474
0.918771
0.916746
0.917892
0.932147
0.947122
0.956637
0.963134
0.96901
0.985562
0.0932461
0.0933313
0.0933299
0.0932927
0.0931925
0.0930241
0.0928585
0.0927897
0.0927783
0.0927752
0.0927574
0.0927461
0.0927357
0.0927498
0.0928891
0.0932252
0.0933075
0.0932841
0.0931621
0.0930396
0.0930343
0.0930469
0.0930115
0.0929205
0.0929074
0.0929689
0.0930426
0.0930329
0.0929712
0.0929508
0.0929673
0.0930304
0.0930851
0.0930857
0.0930786
0.0930559
0.0929958
0.0928978
0.100696
0.22804
0.54308
0.797408
0.863696
0.842053
0.830601
0.853017
0.856711
0.845363
0.840792
0.84739
0.848047
0.843988
0.842541
0.842441
0.842472
0.842239
0.84215
0.841549
0.841752
0.844615
0.850837
0.857
0.862149
0.865899
0.871078
0.874348
0.876646
0.875809
0.885689
0.901893
0.91237
0.915495
0.913859
0.919622
0.937294
0.951022
0.959145
0.965144
0.970706
0.986507
0.0931441
0.0933
0.0933281
0.0932933
0.093185
0.0930304
0.0928951
0.0928253
0.0928068
0.092812
0.0927801
0.0927335
0.0927094
0.0927189
0.0928686
0.0932156
0.0933074
0.0932838
0.093168
0.0930501
0.0930401
0.0930572
0.0930405
0.0929451
0.0929221
0.092966
0.0930406
0.0930378
0.0929857
0.0929554
0.0929657
0.0930075
0.0930728
0.0930842
0.0930778
0.0930621
0.093017
0.0929445
0.0928748
0.0928007
0.134689
0.348867
0.663188
0.770038
0.831618
0.870698
0.858887
0.838074
0.844902
0.853389
0.848737
0.841821
0.842159
0.842864
0.842364
0.842235
0.842006
0.840377
0.840764
0.844661
0.851927
0.858007
0.863122
0.867279
0.8719
0.875223
0.876751
0.876197
0.88631
0.901237
0.909991
0.912401
0.912799
0.923145
0.940648
0.952783
0.959931
0.964822
0.970827
0.987212
0.0930584
0.0932317
0.0932919
0.0932631
0.0931547
0.0930082
0.092913
0.0928659
0.0928422
0.0928475
0.092815
0.0927258
0.0926909
0.0927025
0.0928502
0.0931914
0.0933111
0.0932917
0.0931904
0.0930557
0.0930379
0.0930617
0.0930541
0.0929668
0.0929364
0.0929563
0.0930342
0.0930438
0.0930096
0.092962
0.0929631
0.0929876
0.0930518
0.0930883
0.0930852
0.0930692
0.0930344
0.0929673
0.092887
0.0928131
0.0927768
0.0927867
0.190105
0.503911
0.782231
0.857949
0.829548
0.834139
0.857153
0.854671
0.841673
0.839507
0.844969
0.843556
0.842254
0.842388
0.84151
0.839097
0.840063
0.845171
0.85314
0.858689
0.863489
0.867903
0.872172
0.876012
0.876735
0.876524
0.88663
0.900188
0.907805
0.91019
0.914018
0.92611
0.942194
0.953675
0.957271
0.962781
0.970328
0.98776
0.0930092
0.0931495
0.09322
0.0932079
0.0931189
0.092984
0.0929266
0.0929096
0.0928866
0.0928862
0.0928581
0.0927331
0.0926786
0.092688
0.0928211
0.0931541
0.0933211
0.0933149
0.0932204
0.0930501
0.0930219
0.0930638
0.0930679
0.0929911
0.0929499
0.0929582
0.0930172
0.0930407
0.0930239
0.0929721
0.09296
0.0929726
0.0930234
0.0930868
0.0930883
0.0930767
0.0930486
0.0929866
0.0929024
0.0928196
0.0927762
0.0927993
0.0928581
0.120979
0.322062
0.651547
0.766184
0.836911
0.870164
0.855504
0.834097
0.841914
0.848234
0.843611
0.842089
0.842879
0.840751
0.837847
0.839945
0.847118
0.8541
0.859242
0.864062
0.868554
0.872109
0.876427
0.877387
0.877415
0.886668
0.899123
0.90679
0.911985
0.917578
0.928147
0.942294
0.949515
0.953319
0.960453
0.969906
0.988261
0.0930371
0.0931044
0.0931379
0.0931486
0.0931003
0.0929832
0.0929436
0.0929418
0.0929295
0.0929317
0.0929041
0.0927499
0.0926701
0.0926688
0.0927808
0.0931094
0.0933383
0.0933465
0.0932555
0.0930587
0.0930105
0.0930576
0.0930777
0.0930206
0.0929605
0.0929627
0.0930051
0.0930438
0.093038
0.0929915
0.0929653
0.0929694
0.0929967
0.0930745
0.0930876
0.0930825
0.0930612
0.0930039
0.0929166
0.0928277
0.0927847
0.0928079
0.0928931
0.0930151
0.0930624
0.183652
0.504784
0.788106
0.855858
0.825069
0.831736
0.853903
0.85024
0.841133
0.842475
0.843818
0.839136
0.837228
0.840501
0.849207
0.854737
0.860027
0.864745
0.868956
0.871649
0.876122
0.878281
0.878525
0.886621
0.898237
0.908037
0.915754
0.920341
0.928397
0.940582
0.945152
0.94958
0.958684
0.969686
0.988725
0.0930737
0.0930917
0.0930712
0.0930735
0.0930787
0.0930068
0.0929672
0.0929706
0.0929716
0.0929846
0.0929554
0.0927673
0.0926612
0.0926509
0.0927389
0.093066
0.09334
0.0933603
0.0932839
0.0930786
0.0930097
0.09305
0.0930798
0.0930469
0.0929695
0.0929629
0.0929941
0.093054
0.0930577
0.0930183
0.092975
0.0929739
0.0929848
0.0930338
0.0930828
0.0930837
0.0930655
0.0930147
0.0929422
0.0928721
0.0928335
0.092849
0.0929224
0.0930131
0.093052
0.0930655
0.122688
0.330484
0.661863
0.771319
0.84072
0.864959
0.845197
0.838532
0.84615
0.844535
0.836567
0.837029
0.843875
0.850395
0.85512
0.860827
0.865391
0.868883
0.870591
0.874727
0.878739
0.87952
0.886823
0.898945
0.912129
0.920724
0.921557
0.927305
0.940529
0.942049
0.947223
0.957784
0.969818
0.989208
0.0930676
0.0930642
0.093037
0.0930207
0.0930418
0.0930104
0.0929788
0.0929896
0.0930128
0.0930385
0.0930154
0.0927995
0.0926578
0.0926406
0.0926998
0.0929999
0.093326
0.0933605
0.0932981
0.0930977
0.0930156
0.0930525
0.0930798
0.0930629
0.0929884
0.0929701
0.0929919
0.0930599
0.0930767
0.0930441
0.0929832
0.0929739
0.09298
0.0930019
0.0930502
0.0930655
0.093054
0.0930186
0.0929699
0.0929207
0.0928832
0.0928911
0.0929489
0.0930238
0.093049
0.0930565
0.0930516
0.0929846
0.197789
0.538489
0.797984
0.854578
0.824369
0.839084
0.850429
0.841376
0.834932
0.839033
0.846438
0.850422
0.855476
0.861381
0.865996
0.867944
0.869156
0.873226
0.878587
0.879856
0.887196
0.901634
0.916961
0.923011
0.919828
0.925713
0.936913
0.939687
0.945919
0.957474
0.970182
0.989746
0.0930258
0.0930158
0.0930025
0.0929969
0.0930136
0.0929946
0.0929746
0.093
0.0930483
0.0930786
0.093065
0.092873
0.0926752
0.0926434
0.0926789
0.0929093
0.0932715
0.0933443
0.0933002
0.0931175
0.093031
0.0930628
0.0930873
0.0930748
0.0930172
0.0929965
0.0930001
0.0930555
0.0930887
0.0930627
0.0929959
0.0929685
0.0929704
0.0929795
0.0930122
0.0930236
0.0930199
0.0930177
0.0929978
0.0929614
0.0929262
0.0929218
0.0929733
0.0930345
0.0930543
0.0930594
0.09305
0.0929854
0.092931
0.134289
0.370395
0.704923
0.779022
0.855365
0.853353
0.832709
0.83528
0.844678
0.84769
0.84989
0.855749
0.861878
0.865904
0.866299
0.86778
0.872475
0.877453
0.879171
0.887435
0.904528
0.920249
0.922732
0.916853
0.923752
0.935072
0.938049
0.945403
0.958116
0.971519
0.990974
0.0929691
0.0929343
0.0929603
0.0929954
0.093016
0.0929719
0.0929613
0.0929955
0.0930713
0.093108
0.0931023
0.0929748
0.0927172
0.0926604
0.0926777
0.0928419
0.0931913
0.0933088
0.0932821
0.0931336
0.0930467
0.0930753
0.0931038
0.0930982
0.0930518
0.0930249
0.0930232
0.0930554
0.0930944
0.0930739
0.093011
0.0929666
0.092948
0.0929527
0.0929787
0.0930036
0.0930075
0.0930157
0.0930233
0.0930015
0.0929711
0.0929539
0.0929951
0.0930406
0.0930611
0.0930661
0.093057
0.0929866
0.0929288
0.0929202
0.093275
0.237953
0.598347
0.827374
0.844925
0.820354
0.842699
0.847016
0.847137
0.849172
0.856223
0.862695
0.865312
0.864753
0.867149
0.871906
0.875298
0.877844
0.887422
0.905379
0.920349
0.918556
0.91295
0.923443
0.93644
0.940257
0.949511
0.962806
0.974917
0.992342
0.0929071
0.0928727
0.0929468
0.093005
0.0930276
0.0929622
0.0929456
0.0929811
0.0930715
0.0931253
0.0931294
0.0930627
0.0928062
0.0926918
0.0926939
0.0928017
0.0931127
0.0932728
0.0932562
0.0931367
0.0930558
0.0930853
0.0931335
0.0931339
0.0931
0.0930618
0.0930582
0.0930679
0.0930987
0.0930851
0.0930283
0.0929707
0.0929334
0.092927
0.0929462
0.0929806
0.0930127
0.0930282
0.0930442
0.0930358
0.0930127
0.0929904
0.0930085
0.0930484
0.0930711
0.0930765
0.0930658
0.0929902
0.0929282
0.0929197
0.0929513
0.0930344
0.168492
0.454399
0.732484
0.798211
0.858579
0.849315
0.844562
0.849416
0.857409
0.863388
0.864414
0.864204
0.867083
0.871813
0.873315
0.876238
0.887386
0.905537
0.917397
0.913045
0.910493
0.928831
0.945458
0.949781
0.958069
0.967975
0.977328
0.993454
0.0928438
0.0928218
0.0929349
0.093006
0.0930275
0.0929653
0.0929387
0.0929625
0.0930381
0.0931172
0.0931423
0.0931134
0.0929283
0.09273
0.0927151
0.0927833
0.0930338
0.0932291
0.093225
0.093133
0.0930595
0.0930857
0.093143
0.0931505
0.093132
0.093097
0.093092
0.0930965
0.0931181
0.0931085
0.0930525
0.0929785
0.0929262
0.0929098
0.0929241
0.0929552
0.0930094
0.0930491
0.0930685
0.0930644
0.0930463
0.093019
0.0930221
0.0930666
0.0930902
0.0930922
0.0930779
0.0930192
0.0929686
0.0929725
0.0930496
0.0933467
0.093324
0.108048
0.326996
0.692641
0.849914
0.823144
0.843339
0.850476
0.857633
0.863162
0.862874
0.864559
0.868224
0.872022
0.872
0.874799
0.886773
0.903638
0.912313
0.907858
0.913652
0.93903
0.955334
0.958078
0.962944
0.969761
0.978513
0.99523
0.0928164
0.0927908
0.0929011
0.0929804
0.0929993
0.0929922
0.0929431
0.0929561
0.0929922
0.0930761
0.0931458
0.0931432
0.0930352
0.0927953
0.0927327
0.0927713
0.0929642
0.0931791
0.093192
0.0931277
0.0930602
0.0930783
0.0931368
0.0931513
0.093143
0.0931215
0.0931165
0.0931234
0.0931506
0.0931439
0.0930862
0.0929961
0.0929255
0.0929033
0.0929148
0.0929455
0.0930033
0.0930662
0.0930949
0.0930923
0.0930751
0.0930451
0.0930457
0.0931084
0.0931383
0.093148
0.0931509
0.0931316
0.0931171
0.0931467
0.0932622
0.093603
0.0937567
0.0935995
0.0935171
0.229404
0.585504
0.750399
0.854823
0.851502
0.857736
0.862411
0.861725
0.867202
0.873688
0.875003
0.872642
0.875168
0.886192
0.899952
0.905343
0.904964
0.920004
0.947091
0.960284
0.96044
0.963267
0.969367
0.979739
0.997258
0.0928359
0.0927942
0.0928643
0.0929516
0.0929858
0.0930208
0.0929836
0.092951
0.0929512
0.0929997
0.0931237
0.0931683
0.0931164
0.0929012
0.0927647
0.0927756
0.0929098
0.0931221
0.093161
0.0931201
0.0930613
0.0930752
0.0931329
0.0931526
0.0931471
0.0931336
0.0931333
0.0931435
0.0931736
0.0931719
0.0931152
0.0930158
0.092934
0.0929066
0.0929154
0.0929465
0.0930069
0.0930826
0.0931233
0.0931244
0.0931124
0.0930856
0.093095
0.0931915
0.0932313
0.0932404
0.0932756
0.0932695
0.0932849
0.0933641
0.0934989
0.0937831
0.0940387
0.0940002
0.0939659
0.0940138
0.155603
0.493581
0.812069
0.82634
0.856188
0.859668
0.861027
0.872472
0.877936
0.875763
0.877424
0.879478
0.88671
0.896992
0.901433
0.909165
0.925234
0.949481
0.959232
0.958465
0.960736
0.96758
0.979943
0.998437
0.0928801
0.0928166
0.0928265
0.0929136
0.0929881
0.093056
0.0930383
0.0929623
0.0929143
0.0929406
0.0930813
0.093188
0.0931709
0.0930108
0.0928188
0.0928026
0.0928759
0.0930615
0.0931277
0.0931019
0.0930534
0.0930654
0.0931215
0.0931518
0.0931482
0.0931365
0.093142
0.0931587
0.0931877
0.0931854
0.0931291
0.0930305
0.0929505
0.0929165
0.092923
0.0929556
0.0930114
0.0930996
0.0931522
0.0931579
0.0931581
0.0931446
0.0931669
0.0932638
0.0932803
0.0932815
0.0933538
0.0933939
0.0934369
0.0935835
0.0937404
0.09393
0.0942225
0.0942386
0.0941851
0.0943515
0.0949252
0.120139
0.406189
0.678597
0.855748
0.849845
0.861844
0.877699
0.878248
0.87608
0.881961
0.883971
0.886866
0.894427
0.905127
0.91679
0.927902
0.94821
0.954827
0.954498
0.956869
0.964822
0.979789
0.998796
0.0929207
0.0928339
0.0928001
0.0928711
0.0929738
0.0930783
0.0930786
0.0929872
0.0929004
0.0929131
0.0930489
0.0931918
0.0931958
0.0930833
0.0928734
0.0928278
0.0928638
0.0930121
0.0930967
0.0930771
0.0930259
0.0930311
0.0930839
0.0931311
0.0931364
0.0931344
0.0931441
0.0931651
0.0931897
0.0931871
0.0931352
0.0930399
0.0929573
0.0929167
0.0929218
0.0929517
0.0930041
0.0931157
0.0931797
0.0931878
0.093201
0.0932054
0.093232
0.0932996
0.0932925
0.093281
0.0933773
0.0935098
0.0935892
0.0937993
0.0939603
0.0940164
0.0942082
0.0944886
0.0943835
0.0944263
0.0953057
0.0961118
0.098073
0.330717
0.752735
0.813755
0.869778
0.878157
0.874793
0.877961
0.884597
0.884329
0.886663
0.896054
0.913845
0.922273
0.926779
0.943105
0.9486
0.949158
0.952479
0.962307
0.979514
0.998757
0.0929563
0.09283
0.0927772
0.092835
0.0929432
0.0930553
0.0930949
0.0930161
0.0928987
0.0928945
0.0930254
0.0931779
0.0931974
0.093118
0.0929181
0.0928525
0.0928711
0.0929879
0.0930737
0.0930507
0.0929878
0.0929914
0.0930531
0.0931139
0.0931224
0.0931239
0.0931418
0.0931656
0.0931815
0.0931725
0.0931234
0.0930457
0.0929746
0.092938
0.0929442
0.092965
0.0930101
0.0931447
0.0932091
0.0932166
0.0932334
0.0932549
0.0932715
0.0933014
0.0932891
0.0932462
0.0933365
0.093615
0.093727
0.0939582
0.0941267
0.094061
0.0941081
0.0945373
0.0947112
0.0947914
0.0953023
0.0969581
0.0976143
0.0982759
0.266284
0.645556
0.845083
0.87855
0.87262
0.880135
0.885911
0.882386
0.886813
0.901807
0.923229
0.925066
0.924886
0.937037
0.942266
0.944794
0.949897
0.96157
0.978973
0.99845
0.0929974
0.0928379
0.0927588
0.0927996
0.0928982
0.0930092
0.0930853
0.0930371
0.0929144
0.0928736
0.0929521
0.0931336
0.0931827
0.0931308
0.0929558
0.0928864
0.0929002
0.0929937
0.0930584
0.0930278
0.0929491
0.0929488
0.0930182
0.0930999
0.0931149
0.0931189
0.0931379
0.0931619
0.0931737
0.0931585
0.0931079
0.0930556
0.093024
0.0930202
0.0930252
0.0930099
0.0930414
0.0931941
0.0932467
0.0932443
0.0932553
0.0932959
0.0932849
0.0932772
0.0932796
0.0932291
0.0933031
0.0936902
0.0938708
0.0940229
0.0943323
0.0942894
0.0941728
0.0944478
0.0951842
0.0959418
0.0962674
0.0975753
0.098992
0.100377
0.101368
0.245307
0.658042
0.839858
0.878529
0.887106
0.881696
0.879655
0.888263
0.905203
0.917895
0.921104
0.925901
0.935462
0.94045
0.945888
0.952458
0.964323
0.979124
0.998132
0.0930762
0.0928917
0.0927499
0.0927621
0.092843
0.0929642
0.0930869
0.0930738
0.0929624
0.092881
0.0929271
0.0930834
0.0931407
0.0931156
0.0929965
0.0929395
0.0929459
0.0930234
0.0930659
0.0930206
0.0929222
0.092912
0.0929824
0.093088
0.0931113
0.0931175
0.0931429
0.0931633
0.0931649
0.0931507
0.0931061
0.0930666
0.0930788
0.0930957
0.0930895
0.0930325
0.0930318
0.0931986
0.0932937
0.09328
0.0932734
0.0933116
0.0932798
0.0932535
0.0932779
0.0932797
0.0933652
0.0937983
0.0942014
0.0941581
0.094495
0.0950501
0.0947879
0.0947251
0.0960019
0.097297
0.0979991
0.0990495
0.101131
0.101875
0.103474
0.104714
0.208875
0.612344
0.843728
0.887332
0.874253
0.878608
0.891675
0.909685
0.907381
0.916047
0.933495
0.943786
0.947862
0.954145
0.960033
0.970086
0.980482
0.998322
0.0931653
0.0929895
0.0928084
0.0927589
0.0928017
0.0929143
0.0930748
0.0931323
0.0930574
0.0929251
0.0929174
0.0930229
0.0930987
0.0930959
0.0930351
0.0930001
0.0930002
0.0930598
0.0930895
0.093036
0.0929189
0.0928913
0.0929521
0.0930638
0.093114
0.0931309
0.0931565
0.0931651
0.0931627
0.0931551
0.0931137
0.0931011
0.0931339
0.0931473
0.0931294
0.0930411
0.0930263
0.0931835
0.0934298
0.0934331
0.0933348
0.0933181
0.0932821
0.0932887
0.0933315
0.0934607
0.0936028
0.0939406
0.0945276
0.0945555
0.0945946
0.0953851
0.0960287
0.096609
0.0978208
0.099244
0.0996263
0.100489
0.102543
0.104287
0.105072
0.107148
0.108479
0.201578
0.596834
0.85327
0.859123
0.883221
0.890378
0.900501
0.89304
0.915307
0.945464
0.956567
0.959466
0.964164
0.967776
0.975495
0.982381
0.998915
0.0932457
0.0931108
0.0929048
0.0927547
0.0927628
0.092851
0.0930443
0.093173
0.0931347
0.0929981
0.0929216
0.0929699
0.0930742
0.093095
0.0930759
0.093058
0.0930567
0.0931138
0.0931337
0.0930651
0.0929274
0.0928872
0.0929408
0.0930523
0.093119
0.0931331
0.0931499
0.0931672
0.0931699
0.0931649
0.0931378
0.0931577
0.093204
0.0932
0.0931641
0.0930546
0.0930351
0.0931583
0.0935025
0.0936921
0.0936254
0.0934867
0.0935437
0.0937175
0.0938728
0.0939567
0.0939288
0.0939981
0.0946143
0.0955173
0.095605
0.0956757
0.0969204
0.0985969
0.0997748
0.101491
0.102334
0.102126
0.103385
0.106592
0.108563
0.108931
0.110773
0.112242
0.185294
0.607681
0.803316
0.887015
0.888712
0.88569
0.880937
0.920788
0.956033
0.964864
0.968495
0.969086
0.970145
0.976587
0.98313
1.00027
0.0933008
0.0932495
0.0930781
0.0928226
0.0927725
0.0928127
0.0929999
0.0931857
0.0931701
0.0930458
0.0929335
0.0929427
0.0930579
0.0931219
0.0931229
0.0931092
0.0931041
0.0931588
0.0931863
0.0931166
0.0929604
0.0928965
0.0929421
0.0930577
0.0931266
0.0931334
0.093148
0.0931716
0.0931853
0.0931772
0.0931731
0.0932357
0.0932829
0.0932607
0.0931683
0.0930891
0.0930765
0.093167
0.0935021
0.0938999
0.0940628
0.09409
0.0940774
0.0941944
0.0945013
0.0947999
0.0948403
0.0946564
0.094931
0.0964751
0.0980108
0.0977588
0.0983825
0.100045
0.101095
0.10281
0.104873
0.10561
0.105701
0.107731
0.111001
0.111751
0.112202
0.114696
0.115811
0.186341
0.596283
0.845925
0.877436
0.878579
0.895777
0.938537
0.958252
0.962393
0.967322
0.968522
0.967807
0.973356
0.98213
1.00164
0.0933798
0.0933943
0.0932999
0.0929411
0.0927817
0.0927957
0.0929543
0.0931804
0.0931806
0.0930606
0.0929407
0.0929431
0.0930293