/*--------------------------------*- C++ -*----------------------------------*\
  =========                 |
  \\      /  F ield         | OpenFOAM: The Open Source CFD Toolbox
   \\    /   O peration     | Website:  https://openfoam.org
    \\  /    A nd           | Version:  7
     \\/     M anipulation  |
\*---------------------------------------------------------------------------*/
FoamFile
{
    version     2.0;
    format      ascii;
    class       volScalarField;
    location    "7.5";
    object      p;
}
// * * * * * * * * * * * * * * * * * * * * * * * * * * * * * * * * * * * * * //

dimensions      [1 -1 -2 0 0 0 0];

internalField   nonuniform List<scalar> 
90000
(
0.411315
0.452796
0.49523
0.53425
0.567876
0.603253
0.63857
0.671096
0.704857
0.739646
0.773186
0.806021
0.839106
0.869109
0.897632
0.921285
0.942274
0.956819
0.96802
0.971985
0.974741
0.974573
0.973834
0.972771
0.972419
0.970801
0.967741
0.963528
0.958513
0.95331
0.947607
0.947237
0.9491
0.953327
0.957786
0.96166
0.964171
0.966169
0.966576
0.965287
0.961842
0.957193
0.954298
0.9529
0.953927
0.956583
0.960323
0.96241
0.961704
0.959608
0.956237
0.954013
0.953869
0.955089
0.957475
0.959499
0.959012
0.957529
0.954897
0.953969
0.954613
0.956043
0.956569
0.95555
0.95338
0.952102
0.95224
0.95308
0.952809
0.951989
0.951018
0.950555
0.950526
0.950031
0.94915
0.948496
0.948095
0.947483
0.946741
0.946154
0.945671
0.944983
0.944211
0.943724
0.943219
0.942544
0.941779
0.940962
0.939985
0.939067
0.938378
0.93767
0.937252
0.937076
0.937518
0.938264
0.939879
0.942515
0.94463
0.944818
0.374375
0.374539
0.375032
0.37614
0.377927
0.381022
0.385873
0.392986
0.402745
0.416748
0.434492
0.458049
0.486444
0.52186
0.562012
0.608439
0.657324
0.708389
0.756375
0.797977
0.836741
0.866334
0.893146
0.909969
0.925215
0.931916
0.938762
0.940073
0.942098
0.943737
0.948331
0.955049
0.96213
0.967865
0.971136
0.972586
0.971616
0.970558
0.967414
0.960596
0.955449
0.951981
0.953562
0.955337
0.958133
0.961542
0.963506
0.962797
0.96006
0.956276
0.95291
0.952669
0.953634
0.956582
0.960781
0.960945
0.95923
0.955603
0.952852
0.953223
0.955097
0.957838
0.957389
0.95504
0.952123
0.951777
0.952384
0.953586
0.95297
0.951591
0.950906
0.950665
0.950746
0.95014
0.949234
0.948598
0.948193
0.94753
0.946792
0.946287
0.945853
0.945107
0.944315
0.943773
0.943264
0.942564
0.94179
0.940974
0.939976
0.939053
0.938353
0.937659
0.937262
0.937102
0.937454
0.938277
0.939915
0.942609
0.944777
0.9449
0.374317
0.374314
0.374308
0.3743
0.374289
0.374281
0.374281
0.374298
0.374353
0.37451
0.374821
0.375409
0.376419
0.378292
0.381421
0.38706
0.39584
0.410378
0.430507
0.459462
0.494901
0.539583
0.588894
0.643589
0.698868
0.752304
0.803413
0.846677
0.887239
0.916087
0.940844
0.95349
0.962068
0.963838
0.966157
0.967761
0.967106
0.962009
0.953766
0.947079
0.949781
0.954037
0.958572
0.963158
0.966363
0.96528
0.962777
0.958
0.953571
0.951596
0.951913
0.953543
0.958389
0.962349
0.961842
0.959257
0.955252
0.952996
0.953016
0.955523
0.958187
0.958178
0.956258
0.953331
0.951606
0.952128
0.953888
0.953746
0.952497
0.951274
0.950874
0.951324
0.950931
0.950115
0.949268
0.948785
0.948267
0.947559
0.946867
0.94642
0.945932
0.945169
0.944348
0.943935
0.943283
0.942548
0.941795
0.940968
0.939929
0.939002
0.938353
0.937699
0.937286
0.93717
0.937475
0.93827
0.939897
0.942761
0.945014
0.944963
0.374321
0.374318
0.374312
0.374305
0.374298
0.374293
0.374289
0.374287
0.374286
0.374274
0.374261
0.374243
0.374224
0.374208
0.374197
0.374205
0.374234
0.374372
0.374715
0.375482
0.376977
0.380121
0.385744
0.396472
0.413066
0.440106
0.475701
0.524708
0.581215
0.646155
0.712171
0.770535
0.824273
0.860938
0.893039
0.908505
0.923161
0.928176
0.936381
0.946235
0.957585
0.967527
0.974759
0.974306
0.970397
0.963581
0.956093
0.951116
0.949926
0.951106
0.955667
0.961248
0.965514
0.964258
0.959548
0.954315
0.951575
0.952197
0.956286
0.959882
0.95925
0.956852
0.953394
0.951518
0.952576
0.95494
0.954966
0.953182
0.951342
0.950983
0.951697
0.951742
0.950834
0.949777
0.949419
0.949152
0.948348
0.947508
0.94705
0.946779
0.94609
0.945206
0.944465
0.944033
0.943309
0.942551
0.941843
0.941003
0.939918
0.939046
0.938339
0.937726
0.937281
0.93718
0.937424
0.938234
0.93991
0.942917
0.94522
0.945024
0.374304
0.374302
0.3743
0.374297
0.374294
0.374291
0.374287
0.374283
0.374278
0.374273
0.374263
0.374251
0.37424
0.374232
0.374227
0.374225
0.374227
0.374247
0.374234
0.374214
0.374195
0.374185
0.374191
0.374258
0.374451
0.374998
0.376255
0.379346
0.38549
0.398629
0.420263
0.456844
0.505188
0.569398
0.640296
0.71363
0.784919
0.844366
0.896786
0.928524
0.945886
0.952987
0.958777
0.961522
0.962098
0.95926
0.948574
0.949727
0.953847
0.960766
0.965574
0.966282
0.964562
0.958296
0.95279
0.950045
0.951296
0.956721
0.961186
0.960327
0.958252
0.95341
0.950707
0.952308
0.955799
0.956391
0.954525
0.951626
0.950914
0.951814
0.952444
0.951673
0.950399
0.949708
0.94978
0.949331
0.948378
0.94759
0.94737
0.946962
0.94614
0.945271
0.944603
0.94409
0.943311
0.942574
0.941875
0.941009
0.939897
0.939045
0.938356
0.937757
0.937308
0.937209
0.937416
0.938183
0.939891
0.943069
0.945413
0.94509
0.3743
0.374298
0.374297
0.374295
0.374293
0.374291
0.374288
0.374286
0.374284
0.374282
0.37428
0.374277
0.374274
0.374271
0.374268
0.374263
0.374259
0.374253
0.374245
0.374237
0.374232
0.37423
0.374233
0.374239
0.374277
0.374264
0.374251
0.374247
0.374271
0.374374
0.37467
0.375644
0.378101
0.384691
0.397904
0.425445
0.466831
0.530999
0.607462
0.689942
0.769735
0.82673
0.876986
0.902158
0.924393
0.932802
0.942644
0.956393
0.969408
0.974603
0.972536
0.969492
0.959396
0.949294
0.948598
0.950638
0.956871
0.963693
0.963137
0.959754
0.953223
0.950078
0.951351
0.955291
0.957821
0.956607
0.952947
0.950827
0.951463
0.953039
0.952766
0.951518
0.950211
0.949973
0.949904
0.949263
0.94836
0.947691
0.947682
0.947128
0.946157
0.945341
0.944842
0.944088
0.943222
0.942592
0.941906
0.940992
0.939887
0.939076
0.938399
0.937785
0.937317
0.937186
0.937383
0.938139
0.939902
0.943248
0.945536
0.945193
0.374291
0.374289
0.374287
0.374285
0.374283
0.374281
0.374278
0.374276
0.374274
0.374273
0.374271
0.374269
0.374268
0.374267
0.374266
0.374267
0.374267
0.374268
0.374269
0.374272
0.374273
0.374276
0.374277
0.37428
0.374278
0.374281
0.374287
0.374295
0.374305
0.374318
0.374364
0.374353
0.374344
0.374367
0.374468
0.374902
0.376227
0.380631
0.390906
0.416138
0.458177
0.526657
0.608651
0.700856
0.788241
0.861674
0.917771
0.944038
0.958548
0.961967
0.964566
0.95811
0.944648
0.947908
0.95245
0.96007
0.965359
0.963781
0.959569
0.952016
0.949394
0.950367
0.955866
0.958456
0.957469
0.95335
0.950953
0.951271
0.953348
0.953483
0.952084
0.950838
0.950293
0.950631
0.950244
0.949175
0.948335
0.948126
0.947884
0.94728
0.946344
0.945493
0.944972
0.944153
0.943196
0.942586
0.941957
0.941035
0.939943
0.939092
0.938481
0.93787
0.937417
0.937201
0.937331
0.938049
0.939943
0.943462
0.945583
0.945281
0.37428
0.374278
0.374277
0.374275
0.374274
0.374273
0.374272
0.374271
0.374271
0.374271
0.374271
0.374272
0.374273
0.374274
0.374276
0.374278
0.374281
0.374285
0.374288
0.374292
0.374296
0.3743
0.374305
0.374311
0.374316
0.374321
0.374324
0.374329
0.37433
0.374332
0.374329
0.374332
0.374334
0.374335
0.374346
0.374335
0.374323
0.374327
0.374384
0.374714
0.375919
0.380443
0.392101
0.421858
0.472987
0.555145
0.654252
0.747607
0.833681
0.875347
0.916408
0.924892
0.939521
0.958869
0.967212
0.973618
0.972132
0.963891
0.950202
0.946614
0.948616
0.955458
0.961771
0.960132
0.954136
0.949718
0.950456
0.953669
0.955281
0.954035
0.951394
0.950224
0.950853
0.951
0.950078
0.948916
0.948415
0.948671
0.94816
0.947082
0.946332
0.945868
0.9451
0.94401
0.943183
0.942641
0.941916
0.941009
0.940043
0.939104
0.938518
0.93783
0.937392
0.937158
0.937286
0.937995
0.939976
0.943709
0.945627
0.945385
0.374256
0.374256
0.374256
0.374256
0.374257
0.374257
0.374259
0.37426
0.374262
0.374264
0.374266
0.374269
0.374273
0.374277
0.374281
0.374285
0.37429
0.374295
0.374301
0.374306
0.374311
0.374315
0.37432
0.374323
0.374327
0.374329
0.374332
0.374332
0.374331
0.37433
0.374328
0.374325
0.37432
0.374314
0.374304
0.374299
0.374293
0.374285
0.374283
0.374271
0.374256
0.374265
0.374348
0.374824
0.376705
0.38371
0.403653
0.448524
0.523965
0.627244
0.737287
0.831932
0.909675
0.950126
0.957691
0.962954
0.961402
0.946419
0.945192
0.949763
0.958397
0.963418
0.961865
0.954504
0.948363
0.948842
0.953186
0.95654
0.955623
0.952079
0.949977
0.950416
0.951893
0.951426
0.94994
0.948608
0.94886
0.949048
0.948393
0.947186
0.946273
0.946145
0.945328
0.943948
0.943099
0.942731
0.94199
0.94101
0.940138
0.939163
0.938586
0.937849
0.937401
0.937103
0.937197
0.937932
0.940044
0.943953
0.945622
0.945419
0.374246
0.374248
0.374249
0.374251
0.374253
0.374256
0.374259
0.374262
0.374266
0.37427
0.374274
0.374278
0.374283
0.374288
0.374292
0.374297
0.374302
0.374307
0.37431
0.374313
0.374316
0.374319
0.374321
0.374322
0.374322
0.374321
0.374319
0.374316
0.374312
0.374307
0.374301
0.374294
0.37429
0.374281
0.37427
0.374263
0.374252
0.374241
0.374235
0.374229
0.374224
0.374223
0.374216
0.374213
0.374222
0.374267
0.374504
0.375684
0.380428
0.398252
0.43762
0.521399
0.630117
0.749408
0.832114
0.885362
0.918293
0.931768
0.950126
0.96528
0.97236
0.969506
0.957062
0.945424
0.946587
0.952479
0.95826
0.957411
0.952997
0.949681
0.950061
0.952704
0.952634
0.950975
0.948966
0.94867
0.949766
0.949422
0.948072
0.946941
0.946659
0.946341
0.945381
0.94406
0.943192
0.942782
0.942011
0.94108
0.940252
0.939269
0.938675
0.937956
0.937382
0.937066
0.937147
0.937923
0.940128
0.944178
0.945665
0.945491
0.374267
0.37427
0.374273
0.374276
0.37428
0.374283
0.374287
0.37429
0.374294
0.374298
0.374302
0.374306
0.37431
0.374314
0.374316
0.374318
0.37432
0.374322
0.374322
0.374323
0.374322
0.37432
0.374317
0.374314
0.37431
0.374306
0.374301
0.374295
0.374289
0.374283
0.374274
0.374266
0.37426
0.374251
0.37424
0.374232
0.374221
0.374213
0.374208
0.374202
0.374201
0.374202
0.37421
0.374224
0.37424
0.374263
0.374276
0.374289
0.374321
0.374505
0.375419
0.380523
0.397831
0.447406
0.538322
0.653281
0.779627
0.877109
0.938425
0.952733
0.962881
0.956335
0.942089
0.944887
0.953932
0.961052
0.95953
0.953929
0.948008
0.948435
0.952769
0.954607
0.95302
0.949066
0.948396
0.949953
0.950558
0.949385
0.94756
0.946886
0.947202
0.946615
0.945103
0.94389
0.943471
0.942915
0.941996
0.94114
0.94034
0.939335
0.938698
0.937996
0.93733
0.936984
0.937102
0.937958
0.94024
0.944351
0.945655
0.945474
0.374311
0.374313
0.374315
0.374318
0.374321
0.374324
0.374326
0.374328
0.37433
0.374331
0.374332
0.374334
0.374336
0.374336
0.374335
0.374334
0.374332
0.37433
0.374327
0.374323
0.37432
0.374314
0.374308
0.374304
0.374297
0.374292
0.374286
0.374278
0.374271
0.374265
0.374255
0.374246
0.374239
0.374229
0.374219
0.374212
0.374205
0.374202
0.374203
0.374208
0.374218
0.374228
0.37424
0.374251
0.374262
0.374271
0.374282
0.374292
0.374298
0.374298
0.374299
0.374322
0.374495
0.375799
0.382061
0.407234
0.467542
0.581272
0.716376
0.812417
0.894793
0.911853
0.935267
0.95176
0.970317
0.968607
0.960558
0.94625
0.946547
0.95152
0.956521
0.955147
0.950029
0.947709
0.949019
0.951753
0.951067
0.948386
0.947134
0.947627
0.947603
0.946409
0.944898
0.94398
0.943781
0.943059
0.942069
0.941335
0.940423
0.939381
0.938718
0.938
0.937221
0.936927
0.937101
0.938043
0.940377
0.944438
0.94568
0.945523
0.374348
0.374348
0.374348
0.374349
0.374349
0.374349
0.37435
0.374349
0.374348
0.374346
0.374345
0.374343
0.374341
0.374338
0.374335
0.374332
0.374328
0.374323
0.374317
0.374314
0.37431
0.374305
0.374299
0.37429
0.374284
0.374276
0.374268
0.374262
0.374255
0.374249
0.37424
0.374233
0.374228
0.374222
0.374217
0.374216
0.374219
0.374226
0.374237
0.374249
0.374262
0.374272
0.374279
0.374282
0.374286
0.374287
0.374288
0.37429
0.374287
0.374283
0.374282
0.37428
0.374273
0.374264
0.374292
0.374625
0.376664
0.389349
0.428353
0.522212
0.653216
0.785253
0.900272
0.939142
0.96095
0.958875
0.944395
0.943018
0.951641
0.959643
0.957682
0.95088
0.946183
0.94727
0.953093
0.952779
0.949936
0.947016
0.94719
0.948792
0.948033
0.945864
0.944558
0.944466
0.944054
0.943124
0.942153
0.941507
0.94049
0.939404
0.938758
0.937998
0.937164
0.936888
0.937088
0.938123
0.940487
0.944421
0.945697
0.945597
0.374356
0.374355
0.374353
0.374352
0.37435
0.374347
0.374346
0.374343
0.37434
0.374337
0.374333
0.374329
0.374325
0.374321
0.374317
0.374312
0.374307
0.374301
0.374296
0.37429
0.374282
0.374277
0.37427
0.374262
0.374255
0.374248
0.374243
0.374238
0.374233
0.374229
0.374225
0.374224
0.374224
0.374227
0.374234
0.374243
0.374255
0.37427
0.374284
0.374296
0.374304
0.374307
0.374305
0.374301
0.374298
0.374294
0.37429
0.374287
0.37428
0.374273
0.374265
0.374259
0.374253
0.374248
0.374249
0.374254
0.374269
0.374378
0.375183
0.381376
0.405232
0.482665
0.609335
0.742477
0.860958
0.893751
0.92603
0.945026
0.968576
0.966092
0.957982
0.944423
0.945404
0.951944
0.956275
0.953056
0.947196
0.946553
0.949088
0.949638
0.947431
0.945282
0.944672
0.945039
0.944352
0.943182
0.94242
0.941651
0.940486
0.939403
0.938813
0.937983
0.937124
0.936875
0.937077
0.938228
0.940595
0.944366
0.945698
0.945689
0.374346
0.374345
0.374344
0.37434
0.374336
0.374334
0.37433
0.374326
0.374322
0.374318
0.374312
0.374306
0.374302
0.374296
0.374289
0.374285
0.374279
0.374272
0.374266
0.37426
0.374253
0.374248
0.374241
0.374235
0.374231
0.374226
0.374223
0.374222
0.374222
0.374226
0.374231
0.37424
0.374251
0.374262
0.374276
0.374288
0.374301
0.374312
0.37432
0.374323
0.374322
0.374317
0.374309
0.3743
0.374293
0.374288
0.374281
0.374268
0.374254
0.374247
0.374244
0.374243
0.374246
0.374253
0.374272
0.374298
0.374322
0.374323
0.374323
0.374351
0.374664
0.377913
0.393944
0.45614
0.57216
0.721587
0.865577
0.926691
0.957158
0.955928
0.94193
0.942643
0.952753
0.959105
0.956504
0.946921
0.945044
0.948202
0.95133
0.949757
0.945619
0.944695
0.945897
0.945469
0.944239
0.943139
0.94273
0.941745
0.940386
0.939417
0.938877
0.937972
0.937113
0.936863
0.937205
0.938303
0.940671
0.944246
0.945675
0.94581
0.374326
0.374324
0.374319
0.374315
0.374314
0.374311
0.374307
0.374303
0.374299
0.374292
0.374287
0.374284
0.374281
0.374274
0.374269
0.374265
0.37426
0.374254
0.37425
0.374246
0.37424
0.374237
0.374234
0.374233
0.374234
0.374236
0.374241
0.374247
0.374257
0.374269
0.37428
0.374293
0.374302
0.37431
0.374318
0.374325
0.374331
0.374333
0.374333
0.37433
0.374323
0.374312
0.374303
0.374292
0.374279
0.374267
0.374258
0.374249
0.374239
0.374236
0.374235
0.374239
0.374252
0.374277
0.374309
0.374338
0.374353
0.374352
0.374346
0.374327
0.374281
0.374263
0.37441
0.376354
0.387709
0.441746
0.554566
0.703203
0.84144
0.887832
0.922268
0.946069
0.968979
0.963426
0.949828
0.941659
0.945364
0.953358
0.952631
0.947063
0.944183
0.945522
0.94707
0.945778
0.943904
0.943444
0.943106
0.941833
0.940323
0.939588
0.938959
0.937958
0.937166
0.937028
0.937345
0.938353
0.94068
0.944118
0.945647
0.945951
0.374297
0.374292
0.374288
0.374285
0.374282
0.374281
0.374279
0.374276
0.374273
0.37427
0.374268
0.374266
0.374264
0.374259
0.374256
0.374254
0.374252
0.37425
0.374249
0.374249
0.37425
0.374253
0.374257
0.374265
0.374273
0.374283
0.374294
0.374305
0.374316
0.374324
0.374331
0.374334
0.374334
0.374334
0.374336
0.374337
0.374336
0.374335
0.374334
0.374328
0.374315
0.374299
0.37428
0.374262
0.374253
0.374248
0.374246
0.374244
0.374239
0.374237
0.374241
0.374257
0.374283
0.374313
0.37434
0.374359
0.374364
0.374361
0.374348
0.374316
0.374264
0.374213
0.374196
0.374206
0.374319
0.375798
0.385273
0.434541
0.543439
0.703034
0.858059
0.926723
0.95608
0.95414
0.937951
0.944122
0.956189
0.95628
0.950298
0.942877
0.943721
0.948411
0.947553
0.944719
0.94347
0.944221
0.943415
0.941327
0.9401
0.939877
0.939106
0.937988
0.937336
0.937201
0.937386
0.938257
0.940637
0.943973
0.945634
0.946199
0.374263
0.374263
0.374262
0.374262
0.374262
0.37426
0.374259
0.374258
0.374257
0.374257
0.374257
0.374257
0.374258
0.37426
0.374263
0.374267
0.374271
0.374277
0.374282
0.374288
0.374296
0.374302
0.374311
0.374322
0.374331
0.374341
0.374348
0.374353
0.374354
0.374352
0.374349
0.374344
0.374337
0.374333
0.37433
0.374327
0.374322
0.374315
0.374306
0.37429
0.374269
0.37425
0.374234
0.374231
0.374234
0.374241
0.374246
0.37425
0.374255
0.374264
0.374279
0.3743
0.374319
0.374338
0.374352
0.374364
0.374368
0.374357
0.374324
0.374285
0.374242
0.374208
0.374195
0.374204
0.374244
0.374303
0.374429
0.375644
0.384267
0.4334
0.549087
0.705574
0.844408
0.895177
0.923439
0.957658
0.967903
0.959847
0.940451
0.941132
0.948095
0.950648
0.947188
0.943528
0.944414
0.945043
0.943399
0.940876
0.940272
0.940216
0.939322
0.938116
0.93761
0.937351
0.937327
0.938111
0.94059
0.943829
0.94566
0.946477
0.37425
0.374252
0.374255
0.374258
0.374261
0.374265
0.374268
0.374273
0.374278
0.374283
0.374288
0.374293
0.374299
0.374305
0.374312
0.374319
0.374326
0.374334
0.37434
0.374345
0.374351
0.374356
0.374361
0.374366
0.374371
0.374371
0.374369
0.374364
0.374356
0.374348
0.374339
0.37433
0.374318
0.374307
0.374294
0.37428
0.374266
0.374252
0.374239
0.374226
0.374211
0.374204
0.374205
0.374212
0.37422
0.374235
0.374255
0.374277
0.374301
0.374319
0.374333
0.374336
0.374337
0.37434
0.374348
0.374348
0.374337
0.374304
0.374271
0.374246
0.374229
0.374211
0.374215
0.374242
0.374302
0.374362
0.374393
0.374397
0.374452
0.375618
0.385102
0.437557
0.557202
0.731713
0.876654
0.942006
0.955236
0.941466
0.935506
0.947366
0.954687
0.95059
0.94227
0.942536
0.946732
0.945752
0.941748
0.940102
0.940979
0.940551
0.939249
0.93819
0.937975
0.937444
0.93722
0.937999
0.940545
0.943689
0.945732
0.946818
0.374285
0.374292
0.374297
0.374303
0.374311
0.374318
0.374324
0.374331
0.374337
0.374344
0.374351
0.374356
0.37436
0.374366
0.374371
0.374373
0.374377
0.37438
0.374381
0.374382
0.374383
0.374383
0.374383
0.374381
0.374377
0.374372
0.374365
0.374356
0.374342
0.374326
0.374309
0.374286
0.374266
0.374248
0.374228
0.374215
0.374205
0.374195
0.374188
0.374183
0.374182
0.374182
0.374187
0.3742
0.374228
0.374265
0.374302
0.374336
0.37436
0.374366
0.374364
0.374353
0.374335
0.374315
0.374302
0.374295
0.37427
0.374237
0.374222
0.37422
0.374225
0.374242
0.374275
0.374318
0.37437
0.374393
0.374395
0.374376
0.374326
0.374287
0.374362
0.375715
0.387226
0.447533
0.587744
0.752618
0.86245
0.910711
0.936677
0.964624
0.95978
0.94314
0.939681
0.945758
0.948751
0.944167
0.939982
0.940488
0.941883
0.940684
0.939026
0.938569
0.938202
0.937346
0.936959
0.937911
0.940486
0.94353
0.945935
0.9472
0.374359
0.374364
0.374369
0.374371
0.374372
0.374375
0.37438
0.374384
0.374385
0.374387
0.374389
0.37439
0.37439
0.37439
0.374389
0.374389
0.37439
0.374391
0.374389
0.374388
0.374386
0.374383
0.37438
0.374375
0.374368
0.374354
0.374338
0.37432
0.374297
0.374277
0.374257
0.374237
0.374221
0.374209
0.374198
0.374188
0.37418
0.374176
0.374174
0.374173
0.374175
0.374186
0.374212
0.374249
0.37429
0.374327
0.374358
0.374386
0.374389
0.374386
0.374375
0.374349
0.374305
0.374257
0.37424
0.374233
0.374211
0.374195
0.374198
0.374211
0.374243
0.374298
0.374351
0.374392
0.374411
0.374399
0.37437
0.374306
0.374246
0.374241
0.374249
0.374275
0.374423
0.376326
0.393582
0.464576
0.616127
0.805973
0.913651
0.953017
0.948792
0.934011
0.944267
0.952308
0.949231
0.939123
0.938792
0.943019
0.942405
0.940035
0.938827
0.939343
0.938508
0.936827
0.936821
0.938006
0.940451
0.943356
0.946297
0.94759
0.37439
0.374391
0.374391
0.374392
0.374392
0.374393
0.374393
0.374393
0.374393
0.374392
0.37439
0.37439
0.374388
0.374385
0.374379
0.374372
0.374368
0.374362
0.374356
0.37435
0.374344
0.374337
0.374327
0.374318
0.374308
0.374297
0.374284
0.374271
0.374257
0.374243
0.37423
0.374219
0.374208
0.3742
0.374193
0.374187
0.374183
0.374184
0.374191
0.374204
0.374225
0.374255
0.374288
0.374322
0.374347
0.374364
0.374382
0.374392
0.374392
0.374385
0.374358
0.374307
0.374249
0.37421
0.374199
0.374195
0.374186
0.374184
0.374198
0.374236
0.374292
0.374345
0.374395
0.374424
0.374417
0.374388
0.374319
0.37423
0.374211
0.37422
0.37425
0.374335
0.374507
0.374576
0.374809
0.377527
0.401652
0.496943
0.666176
0.828904
0.888586
0.922751
0.962039
0.958511
0.944256
0.935643
0.940755
0.945743
0.942644
0.938937
0.939659
0.939816
0.937994
0.936376
0.936742
0.938136
0.94022
0.943134
0.946832
0.94797
0.374385
0.374382
0.374378
0.374372
0.374367
0.37436
0.374353
0.374348
0.374339
0.374328
0.374324
0.374317
0.374306
0.374299
0.374293
0.374285
0.374281
0.374277
0.374271
0.37427
0.374271
0.37427
0.374269
0.374268
0.374268
0.374266
0.37426
0.374253
0.374243
0.374235
0.374227
0.37422
0.37422
0.374225
0.374228
0.374233
0.374244
0.374263
0.374278
0.374298
0.374316
0.374333
0.374351
0.374359
0.374364
0.374371
0.374373
0.374367
0.374351
0.374326
0.374291
0.374248
0.374207
0.374185
0.374181
0.374184
0.37419
0.374206
0.374244
0.374298
0.374335
0.374359
0.374403
0.374418
0.374402
0.374346
0.374262
0.3742
0.374198
0.37422
0.374307
0.374458
0.37461
0.37466
0.374651
0.374567
0.374829
0.379629
0.420312
0.538453
0.730022
0.88169
0.943707
0.95048
0.93178
0.93791
0.949525
0.946378
0.938668
0.938162
0.941367
0.940355
0.936828
0.936313
0.937303
0.938218
0.939857
0.942956
0.947462
0.948343
0.374285
0.37428
0.374271
0.374257
0.374249
0.374242
0.374234
0.374229
0.37422
0.374214
0.374213
0.374211
0.374209
0.374209
0.37421
0.374213
0.374216
0.374221
0.374225
0.37423
0.374237
0.374242
0.374248
0.374252
0.374257
0.374258
0.374255
0.374252
0.374254
0.374263
0.374273
0.374288
0.374314
0.374332
0.374342
0.374357
0.374365
0.374368
0.374373
0.374373
0.37437
0.374369
0.374366
0.374357
0.374345
0.374324
0.374286
0.374263
0.374258
0.374253
0.374243
0.374222
0.374193
0.374183
0.374197
0.374235
0.374275
0.374301
0.37433
0.374351
0.374348
0.374351
0.374376
0.374375
0.374342
0.374291
0.374231
0.374201
0.374223
0.3743
0.374452
0.374595
0.374666
0.374665
0.374604
0.374418
0.374121
0.374025
0.374863
0.385041
0.449481
0.604492
0.777119
0.881609
0.913081
0.953493
0.958299
0.947063
0.935677
0.940373
0.943041
0.938862
0.935651
0.9367
0.93794
0.937742
0.939281
0.943156
0.948037
0.948829
0.374185
0.374183
0.37418
0.374174
0.374168
0.374166
0.374165
0.374166
0.374167
0.374168
0.374171
0.374174
0.374178
0.374184
0.37419
0.374198
0.374204
0.37421
0.374218
0.374226
0.374236
0.374244
0.374251
0.374261
0.374274
0.374289
0.374309
0.374328
0.37435
0.374375
0.374396
0.374415
0.374436
0.374446
0.374446
0.374442
0.374432
0.374416
0.374405
0.374394
0.374379
0.374359
0.374328
0.374283
0.374251
0.374216
0.374187
0.374188
0.374207
0.374229
0.374231
0.374219
0.374218
0.374238
0.374285
0.374349
0.374402
0.374412
0.374401
0.374371
0.374339
0.374303
0.374286
0.374275
0.374273
0.374261
0.374241
0.374274
0.37436
0.374492
0.37461
0.374663
0.37467
0.374619
0.374424
0.374173
0.373943
0.373894
0.373929
0.37413
0.376437
0.399397
0.490811
0.676438
0.851233
0.942651
0.946018
0.927283
0.937696
0.947565
0.943331
0.935015
0.935275
0.939012
0.938263
0.936881
0.938751
0.94374
0.948392
0.948998
0.374152
0.374152
0.374152
0.374153
0.374153
0.374154
0.374157
0.374162
0.374168
0.374175
0.374182
0.37419
0.374199
0.374211
0.374224
0.374238
0.374252
0.374266
0.374282
0.374296
0.374313
0.374331
0.374348
0.374366
0.37438
0.374397
0.374417
0.374435
0.374451
0.374462
0.374476
0.374482
0.374481
0.374479
0.374474
0.374461
0.374438
0.374408
0.374375
0.374339
0.374301
0.374266
0.374226
0.374183
0.37416
0.374156
0.374157
0.374165
0.374195
0.374223
0.374246
0.374277
0.374317
0.374343
0.374366
0.374418
0.374459
0.374463
0.374436
0.374365
0.374277
0.374213
0.374196
0.374201
0.374228
0.374268
0.374345
0.374456
0.374573
0.374672
0.374686
0.374668
0.374606
0.374424
0.374145
0.373948
0.373871
0.373892
0.37405
0.374385
0.374493
0.374891
0.380018
0.421934
0.564067
0.755234
0.863202
0.905187
0.95536
0.953737
0.942258
0.932443
0.938186
0.940529
0.937032
0.935952
0.939347
0.944732
0.948615
0.949092
0.374216
0.374223
0.374232
0.374241
0.374251
0.374264
0.374275
0.374286
0.374298
0.374311
0.374324
0.374335
0.374347
0.374361
0.374374
0.374388
0.374402
0.374416
0.374427
0.374434
0.37444
0.374444
0.374445
0.374444
0.374445
0.374447
0.374454
0.374464
0.374469
0.374472
0.374473
0.374471
0.374462
0.374441
0.374414
0.374371
0.374317
0.374274
0.374239
0.374214
0.374195
0.374176
0.374149
0.374134
0.374133
0.374148
0.374163
0.374181
0.374226
0.374289
0.374345
0.374403
0.374415
0.37439
0.374381
0.374412
0.374453
0.374466
0.374419
0.374307
0.374216
0.374167
0.374165
0.374185
0.374242
0.374375
0.374557
0.374658
0.374728
0.374725
0.374698
0.37459
0.374388
0.374102
0.373911
0.373839
0.373859
0.374016
0.37431
0.374577
0.374613
0.374569
0.374421
0.375278
0.39041
0.467914
0.649616
0.836828
0.937901
0.941812
0.924593
0.934972
0.944761
0.94055
0.933559
0.935076
0.940912
0.945297
0.948562
0.949059
0.37443
0.374436
0.374443
0.374449
0.374454
0.374457
0.374461
0.374464
0.374468
0.374473
0.374479
0.374479
0.374479
0.374479
0.374482
0.374485
0.374488
0.374488
0.374485
0.374484
0.37448
0.374471
0.37446
0.374447
0.374428
0.374417
0.374411
0.374401
0.374387
0.374361
0.374334
0.374314
0.37428
0.374255
0.374242
0.374218
0.374201
0.374189
0.374166
0.374157
0.374158
0.374143
0.374142
0.374156
0.374195
0.374258
0.374309
0.374349
0.374389
0.374425
0.374451
0.374456
0.374438
0.374374
0.374348
0.374337
0.374342
0.374353
0.374309
0.374229
0.374188
0.374153
0.374171
0.374263
0.37441
0.374628
0.374732
0.374767
0.374757
0.37472
0.374571
0.374338
0.374057
0.37387
0.373804
0.37382
0.373971
0.374291
0.374579
0.374674
0.374648
0.374418
0.374066
0.373937
0.374143
0.377818
0.413877
0.547749
0.739888
0.857372
0.904547
0.952703
0.950245
0.938777
0.931459
0.937348
0.942177
0.944657
0.948574
0.949026
0.374589
0.374582
0.374575
0.374565
0.374556
0.374549
0.374545
0.374537
0.37453
0.37453
0.374525
0.374519
0.374511
0.374497
0.374491
0.374485
0.374471
0.374454
0.374432
0.374404
0.374373
0.374343
0.374315
0.374294
0.374275
0.374257
0.374243
0.374231
0.37422
0.374203
0.374174
0.374156
0.374148
0.374153
0.374153
0.374168
0.374181
0.374179
0.374172
0.374174
0.374195
0.374246
0.374293
0.374331
0.374397
0.374468
0.374522
0.374543
0.374544
0.374521
0.374483
0.374447
0.374372
0.37427
0.374213
0.374178
0.374173
0.37421
0.374221
0.374201
0.374189
0.37423
0.374366
0.374533
0.374695
0.37482
0.374815
0.374786
0.374702
0.374518
0.374251
0.37401
0.373838
0.373789
0.373799
0.373954
0.374288
0.374598
0.37471
0.374691
0.374486
0.374128
0.373882
0.373858
0.373949
0.374182
0.375127
0.388148
0.460288
0.643293
0.837498
0.93414
0.940165
0.921888
0.93385
0.942682
0.941879
0.943344
0.948481
0.948544
0.374563
0.374544
0.374524
0.374498
0.374472
0.374453
0.374428
0.374399
0.374391
0.374378
0.374333
0.374302
0.374303
0.374296
0.374272
0.374256
0.374239
0.374224
0.374207
0.374179
0.374159
0.374147
0.374137
0.374135
0.374143
0.374151
0.374147
0.374151
0.37416
0.374154
0.374128
0.374114
0.374115
0.374135
0.374149
0.374161
0.374202
0.374272
0.374326
0.374378
0.374462
0.37451
0.374494
0.374495
0.374546
0.374585
0.374586
0.374605
0.374608
0.374552
0.374433
0.374313
0.374214
0.374157
0.374122
0.374115
0.374125
0.374152
0.374195
0.374264
0.374352
0.374519
0.374692
0.374817
0.374874
0.374868
0.37482
0.374659
0.374403
0.374106
0.373914
0.37381
0.373777
0.373798
0.373975
0.374331
0.374634
0.374752
0.374735
0.374539
0.374133
0.373885
0.373834
0.373896
0.374223
0.37451
0.374501
0.374574
0.377487
0.412613
0.548436
0.741859
0.864352
0.904438
0.950823
0.94894
0.938637
0.942837
0.948817
0.947431
0.374273
0.374254
0.374222
0.374191
0.374172
0.374154
0.374131
0.374128
0.374126
0.374107
0.374092
0.374093
0.374103
0.374104
0.374102
0.374106
0.374105
0.374099
0.374104
0.374105
0.374101
0.374104
0.374108
0.37411
0.374132
0.37415
0.374161
0.374191
0.374218
0.374242
0.374265
0.374284
0.374308
0.374353
0.374375
0.37439
0.37445
0.374533
0.374574
0.374597
0.37463
0.374618
0.374566
0.374563
0.374562
0.374529
0.374505
0.374513
0.37446
0.374337
0.374199
0.374127
0.374122
0.374125
0.374128
0.374139
0.374163
0.374235
0.374399
0.374559
0.374704
0.374803
0.374894
0.374927
0.374908
0.374805
0.374571
0.374261
0.373946
0.373792
0.373768
0.373783
0.373839
0.374071
0.374466
0.374741
0.374804
0.374772
0.374572
0.374154
0.373869
0.373804
0.373856
0.374178
0.374546
0.374604
0.374523
0.374181
0.374039
0.374825
0.388299
0.466655
0.659451
0.844657
0.939433
0.935884
0.932861
0.946336
0.949125
0.945544
0.374025
0.374014
0.373996
0.373982
0.373981
0.373978
0.373973
0.373974
0.373976
0.373975
0.373978
0.373993
0.374012
0.374029
0.374046
0.374069
0.374083
0.374094
0.374116
0.374142
0.374167
0.374209
0.374237
0.374273
0.374352
0.374408
0.374445
0.374506
0.374602
0.374639
0.374623
0.37461
0.374607
0.374608
0.374593
0.374554
0.374569
0.374618
0.374615
0.374586
0.374571
0.374588
0.37455
0.37442
0.374265
0.374195
0.374222
0.374267
0.374208
0.374084
0.374012
0.374004
0.374065
0.37415
0.374228
0.374309
0.374421
0.374576
0.374768
0.374806
0.374839
0.374892
0.374887
0.374816
0.374624
0.374388
0.374111
0.373859
0.373709
0.373716
0.373745
0.373878
0.374223
0.374634
0.374881
0.374894
0.374831
0.374559
0.374106
0.37382
0.373772
0.373822
0.374146
0.374594
0.3747
0.37462
0.37427
0.37396
0.373967
0.374112
0.37443
0.378213
0.418208
0.566698
0.777634
0.861599
0.922343
0.95626
0.947143
0.943868
0.374078
0.374077
0.374081
0.374095
0.37411
0.374125
0.374148
0.374182
0.374216
0.374255
0.374312
0.374385
0.374438
0.374474
0.374511
0.374554
0.374608
0.37467
0.374733
0.374785
0.37482
0.374861
0.374893
0.374927
0.374978
0.375006
0.374989
0.374969
0.374998
0.374986
0.3749
0.374788
0.374732
0.374675
0.374573
0.374497
0.374505
0.374518
0.37445
0.37432
0.37425
0.37425
0.374267
0.374173
0.37405
0.374038
0.374111
0.374149
0.374091
0.374067
0.374049
0.374062
0.37423
0.374516
0.374743
0.374895
0.375024
0.375024
0.374928
0.374882
0.374806
0.374674
0.374501
0.374242
0.374056
0.373925
0.373776
0.373693
0.373692
0.373741
0.373946
0.3744
0.374841
0.375027
0.375008
0.374867
0.374473
0.374009
0.373698
0.373699
0.373771
0.374152
0.374649
0.374818
0.374725
0.374342
0.373957
0.373893
0.374029
0.374432
0.374598
0.374536
0.375343
0.393118
0.487687
0.69594
0.87476