/*--------------------------------*- C++ -*----------------------------------*\
  =========                 |
  \\      /  F ield         | OpenFOAM: The Open Source CFD Toolbox
   \\    /   O peration     | Website:  https://openfoam.org
    \\  /    A nd           | Version:  7
     \\/     M anipulation  |
\*---------------------------------------------------------------------------*/
FoamFile
{
    version     2.0;
    format      ascii;
    class       volScalarField;
    location    "6.1";
    object      rho;
}
// * * * * * * * * * * * * * * * * * * * * * * * * * * * * * * * * * * * * * //

dimensions      [1 -3 0 0 0 0 0];

internalField   nonuniform List<scalar> 
11200
(
0.236429
0.346807
0.459961
0.555392
0.637072
0.690221
0.736667
0.75883
0.779771
0.797643
0.814709
0.835497
0.863363
0.881445
0.894801
0.891369
0.900502
0.913673
0.931835
0.938313
0.943157
0.954012
0.969643
0.980661
0.987544
0.996587
1.01107
1.02968
1.04
1.04677
0.139176
0.143902
0.167284
0.21708
0.296347
0.402906
0.511562
0.609964
0.694022
0.765142
0.802468
0.829528
0.825734
0.807029
0.787091
0.790355
0.810845
0.843097
0.862185
0.855123
0.851549
0.863992
0.887281
0.903542
0.914873
0.927463
0.94146
0.95636
0.966963
0.975539
0.153023
0.155187
0.158294
0.158644
0.158955
0.165328
0.187873
0.242736
0.329821
0.46301
0.587866
0.692453
0.753177
0.76698
0.762986
0.764656
0.770273
0.777826
0.77821
0.781956
0.791915
0.808404
0.82608
0.83627
0.843977
0.854315
0.869101
0.883468
0.894431
0.904141
0.16209
0.163499
0.163922
0.164366
0.165737
0.168573
0.170777
0.173662
0.175681
0.18217
0.223452
0.308641
0.455964
0.605261
0.705723
0.765267
0.76297
0.758808
0.74839
0.755503
0.765984
0.782264
0.791809
0.796128
0.802407
0.813997
0.830242
0.838545
0.845548
0.855847
0.167855
0.167967
0.168383
0.1697
0.172171
0.175141
0.177597
0.179977
0.180673
0.180549
0.17932
0.178513
0.18271
0.229369
0.343847
0.527914
0.640052
0.717947
0.735524
0.762059
0.769282
0.77607
0.775158
0.779875
0.790566
0.802276
0.814821
0.820765
0.826366
0.835688
0.17267
0.172908
0.174061
0.176724
0.179151
0.180786
0.181658
0.181824
0.181705
0.180763
0.177871
0.176859
0.177942
0.180608
0.181494
0.197068
0.286721
0.450832
0.616014
0.733355
0.761491
0.786253
0.781166
0.792703
0.798605
0.81092
0.82207
0.82257
0.826804
0.836293
0.176469
0.177374
0.179156
0.181236
0.182318
0.182324
0.182334
0.182356
0.182065
0.179972
0.176751
0.176176
0.177254
0.179886
0.181374
0.182095
0.18355
0.186758
0.254111
0.408391
0.604003
0.741719
0.78426
0.825518
0.819904
0.831668
0.831034
0.826324
0.835286
0.849596
0.18082
0.182075
0.183431
0.183677
0.183362
0.183095
0.183068
0.182957
0.182972
0.182289
0.179453
0.176947
0.177401
0.180088
0.183372
0.183558
0.184174
0.190238
0.201855
0.207694
0.257137
0.402755
0.631725
0.784227
0.839175
0.882299
0.888176
0.88152
0.888336
0.891245
0.184567
0.185938
0.185976
0.185554
0.185033
0.185209
0.18612
0.186895
0.187974
0.190676
0.191512
0.188466
0.187577
0.192598
0.205225
0.209457
0.209988
0.211065
0.2172
0.227126
0.230239
0.232571
0.276561
0.428292
0.678146
0.836691
0.911031
0.942506
0.965528
0.955832
0.187275
0.187296
0.187054
0.186204
0.185929
0.186341
0.187379
0.189397
0.193343
0.199646
0.205287
0.207657
0.211189
0.218171
0.229035
0.23698
0.242259
0.245946
0.246026
0.248356
0.25325
0.259308
0.262954
0.268166
0.314148
0.468554
0.725277
0.906066
0.980032
1.03097
0.198044
0.200253
0.200742
0.199948
0.199708
0.200168
0.200973
0.20243
0.206444
0.212475
0.220415
0.226735
0.231433
0.235474
0.242019
0.250092
0.256887
0.264113
0.272319
0.277029
0.28209
0.288765
0.290607
0.29519
0.304735
0.311456
0.346791
0.519031
0.781604
1.00876
0.228809
0.230181
0.231963
0.23381
0.236848
0.240631
0.240319
0.240425
0.243415
0.248916
0.25613
0.261057
0.260227
0.259694
0.261244
0.265633
0.271264
0.279596
0.290968
0.300069
0.306371
0.313202
0.32099
0.325845
0.328488
0.338287
0.350226
0.349879
0.382452
0.694326
0.255298
0.257135
0.260469
0.265481
0.27096
0.275922
0.278032
0.278399
0.280305
0.283986
0.290839
0.29808
0.300711
0.303544
0.3084
0.312747
0.314465
0.31417
0.314724
0.321299
0.33094
0.34053
0.350194
0.355032
0.356687
0.360354
0.366296
0.374969
0.37952
0.407692
0.303371
0.304881
0.307247
0.310114
0.313789
0.317324
0.317594
0.315738
0.315832
0.319508
0.325967
0.333588
0.339017
0.341736
0.344848
0.351369
0.359033
0.362427
0.363061
0.363312
0.36534
0.370681
0.377598
0.385012
0.388587
0.388809
0.39365
0.404754
0.408133
0.415914
0.355424
0.355577
0.356391
0.358555
0.362201
0.367639
0.370043
0.369215
0.368979
0.37067
0.376623
0.379938
0.379976
0.38037
0.382114
0.385254
0.390706
0.396617
0.40343
0.410138
0.411093
0.410979
0.413683
0.420419
0.428142
0.43539
0.438035
0.439625
0.442998
0.446367
0.415641
0.41525
0.415139
0.415657
0.418122
0.423901
0.425754
0.423927
0.42237
0.423754
0.428946
0.435843
0.440253
0.44085
0.440817
0.440598
0.441927
0.444278
0.447005
0.452469
0.457907
0.460628
0.462992
0.466578
0.470784
0.474828
0.475801
0.476009
0.478238
0.484656
0.488552
0.487707
0.487555
0.487369
0.488513
0.492985
0.498245
0.498705
0.496589
0.495949
0.496639
0.498286
0.500122
0.501675
0.504563
0.508105
0.509286
0.508569
0.506114
0.504698
0.505538
0.507884
0.50896
0.50836
0.50715
0.507479
0.510085
0.514687
0.518154
0.522157
0.578009
0.572603
0.572095
0.571537
0.572443
0.575584
0.578549
0.579273
0.578036
0.573886
0.572023
0.572192
0.572786
0.572699
0.571473
0.568149
0.565194
0.564918
0.566131
0.567983
0.567726
0.565886
0.565551
0.566945
0.568245
0.567792
0.566888
0.565401
0.563846
0.563841
0.686085
0.673878
0.671553
0.670869
0.673659
0.677396
0.676935
0.674691
0.670488
0.665968
0.666075
0.665651
0.661118
0.655706
0.655362
0.655133
0.653333
0.650117
0.645908
0.642971
0.641491
0.63961
0.635831
0.632612
0.629868
0.626383
0.622455
0.617702
0.613022
0.609615
0.810751
0.79596
0.789802
0.789909
0.796446
0.798883
0.79468
0.786508
0.777403
0.774227
0.775428
0.773817
0.764575
0.755049
0.7515
0.74889
0.744174
0.737997
0.731631
0.725596
0.719363
0.713339
0.707796
0.700076
0.693421
0.68817
0.684114
0.681951
0.678547
0.668809
0.953915
0.936927
0.930775
0.932027
0.941234
0.942388
0.933584
0.918878
0.90433
0.902037
0.903469
0.899296
0.883071
0.870897
0.866295
0.861293
0.853418
0.843384
0.83362
0.824798
0.816674
0.806825
0.79916
0.790862
0.782106
0.773601
0.763063
0.752518
0.744701
0.730554
1.11755
1.10092
1.09625
1.09999
1.11071
1.1089
1.09417
1.07172
1.05249
1.05122
1.05231
1.04351
1.01861
1.005
1.00029
0.992248
0.978663
0.964215
0.951047
0.93747
0.925507
0.912654
0.89782
0.884534
0.870697
0.856579
0.843645
0.829
0.816069
0.796859
1.30452
1.28703
1.28396
1.29105
1.30139
1.29743
1.27768
1.24738
1.22187
1.22006
1.2201
1.20669
1.17372
1.15968
1.15409
1.1418
1.12122
1.10148
1.08451
1.06819
1.05012
1.03209
1.01309
0.995077
0.976882
0.957479
0.939918
0.921969
0.905495
0.877725
1.52814
1.49895
1.49265
1.49831
1.50708
1.50325
1.48095
1.4493
1.41563
1.40719
1.40502
1.38876
1.35026
1.33301
1.32483
1.30745
1.27991
1.25539
1.2336
1.21235
1.18933
1.16456
1.14096
1.11654
1.0928
1.06892
1.04409
1.01949
0.998344
0.963371
1.79885
1.76942
1.74625
1.73929
1.73418
1.7252
1.70728
1.68221
1.64268
1.6249
1.61698
1.59747
1.55499
1.52787
1.51254
1.48963
1.45784
1.42699
1.39866
1.36982
1.34137
1.31137
1.28106
1.25129
1.2213
1.19128
1.16179
1.13178
1.10552
1.06206
2.0216
2.0079
1.99599
1.98809
1.97729
1.96337
1.94811
1.92914
1.90264
1.87873
1.85947
1.83367
1.79784
1.76565
1.73639
1.70299
1.66569
1.62774
1.58961
1.55161
1.51414
1.47679
1.43872
1.40103
1.36411
1.32725
1.29178
1.25537
1.22359
1.17119
2.07046
2.07009
2.06984
2.06962
2.06702
2.06215
2.0585
2.05575
2.05157
2.04434
2.03658
2.02581
2.00809
1.98631
1.96297
1.93564
1.90267
1.8647
1.82197
1.77571
1.72809
1.67893
1.62911
1.57937
1.53086
1.48377
1.43859
1.39368
1.35515
1.29205
2.01205
2.01894
2.02721
2.03642
2.04279
2.04538
2.04302
2.0413
2.04496
2.04431
2.04279
2.04421
2.04535
2.0436
2.03985
2.03545
2.02861
2.01837
2.00279
1.97993
1.94833
1.90811
1.85878
1.80297
1.74327
1.6815
1.62092
1.56069
1.50961
1.42913
1.77157
1.78556
1.7997
1.81502
1.83327
1.86343
1.88541
1.88982
1.90081
1.92189
1.95202
1.9656
1.97303
1.99005
2.00396
2.00988
2.01592
2.01704
2.01695
2.01612
2.01329
2.00768
1.99682
1.9787
1.94774
1.90296
1.84542
1.77712
1.71155
1.60288
1.48126
1.48786
1.49487
1.50678
1.52015
1.53458
1.55215
1.57141
1.58984
1.61077
1.6426
1.67541
1.70269
1.73698
1.77738
1.81334
1.85212
1.8857
1.9161
1.95025
1.96774
1.97968
1.99157
1.9919
1.99001
1.98474
1.97331
1.95042
1.91382
1.81593
1.4038
1.40442
1.40507
1.40601
1.40736
1.40905
1.41131
1.4143
1.41799
1.42229
1.42857
1.43783
1.4489
1.46259
1.482
1.50627
1.53634
1.57375
1.61731
1.66788
1.72445
1.77849
1.83312
1.88271
1.91915
1.94492
1.96236
1.96201
1.95975
1.93949
1.40005
1.40006
1.40007
1.40008
1.4001
1.40013
1.40018
1.40025
1.40034
1.40047
1.40067
1.40101
1.40154
1.40233
1.40366
1.4058
1.4093
1.41482
1.42374
1.4375
1.45869
1.48918
1.53089
1.5855
1.65132
1.72117
1.79307
1.8548
1.89925
1.92636
1.40001
1.40001
1.40001
1.40001
1.40001
1.40001
1.40001
1.40001
1.40001
1.40001
1.40001
1.40001
1.40002
1.40003
1.40004
1.40007
1.40014
1.40026
1.40051
1.40103
1.40214
1.40444
1.40903
1.41805
1.43468
1.46319
1.50765
1.57198
1.64542
1.7659
1.40001
1.40001
1.40001
1.40001
1.40001
1.40001
1.40001
1.40001
1.40001
1.40001
1.40001
1.40001
1.40001
1.40001
1.40001
1.40001
1.40001
1.40001
1.40001
1.40001
1.40002
1.40006
1.40014
1.40036
1.40097
1.40264
1.40673
1.41694
1.43539
1.50755
1.40001
1.40001
1.40001
1.40001
1.40001
1.40001
1.40001
1.40001
1.40001
1.40001
1.40001
1.40001
1.40001
1.40001
1.40001
1.40001
1.40001
1.40001
1.40001
1.40001
1.40001
1.40001
1.40001
1.40001
1.40001
1.40003
1.4001
1.40038
1.40113
1.4098
0.134878
0.137964
0.150241
0.160018
0.167585
0.172631
0.175902
0.179161
0.182415
0.186693
0.196582
0.227609
0.254434
0.302326
0.355412
0.41929
0.497123
0.589856
0.699831
0.8287
0.979809
1.15309
1.34866
1.57562
1.82968
2.03469
2.07106
2.00442
1.7504
1.47003
1.40304
1.40004
1.40001
1.40001
1.40001
0.134883
0.142094
0.151851
0.160697
0.16942
0.174821
0.176633
0.178508
0.181167
0.186331
0.201513
0.233273
0.266054
0.315664
0.371752
0.436861
0.515561
0.609367
0.722244
0.856831
1.01577
1.19961
1.40639
1.63153
1.87816
2.05709
2.07205
1.99322
1.70585
1.44862
1.40161
1.40002
1.40001
1.40001
1.40001
0.137182
0.144359
0.151572
0.160204
0.169833
0.176442
0.176847
0.17684
0.179361
0.185808
0.205334
0.236512
0.273789
0.321513
0.377963
0.442993
0.5233
0.61949
0.734788
0.872852
1.03597
1.22383
1.43308
1.66126
1.91146
2.07141
2.07389
1.98019
1.6573
1.43365
1.40094
1.40001
1.40001
1.40001
1.40001
0.140439
0.145971
0.150985
0.159722
0.171061
0.178534
0.178337
0.176305
0.177823
0.186074
0.210621
0.239337
0.277986
0.32527
0.38329
0.449476
0.530933
0.629917
0.746784
0.886686
1.05217
1.24315
1.45601
1.69386
1.9512
2.08164
2.07553
1.9312
1.6086
1.42281
1.40053
1.40001
1.40001
1.40001
1.40001
0.143331
0.146524
0.150126
0.159921
0.174669
0.179887
0.179569
0.176328
0.1764
0.187115
0.21262
0.239293
0.280279
0.32948
0.390641
0.460485
0.547994
0.653273
0.778153
0.922535
1.08777
1.27649
1.49496
1.75484
1.99886
2.08819
2.06711
1.89096
1.57124
1.41541
1.4003
1.40001
1.40001
1.40001
1.40001
0.145293
0.146782
0.150101
0.161622
0.177136
0.179887
0.179806
0.174481
0.174851
0.187315
0.212702
0.238538
0.284499
0.342067
0.409746
0.488208
0.580802
0.691474
0.82283
0.976914
1.15557
1.35691
1.58101
1.82721
2.03369
2.09157
2.05298
1.85893
1.53706
1.40978
1.40016
1.40001
1.40001
1.40001
1.40001
0.146575
0.146542
0.150145
0.162209
0.177772
0.179221
0.178595
0.170567
0.172391
0.187413
0.21212
0.249493
0.303448
0.362468
0.428833
0.504578
0.596656
0.709456
0.844845
1.00495
1.19142
1.40217
1.62905
1.86722
2.05634
2.09347
2.04463
1.81924
1.50261
1.4059
1.40009
1.40001
1.40001
1.40001
1.40001
0.146656
0.144325
0.149984
0.162183
0.177827
0.178535
0.175799
0.168659
0.170747
0.189625
0.217738
0.267346
0.315087
0.370642
0.436025
0.512605
0.607421
0.723573
0.861785
1.02631
1.21743
1.43116
1.6604
1.90312
2.07831
2.09474
2.03994
1.76293
1.47475
1.40349
1.40005
1.40001
1.40001
1.40001
1.40001
0.142743
0.14021
0.149374
0.161926
0.177298
0.177132
0.173509
0.168764
0.172925
0.199308
0.229519
0.274615
0.317756
0.374077
0.441559
0.520519
0.617891
0.737851
0.879059
1.04564
1.23981
1.45894
1.70121
1.95503
2.0953
2.09642
2.00901
1.71062
1.45272
1.40195
1.40003
1.40001
1.40001
1.40001
1.40001
0.13611
0.135365
0.147834
0.159538
0.174676
0.175189
0.172176
0.172014
0.181906
0.206182
0.232893
0.275404
0.31792
0.375971
0.449186
0.538703
0.650133
0.780422
0.933422
1.10661
1.3025
1.5264
1.78011
2.00863
2.10321
2.09544
1.96487
1.65753
1.43521
1.40106
1.40002
1.40001
1.40001
1.40001
1.40001
0.131611
0.132061
0.14469
0.156619
0.172664
0.174097
0.17167
0.174203
0.187688
0.207355
0.23347
0.273589
0.323255
0.391904
0.479082
0.578493
0.693584
0.829307
0.987963
1.17197
1.38091
1.60939
1.84626
2.04193
2.10698
2.08328
1.93304
1.60883
1.42344
1.40058
1.40001
1.40001
1.40001
1.40001
1.40001
0.129798
0.130614
0.142576
0.156068
0.172246
0.173232
0.171453
0.174438
0.188664
0.204283
0.23801
0.283056
0.350077
0.421088
0.504243
0.59848
0.713637
0.852874
1.01692
1.20685
1.42059
1.65004
1.88463
2.06727
2.10968
2.07307
1.89727
1.56696
1.41506
1.4003
1.40001
1.40001
1.40001
1.40001
1.40001
0.129411
0.13038
0.142297
0.156376
0.17233
0.17218
0.171002
0.174273
0.188979
0.201904
0.249795
0.304342
0.365393
0.431723
0.514059
0.609632
0.727541
0.871537
1.04016
1.23613
1.45452
1.68799
1.92845
2.09273
2.11165
2.07086
1.84627
1.52546
1.40861
1.40015
1.40001
1.40001
1.40001
1.40001
1.40001
0.129913
0.130651
0.142651
0.157693
0.172913
0.171127
0.168338
0.171625
0.190981
0.210075
0.264761
0.311664
0.368242
0.436853
0.521442
0.621822
0.744397
0.89539
1.07183
1.27336
1.5004
1.74898
1.98999
2.11092
2.11391
2.06175
1.7898
1.48787
1.40477
1.40007
1.40001
1.40001
1.40001
1.40001
1.40001
0.132817
0.133079
0.145261
0.161648
0.173293
0.170074
0.164155
0.168836
0.194518
0.223793
0.271969
0.314489
0.368101
0.443891
0.538669
0.658994
0.801709
0.965475
1.15462
1.36553
1.59826
1.8396
2.03933
2.1185
2.11454
2.01461
1.72829
1.46059
1.40264
1.40004
1.40001
1.40001
1.40001
1.40001
1.40001
0.13611
0.136919
0.151551
0.166201
0.172517
0.168857
0.163277
0.168578
0.197743
0.228363
0.272496
0.32098
0.388673
0.47742
0.586886
0.710462
0.852844
1.01982
1.21329
1.43143
1.66516
1.89352
2.0679
2.12183
2.10439
1.97476
1.66731
1.44051
1.40138
1.40002
1.40001
1.40001
1.40001
1.40001
1.40001
0.137969
0.140072
0.157848
0.16886
0.170396
0.166255
0.163867
0.171908
0.19908
0.229913
0.273278
0.342701
0.426717
0.511442
0.613814
0.733353
0.878536
1.05141
1.25063
1.47333
1.7078
1.93482
2.09226
2.12389
2.09307
1.94196
1.61974
1.42647
1.40071
1.40001
1.40001
1.40001
1.40001
1.40001
1.40001
0.138314
0.142602
0.159962
0.1694
0.167364
0.163026
0.166869
0.180877
0.199491
0.238167
0.292517
0.368766
0.440792
0.523221
0.627575
0.749791
0.90046
1.08076
1.28732
1.51903
1.76105
1.98954
2.11499
2.12548
2.09149
1.90615
1.56988
1.41538
1.40034
1.40001
1.40001
1.40001
1.40001
1.40001
1.40001
0.137523
0.144015
0.159372
0.169407
0.166624
0.161574
0.168747
0.186035
0.202153
0.256169
0.318126
0.378197
0.442202
0.528381
0.641155
0.776315
0.943009
1.13858
1.35909
1.60303
1.8489
2.04834
2.12778
2.12741
2.08605
1.83868
1.51627
1.40798
1.40014
1.40001
1.40001
1.40001
1.40001
1.40001
1.40001
0.136821
0.14436
0.156748
0.169344
0.166544
0.161539
0.169524
0.189703
0.215374
0.271983
0.325217
0.380022
0.444092
0.548839
0.686178
0.85141
1.03207
1.2364
1.46295
1.70047
1.9235
2.08274
2.13186
2.12644
2.03741
1.76181
1.47908
1.40435
1.40007
1.40001
1.40001
1.40001
1.40001
1.40001
1.40001
0.136255
0.143247
0.151124
0.16826
0.166208
0.164019
0.171983
0.194789
0.228733
0.276616
0.32487
0.38291
0.490396
0.613328
0.753607
0.910076
1.08779
1.294
1.52171
1.75487
1.9676
2.104
2.13314
2.11474
1.99241
1.70035
1.45414
1.40231
1.40003
1.40001
1.40001
1.40001
1.40001
1.40001
1.40001
0.134986
0.139732
0.146845
0.1673
0.165974
0.167424
0.176998
0.198932
0.234944
0.275596
0.324027
0.421557
0.539997
0.65249
0.784576
0.939728
1.12583
1.34155
1.57484
1.80902
2.01515
2.12311
2.13421
2.10249
1.96118
1.64684
1.43422
1.40109
1.40002
1.40001
1.40001
1.40001
1.40001
1.40001
1.40001
0.131438
0.135862
0.146543
0.170084
0.167231
0.168206
0.1806
0.199848
0.236241
0.275395
0.352486
0.465663
0.560088
0.66748
0.806677
0.969393
1.17074
1.4031
1.65134
1.89049
2.07007
2.13609
2.13618
2.10148
1.92875
1.58724
1.41898
1.40048
1.40001
1.40001
1.40001
1.40001
1.40001
1.40001
1.40001
0.126479
0.133659
0.148716
0.173479
0.16791
0.167773
0.18093
0.197639
0.237047
0.298853
0.398664
0.484958
0.56515
0.679349
0.84273
1.04534
1.27094
1.51548
1.76336
1.9747
2.10614
2.14076
2.1385
2.09619
1.84943
1.52452
1.4094
1.40019
1.40001
1.40001
1.40001
1.40001
1.40001
1.40001
1.40001
0.123647
0.133759
0.156197
0.174103
0.167747
0.165128
0.175906
0.197008
0.250068
0.337659
0.420323
0.491347
0.584519
0.74668
0.940035
1.14728
1.36888
1.60616
1.83849
2.02299
2.1239
2.14179
2.13427
2.0406
1.76124
1.48239
1.40489
1.40008
1.40001
1.40001
1.40001
1.40001
1.40001
1.40001
1.40001
0.123367
0.136466
0.162563
0.167407
0.161797
0.160577
0.168856
0.208594
0.282446
0.361806
0.426428
0.502927
0.666184
0.8316
1.01129
1.2084
1.43086
1.66896
1.89575
2.06293
2.13585
2.14095
2.11736
1.98831
1.69993
1.45553
1.40249
1.40004
1.40001
1.40001
1.40001
1.40001
1.40001
1.40001
1.40001
0.124295
0.140697
0.163413
0.154182
0.149071
0.158221
0.16917
0.236201
0.306835
0.367856
0.429
0.571559
0.729195
0.878513
1.05588
1.25956
1.49899
1.74806
1.96826
2.10471
2.14338
2.13959
2.10006
1.95222
1.64074
1.43223
1.40104
1.40002
1.40001
1.40001
1.40001
1.40001
1.40001
1.40001
1.40001
0.127578
0.140793
0.15576
0.14651
0.143291
0.15836
0.186709
0.261571
0.314866
0.367406
0.468766
0.63208
0.762811
0.912612
1.11179
1.34963
1.61039
1.85855
2.04272
2.13231
2.14642
2.14242
2.0965
1.91061
1.56836
1.41624
1.40041
1.40001
1.40001
1.40001
1.40001
1.40001
1.40001
1.40001
1.40001
0.13479
0.140404
0.147373
0.141951
0.142823
0.166585
0.208047
0.269754
0.314891
0.37878
0.537987
0.669327
0.790717
0.984622
1.22642
1.48201
1.73015
1.9434
2.08536
2.14343
2.14754
2.14304
2.0874
1.81504
1.50601
1.40763
1.40015
1.40001
1.40001
1.40001
1.40001
1.40001
1.40001
1.40001
1.40001
0.145042
0.14213
0.14503
0.140925
0.142776
0.178986
0.221454
0.268325
0.313776
0.446867
0.583511
0.697443
0.878079
1.10362
1.34044
1.57819
1.81006
2.00056
2.11269
2.14763
2.14729
2.13289
2.01453
1.7197
1.4657
1.40346
1.40006
1.40001
1.40001
1.40001
1.40001
1.40001
1.40001
1.40001
1.40001
0.152187
0.146111
0.145987
0.142347
0.144918
0.185665
0.226162
0.262133
0.354704
0.50376
0.614912
0.763358
0.983389
1.19469
1.4224
1.66154
1.89117
2.05891
2.13409
2.14874
2.14413
2.10788
1.95245
1.65382
1.43998
1.40156
1.40002
1.40001
1.40001
1.40001
1.40001
1.40001
1.40001
1.40001
1.40001
0.154221
0.149612
0.148747
0.15079
0.157388
0.186858
0.226646
0.275607
0.422073
0.537377
0.652045
0.867014
1.06472
1.27131
1.51794
1.77412
1.98723
2.10862
2.14577
2.14854
2.13973
2.08558
1.90707
1.59021
1.42083
1.40059
1.40001
1.40001
1.40001
1.40001
1.40001
1.40001
1.40001
1.40001
1.40001
0.154301
0.150442
0.151491
0.159322
0.172185
0.184715
0.22315
0.333541
0.466158
0.563764
0.742542
0.948124
1.1381
1.38348
1.65789
1.89433
2.05687
2.13391
2.15061
2.14995
2.14222
2.07914
1.84615
1.51815
1.40898
1.40019
1.40001
1.40001
1.40001
1.40001
1.40001
1.40001
1.40001
1.40001
1.40001
0.151947
0.148054
0.15238
0.161188
0.180142
0.184952
0.241634
0.385517
0.489094
0.616209
0.833201
1.02612
1.26091
1.52866
1.78227
1.97889
2.09779
2.14602
2.15272
2.15178
2.14133
2.05165
1.7298
1.46438
1.4035
1.40006
1.40001
1.40001
1.40001
1.40001
1.40001
1.40001
1.40001
1.40001
1.40001
0.144702
0.140649
0.149121
0.158766
0.180942
0.197474
0.305973
0.422902
0.512623
0.720148
0.919544
1.13614
1.40235
1.65461
1.88124
2.04653
2.12658
2.15228
2.15331
2.15064
2.11704
1.94261
1.63066
1.43492
1.40135
1.40002
1.40001
1.40001
1.40001
1.40001
1.40001
1.40001
1.40001
1.40001
1.40001
0.137702
0.135117
0.147315
0.152675
0.172665
0.229679
0.354647
0.44834
0.596729
0.811762
1.01346
1.28337
1.53253
1.77152
1.9789
2.10098
2.14355
2.15476
2.15196
2.14222
2.07682
1.8663
1.56558
1.41795
1.40051
1.40001
1.40001
1.40001
1.40001
1.40001
1.40001
1.40001
1.40001
1.40001
1.40001
0.134961
0.132809
0.1488
0.1509
0.167404
0.273701
0.385451
0.481996
0.706286
0.909295
1.15658
1.42014
1.66625
1.89518
2.06083
2.13042
2.15075
2.15512
2.14944
2.12795
2.04367
1.80182
1.50512
1.40752
1.40016
1.40001
1.40001
1.40001
1.40001
1.40001
1.40001
1.40001
1.40001
1.40001
1.40001
0.132993
0.127934
0.148555
0.15339
0.189136
0.319232
0.415399
0.592337
0.807995
1.02522
1.30792
1.56615
1.81319
1.99871
2.11069
2.14313
2.1529
2.15525
2.15125
2.12505
2.01487
1.70362
1.45161
1.40251
1.40005
1.40001
1.40001
1.40001
1.40001
1.40001
1.40001
1.40001
1.40001
1.40001
1.40001
0.129659
0.118218
0.135969
0.165817
0.243064
0.357969
0.470405
0.704749
0.918556
1.19664
1.46776
1.73026
1.93849
2.06928
2.13854
2.14828
2.15301
2.15507
2.15305
2.12579
1.92939
1.58418
1.42177
1.40074
1.40002
1.40001
1.40001
1.40001
1.40001
1.40001
1.40001
1.40001
1.40001
1.40001
1.40001
0.127615
0.11187
0.124674
0.191021
0.2828
0.393505
0.596724
0.826943
1.075
1.36877
1.64088
1.87827
2.03402
2.11293
2.1518
2.15034
2.15256
2.15359
2.14846
2.06819
1.79706
1.50927
1.40926
1.40022
1.40001
1.40001
1.40001
1.40001
1.40001
1.40001
1.40001
1.40001
1.40001
1.40001
1.40001
0.127983
0.107526
0.121653
0.212771
0.323417
0.467816
0.725742
0.968011
1.27446
1.55607
1.81389
1.9971
2.09754
2.13459
2.15654
2.15235
2.15406
2.14928
2.12615
1.99225
1.70577
1.46327
1.40349
1.40007
1.40001
1.40001
1.40001
1.40001
1.40001
1.40001
1.40001
1.40001
1.40001
1.40001
1.40001
0.126688
0.101439
0.147366
0.236449
0.389471
0.622027
0.88428
1.17738
1.47586
1.74847
1.9552
2.08235
2.13023
2.14299
2.15949
2.15399
2.15581
2.14511
2.09703
1.92937
1.61755
1.42811
1.40103
1.40002
1.40001
1.40001
1.40001
1.40001
1.40001
1.40001
1.40001
1.40001
1.40001
1.40001
1.40001
0.118514
0.0942996
0.187396
0.288362
0.493119
0.788618
1.07567
1.40425
1.68633
1.91808
2.05941
2.12891
2.143
2.1462
2.16145
2.15444
2.15656
2.1482
2.07565
1.83429
1.51348
1.40916
1.40024
1.40001
1.40001
1.40001
1.40001
1.40001
1.40001
1.40001
1.40001
1.40001
1.40001
1.40001
1.40001
0.0814468
0.112474
0.216208
0.404619
0.680853
0.998099
1.33888
1.63758
1.88443
2.04076
2.12001
2.14782
2.14675
2.1475
2.16275
2.15367
2.15535
2.14702
2.0212
1.67863
1.44789
1.40257
1.40005
1.40001
1.40001
1.40001
1.40001
1.40001
1.40001
1.40001
1.40001
1.40001
1.40001
1.40001
1.40001
0.059539
0.128557
0.275336
0.575231
0.924644
1.26953
1.60561
1.85961
2.02725
2.11192
2.14676
2.15287
2.14758
2.14807
2.16377
2.1523
2.14597
2.10024
1.87952
1.56648
1.42019
1.40069
1.40001
1.40001
1.40001
1.40001
1.40001
1.40001
1.40001
1.40001
1.40001
1.40001
1.40001
1.40001
1.40001
0.0483025
0.193977
0.448307
0.815985
1.22351
1.5913
1.8516
2.02197
2.10736
2.14243
2.15567
2.15382
2.14667
2.14808
2.16478
2.14845
2.13304
2.03455
1.77022
1.49499
1.40703
1.40016
1.40001
1.40001
1.40001
1.40001
1.40001
1.40001
1.40001
1.40001
1.40001
1.40001
1.40001
1.40001
1.40001
0.0431363
0.284826
0.723231
1.19892
1.58655
1.8632
2.02832
2.1081
2.1398
2.15292
2.15736
2.15392
2.14469
2.14805
2.16607
2.14296
2.12387
1.97352
1.65432
1.43746
1.40161
1.40003
1.40001
1.40001
1.40001
1.40001
1.40001
1.40001
1.40001
1.40001
1.40001
1.40001
1.40001
1.40001
1.40001
0.141934
0.552079
1.15485
1.61347
1.89744
2.0463
2.11464
2.14042
2.14977
2.15602
2.15752
2.15109
2.14352
2.14931
2.16681
2.14306
2.10706
1.86086
1.51696
1.40902
1.40025
1.40001
1.40001
1.40001
1.40001
1.40001
1.40001
1.40001
1.40001
1.40001
1.40001
1.40001
1.40001
1.40001
1.40001
0.517648
1.11398
1.64684
1.93838
2.07491
2.12693
2.14296
2.14859
2.1527
2.15688
2.15607
2.14776
2.14323
2.15253
2.16647
2.1435
2.00648
1.66966
1.44063
1.40175
1.40003
1.40001
1.40001
1.40001
1.40001
1.40001
1.40001
1.40001
1.40001
1.40001
1.40001
1.40001
1.40001
1.40001
1.40001
1.20488
1.71224
2.01291
2.11476
2.14239
2.14757
2.14871
2.15027
2.15348
2.15647
2.15424
2.14603
2.14412
2.15522
2.16028
2.09605
1.87724
1.54175
1.41151
1.4002
1.40001
1.40001
1.40001
1.40001
1.40001
1.40001
1.40001
1.40001
1.40001
1.40001
1.40001
1.40001
1.40001
1.40001
1.40001
2.15077
2.15114
2.15195
2.15263
2.15212
2.15034
2.14928
2.15038
2.15312
2.15595
2.15287
2.14602
2.14615
2.15654
2.14585
2.02078
1.7369
1.44303
1.39953
1.39995
1.4
1.40001
1.40001
1.40001
1.40001
1.40001
1.40001
1.40001
1.40001
1.40001
1.40001
1.40001
1.40001
1.40001
1.40001
2.15006
2.1509
2.15247
2.15357
2.15342
2.15172
2.14839
2.1475
2.14999
2.15604
2.15703
2.15255
2.14515
2.15163
2.14792
2.02391
1.69646
1.44175
1.40139
1.40002
1.40001
1.40001
1.40001
1.40001
1.40001
1.40001
1.40001
1.40001
1.40001
1.40001
1.40001
1.40001
1.40001
1.40001
1.40001
2.14918
2.14992
2.15238
2.15378
2.15384
2.153
2.14886
2.14657
2.14815
2.15486
2.15914
2.16008
2.14777
2.14535
2.13833
1.95626
1.58741
1.41405
1.4002
1.40001
1.40001
1.40001
1.40001
1.40001
1.40001
1.40001
1.40001
1.40001
1.40001
1.40001
1.40001
1.40001
1.40001
1.40001
1.40001
2.14859
2.14858
2.15083
2.15319
2.1539
2.15341
2.14951
2.14626
2.14725
2.15297
2.16059
2.16474
2.14972
2.12905
2.10771
1.88078
1.52673
1.40688
1.40008
1.40001
1.40001
1.40001
1.40001
1.40001
1.40001
1.40001
1.40001
1.40001
1.40001
1.40001
1.40001
1.40001
1.40001
1.40001
1.40001
2.14848
2.14821
2.14925
2.15091
2.15285
2.15299
2.15024
2.14664
2.14679
2.15119
2.16062
2.16603
2.15443
2.11813
2.07879
1.80608
1.47629
1.40265
1.40003
1.40001
1.40001
1.40001
1.40001
1.40001
1.40001
1.40001
1.40001
1.40001
1.40001
1.40001
1.40001
1.40001
1.40001
1.40001
1.40001
2.14898
2.14842
2.14853
2.14892
2.15056
2.15199
2.15148
2.14803
2.14656
2.14894
2.15852
2.16611
2.1583
2.11544
2.04842
1.71585
1.44198
1.40103
1.40001
1.40001
1.40001
1.40001
1.40001
1.40001
1.40001
1.40001
1.40001
1.40001
1.40001
1.40001
1.40001
1.40001
1.40001
1.40001
1.40001
2.15124
2.14959
2.14816
2.14782
2.14873
2.15137
2.15295
2.15095
2.14721
2.1464
2.15382
2.16453
2.15884
2.1125
1.99753
1.62009
1.4198
1.40034
1.40001
1.40001
1.40001
1.40001
1.40001
1.40001
1.40001
1.40001
1.40001
1.40001
1.40001
1.40001
1.40001
1.40001
1.40001
1.40001
1.40001
2.15384
2.15183
2.14889
2.14737
2.14778
2.15075
2.15384
2.15456
2.14969
2.14526
2.14885
2.16254
2.15586
2.09261
1.90617
1.54585
1.40876
1.40011
1.40001
1.40001
1.40001
1.40001
1.40001
1.40001
1.40001
1.40001
1.40001
1.40001
1.40001
1.40001
1.40001
1.40001
1.40001
1.40001
1.40001
2.15505
2.15359
2.15075
2.14802
2.14732
2.14959
2.15456
2.15664
2.15397
2.14486
2.14395
2.15883
2.15634
2.0794
1.82797
1.4907
1.40353
1.40004
1.40001
1.40001
1.40001
1.40001
1.40001
1.40001
1.40001
1.40001
1.40001
1.40001
1.40001
1.40001
1.40001
1.40001
1.40001
1.40001
1.40001
2.15519
2.15434
2.15227
2.14947
2.14731
2.14836
2.15353
2.15765
2.15723
2.14582
2.13851
2.14876
2.15434
2.06219
1.73327
1.44688
1.40124
1.40001
1.40001
1.40001
1.40001
1.40001
1.40001
1.40001
1.40001
1.40001
1.40001
1.40001
1.40001
1.40001
1.40001
1.40001
1.40001
1.40001
1.40001
2.15443
2.15436
2.1529
2.15111
2.1477
2.14741
2.15125
2.15798
2.15844
2.15005
2.136
2.13915
2.13804
1.98651
1.63728
1.42265
1.40041
1.40001
1.40001
1.40001
1.40001
1.40001
1.40001
1.40001
1.40001
1.40001
1.40001
1.40001
1.40001
1.40001
1.40001
1.40001
1.40001
1.40001
1.40001
2.15124
2.15286
2.15294
2.15212
2.14842
2.14681
2.14825
2.15531
2.15872
2.15566
2.13857
2.13554
2.12648
1.92009
1.56135
1.41022
1.40013
1.40001
1.40001
1.40001
1.40001
1.40001
1.40001
1.40001
1.40001
1.40001
1.40001
1.40001
1.40001
1.40001
1.40001
1.40001
1.40001
1.40001
1.40001
2.14785
2.15021
2.15229
2.15266
2.1499
2.14677
2.14577
2.14996
2.15735
2.16068
2.14901
2.1329
2.11489
1.83563
1.49073
1.40368
1.40004
1.40001
1.40001
1.40001
1.40001
1.40001
1.40001
1.40001
1.40001
1.40001
1.40001
1.40001
1.40001
1.40001
1.40001
1.40001
1.40001
1.40001
1.40001
2.14649
2.14816
2.15094
2.15295
2.15146
2.14765
2.1446
2.14519
2.15434
2.16313
2.15614
2.12304
2.0523
1.72509
1.44637
1.40126
1.40001
1.40001
1.40001
1.40001
1.40001
1.40001
1.40001
1.40001
1.40001
1.40001
1.40001
1.40001
1.40001
1.40001
1.40001
1.40001
1.40001
1.40001
1.40001
2.14636
2.14746
2.14986
2.15271
2.15193
2.14915
2.14416
2.14264
2.15032
2.16482
2.15918
2.11233
1.98779
1.63902
1.42276
1.40041
1.40001
1.40001
1.40001
1.40001
1.40001
1.40001
1.40001
1.40001
1.40001
1.40001
1.40001
1.40001
1.40001
1.40001
1.40001
1.40001
1.40001
1.40001
1.40001
2.1478
2.14765
2.14926
2.15163
2.15243
2.15244
2.14606
2.14089
2.14487
2.16365
2.15978
2.10786
1.9202
1.55024
1.40877
1.40011
1.40001
1.40001
1.40001
1.40001
1.40001
1.40001
1.40001
1.40001
1.40001
1.40001
1.40001
1.40001
1.40001
1.40001
1.40001
1.40001
1.40001
1.40001
1.40001
2.15248
2.15018
2.14889
2.15034
2.15313
2.15455
2.15003
2.14033
2.14078
2.15433
2.15163
2.07603
1.81943
1.48201
1.40315
1.40003
1.40001
1.40001
1.40001
1.40001
1.40001
1.40001
1.40001
1.40001
1.40001
1.40001
1.40001
1.40001
1.40001
1.40001
1.40001
1.40001
1.40001
1.40001
1.40001
2.15636
2.15261
2.1492
2.14888
2.15247
2.15517
2.15397
2.14453
2.14009
2.15176
2.14469
2.0249
1.71587
1.44277
1.40105
1.40001
1.40001
1.40001
1.40001
1.40001
1.40001
1.40001
1.40001
1.40001
1.40001
1.40001
1.40001
1.40001
1.40001
1.40001
1.40001
1.40001
1.40001
1.40001
1.40001
2.15782
2.15376
2.14938
2.14761
2.15103
2.15522
2.15621
2.15048
2.14226
2.15111
2.14407
1.97529
1.61196
1.41751
1.40029
1.40001
1.40001
1.40001
1.40001
1.40001
1.40001
1.40001
1.40001
1.40001
1.40001
1.40001
1.40001
1.40001
1.40001
1.40001
1.40001
1.40001
1.40001
1.40001
1.40001
2.15802
2.15411
2.14953
2.1469
2.14746
2.15285
2.15637
2.15719
2.14507
2.13946
2.12379
1.88043
1.5204
1.40626
1.40008
1.40001
1.40001
1.40001
1.40001
1.40001
1.40001
1.40001
1.40001
1.40001
1.40001
1.40001
1.40001
1.40001
1.40001
1.40001
1.40001
1.40001
1.40001
1.40001
1.40001
2.15565
2.1535
2.14983
2.14728
2.14463
2.147
2.15497
2.16176
2.15262
2.12187
2.06924
1.77606
1.46602
1.40214
1.40002
1.40001
1.40001
1.40001
1.40001
1.40001
1.40001
1.40001
1.40001
1.40001
1.40001
1.40001
1.40001
1.40001
1.40001
1.40001
1.40001
1.40001
1.40001
1.40001
1.40001