/*--------------------------------*- C++ -*----------------------------------*\
  =========                 |
  \\      /  F ield         | OpenFOAM: The Open Source CFD Toolbox
   \\    /   O peration     | Website:  https://openfoam.org
    \\  /    A nd           | Version:  7
     \\/     M anipulation  |
\*---------------------------------------------------------------------------*/
FoamFile
{
    version     2.0;
    format      ascii;
    class       volScalarField;
    location    "3.6";
    object      rho;
}
// * * * * * * * * * * * * * * * * * * * * * * * * * * * * * * * * * * * * * //

dimensions      [1 -3 0 0 0 0 0];

internalField   nonuniform List<scalar> 
11200
(
0.227394
0.324752
0.421462
0.509032
0.582957
0.633459
0.681049
0.699171
0.722753
0.739692
0.74844
0.761628
0.784021
0.819978
0.814036
0.805712
0.807024
0.810553
0.817993
0.817506
0.820287
0.817011
0.816037
0.814137
0.815991
0.823545
0.822286
0.813389
0.805797
0.808138
0.144234
0.147773
0.164708
0.20187
0.261975
0.347323
0.437247
0.529943
0.610088
0.678685
0.736712
0.76617
0.77981
0.772301
0.747998
0.71997
0.731204
0.751771
0.774528
0.77479
0.765041
0.752976
0.753427
0.757409
0.763553
0.768102
0.768782
0.761947
0.760156
0.768853
0.15332
0.156495
0.161009
0.163551
0.166553
0.168333
0.176914
0.208877
0.262159
0.348436
0.469163
0.583031
0.652989
0.698691
0.710918
0.720304
0.735936
0.740693
0.751005
0.751624
0.740055
0.734485
0.734542
0.732831
0.73621
0.741127
0.745303
0.742805
0.740668
0.750058
0.164494
0.168131
0.171211
0.173963
0.176057
0.178145
0.179627
0.179393
0.179529
0.180105
0.187172
0.228263
0.309053
0.431992
0.567079
0.665319
0.713634
0.741579
0.744328
0.739439
0.723081
0.729019
0.73041
0.725843
0.727845
0.732
0.73664
0.73934
0.737075
0.746614
0.177439
0.178701
0.179345
0.179587
0.180072
0.181623
0.182259
0.182279
0.182405
0.183134
0.184206
0.184222
0.183575
0.181748
0.212326
0.296284
0.433471
0.576429
0.670694
0.706787
0.715807
0.747247
0.742655
0.737327
0.737573
0.73718
0.745624
0.747149
0.744308
0.754946
0.182425
0.181895
0.181324
0.180811
0.181029
0.182408
0.182968
0.182952
0.183022
0.183354
0.183362
0.183163
0.182396
0.181067
0.180589
0.18115
0.181964
0.218642
0.331159
0.507675
0.649128
0.723625
0.743162
0.752949
0.753489
0.750226
0.767172
0.757253
0.757904
0.777824
0.181696
0.18067
0.179572
0.178632
0.178708
0.17995
0.181841
0.182669
0.183133
0.183094
0.182186
0.181539
0.182653
0.182903
0.182351
0.184121
0.1855
0.185804
0.186358
0.203737
0.289898
0.440352
0.617827
0.727153
0.757913
0.782926
0.828001
0.80272
0.813252
0.826759
0.177664
0.176367
0.175451
0.175423
0.176192
0.178473
0.180878
0.182325
0.183159
0.183142
0.181674
0.180872
0.182315
0.185665
0.189694
0.196109
0.20287
0.204146
0.205123
0.206529
0.207131
0.208365
0.257401
0.396951
0.594021
0.738381
0.804624
0.831485
0.87639
0.891471
0.174412
0.174234
0.174171
0.17432
0.175402
0.178126
0.181483
0.184595
0.185551
0.184418
0.181327
0.180352
0.181946
0.188357
0.199831
0.210451
0.218747
0.22195
0.224862
0.22683
0.230269
0.234055
0.235352
0.237045
0.261591
0.362609
0.523393
0.72918
0.840145
0.901437
0.181561
0.181562
0.181262
0.180964
0.181368
0.18219
0.183571
0.18791
0.19485
0.195751
0.192884
0.191844
0.19357
0.202362
0.216463
0.223937
0.229322
0.234652
0.241042
0.2499
0.259228
0.266872
0.269406
0.267107
0.267261
0.273441
0.280984
0.351621
0.476069
0.77804
0.196389
0.196094
0.196272
0.196873
0.198263
0.201131
0.206675
0.214373
0.224452
0.230468
0.230797
0.230958
0.233327
0.24059
0.24642
0.245079
0.245312
0.251061
0.260879
0.269849
0.276786
0.283431
0.291516
0.298005
0.296844
0.295057
0.301648
0.309345
0.314231
0.436927
0.213934
0.216085
0.218322
0.220977
0.224875
0.229414
0.235055
0.240865
0.248308
0.256237
0.257349
0.257982
0.260793
0.268256
0.277082
0.28108
0.283086
0.285051
0.28805
0.291786
0.295041
0.299256
0.307684
0.318643
0.325646
0.327696
0.327213
0.330037
0.338081
0.345551
0.256148
0.258292
0.260459
0.262871
0.26497
0.265037
0.266704
0.271489
0.279162
0.286748
0.287871
0.286272
0.28601
0.290548
0.302779
0.313752
0.319288
0.32242
0.3244
0.324446
0.324734
0.325738
0.329396
0.33765
0.346533
0.352032
0.355671
0.358591
0.359798
0.367455
0.297081
0.299716
0.303561
0.30658
0.308357
0.3099
0.313755
0.318841
0.324995
0.332408
0.333282
0.33072
0.330741
0.334958
0.341634
0.344915
0.346848
0.350839
0.356772
0.362417
0.36535
0.36609
0.365429
0.366878
0.371471
0.37554
0.381537
0.38793
0.389467
0.392067
0.349943
0.3531
0.358188
0.362636
0.362978
0.360922
0.360031
0.361333
0.365091
0.371595
0.378654
0.381234
0.381882
0.384032
0.38625
0.386264
0.386673
0.388987
0.393938
0.399056
0.403354
0.407437
0.408345
0.407826
0.4084
0.411618
0.4151
0.418692
0.422943
0.427386
0.406851
0.409199
0.413388
0.419803
0.424417
0.425811
0.423853
0.420007
0.419457
0.421008
0.427555
0.430097
0.430855
0.43296
0.436816
0.443349
0.446951
0.447288
0.447262
0.446486
0.445901
0.446981
0.451175
0.453819
0.453556
0.453043
0.453112
0.45491
0.456959
0.458796
0.480931
0.481873
0.485568
0.4919
0.498388
0.500606
0.499545
0.493573
0.49035
0.491472
0.496641
0.501945
0.502748
0.50224
0.501322
0.500056
0.500045
0.500846
0.501675
0.50048
0.496909
0.493876
0.493237
0.493369
0.493387
0.492898
0.493077
0.493082
0.492481
0.49117
0.570487
0.570786
0.572255
0.576056
0.58167
0.583959
0.584046
0.578855
0.569387
0.566964
0.5697
0.574431
0.574057
0.571386
0.569498
0.568191
0.566197
0.563122
0.55997
0.557181
0.555167
0.553696
0.551339
0.547633
0.54597
0.544901
0.543328
0.540998
0.538467
0.535117
0.675767
0.673781
0.673605
0.677925
0.683216
0.683427
0.681964
0.675883
0.66542
0.663998
0.666713
0.665521
0.659994
0.657053
0.656131
0.653835
0.647946
0.642006
0.638167
0.63385
0.628152
0.623774
0.621193
0.616734
0.610197
0.603519
0.598028
0.592514
0.587919
0.580509
0.799354
0.794125
0.793921
0.800141
0.804461
0.802926
0.797955
0.787431
0.775769
0.775107
0.776575
0.773321
0.762018
0.755016
0.752847
0.748736
0.739674
0.729472
0.721764
0.715004
0.707517
0.697793
0.688692
0.68217
0.674234
0.666847
0.659977
0.654232
0.650255
0.640284
0.946542
0.935683
0.933808
0.938582
0.947519
0.946475
0.936643
0.91818
0.903875
0.902905
0.904056
0.899467
0.882452
0.870335
0.865542
0.859256
0.847555
0.833832
0.822581
0.811418
0.801377
0.79169
0.780144
0.770033
0.75961
0.748278
0.737045
0.725605
0.714946
0.696247
1.11596
1.10155
1.09771
1.1017
1.1127
1.11127
1.0976
1.07324
1.05248
1.05092
1.05185
1.04378
1.0192
1.00404
0.997545
0.987992
0.971389
0.95302
0.9377
0.923973
0.908919
0.893762
0.879276
0.863388
0.847882
0.831109
0.816654
0.801078
0.786214
0.763566
1.30555
1.28918
1.28561
1.29104
1.30143
1.29759
1.27756
1.24735
1.22266
1.22146
1.22085
1.20517
1.1721
1.15681
1.14913
1.13475
1.11209
1.08924
1.06891
1.05077
1.03226
1.0116
0.991951
0.971759
0.951414
0.930994
0.909953
0.890199
0.873285
0.843662
1.51835
1.50269
1.50082
1.50957
1.51368
1.50208
1.47415
1.44095
1.4135
1.41252
1.4086
1.38284
1.34389
1.32887
1.318
1.29705
1.26836
1.23979
1.21568
1.19283
1.16915
1.14336
1.11666
1.09214
1.06587
1.03971
1.01436
0.988038
0.965426
0.927801
1.77388
1.75537
1.75394
1.75263
1.74567
1.72861
1.70611
1.67101
1.63642
1.6308
1.62006
1.58723
1.54333
1.52332
1.50542
1.47664
1.44196
1.40878
1.37753
1.34907
1.31945
1.28753
1.25544
1.22412
1.1935
1.16083
1.13017
1.0992
1.07128
1.02596
2.02188
2.00725
1.99321
1.98562
1.97736
1.96344
1.94576
1.92486
1.89818
1.87786
1.85854
1.82634
1.78728
1.75661
1.72489
1.68722
1.64689
1.6065
1.56684
1.52822
1.49004
1.45039
1.41158
1.37283
1.33466
1.29705
1.25956
1.22187
1.18945
1.13496
2.06944
2.06806
2.06722
2.06674
2.06603
2.06401
2.06026
2.05515
2.04802
2.03949
2.03102
2.01802
1.99853
1.97652
1.95014
1.91717
1.88035
1.83935
1.79507
1.74857
1.6999
1.65122
1.60129
1.55232
1.504
1.45574
1.40994
1.3634
1.32283
1.25698
2.0158
2.01379
2.01689
2.02625
2.03614
2.04246
2.04513
2.045
2.04404
2.04256
2.03992
2.03742
2.03525
2.03223
2.02708
2.01828
2.00473
1.98817
1.96855
1.94321
1.91013
1.86973
1.82409
1.77251
1.71678
1.65931
1.60051
1.541
1.48911
1.4044
1.78142
1.78823
1.79847
1.81315
1.82988
1.84927
1.87875
1.90467
1.90784
1.91667
1.94284
1.96711
1.97162
1.97945
1.99378
1.99695
1.99461
1.99019
1.98532
1.97812
1.9676
1.9545
1.93814
1.91837
1.8913
1.85596
1.81077
1.75566
1.69906
1.59674
1.48343
1.49066
1.49798
1.509
1.51978
1.53208
1.55102
1.57338
1.59263
1.61188
1.63954
1.67486
1.70576
1.73644
1.77289
1.80877
1.84031
1.87217
1.8969
1.91308
1.92466
1.93391
1.93234
1.92445
1.91404
1.90322
1.88915
1.86854
1.84511
1.77992
1.40386
1.40457
1.4053
1.40628
1.40754
1.40903
1.4112
1.41424
1.41832
1.42293
1.42886
1.4376
1.44953
1.46361
1.48222
1.50615
1.53587
1.57061
1.61146
1.65493
1.6999
1.74466
1.7854
1.81857
1.8425
1.85749
1.86591
1.86249
1.85275
1.82667
1.40005
1.40006
1.40007
1.40009
1.40011
1.40014
1.40018
1.40024
1.40035
1.40049
1.40069
1.40101
1.40157
1.40239
1.40374
1.40588
1.40942
1.41487
1.4235
1.43635
1.45475
1.48027
1.51297
1.55354
1.59943
1.64674
1.6939
1.73475
1.76546
1.78337
1.40001
1.40001
1.40001
1.40001
1.40001
1.40001
1.40001
1.40001
1.40001
1.40001
1.40001
1.40001
1.40002
1.40003
1.40004
1.40008
1.40014
1.40026
1.40052
1.40102
1.40202
1.40395
1.40757
1.41399
1.42486
1.4417
1.46634
1.49967
1.53716
1.60112
1.40001
1.40001
1.40001
1.40001
1.40001
1.40001
1.40001
1.40001
1.40001
1.40001
1.40001
1.40001
1.40001
1.40001
1.40001
1.40001
1.40001
1.40001
1.40001
1.40001
1.40002
1.40005
1.40011
1.40027
1.40063
1.40147
1.40326
1.40705
1.41321
1.43471
1.40001
1.40001
1.40001
1.40001
1.40001
1.40001
1.40001
1.40001
1.40001
1.40001
1.40001
1.40001
1.40001
1.40001
1.40001
1.40001
1.40001
1.40001
1.40001
1.40001
1.40001
1.40001
1.40001
1.40001
1.40001
1.40002
1.40004
1.40012
1.40028
1.40144
0.142107
0.143247
0.149719
0.16007
0.174769
0.182953
0.183049
0.179486
0.175224
0.181256
0.198029
0.212422
0.254412
0.295305
0.347792
0.405832
0.481727
0.576208
0.690108
0.822837
0.977938
1.15305
1.34784
1.56641
1.82306
2.03702
2.07133
2.01939
1.76108
1.47
1.40302
1.40004
1.40001
1.40001
1.40001
0.142685
0.144104
0.150025
0.160632
0.175619
0.184179
0.18407
0.180014
0.177182
0.182829
0.203082
0.22005
0.262515
0.306247
0.361237
0.428846
0.514468
0.613589
0.729203
0.864095
1.02191
1.20258
1.40556
1.63363
1.88213
2.05937
2.07262
2.00142
1.69911
1.44712
1.40159
1.40002
1.40001
1.40001
1.40001
0.144122
0.143902
0.147715
0.159738
0.174422
0.184555
0.184316
0.180413
0.178371
0.18219
0.20468
0.226734
0.268091
0.317694
0.377534
0.449355
0.532531
0.62867
0.743941
0.87975
1.04006
1.22586
1.43432
1.66621
1.91592
2.07025
2.07204
1.95699
1.64973
1.43403
1.40097
1.40001
1.40001
1.40001
1.40001
0.14554
0.1445
0.147328
0.159859
0.173644
0.184513
0.184191
0.179977
0.178646
0.182017
0.207004
0.237281
0.278591
0.329151
0.389532
0.457413
0.539544
0.636725
0.753591
0.892454
1.05362
1.24339
1.45771
1.69739
1.95094
2.07908
2.06748
1.92722
1.61535
1.4244
1.40057
1.40001
1.40001
1.40001
1.40001
0.146139
0.14424
0.147572
0.1601
0.173394
0.184036
0.183665
0.178996
0.178934
0.187616
0.211474
0.245085
0.283989
0.332747
0.393225
0.460675
0.543071
0.644979
0.76415
0.910365
1.08099
1.2756
1.49462
1.7448
1.9961
2.08743
2.06659
1.90743
1.58009
1.41583
1.4003
1.40001
1.40001
1.40001
1.40001
0.145353
0.143022
0.148919
0.161739
0.173494
0.182846
0.182653
0.17859
0.180648
0.193761
0.212719
0.247372
0.285978
0.333077
0.395197
0.464411
0.554926
0.673163
0.812465
0.971289
1.15379
1.35587
1.57999
1.8245
2.0375
2.0927
2.06827
1.87501
1.5346
1.40937
1.40016
1.40001
1.40001
1.40001
1.40001
0.143014
0.142315
0.153285
0.164783
0.174263
0.180126
0.179934
0.177243
0.181752
0.195891
0.212516
0.247036
0.286492
0.333403
0.400914
0.489847
0.599139
0.719552
0.856634
1.01481
1.19707
1.40273
1.63045
1.87147
2.05905
2.09414
2.05108
1.80274
1.49885
1.40583
1.40009
1.40001
1.40001
1.40001
1.40001
0.140508
0.142563
0.156843
0.166108
0.174845
0.17762
0.176072
0.175182
0.181816
0.195803
0.211515
0.245519
0.287518
0.354271
0.433865
0.524162
0.623595
0.73918
0.875744
1.03504
1.22102
1.43158
1.66285
1.90627
2.07465
2.09342
2.01832
1.75552
1.47651
1.40366
1.40005
1.40001
1.40001
1.40001
1.40001
0.13972
0.144069
0.157348
0.166019
0.174938
0.175819
0.17261
0.173624
0.181237
0.194728
0.215611
0.25339
0.308492
0.379848
0.453519
0.53572
0.632872
0.750196
0.890193
1.05232
1.24119
1.45802
1.69936
1.95176
2.09099
2.09128
1.99891
1.71928
1.45569
1.40205
1.40003
1.40001
1.40001
1.40001
1.40001
0.139877
0.145865
0.156524
0.165358
0.17436
0.174096
0.170265
0.172832
0.181079
0.19678
0.229768
0.273714
0.326932
0.389383
0.458573
0.539772
0.639759
0.764039
0.914658
1.09363
1.29727
1.52393
1.77285
2.00896
2.1031
2.09404
1.98654
1.66937
1.43575
1.40106
1.40002
1.40001
1.40001
1.40001
1.40001
0.141193
0.146991
0.154628
0.164682
0.173353
0.172724
0.169474
0.173377
0.182605
0.203891
0.242481
0.284334
0.331654
0.390498
0.461976
0.546735
0.667151
0.81725
0.984315
1.17271
1.38101
1.60863
1.84597
2.04678
2.10944
2.09608
1.95052
1.60542
1.42247
1.40056
1.40001
1.40001
1.40001
1.40001
1.40001
0.143278
0.147408
0.153608
0.165383
0.173239
0.17262
0.17055
0.176738
0.185083
0.208676
0.246757
0.287083
0.333793
0.389767
0.475114
0.59081
0.722212
0.865506
1.02845
1.21481
1.42394
1.65191
1.88619
2.06935
2.11179
2.08416
1.88032
1.56045
1.41458
1.4003
1.40001
1.40001
1.40001
1.40001
1.40001
0.144866
0.147278
0.153434
0.167485
0.173966
0.173511
0.17311
0.177607
0.185491
0.210402
0.246724
0.287642
0.338659
0.412004
0.518883
0.628606
0.746986
0.886391
1.05077
1.24068
1.45627
1.69067
1.92867
2.09033
2.11203
2.0585
1.83726
1.52666
1.40888
1.40015
1.40001
1.40001
1.40001
1.40001
1.40001
0.145369
0.145645
0.153699
0.169293
0.173846
0.17333
0.17401
0.176459
0.18256
0.211686
0.244241
0.290696
0.361429
0.450915
0.542326
0.64183
0.75937
0.901122
1.07251
1.27065
1.49845
1.74861
1.98743
2.10797
2.11045
2.04144
1.79884
1.49209
1.40496
1.40007
1.40001
1.40001
1.40001
1.40001
1.40001
0.143542
0.14307
0.154243
0.171031
0.173759
0.172892
0.173556
0.175167
0.180447
0.2167
0.25377
0.315202
0.383395
0.461987
0.54847
0.648513
0.775831
0.93834
1.13118
1.35478
1.59386
1.83704
2.04068
2.11785
2.1122
2.03195
1.74004
1.46127
1.40262
1.40004
1.40001
1.40001
1.40001
1.40001
1.40001
0.139001
0.140924
0.154685
0.172334
0.174937
0.173277
0.171486
0.174837
0.18254
0.226369
0.273678
0.331391
0.388945
0.462674
0.553449
0.675258
0.838045
1.02217
1.21907
1.43509
1.6664
1.89318
2.07152
2.12308
2.11421
2.00057
1.66687
1.43949
1.40134
1.40002
1.40001
1.40001
1.40001
1.40001
1.40001
0.135412
0.140013
0.154452
0.172654
0.176243
0.174097
0.170102
0.173292
0.192502
0.235895
0.279296
0.334339
0.392506
0.463935
0.588589
0.742612
0.899516
1.07034
1.26274
1.47821
1.71009
1.93465
2.09487
2.12537
2.10426
1.92956
1.61131
1.42524
1.40067
1.40001
1.40001
1.40001
1.40001
1.40001
1.40001
0.134264
0.14008
0.15149
0.169289
0.176412
0.174615
0.169815
0.17255
0.200846
0.240136
0.281745
0.334393
0.405592
0.507506
0.647799
0.780701
0.925983
1.09627
1.29552
1.51902
1.76184
1.98786
2.11464
2.12501
2.07987
1.88324
1.56583
1.41516
1.40033
1.40001
1.40001
1.40001
1.40001
1.40001
1.40001
0.13452
0.140459
0.146878
0.165087
0.17528
0.174875
0.171526
0.175355
0.208521
0.242046
0.291294
0.351515
0.443444
0.561161
0.674193
0.797017
0.946531
1.1273
1.34705
1.59314
1.84507
2.04549
2.12622
2.12208
2.06017
1.84122
1.52114
1.40853
1.40015
1.40001
1.40001
1.40001
1.40001
1.40001
1.40001
0.137397
0.140772
0.144007
0.163399
0.174537
0.175266
0.174084
0.179472
0.218167
0.247706
0.312666
0.395535
0.482598
0.579836
0.685149
0.81617
0.996549
1.2178
1.45591
1.69774
1.92164
2.08307
2.13113
2.12296
2.04944
1.78023
1.48214
1.40444
1.40007
1.40001
1.40001
1.40001
1.40001
1.40001
1.40001
0.142453
0.143002
0.143352
0.163167
0.174621
0.174674
0.175325
0.182769
0.227967
0.272817
0.339592
0.417835
0.493736
0.584767
0.706789
0.891946
1.09354
1.30667
1.53194
1.76032
1.96863
2.10777
2.13479
2.12602
2.02763
1.70254
1.45214
1.40214
1.40003
1.40001
1.40001
1.40001
1.40001
1.40001
1.40001
0.145915
0.144651
0.146421
0.166656
0.176357
0.174443
0.175697
0.18975
0.237178
0.290068
0.349024
0.419903
0.498146
0.597703
0.782278
0.964274
1.1493
1.35569
1.58248
1.814
2.01652
2.12571
2.13717
2.11898
1.9545
1.63641
1.43192
1.40101
1.40002
1.40001
1.40001
1.40001
1.40001
1.40001
1.40001
0.146905
0.144747
0.155604
0.172398
0.1768
0.174612
0.175724
0.197848
0.241052
0.294073
0.351661
0.413868
0.509705
0.670843
0.841744
1.00211
1.18611
1.4018
1.647
1.89028
2.06826
2.13525
2.13632
2.09173
1.89762
1.58032
1.41858
1.40047
1.40001
1.40001
1.40001
1.40001
1.40001
1.40001
1.40001
0.145523
0.143695
0.16286
0.17329
0.174366
0.169521
0.173325
0.202951
0.243274
0.292862
0.356845
0.433762
0.573406
0.730867
0.872759
1.03311
1.24349
1.49375
1.75322
1.97322
2.10279
2.13944
2.12929
2.06468
1.8485
1.53063
1.41027
1.4002
1.40001
1.40001
1.40001
1.40001
1.40001
1.40001
1.40001
0.140571
0.14253
0.16493
0.171361
0.164788
0.160911
0.167785
0.204468
0.246531
0.297633
0.371911
0.505174
0.639039
0.761515
0.903267
1.11463
1.36053
1.61025
1.84146
2.02612
2.12362
2.14152
2.12583
2.04629
1.78522
1.48738
1.40511
1.40009
1.40001
1.40001
1.40001
1.40001
1.40001
1.40001
1.40001
0.137594
0.142996
0.164388
0.166399
0.158284
0.157341
0.167307
0.209925
0.259591
0.33564
0.432587
0.554679
0.66088
0.787006
0.993468
1.22263
1.45012
1.68233
1.89957
2.06713
2.13836
2.1432
2.12965
2.02573
1.70175
1.45253
1.40224
1.40003
1.40001
1.40001
1.40001
1.40001
1.40001
1.40001
1.40001
0.137098
0.145324
0.163915
0.164274
0.156537
0.157061
0.180955
0.234543
0.29546
0.376094
0.465159
0.567494
0.676736
0.854093
1.0846
1.29158
1.51257
1.74945
1.9653
2.10581
2.1452
2.14499
2.12392
1.9491
1.62522
1.4296
1.40096
1.40002
1.40001
1.40001
1.40001
1.40001
1.40001
1.40001
1.40001
0.138707
0.148909
0.164343
0.163243
0.156322
0.159459
0.204346
0.254825
0.313598
0.3922
0.475825
0.570672
0.726142
0.951596
1.14712
1.35047
1.5935
1.84606
2.03731
2.12973
2.14662
2.1427
2.08707
1.87412
1.56174
1.41598
1.4004
1.40001
1.40001
1.40001
1.40001
1.40001
1.40001
1.40001
1.40001
0.142879
0.150211
0.161793
0.161557
0.15682
0.167896
0.220567
0.261078
0.319478
0.395054
0.487293
0.618868
0.83765
1.02059
1.20459
1.45398
1.72036
1.94417
2.0845
2.14053
2.14618
2.13157
2.05028
1.81429
1.51206
1.40825
1.40016
1.40001
1.40001
1.40001
1.40001
1.40001
1.40001
1.40001
1.40001
0.144534
0.146997
0.155374
0.159707
0.158429
0.175773
0.225736
0.260332
0.3235
0.404595
0.537198
0.740053
0.912449
1.07814
1.31879
1.5842
1.82266
2.00847
2.11404
2.14594
2.14487
2.12057
2.02233
1.74618
1.4702
1.40371
1.40006
1.40001
1.40001
1.40001
1.40001
1.40001
1.40001
1.40001
1.40001
0.140444
0.138383
0.151126
0.157957
0.162465
0.180659
0.225641
0.268696
0.359398
0.480523
0.6353
0.802537
0.957017
1.16783
1.43973
1.68223
1.8993
2.0612
2.13582
2.14846
2.14726
2.12302
1.99352
1.65731
1.43799
1.40142
1.40002
1.40001
1.40001
1.40001
1.40001
1.40001
1.40001
1.40001
1.40001
0.129829
0.131578
0.149298
0.156041
0.167682
0.190641
0.232227
0.316749
0.419748
0.541748
0.682049
0.832982
1.0197
1.291
1.54009
1.77312
1.98008
2.10666
2.14775
2.15052
2.14774
2.11904
1.90781
1.57522
1.41867
1.40053
1.40001
1.40001
1.40001
1.40001
1.40001
1.40001
1.40001
1.40001
1.40001
0.124937
0.130584
0.14922
0.154065
0.170481
0.202249
0.257707
0.348649
0.447264
0.57425
0.71689
0.887835
1.15563
1.40484
1.64469
1.88393
2.05357
2.13306
2.15161
2.15152
2.1418
2.06161
1.80604
1.51239
1.4087
1.40019
1.40001
1.40001
1.40001
1.40001
1.40001
1.40001
1.40001
1.40001
1.40001
0.125519
0.137679
0.154083
0.151317
0.165475
0.205203
0.267424
0.362612
0.469009
0.605949
0.781742
1.0403
1.28981
1.51917
1.77575
1.98183
2.10045
2.14565
2.15227
2.14957
2.12495
2.00315
1.72948
1.47
1.40393
1.40007
1.40001
1.40001
1.40001
1.40001
1.40001
1.40001
1.40001
1.40001
1.40001
0.12902
0.145956
0.156997
0.151715
0.157036
0.201996
0.273868
0.379011
0.516082
0.693285
0.92657
1.1808
1.40131
1.65084
1.88845
2.04909
2.1291
2.15145
2.15197
2.14393
2.10444
1.95979
1.65401
1.43782
1.40149
1.40002
1.40001
1.40001
1.40001
1.40001
1.40001
1.40001
1.40001
1.40001
1.40001
0.132752
0.148218
0.155235
0.150905
0.155096
0.213591
0.313931
0.44437
0.619018
0.818838
1.05073
1.27605
1.51752
1.77621
1.97991
2.0973
2.14474
2.15382
2.15209
2.14337
2.09507
1.90399
1.56501
1.41681
1.40047
1.40001
1.40001
1.40001
1.40001
1.40001
1.40001
1.40001
1.40001
1.40001
1.40001
0.138557
0.148557
0.145936
0.139915
0.16431
0.274784
0.402715
0.535181
0.704655
0.914397
1.14337
1.38883
1.66836
1.89406
2.05809
2.12803
2.15056
2.15464
2.15369
2.14655
2.07993
1.78843
1.49277
1.40652
1.40014
1.40001
1.40001
1.40001
1.40001
1.40001
1.40001
1.40001
1.40001
1.40001
1.40001
0.1453
0.142978
0.138589
0.133223
0.208147
0.332983
0.453457
0.596873
0.783548
1.01615
1.27647
1.57386
1.8182
1.99918
2.11201
2.14317
2.15218
2.15474
2.15392
2.13406
1.98513
1.6753
1.44942
1.40238
1.40004
1.40001
1.40001
1.40001
1.40001
1.40001
1.40001
1.40001
1.40001
1.40001
1.40001
0.145005
0.130283
0.133723
0.142282
0.259869
0.36472
0.476606
0.663221
0.906398
1.1819
1.48095
1.74585
1.94286
2.07231
2.14045
2.14969
2.15319
2.15343
2.14798
2.09392
1.89943
1.59596
1.425
1.40085
1.40002
1.40001
1.40001
1.40001
1.40001
1.40001
1.40001
1.40001
1.40001
1.40001
1.40001
0.141483
0.116259
0.130199
0.181804
0.29604
0.389337
0.546297
0.805161
1.09232
1.38316
1.65892
1.87816
2.03469
2.11373
2.1534
2.1524
2.15462
2.15114
2.13348
2.0571
1.82856
1.52421
1.4103
1.40025
1.40001
1.40001
1.40001
1.40001
1.40001
1.40001
1.40001
1.40001
1.40001
1.40001
1.40001
0.137172
0.107429
0.144494
0.224716
0.31919
0.444242
0.722346
0.998228
1.27569
1.55887
1.8049
1.99313
2.09695
2.13522
2.15773
2.15384
2.15578
2.1533
2.12512
2.02208
1.72442
1.46051
1.40332
1.40006
1.40001
1.40001
1.40001
1.40001
1.40001
1.40001
1.40001
1.40001
1.40001
1.40001
1.40001
0.133207
0.104729
0.159026
0.250708
0.364232
0.615858
0.901947
1.17459
1.46379
1.73943
1.951
2.08268
2.13122
2.14362
2.15951
2.15356
2.15576
2.15525
2.12645
1.93884
1.59216
1.42394
1.40089
1.40002
1.40001
1.40001
1.40001
1.40001
1.40001
1.40001
1.40001
1.40001
1.40001
1.40001
1.40001
0.126553
0.104247
0.158998
0.290717
0.492661
0.799668
1.07491
1.38634
1.6854
1.91895
2.06286
2.13067
2.14334
2.14609
2.16035
2.15106
2.15345
2.15045
2.07468
1.79288
1.50527
1.40894
1.40023
1.40001
1.40001
1.40001
1.40001
1.40001
1.40001
1.40001
1.40001
1.40001
1.40001
1.40001
1.40001
0.0982852
0.132812
0.185004
0.383199
0.686732
0.996938
1.32738
1.64033
1.88587
2.04287
2.12061
2.14886
2.14593
2.14666
2.16134
2.1492
2.1482
2.12526
1.97915
1.68461
1.45556
1.40296
1.40006
1.40001
1.40001
1.40001
1.40001
1.40001
1.40001
1.40001
1.40001
1.40001
1.40001
1.40001
1.40001
0.0612539
0.143471
0.284842
0.565275
0.921884
1.26631
1.60808
1.8621
2.02602
2.11102
2.14673
2.15264
2.14634
2.14674
2.16294
2.14822
2.14243
2.09053
1.90319
1.59148
1.42264
1.40078
1.40002
1.40001
1.40001
1.40001
1.40001
1.40001
1.40001
1.40001
1.40001
1.40001
1.40001
1.40001
1.40001
0.0282186
0.136511
0.447995
0.843673
1.23175
1.59475
1.853
2.01968
2.1074
2.14301
2.15526
2.15301
2.14492
2.14671
2.16482
2.14897
2.14405
2.06118
1.79776
1.49174
1.40646
1.40016
1.40001
1.40001
1.40001
1.40001
1.40001
1.40001
1.40001
1.40001
1.40001
1.40001
1.40001
1.40001
1.40001
0.0237626
0.245433
0.744932
1.20391
1.58721
1.86309
2.02709
2.10871
2.14164
2.15329
2.15623
2.15117
2.14461
2.14755
2.16628
2.15327
2.1396
1.99505
1.63132
1.43122
1.40135
1.40003
1.40001
1.40001
1.40001
1.40001
1.40001
1.40001
1.40001
1.40001
1.40001
1.40001
1.40001
1.40001
1.40001
0.16163
0.631678
1.15614
1.59639
1.89315
2.04731
2.116
2.14172
2.15107
2.15561
2.15556
2.1489
2.14458
2.15078
2.16715
2.15343
2.08174
1.81782
1.51091
1.40932
1.40024
1.40001
1.40001
1.40001
1.40001
1.40001
1.40001
1.40001
1.40001
1.40001
1.40001
1.40001
1.40001
1.40001
1.40001
0.507425
1.0772
1.63745
1.94679
2.08162
2.13084
2.14435
2.14863
2.15235
2.15584
2.15503
2.14781
2.14582
2.15488
2.16503
2.12687
1.99634
1.68111
1.44817
1.40213
1.40004
1.40001
1.40001
1.40001
1.40001
1.40001
1.40001
1.40001
1.40001
1.40001
1.40001
1.40001
1.40001
1.40001
1.40001
1.20932
1.71437
2.01218
2.11589
2.14423
2.14927
2.14851
2.14887
2.15202
2.15593
2.1548
2.14835
2.14714
2.15815
2.15841
2.08675
1.89775
1.55084
1.41191
1.4002
1.40001
1.40001
1.40001
1.40001
1.40001
1.40001
1.40001
1.40001
1.40001
1.40001
1.40001
1.40001
1.40001
1.40001
1.40001
2.14971
2.15116
2.15307
2.15418
2.1531
2.15016
2.1474
2.14781
2.15244
2.15743
2.15586
2.15046
2.14789
2.15916
2.14982
2.03736
1.73846
1.43709
1.3995
1.39994
1.4
1.40001
1.40001
1.40001
1.40001
1.40001
1.40001
1.40001
1.40001
1.40001
1.40001
1.40001
1.40001
1.40001
1.40001
2.14744
2.14998
2.15264
2.15437
2.15378
2.15089
2.14665
2.14614
2.15003
2.15874
2.16007
2.15543
2.14441
2.14819
2.14882
2.02728
1.67681
1.44107
1.40138
1.40002
1.40001
1.40001
1.40001
1.40001
1.40001
1.40001
1.40001
1.40001
1.40001
1.40001
1.40001
1.40001
1.40001
1.40001
1.40001
2.14662
2.14831
2.15155
2.15405
2.1538
2.15149
2.14696
2.1459
2.14849
2.15817
2.16092
2.16034
2.14237
2.13652
2.1285
1.94947
1.59301
1.41457
1.40021
1.40001
1.40001
1.40001
1.40001
1.40001
1.40001
1.40001
1.40001
1.40001
1.40001
1.40001
1.40001
1.40001
1.40001
1.40001
1.40001
2.14671
2.1478
2.15012
2.15223
2.15294
2.15173
2.1477
2.14597
2.14752
2.15568
2.16114
2.16291
2.14312
2.1227
2.11329
1.89746
1.52994
1.40676
1.40008
1.40001
1.40001
1.40001
1.40001
1.40001
1.40001
1.40001
1.40001
1.40001
1.40001
1.40001
1.40001
1.40001
1.40001
1.40001
1.40001
2.14752
2.14781
2.14915
2.15002
2.15135
2.15175
2.14975
2.14751
2.14732
2.15187
2.15976
2.16379
2.15073
2.11996
2.09605
1.80695
1.475
1.40267
1.40003
1.40001
1.40001
1.40001
1.40001
1.40001
1.40001
1.40001
1.40001
1.40001
1.40001
1.40001
1.40001
1.40001
1.40001
1.40001
1.40001
2.15114
2.14967
2.14882
2.14855
2.14961
2.15171
2.1528
2.15078
2.1478
2.14765
2.15502
2.16314
2.15553
2.12093
2.05501
1.70608
1.4416
1.40102
1.40001
1.40001
1.40001
1.40001
1.40001
1.40001
1.40001
1.40001
1.40001
1.40001
1.40001
1.40001
1.40001
1.40001
1.40001
1.40001
1.40001
2.1549
2.1522
2.14924
2.14781
2.14811
2.15182
2.15499
2.15471
2.14912
2.14513
2.15046
2.16311
2.15767
2.10981
1.9799
1.62114
1.41967
1.40033
1.40001
1.40001
1.40001
1.40001
1.40001
1.40001
1.40001
1.40001
1.40001
1.40001
1.40001
1.40001
1.40001
1.40001
1.40001
1.40001
1.40001
2.15658
2.15372
2.15018
2.14752
2.14717
2.15119
2.15616
2.15707
2.15155
2.14361
2.14592
2.1633
2.15845
2.09849
1.90919
1.5497
1.40882
1.40011
1.40001
1.40001
1.40001
1.40001
1.40001
1.40001
1.40001
1.40001
1.40001
1.40001
1.40001
1.40001
1.40001
1.40001
1.40001
1.40001
1.40001
2.15691
2.15437
2.15108
2.14777
2.14677
2.15005
2.15629
2.1578
2.15371
2.14262
2.142
2.15842
2.15815
2.09319
1.82967
1.48959
1.40354
1.40004
1.40001
1.40001
1.40001
1.40001
1.40001
1.40001
1.40001
1.40001
1.40001
1.40001
1.40001
1.40001
1.40001
1.40001
1.40001
1.40001
1.40001
2.1558
2.15428
2.15148
2.1483
2.14706
2.14872
2.15467
2.15779
2.15558
2.14369
2.13894
2.15071
2.14876
2.04262
1.73222
1.44687
1.40125
1.40001
1.40001
1.40001
1.40001
1.40001
1.40001
1.40001
1.40001
1.40001
1.40001
1.40001
1.40001
1.40001
1.40001
1.40001
1.40001
1.40001
1.40001
2.15128
2.15207
2.15121
2.14996
2.14783
2.14772
2.15101
2.15593
2.15659
2.14813
2.1394
2.14732
2.13963
1.98284
1.64225
1.42347
1.40043
1.40001
1.40001
1.40001
1.40001
1.40001
1.40001
1.40001
1.40001
1.40001
1.40001
1.40001
1.40001
1.40001
1.40001
1.40001
1.40001
1.40001
1.40001
2.14732
2.14964
2.15101
2.15159
2.14913
2.14744
2.14666
2.15181
2.1561
2.15479
2.14516
2.14527
2.13552
1.92349
1.55823
1.4099
1.40013
1.40001
1.40001
1.40001
1.40001
1.40001
1.40001
1.40001
1.40001
1.40001
1.40001
1.40001
1.40001
1.40001
1.40001
1.40001
1.40001
1.40001
1.40001
2.14573
2.14848
2.15118
2.15306
2.15125
2.14729
2.14454
2.14677
2.15475
2.1616
2.15231
2.13322
2.10172
1.82922
1.4881
1.40359
1.40004
1.40001
1.40001
1.40001
1.40001
1.40001
1.40001
1.40001
1.40001
1.40001
1.40001
1.40001
1.40001
1.40001
1.40001
1.40001
1.40001
1.40001
1.40001
2.14554
2.14818
2.15122
2.15409
2.1531
2.14862
2.14385
2.14369
2.15287
2.16451
2.15774
2.11906
2.04354
1.73249
1.44853
1.4013
1.40001
1.40001
1.40001
1.40001
1.40001
1.40001
1.40001
1.40001
1.40001
1.40001
1.40001
1.40001
1.40001
1.40001
1.40001
1.40001
1.40001
1.40001
1.40001
2.14768
2.14877
2.15136
2.1543
2.15417
2.15136
2.14377
2.14185
2.14967
2.16557
2.15953
2.11192
1.99441
1.6426
1.42267
1.4004
1.40001
1.40001
1.40001
1.40001
1.40001
1.40001
1.40001
1.40001
1.40001
1.40001
1.40001
1.40001
1.40001
1.40001
1.40001
1.40001
1.40001
1.40001
1.40001
2.15268
2.15099
2.15147
2.15332
2.15421
2.15323
2.14612
2.1414
2.14642
2.16296
2.15757
2.10293
1.92247
1.54636
1.40873
1.40011
1.40001
1.40001
1.40001
1.40001
1.40001
1.40001
1.40001
1.40001
1.40001
1.40001
1.40001
1.40001
1.40001
1.40001
1.40001
1.40001
1.40001
1.40001
1.40001
2.15617
2.15298
2.15118
2.15148
2.15375
2.15393
2.14865
2.14345
2.14556
2.15966
2.15137
2.06328
1.81621
1.48438
1.40331
1.40003
1.40001
1.40001
1.40001
1.40001
1.40001
1.40001
1.40001
1.40001
1.40001
1.40001
1.40001
1.40001
1.40001
1.40001
1.40001
1.40001
1.40001
1.40001
1.40001
2.15766
2.15375
2.15042
2.14835
2.15128
2.15402
2.1524
2.14746
2.14606
2.15945
2.1503
2.02957
1.71641
1.44229
1.40103
1.40001
1.40001
1.40001
1.40001
1.40001
1.40001
1.40001
1.40001
1.40001
1.40001
1.40001
1.40001
1.40001
1.40001
1.40001
1.40001
1.40001
1.40001
1.40001
1.40001
2.15782
2.15385
2.14908
2.14595
2.14696
2.152
2.15457
2.15253
2.1442
2.14882
2.14656
1.98157
1.60527
1.4167
1.40028
1.40001
1.40001
1.40001
1.40001
1.40001
1.40001
1.40001
1.40001
1.40001
1.40001
1.40001
1.40001
1.40001
1.40001
1.40001
1.40001
1.40001
1.40001
1.40001
1.40001
2.15497
2.15243
2.14837
2.14515
2.14377
2.14877
2.15487
2.15872
2.14274
2.12911
2.11222
1.87796
1.52317
1.40645
1.40008
1.40001
1.40001
1.40001
1.40001
1.40001
1.40001
1.40001
1.40001
1.40001
1.40001
1.40001
1.40001
1.40001
1.40001
1.40001
1.40001
1.40001
1.40001
1.40001
1.40001
2.15022
2.15066
2.14834
2.14527
2.14218
2.14441
2.15341
2.1616
2.15272
2.11954
2.07284
1.78551
1.46683
1.40213
1.40002
1.40001
1.40001
1.40001
1.40001
1.40001
1.40001
1.40001
1.40001
1.40001
1.40001
1.40001
1.40001
1.40001
1.40001
1.40001
1.40001
1.40001
1.40001
1.40001
1.40001
2.14684
2.14961
2.14957