/*--------------------------------*- C++ -*----------------------------------*\
  =========                 |
  \\      /  F ield         | OpenFOAM: The Open Source CFD Toolbox
   \\    /   O peration     | Website:  https://openfoam.org
    \\  /    A nd           | Version:  7
     \\/     M anipulation  |
\*---------------------------------------------------------------------------*/
FoamFile
{
    version     2.0;
    format      ascii;
    class       volVectorField;
    location    "12.5";
    object      U;
}
// * * * * * * * * * * * * * * * * * * * * * * * * * * * * * * * * * * * * * //

dimensions      [0 1 -1 0 0 0 0];

internalField   nonuniform List<vector> 
90000
(
(3.07638 -1.09448 0)
(3.02304 -0.978641 0)
(2.98653 -0.836228 0)
(2.97086 -0.793186 0)
(2.96477 -0.74504 0)
(2.94159 -0.606243 0)
(2.94718 -0.553583 0)
(2.95233 -0.517153 0)
(2.95193 -0.470199 0)
(2.94662 -0.38082 0)
(2.95492 -0.357491 0)
(2.95314 -0.297494 0)
(2.95835 -0.267233 0)
(2.95386 -0.198178 0)
(2.96121 -0.180793 0)
(2.95457 -0.115619 0)
(2.96094 -0.0994546 0)
(2.95528 -0.0387785 0)
(2.95996 -0.0301327 0)
(2.95165 0.0170691 0)
(2.94949 0.0173342 0)
(2.94253 0.0428766 0)
(2.9427 0.0375643 0)
(2.93342 0.0447436 0)
(2.92964 0.0471435 0)
(2.92729 0.0495145 0)
(2.9271 0.0483469 0)
(2.9267 0.047124 0)
(2.92673 0.0465448 0)
(2.92546 0.0463788 0)
(2.92555 0.0511423 0)
(2.92497 0.0557013 0)
(2.92185 0.0602818 0)
(2.91864 0.0644601 0)
(2.91605 0.0671041 0)
(2.91363 0.0672512 0)
(2.91057 0.0682856 0)
(2.90728 0.0663077 0)
(2.90463 0.0680395 0)
(2.90535 0.0671702 0)
(2.90356 0.0593447 0)
(2.90352 0.0550962 0)
(2.90046 0.0492136 0)
(2.89771 0.0455799 0)
(2.89467 0.0393875 0)
(2.89314 0.0392963 0)
(2.89067 0.0335901 0)
(2.8916 0.0342254 0)
(2.8931 0.0358802 0)
(2.89691 0.0456114 0)
(2.89898 0.0506924 0)
(2.90116 0.0602659 0)
(2.90125 0.0585718 0)
(2.90042 0.0557699 0)
(2.8989 0.0526041 0)
(2.89705 0.0491516 0)
(2.895 0.0450288 0)
(2.89313 0.0421665 0)
(2.8932 0.0430015 0)
(2.89458 0.0476798 0)
(2.89551 0.05209 0)
(2.90019 0.0594782 0)
(2.90114 0.0604104 0)
(2.90157 0.0580268 0)
(2.90117 0.0553464 0)
(2.89981 0.0480496 0)
(2.90016 0.0488897 0)
(2.90102 0.050244 0)
(2.9024 0.051997 0)
(2.90544 0.0543547 0)
(2.90599 0.0541114 0)
(2.90586 0.0525341 0)
(2.90495 0.0488312 0)
(2.90594 0.0493478 0)
(2.90691 0.0501028 0)
(2.90868 0.0517449 0)
(2.90931 0.0523746 0)
(2.90951 0.0505791 0)
(2.90906 0.0481251 0)
(2.91052 0.0490187 0)
(2.91202 0.0512523 0)
(2.9139 0.0545218 0)
(2.91488 0.0549432 0)
(2.91554 0.053259 0)
(2.91625 0.0508522 0)
(2.91739 0.0515784 0)
(2.9186 0.0523046 0)
(2.91982 0.0523211 0)
(2.92103 0.0523033 0)
(2.92226 0.0524613 0)
(2.92347 0.052858 0)
(2.92458 0.0532532 0)
(2.92567 0.0534228 0)
(2.92687 0.0538139 0)
(2.92803 0.0544491 0)
(2.92901 0.0543872 0)
(2.92979 0.0538196 0)
(2.93053 0.0534009 0)
(2.93113 0.052366 0)
(2.93204 0.0505782 0)
(3.13257 -1.18489 0)
(3.13245 -1.18476 0)
(3.13235 -1.18463 0)
(3.13225 -1.18457 0)
(3.13213 -1.18444 0)
(3.13198 -1.18426 0)
(3.13181 -1.18414 0)
(3.13162 -1.18407 0)
(3.13136 -1.18385 0)
(3.13031 -1.18122 0)
(3.12787 -1.17656 0)
(3.12335 -1.16612 0)
(3.1169 -1.15069 0)
(3.10791 -1.12196 0)
(3.09767 -1.09139 0)
(3.08283 -1.03599 0)
(3.06788 -0.983946 0)
(3.04705 -0.892165 0)
(3.03122 -0.822773 0)
(3.00588 -0.699921 0)
(2.99136 -0.625127 0)
(2.96244 -0.486665 0)
(2.95481 -0.423244 0)
(2.92809 -0.292328 0)
(2.93047 -0.250789 0)
(2.90749 -0.14559 0)
(2.91341 -0.118785 0)
(2.89314 -0.0384291 0)
(2.89839 -0.0232318 0)
(2.88454 0.0313137 0)
(2.88673 0.0381929 0)
(2.8794 0.0672718 0)
(2.87733 0.0769076 0)
(2.8734 0.0938894 0)
(2.87369 0.0972357 0)
(2.86858 0.112435 0)
(2.86539 0.118924 0)
(2.86843 0.120172 0)
(2.8675 0.112712 0)
(2.86793 0.101017 0)
(2.86518 0.0783818 0)
(2.87144 0.0626375 0)
(2.86813 0.0448827 0)
(2.8701 0.040492 0)
(2.87085 0.0329174 0)
(2.87322 0.0320696 0)
(2.8743 0.0345722 0)
(2.87794 0.0450188 0)
(2.88033 0.0603531 0)
(2.88019 0.0698932 0)
(2.87741 0.078242 0)
(2.87437 0.0781774 0)
(2.86978 0.0739401 0)
(2.86677 0.0688705 0)
(2.86348 0.0605646 0)
(2.86286 0.055813 0)
(2.86437 0.0503275 0)
(2.86605 0.0511696 0)
(2.86906 0.053758 0)
(2.87259 0.0572339 0)
(2.87544 0.0596616 0)
(2.87585 0.0587876 0)
(2.87579 0.0557768 0)
(2.87458 0.05106 0)
(2.87387 0.0476936 0)
(2.87443 0.0480246 0)
(2.87569 0.051877 0)
(2.87734 0.0542731 0)
(2.8815 0.0597689 0)
(2.88213 0.0596552 0)
(2.88155 0.0549602 0)
(2.88099 0.0515204 0)
(2.881 0.0477581 0)
(2.88363 0.0508807 0)
(2.88493 0.0548156 0)
(2.88657 0.0565952 0)
(2.88722 0.0553548 0)
(2.88683 0.0526716 0)
(2.88783 0.0474887 0)
(2.8895 0.0484619 0)
(2.89184 0.0513302 0)
(2.89363 0.0519764 0)
(2.89488 0.050702 0)
(2.89567 0.0497598 0)
(2.89692 0.0511578 0)
(2.8988 0.0518373 0)
(2.90058 0.0518285 0)
(2.90218 0.0524219 0)
(2.90392 0.0527097 0)
(2.90569 0.053686 0)
(2.90745 0.0540759 0)
(2.90909 0.0531692 0)
(2.91086 0.0527991 0)
(2.91266 0.0531958 0)
(2.9144 0.0537815 0)
(2.91595 0.0533809 0)
(2.91736 0.052467 0)
(2.91877 0.0520112 0)
(2.91996 0.0514578 0)
(2.92183 0.0506997 0)
(3.12887 -1.18287 0)
(3.12856 -1.18279 0)
(3.12826 -1.18262 0)
(3.12789 -1.18254 0)
(3.12755 -1.18234 0)
(3.12714 -1.18231 0)
(3.12678 -1.18206 0)
(3.12631 -1.18204 0)
(3.12595 -1.18176 0)
(3.12533 -1.18177 0)
(3.12508 -1.18158 0)
(3.12487 -1.18134 0)
(3.12463 -1.1812 0)
(3.12437 -1.18098 0)
(3.12406 -1.18088 0)
(3.12377 -1.18065 0)
(3.12341 -1.18058 0)
(3.12311 -1.18029 0)
(3.12268 -1.18031 0)
(3.12236 -1.17995 0)
(3.12198 -1.18014 0)
(3.11997 -1.17649 0)
(3.11493 -1.16562 0)
(3.1035 -1.13626 0)
(3.08847 -1.09451 0)
(3.06621 -1.02079 0)
(3.04541 -0.948235 0)
(3.01801 -0.834115 0)
(2.99938 -0.750697 0)
(2.97116 -0.610691 0)
(2.96192 -0.541998 0)
(2.93506 -0.403516 0)
(2.93374 -0.354663 0)
(2.90899 -0.237188 0)
(2.90744 -0.199061 0)
(2.88716 -0.109228 0)
(2.88476 -0.0898253 0)
(2.87436 -0.0371421 0)
(2.87217 -0.0263613 0)
(2.86674 -0.0106521 0)
(2.86678 0.00373367 0)
(2.86114 0.0181516 0)
(2.86426 0.028447 0)
(2.86328 0.0312564 0)
(2.86301 0.036644 0)
(2.86064 0.040385 0)
(2.85668 0.0570388 0)
(2.8522 0.0575695 0)
(2.85321 0.0695474 0)
(2.85079 0.0685237 0)
(2.84583 0.064025 0)
(2.84301 0.0594586 0)
(2.84107 0.0525927 0)
(2.84165 0.0488275 0)
(2.84201 0.0449855 0)
(2.84468 0.0427334 0)
(2.84673 0.044773 0)
(2.85121 0.0506803 0)
(2.85387 0.0554325 0)
(2.85581 0.062882 0)
(2.85503 0.0627869 0)
(2.85256 0.0597522 0)
(2.85029 0.0547933 0)
(2.84884 0.0492136 0)
(2.85151 0.0435488 0)
(2.8531 0.0456155 0)
(2.85483 0.0488668 0)
(2.85846 0.0551227 0)
(2.8592 0.0544822 0)
(2.8576 0.0533793 0)
(2.85615 0.0510452 0)
(2.85735 0.0458602 0)
(2.85864 0.0466396 0)
(2.86203 0.0497609 0)
(2.86331 0.0516897 0)
(2.8639 0.0507054 0)
(2.86355 0.047386 0)
(2.86322 0.0452162 0)
(2.86595 0.0495393 0)
(2.86829 0.0523728 0)
(2.87017 0.0550959 0)
(2.87206 0.0561291 0)
(2.87315 0.0546616 0)
(2.87384 0.050675 0)
(2.87571 0.0501674 0)
(2.8777 0.0516814 0)
(2.87978 0.0522813 0)
(2.88161 0.0510495 0)
(2.8836 0.0515643 0)
(2.88567 0.0515651 0)
(2.88771 0.0516293 0)
(2.88969 0.0526086 0)
(2.89193 0.0534283 0)
(2.89419 0.0541915 0)
(2.89642 0.0540914 0)
(2.89839 0.0539547 0)
(2.90035 0.053216 0)
(2.90236 0.0515712 0)
(2.90407 0.0513196 0)
(2.90684 0.0500709 0)
(3.12369 -1.18115 0)
(3.12343 -1.181 0)
(3.12313 -1.1809 0)
(3.12283 -1.18079 0)
(3.12253 -1.18067 0)
(3.12221 -1.18058 0)
(3.12189 -1.18045 0)
(3.12157 -1.18034 0)
(3.12125 -1.18019 0)
(3.12094 -1.18006 0)
(3.12064 -1.17989 0)
(3.12032 -1.17977 0)
(3.12002 -1.17963 0)
(3.11971 -1.17953 0)
(3.11941 -1.17938 0)
(3.1191 -1.17928 0)
(3.1188 -1.17915 0)
(3.1185 -1.17903 0)
(3.11823 -1.17893 0)
(3.11795 -1.17882 0)
(3.11771 -1.17874 0)
(3.11747 -1.1786 0)
(3.11736 -1.17844 0)
(3.11726 -1.17836 0)
(3.11717 -1.17822 0)
(3.11703 -1.17823 0)
(3.11694 -1.1781 0)
(3.11677 -1.1782 0)
(3.11673 -1.17799 0)
(3.11658 -1.17821 0)
(3.11476 -1.17389 0)
(3.10707 -1.15274 0)
(3.0948 -1.11619 0)
(3.07277 -1.03927 0)
(3.05074 -0.961729 0)
(3.0169 -0.817836 0)
(2.99539 -0.719141 0)
(2.95243 -0.529802 0)
(2.94448 -0.446369 0)
(2.89685 -0.256271 0)
(2.9074 -0.195862 0)
(2.86601 -0.0519721 0)
(2.87522 -0.0149111 0)
(2.84413 0.0682762 0)
(2.84245 0.092101 0)
(2.83034 0.129933 0)
(2.82688 0.130871 0)
(2.82327 0.12128 0)
(2.82767 0.0980094 0)
(2.82961 0.070363 0)
(2.8354 0.0569028 0)
(2.83746 0.0498319 0)
(2.83779 0.045984 0)
(2.8395 0.0433744 0)
(2.84016 0.0432675 0)
(2.84174 0.0459353 0)
(2.84436 0.0533133 0)
(2.84572 0.0632122 0)
(2.84536 0.0631689 0)
(2.8445 0.0620521 0)
(2.84176 0.057841 0)
(2.83865 0.0508209 0)
(2.83534 0.0447242 0)
(2.83579 0.0472922 0)
(2.83802 0.0494373 0)
(2.8418 0.0546462 0)
(2.84432 0.0593657 0)
(2.84416 0.0589769 0)
(2.84353 0.0578102 0)
(2.84175 0.0493238 0)
(2.84029 0.0456438 0)
(2.84215 0.0492519 0)
(2.84441 0.0518891 0)
(2.84787 0.0560771 0)
(2.84767 0.0558162 0)
(2.84623 0.0536383 0)
(2.84534 0.0495553 0)
(2.84688 0.0457273 0)
(2.8491 0.0478126 0)
(2.85257 0.0514371 0)
(2.8533 0.0514482 0)
(2.85402 0.0496276 0)
(2.85482 0.049156 0)
(2.85557 0.0503795 0)
(2.85748 0.0514699 0)
(2.85924 0.0512284 0)
(2.8609 0.0516623 0)
(2.86245 0.053124 0)
(2.8644 0.0531059 0)
(2.86619 0.0540647 0)
(2.86803 0.0533534 0)
(2.87005 0.0520731 0)
(2.87233 0.0518819 0)
(2.87465 0.0525283 0)
(2.87689 0.0524077 0)
(2.87898 0.0511573 0)
(2.88101 0.0516158 0)
(2.88323 0.0525293 0)
(2.88512 0.0508984 0)
(2.88839 0.0494792 0)
(3.11958 -1.17913 0)
(3.11941 -1.17906 0)
(3.11924 -1.17898 0)
(3.11907 -1.1789 0)
(3.1189 -1.17883 0)
(3.11872 -1.17877 0)
(3.11854 -1.17868 0)
(3.11837 -1.17861 0)
(3.1182 -1.17851 0)
(3.11803 -1.17844 0)
(3.11787 -1.17836 0)
(3.1177 -1.1783 0)
(3.11755 -1.17823 0)
(3.11741 -1.17816 0)
(3.11726 -1.1781 0)
(3.11713 -1.17802 0)
(3.11698 -1.17797 0)
(3.11684 -1.17794 0)
(3.11672 -1.17788 0)
(3.11658 -1.17788 0)
(3.11646 -1.17783 0)
(3.11636 -1.17777 0)
(3.11624 -1.17778 0)
(3.11614 -1.17776 0)
(3.11603 -1.17776 0)
(3.11595 -1.17774 0)
(3.11585 -1.17777 0)
(3.11574 -1.17784 0)
(3.1157 -1.17778 0)
(3.11562 -1.17778 0)
(3.11559 -1.17782 0)
(3.11558 -1.17778 0)
(3.11556 -1.17774 0)
(3.11555 -1.17767 0)
(3.11548 -1.17772 0)
(3.11545 -1.17768 0)
(3.11541 -1.17768 0)
(3.11431 -1.17497 0)
(3.10859 -1.15842 0)
(3.08938 -1.10231 0)
(3.06597 -1.01771 0)
(3.0292 -0.868812 0)
(3.00401 -0.738971 0)
(2.96431 -0.538856 0)
(2.95588 -0.439511 0)
(2.92029 -0.262652 0)
(2.92136 -0.200683 0)
(2.88675 -0.096145 0)
(2.89231 -0.0665744 0)
(2.86286 -0.0140965 0)
(2.86394 -0.00238212 0)
(2.85376 0.0167438 0)
(2.85237 0.0259818 0)
(2.84935 0.0377504 0)
(2.84516 0.0484396 0)
(2.83698 0.0609872 0)
(2.83702 0.0732154 0)
(2.83383 0.0724611 0)
(2.82966 0.0646849 0)
(2.82877 0.0528822 0)
(2.82622 0.041168 0)
(2.82914 0.03775 0)
(2.83037 0.0387495 0)
(2.83296 0.0445553 0)
(2.83591 0.0528292 0)
(2.8383 0.0587911 0)
(2.83862 0.0590813 0)
(2.83753 0.0565703 0)
(2.83473 0.050242 0)
(2.83437 0.0431913 0)
(2.83492 0.0432828 0)
(2.83735 0.0478025 0)
(2.83995 0.053608 0)
(2.8403 0.0542994 0)
(2.84004 0.0525067 0)
(2.83854 0.0464068 0)
(2.83776 0.0462267 0)
(2.83942 0.0485296 0)
(2.84153 0.0529871 0)
(2.84377 0.0553637 0)
(2.84326 0.0545337 0)
(2.84263 0.0511941 0)
(2.8439 0.0480318 0)
(2.84467 0.0492809 0)
(2.84574 0.0509414 0)
(2.84674 0.0512402 0)
(2.84792 0.0501158 0)
(2.84917 0.0502153 0)
(2.85035 0.0512868 0)
(2.8515 0.0505652 0)
(2.8528 0.0515559 0)
(2.8544 0.0530074 0)
(2.85629 0.0541141 0)
(2.85821 0.0537608 0)
(2.85978 0.0541175 0)
(2.86147 0.0533924 0)
(2.86307 0.050055 0)
(2.86506 0.0491513 0)
(2.86661 0.0500284 0)
(2.86968 0.0485357 0)
(3.11711 -1.17824 0)
(3.11705 -1.17819 0)
(3.11698 -1.17818 0)
(3.11691 -1.17813 0)
(3.11683 -1.1781 0)
(3.11675 -1.17808 0)
(3.11668 -1.17805 0)
(3.1166 -1.17804 0)
(3.11653 -1.178 0)
(3.11646 -1.17798 0)
(3.11639 -1.17795 0)
(3.11632 -1.17793 0)
(3.11625 -1.17791 0)
(3.11617 -1.17791 0)
(3.1161 -1.17789 0)
(3.11603 -1.17788 0)
(3.11596 -1.17788 0)
(3.11588 -1.17788 0)
(3.11582 -1.17786 0)
(3.11574 -1.17788 0)
(3.11568 -1.17787 0)
(3.11562 -1.17786 0)
(3.11557 -1.17784 0)
(3.1155 -1.17787 0)
(3.11547 -1.17783 0)
(3.11543 -1.17782 0)
(3.11537 -1.17785 0)
(3.11531 -1.17788 0)
(3.11528 -1.17788 0)
(3.11526 -1.17784 0)
(3.11522 -1.17786 0)
(3.11519 -1.17788 0)
(3.11517 -1.17781 0)
(3.11513 -1.17776 0)
(3.11508 -1.17776 0)
(3.11507 -1.17776 0)
(3.11502 -1.17765 0)
(3.11502 -1.1776 0)
(3.11503 -1.17752 0)
(3.11505 -1.17748 0)
(3.11503 -1.17747 0)
(3.11502 -1.17739 0)
(3.11497 -1.17746 0)
(3.11339 -1.17256 0)
(3.10521 -1.14522 0)
(3.07818 -1.04545 0)
(3.05094 -0.92124 0)
(2.99308 -0.66329 0)
(2.98389 -0.529999 0)
(2.91982 -0.265452 0)
(2.9352 -0.202421 0)
(2.87957 -0.0285351 0)
(2.88144 0.00265032 0)
(2.85199 0.0784131 0)
(2.83495 0.0997278 0)
(2.83525 0.111551 0)
(2.82989 0.0917897 0)
(2.82811 0.0682485 0)
(2.83127 0.0597029 0)
(2.82607 0.0463509 0)
(2.82763 0.0446716 0)
(2.83209 0.0450622 0)
(2.83572 0.0485876 0)
(2.8371 0.054496 0)
(2.83931 0.0632146 0)
(2.83829 0.0629595 0)
(2.83529 0.0574488 0)
(2.83276 0.0494894 0)
(2.8307 0.0417339 0)
(2.83163 0.0423085 0)
(2.8358 0.0488459 0)
(2.83811 0.0544941 0)
(2.8391 0.0565485 0)
(2.83786 0.054387 0)
(2.83621 0.048556 0)
(2.83554 0.0422263 0)
(2.83633 0.0442084 0)
(2.8384 0.0496366 0)
(2.83988 0.0536675 0)
(2.84007 0.0539719 0)
(2.83918 0.0509707 0)
(2.83822 0.049604 0)
(2.83897 0.0500045 0)
(2.84054 0.0509827 0)
(2.84075 0.0513826 0)
(2.84058 0.0512744 0)
(2.84151 0.0517158 0)
(2.84235 0.0525825 0)
(2.84274 0.0528319 0)
(2.8433 0.0528977 0)
(2.84417 0.0509201 0)
(2.84521 0.0511701 0)
(2.84631 0.0517058 0)
(2.84748 0.0525651 0)
(2.84814 0.0503889 0)
(2.84884 0.0512763 0)
(2.84993 0.0527656 0)
(2.85108 0.0508638 0)
(2.85225 0.0491746 0)
(2.85443 0.0490654 0)
(3.11607 -1.17794 0)
(3.11605 -1.17792 0)
(3.11601 -1.17792 0)
(3.11598 -1.1779 0)
(3.11595 -1.17789 0)
(3.11592 -1.17789 0)
(3.11589 -1.17787 0)
(3.11586 -1.17787 0)
(3.11582 -1.17788 0)
(3.11579 -1.17785 0)
(3.11574 -1.17786 0)
(3.1157 -1.17785 0)
(3.11566 -1.17783 0)
(3.11561 -1.17784 0)
(3.11556 -1.17786 0)
(3.11552 -1.17786 0)
(3.11546 -1.17789 0)
(3.11542 -1.17788 0)
(3.11538 -1.17787 0)
(3.11531 -1.17789 0)
(3.11526 -1.17791 0)
(3.11524 -1.17785 0)
(3.11516 -1.17788 0)
(3.11511 -1.17792 0)
(3.11508 -1.17791 0)
(3.11508 -1.17784 0)
(3.11505 -1.17782 0)
(3.11502 -1.17782 0)
(3.115 -1.17781 0)
(3.11499 -1.17778 0)
(3.115 -1.17772 0)
(3.11499 -1.17772 0)
(3.11498 -1.1777 0)
(3.11496 -1.17758 0)
(3.11497 -1.17753 0)
(3.11497 -1.17747 0)
(3.11497 -1.17737 0)
(3.11497 -1.1773 0)
(3.11498 -1.17729 0)
(3.11499 -1.1773 0)
(3.11501 -1.17732 0)
(3.11498 -1.17744 0)
(3.11504 -1.17737 0)
(3.11499 -1.17746 0)
(3.11498 -1.1775 0)
(3.11492 -1.17762 0)
(3.11491 -1.17756 0)
(3.11488 -1.17776 0)
(3.11296 -1.17108 0)
(3.09386 -1.10905 0)
(3.06929 -1.00067 0)
(3.02232 -0.781234 0)
(3.00393 -0.634032 0)
(2.95279 -0.376869 0)
(2.9546 -0.295688 0)
(2.90699 -0.1177 0)
(2.91232 -0.0870674 0)
(2.86991 -0.0194468 0)
(2.87147 0.00540062 0)
(2.85414 0.0286132 0)
(2.85172 0.0458455 0)
(2.84773 0.0539127 0)
(2.84368 0.0685849 0)
(2.84061 0.0732611 0)
(2.8354 0.0675482 0)
(2.83089 0.0542039 0)
(2.82772 0.0419706 0)
(2.82851 0.032111 0)
(2.82991 0.0364397 0)
(2.83569 0.0476797 0)
(2.83858 0.0569419 0)
(2.83976 0.0598744 0)
(2.83816 0.0560059 0)
(2.8347 0.046352 0)
(2.8326 0.0380839 0)
(2.83419 0.0415457 0)
(2.83738 0.0488155 0)
(2.83964 0.0560752 0)
(2.83951 0.0560258 0)
(2.83822 0.0521107 0)
(2.83724 0.0469221 0)
(2.83758 0.0478813 0)
(2.83818 0.049479 0)
(2.83952 0.0514983 0)
(2.83944 0.0514058 0)
(2.83891 0.0507305 0)
(2.83923 0.0510398 0)
(2.84007 0.0517404 0)
(2.84031 0.0520722 0)
(2.84054 0.0517062 0)
(2.84072 0.0520787 0)
(2.84139 0.0527942 0)
(2.84175 0.0530453 0)
(2.84196 0.0526079 0)
(2.84217 0.0520684 0)
(2.84249 0.0497928 0)
(2.84286 0.0495589 0)
(2.84299 0.0503196 0)
(2.84365 0.0487113 0)
(2.84487 0.046937 0)
(3.11562 -1.17796 0)
(3.11561 -1.17795 0)
(3.11558 -1.17795 0)
(3.11556 -1.17795 0)
(3.11555 -1.17794 0)
(3.11551 -1.17797 0)
(3.11549 -1.17795 0)
(3.11546 -1.17796 0)
(3.11542 -1.17797 0)
(3.1154 -1.17794 0)
(3.11535 -1.17794 0)
(3.11531 -1.17794 0)
(3.11528 -1.17792 0)
(3.11522 -1.17795 0)
(3.11518 -1.17795 0)
(3.11515 -1.17793 0)
(3.11511 -1.17795 0)
(3.11507 -1.17793 0)
(3.11505 -1.17786 0)
(3.11501 -1.17786 0)
(3.11496 -1.17785 0)
(3.11493 -1.17779 0)
(3.1149 -1.17775 0)
(3.11486 -1.17775 0)
(3.11483 -1.17777 0)
(3.11482 -1.17775 0)
(3.11482 -1.17766 0)
(3.11482 -1.17761 0)
(3.11481 -1.17764 0)
(3.11482 -1.17762 0)
(3.11483 -1.17754 0)
(3.11485 -1.1775 0)
(3.11486 -1.17748 0)
(3.11487 -1.17738 0)
(3.11489 -1.17734 0)
(3.11491 -1.1773 0)
(3.11493 -1.1773 0)
(3.11495 -1.17733 0)
(3.11497 -1.17742 0)
(3.11505 -1.17741 0)
(3.1151 -1.17752 0)
(3.11519 -1.17751 0)
(3.11526 -1.17752 0)
(3.1153 -1.17754 0)
(3.11528 -1.17771 0)
(3.11532 -1.17773 0)
(3.11534 -1.17781 0)
(3.11541 -1.17795 0)
(3.11541 -1.17796 0)
(3.11547 -1.17796 0)
(3.11573 -1.17801 0)
(3.11591 -1.17803 0)
(3.11608 -1.17801 0)
(3.10335 -1.13307 0)
(3.08239 -1.03147 0)
(3.02223 -0.765542 0)
(3.01086 -0.588752 0)
(2.93251 -0.265201 0)
(2.95234 -0.18732 0)
(2.88544 0.00885415 0)
(2.88209 0.0389034 0)
(2.8518 0.103674 0)
(2.84254 0.104034 0)
(2.83448 0.0826876 0)
(2.83776 0.0636979 0)
(2.83295 0.0444618 0)
(2.83343 0.042704 0)
(2.83356 0.0403568 0)
(2.84219 0.0524533 0)
(2.84407 0.0627834 0)
(2.84294 0.0625814 0)
(2.83894 0.0572761 0)
(2.83464 0.047535 0)
(2.83222 0.0402451 0)
(2.83306 0.0416028 0)
(2.83847 0.0514322 0)
(2.8395 0.0562193 0)
(2.83986 0.0584496 0)
(2.83786 0.0538566 0)
(2.83621 0.0476947 0)
(2.83636 0.0470626 0)
(2.83765 0.0490368 0)
(2.83871 0.0520497 0)
(2.83885 0.0524873 0)
(2.83838 0.0510772 0)
(2.83816 0.0501126 0)
(2.83848 0.0514492 0)
(2.83933 0.0526901 0)
(2.83934 0.0519787 0)
(2.8395 0.0510482 0)
(2.8397 0.0515169 0)
(2.84032 0.0526122 0)
(2.84046 0.0527839 0)
(2.8403 0.0521901 0)
(2.8404 0.0512284 0)
(2.84051 0.0506627 0)
(2.84029 0.0496006 0)
(2.84026 0.0487849 0)
(2.84007 0.0488622 0)
(2.84032 0.0477426 0)
(3.11539 -1.17777 0)
(3.11538 -1.17775 0)
(3.11535 -1.17776 0)
(3.11533 -1.17775 0)
(3.11531 -1.17773 0)
(3.11527 -1.17774 0)
(3.11525 -1.17772 0)
(3.11521 -1.17771 0)
(3.11517 -1.17772 0)
(3.11514 -1.17769 0)
(3.11509 -1.17771 0)
(3.11505 -1.1777 0)
(3.11502 -1.17766 0)
(3.11497 -1.17767 0)
(3.11494 -1.17767 0)
(3.11493 -1.17766 0)
(3.11492 -1.17762 0)
(3.11491 -1.17759 0)
(3.11489 -1.17755 0)
(3.11487 -1.17748 0)
(3.11485 -1.17746 0)
(3.11481 -1.17745 0)
(3.11478 -1.17745 0)
(3.11477 -1.17743 0)
(3.11476 -1.17739 0)
(3.11476 -1.17737 0)
(3.11477 -1.17735 0)
(3.11478 -1.1773 0)
(3.11481 -1.17727 0)
(3.11482 -1.17729 0)
(3.11485 -1.17727 0)
(3.11488 -1.17723 0)
(3.1149 -1.17723 0)
(3.11492 -1.1772 0)
(3.11495 -1.17718 0)
(3.11498 -1.1772 0)
(3.11505 -1.17719 0)
(3.11511 -1.17728 0)
(3.11517 -1.17742 0)
(3.11527 -1.17755 0)
(3.1154 -1.17767 0)
(3.11554 -1.17767 0)
(3.11568 -1.17763 0)
(3.11571 -1.17779 0)
(3.11578 -1.17785 0)
(3.11586 -1.17787 0)
(3.11588 -1.17801 0)
(3.11589 -1.17806 0)
(3.11593 -1.1781 0)
(3.11601 -1.17816 0)
(3.11618 -1.17822 0)
(3.11641 -1.17831 0)
(3.11657 -1.1783 0)
(3.11669 -1.17821 0)
(3.11691 -1.17805 0)
(3.11703 -1.17821 0)
(3.11672 -1.17657 0)
(3.09674 -1.10953 0)
(3.06899 -0.965511 0)
(3.01265 -0.686645 0)
(2.99771 -0.507473 0)
(2.93363 -0.225749 0)
(2.92976 -0.151092 0)
(2.87949 -0.0509436 0)
(2.88545 -0.0162957 0)
(2.8622 0.0162926 0)
(2.85792 0.03966 0)
(2.85178 0.0563273 0)
(2.84698 0.0723143 0)
(2.84185 0.070595 0)
(2.8348 0.0571354 0)
(2.83026 0.0409682 0)
(2.8297 0.02919 0)
(2.8315 0.0343717 0)
(2.8371 0.0481955 0)
(2.84171 0.0608224 0)
(2.84018 0.0595108 0)
(2.83837 0.0541376 0)
(2.83456 0.0451419 0)
(2.83539 0.0434191 0)
(2.83672 0.0474902 0)
(2.83809 0.0518278 0)
(2.83869 0.053808 0)
(2.83744 0.0513602 0)
(2.83708 0.0494139 0)
(2.83783 0.0504183 0)
(2.8387 0.0531623 0)
(2.83872 0.0528979 0)
(2.8382 0.0509916 0)
(2.83833 0.0510557 0)
(2.8391 0.0522611 0)
(2.83988 0.0532923 0)
(2.83987 0.0527693 0)
(2.83955 0.051158 0)
(2.8398 0.0500251 0)
(2.83974 0.0502492 0)
(2.83946 0.0493409 0)
(2.83937 0.0481282 0)
(2.83924 0.0479886 0)
(2.83909 0.0472343 0)
(3.11506 -1.17766 0)
(3.11504 -1.17765 0)
(3.11502 -1.17765 0)
(3.115 -1.17764 0)
(3.11497 -1.17763 0)
(3.11494 -1.17763 0)
(3.11492 -1.1776 0)
(3.11489 -1.17759 0)
(3.11487 -1.17759 0)
(3.11485 -1.17757 0)
(3.11484 -1.17753 0)
(3.11481 -1.17754 0)
(3.11479 -1.17753 0)
(3.11478 -1.17748 0)
(3.11478 -1.17747 0)
(3.11479 -1.17746 0)
(3.11484 -1.17742 0)
(3.11486 -1.1774 0)
(3.11487 -1.17738 0)
(3.11486 -1.17732 0)
(3.11487 -1.17727 0)
(3.11487 -1.17724 0)
(3.11486 -1.17725 0)
(3.11485 -1.17726 0)
(3.11485 -1.17726 0)
(3.11486 -1.17725 0)
(3.11487 -1.17725 0)
(3.11489 -1.17725 0)
(3.11492 -1.17725 0)
(3.11494 -1.17727 0)
(3.11497 -1.17728 0)
(3.11501 -1.17728 0)
(3.11503 -1.17731 0)
(3.11504 -1.17735 0)
(3.11506 -1.17743 0)
(3.1151 -1.17751 0)
(3.11518 -1.17758 0)
(3.1153 -1.17767 0)
(3.11543 -1.17779 0)
(3.11557 -1.178 0)
(3.11576 -1.17808 0)
(3.11597 -1.17797 0)
(3.11615 -1.17794 0)
(3.11626 -1.178 0)
(3.11637 -1.17802 0)
(3.11642 -1.1781 0)
(3.11642 -1.17823 0)
(3.11641 -1.17829 0)
(3.11642 -1.17833 0)
(3.11646 -1.1784 0)
(3.11653 -1.17851 0)
(3.11672 -1.17863 0)
(3.11681 -1.17866 0)
(3.11692 -1.17862 0)
(3.11702 -1.17847 0)
(3.11727 -1.17832 0)
(3.11748 -1.17836 0)
(3.11753 -1.17863 0)
(3.11755 -1.17874 0)
(3.11759 -1.17877 0)
(3.11284 -1.15941 0)
(3.07514 -1.01312 0)
(3.04067 -0.794895 0)
(2.9495 -0.400782 0)
(2.96494 -0.262724 0)
(2.88881 -0.00668823 0)
(2.8789 0.0390879 0)
(2.86003 0.117633 0)
(2.84145 0.106337 0)
(2.83473 0.0701625 0)
(2.83503 0.0512588 0)
(2.83233 0.0380649 0)
(2.83357 0.0362215 0)
(2.84202 0.0511662 0)
(2.84418 0.0668054 0)
(2.8429 0.0657383 0)
(2.83871 0.0574643 0)
(2.83639 0.0494532 0)
(2.83431 0.043929 0)
(2.83596 0.0466727 0)
(2.83849 0.0524025 0)
(2.83917 0.0550598 0)
(2.83786 0.0515639 0)
(2.83664 0.0488475 0)
(2.83762 0.0496151 0)
(2.83872 0.0522533 0)
(2.83929 0.0533816 0)
(2.83861 0.0519609 0)
(2.83813 0.0507471 0)
(2.8386 0.0514631 0)
(2.83942 0.0534085 0)
(2.83948 0.0531805 0)
(2.83914 0.0518224 0)
(2.83891 0.0504975 0)
(2.83897 0.0504907 0)
(2.83884 0.0503421 0)
(2.83853 0.0490302 0)
(2.83837 0.0477156 0)
(2.83858 0.0473441 0)
(2.83848 0.0463492 0)
(3.11485 -1.17745 0)
(3.11485 -1.17743 0)
(3.11485 -1.1774 0)
(3.11484 -1.1774 0)
(3.11484 -1.1774 0)
(3.11484 -1.17738 0)
(3.11483 -1.17739 0)
(3.11483 -1.17738 0)
(3.11483 -1.17736 0)
(3.11484 -1.17736 0)
(3.11484 -1.17737 0)
(3.11485 -1.17735 0)
(3.11486 -1.17734 0)
(3.11488 -1.17733 0)
(3.11489 -1.17733 0)
(3.1149 -1.17735 0)
(3.11498 -1.17732 0)
(3.11503 -1.17725 0)
(3.11505 -1.17724 0)
(3.11508 -1.17722 0)
(3.1151 -1.17719 0)
(3.11512 -1.17718 0)
(3.11513 -1.17718 0)
(3.11513 -1.1772 0)
(3.11513 -1.17721 0)
(3.11512 -1.17722 0)
(3.11514 -1.17726 0)
(3.11516 -1.17729 0)
(3.11517 -1.17732 0)
(3.11519 -1.17736 0)
(3.11522 -1.17742 0)
(3.11526 -1.17747 0)
(3.1153 -1.1775 0)
(3.11528 -1.17762 0)
(3.11529 -1.17773 0)
(3.11533 -1.17788 0)
(3.11543 -1.178 0)
(3.1156 -1.17804 0)
(3.11576 -1.17815 0)
(3.11593 -1.17832 0)
(3.11614 -1.17835 0)
(3.11635 -1.17827 0)
(3.11655 -1.17817 0)
(3.11672 -1.17812 0)
(3.11685 -1.17814 0)
(3.11696 -1.17819 0)
(3.11702 -1.17826 0)
(3.117 -1.17834 0)
(3.11699 -1.1784 0)
(3.11705 -1.1785 0)
(3.11711 -1.17867 0)
(3.11708 -1.17879 0)
(3.11708 -1.17883 0)
(3.1171 -1.17881 0)
(3.11721 -1.17875 0)
(3.1174 -1.17875 0)
(3.11766 -1.17877 0)
(3.11788 -1.17858 0)
(3.11793 -1.17849 0)
(3.11796 -1.1785 0)
(3.11796 -1.17871 0)
(3.11794 -1.17887 0)
(3.11796 -1.1788 0)
(3.111 -1.1575 0)
(3.08627 -1.04299 0)
(3.03179 -0.782517 0)
(2.98836 -0.515008 0)
(2.94537 -0.248007 0)
(2.90975 -0.123229 0)
(2.88643 -0.0465589 0)
(2.86774 -0.00246976 0)
(2.86445 0.0319428 0)
(2.85338 0.0533737 0)
(2.8446 0.0737842 0)
(2.83907 0.0704048 0)
(2.8351 0.0573581 0)
(2.82983 0.0369076 0)
(2.83187 0.0351582 0)
(2.83491 0.04149 0)
(2.83988 0.0530576 0)
(2.84089 0.0576563 0)
(2.83973 0.0542245 0)
(2.83707 0.047568 0)
(2.8375 0.0478886 0)
(2.83913 0.0516174 0)
(2.84018 0.053926 0)
(2.83982 0.0520593 0)
(2.83875 0.0498558 0)
(2.83894 0.0502195 0)
(2.84004 0.0526268 0)
(2.84021 0.0532113 0)
(2.83972 0.0523071 0)
(2.83895 0.0510924 0)
(2.83871 0.0505722 0)
(2.83854 0.0500293 0)
(2.83829 0.0494554 0)
(2.83812 0.0487807 0)
(2.83783 0.0479366 0)
(2.83784 0.0474911 0)
(2.8375 0.0460958 0)
(3.11482 -1.17758 0)
(3.11483 -1.17757 0)
(3.11485 -1.17754 0)
(3.11487 -1.17751 0)
(3.11489 -1.1775 0)
(3.11491 -1.17751 0)
(3.11493 -1.17749 0)
(3.11496 -1.17746 0)
(3.11498 -1.17746 0)
(3.11501 -1.17749 0)
(3.11504 -1.17748 0)
(3.11507 -1.17746 0)
(3.1151 -1.17745 0)
(3.11514 -1.17746 0)
(3.11516 -1.17747 0)
(3.11519 -1.17749 0)
(3.11526 -1.1775 0)
(3.11531 -1.17752 0)
(3.11534 -1.17751 0)
(3.11538 -1.17749 0)
(3.11543 -1.17746 0)
(3.11546 -1.17743 0)
(3.11549 -1.17743 0)
(3.11551 -1.17744 0)
(3.11553 -1.17746 0)
(3.11555 -1.17747 0)
(3.11557 -1.17752 0)
(3.11554 -1.1776 0)
(3.11555 -1.1777 0)
(3.11558 -1.17778 0)
(3.11559 -1.17788 0)
(3.1156 -1.17794 0)
(3.11559 -1.178 0)
(3.11561 -1.17802 0)
(3.11561 -1.17812 0)
(3.11561 -1.17832 0)
(3.11568 -1.17849 0)
(3.11581 -1.17856 0)
(3.11603 -1.17854 0)
(3.11625 -1.17853 0)
(3.11646 -1.17855 0)
(3.11667 -1.17846 0)
(3.11689 -1.17831 0)
(3.11711 -1.17821 0)
(3.11727 -1.1782 0)
(3.11739 -1.17821 0)
(3.1175 -1.17823 0)
(3.11753 -1.17825 0)
(3.11753 -1.17833 0)
(3.11744 -1.17851 0)
(3.1173 -1.17868 0)
(3.11718 -1.17876 0)
(3.11716 -1.1789 0)
(3.11724 -1.17896 0)
(3.11738 -1.17897 0)
(3.11757 -1.17899 0)
(3.11784 -1.17893 0)
(3.11808 -1.17849 0)
(3.11819 -1.17822 0)
(3.11821 -1.17819 0)
(3.1182 -1.1784 0)
(3.11819 -1.17879 0)
(3.11816 -1.17894 0)
(3.11807 -1.17901 0)
(3.1181 -1.17874 0)
(3.11764 -1.18005 0)
(3.11305 -1.16304 0)
(3.07725 -1.01883 0)
(3.00581 -0.673954 0)
(2.96084 -0.367452 0)
(2.90968 -0.109 0)
(2.89048 0.0315509 0)
(2.85751 0.121257 0)
(2.84545 0.110324 0)
(2.84224 0.0697523 0)
(2.83723 0.0489933 0)
(2.83688 0.0413494 0)
(2.83702 0.0401232 0)
(2.84529 0.0580747 0)
(2.84377 0.0600884 0)
(2.8413 0.0571746 0)
(2.83917 0.0499377 0)
(2.83648 0.0456889 0)
(2.83905 0.0492433 0)
(2.84165 0.0555501 0)
(2.84123 0.0548993 0)
(2.83999 0.0518596 0)
(2.83874 0.0492101 0)
(2.83966 0.0512983 0)
(2.84069 0.0543387 0)
(2.84035 0.0535123 0)
(2.83959 0.0515809 0)
(2.83869 0.0501923 0)
(2.83859 0.0502282 0)
(2.83841 0.0499981 0)
(2.83812 0.0488301 0)
(2.83778 0.0481993 0)
(2.83749 0.047788 0)
(2.83722 0.0471789 0)
(2.83641 0.0450949 0)
(3.11517 -1.17753 0)
(3.1152 -1.17753 0)
(3.11523 -1.17755 0)
(3.11527 -1.17754 0)
(3.11531 -1.17752 0)
(3.11534 -1.17752 0)
(3.11538 -1.17754 0)
(3.11542 -1.17752 0)
(3.11548 -1.1775 0)
(3.11554 -1.17752 0)
(3.1156 -1.17754 0)
(3.11566 -1.17755 0)
(3.11572 -1.17753 0)
(3.11576 -1.17749 0)
(3.11582 -1.17747 0)
(3.11589 -1.17747 0)
(3.11591 -1.17751 0)
(3.11594 -1.17758 0)
(3.11598 -1.17763 0)
(3.11604 -1.17766 0)
(3.11608 -1.17762 0)
(3.11611 -1.17756 0)
(3.11615 -1.17752 0)
(3.11617 -1.17751 0)
(3.11619 -1.17752 0)
(3.11623 -1.17755 0)
(3.11623 -1.17764 0)
(3.11625 -1.17771 0)
(3.1163 -1.17773 0)
(3.11625 -1.17782 0)
(3.1162 -1.17792 0)
(3.11618 -1.17799 0)
(3.11614 -1.17806 0)
(3.11615 -1.17807 0)
(3.11621 -1.17808 0)
(3.11622 -1.17822 0)
(3.11626 -1.17842 0)
(3.11639 -1.17851 0)
(3.11649 -1.17847 0)
(3.11656 -1.17844 0)
(3.11673 -1.17839 0)
(3.1169 -1.17833 0)
(3.11711 -1.17826 0)
(3.11732 -1.17823 0)
(3.11749 -1.17819 0)
(3.11767 -1.17819 0)
(3.1178 -1.17822 0)
(3.11787 -1.17818 0)
(3.11792 -1.17814 0)
(3.11765 -1.17835 0)
(3.1174 -1.17857 0)
(3.1173 -1.17862 0)
(3.11718 -1.17874 0)
(3.11739 -1.17901 0)
(3.11762 -1.17911 0)
(3.11775 -1.17909 0)
(3.11796 -1.17903 0)
(3.11822 -1.1785 0)
(3.11829 -1.17791 0)
(3.11824 -1.17783 0)
(3.11823 -1.17825 0)
(3.11815 -1.17878 0)
(3.11809 -1.17937 0)
(3.1179 -1.17957 0)
(3.11783 -1.1793 0)
(3.1175 -1.18015 0)
(3.11746 -1.18042 0)
(3.11738 -1.18052 0)
(3.11755 -1.18033 0)
(3.10454 -1.13101 0)
(3.06076 -0.937558 0)
(2.99245 -0.573999 0)
(2.98511 -0.34164 0)
(2.90264 -0.095212 0)
(2.90701 -0.0489115 0)
(2.87243 0.00982805 0)
(2.86044 0.0377664 0)
(2.85267 0.0589088 0)
(2.84776 0.068273 0)
(2.84133 0.0622364 0)
(2.83517 0.0455681 0)
(2.83455 0.0380908 0)
(2.83816 0.0443224 0)
(2.84306 0.0559849 0)
(2.84253 0.0565024 0)
(2.8398 0.0518929 0)
(2.83796 0.0480064 0)
(2.83868 0.0492723 0)
(2.84077 0.05425 0)
(2.84031 0.0551923 0)
(2.83924 0.0528014 0)
(2.83832 0.0503567 0)
(2.83842 0.050425 0)
(2.83824 0.0503293 0)
(2.83795 0.0495692 0)
(2.83754 0.0482339 0)
(2.83699 0.0474346 0)
(2.8368 0.0476275 0)
(2.83648 0.0470042 0)
(2.83534 0.0439026 0)
(3.11574 -1.17764 0)
(3.11577 -1.17766 0)
(3.1158 -1.17766 0)
(3.11584 -1.17765 0)
(3.11587 -1.17767 0)
(3.11591 -1.17768 0)
(3.11594 -1.17768 0)
(3.11598 -1.1777 0)
(3.11602 -1.17771 0)
(3.11606 -1.17775 0)
(3.11612 -1.17776 0)
(3.11616 -1.17778 0)
(3.11621 -1.1778 0)
(3.11626 -1.17777 0)
(3.1163 -1.17775 0)
(3.11631 -1.1778 0)
(3.11634 -1.17785 0)
(3.11636 -1.17792 0)
(3.1164 -1.17797 0)
(3.11644 -1.17794 0)
(3.11646 -1.17792 0)
(3.11646 -1.17794 0)
(3.11649 -1.17791 0)
(3.1165 -1.17792 0)
(3.11652 -1.178 0)
(3.11657 -1.17804 0)
(3.11662 -1.17806 0)
(3.11666 -1.17812 0)
(3.1167 -1.17816 0)
(3.11672 -1.17817 0)
(3.11673 -1.17818 0)
(3.11672 -1.17822 0)
(3.1167 -1.17826 0)
(3.11671 -1.17828 0)
(3.11673 -1.17831 0)
(3.11674 -1.17834 0)
(3.11677 -1.17841 0)
(3.11677 -1.17843 0)
(3.11678 -1.17845 0)
(3.11679 -1.17845 0)
(3.11687 -1.1784 0)
(3.11707 -1.17833 0)
(3.11727 -1.17831 0)
(3.11741 -1.17829 0)
(3.11764 -1.17835 0)
(3.11794 -1.1785 0)
(3.11814 -1.17838 0)
(3.11826 -1.17814 0)
(3.11833 -1.17803 0)
(3.11787 -1.17832 0)
(3.1176 -1.17855 0)
(3.11748 -1.17859 0)
(3.11735 -1.17872 0)
(3.11743 -1.17905 0)
(3.11775 -1.17922 0)
(3.11795 -1.17922 0)
(3.11812 -1.17904 0)
(3.11842 -1.17857 0)
(3.11844 -1.17774 0)
(3.11831 -1.17772 0)
(3.11804 -1.17815 0)
(3.11794 -1.17902 0)
(3.11795 -1.17986 0)
(3.11779 -1.18 0)
(3.11759 -1.17977 0)
(3.11756 -1.18008 0)
(3.11747 -1.18034 0)
(3.11728 -1.18054 0)
(3.11768 -1.17988 0)
(3.11807 -1.17928 0)
(3.11835 -1.17862 0)
(3.1175 -1.17504 0)
(3.09744 -1.0705 0)
(2.99474 -0.641466 0)
(3.00908 -0.40711 0)