/*--------------------------------*- C++ -*----------------------------------*\
  =========                 |
  \\      /  F ield         | OpenFOAM: The Open Source CFD Toolbox
   \\    /   O peration     | Website:  https://openfoam.org
    \\  /    A nd           | Version:  7
     \\/     M anipulation  |
\*---------------------------------------------------------------------------*/
FoamFile
{
    version     2.0;
    format      ascii;
    class       volVectorField;
    location    "2";
    object      U;
}
// * * * * * * * * * * * * * * * * * * * * * * * * * * * * * * * * * * * * * //

dimensions      [0 1 -1 0 0 0 0];

internalField   nonuniform List<vector> 
32400
(
(3.14649 -0.29699 0)
(3.14172 -0.275092 0)
(3.13762 -0.255174 0)
(3.13327 -0.234257 0)
(3.12998 -0.218629 0)
(3.12609 -0.20049 0)
(3.12322 -0.188337 0)
(3.11941 -0.171877 0)
(3.11672 -0.162197 0)
(3.1128 -0.146661 0)
(3.11018 -0.138531 0)
(3.10616 -0.123845 0)
(3.10347 -0.115904 0)
(3.09969 -0.103326 0)
(3.0964 -0.0927279 0)
(3.09399 -0.0851068 0)
(3.0892 -0.0693311 0)
(3.08925 -0.0662235 0)
(3.08262 -0.0487412 0)
(3.08373 -0.044605 0)
(3.07704 -0.0303992 0)
(3.07585 -0.0218587 0)
(3.07245 -0.0143162 0)
(3.07213 -0.00683499 0)
(3.06964 -0.00237073 0)
(3.06464 0.00218878 0)
(3.06233 0.00816758 0)
(3.06284 0.0097637 0)
(3.06043 0.00343852 0)
(3.0597 0.00174011 0)
(3.05882 -0.00118944 0)
(3.05728 -0.00191089 0)
(3.05632 -0.00382545 0)
(3.0565 -0.00186464 0)
(3.0578 -0.000733577 0)
(3.05925 0.000413106 0)
(3.05963 0.00164574 0)
(3.06155 0.00128236 0)
(3.06184 0.00052873 0)
(3.06195 -0.00132486 0)
(3.06125 -0.0017744 0)
(3.06144 -0.000351819 0)
(3.0625 0.00052693 0)
(3.0641 0.000671859 0)
(3.06441 0.000256914 0)
(3.06423 -0.000716944 0)
(3.06186 -0.000765057 0)
(3.05369 0.000638445 0)
(3.03603 0.00135717 0)
(3.01083 -0.000140295 0)
(2.9922 0.000136397 0)
(2.98411 0.000935517 0)
(2.97919 0.000707258 0)
(2.97617 0.000409011 0)
(2.97313 0.000486286 0)
(2.96769 0.000523036 0)
(2.96339 0.000504843 0)
(2.95915 0.000458165 0)
(2.95522 0.000300582 0)
(2.95201 0.000102961 0)
(3.14914 -0.31404 0)
(3.14791 -0.313284 0)
(3.14589 -0.311757 0)
(3.1431 -0.308985 0)
(3.13986 -0.305214 0)
(3.13602 -0.299485 0)
(3.1321 -0.292902 0)
(3.12762 -0.283566 0)
(3.12338 -0.273825 0)
(3.11838 -0.260515 0)
(3.11388 -0.247354 0)
(3.10858 -0.230305 0)
(3.10383 -0.213063 0)
(3.09891 -0.194009 0)
(3.09338 -0.170995 0)
(3.09022 -0.153322 0)
(3.08312 -0.123245 0)
(3.08287 -0.109349 0)
(3.07434 -0.074776 0)
(3.07594 -0.0639537 0)
(3.06743 -0.0302083 0)
(3.06892 -0.0218116 0)
(3.06116 0.00550498 0)
(3.06112 0.0120855 0)
(3.05602 0.0292913 0)
(3.05484 0.0296733 0)
(3.05358 0.0260171 0)
(3.05659 0.0179921 0)
(3.05604 0.00452925 0)
(3.0585 0.00135712 0)
(3.0589 -0.00336998 0)
(3.05923 -0.00364179 0)
(3.0595 -0.0036981 0)
(3.06062 -0.000170034 0)
(3.06072 0.00226935 0)
(3.06047 0.0048354 0)
(3.06056 0.00496627 0)
(3.06027 0.00238029 0)
(3.06062 -0.000780749 0)
(3.06153 -0.00514117 0)
(3.0616 -0.00391042 0)
(3.06203 -0.000849991 0)
(3.06304 0.00226908 0)
(3.06377 0.00229784 0)
(3.06432 9.33419e-05 0)
(3.06401 -0.00318992 0)
(3.06164 -0.00183452 0)
(3.05363 0.00241136 0)
(3.03599 0.00303591 0)
(3.01095 -0.000239404 0)
(2.99219 0.00146139 0)
(2.9841 0.00269191 0)
(2.97936 0.00137549 0)
(2.97661 0.000704259 0)
(2.97355 0.00154176 0)
(2.96823 0.0016954 0)
(2.96405 0.00145159 0)
(2.9598 0.00124466 0)
(2.95572 0.000776742 0)
(2.95212 0.00026308 0)
(3.14652 -0.314132 0)
(3.1465 -0.314062 0)
(3.14649 -0.314021 0)
(3.14647 -0.313922 0)
(3.14641 -0.313704 0)
(3.1463 -0.313486 0)
(3.1461 -0.313222 0)
(3.14571 -0.312835 0)
(3.14507 -0.312194 0)
(3.14424 -0.311244 0)
(3.14319 -0.309713 0)
(3.14187 -0.307528 0)
(3.14021 -0.304256 0)
(3.13811 -0.299709 0)
(3.13549 -0.29346 0)
(3.13235 -0.284921 0)
(3.12855 -0.273924 0)
(3.1243 -0.260387 0)
(3.1187 -0.24189 0)
(3.11401 -0.224767 0)
(3.10652 -0.195772 0)
(3.10269 -0.178979 0)
(3.09411 -0.141979 0)
(3.0914 -0.127525 0)
(3.08436 -0.093426 0)
(3.08502 -0.0816141 0)
(3.07809 -0.0591967 0)
(3.07974 -0.0433353 0)
(3.06946 -0.0263055 0)
(3.06961 -0.0182555 0)
(3.0652 -0.0108174 0)
(3.06575 -0.004528 0)
(3.06456 0.000837138 0)
(3.0624 0.00647477 0)
(3.06122 0.00723778 0)
(3.05928 0.00611903 0)
(3.05753 0.00128535 0)
(3.05719 -0.00170136 0)
(3.05889 -0.00580022 0)
(3.06045 -0.0051881 0)
(3.06169 -0.00263961 0)
(3.06353 0.00143509 0)
(3.06361 0.00259458 0)
(3.06307 0.000856721 0)
(3.06372 -0.00287215 0)
(3.06333 -0.00239461 0)
(3.06112 0.000227288 0)
(3.05347 0.0038267 0)
(3.0352 0.00271481 0)
(3.0109 0.000650358 0)
(2.99262 0.00256346 0)
(2.98345 0.00261714 0)
(2.97911 0.00163725 0)
(2.97679 0.00182027 0)
(2.97396 0.00185083 0)
(2.96889 0.00164506 0)
(2.96496 0.00145212 0)
(2.96093 0.00129333 0)
(2.95676 0.000860114 0)
(2.95241 0.000358677 0)
(3.14167 -0.314104 0)
(3.14169 -0.31404 0)
(3.14171 -0.314003 0)
(3.14172 -0.313998 0)
(3.14176 -0.313976 0)
(3.14182 -0.313899 0)
(3.14182 -0.313843 0)
(3.14181 -0.313782 0)
(3.14178 -0.313696 0)
(3.14175 -0.313602 0)
(3.14172 -0.313496 0)
(3.14169 -0.313357 0)
(3.14165 -0.313165 0)
(3.14161 -0.313035 0)
(3.14152 -0.312683 0)
(3.14128 -0.312283 0)
(3.14074 -0.311552 0)
(3.13998 -0.310302 0)
(3.13887 -0.307762 0)
(3.13745 -0.304004 0)
(3.1351 -0.297078 0)
(3.13235 -0.288302 0)
(3.12703 -0.270714 0)
(3.12275 -0.254829 0)
(3.11257 -0.217357 0)
(3.10917 -0.195772 0)
(3.09393 -0.134149 0)
(3.09429 -0.116075 0)
(3.0778 -0.0537408 0)
(3.08004 -0.0474032 0)
(3.06802 -0.00821202 0)
(3.06713 -0.00449444 0)
(3.06263 0.0140245 0)
(3.05897 0.0122732 0)
(3.05753 0.00563591 0)
(3.05792 0.00258335 0)
(3.05642 -0.00346996 0)
(3.05777 -0.00249765 0)
(3.05845 -0.00195717 0)
(3.06059 0.00148889 0)
(3.06256 0.00267893 0)
(3.06259 0.00171613 0)
(3.06238 -0.000108654 0)
(3.06211 -0.00298981 0)
(3.06296 -0.00135494 0)
(3.06284 0.000260954 0)
(3.06136 0.00195909 0)
(3.05313 0.00211712 0)
(3.03494 0.00245769 0)
(3.01134 0.00268708 0)
(2.99332 0.00245851 0)
(2.9832 0.00263288 0)
(2.97893 0.00303056 0)
(2.97686 0.00325119 0)
(2.97441 0.00266855 0)
(2.96966 0.00237907 0)
(2.96598 0.00228839 0)
(2.96235 0.00209002 0)
(2.9581 0.00156877 0)
(2.95293 0.000628237 0)
(3.13817 -0.313491 0)
(3.13819 -0.313499 0)
(3.13821 -0.313492 0)
(3.13821 -0.313478 0)
(3.13822 -0.313487 0)
(3.13824 -0.313501 0)
(3.13825 -0.313534 0)
(3.13827 -0.313586 0)
(3.13836 -0.313661 0)
(3.13843 -0.313737 0)
(3.1385 -0.313848 0)
(3.13859 -0.313961 0)
(3.13872 -0.314021 0)
(3.1388 -0.314216 0)
(3.13883 -0.314273 0)
(3.13895 -0.314279 0)
(3.13905 -0.314256 0)
(3.13914 -0.314253 0)
(3.13922 -0.314245 0)
(3.1393 -0.314187 0)
(3.13938 -0.314089 0)
(3.13939 -0.313712 0)
(3.13931 -0.312932 0)
(3.13894 -0.310817 0)
(3.13789 -0.306847 0)
(3.1358 -0.298909 0)
(3.13143 -0.284464 0)
(3.12597 -0.263788 0)
(3.11573 -0.226064 0)
(3.10927 -0.195813 0)
(3.09488 -0.135435 0)
(3.09224 -0.118618 0)
(3.08034 -0.0641412 0)
(3.0816 -0.0634385 0)
(3.07021 -0.0373577 0)
(3.06923 -0.0270368 0)
(3.06529 -0.0174889 0)
(3.06492 -0.00564401 0)
(3.06042 0.00125009 0)
(3.06106 0.00606016 0)
(3.06018 0.00312522 0)
(3.05975 -0.000961729 0)
(3.06005 -0.00682822 0)
(3.06122 -0.00619915 0)
(3.06279 -0.00291692 0)
(3.06332 0.00194933 0)
(3.06157 0.00254419 0)
(3.05295 -0.000666808 0)
(3.03585 0.000643625 0)
(3.01307 0.00517714 0)
(2.99435 0.00360935 0)
(2.98368 0.00233672 0)
(2.97952 0.00418594 0)
(2.97755 0.00486948 0)
(2.97534 0.00329774 0)
(2.97082 0.00243373 0)
(2.9673 0.00241839 0)
(2.96394 0.00233146 0)
(2.95938 0.00179691 0)
(2.95382 0.00115912 0)
(3.13762 -0.313443 0)
(3.13768 -0.313455 0)
(3.13775 -0.313463 0)
(3.13781 -0.313473 0)
(3.13788 -0.313492 0)
(3.13794 -0.313531 0)
(3.13801 -0.313602 0)
(3.13805 -0.31363 0)
(3.13812 -0.313715 0)
(3.13825 -0.313802 0)
(3.13835 -0.313874 0)
(3.13845 -0.313953 0)
(3.13858 -0.314007 0)
(3.13868 -0.314119 0)
(3.13884 -0.314212 0)
(3.13892 -0.314307 0)
(3.13916 -0.314384 0)
(3.13939 -0.314496 0)
(3.13951 -0.314661 0)
(3.13981 -0.314795 0)
(3.14007 -0.314945 0)
(3.14037 -0.315021 0)
(3.14078 -0.315217 0)
(3.14133 -0.315374 0)
(3.14177 -0.315434 0)
(3.14218 -0.315324 0)
(3.14247 -0.314717 0)
(3.14232 -0.312899 0)
(3.14117 -0.308154 0)
(3.13862 -0.298337 0)
(3.13234 -0.276713 0)
(3.12545 -0.248371 0)
(3.10984 -0.192111 0)
(3.10488 -0.153738 0)
(3.08513 -0.0777193 0)
(3.08363 -0.0534484 0)
(3.07241 -0.0124277 0)
(3.06847 0.00589324 0)
(3.06535 0.0191111 0)
(3.06016 0.00765181 0)
(3.05832 -0.00128449 0)
(3.05947 -0.00458798 0)
(3.06045 -0.00503542 0)
(3.06277 -0.00330218 0)
(3.0654 0.00120333 0)
(3.06516 0.00272925 0)
(3.06217 0.00165193 0)
(3.05469 -0.00242491 0)
(3.03761 0.00253114 0)
(3.01554 0.00870965 0)
(2.99498 0.00506546 0)
(2.98451 0.00215929 0)
(2.98067 0.00475831 0)
(2.97874 0.00587696 0)
(2.97659 0.00421096 0)
(2.97227 0.00350062 0)
(2.96884 0.00341228 0)
(2.96556 0.00329014 0)
(2.96059 0.00269538 0)
(2.955 0.0019187 0)
(3.13884 -0.315033 0)
(3.13894 -0.315052 0)
(3.13905 -0.31509 0)
(3.13917 -0.315129 0)
(3.1393 -0.31515 0)
(3.13943 -0.315178 0)
(3.13951 -0.315218 0)
(3.13964 -0.315241 0)
(3.13977 -0.315279 0)
(3.13989 -0.315304 0)
(3.14004 -0.315348 0)
(3.1402 -0.315365 0)
(3.14035 -0.315386 0)
(3.14049 -0.31543 0)
(3.14066 -0.315457 0)
(3.14084 -0.315472 0)
(3.14106 -0.315462 0)
(3.14134 -0.315423 0)
(3.1416 -0.31541 0)
(3.14188 -0.315432 0)
(3.14217 -0.315503 0)
(3.14255 -0.315597 0)
(3.14284 -0.315732 0)
(3.14312 -0.315898 0)
(3.14349 -0.316041 0)
(3.1439 -0.316095 0)
(3.14452 -0.316208 0)
(3.14509 -0.316227 0)
(3.14576 -0.316159 0)
(3.1465 -0.315908 0)
(3.14698 -0.314925 0)
(3.14657 -0.311372 0)
(3.1442 -0.302988 0)
(3.13869 -0.282237 0)
(3.12961 -0.250564 0)
(3.11681 -0.19848 0)
(3.10514 -0.148488 0)
(3.09356 -0.099507 0)
(3.08823 -0.065981 0)
(3.08576 -0.0515423 0)
(3.07598 -0.0295873 0)
(3.07125 -0.0135596 0)
(3.07047 -0.00476857 0)
(3.06695 0.00219698 0)
(3.06607 0.00114951 0)
(3.06494 -9.77405e-05 0)
(3.06367 -0.00473026 0)
(3.05773 -0.00519853 0)
(3.04146 0.00512236 0)
(3.01752 0.0116569 0)
(2.99498 0.00432975 0)
(2.98479 0.00454103 0)
(2.98111 0.00779508 0)
(2.97985 0.00769096 0)
(2.97778 0.0049739 0)
(2.97395 0.00423588 0)
(2.97046 0.00419814 0)
(2.96709 0.00408128 0)
(2.96195 0.00360409 0)
(2.9563 0.00284605 0)
(3.14115 -0.316679 0)
(3.14126 -0.316716 0)
(3.14138 -0.316765 0)
(3.14152 -0.316802 0)
(3.14166 -0.31685 0)
(3.14177 -0.316877 0)
(3.1419 -0.316904 0)
(3.14201 -0.316917 0)
(3.14213 -0.316922 0)
(3.14224 -0.316929 0)
(3.14238 -0.316917 0)
(3.14251 -0.316912 0)
(3.14264 -0.316918 0)
(3.14278 -0.316907 0)
(3.14294 -0.316852 0)
(3.14311 -0.316807 0)
(3.1433 -0.316753 0)
(3.14351 -0.316707 0)
(3.14373 -0.316699 0)
(3.14396 -0.316673 0)
(3.14425 -0.316568 0)
(3.1446 -0.316438 0)
(3.14492 -0.316392 0)
(3.14522 -0.316439 0)
(3.14569 -0.316518 0)
(3.14604 -0.316612 0)
(3.1465 -0.316764 0)
(3.14703 -0.316952 0)
(3.14763 -0.31728 0)
(3.14836 -0.317452 0)
(3.14931 -0.317485 0)
(3.15008 -0.317427 0)
(3.15037 -0.317249 0)
(3.15043 -0.316372 0)
(3.14956 -0.312706 0)
(3.1465 -0.302592 0)
(3.13903 -0.276952 0)
(3.12791 -0.236777 0)
(3.11 -0.167259 0)
(3.10386 -0.114011 0)
(3.08522 -0.0335215 0)
(3.08569 -0.0220299 0)
(3.08047 0.0195937 0)
(3.0697 0.0109881 0)
(3.06623 -0.00223713 0)
(3.06548 -0.00237672 0)
(3.0704 -0.00503546 0)
(3.0644 0.00328992 0)
(3.04745 0.00840013 0)
(3.01956 0.0109059 0)
(2.99547 0.00447643 0)
(2.98602 0.00893604 0)
(2.98183 0.00978002 0)
(2.98076 0.00931287 0)
(2.97874 0.00595158 0)
(2.97525 0.00550232 0)
(2.9716 0.00525791 0)
(2.96825 0.00506881 0)
(2.96316 0.00444902 0)
(2.9573 0.00383574 0)
(3.14322 -0.31771 0)
(3.14333 -0.317738 0)
(3.14343 -0.317774 0)
(3.14354 -0.317814 0)
(3.14365 -0.317856 0)
(3.14377 -0.317838 0)
(3.14391 -0.317816 0)
(3.14402 -0.31779 0)
(3.14412 -0.317755 0)
(3.14423 -0.317755 0)
(3.14436 -0.317724 0)
(3.1445 -0.317637 0)
(3.14461 -0.317609 0)
(3.14473 -0.31755 0)
(3.14487 -0.317461 0)
(3.145 -0.317457 0)
(3.14516 -0.317407 0)
(3.14536 -0.317261 0)
(3.14554 -0.317181 0)
(3.14572 -0.317226 0)
(3.1459 -0.317274 0)
(3.14609 -0.317227 0)
(3.14621 -0.317162 0)
(3.14644 -0.317199 0)
(3.14702 -0.317284 0)
(3.14734 -0.317357 0)
(3.14769 -0.317466 0)
(3.14813 -0.317767 0)
(3.14863 -0.318048 0)
(3.14921 -0.318248 0)
(3.14981 -0.318429 0)
(3.15048 -0.318622 0)
(3.15111 -0.318618 0)
(3.15184 -0.318872 0)
(3.15228 -0.318791 0)
(3.15239 -0.318436 0)
(3.15198 -0.317035 0)
(3.15005 -0.310784 0)
(3.14536 -0.296084 0)
(3.13498 -0.256499 0)
(3.123 -0.20603 0)
(3.11015 -0.143571 0)
(3.09628 -0.0723963 0)
(3.10215 -0.0648624 0)
(3.08241 -0.0332542 0)
(3.07802 -0.0126202 0)
(3.07612 -0.0003935 0)
(3.06982 0.00563207 0)
(3.0484 0.0071484 0)
(3.01813 0.00425007 0)
(2.99502 0.00726747 0)
(2.98666 0.011681 0)
(2.98277 0.0111153 0)
(2.98171 0.00781838 0)
(2.97951 0.00704784 0)
(2.97588 0.00692509 0)
(2.97232 0.00643163 0)
(2.96895 0.00608909 0)
(2.96378 0.00540769 0)
(2.9577 0.0048415 0)
(3.14396 -0.318694 0)
(3.14406 -0.318724 0)
(3.14417 -0.318768 0)
(3.14428 -0.318813 0)
(3.14442 -0.318818 0)
(3.14457 -0.318776 0)
(3.14469 -0.318779 0)
(3.14478 -0.318763 0)
(3.14487 -0.318691 0)
(3.14493 -0.318676 0)
(3.14505 -0.318649 0)
(3.14526 -0.318573 0)
(3.1454 -0.318544 0)
(3.14558 -0.318477 0)
(3.14578 -0.318332 0)
(3.14596 -0.318244 0)
(3.14615 -0.318229 0)
(3.1464 -0.318122 0)
(3.14667 -0.317949 0)
(3.14692 -0.317857 0)
(3.14719 -0.317689 0)
(3.1474 -0.317464 0)
(3.14753 -0.317476 0)
(3.1476 -0.317627 0)
(3.14786 -0.317844 0)
(3.14811 -0.317954 0)
(3.14837 -0.31811 0)
(3.1487 -0.318354 0)
(3.14895 -0.318605 0)
(3.14936 -0.318817 0)
(3.14991 -0.319075 0)
(3.15059 -0.31929 0)
(3.15132 -0.31944 0)
(3.15204 -0.319581 0)
(3.15263 -0.319716 0)
(3.15295 -0.31949 0)
(3.15305 -0.319314 0)
(3.1531 -0.318867 0)
(3.15314 -0.317899 0)
(3.1524 -0.314428 0)
(3.14915 -0.301087 0)
(3.14127 -0.270564 0)
(3.12262 -0.205502 0)
(3.1197 -0.145775 0)
(3.09141 -0.0377798 0)
(3.0929 -0.0244178 0)
(3.08285 0.0202978 0)
(3.06777 0.0103591 0)
(3.05122 0.00235444 0)
(3.02029 0.0109236 0)
(3.00053 0.0171289 0)
(2.98751 0.0150284 0)
(2.98312 0.00998853 0)
(2.98271 0.00790905 0)
(2.97994 0.00901078 0)
(2.97696 0.00840905 0)
(2.97292 0.00752049 0)
(2.9688 0.00710837 0)
(2.96404 0.00646027 0)
(2.95739 0.0057064 0)
(3.14426 -0.318718 0)
(3.14429 -0.318714 0)
(3.14438 -0.318741 0)
(3.14452 -0.318752 0)
(3.14476 -0.318726 0)
(3.14489 -0.318731 0)
(3.14499 -0.318731 0)
(3.14507 -0.318678 0)
(3.14516 -0.318617 0)
(3.14529 -0.318568 0)
(3.14541 -0.318505 0)
(3.14551 -0.318473 0)
(3.14575 -0.318434 0)
(3.14598 -0.31841 0)
(3.14621 -0.318305 0)
(3.14637 -0.318261 0)
(3.14663 -0.318261 0)
(3.14695 -0.318159 0)
(3.14724 -0.318117 0)
(3.14752 -0.318128 0)
(3.14778 -0.31811 0)
(3.14802 -0.318093 0)
(3.14821 -0.318158 0)
(3.14835 -0.318253 0)
(3.14839 -0.318274 0)
(3.14837 -0.318321 0)
(3.14841 -0.318477 0)
(3.14854 -0.318718 0)
(3.14869 -0.318924 0)
(3.14892 -0.319086 0)
(3.14936 -0.319259 0)
(3.14999 -0.319332 0)
(3.1508 -0.319418 0)
(3.15167 -0.319562 0)
(3.15257 -0.31961 0)
(3.1532 -0.319446 0)
(3.15333 -0.319373 0)
(3.15348 -0.319106 0)
(3.15391 -0.318786 0)
(3.15415 -0.318591 0)
(3.15454 -0.318067 0)
(3.15445 -0.315503 0)
(3.15174 -0.304985 0)
(3.14375 -0.2716 0)
(3.13233 -0.224678 0)
(3.11345 -0.143638 0)
(3.10128 -0.0730849 0)
(3.08935 -0.0579023 0)
(3.07728 -0.0259388 0)
(3.02938 0.0227196 0)
(3.00036 0.0248877 0)
(2.983 0.0119593 0)
(2.98356 0.00527779 0)
(2.98281 0.00915636 0)
(2.98134 0.0108903 0)
(2.97897 0.00975715 0)
(2.97329 0.00829756 0)
(2.9691 0.00846988 0)
(2.96465 0.00794674 0)
(2.95759 0.00690325 0)
(3.14406 -0.318504 0)
(3.14421 -0.318511 0)
(3.14439 -0.318508 0)
(3.14445 -0.318512 0)
(3.14459 -0.318533 0)
(3.1447 -0.318549 0)
(3.14479 -0.318563 0)
(3.14491 -0.318601 0)
(3.14503 -0.318643 0)
(3.14516 -0.318642 0)
(3.14531 -0.318611 0)
(3.14545 -0.318612 0)
(3.14558 -0.318686 0)
(3.14572 -0.318797 0)
(3.14592 -0.318867 0)
(3.1462 -0.31893 0)
(3.14648 -0.319006 0)
(3.14671 -0.319065 0)
(3.14702 -0.319131 0)
(3.14735 -0.319171 0)
(3.14763 -0.319199 0)
(3.14783 -0.319219 0)
(3.14807 -0.319269 0)
(3.14825 -0.319279 0)
(3.14833 -0.319185 0)
(3.14828 -0.319206 0)
(3.14823 -0.319267 0)
(3.14827 -0.319246 0)
(3.14835 -0.319172 0)
(3.14859 -0.319113 0)
(3.14891 -0.319133 0)
(3.14943 -0.319224 0)
(3.15032 -0.319443 0)
(3.15133 -0.319634 0)
(3.1524 -0.319522 0)
(3.15324 -0.31925 0)
(3.15348 -0.319172 0)
(3.15377 -0.319124 0)
(3.15407 -0.319027 0)
(3.15428 -0.318983 0)
(3.15462 -0.318798 0)
(3.15522 -0.318934 0)
(3.15577 -0.319968 0)
(3.15586 -0.318898 0)
(3.15297 -0.30704 0)
(3.14405 -0.275297 0)
(3.12563 -0.20594 0)
(3.1078 -0.1247 0)
(3.07956 -0.0302603 0)
(3.03797 0.0535691 0)
(2.99906 0.0285657 0)
(2.98417 0.00953969 0)
(2.98514 0.0103873 0)
(2.98585 0.0137341 0)
(2.98398 0.01291 0)
(2.98011 0.00946646 0)
(2.973 0.00955512 0)
(2.96876 0.0104989 0)
(2.9651 0.00957448 0)
(2.95775 0.00828387 0)
(3.14367 -0.318048 0)
(3.14378 -0.318086 0)
(3.1439 -0.318126 0)
(3.14402 -0.318189 0)
(3.14415 -0.318279 0)
(3.14426 -0.318347 0)
(3.14436 -0.318404 0)
(3.14444 -0.318471 0)
(3.14451 -0.318547 0)
(3.14456 -0.318715 0)
(3.14466 -0.318927 0)
(3.14483 -0.319061 0)
(3.14502 -0.319234 0)
(3.14522 -0.319481 0)
(3.14547 -0.319658 0)
(3.14573 -0.319768 0)
(3.14598 -0.319914 0)
(3.14623 -0.320109 0)
(3.14648 -0.320234 0)
(3.14676 -0.320268 0)
(3.14715 -0.32026 0)
(3.14736 -0.32024 0)
(3.14765 -0.320242 0)
(3.14802 -0.320153 0)
(3.14827 -0.319941 0)
(3.14836 -0.319792 0)
(3.14844 -0.319628 0)
(3.1486 -0.319339 0)
(3.14875 -0.319041 0)
(3.14879 -0.318873 0)
(3.14893 -0.318935 0)
(3.14936 -0.319111 0)
(3.14977 -0.319367 0)
(3.15066 -0.319711 0)
(3.15199 -0.319824 0)
(3.15332 -0.319448 0)
(3.15393 -0.319254 0)
(3.15421 -0.319394 0)
(3.15434 -0.319666 0)
(3.15442 -0.319824 0)
(3.15453 -0.319999 0)
(3.15484 -0.320255 0)
(3.15538 -0.321025 0)
(3.15643 -0.322498 0)
(3.15721 -0.322215 0)
(3.15704 -0.319007 0)
(3.15331 -0.304163 0)
(3.14366 -0.270502 0)
(3.11229 -0.181148 0)
(3.07751 -0.0905093 0)
(3.03528 -0.0372237 0)
(2.99926 0.000873555 0)
(2.9903 0.0146928 0)
(2.9874 0.0158276 0)
(2.9845 0.0098639 0)
(2.97773 0.0101005 0)
(2.97365 0.0116559 0)
(2.96929 0.0126308 0)
(2.96434 0.0108505 0)
(2.95746 0.00926174 0)
(3.14315 -0.319193 0)
(3.14326 -0.319219 0)
(3.1434 -0.319253 0)
(3.14354 -0.319265 0)
(3.1437 -0.319281 0)
(3.14383 -0.319367 0)
(3.14392 -0.31945 0)
(3.14397 -0.319469 0)
(3.14396 -0.319429 0)
(3.14393 -0.319441 0)
(3.14394 -0.319546 0)
(3.14404 -0.319681 0)
(3.14417 -0.319918 0)
(3.14435 -0.320244 0)
(3.14461 -0.320577 0)
(3.1449 -0.320868 0)
(3.1452 -0.321098 0)
(3.14549 -0.321266 0)
(3.14578 -0.321352 0)
(3.14614 -0.321399 0)
(3.14664 -0.321461 0)
(3.1469 -0.321503 0)
(3.14727 -0.321602 0)
(3.14776 -0.321643 0)
(3.14827 -0.321333 0)
(3.14849 -0.321096 0)
(3.14865 -0.32095 0)
(3.14903 -0.320429 0)
(3.14943 -0.319547 0)
(3.14951 -0.318866 0)
(3.14947 -0.318559 0)
(3.14964 -0.31869 0)
(3.14988 -0.318876 0)
(3.15023 -0.319353 0)
(3.15123 -0.31974 0)
(3.15261 -0.319566 0)
(3.15373 -0.319642 0)
(3.15421 -0.320227 0)
(3.15417 -0.321193 0)
(3.15417 -0.321655 0)
(3.15427 -0.321625 0)
(3.15445 -0.321666 0)
(3.15505 -0.321937 0)
(3.15622 -0.322776 0)
(3.15777 -0.323036 0)
(3.15855 -0.321694 0)
(3.15935 -0.320107 0)
(3.15873 -0.316261 0)
(3.14847 -0.293064 0)
(3.11794 -0.225642 0)
(3.05837 -0.0753303 0)
(3.01715 -0.0179018 0)
(2.99341 0.0372064 0)
(2.98556 0.0159204 0)
(2.98203 0.0107837 0)
(2.97934 0.0127432 0)
(2.97345 0.0159283 0)
(2.9698 0.0146097 0)
(2.96293 0.0107885 0)
(2.95719 0.00974364 0)
(3.14372 -0.320362 0)
(3.1438 -0.320296 0)
(3.14393 -0.320259 0)
(3.14402 -0.320239 0)
(3.14408 -0.320238 0)
(3.14413 -0.320248 0)
(3.14416 -0.320206 0)
(3.14413 -0.320079 0)
(3.14404 -0.32 0)
(3.144 -0.320002 0)
(3.14396 -0.320007 0)
(3.14394 -0.320126 0)
(3.14396 -0.320458 0)
(3.14402 -0.320854 0)
(3.14411 -0.321054 0)
(3.14427 -0.321182 0)
(3.14445 -0.321362 0)
(3.14465 -0.321605 0)
(3.14492 -0.321825 0)
(3.14534 -0.322008 0)
(3.14599 -0.322299 0)
(3.14632 -0.322472 0)
(3.14689 -0.322478 0)
(3.14799 -0.32243 0)
(3.14849 -0.322384 0)
(3.14887 -0.322195 0)
(3.14918 -0.322005 0)
(3.15015 -0.321274 0)
(3.15069 -0.319928 0)
(3.15053 -0.318828 0)
(3.15033 -0.318335 0)
(3.15018 -0.318564 0)
(3.15012 -0.31948 0)
(3.15026 -0.320238 0)
(3.15082 -0.320962 0)
(3.15168 -0.320911 0)
(3.15275 -0.320569 0)
(3.1536 -0.321025 0)
(3.15401 -0.322477 0)
(3.15445 -0.323228 0)
(3.15463 -0.32303 0)
(3.15492 -0.322687 0)
(3.1555 -0.322494 0)
(3.15669 -0.322632 0)
(3.15824 -0.322323 0)
(3.15941 -0.321395 0)
(3.16052 -0.320305 0)
(3.16103 -0.320157 0)
(3.15886 -0.319181 0)
(3.14656 -0.305221 0)
(3.11132 -0.255406 0)
(3.05358 -0.149902 0)
(3.01205 -0.0592653 0)
(3.01097 -0.0274476 0)
(2.9902 0.00826873 0)
(2.97857 0.0207465 0)
(2.97383 0.019528 0)
(2.9663 0.0114121 0)
(2.96192 0.0103481 0)
(2.95718 0.0101612 0)
(3.14427 -0.322803 0)
(3.14432 -0.322446 0)
(3.14444 -0.322275 0)
(3.14449 -0.321905 0)
(3.14439 -0.321555 0)
(3.14428 -0.321326 0)
(3.1442 -0.321113 0)
(3.14421 -0.320944 0)
(3.14433 -0.320661 0)
(3.14449 -0.3203 0)
(3.14464 -0.319929 0)
(3.14472 -0.319674 0)
(3.14473 -0.319575 0)
(3.14465 -0.319604 0)
(3.14455 -0.319779 0)
(3.14468 -0.319906 0)
(3.14477 -0.319919 0)
(3.1449 -0.319926 0)
(3.14507 -0.320155 0)
(3.14531 -0.320673 0)
(3.14589 -0.321211 0)
(3.14663 -0.321836 0)
(3.14718 -0.322354 0)
(3.14788 -0.322713 0)
(3.14865 -0.32306 0)
(3.1496 -0.323165 0)
(3.15 -0.322608 0)
(3.15035 -0.322059 0)
(3.15065 -0.321031 0)
(3.1507 -0.319954 0)
(3.15076 -0.319981 0)
(3.15081 -0.32027 0)
(3.15084 -0.321536 0)
(3.15093 -0.323251 0)
(3.15102 -0.323579 0)
(3.15112 -0.323138 0)
(3.15188 -0.321884 0)
(3.15284 -0.322091 0)
(3.15387 -0.323215 0)
(3.15479 -0.323646 0)
(3.1552 -0.323362 0)
(3.15545 -0.323004 0)
(3.15646 -0.322297 0)
(3.1576 -0.322068 0)
(3.15897 -0.321544 0)
(3.16031 -0.321299 0)
(3.16147 -0.320264 0)
(3.16161 -0.321713 0)
(3.15976 -0.321223 0)
(3.15247 -0.320365 0)
(3.13348 -0.310973 0)
(3.10056 -0.280607 0)
(3.03968 -0.157281 0)
(3.02289 -0.0756934 0)
(2.99792 0.0200528 0)
(2.98194 0.0329621 0)
(2.97859 0.0201061 0)
(2.9641 0.0115873 0)
(2.96267 0.0131516 0)
(2.95737 0.0122852 0)
(3.14568 -0.32381 0)
(3.14561 -0.323228 0)
(3.14563 -0.323041 0)
(3.14561 -0.322732 0)
(3.14548 -0.321815 0)
(3.14542 -0.321072 0)
(3.14526 -0.320802 0)
(3.14535 -0.320284 0)
(3.14552 -0.319747 0)
(3.14564 -0.319607 0)
(3.14578 -0.319448 0)
(3.1459 -0.319116 0)
(3.1459 -0.318962 0)
(3.14584 -0.318966 0)
(3.14581 -0.31893 0)
(3.14588 -0.318903 0)
(3.14588 -0.318967 0)
(3.14591 -0.319192 0)
(3.14603 -0.31927 0)
(3.1462 -0.319363 0)
(3.14632 -0.320134 0)
(3.14653 -0.321157 0)
(3.14708 -0.321905 0)
(3.14771 -0.322988 0)
(3.14834 -0.324023 0)
(3.14878 -0.324169 0)
(3.14909 -0.324012 0)
(3.14927 -0.323613 0)
(3.14935 -0.322802 0)
(3.14963 -0.322117 0)
(3.15029 -0.322313 0)
(3.15121 -0.323327 0)
(3.15163 -0.323899 0)
(3.15212 -0.324852 0)
(3.15208 -0.324845 0)
(3.15165 -0.324012 0)
(3.1516 -0.323577 0)
(3.15226 -0.323085 0)
(3.15367 -0.323068 0)
(3.15529 -0.323099 0)
(3.15601 -0.322945 0)
(3.15658 -0.322472 0)
(3.15781 -0.321859 0)
(3.15857 -0.321527 0)
(3.15959 -0.321504 0)
(3.16064 -0.321652 0)
(3.16149 -0.321861 0)
(3.1615 -0.323395 0)
(3.15984 -0.324209 0)
(3.15337 -0.320861 0)
(3.13876 -0.317658 0)
(3.11662 -0.311602 0)
(3.08712 -0.2815 0)
(3.05157 -0.194869 0)
(3.02392 -0.101305 0)
(3.00814 -0.0436463 0)
(2.99383 -0.00636894 0)
(2.97824 0.0080437 0)
(2.96487 0.0176728 0)
(2.95822 0.0143069 0)
(3.14565 -0.323612 0)
(3.14563 -0.323346 0)
(3.14539 -0.322698 0)
(3.14535 -0.322103 0)
(3.14533 -0.321705 0)
(3.14533 -0.32166 0)
(3.14539 -0.321718 0)
(3.14551 -0.321632 0)
(3.14562 -0.321768 0)
(3.14571 -0.32207 0)
(3.14587 -0.322082 0)
(3.14607 -0.322254 0)
(3.14638 -0.322952 0)
(3.14656 -0.323718 0)
(3.1466 -0.3241 0)
(3.14649 -0.324252 0)
(3.14639 -0.324739 0)
(3.14625 -0.324978 0)
(3.14614 -0.324868 0)
(3.14574 -0.324838 0)
(3.14558 -0.325177 0)
(3.1458 -0.325659 0)
(3.1462 -0.326346 0)
(3.14663 -0.327366 0)
(3.14692 -0.327866 0)
(3.147 -0.327226 0)
(3.14715 -0.326323 0)
(3.14745 -0.325746 0)
(3.14789 -0.325429 0)
(3.14853 -0.325386 0)
(3.1497 -0.326135 0)
(3.15121 -0.327432 0)
(3.1517 -0.327832 0)
(3.15244 -0.328049 0)
(3.15285 -0.327073 0)
(3.15247 -0.325227 0)
(3.15245 -0.323682 0)
(3.15314 -0.323152 0)
(3.15416 -0.322712 0)
(3.1557 -0.322404 0)
(3.15675 -0.322468 0)
(3.15759 -0.322156 0)
(3.15818 -0.322133 0)
(3.15889 -0.322039 0)
(3.15955 -0.322427 0)
(3.16006 -0.323331 0)
(3.16073 -0.324141 0)
(3.16101 -0.325154 0)
(3.15976 -0.324823 0)
(3.15472 -0.323855 0)
(3.14271 -0.317156 0)
(3.12159 -0.308111 0)
(3.09944 -0.299226 0)
(3.08012 -0.273248 0)
(3.06179 -0.229136 0)
(3.02291 -0.100647 0)
(3.01287 -0.0538106 0)
(2.98618 0.0349571 0)
(2.97035 0.025647 0)
(2.95689 0.0133713 0)
(3.14155 -0.320892 0)
(3.14145 -0.320713 0)
(3.14137 -0.320644 0)
(3.14115 -0.321203 0)
(3.14108 -0.322072 0)
(3.1413 -0.322526 0)
(3.14162 -0.32272 0)
(3.14182 -0.323296 0)
(3.14179 -0.323883 0)
(3.1418 -0.324678 0)
(3.14267 -0.326276 0)
(3.14317 -0.32869 0)
(3.14368 -0.329871 0)
(3.145 -0.331057 0)
(3.14656 -0.331515 0)
(3.14707 -0.331353 0)
(3.14715 -0.330802 0)
(3.14693 -0.330484 0)
(3.14657 -0.330676 0)
(3.14617 -0.330603 0)
(3.14559 -0.330262 0)
(3.14516 -0.330684 0)
(3.14498 -0.331108 0)
(3.14476 -0.331052 0)
(3.14448 -0.330556 0)
(3.14524 -0.329042 0)
(3.14552 -0.327525 0)
(3.14616 -0.326085 0)
(3.14775 -0.325689 0)
(3.14834 -0.325898 0)
(3.1495 -0.326491 0)
(3.1513 -0.32697 0)
(3.15229 -0.32698 0)
(3.1529 -0.326868 0)
(3.15341 -0.326272 0)
(3.15333 -0.325039 0)
(3.15362 -0.323927 0)
(3.15402 -0.323664 0)
(3.15454 -0.323318 0)
(3.15542 -0.322835 0)
(3.15584 -0.323269 0)
(3.1565 -0.323882 0)
(3.15763 -0.323823 0)
(3.15817 -0.324373 0)
(3.15857 -0.325511 0)
(3.1593 -0.326197 0)
(3.15982 -0.325987 0)
(3.16037 -0.326314 0)
(3.16001 -0.32508 0)
(3.15696 -0.322537 0)
(3.14741 -0.316776 0)
(3.12811 -0.308821 0)
(3.10378 -0.294001 0)
(3.08816 -0.287428 0)
(3.0782 -0.273195 0)
(3.06406 -0.240849 0)
(3.03699 -0.158692 0)
(3.00267 -0.0629355 0)
(3.00801 -0.036648 0)
(2.96563 0.00517935 0)
(3.13564 -0.325514 0)
(3.13563 -0.324684 0)
(3.13528 -0.323398 0)
(3.13507 -0.322273 0)
(3.1352 -0.321542 0)
(3.13538 -0.321336 0)
(3.1353 -0.321608 0)
(3.13523 -0.321707 0)
(3.13506 -0.322473 0)
(3.13614 -0.324676 0)
(3.13667 -0.327908 0)
(3.13694 -0.329475 0)
(3.13904 -0.331318 0)
(3.14195 -0.334011 0)
(3.14406 -0.335214 0)
(3.14433 -0.334945 0)
(3.14434 -0.333973 0)
(3.14443 -0.333665 0)
(3.14498 -0.334475 0)
(3.14548 -0.334947 0)
(3.14571 -0.334637 0)
(3.14585 -0.333739 0)
(3.14554 -0.332906 0)
(3.14454 -0.332706 0)
(3.14394 -0.331288 0)
(3.14573 -0.328443 0)
(3.14584 -0.324223 0)
(3.14525 -0.322303 0)
(3.14751 -0.323568 0)
(3.14894 -0.324365 0)
(3.15011 -0.32564 0)
(3.15104 -0.325822 0)
(3.15204 -0.32555 0)
(3.15254 -0.324928 0)
(3.15272 -0.32447 0)
(3.15279 -0.324615 0)
(3.15302 -0.325033 0)
(3.15347 -0.325349 0)
(3.15397 -0.325244 0)
(3.15451 -0.325154 0)
(3.15491 -0.32522 0)
(3.15486 -0.326574 0)
(3.15501 -0.32778 0)
(3.15588 -0.32893 0)
(3.15807 -0.329477 0)
(3.15889 -0.328397 0)
(3.16032 -0.327604 0)
(3.16163 -0.326329 0)
(3.16211 -0.324272 0)
(3.16002 -0.322508 0)
(3.15236 -0.319661 0)
(3.13538 -0.310072 0)
(3.11001 -0.29709 0)
(3.09066 -0.286366 0)
(3.08331 -0.279554 0)
(3.07717 -0.270253 0)
(3.0661 -0.250848 0)
(3.03657 -0.186515 0)
(3.01824 -0.0930798 0)
(2.97691 0.00860674 0)
(3.12637 -0.276426 0)
(3.12637 -0.277776 0)
(3.12586 -0.278235 0)
(3.12553 -0.279035 0)
(3.12536 -0.280138 0)
(3.12493 -0.281142 0)
(3.12482 -0.283075 0)
(3.1241 -0.284197 0)
(3.12263 -0.284807 0)
(3.12324 -0.287298 0)
(3.12423 -0.290994 0)
(3.12482 -0.292374 0)
(3.12641 -0.292685 0)
(3.13074 -0.295364 0)
(3.13213 -0.298094 0)
(3.1317 -0.300575 0)
(3.13142 -0.301135 0)
(3.13153 -0.301044 0)
(3.13131 -0.300404 0)
(3.13122 -0.298802 0)
(3.13232 -0.297146 0)
(3.13253 -0.293477 0)
(3.13254 -0.292224 0)
(3.1348 -0.293818 0)
(3.13689 -0.29657 0)
(3.13789 -0.299328 0)
(3.13922 -0.299454 0)
(3.14124 -0.299947 0)
(3.14347 -0.303652 0)
(3.14276 -0.3088 0)
(3.14014 -0.311069 0)
(3.1381 -0.312047 0)
(3.13983 -0.312797 0)
(3.14089 -0.31319 0)
(3.14295 -0.314203 0)
(3.14576 -0.31714 0)
(3.14867 -0.321954 0)
(3.15152 -0.325088 0)
(3.15274 -0.32597 0)
(3.1535 -0.32652 0)
(3.15406 -0.327363 0)
(3.15472 -0.328528 0)
(3.15556 -0.328918 0)
(3.15859 -0.328066 0)
(3.1603 -0.327024 0)
(3.16239 -0.326384 0)
(3.16385 -0.324433 0)
(3.16386 -0.323591 0)
(3.16373 -0.322378 0)
(3.16167 -0.321822 0)
(3.15497 -0.321481 0)
(3.14096 -0.314004 0)
(3.11699 -0.300946 0)
(3.09653 -0.292153 0)
(3.08619 -0.275839 0)
(3.08041 -0.269373 0)
(3.07424 -0.268562 0)
(3.06284 -0.256306 0)
(3.04518 -0.216396 0)
(3.00197 -0.098094 0)
(3.12857 -0.285597 0)
(3.1293 -0.284188 0)
(3.12993 -0.280732 0)
(3.12885 -0.27633 0)
(3.12704 -0.271151 0)
(3.12687 -0.268616 0)
(3.12723 -0.264983 0)
(3.12692 -0.259243 0)
(3.12561 -0.256538 0)
(3.12441 -0.25601 0)
(3.12496 -0.258972 0)
(3.12444 -0.262364 0)
(3.1245 -0.263013 0)
(3.12571 -0.261928 0)
(3.12825 -0.26397 0)
(3.12915 -0.266991 0)
(3.12835 -0.268877 0)
(3.12709 -0.27058 0)
(3.12602 -0.274781 0)
(3.12668 -0.279225 0)
(3.12861 -0.283344 0)
(3.12892 -0.287922 0)
(3.12892 -0.291234 0)
(3.13274 -0.298513 0)
(3.13603 -0.306111 0)
(3.1371 -0.309105 0)
(3.13746 -0.309114 0)
(3.13788 -0.308181 0)
(3.13848 -0.306028 0)
(3.13941 -0.307054 0)
(3.13963 -0.308556 0)
(3.13845 -0.308626 0)
(3.14026 -0.314456 0)
(3.1429 -0.322713 0)
(3.14345 -0.325865 0)
(3.14569 -0.324329 0)
(3.148 -0.323467 0)
(3.15097 -0.3248 0)
(3.1537 -0.326387 0)
(3.15515 -0.329692 0)
(3.15657 -0.33044 0)
(3.15836 -0.327367 0)
(3.16077 -0.324153 0)
(3.16204 -0.324105 0)
(3.16391 -0.323784 0)
(3.16479 -0.321053 0)
(3.16459 -0.319865 0)
(3.16411 -0.31897 0)
(3.16332 -0.318277 0)
(3.16105 -0.318181 0)
(3.15532 -0.319904 0)
(3.14387 -0.317668 0)
(3.12547 -0.306347 0)
(3.10643 -0.295124 0)
(3.09222 -0.275992 0)
(3.0834 -0.26574 0)
(3.07578 -0.264905 0)
(3.06753 -0.266774 0)
(3.06066 -0.264576 0)
(3.02668 -0.191404 0)
(3.10795 -0.195628 0)
(3.10853 -0.195523 0)
(3.10898 -0.19466 0)
(3.10994 -0.195864 0)
(3.1111 -0.199048 0)
(3.11063 -0.202877 0)