/*--------------------------------*- C++ -*----------------------------------*\
  =========                 |
  \\      /  F ield         | OpenFOAM: The Open Source CFD Toolbox
   \\    /   O peration     | Website:  https://openfoam.org
    \\  /    A nd           | Version:  7
     \\/     M anipulation  |
\*---------------------------------------------------------------------------*/
FoamFile
{
    version     2.0;
    format      ascii;
    class       volScalarField;
    location    "3.5";
    object      p;
}
// * * * * * * * * * * * * * * * * * * * * * * * * * * * * * * * * * * * * * //

dimensions      [1 -1 -2 0 0 0 0];

internalField   nonuniform List<scalar> 
32400
(
0.644391
0.662661
0.683067
0.703829
0.724735
0.745454
0.766326
0.786857
0.807707
0.827907
0.84862
0.868193
0.888398
0.906815
0.925755
0.942491
0.958823
0.973602
0.985992
0.99627
1.00669
1.0097
1.01215
1.01165
1.00923
1.00275
0.990412
0.985779
0.987308
0.990522
0.994176
0.99756
1.00092
1.00208
1.00009
0.996545
0.992482
0.990984
0.992369
0.995591
0.996183
0.993826
0.987779
0.981085
0.978118
0.9774
0.975095
0.97089
0.96669
0.964397
0.963552
0.960971
0.957941
0.956792
0.955625
0.953219
0.950586
0.948431
0.947198
0.944264
0.63014
0.631222
0.633334
0.636689
0.641357
0.647563
0.655241
0.664721
0.675758
0.688932
0.703554
0.720549
0.738615
0.759051
0.780023
0.802756
0.825813
0.848688
0.87273
0.893443
0.915534
0.933256
0.949823
0.962072
0.971753
0.976769
0.988594
0.996591
1.00223
1.00537
1.00499
1.00238
1.00112
0.997499
0.99391
0.992987
0.993372
0.994955
0.997292
0.996823
0.99496
0.990678
0.986567
0.982665
0.979932
0.977335
0.97362
0.969665
0.966551
0.965549
0.963671
0.960359
0.95814
0.956983
0.955416
0.95275
0.950947
0.94869
0.947077
0.94431
0.629552
0.62958
0.629614
0.629652
0.629713
0.629862
0.630136
0.630635
0.631398
0.632594
0.634332
0.636979
0.640647
0.646032
0.653133
0.663099
0.675693
0.692597
0.712824
0.738321
0.767114
0.800467
0.836842
0.872861
0.911762
0.944092
0.972043
0.984024
0.992019
0.99498
0.996238
0.995723
0.99171
0.987279
0.989398
0.994035
1.00001
1.00185
0.99981
0.995349
0.990909
0.986564
0.986412
0.985846
0.98226
0.976259
0.970707
0.96843
0.968021
0.966533
0.963236
0.960268
0.958722
0.957138
0.955044
0.953006
0.951207
0.94871
0.947103
0.944011
0.629106
0.629089
0.629066
0.629032
0.629002
0.628992
0.628995
0.62901
0.629013
0.629017
0.629053
0.629115
0.629197
0.629365
0.629764
0.630499
0.631637
0.633553
0.636506
0.64161
0.649113
0.661631
0.678558
0.704064
0.735614
0.776906
0.821918
0.864514
0.906817
0.931696
0.955802
0.966356
0.973869
0.981208
0.994238
1.00205
1.00595
1.0048
1.00027
0.994338
0.987943
0.987851
0.989255
0.988421
0.982862
0.974568
0.968932
0.969243
0.968996
0.967016
0.962934
0.96055
0.959299
0.957358
0.954555
0.952991
0.951445
0.949153
0.947071
0.943744
0.629063
0.629078
0.629094
0.629111
0.629128
0.629141
0.629154
0.629141
0.629126
0.629107
0.629093
0.629089
0.629092
0.629126
0.629064
0.629014
0.628982
0.628949
0.628928
0.628986
0.629191
0.62985
0.631225
0.634341
0.639852
0.651328
0.668755
0.69973
0.739142
0.790769
0.845755
0.893828
0.942797
0.970044
0.986331
0.992571
0.998073
0.995524
0.988001
0.988828
0.992162
0.99306
0.991565
0.987164
0.980041
0.973253
0.970636
0.970229
0.968533
0.965401
0.96269
0.961421
0.959716
0.956918
0.954402
0.953113
0.951519
0.949003
0.947012
0.943672
0.629325
0.629329
0.629335
0.629341
0.629349
0.629356
0.629354
0.629347
0.629342
0.629326
0.629298
0.629257
0.629215
0.629178
0.629133
0.629064
0.62899
0.628905
0.628817
0.6287
0.628621
0.628475
0.628301
0.628201
0.628242
0.628528
0.629589
0.632859
0.639645
0.655728
0.680945
0.724894
0.779103
0.838449
0.896349
0.926443
0.958503
0.966104
0.979195
0.991135
1.00076
0.999035
0.994072
0.982164
0.974644
0.974637
0.973866
0.971884
0.968077
0.963608
0.963258
0.962591
0.96027
0.956552
0.95442
0.953348
0.951706
0.948902
0.94681
0.943392
0.629605
0.629603
0.629601
0.6296
0.629596
0.629589
0.62959
0.629586
0.629562
0.629531
0.629497
0.629459
0.629419
0.62937
0.629309
0.629237
0.629149
0.629035
0.628893
0.628729
0.628553
0.628383
0.628188
0.627874
0.627696
0.627681
0.627668
0.627742
0.627981
0.628822
0.631074
0.637853
0.651379
0.682531
0.727524
0.791141
0.858843
0.913918
0.966023
0.982949
0.994773
0.992879
0.983868
0.975912
0.976653
0.978015
0.97566
0.97093
0.96519
0.963272
0.96441
0.963494
0.96004
0.956345
0.954632
0.953315
0.95107
0.949045
0.947059
0.943233
0.62953
0.629521
0.629514
0.629512
0.629504
0.629493
0.629496
0.629481
0.629444
0.629418
0.62939
0.629358
0.629323
0.629281
0.629217
0.629141
0.629055
0.628939
0.628786
0.628622
0.628457
0.628276
0.628058
0.627814
0.627666
0.627628
0.627607
0.627584
0.627581
0.627666
0.627943
0.628427
0.629334
0.632138
0.639045
0.658834
0.692555
0.752658
0.823807
0.8807
0.939152
0.951769
0.966053
0.976108
0.984902
0.982744
0.976259
0.966571
0.963218
0.964797
0.96624
0.96377
0.95924
0.956585
0.955291
0.953173
0.950223
0.948709
0.947215
0.943402
0.629451
0.629434
0.629408
0.629387
0.629379
0.629384
0.629365
0.629331
0.629289
0.629258
0.629246
0.629233
0.629208
0.62916
0.629086
0.629012
0.628923
0.628794
0.628655
0.628526
0.628391
0.628241
0.628088
0.627952
0.627814
0.627656
0.627503
0.627441
0.627436
0.627506
0.627744
0.628214
0.628992
0.629624
0.630044
0.631063
0.634311
0.646307
0.671523
0.726086
0.798195
0.870815
0.94311
0.967627
0.979274
0.976447
0.963184
0.962813
0.966239
0.968738
0.966536
0.960513
0.957011
0.957367
0.956193
0.95322
0.9497
0.948471
0.946963
0.943166
0.629467
0.629459
0.629452
0.62945
0.629475
0.629513
0.629504
0.629482
0.629469
0.629444
0.629389
0.629303
0.629256
0.629225
0.629194
0.629155
0.62909
0.62901
0.628955
0.628922
0.628891
0.628853
0.628798
0.628704
0.62855
0.628318
0.628026
0.627834
0.627839
0.627931
0.628119
0.628419
0.628883
0.629406
0.629826
0.629836
0.629586
0.62952
0.630905
0.638599
0.659001
0.711417
0.783834
0.854522
0.919547
0.934665
0.947223
0.965304
0.973827
0.971616
0.962189
0.95702
0.957395
0.958694
0.95667
0.952268
0.949469
0.948576
0.946608
0.942782
0.628442
0.628459
0.628481
0.628514
0.628557
0.628616
0.628687
0.628765
0.628859
0.628972
0.629109
0.62926
0.629388
0.62949
0.629581
0.629671
0.629762
0.629853
0.629951
0.630073
0.630181
0.630209
0.630213
0.630184
0.630089
0.629911
0.629613
0.629268
0.629
0.628808
0.628693
0.628674
0.628773
0.629024
0.629374
0.629489
0.629242
0.628812
0.628212
0.627164
0.627807
0.633851
0.652695
0.703347
0.775584
0.854785
0.927173
0.956168
0.96852
0.962961
0.952168
0.956036
0.961274
0.959566
0.954755
0.95083
0.950423
0.949202
0.946051
0.942302
0.627914
0.62795
0.628
0.628066
0.628142
0.62823
0.628342
0.628487
0.628645
0.628793
0.628957
0.629163
0.629387
0.629598
0.629812
0.63004
0.630269
0.63049
0.6307
0.630896
0.631083
0.631225
0.631259
0.631258
0.631237
0.631147
0.630917
0.630514
0.630021
0.629583
0.629222
0.628836
0.628635
0.628617
0.628774
0.629149
0.629098
0.628836
0.628345
0.627762
0.626505
0.625006
0.625474
0.630822
0.649175
0.6997
0.775688
0.850157
0.908758
0.930774
0.946561
0.965765
0.964932
0.959205
0.951909
0.951333
0.951717
0.949446
0.945372
0.94241
0.627438
0.62748
0.62754
0.627613
0.627696
0.627802
0.627936
0.628099
0.628316
0.628615
0.628916
0.629147
0.629342
0.629554
0.629799
0.630059
0.63031
0.630543
0.630755
0.630939
0.631098
0.631233
0.631315
0.631323
0.631305
0.631234
0.631028
0.630642
0.630176
0.629725
0.62925
0.628694
0.628291
0.628229
0.628261
0.62843
0.628714
0.628975
0.628972
0.628635
0.627618
0.62612
0.624379
0.622461
0.621891
0.626654
0.647558
0.701537
0.780787
0.876655
0.933241
0.959968
0.958284
0.947766
0.949918
0.954652
0.952709
0.947737
0.944105
0.943102
0.628418
0.628421
0.628435
0.628465
0.628531
0.628632
0.628668
0.628689
0.628717
0.628763
0.62886
0.628985
0.629107
0.629244
0.629422
0.629642
0.629871
0.630085
0.630267
0.630409
0.63055
0.630713
0.630729
0.630661
0.630613
0.630528
0.630266
0.629877
0.629596
0.629386
0.629098
0.628626
0.628114
0.627955
0.627977
0.628133
0.628544
0.629125
0.629294
0.629035
0.628159
0.626698
0.624738
0.622481
0.619994
0.617267
0.617689
0.623649
0.651183
0.714494
0.80285
0.886367
0.917572
0.935434
0.957804
0.957239
0.95184
0.945016
0.945202
0.944522
0.62946
0.629463
0.629459
0.629428
0.629425
0.629409
0.629311
0.629251
0.629202
0.629069
0.628842
0.628625
0.62846
0.628316
0.628251
0.628273
0.628326
0.628383
0.628436
0.628496
0.628621
0.628769
0.628812
0.628852
0.628978
0.629064
0.628989
0.628891
0.628969
0.629185
0.629271
0.629231
0.629009
0.628794
0.62866
0.628493
0.628499
0.62891
0.629164
0.62889
0.627953
0.626597
0.624781
0.622163
0.619392
0.617237
0.615769
0.613773
0.615035
0.624581
0.664166
0.737885
0.84123
0.914313
0.95255
0.950546
0.939467
0.942594
0.948154
0.945189
0.629432
0.629481
0.629641
0.629749
0.629736
0.629594
0.629357
0.629101
0.628884
0.628678
0.628422
0.628139
0.627869
0.627625
0.627402
0.627157
0.626975
0.62697
0.627018
0.62714
0.627266
0.627312
0.627373
0.627539
0.627811
0.62821
0.628617
0.628741
0.628948
0.629434
0.630022
0.630531
0.630765
0.630652
0.630157
0.629294
0.628681
0.628463
0.628328
0.627725
0.626549
0.625378
0.624052
0.621895
0.619317
0.617314
0.616356
0.615243
0.613517
0.611472
0.613817
0.630765
0.684159
0.771735
0.868649
0.904535
0.926106
0.950907
0.950275
0.944137
0.62865
0.628636
0.628679
0.628861
0.629006
0.629113
0.629112
0.628957
0.628733
0.6285
0.628239
0.627948
0.627692
0.627506
0.627338
0.627111
0.626889
0.626848
0.626916
0.627186
0.627506
0.627502
0.627478
0.627645
0.627959
0.628413
0.628839
0.62897
0.629247
0.629735
0.630337
0.63103
0.631536
0.631517
0.631011
0.629889
0.628585
0.627606
0.626967
0.625768
0.624763
0.624221
0.623454
0.62186
0.619927
0.618545
0.617532
0.616372
0.614499
0.61231
0.60876
0.607976
0.613252
0.644665
0.714737
0.824094
0.904805
0.945454
0.943604
0.936483
0.628565
0.628681
0.628771
0.628853
0.628966
0.629128
0.629347
0.629642
0.629766
0.62984
0.629982
0.629942
0.62968
0.629647
0.62973
0.629726
0.629608
0.629347
0.629023
0.628775
0.628607
0.628648
0.628864
0.629293
0.629649
0.629614
0.629153
0.628531
0.628508
0.628751
0.629289
0.630133
0.630672
0.630609
0.629944
0.628718
0.627729
0.626914
0.626122
0.624919
0.624238
0.623901
0.623389
0.622474
0.621189
0.619915
0.618538
0.616899
0.615007
0.612365
0.608987
0.60604
0.602819
0.604782
0.619964
0.672578
0.764226
0.863008
0.900137
0.927531
0.631702
0.632095
0.632444
0.632663
0.632853
0.633117
0.633511
0.633775
0.633779
0.633781
0.633873
0.633721
0.632717
0.631754
0.631541
0.631549
0.631578
0.631563
0.631448
0.63132
0.631271
0.631155
0.631096
0.631158
0.631078
0.630599
0.629716
0.628077
0.626282
0.626012
0.62613
0.626713
0.627362
0.627358
0.627064
0.626758
0.626524
0.626066
0.625501
0.624811
0.624313
0.624194
0.623824
0.622832
0.621578
0.620319
0.618764
0.616581
0.614096
0.611502
0.609005
0.606027
0.603491
0.60157
0.601944
0.607963
0.639589
0.712971
0.821334
0.913954
0.635643
0.635723
0.636182
0.636516
0.636646
0.636774
0.63679
0.636639
0.636159
0.636018
0.635758
0.634822
0.633241
0.63162
0.630159
0.629476
0.629512
0.62976
0.629778
0.629466
0.62909
0.628775
0.628812
0.629239
0.629476
0.629427
0.629215
0.628258
0.626246
0.625359
0.625362
0.625809
0.625979
0.625962
0.626007
0.626188
0.626571
0.627419
0.627809
0.627488
0.626764
0.625236
0.623637
0.622063
0.620517
0.619055
0.617317
0.615077
0.612858
0.610897
0.608965
0.606595
0.605258
0.60421
0.603229
0.600881
0.602226
0.61704
0.66698
0.80103
0.642682
0.6426
0.642633
0.642686
0.642639
0.642308
0.641795
0.641109
0.640429
0.639845
0.639113
0.637975
0.636919
0.635767
0.633894
0.632859
0.632802
0.6335
0.634162
0.634344
0.633984
0.633606
0.633803
0.634162
0.63421
0.634525
0.63577
0.636959
0.636537
0.636123
0.635867
0.63463
0.631426
0.629144
0.628741
0.628745
0.629561
0.631143
0.631865
0.631446
0.630282
0.627547
0.623414
0.619921
0.618222
0.617122
0.615883
0.614124
0.612267
0.610861
0.609624
0.609081
0.607839
0.606198
0.603741
0.600914
0.596848
0.59585
0.601681
0.676934
0.684325
0.683317
0.682882
0.682607
0.6819
0.68036
0.679486
0.678622
0.676319
0.675308
0.675194
0.673968
0.672155
0.671782
0.670959
0.667948
0.666486
0.666052
0.665295
0.664838
0.663412
0.66088
0.659823
0.6583
0.657265
0.657353
0.657858
0.658354
0.65878
0.658653
0.657486
0.654415
0.64936
0.644787
0.641019
0.63834
0.637468
0.636532
0.634643
0.63238
0.629693
0.626246
0.622229
0.619206
0.617882
0.617099
0.616184
0.614588
0.613781
0.613776
0.613619
0.612362
0.60967
0.606745
0.602565
0.599067
0.595842
0.593353
0.591749
0.60856
0.728053
0.729375
0.729664
0.729387
0.727662
0.725292
0.725231
0.724925
0.723794
0.724009
0.723606
0.723151
0.723517
0.72339
0.722406
0.720463
0.717937
0.717081
0.716119
0.713784
0.710329
0.707011
0.704188
0.700236
0.695117
0.691699
0.688597
0.681914
0.677751
0.677599
0.676088
0.671857
0.668351
0.667213
0.666153
0.66339
0.658224
0.652265
0.646633
0.641055
0.636781
0.635189
0.633461
0.631182
0.62727
0.625084
0.624926
0.624226
0.623058
0.621278
0.618713
0.615304
0.610793
0.605961
0.60158
0.598489
0.595766
0.595548
0.595022
0.593997
0.811816
0.810748
0.809826
0.80883
0.807463
0.805895
0.804341
0.802743
0.801383
0.799363
0.796955
0.794964
0.791791
0.790039
0.788837
0.786018
0.781237
0.779841
0.778886
0.775288
0.771013
0.770912
0.770693
0.768159
0.764082
0.760872
0.757028
0.751502
0.745745
0.740454
0.735468
0.727669
0.718292
0.716522
0.716358
0.712557
0.706567
0.701445
0.694469
0.684922
0.67698
0.672604
0.668081
0.661775
0.654294
0.64702
0.640997
0.63525
0.630525
0.624993
0.619648
0.614153
0.610182
0.606327
0.603475
0.600748
0.600042
0.600153
0.598135
0.591671
0.905439
0.903524
0.90262
0.902079
0.901154
0.898899
0.89718
0.895696
0.894135
0.892496
0.890574
0.887135
0.884519
0.883429
0.881816
0.878813
0.875041
0.871413
0.867597
0.863364
0.859084
0.854912
0.850621
0.845252
0.839605
0.834517
0.828825
0.82159
0.816135
0.812426
0.808322
0.802501
0.79507
0.787947
0.780973
0.768154
0.756551
0.750877
0.743757
0.736635
0.726998
0.714989
0.704724
0.694969
0.685156
0.675348
0.666983
0.658149
0.649523
0.641729
0.634829
0.628917
0.624468
0.6195
0.617954
0.615078
0.610779
0.606103
0.599952
0.590476
1.01588
1.01442
1.01266
1.01108
1.00946
1.00733
1.00478
1.00243
1.00032
0.998568
0.996136
0.992814
0.9887
0.985709
0.983245
0.980323
0.976446
0.972086
0.967641
0.96304
0.958621
0.954072
0.949338
0.94405
0.938082
0.932064
0.925758
0.919008
0.91186
0.903911
0.895607
0.887446
0.878479
0.869836
0.862478
0.853858
0.842875
0.831976
0.817502
0.806647
0.798226
0.787352
0.773162
0.760461
0.749231
0.737961
0.726899
0.716348
0.704164
0.692621
0.68111
0.669538
0.65833
0.646356
0.63606
0.625554
0.616901
0.607335
0.600637
0.592541
1.14009
1.13926
1.13789
1.1357
1.13316
1.13078
1.12835
1.12439
1.12194
1.12033
1.11763
1.11376
1.10989
1.10644
1.10269
1.09854
1.09421
1.08925
1.08447
1.07953
1.0737
1.06775
1.06167
1.05518
1.04836
1.04119
1.03372
1.02568
1.01748
1.00901
0.999888
0.990312
0.980147
0.969553
0.95784
0.945773
0.932994
0.920919
0.908684
0.895408
0.878658
0.864349
0.850255
0.834906
0.819383
0.804437
0.789026
0.773638
0.757824
0.742331
0.726213
0.710813
0.695034
0.680152
0.665884
0.651773
0.640144
0.628303
0.621466
0.612076
1.27785
1.2762
1.27453
1.27258
1.26876
1.26602
1.2642
1.26179
1.25892
1.25602
1.25154
1.24771
1.24477
1.24071
1.23584
1.23117
1.22653
1.22124
1.21519
1.20932
1.20332
1.19638
1.18922
1.18193
1.17408
1.16581
1.15709
1.14805
1.13825
1.12804
1.11702
1.10577
1.09398
1.08144
1.06862
1.05479
1.04031
1.02555
1.00851
0.992869
0.977701
0.959699
0.941585
0.924233
0.906901
0.888831
0.870991
0.852935
0.834773
0.816833
0.798647
0.780637
0.762816
0.745747
0.728019
0.711671
0.693733
0.676553
0.661
0.636648
1.41168
1.40996
1.4085
1.40656
1.40362
1.40184
1.39997
1.39734
1.39457
1.39113
1.38796
1.38522
1.38156
1.37709
1.37319
1.36894
1.36406
1.35879
1.35304
1.34712
1.34062
1.33373
1.32624
1.31857
1.31037
1.30145
1.29201
1.282
1.27171
1.26013
1.24799
1.23493
1.22159
1.20776
1.19254
1.17733
1.16069
1.14257
1.12525
1.10547
1.08589
1.06684
1.04663
1.02572
1.00526
0.984244
0.96337
0.941867
0.920402
0.898145
0.876459
0.853785
0.831846
0.809437
0.787839
0.765866
0.744489
0.722939
0.703705
0.673476
1.49765
1.49718
1.49671
1.49599
1.49518
1.49445
1.49359
1.49253
1.49148
1.49032
1.48873
1.48725
1.48563
1.48333
1.4814
1.47944
1.47669
1.47318
1.46954
1.46587
1.46164
1.45662
1.45092
1.44456
1.43813
1.43106
1.42326
1.41462
1.4052
1.39491
1.38314
1.37024
1.35604
1.34125
1.32598
1.30954
1.29251
1.27347
1.25338
1.23283
1.21055
1.18761
1.16327
1.1401
1.11687
1.09285
1.06798
1.04402
1.01869
0.993365
0.96805
0.942603
0.917067
0.891451
0.866481
0.841903
0.81848
0.794278
0.773809
0.738815
1.5236
1.52368
1.52378
1.52372
1.52332
1.52275
1.52275
1.52278
1.52258
1.52253
1.52242
1.52207
1.5214
1.52036
1.5191
1.51782
1.51664
1.51556
1.51454
1.51365
1.5132
1.51288
1.51242
1.51178
1.51049
1.50897
1.5071
1.50436
1.50055
1.49545
1.48878
1.48074
1.47114
1.45967
1.44723
1.43492
1.42139
1.4047
1.38547
1.36409
1.342
1.32001
1.29534
1.2678
1.24083
1.2139
1.18582
1.15814
1.12996
1.10068
1.07143
1.04228
1.01265
0.983301
0.953412
0.92454
0.89597
0.867147
0.841675
0.79939
1.52101
1.52128
1.52148
1.52166
1.52176
1.52189
1.52208
1.52226
1.52238
1.52245
1.52254
1.52272
1.52272
1.52228
1.52245
1.52299
1.52197
1.52129
1.52273
1.52332
1.52306
1.52273
1.52195
1.51982
1.51713
1.5158
1.51542
1.51571
1.51677
1.51764
1.51813
1.51825
1.51716
1.51377
1.51089
1.50858
1.50423
1.49598
1.48462
1.47119
1.45587
1.43839
1.41888
1.39713
1.37279
1.34447
1.31445
1.28412
1.25387
1.22169
1.18864
1.15506
1.12117
1.08728
1.05362
1.01982
0.987183
0.954
0.924948
0.877683
1.48265
1.48401
1.48499
1.48504
1.48533
1.4865
1.48738
1.48855
1.49088
1.49171
1.49239
1.49425
1.49537
1.49547
1.49577
1.49754
1.4991
1.49899
1.5
1.50294
1.50597
1.50877
1.51123
1.51267
1.51298
1.51292
1.51193
1.51072
1.51101
1.51233
1.51288
1.5131
1.51338
1.5131
1.51331
1.51443
1.51403
1.51215
1.50976
1.5061
1.50082
1.49556
1.48837
1.47868
1.46645
1.45048
1.43054
1.40718
1.38059
1.3509
1.31795
1.28299
1.24586
1.2077
1.16922
1.1301
1.09187
1.05293
1.01881
0.962791
1.33732
1.33929
1.34277
1.34599
1.34745
1.34929
1.35195
1.35488
1.35937
1.36379
1.3662
1.36949
1.37512
1.3782
1.37981
1.38311
1.38819
1.39351
1.397
1.40088
1.40647
1.41291
1.41878
1.42421
1.43049
1.43668
1.44268
1.44974
1.45612
1.46199
1.46785
1.47417
1.47894
1.48262
1.48711
1.493
1.49501
1.49676
1.49866
1.49963
1.49927
1.49761
1.4942
1.48978
1.48517
1.47949
1.47265
1.46444
1.45463
1.44116
1.42312
1.40047
1.37215
1.33842
1.30046
1.25948
1.21644
1.17133
1.13077
1.06392
1.11022
1.11171
1.11353
1.11666
1.11884
1.12044
1.12268
1.12525
1.12784
1.13146
1.1351
1.13807
1.14176
1.1463
1.15066
1.15523
1.16054
1.16652
1.17263
1.17875
1.18583
1.19362
1.20213
1.21094
1.2207
1.23137
1.24253
1.25458
1.26714
1.28055
1.2942
1.30871
1.32332
1.33886
1.35525
1.37147
1.38776
1.40324
1.41865
1.43163
1.4418
1.45402
1.46407
1.46714
1.46875
1.46975
1.46874
1.46569
1.46039
1.45422
1.44717
1.4392
1.42896
1.41646
1.39873
1.37434
1.34293
1.30295
1.26213
1.18716
1.00998
1.01021
1.01057
1.01096
1.01131
1.01172
1.01219
1.01266
1.01315
1.01375
1.01451
1.01522
1.01597
1.01693
1.01805
1.01924
1.02055
1.02205
1.02376
1.02566
1.02781
1.03023
1.03297
1.03613
1.03976
1.04401
1.04886
1.05448
1.06089
1.06826
1.07659
1.08624
1.09727
1.11004
1.12445
1.14106
1.15948
1.17991
1.20245
1.22709
1.25309
1.28055
1.30626
1.33308
1.35828
1.37907
1.39702
1.41156
1.42386
1.42848
1.43225
1.4312
1.42758
1.42096
1.4139
1.40574
1.39497
1.38057
1.36201
1.31119
1.00021
1.00021
1.00022
1.00023
1.00025
1.00026
1.00027
1.00029
1.00031
1.00033
1.00035
1.00038
1.00041
1.00045
1.00049
1.00054
1.0006
1.00066
1.00074
1.00084
1.00095
1.00108
1.00125
1.00144
1.00168
1.00198
1.00235
1.00282
1.0034
1.00414
1.00506
1.00626
1.00779
1.00976
1.01233
1.01561
1.01998
1.02548
1.0328
1.04204
1.05397
1.06863
1.08735
1.1088
1.13528
1.16432
1.19653
1.22949
1.26382
1.29532
1.32488
1.34923
1.36731
1.38241
1.38858
1.39274
1.39069
1.38409
1.37652
1.35847
1
1
1
1
1
1
1
1
1
1
1
1
1
1
1
1
1.00001
1.00001
1.00001
1.00001
1.00001
1.00001
1.00001
1.00002
1.00002
1.00002
1.00003
1.00004
1.00005
1.00006
1.00008
1.00011
1.00014
1.0002
1.00028
1.00039
1.00057
1.00082
1.00122
1.00182
1.00277
1.00419
1.00642
1.00975
1.01481
1.02215
1.03264
1.04711
1.06594
1.09059
1.11916
1.15311
1.18887
1.22573
1.26047
1.29246
1.31682
1.33439
1.34776
1.34618
1
1
1
1
1
1
1
1
1
1
1
1
1
1
1
1
1
1
1
1
1
1
1
1
1
1
1
1
1
1
1
1
1
1
1
1
1.00001
1.00001
1.00001
1.00002
1.00004
1.00006
1.00011
1.0002
1.00037
1.00068
1.00127
1.00232
1.00422
1.00744
1.01282
1.02124
1.03399
1.05182
1.07583
1.10505
1.13942
1.1761
1.21063
1.25557
1
1
1
1
1
1
1
1
1
1
1
1
1
1
1
1
1
1
1
1
1
1
1
1
1
1
1
1
1
1
1
1
1
1
1
1
1
1
1
1
1
1
1
1
1
1.00001
1.00001
1.00003
1.00007
1.00015
1.00032
1.0007
1.00147
1.00302
1.00593
1.01109
1.01963
1.03322
1.05034
1.09112
1
1
1
1
1
1
1
1
1
1
1
1
1
1
1
1
1
1
1
1
1
1
1
1
1
1
1
1
1
1
1
1
1
1
1
1
1
1
1
1
1
1
1
1
1
1
1
1
1
1
1
1.00001
1.00002
1.00005
1.00011
1.00028
1.00066
1.00154
1.00307
1.00995
1
1
1
1
1
1
1
1
1
1
1
1
1
1
1
1
1
1
1
1
1
1
1
1
1
1
1
1
1
1
1
1
1
1
1
1
1
1
1
1
1
1
1
1
1
1
1
1
1
1
1
1
1
1
1
1
1.00001
1.00002
1.00005
1.00028
1
1
1
1
1
1
1
1
1
1
1
1
1
1
1
1
1
1
1
1
1
1
1
1
1
1
1
1
1
1
1
1
1
1
1
1
1
1
1
1
1
1
1
1
1
1
1
1
1
1
1
1
1
1
1
1
1
1
1
1
1
1
1
1
1
1
1
1
1
1
1
1
1
1
1
1
1
1
1
1
1
1
1
1
1
1
1
1
1
1
1
1
1
1
1
1
1
1
1
1
1
1
1
1
1
1
1
1
1
1
1
1
1
1
1
1
1
1
1
1
1
1
1
1
1
1
1
1
1
1
1
1
1
1
1
1
1
1
1
1
1
1
1
1
1
1
1
1
1
1
1
1
1
1
1
1
1
1
1
1
1
1
1
1
1
1
1
1
1
1
1
1
1
1
1
1
1
1
1
1
0.629944
0.629744
0.629545
0.6291
0.629048
0.629324
0.629606
0.629533
0.629443
0.629471
0.628424
0.627872
0.627393
0.628423
0.629498
0.629444
0.628681
0.628394
0.631217
0.635703
0.642848
0.685422
0.727708
0.813329
0.907322
1.01766
1.14171
1.28029
1.41403
1.4984
1.52371
1.52057
1.48178
1.33477
1.10822
1.00966
1.0002
1
1
1
1
1
1
1
1
0.629973
0.62975
0.629535
0.629096
0.62904
0.629331
0.629602
0.629518
0.629412
0.629464
0.628393
0.627818
0.627348
0.628469
0.629602
0.629522
0.628672
0.628182
0.630634
0.636117
0.64406
0.687023
0.728959
0.815849
0.9101
1.02073
1.1459
1.28396
1.41692
1.49956
1.52412
1.52025
1.48076
1.33128
1.10532
1.00916
1.00018
1
1
1
1
1
1
1
1
0.629978
0.629765
0.629539
0.629097
0.629031
0.629337
0.629576
0.629481
0.6294
0.629461
0.628369
0.627768
0.627312
0.628537
0.629759
0.629669
0.628666
0.628001
0.630021
0.636324
0.645611
0.688458
0.731882
0.818401
0.912829
1.02387
1.15022
1.28776
1.41963
1.5007
1.52468
1.52035
1.47981
1.32803
1.10241
1.00867
1.00017
1
1
1
1
1
1
1
1
0.629972
0.62977
0.629553
0.629097
0.629021
0.629331
0.629549
0.629454
0.629406
0.629465
0.62835
0.627722
0.627286
0.628624
0.629998
0.629924
0.628744
0.627843
0.629449
0.636073
0.647031
0.689744
0.735129
0.821224
0.915618
1.02715
1.15409
1.29189
1.42295
1.50203
1.52522
1.5205
1.47873
1.32432
1.09908
1.00815
1.00015
1
1
1
1
1
1
1
1
0.629936
0.62977
0.629563
0.629084
0.629004
0.629311
0.629521
0.629433
0.629419
0.629475
0.628339
0.627684
0.62727
0.628711
0.630237
0.630258
0.628857
0.627683
0.628957
0.635699
0.648467
0.691131
0.738241
0.82409
0.918541
1.03057
1.15772
1.29584
1.42661
1.50344
1.52568
1.52
1.47746
1.31974
1.09563
1.00768
1.00014
1
1
1
1
1
1
1
1
0.629919
0.629766
0.629566
0.629069
0.628981
0.629292
0.629487
0.629414
0.629438
0.629488
0.628333
0.627653
0.627259
0.628787
0.630454
0.630527
0.628956
0.627511
0.628541
0.635528
0.649606
0.692539
0.741001
0.826931
0.921621
1.03416
1.16151
1.2998
1.42989
1.50484
1.52606
1.51905
1.47603
1.31523
1.09246
1.00724
1.00013
1
1
1
1
1
1
1
1
0.629919
0.62974
0.629553
0.629039
0.628949
0.629276
0.629444
0.629396
0.629458
0.629502
0.628332
0.627625
0.62725
0.628856
0.630641
0.63068
0.629
0.627285
0.628199
0.635305
0.64995
0.693861
0.743487
0.829772
0.924628
1.03766
1.16554
1.30415
1.43303
1.5062
1.5264
1.51877
1.47457
1.31086
1.08931
1.00678
1.00012
1
1
1
1
1
1
1
1
0.629951
0.629703
0.629499
0.628996
0.62892
0.62926
0.629396
0.629376
0.629482
0.629519
0.628331
0.627596
0.627235
0.62892
0.630801
0.630716
0.628954
0.626965
0.62789
0.634961
0.649701
0.695007
0.745785
0.832587
0.927324
1.04127
1.16999
1.30879
1.43642
1.50746
1.5267
1.51895
1.4731
1.30612
1.08595
1.00632
1.00011
1
1
1
1
1
1
1
1
0.629996
0.629685
0.629429
0.628979
0.6289
0.629236
0.629347
0.629357
0.629511
0.629538
0.628331
0.627568
0.62721
0.628978
0.630933
0.630697
0.628827
0.626586
0.627554
0.634576
0.649156
0.695872
0.74785
0.835393
0.930128
1.04551
1.17474
1.31343
1.44012
1.50866
1.52693
1.5191
1.47169
1.30095
1.08245
1.00588
1.0001
1
1
1
1
1
1
1
1
0.630016
0.629676
0.629366
0.628975
0.62888
0.629197
0.629299
0.629346
0.629534
0.629557
0.628332
0.627547
0.627193
0.629036
0.631031
0.630723
0.628666
0.626148
0.627151
0.634038
0.649089
0.696457
0.75029
0.838355
0.933988
1.05026
1.17949
1.31831
1.44388
1.50999
1.52701
1.51874
1.47053
1.29566
1.07899
1.00545
1.00009
1
1
1
1
1
1
1
1
0.630023
0.629658
0.629294
0.628967
0.628862
0.629152
0.629253
0.629345
0.629553
0.629586
0.628343
0.627545
0.627214
0.629122
0.6311
0.630782
0.628406
0.625651
0.6267
0.633448
0.649983
0.697531
0.754022
0.84159
0.938723
1.05499
1.18425
1.32365
1.44771
1.51165
1.52695
1.51761
1.46939
1.29032
1.0755
1.00503
1.00008
1
1
1
1
1
1
1
1
0.63003
0.629642
0.629201
0.628934
0.628842
0.629118
0.62921
0.629353
0.6296
0.629651
0.6284
0.627605
0.627344
0.629263
0.631149
0.630805
0.628098
0.625134
0.62626
0.633213
0.651523
0.699988
0.757961
0.845067
0.943425
1.05958
1.18924
1.3293
1.45168
1.51333
1.52672
1.51632
1.46735
1.28488
1.07196
1.00462
1.00007
1
1
1
1
1
1
1
1
0.630032
0.629624
0.629095
0.628895
0.628822
0.629087
0.629167
0.629367
0.629698
0.629723
0.628492
0.627726
0.627554
0.62944
0.631178
0.630792
0.627797
0.624631
0.625895
0.633413
0.653362
0.700636
0.761316
0.848771
0.947938
1.064
1.19477
1.33496
1.45565
1.51457
1.52628
1.51548
1.46407
1.27917
1.06839
1.00423
1.00006
1
1
1
1
1
1
1
1
0.629978
0.629545
0.629006
0.628868
0.628812
0.629049
0.629124
0.629376
0.629756
0.629771
0.628599
0.62786
0.627791
0.629618
0.631193
0.630745
0.627479
0.624155
0.625656
0.63422
0.655
0.699833
0.764767
0.852552
0.952282
1.06851
1.201
1.34059
1.45951
1.51539
1.52549
1.51504
1.46044
1.27301
1.0648
1.00386
1.00006
1
1
1
1
1
1
1
1
0.62988
0.629461
0.628944
0.628831
0.628808
0.629016
0.629079
0.629371
0.62978
0.629805
0.628727
0.628013
0.628014
0.629766
0.631203
0.630703
0.627217
0.62375
0.625566
0.63538
0.656509
0.699798
0.768681
0.856225
0.956555
1.07375
1.20748
1.34632
1.46333
1.51631
1.52499
1.5148
1.45705
1.26639
1.06122
1.0035
1.00005
1
1
1
1
1
1
1
1
0.629799
0.629402
0.628891
0.628796
0.628806
0.629004
0.629041
0.629349
0.629786
0.629844
0.628883
0.628186
0.628207
0.62984
0.631206
0.630696
0.627084
0.62346
0.625567
0.637025
0.659028
0.703307
0.773088
0.859678
0.961044
1.07998
1.21385
1.35241
1.46719
1.51822
1.52482
1.51431
1.45352
1.25944
1.05763
1.00316
1.00004
1
1
1
1
1
1
1
1
0.629707
0.629328
0.628839
0.628773
0.628814
0.629004
0.629016
0.629326
0.62979
0.629901
0.629061
0.628374
0.628362
0.629843
0.631195
0.630729
0.627051
0.623312
0.625601
0.639233
0.663054
0.708687
0.777595
0.863213
0.966224
1.08651
1.22017
1.35895
1.47111
1.5201
1.52475
1.51314
1.44962
1.25221
1.05407
1.00283
1.00004
1
1
1
1
1
1
1
1
0.629612
0.629231
0.628786
0.628761
0.628843
0.629009
0.629005
0.62932
0.629821
0.629986
0.629261
0.628566
0.628481
0.629821
0.631166
0.630789
0.627068
0.623278
0.625728
0.642057
0.666335
0.710442
0.781669
0.867406
0.97226
1.0928
1.22676
1.36578
1.47499
1.52117
1.52431
1.5116
1.44533
1.24468
1.0505
1.00253
1.00003
1
1
1
1
1
1
1
1
0.629504
0.629129
0.628743
0.628758
0.628893
0.62902
0.629003
0.62932
0.629872
0.630093
0.629481
0.628751
0.628571
0.629787
0.631132
0.63088
0.627149
0.623295
0.626499
0.645294
0.668244
0.710435
0.78554
0.872172
0.978393
1.09891
1.23397
1.37255
1.47879
1.52175
1.52395
1.50975
1.44045
1.23678
1.04695
1.00224
1.00003
1
1
1
1
1
1
1
1
0.629366
0.629033
0.628716
0.628763
0.628948
0.62904
0.629004
0.62932
0.629924
0.630214
0.629713
0.628925
0.628646
0.629734
0.631114
0.630989
0.62736
0.62349
0.627483
0.648172
0.669186
0.709694
0.789649
0.876895
0.98433
1.10532
1.2417
1.37938
1.48257
1.52209
1.52393
1.50799
1.43485
1.22854
1.0435
1.00197
1.00002
1
1
1
1
1
1
1
1
0.629216
0.628925
0.628695
0.628804
0.629015
0.629064
0.629007
0.629341
0.629992
0.630345
0.62994
0.62909
0.628727
0.629544
0.631074
0.631001
0.627486
0.623923
0.627783
0.649904
0.669585
0.710829
0.794345
0.88173
0.990426
1.11253
1.24966
1.38658
1.48629
1.52256
1.52403
1.50747
1.42878
1.2201
1.0401
1.00173
1.00002
1
1
1
1
1
1
1
1
0.62907
0.628799
0.628671
0.628867
0.629091
0.629095
0.629011
0.629408
0.630095
0.630481
0.630136
0.629273
0.628802
0.629224
0.630753
0.630825
0.627409
0.624026
0.627551
0.650364
0.669893
0.715701
0.799664
0.887073
0.996943
1.12053
1.25792
1.3941
1.48996
1.52362
1.52401
1.50897
1.42252
1.21141
1.03673
1.0015
1.00002
1
1
1
1
1
1
1
1
0.628915
0.628679
0.628645
0.628911
0.629166
0.629134
0.629029
0.629514
0.630247
0.630618
0.63029
0.629467
0.628866
0.629009
0.630191
0.630442
0.627342
0.624008
0.627279
0.650185
0.670851
0.721839
0.804936
0.893139
1.00402
1.12891
1.26653
1.40168
1.49365
1.52468
1.5238
1.50989
1.41617
1.20226
1.03342
1.00129
1.00001
1
1
1
1
1
1
1
1
0.628735
0.628583
0.628633
0.628962
0.629246
0.629177
0.6291
0.629653
0.630417
0.630733
0.630429
0.629661
0.628903
0.628916
0.629704
0.629928
0.627313
0.624114
0.62771
0.650628
0.673034
0.727976
0.809693
0.899864
1.0117
1.13751
1.27545
1.40932
1.49739
1.5255
1.52394
1.50946
1.40953
1.19265
1.03019
1.0011
1.00001
1
1
1
1
1
1
1
1
0.628535
0.628508
0.628635
0.62902
0.629318
0.629228
0.62921
0.629803
0.630555
0.630822
0.63055
0.629846
0.628901
0.628842
0.629338
0.629501
0.627311
0.624949
0.629114
0.652974
0.676624
0.733636
0.814047
0.907137
1.01981
1.14637
1.28478
1.4171
1.5012
1.52611
1.5246
1.50805
1.40261
1.18272
1.02708
1.00093
1.00001
1
1
1
1
1
1
1
1
0.62833
0.62845
0.628641
0.629061
0.629379
0.6293
0.629326
0.629931
0.630634
0.630882
0.630641
0.630022
0.628888
0.628601
0.629033
0.629311
0.627713
0.626396
0.630592
0.654989
0.678628
0.738625
0.818504
0.914706
1.02812
1.15565
1.29459
1.42507
1.50496
1.52637
1.52525
1.50677
1.39567
1.17256
1.0241
1.00077
1.00001
1
1
1
1
1
1
1
1