/*--------------------------------*- C++ -*----------------------------------*\
  =========                 |
  \\      /  F ield         | OpenFOAM: The Open Source CFD Toolbox
   \\    /   O peration     | Website:  https://openfoam.org
    \\  /    A nd           | Version:  7
     \\/     M anipulation  |
\*---------------------------------------------------------------------------*/
FoamFile
{
    version     2.0;
    format      ascii;
    class       volScalarField;
    location    "7.5";
    object      p;
}
// * * * * * * * * * * * * * * * * * * * * * * * * * * * * * * * * * * * * * //

dimensions      [1 -1 -2 0 0 0 0];

internalField   nonuniform List<scalar> 
90000
(
0.908218
0.905119
0.903536
0.902489
0.900802
0.901082
0.902474
0.903523
0.904928
0.906805
0.909425
0.911527
0.913944
0.916323
0.919434
0.921741
0.924308
0.926221
0.928872
0.930774
0.932963
0.934191
0.935805
0.936703
0.937789
0.938538
0.939847
0.94114
0.942972
0.944632
0.946862
0.949083
0.952011
0.954905
0.958345
0.961615
0.964865
0.968479
0.973795
0.978415
0.983091
0.987249
0.990942
0.994131
0.996573
0.998479
0.996446
0.991499
0.98181
0.973
0.96578
0.962889
0.964082
0.967476
0.972382
0.977089
0.981837
0.98548
0.988241
0.989745
0.991078
0.989542
0.985015
0.976745
0.969259
0.963967
0.962834
0.965275
0.970325
0.97661
0.981738
0.986507
0.985385
0.980851
0.972586
0.967969
0.964517
0.967767
0.973485
0.9798
0.982123
0.979631
0.975252
0.973126
0.973597
0.976046
0.980502
0.980845
0.978952
0.976158
0.975724
0.977721
0.979872
0.980397
0.978985
0.97641
0.975315
0.975256
0.974791
0.974167
0.91344
0.913498
0.913633
0.91369
0.913761
0.913954
0.914272
0.914546
0.914829
0.915195
0.915777
0.916253
0.916732
0.917525
0.918514
0.919306
0.920241
0.92126
0.92236
0.923585
0.924763
0.925928
0.927303
0.928886
0.930425
0.931915
0.933253
0.934578
0.935896
0.937362
0.938848
0.940259
0.941638
0.943091
0.944639
0.946108
0.947558
0.949306
0.95179
0.954782
0.958152
0.961931
0.965941
0.97
0.974596
0.978852
0.983728
0.987802
0.991869
0.994693
0.993405
0.989049
0.983511
0.977575
0.973038
0.969468
0.969228
0.970404
0.972462
0.975409
0.979889
0.984321
0.990046
0.989811
0.986999
0.979594
0.971568
0.965723
0.964071
0.965921
0.969786
0.975945
0.982697
0.986915
0.984359
0.976508
0.96914
0.966797
0.968678
0.972987
0.978468
0.982439
0.980379
0.975391
0.971658
0.973037
0.977457
0.981252
0.980109
0.977123
0.975047
0.975883
0.978569
0.980094
0.979687
0.977999
0.976346
0.975526
0.974941
0.974547
0.914987
0.915011
0.915027
0.915019
0.915022
0.915089
0.915223
0.915368
0.91549
0.91558
0.915587
0.915566
0.915608
0.915773
0.916096
0.916349
0.9166
0.916967
0.917396
0.917847
0.918326
0.918868
0.919497
0.920204
0.921014
0.921985
0.923125
0.924454
0.925732
0.927102
0.928516
0.929823
0.931018
0.932241
0.93352
0.934824
0.936027
0.937337
0.938974
0.941154
0.94358
0.946596
0.949813
0.953405
0.957391
0.961371
0.965912
0.970125
0.974417
0.977854
0.980186
0.981825
0.984327
0.986543
0.986184
0.984229
0.981011
0.977373
0.974648
0.973513
0.974121
0.975674
0.9784
0.981046
0.98378
0.984769
0.983137
0.977352
0.970888
0.965103
0.965191
0.967379
0.972217
0.978035
0.984432
0.986126
0.982191
0.974737
0.968309
0.968605
0.9719
0.976929
0.983266
0.981843
0.976977
0.972857
0.973784
0.976888
0.980892
0.979853
0.977307
0.975913
0.977162
0.979867
0.979878
0.979031
0.977351
0.976021
0.975123
0.974528
0.918175
0.918143
0.918152
0.918191
0.918268
0.91857
0.918773
0.918765
0.918765
0.918852
0.918904
0.918867
0.918824
0.918838
0.918819
0.91881
0.918876
0.919036
0.919109
0.91914
0.919245
0.919342
0.919409
0.919499
0.919679
0.919916
0.920215
0.920335
0.920585
0.921065
0.921735
0.92248
0.923243
0.924039
0.925306
0.926858
0.928401
0.929968
0.931504
0.933284
0.935046
0.937023
0.939079
0.941593
0.944276
0.947549
0.950725
0.954596
0.958819
0.962768
0.96811
0.971857
0.974594
0.977135
0.977942
0.977902
0.978156
0.978054
0.977928
0.977172
0.975817
0.974401
0.974151
0.974912
0.976394
0.978105
0.979299
0.979825
0.978605
0.974514
0.970339
0.967238
0.967735
0.969977
0.975067
0.978008
0.981498
0.981513
0.977958
0.973323
0.970643
0.971941
0.975603
0.979232
0.981607
0.978594
0.974078
0.974314
0.976736
0.980809
0.979902
0.977277
0.975929
0.977485
0.980294
0.979783
0.978276
0.976383
0.975703
0.974822
0.921793
0.921778
0.921784
0.921837
0.921982
0.922069
0.92204
0.921937
0.921919
0.921966
0.921991
0.921978
0.921883
0.921798
0.921791
0.921842
0.921883
0.921862
0.921745
0.921629
0.921616
0.921616
0.921585
0.921483
0.92146
0.921455
0.921361
0.921203
0.921228
0.921403
0.921661
0.921863
0.922067
0.922467
0.922618
0.92282
0.92312
0.923553
0.924296
0.925328
0.926535
0.927768
0.929046
0.930601
0.932265
0.934383
0.936469
0.938972
0.941829
0.945305
0.949602
0.954348
0.958784
0.962768
0.967239
0.969484
0.972622
0.97392
0.974362
0.974508
0.974585
0.974738
0.975063
0.975088
0.974983
0.97478
0.97499
0.975532
0.976167
0.97707
0.976777
0.974942
0.97239
0.969787
0.970162
0.971854
0.97633
0.978267
0.980147
0.979248
0.975939
0.972078
0.972367
0.974503
0.977283
0.979091
0.977722
0.975226
0.975286
0.977024
0.979595
0.979314
0.977629
0.97681
0.977976
0.980186
0.979653
0.97767
0.975973
0.975022
0.924358
0.924366
0.924387
0.924418
0.924462
0.924523
0.92453
0.924452
0.924291
0.924266
0.924297
0.924312
0.924251
0.924126
0.924126
0.924213
0.92423
0.9242
0.924039
0.923742
0.923629
0.923671
0.923704
0.923651
0.92348
0.923367
0.923322
0.923135
0.922916
0.922885
0.922821
0.922623
0.922294
0.922066
0.922048
0.922088
0.922169
0.922279
0.92227
0.92232
0.922418
0.922602
0.922913
0.923367
0.924077
0.925056
0.926141
0.927386
0.92872
0.930861
0.933396
0.937082
0.940947
0.945535
0.950833
0.955901
0.960841
0.96478
0.969381
0.97069
0.97213
0.972808
0.973168
0.973139
0.973066
0.972883
0.973061
0.973498
0.974441
0.975563
0.976442
0.977087
0.976773
0.975026
0.971755
0.971885
0.972757
0.975504
0.977883
0.979063
0.978947
0.976804
0.973678
0.97344
0.974312
0.976704
0.977735
0.977166
0.975888
0.97594
0.977354
0.978994
0.978841
0.977584
0.977223
0.978303
0.979544
0.978916
0.97719
0.975319
0.928314
0.92822
0.928169
0.928138
0.928136
0.928157
0.928187
0.928189
0.928131
0.927866
0.927761
0.927731
0.927669
0.927544
0.92735
0.927274
0.927226
0.927131
0.926993
0.926686
0.926198
0.926073
0.926052
0.926009
0.925835
0.925521
0.925274
0.925079
0.924898
0.924681
0.924366
0.923987
0.923498
0.922973
0.922567
0.922349
0.9222
0.921997
0.921819
0.921578
0.921447
0.921504
0.92149
0.921414
0.921375
0.921321
0.921213
0.921254
0.921435
0.921809
0.922522
0.923894
0.925596
0.928446
0.931745
0.936618
0.941362
0.947005
0.952703
0.95735
0.962329
0.964618
0.967496
0.968663
0.970174
0.971232
0.973083
0.974011
0.974494
0.974894
0.975576
0.97634
0.976722
0.976833
0.976036
0.974645
0.973407
0.973733
0.975026
0.977366
0.978124
0.97801
0.976686
0.974443
0.974144
0.974739
0.976394
0.977111
0.976978
0.976482
0.976796
0.977866
0.978509
0.978215
0.977444
0.977551
0.978459
0.97898
0.978387
0.97626
0.930499
0.930482
0.930471
0.930472
0.930481
0.930504
0.93051
0.930503
0.930479
0.930432
0.930358
0.930329
0.930311
0.930276
0.930197
0.930063
0.929916
0.929807
0.929719
0.929603
0.929403
0.929149
0.928937
0.92876
0.928541
0.928234
0.927895
0.927574
0.927259
0.926896
0.926457
0.925988
0.925456
0.924865
0.924313
0.923841
0.92344
0.922999
0.922512
0.922009
0.921574
0.921232
0.920996
0.920855
0.92079
0.920723
0.920559
0.920387
0.92016
0.919828
0.919467
0.919006
0.918872
0.919132
0.91996
0.92182
0.924377
0.928412
0.932767
0.93875
0.944675
0.950775
0.957159
0.961591
0.967102
0.970155
0.972272
0.973124
0.973845
0.973553
0.973469
0.974325
0.975582
0.977109
0.977752
0.977336
0.975715
0.974106
0.974227
0.974893
0.976456
0.977532
0.977343
0.976477
0.975085
0.974637
0.975091
0.976368
0.976812
0.976778
0.976729
0.977121
0.977938
0.978033
0.977785
0.977408
0.977702
0.978489
0.978756
0.977433
0.930411
0.930421
0.930416
0.930416
0.930416
0.93041
0.930407
0.930422
0.930446
0.930447
0.930432
0.930414
0.930409
0.930401
0.930385
0.93034
0.930311
0.930311
0.930309
0.930297
0.930259
0.930189
0.930107
0.930024
0.929903
0.929762
0.929625
0.929478
0.929279
0.928998
0.928634
0.928224
0.927771
0.927294
0.92685
0.926398
0.925947
0.925492
0.924992
0.924508
0.924037
0.923448
0.922939
0.922455
0.921872
0.921212
0.920584
0.920188
0.919871
0.919552
0.919218
0.918791
0.918421
0.917789
0.917342
0.917363
0.917684
0.918706
0.920386
0.923181
0.926547
0.932016
0.937732
0.945099
0.952166
0.957893
0.963552
0.966313
0.969623
0.970368
0.971924
0.973796
0.976261
0.977426
0.977594
0.977341
0.976702
0.975512
0.974776
0.974978
0.97527
0.976022
0.976774
0.976674
0.976334
0.97564
0.975438
0.975671
0.976299
0.976544
0.976618
0.976715
0.977148
0.977754
0.97787
0.977577
0.977635
0.977995
0.978604
0.978165
0.928399
0.928396
0.928392
0.928393
0.928429
0.928434
0.928429
0.928481
0.928563
0.928571
0.928581
0.928618
0.928665
0.928668
0.928663
0.928682
0.928697
0.928692
0.928704
0.928716
0.928711
0.92867
0.928596
0.928558
0.928501
0.928403
0.928283
0.928105
0.927858
0.927586
0.927318
0.927049
0.926712
0.926318
0.925969
0.925606
0.925195
0.924796
0.924389
0.923997
0.923663
0.923442
0.923208
0.922962
0.922649
0.922207
0.921734
0.921212
0.920702
0.920305
0.919901
0.919444
0.918884
0.917967
0.917325
0.917333
0.917484
0.917801
0.918262
0.918862
0.919501
0.92105
0.923384
0.927782
0.933004
0.940563
0.948131
0.955206
0.962333
0.967019
0.971215
0.972755
0.975517
0.976043
0.975905
0.975511
0.975815
0.976128
0.97596
0.975702
0.975368
0.97523
0.975585
0.976245
0.976692
0.976576
0.976151
0.975764
0.975815
0.976136
0.976336
0.976441
0.976688
0.977291
0.977735
0.977609
0.977618
0.97789
0.978423
0.978444
0.925644
0.925636
0.925632
0.925633
0.925651
0.925702
0.92575
0.925756
0.925771
0.925812
0.925873
0.925986
0.92608
0.926121
0.926165
0.926189
0.92618
0.926177
0.926199
0.926271
0.926406
0.926443
0.926435
0.926453
0.926537
0.926567
0.926558
0.926458
0.926286
0.926251
0.926232
0.926164
0.925939
0.925593
0.925296
0.925023
0.924723
0.924418
0.9241
0.923783
0.923721
0.923714
0.923686
0.923646
0.923622
0.923603
0.923492
0.923295
0.923006
0.922704
0.92232
0.921774
0.921213
0.920538
0.919433
0.918619
0.918515
0.918597
0.918883
0.919402
0.920132
0.920114
0.920137
0.920456
0.921609
0.924645
0.929156
0.936343
0.943494
0.95124
0.958871
0.962372
0.967662
0.970065
0.972391
0.9739
0.976202
0.976675
0.97657
0.976251
0.975765
0.975229
0.975275
0.975638
0.976481
0.976695
0.976592
0.976212
0.975818
0.975837
0.97594
0.976131
0.976341
0.976777
0.977424
0.977624
0.977639
0.977847
0.978306
0.978542
0.923286
0.923279
0.923276
0.923279
0.923313
0.923366
0.923429
0.923502
0.923524
0.923524
0.923532
0.923565
0.923644
0.923766
0.923873
0.923926
0.923915
0.92389
0.923899
0.923966
0.924122
0.924299
0.924324
0.92433
0.924381
0.924493
0.924585
0.924611
0.924617
0.924659
0.924728
0.924721
0.9245
0.924187
0.924116
0.92405
0.923924
0.923739
0.923503
0.923283
0.923151
0.923124
0.92314
0.923197
0.923241
0.923321
0.923576
0.924002
0.924426
0.924558
0.924508
0.924309
0.923868
0.923237
0.922402
0.921312
0.920363
0.920027
0.920037
0.920212
0.920692
0.920833
0.920792
0.920883
0.92069
0.920681
0.921106
0.923222
0.926633
0.932949
0.939763
0.947997
0.956072
0.962707
0.970338
0.972548
0.975018
0.975326
0.974837
0.974927
0.975359
0.97583
0.975893
0.975881
0.976025
0.976316
0.976481
0.976414
0.976098
0.975899
0.975791
0.975821
0.97597
0.976291
0.976768
0.977283
0.977564
0.977881
0.978251
0.978534
0.920804
0.920777
0.920747
0.920708
0.920688
0.920688
0.920694
0.920692
0.920685
0.920683
0.920683
0.920689
0.92072
0.920801
0.920898
0.920985
0.921078
0.921138
0.921188
0.921249
0.92136
0.921607
0.921758
0.92176
0.921775
0.921862
0.921997
0.922108
0.922183
0.92226
0.922331
0.92231
0.922187
0.922145
0.922198
0.92244
0.922628
0.92265
0.922607
0.922453
0.922333
0.922353
0.922458
0.922581
0.922685
0.92286
0.923224
0.923744
0.924231
0.924624
0.925147
0.925721
0.925889
0.925782
0.925446
0.924801
0.923896
0.923261
0.923051
0.922881
0.922831
0.922937
0.922799
0.922492
0.922087
0.921481
0.921178
0.920941
0.921067
0.922276
0.924747
0.929947
0.936099
0.94487
0.953353
0.959451
0.965874
0.968468
0.971393
0.973751
0.975916
0.976587
0.976354
0.975904
0.97566
0.975982
0.976473
0.976619
0.976335
0.975901
0.975614
0.975721
0.975953
0.976235
0.97658
0.977068
0.977697
0.977925
0.978125
0.978507
0.920214
0.92018
0.920147
0.920112
0.920079
0.920051
0.920027
0.920002
0.919972
0.919934
0.919894
0.919854
0.919831
0.919835
0.919855
0.919866
0.919875
0.919894
0.919914
0.919947
0.919994
0.920124
0.920321
0.92035
0.920375
0.920542
0.920616
0.920642
0.920706
0.920837
0.921004
0.921008
0.920935
0.920913
0.920961
0.921083
0.921121
0.921103
0.921014
0.920878
0.92076
0.920752
0.920817
0.920943
0.92112
0.921407
0.921868
0.922457
0.923132
0.924
0.924875
0.925621
0.926137
0.926333
0.926309
0.926105
0.925678
0.92535
0.925156
0.925055
0.924973
0.924941
0.924843
0.924465
0.923769
0.922801
0.921693
0.92059
0.920575
0.920734
0.921033
0.921701
0.923486
0.928054
0.934051
0.943266
0.951956
0.960259
0.968777
0.972492
0.974328
0.97551
0.974567
0.974763
0.975575
0.976365
0.976375
0.976152
0.975956
0.975777
0.97586
0.975977
0.975957
0.976013
0.976241
0.976739
0.977456
0.977765
0.978069
0.978487
0.920339
0.920271
0.920202
0.920134
0.92007
0.920009
0.919947
0.919876
0.919797
0.919711
0.919624
0.919541
0.919477
0.91947
0.919494
0.919507
0.9195
0.919502
0.919518
0.919561
0.91961
0.919724
0.919892
0.919915
0.919934
0.920085
0.920162
0.920173
0.920223
0.920344
0.920512
0.920656
0.920782
0.920941
0.921178
0.921462
0.921702
0.921884
0.922006
0.92206
0.922075
0.92201
0.921839
0.921754
0.921742
0.921799
0.921999
0.922386
0.922904
0.923511
0.924192
0.924914
0.925497
0.925809
0.92591
0.92595
0.92596
0.925916
0.925745
0.925429
0.925312
0.925346
0.925712
0.925812
0.925645
0.925087
0.923998
0.92245
0.921273
0.921083
0.921161
0.921396
0.921388
0.921783
0.923357
0.927536
0.933267
0.942576
0.950967
0.959639
0.964759
0.969527
0.971548
0.974149
0.976419
0.976414
0.976063
0.975426
0.975619
0.976078
0.976327
0.976143
0.975864
0.975894
0.97615
0.976636
0.977089
0.977554
0.977997
0.978451
0.922411
0.922353
0.922287
0.92222
0.92215
0.922082
0.922013
0.921936
0.921844
0.921736
0.921609
0.921497
0.921396
0.921283
0.921188
0.921148
0.9211
0.920987
0.920958
0.920947
0.920899
0.920881
0.920901
0.920904
0.920899
0.920937
0.920949
0.920899
0.920861
0.92088
0.920929
0.920976
0.921061
0.921237
0.921496
0.921803
0.922179
0.922601
0.922981
0.923197
0.923242
0.92322
0.923011
0.922657
0.922461
0.922315
0.922218
0.922266
0.922472
0.922749
0.923113
0.92353
0.923987
0.92453
0.924964
0.925158
0.925196
0.925171
0.925105
0.924792
0.92453
0.924563
0.924898
0.925607
0.925928
0.925864
0.92545
0.924518
0.923184
0.922301
0.922087
0.921964
0.921753
0.921903
0.921974
0.922346
0.92372
0.927308
0.933164
0.942098
0.951668
0.960428
0.968796
0.972382
0.975019
0.974897
0.974181
0.974873
0.975767
0.976276
0.976088
0.9758
0.975792
0.976008
0.976253
0.976444
0.976711
0.977203
0.977805
0.978342
0.92423
0.924248
0.924256
0.924248
0.924208
0.92413
0.924074
0.924066
0.924065
0.924025
0.923973
0.92396
0.923962
0.923964
0.923906
0.923746
0.923632
0.923548
0.923443
0.923333
0.923216
0.923107
0.922984
0.922822
0.922699
0.922604
0.92248
0.922272
0.921945
0.921704
0.921643
0.921618
0.921602
0.921627
0.921796
0.922161
0.922632
0.923123
0.923641
0.924096
0.924288
0.924274
0.924142
0.923857
0.92347
0.923123
0.922878
0.922701
0.922676
0.922729
0.922764
0.92278
0.922831
0.922993
0.923278
0.923743
0.924228
0.924341
0.924328
0.924078
0.923529
0.923416
0.923662
0.92437
0.924882
0.925094
0.92516
0.925064
0.924704
0.92438
0.924119
0.924041
0.923745
0.923287
0.922625
0.922508
0.922399
0.922574
0.923744
0.926936
0.933379
0.942034
0.952086
0.959968
0.967236
0.969511
0.97221
0.97501
0.975874
0.975772
0.975491
0.975537
0.975921
0.976372
0.976359
0.976308
0.976443
0.97701
0.977564
0.978158
0.925507
0.925643
0.925725
0.925754
0.925755
0.925725
0.925737
0.925947
0.926161
0.926183
0.926151
0.926152
0.926231
0.926296
0.926315
0.926306
0.926261
0.926205
0.926158
0.926068
0.925907
0.925722
0.925392
0.925109
0.925051
0.925003
0.924874
0.92464
0.924335
0.923928
0.923667
0.923557
0.923438
0.923384
0.923417
0.923578
0.923811
0.924093
0.924509
0.924813
0.925006
0.92506
0.924945
0.924643
0.924145
0.923737
0.923595
0.923508
0.923406
0.923265
0.922957
0.922451
0.922169
0.922126
0.922246
0.922655
0.923293
0.923573
0.923545
0.923328
0.923004
0.922876
0.922885
0.923051
0.923498
0.923989
0.924372
0.924708
0.924824
0.924842
0.924957
0.925241
0.925211
0.924908
0.924317
0.923556
0.922687
0.922324
0.922292
0.922558
0.923709
0.927081
0.933992
0.943737
0.953377
0.962765
0.970322
0.973068
0.974417
0.973648
0.974068
0.9754
0.976274
0.976276
0.976079
0.9761
0.976452
0.976999
0.977241
0.977706
0.9248
0.92487
0.924934
0.92501
0.925136
0.925323
0.925579
0.92594
0.926361
0.926646
0.92671
0.926714
0.926745
0.926887
0.927137
0.92719
0.927199
0.927209
0.927216
0.927219
0.927209
0.927098
0.926881
0.926679
0.92658
0.926477
0.926262
0.925996
0.925718
0.925171
0.924789
0.924739
0.924648
0.924546
0.92456
0.924601
0.924652
0.924761
0.925019
0.925243
0.925413
0.925568
0.925565
0.925347
0.924818
0.924664
0.924709
0.924693
0.924562
0.924309
0.923869
0.923102
0.922319
0.921981
0.921968
0.922161
0.922689
0.923158
0.923164
0.922997
0.922965
0.923051
0.923163
0.923278
0.923381
0.923471
0.923666
0.92411
0.924348
0.92436
0.924335
0.924436
0.924671
0.924956
0.925048
0.924839
0.924309
0.923648
0.922991
0.922861
0.923242
0.923507
0.92484
0.928542
0.935531
0.945365
0.955112
0.961881
0.967776
0.970239
0.973885
0.975726
0.976025
0.975828
0.975721
0.976165
0.976912
0.977068
0.977005
0.977262
0.923698
0.923812
0.923943
0.924076
0.924207
0.924337
0.924659
0.925312
0.925693
0.925861
0.925982
0.926088
0.926256
0.926505
0.926581
0.926599
0.926615
0.926626
0.926611
0.92662
0.926643
0.926602
0.926468
0.926252
0.9261
0.925862
0.925423
0.925086
0.924908
0.924631
0.924317
0.9243
0.924362
0.92434
0.924398
0.924411
0.924395
0.924428
0.924446
0.924386
0.924167
0.924068
0.92402
0.923979
0.924038
0.924232
0.924622
0.925062
0.925141
0.925073
0.924861
0.924394
0.923722
0.923352
0.923405
0.923727
0.924098
0.924259
0.924189
0.923889
0.923769
0.923796
0.923817
0.923813
0.923607
0.923284
0.923174
0.923273
0.923374
0.923402
0.923365
0.923401
0.923655
0.924037
0.924333
0.924551
0.924676
0.924612
0.92445
0.924092
0.923653
0.923505
0.923574
0.923937
0.925487
0.929848
0.937343
0.947434
0.958106
0.966802
0.972338
0.974277
0.974362
0.974397
0.975568
0.976668
0.977131
0.976916
0.976772
0.977037
0.923202
0.923352
0.923492
0.923621
0.923691
0.923675
0.92371
0.924001
0.924469
0.924916
0.925299
0.925751
0.926105
0.926209
0.926231
0.926213
0.926155
0.926142
0.926163
0.926241
0.926252
0.926189
0.92604
0.925821
0.925595
0.925189
0.924466
0.924076
0.924057
0.924058
0.923955
0.92388
0.923956
0.924325
0.924643
0.924694
0.924683
0.924543
0.924131
0.923788
0.923542
0.923232
0.923052
0.923033
0.923107
0.923407
0.924026
0.924818
0.925302
0.925507
0.925506
0.925335
0.924998
0.924885
0.925031
0.925513
0.925589
0.925486
0.925212
0.925029
0.925021
0.925007
0.924894
0.924672
0.924312
0.923729
0.923095
0.922631
0.922567
0.92262
0.922835
0.923039
0.923161
0.923248
0.923468
0.92385
0.924311
0.924505
0.92456
0.924638
0.92468
0.924518
0.924163
0.924
0.923906
0.92421
0.926163
0.931317
0.939931
0.950318
0.960458
0.966054
0.969941
0.972831
0.976435
0.976931
0.976798
0.976516
0.976752
0.9771
0.921648
0.922078
0.92241
0.922477
0.922493
0.92242
0.922228
0.922316
0.923084
0.924174
0.924605
0.924611
0.924469
0.924371
0.924402
0.924427
0.924343
0.924196
0.924157
0.924166
0.924329
0.924371
0.924285
0.92419
0.924018
0.923623
0.923447
0.923459
0.923623
0.923734
0.923727
0.923798
0.924235
0.925226
0.925595
0.925623
0.925623
0.92551
0.925132
0.924678
0.924085
0.923488
0.923324
0.9233
0.923407
0.923822
0.924647
0.925391
0.925647
0.925652
0.925442
0.924894
0.924696
0.924727
0.925028
0.925729
0.925967
0.925971
0.92578
0.925118
0.924698
0.924666
0.924841
0.925001
0.924999
0.92482
0.924233
0.923379
0.922956
0.922956
0.923115
0.923367
0.923445
0.923406
0.923353
0.92343
0.923676
0.923869
0.923956
0.92408
0.924241
0.924579
0.924643
0.92456
0.924161
0.923976
0.923993
0.924596
0.927241
0.934339
0.943746
0.954389
0.96567
0.971033
0.975132
0.97537
0.975069
0.97567
0.976532
0.976962
0.923146
0.923915
0.924111
0.924146
0.924157
0.924116
0.924092
0.924329
0.925329
0.925937
0.926001
0.925978
0.925695
0.924983
0.924875
0.924919
0.9248
0.924368
0.923924
0.923547
0.923337
0.923246
0.923196
0.923059
0.922683
0.922484
0.922489
0.92264
0.923254
0.924091
0.924272
0.924409
0.924859
0.925958
0.926571
0.926626
0.926596
0.926385
0.925695
0.925224
0.925114
0.924935
0.92478
0.92471
0.924801
0.92516
0.925987
0.926499
0.926535
0.926207
0.924971
0.924159
0.924129
0.924242
0.924755
0.925821
0.926255
0.92635
0.926297
0.925596
0.924296
0.923805
0.923836
0.92437
0.925289
0.925597
0.925403
0.924704
0.923868
0.923669
0.923777
0.92407
0.92415
0.923983
0.923578
0.923401
0.923424
0.923508
0.923551
0.923605
0.923722
0.924058
0.924246
0.924231
0.924126
0.924033
0.924038
0.924281
0.924569
0.926183
0.930057
0.93843
0.947814
0.957776
0.965937
0.969972
0.973201
0.976248
0.976599
0.976473
0.92314
0.92374
0.924207
0.924472
0.924675
0.924945
0.925263
0.925468
0.925605
0.925655
0.925629
0.925551
0.925094
0.924741
0.9248
0.924812
0.924664
0.92439
0.923838
0.923395
0.92333
0.923336
0.923381
0.923267
0.922849
0.922602
0.922536
0.922524
0.922791
0.923654
0.923948
0.924086
0.924527
0.925409
0.925733
0.925786
0.925754
0.925497
0.924732
0.924368
0.924385
0.924528
0.9245
0.924373
0.924339
0.924646
0.925394
0.925729
0.925681
0.925094
0.923705
0.922868
0.922801
0.922872
0.923462
0.925092
0.926563
0.926832
0.926877
0.926496
0.92514
0.923715
0.923401
0.923687
0.924762
0.925766
0.925835
0.925516
0.924862
0.924494
0.924511
0.924707
0.924887
0.924798
0.924398
0.923904
0.923695
0.923636
0.923515
0.923479
0.9235
0.923625
0.923809
0.92383
0.923867
0.923949
0.924036
0.924166
0.924438
0.924774
0.925631
0.928047
0.933196
0.942708
0.952493
0.964172
0.971412
0.975363
0.975212
0.974985
0.917837
0.91818
0.918597
0.919028
0.919372
0.919677
0.92018
0.920431
0.920127
0.91957
0.91945
0.919479
0.919421
0.919358
0.919397
0.919801
0.920074
0.920099
0.920189
0.920599
0.921203
0.921427
0.921351
0.921157
0.921087
0.92108
0.92095
0.920221
0.919547
0.919708
0.920373
0.920529
0.920686
0.920811
0.920533
0.919472
0.918878
0.918767
0.918729
0.919081
0.920441
0.922155
0.923026
0.92303
0.923016
0.923105
0.923008
0.923292
0.924069
0.924364
0.92432
0.923732
0.922201
0.921271
0.921159
0.921797
0.923997
0.926213
0.926858
0.92684
0.926378
0.925262
0.923978
0.923757
0.924233
0.925161
0.925698
0.925674
0.925497
0.925201
0.925027
0.925099
0.925317
0.925346
0.925137
0.924699
0.924334
0.924143
0.923961
0.923774
0.923571
0.923575
0.923671
0.923818
0.923874
0.923905
0.923941
0.924027
0.924259
0.924548
0.924852
0.925386
0.926871
0.930176
0.937377
0.947133
0.957085
0.965535
0.969379
0.973476
0.907991
0.908022
0.908046
0.90828
0.908648
0.908619
0.907944
0.907258
0.907167
0.907196
0.907309
0.907386
0.907519
0.907913
0.908657
0.909672
0.910233
0.910651
0.911864
0.914391
0.915169
0.915336
0.915632
0.915675
0.915599
0.915471
0.91495
0.914224
0.914118
0.914475
0.915318
0.915665
0.915704
0.915454
0.914506
0.912738
0.910693
0.910013
0.91061
0.912653
0.914769
0.916091
0.916935
0.917093
0.917047
0.917255
0.91801
0.91927
0.921249
0.923481
0.924107
0.923931
0.922913
0.920892
0.919752
0.919883
0.921066
0.923338
0.92553
0.926349
0.926108
0.925223
0.924584
0.924143
0.923979
0.924206
0.924741
0.92524
0.925259
0.925067
0.924881
0.924853
0.924969
0.925151
0.925154
0.925016
0.924881
0.924806
0.924755
0.924635
0.924485
0.924354
0.924207
0.924128
0.924017
0.923855
0.923839
0.923883
0.924024
0.924346
0.924629
0.92488
0.925208
0.926059
0.928317
0.933182
0.941862
0.951851
0.962951
0.972439
0.908059
0.908126
0.908195
0.908416
0.908694
0.908669
0.908139
0.907753
0.907745
0.907877
0.908164
0.908372
0.908646
0.909264
0.909557
0.909756
0.909781
0.909817
0.910864
0.912833
0.914723
0.916207
0.91661
0.916504
0.916302
0.915953
0.915547
0.915447
0.9154
0.915441
0.915873
0.916891
0.917775
0.917832
0.917185
0.915576
0.91307
0.911127
0.911159
0.911713
0.912401
0.912837
0.913319
0.913871
0.913845
0.913887
0.914495
0.915544
0.916642
0.918006
0.919808
0.920808
0.92064
0.919594
0.917774
0.917137
0.917423
0.918329
0.919436
0.920476
0.92173
0.923124
0.923808
0.923815
0.923533
0.923207
0.923194
0.923268
0.923587
0.924036
0.924195
0.924244
0.924382
0.92465
0.924907
0.925153
0.925306
0.925304
0.925278
0.92526
0.925236
0.925155
0.924968
0.924648
0.924338
0.923955
0.923943
0.924011
0.924157
0.924282
0.924508
0.924643
0.924766
0.925007
0.925515
0.926922
0.929974
0.936932
0.945944
0.960384
0.925829
0.925297
0.923731
0.922913
0.922996
0.923001
0.922488
0.921413
0.920953
0.921065
0.92117
0.920472
0.91908
0.919323
0.920298
0.919926
0.916708
0.914847
0.91467
0.914603
0.914703
0.916024
0.918127
0.918577
0.918153
0.917639
0.917914
0.919508
0.921403
0.921664
0.921265
0.92117
0.921429
0.922404
0.922561
0.921796
0.920573
0.919618
0.918795
0.917483
0.916114
0.91537
0.914605
0.9138
0.913933
0.914574
0.914823
0.914127
0.913488
0.913359
0.913556
0.914604
0.916265
0.91719
0.917321
0.91687
0.915348
0.914387
0.914279
0.91441
0.914849
0.915962
0.917519
0.919064
0.920096
0.920762
0.921047
0.920996
0.921004
0.921406
0.922813
0.923888
0.924174
0.924364
0.924688
0.925153
0.925311
0.925295
0.925276
0.925288
0.925279
0.92525
0.925167
0.924988
0.924851
0.924598
0.924449
0.924516
0.924591
0.924618
0.924619
0.92462
0.924572
0.924616
0.924778
0.925022
0.925733
0.927858
0.932386
0.946511
0.951039
0.947444
0.946282
0.946218
0.946696
0.94948
0.950787
0.950983
0.95016
0.947938
0.948112
0.948585
0.946647
0.943688
0.943089
0.941055
0.935923
0.931109
0.926859
0.92388
0.923029
0.923471
0.924653
0.925432
0.925478
0.925547
0.926221
0.928197
0.92946
0.929231
0.926356
0.921905
0.921727
0.922359
0.921654
0.921314
0.921968
0.923713
0.923985
0.922973
0.921362
0.920511
0.920458
0.921023
0.922011
0.922369
0.921259
0.916613
0.913024
0.912463
0.912562
0.913508
0.915672
0.917795
0.919173
0.919297
0.918866
0.91813
0.917202
0.916014
0.915319
0.914934
0.914843
0.915023
0.916371
0.918346
0.918799
0.918432
0.917699
0.917647
0.918339
0.920313
0.92222
0.922654
0.922805
0.923183
0.923686
0.924052
0.924232
0.924518
0.924878
0.924914
0.924814
0.924639
0.924649
0.924921
0.925136
0.925247
0.925253
0.925129
0.925003
0.924959
0.924835
0.924723
0.924662
0.924629
0.924704
0.925072
0.926244
0.933791
0.991296
0.988478
0.983807
0.98075
0.980543
0.980858
0.981036
0.979587
0.977911
0.977846
0.978552
0.983687
0.986452
0.985991
0.983377
0.978517
0.975897
0.975136
0.975839
0.976255
0.97571
0.972823
0.972106
0.972111
0.971499
0.971415
0.971842
0.97092
0.96961
0.970221
0.969202
0.963258
0.956095
0.949957
0.943551
0.93887
0.936783
0.935531
0.934918
0.93559
0.937995
0.937442
0.936895
0.938732
0.941417
0.941525
0.939637
0.934879
0.930645
0.927133
0.924653
0.923796
0.922613
0.920676
0.920069
0.920539
0.92123
0.922244
0.923963
0.924017
0.922096
0.91775
0.915396
0.915486
0.916484
0.918042
0.919236
0.9194
0.918555
0.917006
0.916709
0.917097
0.918286
0.919313
0.919707
0.920049
0.920674
0.921574
0.922334
0.922955
0.923752
0.924286
0.924321
0.924334
0.924493
0.924842
0.925068
0.925214
0.925459
0.925564
0.925557
0.925488
0.925214
0.924894
0.924737
0.924628
0.924636
0.924708
0.924878
0.927463
1.06737
1.06734
1.06659
1.06411
1.0583
1.05295
1.04918
1.04608
1.0457
1.04573
1.04586
1.04443
1.04259
1.04215
1.04054
1.03746
1.03716
1.03633
1.03108
1.02702
1.02716
1.02692
1.02469
1.01783
1.01195
1.01055
1.00947
1.0092
1.01053
1.0111
1.00843
1.00229
1.00094
1.00155
1.00082
0.9977
0.992495
0.98776
0.987172
0.987681
0.986069
0.978481
0.968731
0.963821
0.960547
0.953462
0.948094
0.94842
0.951796
0.951669
0.951258
0.951309
0.951
0.948453
0.940949
0.930621
0.925349
0.925288
0.926928
0.930183
0.930968
0.930131
0.92754
0.923348
0.920205
0.919969
0.920556
0.921772
0.921932
0.920808
0.918671
0.918179
0.918387
0.918833
0.919059
0.919017
0.918964
0.918863
0.919046
0.919489
0.920148
0.920961
0.921738
0.922546
0.923355
0.923994
0.924466
0.925053
0.92565
0.925806
0.92577
0.925641
0.925393
0.925048
0.925009
0.925063
0.925151
0.9252
0.925293
0.925746
1.13657
1.13674
1.13781
1.13915
1.1391
1.13654
1.13285
1.12839
1.12312
1.11869
1.11735
1.11799
1.11863
1.11792
1.11795
1.11792
1.11573
1.11512
1.11457
1.11357
1.11379
1.11121
1.10494
1.1023
1.10066
1.09832
1.09315
1.08885
1.08763
1.08529
1.08044
1.07454
1.06956
1.06578
1.05883
1.0504
1.04981
1.04973
1.04567
1.0427
1.04273
1.04095
1.03574
1.03151
1.02846
1.02328
1.0154
1.00878
1.00448
0.997776
0.986336
0.981149
0.98152
0.985059
0.984097
0.975081
0.966221
0.962781
0.957534
0.948842
0.945746
0.946668
0.94675
0.945019
0.940606
0.933209
0.927687
0.92748
0.928871
0.928705
0.926022
0.921698
0.919941
0.919944
0.920077
0.919752
0.918645
0.91805
0.918148
0.918376
0.918527
0.918683
0.918968
0.919815
0.920751
0.921528
0.92252
0.923828
0.925282
0.925525
0.925427
0.9252
0.925159
0.925264
0.925498
0.925662
0.925631
0.92559
0.925564
0.925437
1.22913
1.22816
1.22813
1.22879
1.23001
1.23063
1.23015
1.22642
1.22255
1.21853
1.21251
1.20838
1.20809
1.20873
1.20857
1.20515
1.2027
1.20291
1.20104
1.19556
1.1929
1.19185
1.18904
1.18287
1.17869
1.17549
1.1707
1.16898
1.16808
1.16631
1.16297
1.15954
1.15718
1.15437
1.14865
1.1412
1.13596
1.13317
1.12969
1.12446
1.11959
1.11217
1.10046
1.09601
1.0942
1.09169
1.08198
1.07312
1.07278
1.07114
1.06419
1.05433
1.0485
1.04299
1.03105
1.01525
1.01247
1.01352
1.0112
1.00369
0.996414
0.982931
0.970604
0.969555
0.968469
0.965159
0.957599
0.946853
0.943096
0.942873
0.940968
0.934532
0.929126
0.927554
0.926235
0.923489
0.91933
0.918425
0.918566
0.919182
0.919108
0.919376
0.920399
0.922181
0.922164
0.921646
0.921413
0.921559
0.922302
0.923135
0.92384
0.924263
0.924542
0.924943
0.925509
0.925847
0.925811
0.925777
0.925866
0.925968
1.33088
1.32976
1.32914
1.32721
1.32288
1.31871
1.31662
1.31684
1.3187
1.31893
1.31729