/*--------------------------------*- C++ -*----------------------------------*\
  =========                 |
  \\      /  F ield         | OpenFOAM: The Open Source CFD Toolbox
   \\    /   O peration     | Website:  https://openfoam.org
    \\  /    A nd           | Version:  7
     \\/     M anipulation  |
\*---------------------------------------------------------------------------*/
FoamFile
{
    version     2.0;
    format      ascii;
    class       volScalarField;
    location    "7.5";
    object      T;
}
// * * * * * * * * * * * * * * * * * * * * * * * * * * * * * * * * * * * * * //

dimensions      [0 0 0 1 0 0 0];

internalField   nonuniform List<scalar> 
90000
(
1.03852
1.03969
1.04166
1.0438
1.04569
1.04796
1.05053
1.05291
1.05521
1.0573
1.05955
1.06139
1.06326
1.06492
1.06665
1.06788
1.06911
1.07001
1.07107
1.07168
1.07234
1.07257
1.0729
1.0728
1.07282
1.07289
1.07323
1.07371
1.0745
1.07535
1.07649
1.07766
1.07912
1.08057
1.08223
1.08383
1.08546
1.08716
1.08937
1.09121
1.09297
1.09445
1.09567
1.09657
1.09726
1.09729
1.09644
1.09476
1.09169
1.08858
1.08599
1.08409
1.08426
1.0851
1.08645
1.08765
1.08887
1.08981
1.09048
1.09104
1.09167
1.09116
1.08957
1.0867
1.08386
1.08219
1.0811
1.08162
1.08286
1.0847
1.0862
1.08768
1.08724
1.08557
1.08267
1.08091
1.07916
1.07998
1.08168
1.08354
1.08403
1.08305
1.08153
1.08046
1.0802
1.08066
1.08186
1.08174
1.08095
1.07985
1.07928
1.07973
1.0801
1.07993
1.07926
1.07818
1.07755
1.07717
1.07672
1.07593
1.03783
1.03785
1.03791
1.03798
1.03808
1.03826
1.0385
1.0388
1.03912
1.0395
1.03999
1.04047
1.04098
1.04164
1.04238
1.04306
1.0438
1.04459
1.04541
1.04627
1.04711
1.04793
1.04881
1.04974
1.05055
1.0512
1.05172
1.05217
1.05261
1.05308
1.05355
1.05402
1.05451
1.05507
1.05571
1.05635
1.05703
1.05784
1.05894
1.06024
1.06168
1.06326
1.06493
1.06662
1.0685
1.07032
1.07237
1.07434
1.07621
1.07755
1.07723
1.07595
1.07424
1.07232
1.07077
1.06944
1.06935
1.06976
1.07047
1.0715
1.07307
1.07464
1.07661
1.07656
1.07569
1.07344
1.07078
1.06891
1.06806
1.06851
1.06963
1.07161
1.07385
1.07509
1.07415
1.07138
1.06893
1.06801
1.06845
1.0697
1.07137
1.07256
1.07177
1.07006
1.06867
1.06898
1.07025
1.0713
1.07086
1.06986
1.06898
1.06915
1.06988
1.0701
1.06987
1.06918
1.0685
1.068
1.06762
1.06708
1.03634
1.03633
1.03631
1.03628
1.03625
1.03625
1.03627
1.03628
1.03627
1.03627
1.03625
1.0362
1.0362
1.03623
1.03631
1.03637
1.03644
1.03654
1.03667
1.03682
1.03698
1.03718
1.03741
1.03768
1.03799
1.03834
1.03875
1.03921
1.03965
1.04013
1.04061
1.04107
1.04148
1.04189
1.04232
1.04274
1.04313
1.04356
1.04409
1.04482
1.04563
1.04664
1.04772
1.04892
1.05027
1.05165
1.05326
1.05484
1.05655
1.05806
1.05935
1.06036
1.06146
1.06238
1.06235
1.06192
1.06111
1.0601
1.05931
1.05901
1.05922
1.05973
1.06071
1.06171
1.06269
1.06317
1.06271
1.06099
1.05898
1.0572
1.05722
1.05784
1.05933
1.06122
1.06325
1.06382
1.06261
1.06025
1.05822
1.0583
1.05927
1.06085
1.06282
1.06236
1.06074
1.05945
1.05972
1.06068
1.06193
1.06155
1.06074
1.06024
1.0606
1.06139
1.06134
1.06102
1.06044
1.05992
1.05956
1.05916
1.03454
1.03452
1.03452
1.03453
1.03455
1.03464
1.03469
1.03468
1.03467
1.03468
1.03469
1.03466
1.03462
1.03461
1.03458
1.03457
1.03458
1.0346
1.03458
1.03456
1.03456
1.03457
1.03456
1.03456
1.03458
1.03462
1.03467
1.03466
1.0347
1.03482
1.035
1.0352
1.0354
1.0356
1.03595
1.0364
1.03684
1.0373
1.03774
1.03826
1.03876
1.03933
1.03992
1.04064
1.04141
1.04236
1.04328
1.04443
1.0457
1.04691
1.0486
1.0499
1.05092
1.05183
1.05242
1.05263
1.05294
1.05299
1.053
1.05284
1.05251
1.0521
1.05211
1.05239
1.05293
1.0536
1.05414
1.05441
1.05406
1.05288
1.05164
1.05074
1.05088
1.05152
1.05311
1.05427
1.05549
1.05558
1.05457
1.0532
1.05238
1.0527
1.05391
1.05508
1.0559
1.055
1.05361
1.05368
1.05446
1.05573
1.05543
1.05461
1.05419
1.05468
1.05555
1.05536
1.05489
1.0543
1.05405
1.05371
1.03325
1.03324
1.03324
1.03325
1.03329
1.03332
1.03331
1.03328
1.03327
1.03328
1.03328
1.03328
1.03324
1.03321
1.0332
1.03322
1.03322
1.03321
1.03317
1.03311
1.03309
1.03309
1.03307
1.03303
1.033
1.03299
1.03294
1.03288
1.03289
1.03294
1.03301
1.03305
1.03309
1.03319
1.03321
1.03325
1.03331
1.03341
1.03361
1.0339
1.03425
1.0346
1.03496
1.0354
1.03588
1.0365
1.0371
1.03783
1.03865
1.03966
1.04088
1.04222
1.04347
1.04461
1.04597
1.04671
1.04775
1.04825
1.04853
1.04869
1.04879
1.04891
1.04912
1.04921
1.0492
1.04915
1.04921
1.0494
1.04965
1.05
1.04995
1.0495
1.04878
1.04807
1.04821
1.04875
1.05017
1.05095
1.05168
1.05145
1.0505
1.04935
1.04945
1.05015
1.05114
1.05176
1.05137
1.05061
1.05062
1.05119
1.05199
1.05191
1.0514
1.05115
1.05153
1.05222
1.05206
1.05146
1.05093
1.05063
1.03249
1.03249
1.0325
1.03251
1.03253
1.03255
1.03255
1.03252
1.03247
1.03247
1.03248
1.03249
1.03248
1.03244
1.03245
1.03248
1.03248
1.03248
1.03242
1.03233
1.0323
1.03231
1.03232
1.03231
1.03225
1.03222
1.03222
1.03216
1.03209
1.03209
1.03207
1.03202
1.03191
1.03184
1.03184
1.03185
1.03188
1.0319
1.03189
1.03189
1.03191
1.03195
1.03204
1.03218
1.0324
1.0327
1.03304
1.03343
1.03383
1.03448
1.03525
1.03638
1.03754
1.03892
1.04049
1.04199
1.04342
1.04456
1.04595
1.04635
1.04682
1.04703
1.04721
1.04725
1.04724
1.04719
1.04726
1.04742
1.04774
1.04815
1.04848
1.04874
1.0487
1.04827
1.04739
1.04746
1.04773
1.04857
1.04933
1.04983
1.04983
1.04928
1.04835
1.04835
1.0486
1.04937
1.04977
1.04962
1.04923
1.04926
1.04973
1.05026
1.05023
1.04985
1.04975
1.05012
1.05052
1.05034
1.04982
1.04928
1.03321
1.03319
1.03317
1.03317
1.03317
1.03318
1.03318
1.03319
1.03317
1.03308
1.03305
1.03304
1.03302
1.03299
1.03292
1.0329
1.03288
1.03285
1.03281
1.03271
1.03256
1.03253
1.03252
1.03251
1.03245
1.03236
1.03228
1.03223
1.03218
1.03211
1.03202
1.0319
1.03175
1.03158
1.03147
1.03141
1.03138
1.03133
1.03128
1.03121
1.03118
1.03121
1.03122
1.0312
1.03121
1.0312
1.03118
1.03119
1.03125
1.03136
1.03158
1.03202
1.03257
1.03348
1.03452
1.03604
1.0375
1.03923
1.04093
1.04231
1.04379
1.04442
1.04525
1.04559
1.04604
1.04638
1.047
1.04736
1.04755
1.04768
1.0479
1.04812
1.04835
1.04845
1.04821
1.04781
1.04751
1.04762
1.048
1.04871
1.04904
1.04904
1.04868
1.04799
1.04801
1.04819
1.04872
1.04898
1.04896
1.04884
1.04895
1.04928
1.04953
1.04946
1.04925
1.04929
1.04958
1.04976
1.0496
1.04899
1.03409
1.03408
1.03408
1.03408
1.03408
1.03408
1.03409
1.03408
1.03408
1.03406
1.03404
1.03402
1.03402
1.034
1.03398
1.03393
1.03388
1.03385
1.03383
1.03379
1.03373
1.03365
1.03358
1.03352
1.03345
1.03335
1.03323
1.03313
1.03304
1.03292
1.03278
1.03263
1.03245
1.03226
1.03209
1.03194
1.03182
1.03169
1.03154
1.03139
1.03126
1.03116
1.03109
1.03105
1.03104
1.03103
1.03098
1.03093
1.03086
1.03076
1.03065
1.03051
1.03051
1.0306
1.03087
1.03147
1.03229
1.03357
1.03495
1.03683
1.03868
1.04057
1.04253
1.04387
1.04555
1.04651
1.04715
1.0474
1.04761
1.04751
1.04746
1.0477
1.04809
1.04861
1.04884
1.04871
1.04823
1.04776
1.0478
1.048
1.04849
1.04885
1.0488
1.04855
1.04816
1.04808
1.04821
1.0486
1.04877
1.04877
1.04878
1.04891
1.04917
1.04926
1.04919
1.04909
1.04918
1.04942
1.04954
1.04914
1.03431
1.03431
1.03431
1.03431
1.03432
1.03431
1.03431
1.03432
1.03432
1.03432
1.03432
1.03431
1.03431
1.03431
1.03431
1.0343
1.03429
1.03429
1.03429
1.03429
1.03428
1.03426
1.03423
1.03421
1.03417
1.03412
1.03408
1.03403
1.03396
1.03387
1.03376
1.03362
1.03348
1.03332
1.03317
1.03302
1.03287
1.03272
1.03255
1.0324
1.03225
1.03207
1.03191
1.03176
1.03157
1.03136
1.03116
1.03104
1.03095
1.03085
1.03075
1.03062
1.03051
1.0303
1.03018
1.03019
1.03031
1.03066
1.03122
1.03214
1.03323
1.03498
1.0368
1.03912
1.04135
1.04316
1.04493
1.04577
1.04677
1.04694
1.04739
1.04792
1.04865
1.04894
1.04902
1.04896
1.04879
1.04842
1.04819
1.04825
1.04836
1.0486
1.0488
1.0488
1.04871
1.0485
1.04842
1.04849
1.04868
1.04875
1.04879
1.04884
1.04898
1.04918
1.04921
1.04913
1.04916
1.04926
1.04947
1.04933
1.03398
1.03398
1.03398
1.03398
1.034
1.034
1.034
1.03401
1.03404
1.03404
1.03404
1.03405
1.03407
1.03407
1.03406
1.03407
1.03407
1.03407
1.03407
1.03407
1.03407
1.03405
1.03403
1.03401
1.03399
1.03395
1.03391
1.03385
1.03377
1.03368
1.03359
1.0335
1.03339
1.03326
1.03315
1.03303
1.0329
1.03276
1.03263
1.0325
1.03239
1.03233
1.03226
1.03219
1.03209
1.03195
1.03181
1.03165
1.0315
1.03138
1.03126
1.03111
1.03092
1.03061
1.0304
1.0304
1.03045
1.03056
1.03073
1.03094
1.03115
1.03166
1.0324
1.03381
1.03548
1.0379
1.04031
1.04255
1.04477
1.04621
1.04749
1.04796
1.0488
1.04888
1.04886
1.04872
1.04879
1.04887
1.04882
1.04874
1.04863
1.04857
1.04867
1.04886
1.04898
1.04894
1.04879
1.04866
1.04866
1.04875
1.04881
1.04884
1.04892
1.04911
1.04923
1.04919
1.04918
1.04926
1.04943
1.04942
1.03336
1.03336
1.03336
1.03336
1.03336
1.03338
1.03339
1.03339
1.0334
1.03341
1.03343
1.03347
1.0335
1.03351
1.03351
1.03352
1.03351
1.03351
1.03352
1.03354
1.03357
1.03357
1.03357
1.03357
1.03359
1.0336
1.03359
1.03356
1.03351
1.03349
1.03348
1.03346
1.03339
1.03328
1.03319
1.03311
1.03301
1.03291
1.0328
1.03269
1.03266
1.03265
1.03264
1.03261
1.0326
1.03259
1.03255
1.03248
1.03239
1.03231
1.0322
1.03204
1.03185
1.03162
1.03126
1.03098
1.03094
1.03096
1.03104
1.0312
1.03142
1.03142
1.03142
1.03152
1.03187
1.03283
1.03429
1.0366
1.03888
1.04134
1.04375
1.04486
1.04649
1.04724
1.04797
1.04842
1.04909
1.04917
1.04913
1.04902
1.04885
1.04865
1.04865
1.04874
1.04898
1.04903
1.04899
1.04886
1.0487
1.0487
1.04872
1.04878
1.04884
1.04897
1.04918
1.04923
1.04921
1.04926
1.04939
1.04944
1.03259
1.03259
1.03258
1.03259
1.0326
1.03261
1.03263
1.03265
1.03266
1.03266
1.03266
1.03267
1.03269
1.03273
1.03276
1.03276
1.03276
1.03274
1.03274
1.03275
1.0328
1.03284
1.03284
1.03284
1.03285
1.03289
1.03292
1.03293
1.03294
1.03296
1.03299
1.03299
1.03292
1.03283
1.0328
1.03278
1.03273
1.03267
1.03259
1.03251
1.03247
1.03245
1.03245
1.03245
1.03246
1.03248
1.03256
1.0327
1.03282
1.03284
1.03281
1.03272
1.03256
1.03234
1.03208
1.03175
1.03147
1.03136
1.03136
1.03139
1.0315
1.03154
1.03153
1.03157
1.0315
1.03148
1.03159
1.03223
1.03331
1.03534
1.03752
1.04013
1.04266
1.04474
1.04711
1.04779
1.04859
1.04862
1.04847
1.0485
1.04861
1.04872
1.04871
1.0487
1.04874
1.04882
1.04886
1.04883
1.04871
1.04864
1.04858
1.04859
1.04863
1.04872
1.04887
1.04903
1.0491
1.04918
1.04928
1.04935
1.03145
1.03144
1.03143
1.03141
1.0314
1.0314
1.0314
1.0314
1.0314
1.0314
1.0314
1.0314
1.03141
1.03143
1.03146
1.03149
1.03151
1.03153
1.03154
1.03155
1.03158
1.03166
1.0317
1.0317
1.0317
1.03173
1.03178
1.03181
1.03184
1.03186
1.03188
1.03188
1.03183
1.03181
1.03182
1.03189
1.03193
1.03193
1.0319
1.03185
1.03181
1.03182
1.03187
1.03192
1.03196
1.03203
1.03217
1.03235
1.03251
1.03261
1.03272
1.03284
1.03286
1.03281
1.03269
1.03249
1.03225
1.03207
1.032
1.0319
1.03184
1.03186
1.03182
1.03175
1.03165
1.03148
1.03131
1.03113
1.03116
1.03152
1.03231
1.03398
1.03596
1.03875
1.04141
1.04332
1.04533
1.04613
1.04706
1.0478
1.04849
1.04871
1.04862
1.04848
1.04836
1.04845
1.04859
1.04863
1.04854
1.0484
1.04829
1.04831
1.04837
1.04845
1.04853
1.04867
1.04886
1.04892
1.04898
1.04908
1.03078
1.03077
1.03075
1.03073
1.03071
1.0307
1.03068
1.03067
1.03066
1.03065
1.03064
1.03063
1.03062
1.03063
1.03064
1.03064
1.03064
1.03065
1.03065
1.03066
1.03068
1.03072
1.03079
1.03079
1.0308
1.03085
1.03087
1.03088
1.0309
1.03093
1.03099
1.03099
1.03097
1.03095
1.03096
1.03099
1.03099
1.03098
1.03094
1.0309
1.03086
1.03086
1.03088
1.03092
1.03098
1.03108
1.03123
1.03142
1.03164
1.03191
1.03218
1.03241
1.03256
1.0326
1.03258
1.03251
1.03238
1.03228
1.03222
1.03218
1.03215
1.03212
1.03207
1.03192
1.03168
1.03137
1.03102
1.03064
1.03062
1.03064
1.03071
1.03089
1.03144
1.0329
1.03482
1.03775
1.04048
1.04308
1.04572
1.04684
1.04741
1.04783
1.04756
1.04763
1.04785
1.04809
1.04809
1.04803
1.04796
1.04789
1.04791
1.04793
1.04791
1.04792
1.04797
1.0481
1.04831
1.0484
1.04848
1.0486
1.03034
1.03032
1.0303
1.03027
1.03025
1.03023
1.0302
1.03018
1.03015
1.03012
1.03009
1.03006
1.03004
1.03003
1.03004
1.03005
1.03005
1.03005
1.03006
1.03007
1.03009
1.03013
1.03018
1.03018
1.03019
1.03023
1.03025
1.03025
1.03026
1.0303
1.03035
1.03039
1.03043
1.03048
1.03055
1.03063
1.03071
1.03077
1.03082
1.03084
1.03085
1.03082
1.03075
1.03071
1.03068
1.03068
1.03071
1.03081
1.03095
1.03114
1.03137
1.03165
1.03188
1.032
1.03202
1.03202
1.03199
1.03195
1.03187
1.03177
1.03176
1.0318
1.03192
1.03192
1.03183
1.03159
1.03122
1.03075
1.0304
1.0303
1.0303
1.03031
1.03025
1.03035
1.03082
1.03214
1.03398
1.03694
1.03956
1.04221
1.04375
1.04519
1.04587
1.04673
1.04749
1.04749
1.04737
1.04714
1.04719
1.04731
1.04738
1.04732
1.04722
1.04722
1.04729
1.04742
1.04755
1.04768
1.0478
1.04792
1.03034
1.03032
1.0303
1.03029
1.03027
1.03025
1.03023
1.03021
1.03018
1.03015
1.03011
1.03007
1.03003
1.02999
1.02995
1.02994
1.02993
1.0299
1.0299
1.0299
1.02989
1.02989
1.02989
1.02989
1.02989
1.02989
1.02988
1.02985
1.02982
1.02982
1.02983
1.02983
1.02984
1.02988
1.02996
1.03006
1.03019
1.03034
1.03047
1.03055
1.03057
1.03056
1.0305
1.03038
1.03028
1.03019
1.03012
1.03012
1.03015
1.03022
1.03034
1.03051
1.03072
1.03093
1.03106
1.03109
1.03107
1.03102
1.03097
1.03085
1.03079
1.03082
1.03098
1.03123
1.03129
1.03125
1.03108
1.03076
1.03033
1.03003
1.02992
1.02986
1.02976
1.02979
1.02976
1.02984
1.03023
1.03136
1.03323
1.03604
1.03901
1.04169
1.04427
1.04534
1.04621
1.04617
1.04595
1.04616
1.04643
1.0466
1.04653
1.04644
1.04642
1.04647
1.04653
1.04658
1.04665
1.04679
1.04696
1.0471
1.0301
1.03011
1.03012
1.03012
1.03011
1.0301
1.03009
1.03009
1.03009
1.03008
1.03007
1.03006
1.03006
1.03005
1.03002
1.02997
1.02994
1.02992
1.02989
1.02986
1.02983
1.0298
1.02976
1.02971
1.02966
1.02962
1.02958
1.0295
1.02939
1.02931
1.02927
1.02925
1.02924
1.02925
1.02929
1.0294
1.02956
1.02972
1.02989
1.03003
1.03008
1.03008
1.03003
1.02992
1.02978
1.02964
1.02954
1.02948
1.02947
1.02949
1.02951
1.02953
1.02955
1.0296
1.02967
1.0298
1.02993
1.02995
1.02994
1.02986
1.02967
1.02962
1.02969
1.02991
1.0301
1.03018
1.0302
1.03015
1.03
1.02988
1.02978
1.02974
1.02963
1.02947
1.02926
1.02919
1.02907
1.0291
1.02943
1.03041
1.03246
1.03519
1.03831
1.0407
1.04289
1.04358
1.04447
1.04539
1.0457
1.04566
1.04553
1.04553
1.04563
1.04575
1.04574
1.04571
1.04574
1.0459
1.04606
1.04621
1.0298
1.02985
1.02988
1.02989
1.02989
1.02988
1.02989
1.02996
1.03001
1.03001
1.03
1.02999
1.03002
1.03002
1.03002
1.03001
1.02999
1.02996
1.02994
1.02991
1.02985
1.02979
1.02968
1.02958
1.02956
1.02955
1.02951
1.02944
1.02936
1.02925
1.02918
1.02914
1.0291
1.02908
1.02909
1.02915
1.02922
1.02931
1.02944
1.02949
1.0295
1.02949
1.02943
1.0293
1.0291
1.02895
1.02894
1.02894
1.02894
1.02892
1.02886
1.0287
1.02855
1.0285
1.02852
1.02862
1.02881
1.02893
1.02893
1.02888
1.02875
1.02864
1.02863
1.02867
1.02882
1.029
1.02912
1.02919
1.0292
1.0292
1.02925
1.02936
1.02934
1.02922
1.02901
1.02874
1.02845
1.02832
1.02824
1.02829
1.02862
1.02967
1.03186
1.03492
1.03789
1.04077
1.04308
1.04392
1.04436
1.04412
1.04425
1.04465
1.04493
1.04493
1.04486
1.04485
1.04494
1.04508
1.04514
1.04526
1.02886
1.02888
1.0289
1.02892
1.02895
1.029
1.02909
1.02922
1.02935
1.02939
1.02939
1.02938
1.02938
1.02942
1.02948
1.02948
1.02947
1.02946
1.02946
1.02946
1.02945
1.02941
1.02934
1.02927
1.02925
1.02922
1.02917
1.02911
1.02905
1.02892
1.02883
1.02882
1.02879
1.02876
1.02876
1.02878
1.02879
1.02882
1.02889
1.02892
1.02891
1.02892
1.02891
1.02881
1.02863
1.0286
1.02863
1.02863
1.02861
1.02854
1.02841
1.02815
1.02785
1.02771
1.0277
1.02776
1.02794
1.0281
1.0281
1.02803
1.02796
1.02797
1.028
1.02806
1.02811
1.02813
1.02815
1.02823
1.02828
1.02829
1.02829
1.02834
1.02842
1.0285
1.0285
1.02842
1.02823
1.02801
1.0278
1.0277
1.02779
1.02783
1.02821
1.02937
1.03159
1.03467
1.03765
1.03969
1.04146
1.04225
1.04344
1.04404
1.04414
1.04408
1.04399
1.04412
1.04434
1.04436
1.04432
1.04438
1.02774
1.02776
1.0278
1.02783
1.02786
1.0279
1.02801
1.02826
1.02834
1.02834
1.02834
1.02836
1.0284
1.02847
1.02848
1.02848
1.02849
1.02849
1.02849
1.0285
1.02851
1.0285
1.02846
1.02841
1.02838
1.02832
1.02819
1.02812
1.0281
1.02804
1.02796
1.02796
1.02797
1.02796
1.02797
1.02796
1.02793
1.02791
1.02789
1.02784
1.02775
1.02771
1.0277
1.0277
1.02772
1.02779
1.02795
1.02809
1.0281
1.02807
1.02797
1.02778
1.02753
1.02741
1.02744
1.02757
1.02772
1.02775
1.02771
1.02756
1.02745
1.02746
1.02749
1.02753
1.02751
1.0274
1.02728
1.02728
1.02728
1.02729
1.02729
1.0273
1.02736
1.02748
1.02757
1.02764
1.02766
1.02763
1.02756
1.02743
1.02727
1.0272
1.02721
1.0273
1.02777
1.02915
1.03152
1.03466
1.03794
1.04059
1.04228
1.04289
1.0429
1.04291
1.04326
1.04361
1.04377
1.04369
1.04361
1.04367
1.02685
1.02689
1.02692
1.02695
1.02697
1.02696
1.02697
1.02706
1.0272
1.02735
1.02746
1.02759
1.02769
1.02774
1.02776
1.02776
1.02776
1.02776
1.02779
1.02782
1.02783
1.02781
1.02776
1.02771
1.02765
1.02753
1.02732
1.02722
1.02722
1.02721
1.02718
1.02714
1.02717
1.02727
1.02732
1.02731
1.02729
1.02722
1.02707
1.02696
1.02687
1.02676
1.02672
1.02673
1.02676
1.02687
1.02709
1.02736
1.02747
1.02749
1.02748
1.02741
1.0273
1.02727
1.02733
1.02751
1.02752
1.02748
1.02735
1.02728
1.02729
1.0273
1.02728
1.02721
1.02711
1.02692
1.02668
1.0265
1.02647
1.02649
1.02656
1.02664
1.02668
1.02669
1.02675
1.02685
1.02698
1.02703
1.02705
1.02706
1.02707
1.02701
1.02689
1.02683
1.02676
1.02685
1.02746
1.02909
1.03179
1.03501
1.03808
1.03975
1.04094
1.04186
1.04303
1.04321
1.04316
1.04301
1.04307
1.04316
1.02572
1.02585
1.02597
1.02601
1.02602
1.026
1.02594
1.02596
1.02618
1.02654
1.02673
1.02674
1.0267
1.02668
1.0267
1.02673
1.02671
1.02669
1.0267
1.02672
1.02678
1.02679
1.02675
1.02672
1.02667
1.02655
1.02648
1.02649
1.02653
1.02654
1.02653
1.02654
1.02668
1.02698
1.02703
1.02703
1.02703
1.027
1.02689
1.02677
1.02661
1.02645
1.02637
1.02635
1.02637
1.0265
1.02676
1.02696
1.027
1.027
1.02694
1.0268
1.02678
1.02679
1.0269
1.02711
1.02713
1.02711
1.02701
1.02679
1.02674
1.02677
1.02686
1.02688
1.02686
1.02677
1.02657
1.02629
1.02616
1.02615
1.02621
1.02631
1.02636
1.02634
1.02629
1.02629
1.02634
1.02639
1.02641
1.02645
1.0265
1.0266
1.02661
1.02659
1.02647
1.02637
1.02636
1.02655
1.02738
1.02962
1.03255
1.03583
1.03929
1.0409
1.04219
1.04228
1.04218
1.04235
1.04261
1.04275
1.02582
1.02607
1.02616
1.02617
1.02618
1.02616
1.02615
1.02621
1.0265
1.02677
1.02682
1.02682
1.02673
1.02651
1.02648
1.0265
1.02646
1.02634
1.02623
1.02613
1.02606
1.02602
1.02599
1.02592
1.02578
1.0257
1.0257
1.02574
1.02593
1.02619
1.02626
1.0263
1.02645
1.02679
1.02704
1.02708
1.02707
1.02701
1.0268
1.02669
1.02669
1.02667
1.02658
1.02649
1.02649
1.02657
1.02678
1.02693
1.02695
1.02685
1.02647
1.02628
1.02629
1.02635
1.02653
1.02684
1.02687
1.02686
1.02682
1.02657
1.02621
1.02611
1.02614
1.02633
1.02659
1.02666
1.02659
1.02636
1.02609
1.02603
1.02606
1.02618
1.02623
1.02618
1.02604
1.02595
1.02595
1.02596
1.02596
1.02596
1.02599
1.02609
1.02615
1.02615
1.02611
1.02609
1.02609
1.02616
1.02625
1.02676
1.02797
1.03059
1.03349
1.03654
1.03901
1.04026
1.04129
1.0423
1.04239
1.04233
1.02568
1.02588
1.02603
1.02611
1.02617
1.02625
1.02635
1.02642
1.02647
1.02649
1.02648
1.02645
1.0263
1.02618
1.02619
1.0262
1.02616
1.02608
1.02592
1.02577
1.02573
1.02573
1.02573
1.02569
1.02553
1.02542
1.02538
1.02537
1.02544
1.0257
1.02584
1.02591
1.02608
1.02636
1.02654
1.02662
1.02662
1.02655
1.02632
1.02619
1.02619
1.02622
1.02619
1.02608
1.02602
1.02607
1.02625
1.02639
1.02639
1.02624
1.02586
1.02564
1.02563
1.02565
1.02583
1.0263
1.02668
1.02674
1.02676
1.02664
1.02625
1.02583
1.02573
1.02581
1.02615
1.02647
1.02649
1.02637
1.02615
1.02605
1.02606
1.02615
1.02622
1.02618
1.02605
1.02588
1.0258
1.02578
1.02574
1.02572
1.02572
1.02574
1.02579
1.0258
1.02582
1.02586
1.0259
1.02595
1.02604
1.02613
1.02639
1.02714
1.02874
1.03171
1.03473
1.03834
1.04059
1.04184
1.04178
1.04167
1.02388
1.024
1.02414
1.02429
1.0244
1.02449
1.02464
1.02472
1.02464
1.02445
1.02436
1.02436
1.02432
1.02428
1.02429
1.02442
1.0245
1.02451
1.02453
1.02466
1.02484
1.0249
1.02487
1.0248
1.02477
1.02476
1.02471
1.02448
1.02426
1.02432
1.02453
1.02464
1.02475
1.02481
1.02473
1.02443
1.02425
1.02421
1.02419
1.02429
1.02467
1.02514
1.02537
1.02535
1.02531
1.02531
1.02528
1.02537
1.02567
1.02587
1.02588
1.02574
1.02527
1.02489
1.02481
1.02496
1.02558
1.02632
1.02662
1.02663
1.02651
1.02616
1.02573
1.02564
1.02579
1.02611
1.0263
1.02629
1.02623
1.02615
1.02612
1.02617
1.02625
1.02625
1.02615
1.02599
1.02588
1.02581
1.02575
1.02568
1.02561
1.02561
1.02564
1.02569
1.02573
1.02575
1.02577
1.02581
1.02588
1.02596
1.02605
1.0262
1.02665
1.02769
1.02995
1.033
1.0361
1.03872
1.03988
1.04111
1.02062
1.02063
1.02064
1.02071
1.02083
1.02082
1.02062
1.02039
1.02035
1.02035
1.02037
1.02038
1.02042
1.02054
1.02077
1.02109
1.02127
1.0214
1.02178
1.02259
1.02284
1.02289
1.02298
1.02299
1.02296
1.02292
1.02276
1.02255
1.02254
1.02266
1.02296
1.02312
1.02315
1.02309
1.02283
1.02228
1.02159
1.02134
1.02152
1.02216
1.02277
1.0231
1.02332
1.02336
1.02334
1.02341
1.02366
1.02411
1.02481
1.02559
1.02581
1.02575
1.0254
1.02468
1.02423
1.02426
1.02461
1.02535
1.02613
1.02643
1.02636
1.02606
1.02583
1.02568
1.02564
1.02572
1.02591
1.02607
1.02608
1.02604
1.02601
1.02603
1.02608
1.02613
1.02611
1.02604
1.026
1.02597
1.02594
1.02589
1.02584
1.0258
1.02577
1.02575
1.02572
1.02569
1.02569
1.02571
1.02576
1.02586
1.02595
1.02601
1.02611
1.02637
1.02708
1.02862
1.03137
1.0345
1.03793
1.04083
1.02065
1.02065
1.02065
1.02069
1.02076
1.02075
1.02058
1.02045
1.02045
1.02049
1.02058
1.02065
1.02074
1.02094
1.02105
1.02113
1.02114
1.02115
1.02149
1.02212
1.02274
1.0232
1.02329
1.02325
1.02317
1.02306
1.02298
1.02299
1.02304
1.0231
1.0233
1.02367
1.02398
1.024
1.02379
1.02322
1.02233
1.02165
1.02165
1.02181
1.022
1.02209
1.02219
1.02235
1.02234
1.02237
1.02261
1.02303
1.02347
1.02395
1.0245
1.02475
1.02467
1.02427
1.02362
1.02341
1.02352
1.02385
1.02425
1.0246
1.02498
1.02539
1.0256
1.02561
1.02553
1.02543
1.02541
1.02543
1.02553
1.02571
1.0258
1.02584
1.02589
1.02595
1.02601
1.02609
1.02614
1.02614
1.02612
1.02611
1.02611
1.02608
1.02603
1.02593
1.02584
1.02572
1.02573
1.02576
1.02581
1.02585
1.02591
1.02595
1.02599
1.02606
1.02622
1.02668
1.02766
1.02987
1.0327
1.03718
1.02634
1.02614
1.02561
1.0253
1.02532
1.02532
1.02517
1.02484
1.02472
1.02477
1.02483
1.02463
1.02421
1.02429
1.0246
1.02449
1.0235
1.02284
1.02273
1.02269
1.02272
1.02313
1.02374
1.02385
1.02371
1.02358
1.02369
1.02428
1.02506
1.02521
1.02513
1.02514
1.02523
1.02551
1.02551
1.02515
1.02465
1.02432
1.02408
1.02372
1.02331
1.02301
1.02267
1.02233
1.02237
1.02263
1.02281
1.02266
1.02252
1.02248
1.02252
1.02282
1.02331
1.02353
1.02354
1.02338
1.0229
1.02267
1.02265
1.02271
1.02285
1.02319
1.02367
1.02417
1.0245
1.02471
1.02479
1.02478
1.02479
1.02495
1.02546
1.02582
1.02588
1.02591
1.02599
1.02614
1.02619
1.02618
1.02617
1.02617
1.02617
1.02616
1.02614
1.02608
1.02604
1.02597
1.02594
1.02596
1.02599
1.026
1.02599
1.02598
1.02596
1.02597
1.02604
1.02613
1.02637
1.02705
1.02848
1.03293
1.03388
1.0327
1.03248
1.03248
1.03261
1.03349
1.03409
1.0342
1.03396
1.03343
1.03357
1.03383
1.03331
1.03245
1.03222
1.0315
1.02981
1.02828
1.02694
1.02598
1.0257
1.02583
1.02616
1.02633
1.02632
1.02633
1.02653
1.02717
1.0277
1.02766
1.02683
1.02541
1.02529
1.02541
1.02509
1.02485
1.02502
1.0256
1.02576
1.02554
1.02519
1.0248
1.02469
1.0248
1.02507
1.02524
1.02495
1.02361
1.02243
1.02217
1.02219
1.0225
1.0232
1.02383
1.02421
1.02423
1.0241
1.02389
1.02365
1.0233
1.02307
1.02292
1.02288
1.02293
1.02335
1.02399
1.02413
1.02402
1.02382
1.02383
1.02409
1.02475
1.02533
1.02543
1.02547
1.02558
1.02573
1.02585
1.0259
1.02599
1.0261
1.02611
1.02608
1.02602
1.02602
1.02612
1.02621
1.02627
1.02627
1.02623
1.02618
1.02616
1.0261
1.02606
1.02605
1.02605
1.02609
1.02621
1.02659
1.02898
1.04665
1.04574
1.04424
1.04342
1.0434
1.04352
1.0436
1.04318
1.04272
1.04271
1.04293
1.04449
1.0453
1.04516
1.04438
1.04292
1.04199
1.04166
1.04185
1.04194
1.04177
1.04087
1.04062
1.0406
1.04039
1.04036
1.04051
1.04028
1.04007
1.04037
1.04015
1.03851
1.03639
1.03439
1.03222
1.0306
1.02989
1.02949
1.02934
1.02958
1.03034
1.03012
1.02984
1.03031
1.03109
1.03114
1.03062
1.02928
1.02807
1.02699
1.02616
1.02586
1.02549
1.02485
1.02461
1.02472
1.02492
1.02525
1.02585
1.02589
1.0253
1.02392
1.02315
1.02317
1.02346
1.02395
1.02434
1.02441
1.02417
1.02371
1.02362
1.02374
1.02411
1.02442
1.02453
1.02464
1.02484
1.02513
1.02537
1.02557
1.02583
1.026
1.02601
1.02601
1.02606
1.02618
1.02626
1.0263
1.02638
1.02642
1.02642
1.02639
1.0263
1.02618
1.02612
1.02609
1.0261
1.02613
1.02619
1.027
1.06892
1.06891
1.06869
1.06798
1.0663
1.06477
1.0636
1.0627
1.0627
1.06274
1.06279
1.06236
1.06185
1.06178
1.0614
1.06058
1.06054
1.06034
1.05884
1.05759
1.05761
1.05753
1.05685
1.05477
1.05297
1.05253
1.0522
1.05212
1.05252
1.05268
1.05187
1.04998
1.04951
1.04967
1.04942
1.04842
1.0468
1.04547
1.04539
1.04559
1.04517
1.04299
1.03999
1.03838
1.03733
1.03514
1.03349
1.03359
1.03459
1.0345
1.03434
1.03437
1.03432
1.03366
1.03143
1.02814
1.0264
1.02638
1.02688
1.02785
1.02809
1.02787
1.02714
1.02584
1.02477
1.02467
1.02484
1.02525
1.02532
1.02499
1.02432
1.02413
1.02418
1.0243
1.02436
1.02435
1.02434
1.02431
1.02437
1.02452
1.02474
1.025
1.02525
1.0255
1.02576
1.02596
1.02611
1.02628
1.02646
1.02652
1.02651
1.02647
1.02639
1.02627
1.02625
1.02627
1.0263
1.02631
1.02634
1.02648
1.08848
1.08853
1.08882
1.08918
1.08917
1.08847
1.08746
1.08625
1.0848
1.08356
1.08317
1.08334
1.08352
1.08332
1.08331
1.08328
1.08262
1.08243
1.08227
1.08199
1.08202
1.08122
1.07936
1.07871
1.07838
1.07789
1.07661
1.07542
1.075
1.07427
1.07282
1.07111
1.06968
1.06861
1.06665
1.0643
1.06413
1.06408
1.06287
1.06195
1.06187
1.06121
1.05951
1.05828
1.0575
1.05616
1.054
1.05211
1.05083
1.04879
1.04528
1.04363
1.04373
1.04477
1.04442
1.04156
1.039
1.03815
1.03666
1.03389
1.0328
1.03306
1.03307
1.03253
1.03118
1.02891
1.02716
1.02709
1.02754
1.02749
1.02666
1.02528
1.02468
1.02467
1.02471
1.0246
1.02425
1.02408
1.02411
1.02419
1.02424
1.02429
1.02438
1.02465
1.02494
1.02518
1.02549
1.02589
1.02634
1.02643
1.0264
1.02634
1.02632
1.02635
1.02641
1.02645
1.02644
1.02642
1.02642
1.02638
1.11296
1.1127
1.11269
1.11287
1.11318
1.11333
1.1132
1.11223
1.11124
1.11021
1.10867
1.10757
1.10749
1.10765
1.1076
1.1067
1.1061
1.10616
1.10569
1.10427
1.10359
1.10332
1.10258
1.10095
1.09981
1.09892
1.09762
1.09713
1.09687
1.09638
1.09546
1.09453
1.09389
1.09313
1.09159
1.08957
1.08812
1.08732
1.08634
1.08489
1.08359
1.08158
1.07833
1.0771
1.0766
1.0759
1.07316
1.07064
1.07047
1.06993
1.0679
1.06509
1.0635
1.06199
1.05856
1.05388
1.05301
1.05331
1.05258
1.05031
1.0482
1.04422
1.04047
1.0401
1.03973
1.03871
1.03644
1.03315
1.03198
1.0319
1.0313
1.02927
1.02755
1.02704
1.02662
1.02575
1.02444
1.02416
1.02421
1.02441
1.02439
1.02447
1.0248
1.02537
1.02536
1.02519
1.02508
1.02512
1.02535
1.02562
1.02586
1.02601
1.02611
1.02624
1.0264
1.02648
1.02647
1.02646
1.0265
1.02654
1.13851
1.13824
1.1381
1.13765
1.1366
1.13558
1.13505
1.1351
1.13555
1.13561
1.1352
1.13415
1.13241
1.13118
1.13113
1.13118
1.13118
1.13067
1.12977
1.12917
1.12868
1.12815
1.12731
1.12615
1.12505
1.12414
1.12316
1.12216
1.12119
1.12023
1.11927
1.11818
1.11699
1.11604
1.11499
1.11365
1.11171
1.10972
1.10852
1.10768
1.10662
1.10515
1.10351
1.10183
1.10062
1.09928
1.09724
1.09487
1.09288
1.09055
1.08794
1.08581
1.08454
1.08336
1.08123
1.07806
1.07593
1.07372
1.06913
1.06684
1.0663
1.06432
1.0615
1.05857
1.05399
1.05173
1.05042
1.04901
1.04577
1.04241
1.04078
1.03945
1.03738
1.03513
1.03336
1.03233
1.03069
1.02928
1.02825
1.0277
1.027
1.02633
1.02593
1.02536
1.0247
1.02443
1.02444
1.02457
1.02472
1.02493
1.02521
1.02544
1.02566
1.02591
1.0262
1.02626
1.02626
1.02635
1.0266
1.02679
1.1632
1.16318
1.16335
1.16337
1.16276
1.16191
1.1618
1.16154
1.16061
1.15949
1.15928
1.15932
1.15919
1.15847
1.15727
1.15641
1.15609
1.15535
1.15398
1.15368
1.15351
1.15302
1.15138
1.14979
1.14946
1.14926
1.14858
1.14724
1.14604
1.14506
1.144
1.14299
1.14201
1.14076
1.13956
1.1385
1.13721
1.13562
1.13397
1.13251
1.13117
1.12959
1.12773
1.12576
1.12402
1.12252
1.12089
1.11886
1.11693
1.11496
1.11299
1.11086
1.10844
1.10598
1.10337
1.10043
1.09809
1.09611
1.09362
1.09073
1.08809
1.08458
1.08145
1.07892
1.07593
1.07307
1.06867
1.0654
1.06323
1.0603
1.05656
1.05326
1.05025
1.04738
1.04443
1.04175
1.03909
1.03672
1.03409
1.03169
1.03022
1.02881
1.02693
1.02584
1.02512
1.02487
1.02495
1.02533
1.0257
1.026
1.02595
1.02568
1.02541
1.02537
1.02552
1.02581
1.02604
1.02628
1.02659
1.02681
1.19064
1.19011
1.18869
1.18779
1.18775
1.18813
1.18821
1.18799
1.18723
1.18602
1.18479
1.18453
1.18459
1.18451
1.18384
1.18198
1.1814
1.18129
1.18104
1.17969
1.17838
1.17808
1.17771
1.17679
1.17552
1.17458
1.17389
1.17301
1.17167
1.17049
1.16951
1.1684
1.16712
1.16588
1.16459
1.16337
1.16216
1.16078
1.15916
1.15728
1.15566
1.15431
1.1528
1.15105
1.14923
1.1473
1.14532
1.14338
1.14143
1.13907
1.13667
1.13464
1.13234
1.12971
1.12747
1.12518
1.12242
1.11944
1.11651
1.11357
1.11092
1.10811
1.1049
1.10149
1.09753
1.0946
1.09185
1.08803
1.08356
1.08011
1.07679
1.07269
1.06892
1.06517
1.06185
1.05831
1.05396
1.05019
1.04755
1.04423
1.04136
1.0389
1.03613
1.03432
1.03287
1.03115
1.0297
1.02869
1.02763
1.02653
1.02559
1.02488
1.02487
1.02502
1.02532
1.02563
1.02589
1.02615
1.02653
1.02682
1.21781
1.21746
1.21689
1.21569
1.2149
1.21493
1.21503
1.21471
1.21398
1.21356
1.21272
1.21135
1.21115
1.21114
1.21088
1.20978
1.20794
1.20765
1.20758
1.20716
1.20548
1.20431
1.20394
1.2034
1.20233
1.2011
1.20007
1.19922
1.19827
1.19708
1.19589
1.19467
1.19338
1.1922
1.19101
1.18955
1.18789
1.18648
1.18517
1.18343
1.18143
1.17971
1.17824
1.17655
1.17456
1.17265
1.17071
1.16849
1.16633
1.16412
1.16179
1.15977
1.1575
1.15443
1.15159
1.14928
1.14685
1.14401
1.14109
1.1383
1.13511
1.13163
1.12807
1.12516
1.1222
1.11842
1.11424
1.11098
1.10735
1.10315
1.09927
1.09524
1.09101
1.08678
1.08211
1.07798
1.07412
1.06881
1.06462
1.06067
1.05656
1.05266
1.04914
1.0452
1.04189
1.03845
1.03487
1.0322
1.0294
1.02763
1.02675
1.02604
1.02598
1.02634
1.02714
1.02701
1.0266
1.02621
1.02623
1.02653
1.24639
1.24533
1.24498
1.24503
1.24496
1.2443
1.24375
1.24335
1.24242
1.24093
1.24018
1.24029
1.2404
1.24017
1.23942
1.23762
1.23618