/*--------------------------------*- C++ -*----------------------------------*\
  =========                 |
  \\      /  F ield         | OpenFOAM: The Open Source CFD Toolbox
   \\    /   O peration     | Website:  https://openfoam.org
    \\  /    A nd           | Version:  7
     \\/     M anipulation  |
\*---------------------------------------------------------------------------*/
FoamFile
{
    version     2.0;
    format      ascii;
    class       volVectorField;
    location    "4.1";
    object      U;
}
// * * * * * * * * * * * * * * * * * * * * * * * * * * * * * * * * * * * * * //

dimensions      [0 1 -1 0 0 0 0];

internalField   nonuniform List<vector> 
11200
(
(2.55372 -0.673821 0)
(2.5291 -0.21233 0)
(2.57394 -0.105596 0)
(2.54183 0.153451 0)
(2.57123 0.192371 0)
(2.58626 0.26983 0)
(2.61215 0.311926 0)
(2.62232 0.316718 0)
(2.64499 0.315632 0)
(2.67281 0.311453 0)
(2.66576 0.250191 0)
(2.67684 0.159882 0)
(2.7051 0.123161 0)
(2.71029 0.0677872 0)
(2.71378 0.0649846 0)
(2.7526 0.0968562 0)
(2.76346 0.143885 0)
(2.78119 0.164077 0)
(2.76638 0.131867 0)
(2.74571 0.0931452 0)
(2.75866 0.0807907 0)
(2.77703 0.0850507 0)
(2.79477 0.0954693 0)
(2.81235 0.104827 0)
(2.81296 0.09372 0)
(2.81841 0.0746368 0)
(2.83576 0.0626299 0)
(2.86511 0.0558188 0)
(2.88647 0.045744 0)
(2.8972 0.0355688 0)
(2.67661 -1.43938 0)
(2.69456 -1.43755 0)
(2.68619 -1.32476 0)
(2.65077 -1.09984 0)
(2.61449 -0.859694 0)
(2.57783 -0.615961 0)
(2.53101 -0.312819 0)
(2.55752 -0.237254 0)
(2.52447 -0.055487 0)
(2.52917 0.0396768 0)
(2.55518 0.034865 0)
(2.56458 0.0335041 0)
(2.59546 0.0492331 0)
(2.60236 0.0672229 0)
(2.60709 0.0818307 0)
(2.6279 0.0688517 0)
(2.63083 0.0635912 0)
(2.62745 0.0703604 0)
(2.60591 0.102426 0)
(2.60962 0.101517 0)
(2.63542 0.0866586 0)
(2.65845 0.074996 0)
(2.68099 0.0704512 0)
(2.69326 0.0736414 0)
(2.69289 0.0670189 0)
(2.7041 0.0516307 0)
(2.7273 0.0414139 0)
(2.76306 0.037451 0)
(2.78756 0.0243343 0)
(2.80151 0.0163918 0)
(2.83324 -1.54899 0)
(2.88529 -1.55061 0)
(2.92285 -1.59277 0)
(2.95255 -1.60137 0)
(2.98163 -1.60583 0)
(2.99502 -1.62565 0)
(2.97383 -1.5267 0)
(2.91514 -1.36056 0)
(2.79492 -1.04689 0)
(2.70397 -0.735686 0)
(2.61877 -0.378693 0)
(2.59739 -0.198857 0)
(2.53109 0.0553792 0)
(2.51812 0.197209 0)
(2.52069 0.180681 0)
(2.52307 0.138889 0)
(2.54645 0.0911908 0)
(2.54827 0.0834436 0)
(2.54133 0.0998509 0)
(2.54891 0.10276 0)
(2.57619 0.0951915 0)
(2.59723 0.0716245 0)
(2.60736 0.0656643 0)
(2.60782 0.077333 0)
(2.61164 0.0829019 0)
(2.63177 0.0667952 0)
(2.65915 0.0550952 0)
(2.69389 0.0375776 0)
(2.71355 0.0344556 0)
(2.73554 0.0269465 0)
(2.97557 -1.61645 0)
(2.99598 -1.62727 0)
(3.01468 -1.63709 0)
(3.0309 -1.64012 0)
(3.03969 -1.64813 0)
(3.04967 -1.63702 0)
(3.05927 -1.64688 0)
(3.06789 -1.63272 0)
(3.07203 -1.63312 0)
(3.07018 -1.63931 0)
(3.04219 -1.59475 0)
(2.95669 -1.40862 0)
(2.83211 -0.988608 0)
(2.78975 -0.627339 0)
(2.737 -0.318992 0)
(2.62477 -0.111559 0)
(2.58297 0.00869961 0)
(2.57729 0.0582142 0)
(2.58509 0.0941588 0)
(2.58259 0.0974088 0)
(2.58336 0.0810121 0)
(2.57834 0.0651282 0)
(2.5822 0.0627765 0)
(2.58358 0.0599928 0)
(2.59426 0.0514834 0)
(2.61604 0.036974 0)
(2.64183 0.0315001 0)
(2.66959 0.0322714 0)
(2.68586 0.0300537 0)
(2.71453 0.0134817 0)
(3.03901 -1.63885 0)
(3.04366 -1.63762 0)
(3.04832 -1.63309 0)
(3.05283 -1.62863 0)
(3.05811 -1.62278 0)
(3.06206 -1.62048 0)
(3.06645 -1.62126 0)
(3.06809 -1.62203 0)
(3.07006 -1.62648 0)
(3.0695 -1.6354 0)
(3.0613 -1.64665 0)
(3.0481 -1.65899 0)
(3.04185 -1.66072 0)
(3.03985 -1.64961 0)
(2.98922 -1.45331 0)
(2.81393 -0.873001 0)
(2.74793 -0.453369 0)
(2.61676 0.00738646 0)
(2.63883 0.0505006 0)
(2.64295 0.114526 0)
(2.60983 0.0698344 0)
(2.58581 0.0589263 0)
(2.59301 0.0593334 0)
(2.59249 0.0455542 0)
(2.60756 0.0261867 0)
(2.6244 0.00661531 0)
(2.65056 0.0114271 0)
(2.66571 0.0225221 0)
(2.68901 0.0212755 0)
(2.71184 0.000718029 0)
(3.04703 -1.63447 0)
(3.04689 -1.63184 0)
(3.04831 -1.62915 0)
(3.05176 -1.62533 0)
(3.05625 -1.62213 0)
(3.06022 -1.62501 0)
(3.06166 -1.62838 0)
(3.06332 -1.63465 0)
(3.0632 -1.64872 0)
(3.05921 -1.65706 0)
(3.04941 -1.65545 0)
(3.0442 -1.654 0)
(3.03404 -1.65155 0)
(3.03428 -1.64354 0)
(3.03697 -1.64479 0)
(3.03644 -1.64668 0)
(3.01051 -1.57326 0)
(2.88887 -1.12256 0)
(2.84881 -0.725099 0)
(2.78771 -0.323729 0)
(2.76946 -0.148485 0)
(2.65384 0.00914871 0)
(2.62501 0.0583901 0)
(2.6246 0.062684 0)
(2.65044 0.0479292 0)
(2.66186 0.0185212 0)
(2.67295 0.0235295 0)
(2.69413 0.0321423 0)
(2.70606 0.0237905 0)
(2.73515 0.00870772 0)
(3.04222 -1.63519 0)
(3.04364 -1.63217 0)
(3.0467 -1.62971 0)
(3.04711 -1.63444 0)
(3.04689 -1.63841 0)
(3.0471 -1.64149 0)
(3.04898 -1.64751 0)
(3.05267 -1.65226 0)
(3.05554 -1.65892 0)
(3.05255 -1.66027 0)
(3.04625 -1.65465 0)
(3.04071 -1.65184 0)
(3.02835 -1.64981 0)
(3.02938 -1.64487 0)
(3.03456 -1.64387 0)
(3.03365 -1.6488 0)
(3.0328 -1.64197 0)
(3.02714 -1.62946 0)
(3.01924 -1.63911 0)
(2.98504 -1.40657 0)
(2.93784 -0.968045 0)
(2.81924 -0.450093 0)
(2.7787 -0.185029 0)
(2.72576 0.0220665 0)
(2.70158 0.0391763 0)
(2.70669 0.0332424 0)
(2.72213 0.0307153 0)
(2.74018 0.0111215 0)
(2.75537 -0.0181849 0)
(2.78756 -0.0279404 0)
(3.0396 -1.64412 0)
(3.0417 -1.64268 0)
(3.04402 -1.64113 0)
(3.0452 -1.64113 0)
(3.04496 -1.64285 0)
(3.04352 -1.64771 0)
(3.04567 -1.65482 0)
(3.04904 -1.65893 0)
(3.04933 -1.65845 0)
(3.0477 -1.65685 0)
(3.04648 -1.64508 0)
(3.0449 -1.63775 0)
(3.03149 -1.63978 0)
(3.0207 -1.63134 0)
(3.02723 -1.61223 0)
(3.03709 -1.60883 0)
(3.04364 -1.60558 0)
(3.04245 -1.58945 0)
(3.03712 -1.58141 0)
(3.04121 -1.56564 0)
(3.0493 -1.54594 0)
(3.03409 -1.43966 0)
(2.97372 -1.04796 0)
(2.92691 -0.567262 0)
(2.90188 -0.318281 0)
(2.83354 -0.0817515 0)
(2.77307 0.026233 0)
(2.77324 0.0284442 0)
(2.81848 0.0395055 0)
(2.84543 0.0139879 0)
(3.03443 -1.65429 0)
(3.03681 -1.65354 0)
(3.03785 -1.65111 0)
(3.03911 -1.64718 0)
(3.03622 -1.6569 0)
(3.03193 -1.66362 0)
(3.0301 -1.67275 0)
(3.03471 -1.67179 0)
(3.0439 -1.65119 0)
(3.04495 -1.63463 0)
(3.04318 -1.61487 0)
(3.05363 -1.57975 0)
(3.04902 -1.57912 0)
(3.03208 -1.59616 0)
(3.03861 -1.57943 0)
(3.05214 -1.57235 0)
(3.05556 -1.58129 0)
(3.06299 -1.55247 0)
(3.06519 -1.51603 0)
(3.06836 -1.50307 0)
(3.07338 -1.483 0)
(3.05535 -1.48939 0)
(3.06243 -1.46886 0)
(3.07338 -1.41415 0)
(3.05847 -1.14417 0)
(2.99691 -0.686823 0)
(2.94876 -0.393893 0)
(2.89039 -0.129418 0)
(2.87415 -0.0190139 0)
(2.88529 0.00855637 0)
(3.01807 -1.66096 0)
(3.01729 -1.66058 0)
(3.0167 -1.65656 0)
(3.0208 -1.64694 0)
(3.02917 -1.64048 0)
(3.0319 -1.64395 0)
(3.03865 -1.64014 0)
(3.04598 -1.63264 0)
(3.0446 -1.62948 0)
(3.046 -1.62097 0)
(3.04051 -1.58433 0)
(3.0511 -1.55586 0)
(3.05873 -1.54471 0)
(3.0503 -1.56651 0)
(3.05425 -1.54718 0)
(3.07017 -1.51194 0)
(3.07893 -1.50407 0)
(3.08398 -1.51356 0)
(3.0803 -1.46451 0)
(3.09535 -1.41491 0)
(3.10632 -1.38898 0)
(3.10126 -1.38381 0)
(3.08408 -1.41009 0)
(3.07448 -1.388 0)
(3.08861 -1.35404 0)
(3.10641 -1.32598 0)
(3.09564 -1.15193 0)
(3.03107 -0.704987 0)
(3.01671 -0.475022 0)
(2.96215 -0.151212 0)
(3.04764 -1.56005 0)
(3.04687 -1.55074 0)
(3.04379 -1.54762 0)
(3.04447 -1.54927 0)
(3.05231 -1.53983 0)
(3.06226 -1.53301 0)
(3.07365 -1.52597 0)
(3.08685 -1.51751 0)
(3.07497 -1.53494 0)
(3.05636 -1.57099 0)
(3.0478 -1.55502 0)
(3.05351 -1.52396 0)
(3.06178 -1.51428 0)
(3.06705 -1.51453 0)
(3.07122 -1.49013 0)
(3.08249 -1.43105 0)
(3.09371 -1.41711 0)
(3.09918 -1.40214 0)
(3.09703 -1.39321 0)
(3.09765 -1.39802 0)
(3.11463 -1.3597 0)
(3.12616 -1.32811 0)
(3.12277 -1.29857 0)
(3.10415 -1.3084 0)
(3.08699 -1.3137 0)
(3.10154 -1.26803 0)
(3.11947 -1.25449 0)
(3.12853 -1.24263 0)
(3.11396 -1.14771 0)
(3.0545 -0.585136 0)
(3.06106 -1.55095 0)
(3.0586 -1.54166 0)
(3.05696 -1.53054 0)
(3.06104 -1.52799 0)
(3.06517 -1.4988 0)
(3.07277 -1.45206 0)
(3.09069 -1.42013 0)
(3.10472 -1.40529 0)
(3.11072 -1.40168 0)
(3.10859 -1.41399 0)
(3.09044 -1.42422 0)
(3.08869 -1.41821 0)
(3.10359 -1.39484 0)
(3.10118 -1.39567 0)
(3.08867 -1.40394 0)
(3.08897 -1.37759 0)
(3.09983 -1.3576 0)
(3.10411 -1.3487 0)
(3.10194 -1.34165 0)
(3.10178 -1.32825 0)
(3.10647 -1.31362 0)
(3.12026 -1.28538 0)
(3.12848 -1.26262 0)
(3.12901 -1.23142 0)
(3.11928 -1.22195 0)
(3.10541 -1.22668 0)
(3.11597 -1.20376 0)
(3.1343 -1.17046 0)
(3.14591 -1.18093 0)
(3.14487 -1.1584 0)
(3.10025 -1.4329 0)
(3.0952 -1.43053 0)
(3.08435 -1.43034 0)
(3.07682 -1.41743 0)
(3.07221 -1.41137 0)
(3.07566 -1.41053 0)
(3.08569 -1.39826 0)
(3.09828 -1.39308 0)
(3.10379 -1.40187 0)
(3.10872 -1.40752 0)
(3.10154 -1.37909 0)
(3.09388 -1.34463 0)
(3.10872 -1.31074 0)
(3.11981 -1.29683 0)
(3.11527 -1.29933 0)
(3.11094 -1.29921 0)
(3.11551 -1.28397 0)
(3.11745 -1.28108 0)
(3.11621 -1.26723 0)
(3.1126 -1.25056 0)
(3.10776 -1.24121 0)
(3.11075 -1.22862 0)
(3.11674 -1.20776 0)
(3.12288 -1.19359 0)
(3.13028 -1.17733 0)
(3.12948 -1.15502 0)
(3.12352 -1.15095 0)
(3.13089 -1.13943 0)
(3.14008 -1.11393 0)
(3.15014 -1.10208 0)
(3.121 -1.32129 0)
(3.11888 -1.31932 0)
(3.11461 -1.31624 0)
(3.10871 -1.32208 0)
(3.10871 -1.29809 0)
(3.11283 -1.27437 0)
(3.11631 -1.24907 0)
(3.1348 -1.22245 0)
(3.14663 -1.21745 0)
(3.13601 -1.23447 0)
(3.12101 -1.25552 0)
(3.11339 -1.26024 0)
(3.11266 -1.25782 0)
(3.1172 -1.24688 0)
(3.12308 -1.24048 0)
(3.12578 -1.21444 0)
(3.12759 -1.17988 0)
(3.13218 -1.17079 0)
(3.13112 -1.16994 0)
(3.12819 -1.15862 0)
(3.12363 -1.15249 0)
(3.11712 -1.16555 0)
(3.11435 -1.14333 0)
(3.11874 -1.12799 0)
(3.12747 -1.12527 0)
(3.13207 -1.10423 0)
(3.1356 -1.08537 0)
(3.13856 -1.08182 0)
(3.1423 -1.06809 0)
(3.15374 -1.05088 0)
(3.1378 -1.20617 0)
(3.13747 -1.20978 0)
(3.13683 -1.21031 0)
(3.12894 -1.21807 0)
(3.12357 -1.22869 0)
(3.1131 -1.20624 0)
(3.1201 -1.18276 0)
(3.13604 -1.16629 0)
(3.14089 -1.15853 0)
(3.14186 -1.15846 0)
(3.13928 -1.15755 0)
(3.13073 -1.14452 0)
(3.12966 -1.12795 0)
(3.13777 -1.11232 0)
(3.1363 -1.1138 0)
(3.13072 -1.11613 0)
(3.12641 -1.10993 0)
(3.12916 -1.10761 0)
(3.13181 -1.09231 0)
(3.13321 -1.07731 0)
(3.13782 -1.06387 0)
(3.13591 -1.05865 0)
(3.12726 -1.06328 0)
(3.1235 -1.05113 0)
(3.12932 -1.04017 0)
(3.13675 -1.03451 0)
(3.13957 -1.019 0)
(3.14469 -1.00741 0)
(3.14732 -1.00657 0)
(3.15517 -0.99356 0)
(3.15118 -1.05752 0)
(3.14997 -1.06074 0)
(3.14918 -1.06006 0)
(3.1456 -1.06076 0)
(3.13591 -1.07595 0)
(3.13137 -1.0814 0)
(3.13563 -1.05515 0)
(3.1424 -1.03606 0)
(3.14441 -1.02322 0)
(3.14498 -1.02096 0)
(3.13961 -1.02923 0)
(3.13166 -1.04326 0)
(3.1316 -1.03803 0)
(3.13356 -1.02482 0)
(3.13858 -1.0128 0)
(3.13884 -1.01001 0)
(3.13312 -1.011 0)
(3.13047 -1.01325 0)
(3.13042 -1.0031 0)
(3.13047 -1.00009 0)
(3.13254 -0.992407 0)
(3.13693 -0.981041 0)
(3.13721 -0.971595 0)
(3.13657 -0.968934 0)
(3.13519 -0.961003 0)
(3.13757 -0.954647 0)
(3.14144 -0.955665 0)
(3.14647 -0.951383 0)
(3.14988 -0.951024 0)
(3.15621 -0.9438 0)
(3.14455 -0.909156 0)
(3.15232 -0.926161 0)
(3.1492 -0.932683 0)
(3.14825 -0.932989 0)
(3.14172 -0.939577 0)
(3.13452 -0.955635 0)
(3.13173 -0.948411 0)
(3.13885 -0.92683 0)
(3.14069 -0.914773 0)
(3.14236 -0.915051 0)
(3.13996 -0.922418 0)
(3.13774 -0.927693 0)
(3.13382 -0.921289 0)
(3.13538 -0.915564 0)
(3.13727 -0.9165 0)
(3.13683 -0.914796 0)
(3.1361 -0.91235 0)
(3.13693 -0.904148 0)
(3.13655 -0.902126 0)
(3.13469 -0.903139 0)
(3.13325 -0.906411 0)
(3.13342 -0.907713 0)
(3.13427 -0.905675 0)
(3.13496 -0.898716 0)
(3.13781 -0.893869 0)
(3.13896 -0.892611 0)
(3.14268 -0.888661 0)
(3.1493 -0.883001 0)
(3.15318 -0.878671 0)
(3.1605 -0.873882 0)
(3.12659 -0.758091 0)
(3.14288 -0.769924 0)
(3.14893 -0.785762 0)
(3.14323 -0.795541 0)
(3.14089 -0.800184 0)
(3.13282 -0.811623 0)
(3.12931 -0.815957 0)
(3.13448 -0.803341 0)
(3.13784 -0.788671 0)
(3.14008 -0.781444 0)
(3.13849 -0.796283 0)
(3.13549 -0.802392 0)
(3.13203 -0.799676 0)
(3.13402 -0.796054 0)
(3.13769 -0.795845 0)
(3.13794 -0.797068 0)
(3.13527 -0.80026 0)
(3.13264 -0.802756 0)
(3.13454 -0.801855 0)
(3.13855 -0.796881 0)
(3.13826 -0.792832 0)
(3.13369 -0.793934 0)
(3.13199 -0.79658 0)
(3.13332 -0.804213 0)
(3.13569 -0.807224 0)
(3.14119 -0.806801 0)
(3.14597 -0.806772 0)
(3.14969 -0.810454 0)
(3.15395 -0.810466 0)
(3.16013 -0.81057 0)
(3.11989 -0.614422 0)
(3.11763 -0.609084 0)
(3.13721 -0.623355 0)
(3.13409 -0.642505 0)
(3.1329 -0.656408 0)
(3.12655 -0.667715 0)
(3.12242 -0.675058 0)
(3.12431 -0.674153 0)
(3.12939 -0.665853 0)
(3.13516 -0.657516 0)
(3.13314 -0.66134 0)
(3.12918 -0.673512 0)
(3.1239 -0.678272 0)
(3.12419 -0.681255 0)
(3.12994 -0.685302 0)
(3.13119 -0.687867 0)
(3.13167 -0.689012 0)
(3.12934 -0.693101 0)
(3.12897 -0.701822 0)
(3.12973 -0.709606 0)
(3.12869 -0.715919 0)
(3.12969 -0.718796 0)
(3.13143 -0.722541 0)
(3.13319 -0.725933 0)
(3.13567 -0.729488 0)
(3.14087 -0.725937 0)
(3.14522 -0.727784 0)
(3.14921 -0.730678 0)
(3.15173 -0.733905 0)
(3.15706 -0.743518 0)
(3.10087 -0.470193 0)
(3.09698 -0.459874 0)
(3.11721 -0.472728 0)
(3.11916 -0.49557 0)
(3.12255 -0.508207 0)
(3.1145 -0.524927 0)
(3.10484 -0.536234 0)
(3.10391 -0.536678 0)
(3.11495 -0.524005 0)
(3.12249 -0.520726 0)
(3.12403 -0.530817 0)
(3.11766 -0.547304 0)
(3.11265 -0.54977 0)
(3.11422 -0.550935 0)
(3.11968 -0.563363 0)
(3.12025 -0.565524 0)
(3.12128 -0.56885 0)
(3.1223 -0.5793 0)
(3.12132 -0.585983 0)
(3.1212 -0.587802 0)
(3.12278 -0.593511 0)
(3.12398 -0.603573 0)
(3.1249 -0.607785 0)
(3.12655 -0.614786 0)
(3.12991 -0.622151 0)
(3.13433 -0.627743 0)
(3.13927 -0.639398 0)
(3.14293 -0.648759 0)
(3.14614 -0.660923 0)
(3.15302 -0.670785 0)
(3.07797 -0.325269 0)
(3.07862 -0.306511 0)
(3.09125 -0.315978 0)
(3.09776 -0.34883 0)
(3.09753 -0.356686 0)
(3.09016 -0.37304 0)
(3.07958 -0.397725 0)
(3.08166 -0.400924 0)
(3.09642 -0.384587 0)
(3.10342 -0.384034 0)
(3.10393 -0.393047 0)
(3.09862 -0.4125 0)
(3.09464 -0.415287 0)
(3.09883 -0.423149 0)
(3.10353 -0.437468 0)
(3.10401 -0.444759 0)
(3.10534 -0.449172 0)
(3.10739 -0.457385 0)
(3.10783 -0.473682 0)
(3.1079 -0.483879 0)
(3.11 -0.491951 0)
(3.11292 -0.505449 0)
(3.11414 -0.514034 0)
(3.11723 -0.52991 0)
(3.1218 -0.541747 0)
(3.12718 -0.547677 0)
(3.13243 -0.556788 0)
(3.13705 -0.569589 0)
(3.14116 -0.580872 0)
(3.14812 -0.595126 0)
(3.04392 -0.174717 0)
(3.04627 -0.157045 0)
(3.05895 -0.165396 0)
(3.06433 -0.199881 0)
(3.06343 -0.210448 0)
(3.05827 -0.228387 0)
(3.04937 -0.25633 0)
(3.05285 -0.259607 0)
(3.06914 -0.242219 0)
(3.07566 -0.243299 0)
(3.0765 -0.254874 0)
(3.07073 -0.278309 0)
(3.06748 -0.279543 0)
(3.07553 -0.293479 0)
(3.08039 -0.311936 0)
(3.08037 -0.314724 0)
(3.08372 -0.326579 0)
(3.08643 -0.338632 0)
(3.08737 -0.354329 0)
(3.08841 -0.365952 0)
(3.09202 -0.380761 0)
(3.09519 -0.391307 0)
(3.09851 -0.40902 0)
(3.10249 -0.418691 0)
(3.10783 -0.430578 0)
(3.11376 -0.444611 0)
(3.11967 -0.458613 0)
(3.12522 -0.476209 0)
(3.12921 -0.482735 0)
(3.1364 -0.50135 0)
(2.99919 -0.0248327 0)
(3.00387 -0.0109138 0)
(3.01742 -0.0228654 0)
(3.01909 -0.0555226 0)
(3.01796 -0.0663304 0)
(3.01577 -0.0877729 0)
(3.00931 -0.116736 0)
(3.01579 -0.11799 0)
(3.03172 -0.100067 0)
(3.03862 -0.103897 0)
(3.04012 -0.120174 0)
(3.03335 -0.144203 0)
(3.03085 -0.145342 0)
(3.04263 -0.163589 0)
(3.04814 -0.18275 0)
(3.04914 -0.189108 0)
(3.05303 -0.199805 0)
(3.05706 -0.218466 0)
(3.05838 -0.234642 0)
(3.0616 -0.249036 0)
(3.06718 -0.266399 0)
(3.07153 -0.281255 0)
(3.07618 -0.299431 0)
(3.08172 -0.314695 0)
(3.08917 -0.333038 0)
(3.09616 -0.347998 0)
(3.10269 -0.365451 0)
(3.10848 -0.380412 0)
(3.11468 -0.402885 0)
(3.12403 -0.431287 0)
(2.94276 0.119835 0)
(2.94972 0.129797 0)
(2.95973 0.120494 0)
(2.96068 0.0896309 0)
(2.96323 0.0751178 0)
(2.9666 0.0439318 0)
(2.96051 0.0181099 0)
(2.96686 0.0204256 0)
(2.97871 0.0391929 0)
(2.98954 0.0334878 0)
(2.99356 0.0129239 0)
(2.98698 -0.0129408 0)
(2.98577 -0.0163504 0)
(2.99883 -0.0363418 0)
(3.00491 -0.0548858 0)
(3.00736 -0.0617712 0)
(3.01422 -0.0779026 0)
(3.01871 -0.0958525 0)
(3.02181 -0.115261 0)
(3.02733 -0.132451 0)
(3.03443 -0.149443 0)
(3.0409 -0.168517 0)
(3.04699 -0.186934 0)
(3.05494 -0.20699 0)
(3.06349 -0.224563 0)
(3.0716 -0.241906 0)
(3.08006 -0.265135 0)
(3.088 -0.286683 0)
(3.09454 -0.302416 0)
(3.10541 -0.330885 0)
(2.87421 0.255717 0)
(2.87877 0.260198 0)
(2.8863 0.253865 0)
(2.89518 0.230251 0)
(2.90273 0.213014 0)
(2.90506 0.188772 0)
(2.89942 0.167556 0)
(2.90473 0.165015 0)
(2.91285 0.178299 0)
(2.92561 0.170885 0)
(2.93582 0.138725 0)
(2.93212 0.119699 0)
(2.93324 0.116189 0)
(2.94536 0.0949533 0)
(2.95288 0.0729926 0)
(2.95743 0.0634818 0)
(2.96753 0.0439439 0)
(2.97378 0.0255858 0)
(2.97881 0.0057225 0)
(2.98655 -0.0145889 0)
(2.99537 -0.0338451 0)
(3.00416 -0.0547812 0)
(3.01256 -0.0757148 0)
(3.02226 -0.0956804 0)
(3.03319 -0.118275 0)
(3.04327 -0.139652 0)
(3.05319 -0.163097 0)
(3.0626 -0.186233 0)
(3.07121 -0.208607 0)
(3.08549 -0.245464 0)
(2.82251 0.358696 0)
(2.82528 0.355614 0)
(2.8278 0.356662 0)
(2.83366 0.350265 0)
(2.84121 0.333399 0)
(2.84096 0.325887 0)
(2.84202 0.318351 0)
(2.84627 0.308405 0)
(2.84952 0.309116 0)
(2.85894 0.299053 0)
(2.87059 0.272461 0)
(2.87235 0.262381 0)
(2.87708 0.253724 0)
(2.88957 0.227965 0)
(2.89442 0.21327 0)
(2.90373 0.193546 0)
(2.91345 0.174977 0)
(2.92301 0.152624 0)
(2.93188 0.128646 0)
(2.94028 0.109074 0)
(2.95262 0.0816446 0)
(2.96163 0.0637728 0)
(2.97471 0.0348209 0)
(2.98617 0.013111 0)
(2.99895 -0.0113409 0)
(3.01138 -0.0361657 0)
(3.02316 -0.0620745 0)
(3.03461 -0.0878502 0)
(3.04504 -0.112709 0)
(3.06161 -0.152002 0)
(2.81247 0.380864 0)
(2.81255 0.379868 0)
(2.81321 0.379256 0)
(2.81474 0.378565 0)
(2.81561 0.378329 0)
(2.81595 0.378392 0)
(2.81661 0.377843 0)
(2.81767 0.376397 0)
(2.81892 0.374924 0)
(2.82183 0.371134 0)
(2.82499 0.365392 0)
(2.82658 0.361877 0)
(2.83068 0.355375 0)
(2.83644 0.346766 0)
(2.84387 0.334018 0)
(2.85005 0.322865 0)
(2.85974 0.303529 0)
(2.86768 0.286101 0)
(2.87851 0.262917 0)
(2.89021 0.238022 0)
(2.90193 0.213888 0)
(2.9166 0.183165 0)
(2.92997 0.15707 0)
(2.94522 0.127962 0)
(2.96126 0.0965778 0)
(2.97501 0.0711191 0)
(2.99049 0.0384421 0)
(3.00371 0.0107977 0)
(3.0159 -0.0160466 0)
(3.03566 -0.0605316 0)
(2.8271 0.348063 0)
(2.82696 0.354271 0)
(2.8279 0.358602 0)
(2.8272 0.36147 0)
(2.82662 0.374276 0)
(2.8265 0.380387 0)
(2.81986 0.37609 0)
(2.81854 0.367918 0)
(2.82235 0.365954 0)
(2.82412 0.366743 0)
(2.82478 0.371176 0)
(2.82309 0.373981 0)
(2.82335 0.37304 0)
(2.82415 0.370285 0)
(2.82472 0.369158 0)
(2.82625 0.367892 0)
(2.82885 0.365266 0)
(2.83195 0.361345 0)
(2.83657 0.354314 0)
(2.84309 0.344095 0)
(2.85297 0.328364 0)
(2.86434 0.310177 0)
(2.87983 0.283085 0)
(2.89545 0.255967 0)
(2.91402 0.222164 0)
(2.93196 0.188639 0)
(2.94996 0.153042 0)
(2.96678 0.118543 0)
(2.98225 0.0853348 0)
(3.00553 0.0353572 0)
(2.89781 0.221105 0)
(2.89593 0.219419 0)
(2.88939 0.23474 0)
(2.87965 0.252455 0)
(2.87693 0.270723 0)
(2.87814 0.284431 0)
(2.87274 0.302611 0)
(2.86449 0.300218 0)
(2.862 0.29098 0)
(2.85277 0.302296 0)
(2.84799 0.327002 0)
(2.84851 0.333551 0)
(2.84701 0.335363 0)
(2.83941 0.345121 0)
(2.83738 0.351399 0)
(2.83639 0.351253 0)
(2.83406 0.357146 0)
(2.83433 0.358872 0)
(2.83455 0.358515 0)
(2.83522 0.357662 0)
(2.8369 0.35632 0)
(2.84047 0.353776 0)
(2.84644 0.349592 0)
(2.85501 0.341353 0)
(2.8678 0.325545 0)
(2.88292 0.304615 0)
(2.9015 0.274548 0)
(2.9206 0.241418 0)
(2.93935 0.205465 0)
(2.96793 0.146814 0)
(2.97779 0.0512376 0)
(2.97738 0.0500268 0)
(2.9695 0.0627553 0)
(2.96486 0.0757096 0)
(2.96304 0.0811097 0)
(2.96049 0.0874373 0)
(2.95585 0.101395 0)
(2.95142 0.112554 0)
(2.94876 0.112238 0)
(2.93363 0.134694 0)
(2.9266 0.154422 0)
(2.91976 0.174699 0)
(2.9153 0.183858 0)
(2.90281 0.20979 0)
(2.89367 0.230987 0)
(2.88718 0.242838 0)
(2.87251 0.273865 0)
(2.86783 0.286384 0)
(2.86155 0.300367 0)
(2.85066 0.325076 0)
(2.84955 0.326271 0)
(2.84656 0.33519 0)
(2.84689 0.339759 0)
(2.8499 0.339431 0)
(2.85542 0.337177 0)
(2.86215 0.334046 0)
(2.87154 0.328527 0)
(2.88338 0.318608 0)
(2.89673 0.303212 0)
(2.92391 0.260899 0)
(2.99892 0.00245203 0)
(2.99872 0.00275866 0)
(2.99838 0.00319083 0)
(2.9979 0.00406913 0)
(2.99752 0.00487167 0)
(2.99696 0.00614822 0)
(2.99641 0.00746196 0)
(2.99561 0.00940223 0)
(2.99451 0.0113108 0)
(2.9928 0.0136282 0)
(2.98992 0.0194925 0)
(2.98773 0.0243561 0)
(2.98429 0.0314982 0)
(2.9798 0.0399207 0)
(2.97333 0.053459 0)
(2.96628 0.0678108 0)
(2.95712 0.0859311 0)
(2.9457 0.110849 0)
(2.93476 0.133891 0)
(2.91815 0.169132 0)
(2.90772 0.19285 0)
(2.88936 0.232578 0)
(2.87916 0.256889 0)
(2.87104 0.278489 0)
(2.86444 0.304274 0)
(2.865 0.308803 0)
(2.86985 0.316213 0)
(2.87597 0.315376 0)
(2.88336 0.312644 0)
(2.89922 0.302776 0)
(2.99999 2.71557e-05 0)
(2.99998 3.12251e-05 0)
(2.99998 3.8789e-05 0)
(2.99997 4.92778e-05 0)
(2.99996 6.45735e-05 0)
(2.99995 8.4273e-05 0)
(2.99994 0.00011285 0)
(2.99992 0.000153038 0)
(2.99989 0.000204957 0)
(2.99984 0.000282597 0)
(2.99975 0.0004351 0)
(2.99964 0.00065397 0)
(2.99948 0.000946081 0)
(2.99918 0.00146964 0)
(2.9987 0.00235434 0)
(2.99799 0.00367932 0)
(2.99677 0.00593627 0)
(2.99491 0.0093857 0)
(2.99185 0.0152538 0)
(2.98727 0.0238519 0)
(2.98029 0.0377745 0)
(2.97078 0.0562193 0)
(2.95756 0.0833312 0)
(2.94215 0.115556 0)
(2.92535 0.153894 0)
(2.91118 0.189534 0)
(2.89708 0.227888 0)
(2.89356 0.252531 0)
(2.88768 0.272729 0)
(2.89888 0.283255 0)
(3 1.59147e-07 0)
(3 1.8942e-07 0)
(3 2.30697e-07 0)
(3 2.98054e-07 0)
(3 3.82321e-07 0)
(3 5.16438e-07 0)
(3 6.89206e-07 0)
(3 9.70507e-07 0)
(3 1.35048e-06 0)
(3 1.96141e-06 0)
(3 3.09953e-06 0)
(3 4.9564e-06 0)
(3 7.80053e-06 0)
(2.99999 1.33137e-05 0)
(2.99999 2.35935e-05 0)
(2.99997 4.32071e-05 0)
(2.99995 8.01459e-05 0)
(2.99991 0.00015847 0)
(2.99982 0.000312267 0)
(2.99963 0.000651661 0)
(2.99924 0.00133456 0)
(2.99843 0.00281171 0)
(2.99682 0.00573012 0)
(2.99369 0.0115958 0)
(2.98829 0.0219623 0)
(2.9797 0.0396292 0)
(2.96801 0.0645746 0)
(2.95364 0.099567 0)
(2.93997 0.134399 0)
(2.92511 0.189518 0)
(3 7.27364e-10 0)
(3 8.68441e-10 0)
(3 1.08802e-09 0)
(3 1.38607e-09 0)
(3 1.81176e-09 0)
(3 2.41032e-09 0)
(3 3.27811e-09 0)
(3 4.55965e-09 0)
(3 6.51578e-09 0)
(3 9.50058e-09 0)
(3 1.50072e-08 0)
(3 2.39625e-08 0)
(3 3.90673e-08 0)
(3 6.74067e-08 0)
(3 1.2364e-07 0)
(3 2.32851e-07 0)
(3 4.64015e-07 0)
(3 9.6927e-07 0)
(3 2.14427e-06 0)
(3 4.96754e-06 0)
(2.99999 1.21621e-05 0)
(2.99998 3.10673e-05 0)
(2.99995 8.26001e-05 0)
(2.99987 0.000225791 0)
(2.99965 0.000613102 0)
(2.9991 0.00163613 0)
(2.99785 0.00404498 0)
(2.99511 0.0096986 0)
(2.99091 0.0187846 0)
(2.9787 0.0508287 0)
(3 2.55072e-12 0)
(3 3.07549e-12 0)
(3 3.88057e-12 0)
(3 4.99472e-12 0)
(3 6.55282e-12 0)
(3 8.8192e-12 0)
(3 1.20045e-11 0)
(3 1.68938e-11 0)
(3 2.42394e-11 0)
(3 3.57014e-11 0)
(3 5.60038e-11 0)
(3 8.94483e-11 0)
(3 1.46685e-10 0)
(3 2.54552e-10 0)
(3 4.67245e-10 0)
(3 8.89682e-10 0)
(3 1.79713e-09 0)
(3 3.83132e-09 0)
(3 8.71199e-09 0)
(3 2.08903e-08 0)
(3 5.39047e-08 0)
(3 1.46508e-07 0)
(3 4.31803e-07 0)
(3 1.32449e-06 0)
(3 4.35118e-06 0)
(2.99999 1.43614e-05 0)
(2.99996 4.85945e-05 0)
(2.99988 0.000161904 0)
(2.99968 0.000455821 0)
(2.9982 0.00273175 0)
(2.58139 -1.41804 0)
(2.64515 -1.41848 0)
(2.78739 -1.51258 0)
(2.94509 -1.60243 0)
(3.03026 -1.63987 0)
(3.04858 -1.64085 0)
(3.0435 -1.64218 0)
(3.04139 -1.64625 0)
(3.03238 -1.65383 0)
(3.02007 -1.66366 0)
(3.04948 -1.56408 0)
(3.06405 -1.55226 0)
(3.10402 -1.43127 0)
(3.12353 -1.3185 0)
(3.1399 -1.19275 0)
(3.14351 -1.03235 0)
(3.1359 -0.899254 0)
(3.13002 -0.774158 0)
(3.11933 -0.63877 0)
(3.09916 -0.493027 0)
(3.07136 -0.347008 0)
(3.03683 -0.194851 0)
(2.99238 -0.0421435 0)
(2.93631 0.107531 0)
(2.87025 0.252456 0)
(2.81898 0.36447 0)
(2.81257 0.383006 0)
(2.83252 0.345286 0)
(2.90378 0.221353 0)
(2.98057 0.047515 0)
(2.99914 0.00197825 0)
(2.99999 2.36515e-05 0)
(3 1.38488e-07 0)
(3 6.24263e-10 0)
(3 2.17663e-12 0)
(2.57411 -1.39148 0)
(2.64926 -1.43644 0)
(2.80396 -1.53477 0)
(2.96169 -1.61113 0)
(3.03626 -1.64501 0)
(3.05142 -1.64511 0)
(3.04964 -1.65597 0)
(3.04317 -1.6568 0)
(3.02629 -1.666 0)
(3.03007 -1.62663 0)
(3.06827 -1.55632 0)
(3.08532 -1.52686 0)
(3.12103 -1.36239 0)
(3.13258 -1.26478 0)
(3.14135 -1.14272 0)
(3.14291 -1.02941 0)
(3.13809 -0.908286 0)
(3.12893 -0.78135 0)
(3.11855 -0.640842 0)
(3.10079 -0.490698 0)
(3.07481 -0.336816 0)
(3.03806 -0.183273 0)
(2.98976 -0.0333458 0)
(2.93107 0.114684 0)
(2.86473 0.26771 0)
(2.81562 0.372366 0)
(2.81282 0.384699 0)
(2.83805 0.350676 0)
(2.91418 0.203221 0)
(2.98568 0.0339068 0)
(2.99951 0.00108813 0)
(3 1.01279e-05 0)
(3 5.92355e-08 0)
(3 2.91118e-10 0)
(3 1.06477e-12 0)
(2.55638 -1.39535 0)
(2.63863 -1.4425 0)
(2.80593 -1.54475 0)
(2.96931 -1.61484 0)
(3.04223 -1.65132 0)
(3.0606 -1.65415 0)
(3.05592 -1.66277 0)
(3.04508 -1.66539 0)
(3.02857 -1.6661 0)
(3.04214 -1.59371 0)
(3.06848 -1.57727 0)
(3.09443 -1.45238 0)
(3.11429 -1.36681 0)
(3.12722 -1.26544 0)
(3.13975 -1.16588 0)
(3.13736 -1.05384 0)
(3.13654 -0.918582 0)
(3.13583 -0.770094 0)
(3.12955 -0.615789 0)
(3.11387 -0.449206 0)
(3.08564 -0.285975 0)
(3.04518 -0.131943 0)
(2.9937 0.0119465 0)
(2.93016 0.15469 0)
(2.85747 0.300961 0)
(2.81289 0.379111 0)
(2.81435 0.384549 0)
(2.84211 0.350558 0)
(2.92359 0.172517 0)
(2.98913 0.0240158 0)
(2.99969 0.000651881 0)
(3 5.45753e-06 0)
(3 3.10107e-08 0)
(3 1.50144e-10 0)
(3 5.45687e-13 0)
(2.54955 -1.38829 0)
(2.63433 -1.44392 0)
(2.81132 -1.54176 0)
(2.9738 -1.61646 0)
(3.04789 -1.64955 0)
(3.06408 -1.65332 0)
(3.05808 -1.66461 0)
(3.04152 -1.66995 0)
(3.02868 -1.66385 0)
(3.04157 -1.58833 0)
(3.04067 -1.60191 0)
(3.08523 -1.42592 0)
(3.10095 -1.39144 0)
(3.12495 -1.26889 0)
(3.13887 -1.17458 0)
(3.15705 -1.02987 0)
(3.16244 -0.862648 0)
(3.14624 -0.685715 0)
(3.12453 -0.519703 0)
(3.09374 -0.354916 0)
(3.05656 -0.197213 0)
(3.01286 -0.0486049 0)
(2.96157 0.0928337 0)
(2.89729 0.228096 0)
(2.83709 0.340275 0)
(2.80903 0.385279 0)
(2.81365 0.379236 0)
(2.84757 0.313543 0)
(2.94074 0.129676 0)
(2.99318 0.0148522 0)
(2.99984 0.000335325 0)
(3 2.73272e-06 0)
(3 1.55393e-08 0)
(3 7.52146e-11 0)
(3 2.7628e-13 0)
(2.54414 -1.38509 0)
(2.63136 -1.44388 0)
(2.81531 -1.5393 0)
(2.98527 -1.61775 0)
(3.06285 -1.64118 0)
(3.07161 -1.65396 0)
(3.06127 -1.67253 0)
(3.04109 -1.67571 0)
(3.02629 -1.66483 0)
(3.03604 -1.57515 0)
(3.01968 -1.60535 0)
(3.08007 -1.43364 0)
(3.10203 -1.38925 0)
(3.14006 -1.23722 0)
(3.16202 -1.13552 0)
(3.16287 -0.946711 0)
(3.13757 -0.770328 0)
(3.11614 -0.622123 0)
(3.09514 -0.46958 0)
(3.07451 -0.329825 0)
(3.04238 -0.181975 0)
(2.99753 -0.0316555 0)
(2.94149 0.115045 0)
(2.87781 0.249136 0)
(2.82491 0.353561 0)
(2.80683 0.388453 0)
(2.81391 0.375641 0)
(2.87355 0.276777 0)
(2.95461 0.105833 0)
(2.99582 0.00979446 0)
(2.99992 0.000184012 0)
(3 1.3868e-06 0)
(3 7.7438e-09 0)
(3 3.72015e-11 0)
(3 1.38531e-13 0)
(2.54257 -1.38187 0)
(2.62859 -1.4444 0)
(2.81881 -1.53616 0)
(2.98528 -1.61366 0)
(3.06848 -1.6311 0)
(3.07705 -1.65782 0)
(3.06172 -1.67919 0)
(3.03629 -1.67769 0)
(3.02278 -1.65902 0)
(3.03863 -1.56398 0)
(3.02402 -1.59558 0)
(3.08146 -1.42831 0)
(3.11801 -1.35459 0)
(3.14202 -1.21097 0)
(3.14051 -1.05533 0)
(3.13438 -0.890195 0)
(3.13132 -0.771746 0)
(3.11881 -0.651515 0)
(3.10095 -0.503612 0)
(3.07417 -0.360695 0)
(3.03992 -0.209865 0)
(2.9952 -0.0564819 0)
(2.94012 0.0939729 0)
(2.87594 0.237404 0)
(2.82085 0.35694 0)
(2.80657 0.391199 0)
(2.81588 0.37163 0)
(2.87722 0.27535 0)
(2.96228 0.0942102 0)
(2.99727 0.00662437 0)
(2.99995 0.000102602 0)
(3 7.14093e-07 0)
(3 3.87547e-09 0)
(3 1.83362e-11 0)
(3 6.83871e-14 0)
(2.54193 -1.38125 0)
(2.62667 -1.44565 0)
(2.81339 -1.5319 0)
(2.97737 -1.6093 0)
(3.06729 -1.62613 0)
(3.07964 -1.66105 0)
(3.06525 -1.68207 0)
(3.04115 -1.68062 0)
(3.02544 -1.64477 0)
(3.04511 -1.57409 0)
(3.0385 -1.57465 0)
(3.08399 -1.41911 0)
(3.11649 -1.32168 0)
(3.13088 -1.15624 0)
(3.13319 -1.04344 0)
(3.13501 -0.923579 0)
(3.12714 -0.802026 0)
(3.11551 -0.663565 0)
(3.09984 -0.512962 0)
(3.07729 -0.352253 0)
(3.04316 -0.194957 0)
(2.99596 -0.0419538 0)
(2.93834 0.106135 0)
(2.87244 0.256685 0)
(2.81633 0.370589 0)
(2.8064 0.393701 0)
(2.82119 0.376802 0)
(2.8839 0.277064 0)
(2.97011 0.0719377 0)
(2.99822 0.00410826 0)
(2.99997 5.41121e-05 0)
(3 3.6002e-07 0)
(3 1.91869e-09 0)
(3 8.96041e-12 0)
(3 3.30783e-14 0)
(2.54079 -1.38053 0)
(2.62232 -1.44644 0)
(2.80905 -1.52972 0)
(2.97147 -1.60666 0)
(3.06552 -1.6232 0)
(3.08268 -1.66096 0)
(3.07111 -1.68166 0)
(3.04947 -1.68073 0)
(3.02785 -1.6392 0)
(3.03822 -1.61318 0)
(3.0461 -1.54134 0)
(3.08747 -1.38826 0)
(3.1059 -1.26108 0)
(3.1269 -1.16297 0)
(3.13414 -1.07321 0)
(3.13436 -0.935341 0)
(3.1359 -0.791692 0)
(3.135 -0.616739 0)
(3.1198 -0.452732 0)
(3.08842 -0.272573 0)
(3.04636 -0.111785 0)
(2.99308 0.0380171 0)
(2.92838 0.180448 0)
(2.85522 0.312988 0)
(2.80976 0.384402 0)
(2.80707 0.394068 0)
(2.82538 0.378328 0)
(2.89566 0.231933 0)
(2.97842 0.0490283 0)
(2.99897 0.00228511 0)
(2.99999 2.69877e-05 0)
(3 1.75556e-07 0)
(3 9.29221e-10 0)
(3 4.30808e-12 0)
(3 1.62868e-14 0)
(2.53947 -1.37867 0)
(2.61646 -1.44236 0)
(2.79661 -1.51438 0)
(2.95695 -1.59468 0)
(3.06512 -1.62003 0)
(3.08575 -1.65706 0)
(3.07647 -1.67837 0)
(3.06391 -1.67909 0)
(3.04337 -1.62787 0)
(3.02143 -1.64805 0)
(3.06623 -1.47412 0)
(3.09069 -1.38143 0)
(3.1151 -1.27659 0)
(3.12868 -1.18325 0)
(3.1458 -1.06929 0)
(3.15993 -0.894893 0)
(3.15525 -0.705512 0)
(3.12015 -0.516442 0)
(3.08902 -0.349254 0)
(3.04633 -0.185945 0)
(2.99919 -0.0321421 0)
(2.94666 0.110905 0)
(2.88732 0.240702 0)
(2.83453 0.342691 0)
(2.80492 0.390516 0)
(2.8067 0.39021 0)
(2.82837 0.348937 0)
(2.91959 0.18091 0)
(2.98462 0.0355276 0)
(2.99942 0.00129091 0)
(2.99999 1.33616e-05 0)
(3 8.43664e-08 0)
(3 4.42215e-10 0)
(3 2.03728e-12 0)
(3 8.43557e-15 0)
(2.53825 -1.37522 0)
(2.61097 -1.42962 0)
(2.78235 -1.48635 0)
(2.94765 -1.58706 0)
(3.06272 -1.6165 0)
(3.08387 -1.65352 0)
(3.07724 -1.67721 0)
(3.06899 -1.67817 0)
(3.05905 -1.61551 0)
(3.02926 -1.64028 0)
(3.08308 -1.44421 0)
(3.09307 -1.40109 0)
(3.11964 -1.29771 0)
(3.14948 -1.17395 0)
(3.17882 -0.996477 0)
(3.15423 -0.797619 0)
(3.11726 -0.613508 0)
(3.09831 -0.481243 0)
(3.07074 -0.326783 0)
(3.04021 -0.188993 0)
(2.99558 -0.0371276 0)