/*--------------------------------*- C++ -*----------------------------------*\
  =========                 |
  \\      /  F ield         | OpenFOAM: The Open Source CFD Toolbox
   \\    /   O peration     | Website:  https://openfoam.org
    \\  /    A nd           | Version:  7
     \\/     M anipulation  |
\*---------------------------------------------------------------------------*/
FoamFile
{
    version     2.0;
    format      ascii;
    class       volScalarField;
    location    "3.5";
    object      rho;
}
// * * * * * * * * * * * * * * * * * * * * * * * * * * * * * * * * * * * * * //

dimensions      [1 -3 0 0 0 0 0];

internalField   nonuniform List<scalar> 
1750
(
0.404508
0.542461
0.672472
0.753403
0.813894
0.844498
0.856832
0.837649
0.820149
0.836063
0.265045
0.315335
0.409465
0.56409
0.636845
0.698094
0.795204
0.819134
0.837606
0.867108
0.278535
0.288429
0.289755
0.304021
0.32576
0.381538
0.493246
0.665049
0.767738
0.84351
0.341435
0.325531
0.302055
0.304324
0.320653
0.322763
0.324335
0.354894
0.431265
0.659962
0.426769
0.407073
0.381709
0.385073
0.404654
0.434939
0.448757
0.45089
0.458745
0.460027
0.585408
0.584991
0.562623
0.559256
0.560005
0.557453
0.546794
0.531936
0.513794
0.491665
0.777207
0.772268
0.736156
0.692446
0.675291
0.663893
0.646909
0.627297
0.615211
0.593675
1.02392
0.990476
0.949259
0.896685
0.864391
0.838781
0.81079
0.77646
0.753796
0.712202
1.35543
1.27192
1.20273
1.12979
1.08071
1.03515
0.986281
0.936784
0.889947
0.826081
1.81539
1.68687
1.5758
1.4628
1.37284
1.29518
1.21553
1.14703
1.08601
0.994109
2.21082
2.12988
2.03305
1.92128
1.809
1.70281
1.5908
1.47274
1.38159
1.24934
2.21382
2.19391
2.16619
2.12312
2.07842
2.03289
1.96451
1.87405
1.7847
1.62868
1.90488
1.9788
2.02551
2.04979
2.05606
2.04385
2.01829
1.98011
1.9397
1.84962
1.48049
1.52644
1.58799
1.65641
1.72527
1.79317
1.84001
1.87118
1.87071
1.84222
1.40214
1.40466
1.40978
1.42008
1.43607
1.46327
1.50101
1.54814
1.59541
1.65896
0.286467
0.254072
0.260124
0.32556
0.420643
0.570029
0.787875
1.08812
1.45778
1.93453
2.26929
2.2262
1.82234
1.44962
1.40113
0.303293
0.253478
0.24571
0.329233
0.442613
0.635117
0.929639
1.24777
1.61284
2.11088
2.33219
2.20524
1.70568
1.42268
1.40038
0.290799
0.230225
0.218404
0.326977
0.477365
0.743518
1.05734
1.35578
1.76669
2.2658
2.35887
2.14279
1.59433
1.40959
1.40014
0.272075
0.218113
0.212476
0.38587
0.595721
0.851796
1.13751
1.47561
1.98555
2.38341
2.36789
1.99974
1.50256
1.40333
1.40005
0.259267
0.214547
0.255595
0.469634
0.666306
0.910169
1.22893
1.68766
2.21491
2.4579
2.35405
1.8306
1.44746
1.40109
1.40002
0.251878
0.224343
0.318058
0.501428
0.695126
0.994569
1.4378
1.95765
2.40128
2.49301
2.25546
1.67099
1.41728
1.40031
1.40001
0.237756
0.256002
0.341468
0.505428
0.769412
1.24099
1.70829
2.18383
2.51219
2.50051
2.10449
1.52856
1.40496
1.40008
1.40001
0.207988
0.268439
0.346661
0.54478
1.06111
1.51172
1.93323
2.39682
2.57061
2.42996
1.85081
1.44985
1.40132
1.40002
1.40001
0.150807
0.254809
0.387155
0.819262
1.32249
1.72323
2.19939
2.58143
2.59347
2.28161
1.65141
1.41699
1.40032
1.40001
1.40001
0.0895879
0.254239
0.586299
1.10729
1.53929
2.00507
2.50931
2.66395
2.59385
2.02275
1.49067
1.4032
1.40006
1.40001
1.40001
0.0683475
0.374457
0.876195
1.37012
1.85648
2.35624
2.70199
2.68719
2.35182
1.68077
1.42181
1.40052
1.40001
1.40001
1.40001
0.0735672
0.591046
1.18989
1.74318
2.28766
2.62963
2.76192
2.64563
2.02824
1.50839
1.40494
1.40009
1.40001
1.40001
1.40001
0.258985
0.96555
1.65717
2.23412
2.62493
2.77904
2.77032
2.36377
1.6979
1.42441
1.40063
1.40001
1.40001
1.40001
1.40001
0.732899
1.56498
2.22179
2.59479
2.81418
2.81793
2.62291
1.95775
1.47408
1.40293
1.40006
1.40001
1.40001
1.40001
1.40001
1.64603
2.31881
2.65089
2.78761
2.857
2.81743
2.24056
1.54905
1.40629
1.40012
1.40001
1.40001
1.40001
1.40001
1.40001
2.89036
2.84873
2.80751
2.83462
2.86155
2.52221
1.64709
1.3907
1.39892
1.39998
1.4
1.40001
1.40001
1.40001
1.40001
2.88953
2.85241
2.80577
2.83076
2.83752
2.33042
1.58486
1.40636
1.40006
1.40001
1.40001
1.40001
1.40001
1.40001
1.40001
2.82824
2.86691
2.89403
2.86915
2.81121
1.96447
1.42798
1.40012
1.40001
1.40001
1.40001
1.40001
1.40001
1.40001
1.40001
2.79047
2.87791
2.9728
2.86872
2.49278
1.62751
1.40479
1.40002
1.40001
1.40001
1.40001
1.40001
1.40001
1.40001
1.40001
2.77888
2.90029
3.0184
2.83362
2.16192
1.47364
1.40052
1.40001
1.40001
1.40001
1.40001
1.40001
1.40001
1.40001
1.40001
2.81135
2.94312
3.04313
2.7258
1.75768
1.40975
1.40004
1.40001
1.40001
1.40001
1.40001
1.40001
1.40001
1.40001
1.40001
2.90555
2.96652
3.04305
2.29163
1.49284
1.4008
1.40001
1.40001
1.40001
1.40001
1.40001
1.40001
1.40001
1.40001
1.40001
3.14368
3.00353
2.78614
1.81236
1.41479
1.40005
1.40001
1.40001
1.40001
1.40001
1.40001
1.40001
1.40001
1.40001
1.40001
3.38329
2.91142
2.34333
1.5116
1.40098
1.40001
1.40001
1.40001
1.40001
1.40001
1.40001
1.40001
1.40001
1.40001
1.40001
3.49404
2.71847
1.83177
1.4149
1.40006
1.40001
1.40001
1.40001
1.40001
1.40001
1.40001
1.40001
1.40001
1.40001
1.40001
3.4475
2.35046
1.54837
1.40191
1.40001
1.40001
1.40001
1.40001
1.40001
1.40001
1.40001
1.40001
1.40001
1.40001
1.40001
3.14624
1.96296
1.43589
1.4002
1.40001
1.40001
1.40001
1.40001
1.40001
1.40001
1.40001
1.40001
1.40001
1.40001
1.40001
2.75377
1.66422
1.40689
1.40003
1.40001
1.40001
1.40001
1.40001
1.40001
1.40001
1.40001
1.40001
1.40001
1.40001
1.40001
2.26224
1.49199
1.40095
1.40001
1.40001
1.40001
1.40001
1.40001
1.40001
1.40001
1.40001
1.40001
1.40001
1.40001
1.40001
1.76588
1.41546
1.40006
1.40001
1.40001
1.40001
1.40001
1.40001
1.40001
1.40001
1.40001
1.40001
1.40001
1.40001
1.40001
1.40001
1.40001
1.40001
1.40001
1.40001
1.40001
1.40001
1.40001
1.40001
1.40001
1.40001
1.40001
1.40001
1.40001
1.40001
1.40001
1.40001
1.40001
1.40001
1.40001
1.40001
1.40001
1.40001
1.40001
1.40001
1.40001
1.40001
1.40001
1.40001
1.40001
1.40001
1.40001
1.40001
1.40001
1.40001
1.40001
1.40001
1.40001
1.40001
1.40001
1.40001
1.40001
1.40001
1.40001
1.40001
1.40001
1.40001
1.40001
1.40001
1.40001
1.40001
1.40001
1.40001
1.40001
1.40001
1.40001
1.40001
1.40001
1.40001
1.40001
1.40001
1.40001
1.40001
1.40001
1.40001
1.40001
1.40001
1.40001
1.40001
1.40001
1.40001
1.40001
1.40001
1.40001
1.40001
1.40001
1.40001
1.40001
1.40001
1.40001
1.40001
1.40001
1.40001
1.40001
1.40001
1.40001
1.40001
1.40001
1.40001
1.40001
1.40001
1.40001
1.40001
1.40001
1.40001
1.40001
1.40001
1.40001
1.40001
1.40001
1.40001
1.40001
1.40001
1.40001
1.40001
1.40001
1.40001
1.40001
1.40001
1.40001
1.40001
1.40001
1.40001
1.40001
1.40001
1.40001
1.40001
1.40001
1.40001
1.40001
1.40001
1.40001
1.40001
1.40001
1.40001
1.40001
1.40001
1.40001
1.40001
1.40001
1.40001
1.40001
1.40001
1.40001
1.40001
1.40001
1.40001
1.40001
1.40001
1.40001
1.40001
1.40001
1.40001
1.40001
1.40001
1.40001
1.40001
1.40001
1.40001
1.40001
1.40001
1.40001
1.40001
1.40001
1.40001
1.40001
1.40001
1.40001
1.40001
1.40001
1.40001
1.40001
1.40001
1.40001
1.40001
1.40001
1.40001
1.40001
1.40001
1.40001
1.40001
1.40001
1.40001
1.40001
1.40001
1.40001
1.40001
1.40001
1.40001
1.40001
1.40001
1.40001
1.40001
1.40001
1.40001
1.40001
1.40001
1.40001
1.40001
1.40001
1.40001
1.40001
1.40001
1.40001
1.40001
1.40001
1.40001
1.40001
1.40001
1.40001
1.40001
1.40001
1.40001
1.40001
1.40001
1.40001
1.40001
1.40001
1.40001
1.40001
1.40001
1.40001
1.40001
1.40001
1.40001
1.40001
1.40001
1.40001
1.40001
1.40001
1.40001
1.40001
1.40001
1.40001
1.40001
1.40001
1.40001
1.40001
1.40001
1.40001
1.40001
1.40001
1.40001
1.40001
1.40001
1.40001
1.40001
1.40001
1.40001
1.40001
1.40001
1.40001
1.40001
1.40001
1.40001
1.40001
1.40001
1.40001
1.40001
1.40001
1.40001
1.40001
1.40001
1.40001
1.40001
1.40001
1.40001
1.40001
1.40001
1.40001
1.40001
1.40001
1.40001
1.40001
1.40001
1.40001
1.40001
1.40001
1.40001
1.40001
1.40001
1.40001
1.40001
1.40001
1.40001
1.40001
1.40001
1.40001
1.40001
1.40001
1.40001
1.40001
1.40001
1.40001
1.40001
1.40001
1.40001
1.40001
1.40001
1.40001
1.40001
1.40001
1.40001
1.40001
1.40001
1.40001
1.40001
1.40001
1.40001
1.40001
1.40001
1.40001
1.40001
1.40001
1.40001
1.40001
1.40001
1.40001
1.40001
1.40001
1.40001
1.40001
1.40001
1.40001
1.40001
1.40001
1.40001
1.40001
1.40001
1.40001
1.40001
1.40001
1.40001
1.40001
1.40001
1.40001
1.40001
1.40001
1.40001
1.40001
1.40001
1.40001
1.40001
1.40001
1.40001
1.40001
1.40001
1.40001
1.40001
1.40001
1.40001
1.40001
1.40001
1.40001
1.40001
1.40001
1.40001
1.40001
1.40001
1.40001
2.09538
1.41261
1.40001
1.40001
1.40001
1.40001
1.40001
1.40001
1.40001
1.40001
1.40001
1.40001
1.40001
1.40001
1.40001
1.40001
1.40001
1.40001
1.40001
1.40001
3.0153
1.59489
1.39943
1.40001
1.40001
1.40001
1.40001
1.40001
1.40001
1.40001
1.40001
1.40001
1.40001
1.40001
1.40001
1.40001
1.40001
1.40001
1.40001
1.40001
4.03244
2.12091
1.41278
1.39997
1.40001
1.40001
1.40001
1.40001
1.40001
1.40001
1.40001
1.40001
1.40001
1.40001
1.40001
1.40001
1.40001
1.40001
1.40001
1.40001
4.4773
3.10698
1.7626
1.40049
1.40001
1.40001
1.40001
1.40001
1.40001
1.40001
1.40001
1.40001
1.40001
1.40001
1.40001
1.40001
1.40001
1.40001
1.40001
1.40001
4.29035
3.68031
2.88349
1.59651
1.39974
1.4
1.40001
1.40001
1.40001
1.40001
1.40001
1.40001
1.40001
1.40001
1.40001
1.40001
1.40001
1.40001
1.40001
1.40001
3.83375
3.69204
3.56128
2.47293
1.48657
1.39983
1.4
1.40001
1.40001
1.40001
1.40001
1.40001
1.40001
1.40001
1.40001
1.40001
1.40001
1.40001
1.40001
1.40001
3.50712
3.60008
3.72105
3.41321
2.09934
1.4175
1.39996
1.4
1.40001
1.40001
1.40001
1.40001
1.40001
1.40001
1.40001
1.40001
1.40001
1.40001
1.40001
1.40001
3.44385
3.52216
3.6486
3.52498
2.93299
1.73939
1.40192
1.40001
1.40001
1.40001
1.40001
1.40001
1.40001
1.40001
1.40001
1.40001
1.40001
1.40001
1.40001
1.40001
3.45846
3.47526
3.48073
3.49809
3.44303
2.45498
1.48224
1.39994
1.4
1.40001
1.40001
1.40001
1.40001
1.40001
1.40001
1.40001
1.40001
1.40001
1.40001
1.40001
3.49231
3.47773
3.4427
3.47237
3.52138
3.22191
1.93924
1.40949
1.39998
1.4
1.40001
1.40001
1.40001
1.40001
1.40001
1.40001
1.40001
1.40001
1.40001
1.40001
3.51075
3.49364
3.46689
3.46155
3.49015
3.34848
2.67984
1.58497
1.40049
1.4
1.40001
1.40001
1.40001
1.40001
1.40001
1.40001
1.40001
1.40001
1.40001
1.40001
3.52421
3.51047
3.49045
3.46152
3.42832
3.40855
3.25969
2.10542
1.42302
1.39999
1.40001
1.40001
1.40001
1.40001
1.40001
1.40001
1.40001
1.40001
1.40001
1.40001
3.53974
3.52936
3.50602
3.46495
3.42326
3.42013
3.43775
2.78714
1.63753
1.40108
1.4
1.4
1.40001
1.40001
1.40001
1.40001
1.40001
1.40001
1.40001
1.40001
3.55308
3.54459
3.52346
3.4783
3.42708
3.41376
3.44374
3.21776
2.16363
1.45618
1.4006
1.40001
1.40001
1.40001
1.40001
1.40001
1.40001
1.40001
1.40001
1.40001
3.55303
3.5426
3.52211
3.48588
3.45177
3.44089
3.47855
3.47274
2.81578
1.50995
1.38957
1.39909
1.39999
1.4
1.40001
1.40001
1.40001
1.40001
1.40001
1.40001
1.72492
2.59069
3.06972
3.28535
3.37452
3.41083
3.45454
3.49228
3.36967
2.56291
1.65595
1.41605
1.40039
1.40001
1.40001
1.40001
1.40001
1.40001
1.40001
1.40001
0.463398
1.48748
2.25152
2.74595
3.04978
3.22823
3.35155
3.45003
3.46191
3.27598
2.48112
1.62746
1.41438
1.40035
1.40001
1.40001
1.40001
1.40001
1.40001
1.40001
0.199984
0.836883
1.42205
2.00686
2.50489
2.84645
3.0945
3.27649
3.42294
3.41032
3.12867
2.26698
1.54649
1.40712
1.40014
1.40001
1.40001
1.40001
1.40001
1.40001
0.218509
0.60361
1.00425
1.40854
1.87825
2.33912
2.67236
2.95425
3.23378
3.36721
3.29783
2.94405
2.01902
1.46999
1.40218
1.40004
1.40001
1.40001
1.40001
1.40001
0.242475
0.443904
0.714283
1.09261
1.46977
1.88168
2.23457
2.57594
2.9203
3.17941
3.2561
3.2002
2.64496
1.75279
1.4249
1.40053
1.40001
1.40001
1.40001
1.40001
0.331842
0.367386
0.440549
0.7776
1.16335
1.53389
1.8774
2.21866
2.5997
2.89981
3.12051
3.17507
3.04719
2.26947
1.54156
1.40504
1.40007
1.40001
1.40001
1.40001
0.436637
0.384129
0.39303
0.597529
0.882415
1.21894
1.54115
1.87309
2.25651
2.56931
2.88392
3.09607
3.08374
2.74107
1.85095
1.438
1.40081
1.40001
1.40001
1.40001
0.487248
0.421605
0.427554
0.572825
0.740984
0.998661
1.27492
1.59767
1.91709
2.22112
2.56767
2.9001
3.04541
2.96397
2.31036
1.56004
1.4056
1.40008
1.40001
1.40001
0.483022
0.428693
0.437471
0.541967
0.65418
0.875019
1.12401
1.40263
1.69666
1.98231
2.27136
2.614
2.93215
2.94143
2.68364
1.83942
1.43434
1.40059
1.40001
1.40001
0.45753
0.416803
0.435879
0.482797
0.539323
0.743583
0.976302
1.235
1.52221
1.79926
2.0814
2.37989
2.72888
2.8922
2.81916
2.18011
1.5176
1.40333
1.40004
1.40001
0.426891
0.416723
0.447212
0.449371
0.459366
0.592813
0.812037
1.03059
1.31987
1.57202
1.87233
2.16393
2.52119
2.80937
2.79549
2.46954
1.68584
1.41499
1.40019
1.40001
0.403932
0.426973
0.462863
0.451964
0.464373
0.586163
0.731664
0.920296
1.12903
1.36561
1.64051
1.91596
2.27643
2.66161
2.76498
2.62797
1.93564
1.44871
1.40086
1.40001
0.389939
0.42644
0.471044
0.461043
0.474831
0.583984
0.698754
0.867996
1.05681
1.27146
1.49968
1.77007
2.05232
2.45886
2.71322
2.67588
2.18176
1.53444
1.40387
1.40004
0.385467
0.423061
0.467273
0.458928
0.46615
0.557187
0.64562
0.814503
0.997603
1.19916
1.41343
1.67174
1.92858
2.27105
2.63323
2.65826
2.35881
1.6615
1.41268
1.40015
0.382896
0.409347
0.447122
0.450503
0.453126
0.502042
0.562031
0.69928
0.87274
1.06773
1.29146
1.52732
1.79266
2.09353
2.49273
2.62617
2.50678
1.8493
1.43744
1.40063
0.462693
0.414522
0.443887
0.445794
0.456399
0.483567
0.525037
0.654901
0.79208
0.962122
1.17883
1.39697
1.64731
1.94493
2.34874
2.57676
2.52107
2.01967
1.48373
1.40176
0.564156
0.459878
0.450378
0.443112
0.460747
0.479837
0.524754
0.660859
0.783708
0.929133
1.12483
1.34279
1.55866
1.8239
2.19883
2.50529
2.50183
2.15761
1.55471
1.40498
0.668819
0.550788
0.461978
0.442279
0.462043
0.473334
0.525257
0.662296
0.765569
0.908499
1.09114
1.29224
1.49741
1.73284
2.0655
2.42745
2.48392
2.27482
1.65789
1.41281
0.735667
0.635878
0.479032
0.447381
0.457057
0.456787
0.51474
0.647914
0.72368
0.86563
1.04538
1.22947
1.42709
1.64376
1.94048
2.3314
2.46089
2.34337
1.78416
1.43196
0.842578
0.764637
0.530619
0.445216
0.449304
0.448821
0.514074
0.622153
0.684068
0.811098
0.979708
1.15651
1.34806
1.54993
1.82016
2.20562
2.41349
2.36742
1.92887
1.47092
0.911719
0.875389
0.67036
0.451397
0.443411
0.446568
0.526211
0.604086
0.668393
0.799273
0.933612
1.08826
1.26761
1.45324
1.68362
2.04102
2.3296
2.34166
2.04368
1.54265
0.899172
0.939709
0.835371
0.487342
0.430611
0.449207
0.525046
0.583029
0.654807
0.787404
0.898472
1.03737
1.19824
1.36761
1.57078
1.88
2.22211
2.28596
2.1109
1.63753
0.877808
0.955647
0.91456
0.611117
0.431248
0.453975
0.514694
0.556063
0.620878
0.7549
0.851918
0.97921
1.13311
1.28609
1.47213
1.74395
2.10635
2.22536
2.14346
1.75699
0.839999
0.90994
0.912993
0.775352
0.463649
0.442723
0.494986
0.525775
0.615044
0.716647
0.808534
0.929226
1.06922
1.21589
1.38412
1.62978
1.98994
2.17047
2.13287
1.86538
0.839242
0.889258
0.93044
0.903971
0.652932
0.448479
0.466044
0.514836
0.59925
0.66557
0.749904
0.861605
0.975157
1.11187
1.25969
1.46727
1.7933
2.05005
2.06642
1.9871
)
;

boundaryField
{
    inlet
    {
        type            calculated;
        value           uniform 1.40001;
    }
    outlet
    {
        type            calculated;
        value           nonuniform List<scalar> 
35
(
0.839199
0.889491
0.930842
0.904336
0.653333
0.448758
0.466268
0.515091
0.59953
0.665907
0.750167
0.861736
0.975306
1.11193
1.25972
1.46715
1.79313
2.05114
2.06783
1.99063
0.8359
0.867077
0.843816
0.660379
0.460218
0.491636
0.593861
0.712279
0.826138
0.99428
1.24928
1.62866
1.85036
1.8432
1.66026
)
;
    }
    airfoil
    {
        type            calculated;
        value           nonuniform List<scalar> 
60
(
0.286467
0.303293
0.290799
0.272075
0.259267
0.251878
0.237756
0.207988
0.150807
0.0895879
0.0683475
0.0735672
0.258985
0.732899
1.64603
2.89036
2.88953
2.82824
2.79047
2.77888
2.81135
2.90555
3.14368
3.38329
3.49404
3.4475
3.14624
2.75377
2.26224
1.76588
2.09538
3.0153
4.03244
4.4773
4.29035
3.83375
3.50712
3.44385
3.45846
3.49231
3.51075
3.52421
3.53974
3.55308
3.55303
1.72492
0.463398
0.199984
0.218509
0.242475
0.331842
0.436637
0.487248
0.483022
0.45753
0.426891
0.403932
0.389939
0.385467
0.382896
)
;
    }
    top
    {
        type            symmetryPlane;
    }
    bottom
    {
        type            symmetryPlane;
    }
    defaultFaces
    {
        type            empty;
    }
}


// ************************************************************************* //
