/*--------------------------------*- C++ -*----------------------------------*\
  =========                 |
  \\      /  F ield         | OpenFOAM: The Open Source CFD Toolbox
   \\    /   O peration     | Website:  https://openfoam.org
    \\  /    A nd           | Version:  7
     \\/     M anipulation  |
\*---------------------------------------------------------------------------*/
FoamFile
{
    version     2.0;
    format      ascii;
    class       volScalarField;
    location    "3.5";
    object      T;
}
// * * * * * * * * * * * * * * * * * * * * * * * * * * * * * * * * * * * * * //

dimensions      [0 0 0 1 0 0 0];

internalField   nonuniform List<scalar> 
1750
(
1.11795
1.3081
1.34096
1.34441
1.36745
1.35853
1.34954
1.32517
1.29357
1.28501
0.673807
0.792837
0.918048
1.06664
1.11437
1.16792
1.2426
1.26459
1.27442
1.28171
0.583163
0.584938
0.57883
0.595056
0.633854
0.73616
0.878759
1.03019
1.10536
1.15804
0.59628
0.581183
0.566216
0.568507
0.579078
0.582212
0.584138
0.63945
0.728957
0.914637
0.649626
0.6374
0.621327
0.624375
0.639904
0.658654
0.666413
0.664753
0.665286
0.675557
0.745512
0.743761
0.729647
0.728319
0.730023
0.729129
0.722769
0.714345
0.706206
0.695125
0.837705
0.833795
0.813677
0.79324
0.788573
0.785535
0.777569
0.766945
0.761911
0.753918
0.94085
0.928583
0.908768
0.885466
0.875619
0.868807
0.858305
0.84225
0.831926
0.815563
1.06147
1.03779
1.01288
0.984612
0.967545
0.95298
0.935745
0.916035
0.896144
0.870144
1.20248
1.1701
1.13842
1.103
1.07413
1.04884
1.0215
0.99638
0.972701
0.938163
1.28411
1.26778
1.24776
1.22219
1.19405
1.16488
1.13248
1.09708
1.06699
1.02329
1.27238
1.26743
1.26109
1.2512
1.24036
1.22886
1.21173
1.18926
1.16595
1.12408
1.17306
1.19335
1.20719
1.21493
1.21677
1.21363
1.20632
1.19514
1.18328
1.15904
1.02864
1.04471
1.06589
1.08832
1.10927
1.12807
1.14098
1.14948
1.14916
1.14172
1.00067
1.00148
1.00318
1.00662
1.012
1.02114
1.03367
1.04899
1.0634
1.08262
0.7737
0.65692
0.573849
0.595777
0.647896
0.73852
0.843136
0.959335
1.09055
1.23231
1.29724
1.27499
1.14991
1.01772
1.00036
0.781691
0.644097
0.559463
0.606123
0.667683
0.768808
0.894626
1.013
1.13929
1.27302
1.31121
1.26768
1.11202
1.00791
1.00012
0.771903
0.635689
0.554506
0.620259
0.693993
0.819823
0.943726
1.0533
1.18712
1.30609
1.31734
1.25175
1.07285
1.00326
1.00004
0.774454
0.63243
0.559296
0.660354
0.753246
0.866176
0.974468
1.09716
1.24404
1.32835
1.31919
1.20881
1.03788
1.00109
1.00001
0.780362
0.630783
0.600267
0.688663
0.781809
0.89234
1.01016
1.15897
1.29452
1.34199
1.30855
1.15523
1.01716
1.00035
1
0.769477
0.617819
0.613206
0.693464
0.798001
0.927767
1.07635
1.22761
1.33234
1.34806
1.28338
1.10106
1.00603
1.00009
1
0.762073
0.612214
0.607512
0.694443
0.840839
1.01847
1.15539
1.28261
1.35411
1.34918
1.24282
1.04935
1.00168
1.00002
1
0.764511
0.629792
0.604396
0.738829
0.960775
1.1011
1.21725
1.33086
1.36665
1.33134
1.1681
1.01861
1.00043
1
1
0.750117
0.626335
0.659481
0.886718
1.04087
1.15972
1.28299
1.36853
1.3725
1.29727
1.09823
1.00606
1.0001
1
1
0.689832
0.625402
0.795474
0.983728
1.10633
1.23254
1.35122
1.38442
1.37302
1.22358
1.03464
1.00107
1.00002
1
1
0.527855
0.702411
0.91594
1.06868
1.19459
1.31414
1.38984
1.38863
1.31601
1.1097
1.00795
1.00017
1
1
1
0.464467
0.827092
1.01958
1.16945
1.29879
1.37202
1.40155
1.38187
1.22577
1.04205
1.00166
1.00003
1
1
1
0.412106
0.939242
1.14973
1.28476
1.37138
1.40276
1.40338
1.31501
1.11475
1.00896
1.0002
1
1
1
1
0.732968
1.11246
1.28317
1.35964
1.41077
1.41129
1.37257
1.20355
1.02945
1.00102
1.00002
1
1
1
1
1.11751
1.30354
1.36794
1.39885
1.42106
1.41126
1.28077
1.06167
1.00248
1.00004
1
1
1
1
1
1.40296
1.39901
1.39776
1.41089
1.42328
1.34282
1.09648
0.996112
0.99965
0.999994
1
1
1
1
1
1.39972
1.39812
1.39564
1.40797
1.41801
1.30431
1.072
1.00213
1.00002
1
1
1
1
1
1
1.38799
1.4003
1.4133
1.41546
1.40974
1.20006
1.01042
1.00003
1
1
1
1
1
1
1
1.38017
1.40309
1.42958
1.41631
1.34122
1.0886
1.00164
1
1
1
1
1
1
1
1
1.37779
1.40723
1.43928
1.41347
1.26035
1.02875
1.00016
1
1
1
1
1
1
1
1
1.38467
1.41238
1.44429
1.39318
1.1378
1.00355
1.00001
1
1
1
1
1
1
1
1
1.40349
1.41177
1.44439
1.2955
1.03723
1.00026
1
1
1
1
1
1
1
1
1
1.44675
1.40265
1.38689
1.15686
1.00548
1.00001
1
1
1
1
1
1
1
1
1
1.49138
1.3788
1.2843
1.04359
1.00033
1
1
1
1
1
1
1
1
1
1
1.50935
1.33637
1.14193
1.00522
1.00002
1
1
1
1
1
1
1
1
1
1
1.49688
1.26204
1.05089
1.00061
1
1
1
1
1
1
1
1
1
1
1
1.4323
1.17441
1.01217
1.00006
1
1
1
1
1
1
1
1
1
1
1
1.34336
1.09003
1.00227
1.00001
1
1
1
1
1
1
1
1
1
1
1
1.2276
1.03228
1.0003
1
1
1
1
1
1
1
1
1
1
1
1
1.10357
1.00512
1.00002
1
1
1
1
1
1
1
1
1
1
1
1
1
1
1
1
1
1
1
1
1
1
1
1
1
1
1
1
1
1
1
1
1
1
1
1
1
1
1
1
1
1
1
1
1
1
1
1
1
1
1
1
1
1
1
1
1
1
1
1
1
1
1
1
1
1
1
1
1
1
1
1
1
1
1
1
1
1
1
1
1
1
1
1
1
1
1
1
1
1
1
1
1
1
1
1
1
1
1
1
1
1
1
1
1
1
1
1
1
1
1
1
1
1
1
1
1
1
1
1
1
1
1
1
1
1
1
1
1
1
1
1
1
1
1
1
1
1
1
1
1
1
1
1
1
1
1
1
1
1
1
1
1
1
1
1
1
1
1
1
1
1
1
1
1
1
1
1
1
1
1
1
1
1
1
1
1
1
1
1
1
1
1
1
1
1
1
1
1
1
1
1
1
1
1
1
1
1
1
1
1
1
1
1
1
1
1
1
1
1
1
1
1
1
1
1
1
1
1
1
1
1
1
1
1
1
1
1
1
1
1
1
1
1
1
1
1
1
1
1
1
1
1
1
1
1
1
1
1
1
1
1
1
1
1
1
1
1
1
1
1
1
1
1
1
1
1
1
1
1
1
1
1
1
1
1
1
1
1
1
1
1
1
1
1
1
1
1
1
1
1
1
1
1
1
1
1
1
1
1
1
1
1
1
1
1
1
1
1
1
1
1
1
1
1
1
1
1
1
1
1
1
1
1
1
1
1
1
1
1
1
1
1
1
1
1
1
1
1
1
1
1
1
1
1
1
1
1
1
1
1
1
1
1
1
1
1
1
1
1
1
1
1.19522
1.00484
1
1
1
1
1
1
1
1
1
1
1
1
1
1
1
1
1
1
1.41626
1.08009
0.999776
1
1
1
1
1
1
1
1
1
1
1
1
1
1
1
1
1
1.62804
1.24136
1.0049
0.999986
1
1
1
1
1
1
1
1
1
1
1
1
1
1
1
1
1.74359
1.48184
1.14832
1.00022
1
1
1
1
1
1
1
1
1
1
1
1
1
1
1
1
1.71838
1.5828
1.47729
1.09217
0.999876
1
1
1
1
1
1
1
1
1
1
1
1
1
1
1
1.64785
1.62917
1.65247
1.40958
1.03924
0.999917
1
1
1
1
1
1
1
1
1
1
1
1
1
1
1.58851
1.61765
1.66321
1.65182
1.30024
1.00752
0.99998
0.999999
1
1
1
1
1
1
1
1
1
1
1
1
1.58335
1.6086
1.64828
1.64875
1.53077
1.1528
1.00071
1
1
1
1
1
1
1
1
1
1
1
1
1
1.58642
1.59863
1.6163
1.63901
1.64656
1.39455
1.0364
0.999958
0.999999
1
1
1
1
1
1
1
1
1
1
1
1.59291
1.59891
1.60933
1.63389
1.65503
1.58498
1.22441
1.00374
0.999991
1
1
1
1
1
1
1
1
1
1
1
1.59737
1.60201
1.61388
1.63236
1.64866
1.61144
1.44125
1.08224
1.00015
1
1
1
1
1
1
1
1
1
1
1
1.60151
1.60574
1.6185
1.63197
1.63672
1.62721
1.58067
1.27349
1.00937
0.99999
1
1
1
1
1
1
1
1
1
1
1.60603
1.61058
1.62251
1.63217
1.63341
1.63281
1.61951
1.45172
1.10131
1.00039
0.999999
1
1
1
1
1
1
1
1
1
1.60942
1.61345
1.62447
1.63268
1.63267
1.63061
1.62661
1.56931
1.29272
1.02062
1.00018
1
1
1
1
1
1
1
1
1
1.61306
1.61885
1.62887
1.63423
1.63511
1.63395
1.63541
1.61015
1.45137
1.05546
0.994976
0.999694
0.999997
1
1
1
1
1
1
1
1.23779
1.45695
1.54572
1.59103
1.61637
1.6281
1.63251
1.6303
1.58948
1.41254
1.11408
1.00649
1.00013
1
1
1
1
1
1
1
0.74449
1.20953
1.38434
1.48292
1.54771
1.59051
1.6149
1.62526
1.62089
1.58324
1.39612
1.09797
1.00539
1.00011
1
1
1
1
1
1
0.805167
1.05914
1.18714
1.31788
1.42934
1.50851
1.56507
1.5972
1.61515
1.61307
1.55979
1.33302
1.06205
1.00253
1.00004
1
1
1
1
1
0.869886
0.960839
1.06016
1.16428
1.28335
1.39558
1.47543
1.53576
1.58328
1.60596
1.59488
1.51733
1.24468
1.02788
1.00073
1.00001
1
1
1
1
0.903468
0.875358
0.942887
1.06698
1.17383
1.28659
1.3741
1.45645
1.52534
1.57228
1.58739
1.57666
1.43627
1.1452
1.00933
1.00017
1
1
1
1
0.986651
0.845746
0.818809
0.949081
1.0669
1.18544
1.27757
1.3725
1.45906
1.51876
1.56206
1.5718
1.53779
1.32519
1.0581
1.00177
1.00002
1
1
1
1.03758
0.854535
0.767223
0.846721
0.957266
1.0749
1.17456
1.27709
1.3777
1.44892
1.51495
1.55653
1.55209
1.4588
1.18172
1.01455
1.00026
1
1
1
1.03795
0.874017
0.780933
0.821229
0.899112
0.99885
1.09387
1.20121
1.29264
1.36912
1.44781
1.51778
1.54428
1.52011
1.33676
1.06564
1.00198
1.00002
1
1
1.03189
0.886829
0.787771
0.803026
0.853932
0.954236
1.04724
1.1467
1.23655
1.31253
1.38125
1.45765
1.52175
1.51659
1.44492
1.17883
1.01319
1.00019
1
1
1.01658
0.895752
0.797809
0.777289
0.793846
0.897929
0.984038
1.0907
1.18148
1.26366
1.334
1.40406
1.48042
1.5059
1.47526
1.29365
1.04772
1.00114
1.00001
1
0.993002
0.909975
0.82777
0.766488
0.746785
0.813029
0.905126
1.00031
1.10709
1.19074
1.27488
1.34952
1.43417
1.48756
1.47251
1.37491
1.1172
1.00548
1.00006
1
0.953476
0.908786
0.838827
0.769421
0.749945
0.801977
0.869826
0.952052
1.03626
1.12139
1.20722
1.28306
1.3762
1.45742
1.467
1.4133
1.20403
1.01862
1.00028
1
0.914974
0.893878
0.836027
0.773884
0.756091
0.798899
0.859541
0.934517
1.01775
1.09508
1.1702
1.24731
1.32249
1.41614
1.45615
1.43078
1.27903
1.05272
1.00131
1.00001
0.907932
0.883941
0.829995
0.768998
0.749851
0.787155
0.836044
0.916896
0.996429
1.07207
1.14414
1.22109
1.29001
1.37424
1.44026
1.42848
1.32747
1.10127
1.00446
1.00005
0.913408
0.888803
0.834111
0.771654
0.745522
0.765759
0.797675
0.872408
0.945878
1.02448
1.10157
1.17663
1.25092
1.33
1.41307
1.42273
1.36934
1.16762
1.01375
1.0002
1.03286
0.864026
0.810873
0.760527
0.74642
0.751529
0.770277
0.841551
0.904133
0.977274
1.0585
1.13202
1.20757
1.29026
1.38179
1.41282
1.38252
1.22406
1.03162
1.00057
1.1415
0.886693
0.789775
0.749673
0.743708
0.743356
0.765467
0.83991
0.897484
0.962359
1.04063
1.1147
1.18185
1.25747
1.34669
1.3975
1.37903
1.26515
1.05917
1.00166
1.21657
0.940244
0.774036
0.739562
0.737645
0.736011
0.765972
0.839247
0.88888
0.954883
1.02864
1.09776
1.16224
1.23003
1.3117
1.37924
1.37252
1.29417
1.0966
1.00442
1.22867
0.975088
0.776411
0.735454
0.730813
0.727407
0.763383
0.833827
0.872537
0.940003
1.0111
1.07591
1.13883
1.20186
1.27681
1.35603
1.36279
1.30776
1.13689
1.01124
1.28192
1.04312
0.807702
0.72978
0.725768
0.724774
0.764336
0.823401
0.855623
0.916846
0.983281
1.04743
1.10994
1.17006
1.2411
1.32499
1.34918
1.31715
1.1804
1.02536
1.3174
1.13949
0.910274
0.7329
0.720867
0.720332
0.76916
0.812024
0.845333
0.907059
0.961215
1.01913
1.07986
1.13744
1.20111
1.28465
1.33044
1.31298
1.21315
1.05152
1.30435
1.17987
1.00604
0.765338
0.710987
0.720535
0.765858
0.797077
0.835704
0.898159
0.943779
0.997471
1.05384
1.10888
1.16776
1.24429
1.30783
1.30136
1.23192
1.0839
1.28227
1.20253
1.05817
0.861166
0.712427
0.721735
0.75824
0.781994
0.819412
0.881445
0.922331
0.973056
1.02905
1.08075
1.13682
1.20738
1.28127
1.2848
1.23943
1.12156
1.25177
1.18961
1.08369
0.958022
0.742518
0.714739
0.747172
0.765651
0.813904
0.860855
0.900631
0.949748
1.00305
1.05421
1.10644
1.17239
1.25058
1.26778
1.2361
1.15132
1.24913
1.18927
1.11847
1.04707
0.898839
0.723875
0.722749
0.752252
0.797593
0.829444
0.869708
0.918748
0.966695
1.01763
1.06515
1.12227
1.19697
1.23441
1.21846
1.18363
)
;

boundaryField
{
    inlet
    {
        type            fixedValue;
        value           uniform 1;
    }
    outlet
    {
        type            inletOutlet;
        inletValue      uniform 1;
        value           nonuniform List<scalar> 
35
(
1.2492
1.18896
1.11799
1.04664
0.898287
0.723426
0.722402
0.751879
0.79722
0.829024
0.869403
0.918609
0.966547
1.01757
1.06512
1.12236
1.19709
1.23375
1.21763
1.18153
1.28526
1.28176
1.15762
0.91406
0.675276
0.695166
0.753682
0.815474
0.870085
0.938001
1.02334
1.12409
1.15858
1.14112
1.08177
)
;
    }
    airfoil
    {
        type            zeroGradient;
    }
    top
    {
        type            symmetryPlane;
    }
    bottom
    {
        type            symmetryPlane;
    }
    defaultFaces
    {
        type            empty;
    }
}


// ************************************************************************* //
