/*--------------------------------*- C++ -*----------------------------------*\
  =========                 |
  \\      /  F ield         | OpenFOAM: The Open Source CFD Toolbox
   \\    /   O peration     | Website:  https://openfoam.org
    \\  /    A nd           | Version:  7
     \\/     M anipulation  |
\*---------------------------------------------------------------------------*/
FoamFile
{
    version     2.0;
    format      ascii;
    class       volScalarField;
    location    "0.33";
    object      rho;
}
// * * * * * * * * * * * * * * * * * * * * * * * * * * * * * * * * * * * * * //

dimensions      [1 -3 0 0 0 0 0];

internalField   nonuniform List<scalar> 
324000
(
0.440909
0.643777
0.835556
1.03191
1.13982
1.10249
1.05738
1.05434
1.04399
1.04758
1.05554
1.06095
1.06631
1.06749
1.06706
1.0647
1.06087
1.0583
1.05882
1.06089
1.06232
1.06397
1.06634
1.06858
1.06692
1.06091
1.05299
1.04527
1.04214
1.04203
1.04376
1.04978
1.05678
1.06017
1.06257
1.06582
1.07851
1.09755
1.1112
1.1211
1.124
1.12393
1.13554
1.16038
1.2289
1.29203
1.32614
1.34676
1.35537
1.36022
1.3663
1.37534
1.38673
1.39625
1.39986
1.40017
1.4001
1.40003
1.40001
1.40001
1.40001
1.40001
1.40001
1.40001
1.40001
1.40001
1.40001
1.40001
1.40001
1.40001
1.40001
1.40001
1.40001
1.40001
1.40001
1.40001
1.40001
1.40001
1.40001
1.40001
0.327691
0.331
0.389018
0.565653
0.836854
0.997598
1.07195
1.06496
1.04704
1.05087
1.04747
1.03152
1.03243
1.03551
1.03566
1.03268
1.03063
1.03184
1.0351
1.03889
1.042
1.04316
1.04455
1.04666
1.04292
1.03525
1.02696
1.01813
1.01214
1.00901
1.00762
1.01128
1.01686
1.02123
1.02556
1.03008
1.0418
1.06352
1.08828
1.10672
1.11383
1.11636
1.12356
1.15046
1.21668
1.28022
1.32382
1.34619
1.3538
1.35823
1.36431
1.37365
1.38555
1.39568
1.39971
1.40013
1.40009
1.40003
1.40001
1.40001
1.40001
1.40001
1.40001
1.40001
1.40001
1.40001
1.40001
1.40001
1.40001
1.40001
1.40001
1.40001
1.40001
1.40001
1.40001
1.40001
1.40001
1.40001
1.40001
1.40001
0.330401
0.331547
0.332422
0.332571
0.381811
0.566294
0.822372
0.986731
1.0625
1.06746
1.03938
1.01103
1.01353
1.02091
1.02498
1.02474
1.02441
1.0269
1.0306
1.03458
1.03688
1.03741
1.03757
1.03782
1.03193
1.02167
1.01229
1.00288
0.992819
0.987857
0.98652
0.990806
0.997551
1.00129
1.00482
1.00931
1.01969
1.04341
1.07977
1.1054
1.11854
1.12375
1.12794
1.15201
1.2086
1.2727
1.32249
1.34476
1.35144
1.35578
1.36213
1.37191
1.38438
1.39514
1.39957
1.4001
1.40007
1.40003
1.40001
1.40001
1.40001
1.40001
1.40001
1.40001
1.40001
1.40001
1.40001
1.40001
1.40001
1.40001
1.40001
1.40001
1.40001
1.40001
1.40001
1.40001
1.40001
1.40001
1.40001
1.40001
0.332158
0.3327
0.332909
0.332921
0.332864
0.332472
0.379029
0.567128
0.81941
0.991455
1.01319
1.01833
1.01663
1.02548
1.02844
1.02549
1.02949
1.03488
1.03775
1.03868
1.03856
1.03912
1.0397
1.03792
1.0295
1.01796
1.00829
0.99876
0.988438
0.98298
0.982792
0.986095
0.987916
0.98955
0.992087
0.997687
1.01148
1.04438
1.07922
1.11213
1.13197
1.13704
1.13557
1.15139
1.20937
1.27471
1.32226
1.34206
1.34831
1.35294
1.35975
1.37009
1.38323
1.39464
1.39945
1.40007
1.40006
1.40002
1.40001
1.40001
1.40001
1.40001
1.40001
1.40001
1.40001
1.40001
1.40001
1.40001
1.40001
1.40001
1.40001
1.40001
1.40001
1.40001
1.40001
1.40001
1.40001
1.40001
1.40001
1.40001
0.332949
0.333043
0.333035
0.332946
0.332497
0.3319
0.331594
0.331029
0.379022
0.558571
0.8136
0.978736
1.02103
1.04011
1.04342
1.03416
1.0353
1.03637
1.03704
1.03723
1.03697
1.03819
1.03979
1.03754
1.02807
1.0163
1.00822
1.00044
0.989362
0.982545
0.980825
0.97997
0.980921
0.98283
0.985853
0.996999
1.01665
1.05039
1.10505
1.15097
1.17042
1.17146
1.16818
1.17527
1.21917
1.28087
1.32227
1.33898
1.34499
1.34988
1.3572
1.36822
1.38213
1.3942
1.39935
1.40005
1.40005
1.40002
1.40001
1.40001
1.40001
1.40001
1.40001
1.40001
1.40001
1.40001
1.40001
1.40001
1.40001
1.40001
1.40001
1.40001
1.40001
1.40001
1.40001
1.40001
1.40001
1.40001
1.40001
1.40001
0.333162
0.333012
0.332683
0.332173
0.331607
0.331219
0.33081
0.330475
0.330338
0.330314
0.391802
0.596494
0.819346
0.981157
1.02675
1.03318
1.0428
1.0369
1.03659
1.03702
1.0395
1.04316
1.04298
1.03754
1.02492
1.01366
1.00689
0.997784
0.98468
0.978879
0.976167
0.974222
0.976643
0.987065
1.00263
1.01839
1.04659
1.08782
1.13773
1.18186
1.20225
1.20361
1.19941
1.19933
1.22692
1.27891
1.32104
1.33638
1.34155
1.34658
1.3545
1.36633
1.38109
1.39382
1.39926
1.40003
1.40004
1.40002
1.40001
1.40001
1.40001
1.40001
1.40001
1.40001
1.40001
1.40001
1.40001
1.40001
1.40001
1.40001
1.40001
1.40001
1.40001
1.40001
1.40001
1.40001
1.40001
1.40001
1.40001
1.40001
0.332729
0.332291
0.331791
0.331314
0.330977
0.3307
0.330493
0.330332
0.330285
0.330328
0.330441
0.33295
0.415378
0.614065
0.83393
0.968093
1.02734
1.03026
1.03708
1.03321
1.04113
1.04539
1.04188
1.03229
1.0192
1.00939
1.00157
0.991069
0.980227
0.977657
0.977402
0.979878
0.991963
1.01047
1.02776
1.05133
1.08396
1.12523
1.16364
1.19582
1.21984
1.22966
1.22921
1.23604
1.26012
1.29853
1.32453
1.33347
1.33779
1.34318
1.35176
1.36446
1.38015
1.39351
1.3992
1.40001
1.40003
1.40002
1.40001
1.40001
1.40001
1.40001
1.40001
1.40001
1.40001
1.40001
1.40001
1.40001
1.40001
1.40001
1.40001
1.40001
1.40001
1.40001
1.40001
1.40001
1.40001
1.40001
1.40001
1.40001
0.331963
0.331514
0.331111
0.330806
0.330607
0.330473
0.33032
0.330253
0.330332
0.330506
0.330764
0.331056
0.331179
0.333319
0.413296
0.627856
0.875745
0.974563
1.02716
1.03333
1.05282
1.05357
1.04607
1.03099
1.0194
1.00893
0.998607
0.987432
0.980993
0.980057
0.98109
0.990193
1.01079
1.03514
1.06057
1.09082
1.122
1.15084
1.17095
1.1951
1.22236
1.23906
1.24823
1.25936
1.28185
1.31053
1.32512
1.33006
1.33401
1.33969
1.34898
1.36265
1.37928
1.39327
1.39915
1.4
1.40002
1.40001
1.40001
1.40001
1.40001
1.40001
1.40001
1.40001
1.40001
1.40001
1.40001
1.40001
1.40001
1.40001
1.40001
1.40001
1.40001
1.40001
1.40001
1.40001
1.40001
1.40001
1.40001
1.40001
0.331226
0.33092
0.330643
0.330463
0.330329
0.330264
0.330256
0.330326
0.330505
0.330725
0.330959
0.33123
0.331339
0.331253
0.330938
0.336461
0.42609
0.671601
0.915616
1.01176
1.05746
1.05071
1.04111
1.02999
1.02016
1.00851
0.99592
0.988459
0.987239
0.987929
0.993252
1.01115
1.03661
1.06047
1.08887
1.11766
1.14502
1.16301
1.17518
1.1964
1.22282
1.24142
1.25558
1.27241
1.29399
1.31438
1.32333
1.32649
1.32992
1.33603
1.34624
1.36097
1.37855
1.39299
1.3991
1.39999
1.40002
1.40001
1.40001
1.40001
1.40001
1.40001
1.40001
1.40001
1.40001
1.40001
1.40001
1.40001
1.40001
1.40001
1.40001
1.40001
1.40001
1.40001
1.40001
1.40001
1.40001
1.40001
1.40001
1.40001
0.330658
0.330453
0.330287
0.330219
0.330227
0.330313
0.330421
0.330529
0.330678
0.330851
0.331021
0.331231
0.331283
0.331088
0.330821
0.330718
0.330563
0.345491
0.463132
0.729845
0.980001
1.02123
1.03692
1.03459
1.02262
1.00739
0.995134
0.994052
0.996975
1.00024
1.01141
1.03521
1.05787
1.07602
1.10104
1.13139
1.15572
1.16575
1.178
1.19879
1.22209
1.24043
1.25719
1.27611
1.29669
1.31328
1.31946
1.32227
1.32588
1.33263
1.34366
1.35928
1.37781
1.39294
1.39912
1.39999
1.40001
1.40001
1.40001
1.40001
1.40001
1.40001
1.40001
1.40001
1.40001
1.40001
1.40001
1.40001
1.40001
1.40001
1.40001
1.40001
1.40001
1.40001
1.40001
1.40001
1.40001
1.40001
1.40001
1.40001
0.330193
0.330173
0.330211
0.330356
0.330494
0.330598
0.330695
0.330726
0.330729
0.330681
0.330506
0.330454
0.330641
0.330618
0.330548
0.33059
0.330513
0.329962
0.327327
0.357855
0.543296
0.814372
1.01296
1.02175
1.01289
1.00223
0.994833
1.00317
1.00489
1.0111
1.03079
1.05998
1.0745
1.08875
1.10988
1.13489
1.15092
1.16138
1.17871
1.2008
1.22082
1.23784
1.25519
1.27508
1.29477
1.30769
1.31392
1.31807
1.32248
1.32964
1.34132
1.35777
1.37692
1.39276
1.39913
1.39999
1.40001
1.40001
1.40001
1.40001
1.40001
1.40001
1.40001
1.40001
1.40001
1.40001
1.40001
1.40001
1.40001
1.40001
1.40001
1.40001
1.40001
1.40001
1.40001
1.40001
1.40001
1.40001
1.40001
1.40001
0.330298
0.330387
0.330503
0.330638
0.330768
0.330823
0.33082
0.330721
0.330528
0.330217
0.329752
0.329661
0.32983
0.329832
0.329769
0.329474
0.328669
0.327166
0.323479
0.317272
0.312277
0.394846
0.674574
0.877723
0.960576
0.995234
1.00565
1.0225
1.02037
1.02655
1.04911
1.06871
1.07742
1.09376
1.11899
1.13336
1.14334
1.15793
1.18036
1.20083
1.21827
1.23406
1.25075
1.27072
1.28955
1.30088
1.30723
1.31242
1.31859
1.32696
1.33907
1.35625
1.37669
1.39296
1.39918
1.39999
1.40001
1.40001
1.40001
1.40001
1.40001
1.40001
1.40001
1.40001
1.40001
1.40001
1.40001
1.40001
1.40001
1.40001
1.40001
1.40001
1.40001
1.40001
1.40001
1.40001
1.40001
1.40001
1.40001
1.40001
0.330476
0.330612
0.330739
0.330848
0.330903
0.330863
0.330766
0.330545
0.330216
0.329821
0.329387
0.329129
0.329022
0.328565
0.327864
0.326529
0.323861
0.320177
0.316155
0.311617
0.31008
0.310089
0.32875
0.511458
0.7794
0.958473
0.995312
1.0266
1.04087
1.0573
1.08071
1.07926
1.08243
1.10094
1.12623
1.13229
1.13934
1.16153
1.18273
1.19786
1.21347
1.22974
1.24627
1.26503
1.28267
1.29404
1.30082
1.30636
1.31331
1.32319
1.33667
1.35444
1.376
1.39306
1.39924
1.39999
1.40001
1.40001
1.40001
1.40001
1.40001
1.40001
1.40001
1.40001
1.40001
1.40001
1.40001
1.40001
1.40001
1.40001
1.40001
1.40001
1.40001
1.40001
1.40001
1.40001
1.40001
1.40001
1.40001
1.40001
0.330712
0.330795
0.330849
0.330835
0.330809
0.330674
0.330534
0.330354
0.330012
0.329684
0.329341
0.328818
0.328363
0.327574
0.325877
0.323376
0.319546
0.314845
0.311532
0.309905
0.309787
0.310798
0.315229
0.319965
0.393164
0.60482
0.837696
0.981285
1.0302
1.06303
1.08041
1.08558
1.09224
1.12194
1.13426
1.13792
1.15075
1.17376
1.18264
1.19262
1.20785
1.22614
1.2433
1.2592
1.27442
1.28674
1.29514
1.30155
1.30879
1.31904
1.33364
1.35343
1.37642
1.39342
1.39932
1.39999
1.40001
1.40001
1.40001
1.40001
1.40001
1.40001
1.40001
1.40001
1.40001
1.40001
1.40001
1.40001
1.40001
1.40001
1.40001
1.40001
1.40001
1.40001
1.40001
1.40001
1.40001
1.40001
1.40001
1.40001
0.330806
0.330787
0.330754
0.330661
0.330522
0.330405
0.33028
0.330301
0.33019
0.329976
0.329653
0.328983
0.327887
0.326642
0.323742
0.31925
0.314101
0.310684
0.310122
0.310533
0.312292
0.316915
0.325135
0.335506
0.345261
0.353083
0.441844
0.623595
0.835186
0.989203
1.05069
1.08065
1.10262
1.14166
1.13981
1.14524
1.16578
1.17769
1.17885
1.18535
1.20211
1.22233
1.24066
1.2555
1.26683
1.27768
1.2872
1.29589
1.30534
1.31649
1.33084
1.35158
1.37635
1.39383
1.39942
1.39999
1.40001
1.40001
1.40001
1.40001
1.40001
1.40001
1.40001
1.40001
1.40001
1.40001
1.40001
1.40001
1.40001
1.40001
1.40001
1.40001
1.40001
1.40001
1.40001
1.40001
1.40001
1.40001
1.40001
1.40001
0.330727
0.330718
0.330684
0.330575
0.330426
0.330369
0.330281
0.330325
0.330286
0.330069
0.329751
0.32907
0.327249
0.323429
0.318019
0.313478
0.31056
0.310275
0.311084
0.314219
0.32099
0.328038
0.333971
0.342951
0.35322
0.36404
0.375987
0.385927
0.455347
0.605915
0.797184
0.957992
1.07205
1.1159
1.12476
1.14367
1.17342
1.17394
1.16913
1.17984
1.1984
1.21631
1.23288
1.24846
1.2617
1.27035
1.27851
1.28834
1.29933
1.31176
1.32842
1.35192
1.37717
1.39438
1.39952
1.4
1.40001
1.40001
1.40001
1.40001
1.40001
1.40001
1.40001
1.40001
1.40001
1.40001
1.40001
1.40001
1.40001
1.40001
1.40001
1.40001
1.40001
1.40001
1.40001
1.40001
1.40001
1.40001
1.40001
1.40001
0.330769
0.33073
0.330607
0.330423
0.330236
0.330257
0.330213
0.330277
0.330283
0.33005
0.3289
0.325978
0.321355
0.315993
0.312463
0.311399
0.311613
0.313105
0.317394
0.320556
0.325916
0.336014
0.344317
0.352521
0.363868
0.376832
0.389013
0.402139
0.415257
0.425832
0.46746
0.574363
0.752728
0.911399
1.03915
1.11926
1.16061
1.14944
1.15598
1.17696
1.19202
1.20682
1.22151
1.2373
1.25215
1.264
1.27293
1.28219
1.29382
1.30727
1.32521
1.35085
1.37798
1.39504
1.39963
1.4
1.40001
1.40001
1.40001
1.40001
1.40001
1.40001
1.40001
1.40001
1.40001
1.40001
1.40001
1.40001
1.40001
1.40001
1.40001
1.40001
1.40001
1.40001
1.40001
1.40001
1.40001
1.40001
1.40001
1.40001
0.330529
0.330213
0.329835
0.329424
0.329279
0.329427
0.32943
0.329156
0.32819
0.325957
0.322437
0.317796
0.314352
0.312087
0.311493
0.313031
0.314941
0.316791
0.322376
0.329142
0.333917
0.341808
0.355679
0.36876
0.380758
0.392477
0.405382
0.417925
0.43046
0.443411
0.457104
0.470948
0.496548
0.577855
0.749985
0.919281
1.05832
1.10781
1.15265
1.19089
1.18848
1.1935
1.206
1.22197
1.23651
1.25057
1.26445
1.27683
1.28831
1.30296
1.32422
1.35171
1.37934
1.39576
1.39972
1.4
1.40001
1.40001
1.40001
1.40001
1.40001
1.40001
1.40001
1.40001
1.40001
1.40001
1.40001
1.40001
1.40001
1.40001
1.40001
1.40001
1.40001
1.40001
1.40001
1.40001
1.40001
1.40001
1.40001
1.40001
0.329669
0.329163
0.328779
0.328525
0.328114
0.327553
0.326551
0.324715
0.321992
0.31854
0.3158
0.312962
0.311651
0.312307
0.312535
0.313731
0.318645
0.321648
0.325553
0.337
0.350031
0.358874
0.369251
0.381245
0.393063
0.40347
0.414685
0.427355
0.440092
0.454195
0.468064
0.483419
0.500325
0.517221
0.54175
0.617463
0.76499
0.972309
1.11515
1.16664
1.17203
1.17782
1.1901
1.20657
1.22146
1.23582
1.25162
1.26751
1.28211
1.29811
1.32128
1.35196
1.38104
1.39657
1.39981
1.4
1.40001
1.40001
1.40001
1.40001
1.40001
1.40001
1.40001
1.40001
1.40001
1.40001
1.40001
1.40001
1.40001
1.40001
1.40001
1.40001
1.40001
1.40001
1.40001
1.40001
1.40001
1.40001
1.40001
1.40001
0.328822
0.328604
0.328243
0.327752
0.326909
0.325278
0.322789
0.319572
0.316203
0.313052
0.311591
0.311257
0.310959
0.312093
0.31408
0.315372
0.32135
0.333146
0.342107
0.34948
0.361963
0.37508
0.384112
0.394149
0.405008
0.417467
0.428209
0.439911
0.45356
0.467205
0.482235
0.497312
0.514038
0.531025
0.549457
0.570033
0.597742
0.686779
0.855195
1.02036
1.11386
1.16543
1.19243
1.20499
1.21755
1.2298
1.24175
1.25667
1.27416
1.29444
1.32154
1.35379
1.38318
1.39736
1.39988
1.4
1.40001
1.40001
1.40001
1.40001
1.40001
1.40001
1.40001
1.40001
1.40001
1.40001
1.40001
1.40001
1.40001
1.40001
1.40001
1.40001
1.40001
1.40001
1.40001
1.40001
1.40001
1.40001
1.40001
1.40001
0.328974
0.328756
0.328324
0.327299
0.325194
0.321552
0.317268
0.31384
0.311764
0.310795
0.310721
0.311077
0.311345
0.312621
0.319932
0.33049
0.33644
0.34529
0.358583
0.368576
0.374971
0.385202
0.395974
0.406396
0.416253
0.428469
0.442774
0.456322
0.470061
0.485118
0.500545
0.517168
0.53328
0.551855
0.570521
0.588563
0.609011
0.63107
0.675084
0.797554
0.991695
1.12859
1.17305
1.1878
1.20084
1.21696
1.23479
1.25078
1.26654
1.28823
1.31986
1.35614
1.38579
1.39813
1.39994
1.4
1.40001
1.40001
1.40001
1.40001
1.40001
1.40001
1.40001
1.40001
1.40001
1.40001
1.40001
1.40001
1.40001
1.40001
1.40001
1.40001
1.40001
1.40001
1.40001
1.40001
1.40001
1.40001
1.40001
1.40001
0.327896
0.326298
0.323584
0.319836
0.316238
0.313606
0.311717
0.310876
0.310736
0.310781
0.311087
0.313085
0.319627
0.327886
0.333262
0.343021
0.354261
0.360524
0.367784
0.378818
0.388152
0.396121
0.407626
0.419296
0.431908
0.44316
0.455875
0.469819
0.483808
0.498319
0.514104
0.530232
0.547789
0.565499
0.585332
0.607612
0.631075
0.650002
0.676111
0.70762
0.79607
0.953466
1.08276
1.14611
1.176
1.1983
1.21942
1.23873
1.25925
1.28722
1.32156
1.35981
1.38864
1.3988
1.39997
1.4
1.40001
1.40001
1.40001
1.40001
1.40001
1.40001
1.40001
1.40001
1.40001
1.40001
1.40001
1.40001
1.40001
1.40001
1.40001
1.40001
1.40001
1.40001
1.40001
1.40001
1.40001
1.40001
1.40001
1.40001
0.321525
0.318307
0.315837
0.314073
0.312618
0.311883
0.311738
0.311948
0.312965
0.31531
0.320526
0.326045
0.331816
0.341183
0.34927
0.353579
0.362905
0.373144
0.379955
0.388589
0.40156
0.412584
0.422963
0.434871
0.447845
0.461086
0.473562
0.48685
0.501313
0.51599
0.531186
0.547404
0.565289
0.583297
0.601252
0.621498
0.642491
0.668197
0.691015
0.717542
0.753784
0.825071
0.958213
1.08202
1.14586
1.1774
1.20037
1.22284
1.2487
1.28271
1.32371
1.36489
1.39164
1.39931
1.39999
1.4
1.40001
1.40001
1.40001
1.40001
1.40001
1.40001
1.40001
1.40001
1.40001
1.40001
1.40001
1.40001
1.40001
1.40001
1.40001
1.40001
1.40001
1.40001
1.40001
1.40001
1.40001
1.40001
1.40001
1.40001
0.314718
0.313136
0.312579
0.312753
0.312742
0.313448
0.315565
0.317818
0.320892
0.324934
0.330412
0.338
0.343362
0.348627
0.359637
0.368276
0.374239
0.385107
0.397532
0.406622
0.416084
0.428321
0.439422
0.450685
0.461834
0.47438
0.487684
0.501216
0.515689
0.53162
0.54784
0.565157
0.582226
0.602632
0.623684
0.644048
0.665806
0.689214
0.713491
0.73743
0.764307
0.803474
0.869237
0.974931
1.07668
1.14037
1.17882
1.21034
1.24488
1.28429
1.32901
1.37118
1.39445
1.39966
1.4
1.40001
1.40001
1.40001
1.40001
1.40001
1.40001
1.40001
1.40001
1.40001
1.40001
1.40001
1.40001
1.40001
1.40001
1.40001
1.40001
1.40001
1.40001
1.40001
1.40001
1.40001
1.40001
1.40001
1.40001
1.40001
0.312906
0.312742
0.312649
0.313421
0.314832
0.3161
0.318968
0.323055
0.327464
0.333106
0.338149
0.346103
0.357076
0.364948
0.371638
0.383858
0.394281
0.401903
0.411691
0.423013
0.432376
0.442212
0.453588
0.465268
0.477131
0.489698
0.503108
0.51731
0.531699
0.547177
0.564006
0.581089
0.600609
0.619469
0.641299
0.664893
0.689098
0.712803
0.738078
0.76346
0.787254
0.817352
0.867213
0.934838
1.0155
1.08908
1.14678
1.19493
1.24073
1.2876
1.33707
1.37821
1.39678
1.39987
1.4
1.40001
1.40001
1.40001
1.40001
1.40001
1.40001
1.40001
1.40001
1.40001
1.40001
1.40001
1.40001
1.40001
1.40001
1.40001
1.40001
1.40001
1.40001
1.40001
1.40001
1.40001
1.40001
1.40001
1.40001
1.40001
0.311952
0.312551
0.312684
0.313179
0.316853
0.321335
0.324689
0.33123
0.339459
0.347625
0.357328
0.36448
0.37243
0.383213
0.391298
0.398147
0.407938
0.417103
0.42509
0.434975
0.445835
0.456134
0.467631
0.479535
0.493107
0.50604
0.520504
0.535738
0.551786
0.567949
0.585018
0.603362
0.62173
0.64193
0.661998
0.684032
0.707645
0.734235
0.761971
0.790633
0.818665
0.846243
0.881287
0.935607
1.00436
1.07639
1.14345
1.19726
1.24518
1.29602
1.34787
1.38531
1.39844
1.39996
1.4
1.40001
1.40001
1.40001
1.40001
1.40001
1.40001
1.40001
1.40001
1.40001
1.40001
1.40001
1.40001
1.40001
1.40001
1.40001
1.40001
1.40001
1.40001
1.40001
1.40001
1.40001
1.40001
1.40001
1.40001
1.40001
0.314654
0.317399
0.322354
0.32728
0.331086
0.338121
0.346818
0.352665
0.359361
0.366503
0.373972
0.382069
0.388278
0.395417
0.405004
0.412418
0.420367
0.430524
0.441134
0.450393
0.461828
0.474096
0.485911
0.498659
0.511705
0.526139
0.539645
0.554137
0.570017
0.58676
0.603816
0.622166
0.642069
0.663252
0.685355
0.707763
0.731828
0.75689
0.784068
0.813373
0.844321
0.874316
0.905183
0.945005
1.0022
1.07169
1.13701
1.19508
1.2504
1.30767
1.36047
1.39158
1.39942
1.4
1.4
1.40001
1.40001
1.40001
1.40001
1.40001
1.40001
1.40001
1.40001
1.40001
1.40001
1.40001
1.40001
1.40001
1.40001
1.40001
1.40001
1.40001
1.40001
1.40001
1.40001
1.40001
1.40001
1.40001
1.40001
1.40001
0.324946
0.328549
0.333309
0.339735
0.345119
0.349551
0.357069
0.364037
0.369647
0.377241
0.383544
0.391357
0.400965
0.408408
0.416756
0.42756
0.437121
0.447074
0.45768
0.469358
0.480138
0.491726
0.504089
0.516516
0.52897
0.542374
0.557435
0.572835
0.587846
0.604469
0.62277
0.641486
0.661616
0.682478
0.705375
0.729891
0.755296
0.781691
0.809048
0.838707
0.870181
0.903406
0.937864
0.976939
1.02544
1.08308
1.1415
1.20001
1.26185
1.32426
1.37411
1.39624
1.39985
1.4
1.40001
1.40001
1.40001
1.40001
1.40001
1.40001
1.40001
1.40001
1.40001
1.40001
1.40001
1.40001
1.40001
1.40001
1.40001
1.40001
1.40001
1.40001
1.40001
1.40001
1.40001
1.40001
1.40001
1.40001
1.40001
1.40001
0.335128
0.340589
0.345114
0.350966
0.359938
0.367109
0.371276
0.379272
0.388527
0.395455
0.40376
0.411694
0.420034
0.429517
0.4378
0.446715
0.45655
0.465862
0.475885
0.486138
0.497114
0.508408
0.520315
0.533042
0.547178
0.561035
0.575512
0.591469
0.6093
0.626915
0.645143
0.664996
0.685633
0.707927
0.730563
0.75421
0.779669
0.807178
0.836706
0.867971
0.900628
0.932647
0.964125
0.999265
1.04402
1.09892
1.15869
1.2204
1.2847
1.34616
1.38657
1.39883
1.39998
1.4
1.40001
1.40001
1.40001
1.40001
1.40001
1.40001
1.40001
1.40001
1.40001
1.40001
1.40001
1.40001
1.40001
1.40001
1.40001
1.40001
1.40001
1.40001
1.40001
1.40001
1.40001
1.40001
1.40001
1.40001
1.40001
1.40001
0.352193
0.358966
0.365498
0.370837
0.376768
0.384939
0.391989
0.396991
0.404765
0.412299
0.419133
0.427417
0.434829
0.442928
0.452139
0.460472
0.470161
0.480477
0.490833
0.501942
0.513836
0.525981
0.538961
0.552812
0.566408
0.581839
0.597859
0.61418
0.63045
0.648416
0.668056
0.68859
0.709843
0.731494
0.7551
0.780656
0.807622
0.83509
0.863191
0.893882
0.928421
0.965688
1.0029
1.03921
1.07691
1.12052
1.17519
1.24149
1.31155
1.36854
1.3951
1.39979
1.4
1.40001
1.40001
1.40001
1.40001
1.40001
1.40001
1.40001
1.40001
1.40001
1.40001
1.40001
1.40001
1.40001
1.40001
1.40001
1.40001
1.40001
1.40001
1.40001
1.40001
1.40001
1.40001
1.40001
1.40001
1.40001
1.40001
1.40001
0.367862
0.373147
0.379906
0.386355
0.39126
0.396257
0.404983
0.412792
0.41762
0.425754
0.434279
0.441749
0.450946
0.459595
0.468773
0.479341
0.489097
0.499829
0.511313
0.523067
0.534876
0.547835
0.560948
0.574264
0.588852
0.603567
0.619198
0.635604
0.653528
0.672065
0.691101
0.711315
0.733065
0.756818
0.781362
0.806453
0.833161
0.862305
0.893417
0.925849
0.959528
0.994914
1.03299
1.074
1.11776
1.16554
1.22053
1.28397
1.3467
1.38726
1.39898
1.39999
1.4
1.40001
1.40001
1.40001
1.40001
1.40001
1.40001
1.40001
1.40001
1.40001
1.40001
1.40001
1.40001
1.40001
1.40001
1.40001
1.40001
1.40001
1.40001
1.40001
1.40001
1.40001
1.40001
1.40001
1.40001
1.40001
1.40001
1.40001
0.385499
0.390879
0.396452
0.403503
0.411047
0.417063
0.422329
0.430914
0.439428
0.445806
0.454378
0.463003
0.471136
0.480843
0.489886
0.499361
0.510193
0.520229
0.530925
0.542322
0.554294
0.566405
0.579608
0.593729
0.608174
0.623824
0.640282
0.657574
0.675465
0.694683
0.715262
0.737037
0.759426
0.782647
0.807605
0.834159
0.862009
0.891255
0.922377
0.955823
0.991534
1.02883
1.06736
1.10777
1.15201
1.20335
1.26364
1.32747
1.37703
1.3971
1.39991
1.4
1.40001
1.40001
1.40001
1.40001
1.40001
1.40001
1.40001
1.40001
1.40001
1.40001
1.40001
1.40001
1.40001
1.40001
1.40001
1.40001
1.40001
1.40001
1.40001
1.40001
1.40001
1.40001
1.40001
1.40001
1.40001
1.40001
1.40001
1.40001
0.402104
0.408415
0.413847
0.419262
0.42577
0.433883
0.440815
0.44593
0.454261
0.463084
0.469793
0.478507
0.487497
0.495792
0.5061
0.516139
0.526007
0.537766
0.549463
0.561362
0.574152
0.587932
0.601924
0.616522
0.632122
0.648409
0.665443
0.683193
0.701872
0.721695
0.742484
0.764468
0.787557
0.811832
0.837392
0.86449
0.893471
0.924214
0.956292
0.989659
1.02505
1.0637
1.10594
1.15132
1.20057
1.25578
1.31582
1.36812
1.39454
1.39973
1.4
1.40001
1.40001
1.40001
1.40001
1.40001
1.40001
1.40001
1.40001
1.40001
1.40001
1.40001
1.40001
1.40001
1.40001
1.40001
1.40001
1.40001
1.40001
1.40001
1.40001
1.40001
1.40001
1.40001
1.40001
1.40001
1.40001
1.40001
1.40001
1.40001
0.419362
0.425296
0.432262
0.438497
0.444329
0.450529
0.459034
0.467455
0.473668
0.482009
0.491428
0.499465
0.508982
0.519053
0.528353
0.539175
0.550333
0.560947
0.572892
0.585406
0.59817
0.611625
0.625791
0.640664
0.656387
0.672916
0.689817
0.70789
0.727376
0.747911
0.768888
0.790972
0.8149
0.840501
0.867126
0.894478
0.923322
0.95472
0.988902
1.02505
1.06247
1.10163
1.14412
1.19187
1.24633
1.30606
1.36059
1.39184
1.39946
1.4
1.40001
1.40001
1.40001
1.40001
1.40001
1.40001
1.40001
1.40001
1.40001
1.40001
1.40001
1.40001
1.40001
1.40001
1.40001
1.40001
1.40001
1.40001
1.40001
1.40001
1.40001
1.40001
1.40001
1.40001
1.40001
1.40001
1.40001
1.40001
1.40001
1.40001
0.438051
0.443543
0.449468
0.456601
0.463937
0.4708
0.476905
0.484989
0.494251
0.5015
0.509779
0.51951
0.528275
0.537964
0.548578
0.558653
0.569698
0.581639
0.593518
0.606264
0.619744
0.633671
0.648516
0.66432
0.680334
0.697219
0.715561
0.734744
0.754194
0.77484
0.79738
0.821245
0.845557
0.870608
0.897503
0.926837
0.958069
0.990482
1.02407
1.0594
1.09752
1.13969
1.18681
1.23971
1.29783
1.35338
1.38881
1.39908
1.39999
1.4
1.40001
1.40001
1.40001
1.40001
1.40001
1.40001
1.40001
1.40001
1.40001
1.40001
1.40001
1.40001
1.40001
1.40001
1.40001
1.40001
1.40001
1.40001
1.40001
1.40001
1.40001
1.40001
1.40001
1.40001
1.40001
1.40001
1.40001
1.40001
1.40001
1.40001
0.45661
0.463336
0.469452
0.475515
0.482523
0.490504
0.498738
0.505773
0.513396
0.522965
0.531718
0.540507
0.550589
0.560587
0.571024
0.582317
0.593622
0.605668
0.618586
0.6315
0.645411
0.660404
0.675343
0.691006
0.708194
0.726026
0.743903
0.763116
0.784217
0.806171
0.828338
0.851721
0.877283
0.904578
0.932699
0.961748
0.992765
1.02653
1.06286
1.10114
1.14152
1.18547
1.23512
1.29092
1.34653
1.38534
1.39852
1.39997
1.4
1.40001
1.40001
1.40001
1.40001
1.40001
1.40001
1.40001
1.40001
1.40001
1.40001
1.40001
1.40001
1.40001
1.40001
1.40001
1.40001
1.40001
1.40001
1.40001
1.40001
1.40001
1.40001
1.40001
1.40001
1.40001
1.40001
1.40001
1.40001
1.40001
1.40001
1.40001
0.476595
0.482489
0.489634
0.496993
0.503895
0.510797
0.518591
0.527613
0.535883
0.54394
0.55357
0.563127
0.57282
0.583553
0.594149
0.605363
0.617701
0.629792
0.642531
0.656648
0.670871
0.685351
0.701308
0.718123
0.734945
0.752775
0.772264
0.792575
0.813277
0.835264
0.859086
0.884125
0.909868
0.936834
0.965855
0.997079
1.03
1.06436
1.10065
1.13986
1.18326
1.23209
1.28646
1.34135
1.38209
1.39782
1.39993
1.4
1.40001
1.40001
1.40001
1.40001
1.40001
1.40001
1.40001
1.40001
1.40001
1.40001
1.40001
1.40001
1.40001
1.40001
1.40001
1.40001
1.40001
1.40001
1.40001
1.40001
1.40001
1.40001
1.40001
1.40001
1.40001
1.40001
1.40001
1.40001
1.40001
1.40001
1.40001
1.40001
0.497551
0.504188
0.510655
0.517647
0.525512
0.533708
0.541249
0.549064
0.558415
0.567563
0.576564
0.58677
0.59703
0.607482
0.619181
0.630927
0.642727
0.655926
0.669684
0.683317
0.698122
0.714024
0.730054
0.746788
0.764898
0.7838
0.803204
0.823861
0.84607
0.869243
0.893168
0.918438
0.945517
0.974212
1.00426
1.0359
1.06964
1.10581
1.14461
1.18668
1.23334
1.28531
1.33857
1.37977
1.39717
1.39989
1.4
1.40001
1.40001
1.40001
1.40001
1.40001
1.40001
1.40001
1.40001
1.40001
1.40001
1.40001
1.40001
1.40001
1.40001
1.40001
1.40001
1.40001
1.40001
1.40001
1.40001
1.40001
1.40001
1.40001
1.40001
1.40001
1.40001
1.40001
1.40001
1.40001
1.40001
1.40001
1.40001
1.40001
0.519346
0.526158
0.533437
0.540834
0.548239
0.555945
0.564738
0.57354
0.581916
0.591451
0.601647
0.611373
0.622142
0.633682
0.644871
0.657003
0.67012
0.683137
0.696814
0.711686
0.726963
0.742689
0.759515
0.777192
0.795416
0.814663
0.835221
0.856759
0.879165
0.902814
0.927923
0.954358
0.982105
1.01147
1.04275
1.07599
1.11123
1.14889
1.18994
1.23562
1.2863
1.33809
1.37872
1.39675
1.39986
1.4
1.40001
1.40001
1.40001
1.40001
1.40001
1.40001
1.40001
1.40001
1.40001
1.40001
1.40001
1.40001
1.40001
1.40001
1.40001
1.40001
1.40001
1.40001
1.40001
1.40001
1.40001
1.40001
1.40001
1.40001
1.40001
1.40001
1.40001
1.40001
1.40001
1.40001
1.40001
1.40001
1.40001
1.40001
0.542688
0.54946
0.556745
0.564712
0.572596
0.580738
0.58896
0.597951
0.607796
0.617188
0.627062
0.638086
0.649037
0.660288
0.672603
0.685176
0.698016
0.711882
0.726418
0.741318
0.757064
0.773706
0.790954
0.808997
0.828114
0.848215
0.869254
0.891437
0.914863
0.939457
0.965285
0.992596
1.02158
1.05229
1.08481
1.11937
1.15643
1.19673
1.24128
1.29032
1.34009
1.37909
1.39666
1.39984
1.4
1.40001
1.40001
1.40001
1.40001
1.40001
1.40001
1.40001
1.40001
1.40001
1.40001
1.40001
1.40001
1.40001
1.40001
1.40001
1.40001
1.40001
1.40001
1.40001
1.40001
1.40001
1.40001
1.40001
1.40001
1.40001
1.40001
1.40001
1.40001
1.40001
1.40001
1.40001
1.40001
1.40001
1.40001
1.40001
0.566936
0.574518
0.581951
0.589395
0.597705
0.606469
0.615505
0.624599
0.63396
0.644268
0.654925
0.665594
0.677078
0.689174
0.701434
0.714375
0.728099
0.742261
0.757059
0.772714
0.789052
0.806063
0.823938
0.842725
0.862435
0.8832
0.905094
0.928088
0.95223
0.977682
1.00459
1.03306
1.06321
1.09519
1.12923
1.16572
1.20536
1.24905
1.29674
1.34434
1.3808
1.39693
1.39985
1.4
1.40001
1.40001
1.40001
1.40001
1.40001
1.40001
1.40001
1.40001
1.40001
1.40001
1.40001
1.40001
1.40001
1.40001
1.40001
1.40001
1.40001
1.40001
1.40001
1.40001
1.40001
1.40001
1.40001
1.40001
1.40001
1.40001
1.40001
1.40001
1.40001
1.40001
1.40001
1.40001
1.40001
1.40001
1.40001
1.40001
0.592916
0.6001
0.60804
0.616602
0.624938
0.633517
0.642672
0.652416
0.662563
0.672825
0.683608
0.695103
0.706915
0.719144
0.732065
0.745526
0.759519
0.774254
0.789712
0.805822
0.822674
0.840339
0.858848
0.878301
0.898798
0.920361
0.943016
0.96685
0.991968
1.01848
1.04653
1.07625
1.10781
1.1414
1.17743
1.21655
1.25948
1.30573
1.35066
1.38365
1.3975
1.39988
1.4
1.40001
1.40001
1.40001
1.40001
1.40001
1.40001
1.40001
1.40001
1.40001
1.40001
1.40001
1.40001
1.40001
1.40001
1.40001
1.40001
1.40001
1.40001
1.40001
1.40001
1.40001
1.40001
1.40001
1.40001
1.40001
1.40001
1.40001
1.40001
1.40001
1.40001
1.40001
1.40001
1.40001
1.40001
1.40001
1.40001
1.40001
0.620073
0.628032
0.636074
0.644269
0.653157
0.66249
0.672041
0.681884
0.692173
0.703045
0.714356
0.72604
0.738278
0.75107
0.764356
0.778262
0.792863
0.808128
0.824084
0.840783
0.858246
0.876535
0.895755
0.915984
0.937269
0.959656
0.983208
1.00801
1.0342
1.06191
1.09129
1.12249
1.15574
1.19143
1.23016
1.27238
1.31701
1.35864
1.38723
1.3982
1.39992
1.4
1.40001
1.40001
1.40001
1.40001
1.40001
1.40001
1.40001
1.40001
1.40001
1.40001
1.40001
1.40001
1.40001
1.40001
1.40001
1.40001
1.40001
1.40001
1.40001
1.40001
1.40001
1.40001
1.40001
1.40001
1.40001
1.40001
1.40001
1.40001
1.40001
1.40001
1.40001
1.40001
1.40001
1.40001
1.40001
1.40001
1.40001
1.40001
0.64902
0.656972
0.665417
0.67432
0.683407
0.69281
0.7027
0.713058
0.723823
0.734987
0.746645
0.758838
0.771509
0.784699
0.798503
0.812956
0.828078
0.843909
0.86046
0.877752
0.895858
0.914874
0.934882
0.955941
0.978099
1.00141
1.02598
1.05192
1.07938
1.10849
1.13943
1.17245
1.20792
1.24633
1.28775
1.33027
1.36769
1.39102
1.39889
1.39996
1.4
1.40001
1.40001
1.40001
1.40001
1.40001
1.40001
1.40001
1.40001
1.40001
1.40001
1.40001
1.40001
1.40001
1.40001
1.40001
1.40001
1.40001
1.40001
1.40001
1.40001
1.40001
1.40001
1.40001
1.40001
1.40001
1.40001
1.40001
1.40001
1.40001
1.40001
1.40001
1.40001
1.40001
1.40001
1.40001
1.40001
1.40001
1.40001
1.40001
0.679544
0.687939
0.696672
0.705714
0.715187
0.725084
0.735358
0.746027
0.757152
0.768781
0.780899
0.793494
0.806611
0.820309
0.834639