/*--------------------------------*- C++ -*----------------------------------*\
  =========                 |
  \\      /  F ield         | OpenFOAM: The Open Source CFD Toolbox
   \\    /   O peration     | Website:  https://openfoam.org
    \\  /    A nd           | Version:  7
     \\/     M anipulation  |
\*---------------------------------------------------------------------------*/
FoamFile
{
    version     2.0;
    format      ascii;
    class       volScalarField;
    location    "8.5";
    object      p;
}
// * * * * * * * * * * * * * * * * * * * * * * * * * * * * * * * * * * * * * //

dimensions      [1 -1 -2 0 0 0 0];

internalField   nonuniform List<scalar> 
90000
(
0.128045
0.174058
0.214831
0.261764
0.288084
0.306169
0.343392
0.378316
0.404479
0.441648
0.485904
0.530402
0.577482
0.629316
0.682229
0.73627
0.787375
0.838058
0.877882
0.915298
0.934449
0.953292
0.958844
0.958164
0.954981
0.949984
0.939629
0.932076
0.923035
0.921742
0.921187
0.924037
0.926733
0.928967
0.924884
0.91659
0.905183
0.890785
0.879617
0.87925
0.887049
0.899331
0.917106
0.938258
0.954196
0.964907
0.961612
0.951798
0.935516
0.921324
0.909383
0.907151
0.909718
0.920646
0.934037
0.944269
0.949501
0.942912
0.931658
0.918781
0.914083
0.915566
0.924602
0.934531
0.94227
0.936208
0.926867
0.921317
0.920669
0.927523
0.940127
0.938576
0.931843
0.925556
0.925374
0.929931
0.933648
0.930664
0.927432
0.929307
0.935332
0.933893
0.930424
0.927932
0.92787
0.929644
0.929612
0.92927
0.930257
0.933952
0.939421
0.94389
0.946551
0.94955
0.954095
0.95818
0.961439
0.966654
0.973007
0.981054
0.0829128
0.0828948
0.0828752
0.0828577
0.0828416
0.0828295
0.0828156
0.08281
0.08277
0.0831728
0.0850542
0.0898045
0.0976703
0.111375
0.131352
0.158666
0.195627
0.240068
0.296827
0.361885
0.436001
0.511479
0.587248
0.658149
0.719296
0.77694
0.821868
0.862961
0.888497
0.914152
0.923203
0.933574
0.934554
0.936536
0.93077
0.928116
0.925616
0.9233
0.922787
0.925886
0.93302
0.936273
0.940096
0.944014
0.941836
0.931046
0.921772
0.916589
0.914163
0.917124
0.92375
0.930168
0.935636
0.9394
0.943022
0.937991
0.931304
0.925588
0.92204
0.922954
0.927012
0.932397
0.936618
0.936621
0.932584
0.925859
0.922422
0.924779
0.930921
0.939116
0.937408
0.931808
0.926979
0.927201
0.931019
0.934338
0.931973
0.928319
0.928466
0.932045
0.93214
0.930471
0.928601
0.927978
0.928868
0.930162
0.931191
0.931761
0.932994
0.935099
0.937513
0.941105
0.946613
0.952783
0.958013
0.962503
0.965313
0.967423
0.971622
0.981123
0.0829338
0.0829357
0.0829384
0.082941
0.0829437
0.0829466
0.082949
0.0829514
0.0829526
0.0829618
0.0829265
0.082882
0.0828419
0.0828058
0.0827787
0.0827547
0.0827419
0.0827276
0.0827338
0.0826958
0.0841003
0.0891448
0.103045
0.12547
0.160807
0.205309
0.265
0.330496
0.408498
0.48696
0.566484
0.643403
0.714907
0.784652
0.840997
0.898133
0.937736
0.974838
0.994209
0.998669
0.994099
0.985389
0.96969
0.943342
0.91269
0.885585
0.870518
0.875175
0.893016
0.916719
0.93819
0.954264
0.959294
0.952848
0.938537
0.921816
0.910574
0.908483
0.912631
0.922959
0.934513
0.940119
0.936474
0.929143
0.924445
0.925621
0.930353
0.934471
0.936909
0.933099
0.928881
0.92759
0.928335
0.930201
0.932544
0.931192
0.9306
0.929867
0.930866
0.930884
0.931445
0.930536
0.92816
0.927613
0.92924
0.931498
0.93306
0.935001
0.938792
0.941682
0.94152
0.941347
0.943147
0.949018
0.959037
0.967897
0.971876
0.97326
0.973587
0.978546
0.0828831
0.0828816
0.082881
0.0828801
0.0828797
0.0828793
0.0828795
0.0828802
0.0828822
0.0828834
0.0828851
0.0828903
0.0828962
0.0829028
0.0829083
0.0829151
0.0829213
0.0829272
0.0829321
0.0829376
0.082923
0.0829025
0.0828845
0.0828693
0.0828587
0.082847
0.0828412
0.0828145
0.0835667
0.0883757
0.103796
0.129142
0.173429
0.22991
0.310239
0.401699
0.504809
0.610037
0.703636
0.78048
0.844125
0.874068
0.905463
0.90392
0.89922
0.903044
0.908566
0.918939
0.925437
0.930021
0.936384
0.942367
0.941667
0.931503
0.922973
0.921839
0.923016
0.927491
0.930007
0.933265
0.936139
0.932337
0.92695
0.92391
0.923702
0.926258
0.93122
0.937642
0.939055
0.935192
0.929435
0.9269
0.92904
0.932159
0.932397
0.930943
0.929871
0.930516
0.932021
0.933096
0.931629
0.928487
0.927589
0.929291
0.931188
0.931337
0.930293
0.931842
0.935613
0.940805
0.945818
0.948494
0.949744
0.951708
0.955342
0.961977
0.972122
0.980528
0.981577
0.981574
0.0828832
0.0828886
0.082895
0.082901
0.0829063
0.0829118
0.0829172
0.0829228
0.0829281
0.0829334
0.0829384
0.0829439
0.0829471
0.082949
0.0829485
0.0829485
0.0829462
0.0829458
0.0829418
0.08294
0.0829384
0.0829347
0.0829321
0.082929
0.0829286
0.0829274
0.0829241
0.0829235
0.0829061
0.0828865
0.0828688
0.0828585
0.0828511
0.0828521
0.0828458
0.083008
0.0914291
0.113286
0.160216
0.228759
0.325567
0.443334
0.573291
0.695592
0.803086
0.894663
0.926985
0.95214
0.94983
0.945254
0.937823
0.924319
0.906185
0.889795
0.898099
0.911835
0.925698
0.935266
0.942506
0.941271
0.933082
0.921486
0.919592
0.923014
0.930334
0.938694
0.937231
0.933138
0.928521
0.926357
0.926964
0.929003
0.930747
0.932266
0.931932
0.929787
0.930167
0.932518
0.934093
0.930871
0.927293
0.925929
0.927175
0.930632
0.932521
0.932699
0.934117
0.937361
0.941024
0.942911
0.943177
0.945968
0.952736
0.959802
0.963548
0.965375
0.968365
0.974191
0.982091
0.987966
0.0829583
0.0829616
0.0829655
0.0829691
0.0829718
0.0829744
0.0829767
0.0829777
0.0829783
0.0829781
0.0829794
0.0829786
0.0829767
0.0829716
0.0829659
0.0829597
0.0829546
0.0829483
0.0829429
0.0829382
0.0829331
0.0829287
0.0829241
0.0829195
0.0829159
0.0829116
0.082908
0.0829021
0.0828969
0.0828935
0.0828935
0.0828991
0.0829066
0.0829194
0.0829355
0.082962
0.0829769
0.082992
0.0829943
0.0829937
0.0829785
0.086628
0.104608
0.157399
0.246432
0.380485
0.514311
0.653322
0.743381
0.819751
0.849201
0.875121
0.878676
0.890254
0.912263
0.932452
0.945333
0.950499
0.948955
0.940078
0.924324
0.913029
0.915094
0.921175
0.928433
0.939695
0.941112
0.936643
0.92829
0.923048
0.923917
0.930097
0.934025
0.930392
0.927496
0.927505
0.929781
0.933356
0.934317
0.930789
0.92759
0.928388
0.931057
0.931906
0.931381
0.931089
0.932778
0.937113
0.940611
0.943035
0.945516
0.948816
0.953786
0.959767
0.965566
0.970526
0.974208
0.976201
0.978279
0.98517
0.0829932
0.082993
0.0829922
0.0829913
0.0829901
0.0829888
0.0829864
0.0829832
0.0829795
0.0829773
0.0829749
0.082971
0.0829646
0.0829562
0.0829474
0.0829388
0.0829313
0.0829247
0.0829195
0.0829147
0.0829108
0.0829077
0.0829057
0.0829054
0.0829058
0.0829086
0.0829109
0.0829113
0.0829155
0.0829199
0.0829242
0.0829313
0.0829423
0.0829536
0.0829677
0.0829887
0.0830097
0.083024
0.0830226
0.0830158
0.0830083
0.0829912
0.0829765
0.0829691
0.08297
0.0829746
0.096152
0.135152
0.221641
0.340659
0.487719
0.64213
0.769571
0.854517
0.910787
0.919239
0.931302
0.939562
0.93382
0.914654
0.91185
0.916506
0.928086
0.936425
0.937277
0.935985
0.933661
0.928583
0.925709
0.925528
0.928725
0.931503
0.932829
0.930276
0.927998
0.92965
0.93322
0.933817
0.93141
0.927694
0.925856
0.926579
0.929981
0.932492
0.932372
0.933182
0.936264
0.940116
0.943687
0.944889
0.945798
0.950768
0.956223
0.96018
0.965615
0.971104
0.976011
0.980675
0.982297
0.985415
0.0829785
0.0829766
0.0829747
0.082972
0.0829691
0.082966
0.0829613
0.0829554
0.0829502
0.0829466
0.0829425
0.0829366
0.0829278
0.0829181
0.0829084
0.0829013
0.0828973
0.0828953
0.0828958
0.0828981
0.0829005
0.082905
0.0829124
0.082921
0.08293
0.0829412
0.0829496
0.0829563
0.0829639
0.0829686
0.0829708
0.0829762
0.082983
0.0829873
0.0829955
0.0830088
0.0830184
0.0830187
0.083011
0.0830007
0.08299
0.0829803
0.0829741
0.0829752
0.082989
0.0830082
0.0830204
0.0830325
0.0830374
0.0830297
0.0944032
0.13579
0.23539
0.376159
0.545342
0.673272
0.785321
0.855459
0.878199
0.89301
0.909149
0.935388
0.957878
0.952086
0.940822
0.928657
0.923317
0.921977
0.924007
0.931494
0.937527
0.934847
0.928932
0.926726
0.927266
0.93088
0.933956
0.933359
0.928345
0.926112
0.92761
0.930747
0.93119
0.930805
0.931536
0.933983
0.938563
0.941581
0.942659
0.945789
0.949072
0.952313
0.96004
0.964119
0.966765
0.971807
0.976564
0.979261
0.983588
0.988551
0.0829498
0.0829466
0.0829434
0.0829398
0.0829359
0.0829314
0.082926
0.0829203
0.0829157
0.0829112
0.0829057
0.082899
0.0828917
0.0828857
0.0828821
0.0828832
0.0828898
0.0828988
0.0829106
0.0829236
0.0829354
0.082948
0.0829634
0.0829772
0.0829895
0.0829998
0.083006
0.0830111
0.0830166
0.0830179
0.0830154
0.0830141
0.0830138
0.0830108
0.0830129
0.0830187
0.0830174
0.0830128
0.0830047
0.0829905
0.0829805
0.0829728
0.0829698
0.0829796
0.0830046
0.0830282
0.0830382
0.0830422
0.0830439
0.0830398
0.0830328
0.0830279
0.0830237
0.0830052
0.101642
0.171909
0.28665
0.456214
0.633928
0.798325
0.881617
0.924861
0.946045
0.945784
0.940108
0.917951
0.915509
0.92177
0.932961
0.940756
0.937891
0.930287
0.924184
0.924708
0.930361
0.936326
0.935029
0.930469
0.924113
0.924688
0.928605
0.932129
0.932586
0.932188
0.932706
0.936243
0.940347
0.942718
0.942637
0.943575
0.94945
0.956487
0.958724
0.96573
0.970609
0.973328
0.978033
0.981532
0.982253
0.987298
0.0829106
0.0829052
0.0828997
0.0828952
0.0828911
0.0828882
0.0828874
0.0828886
0.0828891
0.0828875
0.0828848
0.0828826
0.082883
0.0828886
0.0828983
0.0829146
0.082935
0.082954
0.0829736
0.0829919
0.0830063
0.0830206
0.0830333
0.0830415
0.0830466
0.083048
0.0830467
0.0830463
0.0830443
0.0830376
0.0830307
0.0830251
0.0830191
0.0830139
0.0830124
0.0830117
0.0830095
0.083005
0.0829932
0.0829734
0.0829624
0.0829565
0.0829608
0.0829793
0.0830221
0.0830397
0.0830363
0.0830325
0.0830305
0.0830249
0.0830172
0.0830095
0.0830122
0.0830182
0.0830146
0.0829741
0.0829673
0.0905887
0.13789
0.254499
0.440704
0.615595
0.788497
0.851243
0.890931
0.896742
0.91874
0.937092
0.948272
0.943743
0.934795
0.922227
0.922811
0.929748
0.939274
0.938419
0.933583
0.923727
0.921885
0.92696
0.934232
0.933946
0.931778
0.931203
0.932782
0.937445
0.941065
0.943123
0.945142
0.94747
0.951563
0.958797
0.962798
0.965215
0.971039
0.975999
0.977277
0.982653
0.986324
0.989379
0.0828814
0.0828806
0.0828813
0.0828837
0.082886
0.0828893
0.0828939
0.0828977
0.0829012
0.0829061
0.0829121
0.0829185
0.0829282
0.0829437
0.0829651
0.0829934
0.0830172
0.0830335
0.0830476
0.0830607
0.0830711
0.0830792
0.0830842
0.0830854
0.0830788
0.0830667
0.0830582
0.0830547
0.0830481
0.0830363
0.0830275
0.0830202
0.083014
0.0830086
0.0830048
0.0830035
0.083001
0.0829943
0.0829785
0.0829574
0.0829453
0.0829433
0.0829495
0.0829792
0.0830304
0.0830419
0.0830325
0.0830192
0.0830081
0.0830042
0.0829966
0.0829883
0.0830016
0.0830255
0.0830283
0.0830372
0.0830855
0.083115
0.0831833
0.0832466
0.0893028
0.132411
0.250081
0.45124
0.66985
0.819081
0.910371
0.922833
0.938056
0.935927
0.915126
0.918014
0.930247
0.940424
0.941074
0.935818
0.922731
0.919104
0.92389
0.934851
0.936109
0.933299
0.929972
0.930907
0.936661
0.942171
0.94311
0.943179
0.944656
0.948553
0.953346
0.958327
0.965679
0.967777
0.970727
0.976427
0.980518
0.980467
0.984691
0.991416
0.082918
0.0829216
0.0829259
0.0829317
0.0829375
0.082944
0.0829544
0.0829636
0.0829695
0.0829755
0.0829831
0.0829914
0.0830007
0.0830135
0.0830369
0.0830671
0.083081
0.0830829
0.0830836
0.0830884
0.0830932
0.0830929
0.0830911
0.0830864
0.0830717
0.0830475
0.0830382
0.0830331
0.0830222
0.0830109
0.0830054
0.0830018
0.083
0.0829991
0.0829986
0.0829998
0.0829983
0.082989
0.0829668
0.0829501
0.082939
0.0829323
0.0829392
0.082978
0.0830254
0.0830293
0.0830175
0.0829931
0.0829813
0.0829809
0.0829833
0.0829787
0.0829897
0.0830142
0.0830476
0.0831618
0.0832587
0.0832811
0.0833024
0.0833532
0.0834042
0.0833879
0.0832445
0.0912978
0.14705
0.306532
0.54102
0.702831
0.853839
0.875727
0.900356
0.922746
0.951643
0.950479
0.94198
0.919705
0.915019
0.921318
0.936656
0.940672
0.936172
0.928311
0.928563
0.935009
0.942566
0.944049
0.943252
0.943204
0.946308
0.953002
0.958293
0.961603
0.966263
0.970209
0.973172
0.976142
0.981145
0.984377
0.985153
0.989259
0.0829747
0.082976
0.0829796
0.0829867
0.0829936
0.0829992
0.0830117
0.0830289
0.0830296
0.0830268
0.0830293
0.0830327
0.0830343
0.0830397
0.0830572
0.0830753
0.083078
0.0830746
0.0830692
0.0830661
0.0830642
0.0830633
0.0830603
0.0830513
0.0830258
0.0830028
0.0829961
0.0829941
0.0829905
0.0829879
0.0829897
0.0829942
0.0830008
0.0830085
0.0830152
0.0830239
0.0830281
0.0830176
0.0829939
0.082979
0.0829633
0.0829443
0.082949
0.0829846
0.0830032
0.0829978
0.0829777
0.0829719
0.082974
0.0829804
0.0829985
0.0830129
0.0830042
0.0830108
0.0831146
0.0833529
0.0834069
0.0833731
0.0833567
0.0833732
0.0833978
0.0833385
0.0831834
0.0830327
0.0828458
0.0826849
0.100795
0.205556
0.397822
0.626204
0.839311
0.913978
0.943581
0.942726
0.916852
0.903809
0.915677
0.937317
0.945356
0.939758
0.92665
0.925808
0.93197
0.941188
0.944719
0.94385
0.943012
0.944479
0.949344
0.95613
0.961118
0.963588
0.966144
0.971779
0.97556
0.977923
0.980954
0.985094
0.986895
0.990779
0.0830201
0.0830192
0.0830194
0.0830189
0.0830184
0.0830173
0.0830188
0.0830254
0.0830267
0.0830255
0.0830281
0.0830295
0.0830275
0.0830294
0.0830356
0.0830366
0.0830337
0.0830278
0.0830196
0.0830144
0.0830086
0.0830027
0.0829987
0.0829921
0.082975
0.0829594
0.0829536
0.0829539
0.0829608
0.0829745
0.0829951
0.0830185
0.0830447
0.0830662
0.0830754
0.083081
0.0830755
0.08306
0.083041
0.0830203
0.0830007
0.0829918
0.0829974
0.0829984
0.0829902
0.0829593
0.0829477
0.0829643
0.0829812
0.082998
0.0830409
0.0830905
0.0830984
0.0831188
0.0832644
0.08344
0.083456
0.083416
0.0833957
0.0833871
0.0833537
0.0832033
0.0830314
0.0828632
0.082696
0.0826395
0.0826543
0.08274
0.0828959
0.143229
0.307694
0.542613
0.759134
0.846775
0.883681
0.906097
0.943221
0.958186
0.950474
0.925424
0.920392
0.928389
0.941979
0.946398
0.944681
0.942845
0.943485
0.94754
0.953789
0.958748
0.962784
0.965596
0.968589
0.973752
0.977487
0.979295
0.981577
0.985704
0.988321
0.992159
0.0830145
0.0830133
0.0830112
0.0830082
0.0830031
0.0829986
0.0829964
0.0829946
0.0829934
0.0829942
0.082994
0.0829896
0.0829835
0.0829802
0.0829784
0.0829758
0.0829732
0.0829712
0.0829686
0.0829675
0.0829647
0.0829597
0.082958
0.0829578
0.0829528
0.0829448
0.0829422
0.0829434
0.0829542
0.0829892
0.0830391
0.0830851
0.0831191
0.0831391
0.0831465
0.0831379
0.0831046
0.0830837
0.0830754
0.0830573
0.0830465
0.0830408
0.0830204
0.0829934
0.0829496
0.0829099
0.0829244
0.0829821
0.0830133
0.0830474
0.0831246
0.0832273
0.0832562
0.083264
0.0833461
0.0834467
0.0834548
0.0834265
0.0833673
0.0833039
0.0831555
0.0829413
0.0827987
0.0827
0.082632
0.0826316
0.0827087
0.0829426
0.083321
0.0834734
0.0833851
0.113451
0.232513
0.469908
0.742801
0.888383
0.944342
0.948457
0.925943
0.912322
0.923297
0.943976
0.947696
0.945029
0.942408
0.942578
0.94577
0.952111
0.958252
0.960766
0.963681
0.967376
0.971021
0.974805
0.978288
0.980559
0.982677
0.985513
0.988933
0.993396
0.0830055
0.0830019
0.082999
0.0829965
0.0829917
0.0829828
0.0829767
0.0829716
0.0829677
0.0829652
0.082961
0.0829511
0.0829451
0.0829446
0.0829467
0.082953
0.0829561
0.082956
0.0829554
0.0829556
0.0829543
0.0829513
0.082951
0.0829544
0.0829564
0.0829546
0.0829516
0.082954
0.0829847
0.083054
0.0830998
0.0831284
0.0831539
0.0831703
0.0831713
0.0831535
0.0831066
0.0830904
0.0830929
0.0830871
0.083073
0.0830467
0.0830061
0.0829572
0.0828978
0.0828799
0.0829258
0.0830703
0.0831208
0.0831596
0.0832654
0.0833848
0.0833835
0.0833489
0.0833667
0.0833858
0.0833487
0.0832513
0.083139
0.0830354
0.0828914
0.0827037
0.0826068
0.0825868
0.0826066
0.0826905
0.0829439
0.0832973
0.0835717
0.0835461
0.0833439
0.0830197
0.0827219
0.0951172
0.202041
0.444744
0.703266
0.828102
0.88761
0.911135
0.951499
0.960255
0.946982
0.939653
0.940018
0.943963
0.951401
0.957097
0.961171
0.96228
0.96499
0.969236
0.973713
0.97612
0.978745
0.981527
0.984096
0.986831
0.990261
0.994572
0.0829421
0.0829511
0.0829555
0.0829566
0.0829567
0.0829561
0.0829549
0.0829534
0.0829528
0.0829526
0.0829503
0.0829446
0.0829412
0.0829413
0.0829439
0.0829538
0.0829592
0.0829571
0.0829571
0.0829598
0.0829587
0.0829538
0.0829522
0.0829563
0.0829751
0.0829862
0.0829869
0.0829901
0.0830279
0.0830996
0.0831112
0.0831167
0.0831341
0.0831547
0.0831547
0.0831347
0.0830957
0.0830861
0.0830904
0.0830985
0.0830938
0.0830691
0.0830179
0.0829289
0.0828649
0.0828656
0.0829577
0.0831873
0.0832595
0.0833307
0.083451
0.0834894
0.0834422
0.0833653
0.0832999
0.0832128
0.0830743
0.0829392
0.0828502
0.0828061
0.082729
0.0825712
0.0825371
0.0825538
0.0826523
0.0829496
0.0833726
0.0836478
0.0836525
0.0834927
0.0832139
0.0829209
0.0826848
0.0831697
0.0838183
0.0930533
0.178741
0.406323
0.709523
0.877368
0.948464
0.950726
0.942878
0.936464
0.944436
0.951693
0.957396
0.959609
0.961599
0.963708
0.967421
0.971581
0.975675
0.977344
0.97965
0.982791
0.985634
0.987847
0.99038
0.994314
0.0829419
0.0829637
0.0829826
0.0829988
0.0830105
0.0830175
0.0830233
0.0830312
0.0830413
0.0830516
0.0830619
0.0830661
0.0830621
0.0830538
0.0830522
0.083053
0.0830472
0.0830318
0.0830311
0.0830315
0.0830195
0.0830085
0.0830118
0.083029
0.0830578
0.0830674
0.0830671
0.083062
0.0830482
0.0830324
0.083025
0.0830192
0.0830259
0.0830442
0.0830527
0.0830493
0.0830414
0.0830434
0.0830636
0.083094
0.0831016
0.0830932
0.0830334
0.0829215
0.0828692
0.082888
0.0830665
0.0832757
0.0833491
0.083472
0.0835349
0.0835241
0.0834537
0.0832569
0.083103
0.0829733
0.0828068
0.0827262
0.0827066
0.0827046
0.0826653
0.0825617
0.0825553
0.0826772
0.0829805
0.0835
0.0838632
0.0838185
0.0836026
0.0832691
0.0831267
0.0828891
0.0835503
0.0847248
0.0860593
0.0860259
0.0858367
0.0892833
0.177012
0.421727
0.711155
0.835411
0.90843
0.939867
0.958328
0.95492
0.957962
0.95957
0.963249
0.967374
0.970813
0.973518
0.976108
0.978498
0.980838
0.983845
0.986413
0.988731
0.991218
0.995328
0.083141
0.0831634
0.0831731
0.0831827
0.0831892
0.08319
0.0831871
0.083182
0.0831822
0.0831873
0.0831953
0.0831964
0.083189
0.0831748
0.0831632
0.0831393
0.0830919
0.0830717
0.0830769
0.083079
0.083063
0.0830528
0.0830573
0.083075
0.0830822
0.0830771
0.0830515
0.0830006
0.0829394
0.0828587
0.0828279
0.0828328
0.0828664
0.0828821
0.0829058
0.0829452
0.0829471
0.0829241
0.0829289
0.082984
0.0830436
0.0830337
0.0829602
0.0829248
0.082935
0.0830125
0.0832596
0.0833376
0.0833712
0.0834594
0.0834961
0.0834893
0.0833394
0.0830599
0.082948
0.0828099
0.0826488
0.0826347
0.0826679
0.0826875
0.0826919
0.082747
0.0829285
0.0832779
0.0837554
0.0842048
0.0841838
0.0839325
0.0834566
0.0831624
0.0832994
0.0845611
0.0862794
0.086766
0.0870347
0.0876227
0.0886492
0.0896753
0.0903109
0.0973575
0.184757
0.431469
0.742097
0.883388
0.947941
0.949771
0.962255
0.960604
0.966657
0.969689
0.973026
0.976085
0.977551
0.979606
0.981982
0.985366
0.987652
0.990312
0.99263
0.995888
0.0832321
0.083235
0.0832356
0.083236
0.0832374
0.0832374
0.0832361
0.0832337
0.083231
0.0832313
0.0832322
0.0832294
0.0832182
0.0832051
0.0831886
0.0831475
0.0830824
0.083062
0.0830632
0.0830612
0.0830391
0.0830136
0.0830062
0.0829921
0.0829541
0.082901
0.0828457
0.0828144
0.0827945
0.0827506
0.0827267
0.0827284
0.0827634
0.0827884
0.082816
0.08286
0.0828676
0.0828318
0.082826
0.0828803
0.0830209
0.0831591
0.0831749
0.0831449
0.0831302
0.0831859
0.0833372
0.0833577
0.0833155
0.0832605
0.0832294
0.0832073
0.0830843
0.0829412
0.0828775
0.0827435
0.0826163
0.0826129
0.082675
0.0827768
0.0829472
0.0833274
0.0838646
0.0843668
0.0846755
0.0846876
0.0845853
0.0839981
0.0837248
0.0842022
0.0855289
0.0872777
0.0891371
0.0891121
0.0889676
0.0897066
0.0916939
0.0939244
0.0959816
0.0969236
0.0974037
0.104999
0.206792
0.461564
0.767113
0.884529
0.952734
0.960814
0.975583
0.970386
0.972535
0.976422
0.979665
0.981639
0.983649
0.986092
0.988019
0.991117
0.99342
0.996704
0.0831757
0.0831813
0.0831802
0.0831743
0.0831623
0.0831446
0.0831222
0.0830997
0.0830784
0.0830593
0.0830401
0.0830123
0.0829841
0.0829617
0.0829192
0.082834
0.082767
0.0827161
0.082657
0.0826359
0.0826391
0.0826483
0.082667
0.082687
0.0826782
0.0826576
0.0826593
0.0826868
0.0827127
0.0827038
0.0826963
0.082701
0.0827461
0.0827971
0.0828666
0.0829459
0.0829476
0.0829663
0.0830888
0.0832126
0.0833657
0.083462
0.0834562
0.0833859
0.0833518
0.0833565
0.083375
0.083362
0.0832747
0.0831789
0.0831119
0.0830374
0.0829434
0.0828987
0.0828576
0.0827471
0.0827278
0.0828046
0.0830845
0.0835101
0.0840218
0.0846102
0.0851328
0.0855142
0.0853671
0.0852216
0.0852703
0.0856995
0.0867217
0.0884114
0.0896486
0.0900601
0.0909685
0.0921901
0.0934797
0.0942931
0.0954353
0.0978297
0.100111
0.101077
0.102666
0.103846
0.104618
0.118481
0.234689
0.51206
0.808406
0.897749
0.964229
0.976068
0.982372
0.978563
0.977916
0.981686
0.986543
0.988966
0.990232
0.992489
0.994791
0.997974
0.0826456
0.0826267
0.0826143
0.0826077
0.0825957
0.0825739
0.082572
0.0825781
0.0825764
0.0825626
0.0825534
0.0825466
0.0825399
0.0825307
0.0825014
0.082463
0.0824429
0.082417
0.0823959
0.0823988
0.0824164
0.0824507
0.0825124
0.0826017
0.0826333
0.0826447
0.0826741
0.0827451
0.082836
0.0829049
0.0829556
0.0830241
0.0831459
0.0832846
0.0834478
0.083519
0.0835042
0.0835555
0.0836277
0.0836055
0.0836189
0.0836599
0.0836614
0.0835882
0.0835213
0.0835297
0.0835843
0.0835125
0.0833246
0.083222
0.0831534
0.0830386
0.0829634
0.0830012
0.0831135
0.0833462
0.0837495
0.0843156
0.0850084
0.0856237
0.086143
0.086463
0.0867141
0.0868022
0.0866496
0.0867057
0.0874212
0.0891291
0.0910986
0.0928133
0.0940349
0.0939898
0.0941734
0.0956335
0.0978769
0.0995423
0.101568
0.10308
0.103835
0.105604
0.107206
0.10794
0.109968
0.112117
0.113005
0.136468
0.277935
0.566546
0.841039
0.910263
0.97912
0.984481
0.986484
0.983174
0.984692
0.988217
0.991415
0.994035
0.995007
0.998382
0.0825115
0.0824652
0.0824629
0.0824723
0.0824521
0.0824376
0.082463
0.0825066
0.0825101
0.082492
0.082485
0.0824972
0.0825052
0.0825038
0.0824911
0.0824777
0.0824747
0.0824772
0.082489
0.08254
0.0826343
0.082746
0.0828737
0.083015
0.0831453
0.0832579
0.0833687
0.0835059
0.0836472
0.0837579
0.0838717
0.0839653
0.0840279
0.0841418
0.0841761
0.0841647
0.0841158
0.0840361
0.0839395
0.0837979
0.0837263
0.0837548
0.08379
0.0837688
0.0837567
0.0837738
0.08375
0.0835677
0.0833714
0.0833241
0.0833272
0.0833383
0.0834761
0.083916
0.0846785
0.0856435
0.0865842
0.0873863
0.088019
0.0884536
0.0887055
0.0888735
0.08915
0.0895728
0.0902391
0.0912302
0.0924474
0.0941554
0.0959095
0.0967926
0.0979869
0.0990766
0.100012
0.101086
0.102472
0.104417
0.106526
0.108008
0.109313
0.109862
0.110841
0.113411
0.115898
0.117546
0.11883
0.119545
0.120317
0.159665
0.33234
0.625382
0.87841
0.929456
0.9886
0.992443
0.993651
0.987355
0.992067
0.99586
0.996835
0.999204
0.0826344
0.082589
0.0825792
0.0825725
0.0825648
0.082589
0.0826567
0.0827188
0.0827821
0.0828452
0.0829122
0.0830018
0.0831156
0.0832469
0.0833655
0.083413
0.0834368
0.0834666
0.0835175
0.0836048
0.0837191
0.0838289
0.0839336
0.0840317
0.0841255
0.084228
0.0843319
0.084414
0.0844759
0.0845181
0.0845519
0.0845913
0.0846025
0.0845796
0.084474
0.0843594
0.0842519
0.0841206
0.0838933
0.0836739
0.0836201
0.0836376
0.0837061
0.083768
0.0838614
0.083967
0.0840782
0.0843124
0.0846051
0.0849503
0.085493
0.086275
0.0873286
0.0884228
0.0894406
0.0902518
0.0909551
0.0913378
0.0914193
0.0916113
0.0918138
0.0922315
0.0932085
0.0945497
0.0960391
0.0975605
0.098896
0.100009
0.101143
0.101951
0.102734
0.104081
0.105568
0.106914
0.10904
0.110931
0.111284
0.112645
0.114519
0.115328
0.116722
0.119483
0.121012
0.121613
0.122967
0.125169
0.127951
0.128769
0.129506
0.188492
0.399614
0.698093
0.910788
0.9544
1.00075
0.991312
0.997565
0.99363
0.995941
1.00185
0.0841524
0.0841288
0.0841226
0.0841318
0.0841599
0.0842221
0.0843343
0.084395
0.0844124
0.0844277
0.0844561
0.084509
0.0846376
0.0847609
0.0847745
0.0847716
0.0847576
0.0847346
0.0847152
0.0847047
0.0847063
0.0847138
0.0847549
0.0848002
0.0848063
0.0848283
0.0848905
0.0849564
0.0849631
0.084933
0.084929
0.0849357
0.0849123
0.0847771
0.0844661
0.0843548
0.0843422
0.0843121
0.0842781
0.0843237
0.084537
0.0849156
0.0853817
0.0860125
0.0867938
0.0877072
0.0886408
0.0894944
0.0903646
0.0912952
0.0920843
0.0928546
0.0935565
0.0939351
0.0942912
0.0946294
0.0950486
0.0951651
0.0952005
0.0955049
0.0963614
0.0978633
0.0995601
0.101447
0.103095
0.104415
0.105625
0.106045
0.106575
0.107541
0.108731
0.11023
0.111655
0.11301
0.114952
0.116999
0.117602
0.117558
0.11852
0.121246
0.123354
0.124881
0.126357
0.127557
0.128768
0.130637
0.133429
0.134725
0.135545
0.136534
0.137728
0.229237
0.479268
0.781876
0.940384
0.972069
1.01173
0.994713
0.997273
1.00063
0.0854084
0.0853388
0.0853168
0.0853212
0.0853064
0.0852918
0.0853038
0.0853003
0.0852892
0.0853009
0.0852913
0.0852183
0.0852008
0.0852298
0.0851978
0.0851849
0.0851802
0.085187
0.0852207
0.0851969
0.0852199
0.0852156
0.0852429
0.0853258
0.0853287
0.0853642
0.0855108
0.0857594
0.0859565
0.0861058
0.0862702
0.086482
0.0868023
0.0872179
0.087665
0.0881307
0.0887212
0.0894939
0.0904074
0.0913051
0.0921811
0.0929989
0.0937986
0.0945025
0.0950782
0.0956683
0.0962049
0.0965691
0.0969395
0.0973724
0.0975278
0.097708
0.0979169
0.0979967
0.0982087
0.0987689
0.0995762
0.100502
0.101825
0.103353
0.105124
0.106837
0.10815
0.109161
0.110086
0.11072
0.111285
0.111756
0.112312
0.113341
0.115033
0.117003
0.11912
0.120295
0.120549
0.121746
0.123464
0.124335
0.125247
0.127595
0.129988
0.1305
0.131774
0.133357
0.134884
0.136252
0.138078
0.140584
0.141817
0.14274
0.145049
0.146627
0.158284
0.287983
0.570224
0.859727
0.9675
0.982233
1.01144
1.00676
0.0880187
0.0881385
0.0882656
0.0884011
0.0885544
0.0887228
0.0888894
0.0890581
0.0892359
0.0894101
0.0895903
0.089802
0.0900153
0.0902416
0.0904938
0.0907648
0.0910615
0.0913661
0.0916586
0.0919643
0.0922955
0.0926415
0.0929797
0.0933152
0.0936502
0.0939856
0.0943047
0.0945879
0.0948688
0.0951804
0.0955648
0.0959558
0.0963653
0.0968275
0.0973132
0.0978707
0.0984305
0.0988154
0.0991036
0.0993966
0.0997209
0.0999755
0.100201
0.100358
0.100512
0.100834
0.10109
0.101209
0.101447
0.102114
0.102482
0.102792
0.103381
0.104595
0.10604
0.107506
0.108935
0.110532
0.112076
0.113275
0.114231
0.114884
0.115104
0.115096
0.115448
0.116103
0.116855
0.118076
0.119696
0.121438
0.123022
0.124309
0.126155
0.127113
0.127066
0.127275
0.128804
0.131531
0.133495
0.134525
0.136022
0.136862
0.137436
0.138906
0.141682
0.144336
0.144941
0.145947
0.147691
0.14965
0.150782
0.15286
0.154393
0.154838
0.188408
0.379231
0.686192
0.912756
0.985353
1.00675
0.0973491
0.0974844
0.0976216
0.0977535
0.0978875
0.0980259
0.0981683
0.0983196
0.0984702
0.0986168
0.0987601
0.0989301
0.0991075
0.0992814
0.0994457
0.0996052
0.0997761
0.0999588
0.100117
0.100288
0.10048
0.100668
0.100819
0.100987
0.10117
0.10138
0.101583
0.101804
0.102023
0.102181
0.102358
0.102484
0.102602
0.102808
0.103084
0.103502
0.103973
0.104043
0.10412
0.104386
0.104801
0.105203
0.105604
0.106053
0.106619
0.107332
0.108263
0.109369
0.110562
0.111771
0.11314
0.114443
0.115561
0.116456
0.117254
0.118022
0.118534
0.118922
0.11929
0.119692
0.120063
0.120376
0.120545
0.120898
0.121653
0.123179
0.125224
0.12719
0.128927
0.130542
0.131284
0.131396
0.131804
0.132912
0.134052
0.135276
0.136715
0.138858
0.141099
0.141431
0.142021
0.143511
0.145246
0.147245
0.148547
0.150686
0.151438
0.151674
0.152968
0.156175
0.158448
0.158995
0.160788
0.162915
0.163787
0.164529
0.236891
0.501587
0.807419
0.976759
0.105588
0.105665
0.105746
0.105827
0.105916
0.106008
0.106106
0.106229
0.106339
0.10644
0.106553
0.106685
0.106823
0.106954
0.107107
0.107213
0.107324
0.107564
0.107733
0.107844
0.108032
0.10828
0.108509
0.108766
0.109094
0.109393
0.109732
0.110207
0.11074
0.111248
0.111722
0.112192
0.11267
0.113209
0.113807
0.114387
0.114921
0.115554
0.11627
0.116982
0.117621
0.118183
0.118652
0.119138
0.119723
0.120253
0.120725
0.121288
0.121866
0.122335
0.12281
0.123307
0.123639
0.123772
0.12397
0.124304
0.124395
0.124348
0.124562
0.125293
0.126396
0.127663
0.12927
0.131095
0.132911
0.134375
0.135562
0.136186
0.13673
0.137769
0.138234
0.138293
0.138685
0.139968
0.142397
0.144642
0.146192
0.147071
0.147846
0.148554
0.149296
0.150611
0.152766
0.155482
0.156056
0.156344
0.157999
0.160498
0.161914
0.163155
0.165914
0.166644
0.167042
0.168835
0.170837
0.173072
0.17377
0.188974
0.312851
0.736421
0.116977
0.117076
0.117177
0.117279
0.1174
0.117543
0.117706
0.117893
0.118062
0.118207
0.118362
0.118548
0.118765
0.118959
0.119205
0.119442
0.119574
0.119732
0.119981
0.120228
0.120498
0.120799
0.12104
0.121249
0.121477
0.121683
0.12188
0.122098
0.122346
0.122618
0.122867
0.123096
0.123334
0.123585
0.123841
0.124108
0.124381
0.124708
0.125089
0.125453
0.125776
0.126106
0.126406
0.126745
0.127108
0.127202
0.127298
0.127678
0.127926
0.128028
0.128265
0.128873
0.129495
0.130066
0.130787
0.131919
0.133397
0.13487
0.136169
0.137559
0.138967
0.140153
0.141188
0.142002
0.142855
0.143607
0.143714
0.143394
0.143333
0.14396
0.145453
0.147483
0.14903
0.150513
0.152253
0.153387
0.154339
0.154632
0.155012
0.156213
0.158132
0.160423
0.161663
0.162845
0.164574
0.165151
0.165728
0.167636
0.169926
0.170703
0.172016
0.174146
0.175038
0.17631
0.178358
0.180146
0.181966
0.182829
0.183332
0.345072
0.127404
0.127472
0.127552
0.127643
0.127732
0.127838
0.127954
0.128062
0.128171
0.128288
0.128432
0.128602
0.128715
0.128827
0.128969
0.129133
0.129282
0.129452
0.129634
0.129776
0.130067
0.130292
0.130385
0.130611
0.130882
0.130899
0.130975
0.131232
0.131618
0.131864
0.13204
0.13223
0.132503
0.132804
0.133157
0.133448
0.133663
0.133877
0.134112
0.134376
0.134744
0.135266
0.135947
0.136704
0.137457
0.138244
0.139122
0.140043
0.140969
0.141852
0.142707
0.143494
0.144236
0.144908
0.145569
0.146255
0.147021
0.147856
0.148479
0.148979
0.14938
0.149343
0.149245
0.149252
0.149482
0.150175
0.151165
0.152044
0.153161
0.154532
0.156527
0.158745
0.160238
0.160931
0.16146
0.161877
0.162184
0.162958
0.164634
0.166561
0.168113
0.170079
0.170935
0.170891
0.171617
0.173406
0.174898
0.176168
0.178547
0.180299
0.180599
0.181852
0.183722
0.185237
0.186514
0.187459
0.188869
0.190614
0.192044
0.193621
0.140026
0.140111
0.140199
0.140291
0.140375
0.140457
0.140559
0.14068
0.140795
0.140916
0.141102
0.141184
0.141285
0.141451
0.141634
0.141807
0.141988
0.142128
0.142307
0.142584
0.142771
0.14292
0.14319
0.143482