/*--------------------------------*- C++ -*----------------------------------*\
  =========                 |
  \\      /  F ield         | OpenFOAM: The Open Source CFD Toolbox
   \\    /   O peration     | Website:  https://openfoam.org
    \\  /    A nd           | Version:  7
     \\/     M anipulation  |
\*---------------------------------------------------------------------------*/
FoamFile
{
    version     2.0;
    format      ascii;
    class       volScalarField;
    location    "8.5";
    object      rho;
}
// * * * * * * * * * * * * * * * * * * * * * * * * * * * * * * * * * * * * * //

dimensions      [1 -3 0 0 0 0 0];

internalField   nonuniform List<scalar> 
90000
(
0.266195
0.30418
0.341202
0.381615
0.408381
0.428866
0.465291
0.499292
0.526529
0.563215
0.605597
0.646788
0.688869
0.733823
0.778814
0.824419
0.866789
0.907839
0.940314
0.970513
0.987357
1.00404
1.01094
1.01327
1.01451
1.01406
1.00929
1.00565
1.00035
1.00076
1.00185
1.00514
1.00878
1.01287
1.01187
1.00871
1.00346
0.995494
0.989788
0.992994
1.00131
1.01346
1.03014
1.04967
1.06413
1.07663
1.07593
1.07102
1.06161
1.05386
1.04761
1.04968
1.05596
1.0682
1.08293
1.09513
1.1034
1.1011
1.09597
1.08864
1.08896
1.09402
1.10526
1.1175
1.12838
1.12621
1.12184
1.12047
1.12363
1.13264
1.14738
1.14818
1.14534
1.14248
1.14508
1.15163
1.15762
1.15693
1.15621
1.15978
1.16712
1.16697
1.16527
1.16445
1.16567
1.16813
1.16883
1.16917
1.17051
1.17432
1.17955
1.18385
1.1865
1.18944
1.19382
1.19769
1.20069
1.2054
1.21118
1.21847
0.22995
0.229979
0.230012
0.230054
0.230105
0.230169
0.230237
0.230321
0.230384
0.230868
0.232854
0.237525
0.244984
0.257451
0.275088
0.298999
0.330753
0.369088
0.417502
0.473328
0.536465
0.601047
0.664678
0.723672
0.774115
0.820283
0.855403
0.886485
0.906375
0.925403
0.934624
0.945481
0.948993
0.954381
0.954034
0.955203
0.955784
0.955627
0.957153
0.960579
0.967238
0.971019
0.975602
0.981138
0.982269
0.977736
0.974387
0.974478
0.976235
0.982219
0.991402
1.00017
1.00819
1.01448
1.02156
1.02152
1.02084
1.02098
1.02302
1.02866
1.03695
1.04624
1.05451
1.05959
1.06201
1.06193
1.06444
1.07158
1.08216
1.09441
1.09852
1.09892
1.10022
1.10552
1.11385
1.12164
1.12447
1.12602
1.13066
1.13799
1.14248
1.14465
1.14645
1.14933
1.15335
1.15726
1.16048
1.16312
1.16609
1.16949
1.17293
1.17717
1.18295
1.18921
1.19446
1.19901
1.2021
1.20442
1.20843
1.21721
0.230791
0.230878
0.230974
0.231076
0.231184
0.231298
0.231416
0.231541
0.231664
0.231823
0.231899
0.231966
0.232045
0.232131
0.232233
0.232339
0.232464
0.232584
0.232737
0.23284
0.234378
0.23939
0.252391
0.27267
0.303657
0.342448
0.393729
0.45062
0.517982
0.585459
0.651157
0.713131
0.76809
0.819814
0.860846
0.901325
0.929358
0.956586
0.97119
0.976658
0.975113
0.97107
0.96211
0.945518
0.925457
0.906967
0.899274
0.903909
0.918944
0.938217
0.955785
0.969805
0.976209
0.973553
0.965786
0.956546
0.951488
0.95378
0.960835
0.972231
0.985025
0.993604
0.995036
0.99419
0.995887
1.00213
1.01117
1.01973
1.0274
1.03029
1.03329
1.0388
1.04603
1.05412
1.06273
1.06836
1.07474
1.08109
1.08875
1.09545
1.10272
1.10856
1.11293
1.11872
1.12607
1.13355
1.14
1.14644
1.1541
1.16045
1.16363
1.16648
1.17065
1.17787
1.1884
1.19775
1.20267
1.20499
1.20619
1.21176
0.231917
0.232007
0.232104
0.232204
0.232308
0.232414
0.232524
0.232635
0.232751
0.232866
0.232982
0.233105
0.23323
0.233355
0.233477
0.233599
0.23372
0.233837
0.23395
0.234061
0.23413
0.234188
0.234249
0.234311
0.234378
0.234437
0.234501
0.234543
0.235407
0.240422
0.255653
0.280022
0.320792
0.371519
0.440665
0.520547
0.606614
0.692184
0.764227
0.820947
0.866037
0.88752
0.910076
0.909235
0.906476
0.909418
0.913051
0.919947
0.924566
0.927844
0.932488
0.938575
0.939042
0.932931
0.927824
0.928752
0.931467
0.936685
0.940543
0.94478
0.949172
0.948472
0.947352
0.948248
0.951422
0.957141
0.964416
0.972936
0.978234
0.980008
0.980967
0.98468
0.992071
1.00053
1.00704
1.01261
1.01885
1.02671
1.03544
1.04403
1.05086
1.05663
1.06435
1.07422
1.08414
1.09241
1.09954
1.10851
1.11893
1.13008
1.14078
1.14912
1.15557
1.16194
1.16928
1.17856
1.19037
1.20047
1.20354
1.20658
0.233121
0.233204
0.23329
0.233378
0.233464
0.233552
0.233639
0.233726
0.233812
0.233898
0.233983
0.234068
0.234148
0.234224
0.234295
0.234365
0.234429
0.234496
0.234554
0.234616
0.234677
0.234732
0.234788
0.234842
0.234901
0.234956
0.235007
0.235062
0.235085
0.235108
0.235134
0.235171
0.235213
0.235269
0.23532
0.235553
0.244366
0.266375
0.311036
0.374035
0.460257
0.562268
0.668338
0.760168
0.834448
0.896216
0.916641
0.934221
0.933074
0.930506
0.92586
0.917048
0.904894
0.894327
0.900673
0.911041
0.921537
0.928741
0.934864
0.934581
0.929827
0.922192
0.922643
0.926363
0.933038
0.941533
0.941734
0.940578
0.939546
0.94083
0.944453
0.949375
0.954375
0.959394
0.963508
0.966801
0.972392
0.979882
0.987308
0.991391
0.995836
1.00244
1.01155
1.02281
1.03315
1.04234
1.05273
1.06457
1.07664
1.08723
1.09655
1.10764
1.12153
1.13527
1.14562
1.15355
1.16192
1.17238
1.18353
1.19492
0.234158
0.234208
0.234262
0.234315
0.234367
0.234419
0.23447
0.234518
0.234566
0.234612
0.23466
0.234704
0.234746
0.234782
0.234815
0.234848
0.234883
0.234915
0.234949
0.234985
0.23502
0.235057
0.235094
0.235131
0.23517
0.235208
0.235247
0.235283
0.23532
0.235361
0.235409
0.235469
0.235534
0.23561
0.235692
0.2358
0.235882
0.235963
0.236014
0.236054
0.236073
0.240126
0.258504
0.308736
0.387812
0.504288
0.616422
0.727542
0.793687
0.847157
0.866733
0.88409
0.885997
0.894014
0.909219
0.923443
0.932458
0.935979
0.935112
0.929097
0.918156
0.91097
0.912852
0.917744
0.923382
0.932423
0.934445
0.932011
0.92671
0.924235
0.926436
0.932116
0.936817
0.935692
0.935969
0.938531
0.943131
0.949084
0.953549
0.955021
0.957519
0.963386
0.971313
0.978453
0.985108
0.992482
1.00184
1.01359
1.02509
1.03619
1.04781
1.06015
1.07377
1.08812
1.10204
1.11498
1.12652
1.13644
1.14516
1.16168
0.234788
0.234814
0.23484
0.234867
0.234893
0.23492
0.234944
0.234968
0.23499
0.235016
0.235042
0.235066
0.235085
0.235101
0.235116
0.235133
0.235151
0.235173
0.235198
0.235225
0.235254
0.235285
0.23532
0.235358
0.235398
0.235443
0.235488
0.23553
0.235579
0.23563
0.235681
0.235737
0.235802
0.235868
0.235939
0.236023
0.236105
0.23617
0.236199
0.236215
0.236227
0.236223
0.236224
0.236234
0.236258
0.236284
0.250009
0.288606
0.369294
0.477127
0.604144
0.726649
0.817387
0.873469
0.910486
0.916149
0.924589
0.930092
0.925952
0.912047
0.909896
0.913721
0.922169
0.928179
0.928711
0.928043
0.926698
0.923495
0.921731
0.922044
0.924713
0.927239
0.928995
0.927824
0.92713
0.929146
0.932962
0.934793
0.934561
0.933834
0.93495
0.938261
0.943877
0.949345
0.953457
0.958919
0.96661
0.975388
0.984586
0.992634
1.00121
1.01329
1.0261
1.03811
1.05151
1.06512
1.0783
1.09161
1.10142
1.11792
0.235124
0.235139
0.235155
0.23517
0.235186
0.235202
0.235214
0.235226
0.235239
0.235255
0.235272
0.235286
0.235295
0.235303
0.235312
0.235326
0.235347
0.235373
0.235404
0.23544
0.235477
0.235519
0.235567
0.235617
0.235669
0.235726
0.235777
0.235825
0.235875
0.235919
0.235958
0.236003
0.23605
0.236092
0.236141
0.236199
0.236246
0.23627
0.236275
0.236273
0.236272
0.236274
0.236283
0.236305
0.236347
0.236402
0.236442
0.236479
0.236494
0.236486
0.248913
0.290399
0.382759
0.51006
0.653837
0.751986
0.831935
0.87994
0.894766
0.903815
0.913717
0.930932
0.945552
0.94118
0.933085
0.924055
0.919817
0.919348
0.920938
0.92642
0.930665
0.928901
0.924885
0.923964
0.924495
0.927169
0.93004
0.929999
0.926874
0.926087
0.928056
0.931439
0.932863
0.933996
0.936483
0.940647
0.946718
0.952025
0.956416
0.962934
0.970316
0.97836
0.990039
0.999585
1.00864
1.01996
1.03147
1.04214
1.05338
1.07134
0.235352
0.235361
0.235372
0.235383
0.235394
0.235404
0.235413
0.235422
0.235434
0.235446
0.235457
0.235467
0.235476
0.235488
0.235505
0.235531
0.235569
0.235612
0.235662
0.235715
0.235767
0.235819
0.235878
0.235933
0.235985
0.236033
0.236072
0.236109
0.236147
0.236174
0.236194
0.236216
0.236239
0.236258
0.236284
0.236318
0.236333
0.236338
0.236334
0.236318
0.236314
0.236317
0.236329
0.236357
0.23642
0.236479
0.236509
0.236524
0.23653
0.236524
0.236522
0.236526
0.236527
0.236496
0.256419
0.325701
0.433648
0.58524
0.728876
0.847698
0.901801
0.930408
0.943138
0.941076
0.936341
0.919618
0.918039
0.922804
0.930595
0.935616
0.93318
0.927301
0.922708
0.92311
0.927281
0.931371
0.930547
0.927396
0.923114
0.923764
0.926794
0.929697
0.930451
0.930692
0.931853
0.935222
0.939136
0.94202
0.9434
0.946131
0.952726
0.960841
0.965683
0.974262
0.981969
0.988776
0.99744
1.00602
1.01236
1.02726
0.235534
0.235537
0.235541
0.235547
0.235555
0.235566
0.235582
0.235603
0.235623
0.235638
0.235651
0.235666
0.235686
0.235716
0.235755
0.235807
0.235868
0.235927
0.235988
0.236047
0.236096
0.236146
0.236191
0.236227
0.236257
0.236278
0.236293
0.23631
0.236323
0.236326
0.236329
0.236335
0.23634
0.236347
0.236359
0.236373
0.236381
0.236381
0.236368
0.236337
0.236331
0.236333
0.236347
0.236391
0.236486
0.236532
0.236527
0.236524
0.236524
0.236518
0.236511
0.236505
0.236517
0.236534
0.236528
0.236447
0.236435
0.245317
0.293719
0.403416
0.569811
0.715737
0.844168
0.883559
0.909365
0.911706
0.925905
0.937914
0.94447
0.940611
0.933535
0.924291
0.924566
0.929256
0.93575
0.934787
0.93103
0.923662
0.922533
0.926206
0.931105
0.930971
0.929548
0.929612
0.930833
0.934306
0.93712
0.939145
0.941105
0.943568
0.947394
0.953624
0.95786
0.961005
0.966971
0.973024
0.976662
0.983598
0.989662
0.998804
0.23571
0.23572
0.235733
0.23575
0.235768
0.235788
0.235811
0.235833
0.235854
0.235877
0.235903
0.235932
0.235966
0.236009
0.236066
0.236138
0.236203
0.236251
0.236293
0.236333
0.236367
0.236395
0.236418
0.236432
0.236429
0.236415
0.23641
0.236413
0.236411
0.236398
0.236394
0.236394
0.236394
0.236394
0.236397
0.236403
0.236406
0.236402
0.236379
0.236344
0.236334
0.236336
0.236351
0.236414
0.236524
0.236553
0.236536
0.236514
0.236497
0.236496
0.236489
0.236481
0.236511
0.236563
0.23657
0.236588
0.236686
0.23675
0.236899
0.237038
0.244177
0.289279
0.401897
0.581581
0.756701
0.862844
0.926779
0.932422
0.939879
0.937744
0.922144
0.924427
0.933186
0.940692
0.939962
0.935706
0.926047
0.922998
0.926192
0.934005
0.934177
0.931974
0.929425
0.930073
0.934187
0.937829
0.938577
0.938891
0.940138
0.943058
0.946607
0.950396
0.9561
0.958112
0.960975
0.966043
0.970132
0.971278
0.975791
0.983941
0.235974
0.23599
0.236007
0.236027
0.236047
0.236069
0.236099
0.236128
0.236149
0.236171
0.236195
0.236221
0.236247
0.236281
0.236337
0.236408
0.236447
0.236456
0.236464
0.23648
0.236498
0.236504
0.236507
0.236505
0.236485
0.236444
0.236436
0.236435
0.236422
0.236409
0.236408
0.23641
0.236412
0.236413
0.236415
0.236421
0.236422
0.236409
0.23637
0.236344
0.236332
0.236326
0.236343
0.236425
0.236529
0.236541
0.236519
0.236473
0.236457
0.236461
0.23647
0.236468
0.236496
0.236552
0.236621
0.236851
0.237048
0.237102
0.237157
0.237273
0.237384
0.237352
0.237063
0.246389
0.302603
0.451236
0.655383
0.779427
0.886184
0.899661
0.915897
0.931113
0.951076
0.950054
0.943252
0.926678
0.923038
0.927295
0.937967
0.940189
0.936753
0.930791
0.930661
0.934844
0.940128
0.94069
0.939915
0.939768
0.941907
0.946502
0.95008
0.952408
0.955952
0.958855
0.961314
0.963727
0.967655
0.970545
0.971613
0.975774
0.236216
0.236225
0.236237
0.236256
0.236275
0.236292
0.236323
0.236367
0.236372
0.236371
0.236379
0.236391
0.236399
0.236413
0.236453
0.236498
0.236507
0.236503
0.236498
0.236498
0.236501
0.236506
0.236506
0.236495
0.236448
0.236408
0.236405
0.236408
0.236407
0.236409
0.236414
0.236423
0.236436
0.236452
0.236469
0.236492
0.236504
0.236487
0.236445
0.236422
0.236398
0.236365
0.236375
0.236449
0.236495
0.236485
0.236446
0.236442
0.236449
0.236468
0.236515
0.236552
0.236537
0.236551
0.236766
0.23725
0.237365
0.2373
0.237277
0.237318
0.237376
0.237259
0.236947
0.236645
0.236263
0.235936
0.2558
0.358336
0.538205
0.723679
0.875026
0.925253
0.945523
0.944845
0.925989
0.916787
0.925545
0.94095
0.946201
0.94169
0.932031
0.930963
0.935011
0.94151
0.943467
0.942539
0.941598
0.942407
0.945562
0.950146
0.953452
0.954954
0.956578
0.960525
0.963192
0.964835
0.96712
0.970302
0.971749
0.974919
0.236387
0.236388
0.236391
0.236393
0.236396
0.236397
0.236402
0.23642
0.236425
0.236425
0.236432
0.236438
0.236438
0.236445
0.236464
0.23647
0.236468
0.23646
0.236448
0.236442
0.236434
0.236427
0.236423
0.236414
0.236383
0.236356
0.236354
0.236358
0.236375
0.236404
0.236446
0.236495
0.23655
0.236597
0.236624
0.23664
0.23663
0.236602
0.236567
0.236531
0.236498
0.236485
0.236497
0.236497
0.23648
0.236418
0.236398
0.236431
0.23647
0.236514
0.236615
0.236726
0.236745
0.236789
0.237084
0.23744
0.237473
0.237394
0.23736
0.23735
0.237292
0.236996
0.236652
0.236309
0.235963
0.235846
0.235876
0.236051
0.236367
0.298518
0.452201
0.654309
0.818883
0.880674
0.905353
0.920548
0.945916
0.95647
0.950635
0.932315
0.928344
0.933904
0.943673
0.946496
0.945027
0.943375
0.943699
0.946324
0.95052
0.95374
0.95628
0.957959
0.959754
0.963157
0.96556
0.96662
0.968065
0.970936
0.972803
0.975607
0.236429
0.236428
0.236426
0.236422
0.236413
0.236406
0.236403
0.236402
0.236402
0.236407
0.236409
0.236403
0.236394
0.236391
0.23639
0.236387
0.236384
0.236383
0.236381
0.236382
0.236379
0.236373
0.236373
0.236374
0.236365
0.236351
0.23635
0.236353
0.236376
0.236451
0.236556
0.236651
0.236721
0.23677
0.236791
0.236774
0.236707
0.23667
0.236659
0.236627
0.236609
0.2366
0.236558
0.236503
0.236412
0.236332
0.23636
0.236477
0.236547
0.236625
0.236795
0.237017
0.237081
0.237098
0.237264
0.237459
0.237475
0.23742
0.237306
0.237185
0.236893
0.236466
0.23618
0.235978
0.235835
0.235832
0.235985
0.236456
0.237206
0.237495
0.2373
0.270084
0.385708
0.600262
0.806444
0.907165
0.94421
0.948679
0.932692
0.923248
0.931178
0.946313
0.948671
0.94635
0.944379
0.944443
0.946642
0.951062
0.955348
0.956824
0.958577
0.960902
0.963207
0.96557
0.967684
0.968962
0.970116
0.971786
0.97402
0.977003
0.236445
0.236439
0.236435
0.236432
0.236424
0.236408
0.236398
0.236389
0.236383
0.23638
0.236373
0.236355
0.236347
0.236348
0.236354
0.236368
0.236376
0.236378
0.236379
0.236382
0.236382
0.236379
0.23638
0.236387
0.236391
0.236388
0.236383
0.236389
0.236454
0.2366
0.236696
0.236751
0.236802
0.236844
0.236848
0.236813
0.236719
0.236696
0.236705
0.236699
0.236674
0.236624
0.236543
0.236445
0.236324
0.236287
0.236376
0.236666
0.236776
0.236864
0.237091
0.237349
0.237349
0.237283
0.237317
0.23735
0.237274
0.237076
0.236852
0.236647
0.236359
0.235982
0.235787
0.235744
0.235784
0.23595
0.23645
0.237153
0.237675
0.237622
0.237199
0.236536
0.235937
0.250612
0.355214
0.573483
0.777718
0.868493
0.909499
0.925247
0.953166
0.958885
0.949095
0.943828
0.9441
0.946981
0.95227
0.956276
0.959079
0.959642
0.961329
0.964114
0.967077
0.968487
0.970028
0.971664
0.97312
0.974637
0.976685
0.979195
0.236343
0.236362
0.236371
0.236374
0.236374
0.236373
0.236372
0.236369
0.236369
0.23637
0.236367
0.236357
0.236354
0.236355
0.236361
0.236383
0.236397
0.236394
0.236397
0.236405
0.236405
0.236397
0.236394
0.236403
0.236442
0.236469
0.236472
0.23648
0.236558
0.236703
0.236727
0.236739
0.236775
0.236821
0.236823
0.236783
0.236708
0.2367
0.236711
0.236732
0.236727
0.236684
0.236586
0.236409
0.236272
0.23627
0.236451
0.23691
0.237062
0.237216
0.237475
0.237566
0.237473
0.237321
0.237191
0.237015
0.236733
0.236456
0.236275
0.236186
0.236029
0.235708
0.235642
0.235676
0.235872
0.236462
0.23729
0.237832
0.23782
0.237488
0.236926
0.236342
0.235866
0.236858
0.238195
0.249866
0.336818
0.551046
0.787772
0.90477
0.954792
0.955201
0.949238
0.945204
0.950872
0.955864
0.959715
0.961012
0.962238
0.963585
0.96603
0.968756
0.971417
0.972305
0.973648
0.975555
0.977225
0.978374
0.979732
0.98173
0.236365
0.23641
0.236451
0.236485
0.23651
0.236526
0.236539
0.236556
0.236578
0.236601
0.236625
0.236635
0.236628
0.236612
0.236611
0.236614
0.236604
0.236576
0.236577
0.236579
0.236556
0.236534
0.236541
0.236575
0.236633
0.23665
0.236648
0.236636
0.236607
0.236576
0.236563
0.236553
0.236567
0.236607
0.236628
0.236622
0.236614
0.236624
0.236673
0.236744
0.236764
0.23675
0.236638
0.236412
0.23629
0.236325
0.236678
0.237098
0.237254
0.237511
0.237656
0.237637
0.2375
0.237108
0.236798
0.236536
0.236197
0.236031
0.235988
0.235982
0.2359
0.235688
0.23567
0.235909
0.236508
0.23754
0.238252
0.238157
0.237714
0.237045
0.236758
0.236288
0.237644
0.24004
0.242744
0.242676
0.242277
0.246796
0.336485
0.563988
0.797936
0.888357
0.937711
0.957016
0.968789
0.965784
0.967291
0.967904
0.97011
0.972622
0.974642
0.976113
0.977482
0.978711
0.979921
0.98161
0.982983
0.984122
0.985385
0.98732
0.236789
0.236836
0.236858
0.236879
0.236895
0.236897
0.236892
0.236883
0.236884
0.236895
0.236914
0.236917
0.236903
0.236875
0.236854
0.236807
0.236712
0.236674
0.236685
0.23669
0.236658
0.236637
0.236646
0.236681
0.236693
0.236682
0.236629
0.236525
0.236399
0.236235
0.236173
0.236183
0.236251
0.236286
0.236337
0.236422
0.236428
0.236391
0.236408
0.236535
0.236668
0.23665
0.236501
0.23642
0.23644
0.236591
0.237082
0.237243
0.237314
0.2375
0.237584
0.237572
0.237272
0.236707
0.236483
0.236205
0.235876
0.235845
0.235911
0.235947
0.235946
0.236045
0.236392
0.237079
0.238031
0.238938
0.238896
0.238385
0.237418
0.236841
0.237135
0.239714
0.243192
0.24417
0.244709
0.245888
0.247909
0.250259
0.2514
0.261187
0.353867
0.590828
0.838966
0.937634
0.980712
0.977691
0.984678
0.982862
0.986081
0.98706
0.988486
0.989697
0.989744
0.99022
0.991005
0.992579
0.993399
0.994439
0.995315
0.996223
0.236984
0.236993
0.236997
0.237
0.237004
0.237004
0.237002
0.236998
0.236994
0.236995
0.236998
0.236993
0.236971
0.236947
0.236915
0.236834
0.236706
0.236671
0.236675
0.236673
0.236631
0.236582
0.236569
0.236541
0.236465
0.236356
0.236241
0.236172
0.236126
0.236032
0.235979
0.235981
0.236051
0.236101
0.236158
0.236251
0.23627
0.236204
0.236198
0.236316
0.236614
0.236903
0.236938
0.236878
0.236848
0.236959
0.237263
0.237305
0.237222
0.237113
0.237051
0.237005
0.236753
0.236461
0.236335
0.236067
0.235809
0.2358
0.235922
0.236114
0.236435
0.237175
0.238241
0.239256
0.239879
0.239922
0.239724
0.238521
0.23804
0.239014
0.24169
0.245201
0.248916
0.248865
0.248577
0.250045
0.253996
0.258375
0.262308
0.264558
0.265363
0.275901
0.383358
0.628691
0.879246
0.959902
1.00599
1.00588
1.01316
1.00817
1.00809
1.00921
1.00991
1.00962
1.00951
1.00979
1.00972
1.01044
1.01078
1.0109
0.236876
0.236891
0.236889
0.236879
0.236857
0.236823
0.236779
0.236733
0.236689
0.236651
0.236614
0.236563
0.236515
0.236476
0.236396
0.236225
0.23609
0.235989
0.235873
0.235833
0.23584
0.235859
0.235897
0.235937
0.235918
0.235874
0.235875
0.235925
0.235969
0.235947
0.235924
0.235931
0.236019
0.236123
0.236265
0.236433
0.236442
0.236483
0.236741
0.237003
0.237325
0.23753
0.237519
0.237377
0.237308
0.237317
0.237358
0.237331
0.237152
0.236956
0.236817
0.236659
0.236462
0.236372
0.23629
0.236062
0.236009
0.236158
0.236709
0.237549
0.238562
0.239737
0.240797
0.241593
0.241305
0.241026
0.241139
0.24203
0.24409
0.247473
0.249933
0.250747
0.252558
0.254978
0.257522
0.259126
0.261359
0.266009
0.270459
0.272273
0.275245
0.277783
0.279209
0.297994
0.423131
0.689567
0.933951
0.992406
1.03735
1.03945
1.04109
1.03684
1.03384
1.03457
1.03613
1.0357
1.0344
1.03385
1.03359
1.03268
0.235809
0.235771
0.235746
0.235733
0.23571
0.235667
0.235663
0.235677
0.235673
0.235645
0.235629
0.235621
0.235615
0.235602
0.235547
0.235471
0.235433
0.235383
0.235344
0.23535
0.235386
0.235457
0.235583
0.235766
0.23583
0.235852
0.235911
0.236053
0.236233
0.236368
0.236468
0.236606
0.236852
0.237136
0.237469
0.237622
0.237598
0.237708
0.237863
0.237819
0.237847
0.237932
0.237935
0.237789
0.237654
0.237671
0.237781
0.237635
0.237255
0.237047
0.236903
0.23666
0.236493
0.236559
0.236765
0.237214
0.238018
0.239161
0.24056
0.241799
0.242846
0.2435
0.24403
0.244226
0.243935
0.244056
0.245496
0.24891
0.252822
0.256214
0.258615
0.258527
0.258893
0.26175
0.26612
0.269341
0.273244
0.276139
0.277568
0.280926
0.283989
0.28534
0.289133
0.293155
0.294824
0.324767
0.477452
0.75327
0.98262
1.02556
1.07272
1.07017
1.06909
1.06458
1.06329
1.06329
1.06317
1.06259
1.06102
1.05965
0.235546
0.235451
0.235446
0.235466
0.235425
0.235396
0.235448
0.235538
0.235546
0.235509
0.235498
0.235525
0.235547
0.235548
0.235525
0.235499
0.235497
0.235503
0.235528
0.235634
0.235827
0.236055
0.236316
0.236607
0.236876
0.23711
0.237337
0.237614
0.237898
0.238122
0.238353
0.238545
0.238674
0.238906
0.238981
0.238959
0.23886
0.238698
0.238501
0.238211
0.238061
0.238118
0.238186
0.238141
0.238116
0.238151
0.238105
0.237737
0.237344
0.237241
0.237219
0.237217
0.237472
0.238345
0.239877
0.241827
0.243733
0.245359
0.24664
0.247522
0.248038
0.248391
0.248956
0.249805
0.251127
0.253085
0.255487
0.258851
0.262285
0.264007
0.266336
0.268444
0.270252
0.272329
0.274983
0.278688
0.282696
0.2855
0.287956
0.288982
0.290816
0.295609
0.300224
0.30327
0.305638
0.306936
0.308346
0.357304
0.545587
0.823166
1.03494
1.06335
1.1032
1.10039
1.09851
1.09074
1.09291
1.09331
1.09186
1.08978
0.235809
0.235716
0.235697
0.235683
0.235668
0.235718
0.235856
0.235983
0.236113
0.236244
0.236382
0.236566
0.236799
0.237066
0.237307
0.237405
0.237456
0.237519
0.237625
0.237805
0.238039
0.238263
0.238476
0.238677
0.23887
0.239081
0.239293
0.239462
0.23959
0.239679
0.239752
0.239836
0.23986
0.239814
0.239599
0.239362
0.239137
0.238865
0.2384
0.237949
0.237833
0.237866
0.238
0.238114
0.238294
0.238503
0.238726
0.239199
0.239783
0.240465
0.241544
0.243109
0.245229
0.247434
0.249485
0.251117
0.252524
0.25329
0.253458
0.253845
0.254254
0.255085
0.257012
0.259639
0.262543
0.265501
0.268088
0.270242
0.272437
0.273991
0.275496
0.278065
0.280886
0.283438
0.287448
0.290995
0.291651
0.294191
0.297682
0.29918
0.301753
0.306826
0.309622
0.310723
0.313194
0.3172
0.322232
0.323696
0.325026
0.395899
0.6271
0.902855
1.07787
1.10294
1.13124
1.12086
1.12488
1.11905
1.11939
1.12075
0.238922
0.23888
0.23887
0.23889
0.23895
0.239079
0.239309
0.239433
0.23947
0.239503
0.239562
0.23967
0.239931
0.240181
0.240207
0.240201
0.240171
0.240122
0.240079
0.240055
0.240056
0.240068
0.240146
0.240235
0.240247
0.240289
0.240412
0.240554
0.240572
0.24052
0.240518
0.240535
0.240489
0.240218
0.239594
0.239346
0.239302
0.23922
0.239128
0.239216
0.239642
0.2404
0.241334
0.2426
0.244172
0.246011
0.247887
0.2496
0.25134
0.253196
0.254765
0.25629
0.257678
0.25843
0.259137
0.259806
0.260625
0.260846
0.260912
0.261507
0.263181
0.266106
0.269394
0.273026
0.276181
0.2787
0.281004
0.281805
0.282813
0.284636
0.286879
0.289696
0.292356
0.294878
0.298485
0.302274
0.303385
0.303304
0.30507
0.310053
0.313891
0.316668
0.31934
0.321507
0.32369
0.327047
0.332034
0.334348
0.335819
0.337567
0.339673
0.446413
0.713834
0.989198
1.11616
1.13415
1.15977
1.14412
1.1453
1.14536
0.241553
0.241413
0.241365
0.241371
0.241337
0.241303
0.241326
0.241317
0.24129
0.241311
0.241289
0.241134
0.241093
0.241147
0.241077
0.241043
0.241025
0.241031
0.241088
0.241031
0.241069
0.241053
0.241103
0.241263
0.241264
0.24133
0.241619
0.242117
0.242524
0.242834
0.243171
0.2436
0.244247
0.245087
0.245986
0.246919
0.248098
0.24964
0.251457
0.253237
0.254968
0.256583
0.258161
0.259548
0.26068
0.261837
0.262886
0.263596
0.264316
0.265155
0.265456
0.265805
0.266214
0.266373
0.26679
0.26788
0.269438
0.271214
0.273747
0.276675
0.280058
0.283317
0.285798
0.287702
0.28944
0.290626
0.291681
0.29256
0.293595
0.295506
0.298641
0.302286
0.306181
0.308329
0.308795
0.310984
0.314108
0.315688
0.317339
0.321569
0.325857
0.326781
0.329064
0.331891
0.33461
0.337042
0.340277
0.34469
0.346861
0.348482
0.352505
0.355262
0.371535
0.519087
0.811044
1.06902
1.15353
1.15855
1.1772
1.17227
0.246687
0.246931
0.247189
0.247463
0.247774
0.248113
0.248449
0.248788
0.249145
0.249494
0.249856
0.250279
0.250705
0.251156
0.251656
0.252193
0.252782
0.253386
0.253964
0.254568
0.25522
0.2559
0.256567
0.257228
0.257887
0.258547
0.259176
0.259733
0.260284
0.260894
0.261645
0.26241
0.26321
0.264112
0.26506
0.266147
0.267238
0.267983
0.268536
0.269097
0.269719
0.270209
0.270644
0.270945
0.271241
0.271864
0.272352
0.272578
0.273031
0.274307
0.275015
0.275617
0.276751
0.279072
0.281825
0.284602
0.287294
0.29029
0.293175
0.295411
0.29719
0.298399
0.2988
0.298783
0.299433
0.30064
0.302028
0.304273
0.307241
0.310424
0.313306
0.315646
0.31899
0.320713
0.320628
0.321005
0.323749
0.328621
0.332118
0.333951
0.336606
0.338097
0.339122
0.341719
0.346592
0.351228
0.352293
0.354046
0.357072
0.360458
0.362409
0.365985
0.368599
0.369353
0.41237
0.62698
0.931396
1.1248
1.18199
1.19128
0.265272
0.265531
0.265792
0.266043
0.266298
0.266562
0.266833
0.267121
0.267407
0.267686
0.267957
0.26828
0.268617
0.268947
0.269258
0.269562
0.269887
0.270234
0.270533
0.270859
0.271223
0.271583
0.271872
0.272194
0.272547
0.272951
0.273342
0.273766
0.274181
0.274477
0.274807
0.275039
0.275253
0.275636
0.276156
0.276955
0.277859
0.277991
0.278135
0.278642
0.27944
0.280217
0.280988
0.281846
0.282923
0.284278
0.28604
0.288123
0.290363
0.292626
0.29518
0.297603
0.299678
0.301331
0.302802
0.304209
0.305143
0.305848
0.30652
0.307254
0.307935
0.308504
0.308806
0.309449
0.310828
0.313602
0.317308
0.320858
0.323985
0.326876
0.328196
0.328396
0.329124
0.331096
0.333115
0.335283
0.337825
0.341597
0.345527
0.346121
0.347162
0.349767
0.352793
0.356266
0.358522
0.362215
0.363517
0.363931
0.366154
0.37163
0.375495
0.376426
0.379458
0.38304
0.384491
0.385726
0.473463
0.757609
1.05384
1.18365
0.280934
0.281086
0.281245
0.281406
0.28158
0.281762
0.281955
0.282195
0.28241
0.282607
0.282825
0.283079
0.283346
0.283599
0.283893
0.284098
0.284309
0.284763
0.285088
0.285303
0.285667
0.28614
0.286573
0.287058
0.287677
0.288241
0.288879
0.28977
0.290771
0.291726
0.292617
0.293497
0.294389
0.295391
0.296501
0.297574
0.298556
0.299715
0.301031
0.302342
0.30352
0.304556
0.305417
0.306306
0.307371
0.308334
0.30919
0.310208
0.311255
0.312103
0.312964
0.313866
0.314465
0.314702
0.315057
0.315656
0.315817
0.315733
0.316122
0.317446
0.319442
0.321726
0.324607
0.327872
0.331108
0.333709
0.33581
0.336908
0.337869
0.339698
0.340511
0.340615
0.341303
0.34355
0.347791
0.351704
0.354398
0.355924
0.357273
0.358502
0.359793
0.362066
0.365766
0.370408
0.371401
0.3719
0.374714
0.378944
0.381336
0.383428
0.388053
0.389273
0.389938
0.39292
0.396241
0.399939
0.401085
0.421635
0.568355
0.97022
0.302351
0.30253
0.302712
0.302897
0.303116
0.303375
0.303671
0.30401
0.304317
0.304579
0.304859
0.305198
0.305596
0.305951
0.306399
0.306832
0.307072
0.307361
0.307816
0.30827
0.308762
0.309312
0.309751
0.310133
0.310546
0.310921
0.31128
0.311674
0.312123
0.312617
0.313072
0.313492
0.313929
0.314387
0.314851
0.315331
0.315821
0.31641
0.317099
0.317756
0.318338
0.318935
0.319476
0.320087
0.32074
0.320901
0.321067
0.321744
0.322189
0.322372
0.322801
0.323897
0.325017
0.326041
0.327329
0.329351
0.331983
0.334598
0.336898
0.339352
0.341828
0.343908
0.345715
0.347133
0.348619
0.349922
0.350103
0.349542
0.349435
0.350525
0.353112
0.356622
0.359291
0.361847
0.364832
0.36678
0.368412
0.368926
0.369583
0.371634
0.374899
0.37878
0.380878
0.382877
0.385785
0.386759
0.38773
0.390917
0.394727
0.396022
0.398199
0.401714
0.403184
0.405273
0.408625
0.411544
0.414514
0.415905
0.416718
0.603022
0.3213
0.321424
0.321569
0.321734
0.321894
0.322086
0.322295
0.322489
0.322684
0.322895
0.323153
0.323458
0.323661
0.32386
0.324115
0.324409
0.324677
0.324985
0.325311
0.325563
0.326082
0.326488
0.326657
0.327064
0.327547
0.327577
0.327715
0.328177
0.328869
0.329311
0.329628
0.329972
0.330464
0.331005
0.331635
0.332156
0.332544
0.332931
0.333349
0.333814
0.334459
0.335377
0.336578
0.337916
0.339242
0.340624
0.342162
0.343775
0.345393
0.346934
0.348422
0.349788
0.351072
0.352233
0.353371
0.354552
0.355869
0.357305
0.358374
0.359231
0.359913
0.359846
0.359673
0.359685
0.360078
0.361267
0.362964
0.364468
0.366376
0.368719
0.372118
0.375882
0.378412
0.379589
0.380485
0.381196
0.381723
0.383033
0.385851
0.38908
0.391674
0.394948
0.396378
0.396313
0.397521
0.400481
0.402944
0.405037
0.408937
0.411799
0.412289
0.414329
0.417363
0.419819
0.421884
0.423409
0.425681
0.42849
0.43079
0.4333
0.34372
0.343869
0.344022
0.344184
0.344329
0.344472
0.344649
0.344861
0.34506
0.345269
0.345593
0.345734
0.345909
0.346198
0.346516
0.346818
0.347133
0.347377
0.34769
0.348176
0.348502
0.348762
0.349232
0.34974
0.350214
0.350817
0.3515
0.352053
0.352534
0.35303
0.353549
0.354085
0.354719
0.355392
0.355978
0.35664
0.357371
0.358063
0.35872
0.359461
0.360268
0.360945
0.361579
0.362235
0.362861
0.363318
0.363749
0.364235
0.364925
0.36577
0.366555
0.367256
0.368045
0.368465
0.368511
0.36841
0.368463
0.368979
0.36962
0.370376
0.371495
0.372998
0.374537
0.37638
0.378613
0.381513
0.384608
0.387735
0.390632
0.392348
0.393127
0.393617
0.39464
0.394778
0.3951
0.396388
0.398776
0.401564
0.404422
0.407272
0.408624
0.40911
0.410691
0.412187
0.413462
0.415823
0.419961
0.422529
0.424024
0.425678
0.42612
0.427058
0.429999
0.433204
0.435755
0.437879
0.439681
0.442167
0.444314
0.447444
0.367337
0.367477
0.367642
0.36781
0.367992
0.368182
0.368384
0.368586
0.368781
0.368986
0.369212
0.369464
0.369705
0.369904
0.370122
0.370397
0.370628
0.370991
0.371416
0.371487
0.37158
0.371848
0.372139
0.372362
0.372588
0.373007
0.373454
0.373509
0.373576
0.373772
0.374197
0.374618
0.375077
0.3755
0.375864
0.37633
0.37678
0.377333
0.377966
0.378559
0.379366
0.37974
0.379904
0.380196
0.381156
0.38164
0.381853
0.382227
0.382868
0.383716
0.384545
0.385363
0.386463
0.387981
0.389755
0.391428
0.392914
0.394554
0.396403
0.398064
0.399685
0.401401
0.403285
0.405176
0.406711
0.408008
0.407919
0.407869
0.408295
0.409049
0.408822
0.408837
0.40958
0.411482
0.413992
0.416538
0.419272
0.422008
0.42328
0.424467
0.425362
0.425708
0.426557
0.429309
0.43254
0.434915
0.436847
0.437942
0.438354
0.439654
0.442393
0.445242
0.44781
0.449213
0.450664
0.452801
0.454394
0.455732
0.457471
0.460571
0.393516
0.393624
0.393748
0.393875
0.394009
0.394163
0.39431
0.394449
0.394612
0.394806
0.394953
0.395152
0.395421
0.395522
0.395682
0.395991
0.396309
0.396446
0.396586
0.396886
0.397275
0.397633
0.397988
0.398281
0.398671
0.3991
0.399478
0.399886
0.40032
0.400725
0.40114