/*--------------------------------*- C++ -*----------------------------------*\
  =========                 |
  \\      /  F ield         | OpenFOAM: The Open Source CFD Toolbox
   \\    /   O peration     | Website:  https://openfoam.org
    \\  /    A nd           | Version:  7
     \\/     M anipulation  |
\*---------------------------------------------------------------------------*/
FoamFile
{
    version     2.0;
    format      ascii;
    class       volScalarField;
    location    "8.5";
    object      T;
}
// * * * * * * * * * * * * * * * * * * * * * * * * * * * * * * * * * * * * * //

dimensions      [0 0 0 1 0 0 0];

internalField   nonuniform List<scalar> 
90000
(
0.673429
0.801112
0.881485
0.960315
0.987605
0.999469
1.03322
1.06079
1.07548
1.09782
1.1233
1.14808
1.17363
1.20062
1.22638
1.25031
1.27174
1.29239
1.30705
1.32035
1.32499
1.32924
1.32786
1.32386
1.31786
1.31155
1.30338
1.29758
1.2918
1.28946
1.28729
1.28704
1.28614
1.28403
1.27966
1.27216
1.26289
1.25275
1.24417
1.23964
1.24025
1.24234
1.24639
1.2514
1.25537
1.25472
1.25125
1.24416
1.23372
1.22394
1.21528
1.20991
1.20612
1.20661
1.20751
1.20715
1.20473
1.19887
1.19012
1.18156
1.17518
1.17163
1.17117
1.17078
1.16909
1.16382
1.15669
1.15117
1.14712
1.14647
1.14712
1.14442
1.13904
1.13419
1.13139
1.13049
1.12913
1.12619
1.12299
1.12179
1.12197
1.12039
1.11785
1.11564
1.1144
1.11418
1.11348
1.11274
1.11265
1.11344
1.11499
1.11623
1.11688
1.11765
1.11888
1.12004
1.12104
1.12271
1.1247
1.12722
0.504799
0.504625
0.504433
0.504234
0.504025
0.503811
0.503578
0.503359
0.502979
0.504368
0.511377
0.529321
0.558153
0.60565
0.66849
0.74292
0.828049
0.910614
0.995348
1.07038
1.13782
1.19138
1.23692
1.27325
1.30086
1.32603
1.34512
1.36285
1.37239
1.38298
1.3829
1.38237
1.3787
1.37383
1.36587
1.36031
1.35582
1.35265
1.34974
1.34944
1.35048
1.34991
1.34905
1.34703
1.34238
1.33315
1.32441
1.31684
1.31099
1.30722
1.30447
1.30201
1.29925
1.2964
1.29237
1.28552
1.27721
1.2692
1.26182
1.25614
1.25157
1.24767
1.24348
1.23753
1.22939
1.22061
1.21322
1.20821
1.20434
1.20135
1.19467
1.1871
1.17956
1.17419
1.1702
1.16622
1.16034
1.1542
1.14964
1.14665
1.14225
1.13805
1.13398
1.13038
1.12752
1.12527
1.12339
1.12152
1.12015
1.11941
1.11901
1.11925
1.1203
1.12167
1.12287
1.12385
1.12423
1.12453
1.12565
1.12847
0.503085
0.502908
0.502716
0.502509
0.502291
0.502062
0.50182
0.501563
0.501303
0.501015
0.500639
0.500225
0.499813
0.49941
0.499028
0.498656
0.498311
0.497967
0.497676
0.497228
0.502354
0.521339
0.571589
0.644216
0.741395
0.839351
0.942278
1.0268
1.10409
1.16447
1.21796
1.26312
1.30307
1.33996
1.36772
1.39505
1.41263
1.42672
1.43319
1.43156
1.42726
1.42065
1.41104
1.39678
1.38069
1.367
1.35524
1.3555
1.3605
1.36793
1.37423
1.37757
1.37575
1.37023
1.3605
1.34917
1.33981
1.33352
1.32977
1.32905
1.32821
1.32464
1.31761
1.30841
1.29957
1.29312
1.28811
1.28295
1.27669
1.26794
1.25854
1.25012
1.24249
1.23542
1.2285
1.22026
1.21224
1.20417
1.19699
1.18969
1.18256
1.17517
1.16757
1.16085
1.1553
1.15046
1.14586
1.1418
1.13882
1.13608
1.13277
1.1298
1.12793
1.128
1.1298
1.13134
1.13134
1.13077
1.13002
1.13056
0.500337
0.500135
0.499921
0.4997
0.499474
0.499244
0.499011
0.498775
0.498539
0.498301
0.498062
0.49783
0.4976
0.497372
0.497146
0.496925
0.496708
0.496494
0.496283
0.496081
0.495848
0.495601
0.495365
0.495142
0.494939
0.494743
0.494574
0.494326
0.496985
0.514622
0.568404
0.645661
0.756879
0.866374
0.985639
1.08037
1.16505
1.23386
1.28901
1.331
1.36458
1.37879
1.39291
1.39182
1.3888
1.39019
1.39313
1.39847
1.40132
1.40329
1.40586
1.40566
1.40392
1.39786
1.39268
1.38958
1.3873
1.38626
1.38432
1.38294
1.38078
1.37619
1.36986
1.36407
1.35922
1.35483
1.35182
1.34922
1.34393
1.33598
1.32646
1.31785
1.31106
1.30433
1.29623
1.2871
1.27774
1.26884
1.26017
1.25125
1.24116
1.23022
1.22012
1.21113
1.20249
1.19357
1.18451
1.17688
1.17064
1.16552
1.16074
1.15558
1.15064
1.1467
1.14385
1.14272
1.14332
1.1435
1.14181
1.13893
0.497753
0.49761
0.497463
0.497313
0.49716
0.497008
0.496855
0.496703
0.496551
0.496401
0.49625
0.496102
0.495952
0.495802
0.495651
0.495502
0.495353
0.495209
0.495062
0.494922
0.494784
0.494645
0.494511
0.494378
0.494254
0.49413
0.494004
0.493885
0.493731
0.493566
0.493407
0.493268
0.493136
0.493025
0.492879
0.493356
0.523808
0.595403
0.721146
0.85624
0.990306
1.10387
1.2009
1.28108
1.34739
1.39758
1.4158
1.42686
1.42515
1.4222
1.4181
1.41111
1.402
1.39291
1.396
1.40122
1.40633
1.40984
1.41145
1.41003
1.40491
1.39893
1.39538
1.39494
1.39595
1.39578
1.39331
1.38893
1.38358
1.37847
1.37408
1.36996
1.36534
1.36042
1.35412
1.34641
1.33921
1.33233
1.32455
1.31454
1.30364
1.29315
1.28322
1.27384
1.26365
1.25274
1.24227
1.23272
1.22366
1.21417
1.20419
1.19566
1.1893
1.18362
1.1775
1.17163
1.16679
1.16334
1.16172
1.15753
0.496
0.495912
0.495822
0.49573
0.495636
0.495542
0.495448
0.495352
0.495255
0.495158
0.495063
0.494965
0.494865
0.494761
0.494655
0.494549
0.494446
0.49434
0.494237
0.494134
0.494029
0.493925
0.49382
0.493716
0.493612
0.493507
0.493403
0.493294
0.493184
0.493078
0.492976
0.492884
0.492794
0.49271
0.492635
0.492566
0.492483
0.492404
0.492313
0.492224
0.492095
0.505066
0.566533
0.713747
0.889623
1.0563
1.16809
1.25718
1.31127
1.35471
1.37169
1.3858
1.38844
1.39412
1.40469
1.41366
1.41933
1.42172
1.42073
1.41655
1.40941
1.40317
1.40344
1.40524
1.40766
1.41093
1.40999
1.40696
1.40239
1.39821
1.3962
1.39697
1.39583
1.39207
1.38733
1.38356
1.38019
1.37681
1.37177
1.36448
1.35625
1.34915
1.34198
1.3334
1.32365
1.3134
1.30349
1.29438
1.28463
1.27414
1.26333
1.25299
1.24357
1.23486
1.22663
1.21863
1.21071
1.20261
1.19598
1.18728
0.494876
0.49482
0.49476
0.494698
0.494636
0.494572
0.494506
0.494438
0.494368
0.494301
0.494231
0.494158
0.49408
0.493997
0.493912
0.493827
0.493742
0.493658
0.493575
0.49349
0.493405
0.49332
0.493237
0.493155
0.493074
0.492996
0.492916
0.492831
0.492752
0.492672
0.492591
0.492515
0.492445
0.492375
0.49231
0.49226
0.492214
0.492162
0.492094
0.49202
0.49195
0.491857
0.491768
0.491703
0.491659
0.491632
0.538433
0.655613
0.840245
0.999575
1.13021
1.23717
1.31811
1.36963
1.40047
1.40473
1.41017
1.41426
1.4119
1.40401
1.40301
1.40427
1.40899
1.41244
1.41292
1.41199
1.41052
1.40772
1.40605
1.4053
1.40608
1.40644
1.40578
1.4037
1.40132
1.40076
1.40039
1.39854
1.39528
1.3908
1.38639
1.38257
1.37939
1.37515
1.36905
1.36243
1.35605
1.34938
1.34185
1.33267
1.32253
1.31362
1.30467
1.29491
1.28564
1.27644
1.2672
1.25772
1.24859
1.23407
0.494081
0.494039
0.493993
0.493945
0.493895
0.493844
0.493789
0.49373
0.493672
0.493616
0.493556
0.493492
0.493421
0.493346
0.49327
0.493198
0.49313
0.493065
0.493001
0.49294
0.492877
0.492816
0.49276
0.492705
0.492651
0.492598
0.492541
0.49248
0.49242
0.492357
0.492289
0.492228
0.492169
0.492107
0.492054
0.492013
0.491971
0.491922
0.491866
0.491809
0.491749
0.491687
0.491631
0.491592
0.491587
0.491586
0.491576
0.491569
0.491568
0.491538
0.530968
0.654637
0.860978
1.03248
1.16769
1.25346
1.32156
1.36105
1.37408
1.38327
1.39301
1.40671
1.41826
1.41623
1.41161
1.40698
1.40533
1.40401
1.40467
1.40767
1.41033
1.40897
1.40613
1.40419
1.4042
1.40561
1.4059
1.40506
1.40223
1.40004
1.39933
1.39897
1.39749
1.39522
1.39261
1.39009
1.38795
1.38465
1.37987
1.37508
1.36935
1.36273
1.35758
1.35033
1.34188
1.33391
1.32548
1.31553
1.30725
1.29182
0.493433
0.493393
0.493351
0.493307
0.493262
0.493214
0.493163
0.49311
0.493058
0.493005
0.492949
0.492889
0.492827
0.492766
0.492709
0.49266
0.492621
0.492583
0.492549
0.492515
0.492479
0.492443
0.492413
0.49238
0.492344
0.492305
0.492259
0.492213
0.492168
0.492117
0.492062
0.492009
0.491958
0.491902
0.491859
0.491824
0.491784
0.491747
0.491706
0.491655
0.491604
0.491552
0.491511
0.491509
0.491528
0.491543
0.491541
0.491534
0.491531
0.49152
0.491482
0.491444
0.491418
0.491373
0.554949
0.73894
0.925431
1.09135
1.21763
1.31846
1.36867
1.39166
1.40432
1.40701
1.40564
1.39747
1.39615
1.39844
1.40356
1.4077
1.40707
1.40451
1.40224
1.40243
1.40466
1.40745
1.40675
1.40465
1.40152
1.40141
1.40274
1.40367
1.40322
1.40226
1.40129
1.40153
1.40181
1.40104
1.39887
1.39622
1.39519
1.39366
1.38992
1.38774
1.38381
1.37813
1.37276
1.36593
1.35836
1.34554
0.492818
0.492779
0.492738
0.492698
0.492658
0.492617
0.492579
0.492542
0.492504
0.492463
0.492419
0.492375
0.492335
0.492305
0.492282
0.492272
0.492265
0.492253
0.492242
0.492229
0.492211
0.492193
0.492173
0.492146
0.492116
0.49208
0.492041
0.492003
0.491964
0.491919
0.491872
0.491826
0.491779
0.491735
0.4917
0.491668
0.491638
0.49161
0.491569
0.491514
0.491463
0.491423
0.49142
0.491437
0.491493
0.491502
0.491491
0.491476
0.491463
0.491444
0.491414
0.491379
0.491371
0.49137
0.491363
0.491291
0.491275
0.516983
0.65725
0.883208
1.08279
1.20412
1.30768
1.3488
1.37162
1.37703
1.38917
1.39878
1.40564
1.40467
1.4019
1.39688
1.39735
1.40075
1.40528
1.40545
1.40384
1.4001
1.39902
1.40114
1.40471
1.40448
1.40336
1.4024
1.40294
1.40471
1.4059
1.40593
1.40601
1.40579
1.40616
1.4076
1.40722
1.40614
1.40589
1.40428
1.40089
1.39866
1.39528
1.38679
0.492275
0.492251
0.492227
0.492205
0.492182
0.492159
0.492139
0.492117
0.492094
0.492074
0.492055
0.492033
0.49202
0.492021
0.49203
0.492049
0.492054
0.492051
0.492047
0.492041
0.492032
0.49202
0.492004
0.491981
0.491949
0.491906
0.491866
0.491838
0.491804
0.49176
0.491716
0.491674
0.491637
0.491604
0.491577
0.491556
0.491534
0.491504
0.491458
0.491406
0.491356
0.491339
0.491345
0.491389
0.491463
0.491472
0.491451
0.491419
0.491387
0.491368
0.491337
0.491305
0.49132
0.491354
0.491356
0.491371
0.491453
0.491494
0.49159
0.491675
0.512024
0.640819
0.871155
1.08624
1.23932
1.329
1.37522
1.38561
1.39729
1.39729
1.38935
1.39029
1.3956
1.39961
1.40166
1.40017
1.39499
1.3941
1.39653
1.40127
1.4029
1.402
1.40083
1.40126
1.40371
1.40649
1.40677
1.4064
1.40673
1.40816
1.40997
1.41169
1.41403
1.41413
1.41421
1.41505
1.41499
1.41325
1.41277
1.41064
0.491942
0.491931
0.491922
0.491914
0.491906
0.491899
0.491897
0.491892
0.491882
0.491874
0.491868
0.491863
0.491863
0.491868
0.49189
0.491922
0.491924
0.491916
0.491903
0.491897
0.49189
0.491876
0.491859
0.491836
0.49179
0.491731
0.491693
0.491665
0.491627
0.491588
0.491557
0.491532
0.491518
0.491509
0.491501
0.491496
0.491486
0.491458
0.491407
0.491363
0.491322
0.491294
0.491301
0.49136
0.491424
0.491422
0.491398
0.491348
0.491312
0.491301
0.491296
0.491275
0.491281
0.49131
0.491364
0.491563
0.491726
0.491746
0.491759
0.491816
0.491887
0.491857
0.491611
0.518762
0.680329
0.951046
1.15571
1.26242
1.34891
1.36276
1.37625
1.38743
1.40084
1.40063
1.39812
1.38947
1.38784
1.39098
1.39805
1.40072
1.39914
1.39628
1.39685
1.40025
1.40363
1.405
1.40498
1.40512
1.40655
1.40962
1.41211
1.41352
1.41511
1.41658
1.41727
1.41804
1.41952
1.41996
1.41952
1.41935
0.491773
0.491764
0.49176
0.491762
0.491763
0.491762
0.491771
0.491782
0.491776
0.49176
0.491758
0.491754
0.491748
0.491749
0.49177
0.491784
0.491781
0.491769
0.491748
0.491728
0.491711
0.491695
0.491678
0.491648
0.491594
0.491543
0.491509
0.49149
0.49147
0.49145
0.491451
0.491459
0.491471
0.491484
0.491489
0.491491
0.491491
0.491466
0.491412
0.491371
0.491328
0.491285
0.491291
0.491348
0.491364
0.491351
0.491314
0.491288
0.491285
0.491285
0.491294
0.491303
0.491282
0.491291
0.49146
0.491863
0.491943
0.491879
0.49183
0.491842
0.491867
0.49176
0.49149
0.491227
0.490913
0.490638
0.551655
0.8031
1.03483
1.21143
1.34286
1.38294
1.39713
1.39687
1.38619
1.38019
1.38508
1.3946
1.39875
1.39713
1.39192
1.39225
1.39545
1.39953
1.40186
1.40195
1.40211
1.40308
1.40561
1.40882
1.41126
1.41266
1.41401
1.41641
1.41798
1.419
1.42003
1.42135
1.42183
1.42278
0.491687
0.49168
0.491674
0.491667
0.491659
0.491649
0.491648
0.491651
0.491648
0.49164
0.49164
0.491637
0.491625
0.491621
0.491619
0.491613
0.4916
0.49158
0.491557
0.49154
0.491521
0.491501
0.491486
0.491465
0.491429
0.491393
0.491363
0.491355
0.491361
0.491383
0.491416
0.491453
0.491495
0.491524
0.491522
0.491522
0.49151
0.491478
0.491436
0.49139
0.491343
0.491316
0.491325
0.491331
0.491317
0.491264
0.491237
0.491267
0.491285
0.491293
0.491337
0.4914
0.491407
0.491437
0.491684
0.491983
0.492009
0.491937
0.491888
0.491858
0.491781
0.491505
0.491204
0.490921
0.490648
0.490555
0.490581
0.490727
0.490993
0.671721
0.952615
1.16101
1.29785
1.34612
1.36649
1.37803
1.39602
1.40252
1.39977
1.38966
1.38801
1.39174
1.39749
1.39986
1.39949
1.39922
1.39969
1.4018
1.40482
1.40736
1.40953
1.41117
1.41289
1.41541
1.4173
1.41836
1.41955
1.4213
1.42234
1.42376
0.491568
0.491562
0.491554
0.491545
0.491532
0.491521
0.491513
0.491505
0.491497
0.491493
0.491488
0.491475
0.491457
0.491444
0.491435
0.491426
0.491416
0.491406
0.491395
0.491387
0.491375
0.491359
0.491349
0.491345
0.491334
0.491317
0.491304
0.491304
0.49132
0.491371
0.491448
0.491524
0.49158
0.491596
0.491597
0.49158
0.491522
0.491476
0.491451
0.49141
0.491382
0.491368
0.491334
0.491289
0.491217
0.49115
0.491178
0.491277
0.491315
0.491355
0.491458
0.491605
0.491643
0.491653
0.491793
0.491982
0.491998
0.491946
0.491832
0.491709
0.491437
0.491057
0.490806
0.490641
0.490534
0.490538
0.490677
0.491086
0.491766
0.492067
0.491949
0.588082
0.843955
1.09598
1.28952
1.37102
1.4002
1.39968
1.38987
1.38344
1.38816
1.39655
1.39857
1.39805
1.39708
1.39724
1.39872
1.40155
1.40426
1.40577
1.40746
1.40944
1.41136
1.41339
1.41535
1.41676
1.41813
1.41978
1.42144
1.42349
0.491481
0.491472
0.491463
0.491454
0.491442
0.491423
0.491409
0.491397
0.491386
0.491378
0.491367
0.491346
0.491326
0.491321
0.491323
0.49133
0.491331
0.491327
0.491321
0.491316
0.491309
0.491297
0.491294
0.491298
0.491302
0.491298
0.491291
0.491293
0.491338
0.491446
0.491517
0.491572
0.491617
0.491628
0.491625
0.491592
0.491508
0.491463
0.491457
0.491436
0.491404
0.491353
0.49128
0.491194
0.491094
0.491066
0.491152
0.491406
0.491475
0.491522
0.491675
0.491847
0.491837
0.491772
0.491805
0.491849
0.491789
0.491623
0.491425
0.491239
0.490983
0.490655
0.490484
0.490455
0.49049
0.490643
0.491105
0.491737
0.492271
0.492231
0.491915
0.491375
0.490856
0.531358
0.796306
1.08572
1.26598
1.33489
1.36631
1.37865
1.39756
1.40201
1.39689
1.39381
1.39395
1.39554
1.39873
1.40121
1.40306
1.40385
1.40534
1.40744
1.40961
1.41104
1.41259
1.41422
1.4158
1.41752
1.41947
1.42199
0.491318
0.491331
0.491337
0.491339
0.491338
0.491337
0.491333
0.491329
0.491326
0.491323
0.491316
0.491303
0.49129
0.491288
0.491291
0.491304
0.491307
0.491299
0.491293
0.491292
0.491287
0.491275
0.491271
0.491277
0.491306
0.491317
0.491314
0.491317
0.491378
0.491501
0.49152
0.491527
0.491556
0.491582
0.491579
0.491542
0.491467
0.491429
0.491431
0.491435
0.491418
0.491361
0.491261
0.491101
0.491007
0.491014
0.491186
0.49159
0.491701
0.491802
0.491975
0.492014
0.491927
0.491789
0.491672
0.491522
0.49129
0.491064
0.490914
0.490838
0.490706
0.490436
0.490372
0.490402
0.490579
0.491115
0.491895
0.492394
0.492448
0.492195
0.491715
0.491194
0.490783
0.491595
0.492648
0.52138
0.742951
1.03232
1.26094
1.35761
1.39073
1.39345
1.39062
1.38706
1.39053
1.3939
1.39662
1.39796
1.39907
1.40018
1.40202
1.40409
1.40614
1.40726
1.40864
1.41039
1.41205
1.41356
1.41522
1.41795
0.49127
0.491305
0.491334
0.491358
0.491374
0.491383
0.491391
0.491401
0.491415
0.491429
0.49144
0.491444
0.491436
0.491419
0.491412
0.49141
0.491396
0.491363
0.491358
0.491357
0.491334
0.491313
0.491319
0.49135
0.4914
0.49142
0.491423
0.491417
0.491396
0.491368
0.491351
0.491338
0.491348
0.491372
0.491379
0.491372
0.491341
0.491333
0.49135
0.491383
0.491387
0.491366
0.491245
0.491053
0.490995
0.491034
0.491357
0.491723
0.491831
0.492025
0.492096
0.492071
0.491939
0.491591
0.491324
0.491101
0.490819
0.490685
0.490658
0.49066
0.490598
0.490423
0.490422
0.490648
0.491201
0.492129
0.492792
0.492727
0.492373
0.491794
0.491548
0.491118
0.492212
0.494147
0.496339
0.496286
0.49601
0.506479
0.73649
1.04686
1.24774
1.31657
1.35629
1.37492
1.38489
1.38426
1.3865
1.38795
1.3901
1.39245
1.39451
1.39628
1.39804
1.3997
1.40132
1.40319
1.40489
1.40656
1.40829
1.41136
0.491568
0.491603
0.491615
0.491628
0.491633
0.491633
0.491627
0.491616
0.491615
0.491621
0.491629
0.491629
0.491615
0.491588
0.491565
0.491521
0.491437
0.491397
0.491404
0.491407
0.491379
0.491363
0.49137
0.491402
0.49142
0.491412
0.49137
0.491286
0.491184
0.491047
0.490994
0.491002
0.49106
0.491081
0.491114
0.491172
0.491169
0.49111
0.491104
0.491167
0.491244
0.491222
0.491097
0.491053
0.491075
0.491219
0.491661
0.491787
0.491838
0.491973
0.492015
0.492
0.491738
0.491258
0.491062
0.49082
0.490548
0.490529
0.490589
0.49063
0.49066
0.490781
0.491135
0.491775
0.492616
0.49338
0.493343
0.492925
0.492126
0.491587
0.491785
0.493864
0.496693
0.497492
0.497933
0.498895
0.500624
0.501664
0.502926
0.521853
0.730956
1.02239
1.23836
1.31901
1.35322
1.36003
1.36812
1.3683
1.37243
1.37537
1.37811
1.38075
1.38276
1.385
1.38726
1.38983
1.39191
1.39419
1.39623
1.39953
0.491701
0.4917
0.491695
0.491691
0.491691
0.491691
0.491688
0.491682
0.491674
0.491674
0.491674
0.491667
0.491645
0.491619
0.491587
0.491512
0.491393
0.491345
0.491344
0.491337
0.491293
0.491243
0.491227
0.491201
0.491136
0.491048
0.490958
0.490917
0.490893
0.490828
0.490798
0.490803
0.490865
0.490909
0.490954
0.491022
0.491028
0.490953
0.49093
0.491007
0.491222
0.491438
0.491459
0.491406
0.491382
0.491481
0.491744
0.491777
0.491701
0.491602
0.491547
0.491511
0.491308
0.491066
0.490952
0.490713
0.490496
0.490493
0.490609
0.490814
0.491156
0.491867
0.492824
0.493672
0.494191
0.494172
0.493983
0.49303
0.492419
0.493207
0.495431
0.498322
0.501343
0.501306
0.501073
0.502268
0.50541
0.508929
0.512278
0.512906
0.513884
0.532793
0.755193
1.02784
1.22146
1.29007
1.32589
1.33728
1.34808
1.34754
1.35063
1.35452
1.35808
1.3612
1.36413
1.36715
1.36991
1.37323
1.37596
1.38034
0.491591
0.491594
0.491592
0.491578
0.491553
0.491518
0.491478
0.49144
0.491405
0.491372
0.491334
0.491275
0.491209
0.491156
0.491072
0.490922
0.490805
0.490713
0.490605
0.490562
0.490567
0.490582
0.490613
0.490649
0.490635
0.490606
0.490613
0.490673
0.490735
0.490728
0.490731
0.490745
0.490829
0.490915
0.491033
0.491152
0.491145
0.491168
0.491358
0.491546
0.491782
0.491927
0.491914
0.491794
0.491737
0.491744
0.49177
0.491749
0.491606
0.491446
0.491336
0.491225
0.491077
0.491001
0.490927
0.490745
0.490741
0.490888
0.491399
0.49217
0.493082
0.494102
0.494966
0.495546
0.495283
0.495011
0.495061
0.495724
0.497402
0.500162
0.502168
0.502836
0.504266
0.506187
0.508198
0.509446
0.511212
0.514878
0.518217
0.519727
0.522203
0.523375
0.524573
0.556637
0.776511
1.03962
1.21181
1.26647
1.30133
1.31464
1.32104
1.32132
1.32428
1.32844
1.333
1.33683
1.34022
1.344
1.34745
1.35295
0.49067
0.490637
0.490615
0.490602
0.49058
0.49054
0.490535
0.490544
0.490541
0.490517
0.490496
0.490472
0.490446
0.490417
0.490357
0.490288
0.490249
0.490197
0.490154
0.490158
0.490187
0.490245
0.490348
0.490498
0.490553
0.490575
0.490627
0.490752
0.490917
0.491045
0.491137
0.491257
0.491465
0.491696
0.49197
0.492071
0.492035
0.492108
0.492214
0.492173
0.492193
0.492259
0.492261
0.492134
0.492019
0.492033
0.492127
0.492007
0.491686
0.491512
0.491405
0.491229
0.491133
0.491218
0.491455
0.491899
0.492608
0.493568
0.49473
0.495758
0.496613
0.49712
0.49748
0.497587
0.497304
0.49738
0.498543
0.501312
0.504461
0.507151
0.509056
0.508985
0.509259
0.511509
0.514911
0.517409
0.520399
0.522605
0.523724
0.526282
0.528501
0.529603
0.532473
0.535434
0.536619
0.588286
0.814975
1.05297
1.19829
1.24261
1.27785
1.28791
1.29182
1.29295
1.29652
1.30116
1.30552
1.30968
1.3129
1.31906
0.49042
0.490343
0.490339
0.490355
0.490319
0.490293
0.490336
0.490407
0.490413
0.490381
0.490364
0.490378
0.49038
0.490371
0.490343
0.490316
0.490303
0.490306
0.490323
0.490406
0.490565
0.490754
0.490968
0.491201
0.491412
0.491593
0.491777
0.492011
0.492254
0.492443
0.492634
0.492787
0.492889
0.493077
0.493123
0.493102
0.493019
0.492886
0.492727
0.492495
0.492382
0.492434
0.4925
0.492467
0.492448
0.492476
0.492433
0.492121
0.491777
0.491712
0.491776
0.491844
0.492129
0.492911
0.494212
0.495814
0.497341
0.498622
0.499623
0.500301
0.500681
0.500917
0.501336
0.502001
0.503073
0.504663
0.506588
0.509243
0.511939
0.513283
0.515072
0.516711
0.518096
0.519671
0.521707
0.524547
0.527554
0.529637
0.531465
0.532237
0.533596
0.537114
0.540453
0.542634
0.544312
0.545273
0.546285
0.625607
0.852803
1.06362
1.18826
1.22373
1.25457
1.26266
1.26637
1.26731
1.27082
1.27521
1.27816
1.28364
0.490603
0.490526
0.490509
0.490497
0.490483
0.490523
0.490637
0.490741
0.490846
0.49095
0.49106
0.491208
0.491397
0.491618
0.491819
0.491895
0.491931
0.491976
0.492056
0.492197
0.492386
0.492569
0.492743
0.492904
0.493055
0.493221
0.493391
0.493523
0.493622
0.493685
0.493731
0.493788
0.493804
0.493766
0.493592
0.493411
0.493244
0.493038
0.492665
0.492308
0.49223
0.492264
0.492391
0.492519
0.492695
0.492884
0.493075
0.493471
0.493978
0.494586
0.495523
0.496836
0.498557
0.500304
0.501904
0.503164
0.504259
0.50485
0.504965
0.505254
0.505557
0.506202
0.507729
0.509823
0.512127
0.514444
0.516454
0.5181
0.519758
0.520935
0.522071
0.52403
0.526176
0.528088
0.531072
0.533701
0.534192
0.536056
0.538583
0.539676
0.541542
0.545184
0.547177
0.547944
0.549671
0.552449
0.555911
0.556934
0.557829
0.666558
0.89214
1.08249
1.18299
1.21145
1.23852
1.23819
1.24155
1.24309
1.24561
1.25148
0.493106
0.493053
0.493038
0.493051
0.493092
0.49319
0.493373
0.493471
0.493497
0.493519
0.493564
0.49365
0.493863
0.494068
0.494093
0.494089
0.494068
0.494035
0.49401
0.494
0.494006
0.494026
0.494105
0.494185
0.494197
0.494238
0.494348
0.49444
0.494441
0.494373
0.494353
0.494359
0.494316
0.494085
0.493557
0.493415
0.493433
0.493425
0.493416
0.493501
0.493871
0.494518
0.495308
0.496363
0.497647
0.499126
0.500621
0.501974
0.503345
0.504802
0.506029
0.507226
0.508307
0.50888
0.509414
0.509925
0.510574
0.510766
0.510827
0.511295
0.5126
0.514867
0.517402
0.520193
0.522603
0.524509
0.52624
0.526829
0.527577
0.528948
0.530621
0.532704
0.534681
0.536544
0.539165
0.541887
0.542686
0.54263
0.543904
0.54747
0.550177
0.552104
0.553958
0.555447
0.556939
0.559223
0.562596
0.564128
0.565078
0.566254
0.567662
0.718914
0.939963
1.10658
1.17953
1.19993
1.2213
1.21718
1.21906
1.22309
0.495015
0.494898
0.494869
0.494881
0.494866
0.49485
0.494874
0.494872
0.494862
0.494888
0.494877
0.494771
0.494753
0.494811
0.494769
0.494764
0.494773
0.4948
0.49488
0.494858
0.494914
0.494922
0.494978
0.495131
0.495146
0.495214
0.495473
0.495891
0.496197
0.496423
0.496682
0.497025
0.497544
0.498214
0.498936
0.499692
0.500649
0.501891
0.50335
0.504776
0.506157
0.507434
0.508668
0.509749
0.510627
0.511524
0.512341
0.512896
0.513459
0.514121
0.514358
0.514631
0.514939
0.515052
0.515358
0.51619
0.517399
0.518791
0.520757
0.522979
0.525511
0.527934
0.529781
0.531195
0.532481
0.533362
0.534142
0.534796
0.53556
0.536972
0.539263
0.541885
0.544674
0.546214
0.546542
0.548085
0.550287
0.551397
0.552552
0.555508
0.558478
0.559094
0.560633
0.562536
0.564351
0.565962
0.568096
0.571
0.572403
0.573448
0.576077
0.577825
0.596439
0.776706
0.984307
1.12592
1.17422
1.18694
1.20287
1.20234
0.499525
0.499712
0.49991
0.500122
0.500363
0.500628
0.50089
0.501156
0.501438
0.501713
0.501997
0.502332
0.502669
0.503029
0.503432
0.503864
0.504334
0.504815
0.505278
0.505761
0.506286
0.506832
0.507361
0.507883
0.508403
0.508922
0.509411
0.509844
0.510276
0.510755
0.511346
0.511942
0.512563
0.513262
0.513992
0.514826
0.515657
0.516235
0.516673
0.517121
0.517612
0.517993
0.518328
0.518562
0.51879
0.519262
0.519645
0.519828
0.520184
0.521168
0.521702
0.522136
0.522974
0.524714
0.526768
0.528838
0.530848
0.533074
0.535197
0.536831
0.538121
0.539005
0.539312
0.539305
0.539781
0.540661
0.541663
0.543287
0.545417
0.547685
0.549721
0.551358
0.553678
0.554884
0.554826
0.555086
0.556995
0.560354
0.562735
0.563965
0.565742
0.566723
0.567378
0.569092
0.572302
0.575326
0.575993
0.577121
0.579068
0.581236
0.582478
0.584736
0.586413
0.586904
0.639649
0.846798
1.03143
1.13608
1.16709
1.18315
0.513772
0.513985
0.514201
0.51441
0.514622
0.51484
0.515065
0.515303
0.515539
0.515769
0.515995
0.516261
0.516538
0.51681
0.517066
0.517313
0.517576
0.517857
0.518102
0.518367
0.518659
0.518942
0.519167
0.519417
0.519687
0.519992
0.520289
0.520614
0.520943
0.521189
0.521461
0.521665
0.521859
0.522181
0.522595
0.523201
0.52387
0.523978
0.524093
0.524477
0.525057
0.525609
0.526164
0.526796
0.52759
0.528584
0.529886
0.531428
0.533082
0.534744
0.536612
0.538369
0.539868
0.54106
0.542125
0.543151
0.543838
0.544359
0.544848
0.545375
0.545858
0.546273
0.546502
0.546966
0.547942
0.549903
0.552503
0.554969
0.55712
0.55911
0.560024
0.560164
0.560659
0.562006
0.56339
0.564859
0.566569
0.569097
0.571706
0.572066
0.572729
0.574428
0.576387
0.578624
0.580065
0.582422
0.583229
0.583474
0.58488
0.588343
0.590764
0.591334
0.593224
0.595453
0.596382
0.597162
0.700473
0.926895
1.07264
1.1553
0.526187
0.526288
0.526391
0.526495
0.526608
0.526726
0.526852
0.527014
0.527159
0.527293
0.527445
0.527623
0.527811
0.527986
0.528192
0.528337
0.528491
0.528826
0.529054
0.529198
0.529448
0.529785
0.530103
0.530461
0.530913
0.531328
0.5318
0.532458
0.533193
0.533885
0.534526
0.535164
0.535817
0.536555
0.537369
0.538159
0.538896
0.539765
0.540737
0.541689
0.542533
0.543273
0.543892
0.544536
0.545309
0.546014
0.546642
0.547386
0.548145
0.548759
0.549376
0.550015
0.550443
0.550619
0.55088
0.551316
0.551438
0.551377
0.551648
0.552569
0.553949
0.555533
0.557531
0.559774
0.561978
0.563743
0.565166
0.565913
0.56656
0.567791
0.568345
0.568417
0.568876
0.570384
0.573208
0.575768
0.577513
0.578492
0.57935
0.580126
0.580929
0.582372
0.584727
0.587664
0.588259
0.588553
0.590315
0.592957
0.594436
0.595727
0.598579
0.599328
0.599735
0.601573
0.603604
0.605847
0.606551
0.627474
0.770633
1.06264
0.541652
0.541789
0.541928
0.54207
0.542238
0.542435
0.542657
0.54291
0.543142
0.543341
0.543552
0.543802
0.54409
0.544348
0.544673
0.544987
0.545163
0.545371
0.545695
0.546016
0.546366
0.54676
0.547074
0.547346
0.547641
0.547908
0.548166
0.548451
0.548774
0.549125
0.54944
0.549725
0.550023
0.550341
0.550669
0.551015
0.551371
0.55179
0.552275
0.552734
0.553142
0.553559
0.553938
0.554361
0.554816
0.554948
0.555079
0.555565
0.555877
0.556002
0.556293
0.557038
0.557799
0.558498
0.559381
0.560762
0.562548
0.564316
0.565859
0.567502
0.569158
0.570545
0.571752
0.572699
0.573683
0.57456
0.57469
0.57433
0.574261
0.574982
0.576686
0.578981
0.580705
0.582344
0.584254
0.58548
0.586506
0.5868
0.587194
0.588478
0.590519
0.592938
0.594228
0.595451
0.597235
0.597819
0.598408
0.600361
0.60269
0.603466
0.604781
0.606911
0.607796
0.609058
0.611079
0.612826
0.614583
0.615432
0.615921
0.801136
0.555137
0.55522
0.555318
0.55543
0.55554
0.555672
0.555816
0.55595
0.556085
0.556231
0.556409
0.55662
0.556762
0.556902
0.557079
0.55728
0.557461
0.557668
0.557893
0.558069
0.558429
0.558702
0.558811
0.559084
0.559416
0.559437
0.559528
0.559837
0.560304
0.560598
0.560803
0.561024
0.561345
0.561703
0.562124
0.562469
0.562718
0.562965
0.563245
0.56357
0.564022
0.564657
0.565474
0.566373
0.567265
0.568199
0.569236
0.570317
0.571398
0.572424
0.573414
0.574324
0.575182
0.57596
0.576722
0.577512
0.578388
0.579335
0.580042
0.580607
0.581066
0.58103
0.580926
0.580936
0.581195
0.581968
0.583064
0.584037
0.585263
0.586751
0.588897
0.591258
0.592829
0.593549
0.594095
0.594518
0.594824
0.595618
0.59735
0.599328
0.600904
0.602893
0.603741
0.603684
0.604407
0.606194
0.607671
0.608922
0.611258
0.612966
0.613257
0.614474
0.616278
0.617726
0.618939
0.619835
0.621163
0.622793
0.624116
0.625595
0.570339
0.570439
0.570543
0.570651
0.570749
0.570846
0.570966
0.571109
0.571245
0.571388
0.571606
0.571705
0.571825
0.57202
0.572233
0.572435
0.572645
0.572805
0.573011
0.573328
0.573541
0.573713
0.574023
0.574358
0.574668
0.575061
0.575506
0.575867
0.576184
0.576513
0.57686
0.577219
0.57764
0.578082
0.578464
0.578894
0.579367
0.579817
0.580244
0.580725
0.581248
0.58169
0.582105
0.582533
0.582938
0.58323
0.583508
0.583821
0.584266
0.584812
0.585323
0.585778
0.586284
0.586568
0.586606
0.586546
0.586582
0.586915
0.587327
0.58781
0.588522
0.589472
0.590438
0.591591
0.592981
0.594783
0.596702
0.598632
0.600407
0.601448
0.601913
0.602205
0.602817
0.602881
0.603061
0.603832
0.605268
0.606939
0.608644
0.610339
0.611132
0.611406
0.612335
0.613215
0.613961
0.615358
0.617801
0.619308
0.620182
0.621154
0.621416
0.621963
0.623679
0.625531
0.626993
0.62821
0.629242
0.630664
0.631886
0.633663
0.58577
0.585857
0.58596
0.586065
0.586178
0.586296
0.586422
0.586547
0.586669
0.586796
0.586939
0.587098
0.587252
0.587379
0.587519
0.587696
0.587844
0.588075
0.588347
0.588398
0.588462
0.588637
0.588826
0.588971
0.589116
0.589384
0.589665
0.589692
0.589728
0.589846
0.590108
0.590373
0.590663
0.590931
0.591163
0.59146
0.591752
0.592109
0.592512
0.592887
0.593393
0.593628
0.593728
0.593905
0.594497
0.594776
0.594886
0.595097
0.595484
0.596017
0.596546
0.597067
0.59776
0.598711
0.599817
0.60085
0.601756
0.602755
0.603883
0.604898
0.605891
0.606943
0.608091
0.60923
0.610143
0.610912
0.610856
0.610825
0.611077
0.611515
0.611364
0.611363
0.611792
0.612914
0.614386
0.615872
0.617469
0.619065
0.619793
0.620479
0.62099
0.62118
0.621666
0.623264
0.625132
0.626501
0.627617
0.628252
0.62849
0.629236
0.630805
0.632425
0.63388
0.634673
0.635491
0.636692
0.637585
0.638335
0.639304
0.641033
0.602143
0.602214
0.602295
0.602377
0.602463
0.602559
0.60265
0.602735
0.602834
0.602951
0.603039
0.603157
0.603319
0.60338
0.603475
0.603663
0.603857
0.60394
0.604027
0.604209
0.604444
0.604661
0.604877
0.605058
0.6053
0.605567
0.605803
0.606056
0.606322
0.606567
0.606818
0.607092
0.607338
0.607551
0.607771
0.607968
0.608151
0.608429
0.608795
0.609166
0.609545
0.609997
0.610475
0.610954
0.611456
0.611991
0.612525
0.612974
0.613411
0.613898
0.614427
0.614966
0.61551
0.615988
0.616258
0.61656
0.617013
0.61753
0.618086
0.618415
0.618611
0.618519
0.618379
0.618419
0.618765
0.619238
0.619169
0.619175
0.619587
0.620761
0.622428
0.624065
0.625508
0.627027
0.628509
0.62954
0.629984
0.63037
0.63043
0.630472
0.631053
0.632258
0.633598
0.634658
0.635859
0.637189
0.637327
0.637709
0.63865
0.63969
0.640966
0.641868
0.642468
0.643016
0.643582
0.644638
0.645919
0.64679