/*--------------------------------*- C++ -*----------------------------------*\
  =========                 |
  \\      /  F ield         | OpenFOAM: The Open Source CFD Toolbox
   \\    /   O peration     | Website:  https://openfoam.org
    \\  /    A nd           | Version:  7
     \\/     M anipulation  |
\*---------------------------------------------------------------------------*/
FoamFile
{
    version     2.0;
    format      ascii;
    class       volScalarField;
    location    "3";
    object      p;
}
// * * * * * * * * * * * * * * * * * * * * * * * * * * * * * * * * * * * * * //

dimensions      [1 -1 -2 0 0 0 0];

internalField   nonuniform List<scalar> 
11200
(
0.161162
0.271185
0.371954
0.470899
0.545935
0.607067
0.661319
0.673964
0.696729
0.704966
0.695582
0.707905
0.732257
0.744846
0.75302
0.737936
0.716366
0.710842
0.71062
0.710087
0.708825
0.703614
0.69676
0.696545
0.70031
0.710822
0.719478
0.772588
0.851542
0.896654
0.055409
0.057245
0.0729265
0.106393
0.173935
0.262768
0.365964
0.479636
0.570376
0.667813
0.733878
0.787576
0.798288
0.784683
0.747959
0.705408
0.680006
0.696431
0.714853
0.724143
0.713872
0.699088
0.691584
0.69649
0.710439
0.719514
0.732831
0.786378
0.868228
0.908488
0.0560832
0.0562139
0.0565943
0.0562318
0.0562487
0.0554619
0.0594035
0.0867141
0.130685
0.20283
0.336073
0.469527
0.569873
0.640347
0.672954
0.690019
0.700325
0.711153
0.713977
0.717301
0.708975
0.70474
0.699294
0.703228
0.717205
0.719775
0.73413
0.794387
0.874434
0.910544
0.0564399
0.056991
0.0572931
0.0576628
0.0579341
0.0576981
0.0575136
0.0575137
0.0574181
0.0569532
0.0574468
0.0748871
0.13362
0.237519
0.383898
0.536618
0.64474
0.684192
0.707014
0.708275
0.698743
0.700392
0.709426
0.722924
0.723359
0.723568
0.739117
0.804016
0.879842
0.916085
0.0591504
0.0591492
0.058985
0.0587743
0.0585446
0.0583092
0.0581002
0.0581514
0.058126
0.0577591
0.0568791
0.0559141
0.0550273
0.0539557
0.0593274
0.10317
0.205144
0.343401
0.496509
0.605818
0.652254
0.696913
0.723149
0.739242
0.735587
0.725079
0.741566
0.811056
0.87522
0.916177
0.0603828
0.0597952
0.0592563
0.0587338
0.058394
0.0582832
0.0581545
0.0579716
0.0577983
0.0573159
0.0562057
0.0547597
0.0537708
0.0532761
0.053024
0.0529699
0.0529419
0.0557863
0.0952469
0.209093
0.389136
0.554205
0.657274
0.707921
0.738614
0.73042
0.747154
0.814839
0.872879
0.919538
0.0590628
0.0583649
0.05766
0.0570592
0.0568826
0.0571165
0.057273
0.0572631
0.0571386
0.0566324
0.0555416
0.0540976
0.0537783
0.0535397
0.0529791
0.0529925
0.0533211
0.0537172
0.0546375
0.0556857
0.0684695
0.126803
0.27479
0.471069
0.624112
0.680933
0.739491
0.82373
0.872809
0.92653
0.057219
0.0566488
0.0560268
0.0556027
0.0556367
0.0559918
0.0564492
0.0568059
0.0568328
0.056493
0.0555283
0.0546296
0.0547447
0.055417
0.0559964
0.0573963
0.0605755
0.0618544
0.0624248
0.0628828
0.0637575
0.0654995
0.0673223
0.0980387
0.220336
0.42421
0.579261
0.780737
0.88052
0.941922
0.0561443
0.0560219
0.0557108
0.0553496
0.0553444
0.0555737
0.0560475
0.0568432
0.0575684
0.0574794
0.0562124
0.0558318
0.0564795
0.0585539
0.0619916
0.0657243
0.070053
0.0728724
0.073654
0.0747803
0.0764289
0.077718
0.0785704
0.0795559
0.0817357
0.101254
0.180027
0.490672
0.802671
0.945795
0.0598289
0.0595085
0.0590033
0.0580046
0.0567213
0.0565531
0.0567378
0.0571989
0.0589435
0.0618713
0.062117
0.061591
0.0617646
0.0636677
0.0683028
0.0723741
0.0752045
0.0782526
0.0812068
0.0848299
0.0892045
0.0932068
0.0961583
0.0961142
0.0949349
0.0975942
0.101011
0.132118
0.514872
0.880536
0.0661279
0.0638652
0.0631631
0.0631714
0.0632507
0.0634719
0.0642111
0.0662146
0.0705993
0.075675
0.0763095
0.0760763
0.0765261
0.0782525
0.0809553
0.0816657
0.0813613
0.0827462
0.0869695
0.0919148
0.0964191
0.100667
0.104846
0.109822
0.111682
0.11094
0.113345
0.115606
0.15482
0.673095
0.0736338
0.0741941
0.0746384
0.0750898
0.0758293
0.0763523
0.0771687
0.0789964
0.0825341
0.0884818
0.091665
0.0922025
0.0928891
0.0950552
0.0979963
0.0992696
0.100048
0.100313
0.10058
0.102029
0.104247
0.10758
0.112155
0.11859
0.123384
0.125997
0.1266
0.130761
0.130433
0.396242
0.0943829
0.0946434
0.0945192
0.0944533
0.0943125
0.0933933
0.0934207
0.0950876
0.0989973
0.10444
0.106963
0.106349
0.105985
0.107231
0.111559
0.116332
0.119544
0.121636
0.122221
0.123233
0.123778
0.124202
0.126
0.129775
0.135395
0.138082
0.140024
0.144179
0.146793
0.195751
0.114017
0.114695
0.115658
0.117075
0.117504
0.117338
0.118004
0.120247
0.123362
0.126857
0.127582
0.12652
0.126265
0.127768
0.1306
0.132599
0.133725
0.135895
0.139887
0.144076
0.14745
0.148566
0.148371
0.148249
0.150302
0.154125
0.157423
0.158708
0.16205
0.165608
0.141649
0.142814
0.144529
0.14624
0.146458
0.144957
0.143809
0.144314
0.146731
0.150393
0.154661
0.156627
0.156353
0.156337
0.156304
0.156112
0.156518
0.157465
0.159495
0.162064
0.165229
0.169378
0.17258
0.172894
0.172534
0.174638
0.17826
0.179917
0.180754
0.185086
0.175097
0.17576
0.177084
0.179257
0.181249
0.182548
0.181553
0.179486
0.179229
0.180029
0.184003
0.185289
0.185414
0.186329
0.188155
0.191194
0.192942
0.19274
0.192628
0.192913
0.193022
0.19401
0.197167
0.200369
0.200715
0.199798
0.200186
0.202574
0.204579
0.207809
0.219552
0.220124
0.222306
0.225758
0.229193
0.230361
0.229205
0.224552
0.222377
0.222938
0.226113
0.229272
0.229267
0.228045
0.22685
0.22622
0.226344
0.227265
0.228999
0.229292
0.228256
0.226077
0.224277
0.224058
0.224545
0.22543
0.225215
0.225194
0.225731
0.227409
0.278108
0.278349
0.279431
0.281965
0.284936
0.285974
0.28619
0.282175
0.274447
0.27227
0.273998
0.278008
0.278134
0.27593
0.273117
0.271245
0.269894
0.267595
0.265203
0.26399
0.26406
0.264524
0.264332
0.263022
0.260566
0.260356
0.260121
0.258943
0.256363
0.253893
0.352152
0.350863
0.351225
0.354979
0.357882
0.357848
0.356505
0.351224
0.343057
0.341969
0.343393
0.342254
0.337364
0.334422
0.333497
0.331656
0.327811
0.324493
0.322882
0.321004
0.317756
0.31472
0.312381
0.310331
0.306166
0.301908
0.298493
0.296748
0.294828
0.289371
0.44491
0.442081
0.443295
0.450038
0.451465
0.448815
0.444786
0.437489
0.427268
0.425987
0.426847
0.423655
0.413496
0.407594
0.406486
0.403488
0.396693
0.390311
0.385713
0.381649
0.376718
0.370679
0.363262
0.358517
0.35365
0.348143
0.342564
0.337593
0.33543
0.3312
0.566472
0.557983
0.557246
0.561971
0.568299
0.566835
0.557623
0.542788
0.530765
0.52888
0.529359
0.52534
0.509907
0.498052
0.495497
0.491612
0.481559
0.472393
0.465785
0.459124
0.450311
0.441841
0.433595
0.42671
0.419288
0.410979
0.402831
0.39421
0.384188
0.370473
0.716405
0.703029
0.699628
0.702838
0.712966
0.711896
0.698763
0.677066
0.6572
0.653663
0.655451
0.650368
0.629052
0.609042
0.605477
0.601185
0.587855
0.572221
0.561568
0.552336
0.539638
0.52693
0.514571
0.502565
0.490832
0.478139
0.46634
0.454457
0.443852
0.425848
0.892089
0.877994
0.876191
0.883916
0.891046
0.88289
0.859271
0.836607
0.813666
0.810759
0.81014
0.796991
0.770455
0.746986
0.739774
0.732335
0.715544
0.695042
0.677601
0.663062
0.646564
0.629389
0.611937
0.5949
0.579301
0.562143
0.545146
0.527597
0.512745
0.490891
1.10298
1.09852
1.10405
1.10929
1.10098
1.07624
1.05622
1.02376
1.00622
1.00376
0.992016
0.967501
0.938319
0.919279
0.903898
0.886095
0.861869
0.838391
0.815749
0.794076
0.772062
0.748768
0.726624
0.703735
0.680677
0.658228
0.635563
0.61366
0.593379
0.561927
1.38409
1.37418
1.37123
1.36311
1.34819
1.32372
1.29768
1.27035
1.25114
1.23379
1.20925
1.17953
1.15222
1.12545
1.0984
1.07164
1.04154
1.01033
0.980957
0.950146
0.921012
0.890622
0.860621
0.830868
0.80096
0.77196
0.742967
0.713818
0.689234
0.650397
1.64408
1.63389
1.61977
1.60699
1.59711
1.58249
1.56253
1.54172
1.51955
1.49762
1.47125
1.44005
1.40969
1.37802
1.34408
1.30815
1.27059
1.22962
1.19084
1.15008
1.10928
1.06837
1.02704
0.986546
0.947575
0.908441
0.870998
0.834057
0.801484
0.750872
1.69438
1.69238
1.69021
1.68697
1.68269
1.67694
1.67021
1.6626
1.65484
1.64631
1.63599
1.62114
1.60642
1.59044
1.56968
1.5442
1.51398
1.47864
1.43987
1.39805
1.35119
1.30072
1.24841
1.19475
1.14156
1.08878
1.03741
0.985668
0.941773
0.875357
1.63732
1.64348
1.65222
1.65722
1.65722
1.65301
1.65049
1.64932
1.6471
1.64418
1.63953
1.63388
1.62854
1.6239
1.61698
1.60746
1.59697
1.58541
1.57132
1.55589
1.53465
1.50666
1.47183
1.42892
1.37918
1.32158
1.26008
1.19507
1.13656
1.04632
1.37819
1.38805
1.40614
1.43388
1.44601
1.4568
1.47121
1.48125
1.49344
1.5171
1.52988
1.53381
1.5444
1.55911
1.5659
1.56984
1.57029
1.56915
1.56662
1.5603
1.55174
1.54121
1.52853
1.51274
1.49291
1.46679
1.43561
1.39395
1.34762
1.25905
1.08086
1.08607
1.09426
1.10651
1.11754
1.12937
1.14408
1.15888
1.17404
1.1947
1.2188
1.23959
1.26219
1.29127
1.32034
1.34743
1.37343
1.40045
1.42529
1.4485
1.46496
1.47732
1.48551
1.48465
1.48073
1.47065
1.45355
1.43134
1.40744
1.35587
1.00376
1.00426
1.00489
1.00584
1.00703
1.00848
1.01037
1.01273
1.01546
1.01899
1.02401
1.03019
1.03739
1.04696
1.05928
1.07422
1.09227
1.11381
1.13943
1.1682
1.20098
1.23465
1.26999
1.30264
1.33193
1.35788
1.37228
1.37666
1.3728
1.34783
1.00004
1.00005
1.00006
1.00007
1.00009
1.00012
1.00016
1.00021
1.00028
1.00038
1.00053
1.00076
1.00108
1.00155
1.00228
1.00337
1.00502
1.00743
1.01108
1.01626
1.0239
1.03444
1.04873
1.06771
1.09061
1.11841
1.14872
1.17841
1.20392
1.22624
1
1
1
1
1
1
1
1
1
1
1
1.00001
1.00001
1.00001
1.00002
1.00004
1.00006
1.0001
1.00018
1.00032
1.00058
1.00103
1.00185
1.00327
1.0057
1.00958
1.0158
1.02457
1.03547
1.05558
1
1
1
1
1
1
1
1
1
1
1
1
1
1
1
1
1
1
1
1
1
1.00001
1.00002
1.00004
1.00008
1.00016
1.00034
1.0007
1.00129
1.00316
1
1
1
1
1
1
1
1
1
1
1
1
1
1
1
1
1
1
1
1
1
1
1
1
1
1
1
1.00001
1.00001
1.00004
0.0571839
0.0566391
0.0559511
0.0559048
0.0588122
0.0611517
0.0600537
0.0580152
0.0564397
0.0592684
0.0667249
0.0733838
0.0939592
0.113549
0.140842
0.17494
0.220263
0.282135
0.363048
0.464205
0.594664
0.75139
0.93414
1.14815
1.42527
1.6616
1.7003
1.63279
1.35984
1.07077
1.00306
1.00004
1
1
1
0.0577052
0.0570016
0.0557231
0.0560271
0.0593512
0.0619944
0.0607703
0.0582327
0.0569692
0.0593543
0.0681156
0.0774511
0.0979287
0.119959
0.150303
0.19015
0.242715
0.311019
0.396678
0.503347
0.637175
0.799308
0.994583
1.22948
1.49875
1.69322
1.70917
1.62303
1.31907
1.05016
1.00165
1.00002
1
1
1
0.0590311
0.05732
0.0554564
0.0563306
0.0597939
0.0626958
0.0612568
0.0583114
0.0570666
0.0587075
0.0684619
0.0796166
0.0991404
0.125277
0.160483
0.202993
0.258156
0.32452
0.411209
0.518689
0.654608
0.823584
1.02648
1.27122
1.54534
1.7124
1.71591
1.61387
1.27177
1.03496
1.00097
1.00001
1
1
1
0.0604393
0.0580365
0.0555405
0.0567804
0.0601189
0.0630032
0.0614543
0.0581149
0.056996
0.0587181
0.0690175
0.0828644
0.103361
0.1316
0.168105
0.208898
0.265012
0.331208
0.419052
0.531345
0.667115
0.84171
1.05459
1.30849
1.58564
1.72589
1.71913
1.57008
1.22041
1.02382
1.00055
1
1
1
1
0.0612865
0.0584066
0.0559878
0.0578067
0.0608899
0.0631591
0.0616137
0.0581446
0.0574198
0.0611545
0.0710463
0.085525
0.105997
0.13395
0.170237
0.211597
0.267129
0.339238
0.425117
0.545008
0.690602
0.870463
1.08793
1.35319
1.63152
1.73861
1.71908
1.5299
1.18288
1.01644
1.00031
1
1
1
1
0.0614919
0.05851
0.0576152
0.0592904
0.0616414
0.0630944
0.0615856
0.0586844
0.0592711
0.0640704
0.0713925
0.0868869
0.107038
0.135316
0.170302
0.215473
0.271078
0.354181
0.461816
0.591527
0.759387
0.950667
1.17415
1.43639
1.68262
1.75045
1.7161
1.50353
1.14908
1.01051
1.00017
1
1
1
1
0.0608446
0.0585235
0.0601296
0.0602548
0.061965
0.0621556
0.0606312
0.0588463
0.0603015
0.0657141
0.0713368
0.0881309
0.108083
0.137159
0.173345
0.225951
0.301711
0.393033
0.50461
0.640962
0.806245
1.00314
1.23805
1.50559
1.71823
1.75827
1.71544
1.46303
1.10935
1.00606
1.00008
1
1
1
1
0.0596264
0.0589029
0.0612014
0.0603909
0.0619991
0.060781
0.0588253
0.0581818
0.0603989
0.0662581
0.0731992
0.0915763
0.113669
0.145908
0.19367
0.252579
0.325767
0.414243
0.525139
0.66148
0.830839
1.03608
1.27786
1.54827
1.73945
1.76142
1.69689
1.38668
1.07717
1.00357
1.00004
1
1
1
1
0.059184
0.0595612
0.0612048
0.0601512
0.0613417
0.0593283
0.0570309
0.0572266
0.0597457
0.0659217
0.0790012
0.100118
0.126806
0.162536
0.210011
0.264555
0.335042
0.423849
0.537225
0.678698
0.849429
1.06392
1.31899
1.5971
1.76016
1.76349
1.65667
1.33433
1.05768
1.00217
1.00002
1
1
1
1
0.0594943
0.0602368
0.0602758
0.059387
0.0604805
0.0582244
0.0560371
0.056918
0.0594438
0.0662951
0.0850636
0.107264
0.135373
0.169501
0.2154
0.269271
0.339608
0.433265
0.551103
0.705992
0.89847
1.12536
1.39122
1.66232
1.77954
1.77028
1.63585
1.29269
1.04013
1.00117
1.00001
1
1
1
1
0.0600533
0.0606331
0.0594408
0.0587178
0.0601175
0.0577659
0.0558809
0.0577173
0.0601136
0.0691136
0.0882676
0.109541
0.13756
0.171569
0.216517
0.273812
0.351041
0.463554
0.607312
0.781553
0.986934
1.2233
1.48561
1.71792
1.79161
1.77503
1.61748
1.23429
1.02407
1.00057
1
1
1
1
1
0.0606974
0.0608017
0.0592424
0.0586563
0.0601796
0.0577688
0.0560615
0.0583571
0.0613483
0.0702182
0.0885955
0.109445
0.137045
0.172079
0.219043
0.292303
0.395977
0.515879
0.65936
0.832768
1.03775
1.27674
1.53815
1.74754
1.79627
1.77125
1.55022
1.17036
1.01449
1.00029
1
1
1
1
1
0.0613562
0.0609271
0.0594531
0.0597515
0.0605447
0.058007
0.056179
0.0578601
0.0611818
0.0706709
0.0874679
0.108271
0.135924
0.179263
0.247312
0.328443
0.424361
0.540032
0.683375
0.859617
1.07241
1.32059
1.58567
1.77155
1.798
1.7425
1.47532
1.13131
1.00926
1.00015
1
1
1
1
1
0.0618853
0.0612662
0.0606463
0.0620695
0.0607999
0.0581263
0.0561648
0.0571175
0.0593585
0.0718193
0.0879257
0.111726
0.147879
0.204303
0.270362
0.342959
0.435382
0.553664
0.703106
0.886655
1.11235
1.37698
1.64808
1.79453
1.80067
1.71696
1.4312
1.10054
1.00536
1.00007
1
1
1
1
1
0.0621141
0.0615558
0.0620831
0.0642666
0.0611156
0.0582187
0.0560565
0.0569823
0.0590527
0.0745205
0.0955226
0.126283
0.165418
0.214403
0.276231
0.349588
0.444172
0.573145
0.742546
0.957584
1.20673
1.47493
1.71531
1.80939
1.80472
1.70512
1.38147
1.06682
1.00271
1.00003
1
1
1
1
1
0.0613737
0.0611388
0.062903
0.0657329
0.0617817
0.058357
0.055656
0.0572171
0.0620759
0.080995
0.103917
0.135084
0.170878
0.216744
0.277305
0.359335
0.479593
0.641842
0.831554
1.0496
1.29405
1.54793
1.75486
1.8163
1.80625
1.68344
1.29665
1.04063
1.00134
1.00001
1
1
1
1
1
0.0595546
0.0599721
0.0629712
0.0662177
0.0625069
0.058591
0.055298
0.0572618
0.0660587
0.0861691
0.107198
0.137198
0.173132
0.219535
0.289462
0.403652
0.544055
0.700104
0.884035
1.0993
1.34479
1.59613
1.78064
1.8185
1.79434
1.5953
1.22386
1.02585
1.00068
1.00001
1
1
1
1
1
0.0582831
0.059523
0.0616543
0.0648124
0.0625935
0.0588095
0.0551685
0.0566317
0.0685097
0.087668
0.10886
0.137615
0.176902
0.239278
0.339344
0.450008
0.575843
0.728326
0.916329
1.13981
1.39817
1.65333
1.80364
1.81846
1.76641
1.53231
1.17781
1.01629
1.00034
1
1
1
1
1
1
0.0579751
0.0596364
0.0594391
0.0623239
0.0619836
0.0588848
0.0557865
0.0566936
0.0710968
0.0874276
0.112317
0.147023
0.201571
0.279569
0.368206
0.467978
0.592945
0.752319
0.957945
1.20892
1.48466
1.72175
1.8195
1.81694
1.74618
1.48838
1.13377
1.00897
1.00015
1
1
1
1
1
1
0.0587737
0.0596893
0.0573275
0.0605888
0.0613294
0.0591085
0.056884
0.0581114
0.0757913
0.0899406
0.124414
0.17528
0.229942
0.296523
0.378211
0.479971
0.620503
0.817986
1.05925
1.32428
1.5792
1.76955
1.82707
1.8212
1.7395
1.42807
1.08653
1.00442
1.00006
1
1
1
1
1
1
0.0617077
0.0604447
0.0562036
0.0598925
0.0612871
0.0592345
0.057862
0.0598706
0.081391
0.10498
0.141327
0.18704
0.237708
0.30123
0.386382
0.518695
0.705532
0.918126
1.15221
1.4015
1.63659
1.79674
1.83161
1.82303
1.70722
1.32784
1.05317
1.00215
1.00003
1
1
1
1
1
1
0.0645848
0.0614363
0.0570802
0.0609375
0.0622736
0.059733
0.058761
0.0640733
0.0862893
0.112591
0.146112
0.187743
0.238712
0.305711
0.429556
0.597354
0.775302
0.976596
1.20866
1.46078
1.68832
1.81646
1.83304
1.81033
1.61484
1.25212
1.03373
1.00105
1.00001
1
1
1
1
1
1
0.0655502
0.0614465
0.0611832
0.0632445
0.062585
0.0602065
0.0594465
0.0682208
0.087945
0.113679
0.147472
0.184338
0.241103
0.350243
0.498582
0.645833
0.815179
1.02325
1.27262
1.53906
1.74595
1.82939
1.82962
1.77728
1.55463
1.19899
1.02019
1.00048
1
1
1
1
1
1
1
0.0647696
0.0607705
0.0646193
0.0635405
0.0616243
0.058422
0.0588382
0.0707028
0.0892995
0.112548
0.148712
0.199295
0.289288
0.410419
0.534648
0.675438
0.860559
1.10455
1.38185
1.63373
1.79039
1.83486
1.82453
1.75173
1.50469
1.14351
1.01058
1.0002
1
1
1
1
1
1
1
0.0618585
0.0601175
0.0656742
0.0620687
0.0558148
0.0530985
0.0559878
0.0715127
0.091283
0.120147
0.162257
0.245952
0.3394
0.438664
0.558907
0.725312
0.962883
1.23034
1.48635
1.69898
1.81677
1.83709
1.8269
1.74043
1.42902
1.09012
1.00502
1.00008
1
1
1
1
1
1
1
0.0603215
0.060554
0.0655243
0.0570102
0.0506858
0.0498034
0.0555676
0.0741609
0.0988369
0.145766
0.202467
0.278137
0.356221
0.455205
0.608785
0.831491
1.06915
1.3174
1.55577
1.74565
1.83202
1.83901
1.82873
1.7029
1.32194
1.05351
1.00226
1.00003
1
1
1
1
1
1
1
0.0602996
0.0619777
0.0647662
0.055213
0.0495554
0.0492816
0.0612215
0.0863745
0.118562
0.166927
0.219882
0.286595
0.365559
0.494249
0.704476
0.914027
1.13918
1.38989
1.62837
1.78815
1.83823
1.83983
1.80972
1.60025
1.24108
1.03158
1.00099
1.00001
1
1
1
1
1
1
1
0.0624042
0.0638701
0.0636244
0.0551643
0.0497822
0.0509511
0.0711371
0.0966448
0.126649
0.170948
0.224336
0.28849
0.396604
0.58734
0.777122
0.974682
1.21609
1.49046
1.7102
1.8174
1.84036
1.83479
1.76926
1.53176
1.18085
1.01733
1.00042
1
1
1
1
1
1
1
1
0.0664599
0.0647595
0.061341
0.0555991
0.0510817
0.0562926
0.0780332
0.0986486
0.129036
0.167685
0.226653
0.322387
0.491684
0.658556
0.832253
1.06023
1.34457
1.60319
1.76895
1.83312
1.84176
1.82417
1.73738
1.47238
1.12281
1.00854
1.00016
1
1
1
1
1
1
1
1
0.0678991
0.0636732
0.0591126
0.056351
0.0532412
0.05886
0.0805286
0.0967999
0.131947
0.17764
0.26372
0.415264
0.559311
0.70915
0.918313
1.19808
1.46694
1.68045
1.8061
1.84224
1.84318
1.82507
1.71818
1.38373
1.07241
1.00366
1.00006
1
1
1
1
1
1
1
1
0.0649655
0.0595893
0.0583262
0.0563332
0.0553808
0.059547
0.0809466
0.101659
0.147322
0.232792
0.341881
0.467585
0.596848
0.779044
1.05352
1.31644
1.55708
1.7404
1.83126
1.84682
1.84577
1.82842
1.669
1.27156
1.03827
1.0014
1.00002
1
1
1
1
1
1
1
1
0.058114
0.0551147
0.0574073
0.0555387
0.0568718
0.0631932
0.0847245
0.127677
0.190614
0.277169
0.375195
0.493415
0.650017
0.907309
1.16872
1.41676
1.64542
1.79148
1.84324
1.84835
1.84378
1.79603
1.5417
1.18529
1.01969
1.00053
1.00001
1
1
1
1
1
1
1
1
0.0547696
0.0541221
0.0566342
0.0540897
0.0587829
0.0712187
0.0998462
0.15056
0.211061
0.29492
0.397655
0.537504
0.776993
1.02935
1.27642
1.5336
1.72898
1.82268
1.8466
1.84576
1.833
1.73202
1.45135
1.12522
1.00949
1.0002
1
1
1
1
1
1
1
1
1
0.0548582
0.0574051
0.0581789
0.0527658
0.0585731
0.0748783
0.106262
0.160449
0.225753
0.307605
0.443459
0.670616
0.910371
1.14149
1.40974
1.6462
1.78534
1.83804
1.8468
1.83999
1.8105
1.68521
1.37645
1.07611
1.00411
1.00007
1
1
1
1
1
1
1
1
1
0.0568878
0.062876
0.0596926
0.0518469
0.0536899
0.0742466
0.111715
0.166448
0.250635
0.376443
0.573795
0.803021
1.0169
1.27227
1.5427
1.72775
1.81895
1.84463
1.84641
1.84012
1.80117
1.64428
1.27706
1.03864
1.00147
1.00002
1
1
1
1
1
1
1
1
1
0.0596635
0.0642705
0.059056
0.0506576
0.0512896
0.0758864
0.13
0.207109
0.320932
0.489109
0.686371
0.8938
1.13382
1.41929
1.65043
1.78462
1.83663
1.84639
1.84777
1.84444
1.80524
1.56072
1.17081
1.01655
1.00045
1.00001
1
1
1
1
1
1
1
1
1
0.0629482
0.0631674
0.0530398
0.0463198
0.0543247
0.107466
0.181706
0.270861
0.398056
0.570228
0.767399
1.00451
1.30014
1.55293
1.73788
1.81993
1.84367
1.8474
1.8483
1.84167
1.74871
1.41346
1.09778
1.00672
1.00014
1
1
1
1
1
1
1
1
1
1
0.0673118
0.0587687
0.0478796
0.0428953
0.0738836
0.147191
0.216576
0.318119
0.464981
0.648235
0.888932
1.19582
1.46426
1.66832
1.79975
1.83682
1.84699
1.84952
1.84664
1.81738
1.64362
1.30762
1.05568
1.00263
1.00004
1
1
1
1
1
1
1
1
1
1
0.0688487
0.0520857
0.0453234
0.0473151
0.1049
0.165792
0.237371
0.365235
0.555355
0.79732
1.0986
1.38243
1.60239
1.75364
1.83229
1.84411
1.85004
1.85112
1.83696
1.77943
1.57225
1.22427
1.02731
1.00091
1.00001
1
1
1
1
1
1
1
1
1
1
0.0691286
0.0454254
0.0431425
0.0672035
0.126235
0.176836
0.281054
0.476798
0.713584
1.00332
1.2912
1.53124
1.71051
1.8029
1.84666
1.84771
1.85208
1.85214
1.82846
1.74659
1.48763
1.13086
1.0104
1.00025
1
1
1
1
1
1
1
1
1
1
1
0.0693309
0.0412589
0.0487301
0.0863981
0.136092
0.210632
0.411576
0.641963
0.903708
1.18882
1.45097
1.66367
1.78362
1.82734
1.85281
1.84971
1.85256
1.85312
1.8352
1.71131
1.33849
1.05974
1.0032
1.00006
1
1
1
1
1
1
1
1
1
1
1
0.0672922
0.0390199
0.0601956
0.0976848
0.159257
0.336305
0.561762
0.806814
1.096
1.37868
1.61467
1.76725
1.82275
1.83691
1.85588
1.85083
1.85036
1.84927
1.8175
1.57533
1.20155
1.02497
1.00089
1.00001
1
1
1
1
1
1
1
1
1
1
1
0.0601939
0.0369132
0.0631407
0.120497
0.247259
0.48286
0.723934
1.01666
1.31652
1.57716
1.74447
1.82314
1.83728
1.84017
1.85781
1.84937
1.8461
1.83241
1.72959
1.43322
1.1192
1.00993
1.00024
1
1
1
1
1
1
1
1
1
1
1
1
0.0439643
0.0480495
0.067672
0.180425
0.403162
0.65657
0.955416
1.2732
1.54205
1.72223
1.8121
1.84446
1.84125
1.84149
1.85896
1.84345
1.83924
1.80493
1.65515
1.32952
1.06174
1.00318
1.00006
1
1
1
1
1
1
1
1
1
1
1
1
0.0276962
0.0542237
0.121663
0.313624
0.594165
0.900782
1.24191
1.51639
1.70485
1.80236
1.84238
1.84938
1.84258
1.84256
1.85975
1.83872
1.83817
1.78312
1.57941
1.20752
1.02294
1.00077
1.00001
1
1
1
1
1
1
1
1
1
1
1
1
0.00962707
0.0532189
0.235318
0.534002
0.872539
1.23162
1.50976
1.69714
1.79692
1.83841
1.85287
1.85058
1.84166
1.84284
1.86069
1.83702
1.84318
1.7708
1.4321
1.0914
1.00617
1.00014
1
1
1
1
1
1
1
1
1
1
1
1
1
0.00255021
0.0989246
0.463424
0.857887
1.22913
1.52152
1.70509
1.79874
1.83538
1.8504
1.85499
1.85061
1.83952
1.84241
1.86164
1.84086
1.82621
1.64371
1.24352
1.03285
1.00136
1.00002
1
1
1
1
1
1
1
1
1
1
1
1
1
0.0341458
0.359502
0.812381
1.2429
1.5573
1.7279
1.80688
1.83629
1.84676
1.85393
1.85547
1.84764
1.83697
1.8426
1.8616
1.84427
1.75214
1.45477
1.12384
1.01046
1.00025
1
1
1
1
1
1
1
1
1
1
1
1
1
1
0.20295
0.701949
1.27939
1.61747
1.7677
1.82287
1.8394
1.8453
1.85013
1.85505
1.85436
1.84275
1.83523
1.84642
1.85836
1.82288
1.66655
1.31263
1.05208
1.00222
1.00003
1
1
1
1
1
1
1
1
1
1
1
1
1
1
0.811127
1.35993
1.69318
1.80839
1.83984
1.8449
1.84566
1.84748
1.8513
1.85495
1.85135
1.83917
1.83484
1.85175
1.85601
1.78074
1.54904
1.15652
1.01149
1.00019
1
1
1
1
1
1
1
1
1
1
1
1
1
1
1
1.848
1.84928
1.85031
1.85146
1.85063
1.84818
1.84691
1.84815
1.85108
1.85331
1.84835
1.83791
1.83702
1.85517
1.85017
1.71735
1.35855
1.03828
0.999529
0.999945
0.999999
1
1
1
1
1
1
1
1
1
1
1
1
1
1
1.84755
1.84879
1.85072
1.85254
1.85274
1.85043
1.84681
1.84546
1.84705
1.8523
1.85231
1.845
1.83581
1.84604
1.84547
1.68694
1.30194
1.04343
1.00138
1.00001
1
1
1
1
1
1
1
1
1
1
1
1
1
1
1
1.84743
1.8483
1.85089
1.85288
1.85335
1.85222
1.84769
1.84445
1.84465
1.85039
1.85416
1.85491
1.84035
1.83575
1.81947
1.59669
1.20621
1.01484
1.0002
1
1
1
1
1
1
1
1
1
1
1
1
1
1
1
1
1.84764
1.84755
1.84989
1.85251
1.85349
1.85298
1.84896
1.84393
1.84342
1.8477
1.85642
1.86215
1.84706
1.82211
1.79646
1.53915
1.13399
1.0067
1.00008
1
1
1
1
1
1
1
1
1
1
1
1
1
1
1
1
1.84747
1.8469
1.84767
1.84964
1.85253
1.85273
1.84996
1.84435
1.84284
1.84567
1.85685
1.86438
1.85364
1.81251
1.76036
1.44043
1.07653
1.00266
1.00002
1
1
1
1
1
1
1
1
1
1
1
1
1
1
1
1
1.84789
1.84689
1.84621
1.84662
1.84939
1.85157
1.85068
1.84554
1.84253
1.84384
1.85533
1.8645
1.85602
1.80271
1.70896
1.33511
1.04369
1.00104
1.00001
1
1
1
1
1
1
1
1
1
1
1
1
1
1
1
1
1.84927
1.84732
1.84551
1.84486
1.84679
1.85059
1.85175
1.84803
1.84291
1.84189
1.85038
1.86197
1.85389
1.78844
1.65687
1.2423
1.02107
1.00034
1
1
1
1
1
1
1
1
1
1
1
1
1
1
1
1
1
1.85107
1.8485
1.84543
1.84424
1.84547
1.84953
1.85238
1.85182
1.84496
1.84059
1.84495
1.86
1.852
1.77569
1.56989
1.15243
1.00873
1.00011
1
1
1
1
1
1
1
1
1
1
1
1
1
1
1
1
1
1.85208
1.85036
1.84732
1.84495
1.84517
1.84809
1.85305
1.85436
1.84982
1.84039
1.83968
1.85807
1.85299
1.75875
1.45947
1.09222
1.00355
1.00003
1
1
1
1
1
1
1
1
1
1
1
1
1
1
1
1
1
1.85227
1.85185
1.85
1.84737
1.84608
1.84691
1.85212
1.85585
1.85442
1.84128
1.8327
1.8442
1.84917
1.7308
1.35807
1.04978
1.00127
1.00001
1
1
1
1
1
1
1
1
1
1
1
1
1
1
1
1
1
1.85181
1.85219
1.85178
1.85035
1.84723
1.84621
1.84946
1.85664
1.85678
1.84737
1.82852
1.82936
1.82904
1.65459
1.25497
1.02296
1.00041
1
1
1
1
1
1
1
1
1
1
1
1
1
1
1
1
1
1
1.84966
1.85182
1.85236
1.85219
1.84833
1.84559
1.84649
1.85417
1.85725
1.85426
1.82979
1.8223
1.81338
1.57547
1.16926
1.01029
1.00013
1
1
1
1
1
1
1
1
1
1
1
1
1
1
1
1
1
1
1.84669
1.84974
1.85234
1.85283
1.84949
1.84498
1.84391
1.84898
1.85703
1.85946
1.84258
1.81881
1.80095
1.47495
1.0955
1.00381
1.00004
1
1
1
1
1
1
1
1
1
1
1
1
1
1
1
1
1
1
1.84467
1.84688
1.85064
1.85278
1.85063
1.84579
1.84174
1.84269
1.85349
1.86166
1.85177
1.80993
1.73224
1.35018
1.04831
1.00126
1.00001
1
1
1
1
1
1
1
1
1
1
1
1
1
1
1
1
1
1
1.84426
1.84504
1.84819
1.85181
1.85095
1.84694
1.84115
1.83939
1.84858
1.8636
1.85585
1.79749
1.64988
1.25375
1.02326
1.0004
1
1
1
1
1
1
1
1
1
1
1
1
1
1
1
1
1
1
1
1.84456
1.84466
1.84675
1.84985
1.85063
1.84955
1.8425
1.83706
1.84238
1.86392
1.8571
1.79131
1.56982
1.15894
1.00896
1.00011
1
1
1
1
1
1
1
1
1
1
1
1
1
1
1
1
1
1
1
1.84774
1.84578
1.84603
1.84816
1.85134
1.85288
1.84751
1.83576
1.8353
1.85139
1.85071
1.76386
1.45645
1.0853
1.00317
1.00003
1
1
1
1
1
1
1
1
1
1
1
1
1
1
1
1
1
1
1
1.85281
1.84926
1.84588
1.84668
1.85091
1.85471
1.85299
1.83997
1.83269
1.8429
1.83692
1.69449
1.33949
1.04387
1.00105
1.00001
1
1
1
1
1
1
1
1
1
1
1
1
1
1
1
1
1
1
1
1.85551
1.85163
1.84718
1.84574
1.84955
1.85512
1.85601
1.84846
1.83462
1.84103
1.83273
1.63475
1.22875
1.01818
1.00029
1
1
1
1
1
1
1
1
1
1
1
1
1
1
1
1
1
1
1
1
1.85622
1.85279
1.84801
1.84575
1.8478
1.85388
1.8565
1.85693
1.84063
1.83376
1.81745
1.52982
1.12676
1.0064
1.00007
1
1
1
1
1
1
1
1
1
1
1
1
1
1
1
1
1
1
1
1
1.85578
1.85311
1.84903
1.84634
1.84463
1.84769
1.85611
1.862
1.84903
1.81172
1.74902
1.403
1.06768
1.00214
1.00002
1
1
1
1
1
1
1
1
1
1
1
1
1
1
1
1
1
1
1
1
1.85113
1.85148
1.84968
1.84827
1.84262
1.84079
1.84952
1.86364
1.85664
1.80286
1.68329
1.29312
1.03016
1.0006
1
1
1
1
1
1
1
1
1
1
1
1
1
1
1
1
1
1
1
1
1
1.84567
1.84811
1.84982
1.84929
1.84199
1.83605
1.84112
1.86284
1.85779
1.80279
1.59701
1.16957
1.01039
1.00014
1
1
1
1
1
1
1
1
1
1
1
1
1
1
1
1
1
1
1
1
1
1.84296
1.84556
1.85042
1.851
1.84353
1.8332
1.8344
1.85122
1.84965
1.75795
1.46423
1.09069
1.00352
1.00003
1
1
1
1
1
1
1
1
1
1
1
1
1
1
1
1
1
1
1
1
1
1.84237
1.84348
1.84981
1.85241
1.84829
1.83533
1.8328
1.84571
1.84252
1.70203
1.33985
1.04236
1.00097
1.00001
1
1
1
1
1
1
1
1
1
1
1
1
1
1
1
1
1
1
1
1
1
1.8428
1.84286
1.84793
1.85197
1.85114
1.84533
1.83432
1.84394
1.84335
1.6336
1.20506
1.01472
1.00022
1
1
1
1
1
1
1
1
1
1
1
1
1
1
1
1
1
1
1
1
1
1
1.84628
1.8455
1.84743
1.85089
1.85269
1.85719
1.84251
1.83287
1.80727
1.48996
1.10535
1.00463
1.00005
1
1
1
1
1
1
1
1
1
1
1
1
1
1
1
1
1
1
1
1
1
1
1.84901
1.84855
1.84719
1.84891
1.85525
1.86613
1.85822
1.81383
1.72885
1.35926
1.04995
1.00128
1.00001
1
1
1
1
1
1
1
1
1
1
1
1
1
1
1
1
1
1
1
1
1
1
1.84972
1.84995
1.84572
1.8435
1.85295
1.86979
1.86743
1.8104
1.64378
1.22146
1.01665
1.00027
1
1
1
1
1
1
1
1
1
1
1
1
1
1
1
1
1
1
1
1
1
1
1
1.84942
1.84921
1.84408
1.83976
1.84211
1.86684
1.86837
1.79434
1.50924
1.10772
1.00477
1.00005
1
1
1
1
1
1
1
1
1
1
1
1
1
1
1
1
1
1
1
1
1
1
1
1.84858
1.84726
1.84271
1.84158
1.83336
1.85283
1.85912
1.72098
1.35788
1.04796
1.00124
1.00001
1
1
1
1
1
1
1
1
1
1
1
1
1
1
1
1
1
1
1
1
1
1
1
1.84672
1.84423
1.84278
1.84502
1.8318
1.84668
1.84976
1.64579
1.21702
1.0157
1.00024
1
1
1
1
1
1
1
1
1
1
1
1
1
1
1
1
1
1
1
1
1
1
1
1
1.84505
1.83979
1.84059
1.84962
1.83573
1.83971
1.83146
1.50178
1.09639
1.00393
1.00004
1
1
1
1
1
1
1
1
1
1
1
1
1
1
1
1
1
1
1
1
1
1
1
1
1.84451
1.83723
1.83653
1.85732
1.85919
1.81752
1.7339
1.32256
1.03819
1.00087
1.00001
1
1
1
1
1
1
1
1
1
1
1
1
1
1
1
1
1
1
1
1
1
1
1
1
1.84469
1.83673
1.83374
1.86932
1.88259
1.81017
1.61303
1.18064
1.01153
1.00016
1
1
1
1
1
1
1
1
1
1
1
1
1
1
1
1
1
1
1
1
1
1
1
1
1
1.84298
1.83677
1.83167
1.88081
1.89355
1.7994
1.443
1.0722
1.0024
1.00002
1
1
1
1
1
1
1
1
1
1
1
1
1
1
1
1
1
1
1
1
1
1
1
1
1
1.83633
1.8396
1.83297
1.87973
1.89573
1.70911
1.25416
1.02265
1.00042
1
1
1
1
1
1
1
1
1
1
1
1
1
1
1
1
1
1
1
1
1
1
1
1
1
1
1.82802
1.84846
1.86185
1.87286
1.85764
1.5276
1.12181
1.00561
1.00006
1
1
1
1
1
1
1
1
1
1
1
1
1
1
1
1
1
1
1
1
1
1
1
1
1
1
1.82391
1.86546
1.90251
1.86715
1.77326
1.34556
1.04085
1.00099
1.00001
1
1
1
1
1
1
1
1
1
1
1
1
1
1
1
1
1
1
1
1
1
1
1
1
1
1
1.82241
1.87861
1.91627
1.86692
1.61206
1.15822
1.00904
1.00013
1
1
1
1
1
1
1
1
1
1
1
1
1
1
1
1
1
1
1
1
1
1
1
1
1
1
1
1.82054
1.88292
1.92009
1.79212
1.39193
1.05668
1.00167
1.00001
1
1
1
1
1
1
1
1
1
1
1
1
1
1
1
1
1
1
1
1
1
1
1
1
1
1
1
1.85914
1.9062
1.90742
1.64656
1.20432
1.01389
1.00023
1
1
1
1
1
1
1
1
1
1
1
1
1
1
1
1
1
1
1
1
1
1
1
1
1
1
1
1
1.94421
1.92173
1.86524
1.4365
1.06819
1.00235
1.00002
1
1
1
1
1
1
1
1
1
1
1
1
1
1
1
1
1
1
1
1
1
1
1
1
1
1
1
1
2.04973
1.83786
1.68593
1.20129
1.01552
1.0003
1
1
1
1
1
1
1
1
1
1
1
1
1
1
1
1
1
1
1
1
1
1
1
1
1
1
1
1
1
2.1357
1.74531
1.43223
1.07405
1.00291
1.00003
1
1
1
1
1
1
1
1
1
1
1
1
1
1
1
1
1
1
1
1
1
1
1
1
1
1
1
1
1
2.16744
1.61576
1.20316
1.01716
1.00041
1
1
1
1
1
1
1
1
1
1
1
1
1
1
1
1
1
1
1
1
1
1
1
1
1
1
1
1
1
1
2.03671
1.4002
1.08073
1.00379
1.00005
1
1
1
1
1
1
1
1
1
1
1
1
1
1
1
1
1
1
1
1
1
1
1
1
1
1
1
1
1
1
1.81365
1.23038
1.02342
1.00059
1.00001
1
1
1
1
1
1
1
1
1
1
1
1
1
1
1
1
1
1
1
1
1
1
1
1
1
1
1
1
1
1
1.53316
1.09002
1.00445
1.00006
1
1
1
1
1
1
1
1
1
1
1
1
1
1
1
1
1
1
1
1
1
1
1
1
1
1
1
1
1
1
1
1.20302
1.01789
1.00031
1
1
1
1
1
1
1
1
1
1
1
1
1
1
1
1
1
1
1
1
1
1
1
1
1
1
1
1
1
1
1
1
1
1
1
1
1
1
1
1
1
1
1
1
1
1
1
1
1
1
1
1
1
1
1
1
1
1
1
1
1
1
1
1
1
1
1
1
1
1
1
1
1
1
1
1
1
1
1
1
1
1
1
1
1
1
1
1
1
1
1
1
1
1
1
1
1
1
1
1
1
1
1
1
1
1
1
1
1
1
1
1
1
1
1
1
1
1
1
1
1
1
1
1
1
1
1
1
1
1
1
1
1
1
1
1
1
1
1
1
1
1
1
1
1
1
1
1
1
1
1
1
1
1
1
1
1
1
1
1
1
1
1
1
1
1
1
1
1
1
1
1
1
1
1
1
1
1
1
1
1
1
1
1
1
1
1
1
1
1
1
1
1
1
1
1
1
1
1
1
1
1
1
1
1
1
1
1
1
1
1
1
1
1
1
1
1
1
1
1
1
1
1
1
1
1
1
1
1
1
1
1
1
1
1
1
1
1
1
1
1
1
1
1
1
1
1
1
1
1
1
1
1
1
1
1
1
1
1
1
1
1
1
1