/*--------------------------------*- C++ -*----------------------------------*\
  =========                 |
  \\      /  F ield         | OpenFOAM: The Open Source CFD Toolbox
   \\    /   O peration     | Website:  https://openfoam.org
    \\  /    A nd           | Version:  7
     \\/     M anipulation  |
\*---------------------------------------------------------------------------*/
FoamFile
{
    version     2.0;
    format      ascii;
    class       volScalarField;
    location    "7.1";
    object      T;
}
// * * * * * * * * * * * * * * * * * * * * * * * * * * * * * * * * * * * * * //

dimensions      [0 0 0 1 0 0 0];

internalField   nonuniform List<scalar> 
1750
(
1.42681
1.53821
1.49749
1.43283
1.4109
1.43278
1.45568
1.45556
1.46947
1.4749
0.394405
0.981578
1.69524
1.87807
1.86678
1.81705
1.74832
1.67655
1.65754
1.62914
0.336948
0.347145
0.541762
1.1213
1.51156
1.69146
1.72939
1.73655
1.7271
1.66823
0.366367
0.390262
0.419102
0.442775
0.510313
0.808848
1.10395
1.31386
1.40917
1.48114
0.476307
0.486313
0.502821
0.516882
0.515245
0.520369
0.531186
0.635872
0.775636
1.05593
0.564497
0.57368
0.576883
0.58471
0.599088
0.6081
0.619727
0.618461
0.624522
0.677342
0.682066
0.683919
0.683546
0.684489
0.687031
0.691654
0.690823
0.691301
0.687865
0.675725
0.81618
0.805678
0.796736
0.788584
0.781157
0.771694
0.763857
0.758679
0.754663
0.748547
0.94282
0.92908
0.913596
0.898411
0.884205
0.869974
0.855757
0.841222
0.830898
0.814844
1.01049
1.00465
0.996444
0.986474
0.974593
0.960985
0.946113
0.929887
0.914322
0.890329
1.02061
1.02011
1.01925
1.01783
1.01544
1.01148
1.00549
0.997155
0.987298
0.966666
1.01453
1.01562
1.01644
1.01691
1.01689
1.01673
1.01636
1.01556
1.01421
1.00833
1.00346
1.00466
1.0061
1.00779
1.00951
1.01104
1.01233
1.0133
1.01374
1.0135
1.00018
1.00031
1.00053
1.00091
1.0015
1.00238
1.00352
1.00499
1.0066
1.00895
1
1.00001
1.00001
1.00002
1.00005
1.00012
1.00024
1.00049
1.0009
1.00232
0.434321
0.37654
0.331166
0.359056
0.459605
0.557181
0.678083
0.825693
0.954921
1.01453
1.02086
1.0133
1.00258
1.00012
1
0.432313
0.366693
0.325866
0.387245
0.485147
0.593207
0.72833
0.876124
0.985872
1.02189
1.02111
1.01062
1.00138
1.00004
1
0.462027
0.377234
0.334003
0.406996
0.497789
0.622225
0.772554
0.915177
1.00331
1.02396
1.02083
1.00779
1.0007
1.00002
1
0.500547
0.398981
0.360644
0.42152
0.540283
0.679285
0.82558
0.950459
1.01548
1.0249
1.01853
1.00499
1.00033
1.00001
1
0.518534
0.402692
0.380566
0.445067
0.588863
0.734749
0.870898
0.979884
1.02355
1.02523
1.01521
1.00303
1.00015
1
1
0.518902
0.378674
0.394402
0.511932
0.649202
0.783799
0.916782
1.00539
1.02746
1.02516
1.01171
1.00158
1.00005
1
1
0.486443
0.351207
0.42258
0.571211
0.696136
0.836592
0.962376
1.02173
1.02896
1.02266
1.00774
1.00067
1.00002
1
1
0.446151
0.407626
0.466656
0.610571
0.762742
0.905498
0.997091
1.02947
1.02935
1.0191
1.00429
1.00026
1.00001
1
1
0.381927
0.417558
0.527526
0.681176
0.837037
0.957191
1.01922
1.03241
1.0294
1.01351
1.0019
1.00008
1
1
1
0.326609
0.411215
0.589222
0.774668
0.910591
0.996757
1.03136
1.03317
1.02443
1.00763
1.00072
1.00002
1
1
1
0.40075
0.479311
0.689579
0.860264
0.968175
1.02344
1.03543
1.03311
1.01811
1.00367
1.00023
1.00001
1
1
1
0.0870672
0.578017
0.80812
0.938082
1.01021
1.03541
1.03622
1.02791
1.01055
1.00131
1.00006
1
1
1
1
0.219169
0.669891
0.895749
0.997978
1.03315
1.03824
1.03509
1.02044
1.00483
1.00038
1.00001
1
1
1
1
0.475966
0.824173
0.982687
1.03051
1.04017
1.03862
1.02887
1.01117
1.00157
1.00008
1
1
1
1
1
0.813932
0.97711
1.03178
1.04105
1.04088
1.03495
1.01958
1.00459
1.00037
1.00001
1
1
1
1
1
1.04492
1.04464
1.04376
1.04175
1.03853
1.02736
1.00911
1.00082
1.00001
1
1
1
1
1
1
1.04552
1.04537
1.04398
1.04038
1.03678
1.025
1.00881
1.00112
1.00005
1
1
1
1
1
1
1.04648
1.04587
1.04404
1.03962
1.03407
1.01905
1.00436
1.00028
1.00001
1
1
1
1
1
1
1.04782
1.0469
1.04356
1.03858
1.03071
1.01436
1.00244
1.00013
1
1
1
1
1
1
1
1.04921
1.04799
1.04318
1.03716
1.02595
1.00956
1.00119
1.00005
1
1
1
1
1
1
1
1.0509
1.04875
1.04217
1.03446
1.02128
1.00606
1.00054
1.00002
1
1
1
1
1
1
1
1.05281
1.04945
1.04157
1.0315
1.0158
1.0031
1.0002
1
1
1
1
1
1
1
1
1.05464
1.04967
1.03999
1.02597
1.01019
1.0015
1.00007
1
1
1
1
1
1
1
1
1.05632
1.04778
1.03643
1.02045
1.00601
1.0006
1.00002
1
1
1
1
1
1
1
1
1.05817
1.0451
1.03258
1.01468
1.00305
1.00021
1.00001
1
1
1
1
1
1
1
1
1.0597
1.04253
1.02606
1.00867
1.00122
1.00006
1
1
1
1
1
1
1
1
1
1.06008
1.03847
1.01886
1.00467
1.00044
1.00001
1
1
1
1
1
1
1
1
1
1.05726
1.03461
1.01226
1.00191
1.00011
1
1
1
1
1
1
1
1
1
1
1.05543
1.0269
1.00593
1.00057
1.00002
1
1
1
1
1
1
1
1
1
1
1.05156
1.01636
1.00209
1.00012
1
1
1
1
1
1
1
1
1
1
1
1.046
1.00549
1.00047
1.00002
1
1
1
1
1
1
1
1
1
1
1
1
1
1
1
1
1
1
1
1
1
1
1
1
1
1
1
1
1
1
1
1
1
1
1
1
1
1
1
1
1
1
1
1
1
1
1
1
1
1
1
1
1
1
1
1
1
1
1
1
1
1
1
1
1
1
1
1
1
1
1
1
1
1
1
1
1
1
1
1
1
1
1
1
1
1
1
1
1
1
1
1
1
1
1
1
1
1
1
1
1
1
1
1
1
1
1
1
1
1
1
1
1
1
1
1
1
1
1
1
1
1
1
1
1
1
1
1
1
1
1
1
1
1
1
1
1
1
1
1
1
1
1
1
1
1
1.20495
1
1
1
1
1
1
1
1
1
1.04298
1
1
1
1
1
1
1
1
1
1.00493
1
1
1
1
1
1
1
1
1
1.00085
1
1
1
1
1
1
1
1
1
1.00014
1
1
1
1
1
1
1
1
1
1.00002
1
1
1
1
1
1
1
1
1
1
1
1
1
1
1
1
1
1
1
1
1
1
1
1
1
1
1
1
1
1
1
1
1
1
1
1
1
1
1
1
1
1
1
1
1
1
1
1
1
1
1
1
1
1
1
1
1
1
1
1
1
1
1
1
1
1
1
1
1
1
1
1
1
1
1
1
1
1
1
1
1
1
1
1
1
1
1
1
1
1
1
1
1
1
1
1
1
1
1
1
1
1
1
1
1
1
1
1
1
1
1
1
1
1
1
1
1
1
1
1
1
1
1
1
1
1
1
1
1
1
1
1
1
1
1
1
1
1
1
1
1
1
1
1
1
1
1
1
1
2.58097
2.07655
1.26074
1.00037
1.00007
1.00001
1
1
1
1
1
1
1
1
1
1
1
1
1
1
2.57797
2.47499
2.23606
1.66918
1.01463
1.00001
1
1
1
1
1
1
1
1
1
1
1
1
1
1
2.53566
2.46521
2.40065
2.24137
1.9397
1.14077
1
1
1
1
1
1
1
1
1
1
1
1
1
1
2.49734
2.45017
2.3916
2.34869
2.30921
2.04907
1.23555
0.999735
1
1
1
1
1
1
1
1
1
1
1
1
2.47402
2.44171
2.39348
2.34015
2.32842
2.31423
2.08252
1.27264
0.999404
1
1
1
1
1
1
1
1
1
1
1
2.45795
2.43284
2.39198
2.34305
2.32006
2.30874
2.2712
2.00556
1.21608
0.99936
1
1
1
1
1
1
1
1
1
1
2.44493
2.42486
2.38984
2.34177
2.31667
2.29914
2.28286
2.23647
1.8706
1.10561
0.999627
1
1
1
1
1
1
1
1
1
2.43086
2.41433
2.38451
2.33968
2.31161
2.29196
2.27746
2.2739
2.23028
1.74791
1.03844
0.999837
1
1
1
1
1
1
1
1
2.41518
2.40153
2.37617
2.33584
2.30851
2.29022
2.27734
2.26855
2.25236
2.16092
1.54582
1.0039
1
1
1
1
1
1
1
1
2.39985
2.38888
2.36808
2.33384
2.3077
2.28866
2.27471
2.264
2.24993
2.24656
2.11834
1.35955
0.998602
1.00001
1
1
1
1
1
1
2.38708
2.37832
2.362
2.3331
2.30822
2.28653
2.27044
2.25768
2.24698
2.24001
2.21705
1.90789
1.13799
0.999371
0.999999
1
1
1
1
1
2.37736
2.37025
2.35757
2.33265
2.30815
2.28443
2.26431
2.2497
2.2387
2.22713
2.21134
2.15483
1.60898
1.01616
0.999981
1
1
1
1
1
2.36818
2.3623
2.35225
2.33045
2.30584
2.27981
2.25898
2.24265
2.22787
2.21791
2.20658
2.20949
2.06531
1.35277
1.00021
0.999998
1
1
1
1
2.35836
2.35241
2.34183
2.31982
2.29444
2.26723
2.24706
2.2314
2.21795
2.2102
2.20652
2.20951
2.16419
1.80219
1.08371
1.0002
1
1
1
1
2.32727
2.3014
2.28299
2.26033
2.23724
2.21549
2.202
2.19281
2.1865
2.18496
2.18622
2.18778
2.16829
2.07522
1.43543
0.989346
0.99958
0.999998
1
1
1.71945
1.92264
1.98436
2.03185
2.06728
2.08106
2.09322
2.1025
2.11146
2.1201
2.13058
2.14065
2.14214
2.13088
1.95081
1.30008
1.00783
1.00004
1
1
1.33318
1.66267
1.75372
1.82069
1.87811
1.93177
1.9673
2.0006
2.02252
2.04444
2.06202
2.08103
2.09239
2.10242
2.09106
1.79742
1.17171
1.00308
1.00001
1
1.34085
1.49043
1.56415
1.65971
1.72925
1.79324
1.84389
1.89218
1.9302
1.96144
1.98939
2.01613
2.03782
2.05483
2.07054
2.00504
1.56832
1.05782
1.00054
1
1.39193
1.42392
1.41515
1.4963
1.59373
1.66696
1.73581
1.78592
1.83875
1.87595
1.91419
1.9487
1.98111
2.00194
2.02668
2.00856
1.8388
1.29578
1.01061
1.00006
1.45296
1.39088
1.35073
1.40947
1.48248
1.56143
1.64056
1.70198
1.76028
1.80512
1.84879
1.89004
1.92826
1.95123
1.97362
1.99151
1.95249
1.6051
1.09003
1.00119
1.45083
1.39006
1.34228
1.36282
1.41088
1.48151
1.55587
1.62433
1.68419
1.73894
1.78296
1.8321
1.87327
1.90032
1.92058
1.95549
1.94855
1.82289
1.32415
1.01392
1.44302
1.39351
1.34785
1.33391
1.34193
1.40524
1.47389
1.54804
1.60237
1.66819
1.71397
1.7691
1.81612
1.84838
1.8732
1.90826
1.93006
1.87394
1.563
1.09001
1.44722
1.41256
1.36646
1.32527
1.30417
1.34571
1.40352
1.47536
1.53748
1.60019
1.66186
1.71098
1.76923
1.8029
1.83499
1.8679
1.89891
1.8721
1.69097
1.25018
1.45509
1.42485
1.37098
1.32044
1.29889
1.32788
1.36589
1.42596
1.49104
1.54625
1.61698
1.66598
1.72464
1.76596
1.79305
1.82252
1.85645
1.86464
1.77378
1.47082
1.45046
1.42094
1.36856
1.31903
1.3016
1.30742
1.33155
1.38137
1.44693
1.50035
1.56655
1.62384
1.66744
1.72177
1.74792
1.77905
1.81609
1.84296
1.79892
1.67053
1.44075
1.41437
1.36743
1.32437
1.30406
1.29678
1.29747
1.32915
1.38582
1.45185
1.50632
1.57787
1.62118
1.6749
1.71129
1.74965
1.78548
1.8128
1.81622
1.83171
1.43023
1.4088
1.37193
1.33567
1.31178
1.29581
1.2871
1.30995
1.34767
1.41404
1.47034
1.53637
1.59005
1.63744
1.67979
1.71867
1.75018
1.78186
1.83929
1.96768
1.42343
1.40778
1.37893
1.34646
1.31755
1.29577
1.28472
1.30441
1.32923
1.3867
1.44484
1.49854
1.55572
1.59761
1.64537
1.68213
1.70891
1.74882
1.85664
2.07889
1.41972
1.40751
1.37852
1.34714
1.31661
1.29105
1.27957
1.28967
1.30669
1.35384
1.41444
1.46044
1.5178
1.55393
1.60715
1.64755
1.6838
1.72796
1.87693
2.16478
1.41679
1.40675
1.37584
1.34445
1.31291
1.29041
1.28281
1.28511
1.28456
1.3136
1.37387
1.42197
1.47755
1.52486
1.5674
1.62002
1.66075
1.71578
1.91565
2.23325
1.39617
1.39044
1.36693
1.33838
1.31235
1.29473
1.29079
1.28655
1.28292
1.30413
1.3458
1.39675
1.44288
1.50221
1.54305
1.58805
1.62745
1.70432
1.93572
2.26293
1.33844
1.3443
1.34894
1.33378
1.31697
1.30306
1.2953
1.28628
1.28125
1.29641
1.31948
1.37215
1.41363
1.46549
1.51693
1.55654
1.5944
1.70656
1.95593
2.2863
1.26589
1.28656
1.31613
1.32295
1.31803
1.30719
1.29526
1.28289
1.27596
1.28607
1.29233
1.33124
1.38543
1.42649
1.4801
1.52334
1.57655
1.73149
1.98445
2.28395
1.21137
1.23057
1.27195
1.29993
1.31093
1.30595
1.29273
1.27953
1.27674
1.27874
1.27829
1.29915
1.34865
1.39448
1.44055
1.49018
1.5578
1.7781
1.98129
2.25555
1.19479
1.18646
1.2193
1.26235
1.29094
1.2989
1.2913
1.28089
1.27549
1.26953
1.2653
1.28455
1.31784
1.36535
1.40531
1.45736
1.56827
1.84572
1.97801
2.20705
1.18152
1.14232
1.1709
1.21995
1.25764
1.28267
1.28845
1.28174
1.27194
1.26009
1.25223
1.26825
1.29228
1.33035
1.37076
1.4313
1.61546
1.89506
1.96136
2.14589
1.20382
1.14249
1.13542
1.17199
1.21581
1.25572
1.27765
1.27867
1.26814
1.25251
1.24543
1.25434
1.26992
1.30179
1.3464
1.4394
1.70112
1.93103
1.93606
2.06455
1.23829
1.16119
1.13258
1.13231
1.16921
1.21955
1.25471
1.26907
1.26476
1.25285
1.24776
1.24853
1.24908
1.26975
1.32558
1.49185
1.76407
1.92005
1.90589
1.97796
1.283
1.1979
1.13715
1.12831
1.13757
1.17602
1.2188
1.2504
1.26002
1.25383
1.24856
1.24156
1.23486
1.25598
1.33918
1.57683
1.79172
1.8901
1.86968
1.89263
1.33585
1.25629
1.19936
1.14761
1.12766
1.13434
1.16655
1.20578
1.23433
1.24306
1.24179
1.23323
1.23128
1.29844
1.47386
1.66804
1.75651
1.82061
1.78385
1.7688
)
;

boundaryField
{
    inlet
    {
        type            fixedValue;
        value           uniform 1;
    }
    outlet
    {
        type            inletOutlet;
        inletValue      uniform 1;
        value           nonuniform List<scalar> 
35
(
1.33562
1.25605
1.1991
1.14748
1.12759
1.13423
1.16653
1.20576
1.23423
1.24294
1.24168
1.23308
1.23102
1.29755
1.47225
1.66703
1.75612
1.82044
1.78382
1.76896
1.47476
1.62892
1.66771
1.48096
1.05586
0.67731
0.675658
0.748493
0.814852
0.890332
0.966665
1.00833
1.0135
1.00895
1.00232
)
;
    }
    airfoil
    {
        type            zeroGradient;
    }
    top
    {
        type            symmetryPlane;
    }
    bottom
    {
        type            symmetryPlane;
    }
    defaultFaces
    {
        type            empty;
    }
}


// ************************************************************************* //
