/*--------------------------------*- C++ -*----------------------------------*\
  =========                 |
  \\      /  F ield         | OpenFOAM: The Open Source CFD Toolbox
   \\    /   O peration     | Website:  https://openfoam.org
    \\  /    A nd           | Version:  7
     \\/     M anipulation  |
\*---------------------------------------------------------------------------*/
FoamFile
{
    version     2.0;
    format      ascii;
    class       volScalarField;
    location    "3.2";
    object      T;
}
// * * * * * * * * * * * * * * * * * * * * * * * * * * * * * * * * * * * * * //

dimensions      [0 0 0 1 0 0 0];

internalField   nonuniform List<scalar> 
8400
(
0.936737
1.12338
1.20666
1.26008
1.30054
1.32027
1.34318
1.34977
1.35082
1.35257
1.34348
1.32658
1.32972
1.32814
1.32037
1.32506
1.32831
1.32773
1.32693
1.31872
1.30269
1.2911
1.29364
1.29511
1.29459
1.29685
1.30552
1.31274
1.32536
1.38742
0.507536
0.499082
0.52949
0.59986
0.722109
0.862606
0.976169
1.09089
1.18184
1.24475
1.31538
1.37076
1.41577
1.45227
1.46905
1.47444
1.47033
1.45936
1.43634
1.40311
1.37692
1.37157
1.38191
1.38836
1.39243
1.39952
1.40582
1.40524
1.41285
1.45883
0.471363
0.466964
0.463651
0.45998
0.457296
0.453816
0.448235
0.441228
0.465618
0.526458
0.66615
0.871728
0.994425
1.10918
1.22488
1.30481
1.34772
1.38538
1.40704
1.41008
1.41983
1.43044
1.43794
1.43272
1.42436
1.42655
1.4268
1.42753
1.43991
1.4836
0.43654
0.436911
0.437518
0.437352
0.437427
0.4375
0.435888
0.432768
0.42975
0.428932
0.428825
0.426716
0.424142
0.424101
0.46182
0.580195
0.742468
0.903401
1.05752
1.20549
1.32397
1.37598
1.39366
1.39356
1.39738
1.40897
1.40448
1.39604
1.41063
1.45115
0.427798
0.429196
0.42944
0.429798
0.430821
0.430823
0.430607
0.429601
0.428111
0.428265
0.430294
0.433906
0.433804
0.434108
0.436079
0.441236
0.448874
0.457954
0.463001
0.52573
0.689626
0.862676
0.990135
1.10923
1.1964
1.21946
1.23909
1.26441
1.29757
1.35921
0.429382
0.428968
0.428989
0.42952
0.43099
0.431886
0.43295
0.434564
0.437532
0.443211
0.451647
0.46141
0.466845
0.470058
0.47144
0.472156
0.475468
0.481399
0.48788
0.49
0.492173
0.496396
0.50063
0.56043
0.678428
0.782477
0.898283
1.00963
1.05708
1.19671
0.444541
0.446329
0.449035
0.45239
0.456095
0.460151
0.464813
0.470146
0.476483
0.482292
0.484361
0.486759
0.490075
0.492922
0.493443
0.493797
0.49448
0.496211
0.499419
0.506221
0.517259
0.527543
0.534668
0.535688
0.536288
0.536366
0.539014
0.601395
0.67344
1.00938
0.488797
0.490448
0.491388
0.492143
0.492726
0.493709
0.495515
0.498254
0.501996
0.505677
0.50582
0.50482
0.505536
0.508064
0.513486
0.520619
0.525775
0.530716
0.53764
0.544504
0.549223
0.551801
0.552165
0.551874
0.55187
0.553666
0.558461
0.567836
0.56848
0.6644
0.522558
0.524048
0.524254
0.524386
0.523629
0.521915
0.521649
0.523141
0.528544
0.537331
0.545827
0.548994
0.55045
0.553938
0.560336
0.566372
0.570433
0.571802
0.573186
0.574432
0.573866
0.571232
0.569097
0.570214
0.573617
0.579619
0.587512
0.592498
0.594039
0.594932
0.562813
0.566488
0.570756
0.574277
0.576291
0.576672
0.576139
0.576064
0.578238
0.583706
0.588271
0.590476
0.591496
0.592258
0.592328
0.59229
0.592231
0.590995
0.590104
0.590871
0.593554
0.596089
0.59989
0.604677
0.610014
0.613882
0.613861
0.612403
0.611593
0.611544
0.606888
0.609155
0.613999
0.620861
0.62275
0.623183
0.622291
0.618105
0.614975
0.614876
0.615635
0.616789
0.617463
0.618032
0.617856
0.618041
0.618412
0.619397
0.621565
0.624958
0.629075
0.632553
0.635002
0.636156
0.637018
0.636257
0.633831
0.631093
0.632056
0.634828
0.656263
0.656592
0.658358
0.664011
0.670591
0.672422
0.671168
0.666494
0.661677
0.660728
0.661895
0.663791
0.663875
0.663658
0.664463
0.666999
0.667376
0.666687
0.665824
0.665665
0.665155
0.664153
0.66203
0.659542
0.657629
0.655299
0.655718
0.658496
0.661065
0.663036
0.708851
0.708456
0.709215
0.712898
0.7166
0.717008
0.717258
0.715406
0.708478
0.705285
0.706183
0.707036
0.706208
0.703866
0.701918
0.700935
0.699808
0.698198
0.696726
0.695757
0.694576
0.693002
0.691327
0.69018
0.690157
0.690786
0.692206
0.692687
0.691993
0.688814
0.766903
0.76259
0.761381
0.762001
0.764853
0.766642
0.76638
0.764117
0.757904
0.752959
0.753016
0.752796
0.750142
0.745157
0.743898
0.743735
0.74277
0.740427
0.737241
0.734548
0.733185
0.732048
0.730927
0.729463
0.727781
0.725584
0.722819
0.719276
0.716553
0.712343
0.829734
0.820572
0.816063
0.81629
0.819816
0.820916
0.818719
0.813036
0.806311
0.802909
0.803287
0.802926
0.798958
0.791534
0.788499
0.787901
0.786416
0.783054
0.779158
0.775712
0.772547
0.769567
0.766278
0.762438
0.758468
0.754954
0.751933
0.748924
0.746404
0.741488
0.892725
0.882347
0.874093
0.873011
0.876083
0.878141
0.875299
0.867577
0.858867
0.853963
0.854348
0.85413
0.849225
0.840582
0.836305
0.834658
0.832249
0.827806
0.822659
0.817793
0.813512
0.809625
0.80602
0.802032
0.79766
0.793671
0.78995
0.785718
0.78101
0.773094
0.955526
0.945534
0.934074
0.931394
0.933875
0.936378
0.93329
0.924726
0.914014
0.907843
0.908352
0.907747
0.901188
0.890941
0.886799
0.884454
0.880795
0.87514
0.868748
0.86269
0.857516
0.852757
0.847778
0.842186
0.835945
0.830581
0.825029
0.818377
0.812717
0.803897
1.01903
1.00875
0.994828
0.991573
0.993917
0.995789
0.992329
0.983466
0.970835
0.963817
0.964344
0.962869
0.954331
0.943174
0.939587
0.936674
0.931167
0.924047
0.916687
0.909099
0.902899
0.897452
0.891305
0.884396
0.877039
0.869765
0.863104
0.855977
0.849086
0.8382
1.0838
1.07665
1.06435
1.05726
1.05679
1.05532
1.05016
1.04312
1.03127
1.02279
1.02202
1.01932
1.01018
0.998295
0.993579
0.98965
0.982488
0.973821
0.965855
0.95779
0.950111
0.943302
0.935485
0.926959
0.918918
0.91054
0.902109
0.893748
0.88599
0.87359
1.14601
1.14175
1.13415
1.12651
1.1228
1.1188
1.11278
1.10557
1.09719
1.08841
1.08226
1.07673
1.06836
1.05811
1.05067
1.04377
1.03509
1.02572
1.01662
1.00774
0.998854
0.990257
0.981241
0.971558
0.961781
0.952539
0.943306
0.933282
0.92461
0.910869
1.1791
1.17775
1.17538
1.17234
1.16938
1.1663
1.16265
1.15828
1.15338
1.14719
1.14053
1.13482
1.12815
1.11931
1.11075
1.10244
1.0928
1.08261
1.07278
1.06242
1.05186
1.04112
1.03035
1.01943
1.00853
0.997275
0.986421
0.975465
0.96534
0.949358
1.17927
1.17875
1.17788
1.17679
1.17561
1.17439
1.17339
1.17217
1.17053
1.16818
1.16582
1.16409
1.16191
1.15823
1.15356
1.14841
1.14239
1.13549
1.1279
1.11903
1.10886
1.09784
1.08622
1.07392
1.06141
1.04865
1.03555
1.02226
1.01051
0.991736
1.15584
1.16139
1.16272
1.16152
1.16
1.16077
1.16304
1.16473
1.16513
1.16521
1.16469
1.16357
1.16235
1.1607
1.15874
1.15676
1.15481
1.15257
1.14975
1.14619
1.14226
1.13735
1.13108
1.12318
1.11353
1.10245
1.09008
1.07624
1.06308
1.04137
1.07599
1.08263
1.08767
1.09288
1.09972
1.10449
1.10899
1.11656
1.12297
1.12619
1.12986
1.13687
1.141
1.14208
1.1436
1.14544
1.14701
1.14714
1.14647
1.14506
1.14317
1.14095
1.13836
1.13538
1.13179
1.12723
1.12204
1.11487
1.10663
1.08974
1.01033
1.01227
1.01463
1.01725
1.02061
1.02429
1.02811
1.03307
1.03912
1.04556
1.05192
1.05941
1.068
1.07625
1.08395
1.09184
1.09981
1.1068
1.11328
1.11825
1.12242
1.12534
1.12682
1.12759
1.12713
1.1255
1.12236
1.11849
1.11443
1.10569
1.00028
1.00036
1.00047
1.00062
1.00082
1.0011
1.00145
1.00195
1.00267
1.00368
1.00498
1.00667
1.00899
1.01213
1.016
1.02081
1.0267
1.03371
1.04147
1.05026
1.05916
1.06856
1.0773
1.08553
1.09273
1.09827
1.10247
1.10487
1.10443
1.10129
1
1
1
1.00001
1.00001
1.00001
1.00002
1.00002
1.00004
1.00006
1.00009
1.00014
1.00022
1.00036
1.00058
1.00093
1.00146
1.00232
1.00357
1.00546
1.00807
1.01173
1.01651
1.0225
1.02969
1.03781
1.04627
1.05505
1.06196
1.07001
1
1
1
1
1
1
1
1
1
1
1
1
1
1
1
1.00001
1.00002
1.00003
1.00006
1.00011
1.00021
1.00039
1.0007
1.00125
1.00215
1.00359
1.00574
1.00887
1.01255
1.0202
1
1
1
1
1
1
1
1
1
1
1
1
1
1
1
1
1
1
1
1
1
1
1.00001
1.00001
1.00003
1.00007
1.00014
1.00028
1.00051
1.00135
1
1
1
1
1
1
1
1
1
1
1
1
1
1
1
1
1
1
1
1
1
1
1
1
1
1
1
1
1
1.00002
0.538835
0.51552
0.47863
0.437638
0.425863
0.430195
0.443396
0.485615
0.519566
0.560203
0.606021
0.659124
0.717359
0.77956
0.839932
0.900858
0.96287
1.02599
1.09103
1.15219
1.18075
1.17949
1.14764
1.06635
1.00823
1.00023
1
1
1
1
0.535919
0.511363
0.473541
0.433987
0.42388
0.432841
0.44932
0.489845
0.523949
0.567748
0.623534
0.684267
0.740637
0.797077
0.854795
0.914565
0.976413
1.03941
1.10533
1.16404
1.18359
1.17859
1.13715
1.05215
1.00476
1.00009
1
1
1
1
0.535322
0.511142
0.473268
0.433579
0.42339
0.434091
0.45045
0.489916
0.526623
0.578447
0.639255
0.696923
0.748981
0.803015
0.861244
0.92232
0.985307
1.05007
1.11784
1.17303
1.18537
1.17676
1.12857
1.04043
1.00278
1.00004
1
1
1
1
0.535307
0.512133
0.474363
0.433446
0.421893
0.433622
0.449666
0.489216
0.536009
0.59081
0.646045
0.700028
0.753014
0.806891
0.867031
0.931873
0.99863
1.06698
1.13512
1.18079
1.1864
1.17566
1.11586
1.02765
1.0014
1.00002
1
1
1
1
0.536293
0.514513
0.475167
0.432474
0.419412
0.432535
0.449192
0.492404
0.547848
0.596926
0.648567
0.699577
0.756109
0.819084
0.888687
0.957816
1.0246
1.09129
1.1521
1.18569
1.18655
1.16943
1.09467
1.01785
1.00071
1.00001
1
1
1
1
0.537378
0.515451
0.472562
0.428628
0.416815
0.432608
0.457388
0.510158
0.556668
0.60055
0.650765
0.712324
0.779762
0.849067
0.914198
0.978517
1.04174
1.10599
1.16322
1.18847
1.18616
1.15711
1.07854
1.01203
1.00037
1
1
1
1
1
0.537806
0.514296
0.467775
0.425793
0.415847
0.437661
0.474198
0.52128
0.56096
0.607318
0.670695
0.739349
0.803213
0.864258
0.925769
0.988992
1.05276
1.11809
1.17355
1.19066
1.18569
1.14967
1.06523
1.00741
1.00017
1
1
1
1
1
0.537415
0.510013
0.465639
0.425531
0.418672
0.446716
0.48281
0.523839
0.566215
0.623713
0.692589
0.753672
0.812024
0.871994
0.934742
0.999911
1.06699
1.13459
1.18365
1.19231
1.18672
1.14149
1.04749
1.00374
1.00007
1
1
1
1
1
0.535951
0.508231
0.465431
0.428409
0.425287
0.451134
0.484125
0.52542
0.576902
0.642557
0.701944
0.759151
0.817967
0.879699
0.949537
1.02239
1.09273
1.15406
1.18951
1.19286
1.18348
1.12022
1.03089
1.00184
1.00003
1
1
1
1
1
0.53605
0.508829
0.466589
0.430063
0.428114
0.451439
0.482482
0.530386
0.595099
0.650214
0.706283
0.763865
0.830358
0.906834
0.980048
1.04814
1.11175
1.16578
1.19203
1.19207
1.17075
1.09885
1.02118
1.00098
1.00001
1
1
1
1
1
0.539612
0.515426
0.468674
0.429699
0.426715
0.448174
0.482044
0.547549
0.603431
0.655388
0.715228
0.789782
0.864056
0.933832
0.99925
1.06256
1.12474
1.17534
1.19389
1.18998
1.16107
1.08449
1.014
1.00047
1
1
1
1
1
1
0.54672
0.52348
0.468984
0.42432
0.419698
0.446163
0.493818
0.559786
0.608661
0.665006
0.745631
0.818287
0.883307
0.947524
1.01174
1.07604
1.14057
1.18551
1.19521
1.1895
1.15367
1.06661
1.00751
1.00019
1
1
1
1
1
1
0.554391
0.527801
0.462643
0.416014
0.417203
0.45044
0.511604
0.56424
0.619634
0.693635
0.766507
0.8308
0.894166
0.96011
1.0297
1.09996
1.16084
1.19233
1.19592
1.19008
1.14002
1.04437
1.00358
1.00007
1
1
1
1
1
1
0.560558
0.528573
0.454879
0.410929
0.421343
0.465301
0.517956
0.572321
0.639673
0.713553
0.77494
0.837003
0.906631
0.984107
1.05967
1.12407
1.17406
1.195
1.19627
1.18198
1.11329
1.02887
1.00178
1.00003
1
1
1
1
1
1
0.563181
0.528029
0.450787
0.409227
0.431766
0.472724
0.523322
0.589609
0.662707
0.722351
0.780216
0.852247
0.937908
1.01528
1.08179
1.13931
1.1823
1.19656
1.19494
1.168
1.09419
1.01927
1.00085
1.00001
1
1
1
1
1
1
0.563479
0.523591
0.44934
0.409108
0.437332
0.477324
0.534947
0.611161
0.671328
0.729248
0.803321
0.893256
0.96879
1.03518
1.09845
1.1543
1.18988
1.19788
1.19143
1.15836
1.0779
1.01126
1.00035
1
1
1
1
1
1
1
0.562202
0.516299
0.449211
0.410244
0.439378
0.484544
0.553564
0.623491
0.681323
0.752904
0.846709
0.920145
0.986722
1.05309
1.11959
1.17205
1.19553
1.1984
1.18933
1.14779
1.05555
1.00545
1.00013
1
1
1
1
1
1
1
0.561449
0.511015
0.449572
0.411805
0.44548
0.50387
0.568744
0.629543
0.700921
0.795406
0.86947
0.936029
1.00655
1.08067
1.14363
1.1854
1.19838
1.19867
1.18892
1.12523
1.03421
1.00241
1.00004
1
1
1
1
1
1
1
0.559136
0.508393
0.451828
0.415711
0.453898
0.518016
0.573973
0.647814
0.738973
0.815636
0.881618
0.954337
1.03831
1.10775
1.16036
1.19299
1.19947
1.19839
1.17533
1.09714
1.02057
1.00104
1.00001
1
1
1
1
1
1
1
0.55723
0.505572
0.452625
0.421342
0.455937
0.521638
0.582535
0.67658
0.764621
0.828313
0.897656
0.990595
1.06866
1.12829
1.17364
1.19692
1.19947
1.19409
1.15594
1.07564
1.01188
1.00042
1
1
1
1
1
1
1
1
0.559356
0.500005
0.449319
0.424949
0.454964
0.519045
0.608736
0.711785
0.778982
0.84465
0.941588
1.02527
1.09225
1.14848
1.18525
1.19863
1.19827
1.18736
1.1425
1.05659
1.00595
1.00015
1
1
1
1
1
1
1
1
0.564705
0.49192
0.436488
0.425069
0.45842
0.541403
0.648694
0.727223
0.796748
0.891548
0.978635
1.05074
1.11673
1.1684
1.19306
1.19941
1.19693
1.18172
1.12582
1.0356
1.00258
1.00005
1
1
1
1
1
1
1
1
0.572198
0.480256
0.419149
0.42279
0.480789
0.586431
0.67128
0.744314
0.83437
0.930069
1.00518
1.07785
1.14302
1.18264
1.19796
1.20022
1.19828
1.17688
1.09633
1.01899
1.00095
1.00001
1
1
1
1
1
1
1
1
0.579808
0.467852
0.405268
0.425665
0.518152
0.610851
0.680251
0.772671
0.879869
0.957722
1.03298
1.1105
1.16376
1.19207
1.20067
1.20147
1.19804
1.1567
1.06643
1.00914
1.00031
1
1
1
1
1
1
1
1
1
0.583432
0.461504
0.400535
0.460817
0.547727
0.617775
0.699133
0.820594
0.909873
0.98664
1.0726
1.13854
1.17959
1.19784
1.20159
1.20152
1.18732
1.12861
1.04382
1.0041
1.0001
1
1
1
1
1
1
1
1
1
0.582845
0.462765
0.416028
0.490915
0.55309
0.626823
0.744707
0.861659
0.943165
1.03181
1.10798
1.16077
1.19078
1.20079
1.20151
1.19843
1.17331
1.10721
1.02713
1.00168
1.00003
1
1
1
1
1
1
1
1
1
0.58427
0.469276
0.451263
0.497512
0.557148
0.665802
0.806178
0.899468
0.987989
1.07191
1.13632
1.17844
1.19739
1.2021
1.20016
1.19248
1.16198
1.08396
1.01389
1.00059
1.00001
1
1
1
1
1
1
1
1
1
0.586967
0.465435
0.462374
0.493546
0.58874
0.74533
0.844201
0.940112
1.0344
1.10553
1.16101
1.19107
1.20087
1.20223
1.19986
1.18858
1.1446
1.05241
1.00564
1.00016
1
1
1
1
1
1
1
1
1
1
0.575315
0.443576
0.452497
0.516938
0.66581
0.786695
0.884867
0.991377
1.07387
1.13777
1.18043
1.1987
1.20201
1.20198
1.20107
1.18469
1.10979
1.02695
1.00188
1.00004
1
1
1
1
1
1
1
1
1
1
0.563669
0.438378
0.441018
0.572154
0.722524
0.824276
0.936567
1.03979
1.11373
1.16571
1.19224
1.2019
1.20208
1.20114
1.19657
1.15894
1.07526
1.01275
1.00056
1.00001
1
1
1
1
1
1
1
1
1
1
0.542819
0.440933
0.48254
0.643256
0.758573
0.874814
1.00106
1.08685
1.15039
1.18371
1.19817
1.20254
1.20229
1.19938
1.18374
1.13162
1.04974
1.00547
1.00016
1
1
1
1
1
1
1
1
1
1
1
0.504108
0.430112
0.553757
0.685879
0.812564
0.954374
1.05649
1.12875
1.17617
1.19388
1.20085
1.2026
1.20158
1.19644
1.17349
1.11003
1.02851
1.00191
1.00004
1
1
1
1
1
1
1
1
1
1
1
0.491581
0.455792
0.603542
0.742741
0.894727
1.01955
1.10565
1.16236
1.19271
1.19823
1.20211
1.20249
1.2002
1.19297
1.16199
1.07766
1.01185
1.0005
1.00001
1
1
1
1
1
1
1
1
1
1
1
0.485207
0.514401
0.653529
0.826391
0.980055
1.07919
1.14833
1.18502
1.20102
1.19945
1.20283
1.20279
1.20086
1.19066
1.13179
1.03964
1.00364
1.0001
1
1
1
1
1
1
1
1
1
1
1
1
0.457507
0.543169
0.746238
0.930304
1.05204
1.13239
1.17808
1.19782
1.20342
1.19996
1.20324
1.20308
1.20153
1.1712
1.08541
1.01642
1.00092
1.00002
1
1
1
1
1
1
1
1
1
1
1
1
0.123442
0.547452
0.858606
1.02223
1.11623
1.17099
1.1946
1.20307
1.20425
1.19958
1.20299
1.20186
1.19018
1.13454
1.05006
1.0059
1.00019
1
1
1
1
1
1
1
1
1
1
1
1
1
0.193416
0.71522
0.968742
1.09889
1.1644
1.19204
1.20159
1.20475
1.20446
1.19863
1.20136
1.19701
1.16992
1.10188
1.02505
1.00159
1.00003
1
1
1
1
1
1
1
1
1
1
1
1
1
0.381667
0.836129
1.06812
1.15856
1.19031
1.20088
1.20394
1.2051
1.2043
1.19781
1.19959
1.1905
1.15019
1.06586
1.00841
1.0003
1
1
1
1
1
1
1
1
1
1
1
1
1
1
0.680603
0.997769
1.15047
1.19122
1.20053
1.20334
1.20456
1.20516
1.20315
1.19726
1.19905
1.18238
1.1142
1.02635
1.00166
1.00003
1
1
1
1
1
1
1
1
1
1
1
1
1
1
0.997412
1.14854
1.19281
1.20131
1.20299
1.2038
1.20458
1.20481
1.20191
1.19672
1.19938
1.15685
1.05914
1.00602
1.00016
1
1
1
1
1
1
1
1
1
1
1
1
1
1
1
1.20249
1.2026
1.20311
1.2035
1.20348
1.2038
1.2037
1.20437
1.20123
1.19585
1.18671
1.10862
1.01983
0.999897
0.999988
1
1
1
1
1
1
1
1
1
1
1
1
1
1
1
1.20191
1.20241
1.20338
1.20392
1.20339
1.20271
1.20274
1.20471
1.20348
1.19447
1.17744
1.10205
1.02026
1.0008
1.00001
1
1
1
1
1
1
1
1
1
1
1
1
1
1
1
1.20162
1.20225
1.20376
1.20448
1.20382
1.20219
1.20211
1.20482
1.20438
1.19562
1.16517
1.06968
1.00619
1.0001
1
1
1
1
1
1
1
1
1
1
1
1
1
1
1
1
1.20153
1.20215
1.20383
1.20467
1.20406
1.20173
1.20139
1.20446
1.20466
1.19494
1.14489
1.04662
1.0029
1.00003
1
1
1
1
1
1
1
1
1
1
1
1
1
1
1
1
1.20151
1.20209
1.20379
1.20467
1.20423
1.20163
1.20081
1.20367
1.20387
1.18555
1.12372
1.02933
1.00113
1.00001
1
1
1
1
1
1
1
1
1
1
1
1
1
1
1
1
1.20169
1.20212
1.20356
1.20458
1.20433
1.20218
1.20102
1.20351
1.20251
1.17572
1.10129
1.0153
1.00038
1
1
1
1
1
1
1
1
1
1
1
1
1
1
1
1
1
1.20227
1.20234
1.203
1.2038
1.20418
1.20316
1.20201
1.2038
1.20252
1.16513
1.07286
1.00692
1.00011
1
1
1
1
1
1
1
1
1
1
1
1
1
1
1
1
1
1.20273
1.20243
1.20243
1.2028
1.20364
1.20462
1.20311
1.20271
1.19972
1.1461
1.04666
1.00289
1.00003
1
1
1
1
1
1
1
1
1
1
1
1
1
1
1
1
1
1.20305
1.20244
1.20194
1.2017
1.20331
1.20577
1.20481
1.19921
1.18899
1.12289
1.02739
1.001
1.00001
1
1
1
1
1
1
1
1
1
1
1
1
1
1
1
1
1
1.20315
1.20247
1.20171
1.2011
1.20263
1.20642
1.20679
1.19771
1.17854
1.09985
1.01446
1.00034
1
1
1
1
1
1
1
1
1
1
1
1
1
1
1
1
1
1
1.20309
1.2024
1.20159
1.20086
1.20212
1.20683
1.20745
1.19744
1.16726
1.07032
1.00617
1.00009
1
1
1
1
1
1
1
1
1
1
1
1
1
1
1
1
1
1
1.20289
1.20211
1.20152
1.20096
1.20197
1.20703
1.20756
1.19269
1.14645
1.04328
1.00239
1.00002
1
1
1
1
1
1
1
1
1
1
1
1
1
1
1
1
1
1
1.20246
1.20186
1.20183
1.20175
1.20205
1.20752
1.20767
1.1845
1.12034
1.02468
1.00081
1.00001
1
1
1
1
1
1
1
1
1
1
1
1
1
1
1
1
1
1
1.20193
1.20151
1.2024
1.20246
1.20242
1.20753
1.20799
1.17803
1.09181
1.01146
1.00023
1
1
1
1
1
1
1
1
1
1
1
1
1
1
1
1
1
1
1
1.2017
1.20103
1.20263
1.20362
1.20256
1.20543
1.20626
1.16399
1.05952
1.00434
1.00006
1
1
1
1
1
1
1
1
1
1
1
1
1
1
1
1
1
1
1
1.20151
1.20049
1.20196
1.20483
1.2047
1.20242
1.19789
1.13758
1.03606
1.0016
1.00001
1
1
1
1
1
1
1
1
1
1
1
1
1
1
1
1
1
1
1
1.20124
1.20019
1.20075
1.20592
1.2097
1.20154
1.1893
1.11278
1.01867
1.00048
1
1
1
1
1
1
1
1
1
1
1
1
1
1
1
1
1
1
1
1
1.2007
1.19992
1.19976
1.20834
1.21217
1.20178
1.17852
1.07716
1.00724
1.00012
1
1
1
1
1
1
1
1
1
1
1
1
1
1
1
1
1
1
1
1
1.20003
1.19941
1.19911
1.21028
1.21346
1.19788
1.15308
1.04689
1.00268
1.00003
1
1
1
1
1
1
1
1
1
1
1
1
1
1
1
1
1
1
1
1
1.19942
1.19937
1.19918
1.21119
1.21397
1.19161
1.12536
1.02554
1.00081
1.00001
1
1
1
1
1
1
1
1
1
1
1
1
1
1
1
1
1
1
1
1
1.19843
1.2001
1.20024
1.21088
1.2146
1.18644
1.0908
1.01026
1.00019
1
1
1
1
1
1
1
1
1
1
1
1
1
1
1
1
1
1
1
1
1
1.19704
1.20068
1.20177
1.20874
1.21216
1.16487
1.05633
1.00367
1.00004
1
1
1
1
1
1
1
1
1
1
1
1
1
1
1
1
1
1
1
1
1
1.196
1.20264
1.20859
1.20586
1.20356
1.13677
1.03198
1.00117
1.00001
1
1
1
1
1
1
1
1
1
1
1
1
1
1
1
1
1
1
1
1
1
1.19578
1.20663
1.21407
1.20598
1.1941
1.10315
1.01327
1.00028
1
1
1
1
1
1
1
1
1
1
1
1
1
1
1
1
1
1
1
1
1
1
1.19597
1.20932
1.21724
1.20659
1.17425
1.06195
1.00438
1.00006
1
1
1
1
1
1
1
1
1
1
1
1
1
1
1
1
1
1
1
1
1
1
1.19798
1.21062
1.21891
1.20014
1.1412
1.03434
1.00137
1.00001
1
1
1
1
1
1
1
1
1
1
1
1
1
1
1
1
1
1
1
1
1
1
1.19975
1.21148
1.2202
1.19346
1.10628
1.01441
1.00031
1
1
1
1
1
1
1
1
1
1
1
1
1
1
1
1
1
1
1
1
1
1
1
1.20298
1.21262
1.22046
1.17726
1.06388
1.00445
1.00006
1
1
1
1
1
1
1
1
1
1
1
1
1
1
1
1
1
1
1
1
1
1
1
1.21083
1.21258
1.21106
1.13942
1.03361
1.00133
1.00001
1
1
1
1
1
1
1
1
1
1
1
1
1
1
1
1
1
1
1
1
1
1
1
1.22749
1.20517
1.19637
1.10262
1.01393
1.00031
1
1
1
1
1
1
1
1
1
1
1
1
1
1
1
1
1
1
1
1
1
1
1
1
1.24434
1.19556
1.17149
1.0591
1.00414
1.00006
1
1
1
1
1
1
1
1
1
1
1
1
1
1
1
1
1
1
1
1
1
1
1
1
1.25626
1.18237
1.13035
1.02974
1.00125
1.00001
1
1
1
1
1
1
1
1
1
1
1
1
1
1
1
1
1
1
1
1
1
1
1
1
1.26227
1.1672
1.08886
1.01195
1.00031
1
1
1
1
1
1
1
1
1
1
1
1
1
1
1
1
1
1
1
1
1
1
1
1
1
1.25988
1.14432
1.054
1.00425
1.00007
1
1
1
1
1
1
1
1
1
1
1
1
1
1
1
1
1
1
1
1
1
1
1
1
1
1.2377
1.1167
1.02955
1.00142
1.00002
1
1
1
1
1
1
1
1
1
1
1
1
1
1
1
1
1
1
1
1
1
1
1
1
1
1.21893
1.09012
1.01362
1.00037
1
1
1
1
1
1
1
1
1
1
1
1
1
1
1
1
1
1
1
1
1
1
1
1
1
1
1.19187
1.05586
1.00463
1.00007
1
1
1
1
1
1
1
1
1
1
1
1
1
1
1
1
1
1
1
1
1
1
1
1
1
1
1.14374
1.03148
1.00144
1.00001
1
1
1
1
1
1
1
1
1
1
1
1
1
1
1
1
1
1
1
1
1
1
1
1
1
1
1.09367
1.0133
1.00029
1
1
1
1
1
1
1
1
1
1
1
1
1
1
1
1
1
1
1
1
1
1
1
1
1
1
1
1.03765
1.00233
1.00002
1
1
1
1
1
1
1
1
1
1
1
1
1
1
1
1
1
1
1
1
1
1
1
1
1
1
1
1
1
1
1
1
1
1
1
1
1
1
1
1
1
1
1
1
1
1
1
1
1
1
1
1
1
1
1
1
1
1
1
1
1
1
1
1
1
1
1
1
1
1
1
1
1
1
1
1
1
1
1
1
1
1
1
1
1
1
1
1
1
1
1
1
1
1
1
1
1
1
1
1
1
1
1
1
1
1
1
1
1
1
1
1
1
1
1
1
1
1
1
1
1
1
1
1
1
1
1
1
1
1
1
1
1
1
1
1
1
1
1
1
1
1
1
1
1
1
1
1
1
1
1
1
1
1
1
1
1
1
1
1
1
1
1
1
1
1
1
1
1
1
1
1
1
1
1
1
1
1
1
1
1
1
1
1
1
1
1
1
1
1
1
1
1
1
1
1
1
1
1
1
1
1
1
1
1
1
1
1
1
1
1
1
1
1
1
1
1
1
1
1
1
1
1
1
1
1
1
1
1
1
1
1
1
1
1
1
1
1
1
1
1
1
1
1
1
1
1
1
1
1
1
1
1
1
1
1
1
1
1
1
1
1
1
1
1
1
1
1
1
1
1
1
1
1
1
1
1
1
1
1
1
1
1
1
1
1
1
1
1
1
1
1
1
1
1
1
1
1
1
1
1
1
1
1
1
1
1
1
1
1
1
1
1
1
1
1
1
1
1
1
1
1
1
1
1
1
1
1
1
1
1
1
1
1
1
1
1
1
1
1
1
1
1
1
1
1
1
1
1
1
1
1
1
1
1
1
1
1
1
1
1
1
1
1
1
1
1
1
1
1
1
1
1
1
1
1
1
1
1
1
1
1
1
1
1
1
1
1
1
1
1
1
1
1
1
1
1
1
1
1
1
1
1
1
1
1
1
1
1
1
1
1
1
1
1
1
1
1
1
1
1
1
1
1
1
1
1
1
1
1
1
1
1
1
1
1
1
1
1
1
1
1
1
1
1
1
1
1
1
1
1
1
1
1
1
1
1
1
1
1
1
1
1
1
1
1
1
1
1
1
1
1
1
1
1
1
1
1
1
1
1
1
1
1
1
1
1
1
1
1
1
1
1
1
1
1
1
1
1
1
1
1
1
1
1
1
1
1
1
1
1
1
1
1
1
1
1
1
1
1
1
1
1
1
1
1
1
1
1
1
1
1
1
1
1
1
1
1
1
1
1
1
1
1
1
1
1
1
1
1
1
1
1
1
1
1
1
1
1
1
1
1
1
1
1
1
1
1
1
1
1
1
1
1
1
1
1
1
1
1
1
1
1
1
1
1
1
1
1
1
1
1
1
1
1
1
1
1
1
1
1
1
1
1
1
1
1
1
1
1
1
1
1
1
1
1
1
1
1
1
1
1
1
1
1
1
1
1
1
1
1
1
1
1
1
1
1
1
1
1
1
1
1
1
1
1
1
1
1
1
1
1
1
1
1
1
1
1
1
1
1
1
1
1
1
1
1
1
1
1
1
1
1
1
1
1
1
1
1
1
1
1
1
1
1
1
1
1
1
1
1
1
1
1
1
1
1
1
1
1
1
1
1
1
1
1
1
1
1
1
1
1
1
1
1
1
1
1
1
1
1
1
1
1
1
1
1
1
1
1
1
1
1
1
1
1
1
1
1
1
1
1
1
1
1
1
1
1
1
1
1
1
1
1
1
1
1
1
1
1
1
1
1
1
1
1
1
1
1
1
1
1
1
1
1
1
1
1
1
1
1
1
1
1
1
1
1
1
1
1
1
1
1
1
1
1
1
1
1
1
1
1
1
1
1
1
1
1
1
1
1
1
1
1
1
1
1
1
1
1
1
1
1
1
1
1
1
1
1
1
1
1
1
1
1
1
1
1
1
1
1
1
1
1
1
1
1
1
1
1
1
1
1
1
1
1
1
1
1
1
1
1
1
1
1
1
1
1
1
1
1
1
1
1
1
1
1
1
1
1
1
1
1
1
1
1
1
1
1
1
1
1
1
1
1
1
1
1
1
1
1
1
1
1
1
1
1
1
1
1
1
1
1
1
1
1
1
1
1
1
1
1
1
1
1
1
1
1
1
1
1
1
1
1
1
1
1
1
1
1
1
1
1
1
1
1
1
1
1
1
1
1
1
1
1
1
1
1
1
1
1
1
1
1
1
1
1
1
1
1
1
1
1
1
1
1
1
1
1
1
1
1
1
1
1
1
1
1
1
1
1
1
1
1
1
1
1
1
1
1
1
1
1
1
1
1
1
1
1
1
1
1
1
1
1
1
1
1
1
1
1
1
1
1
1
1
1
1
1
1
1
1
1
1
1
1
1
1
1
1
1
1
1
1
1
1
1
1
1
1
1
1
1
1
1
1
1
1
1
1
1
1
1
1
1
1
1
1
1
1
1
1
1
1
1
1
1
1
1
1
1
1
1
1
1
1
1
1
1
1
1
1
1
1
1
1
1
1
1
1
1
1
1
1
1
1
1
1
1
1
1
1
1
1
1
1
1
1
1
1
1
1
1
1
1
1
1
1
1
1
1
1
1
1
1
1
1
1
1
1
1
1
1
1
1
1
1
1
1
1
1
1
1
1
1
1
1
1
1
1
1
1
1
1
1
1
1
1
1
1
1
1
1
1
1
1
1
1
1
1
1
1
1
1
1
1
1
1
1
1
1
1
1
1
1
1
1
1
1
1
1
1
1
1
1
1
1
1
1
1
1
1
1
1
1
1
1
1
1
1
1
1
1
1
1
1
1
1
1
1
1
1
1
1
1
1
1
1
1
1
1
1
1
1
1
1
1
1
1
1
1
1
1
1
1
1
1
1
1
1
1
1
1
1
1
1
1
1
1
1
1
1
1
1
1
1
1
1
1
1
1
1
1
1
1
1
1
1
1
1
1
1
1
1
1
1
1
1
1
1
1
1
1
1
1
1
1
1
1
1
1
1
1
1
1
1
1
1
1
1
1
1
1
1
1
1
1
1
1
1
1
1
1
1
1
1
1
1
1
1
1
1
1
1
1
1
1
1
1
1
1
1
1
1
1
1
1
1
1
1
1
1
1
1
1
1
1
1
1
1
1
1
1
1
1
1
1
1
1
1
1
1
1
1
1
1
1
1
1
1
1
1
1
1
1
1
1
1
1
1
1
1
1
1
1
1
1
1
1
1
1
1
1
1
1
1
1
1
1
1
1
1
1
1
1
1
1
1
1
1
1
1
1
1
1
1
1
1
1
1
1
1
1
1
1
1
1
1
1
1
1
1
1
1
1
1
1
1
1
1
1
1
1
1
1
1
1
1
1
1
1
1
1
1
1
1
1
1
1
1
1
1
1
1
1
1
1
1
1
1
1
1
1
1
1
1
1
1
1
1
1
1
1
1
1
1
1
1
1
1
1
1
1
1
1
1
1
1
1
1
1
1
1
1
1
1
1
1
1
1
1
1
1
1
1
1
1
1
1
1
1
1
1
1
1
1
1
1
1
1
1
1
1
1
1
1
1
1
1
1
1
1
1
1
1
1
1
1
1
1
1
1
1
1
1
1
1
1
1
1
1
1
1
1
1
1
1
1
1
1
1
1
1
1
1
1
1
1
1
1
1
1
1
1
1
1
1
1
1
1
1
1
1
1
1
1
1
1
1
1
1
1
1
1
1
1
1
1
1
1
1
1
1
1
1
1
1
1
1
1
1
1
1
1
1
1
1
1
1
1
1
1
1
1
1
1
1
1
1
1
1
1
1
1
1
1
1
1
1
1
1
1
1
1
1
1
1
1
1
1
1
1
1
1
1
1
1
1
1
1
1
1
1
1
1
1
1
1
1
1
1
1
1
1
1
1
1
1
1
1
1
1
1
1
1
1
1
1
1
1
1
1
1
1
1
1
1
1
1
1
1
1
1
1
1
1
1
1
1
1
1
1
1
1
1
1
1
1
1
1
1
1
1
1
1
1
1
1
1
1
1
1
1
1
1
1
1
1
1
1
1
1
1
1
1
1
1
1
1
1
1
1
1
1
1
1
1
1
1
1
1
1
1
1
1
1
1
1
1
1
1
1
1
1
1
1
1
1
1
1
1
1
1
1
1
1
1
1
1
1
1
1
1
1
1
1
1
1.10735
1
1
1
1
1
1
1
1
1
1
1
1
1
1
1
1
1
1
1
1
1
1
1
1
1
1
1
1
1
1.29038
0.999619
1
1
1
1
1
1
1
1
1
1
1
1
1
1
1
1
1
1
1
1
1
1
1
1
1
1
1
1
1.47826
1.0317
1
1
1
1
1
1
1
1
1
1
1
1
1
1
1
1
1
1
1
1
1
1
1
1
1
1
1
1
1.6791
1.1375
1
1
1
1
1
1
1
1
1
1
1
1
1
1
1
1
1
1
1
1
1
1
1
1
1
1
1
1
1.86295
1.35115
0.999572
1
1
1
1
1
1
1
1
1
1
1
1
1
1
1
1
1
1
1
1
1
1
1
1
1
1
1
2.01111
1.6045
1.0482
0.999938
1
1
1
1
1
1
1
1
1
1
1
1
1
1
1
1
1
1
1
1
1
1
1
1
1
1
2.10397
1.86605
1.48246
1.00271
1
1
1
1
1
1
1
1
1
1
1
1
1
1
1
1
1
1
1
1
1
1
1
1
1
1
2.0438
1.91664
1.96617
1.3146
0.999672
1
1
1
1
1
1
1
1
1
1
1
1
1
1
1
1
1
1
1
1
1
1
1
1
1
1.94497
1.90621
2.03751
1.84808
1.11816
0.999843
1
1
1
1
1
1
1
1
1
1
1
1
1
1
1
1
1
1
1
1
1
1
1
1
1.88487
1.89029
2.00494
2.02729
1.53673
1.00408
1
1
1
1
1
1
1
1
1
1
1
1
1
1
1
1
1
1
1
1
1
1
1
1
1.84972
1.8756
1.97173
2.01451
1.85152
1.18404
0.999752
1
1
1
1
1
1
1
1
1
1
1
1
1
1
1
1
1
1
1
1
1
1
1
1.83464
1.87324
1.94075
1.98066
2.01069
1.55125
1.01061
1
1
1
1
1
1
1
1
1
1
1
1
1
1
1
1
1
1
1
1
1
1
1
1.83448
1.86508
1.91896
1.97391
2.01849
1.86074
1.20459
0.999719
1
1
1
1
1
1
1
1
1
1
1
1
1
1
1
1
1
1
1
1
1
1
1.83852
1.86552
1.90754
1.96877
2.00819
1.93667
1.50055
1.00679
1
1
1
1
1
1
1
1
1
1
1
1
1
1
1
1
1
1
1
1
1
1
1.84481
1.8685
1.90946
1.96158
1.99411
1.96081
1.73399
1.11229
0.999858
1
1
1
1
1
1
1
1
1
1
1
1
1
1
1
1
1
1
1
1
1
1.85151
1.8734
1.91293
1.9566
1.97949
1.96397
1.89066
1.3949
1.00027
1
1
1
1
1
1
1
1
1
1
1
1
1
1
1
1
1
1
1
1
1
1.85826
1.8783
1.91452
1.95383
1.96883
1.96098
1.9226
1.64838
1.06217
1
1
1
1
1
1
1
1
1
1
1
1
1
1
1
1
1
1
1
1
1
1.86474
1.88282
1.91634
1.95365
1.9642
1.96197
1.93628
1.79162
1.2472
0.999642
1
1
1
1
1
1
1
1
1
1
1
1
1
1
1
1
1
1
1
1
1.87036
1.88695
1.91783
1.9549
1.96687
1.9631
1.94706
1.88851
1.51588
1.01463
1
1
1
1
1
1
1
1
1
1
1
1
1
1
1
1
1
1
1
1
1.87578
1.89082
1.91869
1.95593
1.97067
1.9648
1.95094
1.92154
1.72367
1.14014
0.999853
1
1
1
1
1
1
1
1
1
1
1
1
1
1
1
1
1
1
1
1.88137
1.89364
1.92004
1.95743
1.97321
1.96835
1.95343
1.92582
1.82355
1.35707
1.00036
1
1
1
1
1
1
1
1
1
1
1
1
1
1
1
1
1
1
1
1.88516
1.89434
1.92149
1.95687
1.97424
1.97097
1.95786
1.93285
1.88626
1.58833
1.03841
1
1
1
1
1
1
1
1
1
1
1
1
1
1
1
1
1
1
1
1.88571
1.89431
1.92233
1.95598
1.97391
1.9729
1.95999
1.93742
1.91514
1.77747
1.21547
0.999672
1
1
1
1
1
1
1
1
1
1
1
1
1
1
1
1
1
1
1.88538
1.89427
1.92248
1.95515
1.97332
1.97392
1.96231
1.94149
1.92612
1.85101
1.46026
1.00717
1
1
1
1
1
1
1
1
1
1
1
1
1
1
1
1
1
1
1.88441
1.89405
1.92234
1.95436
1.97283
1.97393
1.96454
1.94552
1.92803
1.8898
1.65616
1.07989
1
1
1
1
1
1
1
1
1
1
1
1
1
1
1
1
1
1
1.88331
1.89378
1.9219
1.95249
1.97081
1.97268
1.96437
1.94544
1.93036
1.91246
1.81735
1.29047
0.999632
1
1
1
1
1
1
1
1
1
1
1
1
1
1
1
1
1
1.88292
1.89334
1.9205
1.94953
1.96747
1.96994
1.96309
1.94405
1.92761
1.92132
1.88162
1.55753
1.02296
1
1
1
1
1
1
1
1
1
1
1
1
1
1
1
1
1
1.88326
1.89323
1.91879
1.94646
1.96381
1.9666
1.9613
1.94353
1.92682
1.9201
1.89641
1.71709
1.13735
0.999805
1
1
1
1
1
1
1
1
1
1
1
1
1
1
1
1
1.88401
1.89323
1.91709
1.94384
1.96078
1.96354
1.95898
1.94238
1.92499
1.91454
1.9002
1.8295
1.34459
1.00091
1
1
1
1
1
1
1
1
1
1
1
1
1
1
1
1
1.88411
1.89294
1.91517
1.94109
1.95752
1.96013
1.9561
1.94018
1.92136
1.9106
1.90191
1.88862
1.59424
1.03577
1
1
1
1
1
1
1
1
1
1
1
1
1
1
1
1
1.88355
1.89202
1.91285
1.93779
1.95396
1.95631
1.95281
1.93776
1.91776
1.90581
1.90125
1.88759
1.73516
1.17201
0.999746
1
1
1
1
1
1
1
1
1
1
1
1
1
1
1
1.88187
1.89021
1.91022
1.93404
1.95005
1.95227
1.94891
1.93504
1.91471
1.90188
1.89824
1.88645
1.81692
1.35791
1.00174
1
1
1
1
1
1
1
1
1
1
1
1
1
1
1
1.87963
1.88748
1.90723
1.92981
1.94549
1.94771
1.9445
1.93192
1.91237
1.89922
1.89309
1.88324
1.87532
1.5758
1.03414
1
1
1
1
1
1
1
1
1
1
1
1
1
1
1
1.8775
1.88415
1.90366
1.92517
1.94058
1.94352
1.94034
1.92919
1.91025
1.89619
1.88885
1.88156
1.87945
1.71008
1.15136
0.999777
1
1
1
1
1
1
1
1
1
1
1
1
1
1
1.87536
1.8808
1.8998
1.92044
1.9357
1.94004
1.93647
1.92674
1.90887
1.89393
1.8848
1.8781
1.87125
1.77782
1.31815
1.00114
1
1
1
1
1
1
1
1
1
1
1
1
1
1
1.8732
1.87779
1.89614
1.91624
1.93144
1.93663
1.93314
1.92437
1.90749
1.89184
1.88114
1.87373
1.86543
1.83893
1.50191
1.01986
0.999997
1
1
1
1
1
1
1
1
1
1
1
1
1
1.87086
1.87509
1.89292
1.91263
1.92791
1.93339
1.93003
1.92166
1.90535
1.88948
1.87857
1.86969
1.86186
1.86033
1.64906
1.09739
0.999978
1
1
1
1
1
1
1
1
1
1
1
1
1
1.86893
1.87291
1.89016
1.90961
1.92467
1.93027
1.92709
1.91861
1.90239
1.88641
1.87564
1.86632
1.85849
1.85857
1.73543
1.23496
1.00011
1
1
1
1
1
1
1
1
1
1
1
1
1
1.8661
1.86918
1.88514
1.90408
1.91925
1.92651
1.9242
1.91625
1.90006
1.88357
1.87289
1.86395
1.8558
1.84831
1.78459
1.4075
1.01393
1
1
1
1
1
1
1
1
1
1
1
1
1
1.86505
1.87111
1.8885
1.90655
1.91993
1.92429
1.92065
1.91228
1.89521
1.87899
1.86872
1.86042
1.85146
1.8424
1.8215
1.51315
1.01153
0.999596
0.999998
1
1
1
1
1
1
1
1
1
1
1
1.51939
1.72061
1.80617
1.85991
1.89553
1.91284
1.91677
1.91201
1.90041
1.88258
1.86972
1.86089
1.85094
1.83938
1.83649
1.71146
1.23126
1.00699
1.00003
1
1
1
1
1
1
1
1
1
1
1
1.13022
1.50115
1.65823
1.76079
1.82659
1.87348
1.89751
1.90424
1.89854
1.88621
1.87219
1.8614
1.85215
1.83871
1.8321
1.7857
1.50968
1.06484
1.00078
1
1
1
1
1
1
1
1
1
1
1
0.871882
1.3142
1.49576
1.63135
1.7259
1.80103
1.85024
1.87869
1.88649
1.882
1.87076
1.86058
1.85159
1.84056
1.83093
1.82273
1.68558
1.23622
1.00917
1.00005
1
1
1
1
1
1
1
1
1
1
0.829474
1.18677
1.36776
1.49632
1.61974
1.70238
1.78318
1.82805
1.85772
1.86714
1.86329
1.85649
1.84869
1.84175
1.83201
1.83604
1.75961
1.44032
1.04982
1.00062
1
1
1
1
1
1
1
1
1
1
0.842373
1.04272
1.25242
1.38651
1.51469
1.61141
1.69808
1.7672
1.80836
1.83577
1.84659
1.84523
1.84164
1.83861
1.83356
1.83623
1.81648
1.66417
1.19423
1.00603
1.00003
1
1
1
1
1
1
1
1
1
0.903687
0.981505
1.12566
1.28409
1.40618
1.53063
1.60902
1.70003
1.75304
1.79206
1.81588
1.82489
1.82746
1.8299
1.83128
1.83377
1.82464
1.74711
1.4143
1.03855
1.00039
1
1
1
1
1
1
1
1
1
0.997374
0.988723
1.04047
1.19416
1.30877
1.44682
1.54371
1.6174
1.69436