/*--------------------------------*- C++ -*----------------------------------*\
  =========                 |
  \\      /  F ield         | OpenFOAM: The Open Source CFD Toolbox
   \\    /   O peration     | Website:  https://openfoam.org
    \\  /    A nd           | Version:  7
     \\/     M anipulation  |
\*---------------------------------------------------------------------------*/
FoamFile
{
    version     2.0;
    format      ascii;
    class       volVectorField;
    location    "7.2";
    object      U;
}
// * * * * * * * * * * * * * * * * * * * * * * * * * * * * * * * * * * * * * //

dimensions      [0 1 -1 0 0 0 0];

internalField   nonuniform List<vector> 
8400
(
(2.40389 -0.552651 0)
(2.42876 -0.189282 0)
(2.47037 -0.0416251 0)
(2.43695 0.228734 0)
(2.47334 0.233529 0)
(2.46909 0.339571 0)
(2.47958 0.407861 0)
(2.50127 0.372861 0)
(2.52808 0.428047 0)
(2.55547 0.435845 0)
(2.56896 0.389005 0)
(2.59866 0.342659 0)
(2.64602 0.324145 0)
(2.66802 0.271673 0)
(2.68198 0.232903 0)
(2.6886 0.177262 0)
(2.70391 0.148714 0)
(2.71946 0.123692 0)
(2.74289 0.144595 0)
(2.75183 0.176136 0)
(2.75971 0.210266 0)
(2.7685 0.227699 0)
(2.77127 0.223484 0)
(2.77107 0.203682 0)
(2.77339 0.183106 0)
(2.77663 0.150078 0)
(2.78528 0.125821 0)
(2.78764 0.0979738 0)
(2.79418 0.0988309 0)
(2.80426 0.105836 0)
(2.54567 -1.38694 0)
(2.57974 -1.39586 0)
(2.60321 -1.37968 0)
(2.59888 -1.17425 0)
(2.57972 -1.02706 0)
(2.52797 -0.776052 0)
(2.48172 -0.521644 0)
(2.48222 -0.421171 0)
(2.43242 -0.172565 0)
(2.44131 -0.0511388 0)
(2.44027 0.0375475 0)
(2.4517 0.0451933 0)
(2.4603 0.108838 0)
(2.48474 0.160444 0)
(2.4909 0.145381 0)
(2.51991 0.128945 0)
(2.53439 0.123266 0)
(2.54822 0.117581 0)
(2.56448 0.136664 0)
(2.57932 0.147371 0)
(2.59217 0.152257 0)
(2.59676 0.155452 0)
(2.59519 0.150161 0)
(2.60364 0.14191 0)
(2.61664 0.134463 0)
(2.62975 0.123036 0)
(2.64411 0.116581 0)
(2.65737 0.102736 0)
(2.66807 0.105372 0)
(2.68632 0.0938451 0)
(2.83554 -1.48261 0)
(2.88219 -1.52844 0)
(2.91783 -1.55125 0)
(2.94943 -1.58397 0)
(2.97273 -1.61065 0)
(3.01012 -1.63773 0)
(3.0215 -1.67627 0)
(3.01394 -1.6623 0)
(2.9324 -1.52778 0)
(2.82529 -1.26234 0)
(2.71782 -0.958854 0)
(2.60866 -0.668963 0)
(2.5177 -0.38994 0)
(2.47773 -0.13754 0)
(2.39791 0.129363 0)
(2.4027 0.175447 0)
(2.38003 0.290688 0)
(2.39845 0.296409 0)
(2.41211 0.25958 0)
(2.43536 0.19448 0)
(2.47088 0.148516 0)
(2.49041 0.10925 0)
(2.50126 0.0893103 0)
(2.50787 0.108763 0)
(2.51317 0.126338 0)
(2.52351 0.126206 0)
(2.53254 0.141707 0)
(2.55841 0.134983 0)
(2.56773 0.111689 0)
(2.59014 0.089861 0)
(2.99356 -1.64578 0)
(3.00754 -1.66724 0)
(3.01512 -1.67485 0)
(3.04176 -1.6969 0)
(3.05689 -1.70911 0)
(3.07087 -1.72862 0)
(3.06944 -1.7434 0)
(3.06736 -1.74433 0)
(3.06085 -1.74652 0)
(3.06189 -1.73546 0)
(3.06974 -1.7218 0)
(3.06915 -1.72781 0)
(3.0219 -1.62403 0)
(2.91846 -1.40035 0)
(2.80547 -1.03169 0)
(2.7254 -0.751937 0)
(2.60772 -0.382799 0)
(2.55678 -0.13391 0)
(2.54885 -0.0103094 0)
(2.51133 0.0708902 0)
(2.50366 0.110429 0)
(2.50808 0.103101 0)
(2.51953 0.105808 0)
(2.52928 0.103074 0)
(2.5214 0.0885075 0)
(2.51767 0.0813724 0)
(2.51763 0.0978822 0)
(2.5305 0.108433 0)
(2.53463 0.0954225 0)
(2.55795 0.0773669 0)
(3.05112 -1.73951 0)
(3.05174 -1.73988 0)
(3.05513 -1.7416 0)
(3.06559 -1.74717 0)
(3.06886 -1.74902 0)
(3.0751 -1.75332 0)
(3.0742 -1.75177 0)
(3.06982 -1.74835 0)
(3.06372 -1.74345 0)
(3.05796 -1.7284 0)
(3.06773 -1.70264 0)
(3.07377 -1.6813 0)
(3.06147 -1.70498 0)
(3.06436 -1.67885 0)
(3.06449 -1.65238 0)
(3.07313 -1.62633 0)
(3.03135 -1.52325 0)
(2.93135 -1.22847 0)
(2.81146 -0.776957 0)
(2.7194 -0.403913 0)
(2.62664 -0.0983988 0)
(2.62148 -0.00381766 0)
(2.59172 0.100473 0)
(2.56765 0.101287 0)
(2.55968 0.0729975 0)
(2.57749 0.0865453 0)
(2.5798 0.089744 0)
(2.57786 0.087705 0)
(2.55589 0.0542863 0)
(2.58837 0.0395113 0)
(3.06542 -1.75272 0)
(3.07008 -1.75095 0)
(3.0771 -1.74878 0)
(3.08461 -1.7347 0)
(3.08659 -1.72505 0)
(3.09027 -1.69812 0)
(3.08626 -1.68271 0)
(3.06848 -1.67429 0)
(3.05915 -1.64124 0)
(3.05473 -1.61364 0)
(3.07714 -1.57068 0)
(3.09271 -1.55941 0)
(3.07886 -1.59195 0)
(3.07397 -1.60853 0)
(3.06923 -1.56045 0)
(3.08408 -1.52529 0)
(3.08887 -1.52827 0)
(3.09754 -1.53201 0)
(3.10065 -1.50825 0)
(3.07151 -1.42191 0)
(2.98494 -1.13617 0)
(2.89086 -0.770621 0)
(2.83816 -0.458928 0)
(2.78323 -0.250027 0)
(2.77969 -0.0893996 0)
(2.71104 0.0633675 0)
(2.66806 0.0730752 0)
(2.65083 0.0975313 0)
(2.66144 0.116965 0)
(2.67274 0.1036 0)
(3.06985 -1.63652 0)
(3.07359 -1.61502 0)
(3.0827 -1.60012 0)
(3.0927 -1.57396 0)
(3.10259 -1.54691 0)
(3.11071 -1.53024 0)
(3.1068 -1.52847 0)
(3.08141 -1.56065 0)
(3.07791 -1.58143 0)
(3.07024 -1.55181 0)
(3.08754 -1.51342 0)
(3.11613 -1.48831 0)
(3.118 -1.49659 0)
(3.11319 -1.50737 0)
(3.09667 -1.48987 0)
(3.09099 -1.47734 0)
(3.10266 -1.43947 0)
(3.1124 -1.42706 0)
(3.12302 -1.39008 0)
(3.11846 -1.38126 0)
(3.11184 -1.36016 0)
(3.10789 -1.36659 0)
(3.09726 -1.31143 0)
(3.05396 -1.07443 0)
(3.02585 -0.807486 0)
(2.93825 -0.4847 0)
(2.93308 -0.312336 0)
(2.84125 -0.0716299 0)
(2.82068 0.0109517 0)
(2.76005 0.0865387 0)
(3.07952 -1.56847 0)
(3.07983 -1.55386 0)
(3.08548 -1.54607 0)
(3.09564 -1.5353 0)
(3.10027 -1.51593 0)
(3.11118 -1.50418 0)
(3.11355 -1.50353 0)
(3.10495 -1.5139 0)
(3.09336 -1.5073 0)
(3.08617 -1.46503 0)
(3.09813 -1.43988 0)
(3.12421 -1.4019 0)
(3.14487 -1.37763 0)
(3.14816 -1.37964 0)
(3.13441 -1.34739 0)
(3.12198 -1.32299 0)
(3.11505 -1.31613 0)
(3.11628 -1.31172 0)
(3.12253 -1.29464 0)
(3.12012 -1.30144 0)
(3.1189 -1.28672 0)
(3.12351 -1.2799 0)
(3.13004 -1.25069 0)
(3.13327 -1.24667 0)
(3.13522 -1.23278 0)
(3.12154 -1.19311 0)
(3.09837 -1.02358 0)
(3.04484 -0.698041 0)
(3.03479 -0.564197 0)
(2.91798 -0.191759 0)
(3.12057 -1.42753 0)
(3.11927 -1.42165 0)
(3.12357 -1.38754 0)
(3.13741 -1.34881 0)
(3.13804 -1.33536 0)
(3.15104 -1.30798 0)
(3.15904 -1.29652 0)
(3.15029 -1.30035 0)
(3.12606 -1.32231 0)
(3.10779 -1.34456 0)
(3.11263 -1.31172 0)
(3.13703 -1.27279 0)
(3.15183 -1.26328 0)
(3.14511 -1.27603 0)
(3.13144 -1.26641 0)
(3.12368 -1.24072 0)
(3.11982 -1.24234 0)
(3.12424 -1.24508 0)
(3.13259 -1.23186 0)
(3.13521 -1.22377 0)
(3.13733 -1.20879 0)
(3.1425 -1.1911 0)
(3.1402 -1.17013 0)
(3.13479 -1.15061 0)
(3.13353 -1.13238 0)
(3.1278 -1.13894 0)
(3.12607 -1.13124 0)
(3.12839 -1.1326 0)
(3.12863 -1.10633 0)
(3.07287 -0.761991 0)
(3.16035 -1.27088 0)
(3.14813 -1.27688 0)
(3.13823 -1.27226 0)
(3.13497 -1.23985 0)
(3.14275 -1.22257 0)
(3.14607 -1.21637 0)
(3.15633 -1.20453 0)
(3.15654 -1.2032 0)
(3.14611 -1.21235 0)
(3.12899 -1.21743 0)
(3.12272 -1.19783 0)
(3.14017 -1.1789 0)
(3.15003 -1.18062 0)
(3.1475 -1.18845 0)
(3.13956 -1.18665 0)
(3.13236 -1.18137 0)
(3.1323 -1.16299 0)
(3.14678 -1.13209 0)
(3.15535 -1.11863 0)
(3.14813 -1.10241 0)
(3.14722 -1.08088 0)
(3.14586 -1.06637 0)
(3.13884 -1.06332 0)
(3.12697 -1.08341 0)
(3.12701 -1.0738 0)
(3.13069 -1.07913 0)
(3.13516 -1.06694 0)
(3.13729 -1.05438 0)
(3.13999 -1.03269 0)
(3.13857 -1.02533 0)
(3.1725 -1.12384 0)
(3.16734 -1.12854 0)
(3.15566 -1.13816 0)
(3.14247 -1.11175 0)
(3.14682 -1.08731 0)
(3.14895 -1.07671 0)
(3.15913 -1.06755 0)
(3.16383 -1.07053 0)
(3.16 -1.07514 0)
(3.14884 -1.08911 0)
(3.13539 -1.07726 0)
(3.14753 -1.049 0)
(3.1576 -1.03953 0)
(3.16599 -1.03036 0)
(3.16446 -1.02229 0)
(3.15509 -1.01539 0)
(3.14579 -1.00048 0)
(3.14599 -0.990926 0)
(3.1465 -0.994304 0)
(3.1458 -0.997704 0)
(3.13928 -1.00806 0)
(3.13866 -1.00044 0)
(3.13606 -1.00883 0)
(3.1391 -1.0014 0)
(3.14286 -0.993608 0)
(3.14511 -0.979393 0)
(3.14426 -0.970777 0)
(3.14295 -0.951389 0)
(3.13935 -0.951215 0)
(3.13113 -0.954624 0)
(3.17374 -0.944169 0)
(3.17604 -0.953385 0)
(3.16855 -0.967781 0)
(3.15695 -0.981168 0)
(3.148 -0.962137 0)
(3.1535 -0.941407 0)
(3.15662 -0.929421 0)
(3.1674 -0.920851 0)
(3.16684 -0.925215 0)
(3.16079 -0.928077 0)
(3.14607 -0.932518 0)
(3.14073 -0.934037 0)
(3.1474 -0.927961 0)
(3.15402 -0.924949 0)
(3.15638 -0.925303 0)
(3.14792 -0.931673 0)
(3.14086 -0.931981 0)
(3.13918 -0.931313 0)
(3.13969 -0.930414 0)
(3.14203 -0.925243 0)
(3.14303 -0.922996 0)
(3.14476 -0.91685 0)
(3.14454 -0.910026 0)
(3.14829 -0.892375 0)
(3.14898 -0.885452 0)
(3.1446 -0.877226 0)
(3.13793 -0.876441 0)
(3.13337 -0.88098 0)
(3.1289 -0.89022 0)
(3.1305 -0.89031 0)
(3.16725 -0.774172 0)
(3.16666 -0.786396 0)
(3.16589 -0.787172 0)
(3.1587 -0.795916 0)
(3.1491 -0.814488 0)
(3.14261 -0.807913 0)
(3.1469 -0.792315 0)
(3.1514 -0.78124 0)
(3.16263 -0.777959 0)
(3.15978 -0.794525 0)
(3.15267 -0.799635 0)
(3.1406 -0.795811 0)
(3.13966 -0.793824 0)
(3.14404 -0.793876 0)
(3.15168 -0.79532 0)
(3.15129 -0.794271 0)
(3.14834 -0.792998 0)
(3.14366 -0.790083 0)
(3.14273 -0.783019 0)
(3.14253 -0.78133 0)
(3.14326 -0.780623 0)
(3.14172 -0.780872 0)
(3.13979 -0.782661 0)
(3.13676 -0.787854 0)
(3.13431 -0.796649 0)
(3.13272 -0.806224 0)
(3.1312 -0.813859 0)
(3.13043 -0.821021 0)
(3.13193 -0.821087 0)
(3.13573 -0.818226 0)
(3.12889 -0.58447 0)
(3.13546 -0.584873 0)
(3.15056 -0.608109 0)
(3.14696 -0.628808 0)
(3.14139 -0.638942 0)
(3.13323 -0.648127 0)
(3.12673 -0.649422 0)
(3.1289 -0.644946 0)
(3.13503 -0.636278 0)
(3.14849 -0.633359 0)
(3.14411 -0.646934 0)
(3.1361 -0.658104 0)
(3.12936 -0.664247 0)
(3.12869 -0.662552 0)
(3.13463 -0.665723 0)
(3.13759 -0.670202 0)
(3.13638 -0.677921 0)
(3.1339 -0.681522 0)
(3.13211 -0.689356 0)
(3.12978 -0.696375 0)
(3.13129 -0.702633 0)
(3.13085 -0.70847 0)
(3.13045 -0.713236 0)
(3.13047 -0.723011 0)
(3.13053 -0.726617 0)
(3.13038 -0.731755 0)
(3.13276 -0.729318 0)
(3.13319 -0.731176 0)
(3.13643 -0.722919 0)
(3.13321 -0.71976 0)
(3.10019 -0.466858 0)
(3.10529 -0.461677 0)
(3.11027 -0.444759 0)
(3.1166 -0.433079 0)
(3.12771 -0.451758 0)
(3.11587 -0.471389 0)
(3.10922 -0.48801 0)
(3.10384 -0.504509 0)
(3.10098 -0.510275 0)
(3.11238 -0.503922 0)
(3.12615 -0.496457 0)
(3.12943 -0.508543 0)
(3.12105 -0.528747 0)
(3.11222 -0.533313 0)
(3.11106 -0.534986 0)
(3.11939 -0.546101 0)
(3.12072 -0.551499 0)
(3.12127 -0.555383 0)
(3.12218 -0.564199 0)
(3.12036 -0.568423 0)
(3.11954 -0.579466 0)
(3.12131 -0.585162 0)
(3.12378 -0.58703 0)
(3.12408 -0.591903 0)
(3.12292 -0.597219 0)
(3.12247 -0.600011 0)
(3.12258 -0.607408 0)
(3.12003 -0.615909 0)
(3.12231 -0.629542 0)
(3.12219 -0.652349 0)
(3.07065 -0.318201 0)
(3.06507 -0.321601 0)
(3.06551 -0.321375 0)
(3.07627 -0.310259 0)
(3.09039 -0.294178 0)
(3.09936 -0.303141 0)
(3.08609 -0.32534 0)
(3.08199 -0.342198 0)
(3.07526 -0.364351 0)
(3.07652 -0.36942 0)
(3.0928 -0.360674 0)
(3.10483 -0.36764 0)
(3.10237 -0.387628 0)
(3.09396 -0.397387 0)
(3.0897 -0.39611 0)
(3.09798 -0.418304 0)
(3.10025 -0.427739 0)
(3.10186 -0.43203 0)
(3.10517 -0.44397 0)
(3.10567 -0.455767 0)
(3.10368 -0.463514 0)
(3.10652 -0.481546 0)
(3.10805 -0.486252 0)
(3.11027 -0.499814 0)
(3.11126 -0.519878 0)
(3.1103 -0.526559 0)
(3.11237 -0.541347 0)
(3.11347 -0.55521 0)
(3.11443 -0.568649 0)
(3.11755 -0.578131 0)
(3.03872 -0.162639 0)
(3.02976 -0.174043 0)
(3.02471 -0.176531 0)
(3.03043 -0.168389 0)
(3.0425 -0.151709 0)
(3.05864 -0.146587 0)
(3.05773 -0.166704 0)
(3.05134 -0.190508 0)
(3.04826 -0.221372 0)
(3.04361 -0.233913 0)
(3.05685 -0.22797 0)
(3.07072 -0.228896 0)
(3.07362 -0.249744 0)
(3.06735 -0.262439 0)
(3.06479 -0.266356 0)
(3.07131 -0.287281 0)
(3.07434 -0.305327 0)
(3.07612 -0.310895 0)
(3.08123 -0.323763 0)
(3.08419 -0.33675 0)
(3.08445 -0.351757 0)
(3.08581 -0.365993 0)
(3.089 -0.380403 0)
(3.09206 -0.391246 0)
(3.09356 -0.402888 0)
(3.09516 -0.420742 0)
(3.09679 -0.429488 0)
(3.09906 -0.44308 0)
(3.10037 -0.451111 0)
(3.10262 -0.468007 0)
(2.99663 0.0112803 0)
(2.99294 -0.0179829 0)
(2.98293 -0.0337497 0)
(2.98069 -0.0367752 0)
(2.98983 -0.0262006 0)
(3.00623 -0.0148785 0)
(3.01492 -0.020008 0)
(3.0107 -0.0440777 0)
(3.01026 -0.076344 0)
(3.00312 -0.0957086 0)
(3.01188 -0.0919671 0)
(3.0283 -0.0955663 0)
(3.0355 -0.123029 0)
(3.0311 -0.132557 0)
(3.03 -0.13547 0)
(3.03849 -0.161388 0)
(3.04062 -0.181035 0)
(3.0426 -0.189763 0)
(3.04974 -0.204703 0)
(3.05534 -0.218936 0)
(3.05779 -0.23652 0)
(3.05924 -0.251026 0)
(3.06389 -0.270015 0)
(3.06784 -0.283665 0)
(3.07177 -0.302392 0)
(3.07415 -0.315996 0)
(3.07779 -0.3349 0)
(3.0809 -0.350042 0)
(3.08353 -0.365651 0)
(3.08803 -0.39422 0)
(2.93175 0.15959 0)
(2.93369 0.135163 0)
(2.92976 0.115655 0)
(2.92549 0.105234 0)
(2.92921 0.108938 0)
(2.94016 0.121271 0)
(2.95101 0.121521 0)
(2.96308 0.0950056 0)
(2.9644 0.0554726 0)
(2.95616 0.034719 0)
(2.96155 0.0396313 0)
(2.97233 0.036465 0)
(2.98523 0.00627463 0)
(2.98487 -0.00624483 0)
(2.98844 -0.0134872 0)
(2.99828 -0.0368429 0)
(3.00067 -0.0563128 0)
(3.00373 -0.0719355 0)
(3.01111 -0.0872262 0)
(3.01874 -0.102426 0)
(3.02427 -0.120777 0)
(3.02832 -0.140481 0)
(3.0328 -0.157659 0)
(3.03834 -0.175549 0)
(3.04385 -0.194738 0)
(3.0485 -0.21297 0)
(3.05318 -0.232327 0)
(3.05746 -0.249922 0)
(3.06177 -0.268318 0)
(3.06772 -0.294555 0)
(2.85847 0.293305 0)
(2.86092 0.285937 0)
(2.85939 0.285858 0)
(2.86652 0.267664 0)
(2.87049 0.249765 0)
(2.87479 0.250917 0)
(2.88589 0.243581 0)
(2.89671 0.223556 0)
(2.90146 0.195557 0)
(2.90199 0.181526 0)
(2.90194 0.186057 0)
(2.91844 0.163209 0)
(2.93014 0.126064 0)
(2.93161 0.123503 0)
(2.9396 0.112943 0)
(2.95104 0.0880178 0)
(2.95587 0.065742 0)
(2.95978 0.0503032 0)
(2.96894 0.0303264 0)
(2.97848 0.0105312 0)
(2.98551 -0.00714666 0)
(2.99189 -0.0277022 0)
(2.99815 -0.04839 0)
(3.00533 -0.0693836 0)
(3.01249 -0.0900043 0)
(3.01848 -0.107948 0)
(3.02536 -0.131172 0)
(3.03148 -0.153402 0)
(3.03666 -0.171608 0)
(3.04567 -0.204483 0)
(2.81767 0.371746 0)
(2.81868 0.368899 0)
(2.82111 0.365302 0)
(2.82472 0.358327 0)
(2.82637 0.355637 0)
(2.82793 0.355805 0)
(2.83374 0.350235 0)
(2.83838 0.34339 0)
(2.84379 0.331313 0)
(2.84958 0.315681 0)
(2.85538 0.303175 0)
(2.86411 0.288866 0)
(2.87076 0.274199 0)
(2.87668 0.258123 0)
(2.88621 0.237755 0)
(2.89676 0.215828 0)
(2.90526 0.19557 0)
(2.91365 0.174577 0)
(2.92376 0.151048 0)
(2.93211 0.132987 0)
(2.94353 0.105691 0)
(2.95177 0.0833228 0)
(2.96026 0.0604837 0)
(2.96915 0.0386336 0)
(2.97889 0.0133968 0)
(2.98679 -0.00829267 0)
(2.99493 -0.0316351 0)
(3.00272 -0.0549333 0)
(3.0101 -0.077852 0)
(3.02123 -0.112798 0)
(2.82044 0.365879 0)
(2.82073 0.365483 0)
(2.82128 0.366818 0)
(2.82111 0.371348 0)
(2.82148 0.375708 0)
(2.82064 0.377904 0)
(2.82058 0.377819 0)
(2.82018 0.376036 0)
(2.82174 0.369421 0)
(2.8234 0.363276 0)
(2.82477 0.36132 0)
(2.8272 0.361816 0)
(2.8304 0.361865 0)
(2.83599 0.354208 0)
(2.84166 0.341111 0)
(2.84648 0.33131 0)
(2.85427 0.317918 0)
(2.86349 0.299403 0)
(2.87267 0.279025 0)
(2.88338 0.25637 0)
(2.89464 0.232413 0)
(2.90526 0.207121 0)
(2.91728 0.177195 0)
(2.92808 0.151538 0)
(2.93997 0.123866 0)
(2.95072 0.0971042 0)
(2.96147 0.0684548 0)
(2.97115 0.0427798 0)
(2.9805 0.0178076 0)
(2.99452 -0.0214652 0)
(2.85364 0.309119 0)
(2.85414 0.310262 0)
(2.84399 0.32301 0)
(2.84137 0.334696 0)
(2.84266 0.341901 0)
(2.83716 0.355239 0)
(2.8383 0.366207 0)
(2.8345 0.363801 0)
(2.83005 0.354828 0)
(2.82913 0.352481 0)
(2.82928 0.354491 0)
(2.8301 0.362376 0)
(2.83247 0.366514 0)
(2.83209 0.36554 0)
(2.83172 0.361474 0)
(2.83179 0.358416 0)
(2.83334 0.357864 0)
(2.83567 0.356693 0)
(2.83918 0.352766 0)
(2.84398 0.345909 0)
(2.85066 0.334131 0)
(2.85849 0.31801 0)
(2.86837 0.297165 0)
(2.87993 0.27319 0)
(2.89371 0.244458 0)
(2.90627 0.216103 0)
(2.92032 0.18208 0)
(2.93303 0.150309 0)
(2.94518 0.120297 0)
(2.96318 0.0742698 0)
(2.93115 0.160059 0)
(2.92718 0.159443 0)
(2.92584 0.161628 0)
(2.90692 0.195864 0)
(2.90363 0.219967 0)
(2.90458 0.220194 0)
(2.89352 0.243766 0)
(2.88896 0.253408 0)
(2.88597 0.253638 0)
(2.87007 0.276462 0)
(2.86739 0.286501 0)
(2.8585 0.308537 0)
(2.85435 0.323146 0)
(2.85304 0.323674 0)
(2.8499 0.328914 0)
(2.8422 0.34138 0)
(2.8403 0.345109 0)
(2.83903 0.347395 0)
(2.8405 0.349329 0)
(2.84087 0.349149 0)
(2.84124 0.348522 0)
(2.84175 0.347148 0)
(2.84374 0.343855 0)
(2.84731 0.339474 0)
(2.85342 0.330952 0)
(2.86186 0.316825 0)
(2.87331 0.29475 0)
(2.88588 0.267772 0)
(2.8999 0.236842 0)
(2.92239 0.184297 0)
(2.99053 0.0215683 0)
(2.98872 0.0250185 0)
(2.98596 0.0297956 0)
(2.98301 0.0345537 0)
(2.97943 0.0434556 0)
(2.97699 0.049843 0)
(2.97257 0.0594624 0)
(2.96724 0.0723215 0)
(2.9623 0.0818588 0)
(2.95316 0.0985521 0)
(2.94671 0.111113 0)
(2.93431 0.137998 0)
(2.92821 0.153335 0)
(2.91538 0.183401 0)
(2.9094 0.195587 0)
(2.89568 0.22292 0)
(2.8824 0.254221 0)
(2.87993 0.260784 0)
(2.86373 0.295068 0)
(2.86092 0.302827 0)
(2.85448 0.315497 0)
(2.8491 0.328252 0)
(2.8474 0.331423 0)
(2.84694 0.335897 0)
(2.84721 0.335961 0)
(2.84798 0.335176 0)
(2.84988 0.332869 0)
(2.8537 0.32811 0)
(2.85976 0.319264 0)
(2.87676 0.288356 0)
(2.99972 0.000596637 0)
(2.99964 0.00075694 0)
(2.99953 0.000942053 0)
(2.99934 0.00126552 0)
(2.99911 0.00170311 0)
(2.99881 0.00234492 0)
(2.99847 0.0029866 0)
(2.99783 0.00436665 0)
(2.9972 0.00550063 0)
(2.99586 0.00805832 0)
(2.99438 0.0105924 0)
(2.99179 0.0156984 0)
(2.98906 0.0214294 0)
(2.98521 0.0291324 0)
(2.97966 0.0404839 0)
(2.97307 0.0530258 0)
(2.96266 0.0755825 0)
(2.95534 0.0909172 0)
(2.93911 0.124517 0)
(2.9283 0.148584 0)
(2.91425 0.178683 0)
(2.89587 0.221172 0)
(2.89157 0.23338 0)
(2.87093 0.275787 0)
(2.86411 0.29236 0)
(2.86105 0.30081 0)
(2.8526 0.319718 0)
(2.8515 0.325136 0)
(2.853 0.322771 0)
(2.85566 0.31989 0)
(3 5.12198e-06 0)
(3 6.57545e-06 0)
(3 8.63676e-06 0)
(2.99999 1.16652e-05 0)
(2.99999 1.68194e-05 0)
(2.99999 2.37178e-05 0)
(2.99998 3.54161e-05 0)
(2.99997 5.12059e-05 0)
(2.99996 8.13227e-05 0)
(2.99993 0.000118637 0)
(2.99988 0.000204059 0)
(2.99982 0.000320314 0)
(2.99969 0.000556674 0)
(2.9995 0.000903591 0)
(2.99916 0.00150783 0)
(2.99853 0.00266623 0)
(2.99759 0.00437542 0)
(2.99589 0.00772803 0)
(2.99338 0.0122021 0)
(2.98906 0.0208434 0)
(2.98303 0.0326331 0)
(2.97457 0.0493312 0)
(2.96249 0.0753446 0)
(2.94876 0.102802 0)
(2.93207 0.138675 0)
(2.9131 0.180714 0)
(2.89836 0.213101 0)
(2.88201 0.249252 0)
(2.87079 0.276161 0)
(2.86177 0.299425 0)
(3 2.74195e-08 0)
(3 3.44709e-08 0)
(3 4.61494e-08 0)
(3 6.23014e-08 0)
(3 8.74968e-08 0)
(3 1.27031e-07 0)
(3 1.83224e-07 0)
(3 2.8628e-07 0)
(3 4.31542e-07 0)
(3 7.21751e-07 0)
(3 1.17461e-06 0)
(3 2.15132e-06 0)
(3 3.76502e-06 0)
(3 7.11204e-06 0)
(2.99999 1.33636e-05 0)
(2.99998 2.69002e-05 0)
(2.99997 5.55628e-05 0)
(2.99993 0.000114408 0)
(2.99986 0.000245475 0)
(2.9997 0.000527175 0)
(2.99937 0.00110808 0)
(2.99867 0.00241696 0)
(2.99737 0.00477794 0)
(2.99471 0.0098906 0)
(2.99027 0.0183269 0)
(2.9825 0.033683 0)
(2.97165 0.0554808 0)
(2.95494 0.0900454 0)
(2.93874 0.124284 0)
(2.90812 0.191528 0)
(3 1.18512e-10 0)
(3 1.52468e-10 0)
(3 2.02702e-10 0)
(3 2.77105e-10 0)
(3 3.8757e-10 0)
(3 5.51939e-10 0)
(3 8.11924e-10 0)
(3 1.21269e-09 0)
(3 1.90671e-09 0)
(3 3.0209e-09 0)
(3 5.17672e-09 0)
(3 8.94686e-09 0)
(3 1.65578e-08 0)
(3 3.07807e-08 0)
(3 6.1068e-08 0)
(3 1.27438e-07 0)
(3 2.76185e-07 0)
(3 6.31634e-07 0)
(3 1.48052e-06 0)
(3 3.69456e-06 0)
(2.99999 9.3104e-06 0)
(2.99999 2.46346e-05 0)
(2.99996 6.5607e-05 0)
(2.9999 0.00017878 0)
(2.99973 0.000473006 0)
(2.99929 0.00127425 0)
(2.9983 0.0030924 0)
(2.99584 0.00777095 0)
(2.99188 0.0153894 0)
(2.97591 0.0482492 0)
(3 3.94872e-13 0)
(3 5.09758e-13 0)
(3 6.89704e-13 0)
(3 9.45459e-13 0)
(3 1.34186e-12 0)
(3 1.91261e-12 0)
(3 2.81238e-12 0)
(3 4.20884e-12 0)
(3 6.54769e-12 0)
(3 1.04229e-11 0)
(3 1.74643e-11 0)
(3 3.00936e-11 0)
(3 5.48427e-11 0)
(3 1.01759e-10 0)
(3 2.02656e-10 0)
(3 4.20602e-10 0)
(3 9.35251e-10 0)
(3 2.13684e-09 0)
(3 5.2776e-09 0)
(3 1.33412e-08 0)
(3 3.63826e-08 0)
(3 1.00865e-07 0)
(3 3.0509e-07 0)
(3 9.20386e-07 0)
(3 3.02761e-06 0)
(2.99999 9.75211e-06 0)
(2.99997 3.34021e-05 0)
(2.99991 0.00011241 0)
(2.99974 0.000333572 0)
(2.99797 0.00248902 0)
(2.41195 -1.3175 0)
(2.51142 -1.38016 0)
(2.77001 -1.43431 0)
(2.96011 -1.60266 0)
(3.04382 -1.73237 0)
(3.06252 -1.75935 0)
(3.07127 -1.65369 0)
(3.08437 -1.57888 0)
(3.12753 -1.44171 0)
(3.16197 -1.27685 0)
(3.17346 -1.12273 0)
(3.17071 -0.931683 0)
(3.1465 -0.735404 0)
(3.12585 -0.605786 0)
(3.09599 -0.465734 0)
(3.07694 -0.285094 0)
(3.04101 -0.116607 0)
(2.97615 0.0522612 0)
(2.90746 0.200013 0)
(2.84654 0.316812 0)
(2.81606 0.376769 0)
(2.81992 0.367097 0)
(2.85679 0.312819 0)
(2.93961 0.141197 0)
(2.99285 0.0166611 0)
(2.99979 0.00047087 0)
(3 4.26859e-06 0)
(3 2.25199e-08 0)
(3 9.70215e-11 0)
(3 3.19115e-13 0)
(2.40909 -1.29985 0)
(2.54337 -1.38897 0)
(2.7853 -1.44275 0)
(2.93333 -1.61448 0)
(3.04511 -1.72645 0)
(3.065 -1.75749 0)
(3.07977 -1.64465 0)
(3.09909 -1.55831 0)
(3.14639 -1.40664 0)
(3.17023 -1.20078 0)
(3.15639 -1.0106 0)
(3.14559 -0.835808 0)
(3.14058 -0.730809 0)
(3.12511 -0.598106 0)
(3.10841 -0.410177 0)
(3.06035 -0.205294 0)
(3.00909 -0.041988 0)
(2.95299 0.099404 0)
(2.8884 0.233437 0)
(2.83111 0.341714 0)
(2.81361 0.382719 0)
(2.82083 0.370218 0)
(2.86785 0.296175 0)
(2.95487 0.106438 0)
(2.99579 0.00987048 0)
(2.99992 0.000183088 0)
(3 1.3645e-06 0)
(3 7.61602e-09 0)
(3 3.63435e-11 0)
(3 1.25073e-13 0)
(2.40867 -1.30276 0)
(2.55166 -1.3916 0)
(2.78099 -1.44081 0)
(2.92108 -1.59411 0)
(3.04936 -1.71368 0)
(3.06801 -1.75937 0)
(3.09679 -1.61115 0)
(3.111 -1.51224 0)
(3.1398 -1.31636 0)
(3.14239 -1.13411 0)
(3.14078 -1.00792 0)
(3.14718 -0.880548 0)
(3.13752 -0.753555 0)
(3.13452 -0.56096 0)
(3.08572 -0.324168 0)
(3.04133 -0.171615 0)
(2.99401 -0.0291467 0)
(2.94133 0.0990645 0)
(2.87836 0.239182 0)
(2.82366 0.352649 0)
(2.81349 0.383653 0)
(2.82489 0.37472 0)
(2.88329 0.263353 0)
(2.96527 0.0810359 0)
(2.99754 0.00566434 0)
(2.99996 8.87738e-05 0)
(3 6.13055e-07 0)
(3 3.32621e-09 0)
(3 1.54989e-11 0)
(3 5.11553e-14 0)
(2.4068 -1.30414 0)
(2.55778 -1.39621 0)
(2.78582 -1.45409 0)
(2.91501 -1.59336 0)
(3.05953 -1.70217 0)
(3.07431 -1.77583 0)
(3.09987 -1.55895 0)
(3.10879 -1.50373 0)
(3.13521 -1.2899 0)
(3.14945 -1.16581 0)
(3.14336 -1.04124 0)
(3.15036 -0.898261 0)
(3.16365 -0.701191 0)
(3.11916 -0.452641 0)
(3.07783 -0.316279 0)
(3.03568 -0.186812 0)
(2.98942 -0.0395737 0)
(2.93526 0.104343 0)
(2.87116 0.258005 0)
(2.81842 0.363982 0)
(2.81536 0.379626 0)
(2.82777 0.368526 0)
(2.89732 0.23008 0)
(2.97453 0.0581439 0)
(2.99858 0.00315414 0)
(2.99998 3.98769e-05 0)
(3 2.62747e-07 0)
(3 1.40767e-09 0)
(3 6.47845e-12 0)
(3 1.97961e-14 0)
(2.40342 -1.30495 0)
(2.5606 -1.39838 0)
(2.79307 -1.45915 0)
(2.90843 -1.59772 0)
(3.06209 -1.7 0)
(3.06465 -1.79262 0)
(3.1052 -1.5414 0)
(3.09835 -1.51549 0)
(3.13403 -1.32881 0)
(3.14965 -1.19504 0)
(3.1641 -1.03587 0)
(3.18774 -0.848626 0)
(3.14721 -0.574288 0)
(3.10737 -0.437456 0)
(3.06996 -0.323599 0)
(3.03553 -0.162343 0)
(2.98989 0.00724616 0)
(2.9229 0.175082 0)
(2.85105 0.31254 0)
(2.81218 0.37875 0)
(2.81362 0.376225 0)
(2.83597 0.337661 0)
(2.91038 0.198937 0)
(2.98309 0.0381967 0)
(2.9993 0.00151153 0)
(2.99999 1.69635e-05 0)
(3 1.08123e-07 0)
(3 5.76698e-10 0)
(3 2.64813e-12 0)
(3 6.86064e-15 0)
(2.39902 -1.30561 0)
(2.55976 -1.39787 0)
(2.79593 -1.46141 0)
(2.90161 -1.61548 0)
(3.06051 -1.703 0)
(3.05438 -1.79185 0)
(3.10433 -1.55396 0)
(3.1063 -1.51729 0)
(3.14439 -1.33402 0)
(3.17716 -1.17929 0)
(3.21321 -0.948248 0)
(3.17664 -0.71172 0)
(3.13341 -0.558362 0)
(3.09977 -0.455825 0)
(3.07389 -0.266711 0)
(3.02171 -0.0677536 0)
(2.95762 0.0993272 0)
(2.88529 0.241615 0)
(2.82982 0.344295 0)
(2.8086 0.387407 0)
(2.81203 0.377233 0)
(2.85403 0.30831 0)
(2.93194 0.15737 0)
(2.99033 0.0229941 0)
(2.99967 0.000734446 0)
(3 6.98623e-06 0)
(3 4.33171e-08 0)
(3 2.29475e-10 0)
(3 1.05239e-12 0)
(3 1.79456e-15 0)
(2.3902 -1.30593 0)
(2.55689 -1.39678 0)
(2.78973 -1.47723 0)
(2.90539 -1.62786 0)
(3.06086 -1.69798 0)
(3.05496 -1.78258 0)
(3.1063 -1.55742 0)
(3.13889 -1.47187 0)
(3.1835 -1.28422 0)
(3.20976 -1.06164 0)
(3.17703 -0.831759 0)
(3.14695 -0.680695 0)
(3.12402 -0.592782 0)
(3.10521 -0.409276 0)
(3.0398 -0.16235 0)
(2.99113 -0.0112143 0)
(2.93868 0.118758 0)
(2.87736 0.243694 0)
(2.82341 0.351201 0)
(2.80704 0.39149 0)
(2.81006 0.381616 0)
(2.86264 0.300898 0)
(2.95136 0.121808 0)
(2.99449 0.0143253 0)
(2.99986 0.000340052 0)
(3 2.89888e-06 0)
(3 1.73099e-08 0)
(3 9.03088e-11 0)
(3 4.07445e-13 0)
(3 -4.20054e-17 0)
(2.38037 -1.30294 0)
(2.54175 -1.39087 0)
(2.78486 -1.5127 0)
(2.93615 -1.65873 0)
(3.07477 -1.68031 0)
(3.06968 -1.7432 0)
(3.12551 -1.52784 0)
(3.14564 -1.4057 0)
(3.17132 -1.17831 0)
(3.16438 -0.948448 0)
(3.15304 -0.853386 0)
(3.14005 -0.721994 0)
(3.12762 -0.574759 0)
(3.07713 -0.296609 0)
(3.03261 -0.149848 0)
(2.98443 -0.0230734 0)
(2.93107 0.110249 0)
(2.87049 0.251659 0)
(2.81825 0.363035 0)
(2.80727 0.391856 0)
(2.81757 0.386236 0)
(2.87143 0.302109 0)
(2.95833 0.104803 0)
(2.99646 0.0088231 0)
(2.99993 0.000162433 0)
(3 1.22463e-06 0)
(3 7.01525e-09 0)
(3 3.57419e-11 0)
(3 1.54873e-13 0)
(3 -9.44174e-16 0)
(2.36431 -1.29606 0)
(2.52718 -1.37641 0)
(2.77744 -1.5292 0)
(2.95218 -1.68015 0)
(3.08723 -1.67665 0)
(3.0704 -1.71712 0)
(3.1093 -1.44111 0)
(3.12131 -1.31426 0)
(3.14957 -1.18938 0)
(3.16476 -0.9988 0)
(3.14581 -0.883212 0)
(3.14393 -0.722185 0)
(3.12654 -0.454116 0)
(3.07092 -0.27725 0)
(3.02542 -0.161654 0)
(2.97891 -0.00155745 0)
(2.92363 0.160983 0)
(2.85492 0.307825 0)
(2.80982 0.380455 0)
(2.80913 0.387022 0)
(2.82068 0.37899 0)
(2.88275 0.258829 0)
(2.96795 0.0734287 0)
(2.99796 0.00449247 0)
(2.99997 6.77277e-05 0)
(3 4.83914e-07 0)
(3 2.7453e-09 0)
(3 1.38609e-11 0)
(3 5.70714e-14 0)
(3 -9.73076e-16 0)
(2.34949 -1.28731 0)
(2.52006 -1.3564 0)
(2.76276 -1.51281 0)
(2.95583 -1.68254 0)
(3.08942 -1.68014 0)
(3.06662 -1.66635 0)
(3.10194 -1.45369 0)
(3.12923 -1.34657 0)
(3.13989 -1.20834 0)
(3.15876 -1.03563 0)
(3.17245 -0.861879 0)
(3.17403 -0.613467 0)
(3.0972 -0.368494 0)
(3.06343 -0.291989 0)
(3.02551 -0.109458 0)
(2.96241 0.0904572 0)
(2.88842 0.24738 0)
(2.83066 0.350967 0)
(2.80394 0.389222 0)
(2.80667 0.383146 0)
(2.82909 0.339367 0)
(2.92163 0.182527 0)
(2.98398 0.0383617 0)
(2.99915 0.00188663 0)
(2.99999 2.45826e-05 0)
(3 1.74897e-07 0)
(3 1.00554e-09 0)
(3 5.11675e-12 0)
(3 1.94559e-14 0)
(3 -1.07574e-15 0)
(2.34268 -1.28202 0)
(2.50283 -1.32482 0)
(2.75203 -1.50019 0)
(2.95764 -1.67947 0)
(3.07717 -1.69978 0)
(3.07115 -1.63345 0)
(3.09368 -1.51868 0)
(3.12863 -1.38151 0)
(3.16235 -1.18293 0)
(3.18358 -1.02228 0)
(3.20985 -0.735 0)
(3.13063 -0.479605 0)
(3.09666 -0.395073 0)
(3.06272 -0.23085 0)
(2.99311 -0.000909447 0)
(2.93305 0.150643 0)
(2.87061 0.270486 0)
(2.82024 0.36313 0)
(2.80248 0.394994 0)
(2.80577 0.384007 0)
(2.85676 0.307416 0)
(2.93379 0.163444 0)
(2.9902 0.0259688 0)
(2.99964 0.000907719 0)
(3 9.58947e-06 0)
(3 6.38166e-08 0)
(3 3.61352e-10 0)
(3 1.83272e-12 0)
(3 5.15464e-15 0)
(3 -1.05684e-15 0)
(2.32801 -1.27016 0)
(2.48435 -1.3116 0)
(2.73642 -1.48955 0)
(2.95322 -1.67468 0)
(3.06173 -1.70565 0)
(3.0783 -1.64735 0)
(3.10434 -1.53333 0)
(3.15782 -1.37049 0)
(3.18495 -1.11283 0)
(3.22186 -0.887248 0)
(3.15372 -0.606789 0)
(3.12325 -0.502761 0)
(3.08925 -0.383938 0)
(3.02207 -0.109491 0)
(2.97554 0.0313592 0)
(2.9234 0.148301 0)
(2.86126 0.274263 0)
(2.81357 0.37534 0)
(2.80187 0.401045 0)
(2.807 0.387524 0)
(2.86144 0.311667 0)
(2.94582 0.144236 0)
(2.99371 0.0170642 0)
(2.99983 0.00042527 0)
(3 3.82596e-06 0)
(3 2.39193e-08 0)
(3 1.31179e-10 0)
(3 6.53621e-13 0)
(3 -2.30277e-16 0)
(3 -9.3194e-16 0)
(2.31399 -1.26034 0)
(2.46308 -1.3159 0)
(2.72916 -1.48594 0)
(2.94567 -1.68577 0)
(3.0699 -1.68618 0)
(3.10408 -1.64118 0)
(3.16092 -1.48129 0)
(3.20927 -1.2457 0)
(3.19984 -1.02025 0)
(3.15525 -0.73969 0)
(3.13953 -0.647911 0)
(3.11252 -0.528743 0)
(3.07847 -0.275277 0)
(3.01305 -0.0810336 0)
(2.96459 0.0286433 0)
(2.91106 0.175652 0)
(2.84813 0.312969 0)
(2.80753 0.388428 0)
(2.80266 0.402586 0)
(2.81587 0.396282 0)
(2.87073 0.313552 0)
(2.96192 0.0956791 0)
(2.99668 0.00829414 0)
(2.99993 0.000171439 0)
(3 1.41989e-06 0)
(3 8.70446e-09 0)
(3 4.70201e-11 0)
(3 2.31494e-13 0)
(3 -2.07576e-15 0)
(3 -7.79505e-16 0)
(2.30589 -1.25733 0)
(2.44317 -1.33252 0)
(2.72365 -1.49975 0)
(2.94272 -1.71611 0)
(3.0871 -1.65254 0)
(3.1444 -1.57619 0)
(3.17055 -1.34824 0)
(3.15359 -1.08486 0)
(3.16439 -1.00137 0)
(3.15878 -0.791624 0)
(3.13346 -0.67594 0)
(3.12427 -0.462938 0)
(3.05065 -0.188018 0)
(3.00789 -0.0925946 0)
(2.95327 0.0853157 0)
(2.88528 0.253444 0)
(2.82766 0.357174 0)
(2.80239 0.393967 0)
(2.80275 0.397408 0)
(2.81813 0.380657 0)
(2.88834 0.243164 0)
(2.97256 0.0635942 0)
(2.99825 0.00411762 0)
(2.99997 6.49586e-05 0)
(3 5.01576e-07 0)
(3 3.04398e-09 0)
(3 1.63649e-11 0)
(3 8.07586e-14 0)
(3 -3.3137e-15 0)
(3 -5.96242e-16 0)
(2.30228 -1.25651 0)
(2.42758 -1.33821 0)
(2.70045 -1.53639 0)
(2.95972 -1.73937 0)
(3.10478 -1.63039 0)
(3.1167 -1.52158 0)
(3.12993 -1.30003 0)
(3.14473 -1.13484 0)
(3.14376 -1.02055 0)
(3.15379 -0.830142 0)
(3.16465 -0.619482 0)
(3.09667 -0.301772 0)
(3.0524 -0.200776 0)
(2.99932 -0.0278418 0)
(2.91532 0.182226 0)
(2.8583 0.303253 0)
(2.81447 0.377233 0)
(2.79918 0.395159 0)
(2.80368 0.386873 0)
(2.83444 0.329388 0)
(2.92725 0.169632 0)
(2.98389 0.0394419 0)
(2.99923 0.0017646 0)
(2.99999 2.30375e-05 0)
(3 1.69762e-07 0)
(3 1.02323e-09 0)
(3 5.49965e-12 0)
(3 2.62755e-14 0)
(3 -4.79436e-15 0)
(3 -2.94255e-16 0)
(2.30211 -1.2546 0)
(2.42273 -1.32741 0)
(2.67955 -1.55808 0)
(2.96847 -1.72738 0)
(3.10493 -1.59902 0)
(3.07339 -1.53751 0)
(3.10427 -1.33878 0)
(3.13471 -1.18528 0)
(3.17078 -1.00096 0)
(3.19217 -0.78195 0)
(3.15146 -0.425011 0)
(3.08128 -0.260005 0)
(3.03716 -0.15898 0)
(2.95509 0.084526 0)
(2.9007 0.213772 0)
(2.84472 0.319221 0)
(2.80567 0.391502 0)
(2.79794 0.397922 0)
(2.80306 0.379671 0)
(2.86277 0.295687 0)
(2.93992 0.151686 0)
(2.99247 0.0201841 0)
(2.99973 0.000679258 0)
(3 7.63477e-06 0)
(3 5.426e-08 0)
(3 3.26288e-10 0)
(3 1.76442e-12 0)
(3 7.99741e-15 0)
(3 -5.24374e-15 0)
(3 -1.47038e-16 0)
(2.30244 -1.2544 0)
(2.42406 -1.32751 0)
(2.67071 -1.57797 0)
(2.97039 -1.68737 0)
(3.0688 -1.63894 0)
(3.07296 -1.51838 0)
(3.11811 -1.33395 0)
(3.16248 -1.17466 0)
(3.21848 -0.870829 0)
(3.19023 -0.578666 0)
(3.1108 -0.350423 0)
(3.06562 -0.28134 0)
(2.99665 -0.0356197 0)
(2.94161 0.11555 0)
(2.88812 0.227148 0)
(2.83084 0.345412 0)