/*--------------------------------*- C++ -*----------------------------------*\
  =========                 |
  \\      /  F ield         | OpenFOAM: The Open Source CFD Toolbox
   \\    /   O peration     | Website:  https://openfoam.org
    \\  /    A nd           | Version:  7
     \\/     M anipulation  |
\*---------------------------------------------------------------------------*/
FoamFile
{
    version     2.0;
    format      ascii;
    class       volScalarField;
    location    "0.5";
    object      rho;
}
// * * * * * * * * * * * * * * * * * * * * * * * * * * * * * * * * * * * * * //

dimensions      [1 -3 0 0 0 0 0];

internalField   nonuniform List<scalar> 
1750
(
0.439614
0.731124
1.00501
1.16017
1.20133
1.22787
1.29628
1.37809
1.39893
1.39999
0.429755
0.529214
0.70156
0.9008
1.06172
1.20123
1.32481
1.3884
1.39954
1.4
0.539939
0.608171
0.706856
0.861264
1.05145
1.23291
1.35826
1.39647
1.39992
1.4
0.795537
0.897396
1.00109
1.11323
1.23897
1.34649
1.3929
1.39973
1.4
1.40001
1.09858
1.1894
1.26992
1.33348
1.37677
1.39607
1.39977
1.4
1.4
1.40001
1.33205
1.36557
1.38645
1.3962
1.39935
1.39995
1.4
1.40001
1.40001
1.40001
1.39577
1.39864
1.39969
1.39995
1.4
1.4
1.40001
1.40001
1.40001
1.40001
1.39994
1.39999
1.4
1.4
1.40001
1.40001
1.40001
1.40001
1.40001
1.40001
1.4
1.4
1.40001
1.40001
1.40001
1.40001
1.40001
1.40001
1.40001
1.40001
1.40001
1.40001
1.40001
1.40001
1.40001
1.40001
1.40001
1.40001
1.40001
1.40001
1.40001
1.40001
1.40001
1.40001
1.40001
1.40001
1.40001
1.40001
1.40001
1.40001
1.40001
1.40001
1.40001
1.40001
1.40001
1.40001
1.40001
1.40001
1.40001
1.40001
1.40001
1.40001
1.40001
1.40001
1.40001
1.40001
1.40001
1.40001
1.40001
1.40001
1.40001
1.40001
1.40001
1.40001
1.40001
1.40001
1.40001
1.40001
1.40001
1.40001
1.40001
1.40001
1.40001
1.40001
1.40001
1.40001
1.40001
1.40001
1.40001
1.40001
0.202774
0.374116
0.491752
0.706971
1.01097
1.29009
1.38979
1.39973
1.4
1.40001
1.40001
1.40001
1.40001
1.40001
1.40001
0.224358
0.397885
0.508863
0.729856
1.03002
1.30007
1.39181
1.39982
1.4
1.40001
1.40001
1.40001
1.40001
1.40001
1.40001
0.22797
0.393997
0.500111
0.715074
1.00724
1.28486
1.38939
1.39974
1.4
1.40001
1.40001
1.40001
1.40001
1.40001
1.40001
0.232253
0.393439
0.496457
0.709339
0.997726
1.27689
1.38784
1.39969
1.4
1.40001
1.40001
1.40001
1.40001
1.40001
1.40001
0.238581
0.393122
0.494634
0.706655
0.993142
1.27179
1.38635
1.39962
1.4
1.40001
1.40001
1.40001
1.40001
1.40001
1.40001
0.250485
0.411335
0.512683
0.724432
1.00046
1.27152
1.3858
1.39957
1.4
1.40001
1.40001
1.40001
1.40001
1.40001
1.40001
0.255536
0.452938
0.591789
0.823989
1.074
1.29171
1.38673
1.39955
1.4
1.4
1.40001
1.40001
1.40001
1.40001
1.40001
0.240309
0.454432
0.656972
0.95724
1.20304
1.34348
1.39243
1.39965
1.4
1.4
1.40001
1.40001
1.40001
1.40001
1.40001
0.149018
0.420498
0.696645
1.08839
1.33358
1.3978
1.3998
1.39988
1.39999
1.4
1.40001
1.40001
1.40001
1.40001
1.40001
0.0722955
0.338234
0.773749
1.26414
1.45253
1.44181
1.40656
1.4001
1.39999
1.4
1.4
1.40001
1.40001
1.40001
1.40001
0.0566621
0.325711
0.979541
1.487
1.55138
1.47946
1.40907
1.40018
1.4
1.4
1.4
1.40001
1.40001
1.40001
1.40001
0.138006
0.582999
1.39287
1.6875
1.65143
1.49071
1.4073
1.40013
1.4
1.4
1.4
1.40001
1.40001
1.40001
1.40001
0.3883
1.03625
1.80108
1.86134
1.69696
1.46248
1.40307
1.40005
1.40001
1.4
1.40001
1.40001
1.40001
1.40001
1.40001
0.827628
1.59782
2.12447
1.98372
1.59885
1.41898
1.40054
1.40001
1.40001
1.40001
1.40001
1.40001
1.40001
1.40001
1.40001
1.85818
2.33526
2.29766
1.7937
1.45139
1.40206
1.40004
1.40001
1.40001
1.40001
1.40001
1.40001
1.40001
1.40001
1.40001
3.32132
2.74909
1.96095
1.37854
1.39814
1.4
1.40001
1.40001
1.40001
1.40001
1.40001
1.40001
1.40001
1.40001
1.40001
3.30565
2.73344
2.09307
1.44361
1.40025
1.40001
1.40001
1.40001
1.40001
1.40001
1.40001
1.40001
1.40001
1.40001
1.40001
3.32211
2.72382
2.05356
1.43636
1.40018
1.40001
1.40001
1.40001
1.40001
1.40001
1.40001
1.40001
1.40001
1.40001
1.40001
3.32627
2.7144
2.02808
1.43308
1.40018
1.40001
1.40001
1.40001
1.40001
1.40001
1.40001
1.40001
1.40001
1.40001
1.40001
3.32744
2.70294
2.00378
1.4297
1.40014
1.40001
1.40001
1.40001
1.40001
1.40001
1.40001
1.40001
1.40001
1.40001
1.40001
3.31491
2.68117
1.97528
1.42671
1.40013
1.40001
1.40001
1.40001
1.40001
1.40001
1.40001
1.40001
1.40001
1.40001
1.40001
3.25174
2.62978
1.93671
1.42349
1.40012
1.40001
1.40001
1.40001
1.40001
1.40001
1.40001
1.40001
1.40001
1.40001
1.40001
3.1907
2.56206
1.87122
1.41844
1.40009
1.40001
1.40001
1.40001
1.40001
1.40001
1.40001
1.40001
1.40001
1.40001
1.40001
3.16531
2.4886
1.77218
1.41143
1.40006
1.40001
1.40001
1.40001
1.40001
1.40001
1.40001
1.40001
1.40001
1.40001
1.40001
3.17677
2.39722
1.64603
1.40493
1.40002
1.40001
1.40001
1.40001
1.40001
1.40001
1.40001
1.40001
1.40001
1.40001
1.40001
3.20701
2.23531
1.51959
1.40134
1.40001
1.40001
1.40001
1.40001
1.40001
1.40001
1.40001
1.40001
1.40001
1.40001
1.40001
3.14462
1.95966
1.43647
1.40022
1.40001
1.40001
1.40001
1.40001
1.40001
1.40001
1.40001
1.40001
1.40001
1.40001
1.40001
2.78387
1.66725
1.40688
1.40003
1.40001
1.40001
1.40001
1.40001
1.40001
1.40001
1.40001
1.40001
1.40001
1.40001
1.40001
2.26492
1.48957
1.40092
1.40001
1.40001
1.40001
1.40001
1.40001
1.40001
1.40001
1.40001
1.40001
1.40001
1.40001
1.40001
1.76215
1.4169
1.40007
1.40001
1.40001
1.40001
1.40001
1.40001
1.40001
1.40001
1.40001
1.40001
1.40001
1.40001
1.40001
1.40001
1.40001
1.40001
1.40001
1.40001
1.40001
1.40001
1.40001
1.40001
1.40001
1.40001
1.40001
1.40001
1.40001
1.40001
1.40001
1.40001
1.40001
1.40001
1.40001
1.40001
1.40001
1.40001
1.40001
1.40001
1.40001
1.40001
1.40001
1.40001
1.40001
1.40001
1.40001
1.40001
1.40001
1.40001
1.40001
1.40001
1.40001
1.40001
1.40001
1.40001
1.40001
1.40001
1.40001
1.40001
1.40001
1.40001
1.40001
1.40001
1.40001
1.40001
1.40001
1.40001
1.40001
1.40001
1.40001
1.40001
1.40001
1.40001
1.40001
1.40001
1.40001
1.40001
1.40001
1.40001
1.40001
1.40001
1.40001
1.40001
1.40001
1.40001
1.40001
1.40001
1.40001
1.40001
1.40001
1.40001
1.40001
1.40001
1.40001
1.40001
1.40001
1.40001
1.40001
1.40001
1.40001
1.40001
1.40001
1.40001
1.40001
1.40001
1.40001
1.40001
1.40001
1.40001
1.40001
1.40001
1.40001
1.40001
1.40001
1.40001
1.40001
1.40001
1.40001
1.40001
1.40001
1.40001
1.40001
1.40001
1.40001
1.40001
1.40001
1.40001
1.40001
1.40001
1.40001
1.40001
1.40001
1.40001
1.40001
1.40001
1.40001
1.40001
1.40001
1.40001
1.40001
1.40001
1.40001
1.40001
1.40001
1.40001
1.40001
1.40001
1.40001
1.40001
1.40001
1.40001
1.40001
1.40001
1.40001
1.40001
1.40001
1.40001
1.40001
1.40001
1.40001
1.40001
1.40001
1.40001
1.40001
1.40001
1.40001
1.40001
1.40001
1.40001
1.40001
1.40001
1.40001
1.40001
1.40001
1.40001
1.40001
1.40001
1.40001
1.40001
1.40001
1.40001
1.40001
1.40001
1.40001
1.40001
1.40001
1.40001
1.40001
1.40001
1.40001
1.40001
1.40001
1.40001
1.40001
1.40001
1.40001
1.40001
1.40001
1.40001
1.40001
1.40001
1.40001
1.40001
1.40001
1.40001
1.40001
1.40001
1.40001
1.40001
1.40001
1.40001
1.40001
1.40001
1.40001
1.40001
1.40001
1.40001
1.40001
1.40001
1.40001
1.40001
1.40001
1.40001
1.40001
1.40001
1.40001
1.40001
1.40001
1.40001
1.40001
1.40001
1.40001
1.40001
1.40001
1.40001
1.40001
1.40001
1.40001
1.40001
1.40001
1.40001
1.40001
1.40001
1.40001
1.40001
1.40001
1.40001
1.40001
1.40001
1.40001
1.40001
1.40001
1.40001
1.40001
1.40001
1.40001
1.40001
1.40001
1.40001
1.40001
1.40001
1.40001
1.40001
1.40001
1.40001
1.40001
1.40001
1.40001
1.40001
1.40001
1.40001
1.40001
1.40001
1.40001
1.40001
1.40001
1.40001
1.40001
1.40001
1.40001
1.40001
1.40001
1.40001
1.40001
1.40001
1.40001
1.40001
1.40001
1.40001
1.40001
1.40001
1.40001
1.40001
1.40001
1.40001
1.40001
1.40001
1.40001
1.40001
1.40001
1.40001
1.40001
1.40001
1.40001
1.40001
1.40001
1.40001
1.40001
1.40001
1.40001
1.40001
1.40001
1.40001
1.40001
1.40001
1.40001
1.40001
1.40001
1.40001
1.40001
1.40001
1.40001
1.40001
1.40001
1.40001
1.40001
1.40001
1.40001
1.40001
1.40001
1.40001
1.40001
1.40001
1.40001
1.40001
1.40001
1.40001
1.40001
1.40001
1.40001
1.40001
1.40001
1.40001
1.40001
1.40001
1.40001
1.40001
1.40001
1.40001
1.40001
1.40001
1.40001
1.40001
1.40001
1.40001
1.40001
1.40001
1.40001
1.40001
1.40001
1.40001
1.40001
1.40001
1.40001
2.07955
1.41596
1.40001
1.40001
1.40001
1.40001
1.40001
1.40001
1.40001
1.40001
1.40001
1.40001
1.40001
1.40001
1.40001
1.40001
1.40001
1.40001
1.40001
1.40001
3.06997
1.58854
1.39944
1.40001
1.40001
1.40001
1.40001
1.40001
1.40001
1.40001
1.40001
1.40001
1.40001
1.40001
1.40001
1.40001
1.40001
1.40001
1.40001
1.40001
4.00469
2.15392
1.41781
1.40001
1.40001
1.40001
1.40001
1.40001
1.40001
1.40001
1.40001
1.40001
1.40001
1.40001
1.40001
1.40001
1.40001
1.40001
1.40001
1.40001
4.28172
2.8805
1.61249
1.39951
1.40001
1.40001
1.40001
1.40001
1.40001
1.40001
1.40001
1.40001
1.40001
1.40001
1.40001
1.40001
1.40001
1.40001
1.40001
1.40001
4.14011
3.20015
2.08127
1.40988
1.40001
1.40001
1.40001
1.40001
1.40001
1.40001
1.40001
1.40001
1.40001
1.40001
1.40001
1.40001
1.40001
1.40001
1.40001
1.40001
3.80882
3.25656
2.61499
1.49346
1.39999
1.40001
1.40001
1.40001
1.40001
1.40001
1.40001
1.40001
1.40001
1.40001
1.40001
1.40001
1.40001
1.40001
1.40001
1.40001
3.55247
3.31657
2.96172
1.66148
1.40015
1.40001
1.40001
1.40001
1.40001
1.40001
1.40001
1.40001
1.40001
1.40001
1.40001
1.40001
1.40001
1.40001
1.40001
1.40001
3.47776
3.39734
3.16302
1.83604
1.40145
1.40001
1.40001
1.40001
1.40001
1.40001
1.40001
1.40001
1.40001
1.40001
1.40001
1.40001
1.40001
1.40001
1.40001
1.40001
3.46003
3.49008
3.30189
1.96696
1.40376
1.40001
1.40001
1.40001
1.40001
1.40001
1.40001
1.40001
1.40001
1.40001
1.40001
1.40001
1.40001
1.40001
1.40001
1.40001
3.46926
3.55417
3.38498
2.05546
1.40637
1.40001
1.40001
1.40001
1.40001
1.40001
1.40001
1.40001
1.40001
1.40001
1.40001
1.40001
1.40001
1.40001
1.40001
1.40001
3.46509
3.58108
3.42217
2.12681
1.40962
1.40001
1.40001
1.40001
1.40001
1.40001
1.40001
1.40001
1.40001
1.40001
1.40001
1.40001
1.40001
1.40001
1.40001
1.40001
3.44356
3.59333
3.45106
2.19934
1.41439
1.40001
1.40001
1.40001
1.40001
1.40001
1.40001
1.40001
1.40001
1.40001
1.40001
1.40001
1.40001
1.40001
1.40001
1.40001
3.41475
3.60117
3.47386
2.27102
1.41994
1.40001
1.40001
1.40001
1.40001
1.40001
1.40001
1.40001
1.40001
1.40001
1.40001
1.40001
1.40001
1.40001
1.40001
1.40001
3.37735
3.59353
3.49573
2.39213
1.43662
1.40001
1.40001
1.40001
1.40001
1.40001
1.40001
1.40001
1.40001
1.40001
1.40001
1.40001
1.40001
1.40001
1.40001
1.40001
3.3934
3.62692
3.50945
2.15599
1.34664
1.3998
1.4
1.40001
1.40001
1.40001
1.40001
1.40001
1.40001
1.40001
1.40001
1.40001
1.40001
1.40001
1.40001
1.40001
1.61597
2.52554
3.16828
2.83486
2.09728
1.52498
1.40648
1.40012
1.40001
1.40001
1.40001
1.40001
1.40001
1.40001
1.40001
1.40001
1.40001
1.40001
1.40001
1.40001
0.631551
1.31655
2.42571
2.5221
2.39572
1.88264
1.47328
1.40248
1.40003
1.40001
1.40001
1.40001
1.40001
1.40001
1.40001
1.40001
1.40001
1.40001
1.40001
1.40001
0.156155
0.565627
1.53089
2.16527
2.23597
2.06727
1.60706
1.41332
1.4002
1.40001
1.4
1.4
1.40001
1.40001
1.40001
1.40001
1.40001
1.40001
1.40001
1.40001
0.0691209
0.320978
0.877041
1.69977
2.02376
1.98831
1.67539
1.43201
1.40074
1.40001
1.4
1.4
1.40001
1.40001
1.40001
1.40001
1.40001
1.40001
1.40001
1.40001
0.0890888
0.332035
0.639214
1.29
1.77549
1.8171
1.64957
1.44161
1.40125
1.40001
1.4
1.4
1.40001
1.40001
1.40001
1.40001
1.40001
1.40001
1.40001
1.40001
0.15752
0.380364
0.615117
1.05445
1.528
1.64444
1.57532
1.43573
1.40112
1.39998
1.39999
1.4
1.40001
1.40001
1.40001
1.40001
1.40001
1.40001
1.40001
1.40001
0.331979
0.502246
0.641416
0.957217
1.32574
1.49057
1.47245
1.41484
1.40011
1.39992
1.39999
1.4
1.40001
1.40001
1.40001
1.40001
1.40001
1.40001
1.40001
1.40001
0.532759
0.590747
0.659901
0.904473
1.15396
1.31382
1.37254
1.39307
1.39933
1.39995
1.4
1.40001
1.40001
1.40001
1.40001
1.40001
1.40001
1.40001
1.40001
1.40001
0.568865
0.595016
0.646315
0.819676
0.979373
1.15134
1.30564
1.38639
1.39941
1.39999
1.4
1.40001
1.40001
1.40001
1.40001
1.40001
1.40001
1.40001
1.40001
1.40001
0.564518
0.561563
0.586495
0.719376
0.870498
1.08713
1.29437
1.38669
1.39955
1.4
1.40001
1.40001
1.40001
1.40001
1.40001
1.40001
1.40001
1.40001
1.40001
1.40001
0.547578
0.527811
0.551985
0.693592
0.856297
1.08478
1.29594
1.38771
1.39963
1.4
1.40001
1.40001
1.40001
1.40001
1.40001
1.40001
1.40001
1.40001
1.40001
1.40001
0.534411
0.523647
0.550218
0.694319
0.858632
1.08901
1.301
1.38919
1.39971
1.4
1.40001
1.40001
1.40001
1.40001
1.40001
1.40001
1.40001
1.40001
1.40001
1.40001
0.530226
0.523473
0.550926
0.696608
0.863841
1.09713
1.30753
1.39051
1.39975
1.4
1.40001
1.40001
1.40001
1.40001
1.40001
1.40001
1.40001
1.40001
1.40001
1.40001
0.527362
0.525827
0.553549
0.702939
0.8769
1.11428
1.31842
1.3924
1.39982
1.4
1.40001
1.40001
1.40001
1.40001
1.40001
1.40001
1.40001
1.40001
1.40001
1.40001
0.519494
0.519847
0.546241
0.684115
0.858455
1.09781
1.30905
1.3903
1.39972
1.4
1.40001
1.40001
1.40001
1.40001
1.40001
1.40001
1.40001
1.40001
1.40001
1.40001
0.56155
0.526345
0.571128
0.749741
0.927935
1.16532
1.34326
1.39601
1.39994
1.4
1.40001
1.40001
1.40001
1.40001
1.40001
1.40001
1.40001
1.40001
1.40001
1.40001
0.688051
0.555492
0.607261
0.826276
1.0083
1.23526
1.37091
1.39874
1.39999
1.4
1.40001
1.40001
1.40001
1.40001
1.40001
1.40001
1.40001
1.40001
1.40001
1.40001
0.935457
0.662876
0.673312
0.898423
1.09074
1.29868
1.38855
1.39972
1.4
1.40001
1.40001
1.40001
1.40001
1.40001
1.40001
1.40001
1.40001
1.40001
1.40001
1.40001
1.12567
0.860567
0.821664
0.989728
1.17585
1.34794
1.39678
1.39996
1.4
1.40001
1.40001
1.40001
1.40001
1.40001
1.40001
1.40001
1.40001
1.40001
1.40001
1.40001
1.18142
1.05232
1.01943
1.12018
1.27055
1.38105
1.39943
1.4
1.40001
1.40001
1.40001
1.40001
1.40001
1.40001
1.40001
1.40001
1.40001
1.40001
1.40001
1.40001
1.23014
1.19888
1.20083
1.26772
1.3568
1.39665
1.39996
1.4
1.40001
1.40001
1.40001
1.40001
1.40001
1.40001
1.40001
1.40001
1.40001
1.40001
1.40001
1.40001
1.31707
1.32157
1.33756
1.37038
1.39469
1.39981
1.4
1.40001
1.40001
1.40001
1.40001
1.40001
1.40001
1.40001
1.40001
1.40001
1.40001
1.40001
1.40001
1.40001
1.38362
1.38774
1.39297
1.39799
1.39983
1.4
1.40001
1.40001
1.40001
1.40001
1.40001
1.40001
1.40001
1.40001
1.40001
1.40001
1.40001
1.40001
1.40001
1.40001
1.39918
1.3995
1.3998
1.39997
1.4
1.40001
1.40001
1.40001
1.40001
1.40001
1.40001
1.40001
1.40001
1.40001
1.40001
1.40001
1.40001
1.40001
1.40001
1.40001
1.4
1.4
1.4
1.4
1.40001
1.40001
1.40001
1.40001
1.40001
1.40001
1.40001
1.40001
1.40001
1.40001
1.40001
1.40001
1.40001
1.40001
1.40001
1.40001
)
;

boundaryField
{
    inlet
    {
        type            calculated;
        value           uniform 1.40001;
    }
    outlet
    {
        type            calculated;
        value           nonuniform List<scalar> 
35
(
1.39999
1.4
1.4
1.4
1.40001
1.40001
1.40001
1.40001
1.40001
1.40001
1.40001
1.40001
1.40001
1.40001
1.40001
1.40001
1.40001
1.40001
1.40001
1.40001
1.39999
1.4
1.4
1.40001
1.40001
1.40001
1.40001
1.40001
1.40001
1.40001
1.40001
1.40001
1.40001
1.40001
1.40001
)
;
    }
    airfoil
    {
        type            calculated;
        value           nonuniform List<scalar> 
60
(
0.202774
0.224358
0.22797
0.232253
0.238581
0.250485
0.255536
0.240309
0.149018
0.0722955
0.0566621
0.138006
0.3883
0.827628
1.85818
3.32132
3.30565
3.32211
3.32627
3.32744
3.31491
3.25174
3.1907
3.16531
3.17677
3.20701
3.14462
2.78387
2.26492
1.76215
2.07955
3.06997
4.00469
4.28172
4.14011
3.80882
3.55247
3.47776
3.46003
3.46926
3.46509
3.44356
3.41475
3.37735
3.3934
1.61597
0.631551
0.156155
0.0691209
0.0890888
0.15752
0.331979
0.532759
0.568865
0.564518
0.547578
0.534411
0.530226
0.527362
0.519494
)
;
    }
    top
    {
        type            symmetryPlane;
    }
    bottom
    {
        type            symmetryPlane;
    }
    defaultFaces
    {
        type            empty;
    }
}


// ************************************************************************* //
