/*--------------------------------*- C++ -*----------------------------------*\
  =========                 |
  \\      /  F ield         | OpenFOAM: The Open Source CFD Toolbox
   \\    /   O peration     | Website:  https://openfoam.org
    \\  /    A nd           | Version:  7
     \\/     M anipulation  |
\*---------------------------------------------------------------------------*/
FoamFile
{
    version     2.0;
    format      ascii;
    class       volScalarField;
    location    "8.5";
    object      T;
}
// * * * * * * * * * * * * * * * * * * * * * * * * * * * * * * * * * * * * * //

dimensions      [0 0 0 1 0 0 0];

internalField   nonuniform List<scalar> 
90000
(
1.02138
1.02238
1.0235
1.02519
1.02711
1.0293
1.03127
1.03328
1.03515
1.03716
1.03884
1.0405
1.04192
1.04322
1.04437
1.04529
1.04627
1.04687
1.0475
1.04787
1.04823
1.0485
1.04864
1.04888
1.04931
1.04997
1.05071
1.05165
1.05265
1.05377
1.05485
1.05594
1.05701
1.05802
1.05887
1.05964
1.06017
1.06046
1.06029
1.05974
1.05878
1.05739
1.05572
1.05404
1.0528
1.05184
1.05183
1.052
1.05249
1.05335
1.05447
1.05558
1.05679
1.05769
1.05853
1.05861
1.05785
1.05653
1.05472
1.05321
1.05244
1.05251
1.05313
1.05427
1.05515
1.056
1.05569
1.05476
1.05313
1.0519
1.0513
1.05191
1.05347
1.05474
1.05455
1.05402
1.05291
1.0519
1.0522
1.0529
1.05345
1.05328
1.05267
1.05187
1.05187
1.05213
1.05261
1.05243
1.05181
1.05136
1.05137
1.05145
1.05131
1.05112
1.05091
1.05069
1.05044
1.05014
1.0499
1.04968
1.02044
1.02048
1.02055
1.02065
1.02082
1.02104
1.0213
1.02162
1.02201
1.02249
1.023
1.02355
1.02415
1.02481
1.02547
1.02618
1.02695
1.02772
1.02849
1.0293
1.03014
1.03097
1.03183
1.03252
1.03314
1.03369
1.03424
1.03482
1.0355
1.03624
1.03709
1.03799
1.03901
1.04008
1.0412
1.04232
1.04338
1.04445
1.04537
1.04635
1.04718
1.04784
1.04818
1.04798
1.04737
1.0463
1.04516
1.04413
1.04346
1.04325
1.04356
1.04403
1.04485
1.04569
1.04687
1.04805
1.049
1.04989
1.04937
1.04807
1.04646
1.04512
1.04478
1.04501
1.0457
1.04684
1.04797
1.04879
1.04808
1.04674
1.04555
1.04516
1.04559
1.04664
1.04783
1.04807
1.04736
1.04655
1.04619
1.04636
1.04687
1.04732
1.04715
1.04664
1.04645
1.04658
1.04693
1.04704
1.04681
1.04633
1.0462
1.04626
1.04638
1.04632
1.04621
1.04607
1.04591
1.04571
1.04552
1.04536
1.0193
1.0193
1.0193
1.0193
1.0193
1.0193
1.01929
1.01928
1.01928
1.01928
1.0193
1.01932
1.01937
1.01943
1.01951
1.01962
1.01976
1.01992
1.02012
1.02035
1.02064
1.02095
1.02131
1.02171
1.02217
1.02262
1.02312
1.02363
1.02419
1.02478
1.02544
1.02614
1.02692
1.02774
1.02867
1.02963
1.03065
1.03172
1.03276
1.0338
1.03473
1.0356
1.03622
1.03673
1.0371
1.0375
1.03801
1.03802
1.0378
1.03732
1.03676
1.03626
1.03612
1.03629
1.0368
1.03744
1.03842
1.03943
1.04017
1.04116
1.04114
1.0406
1.03956
1.03843
1.03816
1.03839
1.03909
1.04005
1.04127
1.0413
1.04063
1.03944
1.03858
1.03874
1.03973
1.04082
1.04168
1.04116
1.04019
1.03956
1.03986
1.04057
1.0412
1.04093
1.04036
1.0404
1.04066
1.04115
1.04118
1.04087
1.04061
1.04064
1.04076
1.04086
1.04083
1.04077
1.04071
1.04061
1.0405
1.0404
1.01741
1.01741
1.01742
1.01742
1.01743
1.01743
1.01742
1.01741
1.01739
1.01738
1.01736
1.01735
1.01733
1.01732
1.01731
1.01729
1.01728
1.01728
1.01728
1.01729
1.01733
1.0174
1.01748
1.01757
1.01769
1.01784
1.01802
1.01824
1.01849
1.01879
1.01914
1.01952
1.01998
1.02046
1.02105
1.02167
1.02243
1.02322
1.02412
1.02505
1.02601
1.02707
1.02802
1.02907
1.0299
1.03079
1.03139
1.03182
1.03209
1.03237
1.03262
1.03275
1.03266
1.03243
1.03214
1.03188
1.03203
1.03229
1.03307
1.03413
1.03476
1.03537
1.03579
1.03553
1.03482
1.03401
1.03369
1.03388
1.03462
1.03544
1.03615
1.03604
1.03518
1.03416
1.03418
1.03461
1.03548
1.03639
1.03619
1.03548
1.03494
1.03514
1.03568
1.03634
1.03603
1.03567
1.03573
1.03605
1.03634
1.0363
1.03601
1.0359
1.03593
1.03606
1.03619
1.03619
1.03616
1.03611
1.03606
1.03603
1.01554
1.01554
1.01555
1.01555
1.01555
1.01554
1.01554
1.01553
1.01553
1.01552
1.01552
1.01552
1.01553
1.01552
1.01552
1.01551
1.01549
1.01548
1.01547
1.01545
1.01543
1.01543
1.01544
1.01543
1.01542
1.01542
1.01543
1.01547
1.01555
1.01564
1.01577
1.01594
1.01614
1.01638
1.01669
1.01703
1.01748
1.01798
1.01864
1.01933
1.02022
1.02115
1.02227
1.02342
1.02461
1.02584
1.0268
1.02781
1.02844
1.02913
1.02942
1.0296
1.02968
1.02972
1.02967
1.02955
1.02946
1.02955
1.0298
1.0302
1.03086
1.03163
1.0321
1.03239
1.03269
1.03257
1.03216
1.03156
1.03158
1.03181
1.03235
1.03276
1.03294
1.03259
1.03194
1.03149
1.03167
1.03235
1.0328
1.03314
1.03274
1.03221
1.03232
1.03277
1.03331
1.03307
1.03273
1.03281
1.03313
1.03326
1.03312
1.03284
1.03286
1.03294
1.03302
1.03308
1.0331
1.03307
1.033
1.03296
1.0143
1.0143
1.0143
1.0143
1.01429
1.01428
1.01426
1.01425
1.01424
1.01423
1.01422
1.01421
1.01421
1.01421
1.01421
1.0142
1.01418
1.01415
1.01414
1.01413
1.01412
1.01412
1.01412
1.01411
1.01409
1.01409
1.0141
1.0141
1.0141
1.0141
1.0141
1.01412
1.01415
1.0142
1.01426
1.01435
1.01449
1.01467
1.01493
1.01526
1.01571
1.01625
1.01699
1.0178
1.01888
1.01998
1.0213
1.0226
1.02382
1.02508
1.02586
1.02677
1.02719
1.02771
1.02793
1.02823
1.02847
1.02876
1.02889
1.02901
1.02916
1.0295
1.02989
1.03045
1.03079
1.03097
1.03128
1.03122
1.03097
1.0306
1.03065
1.0308
1.03111
1.03131
1.03118
1.03075
1.03028
1.03034
1.03074
1.03115
1.03142
1.03125
1.03097
1.03102
1.0313
1.03162
1.03147
1.03126
1.03135
1.03158
1.03155
1.03133
1.03114
1.03118
1.0313
1.03133
1.03135
1.03135
1.0313
1.03121
1.01372
1.01371
1.0137
1.0137
1.01368
1.01367
1.01366
1.01364
1.01362
1.0136
1.01359
1.01357
1.01356
1.01354
1.01353
1.01352
1.0135
1.01348
1.01346
1.01344
1.01342
1.01341
1.0134
1.01338
1.01336
1.01337
1.01336
1.01335
1.01334
1.01333
1.01333
1.01333
1.01334
1.01334
1.01333
1.01331
1.01331
1.01333
1.01336
1.0134
1.01349
1.01364
1.01388
1.0142
1.01468
1.01529
1.01617
1.01714
1.01846
1.01982
1.02137
1.02293
1.02426
1.02562
1.0265
1.02743
1.02775
1.02803
1.02813
1.02824
1.02822
1.02831
1.02852
1.02892
1.02945
1.03008
1.03046
1.03064
1.03061
1.03044
1.03025
1.03025
1.03031
1.03041
1.03051
1.03045
1.03019
1.02987
1.02992
1.03007
1.03042
1.03059
1.03052
1.03038
1.03042
1.03061
1.03082
1.03072
1.03059
1.03067
1.03081
1.03074
1.03051
1.03036
1.03042
1.03055
1.03056
1.03055
1.0305
1.03038
1.01348
1.01347
1.01347
1.01346
1.01345
1.01344
1.01342
1.01341
1.01339
1.01337
1.01335
1.01333
1.0133
1.01328
1.01327
1.01326
1.01324
1.01322
1.01319
1.01317
1.01315
1.01313
1.0131
1.01307
1.01307
1.01306
1.01305
1.01303
1.013
1.01298
1.01295
1.01293
1.01293
1.01293
1.01291
1.01288
1.01287
1.01287
1.01287
1.01286
1.01286
1.01287
1.01287
1.01289
1.01295
1.01308
1.01332
1.01368
1.01428
1.01505
1.01622
1.01749
1.01914
1.02082
1.02248
1.02412
1.02519
1.0263
1.02678
1.02731
1.02751
1.02795
1.02834
1.02873
1.02907
1.02947
1.02978
1.03012
1.03018
1.03016
1.03025
1.03024
1.03014
1.03006
1.03009
1.03015
1.03015
1.02999
1.02974
1.02976
1.02983
1.03008
1.0302
1.03018
1.03014
1.03019
1.03033
1.03045
1.03038
1.03031
1.03036
1.03041
1.03034
1.03014
1.03004
1.03012
1.03022
1.03022
1.03017
1.03003
1.01337
1.01336
1.01335
1.01334
1.01333
1.01332
1.01331
1.01329
1.01328
1.01326
1.01323
1.01321
1.01319
1.01317
1.01314
1.01312
1.0131
1.01309
1.01307
1.01304
1.01302
1.01299
1.01296
1.01295
1.01294
1.01292
1.0129
1.01287
1.01285
1.01282
1.01278
1.01276
1.01275
1.01274
1.01271
1.01269
1.01267
1.01266
1.01265
1.01266
1.01267
1.01268
1.01269
1.01271
1.0127
1.01266
1.01265
1.01266
1.01271
1.01286
1.01317
1.01366
1.01452
1.01563
1.01723
1.01894
1.02092
1.02287
1.02446
1.02598
1.02695
1.02764
1.02798
1.02831
1.02852
1.02855
1.02872
1.0292
1.02961
1.02989
1.03017
1.03024
1.03015
1.02998
1.02996
1.03002
1.0301
1.03008
1.0299
1.02965
1.02967
1.02975
1.0299
1.03007
1.03005
1.03006
1.03011
1.03021
1.03026
1.03021
1.03016
1.0302
1.0302
1.03012
1.02995
1.02993
1.02999
1.03004
1.03002
1.02989
1.01328
1.01327
1.01326
1.01325
1.01324
1.01323
1.01322
1.01321
1.01319
1.01318
1.01316
1.01314
1.01312
1.0131
1.01308
1.01306
1.01304
1.01303
1.01301
1.01299
1.01297
1.01294
1.01293
1.01291
1.0129
1.01288
1.01286
1.01284
1.01282
1.01279
1.01276
1.01275
1.01273
1.0127
1.01268
1.01265
1.01262
1.01261
1.01262
1.01263
1.01264
1.01265
1.01267
1.01267
1.01267
1.01265
1.01265
1.01266
1.01267
1.01265
1.01265
1.01267
1.01277
1.01301
1.01354
1.01435
1.01574
1.01736
1.01943
1.02141
1.02321
1.02488
1.02579
1.02667
1.02709
1.0276
1.02814
1.02887
1.02944
1.02977
1.02996
1.03003
1.02999
1.02999
1.03005
1.03011
1.03011
1.03008
1.02998
1.0298
1.02966
1.02968
1.02978
1.02989
1.02999
1.03001
1.03002
1.03004
1.03009
1.0301
1.03007
1.03008
1.03008
1.03005
1.02996
1.02984
1.02985
1.02989
1.02989
1.0298
1.01325
1.01323
1.01322
1.01321
1.0132
1.01319
1.01317
1.01316
1.01315
1.01314
1.01313
1.01312
1.01311
1.0131
1.01307
1.01306
1.01305
1.01305
1.01304
1.01303
1.01301
1.013
1.01298
1.01296
1.01295
1.01294
1.01292
1.01291
1.01289
1.01287
1.01285
1.01283
1.01281
1.01278
1.01275
1.01273
1.0127
1.01267
1.01267
1.01267
1.01266
1.01265
1.01265
1.01264
1.01262
1.01261
1.01261
1.01262
1.01263
1.01266
1.01267
1.01268
1.0127
1.01268
1.0127
1.01278
1.01307
1.01363
1.01469
1.01601
1.01795
1.01989
1.02197
1.02388
1.02524
1.02675
1.02756
1.02819
1.02876
1.02885
1.02883
1.02909
1.02941
1.02984
1.03014
1.03014
1.03007
1.03001
1.02995
1.02988
1.02974
1.02962
1.02963
1.02969
1.02981
1.02993
1.02991
1.02989
1.0299
1.02995
1.02994
1.02993
1.02993
1.02993
1.0299
1.02979
1.02972
1.02974
1.02974
1.02968
1.0132
1.01319
1.01318
1.01317
1.01316
1.01315
1.01315
1.01313
1.01312
1.01312
1.01311
1.0131
1.01309
1.01309
1.01307
1.01305
1.01305
1.01304
1.01304
1.01303
1.01302
1.013
1.01298
1.01296
1.01293
1.01292
1.01291
1.01289
1.01287
1.01285
1.01282
1.01279
1.01277
1.01273
1.01271
1.01269
1.01267
1.01263
1.01261
1.01261
1.01259
1.01257
1.01255
1.01252
1.01251
1.0125
1.0125
1.01252
1.01256
1.0126
1.01261
1.01261
1.01259
1.01258
1.01259
1.01261
1.01261
1.01265
1.0128
1.01314
1.01385
1.01487
1.01653
1.01836
1.02042
1.02254
1.02405
1.02537
1.02639
1.02721
1.02776
1.02844
1.02921
1.02955
1.02978
1.02978
1.02977
1.0298
1.02985
1.02981
1.0297
1.02954
1.02945
1.02949
1.02957
1.02967
1.02971
1.02969
1.0297
1.02973
1.02975
1.02974
1.02974
1.02975
1.02975
1.0297
1.02958
1.02955
1.02954
1.02949
1.01295
1.01295
1.01295
1.01296
1.01296
1.01296
1.01296
1.01297
1.01296
1.01296
1.01296
1.01297
1.01297
1.01298
1.01298
1.01297
1.01297
1.01296
1.01297
1.01298
1.01298
1.01297
1.01296
1.01295
1.01294
1.01294
1.01294
1.01291
1.01288
1.01286
1.01284
1.01281
1.01278
1.01275
1.01271
1.01268
1.01266
1.01262
1.01259
1.01255
1.01252
1.01249
1.01246
1.01243
1.01241
1.01239
1.01239
1.01243
1.01249
1.01254
1.01255
1.01254
1.01251
1.01246
1.01241
1.01237
1.01234
1.01232
1.01232
1.01235
1.01245
1.01266
1.01312
1.01386
1.01525
1.01692
1.01919
1.02147
1.02336
1.02543
1.0267
1.02755
1.02823
1.02868
1.02864
1.02882
1.02913
1.02944
1.02959
1.02955
1.02944
1.02932
1.02924
1.02925
1.02928
1.02928
1.02931
1.02934
1.02939
1.02941
1.02943
1.02943
1.02945
1.02947
1.02947
1.02946
1.02938
1.02927
1.02924
1.0292
1.01246
1.01247
1.01248
1.01249
1.01249
1.01251
1.01252
1.01253
1.01254
1.01255
1.01257
1.01258
1.0126
1.01262
1.01263
1.01264
1.01266
1.01267
1.01268
1.0127
1.01271
1.01272
1.01273
1.01274
1.01275
1.01275
1.01275
1.01275
1.01276
1.01277
1.01278
1.01277
1.01276
1.01274
1.01273
1.01271
1.01268
1.01263
1.01257
1.01251
1.01243
1.01237
1.01231
1.01227
1.01223
1.0122
1.0122
1.01223
1.01227
1.01232
1.01235
1.01234
1.01232
1.01227
1.01221
1.01213
1.01204
1.01193
1.01188
1.01188
1.01191
1.01198
1.01207
1.01215
1.01242
1.01295
1.01415
1.01582
1.01813
1.02045
1.02246
1.02436
1.02525
1.02638
1.02716
1.02806
1.02883
1.02896
1.02896
1.0289
1.02889
1.02904
1.02903
1.02897
1.02885
1.02878
1.0288
1.02888
1.02896
1.02897
1.02899
1.02902
1.02904
1.02907
1.02908
1.02908
1.02904
1.02892
1.02885
1.02882
1.01206
1.01206
1.01206
1.01206
1.01207
1.01207
1.01207
1.01207
1.01207
1.01208
1.01209
1.01209
1.0121
1.01211
1.01212
1.01213
1.01214
1.01215
1.01217
1.01218
1.01219
1.01221
1.01223
1.01226
1.01228
1.0123
1.01232
1.01235
1.01238
1.01242
1.01246
1.01249
1.01252
1.01253
1.01253
1.01252
1.01251
1.01249
1.01245
1.01239
1.01233
1.01226
1.0122
1.01213
1.01208
1.01206
1.01205
1.01205
1.01205
1.01205
1.01207
1.01208
1.01208
1.01205
1.012
1.01193
1.01181
1.01164
1.01149
1.01143
1.01143
1.01146
1.01155
1.01167
1.01165
1.01163
1.01172
1.01217
1.01333
1.01493
1.01727
1.01971
1.02187
1.02401
1.0257
1.02698
1.0277
1.02796
1.02781
1.02791
1.02824
1.02851
1.02862
1.02852
1.02833
1.02826
1.02829
1.02834
1.02836
1.02839
1.02844
1.02851
1.02852
1.02854
1.02858
1.02858
1.02856
1.02848
1.02838
1.02834
1.01165
1.01164
1.01163
1.01162
1.01161
1.01159
1.01157
1.01156
1.01156
1.01156
1.01155
1.01154
1.01153
1.01153
1.01154
1.01154
1.01154
1.01154
1.01154
1.01155
1.01156
1.01158
1.0116
1.01162
1.01164
1.01166
1.01169
1.01171
1.01175
1.01179
1.01183
1.01188
1.01193
1.01198
1.01204
1.01205
1.01205
1.01205
1.01204
1.01202
1.012
1.01196
1.01191
1.01185
1.01181
1.01179
1.01179
1.01178
1.01176
1.01174
1.01172
1.01173
1.01174
1.01173
1.01171
1.01166
1.01157
1.01141
1.01121
1.01104
1.01099
1.01099
1.01102
1.0111
1.01113
1.01115
1.01116
1.01108
1.01115
1.01156
1.01264
1.01417
1.01645
1.0188
1.02098
1.02326
1.02442
1.02574
1.02639
1.02728
1.02771
1.02783
1.02783
1.0278
1.02785
1.02786
1.02783
1.02775
1.02772
1.02776
1.02784
1.02791
1.02793
1.02796
1.02801
1.02802
1.02801
1.02796
1.0279
1.02783
1.01121
1.0112
1.0112
1.01119
1.01117
1.01116
1.01114
1.01113
1.01111
1.0111
1.01108
1.01106
1.01104
1.01101
1.01099
1.01098
1.01096
1.01095
1.01094
1.01094
1.01094
1.01094
1.01095
1.01096
1.01097
1.01098
1.011
1.01102
1.01105
1.01108
1.01112
1.01117
1.01123
1.01129
1.01135
1.0114
1.01144
1.01146
1.01146
1.01146
1.01146
1.01145
1.01142
1.01139
1.01134
1.01131
1.0113
1.01129
1.01127
1.01126
1.01128
1.01131
1.01134
1.01136
1.01138
1.01138
1.01133
1.01121
1.01102
1.01081
1.01067
1.01061
1.01059
1.01061
1.01065
1.01065
1.01064
1.01059
1.01056
1.01055
1.01065
1.01103
1.01202
1.01342
1.01574
1.01828
1.02074
1.02338
1.02497
1.02616
1.02654
1.02675
1.02669
1.02689
1.02719
1.02737
1.0273
1.02716
1.02716
1.0272
1.02724
1.02727
1.02731
1.02739
1.02742
1.02744
1.02744
1.02743
1.02742
1.02733
1.0108
1.0108
1.01079
1.01079
1.01078
1.01077
1.01076
1.01074
1.01073
1.01071
1.0107
1.01068
1.01064
1.01061
1.01057
1.01054
1.01051
1.01049
1.01046
1.01045
1.01045
1.01044
1.01043
1.01042
1.0104
1.0104
1.01039
1.01039
1.0104
1.0104
1.01042
1.01044
1.01048
1.01053
1.01058
1.01064
1.01069
1.01072
1.01074
1.01076
1.01078
1.01078
1.01078
1.01078
1.01077
1.01075
1.01074
1.01072
1.01068
1.01064
1.01064
1.01069
1.01076
1.01086
1.01093
1.01094
1.01093
1.01087
1.01077
1.01065
1.01052
1.01039
1.01031
1.01027
1.01026
1.01025
1.01023
1.01017
1.01005
1.01
1.01004
1.01006
1.01014
1.01046
1.01139
1.01286
1.01535
1.01793
1.02027
1.0227
1.02361
1.02482
1.02552
1.02647
1.02676
1.02674
1.02666
1.02666
1.02673
1.02673
1.02669
1.02669
1.02674
1.02682
1.02692
1.02691
1.02691
1.02695
1.02696
1.0269
1.01046
1.01045
1.01045
1.01044
1.01044
1.01043
1.01042
1.01041
1.0104
1.01038
1.01036
1.01033
1.0103
1.01028
1.01025
1.01021
1.01018
1.01015
1.01012
1.01009
1.01007
1.01004
1.01002
1.00999
1.00997
1.00994
1.00991
1.00989
1.00987
1.00986
1.00984
1.00984
1.00984
1.00986
1.0099
1.00995
1.00999
1.01004
1.01009
1.01012
1.01015
1.01017
1.01019
1.01021
1.01023
1.01024
1.01024
1.01022
1.01019
1.01015
1.01009
1.01007
1.0101
1.0102
1.01027
1.0103
1.01034
1.01039
1.01043
1.01041
1.01035
1.01025
1.01013
1.01006
1.01002
1.01001
1.01
1.00996
1.00983
1.00969
1.00961
1.0096
1.00963
1.00961
1.00968
1.01001
1.01105
1.01259
1.0152
1.0179
1.02044
1.02315
1.02447
1.02547
1.0258
1.02575
1.02588
1.02616
1.02641
1.02637
1.02627
1.02627
1.0263
1.02632
1.02637
1.02644
1.02652
1.02655
1.02655
1.0265
1.01016
1.01016
1.01015
1.01014
1.01013
1.01012
1.01012
1.0101
1.01009
1.01008
1.01006
1.01004
1.01002
1.01001
1.00999
1.00996
1.00995
1.00993
1.00992
1.00989
1.00987
1.00985
1.00982
1.0098
1.00977
1.00974
1.00971
1.00967
1.00963
1.0096
1.00955
1.0095
1.00948
1.00948
1.00948
1.00949
1.00953
1.00959
1.00966
1.00968
1.0097
1.00973
1.00974
1.00974
1.00977
1.0098
1.0098
1.00979
1.00979
1.00979
1.00976
1.00967
1.00964
1.00967
1.00968
1.00969
1.00973
1.0098
1.00991
1.01
1.01001
1.00996
1.00982
1.00976
1.00977
1.00982
1.00986
1.00986
1.00981
1.00965
1.00947
1.00936
1.00932
1.0093
1.0093
1.00928
1.00937
1.00976
1.01089
1.01253
1.01533
1.01803
1.02043
1.02262
1.02358
1.02461
1.0255
1.02594
1.02594
1.02589
1.02592
1.02601
1.02601
1.02594
1.02595
1.02603
1.02617
1.02627
1.02626
1.02621
1.00982
1.00983
1.00983
1.00983
1.00983
1.00983
1.00983
1.00983
1.00982
1.00982
1.00982
1.00983
1.00983
1.00983
1.00982
1.00982
1.00983
1.00984
1.00983
1.00983
1.00983
1.00983
1.00984
1.00983
1.00981
1.00978
1.00974
1.00969
1.00963
1.00958
1.0095
1.00944
1.00942
1.0094
1.00938
1.00938
1.00938
1.00942
1.00946
1.00946
1.00946
1.00948
1.00948
1.00946
1.00946
1.00948
1.0095
1.00949
1.00948
1.00949
1.00948
1.00947
1.00942
1.00935
1.00927
1.00919
1.00918
1.00921
1.00936
1.00957
1.00964
1.00963
1.00953
1.0094
1.00939
1.00944
1.00956
1.00972
1.00976
1.00971
1.00957
1.0094
1.00929
1.00921
1.00911
1.00906
1.00902
1.00904
1.00918
1.00965
1.01096
1.01284
1.01582
1.01879
1.02132
1.02385
1.02478
1.02539
1.02516
1.0253
1.02557
1.02577
1.02575
1.02566
1.02569
1.02579
1.02587
1.02595
1.02603
1.02601
1.00944
1.00945
1.00946
1.00946
1.00946
1.00946
1.00947
1.00948
1.0095
1.00952
1.00952
1.00953
1.00954
1.00955
1.00957
1.00961
1.00964
1.00964
1.00964
1.00966
1.00969
1.00969
1.00968
1.00967
1.00968
1.00968
1.00968
1.00966
1.00961
1.00957
1.00952
1.00946
1.00944
1.00943
1.00941
1.0094
1.00942
1.00945
1.00945
1.00944
1.00944
1.00945
1.00946
1.00942
1.00939
1.0094
1.0094
1.00935
1.0093
1.0093
1.00931
1.00934
1.00933
1.00926
1.0091
1.00896
1.0089
1.0089
1.00897
1.0092
1.00939
1.00941
1.00937
1.00926
1.00916
1.00916
1.00925
1.0094
1.00953
1.00954
1.00952
1.00944
1.00936
1.00928
1.00919
1.00908
1.00896
1.00894
1.00893
1.00897
1.00916
1.00975
1.01128
1.01343
1.01647
1.01961
1.02142
1.0234
1.02409
1.02518
1.02546
1.0255
1.02538
1.0254
1.02556
1.02567
1.02569
1.02573
1.02582
1.02587
1.00926
1.00926
1.00924
1.00923
1.00924
1.00925
1.00925
1.00924
1.00924
1.00925
1.00925
1.00925
1.00926
1.00929
1.00935
1.0094
1.00942
1.00942
1.00942
1.00943
1.00946
1.00946
1.00945
1.00944
1.00944
1.00946
1.0095
1.00951
1.00949
1.00947
1.00946
1.00944
1.00942
1.00944
1.00944
1.00942
1.00942
1.00945
1.00946
1.00945
1.00941
1.00936
1.0093
1.00924
1.00917
1.00913
1.00912
1.00913
1.00917
1.00922
1.00928
1.00933
1.00936
1.00935
1.00925
1.00904
1.00887
1.00882
1.00885
1.009
1.0092
1.00929
1.00929
1.00926
1.00917
1.00906
1.00905
1.0091
1.00924
1.00932
1.00931
1.00928
1.00926
1.00924
1.00922
1.00917
1.00912
1.00906
1.00898
1.00896
1.00894
1.00897
1.00922
1.00995
1.01178
1.01426
1.01746
1.02075
1.02304
1.02472
1.02506
1.02487
1.02494
1.0253
1.02552
1.02554
1.02556
1.02562
1.02568
1.02574
1.00934
1.00934
1.00932
1.00928
1.00925
1.00923
1.0092
1.00917
1.00915
1.00912
1.00909
1.00909
1.0091
1.00915
1.0092
1.00921
1.0092
1.00918
1.00916
1.00917
1.00918
1.00917
1.00916
1.00918
1.00919
1.0092
1.00924
1.00926
1.00925
1.00925
1.00926
1.00927
1.00927
1.00928
1.0093
1.00927
1.00927
1.00933
1.00937
1.00937
1.00934
1.00927
1.00919
1.0091
1.00899
1.00894
1.00893
1.00896
1.00901
1.00906
1.00915
1.00932
1.00945
1.00949
1.00949
1.0094
1.00919
1.00898
1.00892
1.00897
1.0091
1.00922
1.00924
1.00921
1.00915
1.00905
1.009
1.00899
1.00902
1.00908
1.00913
1.00915
1.00915
1.00915
1.00916
1.00918
1.00921
1.0092
1.00917
1.00909
1.00899
1.00893
1.0089
1.00894
1.0093
1.01029
1.01255
1.01541
1.01856
1.02158
1.02288
1.02395
1.02487
1.02536
1.02539
1.02535
1.02542
1.02555
1.02559
1.02563
1.00948
1.00947
1.00944
1.00937
1.00936
1.00936
1.00934
1.0093
1.00923
1.00915
1.00909
1.00904
1.00901
1.00902
1.00905
1.00906
1.00907
1.00905
1.00902
1.00903
1.00903
1.00902
1.00903
1.00904
1.00902
1.00897
1.00895
1.00895
1.00897
1.00898
1.00902
1.00908
1.00909
1.00909
1.00911
1.00912
1.00908
1.00911
1.0092
1.00928
1.00929
1.00928
1.00925
1.00922
1.00914
1.00903
1.00896
1.00894
1.00895
1.009
1.00906
1.00916
1.00933
1.00949
1.00957
1.00956
1.00946
1.00926
1.00907
1.00902
1.00906
1.00912
1.0092
1.00922
1.00919
1.00914
1.00905
1.00899
1.00898
1.00899
1.00903
1.0091
1.00916
1.00916
1.00915
1.00916
1.00918
1.00921
1.00921
1.00919
1.00912
1.00902
1.00893
1.00886
1.00887
1.00899
1.00963
1.01098
1.01378
1.0169
1.02006
1.02322
1.02445
1.0251
1.02481
1.02501
1.0253
1.02549
1.02552
1.02554
1.00927
1.00922
1.0091
1.00906
1.00907
1.00912
1.00913
1.00909
1.00901
1.00894
1.00892
1.00893
1.00895
1.00896
1.00898
1.00902
1.00906
1.00907
1.00908
1.00907
1.00905
1.00905
1.00905
1.00905
1.00903
1.00894
1.00889
1.00888
1.00887
1.00888
1.00892
1.00897
1.00898
1.009
1.00904
1.00905
1.00902
1.00904
1.00915
1.00926
1.00932
1.00932
1.00933
1.00943
1.00952
1.00951
1.00939
1.00923
1.00917
1.00914
1.00909
1.0091
1.00921
1.00934
1.00945
1.00948
1.00941
1.00925
1.00914
1.00907
1.00907
1.00909
1.00909
1.00909
1.00916
1.00919
1.00918
1.00914
1.00907
1.00905
1.00905
1.00911
1.00917
1.00919
1.00918
1.00915
1.00915
1.00917
1.00918
1.00917
1.00914
1.0091
1.00903
1.00895
1.00889
1.0089
1.00896
1.00925
1.01024
1.01202
1.01519
1.01859
1.02099
1.02324
1.02396
1.02514
1.02542
1.0254
1.02534
1.02547
1.00869
1.00868
1.00868
1.00868
1.00869
1.00872
1.00874
1.00874
1.00873
1.00873
1.00877
1.00887
1.00896
1.00904
1.00913
1.00922
1.00929
1.00936
1.00944
1.00953
1.00957
1.00958
1.00956
1.00951
1.00945
1.00938
1.00929
1.00919
1.00916
1.00916
1.00918
1.00922
1.00922
1.00922
1.00923
1.00922
1.00918
1.00917
1.00921
1.00924
1.00925
1.00926
1.00935
1.00957
1.0098
1.00984
1.00979
1.00964
1.0095
1.00938
1.00924
1.00919
1.0092
1.00919
1.00915
1.00915
1.00911
1.00912
1.00917
1.00921
1.00921
1.00915
1.00908
1.00907
1.00911
1.00921
1.0093
1.00931
1.00927
1.00923
1.00922
1.00923
1.00925
1.00925
1.00923
1.00918
1.00913
1.00911
1.00911
1.00911
1.00911
1.0091
1.00909
1.00906
1.009
1.00899
1.00901
1.00905
1.0092
1.00968
1.01108
1.01339
1.0168
1.02038
1.02302
1.02481
1.02514
1.0249
1.02508
1.0254
1.00818
1.00819
1.0082
1.00822
1.00826
1.00829
1.00832
1.00837
1.00844
1.0085
1.0086
1.00875
1.00888
1.009
1.00911
1.00919
1.00926
1.00934
1.00943
1.00951
1.00956
1.00958
1.00958
1.00956
1.00951
1.00946
1.00941
1.00937
1.00932
1.00932
1.00935
1.00935
1.00935
1.00934
1.00929
1.00921
1.0092
1.00919
1.00914
1.00904
1.00902
1.00904
1.00914
1.00939
1.00967
1.00978
1.00976
1.00967
1.00959
1.00949
1.00939
1.0093
1.00923
1.00914
1.009
1.0089
1.00888
1.00893
1.00915
1.00934
1.00939
1.00938
1.00929
1.00922
1.00924
1.0093
1.00937
1.00938
1.00937
1.00935
1.00935
1.00934
1.00933
1.00931
1.00928
1.00922
1.00917
1.00914
1.00912
1.00911
1.0091
1.0091
1.00911
1.00911
1.00912
1.00912
1.00911
1.00911
1.00914
1.00918
1.00943
1.01021
1.0122
1.01507
1.01858
1.02169
1.02314
1.02421
1.02522
1.02547
1.00785
1.0078
1.00781
1.00782
1.00781
1.00779
1.00778
1.00778
1.00785
1.00796
1.00801
1.00807
1.00815
1.00824
1.00834
1.00837
1.00837
1.00841
1.00851
1.00868
1.00884
1.00898
1.00907
1.00913
1.00916
1.00917
1.00918
1.00917
1.00912
1.00909
1.0091
1.00909
1.00905
1.00894
1.00883
1.00877
1.00872
1.00868
1.00862
1.00857
1.00859
1.00865
1.00874
1.00883
1.00893
1.00903
1.00907
1.00909
1.00916
1.00924
1.00929
1.00933
1.00935
1.00932
1.00918
1.00899
1.00894
1.00898
1.00914
1.00934
1.00946
1.0095
1.00951
1.00951
1.00951
1.0095
1.00946
1.00944
1.00944
1.00945
1.00945
1.00942
1.00934
1.00928
1.00927
1.00928
1.00927
1.00923
1.00917
1.00917
1.00917
1.00918
1.00917
1.00916
1.00916
1.00917
1.00919
1.00919
1.0092
1.00923
1.00924
1.00933
1.00981
1.01102
1.0138
1.01702
1.02056
1.02368
1.0249
1.02511
1.00805
1.00801
1.00796
1.00787
1.00778
1.00772
1.00767
1.00766
1.00767
1.00769
1.00769
1.00767
1.0076
1.00754
1.0075
1.0074
1.00717
1.00703
1.00702
1.00707
1.00722
1.0074
1.00754
1.00769
1.00785
1.00789
1.00791
1.00802
1.00806
1.00806
1.00803
1.00791
1.00785
1.00785
1.00784
1.00785
1.00789
1.008
1.00814
1.00818
1.00821
1.00829
1.00836
1.00835
1.00829
1.00824
1.00823
1.00828
1.00847
1.00874
1.00899
1.00919
1.00928
1.00928
1.00923
1.00918
1.00914
1.00913
1.00919
1.00928
1.00936
1.00946
1.00953
1.00953
1.00953
1.00953
1.00947
1.00939
1.00936
1.00936
1.00939
1.00939
1.00938
1.00933
1.00932
1.00932
1.00934
1.00935
1.00932
1.00928
1.00927
1.00926
1.00924
1.0092
1.00918
1.00919
1.0092
1.00923
1.00929
1.0093
1.0093
1.00927
1.00929
1.00948
1.01034
1.01225
1.01563
1.01918
1.02168
1.02387
1.00959
1.00977
1.00977
1.00967
1.00952
1.00944
1.00937
1.00933
1.00932
1.00929
1.00923
1.00911
1.0089
1.00857
1.00813
1.00764
1.00729
1.0072
1.00724
1.00735
1.00748
1.00762
1.00779
1.00802
1.00818
1.00825
1.00831
1.00832
1.00826
1.00812
1.00798
1.00789
1.00789
1.00795
1.00795
1.008
1.0083
1.00871
1.00904
1.00922
1.00929
1.00934
1.00939
1.00937
1.009
1.00835
1.00813
1.00818
1.00836
1.00846
1.00843
1.00842
1.00846
1.00864
1.00893
1.00906
1.00907
1.00906
1.00893
1.00882
1.00883
1.00889
1.00903
1.00916
1.00924
1.00928
1.00931
1.00931
1.00928
1.00926
1.00929
1.00936
1.00942
1.00943
1.00941
1.00939
1.00939
1.00941
1.0094
1.00938
1.00934
1.00932
1.00929
1.00923
1.0092
1.0092
1.00922
1.00929
1.00936
1.00937
1.00935
1.00929
1.00923
1.00923
1.00935
1.00988
1.01141
1.01411
1.01762
1.02229
1.01447
1.01452
1.01448
1.01443
1.0144
1.01418
1.01363
1.01341
1.01343
1.01359
1.01386
1.01386
1.01365
1.01321
1.01268
1.01221
1.01175
1.01137
1.01125
1.01128
1.01129
1.01113
1.01083
1.01078
1.01086
1.01093
1.01086
1.01049
1.00976
1.00891
1.00854
1.00848
1.00854
1.00873
1.00889
1.00926
1.00994
1.01016
1.01026
1.01043
1.01054
1.01054
1.01062
1.01061
1.01016
1.00938
1.00887
1.00878
1.00876
1.00869
1.00846
1.00819
1.00811
1.00812
1.00823
1.00846
1.00868
1.0088
1.0088
1.00862
1.00842
1.00841
1.00848
1.0086
1.00871
1.00881
1.00899
1.00914
1.00917
1.00916
1.00916
1.00925
1.0094
1.00943
1.00942
1.00941
1.0094
1.00941
1.00941
1.00939
1.00934
1.0093
1.00926
1.00924
1.00924
1.00925
1.00928
1.00935
1.0094
1.00939
1.00935
1.00928
1.00921
1.00916
1.00914
1.0092
1.00956
1.01068
1.01283
1.01776
1.01692
1.01678
1.01663
1.01654
1.01633
1.01567
1.0152
1.01525
1.01537
1.01505
1.01478
1.01494
1.01543
1.01585
1.01584
1.01573
1.01569
1.01569
1.01578
1.01598
1.01596
1.01568
1.01561
1.01572
1.01621
1.01646
1.01626
1.01558
1.01466
1.01384
1.01313
1.0125
1.01225
1.01214
1.01182
1.01159
1.01165
1.0115
1.01074
1.01018
1.01001
1.01006
1.0104
1.01067
1.01067
1.01067
1.01062
1.01045
1.01029
1.01009
1.00959
1.00889
1.00845
1.00843
1.00858
1.00878
1.00888
1.00894
1.0091
1.00923
1.00922
1.00914
1.00894
1.00866
1.00857
1.00859
1.00882
1.00905
1.00905
1.00893
1.00876
1.00876
1.00888
1.00908
1.00918
1.0092
1.00922
1.00926
1.00933
1.00934
1.00933
1.00931
1.00929
1.00929
1.0093
1.00932
1.00937
1.00941
1.00941
1.0094
1.00936
1.00929
1.00921
1.00915
1.00913
1.00914
1.00919
1.00945
1.01013
1.01342
1.03244
1.03218
1.03195
1.03159
1.03108
1.0302
1.02921
1.02879
1.02858
1.02827
1.02765
1.02702
1.02647
1.02537
1.0248
1.02459
1.02449
1.02442
1.02391
1.02309
1.02295
1.02274
1.02169
1.02103
1.02114
1.02103
1.02094
1.02161
1.02167
1.02164
1.02193
1.02196
1.02181
1.02143
1.02105
1.02075
1.02038
1.01965
1.01847
1.01711
1.01586
1.01499
1.01437
1.01354
1.01307
1.01314
1.01318
1.01313
1.01326
1.01333
1.01299
1.0129
1.01294
1.01255
1.01124
1.01004
1.00977
1.00974
1.0099
1.01035
1.01051
1.01039
1.00988
1.00916
1.00884
1.0088
1.00878
1.00879
1.00883
1.00879
1.00863
1.00853
1.00857
1.00871
1.00887
1.00896
1.00901
1.00907
1.00916
1.00926
1.00932
1.00931
1.0093
1.0093
1.00931
1.00934
1.00941
1.00945
1.00945
1.00943
1.00938
1.00929
1.00919
1.00916
1.00915
1.00917
1.00923
1.00928
1.00937
1.01063
1.04716
1.04756
1.04804
1.04803
1.04774
1.04704
1.04579
1.04504
1.04502
1.04502
1.04497
1.04485
1.04455
1.04435
1.04394
1.04311
1.04288
1.04279
1.04243
1.04241
1.04228
1.04132
1.03988
1.03848
1.03717
1.03604
1.03583
1.03579
1.03551
1.03478
1.03389
1.03241
1.03017
1.02963
1.02963
1.02924
1.02758
1.02672
1.02695
1.0269
1.02635
1.02603
1.02585
1.02544
1.02459
1.02356
1.02238
1.02081
1.0183
1.01595
1.0155
1.01608
1.01713
1.01695
1.01576
1.01462
1.01386
1.01285
1.01162
1.01125
1.01128
1.01104
1.0106
1.01033
1.01006
1.0097
1.00936
1.00924
1.00923
1.0092
1.00908
1.00907
1.00909
1.00912
1.00917
1.00923
1.00923
1.0092
1.00913
1.00907
1.00903
1.00899
1.009
1.00906
1.00916
1.00929
1.00944
1.00951
1.0095
1.00947
1.00941
1.00932
1.00923
1.00924
1.00927
1.00931
1.00936
1.00934
1.0093
1.00959
1.06677
1.06637
1.06625
1.06631
1.06644
1.06638
1.06573
1.06466
1.06354
1.06265
1.06257
1.0626
1.06228
1.06187
1.06158
1.06103
1.05971
1.05866
1.05859
1.0585
1.05767
1.05721
1.0571
1.05636
1.05492
1.05423
1.05425
1.05425
1.05362
1.05304
1.05274
1.05201
1.0508
1.04947
1.04837
1.04748
1.0465
1.04555
1.0442
1.04121
1.03895
1.03845
1.03785
1.03638
1.03583
1.03608
1.03594
1.03492
1.03269
1.03071
1.02959
1.02855
1.02714
1.02451
1.02238
1.0223
1.02259
1.02181
1.02021
1.01915
1.01753
1.01552
1.01516
1.0152
1.01508
1.01448
1.01306
1.01176
1.01159
1.01157
1.01122
1.01077
1.01037
1.00996
1.00941
1.00917
1.00909
1.00898
1.00882
1.00875
1.00875
1.00878
1.00882
1.00892
1.00905
1.00918
1.00933
1.00946
1.00946
1.00943
1.00937
1.00931
1.00933
1.00942
1.00946
1.00946
1.00944
1.00938
1.00931
1.00934
1.08936
1.08897
1.08843
1.08815
1.08794
1.08775
1.0875
1.087
1.08637
1.08575
1.08494
1.0844
1.08446
1.08448
1.08419
1.08333
1.08162
1.0809
1.08091
1.08062
1.07978
1.07858
1.07763
1.07695
1.07592
1.07454
1.07399
1.07365
1.07305
1.07216
1.0712
1.07007
1.06896
1.06788
1.06615
1.06434
1.06414
1.06426
1.06389
1.06245
1.0604
1.05874
1.05747
1.0563
1.05501
1.05371
1.05216
1.0489
1.04633
1.04598
1.04539
1.04405
1.04235
1.04024
1.03834
1.03724
1.03559
1.03184
1.02993
1.02955
1.02818
1.02635
1.02473
1.02213
1.02086
1.02016
1.01927
1.01759
1.01518
1.01421
1.01365
1.01289
1.01183
1.01098
1.01012
1.00979
1.00973
1.00949
1.00921
1.00911
1.00918
1.00936
1.00952
1.00951
1.00945
1.00936
1.00931
1.00931
1.00932
1.00932
1.00929
1.00932
1.00946
1.00954
1.00956
1.00955
1.0095
1.00946
1.00939
1.0094
1.11049
1.11016
1.10986
1.10952
1.10894
1.10877
1.10872
1.1084
1.10779
1.10709