/*--------------------------------*- C++ -*----------------------------------*\
  =========                 |
  \\      /  F ield         | OpenFOAM: The Open Source CFD Toolbox
   \\    /   O peration     | Website:  https://openfoam.org
    \\  /    A nd           | Version:  7
     \\/     M anipulation  |
\*---------------------------------------------------------------------------*/
FoamFile
{
    version     2.0;
    format      ascii;
    class       volScalarField;
    location    "7.5";
    object      p;
}
// * * * * * * * * * * * * * * * * * * * * * * * * * * * * * * * * * * * * * //

dimensions      [1 -1 -2 0 0 0 0];

internalField   nonuniform List<scalar> 
90000
(
0.581319
0.643724
0.738266
0.813199
0.83122
0.843734
0.838337
0.809269
0.797208
0.793419
0.778103
0.758546
0.736457
0.712773
0.692877
0.672567
0.654525
0.639747
0.626327
0.613611
0.603517
0.597373
0.594202
0.592902
0.592465
0.592786
0.594972
0.598319
0.602814
0.607273
0.611298
0.615791
0.619676
0.623978
0.626604
0.628273
0.631978
0.635997
0.639169
0.642284
0.643915
0.644943
0.645365
0.645647
0.644802
0.644374
0.644057
0.643431
0.641824
0.639628
0.636876
0.633343
0.632903
0.634325
0.63751
0.64266
0.649734
0.657679
0.664704
0.669268
0.670768
0.672362
0.673082
0.672426
0.671461
0.670791
0.670694
0.671631
0.675161
0.682429
0.690636
0.697459
0.704126
0.703745
0.705454
0.706204
0.709837
0.718897
0.730233
0.740752
0.74768
0.756858
0.761975
0.777398
0.790222
0.803373
0.806101
0.814253
0.822892
0.830208
0.840203
0.845553
0.853643
0.855464
0.863413
0.86912
0.874604
0.880812
0.884332
0.889535
0.335112
0.476635
0.532684
0.610802
0.633653
0.639894
0.650899
0.6611
0.669715
0.674823
0.672969
0.669227
0.669077
0.669456
0.665162
0.65641
0.646336
0.636814
0.62707
0.618549
0.612487
0.608806
0.607899
0.608787
0.611227
0.614967
0.619452
0.624228
0.628525
0.632425
0.634852
0.637175
0.63874
0.636471
0.631464
0.626
0.621783
0.619547
0.617977
0.617552
0.617089
0.617015
0.617327
0.618227
0.619377
0.62125
0.623846
0.627024
0.630016
0.63306
0.635032
0.636428
0.639687
0.647121
0.655141
0.661524
0.666512
0.670814
0.674547
0.676712
0.676092
0.675515
0.674299
0.672143
0.670773
0.671152
0.673846
0.67963
0.686195
0.69539
0.701495
0.706302
0.706596
0.705884
0.707034
0.710418
0.718557
0.732294
0.743299
0.750091
0.75678
0.763252
0.771336
0.790159
0.796482
0.807211
0.809655
0.817962
0.824123
0.835257
0.843074
0.8504
0.857418
0.858776
0.865725
0.871173
0.877125
0.880321
0.883185
0.887904
0.025158
0.0294179
0.0432256
0.224837
0.430521
0.498753
0.555426
0.61923
0.627139
0.622223
0.62823
0.629575
0.631451
0.633775
0.637489
0.639272
0.640135
0.642629
0.642547
0.641188
0.636616
0.630288
0.6242
0.618517
0.61504
0.613728
0.614238
0.616377
0.61924
0.622539
0.625309
0.629083
0.634961
0.639294
0.64151
0.641843
0.641421
0.641288
0.641299
0.642371
0.643629
0.644655
0.645729
0.647336
0.649889
0.653288
0.657312
0.662173
0.667625
0.673556
0.679501
0.684542
0.686956
0.687528
0.687789
0.687891
0.68676
0.685268
0.683017
0.680874
0.676652
0.672462
0.669514
0.669338
0.671685
0.677246
0.685871
0.694423
0.701443
0.705121
0.706619
0.708397
0.707992
0.708217
0.712113
0.72005
0.733565
0.744681
0.751931
0.758267
0.764486
0.77092
0.782963
0.799288
0.803234
0.810181
0.812731
0.824481
0.830822
0.840663
0.845877
0.854275
0.860122
0.862419
0.867854
0.873613
0.878829
0.879576
0.882918
0.888355
0.0251191
0.0250996
0.0250816
0.025041
0.028685
0.047287
0.0890268
0.275731
0.413772
0.488191
0.543354
0.601931
0.620395
0.617119
0.615799
0.617123
0.615791
0.612663
0.612396
0.61543
0.619343
0.621871
0.624553
0.626301
0.627327
0.628016
0.629014
0.630509
0.632222
0.633701
0.633118
0.629463
0.626169
0.624516
0.624786
0.626032
0.627733
0.630182
0.630877
0.633343
0.638785
0.645778
0.650857
0.65442
0.65588
0.656586
0.657827
0.658624
0.659303
0.659987
0.661723
0.663501
0.66384
0.663156
0.662564
0.662897
0.663766
0.66455
0.666279
0.668585
0.670723
0.672555
0.675824
0.680279
0.687474
0.694574
0.701164
0.706157
0.711154
0.711763
0.710575
0.708327
0.709151
0.713648
0.72413
0.735521
0.749294
0.753716
0.759848
0.764078
0.770551
0.779136
0.795769
0.803746
0.80772
0.812088
0.819836
0.832017
0.837265
0.844943
0.848277
0.85741
0.861978
0.86606
0.870897
0.877025
0.881422
0.881063
0.884996
0.891091
0.0251621
0.0251608
0.0251563
0.0251593
0.0251325
0.0251007
0.0250739
0.0250148
0.0320994
0.0559394
0.108629
0.246798
0.385098
0.46049
0.52057
0.577506
0.60809
0.611521
0.611456
0.612512
0.61383
0.611126
0.609862
0.610948
0.611828
0.612059
0.613008
0.614499
0.616772
0.619873
0.624076
0.628631
0.631733
0.633631
0.635327
0.636684
0.638637
0.640686
0.6428
0.639948
0.635694
0.636606
0.639725
0.6433
0.646839
0.647779
0.652497
0.660417
0.66881
0.675731
0.679791
0.683866
0.687862
0.688746
0.687627
0.68737
0.689044
0.69148
0.694669
0.698767
0.703994
0.708146
0.712819
0.715773
0.717943
0.718171
0.717143
0.713781
0.711266
0.70649
0.704663
0.706535
0.713555
0.727348
0.73971
0.74994
0.757878
0.760496
0.766311
0.770878
0.780634
0.790166
0.804277
0.806446
0.810916
0.818576
0.829136
0.839324
0.84427
0.847097
0.853369
0.860513
0.863636
0.869788
0.873394
0.879566
0.8856
0.883583
0.887328
0.893136
0.0251367
0.025131
0.0251238
0.0251143
0.0251049
0.0250966
0.0250857
0.0250903
0.0250466
0.0249961
0.0249506
0.0248727
0.0330418
0.0591825
0.111365
0.207579
0.359539
0.43922
0.504186
0.55279
0.584991
0.603298
0.607139
0.609992
0.613392
0.616062
0.618018
0.619421
0.621301
0.62171
0.621254
0.621256
0.623105
0.624688
0.625962
0.626722
0.627677
0.629165
0.633
0.639312
0.643094
0.645941
0.649032
0.652215
0.655722
0.659217
0.657513
0.655263
0.658078
0.662991
0.667769
0.668868
0.673966
0.680753
0.685826
0.687521
0.687507
0.688566
0.688191
0.687659
0.689584
0.691355
0.693393
0.694804
0.696543
0.69874
0.700176
0.702989
0.706352
0.71049
0.715047
0.724364
0.736217
0.74784
0.755464
0.762596
0.765196
0.76777
0.772518
0.780162
0.792273
0.801011
0.809109
0.809353
0.814615
0.827516
0.839452
0.845268
0.848952
0.852155
0.860593
0.863953
0.866224
0.872511
0.878659
0.886104
0.88884
0.891105
0.89547
0.900052
0.0250933
0.0250877
0.025082
0.0250731
0.025066
0.0250545
0.0250454
0.0250323
0.0250206
0.0250099
0.024999
0.0250017
0.0249601
0.0249075
0.024865
0.0247819
0.0329905
0.0590474
0.110505
0.185654
0.291165
0.417264
0.494959
0.547425
0.579932
0.602117
0.61266
0.613339
0.617388
0.616547
0.617047
0.619707
0.62388
0.628049
0.630917
0.632452
0.634064
0.635225
0.635418
0.634677
0.637797
0.639906
0.641682
0.64306
0.645096
0.64984
0.657609
0.661777
0.665703
0.669744
0.674667
0.678427
0.676822
0.673164
0.675288
0.678587
0.679436
0.683809
0.693333
0.702006
0.706998
0.71165
0.716387
0.718373
0.719392
0.722757
0.725881
0.729788
0.734777
0.741195
0.74714
0.753125
0.75465
0.754844
0.756331
0.760496
0.764112
0.773213
0.784237
0.796831
0.805829
0.811516
0.808719
0.808976
0.821454
0.838391
0.847769
0.849906
0.85285
0.85773
0.867299
0.867285
0.869889
0.877605
0.882889
0.89023
0.894794
0.897818
0.900721
0.903977
0.0250833
0.0250771
0.0250714
0.0250637
0.0250573
0.0250488
0.0250415
0.0250306
0.0250221
0.0250079
0.0249994
0.0249862
0.0249819
0.0249743
0.0249727
0.0249826
0.0249439
0.0248872
0.0248608
0.0247778
0.0289292
0.0530572
0.105802
0.183358
0.269653
0.357658
0.469478
0.547708
0.587635
0.604842
0.615898
0.619216
0.627417
0.630664
0.625977
0.623394
0.626107
0.629432
0.632683
0.636782
0.641684
0.64605
0.649138
0.650572
0.651261
0.653017
0.653101
0.656773
0.659382
0.662325
0.665354
0.669042
0.675998
0.679671
0.682667
0.685101
0.68873
0.686927
0.683818
0.688825
0.695276
0.698562
0.70292
0.712782
0.719183
0.719683
0.723384
0.724681
0.725851
0.731214
0.737698
0.743503
0.750004
0.756241
0.763648
0.774282
0.783472
0.797473
0.80837
0.81326
0.806219
0.803467
0.806334
0.818294
0.838844
0.85165
0.854409
0.851159
0.857336
0.866346
0.873435
0.871597
0.876213
0.882803
0.886914
0.893506
0.89905
0.902584
0.904872
0.906238
0.0251107
0.0251044
0.0250959
0.025089
0.0250815
0.025078
0.0250731
0.0250704
0.025066
0.0250616
0.0250576
0.0250556
0.0250595
0.0250649
0.0250713
0.0250743
0.0250851
0.025095
0.025116
0.0251281
0.0251683
0.025112
0.0250812
0.0249835
0.0280379
0.0442163
0.0907339
0.175039
0.271293
0.356332
0.429772
0.533957
0.596752
0.616952
0.623387
0.620837
0.628761
0.642574
0.642899
0.636652
0.637251
0.643172
0.64501
0.645239
0.645346
0.651429
0.65752
0.661933
0.663425
0.667974
0.671654
0.672593
0.671394
0.675105
0.677335
0.6781
0.680355
0.684299
0.692176
0.697278
0.703203
0.70817
0.710753
0.70961
0.712159
0.714473
0.716006
0.730295
0.742298
0.750145
0.760598
0.767681
0.771518
0.775023
0.781122
0.786451
0.791307
0.798103
0.799179
0.803554
0.80666
0.816251
0.829509
0.849251
0.857208
0.84342
0.841986
0.85202
0.864577
0.87259
0.869944
0.876125
0.88677
0.88373
0.881406
0.887746
0.896854
0.901144
0.900177
0.897449
0.0251367
0.0251338
0.0251291
0.0251248
0.02512
0.0251192
0.0251185
0.025124
0.0251271
0.0251309
0.025132
0.0251375
0.025146
0.0251633
0.0251697
0.0251847
0.0251929
0.0252059
0.0252129
0.0252259
0.0252266
0.0252253
0.025234
0.0252373
0.0252625
0.0251978
0.0251608
0.0250567
0.0275785
0.0429371
0.0794824
0.15963
0.268411
0.371705
0.443042
0.512098
0.593996
0.63727
0.645387
0.63431
0.632016
0.652488
0.648108
0.640392
0.640781
0.656503
0.662603
0.661433
0.660148
0.664648
0.668529
0.669013
0.672255
0.67887
0.683492
0.684868
0.684692
0.687788
0.689556
0.693111
0.696
0.699109
0.706946
0.713039
0.716386
0.720508
0.726559
0.725677
0.734136
0.743294
0.748603
0.760469
0.772322
0.776313
0.783707
0.791628
0.795538
0.800698
0.809751
0.818419
0.825444
0.833691
0.836787
0.841147
0.841846
0.843722
0.855649
0.868074
0.864725
0.861951
0.870806
0.882865
0.881073
0.875946
0.88118
0.887852
0.886698
0.886597
0.887647
0.889569
0.0251715
0.0251749
0.025179
0.0251835
0.0251906
0.025199
0.0252086
0.0252192
0.0252296
0.025236
0.0252454
0.0252545
0.0252662
0.0252816
0.0252913
0.0253042
0.0253126
0.0253222
0.0253284
0.0253355
0.025327
0.0253299
0.0253216
0.0253239
0.0253158
0.0253104
0.0253146
0.025315
0.025327
0.0252479
0.0251909
0.0250747
0.0268725
0.0437331
0.0845989
0.158313
0.268731
0.387798
0.471856
0.538908
0.598103
0.651423
0.662147
0.643406
0.639543
0.661451
0.66478
0.653601
0.650812
0.665494
0.677757
0.676431
0.676419
0.679563
0.680428
0.678449
0.678751
0.687468
0.694666
0.698697
0.702087
0.703699
0.704325
0.708769
0.712288
0.714164
0.71985
0.732589
0.740957
0.750292
0.759677
0.760384
0.764721
0.773477
0.780648
0.789899
0.80528
0.812218
0.819616
0.822538
0.819938
0.824357
0.833099
0.84278
0.854239
0.863702
0.869478
0.864419
0.867896
0.877888
0.883978
0.87888
0.878736
0.885577
0.895957
0.900931
0.894614
0.895108
0.898874
0.903122
0.0252741
0.0252852
0.0252955
0.0253073
0.0253213
0.0253355
0.02535
0.0253636
0.0253742
0.0253787
0.0253866
0.0253914
0.0253981
0.0254064
0.0254153
0.0254199
0.0254215
0.0254161
0.0254115
0.0254048
0.0253959
0.0253878
0.0253732
0.0253637
0.0253465
0.0253426
0.0253344
0.0253374
0.0253203
0.0253018
0.0252971
0.0252974
0.0253144
0.0252751
0.0252649
0.0252038
0.0269354
0.0456926
0.0947013
0.180444
0.299357
0.419704
0.517908
0.568663
0.616585
0.65802
0.681561
0.659351
0.657814
0.669514
0.680483
0.667589
0.666568
0.67816
0.6835
0.682408
0.687258
0.693535
0.694503
0.69529
0.697261
0.698322
0.706179
0.714778
0.719072
0.721257
0.724601
0.728421
0.737178
0.7436
0.751787
0.763673
0.772018
0.77992
0.788954
0.798139
0.802862
0.809546
0.813186
0.816772
0.828997
0.840607
0.845944
0.855284
0.856728
0.856402
0.859619
0.867585
0.875577
0.881218
0.883583
0.88857
0.892423
0.894219
0.894338
0.898855
0.905575
0.911762
0.91659
0.919395
0.0254296
0.0254437
0.0254544
0.0254668
0.0254809
0.0254932
0.0255046
0.0255154
0.0255216
0.0255221
0.0255227
0.0255191
0.0255134
0.0255102
0.0255104
0.0255106
0.0255033
0.0254844
0.025464
0.0254405
0.0254232
0.0254103
0.0254046
0.0253991
0.025394
0.0253932
0.0253956
0.0254062
0.0254114
0.0254238
0.0254355
0.0254641
0.0254866
0.0255143
0.0255578
0.0256089
0.0256739
0.0256128
0.0255542
0.0254568
0.0296936
0.0557005
0.123361
0.226163
0.353308
0.470221
0.570215
0.616987
0.652578
0.670852
0.689097
0.674929
0.670533
0.678658
0.678618
0.675005
0.682587
0.691734
0.693524
0.698382
0.704099
0.707187
0.711176
0.714393
0.715121
0.717749
0.724159
0.733518
0.743291
0.748491
0.754556
0.75948
0.769179
0.775093
0.783718
0.796221
0.802998
0.809809
0.815659
0.819755
0.827207
0.836567
0.840482
0.843332
0.854376
0.862768
0.866063
0.87179
0.876353
0.880515
0.886753
0.892007
0.893708
0.893648
0.898706
0.904416
0.904908
0.903907
0.907137
0.907124
0.0255851
0.0255897
0.025593
0.0256001
0.0256076
0.02561
0.0256127
0.0256147
0.0256115
0.0256038
0.0255962
0.0255841
0.0255664
0.025554
0.0255486
0.0255436
0.0255291
0.0255058
0.0254809
0.0254568
0.0254421
0.0254361
0.0254415
0.0254512
0.0254655
0.0254826
0.0255104
0.0255399
0.0255723
0.0256014
0.0256332
0.0256678
0.0256903
0.0257163
0.0257499
0.0257791
0.0257877
0.0257703
0.0257423
0.0257243
0.025667
0.025606
0.0255805
0.0255152
0.0370588
0.079962
0.174307
0.312023
0.447944
0.545298
0.616861
0.664123
0.675745
0.689666
0.680162
0.677919
0.679595
0.687386
0.690143
0.699349
0.708441
0.709804
0.711869
0.71369
0.716025
0.723872
0.732409
0.737785
0.743253
0.744501
0.749198
0.763841
0.775321
0.781198
0.790158
0.792619
0.798791
0.806707
0.812515
0.815858
0.824626
0.834873
0.845473
0.848311
0.858
0.870496
0.87344
0.870276
0.871425
0.875294
0.879315
0.884826
0.892583
0.899421
0.902554
0.908751
0.913172
0.91173
0.908241
0.905181
0.0257121
0.025709
0.0257039
0.025699
0.0256914
0.0256806
0.0256727
0.0256648
0.025653
0.0256403
0.0256274
0.0256111
0.0255913
0.0255771
0.0255723
0.0255689
0.0255564
0.0255401
0.0255265
0.0255186
0.0255196
0.0255312
0.0255522
0.0255829
0.0256204
0.0256627
0.0257086
0.0257543
0.0258012
0.0258391
0.0258742
0.0259001
0.0259072
0.0259097
0.0259112
0.0259136
0.025905
0.0258809
0.0258513
0.0258208
0.0258024
0.0258054
0.0258273
0.0258963
0.0259081
0.025979
0.0259792
0.0311329
0.0642831
0.144972
0.266528
0.424886
0.547866
0.625479
0.657611
0.679472
0.690959
0.697679
0.69441
0.698514
0.703389
0.705362
0.713921
0.717626
0.720486
0.726426
0.729622
0.735179
0.745816
0.753263
0.75995
0.769672
0.773107
0.776112
0.785923
0.794059
0.804034
0.813602
0.818703
0.822511
0.826415
0.834444
0.839837
0.844031
0.856191
0.862076
0.870268
0.875256
0.878668
0.886076
0.890328
0.888981
0.88433
0.885272
0.890972
0.896826
0.906593
0.917793
0.918637
0.911923
0.0257244
0.0257186
0.0257125
0.0257041
0.0256939
0.025682
0.0256736
0.0256669
0.0256601
0.0256546
0.0256469
0.0256375
0.0256305
0.0256296
0.0256345
0.0256431
0.0256485
0.0256543
0.0256671
0.0256901
0.0257145
0.0257444
0.0257762
0.0258129
0.0258549
0.0259073
0.0259497
0.0259844
0.0260178
0.0260471
0.0260641
0.0260613
0.0260426
0.0260172
0.0259965
0.0259786
0.0259623
0.025956
0.0259569
0.0259601
0.0259807
0.026021
0.0260848
0.0261544
0.026239
0.0263615
0.0264552
0.0264146
0.0263879
0.0263651
0.0266044
0.0513941
0.129925
0.267724
0.416546
0.548736
0.631723
0.680251
0.688692
0.705575
0.712862
0.707987
0.712822
0.711907
0.714601
0.725728
0.733743
0.743332
0.753271
0.756247
0.75974
0.769547
0.77587
0.785386
0.796372
0.800532
0.804299
0.809914
0.813748
0.820708
0.833673
0.841765
0.845259
0.849386
0.848871
0.854007
0.859755
0.866274
0.869835
0.887211
0.895793
0.897717
0.897387
0.897124
0.897841
0.895648
0.889507
0.888719
0.899376
0.906584
0.0257833
0.0257804
0.0257757
0.0257677
0.025759
0.0257501
0.0257455
0.0257453
0.025749
0.025758
0.0257659
0.0257727
0.0257863
0.0258046
0.0258266
0.0258508
0.0258816
0.0259104
0.0259435
0.0259783
0.026011
0.026038
0.0260672
0.0260923
0.0261158
0.0261416
0.0261581
0.0261614
0.0261629
0.0261705
0.0261643
0.0261428
0.0261116
0.0260812
0.0260602
0.0260596
0.0260813
0.0261257
0.0261789
0.0262459
0.0263162
0.0264019
0.0264797
0.0265459
0.0266283
0.0266817
0.0266843
0.0266733
0.0266823
0.026704
0.0267558
0.026751
0.026749
0.0269215
0.0520856
0.129432
0.273734
0.437607
0.575063
0.648023
0.70058
0.704715
0.720169
0.719333
0.7142
0.723516
0.728494
0.742926
0.754378
0.760187
0.768462
0.776278
0.779268
0.7875
0.796797
0.79915
0.806719
0.81702
0.821937
0.826038
0.834028
0.839245
0.841483
0.848821
0.852882
0.859375
0.864479
0.870091
0.872971
0.873262
0.878973
0.884109
0.890059
0.892755
0.904982
0.911459
0.912339
0.905746
0.899554
0.902982
0.0258742
0.0258827
0.0258889
0.0258941
0.0259018
0.0259077
0.0259179
0.0259329
0.0259491
0.0259727
0.0259964
0.0260226
0.0260541
0.0260856
0.0261139
0.0261455
0.0261817
0.0262178
0.0262483
0.0262702
0.0262788
0.0262766
0.0262778
0.0262785
0.0262761
0.0262682
0.0262527
0.0262262
0.0262068
0.0261996
0.0261943
0.0261849
0.0261803
0.0261856
0.0262111
0.0262737
0.0263603
0.026452
0.0265489
0.0266356
0.0267203
0.0267968
0.026852
0.0269057
0.0269227
0.0269208
0.0268985
0.0268788
0.0268752
0.0269007
0.0269503
0.0270281
0.0271366
0.0273178
0.0274225
0.0275398
0.0282129
0.055384
0.151256
0.295938
0.475707
0.600418
0.672245
0.707481
0.715568
0.732332
0.734301
0.743965
0.748095
0.757056
0.773899
0.780274
0.783943
0.792895
0.800381
0.801876
0.808514
0.81701
0.81892
0.82324
0.836177
0.845008
0.849516
0.854785
0.85799
0.861477
0.863928
0.868679
0.872621
0.87463
0.880016
0.886043
0.892795
0.895916
0.89467
0.899687
0.905726
0.907643
0.904396
0.902914
0.0261166
0.0261377
0.0261584
0.0261812
0.0262069
0.0262316
0.0262584
0.0262784
0.0262938
0.0263151
0.0263361
0.0263599
0.026388
0.0264076
0.0264176
0.0264291
0.026444
0.0264572
0.0264614
0.0264589
0.0264443
0.0264219
0.0263999
0.0263828
0.0263621
0.0263386
0.0263155
0.0262969
0.0262832
0.026292
0.0263189
0.0263574
0.0264116
0.0264792
0.0265654
0.0266791
0.0267911
0.0268905
0.0269703
0.0270356
0.0270882
0.0271243
0.0271594
0.0271739
0.0271661
0.0271436
0.0271182
0.027119
0.0271466
0.0272049
0.0272952
0.0274127
0.027582
0.0278138
0.0280388
0.0282958
0.0284575
0.0284563
0.0284102
0.0302395
0.0662431
0.180911
0.340671
0.529044
0.634953
0.700348
0.73294
0.755449
0.756035
0.760548
0.772512
0.772779
0.784262
0.798846
0.803747
0.80701
0.812763
0.81589
0.818968
0.827521
0.839004
0.843629
0.846762
0.850104
0.855365
0.865142
0.873595
0.877841
0.880145
0.8807
0.882515
0.885977
0.890616
0.895809
0.900121
0.904104
0.90893
0.912332
0.912166
0.911407
0.0265528
0.0265718
0.0265913
0.0266118
0.0266316
0.0266458
0.0266477
0.0266379
0.0266268
0.0266183
0.0266086
0.0266057
0.0266105
0.0266079
0.0265937
0.0265748
0.026558
0.0265402
0.0265202
0.0265007
0.0264895
0.0264792
0.0264687
0.0264637
0.0264625
0.0264647
0.0264827
0.0265105
0.0265488
0.0266087
0.0266904
0.0267803
0.0268811
0.0269768
0.0270703
0.0271569
0.0272326
0.0272843
0.0273138
0.0273343
0.0273415
0.027355
0.0273705
0.0273728
0.0273552
0.0273392
0.0273423
0.0273846
0.0274654
0.0275886
0.0277306
0.0279092
0.0281444
0.0283685
0.0285827
0.0288047
0.0288735
0.0289228
0.0289927
0.0291573
0.0292881
0.0294337
0.0359176
0.0942454
0.235697
0.409847
0.579834
0.663501
0.731937
0.76521
0.781278
0.779021
0.793098
0.794448
0.792732
0.806655
0.820311
0.822404
0.826951
0.834229
0.837825
0.839301
0.846824
0.855382
0.861627
0.868698
0.87391
0.873951
0.874638
0.879759
0.88705
0.89274
0.89676
0.899466
0.898642
0.900986
0.905172
0.910661
0.913055
0.909676
0.0268999
0.0268925
0.0268823
0.0268704
0.0268624
0.0268418
0.0268103
0.0267748
0.0267383
0.0267052
0.0266724
0.0266425
0.0266268
0.0266207
0.0266133
0.0266025
0.0265912
0.0265834
0.0265787
0.0265878
0.0266227
0.0266675
0.0267043
0.0267468
0.0267978
0.0268653
0.026948
0.0270335
0.0271138
0.0271986
0.0272822
0.0273606
0.0274368
0.0275025
0.0275497
0.0275801
0.0275959
0.027593
0.0275823
0.0275616
0.0275515
0.0275545
0.0275683
0.0275682
0.0275751
0.0275967
0.0276532
0.0277737
0.0279525
0.0281382
0.028317
0.0285437
0.0287644
0.0289854
0.0291929
0.0293846
0.0295377
0.0296487
0.0297315
0.0300441
0.0305499
0.0314899
0.0325527
0.0330945
0.0335259
0.0498647
0.131308
0.278669
0.467456
0.613898
0.695154
0.760193
0.817808
0.800105
0.799734
0.817058
0.817677
0.814233
0.828608
0.842559
0.845715
0.846813
0.851918
0.855459
0.85806
0.865452
0.872934
0.878502
0.882517
0.887757
0.890874
0.89271
0.892817
0.893451
0.896285
0.897935
0.900478
0.905851
0.910797
0.909202
0.026786
0.0267791
0.0267721
0.0267626
0.0267504
0.0267332
0.0267141
0.0266982
0.0266899
0.0266864
0.0266807
0.0266772
0.0266942
0.0267297
0.0267787
0.0268355
0.0268929
0.0269487
0.0270072
0.0270839
0.0271891
0.0272896
0.0273722
0.0274461
0.0275166
0.0275879
0.0276623
0.027731
0.0277809
0.027815
0.027836
0.0278521
0.0278633
0.0278651
0.0278435
0.0278252
0.0277901
0.0277471
0.0277031
0.0276748
0.0276845
0.0277208
0.0277731
0.0278399
0.0279301
0.0280471
0.0282337
0.0284718
0.0287206
0.0289291
0.0291641
0.0293555
0.0295506
0.0297503
0.0299316
0.0300939
0.0303768
0.0307784
0.0313006
0.0320297
0.0330392
0.0341758
0.035034
0.0358594
0.0367498
0.037282
0.0377987
0.0382381
0.0670473
0.168621
0.335969
0.518452
0.647838
0.724374
0.782678
0.844731
0.831466
0.822856
0.839405
0.837517
0.836801
0.846281
0.858752
0.86299
0.866846
0.870725
0.872288
0.876113
0.880984
0.886056
0.891888
0.897164
0.900207
0.902452
0.906155
0.907679
0.90646
0.90375
0.903936
0.9061
0.0268187
0.0268535
0.0268914
0.0269309
0.0269708
0.0270115
0.0270635
0.0271304
0.0272065
0.027283
0.0273427
0.0273933
0.0274616
0.0275431
0.0276287
0.0277251
0.0278148
0.027879
0.0279297
0.0279917
0.0280588
0.0281075
0.0281418
0.0281656
0.028177
0.0281773
0.0281741
0.0281725
0.0281613
0.0281324
0.0280998
0.0280605
0.0280174
0.0279672
0.0279115
0.0278755
0.0278416
0.0278124
0.0277961
0.0278287
0.0279297
0.0280755
0.0282538
0.0284567
0.0286914
0.0289661
0.0292758
0.0295849
0.0298204
0.0300316
0.0302121
0.030394
0.030591
0.0308044
0.0310884
0.0314632
0.0320769
0.0329422
0.0339746
0.0350679
0.0361076
0.036961
0.0377965
0.0385378
0.0391649
0.0398632
0.0406222
0.0418222
0.0428616
0.0437928
0.0465145
0.089228
0.19793
0.391644
0.563637
0.677383
0.765079
0.813943
0.870687
0.844225
0.844929
0.849975
0.850908
0.853161
0.869089
0.876435
0.878785
0.881343
0.883387
0.883855
0.887328
0.893387
0.898989
0.903044
0.905865
0.908189
0.910198
0.910032
0.909435
0.909532
0.0279842
0.0280576
0.0281226
0.0281775
0.0282263
0.0282751
0.0283245
0.0283645
0.0283979
0.0284256
0.0284392
0.0284473
0.0284634
0.0284854
0.0285067
0.0285236
0.0285239
0.0285046
0.0284754
0.0284491
0.0284144
0.0283701
0.0283332
0.0282982
0.0282522
0.0282045
0.0281585
0.0281231
0.0281005
0.0280869
0.0280832
0.0280823
0.0280482
0.0280148
0.0279918
0.0280159
0.028081
0.0281989
0.0283519
0.0285856
0.0288521
0.0291508
0.0294419
0.0297513
0.0300912
0.0304324
0.0307917
0.0310377
0.0312362
0.0314417
0.0316474
0.0319325
0.0322628
0.0327658
0.0334293
0.0342799
0.0352858
0.036253
0.0373082
0.0382186
0.0389727
0.0396894
0.0402824
0.04091
0.0416365
0.0424759
0.0436259
0.0450847
0.0464494
0.0475003
0.0481554
0.0488552
0.0494841
0.0588979
0.115138
0.237548
0.447583
0.621325
0.715718
0.786457
0.84499
0.881981
0.869939
0.858924
0.869282
0.865726
0.873958
0.884853
0.891458
0.891523
0.891732
0.892828
0.894937
0.901062
0.905511
0.908343
0.910859
0.911702
0.909482
0.906681
0.0290112
0.0289935
0.0289765
0.0289472
0.0289019
0.0288718
0.028838
0.0287803
0.0287376
0.0286994
0.0286435
0.028602
0.0285672
0.028538
0.0285177
0.0284909
0.0284446
0.0283792
0.028334
0.0282907
0.0282333
0.0281886
0.0281574
0.0281565
0.02815
0.0281344
0.0281349
0.0281627
0.028222
0.0283055
0.028398
0.0285073
0.0286397
0.0287899
0.0289645
0.0291898
0.0294707
0.0297871
0.0301393
0.0304541
0.0307449
0.0310257
0.0312914
0.0315832
0.0318697
0.0321701
0.0324308
0.0326405
0.0329283
0.0332721
0.033731
0.0343552
0.0351751
0.0361568
0.0371652
0.0382512
0.039118
0.0399433
0.0405921
0.0410994
0.0416272
0.0421692
0.0428054
0.0436427
0.0447437
0.045947
0.0473769
0.0486857
0.0495674
0.0503029
0.0513363
0.0525645
0.053864
0.0554206
0.056535
0.0574638
0.073618
0.151553
0.285348
0.501398
0.670275
0.756671
0.824028
0.860967
0.901119
0.87768
0.884973
0.881231
0.877555
0.881911
0.893845
0.899589
0.901716
0.904502
0.902827
0.901489
0.903775
0.907925
0.910337
0.910342
0.0284006
0.0283857
0.0283682
0.0283223
0.0282653
0.0282413
0.0282371
0.0282312
0.0282199
0.0282108
0.0282027
0.0281953
0.0281959
0.0282052
0.0282287
0.0282522
0.0282685
0.0282832
0.0283008
0.0283339
0.0283925
0.0284824
0.028601
0.0287568
0.0289416
0.0291471
0.0293666
0.0295991
0.02985
0.0301154
0.0303923
0.0306679
0.0309327
0.0312041
0.0314785
0.0317705
0.0320558
0.0323091
0.0325393
0.03273
0.0329258
0.0331272
0.0333719
0.0336553
0.0339868
0.0343632
0.0347636
0.0353175
0.035993
0.0367602
0.037687
0.0385771
0.0395251
0.0403422
0.0411326
0.0417781
0.0423411
0.0428531
0.0431963
0.0436636
0.044224
0.0450117
0.046092
0.047364
0.048656
0.0499498
0.0510819
0.0520236
0.0528452
0.0537804
0.0549898
0.0560891
0.0573822
0.0590645
0.0607821
0.0626812
0.063328
0.0638719
0.0646235
0.0932249
0.188979
0.365861
0.576483
0.721591
0.804338
0.84431
0.904986
0.901538
0.894876
0.887417
0.887967
0.888856
0.896242
0.906671
0.908618
0.907748
0.906486
0.905881
0.906913
0.909297
0.028464
0.0285465
0.0286298
0.0287067
0.0287888
0.0288838
0.0289958
0.0291263
0.0292507
0.0293569
0.0294668
0.029607
0.0297583
0.0298899
0.0300135
0.0301465
0.0303152
0.0305114
0.0307051
0.0308752
0.0310463
0.0312427
0.0314677
0.0316903
0.031896
0.0321008
0.0323122
0.0325157
0.0327082
0.0328987
0.0330881
0.0332675
0.033469
0.0336828
0.0339052
0.0341351
0.0343605
0.0345923
0.0348304
0.0351165
0.03547
0.0359277
0.0364572
0.0370824
0.0377388
0.0384633
0.0392105
0.0400134
0.0407451
0.0415048
0.0421373
0.042739
0.0432577
0.0437001
0.0441384
0.0445364
0.0450245
0.0454992
0.046144
0.046987
0.0481039
0.0493717
0.0507931
0.0519985
0.0529572
0.0538982
0.0546301
0.0553532
0.0562535
0.0574008
0.0587577
0.0601768
0.0622423
0.0640117
0.0653593
0.066367
0.0676257
0.0691413
0.0712908
0.072563
0.0737097
0.0759431
0.120283
0.250061
0.437295
0.650178
0.785493
0.828188
0.876892
0.913471
0.91485
0.895577
0.899067
0.898799
0.898719
0.903966
0.910423
0.912378
0.910316
0.908079
0.0320398
0.0321145
0.0321913
0.0322652
0.0323436
0.0324244
0.0325048
0.0325948
0.032695
0.0327952
0.0328911
0.0329922
0.0330961
0.0332031
0.0333128
0.0334352
0.0335617
0.0336946
0.0338301
0.0339762
0.0341286
0.0342818
0.0344328
0.0345856
0.0347464
0.0349152
0.0350932
0.0352825
0.0354909
0.0357146
0.0359624
0.0362423
0.0365565
0.0369031
0.0372971
0.0377165
0.0381692
0.0386432
0.0391819
0.039744
0.0403662
0.0409808
0.0416066
0.0421703
0.0427478
0.0432766
0.0437812
0.0442456
0.0446698
0.0450793
0.045428
0.0457974
0.0461373
0.0465883
0.0470868
0.0477669
0.0486407
0.0496834
0.0508502
0.052103
0.053215
0.0544327
0.0553897
0.0561229
0.056796
0.0574265
0.058173
0.0592238
0.0605705
0.062304
0.0639623
0.0659625
0.06755
0.0683878
0.0693191
0.0705479
0.0723
0.0742478
0.0759587
0.0774148
0.0789858
0.0807539
0.0819846
0.0828768
0.0925519
0.172695
0.329677
0.544284
0.736627
0.833105
0.877665
0.890106
0.922523
0.914648
0.900278
0.901467
0.901749
0.90648
0.911909
0.910744
0.035141
0.0352111
0.0352975
0.0353983
0.0355083
0.0356163
0.0357177
0.0358244
0.0359542
0.0360962
0.0362419
0.0363904
0.0365455
0.0367085
0.0368888
0.0370911
0.0373034
0.0375115
0.0377256
0.0379567
0.0382013
0.0384651
0.0387312
0.0390109
0.0392957
0.0396013
0.03991
0.0402379
0.0405672
0.0409171
0.0412644
0.0416301
0.0420011
0.0423821
0.0427564
0.0431324
0.0435041
0.0438692
0.0442282
0.0445947
0.0449516
0.0453023
0.045642
0.0459621
0.046307
0.0466335
0.0470028
0.0473707
0.0478135
0.0482894
0.0488505
0.0494921
0.0502638
0.0511675
0.0521649
0.0532953
0.0544121
0.0554524
0.056504
0.0572857
0.0580783
0.0588341
0.0593753
0.0600565
0.0608531
0.0617959
0.0632222
0.0648487
0.0667314
0.0682297
0.069587
0.0709912
0.0717774
0.0727654
0.0741999
0.0760843
0.077769
0.0792407
0.08053
0.0820423
0.0837154
0.0854354
0.0867897
0.0885
0.0898298
0.0904773
0.0911007
0.127113
0.240201
0.449877
0.666804
0.805414
0.882421
0.88947
0.907279
0.921063
0.9116
0.909342
0.906816
0.905323
0.0403223
0.0404204
0.0405277
0.0406481
0.0407725
0.0409111
0.041057
0.0411841
0.0413066
0.0414599
0.0416344
0.0417989
0.0419505
0.0421052
0.0422764
0.042458
0.0426436
0.0428246
0.0430061
0.0431923
0.0433908
0.0435885
0.0437949
0.044003
0.0442165
0.0444299
0.0446498
0.044873
0.0451047
0.0453456
0.0455953
0.0458558
0.0461215
0.0464023
0.0466861
0.0469816
0.0472769
0.0475877
0.0479139
0.0482548
0.0486099
0.0489917
0.0493934
0.0498358
0.0503259
0.0508962
0.0515586
0.0523094
0.0531773
0.0540561
0.0549825
0.0558726
0.0567679
0.0575895
0.0583994
0.0591688
0.0598297
0.060509
0.0610769
0.0616312
0.062354
0.0630412
0.0640645
0.0652834
0.0665507
0.0681686
0.0697459
0.0713604
0.0727496
0.0738976
0.0749555
0.0758104
0.0770648
0.0786383
0.0802388
0.081703
0.0829993
0.0844021
0.0858611
0.0872413
0.0885517
0.0897305
0.0909365
0.0921584
0.0930321
0.0940736
0.0951519
0.0958148
0.0962098
0.106217
0.178104
0.358726
0.593814
0.750448
0.874419
0.886032
0.899841
0.917661
0.910067
0.902654
0.0451958
0.0452868
0.0453741
0.0454631
0.0455617
0.0456731
0.0458
0.0459283
0.0460475
0.0461665
0.0462968
0.0464397
0.0465901
0.0467442
0.0469007
0.0470615
0.0472306
0.0474089
0.0475966
0.0477885
0.0479856
0.0481889
0.0483977
0.0486128
0.0488356
0.0490622
0.0492993
0.0495478
0.0498166
0.0501022
0.0504089
0.0507397
0.0510987
0.051484
0.0518987
0.0523442
0.0528145
0.0533198
0.0538417
0.0543956
0.0549518
0.0555375
0.0561023
0.0566891
0.057289
0.0579299
0.0585682
0.0592407
0.0598944
0.0605289
0.0611399
0.0616959
0.0622579
0.0627609
0.063325
0.0638682
0.064533
0.0652622
0.0660636
0.0670979
0.0682434
0.0696632
0.0712977
0.0727474
0.0742328
0.0754665
0.0765227
0.0775501
0.078412
0.0794057
0.0804237
0.0816014
0.0829073
0.0843564
0.0857208
0.087031
0.0882981
0.0894022
0.0903582
0.091266
0.0922719
0.0934068
0.0944961
0.0953079
0.096072
0.0966602
0.0971787
0.0977415
0.0983864
0.0987709
0.0991524
0.0992498
0.13374
0.285599
0.536021
0.706703
0.860074
0.891207
0.898695
0.904725
0.0511163
0.051228
0.05135
0.0514783
0.0516012
0.0517271
0.0518802
0.0520413
0.0521861
0.0523325
0.052497
0.0526751
0.05286
0.0530485
0.0532343
0.0534226
0.0536229
0.0538355
0.0540526
0.0542713
0.0544941
0.0547258
0.0549656
0.0552148
0.0554728