/*--------------------------------*- C++ -*----------------------------------*\
  =========                 |
  \\      /  F ield         | OpenFOAM: The Open Source CFD Toolbox
   \\    /   O peration     | Website:  https://openfoam.org
    \\  /    A nd           | Version:  7
     \\/     M anipulation  |
\*---------------------------------------------------------------------------*/
FoamFile
{
    version     2.0;
    format      ascii;
    class       volScalarField;
    location    "7.5";
    object      T;
}
// * * * * * * * * * * * * * * * * * * * * * * * * * * * * * * * * * * * * * //

dimensions      [0 0 0 1 0 0 0];

internalField   nonuniform List<scalar> 
90000
(
2.30187
2.29223
2.32887
2.35289
2.33986
2.31432
2.27694
2.21734
2.16733
2.12142
2.07021
2.01655
1.96144
1.90823
1.85659
1.80736
1.76077
1.71591
1.67289
1.63373
1.59785
1.56558
1.53558
1.50799
1.48235
1.45875
1.43632
1.41555
1.39565
1.37719
1.35941
1.3428
1.32695
1.31237
1.29858
1.28607
1.27597
1.26688
1.25838
1.25052
1.24277
1.23545
1.22832
1.22133
1.21491
1.20931
1.20456
1.20049
1.19681
1.19343
1.19033
1.18759
1.1871
1.18796
1.18993
1.19277
1.1965
1.20094
1.2048
1.20762
1.20912
1.21042
1.21176
1.21157
1.21143
1.21146
1.21146
1.21187
1.21367
1.21711
1.22057
1.22305
1.22491
1.22452
1.22393
1.22288
1.2238
1.22629
1.23079
1.23517
1.23654
1.23919
1.24108
1.24579
1.24987
1.25374
1.25402
1.25533
1.25895
1.26042
1.26298
1.26472
1.26606
1.26614
1.26725
1.2693
1.26907
1.27064
1.27146
1.27113
1.95524
2.49509
2.71117
2.76252
2.72753
2.68779
2.66275
2.64426
2.62267
2.59883
2.56794
2.53245
2.49845
2.46063
2.41699
2.36736
2.31549
2.26396
2.21306
2.16371
2.11657
2.072
2.02904
1.98883
1.95006
1.91286
1.87556
1.83865
1.80058
1.76278
1.72344
1.68405
1.64315
1.60163
1.56007
1.52039
1.48321
1.44937
1.41816
1.3897
1.36345
1.33979
1.31809
1.29874
1.28147
1.26632
1.25327
1.24213
1.23242
1.22417
1.21694
1.21098
1.20697
1.20734
1.20812
1.20876
1.2094
1.21034
1.2114
1.21194
1.21152
1.21134
1.21118
1.21032
1.21002
1.21036
1.21195
1.21516
1.21878
1.22337
1.2267
1.22808
1.22771
1.22758
1.22681
1.22775
1.2312
1.23545
1.24095
1.24249
1.24369
1.24609
1.24869
1.25488
1.25675
1.26017
1.25938
1.26127
1.26487
1.26621
1.26881
1.26963
1.27059
1.27073
1.2721
1.2733
1.27359
1.2746
1.27456
1.27464
0.528553
0.593244
0.78723
1.66212
2.20303
2.5085
2.69774
2.77177
2.7493
2.7248
2.72084
2.70564
2.68572
2.66443
2.64743
2.63037
2.6139
2.59738
2.57642
2.55183
2.52262
2.48941
2.45583
2.42113
2.38716
2.35365
2.31994
2.28607
2.25075
2.21393
2.17366
2.13228
2.08968
2.04395
1.99501
1.94407
1.89193
1.84022
1.78866
1.7387
1.68989
1.64262
1.59713
1.55443
1.51475
1.4781
1.44443
1.41391
1.38624
1.36135
1.33926
1.31967
1.30141
1.28549
1.27219
1.26083
1.25089
1.24207
1.23451
1.22803
1.2219
1.21651
1.2128
1.21127
1.21179
1.21384
1.2174
1.22174
1.2251
1.22721
1.22821
1.2287
1.22846
1.22858
1.2302
1.23408
1.24004
1.24352
1.2481
1.24862
1.2504
1.2534
1.257
1.26275
1.26361
1.26558
1.26464
1.26782
1.27082
1.27223
1.27466
1.27484
1.27549
1.27539
1.27699
1.27773
1.27834
1.27772
1.27718
1.2775
0.522337
0.521643
0.520932
0.519779
0.572916
0.817536
1.20947
1.88091
2.20943
2.41828
2.57555
2.67232
2.6776
2.66927
2.66274
2.66094
2.65471
2.64237
2.63267
2.62632
2.62024
2.61341
2.60646
2.5972
2.58609
2.57326
2.55961
2.54471
2.52821
2.50959
2.48657
2.45833
2.42756
2.39529
2.36137
2.32528
2.28637
2.24522
2.19906
2.15176
2.10414
2.0557
2.0035
1.94888
1.89155
1.83363
1.77665
1.72026
1.66478
1.61094
1.5599
1.51152
1.46582
1.42405
1.38729
1.35564
1.3287
1.30572
1.28678
1.27147
1.25853
1.2478
1.23999
1.23456
1.23263
1.23198
1.23209
1.23266
1.2332
1.23273
1.23153
1.22978
1.22988
1.23165
1.23611
1.2418
1.24693
1.24978
1.25238
1.25283
1.25575
1.25939
1.26525
1.26762
1.26854
1.26948
1.27091
1.27543
1.27636
1.27779
1.28008
1.27997
1.28039
1.28053
1.28187
1.28257
1.28268
1.28127
1.28108
1.28131
0.517602
0.517013
0.516361
0.515756
0.514838
0.51377
0.512756
0.511184
0.61195
0.893091
1.31148
1.81949
2.1425
2.31748
2.46123
2.57527
2.62005
2.61857
2.61673
2.61702
2.61716
2.61194
2.60552
2.60185
2.5976
2.59276
2.58848
2.58415
2.58031
2.57668
2.57387
2.57064
2.56473
2.55579
2.5446
2.53082
2.5148
2.49613
2.47525
2.44696
2.41321
2.38147
2.34754
2.30961
2.26712
2.2181
2.16895
2.11891
2.06544
2.00769
1.94489
1.88038
1.815
1.74802
1.68182
1.6198
1.5639
1.51331
1.46861
1.42968
1.39579
1.36595
1.34097
1.3189
1.3008
1.28551
1.27289
1.26118
1.25209
1.24357
1.23805
1.23528
1.23654
1.24128
1.24562
1.24998
1.25222
1.25443
1.25608
1.25731
1.26176
1.26536
1.27126
1.27123
1.27212
1.27469
1.27777
1.28179
1.28121
1.28266
1.28408
1.28458
1.2849
1.28562
1.28663
1.28676
1.28726
1.28593
1.28611
1.28594
0.511542
0.510872
0.510166
0.509413
0.508623
0.50781
0.506958
0.506167
0.504951
0.503603
0.502347
0.500447
0.613864
0.907377
1.30385
1.70106
2.0693
2.23779
2.3745
2.47629
2.5364
2.56221
2.56902
2.57563
2.58317
2.58749
2.58718
2.58601
2.58567
2.58344
2.57971
2.57597
2.57466
2.57248
2.56915
2.56388
2.55822
2.55252
2.54838
2.54628
2.54064
2.53208
2.52124
2.50706
2.48934
2.46828
2.43878
2.40426
2.37031
2.33317
2.28983
2.23722
2.18244
2.12315
2.05768
1.98679
1.91351
1.8413
1.76998
1.70105
1.6366
1.57542
1.51947
1.46852
1.4243
1.38653
1.35477
1.32947
1.30865
1.2925
1.2798
1.27206
1.26873
1.26747
1.26572
1.26524
1.26321
1.26322
1.26319
1.265
1.26977
1.27259
1.27612
1.2754
1.27653
1.28074
1.28543
1.28649
1.28581
1.28754
1.28986
1.28995
1.28981
1.29034
1.29152
1.2921
1.2924
1.29093
1.29163
1.29108
0.504863
0.504181
0.503458
0.502683
0.501891
0.501051
0.500188
0.499263
0.498321
0.497358
0.496348
0.495402
0.494033
0.492519
0.491131
0.489022
0.600181
0.886264
1.27055
1.6103
1.89615
2.14488
2.2965
2.40389
2.46956
2.50858
2.52581
2.53447
2.54667
2.54842
2.54902
2.55151
2.55598
2.56126
2.56426
2.56377
2.56301
2.5614
2.55777
2.55304
2.5538
2.55228
2.5488
2.54338
2.53753
2.53342
2.53156
2.52493
2.51556
2.5031
2.48694
2.46498
2.43329
2.39352
2.35303
2.30729
2.25307
2.19652
2.13872
2.07502
2.00449
1.93028
1.85537
1.779
1.70515
1.63742
1.57559
1.52109
1.47466
1.43587
1.40246
1.3738
1.34818
1.32644
1.30958
1.29767
1.28889
1.2859
1.28476
1.28603
1.28666
1.28563
1.28272
1.28106
1.28483
1.29001
1.29321
1.29215
1.29163
1.29381
1.29614
1.29495
1.29488
1.29598
1.29707
1.29756
1.29737
1.29796
1.29843
1.29653
0.497983
0.4973
0.496573
0.495804
0.495009
0.494167
0.493305
0.492394
0.491462
0.490458
0.48945
0.488373
0.487306
0.48619
0.48507
0.483995
0.482487
0.480791
0.479314
0.477025
0.531658
0.805897
1.20933
1.56343
1.80814
1.98966
2.18517
2.32839
2.40913
2.4465
2.46761
2.48089
2.5002
2.51316
2.51015
2.51121
2.51603
2.52241
2.52881
2.53471
2.54052
2.54466
2.54694
2.54632
2.54457
2.5423
2.53789
2.5385
2.53671
2.53342
2.52887
2.5231
2.51882
2.50903
2.49567
2.47801
2.4564
2.42469
2.38509
2.34666
2.30255
2.24739
2.18543
2.12189
2.05064
1.9711
1.89337
1.81572
1.74186
1.67611
1.61604
1.56025
1.51032
1.4669
1.43028
1.40139
1.37823
1.36258
1.34969
1.33757
1.32209
1.30938
1.30227
1.30271
1.30731
1.30805
1.30669
1.3019
1.3028
1.30526
1.30489
1.30222
1.30248
1.3036
1.30337
1.30385
1.304
1.30513
1.30509
1.30248
0.490951
0.490265
0.489523
0.48876
0.487956
0.487135
0.486276
0.485392
0.484467
0.483518
0.482536
0.48153
0.480506
0.47944
0.478369
0.477249
0.476117
0.474936
0.473743
0.472527
0.471211
0.469353
0.467654
0.465103
0.504025
0.691231
1.07591
1.48901
1.76229
1.93869
2.06783
2.24026
2.34884
2.39284
2.41501
2.42032
2.44016
2.46261
2.47398
2.47197
2.47684
2.48844
2.49689
2.50132
2.50428
2.51335
2.52144
2.52698
2.52846
2.53187
2.53323
2.53038
2.52348
2.52285
2.51881
2.51133
2.50358
2.49617
2.49022
2.47868
2.46285
2.43927
2.40792
2.36607
2.32073
2.2674
2.20683
2.15143
2.08924
2.02087
1.95231
1.87898
1.80428
1.73256
1.668
1.61039
1.55974
1.51712
1.47727
1.44611
1.41897
1.3961
1.37745
1.36783
1.35675
1.34002
1.33128
1.32875
1.32891
1.32695
1.32019
1.31863
1.31834
1.31475
1.31024
1.31159
1.31398
1.31406
1.31205
1.30911
0.483511
0.48284
0.482122
0.481384
0.480615
0.479837
0.479022
0.478182
0.477303
0.476411
0.475476
0.474543
0.473563
0.472576
0.471531
0.470509
0.469416
0.468308
0.467096
0.465872
0.464573
0.463222
0.461862
0.460527
0.459072
0.457157
0.455446
0.452883
0.48358
0.660612
0.96821
1.39026
1.71009
1.91655
2.0431
2.15913
2.28579
2.34437
2.38045
2.37342
2.38207
2.41157
2.41637
2.41624
2.42363
2.44854
2.46406
2.46904
2.47418
2.48517
2.49441
2.49801
2.50289
2.51028
2.51381
2.51221
2.50745
2.50432
2.50136
2.4989
2.49244
2.4837
2.47781
2.46662
2.45002
2.42993
2.40651
2.37134
2.33667
2.29499
2.2416
2.18634
2.12324
2.05049
1.97989
1.91171
1.8436
1.78225
1.72688
1.67492
1.62401
1.57593
1.52823
1.48834
1.4544
1.4317
1.41717
1.40506
1.38757
1.37058
1.36326
1.35919
1.35109
1.34013
1.33579
1.3338
1.3289
1.32364
1.32003
1.31715
0.475858
0.475238
0.47459
0.473917
0.473227
0.472517
0.471782
0.47101
0.470219
0.469395
0.468538
0.467655
0.466756
0.465823
0.464852
0.463871
0.462841
0.461803
0.460679
0.459535
0.458307
0.457071
0.455734
0.454432
0.453052
0.45167
0.450304
0.448968
0.447442
0.445472
0.443684
0.44113
0.462251
0.652349
0.98265
1.35315
1.66299
1.89138
2.03794
2.14396
2.2349
2.29981
2.33424
2.32549
2.33321
2.36267
2.37555
2.37132
2.37877
2.40471
2.42804
2.43583
2.4446
2.45482
2.46278
2.46643
2.46982
2.48065
2.48847
2.49205
2.49132
2.48829
2.48322
2.4803
2.47506
2.4671
2.46144
2.46074
2.45242
2.43848
2.41689
2.38222
2.34418
2.30245
2.2543
2.20337
2.15353
2.09737
2.03856
1.97517
1.90339
1.83452
1.76812
1.71011
1.66189
1.62393
1.58865
1.55086
1.51842
1.49172
1.47003
1.44654
1.42868
1.41331
1.40023
1.38611
1.37167
1.36295
1.35819
1.3491
0.468535
0.467976
0.467402
0.466817
0.466207
0.465571
0.464893
0.464176
0.463441
0.462667
0.461863
0.46103
0.460192
0.459302
0.458386
0.457432
0.456456
0.455454
0.454407
0.453296
0.452147
0.450966
0.449731
0.448504
0.447209
0.445941
0.444617
0.443319
0.441936
0.440533
0.439151
0.43784
0.436529
0.43488
0.433428
0.431432
0.450488
0.656623
1.02804
1.4037
1.68989
1.89707
2.04382
2.14224
2.20958
2.26147
2.30069
2.289
2.2971
2.31888
2.34159
2.33657
2.34524
2.36556
2.38145
2.39111
2.40572
2.42125
2.42994
2.43867
2.44688
2.45241
2.46312
2.47138
2.47221
2.4708
2.46879
2.46645
2.46806
2.46417
2.45816
2.45252
2.44205
2.42724
2.40942
2.38695
2.35317
2.31702
2.27649
2.22982
2.18198
2.12589
2.05908
1.99913
1.93833
1.8812
1.83167
1.78716
1.7399
1.69411
1.65363
1.6211
1.58968
1.55388
1.51781
1.49088
1.47158
1.45632
1.44494
1.42222
0.461689
0.461187
0.460676
0.460149
0.459589
0.459004
0.458369
0.457695
0.456996
0.456253
0.455471
0.454666
0.453863
0.453022
0.452139
0.45123
0.450299
0.449341
0.448351
0.447282
0.446191
0.445072
0.443959
0.442861
0.441757
0.440629
0.439475
0.438332
0.437157
0.436004
0.434811
0.433686
0.432551
0.431397
0.430272
0.429223
0.427946
0.426243
0.424589
0.4223
0.473075
0.733467
1.14253
1.48829
1.7517
1.93521
2.07772
2.1535
2.20307
2.232
2.26766
2.25764
2.26102
2.27588
2.28503
2.29297
2.30938
2.32812
2.34096
2.35676
2.37371
2.38913
2.40424
2.4172
2.42456
2.43173
2.44152
2.4518
2.46113
2.46139
2.46028
2.45664
2.45615
2.45116
2.44677
2.44305
2.43375
2.42164
2.40559
2.38215
2.35014
2.316
2.27519
2.23146
2.19462
2.1528
2.10437
2.05238
2.00144
1.94944
1.90083
1.85614
1.81107
1.76158
1.71193
1.67237
1.6392
1.60826
1.58329
1.54359
0.455217
0.454756
0.454269
0.453751
0.453204
0.452629
0.45201
0.451353
0.450684
0.449975
0.449219
0.448433
0.447629
0.446809
0.445972
0.445135
0.444287
0.443412
0.442492
0.441516
0.440529
0.43953
0.438554
0.437623
0.436723
0.435796
0.434873
0.43393
0.432971
0.431984
0.430964
0.429948
0.428896
0.427821
0.426724
0.425559
0.42429
0.422884
0.421402
0.419988
0.418236
0.416424
0.414848
0.412835
0.5472
0.898588
1.32633
1.6416
1.85629
2.00183
2.10091
2.15707
2.18057
2.21191
2.21141
2.21512
2.222
2.23734
2.24995
2.2678
2.28508
2.29902
2.31416
2.32875
2.3429
2.36191
2.38072
2.39579
2.41043
2.41844
2.42659
2.44075
2.44831
2.44818
2.45032
2.447
2.44419
2.44175
2.43481
2.42358
2.41525
2.40167
2.38686
2.3652
2.34671
2.32661
2.29846
2.25912
2.21384
2.17408
2.14112
2.10414
2.05892
2.00525
1.94976
1.9007
1.85835
1.8178
1.78451
1.72837
0.449058
0.448596
0.4481
0.447577
0.447035
0.446462
0.445851
0.445213
0.444572
0.443904
0.443191
0.442463
0.441708
0.440929
0.440148
0.439398
0.438666
0.437928
0.437145
0.436321
0.435493
0.434675
0.433847
0.433065
0.432348
0.431631
0.430896
0.430136
0.429315
0.428415
0.427467
0.426478
0.425405
0.424288
0.423104
0.421873
0.420557
0.419169
0.417747
0.416315
0.414911
0.413581
0.412293
0.411228
0.409928
0.408864
0.407196
0.461554
0.752958
1.1823
1.50748
1.77935
1.95322
2.06446
2.11315
2.1386
2.15756
2.17716
2.18125
2.18977
2.20064
2.21159
2.22839
2.24222
2.25547
2.27233
2.28732
2.30448
2.32722
2.34757
2.366
2.38419
2.39486
2.40297
2.41512
2.4242
2.4331
2.43817
2.43517
2.42922
2.42212
2.41728
2.40937
2.40028
2.39383
2.38264
2.37356
2.36091
2.34005
2.31344
2.28728
2.26193
2.23165
2.19221
2.14678
2.11343
2.08213
2.04518
2.00726
1.94317
0.442743
0.442309
0.441845
0.441367
0.440871
0.440338
0.439778
0.439193
0.438608
0.438029
0.437433
0.436832
0.436209
0.435567
0.434924
0.4343
0.43371
0.433139
0.432533
0.431892
0.431228
0.430576
0.429881
0.429191
0.428543
0.427925
0.427268
0.426557
0.42576
0.424834
0.423839
0.422783
0.421655
0.420447
0.419163
0.417865
0.416586
0.415365
0.414192
0.413024
0.411889
0.410809
0.409817
0.408831
0.407854
0.406941
0.405816
0.404168
0.402629
0.400685
0.403579
0.654309
1.11133
1.4821
1.73996
1.91762
2.02314
2.08397
2.10625
2.12985
2.14445
2.14502
2.1539
2.1608
2.17024
2.1878
2.20466
2.22351
2.24228
2.2571
2.27343
2.29409
2.3113
2.33173
2.35165
2.36545
2.37782
2.39028
2.39688
2.40327
2.41257
2.41215
2.40772
2.40312
2.39675
2.39209
2.38551
2.37704
2.37401
2.36602
2.34992
2.33063
2.31509
2.29759
2.27337
2.24803
2.22208
2.19696
2.17519
2.12236
0.436945
0.436558
0.436154
0.435744
0.435312
0.434848
0.434375
0.433881
0.433386
0.432915
0.432453
0.432
0.431529
0.431038
0.430584
0.430118
0.429658
0.429189
0.428708
0.428176
0.427601
0.426985
0.426341
0.425667
0.425004
0.424329
0.423588
0.422797
0.421906
0.420928
0.419864
0.418754
0.417635
0.41647
0.415264
0.414099
0.413049
0.41216
0.411328
0.410489
0.409594
0.40873
0.407846
0.406897
0.405984
0.404853
0.403418
0.401931
0.400521
0.399292
0.398025
0.396736
0.395717
0.394459
0.634205
1.07816
1.45972
1.72299
1.90456
1.99891
2.05346
2.07083
2.09712
2.10159
2.10301
2.11552
2.12796
2.14789
2.16356
2.17706
2.19301
2.2087
2.22061
2.23832
2.25806
2.2731
2.29158
2.31168
2.32774
2.34114
2.35755
2.36669
2.37013
2.37615
2.37942
2.38038
2.37829
2.37432
2.36425
2.3607
2.35488
2.34637
2.33619
2.32345
2.31916
2.30367
2.281
2.25816
2.24426
2.21846
0.431626
0.431326
0.431016
0.430712
0.430396
0.430056
0.42971
0.429343
0.428971
0.428615
0.428258
0.427917
0.427553
0.427176
0.426814
0.426433
0.426013
0.425562
0.425088
0.424562
0.423946
0.423256
0.422541
0.421802
0.421059
0.420274
0.419424
0.418503
0.41757
0.416617
0.415634
0.414672
0.413762
0.412868
0.411963
0.411121
0.41042
0.409791
0.409168
0.408426
0.407586
0.406692
0.405743
0.404839
0.403753
0.402468
0.401017
0.399588
0.398281
0.397167
0.396195
0.395296
0.394517
0.393915
0.393304
0.3925
0.396616
0.641952
1.12741
1.46058
1.72339
1.88544
1.97447
2.01604
2.0363
2.06134
2.06803
2.07875
2.08825
2.10229
2.11956
2.1305
2.13962
2.15368
2.16797
2.17988
2.19604
2.21375
2.22764
2.24414
2.26751
2.28642
2.30076
2.31297
2.32345
2.33087
2.3346
2.33675
2.33654
2.34186
2.34385
2.34055
2.33408
2.32398
2.31279
2.30284
2.29284
2.27942
2.26578
2.2433
0.427345
0.427123
0.426907
0.426695
0.426463
0.426207
0.425947
0.425661
0.425342
0.424995
0.424646
0.42431
0.423944
0.423551
0.423139
0.422688
0.422196
0.421675
0.421118
0.420505
0.419812
0.419076
0.418335
0.417586
0.41679
0.415975
0.415139
0.414302
0.4135
0.41279
0.412101
0.411424
0.410821
0.410238
0.409622
0.409039
0.408461
0.407872
0.407195
0.406385
0.405462
0.404448
0.403471
0.402479
0.401351
0.400108
0.398796
0.397577
0.396548
0.395705
0.394994
0.394288
0.393669
0.393235
0.392626
0.392071
0.390885
0.389511
0.38781
0.401853
0.697443
1.18872
1.50208
1.74365
1.87792
1.9499
1.98735
2.01358
2.02071
2.03
2.03915
2.046
2.05942
2.07306
2.08273
2.09241
2.1043
2.11485
2.12644
2.14362
2.16325
2.17897
2.19385
2.20717
2.22186
2.24008
2.25533
2.26526
2.2711
2.27716
2.28441
2.2904
2.29278
2.29258
2.28936
2.28765
2.28364
2.27572
2.26547
2.24431
0.424022
0.4238
0.423578
0.423353
0.423109
0.42285
0.422552
0.422191
0.421771
0.421299
0.420824
0.420362
0.419881
0.419373
0.418846
0.418279
0.417692
0.417096
0.416481
0.415839
0.415182
0.414513
0.413897
0.41333
0.412743
0.412127
0.411549
0.411004
0.410537
0.410139
0.409738
0.409286
0.408836
0.408354
0.40782
0.407219
0.406569
0.405822
0.404944
0.40399
0.402932
0.401908
0.400941
0.39996
0.398901
0.397824
0.396766
0.395891
0.395209
0.394647
0.394034
0.393441
0.392923
0.3923
0.391632
0.390837
0.389664
0.388475
0.387243
0.386434
0.385922
0.385525
0.438688
0.813897
1.25916
1.53346
1.72967
1.82681
1.89263
1.93428
1.95865
1.96349
1.97274
1.97628
1.98158
1.99613
2.0107
2.01933
2.02964
2.04138
2.05203
2.06312
2.0783
2.09302
2.10626
2.12163
2.13649
2.14732
2.15587
2.16705
2.1825
2.19742
2.20956
2.21803
2.2226
2.22551
2.22777
2.22762
2.22359
2.21029
0.420501
0.420184
0.419829
0.419462
0.419076
0.41868
0.418248
0.417761
0.417235
0.41667
0.416099
0.41556
0.415026
0.414516
0.414035
0.413543
0.413026
0.412548
0.41212
0.411745
0.411393
0.411015
0.410624
0.410307
0.409987
0.409644
0.409304
0.409005
0.408726
0.408425
0.408045
0.40758
0.407071
0.406534
0.405912
0.405202
0.404408
0.403497
0.40249
0.40142
0.400387
0.39944
0.39857
0.397672
0.396798
0.395945
0.395235
0.394763
0.394349
0.39384
0.393255
0.392702
0.392074
0.39143
0.390812
0.390115
0.389305
0.388337
0.386985
0.387097
0.387815
0.39009
0.392411
0.393704
0.394585
0.5159
0.909437
1.2522
1.50222
1.66715
1.76083
1.82198
1.87349
1.87233
1.88112
1.89274
1.8979
1.90412
1.91976
1.93298
1.94219
1.95151
1.9625
1.97121
1.97955
1.99151
2.00572
2.01871
2.03015
2.04039
2.05103
2.06357
2.07722
2.0903
2.10254
2.1139
2.12409
2.13198
2.13645
2.13693
0.414887
0.414544
0.414185
0.413826
0.413484
0.413162
0.412856
0.412549
0.41222
0.411873
0.41157
0.41133
0.411112
0.410904
0.410704
0.410451
0.410147
0.40991
0.40976
0.409645
0.409533
0.409331
0.409052
0.408789
0.40854
0.408248
0.40792
0.407606
0.407271
0.406844
0.406283
0.405634
0.404923
0.40421
0.403405
0.402535
0.401607
0.4006
0.39952
0.39852
0.397775
0.397161
0.396587
0.395955
0.39535
0.394797
0.39448
0.394234
0.393897
0.393369
0.39287
0.392195
0.391627
0.39109
0.390533
0.389954
0.389506
0.389805
0.390738
0.392403
0.394953
0.397821
0.399638
0.401199
0.402861
0.403842
0.404652
0.405273
0.583018
0.952013
1.25553
1.45794
1.59075
1.67811
1.73663
1.7865
1.78716
1.79257
1.80427
1.80818
1.81582
1.82881
1.84273
1.85101
1.85887
1.86698
1.87537
1.88486
1.89464
1.90308
1.91192
1.92262
1.93515
1.94854
1.96118
1.97051
1.97895
1.98759
1.99618
2.00746
0.410566
0.410479
0.410403
0.410314
0.410287
0.410292
0.410277
0.41024
0.410175
0.410086
0.410006
0.409932
0.409856
0.409798
0.409698
0.40952
0.409298
0.40912
0.408962
0.408796
0.408589
0.408293
0.407919
0.407534
0.407109
0.406632
0.406123
0.405575
0.404995
0.404289
0.403454
0.402617
0.401795
0.40097
0.400088
0.39919
0.398401
0.397625
0.396829
0.396271
0.396039
0.395822
0.395529
0.395176
0.394775
0.39445
0.39434
0.394181
0.393856
0.393424
0.392925
0.392527
0.392256
0.392059
0.392116
0.39254
0.393848
0.395899
0.398385
0.400932
0.403183
0.404813
0.406363
0.407605
0.408581
0.409676
0.410917
0.413284
0.415752
0.417559
0.43343
0.644555
0.962369
1.25707
1.41891
1.52554
1.60481
1.65313
1.69899
1.69195
1.6978
1.70506
1.71259
1.72034
1.73338
1.74348
1.75193
1.75994
1.7654
1.76959
1.77623
1.78512
1.79509
1.80514
1.81421
1.82111
1.82782
1.83497
1.8431
1.85632
0.410479
0.410426
0.410374
0.410286
0.410266
0.410289
0.410297
0.410277
0.410197
0.410066
0.409886
0.409624
0.409316
0.409037
0.408771
0.408494
0.40819
0.407834
0.407364
0.406775
0.406118
0.405415
0.4047
0.404014
0.40333
0.402646
0.401994
0.401344
0.400727
0.400117
0.399505
0.398999
0.398545
0.398055
0.397459
0.396966
0.396566
0.396228
0.39583
0.395716
0.39567
0.3956
0.395394
0.395342
0.395477
0.395813
0.396323
0.396332
0.396262
0.396109
0.395985
0.396102
0.396317
0.397074
0.398395
0.400249
0.4025
0.404591
0.406912
0.408719
0.410015
0.411158
0.411926
0.412841
0.414028
0.415551
0.417944
0.421132
0.424007
0.426322
0.426256
0.427731
0.429325
0.477566
0.695097
0.982111
1.23681
1.38218
1.45978
1.52384
1.57452
1.60718
1.60793
1.60668
1.61282
1.61888
1.62994
1.64041
1.64723
1.6507
1.65472
1.65969
1.66633
1.67441
1.6811
1.68638
1.69156
1.6965
1.70077
1.70914
0.410535
0.410312
0.410077
0.409816
0.409487
0.409122
0.408741
0.408257
0.407645
0.407094
0.406588
0.406015
0.405446
0.404881
0.404337
0.403851
0.40338
0.402821
0.402181
0.401585
0.401093
0.400575
0.400029
0.39955
0.399169
0.398879
0.398691
0.398557
0.398371
0.398081
0.397721
0.397456
0.397274
0.397107
0.396877
0.396819
0.396903
0.39715
0.397519
0.39779
0.397945
0.398087
0.39826
0.398536
0.398883
0.39933
0.399519
0.399478
0.399605
0.399922
0.400559
0.401718
0.403516
0.405743
0.407979
0.410409
0.412068
0.413595
0.414613
0.415195
0.415822
0.416442
0.41735
0.418873
0.421087
0.423611
0.42668
0.429343
0.430865
0.43211
0.434148
0.43657
0.439109
0.44167
0.443889
0.445762
0.517977
0.756017
0.984535
1.21375
1.35006
1.41559
1.46441
1.49516
1.52886
1.52348
1.52848
1.52984
1.5324
1.53746
1.5458
1.55245
1.55833
1.56309
1.56512
1.56754
1.57181
1.57685
1.58114
1.5863
0.403314
0.402879
0.402539
0.402198
0.401858
0.401581
0.401356
0.401079
0.400758
0.400497
0.400323
0.40019
0.400035
0.39986
0.399676
0.399549
0.399425
0.399234
0.398974
0.398708
0.398504
0.39837
0.39822
0.398206
0.398237
0.398334
0.39854
0.398793
0.399056
0.399308
0.399614
0.399964
0.400343
0.400773
0.401206
0.401658
0.402132
0.402463
0.402745
0.402745
0.402723
0.402747
0.402865
0.403117
0.403508
0.403959
0.404501
0.405529
0.406912
0.408548
0.410635
0.412573
0.414635
0.416219
0.417678
0.418653
0.419373
0.419945
0.420011
0.420437
0.42116
0.422493
0.424622
0.427218
0.429921
0.432638
0.434844
0.43655
0.437883
0.43958
0.441917
0.443932
0.446358
0.44977
0.453021
0.456766
0.457717
0.458509
0.459923
0.570496
0.81261
1.03306
1.20027
1.31367
1.37315
1.40681
1.445
1.45352
1.4529
1.45013
1.45247
1.45663
1.46327
1.46972
1.47355
1.47537
1.47673
1.47835
1.48084
1.48516
0.398629
0.398699
0.398797
0.398907
0.399023
0.399154
0.399266
0.399399
0.399563
0.399707
0.399832
0.399949
0.400093
0.400309
0.400549
0.400758
0.400952
0.401154
0.401473
0.401898
0.402302
0.402658
0.402993
0.403344
0.403701
0.404095
0.404491
0.404816
0.405055
0.405247
0.405464
0.405669
0.40594
0.406198
0.406452
0.406698
0.406908
0.407079
0.407283
0.407556
0.408066
0.408819
0.409808
0.411079
0.412398
0.413923
0.415469
0.417144
0.41856
0.420043
0.421122
0.42211
0.422832
0.42331
0.423778
0.424094
0.42461
0.425076
0.425974
0.427412
0.429569
0.432135
0.4351
0.437423
0.439275
0.44105
0.442238
0.443369
0.444952
0.447039
0.44955
0.452159
0.456164
0.459477
0.461941
0.463654
0.46581
0.46845
0.472371
0.47485
0.476826
0.48398
0.618904
0.876404
1.05675
1.20868
1.29417
1.33248
1.36456
1.38704
1.39588
1.38986
1.39186
1.39266
1.39466
1.39826
1.40209
1.40522
1.40592
1.40711
0.406889
0.406983
0.407089
0.407187
0.407286
0.407396
0.407494
0.407587
0.407717
0.407864
0.407987
0.408117
0.408249
0.408386
0.408513
0.408658
0.40882
0.409006
0.409171
0.409336
0.409508
0.40969
0.409884
0.410104
0.410319
0.41053
0.410701
0.41088
0.411103
0.411411
0.411789
0.412258
0.412774
0.413356
0.414048
0.414798
0.415657
0.416553
0.417601
0.4187
0.419953
0.421172
0.422384
0.423375
0.424389
0.425219
0.425977
0.426588
0.42705
0.427469
0.427716
0.428024
0.428255
0.428729
0.429334
0.430419
0.432001
0.433996
0.436284
0.438715
0.440754
0.443057
0.444708
0.445892
0.44698
0.447973
0.449224
0.4511
0.453606
0.456861
0.459954
0.463675
0.466483
0.46792
0.469463
0.471347
0.474389
0.477984
0.481026
0.483527
0.486146
0.488952
0.491181
0.492697
0.522144
0.71982
0.929525
1.10238
1.22102
1.28138
1.31459
1.32784
1.3479
1.34562
1.34031
1.34203
1.34404
1.34769
1.35104
1.35194
0.413742
0.413796
0.413857
0.413949
0.41409
0.414268
0.41442
0.414532
0.414679
0.414897
0.415141
0.415374
0.415622
0.415876
0.416149
0.416464
0.41683
0.417208
0.41758
0.417968
0.418382
0.418856
0.419339
0.419857
0.420371
0.420939
0.421508
0.422131
0.422758
0.42342
0.424061
0.424725
0.425371
0.426024
0.426626
0.42723
0.427778
0.4283
0.428771
0.429266
0.429731
0.430149
0.430539
0.430865
0.431224
0.431517
0.431883
0.432208
0.432692
0.433232
0.434004
0.434996
0.436334
0.438014
0.439917
0.442112
0.444229
0.446138
0.448043
0.449282
0.450542
0.451722
0.452384
0.453402
0.454673
0.456349
0.459091
0.462173
0.465577
0.468161
0.470535
0.472956
0.474195
0.475791
0.478086
0.481312
0.484144
0.486628
0.488863
0.491471
0.494273
0.497001
0.499173
0.501896
0.503767
0.504927
0.505889
0.605437
0.810037
1.01089
1.15288
1.23711
1.27785
1.28863
1.30249
1.31541
1.31309
1.31235
1.3113
1.31107
0.425565
0.425732
0.425907
0.426108
0.426313
0.426523
0.426771
0.426998
0.42718
0.427388
0.427649
0.427918
0.428161
0.428378
0.4286
0.428849
0.429119
0.429374
0.429622
0.429862
0.430121
0.430378
0.430647
0.430904
0.431165
0.431416
0.431681
0.431946
0.432221
0.432507
0.432799
0.433104
0.433406
0.433733
0.434059
0.434398
0.434724
0.435077
0.435448
0.435862
0.436287
0.436795
0.437326
0.437953
0.438662
0.439546
0.44064
0.441949
0.443506
0.445073
0.44675
0.448337
0.449943
0.451373
0.452765
0.454036
0.455019
0.455991
0.45672
0.457448
0.458512
0.459507
0.46119
0.46326
0.465519
0.46851
0.471369
0.474219
0.476598
0.478442
0.480095
0.481414
0.483485
0.48605
0.488715
0.491028
0.493089
0.495421
0.497896
0.500176
0.502242
0.504024
0.505842
0.507672
0.508949
0.510638
0.512307
0.513194
0.513809
0.53986
0.699325
0.929588
1.09516
1.18945
1.25338
1.27099
1.28258
1.29318
1.28944
1.28532
0.43517
0.435274
0.435385
0.435499
0.43562
0.435739
0.435871
0.436027
0.436183
0.436323
0.436459
0.436613
0.436787
0.436968
0.43715
0.437332
0.43752
0.437721
0.437935
0.438154
0.438378
0.438606
0.438839
0.439082
0.439339
0.439607
0.439896
0.440203
0.440557
0.440939
0.441365
0.441837
0.442366
0.442954
0.443608
0.444327
0.445104
0.445954
0.446834
0.447784
0.448753
0.449768
0.450727
0.451709
0.452683
0.453718
0.454725
0.455774
0.456761
0.457713
0.458609
0.459394
0.460204
0.460906
0.461743
0.462514
0.463471
0.464475
0.465641
0.467295
0.469188
0.471597
0.474418
0.476896
0.479456
0.481559
0.483311
0.485
0.486371
0.487939
0.489446
0.491248
0.493338
0.495703
0.49783
0.499781
0.501743
0.503555
0.505061
0.506544
0.50813
0.509802
0.51142
0.512583
0.513638
0.51448
0.515318
0.516104
0.517005
0.517692
0.517905
0.51791
0.609499
0.858438
1.05997
1.16537
1.24294
1.26057
1.26483
1.27076
0.446312
0.446465
0.446638
0.446832
0.447012
0.447167
0.447352
0.447587
0.44781
0.448007
0.448211
0.448437
0.448684
0.448952
0.449225
0.449489
0.449753
0.450035
0.450338
0.450649
0.450961
0.451282
0.451615
0.451962
0.452322
0.452696
0.45309
0.453498
0.453925
0.454369
0.454838
0.455333
0.455867
0.456425
0.457012
0.457615
0.45824
0.458872
0.459522
0.46017
0.460842
0.461498
0.462134
0.462757
0.463379
0.46405
0.464735
0.465488
0.466258
0.467156
0.468033
0.469035
0.470028
0.471247
0.472645
0.474407
0.476381
0.47846
0.480487
0.482425
0.484216
0.486083
0.487665
0.489234
0.490713
0.491827
0.492936
0.493978
0.495372
0.497009
0.498921
0.501028
0.503031
0.504649
0.506111
0.507462
0.508789
0.510039
0.511246
0.51248
0.513739
0.514663
0.515235
0.515793
0.516323
0.516963
0.517584
0.518265
0.518643
0.519032
0.519367
0.519383
0.519341
0.519384
0.566768
0.804872
1.00712
1.13711
1.21802
1.25673
0.458316
0.458451
0.458596
0.45873
0.458849
0.458986
0.459164
0.459353
0.459527
0.459703
0.459892
0.460086
0.460292
0.460516
0.460751
0.460983
0.461224
0.461484
0.461756
0.462038
0.462335
0.462651
0.462988
0.463346
0.463716
0.464103
0.464501
0.4649
0.465303
0.465715
0.466138
0.466589
0.467073
0.467593
0.468154
0.468752
0.469397
0.470074
0.470793
0.471558
0.472394
0.473248
0.474074
0.474864
0.475703
0.476622
0.477668
0.478842
0.480183
0.481591
0.483015
0.484393
0.485724
0.487028
0.48836
0.489759
0.491198
0.492571
0.493807
0.494764
0.495592
0.496416
0.497336
0.498479
0.499682
0.501029
0.502368
0.503714
0.505192
0.506699
0.508168
0.509504
0.510685
0.511583
0.512331
0.513135
0.514047
0.514983
0.515896
0.516522
0.517025
0.517394
0.517741
0.518095
0.518454
0.518776
0.519207
0.519661
0.519773
0.519812
0.519974
0.520151
0.520501
0.520821
0.521037
0.521353
0.538442
0.731659
0.94577
1.19554
0.471784
0.471904
0.472073
0.472289
0.472536
0.472763
0.472957
0.473155
0.473401
0.473684
0.473963
0.47423
0.474508
0.474797
0.475098
0.475416
0.475744
0.476075
0.476413
0.476766
0.477139
0.477526
0.477927
0.478343
0.478772
0.479215
0.479668
0.480114
0.480558
0.481009
0.481473
0.481974
0.482527
0.483142
0.483815
0.484549
0.485316
0.486093
0.486858
0.48763
0.48843
0.489213
0.489933
0.490603
0.491275
0.492006
0.492824
0.493711
0.494633
0.495527
0.49636
0.497122
0.497819
0.49849
0.499236
0.500139
0.501163
0.502234
0.50319
0.503945
0.504673
0.505514
0.506663
0.50799
0.509344
0.510513
0.511371
0.512097
0.512807
0.513539
0.514192
0.514689
0.515199
0.515803
0.516398
0.516962
0.517516
0.518161
0.518701
0.518913
0.519065
0.519243
0.519426
0.519589
0.519776
0.519933
0.520285
0.520608
0.520601
0.520365
0.520361
0.520808
0.521951
0.522728
0.522621
0.522531
0.522907
0.523918
0.524383
0.864731
0.487346
0.487506
0.487675
0.487841
0.488006
0.4882
0.488451
0.488703
0.488918
0.489127
0.489367
0.489635
0.489914
0.490188
0.49046
0.490742
0.491038
0.49135
0.491667
0.491989
0.492326
0.492665
0.49301
0.493375
0.493758
0.494156
0.494551
0.494924
0.495268
0.49559
0.495909
0.496246
0.496625
0.497045
0.4975
0.497984
0.498505
0.49906
0.499646
0.500284
0.50097
0.501634
0.502209
0.502703
0.503162
0.503647
0.504209
0.504866
0.505602
0.506329
0.506974
0.507531
0.508035
0.508548
0.50919
0.509999
0.511002
0.51202
0.512824
0.513353
0.513715
0.514127
0.514715
0.515457
0.516128
0.516539
0.516566
0.516596
0.516741
0.517124
0.517552
0.517926
0.518278
0.518688
0.519091
0.519463
0.519804
0.520086