/*--------------------------------*- C++ -*----------------------------------*\
  =========                 |
  \\      /  F ield         | OpenFOAM: The Open Source CFD Toolbox
   \\    /   O peration     | Website:  https://openfoam.org
    \\  /    A nd           | Version:  7
     \\/     M anipulation  |
\*---------------------------------------------------------------------------*/
FoamFile
{
    version     2.0;
    format      ascii;
    class       volVectorField;
    location    "7.5";
    object      U;
}
// * * * * * * * * * * * * * * * * * * * * * * * * * * * * * * * * * * * * * //

dimensions      [0 1 -1 0 0 0 0];

internalField   nonuniform List<vector> 
90000
(
(0.679993 -0.857812 0)
(0.846916 -0.480262 0)
(0.979907 -0.211122 0)
(1.06268 -0.0440817 0)
(1.14287 0.0808592 0)
(1.25328 0.185713 0)
(1.38217 0.268162 0)
(1.50941 0.334441 0)
(1.6076 0.394581 0)
(1.69506 0.438301 0)
(1.78638 0.468828 0)
(1.87816 0.495343 0)
(1.96385 0.510888 0)
(2.04444 0.523775 0)
(2.11939 0.529269 0)
(2.192 0.527433 0)
(2.25789 0.530658 0)
(2.32137 0.530226 0)
(2.37783 0.524177 0)
(2.42793 0.521469 0)
(2.47311 0.521527 0)
(2.5156 0.51602 0)
(2.55427 0.514554 0)
(2.58956 0.508071 0)
(2.62117 0.505324 0)
(2.65007 0.498579 0)
(2.67681 0.495862 0)
(2.7033 0.488328 0)
(2.72868 0.484405 0)
(2.75237 0.476539 0)
(2.77413 0.469866 0)
(2.79467 0.460435 0)
(2.81302 0.451815 0)
(2.82585 0.43789 0)
(2.83473 0.432331 0)
(2.8414 0.42352 0)
(2.8458 0.421756 0)
(2.85032 0.421386 0)
(2.85557 0.421469 0)
(2.86056 0.42348 0)
(2.86559 0.425526 0)
(2.86917 0.42835 0)
(2.87093 0.432453 0)
(2.87203 0.435793 0)
(2.87187 0.439953 0)
(2.87137 0.44349 0)
(2.86984 0.448997 0)
(2.86847 0.453319 0)
(2.86789 0.458377 0)
(2.86707 0.462224 0)
(2.86674 0.464783 0)
(2.86642 0.466164 0)
(2.86648 0.468835 0)
(2.86601 0.469666 0)
(2.86449 0.466811 0)
(2.8625 0.459564 0)
(2.86095 0.450791 0)
(2.85961 0.442491 0)
(2.85907 0.435532 0)
(2.86063 0.427638 0)
(2.86006 0.419258 0)
(2.86065 0.415446 0)
(2.86271 0.412378 0)
(2.86384 0.41177 0)
(2.86486 0.411681 0)
(2.86567 0.411478 0)
(2.86584 0.410167 0)
(2.8659 0.407401 0)
(2.86549 0.401017 0)
(2.86521 0.394368 0)
(2.8628 0.380521 0)
(2.86193 0.370307 0)
(2.86076 0.365811 0)
(2.8598 0.35986 0)
(2.85844 0.359125 0)
(2.85746 0.353988 0)
(2.85649 0.34823 0)
(2.85374 0.337401 0)
(2.85093 0.322692 0)
(2.84807 0.307375 0)
(2.84812 0.299641 0)
(2.84558 0.291948 0)
(2.84438 0.280714 0)
(2.84068 0.27133 0)
(2.83534 0.250849 0)
(2.83225 0.245673 0)
(2.83115 0.232848 0)
(2.83154 0.230806 0)
(2.82832 0.217352 0)
(2.82644 0.206708 0)
(2.82562 0.197346 0)
(2.82527 0.188223 0)
(2.82635 0.183707 0)
(2.82595 0.173378 0)
(2.82522 0.169782 0)
(2.82472 0.161496 0)
(2.82401 0.151413 0)
(2.82393 0.142105 0)
(2.82457 0.138571 0)
(2.82542 0.131207 0)
(0.560959 -1.2857 0)
(0.366509 -0.836744 0)
(0.342306 -0.449529 0)
(0.283789 -0.429806 0)
(0.327444 -0.406811 0)
(0.370552 -0.28961 0)
(0.385228 -0.137033 0)
(0.439854 -0.0270804 0)
(0.512498 0.0599289 0)
(0.604683 0.115233 0)
(0.707129 0.162027 0)
(0.810041 0.212584 0)
(0.904835 0.265047 0)
(0.998695 0.314135 0)
(1.10254 0.340418 0)
(1.21079 0.364086 0)
(1.31901 0.375746 0)
(1.42071 0.382971 0)
(1.51772 0.382415 0)
(1.60987 0.379897 0)
(1.6967 0.377719 0)
(1.77874 0.376728 0)
(1.8551 0.381623 0)
(1.92611 0.384708 0)
(1.99171 0.395148 0)
(2.05444 0.402133 0)
(2.11519 0.413203 0)
(2.17488 0.420879 0)
(2.23302 0.432028 0)
(2.29014 0.437968 0)
(2.34572 0.450128 0)
(2.40067 0.455941 0)
(2.45203 0.468017 0)
(2.50783 0.472806 0)
(2.56369 0.478869 0)
(2.61293 0.480333 0)
(2.65326 0.483443 0)
(2.68675 0.486332 0)
(2.71479 0.491632 0)
(2.73918 0.495656 0)
(2.76069 0.501923 0)
(2.78028 0.506829 0)
(2.79727 0.512326 0)
(2.81188 0.515979 0)
(2.82327 0.519605 0)
(2.83195 0.5199 0)
(2.83725 0.520903 0)
(2.84013 0.518983 0)
(2.84148 0.516683 0)
(2.8411 0.510133 0)
(2.84182 0.502981 0)
(2.84058 0.487497 0)
(2.84034 0.471788 0)
(2.84162 0.457086 0)
(2.84341 0.445522 0)
(2.84512 0.435206 0)
(2.84595 0.425929 0)
(2.84645 0.419975 0)
(2.84663 0.415204 0)
(2.84689 0.413553 0)
(2.84878 0.411473 0)
(2.85057 0.410442 0)
(2.8538 0.410938 0)
(2.85818 0.412337 0)
(2.86095 0.412231 0)
(2.86132 0.410871 0)
(2.86124 0.4074 0)
(2.86049 0.3992 0)
(2.86053 0.387975 0)
(2.85977 0.376892 0)
(2.86041 0.37061 0)
(2.86044 0.365796 0)
(2.86029 0.36259 0)
(2.85995 0.35973 0)
(2.85903 0.357614 0)
(2.85746 0.350565 0)
(2.85532 0.339969 0)
(2.85236 0.327699 0)
(2.84977 0.313674 0)
(2.84783 0.301042 0)
(2.84874 0.297402 0)
(2.8457 0.285633 0)
(2.8424 0.272864 0)
(2.83817 0.262336 0)
(2.8332 0.242299 0)
(2.8305 0.239631 0)
(2.83072 0.230421 0)
(2.8294 0.22647 0)
(2.8259 0.211276 0)
(2.82482 0.203581 0)
(2.82379 0.193301 0)
(2.82349 0.186033 0)
(2.82408 0.179063 0)
(2.82488 0.17045 0)
(2.82406 0.166188 0)
(2.82292 0.160168 0)
(2.82207 0.151313 0)
(2.82218 0.142317 0)
(2.82286 0.141132 0)
(2.82357 0.134437 0)
(2.62482 -1.87737 0)
(2.56134 -1.8539 0)
(2.48862 -1.74313 0)
(1.01632 -1.49143 0)
(0.518429 -0.890171 0)
(0.480755 -0.517301 0)
(0.390202 -0.285543 0)
(0.365989 -0.309911 0)
(0.42908 -0.308959 0)
(0.466827 -0.237735 0)
(0.45677 -0.149 0)
(0.468777 -0.0733116 0)
(0.494636 -0.0181196 0)
(0.530422 0.0279448 0)
(0.57781 0.0593288 0)
(0.631438 0.0940433 0)
(0.68661 0.137084 0)
(0.739932 0.183174 0)
(0.802975 0.214406 0)
(0.870036 0.237392 0)
(0.942092 0.244829 0)
(1.01516 0.245972 0)
(1.08686 0.24068 0)
(1.15771 0.232132 0)
(1.22691 0.226124 0)
(1.29502 0.222065 0)
(1.36296 0.224064 0)
(1.43101 0.228311 0)
(1.50068 0.238583 0)
(1.57287 0.248956 0)
(1.64914 0.26713 0)
(1.72818 0.28487 0)
(1.80566 0.315195 0)
(1.88788 0.340457 0)
(1.97277 0.366737 0)
(2.0592 0.381904 0)
(2.14245 0.396692 0)
(2.22118 0.401589 0)
(2.29449 0.40885 0)
(2.3619 0.410402 0)
(2.42397 0.412743 0)
(2.48196 0.408615 0)
(2.5359 0.404467 0)
(2.58543 0.398 0)
(2.63026 0.394208 0)
(2.67037 0.388631 0)
(2.7056 0.385839 0)
(2.73607 0.382377 0)
(2.762 0.381803 0)
(2.78353 0.379749 0)
(2.80135 0.380413 0)
(2.81439 0.377766 0)
(2.82273 0.375176 0)
(2.82745 0.373457 0)
(2.83091 0.37573 0)
(2.83413 0.378723 0)
(2.83653 0.382964 0)
(2.83866 0.386424 0)
(2.83955 0.391609 0)
(2.84152 0.398278 0)
(2.84276 0.40353 0)
(2.84368 0.407466 0)
(2.84652 0.412493 0)
(2.84856 0.41333 0)
(2.8488 0.412897 0)
(2.84759 0.404823 0)
(2.84745 0.396272 0)
(2.84763 0.386052 0)
(2.85026 0.378531 0)
(2.85005 0.36751 0)
(2.85187 0.362418 0)
(2.85368 0.362142 0)
(2.85532 0.360762 0)
(2.85621 0.358292 0)
(2.85611 0.353456 0)
(2.85405 0.340443 0)
(2.85243 0.328846 0)
(2.84874 0.311415 0)
(2.84729 0.301027 0)
(2.84728 0.295525 0)
(2.84681 0.29053 0)
(2.84411 0.277703 0)
(2.84113 0.267728 0)
(2.83573 0.252254 0)
(2.83309 0.241886 0)
(2.83082 0.235241 0)
(2.82999 0.228021 0)
(2.82781 0.219101 0)
(2.82498 0.20477 0)
(2.82372 0.200118 0)
(2.8228 0.190354 0)
(2.82263 0.182585 0)
(2.82236 0.174614 0)
(2.8236 0.169157 0)
(2.82256 0.163363 0)
(2.82075 0.159125 0)
(2.82 0.152599 0)
(2.82042 0.144691 0)
(2.82118 0.143776 0)
(2.82162 0.135648 0)
(2.62153 -1.87868 0)
(2.62176 -1.87802 0)
(2.62176 -1.87788 0)
(2.62198 -1.87752 0)
(2.5725 -1.84488 0)
(2.34587 -1.72275 0)
(2.12902 -1.47595 0)
(1.02436 -1.07721 0)
(0.707008 -0.679948 0)
(0.647316 -0.348924 0)
(0.556 -0.149959 0)
(0.52813 -0.16759 0)
(0.56523 -0.188214 0)
(0.607456 -0.157227 0)
(0.623328 -0.104127 0)
(0.622447 -0.0624092 0)
(0.632157 -0.0355726 0)
(0.655809 -0.0189367 0)
(0.676226 0.000492716 0)
(0.696129 0.0192564 0)
(0.711286 0.0468042 0)
(0.732368 0.0780604 0)
(0.759166 0.104037 0)
(0.790133 0.125011 0)
(0.823115 0.142827 0)
(0.857504 0.157651 0)
(0.891589 0.172333 0)
(0.926853 0.185191 0)
(0.964087 0.198247 0)
(1.00576 0.20939 0)
(1.05479 0.217999 0)
(1.1114 0.215561 0)
(1.17234 0.212696 0)
(1.23739 0.213119 0)
(1.30727 0.218929 0)
(1.38301 0.228665 0)
(1.46425 0.239256 0)
(1.54835 0.251618 0)
(1.63811 0.262293 0)
(1.72845 0.275389 0)
(1.81679 0.300318 0)
(1.90343 0.326226 0)
(1.99139 0.347155 0)
(2.07821 0.364915 0)
(2.16446 0.378053 0)
(2.2478 0.390529 0)
(2.326 0.404041 0)
(2.39971 0.411985 0)
(2.46845 0.419059 0)
(2.53195 0.423961 0)
(2.58895 0.432374 0)
(2.63961 0.441099 0)
(2.68338 0.448326 0)
(2.71875 0.452875 0)
(2.746 0.456813 0)
(2.76629 0.460953 0)
(2.78141 0.463044 0)
(2.79312 0.463342 0)
(2.80099 0.460604 0)
(2.80712 0.457435 0)
(2.81158 0.451745 0)
(2.8146 0.441332 0)
(2.81697 0.428391 0)
(2.81877 0.412565 0)
(2.82515 0.396438 0)
(2.82882 0.383257 0)
(2.83066 0.372689 0)
(2.8316 0.364758 0)
(2.83229 0.362787 0)
(2.83511 0.357732 0)
(2.84134 0.357547 0)
(2.84796 0.360405 0)
(2.84881 0.359167 0)
(2.84811 0.353916 0)
(2.8463 0.341247 0)
(2.84559 0.327032 0)
(2.84476 0.316896 0)
(2.84434 0.303214 0)
(2.84478 0.298453 0)
(2.84366 0.288403 0)
(2.84357 0.281741 0)
(2.84096 0.266527 0)
(2.8385 0.259218 0)
(2.83343 0.243147 0)
(2.83259 0.240582 0)
(2.8294 0.232234 0)
(2.82871 0.223365 0)
(2.82483 0.20914 0)
(2.82405 0.201064 0)
(2.82278 0.197013 0)
(2.82164 0.18858 0)
(2.82037 0.179407 0)
(2.82094 0.171783 0)
(2.82299 0.168234 0)
(2.82132 0.160472 0)
(2.81881 0.156506 0)
(2.81802 0.151944 0)
(2.81851 0.14488 0)
(2.81921 0.142636 0)
(2.81951 0.133439 0)
(2.62382 -1.87541 0)
(2.62381 -1.87624 0)
(2.62477 -1.87591 0)
(2.62491 -1.87717 0)
(2.62586 -1.87666 0)
(2.62608 -1.87728 0)
(2.62702 -1.87718 0)
(2.6273 -1.87797 0)
(2.54155 -1.80877 0)
(2.29426 -1.66844 0)
(1.97326 -1.28664 0)
(1.31404 -0.901557 0)
(0.933042 -0.544046 0)
(0.858392 -0.269106 0)
(0.73694 -0.106987 0)
(0.704197 -0.0691026 0)
(0.706132 -0.0898549 0)
(0.734411 -0.0832406 0)
(0.745761 -0.0603211 0)
(0.750768 -0.0319802 0)
(0.751554 -0.0102808 0)
(0.767511 -0.00382583 0)
(0.781115 0.00849088 0)
(0.789911 0.0227214 0)
(0.798466 0.0367173 0)
(0.809365 0.0499468 0)
(0.819061 0.0640347 0)
(0.831719 0.0735737 0)
(0.844184 0.0833106 0)
(0.85887 0.0887944 0)
(0.869694 0.105547 0)
(0.884524 0.124976 0)
(0.905155 0.143246 0)
(0.93087 0.156952 0)
(0.959091 0.17037 0)
(0.99176 0.180399 0)
(1.02713 0.194089 0)
(1.06813 0.20423 0)
(1.11563 0.219975 0)
(1.17501 0.21675 0)
(1.24165 0.206702 0)
(1.3088 0.202171 0)
(1.38107 0.209019 0)
(1.46073 0.215894 0)
(1.54607 0.230146 0)
(1.63927 0.236055 0)
(1.73277 0.250065 0)
(1.82562 0.274562 0)
(1.91979 0.297621 0)
(2.01526 0.316827 0)
(2.11286 0.329158 0)
(2.20853 0.341905 0)
(2.2997 0.354517 0)
(2.38671 0.356021 0)
(2.4663 0.354578 0)
(2.53593 0.349208 0)
(2.59512 0.346689 0)
(2.64538 0.344186 0)
(2.68767 0.340457 0)
(2.72274 0.339806 0)
(2.75126 0.338949 0)
(2.77329 0.339622 0)
(2.78891 0.336391 0)
(2.7971 0.335676 0)
(2.80318 0.331711 0)
(2.80957 0.334881 0)
(2.81538 0.336501 0)
(2.81887 0.343028 0)
(2.82192 0.350431 0)
(2.82513 0.357925 0)
(2.82989 0.360611 0)
(2.83517 0.364634 0)
(2.8329 0.355709 0)
(2.83197 0.341179 0)
(2.8317 0.324318 0)
(2.83297 0.314272 0)
(2.83396 0.303019 0)
(2.83565 0.296185 0)
(2.8367 0.291224 0)
(2.83841 0.28261 0)
(2.83828 0.272398 0)
(2.8367 0.258412 0)
(2.8348 0.251777 0)
(2.83122 0.239388 0)
(2.82909 0.238858 0)
(2.82689 0.227658 0)
(2.82566 0.214097 0)
(2.82255 0.201163 0)
(2.82331 0.199513 0)
(2.82148 0.193516 0)
(2.8204 0.18582 0)
(2.81871 0.174762 0)
(2.82005 0.169618 0)
(2.82183 0.167132 0)
(2.81999 0.157426 0)
(2.81749 0.152795 0)
(2.81663 0.148624 0)
(2.81744 0.142147 0)
(2.81794 0.138011 0)
(2.81818 0.127638 0)
(2.62838 -1.88211 0)
(2.62908 -1.88329 0)
(2.63075 -1.88338 0)
(2.63165 -1.88489 0)
(2.63368 -1.88505 0)
(2.6347 -1.88704 0)
(2.63717 -1.88709 0)
(2.63858 -1.88954 0)
(2.64052 -1.88932 0)
(2.64217 -1.88971 0)
(2.64407 -1.89026 0)
(2.64577 -1.89052 0)
(2.54758 -1.81859 0)
(2.31946 -1.59664 0)
(1.99119 -1.28113 0)
(1.64781 -0.849762 0)
(1.14394 -0.480929 0)
(1.02499 -0.228474 0)
(0.918955 -0.0695056 0)
(0.874287 -0.00206904 0)
(0.865203 -0.000975586 0)
(0.867703 -0.00130905 0)
(0.875602 0.0100209 0)
(0.874653 0.0238942 0)
(0.867309 0.0325027 0)
(0.866891 0.0306898 0)
(0.870679 0.0273512 0)
(0.876159 0.0307823 0)
(0.879895 0.0398794 0)
(0.885524 0.0531202 0)
(0.893761 0.0651437 0)
(0.901999 0.0761839 0)
(0.904586 0.0871766 0)
(0.909802 0.0952336 0)
(0.917047 0.102291 0)
(0.926842 0.108306 0)
(0.938708 0.112997 0)
(0.952006 0.117091 0)
(0.965782 0.120859 0)
(0.97732 0.138754 0)
(0.999069 0.152456 0)
(1.02545 0.161973 0)
(1.0545 0.172401 0)
(1.08817 0.185006 0)
(1.12736 0.198421 0)
(1.1745 0.214429 0)
(1.23297 0.20899 0)
(1.2995 0.199151 0)
(1.36868 0.200126 0)
(1.44583 0.206772 0)
(1.53199 0.223032 0)
(1.63016 0.229781 0)
(1.73176 0.249491 0)
(1.83705 0.287215 0)
(1.94717 0.320249 0)
(2.05858 0.343473 0)
(2.16738 0.358926 0)
(2.26814 0.372922 0)
(2.36163 0.380001 0)
(2.44635 0.381218 0)
(2.52044 0.386046 0)
(2.58511 0.391952 0)
(2.63896 0.397276 0)
(2.6818 0.402998 0)
(2.71225 0.409021 0)
(2.7355 0.409738 0)
(2.75407 0.40947 0)
(2.76746 0.404385 0)
(2.77826 0.396455 0)
(2.78624 0.384448 0)
(2.79335 0.370547 0)
(2.80199 0.346948 0)
(2.81197 0.322985 0)
(2.81387 0.30729 0)
(2.8148 0.297475 0)
(2.81721 0.293885 0)
(2.82228 0.285798 0)
(2.8248 0.28607 0)
(2.82736 0.279932 0)
(2.82867 0.271487 0)
(2.82801 0.258363 0)
(2.82887 0.250016 0)
(2.82832 0.243305 0)
(2.82713 0.237394 0)
(2.82583 0.235662 0)
(2.82115 0.220089 0)
(2.82019 0.20845 0)
(2.82007 0.196508 0)
(2.82195 0.195916 0)
(2.82084 0.189242 0)
(2.81869 0.181475 0)
(2.81862 0.170672 0)
(2.81969 0.167537 0)
(2.81975 0.164675 0)
(2.81882 0.154261 0)
(2.81721 0.149222 0)
(2.81549 0.142649 0)
(2.81625 0.136036 0)
(2.81636 0.130815 0)
(2.81734 0.121752 0)
(2.64339 -1.88791 0)
(2.64485 -1.88908 0)
(2.64675 -1.88994 0)
(2.6485 -1.89134 0)
(2.65075 -1.89227 0)
(2.65257 -1.89412 0)
(2.65529 -1.89474 0)
(2.65719 -1.89686 0)
(2.66045 -1.89709 0)
(2.66242 -1.89964 0)
(2.66607 -1.89979 0)
(2.66819 -1.90337 0)
(2.67091 -1.90295 0)
(2.67227 -1.90475 0)
(2.67528 -1.90474 0)
(2.67628 -1.90709 0)
(2.59172 -1.82192 0)
(2.37778 -1.60897 0)
(2.09936 -1.26761 0)
(1.80924 -0.86717 0)
(1.53477 -0.497486 0)
(1.21526 -0.209968 0)
(1.09021 -0.0428664 0)
(1.02253 0.0243108 0)
(1.01162 0.0351405 0)
(1.01585 0.0455919 0)
(1.01672 0.0638639 0)
(1.01409 0.0807945 0)
(1.00131 0.0885565 0)
(0.995029 0.08809 0)
(0.993602 0.0843822 0)
(0.986831 0.0815672 0)
(0.977069 0.0805329 0)
(0.97153 0.077748 0)
(0.969572 0.0775725 0)
(0.97068 0.0788637 0)
(0.97213 0.082373 0)
(0.976674 0.0863266 0)
(0.981945 0.0960664 0)
(0.991683 0.102569 0)
(0.992806 0.109471 0)
(0.997987 0.112971 0)
(1.00522 0.117694 0)
(1.01654 0.120206 0)
(1.02935 0.124753 0)
(1.04359 0.126342 0)
(1.05464 0.143987 0)
(1.07765 0.153785 0)
(1.10381 0.162436 0)
(1.13393 0.171333 0)
(1.16965 0.183621 0)
(1.21594 0.202746 0)
(1.277 0.203124 0)
(1.35121 0.194903 0)
(1.43149 0.19982 0)
(1.52405 0.21112 0)
(1.62815 0.219334 0)
(1.73684 0.231911 0)
(1.8452 0.260328 0)
(1.95444 0.283104 0)
(2.06552 0.288695 0)
(2.17297 0.302569 0)
(2.27442 0.309905 0)
(2.36924 0.315052 0)
(2.45403 0.304282 0)
(2.52636 0.303139 0)
(2.58754 0.296342 0)
(2.63846 0.291951 0)
(2.67994 0.292306 0)
(2.71167 0.289335 0)
(2.73556 0.289136 0)
(2.74932 0.282626 0)
(2.76632 0.288038 0)
(2.78105 0.292013 0)
(2.78974 0.294077 0)
(2.79596 0.297963 0)
(2.80038 0.294938 0)
(2.8044 0.291018 0)
(2.8073 0.273825 0)
(2.81102 0.253028 0)
(2.81404 0.235823 0)
(2.81851 0.235921 0)
(2.82147 0.239929 0)
(2.82075 0.238226 0)
(2.81646 0.230314 0)
(2.81205 0.208138 0)
(2.81316 0.199983 0)
(2.81645 0.190251 0)
(2.81966 0.189424 0)
(2.81843 0.183179 0)
(2.81721 0.175747 0)
(2.81844 0.166654 0)
(2.81951 0.16475 0)
(2.81997 0.159888 0)
(2.81842 0.151386 0)
(2.81693 0.145549 0)
(2.81617 0.137578 0)
(2.81636 0.131364 0)
(2.81616 0.125965 0)
(2.81693 0.117504 0)
(2.65997 -1.9016 0)
(2.66231 -1.90203 0)
(2.66389 -1.9039 0)
(2.66648 -1.90443 0)
(2.66829 -1.90631 0)
(2.671 -1.90696 0)
(2.67303 -1.90879 0)
(2.6759 -1.90952 0)
(2.67819 -1.91131 0)
(2.68115 -1.9123 0)
(2.68393 -1.91369 0)
(2.68685 -1.91512 0)
(2.69012 -1.91616 0)
(2.69283 -1.91856 0)
(2.69679 -1.9191 0)
(2.69959 -1.9228 0)
(2.7026 -1.92247 0)
(2.7044 -1.92432 0)
(2.7082 -1.92369 0)
(2.70911 -1.92833 0)
(2.68313 -1.8617 0)
(2.48412 -1.65568 0)
(2.20067 -1.30297 0)
(1.93462 -0.886923 0)
(1.71463 -0.526051 0)
(1.54285 -0.226419 0)
(1.28735 -0.0211516 0)
(1.17349 0.0697435 0)
(1.15164 0.0666561 0)
(1.15195 0.0838855 0)
(1.16836 0.104306 0)
(1.16061 0.124497 0)
(1.14189 0.125184 0)
(1.13115 0.116646 0)
(1.12995 0.106527 0)
(1.12643 0.110475 0)
(1.10943 0.114794 0)
(1.09152 0.118433 0)
(1.07742 0.116995 0)
(1.06922 0.110518 0)
(1.05997 0.106263 0)
(1.05376 0.100961 0)
(1.05098 0.0951357 0)
(1.05349 0.0917131 0)
(1.05747 0.0947762 0)
(1.06068 0.10215 0)
(1.06663 0.110612 0)
(1.06752 0.11514 0)
(1.07198 0.118622 0)
(1.07862 0.122782 0)
(1.08919 0.126536 0)
(1.10545 0.12965 0)
(1.12044 0.148256 0)
(1.14591 0.162244 0)
(1.17724 0.174105 0)
(1.21668 0.186624 0)
(1.26483 0.205499 0)
(1.32722 0.206683 0)
(1.39868 0.189391 0)
(1.47542 0.192179 0)
(1.56311 0.206431 0)
(1.66429 0.213126 0)
(1.77102 0.227006 0)
(1.87903 0.263011 0)
(1.99194 0.298085 0)
(2.10913 0.308768 0)
(2.21628 0.332195 0)
(2.31696 0.338142 0)
(2.40721 0.331014 0)
(2.48284 0.332305 0)
(2.54672 0.330545 0)
(2.59531 0.327358 0)
(2.63489 0.323564 0)
(2.6693 0.315954 0)
(2.69747 0.307183 0)
(2.71994 0.288546 0)
(2.73896 0.267935 0)
(2.7556 0.247586 0)
(2.76819 0.22604 0)
(2.77949 0.2203 0)
(2.7909 0.230044 0)
(2.79872 0.246442 0)
(2.802 0.252243 0)
(2.79947 0.24083 0)
(2.79893 0.214176 0)
(2.79793 0.187038 0)
(2.80534 0.18869 0)
(2.81006 0.188219 0)
(2.81176 0.183986 0)
(2.81187 0.17386 0)
(2.81288 0.164551 0)
(2.81552 0.162502 0)
(2.81679 0.160053 0)
(2.81717 0.151537 0)
(2.81662 0.148304 0)
(2.8152 0.141502 0)
(2.81498 0.131375 0)
(2.81556 0.126198 0)
(2.81531 0.121884 0)
(2.81623 0.116117 0)
(2.68393 -1.9084 0)
(2.686 -1.90919 0)
(2.68788 -1.91055 0)
(2.69029 -1.91119 0)
(2.69222 -1.91269 0)
(2.69482 -1.91327 0)
(2.69661 -1.91523 0)
(2.69955 -1.91557 0)
(2.70124 -1.91799 0)
(2.70456 -1.91813 0)
(2.70618 -1.92096 0)
(2.70982 -1.92095 0)
(2.71123 -1.92422 0)
(2.71501 -1.92435 0)
(2.71636 -1.92821 0)
(2.72071 -1.92795 0)
(2.72192 -1.93234 0)
(2.72674 -1.93203 0)
(2.72774 -1.93724 0)
(2.73257 -1.93695 0)
(2.7343 -1.94299 0)
(2.7359 -1.94568 0)
(2.73951 -1.94486 0)
(2.74014 -1.94941 0)
(2.7247 -1.90084 0)
(2.62405 -1.72493 0)
(2.3702 -1.39627 0)
(2.06191 -0.950581 0)
(1.85188 -0.565063 0)
(1.67524 -0.260044 0)
(1.56171 -0.0374977 0)
(1.35617 0.109955 0)
(1.28474 0.103747 0)
(1.27754 0.118043 0)
(1.30178 0.131683 0)
(1.31358 0.156435 0)
(1.29384 0.16182 0)
(1.2653 0.144044 0)
(1.26178 0.117644 0)
(1.25791 0.102154 0)
(1.24349 0.1085 0)
(1.21906 0.106456 0)
(1.2027 0.112706 0)
(1.18937 0.121031 0)
(1.17574 0.133903 0)
(1.15083 0.132932 0)
(1.13451 0.119651 0)
(1.12629 0.107735 0)
(1.12169 0.10336 0)
(1.11633 0.100062 0)
(1.11525 0.100187 0)
(1.12128 0.10695 0)
(1.13175 0.118391 0)
(1.13453 0.127695 0)
(1.14309 0.13218 0)
(1.15709 0.136947 0)
(1.17539 0.1399 0)
(1.19172 0.149556 0)
(1.21108 0.165339 0)
(1.24175 0.172521 0)
(1.27808 0.18029 0)
(1.32353 0.196996 0)
(1.3837 0.205014 0)
(1.45543 0.192863 0)
(1.53897 0.191261 0)
(1.63603 0.206116 0)
(1.74573 0.197242 0)
(1.85083 0.224577 0)
(1.95843 0.244699 0)
(2.06679 0.242461 0)
(2.16808 0.254258 0)
(2.26248 0.254643 0)
(2.34746 0.247013 0)
(2.4231 0.239136 0)
(2.48802 0.23543 0)
(2.54198 0.230015 0)
(2.58738 0.237376 0)
(2.62631 0.246766 0)
(2.66042 0.260831 0)
(2.68784 0.265265 0)
(2.71283 0.259807 0)
(2.73193 0.242277 0)
(2.74777 0.215201 0)
(2.75869 0.187897 0)
(2.76666 0.182187 0)
(2.7724 0.194261 0)
(2.77987 0.204183 0)
(2.78654 0.19757 0)
(2.78974 0.173783 0)
(2.79618 0.161738 0)
(2.801 0.169078 0)
(2.8033 0.162456 0)
(2.80688 0.145768 0)
(2.80972 0.147863 0)
(2.81123 0.153246 0)
(2.80908 0.146297 0)
(2.80919 0.132085 0)
(2.81211 0.127348 0)
(2.81387 0.127396 0)
(2.81591 0.12538 0)
(2.7029 -1.92299 0)
(2.70422 -1.92465 0)
(2.70651 -1.92508 0)
(2.70794 -1.92693 0)
(2.71038 -1.92744 0)
(2.71189 -1.92937 0)
(2.7143 -1.93002 0)
(2.71608 -1.9316 0)
(2.71832 -1.93268 0)
(2.72047 -1.93406 0)
(2.72281 -1.93537 0)
(2.72504 -1.93687 0)
(2.72757 -1.93809 0)
(2.7296 -1.94011 0)
(2.73186 -1.94219 0)
(2.73489 -1.94333 0)
(2.73659 -1.94659 0)
(2.74031 -1.94701 0)
(2.74203 -1.95052 0)
(2.7462 -1.95057 0)
(2.74776 -1.9548 0)
(2.753 -1.9535 0)
(2.75409 -1.95855 0)
(2.75961 -1.95676 0)
(2.76118 -1.96316 0)
(2.76353 -1.96445 0)
(2.76701 -1.96322 0)
(2.76822 -1.96691 0)
(2.75867 -1.9231 0)
(2.66772 -1.76275 0)
(2.50691 -1.46184 0)
(2.2136 -1.01497 0)
(1.99154 -0.605014 0)
(1.77542 -0.263678 0)
(1.68595 -0.0394249 0)
(1.54659 0.118905 0)
(1.43655 0.137743 0)
(1.39119 0.142565 0)
(1.40475 0.156967 0)
(1.4338 0.174138 0)
(1.43182 0.184042 0)
(1.39575 0.167586 0)
(1.3927 0.144581 0)
(1.38946 0.126157 0)
(1.37235 0.129935 0)
(1.33085 0.119872 0)
(1.30654 0.114563 0)
(1.29039 0.119353 0)
(1.27353 0.134428 0)
(1.2428 0.142413 0)
(1.22091 0.138644 0)
(1.20726 0.136787 0)
(1.19688 0.127317 0)
(1.18469 0.118583 0)
(1.18205 0.112022 0)
(1.18677 0.109758 0)
(1.19419 0.115174 0)
(1.19845 0.128166 0)
(1.20384 0.134131 0)
(1.20826 0.136489 0)
(1.21823 0.138638 0)
(1.2347 0.141396 0)
(1.25391 0.146624 0)
(1.27476 0.161004 0)
(1.30841 0.172084 0)
(1.3517 0.186598 0)
(1.40696 0.207175 0)
(1.47209 0.18168 0)
(1.54328 0.179472 0)
(1.62562 0.188435 0)
(1.71948 0.181362 0)
(1.81457 0.205282 0)
(1.91365 0.235175 0)
(2.0169 0.245592 0)
(2.11308 0.252698 0)
(2.20071 0.256232 0)
(2.28213 0.240055 0)
(2.35493 0.219122 0)
(2.42107 0.205537 0)
(2.48222 0.188859 0)
(2.5401 0.187945 0)
(2.58756 0.191321 0)
(2.6239 0.198379 0)
(2.65291 0.206859 0)
(2.67664 0.231435 0)
(2.69417 0.217447 0)
(2.71022 0.191973 0)
(2.72954 0.160543 0)
(2.74151 0.168763 0)
(2.7535 0.185683 0)
(2.76154 0.174718 0)
(2.769 0.148372 0)
(2.7817 0.151484 0)
(2.7881 0.162286 0)
(2.79228 0.163463 0)
(2.79277 0.156276 0)
(2.79569 0.145871 0)
(2.80069 0.143298 0)
(2.80427 0.141897 0)
(2.8083 0.135497 0)
(2.7251 -1.93082 0)
(2.72636 -1.93215 0)
(2.72827 -1.93275 0)
(2.72964 -1.93424 0)
(2.7316 -1.93502 0)
(2.733 -1.93666 0)
(2.73495 -1.93761 0)
(2.73655 -1.93911 0)
(2.73853 -1.94025 0)
(2.7403 -1.94183 0)
(2.74277 -1.94252 0)
(2.74422 -1.94474 0)
(2.74715 -1.94498 0)
(2.74838 -1.94769 0)
(2.7511 -1.94863 0)
(2.75298 -1.9509 0)
(2.75557 -1.95227 0)
(2.75782 -1.95426 0)
(2.76075 -1.95536 0)
(2.76293 -1.95776 0)
(2.76599 -1.95902 0)
(2.76926 -1.96004 0)
(2.7717 -1.96245 0)
(2.77583 -1.96225 0)
(2.77761 -1.96575 0)
(2.78249 -1.96433 0)
(2.78351 -1.969 0)
(2.78838 -1.96743 0)
(2.79064 -1.97408 0)
(2.79275 -1.97541 0)
(2.79592 -1.97455 0)
(2.79709 -1.97779 0)
(2.79116 -1.9445 0)
(2.69567 -1.76934 0)
(2.53386 -1.43967 0)
(2.31305 -1.00895 0)
(2.10062 -0.611065 0)
(1.89217 -0.258274 0)
(1.75156 -0.0149819 0)
(1.65411 0.116995 0)
(1.57026 0.158798 0)
(1.50861 0.161555 0)
(1.51547 0.177778 0)
(1.54363 0.190419 0)
(1.55039 0.189724 0)
(1.50785 0.175449 0)
(1.49562 0.152873 0)
(1.49181 0.144316 0)
(1.47717 0.149343 0)
(1.4303 0.148709 0)
(1.39897 0.133985 0)
(1.38516 0.131066 0)
(1.36696 0.138835 0)
(1.33808 0.140706 0)
(1.31695 0.134938 0)
(1.30403 0.139319 0)
(1.2858 0.14562 0)
(1.26705 0.136165 0)
(1.25397 0.125578 0)
(1.24769 0.120293 0)
(1.24578 0.115696 0)
(1.24994 0.118745 0)
(1.25663 0.125976 0)
(1.26255 0.133054 0)
(1.27364 0.13679 0)
(1.28961 0.142729 0)
(1.3089 0.143102 0)
(1.32104 0.160266 0)
(1.34669 0.161576 0)
(1.37894 0.16498 0)
(1.42115 0.180314 0)
(1.47616 0.164253 0)
(1.54191 0.154046 0)
(1.61745 0.164055 0)
(1.70242 0.15871 0)
(1.78986 0.155849 0)
(1.87282 0.184652 0)
(1.96018 0.196023 0)
(2.04679 0.201653 0)
(2.13512 0.21134 0)
(2.22445 0.205904 0)
(2.304 0.195706 0)
(2.37312 0.199582 0)
(2.43071 0.189664 0)
(2.48347 0.166401 0)
(2.52861 0.16154 0)
(2.56631 0.158507 0)
(2.59978 0.176911 0)
(2.62602 0.180816 0)
(2.64963 0.162417 0)
(2.67203 0.144702 0)
(2.69218 0.155494 0)
(2.71304 0.1617 0)
(2.72943 0.147193 0)
(2.74396 0.13233 0)
(2.75309 0.128412 0)
(2.75856 0.140106 0)
(2.76583 0.140805 0)
(2.77264 0.135824 0)
(2.78291 0.124498 0)
(2.73994 -1.94694 0)
(2.74117 -1.94796 0)
(2.74255 -1.94896 0)
(2.74418 -1.94969 0)
(2.74545 -1.95096 0)
(2.74715 -1.95167 0)
(2.74846 -1.95303 0)
(2.75035 -1.95374 0)
(2.75176 -1.95537 0)
(2.75389 -1.95612 0)
(2.75585 -1.95718 0)
(2.75767 -1.95857 0)
(2.76016 -1.95899 0)
(2.76197 -1.96058 0)
(2.76433 -1.96157 0)
(2.76619 -1.96353 0)
(2.76892 -1.96429 0)
(2.77109 -1.96611 0)
(2.7744 -1.96612 0)
(2.77638 -1.9683 0)
(2.77968 -1.96851 0)
(2.78171 -1.97075 0)
(2.78482 -1.97136 0)
(2.78738 -1.97284 0)
(2.79031 -1.97382 0)
(2.79346 -1.97429 0)
(2.79589 -1.976 0)
(2.79926 -1.97618 0)
(2.80133 -1.97917 0)
(2.80611 -1.97746 0)
(2.80786 -1.98094 0)
(2.81182 -1.97976 0)
(2.81697 -1.98501 0)
(2.8179 -1.98737 0)
(2.82076 -1.98518 0)
(2.82099 -1.98891 0)
(2.8153 -1.95883 0)
(2.72275 -1.76448 0)
(2.53704 -1.37774 0)
(2.32915 -0.940152 0)
(2.10963 -0.527696 0)
(1.95732 -0.198489 0)
(1.7944 0.0343122 0)
(1.71474 0.142362 0)
(1.66514 0.15944 0)
(1.6178 0.172543 0)
(1.6079 0.194248 0)
(1.63812 0.209035 0)
(1.64027 0.198259 0)
(1.60477 0.185207 0)
(1.57749 0.151815 0)
(1.58026 0.147924 0)
(1.56851 0.157529 0)
(1.53015 0.167645 0)
(1.50345 0.161031 0)
(1.48629 0.159632 0)
(1.45944 0.149885 0)
(1.43015 0.136594 0)
(1.40535 0.129846 0)
(1.38131 0.134561 0)
(1.35606 0.143034 0)
(1.33371 0.148489 0)
(1.31521 0.137976 0)
(1.30752 0.125102 0)
(1.3083 0.116822 0)
(1.31211 0.11733 0)
(1.31584 0.123711 0)
(1.31789 0.133138 0)
(1.31704 0.133384 0)
(1.32549 0.13241 0)
(1.34062 0.131279 0)
(1.35344 0.145004 0)
(1.37614 0.149049 0)
(1.4083 0.155196 0)
(1.44593 0.16231 0)
(1.49555 0.167805 0)
(1.55199 0.150122 0)
(1.61358 0.144677 0)
(1.68295 0.133339 0)
(1.76103 0.131412 0)
(1.83914 0.158451 0)
(1.92192 0.1682 0)
(2.01097 0.167402 0)
(2.09131 0.174255 0)
(2.1696 0.180095 0)
(2.2407 0.169368 0)
(2.30213 0.166532 0)
(2.35637 0.154681 0)
(2.40783 0.14129 0)
(2.45389 0.144017 0)
(2.49457 0.152247 0)
(2.53218 0.145695 0)
(2.57009 0.129544 0)
(2.60472 0.130357 0)
(2.63383 0.142975 0)
(2.65513 0.138164 0)
(2.6736 0.119469 0)
(2.69307 0.106511 0)
(2.70837 0.100226 0)
(2.7302 0.0931365 0)
(2.75958 -1.95301 0)
(2.76068 -1.95393 0)
(2.76184 -1.955 0)
(2.76343 -1.95547 0)
(2.76441 -1.95679 0)
(2.766 -1.95731 0)
(2.76722 -1.95848 0)
(2.76893 -1.95908 0)
(2.77031 -1.96044 0)
(2.77226 -1.96109 0)
(2.77407 -1.9621 0)
(2.7758 -1.9634 0)
(2.7781 -1.96386 0)
(2.78008 -1.96488 0)
(2.78214 -1.96586 0)
(2.78418 -1.96697 0)
(2.78617 -1.9685 0)
(2.78888 -1.96888 0)
(2.79137 -1.96973 0)
(2.79399 -1.97034 0)
(2.79653 -1.97104 0)
(2.7989 -1.97193 0)
(2.80144 -1.97255 0)
(2.80355 -1.97396 0)
(2.80641 -1.97418 0)
(2.80833 -1.97582 0)
(2.8111 -1.97601 0)
(2.81295 -1.97771 0)
(2.81572 -1.97825 0)
(2.81781 -1.98012 0)
(2.82079 -1.98066 0)
(2.82272 -1.98286 0)
(2.82476 -1.98457 0)
(2.8279 -1.98457 0)
(2.8289 -1.98781 0)
(2.83225 -1.98684 0)
(2.83379 -1.99121 0)
(2.83499 -1.99345 0)
(2.83824 -1.99066 0)
(2.83872 -1.99282 0)
(2.82153 -1.93729 0)
(2.71248 -1.69008 0)
(2.48802 -1.21416 0)
(2.30237 -0.771369 0)
(2.11362 -0.391845 0)
(1.9608 -0.100539 0)
(1.82771 0.0854373 0)
(1.75912 0.178233 0)
(1.73076 0.18362 0)
(1.69966 0.199674 0)
(1.6893 0.20086 0)
(1.71636 0.191912 0)
(1.72281 0.185964 0)
(1.694 0.176337 0)
(1.6736 0.163749 0)
(1.66034 0.153973 0)
(1.63915 0.163154 0)
(1.61086 0.170585 0)
(1.58817 0.173657 0)
(1.55981 0.1685 0)
(1.52851 0.157596 0)
(1.50161 0.136437 0)
(1.47127 0.128514 0)
(1.44594 0.132444 0)
(1.42629 0.139676 0)
(1.40473 0.147737 0)
(1.38053 0.142747 0)
(1.36297 0.129846 0)
(1.3507 0.118221 0)
(1.34878 0.112243 0)
(1.35113 0.113648 0)
(1.35524 0.122466 0)
(1.35689 0.123451 0)
(1.36804 0.123617 0)
(1.38063 0.122404 0)
(1.39954 0.12142 0)
(1.42067 0.12533 0)
(1.4452 0.12415 0)
(1.47666 0.127244 0)
(1.51978 0.135556 0)
(1.5667 0.127809 0)
(1.61787 0.121935 0)
(1.68192 0.127455 0)
(1.75449 0.121445 0)
(1.82362 0.127745 0)
(1.89233 0.139248 0)
(1.96185 0.134685 0)
(2.02931 0.137557 0)
(2.09655 0.150996 0)
(2.16035 0.148639 0)
(2.21874 0.136051 0)
(2.27595 0.125098 0)
(2.33234 0.129734 0)
(2.38643 0.127585 0)
(2.43526 0.12675 0)
(2.47606 0.122101 0)
(2.51321 0.12195 0)
(2.54798 0.122739 0)
(2.57498 0.125556 0)
(2.61719 0.125225 0)
(2.77245 -1.96686 0)
(2.77354 -1.96755 0)
(2.77459 -1.96841 0)
(2.77614 -1.96852 0)
(2.77707 -1.96968 0)
(2.77869 -1.9699 0)
(2.78015 -1.97051 0)
(2.78163 -1.97121 0)
(2.78324 -1.9719 0)
(2.785 -1.97247 0)
(2.78689 -1.97298 0)
(2.78851 -1.97419 0)
(2.79066 -1.97456 0)
(2.79292 -1.97482 0)
(2.79452 -1.97604 0)
(2.79654 -1.9766 0)
(2.79831 -1.97798 0)
(2.80097 -1.9777 0)
(2.80308 -1.97854 0)
(2.80563 -1.97862 0)
(2.80763 -1.97955 0)
(2.8096 -1.98041 0)
(2.81162 -1.98112 0)
(2.81335 -1.98228 0)
(2.81552 -1.98267 0)
(2.81728 -1.98364 0)
(2.81941 -1.98395 0)
(2.82082 -1.98544 0)
(2.82318 -1.98577 0)
(2.82475 -1.98758 0)
(2.82729 -1.988 0)
(2.82893 -1.98973 0)
(2.8309 -1.99104 0)
(2.8339 -1.99042 0)
(2.83533 -1.99182 0)
(2.83705 -1.99257 0)
(2.8394 -1.99227 0)
(2.84186 -1.99235 0)
(2.84492 -1.99109 0)
(2.84784 -1.99066 0)
(2.85007 -1.98949 0)
(2.85061 -1.99119 0)
(2.85313 -1.98969 0)
(2.85344 -1.99252 0)
(2.80024 -1.86334 0)
(2.64033 -1.50012 0)
(2.42044 -0.999053 0)
(2.18698 -0.504352 0)
(2.08057 -0.184905 0)
(1.92137 0.0537996 0)
(1.8417 0.140076 0)
(1.80546 0.174656 0)
(1.79204 0.193339 0)
(1.77553 0.217818 0)
(1.77909 0.219229 0)
(1.78216 0.197411 0)
(1.77405 0.172277 0)
(1.75536 0.168433 0)
(1.74404 0.171801 0)
(1.72006 0.166158 0)
(1.69314 0.168116 0)
(1.67169 0.17462 0)
(1.64587 0.173931 0)
(1.62052 0.166074 0)
(1.59627 0.153155 0)
(1.56476 0.140243 0)
(1.53005 0.127236 0)
(1.49706 0.127989 0)
(1.46501 0.13351 0)
(1.44052 0.142041 0)
(1.41726 0.139296 0)
(1.39883 0.123255 0)
(1.39113 0.108606 0)
(1.39169 0.102321 0)
(1.39181 0.0998013 0)
(1.40136 0.100289 0)
(1.40802 0.104846 0)
(1.41533 0.101895 0)
(1.42961 0.101091 0)
(1.45106 0.0979839 0)
(1.46497 0.0987666 0)
(1.48126 0.104867 0)
(1.50971 0.123913 0)
(1.55219 0.129515 0)
(1.59391 0.128164 0)
(1.63981 0.134365 0)
(1.69026 0.127893 0)
(1.74293 0.109194 0)
(1.79954 0.1031 0)
(1.85631 0.100423 0)
(1.9145 0.0987175 0)
(1.97513 0.104772 0)
(2.0381 0.110188 0)
(2.09931 0.124044 0)
(2.16209 0.125601 0)
(2.21896 0.124265 0)
(2.27095 0.119676 0)
(2.31969 0.107124 0)