/*--------------------------------*- C++ -*----------------------------------*\
  =========                 |
  \\      /  F ield         | OpenFOAM: The Open Source CFD Toolbox
   \\    /   O peration     | Website:  https://openfoam.org
    \\  /    A nd           | Version:  7
     \\/     M anipulation  |
\*---------------------------------------------------------------------------*/
FoamFile
{
    version     2.0;
    format      ascii;
    class       volScalarField;
    location    "1";
    object      p;
}
// * * * * * * * * * * * * * * * * * * * * * * * * * * * * * * * * * * * * * //

dimensions      [1 -1 -2 0 0 0 0];

internalField   nonuniform List<scalar> 
90000
(
0.511086
0.543417
0.578603
0.613884
0.648785
0.683272
0.717625
0.750921
0.783707
0.814889
0.845876
0.874623
0.903297
0.928766
0.9537
0.975927
0.996788
1.0151
1.03231
1.04664
1.05961
1.07017
1.07837
1.08458
1.09049
1.09148
1.09286
1.09375
1.09244
1.09044
1.08832
1.08696
1.08462
1.08408
1.08549
1.0893
1.09321
1.09493
1.09748
1.09917
1.09895
1.0973
1.09298
1.09016
1.08816
1.08752
1.08737
1.08775
1.08921
1.08957
1.08897
1.08687
1.084
1.08128
1.07929
1.07866
1.07947
1.07921
1.07764
1.07553
1.07016
1.06478
1.06089
1.05953
1.05918
1.05814
1.05488
1.04809
1.03794
1.02905
1.02174
1.01624
1.01077
1.00693
1.00487
1.0041
1.0042
1.00459
1.00464
1.00437
1.00443
1.00477
1.0049
1.00481
1.00459
1.00411
1.00238
0.997742
0.990143
0.981156
0.969488
0.960838
0.957709
0.956039
0.954181
0.953207
0.953776
0.948214
0.94748
0.959617
0.485432
0.485556
0.48592
0.486684
0.488092
0.490282
0.493735
0.498487
0.505274
0.513971
0.525321
0.539478
0.556304
0.577068
0.599921
0.627236
0.656178
0.688919
0.722539
0.758546
0.794411
0.830827
0.866906
0.900287
0.933291
0.962837
0.988611
1.01433
1.03255
1.05072
1.06667
1.07669
1.08898
1.09624
1.10149
1.10761
1.11061
1.11231
1.11249
1.11039
1.10377
1.09374
1.08359
1.07895
1.08046
1.08362
1.08751
1.09162
1.09464
1.0937
1.09058
1.08563
1.0825
1.07976
1.07947
1.08287
1.08451
1.08367
1.08064
1.07534
1.06933
1.06362
1.06094
1.0622
1.06322
1.06138
1.05633
1.04737
1.03775
1.02957
1.02232
1.01528
1.00903
1.00567
1.00491
1.0046
1.0045
1.00434
1.00426
1.00433
1.00452
1.00462
1.0047
1.00476
1.00475
1.00426
1.00244
0.997396
0.990045
0.980553
0.969706
0.960866
0.957185
0.955465
0.953781
0.952987
0.952517
0.948273
0.94813
0.958904
0.485355
0.485351
0.485353
0.485357
0.485369
0.485382
0.485386
0.485403
0.485485
0.485614
0.485778
0.486035
0.486471
0.487183
0.488261
0.489998
0.4925
0.49634
0.501781
0.509707
0.520371
0.534811
0.553468
0.577278
0.605672
0.640511
0.679142
0.72247
0.770497
0.815854
0.868235
0.912155
0.95442
0.994645
1.0213
1.04523
1.06608
1.07112
1.07872
1.08385
1.08377
1.08368
1.0889
1.09426
1.09589
1.09651
1.09533
1.0932
1.09127
1.08668
1.08183
1.07912
1.08055
1.08145
1.08349
1.08789
1.0876
1.08369
1.07888
1.0723
1.06609
1.06567
1.06637
1.06823
1.06731
1.06316
1.05486
1.045
1.03917
1.03209
1.02319
1.01381
1.00714
1.00417
1.00402
1.00472
1.00493
1.00441
1.00391
1.00403
1.00461
1.00487
1.00489
1.00506
1.00528
1.00473
1.00253
0.997214
0.990028
0.980004
0.9696
0.96128
0.957238
0.955422
0.95382
0.952498
0.951333
0.947753
0.948767
0.957985
0.485359
0.485345
0.485318
0.485325
0.485347
0.485346
0.485314
0.485299
0.485323
0.485319
0.485264
0.485226
0.485256
0.485259
0.485245
0.48528
0.485343
0.485403
0.485475
0.485596
0.485844
0.486242
0.48684
0.487865
0.48957
0.492423
0.497289
0.504616
0.516641
0.533647
0.556843
0.59121
0.629266
0.679528
0.735371
0.791373
0.852021
0.906426
0.959136
0.999047
1.0384
1.06741
1.08604
1.09404
1.09957
1.09871
1.09613
1.08857
1.0756
1.0724
1.07537
1.07979
1.08449
1.09114
1.09418
1.0929
1.08732
1.07825
1.07159
1.06938
1.06878
1.06974
1.07109
1.07073
1.0669
1.05974
1.05208
1.04592
1.0403
1.03329
1.02199
1.01113
1.00531
1.00403
1.00456
1.00493
1.00476
1.00417
1.00377
1.00403
1.0046
1.00477
1.00486
1.00517
1.0054
1.00479
1.00238
0.997223
0.990125
0.979832
0.969372
0.961445
0.957185
0.955178
0.95362
0.951996
0.950146
0.947529
0.949561
0.95686
0.485414
0.485407
0.485397
0.485386
0.485375
0.485359
0.485365
0.485396
0.485415
0.485403
0.485353
0.485312
0.48531
0.48528
0.485232
0.485249
0.485262
0.485213
0.485144
0.485177
0.485193
0.485135
0.48515
0.485179
0.485136
0.485077
0.485146
0.485349
0.485634
0.486053
0.486802
0.488502
0.49152
0.497502
0.507708
0.525245
0.551162
0.590493
0.639384
0.702022
0.769264
0.839759
0.909421
0.958806
1.00801
1.02986
1.048
1.05274
1.05923
1.07314
1.08571
1.09651
1.10244
1.10128
1.09913
1.08829
1.07616
1.07273
1.07161
1.0739
1.07796
1.07945
1.07747
1.07111
1.06307
1.0571
1.05245
1.05216
1.04704
1.0337
1.01826
1.00802
1.00403
1.0042
1.00488
1.00485
1.0043
1.00383
1.00381
1.00415
1.00435
1.00441
1.0047
1.00516
1.00525
1.00453
1.00196
0.997239
0.990109
0.979513
0.96909
0.961776
0.957492
0.955371
0.953628
0.951749
0.949716
0.94543
0.947324
0.95565
0.485507
0.485519
0.48554
0.485548
0.485533
0.48546
0.485442
0.485509
0.485551
0.485547
0.485504
0.485474
0.485503
0.485504
0.485472
0.485495
0.485513
0.485501
0.485463
0.485387
0.485298
0.485236
0.48523
0.485223
0.485158
0.485064
0.485115
0.485174
0.485164
0.485102
0.485096
0.485081
0.485063
0.485067
0.485173
0.485479
0.486236
0.488236
0.492248
0.501564
0.517215
0.547669
0.590024
0.653528
0.726303
0.808313
0.890025
0.957597
1.01878
1.05714
1.07318
1.08375
1.08865
1.0884
1.08273
1.07038
1.07049
1.07461
1.08344
1.08672
1.08518
1.08117
1.07228
1.06376
1.05946
1.05677
1.05985
1.05879
1.04923
1.02885
1.0125
1.00497
1.0048
1.00609
1.00581
1.00466
1.00353
1.00363
1.00417
1.00445
1.00409
1.00411
1.00446
1.00495
1.00487
1.00402
1.00155
0.996881
0.989091
0.978372
0.968582
0.961054
0.956848
0.954697
0.952792
0.950226
0.948046
0.945901
0.948251
0.954969
0.485566
0.485578
0.485583
0.4856
0.485621
0.485633
0.485629
0.48559
0.485591
0.48563
0.485645
0.485618
0.485597
0.48564
0.485676
0.485684
0.485673
0.48566
0.48566
0.485654
0.485627
0.485584
0.485571
0.485568
0.485492
0.48525
0.485161
0.485206
0.485229
0.485231
0.485184
0.485072
0.484982
0.484931
0.484916
0.4849
0.484856
0.484817
0.484757
0.484799
0.484978
0.485705
0.487705
0.49366
0.505594
0.532714
0.574352
0.643677
0.724984
0.81313
0.892791
0.958278
1.00118
1.02889
1.04464
1.05777
1.07775
1.09574
1.10222
1.09932
1.09172
1.07156
1.06313
1.05959
1.06233
1.06688
1.06772
1.06279
1.04532
1.02259
1.0087
1.00611
1.00682
1.00689
1.00553
1.00375
1.00352
1.00421
1.00484
1.00442
1.00374
1.00385
1.0044
1.00452
1.00419
1.00332
1.00103
0.996584
0.988219
0.977616
0.96822
0.960991
0.957294
0.954917
0.953063
0.950712
0.945948
0.944021
0.946659
0.95213
0.485663
0.48567
0.48568
0.485703
0.48573
0.485749
0.48576
0.485771
0.485787
0.485804
0.485817
0.485826
0.485826
0.485821
0.485818
0.485817
0.485811
0.48576
0.485722
0.485747
0.485773
0.485784
0.485787
0.485786
0.48576
0.485627
0.485516
0.485524
0.485549
0.48556
0.485541
0.485478
0.485388
0.485304
0.485208
0.485121
0.485014
0.484923
0.484819
0.48474
0.484684
0.484623
0.484555
0.484485
0.484533
0.484975
0.486604
0.492411
0.505605
0.536313
0.589565
0.665321
0.76288
0.858106
0.953623
1.02542
1.06591
1.08257
1.08926
1.08563
1.0703
1.05949
1.06176
1.07059
1.07483
1.07447
1.07
1.05584
1.03471
1.0181
1.01125
1.00907
1.00749
1.00594
1.00429
1.00354
1.0043
1.00515
1.00498
1.00426
1.0038
1.00421
1.00465
1.0044
1.00376
1.00289
1.00079
0.996129
0.987276
0.976879
0.967686
0.960118
0.956729
0.954256
0.952295
0.949965
0.947354
0.946714
0.949494
0.953008
0.48577
0.485788
0.485807
0.48583
0.485873
0.485908
0.485923
0.485922
0.485945
0.485987
0.486017
0.48603
0.486017
0.485994
0.486018
0.48604
0.486051
0.486044
0.486012
0.485989
0.485969
0.485948
0.485949
0.485947
0.4859
0.485829
0.485799
0.485781
0.48577
0.485744
0.485701
0.485639
0.485578
0.485509
0.485445
0.485372
0.485288
0.485189
0.485087
0.484981
0.484874
0.48477
0.484659
0.484529
0.484369
0.484271
0.484203
0.484092
0.484142
0.484692
0.487086
0.495656
0.516255
0.563071
0.636554
0.740326
0.850414
0.928896
0.998885
1.02461
1.04054
1.05989
1.07958
1.09146
1.08841
1.08169
1.05979
1.04066
1.0279
1.02213
1.0168
1.01188
1.0076
1.00321
1.00277
1.00383
1.0058
1.00571
1.00465
1.00388
1.00411
1.00493
1.00486
1.00416
1.0035
1.0029
1.00094
0.995807
0.986641
0.976759
0.967241
0.95928
0.956033
0.953663
0.951828
0.949434
0.947079
0.946888
0.94939
0.95254
0.485862
0.485894
0.48593
0.485958
0.486
0.48606
0.486096
0.486115
0.486117
0.486098
0.486135
0.486172
0.486193
0.486203
0.486199
0.486187
0.486176
0.486163
0.486148
0.486136
0.486114
0.486099
0.486096
0.486081
0.486015
0.485963
0.485965
0.48599
0.486002
0.486002
0.485977
0.485934
0.485893
0.485847
0.485796
0.485724
0.485642
0.485536
0.485432
0.485314
0.485199
0.485068
0.484936
0.484762
0.484586
0.484368
0.48421
0.483943
0.483783
0.483572
0.483399
0.483132
0.483341
0.484975
0.490667
0.511777
0.554995
0.640138
0.749099
0.866132
0.980192
1.04476
1.06769
1.07868
1.07833
1.06605
1.04439
1.03518
1.03572
1.02944
1.01802
1.00922
1.00188
1.0012
1.00295
1.00603
1.00661
1.00575
1.00425
1.00416
1.00519
1.00578
1.00502
1.00417
1.0039
1.00351
1.00129
0.995417
0.986248
0.976991
0.966714
0.958562
0.955255
0.953208
0.951417
0.949277
0.947175
0.946911
0.948783
0.951704
0.486346
0.486344
0.486331
0.486309
0.4863
0.486297
0.486288
0.486283
0.486287
0.486249
0.486198
0.486231
0.48627
0.486286
0.486288
0.486285
0.486266
0.486228
0.486202
0.486187
0.486185
0.486197
0.486198
0.486126
0.486013
0.486037
0.486095
0.486125
0.486133
0.48611
0.486068
0.486042
0.486032
0.486013
0.485957
0.485876
0.48581
0.485747
0.485685
0.485591
0.48548
0.485322
0.485139
0.484919
0.484731
0.484555
0.48438
0.484142
0.483848
0.483542
0.4833
0.482994
0.482755
0.482563
0.482099
0.482246
0.48354
0.491096
0.512392
0.570573
0.668886
0.792583
0.897021
0.973183
1.02493
1.03523
1.04299
1.05238
1.04982
1.038
1.01867
0.998963
0.998364
1.00099
1.0071
1.00786
1.00645
1.00353
1.00348
1.00507
1.0066
1.00625
1.00507
1.00442
1.00522
1.00478
1.0018
0.995138
0.986682
0.977802
0.96607
0.957764
0.954522
0.952843
0.950845
0.948571
0.946408
0.946506
0.948067
0.95075
0.486304
0.486334
0.486352
0.48634
0.48633
0.486346
0.48635
0.486345
0.486337
0.486336
0.486338
0.486341
0.486347
0.486347
0.486342
0.486338
0.48634
0.486335
0.486291
0.486252
0.486249
0.486275
0.486346
0.486417
0.486451
0.486459
0.486432
0.486367
0.486303
0.486249
0.486234
0.486271
0.486309
0.486306
0.486206
0.486074
0.486032
0.486049
0.486055
0.485981
0.485841
0.485674
0.485485
0.485285
0.485068
0.484847
0.484608
0.484446
0.484262
0.484049
0.483685
0.483358
0.482963
0.482622
0.482201
0.481809
0.481497
0.481031
0.481052
0.483224
0.493553
0.52985
0.607162
0.717789
0.856742
0.968084
1.03374
1.03945
1.03918
1.02681
0.997705
0.992562
0.999187
1.00803
1.00961
1.00715
1.00143
1.00155
1.00408
1.00693
1.0068
1.005
1.00403
1.00555
1.00637
1.00538
1.00178
0.995035
0.987604
0.978285
0.965151
0.957165
0.954131
0.952546
0.950154
0.947662
0.945502
0.945756
0.947299
0.949728
0.486417
0.486428
0.486444
0.486455
0.486455
0.48644
0.486461
0.486489
0.4865
0.486489
0.486492
0.486548
0.486598
0.486623
0.486644
0.486663
0.486665
0.486618
0.486617
0.486654
0.48668
0.486711
0.486719
0.486643
0.486529
0.486475
0.486444
0.48642
0.48639
0.486352
0.486328
0.486321
0.486319
0.486299
0.486206
0.486084
0.486034
0.486065
0.486119
0.486163
0.486166
0.486036
0.485791
0.485578
0.485422
0.485288
0.485091
0.484813
0.484526
0.484328
0.484136
0.483907
0.483585
0.483208
0.482825
0.482319
0.481871
0.481155
0.480548
0.480043
0.478809
0.479455
0.483793
0.50426
0.557819
0.658597
0.799011
0.881445
0.950659
0.960411
0.98163
0.995315
1.01553
1.01542
1.01084
0.998798
0.997989
1.00114
1.00782
1.00787
1.00487
1.00244
1.00379
1.00719
1.00703
1.00531
1.00121
0.995801
0.988422
0.978251
0.963956
0.956826
0.954373
0.952526
0.949475
0.946712
0.94436
0.944679
0.946184
0.948797
0.486628
0.486644
0.486652
0.486647
0.486657
0.48668
0.486688
0.48669
0.486693
0.486695
0.486695
0.486696
0.48669
0.486671
0.486659
0.486657
0.486655
0.486615
0.486577
0.486582
0.486589
0.486606
0.486691
0.486791
0.486842
0.486851
0.486725
0.486582
0.486627
0.486687
0.486703
0.486662
0.486589
0.486556
0.486564
0.486583
0.486562
0.486493
0.486423
0.486347
0.486237
0.486078
0.485889
0.485694
0.485509
0.485337
0.485203
0.485107
0.48499
0.484795
0.484489
0.484105
0.483715
0.483352
0.483043
0.482696
0.482309
0.481731
0.481002
0.480116
0.479086
0.478012
0.477125
0.475734
0.476238
0.485693
0.519758
0.601292
0.711668
0.827553
0.946631
0.983489
1.00878
1.00676
0.991532
0.991772
0.999781
1.00833
1.00978
1.00531
0.999851
1.00099
1.00606
1.00801
1.00652
1.00345
1.00064
0.996193
0.98867
0.976716
0.962085
0.956174
0.954564
0.952029
0.948186
0.945234
0.942787
0.943207
0.944759
0.947461
0.486926
0.486942
0.486955
0.486968
0.486988
0.487007
0.487017
0.487031
0.48704
0.487045
0.487055
0.487064
0.48707
0.487076
0.48707
0.487044
0.487021
0.487008
0.486996
0.486994
0.487011
0.487001
0.486908
0.486899
0.486961
0.487005
0.487
0.487003
0.487056
0.487083
0.487094
0.487125
0.487157
0.487157
0.487104
0.487026
0.486973
0.486925
0.48683
0.486648
0.486435
0.486312
0.486266
0.486228
0.486156
0.486033
0.48587
0.485694
0.485525
0.485338
0.48507
0.484698
0.484273
0.483841
0.483404
0.482922
0.482394
0.481851
0.481318
0.480636
0.479768
0.478542
0.477301
0.475721
0.473869
0.471007
0.46385
0.466977
0.482899
0.547142
0.658637
0.785043
0.90913
0.936486
0.969627
0.991951
1.0163
1.01533
1.00766
0.997364
0.998114
1.00348
1.0089
1.00681
1.00262
1.00171
1.00109
0.99703
0.987276
0.974272
0.962337
0.9583
0.95518
0.951298
0.946727
0.943666
0.941328
0.941503
0.943076
0.946034
0.487242
0.487257
0.487286
0.487315
0.487328
0.487318
0.487341
0.487406
0.487444
0.487458
0.487449
0.487474
0.487529
0.487555
0.487546
0.487578
0.487631
0.487666
0.487721
0.487771
0.487788
0.487761
0.487761
0.487799
0.48782
0.487803
0.487768
0.487742
0.487711
0.487674
0.487625
0.487555
0.487439
0.487296
0.48718
0.487099
0.487045
0.487004
0.486929
0.486754
0.486495
0.486329
0.486371
0.486466
0.486515
0.486494
0.486339
0.486116
0.485893
0.48567
0.485425
0.485132
0.484812
0.48449
0.484125
0.483648
0.483027
0.482307
0.481547
0.4808
0.480071
0.479184
0.477954
0.476246
0.474093
0.470785
0.465221
0.457041
0.446067
0.44687
0.460613
0.524364
0.638958
0.783097
0.926423
0.977016
1.00785
1.0055
0.990423
0.994017
1.0037
1.01064
1.00887
1.00136
0.999617
1.0015
1.00201
0.996894
0.98489
0.970897
0.962667
0.958997
0.95453
0.949905
0.945209
0.942286
0.940172
0.939941
0.941167
0.944586
0.487638
0.487658
0.487677
0.487698
0.48772
0.487742
0.487753
0.487769
0.487797
0.48782
0.487844
0.487868
0.487897
0.487931
0.487958
0.487972
0.487932
0.487824
0.487866
0.487959
0.48799
0.488005
0.488082
0.488177
0.488219
0.488243
0.488276
0.48829
0.488259
0.488228
0.488228
0.488211
0.488116
0.487951
0.487799
0.487703
0.487635
0.487547
0.487422
0.487314
0.487257
0.487225
0.487199
0.487156
0.48704
0.48679
0.486455
0.486139
0.485863
0.485605
0.485379
0.485187
0.484973
0.484682
0.484326
0.483944
0.483505
0.482951
0.482279
0.481497
0.480567
0.47951
0.478325
0.476822
0.474459
0.470875
0.464866
0.45567
0.44578
0.439192
0.438235
0.441054
0.455533
0.518851
0.633429
0.770937
0.906294
0.937344
0.971832
1.00249
1.0183
1.01558
1.00209
0.996432
0.999555
1.0054
1.00389
0.995236
0.984435
0.971026
0.964285
0.959096
0.953055
0.947927
0.943478
0.940893
0.939124
0.938815
0.939372
0.942734
0.487791
0.487809
0.487822
0.48783
0.487837
0.487846
0.487848
0.487809
0.487799
0.487831
0.487855
0.487853
0.487834
0.487877
0.487938
0.487966
0.487977
0.48802
0.488128
0.488228
0.488253
0.488249
0.488297
0.488397
0.488451
0.488478
0.488482
0.48837
0.488175
0.488091
0.488104
0.488137
0.488157
0.488168
0.488166
0.488154
0.488157
0.488156
0.488122
0.488129
0.488203
0.488257
0.488249
0.488106
0.487841
0.487542
0.487243
0.486945
0.486621
0.48626
0.485907
0.485616
0.485369
0.485082
0.484669
0.484154
0.483671
0.48328
0.482854
0.482255
0.48141
0.480347
0.47901
0.477338
0.474845
0.47063
0.463857
0.45418
0.444141
0.43867
0.437652
0.437673
0.437954
0.440853
0.455062
0.517364
0.635536
0.790322
0.935004
0.986504
1.00865
1.00238
0.989473
0.996585
1.00987
1.00909
1.00397
0.994139
0.984659
0.973544
0.965019
0.957977
0.951201
0.946359
0.942119
0.93942
0.937709
0.937651
0.93788
0.940931
0.488224
0.488253
0.48828
0.488302
0.488317
0.488326
0.488302
0.488311
0.488384
0.488432
0.488468
0.488517
0.488562
0.488599
0.488628
0.488656
0.48868
0.488678
0.488591
0.488532
0.488559
0.488596
0.488616
0.488616
0.48856
0.48848
0.488441
0.48845
0.488504
0.488569
0.488624
0.488667
0.488706
0.488732
0.488638
0.488369
0.4883
0.488407
0.488525
0.488602
0.488644
0.488667
0.488642
0.488481
0.488239
0.488032
0.487868
0.487689
0.487466
0.487213
0.48697
0.486719
0.48641
0.486014
0.485558
0.485068
0.484518
0.483871
0.483173
0.48251
0.481857
0.480986
0.479628
0.477573
0.474545
0.469794
0.462227
0.451892
0.442262
0.437878
0.437209
0.437212
0.437296
0.437425
0.437753
0.440594
0.455761
0.524276
0.651252
0.794949
0.913994
0.956634
0.981362
1.01594
1.0195
1.01197
1.00021
0.994775
0.991173
0.978715
0.965045
0.955569
0.948903
0.945014
0.940651
0.937514
0.935478
0.935346
0.935848
0.939299
0.489027
0.489083
0.489122
0.489141
0.489159
0.489204
0.48924
0.489253
0.48929
0.489329
0.489366
0.489436
0.4895
0.489532
0.489544
0.489566
0.489603
0.489625
0.489618
0.489521
0.489401
0.489371
0.489391
0.489405
0.489396
0.489383
0.489362
0.489265
0.489139
0.489108
0.489133
0.48914
0.489034
0.48895
0.48904
0.489157
0.489235
0.489276
0.489297
0.489312
0.48927
0.489088
0.488826
0.488574
0.488367
0.488222
0.488111
0.487975
0.4878
0.487625
0.487472
0.487286
0.487021
0.486708
0.486402
0.486081
0.485656
0.485048
0.484269
0.48334
0.482305
0.481172
0.479757
0.477585
0.474155
0.468652
0.460133
0.44923
0.440359
0.437061
0.436568
0.436486
0.436484
0.436541
0.436618
0.436729
0.437024
0.440471
0.45967
0.533592
0.669755
0.847264
0.953457
1.01016
1.00774
0.992436
0.997387
1.00242
0.996098
0.980294
0.963423
0.9522
0.946928
0.943813
0.938612
0.935029
0.932652
0.932056
0.932975
0.937322
0.489606
0.489643
0.489678
0.489723
0.489763
0.489796
0.489843
0.48991
0.489959
0.489976
0.48997
0.490033
0.490124
0.49016
0.49015
0.490195
0.490282
0.49033
0.490324
0.490287
0.49036
0.49044
0.490474
0.490494
0.490531
0.490563
0.490573
0.490532
0.49043
0.4904
0.490428
0.49045
0.490469
0.490499
0.490523
0.49053
0.490495
0.490402
0.490264
0.490087
0.489871
0.489638
0.489443
0.48931
0.489228
0.489161
0.489058
0.488881
0.488639
0.48836
0.488038
0.487657
0.487249
0.486872
0.486552
0.486288
0.486009
0.485613
0.485039
0.484273
0.483256
0.481911
0.480119
0.477562
0.473546
0.467147
0.457613
0.44647
0.438943
0.436687
0.436219
0.43609
0.436082
0.436104
0.436091
0.436024
0.435995
0.436028
0.436505
0.440661
0.467107
0.553105
0.702554
0.874493
0.926199
0.968837
1.00843
1.00757
0.995639
0.974749
0.960891
0.953599
0.948938
0.941621
0.934411
0.93065
0.928724
0.928268
0.929205
0.934604
0.489699
0.489717
0.489726
0.48973
0.489715
0.489739
0.489839
0.489942
0.489988
0.490033
0.4901
0.490163
0.490216
0.490277
0.490354
0.49046
0.490611
0.490714
0.490788
0.490863
0.49093
0.490993
0.49106
0.491127
0.491171
0.491167
0.491064
0.491105
0.491224
0.491318
0.491379
0.491425
0.491481
0.491519
0.491536
0.491544
0.491508
0.491403
0.491278
0.491138
0.490961
0.490764
0.490583
0.490441
0.490355
0.490312
0.490282
0.490201
0.490014
0.489729
0.489359
0.48893
0.488502
0.488096
0.487684
0.487218
0.486668
0.486041
0.485337
0.484566
0.483694
0.482515
0.480707
0.477873
0.473149
0.46552
0.454763
0.443889
0.438121
0.436628
0.436201
0.436043
0.435994
0.43596
0.435884
0.435778
0.435707
0.435652
0.435604
0.435589
0.436146
0.441723
0.481043
0.584307
0.754909
0.919842
0.993473
0.998227
0.97647
0.962035
0.959692
0.957131
0.948967
0.937704
0.928894
0.925583
0.924523
0.925108
0.925902
0.931605
0.490721
0.490763
0.490787
0.490789
0.490749
0.490787
0.490901
0.490961
0.490995
0.49102
0.491037
0.491049
0.491062
0.491078
0.491071
0.490987
0.490977
0.491034
0.491077
0.491091
0.491051
0.491028
0.4911
0.491155
0.491146
0.491138
0.491229
0.491331
0.491413
0.49151
0.491635
0.491743
0.491805
0.491781
0.491644
0.491698
0.491809
0.491869
0.491897
0.491849
0.49166
0.491436
0.491264
0.491124
0.491008
0.490903
0.490808
0.490705
0.490543
0.490288
0.48998
0.489687
0.489404
0.489083
0.4887
0.488234
0.487725
0.487223
0.486622
0.48579
0.484706
0.48338
0.48142
0.478083
0.472429
0.46337
0.451634
0.441884
0.437796
0.43698
0.43669
0.436602
0.436559
0.43649
0.436361
0.436201
0.436027
0.435871
0.435728
0.435548
0.435339
0.435322
0.436288
0.446123
0.50549
0.634505
0.798096
0.917231
0.940398
0.963125
0.972149
0.962528
0.947092
0.932854
0.926516
0.924488
0.922767
0.922459
0.923464
0.929377
0.4926
0.492647
0.492684
0.492684
0.492703
0.492778
0.492837
0.492869
0.492886
0.492887
0.492869
0.492853
0.492849
0.492866
0.492888
0.492903
0.492919
0.492923
0.492868
0.492792
0.492805
0.492839
0.492854
0.492846
0.492791
0.492706
0.492605
0.492482
0.492356
0.492284
0.492315
0.49238
0.492408
0.492343
0.492268
0.492322
0.492397
0.492469
0.492558
0.492626
0.492661
0.492655
0.492596
0.492528
0.492438
0.492292
0.492089
0.491829
0.491519
0.49117
0.490818
0.490509
0.490225
0.489913
0.489548
0.489123
0.488576
0.487967
0.487444
0.486875
0.485951
0.484558
0.482203
0.478013
0.470796
0.460106
0.448231
0.440452
0.438289
0.437937
0.437903
0.437943
0.438018
0.438105
0.438136
0.438063
0.437952
0.437787
0.437643
0.437453
0.4375
0.437673
0.438034
0.438373
0.441328
0.45977
0.543398
0.701493
0.873467
0.951379
0.963189
0.952895
0.937618
0.928157
0.926968
0.922907
0.919707
0.91876
0.919663
0.926374
0.493974
0.493985
0.494021
0.494076
0.49411
0.494129
0.494172
0.494227
0.494273
0.494297
0.494284
0.49431
0.494372
0.494405
0.494472
0.494554
0.494602
0.494615
0.494588
0.494649
0.494754
0.494813
0.494853
0.494892
0.494932
0.494963
0.494957
0.494821
0.494751
0.494852
0.494955
0.495007
0.495041
0.495065
0.495033
0.494908
0.494791
0.494717
0.494705
0.494723
0.494752
0.494776
0.494782
0.494756
0.494611
0.494371
0.494123
0.493871
0.493595
0.493287
0.49296
0.492669
0.49242
0.492123
0.491658
0.491022
0.490318
0.489546
0.488673
0.487834
0.486891
0.484841
0.481252
0.475429
0.466526
0.45498
0.444734
0.43959
0.438474
0.438437
0.438465
0.438573
0.438782
0.43905
0.439378
0.439641
0.439891
0.440083
0.440349
0.440728
0.441178
0.44196
0.44257
0.443455
0.445605
0.446963
0.453473
0.49096
0.604348
0.757249
0.875862
0.905601
0.924364
0.934595
0.928086
0.916784
0.911439
0.911118
0.913178
0.921858
0.494361
0.49438
0.494411
0.494459
0.494496
0.494512
0.494542
0.494597
0.494669
0.49475
0.494826
0.494888
0.494947
0.49503
0.49518
0.495275
0.495288
0.495309
0.495427
0.495616
0.495724
0.49581
0.495866
0.495907
0.496038
0.496227
0.496354
0.496461
0.496575
0.496687
0.496791
0.496891
0.496976
0.497035
0.497052
0.49695
0.496747
0.496646
0.49664
0.496664
0.496673
0.496632
0.496508
0.496255
0.495933
0.495675
0.495455
0.495189
0.494862
0.494533
0.494205
0.493878
0.493646
0.493464
0.493159
0.49257
0.491788
0.490914
0.489924
0.488611
0.486385
0.483045
0.477866
0.470182
0.45994
0.448722
0.440846
0.438327
0.438067
0.438033
0.438072
0.438168
0.438436
0.438882
0.439313
0.439901
0.440476
0.440908
0.441428
0.442146
0.442717
0.443871
0.444882
0.445832
0.448122
0.449658
0.452142
0.458682
0.474663
0.538405
0.658725
0.806719
0.902765
0.923341
0.915822
0.902938
0.899985
0.901013
0.905003
0.917126
0.496209
0.496251
0.496306
0.496368
0.496418
0.49645
0.496495
0.496565
0.49663
0.496682
0.496727
0.496773
0.496822
0.496872
0.496917
0.496951
0.496977
0.497006
0.49704
0.497063
0.497077
0.497096
0.49711
0.497038
0.497002
0.497106
0.497204
0.497249
0.497257
0.497231
0.497252
0.497307
0.497336
0.497353
0.49735
0.49728
0.4972
0.49718
0.497223
0.497279
0.497302
0.497242
0.497078
0.496892
0.496759
0.496651
0.496516
0.496339
0.496155
0.495976
0.495771
0.495469
0.495029
0.494602
0.494296
0.494019
0.493604
0.492734
0.491199
0.488719
0.485232
0.480341
0.473514
0.464478
0.45364
0.443691
0.43847
0.437255
0.437142
0.437063
0.437014
0.437047
0.437168
0.437551
0.43785
0.438257
0.438825
0.439252
0.439815
0.440772
0.441658
0.44275
0.444952
0.446586
0.448904
0.452747
0.456731
0.461782
0.472234
0.486769
0.517879
0.601478
0.726453
0.827707
0.866891
0.88705
0.896655
0.899514
0.900813
0.912342
0.499878
0.499921
0.499963
0.500015
0.500061
0.5001
0.500159
0.500246
0.500301
0.500316
0.500304
0.500359
0.500526
0.500613
0.500623
0.500624
0.500704
0.500769
0.500764
0.500784
0.500882
0.500967
0.501022
0.501046
0.501045
0.501037
0.501035
0.50103
0.50101
0.500978
0.500929
0.5008
0.500583
0.50055
0.50065
0.500748
0.500807
0.50082
0.500773
0.500684
0.500582
0.500436
0.500273
0.500171
0.50011
0.500026
0.499892
0.499741
0.499574
0.49936
0.499044
0.498577
0.497933
0.497151
0.4963
0.495356
0.494105
0.492356
0.490005
0.486806
0.482425
0.476607
0.469048
0.459756
0.449718
0.441905
0.438206
0.43726
0.437172
0.437179
0.437173
0.437359
0.437582
0.438026
0.438625
0.439229
0.440064
0.441215
0.442534
0.444321
0.446931
0.449817
0.454113
0.459313
0.465065
0.473252
0.481348
0.48897
0.495866
0.503669
0.517668
0.537777
0.583542
0.679874
0.791815
0.864655
0.886788
0.89129
0.89393
0.905926
0.502667
0.502721
0.502775
0.502782
0.50278
0.502846
0.502899
0.502902
0.502913
0.502989
0.503049
0.503068
0.503042
0.503072
0.503162
0.503239
0.503292
0.503319
0.503294
0.503308
0.503393
0.50342
0.503422
0.5035
0.503564
0.503587
0.50359
0.503571
0.503568
0.503603
0.503634
0.503619
0.503548
0.503525
0.503597
0.503698
0.503778
0.503823
0.503837
0.503809
0.503743
0.503648
0.503514
0.503365
0.503211
0.503029
0.502796
0.502515
0.502158
0.501685
0.501059
0.500276
0.499394
0.498465
0.497449
0.496199
0.494487
0.492133
0.489022
0.485098
0.480248
0.474255
0.466984
0.458555
0.449883
0.443309
0.441484
0.441599
0.44175
0.442097
0.442766
0.443782
0.445078
0.446473
0.448504
0.450858
0.453373
0.456675
0.460437
0.464431
0.469498
0.47501
0.480436
0.487029
0.494064
0.500434
0.507713
0.516642
0.525785
0.532299
0.541395
0.552616
0.572443
0.606315
0.67464
0.76183
0.826382
0.861346
0.877546
0.898609
0.504845
0.504887
0.504903
0.504936
0.505001
0.505047
0.505081
0.505144
0.5052
0.505263
0.505331
0.505382
0.505434
0.505502
0.505599
0.505726
0.50581
0.505824
0.505863
0.506033
0.506341
0.506485
0.506516
0.506547
0.506688
0.506949
0.507168
0.507309
0.507441
0.50755
0.507623
0.507704
0.507829
0.507954
0.50806
0.508137
0.508193
0.508225
0.508228
0.508224
0.508217
0.508164
0.508002
0.507741
0.507415
0.507031
0.506567
0.506009
0.505372
0.504608
0.503711
0.502675
0.501483
0.500098
0.498529
0.496778
0.494629
0.491971
0.48878
0.485173
0.480823
0.475161
0.468137
0.460043
0.45358
0.45146
0.451511
0.452139
0.453185
0.454568
0.456316
0.458099
0.460294
0.462816
0.465585
0.468753
0.472261
0.475881
0.480132
0.484493
0.489338
0.495086
0.500517
0.5067
0.514217
0.522209
0.529669
0.539182
0.55123
0.560765
0.568575
0.57859
0.592007
0.612829
0.641568
0.685948
0.752314
0.816669
0.850272
0.887362
0.512991
0.513096
0.513202
0.513312
0.513424
0.513538
0.51366
0.513785
0.513913
0.514042
0.51418
0.514331
0.514471
0.514594
0.514708
0.514823
0.514978
0.515166
0.51539
0.515569
0.51569
0.515871
0.516127
0.516231
0.516286
0.516413
0.5167
0.516928
0.51704
0.517088
0.517091
0.517108
0.517191
0.517252
0.517273
0.517257
0.517132
0.516917
0.516694
0.516467
0.516189
0.515823
0.515359
0.514808
0.514179
0.513477
0.512695
0.51183
0.51092
0.509962
0.508892
0.507631
0.506089
0.504152
0.501722
0.498826
0.495765
0.492843
0.489801
0.486163
0.481664
0.475634
0.46801
0.461017
0.457818
0.457759
0.458208
0.459143
0.460961
0.463103
0.465508
0.467859
0.470362
0.473781
0.477146
0.48083
0.48548
0.489816
0.494696
0.501202
0.50694
0.513201
0.521789
0.530154
0.537378
0.547279
0.558759
0.56813
0.577466
0.590726
0.605912
0.615599
0.621505
0.630219
0.64766
0.681338
0.728894
0.786905
0.835242
0.888224
0.519309
0.519339
0.519324
0.519378
0.519452
0.51946
0.519503
0.519627
0.519692
0.519683
0.519687
0.519792
0.519851
0.519896
0.519962
0.519977
0.519914
0.51997
0.520111
0.52018
0.520162
0.520051
0.520111
0.520188
0.520216
0.520234
0.520264
0.520279
0.520232
0.52012
0.52003
0.519962
0.519882
0.519772
0.519625
0.519448
0.519246
0.519017
0.518764
0.518484
0.518186
0.517878
0.517557
0.517197
0.516777
0.516295
0.51575
0.515135
0.514431
0.513654
0.51277
0.511695
0.510291
0.508457
0.506143
0.503306
0.499908
0.495969
0.491737
0.487211
0.48215
0.476263
0.469158
0.463653
0.462854
0.463534
0.465673
0.468668
0.471967
0.47541
0.478663
0.48281
0.487531
0.492201
0.49792
0.503807
0.509416
0.516437
0.523497
0.530273
0.538439
0.546942
0.554752
0.563534
0.573577
0.582497
0.591868
0.603316
0.614243
0.624359
0.634829
0.647845
0.660675
0.672887
0.685632
0.705546
0.737997
0.782009
0.824652
0.883415
0.527601
0.527748
0.52789
0.528006
0.528117
0.52826
0.528393
0.528567
0.528869
0.529004
0.529037
0.52912
0.529374
0.529601
0.529673
0.529748
0.529921
0.530178
0.530326
0.530435
0.530553
0.530701
0.530879
0.531026
0.531085
0.531072
0.531184
0.531395
0.531538
0.531676
0.531792
0.53188
0.531949
0.532012
0.532055
0.532062
0.532062
0.532063
0.532033
0.531967
0.531876
0.531773
0.531652
0.53148
0.531229
0.530895
0.530476
0.529955
0.529302
0.528502
0.527572
0.526461
0.525072
0.523312
0.521147
0.518554
0.515386
0.511519
0.50691
0.501081
0.493842
0.489253
0.489404
0.490568
0.492358
0.495091
0.498794
0.503318
0.507607
0.511756
0.516139
0.520766
0.525962
0.531528
0.537133
0.543147
0.549447
0.555795
0.56281
0.569937
0.57733
0.585516
0.593692
0.60209
0.611557
0.622101
0.631182
0.641394
0.653643
0.667061
0.67874
0.691071
0.704699
0.71701
0.727068
0.73803
0.755505
0.785496
0.82294
0.881746
0.547193
0.547377
0.547469
0.547482
0.547523
0.54775
0.548069
0.548133
0.54815
0.548278
0.548449
0.548484
0.548558
0.54882
0.549052
0.549134
0.549149
0.549105
0.549216
0.549398
0.549506
0.549548
0.549523
0.549485
0.549558
0.549637
0.549673
0.549685
0.549638
0.549523
0.549426
0.549358
0.549276
0.54913
0.548918
0.548673
0.548394
0.548079
0.547727
0.547317
0.546849
0.546332
0.545758
0.545123
0.544419
0.543633
0.542747
0.541754
0.540648
0.539409
0.538039
0.536536
0.534908
0.533164
0.531311
0.529315
0.527204
0.525214
0.523325
0.520934
0.517562
0.515391