/*--------------------------------*- C++ -*----------------------------------*\
  =========                 |
  \\      /  F ield         | OpenFOAM: The Open Source CFD Toolbox
   \\    /   O peration     | Website:  https://openfoam.org
    \\  /    A nd           | Version:  7
     \\/     M anipulation  |
\*---------------------------------------------------------------------------*/
FoamFile
{
    version     2.0;
    format      ascii;
    class       volScalarField;
    location    "9";
    object      rho;
}
// * * * * * * * * * * * * * * * * * * * * * * * * * * * * * * * * * * * * * //

dimensions      [1 -3 0 0 0 0 0];

internalField   nonuniform List<scalar> 
90000
(
0.183504
0.228096
0.272065
0.297863
0.324076
0.364425
0.397449
0.426719
0.468088
0.5115
0.552247
0.5938
0.641089
0.683302
0.723206
0.76121
0.792616
0.815124
0.836182
0.844308
0.853744
0.851957
0.849326
0.848338
0.841114
0.841486
0.839498
0.838575
0.844283
0.853172
0.86145
0.869399
0.876238
0.880971
0.884154
0.888551
0.895855
0.903237
0.909645
0.916382
0.923737
0.9304
0.936603
0.943188
0.950746
0.958838
0.968589
0.979495
0.991714
1.0045
1.01733
1.02603
1.03314
1.03365
1.03193
1.02864
1.02597
1.02416
1.02514
1.02803
1.03228
1.03687
1.04265
1.04701
1.04873
1.04789
1.04461
1.04025
1.03593
1.03635
1.03928
1.04325
1.04592
1.04556
1.04242
1.03849
1.03873
1.04117
1.04322
1.04251
1.04237
1.04347
1.04906
1.05663
1.0636
1.0675
1.0738
1.07954
1.0873
1.08895
1.09505
1.09794
1.10409
1.1097
1.1139
1.11849
1.12092
1.12468
1.12819
1.13356
0.144589
0.144624
0.144668
0.144716
0.144774
0.14483
0.144902
0.144953
0.146085
0.149318
0.155941
0.166492
0.182571
0.205554
0.234007
0.27314
0.319608
0.376233
0.438401
0.503073
0.565229
0.627527
0.67592
0.719068
0.748516
0.769095
0.779084
0.781989
0.780484
0.775542
0.773095
0.77058
0.770017
0.774277
0.772684
0.772754
0.777367
0.781969
0.787532
0.796654
0.810371
0.826637
0.842259
0.856752
0.869773
0.881354
0.890858
0.898595
0.904779
0.911382
0.91698
0.92364
0.929596
0.936897
0.944393
0.952748
0.962818
0.974155
0.985063
0.993998
1.00203
1.00856
1.01351
1.01615
1.01686
1.01768
1.01967
1.02369
1.02854
1.03473
1.04071
1.04361
1.04214
1.03829
1.03376
1.03478
1.03884
1.04256
1.0439
1.04287
1.04299
1.04755
1.05528
1.06293
1.06679
1.07198
1.07785
1.0858
1.09044
1.09357
1.09899
1.10151
1.10846
1.11154
1.11628
1.12011
1.12232
1.12711
1.1306
1.13593
0.145349
0.145443
0.145545
0.145653
0.145769
0.14589
0.146019
0.146145
0.146298
0.146376
0.146451
0.146526
0.146609
0.146699
0.146802
0.146915
0.147016
0.147216
0.150096
0.160011
0.177254
0.206779
0.247246
0.299334
0.364465
0.433546
0.500944
0.559634
0.614965
0.655528
0.693088
0.720504
0.742286
0.756353
0.755168
0.753996
0.745836
0.735967
0.726927
0.71937
0.712955
0.713971
0.720917
0.734462
0.753072
0.772845
0.789552
0.800561
0.806915
0.809915
0.813423
0.81886
0.829467
0.845105
0.861417
0.875527
0.887806
0.897727
0.906007
0.912961
0.920863
0.930195
0.940325
0.951102
0.962316
0.973895
0.985612
0.997498
1.00758
1.01669
1.0179
1.01651
1.01713
1.02016
1.02517
1.03144
1.03932
1.0398
1.03852
1.039
1.04331
1.05306
1.05984
1.06517
1.06835
1.07548
1.08251
1.09066
1.09325
1.09857
1.10299
1.10648
1.11241
1.11366
1.11886
1.12124
1.12412
1.12899
1.13209
1.13717
0.146429
0.146529
0.146631
0.146738
0.146842
0.146948
0.14705
0.147154
0.147246
0.147338
0.147433
0.147535
0.147633
0.147724
0.147808
0.14789
0.147969
0.148064
0.148105
0.148149
0.1482
0.148262
0.148326
0.148411
0.148471
0.152215
0.164998
0.189446
0.227873
0.281353
0.347004
0.424979
0.501133
0.576945
0.631323
0.683675
0.708196
0.72907
0.727896
0.720421
0.71064
0.700283
0.694947
0.691636
0.689088
0.691067
0.699912
0.71503
0.730463
0.74258
0.751303
0.754182
0.756878
0.761802
0.769994
0.77917
0.787698
0.794746
0.801901
0.811873
0.825136
0.840536
0.85594
0.869806
0.88287
0.895302
0.908819
0.921508
0.934538
0.946203
0.958019
0.970082
0.983158
0.995995
1.00764
1.01534
1.014
1.01406
1.01991
1.03119
1.04532
1.05502
1.06027
1.064
1.06823
1.07672
1.08437
1.09168
1.09402
1.1012
1.10627
1.11154
1.11522
1.11672
1.12095
1.12254
1.12617
1.13025
1.13307
1.13782
0.14742
0.147482
0.147546
0.14761
0.147674
0.147739
0.147803
0.147864
0.14792
0.147976
0.148031
0.14809
0.148146
0.148204
0.148259
0.148311
0.148364
0.148423
0.148481
0.148547
0.148618
0.148695
0.148772
0.148859
0.148948
0.148993
0.149034
0.149084
0.14913
0.149178
0.149208
0.153202
0.168064
0.201543
0.257739
0.333788
0.429841
0.523208
0.603247
0.65514
0.689699
0.705761
0.702804
0.69887
0.687
0.674684
0.665037
0.664671
0.669007
0.682966
0.702221
0.716519
0.723354
0.718175
0.710712
0.707929
0.71156
0.722098
0.735714
0.747696
0.755786
0.761846
0.771377
0.783647
0.795963
0.808273
0.82089
0.835787
0.851278
0.867415
0.884688
0.901725
0.917695
0.930495
0.942539
0.954283
0.965841
0.980804
0.998253
1.01694
1.03494
1.03748
1.04227
1.05076
1.06199
1.07428
1.08301
1.08615
1.09112
1.10134
1.10684
1.1126
1.11589
1.11797
1.12178
1.12347
1.12728
1.13087
1.13336
1.13683
0.148019
0.148059
0.148101
0.148143
0.148186
0.148229
0.148272
0.148314
0.148355
0.148392
0.148429
0.148469
0.148514
0.148561
0.148608
0.148652
0.148702
0.148759
0.148814
0.148869
0.148931
0.148996
0.149062
0.149133
0.149201
0.14926
0.149311
0.149363
0.149401
0.14943
0.149456
0.149465
0.149474
0.149482
0.149496
0.149513
0.155182
0.176437
0.229782
0.309359
0.413038
0.518663
0.586963
0.644845
0.66408
0.673697
0.668921
0.661433
0.659987
0.663535
0.672668
0.690496
0.704208
0.703919
0.697549
0.68984
0.682813
0.683994
0.691477
0.702946
0.711217
0.714391
0.713596
0.716481
0.725819
0.737891
0.748927
0.757291
0.769521
0.783611
0.798113
0.813165
0.828662
0.844774
0.861579
0.881456
0.903307
0.924631
0.942946
0.958665
0.973796
0.991064
1.01089
1.02983
1.04762
1.05314
1.05773
1.06662
1.07751
1.08783
1.09627
1.1062
1.11266
1.11795
1.12151
1.12409
1.12766
1.12997
1.13048
1.13268
0.148453
0.148483
0.148513
0.148546
0.148578
0.14861
0.148642
0.148675
0.14871
0.148744
0.148778
0.148814
0.148851
0.14889
0.148934
0.148975
0.149018
0.149067
0.149116
0.14916
0.149208
0.149257
0.149305
0.149355
0.149406
0.149443
0.149473
0.149497
0.149514
0.149526
0.149535
0.149544
0.149557
0.14957
0.149591
0.149634
0.149673
0.149703
0.149727
0.149734
0.153409
0.177689
0.235546
0.325459
0.438325
0.536751
0.605653
0.649118
0.66431
0.665507
0.671147
0.674763
0.68309
0.682721
0.685554
0.68605
0.68339
0.679415
0.67824
0.679202
0.684586
0.691979
0.69518
0.694926
0.695428
0.699537
0.706371
0.712655
0.71562
0.723185
0.734601
0.74619
0.757271
0.769695
0.785508
0.803343
0.82185
0.841233
0.860462
0.880305
0.904736
0.930777
0.952922
0.969064
0.982606
0.997861
1.01797
1.03636
1.05212
1.05912
1.06772
1.07991
1.08988
1.10105
1.1099
1.11682
1.12144
1.12353
1.12537
1.13031
0.14878
0.148805
0.148831
0.148859
0.148889
0.148918
0.148948
0.148979
0.149012
0.149045
0.149078
0.14911
0.14914
0.149172
0.149205
0.149238
0.149271
0.149306
0.149342
0.149374
0.149406
0.149439
0.149471
0.149508
0.149542
0.149565
0.149579
0.149591
0.149601
0.149605
0.149607
0.149613
0.149625
0.149641
0.149669
0.14972
0.149778
0.149818
0.149842
0.149845
0.149831
0.149793
0.149731
0.149662
0.159424
0.194856
0.272052
0.383512
0.496921
0.564872
0.624727
0.638519
0.655436
0.665411
0.678733
0.689158
0.687109
0.684902
0.681149
0.676728
0.677191
0.679953
0.683899
0.687007
0.686623
0.684758
0.685635
0.689962
0.695759
0.696692
0.69861
0.704096
0.710127
0.717424
0.727531
0.74082
0.755664
0.772218
0.789298
0.806096
0.825112
0.845793
0.865598
0.885622
0.908173
0.931771
0.952509
0.967781
0.984162
1.00294
1.02193
1.03645
1.04807
1.0608
1.07085
1.08197
1.09283
1.10326
1.11273
1.12523
0.149082
0.149108
0.149132
0.149158
0.149183
0.149209
0.149234
0.149258
0.149285
0.149314
0.14934
0.149361
0.149379
0.149396
0.149415
0.149436
0.149457
0.149479
0.149502
0.149522
0.149542
0.149562
0.149582
0.149604
0.149627
0.149645
0.149654
0.149664
0.149666
0.149661
0.14966
0.149663
0.149675
0.1497
0.149745
0.149806
0.149852
0.149882
0.149889
0.149882
0.149862
0.149818
0.149723
0.149642
0.149644
0.149651
0.149648
0.150212
0.174161
0.233581
0.332914
0.447683
0.548027
0.624649
0.66182
0.68648
0.690176
0.693522
0.687049
0.67938
0.677862
0.679615
0.683599
0.687492
0.686045
0.683538
0.682505
0.683211
0.685889
0.688988
0.688665
0.688688
0.69104
0.695856
0.699812
0.706059
0.715839
0.725598
0.73733
0.751485
0.76474
0.780523
0.796728
0.81246
0.829075
0.848576
0.86755
0.886868
0.90892
0.929157
0.948962
0.967065
0.985981
1.00216
1.01612
1.03051
1.04223
1.0537
1.06586
1.08337
0.149384
0.149401
0.149418
0.149437
0.149457
0.149477
0.149493
0.149506
0.14952
0.149533
0.149545
0.149545
0.149545
0.14955
0.149558
0.149569
0.149581
0.149594
0.149607
0.149618
0.149629
0.14964
0.14965
0.149663
0.149678
0.149694
0.149708
0.149712
0.149706
0.149694
0.149693
0.149697
0.149711
0.149751
0.149812
0.149863
0.149891
0.149908
0.149907
0.149892
0.149862
0.149804
0.149695
0.14964
0.149652
0.149662
0.149668
0.149704
0.149773
0.149874
0.14995
0.163425
0.208487
0.309846
0.435811
0.568366
0.634516
0.677976
0.682589
0.684975
0.685533
0.683834
0.685165
0.687015
0.68521
0.6832
0.682475
0.683503
0.685654
0.687205
0.686613
0.6854
0.685694
0.68859
0.694126
0.69779
0.701226
0.707738
0.714033
0.720239
0.727992
0.736024
0.746821
0.760275
0.77217
0.785089
0.800909
0.818368
0.834676
0.851823
0.867959
0.883508
0.902576
0.921048
0.937595
0.955115
0.972816
0.989493
1.00232
1.0215
0.149639
0.149642
0.149646
0.149652
0.149659
0.149667
0.149669
0.149665
0.149661
0.149661
0.149656
0.149635
0.149626
0.149626
0.149629
0.149635
0.149643
0.149652
0.149659
0.149664
0.149668
0.149672
0.149677
0.149682
0.149692
0.149712
0.149731
0.149733
0.149725
0.149717
0.149717
0.149724
0.14975
0.149811
0.149861
0.149888
0.149899
0.149893
0.149874
0.14984
0.149807
0.149757
0.149687
0.149666
0.149683
0.149725
0.149796
0.149935
0.150043
0.150098
0.150171
0.150269
0.150314
0.150306
0.158727
0.209818
0.325238
0.475979
0.584624
0.660683
0.682099
0.683019
0.687147
0.688868
0.686179
0.685235
0.686135
0.687497
0.687549
0.687782
0.686968
0.685906
0.686825
0.689217
0.692049
0.69436
0.696515
0.700199
0.706927
0.712245
0.717241
0.721794
0.725893
0.73131
0.740396
0.74879
0.757308
0.768186
0.778861
0.790974
0.806907
0.820063
0.831952
0.846486
0.864531
0.879897
0.893996
0.909976
0.926191
0.949931
0.149734
0.149733
0.14973
0.149729
0.149731
0.149732
0.149728
0.149717
0.149709
0.149702
0.149683
0.149649
0.149643
0.149644
0.149648
0.149655
0.149664
0.149674
0.149682
0.149686
0.149689
0.149692
0.149696
0.1497
0.149709
0.149732
0.149759
0.14977
0.149775
0.149774
0.149773
0.14978
0.149809
0.14986
0.149881
0.149866
0.149835
0.149804
0.149774
0.149767
0.149765
0.149739
0.149729
0.14977
0.149853
0.149932
0.150048
0.150181
0.150208
0.150201
0.150216
0.150221
0.150211
0.150213
0.150141
0.14987
0.149596
0.164561
0.242512
0.381188
0.531222
0.613876
0.674839
0.684411
0.685353
0.690544
0.694168
0.692584
0.688602
0.687508
0.687947
0.689235
0.692408
0.694523
0.696511
0.698094
0.700137
0.702848
0.706054
0.710352
0.713452
0.717823
0.721577
0.725098
0.728991
0.734895
0.739626
0.745545
0.754114
0.761909
0.768493
0.779173
0.78923
0.796103
0.80511
0.819727
0.831179
0.840361
0.849432
0.870937
0.149741
0.14973
0.149714
0.14971
0.149711
0.149715
0.149714
0.149709
0.149704
0.149697
0.149675
0.149646
0.149644
0.149648
0.149661
0.149683
0.149707
0.149732
0.149755
0.149774
0.149791
0.149805
0.149812
0.149819
0.149831
0.149852
0.149888
0.149909
0.149908
0.149891
0.149856
0.149844
0.149844
0.149833
0.149813
0.149783
0.149747
0.149725
0.149725
0.14974
0.149756
0.149785
0.149863
0.15001
0.150114
0.15018
0.150253
0.150279
0.150267
0.150233
0.150183
0.150117
0.150041
0.15002
0.149943
0.149639
0.149496
0.149522
0.149608
0.149671
0.190953
0.29969
0.462662
0.587612
0.660929
0.691144
0.695081
0.696346
0.691963
0.688742
0.691957
0.695155
0.697761
0.698913
0.700532
0.702765
0.705868
0.70831
0.710413
0.713194
0.715139
0.716238
0.718972
0.722705
0.725249
0.728295
0.733734
0.738937
0.742832
0.748022
0.751079
0.753119
0.759206
0.768421
0.773653
0.778837
0.78898
0.800097
0.807248
0.819783
0.149766
0.149758
0.149751
0.149747
0.149744
0.149737
0.14973
0.149731
0.149728
0.149716
0.149716
0.149724
0.14974
0.149766
0.1498
0.149834
0.149865
0.149897
0.149915
0.149925
0.149931
0.149929
0.149916
0.149912
0.149917
0.149933
0.14996
0.149967
0.149958
0.149921
0.149847
0.149779
0.149741
0.149727
0.149723
0.149723
0.149716
0.149714
0.149718
0.149742
0.14982
0.149954
0.150137
0.150273
0.15031
0.150317
0.150312
0.150305
0.150278
0.150166
0.150053
0.150004
0.149929
0.149876
0.149794
0.149555
0.149469
0.1495
0.149713
0.150017
0.150295
0.150564
0.164933
0.247467
0.404772
0.558474
0.64188
0.685631
0.68481
0.692429
0.700642
0.701184
0.700065
0.7024
0.705308
0.708317
0.711825
0.713824
0.714606
0.715929
0.717395
0.719232
0.722305
0.725248
0.726878
0.728816
0.731522
0.735199
0.738171
0.74138
0.746578
0.749279
0.751718
0.757091
0.764106
0.766429
0.766365
0.771362
0.779418
0.790189
0.149803
0.149794
0.149788
0.149789
0.149793
0.149803
0.149813
0.14982
0.149825
0.149832
0.149849
0.149867
0.149884
0.149901
0.149918
0.149945
0.14997
0.14998
0.14998
0.149979
0.149974
0.149958
0.149933
0.149927
0.149928
0.149938
0.14994
0.149928
0.149884
0.149808
0.149717
0.149673
0.149663
0.149668
0.149691
0.149713
0.149723
0.149733
0.149761
0.149849
0.150033
0.150241
0.150381
0.150397
0.150373
0.150335
0.150316
0.15029
0.150181
0.149963
0.149894
0.149895
0.149871
0.149802
0.14973
0.149555
0.149483
0.14958
0.149984
0.150659
0.151234
0.15161
0.151578
0.151316
0.154719
0.20894
0.351562
0.536235
0.642025
0.698008
0.702123
0.705595
0.701981
0.710152
0.711487
0.715287
0.717627
0.718542
0.71995
0.721429
0.723626
0.725117
0.726611
0.727935
0.729607
0.732056
0.73509
0.737795
0.740052
0.741933
0.744761
0.748592
0.752202
0.75457
0.758824
0.763036
0.764765
0.764
0.765858
0.77359
0.149907
0.14991
0.149914
0.149922
0.149932
0.149942
0.149954
0.14997
0.149983
0.149983
0.149979
0.149973
0.149965
0.149962
0.149965
0.149977
0.14999
0.14999
0.149987
0.149981
0.149957
0.149904
0.14988
0.149868
0.149836
0.149821
0.149814
0.149789
0.149734
0.149689
0.149668
0.149652
0.149651
0.149661
0.149706
0.149769
0.14984
0.149913
0.149983
0.150093
0.150291
0.150431
0.150438
0.150428
0.150361
0.150239
0.150183
0.150124
0.14997
0.149814
0.149797
0.149823
0.149834
0.14978
0.149736
0.149872
0.149984
0.150137
0.150606
0.151523
0.152103
0.152022
0.152017
0.151965
0.152117
0.152785
0.153717
0.195123
0.335894
0.520411
0.636855
0.699762
0.706919
0.725051
0.722188
0.727577
0.724664
0.727822
0.730029
0.731232
0.733226
0.733592
0.733935
0.735547
0.738299
0.740907
0.741939
0.743204
0.745007
0.746211
0.748403
0.752052
0.754631
0.755769
0.757234
0.759682
0.763047
0.765295
0.767107
0.771848
0.15009
0.150091
0.150091
0.15009
0.150085
0.150076
0.150074
0.150073
0.150067
0.150052
0.150028
0.150002
0.149976
0.149956
0.149945
0.149935
0.149913
0.149876
0.14985
0.149823
0.149747
0.149676
0.149673
0.149676
0.149681
0.149687
0.149685
0.149669
0.149642
0.149641
0.149658
0.149694
0.149722
0.149779
0.149896
0.150031
0.150159
0.15022
0.150243
0.150297
0.150404
0.150436
0.150427
0.150383
0.150203
0.150026
0.150001
0.149959
0.149851
0.149773
0.149768
0.149814
0.149821
0.149797
0.149967
0.150651
0.151454
0.151818
0.152026
0.152504
0.153037
0.152887
0.152817
0.153233
0.154497
0.156829
0.159918
0.161312
0.162095
0.192633
0.316508
0.509651
0.654069
0.712692
0.736134
0.753365
0.740754
0.749501
0.745955
0.748501
0.749666
0.749304
0.749526
0.749318
0.750701
0.752415
0.753304
0.754939
0.756755
0.757671
0.758783
0.760133
0.759965
0.759211
0.759428
0.762032
0.76682
0.770776
0.772412
0.774939
0.150171
0.150163
0.150156
0.150145
0.150127
0.150103
0.150071
0.15004
0.150008
0.149955
0.149892
0.149833
0.149772
0.149726
0.149698
0.149675
0.149643
0.149605
0.149581
0.149564
0.149537
0.149512
0.149508
0.149522
0.14956
0.149601
0.149623
0.149644
0.149695
0.149776
0.149889
0.149991
0.150058
0.150136
0.150248
0.150387
0.150449
0.150442
0.150417
0.150393
0.150373
0.150345
0.150307
0.15023
0.150057
0.149939
0.149931
0.149905
0.149814
0.149808
0.149836
0.149949
0.150017
0.150118
0.150693
0.151722
0.152972
0.153866
0.153806
0.153765
0.154286
0.154734
0.155036
0.156085
0.158639
0.161646
0.164794
0.167053
0.168517
0.169656
0.171301
0.197218
0.313957
0.50138
0.668298
0.73974
0.75915
0.786612
0.771218
0.778341
0.773012
0.772519
0.77323
0.773128
0.773823
0.774607
0.774154
0.773364
0.773189
0.773208
0.773505
0.774717
0.776152
0.776099
0.775127
0.775095
0.776226
0.777712
0.778363
0.779316
0.14988
0.149854
0.149826
0.149794
0.149761
0.149727
0.149696
0.149661
0.149607
0.149551
0.149513
0.149489
0.14947
0.14944
0.149426
0.149435
0.149434
0.149425
0.149431
0.14944
0.149446
0.149455
0.14947
0.149507
0.149615
0.149752
0.149867
0.149972
0.150085
0.150198
0.150296
0.150374
0.150441
0.150508
0.15059
0.150641
0.15063
0.150592
0.150535
0.150436
0.150347
0.150303
0.150256
0.150177
0.150032
0.14997
0.149962
0.149976
0.150067
0.150297
0.150649
0.151149
0.151813
0.152191
0.152624
0.153287
0.154263
0.155635
0.155814
0.155832
0.156272
0.158029
0.160551
0.163254
0.166063
0.168295
0.169989
0.172134
0.174379
0.177091
0.180844
0.183403
0.18496
0.201503
0.300754
0.497753
0.679046
0.763764
0.795352
0.82839
0.807083
0.810389
0.805078
0.803542
0.806154
0.807498
0.805867
0.802466
0.800761
0.801212
0.801704
0.800787
0.798934
0.797157
0.795775
0.795022
0.794821
0.79525
0.796041
0.796495
0.149417
0.149424
0.149426
0.149425
0.149426
0.149426
0.149424
0.149413
0.149378
0.149348
0.149348
0.149368
0.149384
0.149382
0.149387
0.149423
0.149462
0.149524
0.149623
0.149713
0.14981
0.149901
0.149976
0.150086
0.150237
0.150335
0.150404
0.150473
0.15052
0.15057
0.150622
0.150657
0.150719
0.150808
0.150872
0.150865
0.15083
0.150776
0.150692
0.150587
0.150469
0.150312
0.15029
0.150344
0.15047
0.150522
0.150587
0.150727
0.150907
0.151345
0.152472
0.153833
0.155098
0.15616
0.156401
0.156486
0.156526
0.157546
0.159182
0.16027
0.161912
0.164245
0.167768
0.170885
0.173177
0.175555
0.177101
0.17878
0.181445
0.185
0.188183
0.190404
0.193215
0.195083
0.196537
0.206955
0.300078
0.493227
0.698651
0.801227
0.826918
0.863467
0.848502
0.849266
0.845242
0.840781
0.840138
0.841281
0.840336
0.838937
0.83698
0.834801
0.833097
0.832153
0.830891
0.829302
0.82717
0.825817
0.825597
0.82315
0.149457
0.149483
0.149512
0.14955
0.149592
0.149632
0.149679
0.149745
0.149813
0.149873
0.149967
0.150156
0.150284
0.150318
0.150356
0.150401
0.150453
0.150567
0.150696
0.150758
0.150781
0.150794
0.150824
0.150891
0.150896
0.150875
0.150878
0.150896
0.150883
0.150878
0.150907
0.15095
0.151005
0.151101
0.151135
0.151074
0.150939
0.150871
0.150829
0.150755
0.150569
0.150489
0.150593
0.150921
0.151302
0.15173
0.152338
0.153178
0.154192
0.155371
0.156799
0.157872
0.158722
0.160151
0.161527
0.161693
0.161753
0.162234
0.164418
0.167954
0.171155
0.173524
0.176057
0.178549
0.180235
0.182101
0.184212
0.186353
0.188875
0.192268
0.195039
0.197439
0.200287
0.202802
0.206136
0.209596
0.211025
0.213856
0.294613
0.483418
0.701951
0.833522
0.86146
0.901694
0.892496
0.889099
0.880735
0.877452
0.877931
0.881376
0.880828
0.878338
0.875409
0.872961
0.871349
0.869828
0.867078
0.864208
0.86241
0.859359
0.150586
0.150682
0.150772
0.150868
0.15096
0.151038
0.151113
0.151196
0.151275
0.151349
0.151427
0.151505
0.151556
0.151573
0.151576
0.151559
0.151496
0.15146
0.151455
0.151442
0.1514
0.151349
0.151335
0.15132
0.151273
0.151224
0.151222
0.151219
0.151172
0.151161
0.151193
0.15118
0.151165
0.151203
0.151223
0.151164
0.151078
0.151145
0.151355
0.151617
0.152042
0.152714
0.153564
0.154451
0.155486
0.156799
0.158242
0.159558
0.160732
0.161815
0.162498
0.162804
0.163152
0.164124
0.166107
0.16784
0.169373
0.171455
0.174158
0.177662
0.180528
0.182613
0.184022
0.185626
0.187062
0.188506
0.190732
0.194108
0.197885
0.200477
0.202904
0.205804
0.207635
0.209379
0.212372
0.216326
0.219492
0.222205
0.224413
0.226001
0.297741
0.482412
0.713836
0.869559
0.892453
0.933573
0.93103
0.930524
0.921298
0.919111
0.919039
0.921901
0.921121
0.91791
0.914861
0.913565
0.912148
0.910446
0.907467
0.90227
0.15242
0.152414
0.152407
0.152377
0.152367
0.152358
0.152289
0.152217
0.15219
0.152163
0.152131
0.152076
0.152029
0.151999
0.151969
0.151951
0.151883
0.151818
0.151789
0.15175
0.15169
0.151627
0.151576
0.151512
0.151433
0.151389
0.151416
0.1515
0.151528
0.151602
0.151788
0.152076
0.152391
0.152753
0.153216
0.153819
0.154543
0.155405
0.156423
0.157564
0.158767
0.16003
0.161226
0.162327
0.163328
0.164115
0.164775
0.165409
0.166088
0.167113
0.167984
0.168492
0.169364
0.171086
0.173818
0.177206
0.180632
0.183303
0.185294
0.187316
0.188928
0.189999
0.19079
0.191951
0.194191
0.19707
0.200526
0.203845
0.206741
0.208558
0.210445
0.212585
0.214134
0.216759
0.220446
0.225243
0.22861
0.22986
0.231823
0.23543
0.239287
0.241353
0.307577
0.491416
0.726317
0.893846
0.925438
0.973084
0.973183
0.971946
0.960269
0.958146
0.958675
0.961189
0.960936
0.958062
0.955544
0.954168
0.95271
0.948378
0.151904
0.151897
0.151879
0.15188
0.15192
0.151967
0.151927
0.151813
0.151781
0.151753
0.151695
0.151688
0.151719
0.151793
0.151905
0.152019
0.152067
0.152117
0.152236
0.152403
0.152583
0.152791
0.153051
0.153372
0.153787
0.15426
0.154812
0.155419
0.156154
0.157041
0.157965
0.158849
0.159699
0.160584
0.161549
0.162517
0.163445
0.164345
0.16514
0.165885
0.166732
0.167538
0.168229
0.168893
0.169546
0.170144
0.170972
0.172132
0.173575
0.175381
0.177626
0.180226
0.182687
0.185129
0.187129
0.189068
0.191293
0.192789
0.193512
0.194347
0.195537
0.196768
0.198445
0.201104
0.20448
0.207983
0.211559
0.213691
0.214725
0.215975
0.217476
0.219751
0.223372
0.228259
0.23143
0.233083
0.235586
0.237817
0.240088
0.243789
0.24798
0.252057
0.253587
0.254732
0.319711
0.494571
0.736899
0.925799
0.961526
1.00861
1.00749
1.00703
0.997889
0.994739
0.996685
0.998901
0.999578
0.997295
0.994109
0.990374
0.153842
0.15406
0.154307
0.154555
0.154796
0.155072
0.155366
0.155658
0.155984
0.156333
0.156688
0.157111
0.15757
0.158007
0.158472
0.159016
0.15963
0.160244
0.160801
0.161345
0.161931
0.162533
0.163102
0.163706
0.16433
0.164907
0.165487
0.166108
0.16673
0.167287
0.167816
0.168348
0.168962
0.169636
0.170311
0.170964
0.171629
0.172285
0.172934
0.173728
0.17456
0.175353
0.176403
0.177665
0.17916
0.180887
0.182859
0.184918
0.187002
0.189037
0.190996
0.19295
0.19477
0.195941
0.196543
0.197133
0.198463
0.199653
0.200441
0.201507
0.203758
0.206872
0.210367
0.213715
0.216314
0.218293
0.219688
0.22115
0.222343
0.223944
0.226487
0.229775
0.234287
0.238629
0.23957
0.240254
0.242381
0.246188
0.250691
0.255019
0.257116
0.259399
0.262499
0.265975
0.268738
0.270798
0.328032
0.501453
0.755413
0.957054
0.992895
1.04074
1.04162
1.03999
1.03352
1.0298
1.03499
1.03486
1.03298
1.02916
0.165471
0.165649
0.165844
0.166049
0.166263
0.16648
0.166712
0.166958
0.167224
0.167504
0.167776
0.168038
0.168326
0.168645
0.168968
0.169299
0.16964
0.169995
0.17037
0.170773
0.171205
0.171665
0.172152
0.172653
0.173135
0.17363
0.174156
0.17469
0.175229
0.175817
0.176489
0.177218
0.17802
0.178869
0.179794
0.180839
0.181959
0.183217
0.184672
0.1861
0.187494
0.189019
0.190543
0.192007
0.193467
0.194997
0.196435
0.197654
0.198769
0.199824
0.200596
0.201419
0.202772
0.20353
0.203967
0.204737
0.206317
0.209093
0.212023
0.214715
0.217188
0.220139
0.222489
0.223979
0.225313
0.226015
0.226672
0.228388
0.231245
0.235085
0.238882
0.241885
0.244556
0.24647
0.248015
0.250194
0.252877
0.256939
0.261404
0.264427
0.266326
0.268155
0.27126
0.275517
0.279515
0.283503
0.285582
0.287041
0.344567
0.525791
0.786088
0.991257
1.02568
1.07129
1.07599
1.07053
1.06919
1.06209
1.06371
1.06473
0.175391
0.175619
0.175889
0.176185
0.176481
0.176774
0.177073
0.17739
0.177751
0.178149
0.178547
0.178941
0.17935
0.179781
0.180263
0.180777
0.181309
0.181859
0.182424
0.183061
0.18375
0.184456
0.185175
0.185934
0.186729
0.187544
0.188387
0.189243
0.190113
0.191014
0.191863
0.192714
0.193578
0.194428
0.195318
0.196215
0.197142
0.198152
0.199131
0.200043
0.200978
0.201869
0.20263
0.203355
0.204144
0.204895
0.205651
0.206492
0.207513
0.208293
0.208907
0.209969
0.211751
0.214149
0.216465
0.218687
0.220897
0.223193
0.225757
0.227799
0.228838
0.230181
0.231223
0.232077
0.233355
0.235085
0.237778
0.24067
0.244251
0.247713
0.250728
0.252963
0.253339
0.254453
0.257414
0.261182
0.264673
0.268797
0.271719
0.273309
0.275831
0.27883
0.282482
0.286726
0.290432
0.293489
0.296296
0.299544
0.302124
0.304178
0.368236
0.562342
0.825828
1.02541
1.06179
1.0992
1.11109
1.09447
1.09373
1.09301
0.191171
0.191406
0.191669
0.191972
0.192285
0.19259
0.1929
0.1932
0.193505
0.193869
0.194271
0.194653
0.195003
0.195359
0.195757
0.196197
0.196643
0.197057
0.197468
0.197891
0.198335
0.198794
0.199252
0.199721
0.200206
0.200708
0.201223
0.201751
0.202294
0.202845
0.203396
0.203976
0.204542
0.205127
0.205707
0.2063
0.206942
0.207593
0.20824
0.208991
0.209793
0.210633
0.211558
0.212628
0.213773
0.214934
0.216339
0.217948
0.219648
0.221493
0.223459
0.225449
0.227177
0.228784
0.230746
0.232725
0.234144
0.234977
0.236158
0.237141
0.237787
0.238583
0.240331
0.24277
0.245384
0.248903
0.252257
0.255357
0.257591
0.258976
0.260467
0.262097
0.263776
0.266038
0.269724
0.273629
0.277724
0.280444
0.282291
0.284524
0.287276
0.290837
0.294249
0.297336
0.300503
0.303484
0.306824
0.310779
0.3145
0.318251
0.320741
0.322421
0.397752
0.610367
0.875419
1.06146
1.10378
1.11799
1.13208
1.12516
0.204029
0.204209
0.204424
0.204656
0.204901
0.205149
0.205391
0.205643
0.20592
0.206204
0.206493
0.206807
0.207131
0.207448
0.207775
0.208125
0.208495
0.208876
0.209268
0.209675
0.210102
0.21054
0.211003
0.211483
0.211987
0.21252
0.213081
0.213677
0.214311
0.214993
0.215749
0.216579
0.217462
0.218397
0.219346
0.220317
0.221294
0.22227
0.223301
0.224411
0.22554
0.226801
0.228154
0.229506
0.230843
0.232144
0.23337
0.234537
0.235652
0.236832
0.23832
0.239545
0.240285
0.240683
0.241525
0.242829
0.243884
0.244678
0.245677
0.247654
0.250216
0.252745
0.255424
0.258171
0.261275
0.263705
0.265708
0.267547
0.268678
0.269754
0.270951
0.273416
0.276885
0.281181
0.284502
0.287468
0.29023
0.291109
0.292655
0.29539
0.298769
0.302629
0.306321
0.309573
0.312774
0.315942
0.319186
0.322854
0.32614
0.32884
0.331829
0.335663
0.338496
0.340253
0.429398
0.665235
0.9344
1.09614
1.14402
1.15032
0.219519
0.219731
0.219952
0.220184
0.220425
0.220703
0.221024
0.22132
0.221582
0.221872
0.222237
0.222638
0.223014
0.223375
0.223752
0.224164
0.224616
0.225089
0.225581
0.226071
0.226569
0.227087
0.22763
0.228209
0.228795
0.229388
0.229988
0.230597
0.231214
0.231854
0.232525
0.233199
0.233907
0.234612
0.235335
0.23608
0.236827
0.237598
0.238378
0.239143
0.239914
0.240689
0.241436
0.242219
0.243035
0.243844
0.244673
0.245418
0.246197
0.247061
0.248362
0.250003
0.251007
0.251901
0.253374
0.255517
0.258084
0.260302
0.262537
0.264881
0.267494
0.270294
0.272344
0.273899
0.275191
0.276075
0.277184
0.278441
0.280457
0.282565
0.285559
0.288655
0.292395
0.295782
0.298032
0.300003
0.301504
0.30365
0.306599
0.310158
0.31365
0.316944
0.320372
0.323372
0.326051
0.32889
0.33144
0.333936
0.337185
0.340864
0.344384
0.347941
0.351309
0.354909
0.356498
0.361406
0.464832
0.733731
1.00852
1.13938
0.235572
0.235742
0.235946
0.236178
0.236432
0.236693
0.236945
0.237179
0.237463
0.237781
0.238082
0.238369
0.238675
0.238999
0.239342
0.239704
0.240054
0.240406
0.240773
0.241171
0.241594
0.242025
0.242462
0.24291
0.243376
0.243864
0.244369
0.244887
0.245425
0.245983
0.246553
0.247141
0.247753
0.248382
0.249049
0.249738
0.250471
0.251252
0.252065
0.252944
0.25385
0.254792
0.255817
0.256927
0.258106
0.259416
0.26086
0.262487
0.264076
0.265622
0.267022
0.26853
0.270407
0.272629
0.27456
0.276008
0.277293
0.278872
0.280486
0.28151
0.282395
0.283507
0.284698
0.286003
0.287042
0.28865
0.290501
0.293437
0.2966
0.300355
0.303662
0.306362
0.308737
0.310296
0.311883
0.313508
0.315981
0.319272
0.322696
0.325706
0.328585
0.331184
0.333315
0.335507
0.338084
0.341283
0.345032
0.348539
0.351718
0.354918
0.357943
0.360525
0.362879
0.365473
0.368272
0.371408
0.372616
0.391315
0.516203
0.900611
0.253619
0.25382
0.254056
0.254295
0.254541
0.254783
0.255033
0.255306
0.255583
0.255858
0.256167
0.256508
0.256843
0.257165
0.257495
0.257849
0.258239
0.258655
0.259072
0.259489
0.25993
0.260412
0.260909
0.261421
0.261962
0.262548
0.263158
0.263775
0.264427
0.265094
0.265779
0.26648
0.267198
0.267941
0.268707
0.269505
0.270339
0.271218
0.272154
0.273117
0.274113
0.275121
0.276141
0.277166
0.278215
0.279243
0.280278
0.281311
0.282489
0.283725
0.28473
0.285609
0.286426
0.287536
0.288625
0.289429
0.290237
0.291577
0.293003
0.294198
0.295574
0.297216
0.2997
0.302343
0.305531
0.30857
0.311881
0.314652
0.316975
0.31905
0.320628
0.32202
0.322999
0.324558
0.326686
0.32946
0.332307
0.335494
0.338397
0.34081
0.343342
0.345822
0.34816
0.350916
0.353908
0.356635
0.359427
0.362064
0.364182
0.366214
0.368404
0.370839
0.373419
0.376174
0.378542
0.38071
0.382916
0.384586
0.385554
0.51467
0.273716
0.273903
0.27409
0.274277
0.274481
0.274721
0.275016
0.275321
0.275574
0.275822
0.276099
0.27641
0.276753
0.277122
0.277494
0.277842
0.278195
0.278585
0.279013
0.279452
0.27988
0.280313
0.280776
0.281255
0.281737
0.282217
0.282711
0.283233
0.283776
0.284347
0.284942
0.285558
0.286198
0.286861
0.287544
0.288247
0.288968
0.289688
0.290422
0.291156
0.291909
0.292692
0.293503
0.294371
0.295298
0.296211
0.297153
0.298123
0.299012
0.300223
0.301812
0.303233
0.30447
0.305754
0.307331
0.309306
0.311351
0.313335
0.315379
0.317789
0.320238
0.322703
0.324665
0.32649
0.328073
0.329573
0.331122
0.332188
0.33313
0.333789
0.334953
0.336411
0.338644
0.341299
0.34463
0.347776
0.350764
0.352972
0.354896
0.35702
0.358903
0.360712
0.36299
0.365461
0.367836
0.369993
0.371714
0.373496
0.375648
0.37788
0.38008
0.382246
0.384249
0.385891
0.387243
0.388788
0.390218
0.391641
0.392922
0.394086
0.296392
0.296568
0.296776
0.296997
0.297228
0.297476
0.297728
0.297976
0.298238
0.298503
0.298782
0.299097
0.299417
0.299724
0.300028
0.30037
0.300754
0.30114
0.301517
0.301908
0.302339
0.302793
0.303254
0.303732