/*--------------------------------*- C++ -*----------------------------------*\
  =========                 |
  \\      /  F ield         | OpenFOAM: The Open Source CFD Toolbox
   \\    /   O peration     | Website:  https://openfoam.org
    \\  /    A nd           | Version:  7
     \\/     M anipulation  |
\*---------------------------------------------------------------------------*/
FoamFile
{
    version     2.0;
    format      ascii;
    class       volVectorField;
    location    "3.5";
    object      U;
}
// * * * * * * * * * * * * * * * * * * * * * * * * * * * * * * * * * * * * * //

dimensions      [0 1 -1 0 0 0 0];

internalField   nonuniform List<vector> 
24000
(
(2.9991 -1.31388 0)
(2.93803 -1.20001 0)
(2.90607 -1.10401 0)
(2.86855 -0.873853 0)
(2.87958 -0.775526 0)
(2.90182 -0.748092 0)
(2.89067 -0.614649 0)
(2.90038 -0.538331 0)
(2.9094 -0.432177 0)
(2.9232 -0.382999 0)
(2.92019 -0.273297 0)
(2.9314 -0.22015 0)
(2.92496 -0.115859 0)
(2.93827 -0.0717878 0)
(2.9232 0.0250559 0)
(2.91986 0.0317705 0)
(2.91169 0.0594246 0)
(2.91171 0.0612651 0)
(2.90652 0.0467885 0)
(2.90437 0.0387754 0)
(2.90099 0.0389191 0)
(2.9053 0.0522705 0)
(2.90425 0.0705061 0)
(2.90088 0.071311 0)
(2.89954 0.061483 0)
(2.89588 0.0497679 0)
(2.88973 0.04531 0)
(2.88708 0.0369134 0)
(2.87717 0.02984 0)
(2.8687 0.0247291 0)
(2.8666 0.0180687 0)
(2.87207 0.0274164 0)
(2.88392 0.0414314 0)
(2.89426 0.0421421 0)
(2.89439 0.0353306 0)
(2.891 0.0219412 0)
(2.8902 0.0136727 0)
(2.89007 0.0152569 0)
(2.8939 0.0233633 0)
(2.90231 0.0395424 0)
(2.90456 0.0372122 0)
(2.90528 0.0279912 0)
(2.89218 0.0110922 0)
(2.88857 0.00946611 0)
(2.88494 0.0113713 0)
(2.87444 0.0134276 0)
(2.83107 0.00978299 0)
(2.76609 -0.00101238 0)
(2.7013 -0.0307545 0)
(2.64344 -0.084516 0)
(3.08189 -1.48374 0)
(3.08188 -1.48368 0)
(3.08168 -1.48314 0)
(3.08127 -1.48262 0)
(3.08103 -1.48243 0)
(3.08065 -1.48161 0)
(3.08015 -1.4806 0)
(3.07968 -1.48013 0)
(3.07887 -1.47981 0)
(3.07444 -1.47111 0)
(3.062 -1.43932 0)
(3.04255 -1.38567 0)
(3.01169 -1.26906 0)
(2.9812 -1.14416 0)
(2.93494 -0.915944 0)
(2.9071 -0.756908 0)
(2.85361 -0.492919 0)
(2.85481 -0.382071 0)
(2.811 -0.174449 0)
(2.82607 -0.115192 0)
(2.79607 0.0100772 0)
(2.80268 0.0353838 0)
(2.7838 0.0980555 0)
(2.78291 0.117039 0)
(2.77656 0.133511 0)
(2.78429 0.148359 0)
(2.79181 0.120919 0)
(2.79655 0.0788201 0)
(2.78759 0.0345845 0)
(2.80186 0.00526003 0)
(2.80804 0.0116128 0)
(2.82084 0.0320782 0)
(2.83353 0.0733784 0)
(2.82709 0.0746635 0)
(2.81468 0.0631921 0)
(2.80746 0.0425637 0)
(2.81173 0.0236077 0)
(2.81724 0.0273544 0)
(2.82945 0.0400282 0)
(2.83193 0.0365931 0)
(2.83373 0.0273206 0)
(2.83659 0.0171973 0)
(2.82279 0.00928297 0)
(2.81789 0.00658988 0)
(2.81392 0.00621943 0)
(2.80243 0.00741143 0)
(2.76678 0.00828237 0)
(2.71083 0.00048323 0)
(2.67124 -0.0276064 0)
(2.63435 -0.08733 0)
(3.07525 -1.47823 0)
(3.07447 -1.47777 0)
(3.07372 -1.47739 0)
(3.07304 -1.4763 0)
(3.07197 -1.47579 0)
(3.07097 -1.47573 0)
(3.07023 -1.47534 0)
(3.0692 -1.47533 0)
(3.06853 -1.47437 0)
(3.06773 -1.47359 0)
(3.0673 -1.47359 0)
(3.06686 -1.47392 0)
(3.06662 -1.47362 0)
(3.06604 -1.47377 0)
(3.06589 -1.47314 0)
(3.06512 -1.47417 0)
(3.06192 -1.46743 0)
(3.04525 -1.42796 0)
(3.00492 -1.3165 0)
(2.96268 -1.16398 0)
(2.90915 -0.934744 0)
(2.87496 -0.7348 0)
(2.83953 -0.530892 0)
(2.81186 -0.344399 0)
(2.79278 -0.216186 0)
(2.76551 -0.0754588 0)
(2.76244 -0.0535702 0)
(2.76259 -0.0248704 0)
(2.77266 0.00214452 0)
(2.77556 0.0145479 0)
(2.77547 0.033617 0)
(2.77534 0.0468409 0)
(2.77336 0.0494581 0)
(2.76218 0.0447983 0)
(2.7557 0.0270442 0)
(2.75837 0.0168122 0)
(2.76366 0.0146888 0)
(2.77498 0.0269486 0)
(2.7849 0.0396868 0)
(2.78137 0.0384855 0)
(2.77907 0.0211345 0)
(2.78321 0.0132665 0)
(2.77584 0.0108162 0)
(2.77052 0.00989998 0)
(2.76435 0.00874942 0)
(2.74969 0.00928565 0)
(2.7187 0.0194418 0)
(2.67988 0.00928236 0)
(2.65839 -0.0275335 0)
(2.63266 -0.0920345 0)
(3.06796 -1.47425 0)
(3.06765 -1.47397 0)
(3.06725 -1.47384 0)
(3.06697 -1.47332 0)
(3.06649 -1.47319 0)
(3.06609 -1.47284 0)
(3.06561 -1.47259 0)
(3.06502 -1.47252 0)
(3.0645 -1.47234 0)
(3.06421 -1.47209 0)
(3.06356 -1.47257 0)
(3.06337 -1.47248 0)
(3.0629 -1.47264 0)
(3.06255 -1.47247 0)
(3.06184 -1.47289 0)
(3.06153 -1.4728 0)
(3.06062 -1.47378 0)
(3.06052 -1.47394 0)
(3.06036 -1.47408 0)
(3.06058 -1.47373 0)
(3.06092 -1.47445 0)
(3.06141 -1.47465 0)
(3.05599 -1.45786 0)
(3.02753 -1.36654 0)
(2.97544 -1.18725 0)
(2.89006 -0.856823 0)
(2.83876 -0.596308 0)
(2.76774 -0.255809 0)
(2.78176 -0.0943513 0)
(2.72548 0.07316 0)
(2.72239 0.140215 0)
(2.71038 0.108517 0)
(2.71636 0.0726256 0)
(2.73586 0.0345697 0)
(2.74763 0.015948 0)
(2.74964 0.0170924 0)
(2.75321 0.0262767 0)
(2.7614 0.0436476 0)
(2.76113 0.0408004 0)
(2.75714 0.0266818 0)
(2.753 0.0149622 0)
(2.75725 0.0203669 0)
(2.75533 0.0198046 0)
(2.7507 0.0120573 0)
(2.74179 0.00383214 0)
(2.72164 0.00583897 0)
(2.69459 0.0126857 0)
(2.66792 0.0121037 0)
(2.65625 -0.0338295 0)
(2.63401 -0.0973463 0)
(3.06466 -1.4721 0)
(3.06452 -1.47184 0)
(3.06423 -1.47186 0)
(3.06391 -1.47197 0)
(3.06372 -1.47163 0)
(3.06334 -1.47159 0)
(3.06311 -1.47114 0)
(3.063 -1.4708 0)
(3.06242 -1.47118 0)
(3.06185 -1.47196 0)
(3.06169 -1.47239 0)
(3.06182 -1.47236 0)
(3.06153 -1.47258 0)
(3.06113 -1.47291 0)
(3.06102 -1.47289 0)
(3.06057 -1.47332 0)
(3.0598 -1.47425 0)
(3.0596 -1.47449 0)
(3.05966 -1.47461 0)
(3.06032 -1.47476 0)
(3.06099 -1.4749 0)
(3.06192 -1.47451 0)
(3.06313 -1.47248 0)
(3.0642 -1.47104 0)
(3.06488 -1.46972 0)
(3.06371 -1.47103 0)
(3.06211 -1.46977 0)
(3.0231 -1.36852 0)
(2.96305 -1.11544 0)
(2.89 -0.760427 0)
(2.85585 -0.450845 0)
(2.80948 -0.231662 0)
(2.75746 -0.0920362 0)
(2.77795 -0.0530243 0)
(2.76633 -0.0107698 0)
(2.76227 0.0149026 0)
(2.74585 0.0449193 0)
(2.75193 0.0550252 0)
(2.74394 0.0399125 0)
(2.73931 0.0117442 0)
(2.74742 0.00867046 0)
(2.75282 0.0195164 0)
(2.75122 0.0190429 0)
(2.74579 0.00946078 0)
(2.73416 0.00266388 0)
(2.70955 0.00888937 0)
(2.68668 0.0171718 0)
(2.66578 0.0053641 0)
(2.6599 -0.0400365 0)
(2.64217 -0.101411 0)
(3.06285 -1.47294 0)
(3.06291 -1.47247 0)
(3.06256 -1.47258 0)
(3.06232 -1.47271 0)
(3.06234 -1.47224 0)
(3.06208 -1.47217 0)
(3.06175 -1.47232 0)
(3.06172 -1.47252 0)
(3.06125 -1.47317 0)
(3.06121 -1.47361 0)
(3.06094 -1.47436 0)
(3.06082 -1.47474 0)
(3.0608 -1.47468 0)
(3.06052 -1.47456 0)
(3.06034 -1.47458 0)
(3.05996 -1.47505 0)
(3.0595 -1.47569 0)
(3.05903 -1.4759 0)
(3.0591 -1.47548 0)
(3.06053 -1.47523 0)
(3.06179 -1.47561 0)
(3.06341 -1.47487 0)
(3.06419 -1.47194 0)
(3.06521 -1.47024 0)
(3.06452 -1.46963 0)
(3.06256 -1.46821 0)
(3.06132 -1.47022 0)
(3.06224 -1.47846 0)
(3.06454 -1.48028 0)
(3.06439 -1.4813 0)
(3.04556 -1.41044 0)
(2.97451 -1.10951 0)
(2.85582 -0.594612 0)
(2.89883 -0.380459 0)
(2.79006 -0.0179664 0)
(2.75773 0.0659837 0)
(2.76279 0.113034 0)
(2.74215 0.0610037 0)
(2.734 0.0342461 0)
(2.75089 0.011873 0)
(2.7544 0.0139885 0)
(2.75959 0.0282264 0)
(2.75173 0.0238786 0)
(2.74244 0.004415 0)
(2.72736 0.00262564 0)
(2.70574 0.0122434 0)
(2.68458 0.0186916 0)
(2.66615 -0.000754397 0)
(2.67355 -0.0438924 0)
(2.66067 -0.100488 0)
(3.06283 -1.47446 0)
(3.06289 -1.47417 0)
(3.06297 -1.47388 0)
(3.06277 -1.47409 0)
(3.06269 -1.4741 0)
(3.06274 -1.47364 0)
(3.0628 -1.47331 0)
(3.06246 -1.47362 0)
(3.06238 -1.47393 0)
(3.06244 -1.47422 0)
(3.06231 -1.47436 0)
(3.06253 -1.47418 0)
(3.0631 -1.47314 0)
(3.06283 -1.47221 0)
(3.06223 -1.47219 0)
(3.06246 -1.47297 0)
(3.06228 -1.47372 0)
(3.06247 -1.47386 0)
(3.0628 -1.47427 0)
(3.06321 -1.4754 0)
(3.06413 -1.47631 0)
(3.06565 -1.47421 0)
(3.06629 -1.47111 0)
(3.06624 -1.46988 0)
(3.06402 -1.46823 0)
(3.05988 -1.46774 0)
(3.06 -1.47379 0)
(3.06096 -1.48006 0)
(3.06172 -1.48146 0)
(3.06249 -1.48089 0)
(3.06279 -1.48038 0)
(3.06386 -1.48051 0)
(3.06674 -1.47931 0)
(3.04604 -1.37608 0)
(2.97127 -1.01122 0)
(2.93745 -0.680016 0)
(2.87072 -0.284623 0)
(2.8438 -0.15681 0)
(2.78549 -0.0356967 0)
(2.78297 0.00805113 0)
(2.78285 0.0306033 0)
(2.76823 0.0435563 0)
(2.74025 0.0126411 0)
(2.72853 -0.00755459 0)
(2.722 0.00505957 0)
(2.70934 0.020176 0)
(2.68674 0.0186183 0)
(2.67468 -0.0114168 0)
(2.6969 -0.0561904 0)
(2.68798 -0.102061 0)
(3.06423 -1.47417 0)
(3.06424 -1.47403 0)
(3.0642 -1.47403 0)
(3.06427 -1.47382 0)
(3.0643 -1.47346 0)
(3.06432 -1.47318 0)
(3.06426 -1.47262 0)
(3.06429 -1.47246 0)
(3.06422 -1.47229 0)
(3.06404 -1.47243 0)
(3.06368 -1.47276 0)
(3.06349 -1.47266 0)
(3.06423 -1.47147 0)
(3.06433 -1.46997 0)
(3.06387 -1.46975 0)
(3.06455 -1.47085 0)
(3.06473 -1.47273 0)
(3.06507 -1.47349 0)
(3.06547 -1.47457 0)
(3.06565 -1.47666 0)
(3.06589 -1.47773 0)
(3.06748 -1.47418 0)
(3.06712 -1.47317 0)
(3.06504 -1.4723 0)
(3.06124 -1.46952 0)
(3.05892 -1.47094 0)
(3.05928 -1.47963 0)
(3.06006 -1.48096 0)
(3.0611 -1.482 0)
(3.0614 -1.48272 0)
(3.06305 -1.48009 0)
(3.06532 -1.47692 0)
(3.06747 -1.47355 0)
(3.06686 -1.47277 0)
(3.06484 -1.47221 0)
(3.06213 -1.47337 0)
(3.00431 -1.23967 0)
(2.9492 -0.812334 0)
(2.84511 -0.282979 0)
(2.84642 -0.112169 0)
(2.80231 0.0730881 0)
(2.76557 0.0526778 0)
(2.7469 0.00708444 0)
(2.74515 0.00342513 0)
(2.73127 0.0201543 0)
(2.71743 0.030072 0)
(2.69734 0.0210636 0)
(2.70317 -0.0147631 0)
(2.73618 -0.0500587 0)
(2.72065 -0.0934761 0)
(3.06435 -1.47354 0)
(3.06443 -1.47308 0)
(3.06469 -1.47216 0)
(3.06532 -1.47126 0)
(3.0655 -1.47107 0)
(3.06564 -1.47081 0)
(3.0656 -1.47055 0)
(3.06543 -1.47018 0)
(3.0656 -1.46926 0)
(3.06553 -1.46893 0)
(3.06536 -1.46912 0)
(3.06578 -1.4682 0)
(3.06577 -1.4677 0)
(3.06538 -1.46786 0)
(3.06516 -1.46842 0)
(3.06533 -1.46974 0)
(3.06626 -1.47224 0)
(3.06705 -1.47489 0)
(3.06746 -1.47691 0)
(3.06798 -1.47959 0)
(3.0682 -1.47897 0)
(3.06709 -1.47804 0)
(3.06507 -1.47781 0)
(3.06144 -1.47639 0)
(3.05898 -1.4744 0)
(3.05775 -1.4782 0)
(3.05949 -1.48158 0)
(3.06064 -1.48178 0)
(3.06225 -1.48109 0)
(3.0626 -1.47964 0)
(3.06327 -1.47752 0)
(3.06446 -1.47607 0)
(3.06541 -1.47439 0)
(3.06549 -1.4717 0)
(3.06167 -1.47088 0)
(3.05651 -1.47043 0)
(3.04932 -1.47253 0)
(3.04877 -1.47542 0)
(3.03035 -1.34601 0)
(2.97444 -0.919219 0)
(2.91402 -0.454633 0)
(2.87011 -0.203344 0)
(2.82963 -0.0546717 0)
(2.7835 0.000325556 0)
(2.74066 0.0405539 0)
(2.72374 0.0363303 0)
(2.71557 0.000673222 0)
(2.74971 -0.035501 0)
(2.78441 -0.0599216 0)
(2.75094 -0.0935795 0)
(3.06755 -1.46953 0)
(3.06775 -1.46913 0)
(3.06782 -1.46903 0)
(3.06754 -1.46877 0)
(3.06733 -1.46817 0)
(3.06732 -1.4678 0)
(3.06732 -1.46674 0)
(3.06706 -1.46561 0)
(3.06664 -1.46537 0)
(3.06665 -1.46586 0)
(3.06702 -1.4661 0)
(3.06705 -1.46616 0)
(3.06683 -1.46636 0)
(3.06632 -1.46855 0)
(3.06557 -1.47041 0)
(3.06534 -1.47261 0)
(3.06635 -1.47524 0)
(3.06705 -1.48112 0)
(3.06705 -1.48342 0)
(3.06745 -1.48301 0)
(3.06591 -1.48229 0)
(3.06336 -1.48193 0)
(3.06122 -1.48102 0)
(3.0582 -1.47957 0)
(3.05796 -1.48057 0)
(3.06097 -1.48386 0)
(3.0625 -1.48511 0)
(3.06371 -1.48292 0)
(3.06453 -1.47685 0)
(3.0626 -1.47295 0)
(3.0625 -1.47217 0)
(3.06287 -1.47309 0)
(3.06501 -1.4735 0)
(3.06044 -1.46919 0)
(3.05361 -1.4667 0)
(3.049 -1.46496 0)
(3.0484 -1.46787 0)
(3.0592 -1.46397 0)
(3.06559 -1.44252 0)
(3.07609 -1.42722 0)
(3.06393 -1.34276 0)
(2.98921 -0.896922 0)
(2.98463 -0.524989 0)
(2.84092 -0.115063 0)
(2.75334 0.0541684 0)
(2.72846 0.0406689 0)
(2.76564 0.0263809 0)
(2.80627 -0.0187722 0)
(2.8375 -0.0659437 0)
(2.77376 -0.0954496 0)
(3.06734 -1.47007 0)
(3.06798 -1.46976 0)
(3.06827 -1.47002 0)
(3.06774 -1.46916 0)
(3.06715 -1.46835 0)
(3.06644 -1.46832 0)
(3.06593 -1.46777 0)
(3.06604 -1.46647 0)
(3.06493 -1.46615 0)
(3.06462 -1.46804 0)
(3.06523 -1.46813 0)
(3.06642 -1.4675 0)
(3.06471 -1.47069 0)
(3.06344 -1.47517 0)
(3.06258 -1.47708 0)
(3.06208 -1.47984 0)
(3.06174 -1.48495 0)
(3.06243 -1.48846 0)
(3.06065 -1.48662 0)
(3.05985 -1.48541 0)
(3.05835 -1.48236 0)
(3.05849 -1.47992 0)
(3.05775 -1.47944 0)
(3.0577 -1.48099 0)
(3.06081 -1.48279 0)
(3.06479 -1.4844 0)
(3.06405 -1.48442 0)
(3.06408 -1.47991 0)
(3.06446 -1.47042 0)
(3.06234 -1.46468 0)
(3.06273 -1.46505 0)
(3.06102 -1.46637 0)
(3.05421 -1.46499 0)
(3.04976 -1.45234 0)
(3.0487 -1.44944 0)
(3.05577 -1.46109 0)
(3.07 -1.4325 0)
(3.08103 -1.40896 0)
(3.08499 -1.40403 0)
(3.08932 -1.38613 0)
(3.08137 -1.38797 0)
(3.0796 -1.3911 0)
(3.0799 -1.31142 0)
(2.97902 -0.837765 0)
(2.89722 -0.33716 0)
(2.8335 -0.0515173 0)
(2.84285 -0.0151715 0)
(2.84229 -0.0126622 0)
(2.89166 -0.0429191 0)
(2.78951 -0.0673018 0)
(3.06621 -1.46513 0)
(3.06608 -1.46456 0)
(3.06608 -1.46445 0)
(3.06595 -1.4664 0)
(3.0654 -1.46841 0)
(3.06422 -1.47022 0)
(3.06405 -1.47156 0)
(3.06409 -1.47207 0)
(3.06188 -1.47302 0)
(3.06083 -1.47526 0)
(3.06113 -1.47689 0)
(3.06246 -1.47794 0)
(3.06077 -1.48239 0)
(3.05795 -1.48691 0)
(3.05891 -1.48768 0)
(3.05692 -1.49054 0)
(3.05417 -1.49529 0)
(3.05372 -1.49311 0)
(3.05492 -1.48447 0)
(3.05504 -1.48015 0)
(3.0559 -1.47405 0)
(3.05818 -1.47207 0)
(3.05889 -1.47302 0)
(3.06071 -1.47552 0)
(3.06543 -1.47769 0)
(3.06806 -1.47538 0)
(3.06376 -1.47496 0)
(3.06501 -1.47112 0)
(3.06238 -1.46475 0)
(3.06087 -1.44765 0)
(3.062 -1.43711 0)
(3.0577 -1.43307 0)
(3.0485 -1.44413 0)
(3.0533 -1.42717 0)
(3.06323 -1.42221 0)
(3.07636 -1.42023 0)
(3.08498 -1.412 0)
(3.09032 -1.37948 0)
(3.09136 -1.3682 0)
(3.08048 -1.38738 0)
(3.08305 -1.35017 0)
(3.09034 -1.33254 0)
(3.09396 -1.32744 0)
(3.0975 -1.31212 0)
(3.06412 -1.08173 0)
(2.98897 -0.54802 0)
(2.9619 -0.29415 0)
(2.89005 -0.154689 0)
(2.94731 -0.108163 0)
(2.80946 -0.0575024 0)
(3.05998 -1.4632 0)
(3.06111 -1.46352 0)
(3.06129 -1.46629 0)
(3.06053 -1.47212 0)
(3.06011 -1.47408 0)
(3.06066 -1.47506 0)
(3.06081 -1.47571 0)
(3.06117 -1.47722 0)
(3.0615 -1.47777 0)
(3.06392 -1.48225 0)
(3.0653 -1.48401 0)
(3.06649 -1.48415 0)
(3.06758 -1.48382 0)
(3.063 -1.48474 0)
(3.05925 -1.48728 0)
(3.05784 -1.48672 0)
(3.05718 -1.48431 0)
(3.05867 -1.47782 0)
(3.05775 -1.47064 0)
(3.05999 -1.46337 0)
(3.06274 -1.45924 0)
(3.06288 -1.45697 0)
(3.063 -1.4565 0)
(3.06464 -1.45974 0)
(3.06843 -1.46123 0)
(3.06683 -1.44963 0)
(3.06876 -1.43765 0)
(3.06855 -1.42029 0)
(3.06331 -1.41126 0)
(3.05878 -1.41326 0)
(3.06437 -1.40301 0)
(3.06613 -1.40722 0)
(3.0692 -1.41048 0)
(3.07629 -1.40366 0)
(3.08731 -1.37853 0)
(3.09264 -1.36366 0)
(3.09553 -1.35673 0)
(3.09496 -1.34482 0)
(3.09062 -1.33461 0)
(3.09204 -1.31842 0)
(3.09474 -1.3166 0)
(3.10161 -1.28716 0)
(3.10968 -1.27504 0)
(3.11088 -1.26312 0)
(3.10897 -1.25048 0)
(3.10316 -1.23154 0)
(3.06304 -1.03133 0)
(2.96378 -0.629441 0)
(3.0051 -0.508191 0)
(2.8265 -0.141276 0)
(3.0509 -1.48053 0)
(3.05107 -1.48363 0)
(3.05111 -1.48506 0)
(3.05179 -1.48657 0)
(3.05091 -1.4886 0)
(3.05172 -1.48919 0)
(3.05488 -1.48679 0)
(3.0566 -1.48901 0)
(3.0589 -1.492 0)
(3.06678 -1.49248 0)
(3.06927 -1.49047 0)
(3.06882 -1.48901 0)
(3.071 -1.47789 0)
(3.07291 -1.46694 0)
(3.07353 -1.45927 0)
(3.06653 -1.44435 0)
(3.06594 -1.43459 0)
(3.06347 -1.42882 0)
(3.0622 -1.42608 0)
(3.0618 -1.42013 0)
(3.06408 -1.41075 0)
(3.06846 -1.39561 0)
(3.06427 -1.39499 0)
(3.0632 -1.39313 0)
(3.06566 -1.38725 0)
(3.06791 -1.38404 0)
(3.06738 -1.38653 0)
(3.06921 -1.38146 0)
(3.07043 -1.38287 0)
(3.07474 -1.37986 0)
(3.08146 -1.37354 0)
(3.08717 -1.36644 0)
(3.09285 -1.36027 0)
(3.09907 -1.35399 0)
(3.10151 -1.34237 0)
(3.09848 -1.3114 0)
(3.10104 -1.29172 0)
(3.09302 -1.2993 0)
(3.09555 -1.29025 0)
(3.09702 -1.29309 0)
(3.10728 -1.27478 0)
(3.11147 -1.23998 0)
(3.11774 -1.22185 0)
(3.11791 -1.21447 0)
(3.11066 -1.22002 0)
(3.10982 -1.18439 0)
(3.08849 -1.18257 0)
(3.05196 -1.17747 0)
(3.02511 -1.12661 0)
(2.89124 -0.535586 0)
(3.07246 -1.37147 0)
(3.07308 -1.36929 0)
(3.07412 -1.36635 0)
(3.07456 -1.36537 0)
(3.07453 -1.36704 0)
(3.0764 -1.36741 0)
(3.07939 -1.36867 0)
(3.07951 -1.37392 0)
(3.08113 -1.37631 0)
(3.08193 -1.37404 0)
(3.08481 -1.36893 0)
(3.07997 -1.35599 0)
(3.07633 -1.34309 0)
(3.07819 -1.3344 0)
(3.07713 -1.33371 0)
(3.07794 -1.33316 0)
(3.07977 -1.33336 0)
(3.08037 -1.33846 0)
(3.08292 -1.33606 0)
(3.08183 -1.33809 0)
(3.08016 -1.34073 0)
(3.08425 -1.33276 0)
(3.0806 -1.3402 0)
(3.0804 -1.35107 0)
(3.08454 -1.3492 0)
(3.08471 -1.35084 0)
(3.08719 -1.34476 0)
(3.08835 -1.34377 0)
(3.08983 -1.34404 0)
(3.0924 -1.33784 0)
(3.09908 -1.32372 0)
(3.10003 -1.31178 0)
(3.10562 -1.28317 0)
(3.11453 -1.26426 0)
(3.1097 -1.26323 0)
(3.10049 -1.2647 0)
(3.09902 -1.25621 0)
(3.10319 -1.25441 0)
(3.11055 -1.23972 0)
(3.1126 -1.21898 0)
(3.12025 -1.19768 0)
(3.12182 -1.19035 0)
(3.11739 -1.18752 0)
(3.11655 -1.18339 0)
(3.11727 -1.15748 0)
(3.11518 -1.14473 0)
(3.0987 -1.14078 0)
(3.05901 -1.13987 0)
(3.02752 -1.1189 0)
(2.99363 -1.03672 0)
(3.07767 -1.3609 0)
(3.07734 -1.36 0)
(3.07766 -1.35647 0)
(3.0788 -1.35466 0)
(3.07982 -1.35597 0)
(3.07899 -1.35833 0)
(3.07935 -1.36023 0)
(3.07755 -1.36486 0)
(3.07329 -1.3719 0)
(3.07257 -1.37168 0)
(3.07246 -1.36776 0)
(3.07178 -1.36659 0)
(3.07301 -1.36133 0)
(3.07557 -1.35768 0)
(3.07581 -1.35829 0)
(3.07653 -1.35681 0)
(3.0785 -1.35 0)
(3.07937 -1.34957 0)
(3.08125 -1.34798 0)
(3.08401 -1.34052 0)
(3.08544 -1.33772 0)
(3.08806 -1.33331 0)
(3.09189 -1.32422 0)
(3.09753 -1.31538 0)
(3.10242 -1.30637 0)
(3.10187 -1.29524 0)
(3.10765 -1.27851 0)
(3.11521 -1.27251 0)
(3.11395 -1.25397 0)
(3.11319 -1.23877 0)
(3.11009 -1.23044 0)
(3.10618 -1.22504 0)
(3.10562 -1.22017 0)
(3.11382 -1.20305 0)
(3.11222 -1.21281 0)
(3.11201 -1.20548 0)
(3.11433 -1.20761 0)
(3.11982 -1.18855 0)
(3.12033 -1.17176 0)
(3.12582 -1.15646 0)
(3.12625 -1.1496 0)
(3.12255 -1.144 0)
(3.11923 -1.13811 0)
(3.11769 -1.14177 0)
(3.11868 -1.12615 0)
(3.12148 -1.10012 0)
(3.11134 -1.08534 0)
(3.07066 -1.07418 0)
(3.02534 -1.06987 0)
(2.99872 -1.0441 0)
(3.10868 -1.24545 0)
(3.10823 -1.24469 0)
(3.1083 -1.24327 0)
(3.10815 -1.24294 0)
(3.10913 -1.23885 0)
(3.11064 -1.23472 0)
(3.1127 -1.23118 0)
(3.11198 -1.21889 0)
(3.11046 -1.21334 0)
(3.11168 -1.20867 0)
(3.11288 -1.20818 0)
(3.11207 -1.20354 0)
(3.11138 -1.19325 0)
(3.11443 -1.18583 0)
(3.11671 -1.18267 0)
(3.11556 -1.18606 0)
(3.11644 -1.19131 0)
(3.11881 -1.19108 0)
(3.11963 -1.19019 0)
(3.12025 -1.1931 0)
(3.12143 -1.19073 0)
(3.1213 -1.18404 0)
(3.12049 -1.17842 0)
(3.11857 -1.17234 0)
(3.11788 -1.16076 0)
(3.11657 -1.15941 0)
(3.11915 -1.15512 0)
(3.12239 -1.14925 0)
(3.12258 -1.14946 0)
(3.12135 -1.15036 0)
(3.121 -1.14872 0)
(3.11573 -1.16159 0)
(3.1159 -1.16173 0)
(3.119 -1.15663 0)
(3.12427 -1.14593 0)
(3.12511 -1.1425 0)
(3.13249 -1.13391 0)
(3.12872 -1.11606 0)
(3.13054 -1.10523 0)
(3.12857 -1.09911 0)
(3.12517 -1.09323 0)
(3.12224 -1.09489 0)
(3.12431 -1.09041 0)
(3.12522 -1.07042 0)
(3.12737 -1.06194 0)
(3.12578 -1.05449 0)
(3.11429 -1.03716 0)
(3.07815 -1.0277 0)
(3.0312 -1.02103 0)
(3.00139 -0.999015 0)
(3.12127 -1.15013 0)
(3.12078 -1.1497 0)
(3.12027 -1.1506 0)
(3.11999 -1.15271 0)
(3.12012 -1.15588 0)
(3.1209 -1.15772 0)
(3.11963 -1.15605 0)
(3.11953 -1.15342 0)
(3.11856 -1.15269 0)
(3.11846 -1.15276 0)
(3.11909 -1.1522 0)
(3.11823 -1.15423 0)
(3.11882 -1.15697 0)
(3.11922 -1.1546 0)
(3.12 -1.14938 0)
(3.12205 -1.14726 0)
(3.12355 -1.14606 0)
(3.12431 -1.14413 0)
(3.12404 -1.13839 0)
(3.12472 -1.13127 0)
(3.12435 -1.12858 0)
(3.12311 -1.12707 0)
(3.12284 -1.12466 0)
(3.12011 -1.12799 0)
(3.11796 -1.13268 0)
(3.11776 -1.13598 0)
(3.1187 -1.14027 0)
(3.11829 -1.13486 0)
(3.1188 -1.12738 0)
(3.12215 -1.11799 0)
(3.12717 -1.10705 0)
(3.13002 -1.10254 0)
(3.13303 -1.095 0)
(3.13556 -1.08817 0)
(3.13399 -1.07814 0)
(3.13091 -1.05564 0)
(3.13449 -1.04445 0)
(3.13317 -1.04262 0)
(3.12933 -1.04238 0)
(3.12566 -1.04327 0)
(3.12517 -1.03842 0)
(3.12885 -1.0411 0)
(3.13064 -1.02943 0)
(3.13168 -1.014 0)
(3.13319 -1.0059 0)
(3.13068 -0.99858 0)
(3.11365 -0.996925 0)
(3.07817 -0.99374 0)
(3.03781 -0.969407 0)
(3.0082 -0.951868 0)
(3.13304 -1.04763 0)
(3.13331 -1.04619 0)
(3.13313 -1.04339 0)
(3.13354 -1.04097 0)
(3.13363 -1.04047 0)
(3.13362 -1.04047 0)
(3.13355 -1.04001 0)
(3.13335 -1.03949 0)
(3.13358 -1.04014 0)
(3.13466 -1.04066 0)
(3.1348 -1.03869 0)
(3.13394 -1.03626 0)
(3.13473 -1.03332 0)
(3.13489 -1.03258 0)
(3.13479 -1.0332 0)
(3.13499 -1.03256 0)
(3.13497 -1.03008 0)
(3.13519 -1.02726 0)
(3.13463 -1.0276 0)
(3.13487 -1.02886 0)
(3.13589 -1.02575 0)
(3.13617 -1.02288 0)
(3.13772 -1.01986 0)
(3.13989 -1.01498 0)
(3.13777 -1.00857 0)
(3.1379 -0.998043 0)
(3.13933 -0.993377 0)
(3.13793 -0.992088 0)
(3.13766 -0.991218 0)
(3.13958 -0.991005 0)
(3.13822 -0.984853 0)
(3.13702 -0.976021 0)
(3.13789 -0.971455 0)
(3.1378 -0.969318 0)
(3.13438 -0.974006 0)
(3.13225 -0.976645 0)
(3.13207 -0.977846 0)
(3.1316 -0.978564 0)
(3.13153 -0.980997 0)
(3.13188 -0.976369 0)
(3.13527 -0.967895 0)
(3.13585 -0.963578 0)
(3.1359 -0.953673 0)
(3.13656 -0.948929 0)
(3.13554 -0.945308 0)
(3.1319 -0.941206 0)
(3.11885 -0.935436 0)
(3.08644 -0.92858 0)
(3.0436 -0.92248 0)
(3.00958 -0.911253 0)
(3.13992 -0.937181 0)
(3.14003 -0.938399 0)
(3.13994 -0.938931 0)
(3.13983 -0.938809 0)
(3.13997 -0.937848 0)
(3.14063 -0.93637 0)
(3.14053 -0.934854 0)
(3.14039 -0.934945 0)
(3.14046 -0.935694 0)
(3.14059 -0.935774 0)
(3.14074 -0.934525 0)
(3.14046 -0.934669 0)
(3.1405 -0.935414 0)
(3.14052 -0.934958 0)
(3.14053 -0.933183 0)
(3.1407 -0.932275 0)
(3.1406 -0.932384 0)
(3.14048 -0.93175 0)
(3.14055 -0.930607 0)
(3.14061 -0.929207 0)
(3.14052 -0.928246 0)
(3.14 -0.92811 0)
(3.13943 -0.927582 0)
(3.1389 -0.926961 0)
(3.1379 -0.927937 0)
(3.13725 -0.929925 0)
(3.13745 -0.930293 0)
(3.13776 -0.92883 0)
(3.13795 -0.925963 0)
(3.13854 -0.922976 0)
(3.13686 -0.924092 0)
(3.1349 -0.928779 0)
(3.13433 -0.928516 0)
(3.13427 -0.92511 0)
(3.13535 -0.924456 0)
(3.13582 -0.921737 0)
(3.13647 -0.918586 0)
(3.13581 -0.916364 0)
(3.13769 -0.910555 0)
(3.13753 -0.906043 0)
(3.13791 -0.898105 0)
(3.13753 -0.895736 0)
(3.13664 -0.895035 0)
(3.1358 -0.894887 0)
(3.13466 -0.896344 0)
(3.13196 -0.897695 0)
(3.12164 -0.89154 0)
(3.09445 -0.873742 0)
(3.05633 -0.861811 0)
(3.00924 -0.865048 0)
(3.14116 -0.848593 0)
(3.14134 -0.849965 0)
(3.14131 -0.850993 0)
(3.14138 -0.851075 0)
(3.14138 -0.850981 0)
(3.14136 -0.85044 0)
(3.14125 -0.84901 0)
(3.14147 -0.84861 0)
(3.14157 -0.848974 0)
(3.14179 -0.849501 0)
(3.14167 -0.849483 0)
(3.14166 -0.849107 0)
(3.14171 -0.848675 0)
(3.14164 -0.848601 0)
(3.14157 -0.848624 0)
(3.14155 -0.848568 0)
(3.14153 -0.848515 0)
(3.14122 -0.848576 0)
(3.14101 -0.848586 0)
(3.14087 -0.848727 0)
(3.14077 -0.848773 0)
(3.14052 -0.84861 0)
(3.14023 -0.848409 0)
(3.13998 -0.848146 0)
(3.13977 -0.847412 0)
(3.13971 -0.846973 0)
(3.13933 -0.846727 0)
(3.13876 -0.846789 0)
(3.13858 -0.846916 0)
(3.13867 -0.84693 0)
(3.13914 -0.846328 0)
(3.13921 -0.844396 0)
(3.13827 -0.843029 0)
(3.13745 -0.843082 0)
(3.13746 -0.84248 0)
(3.13781 -0.841131 0)
(3.1374 -0.840179 0)
(3.13703 -0.840069 0)
(3.13665 -0.84048 0)
(3.13637 -0.840994 0)
(3.13611 -0.841741 0)
(3.13569 -0.843674 0)
(3.13607 -0.844357 0)
(3.13647 -0.844573 0)
(3.13628 -0.844635 0)
(3.13473 -0.842897 0)
(3.12552 -0.84062 0)
(3.09788 -0.832929 0)
(3.06471 -0.819011 0)
(3.01226 -0.812658 0)
(3.13935 -0.807834 0)
(3.13959 -0.8076 0)
(3.13962 -0.807329 0)
(3.13956 -0.807108 0)
(3.13965 -0.807174 0)
(3.13977 -0.807243 0)
(3.13992 -0.807462 0)
(3.13992 -0.807524 0)
(3.13992 -0.807424 0)
(3.13995 -0.807352 0)
(3.13985 -0.807384 0)
(3.13973 -0.807483 0)
(3.13964 -0.807659 0)
(3.13959 -0.807699 0)
(3.13934 -0.807661 0)
(3.13892 -0.807557 0)
(3.13873 -0.807556 0)
(3.13849 -0.807517 0)
(3.13827 -0.807378 0)
(3.1382 -0.807318 0)
(3.13807 -0.807243 0)
(3.13795 -0.806977 0)
(3.13798 -0.806783 0)
(3.13794 -0.806751 0)
(3.13788 -0.806721 0)
(3.13763 -0.8071 0)
(3.13739 -0.807782 0)
(3.13704 -0.808195 0)
(3.13654 -0.808628 0)
(3.13653 -0.808478 0)
(3.13676 -0.808291 0)
(3.13685 -0.808208 0)
(3.13663 -0.808392 0)
(3.13641 -0.808635 0)
(3.13604 -0.808737 0)
(3.136 -0.808526 0)
(3.13608 -0.808514 0)
(3.13622 -0.808763 0)
(3.1364 -0.808941 0)
(3.13651 -0.8089 0)
(3.13661 -0.808745 0)
(3.1367 -0.808709 0)
(3.13698 -0.808691 0)
(3.13678 -0.808885 0)
(3.13623 -0.809457 0)
(3.13447 -0.809142 0)
(3.12781 -0.807653 0)
(3.10383 -0.80292 0)
(3.06839 -0.78232 0)
(3.01782 -0.771705 0)
(3.13781 -0.797875 0)
(3.13802 -0.798184 0)
(3.13808 -0.798326 0)
(3.13816 -0.798407 0)
(3.13811 -0.7988 0)
(3.13814 -0.799165 0)
(3.1382 -0.799288 0)
(3.13821 -0.799366 0)
(3.13814 -0.799468 0)
(3.13805 -0.799509 0)
(3.1379 -0.799425 0)
(3.13765 -0.799339 0)
(3.1375 -0.799322 0)
(3.13727 -0.799332 0)
(3.13683 -0.799293 0)
(3.13598 -0.798949 0)
(3.1358 -0.798835 0)
(3.13565 -0.798767 0)
(3.13575 -0.799029 0)
(3.13577 -0.799079 0)
(3.13572 -0.799025 0)
(3.13577 -0.798982 0)
(3.13606 -0.798844 0)
(3.13642 -0.798868 0)
(3.13627 -0.799105 0)
(3.13624 -0.799099 0)
(3.13613 -0.799068 0)
(3.13582 -0.799107 0)
(3.13544 -0.799515 0)
(3.13513 -0.799865 0)
(3.13547 -0.799693 0)
(3.13619 -0.799647 0)
(3.13653 -0.799528 0)
(3.13637 -0.799627 0)
(3.13603 -0.799617 0)
(3.13573 -0.799065 0)
(3.13604 -0.79865 0)
(3.13622 -0.798683 0)
(3.1365 -0.798825 0)
(3.13655 -0.798824 0)
(3.13653 -0.798626 0)
(3.13638 -0.798555 0)
(3.13631 -0.798639 0)
(3.13626 -0.798641 0)
(3.13551 -0.799899 0)
(3.13426 -0.799541 0)
(3.12936 -0.799671 0)
(3.11528 -0.796535 0)
(3.08315 -0.779158 0)
(3.02389 -0.751728 0)
(3.13516 -0.802239 0)
(3.13513 -0.802525 0)
(3.13514 -0.802639 0)
(3.13516 -0.802628 0)
(3.13505 -0.802738 0)
(3.13502 -0.802822 0)
(3.13491 -0.802997 0)
(3.13479 -0.803102 0)
(3.13473 -0.803116 0)
(3.1347 -0.802814 0)
(3.13474 -0.8024 0)
(3.13467 -0.801887 0)
(3.13437 -0.801523 0)
(3.13388 -0.801203 0)
(3.13349 -0.800976 0)
(3.13335 -0.800757 0)
(3.13338 -0.800402 0)
(3.1334 -0.800128 0)
(3.13359 -0.800131 0)
(3.13381 -0.800552 0)
(3.13386 -0.800698 0)
(3.13405 -0.800914 0)
(3.13428 -0.801107 0)
(3.13476 -0.801167 0)
(3.13545 -0.800808 0)
(3.13588 -0.799539 0)
(3.1358 -0.798414 0)
(3.13532 -0.798175 0)
(3.13486 -0.79841 0)
(3.13412 -0.799236 0)
(3.13462 -0.799738 0)
(3.13538 -0.79971 0)
(3.13697 -0.798793 0)
(3.13713 -0.798478 0)
(3.13644 -0.798534 0)
(3.13581 -0.798445 0)
(3.1359 -0.79808 0)
(3.13614 -0.798013 0)
(3.1365 -0.797997 0)
(3.13648 -0.797909 0)
(3.13635 -0.798036 0)
(3.13608 -0.798321 0)
(3.1358 -0.798777 0)
(3.136 -0.798664 0)
(3.13521 -0.80161 0)
(3.13491 -0.800285 0)
(3.13165 -0.800466 0)
(3.12203 -0.798894 0)
(3.0975 -0.791112 0)
(3.03727 -0.753172 0)
(3.13301 -0.783229 0)
(3.13298 -0.783595 0)
(3.13296 -0.784283 0)
(3.13283 -0.784751 0)
(3.13269 -0.784812 0)
(3.13232 -0.784984 0)
(3.13208 -0.785268 0)
(3.13168 -0.786024 0)
(3.13141 -0.786337 0)
(3.13182 -0.786474 0)
(3.13247 -0.786686 0)
(3.13272 -0.786769 0)
(3.13279 -0.78676 0)
(3.13293 -0.786773 0)
(3.13313 -0.786905 0)
(3.1334 -0.787043 0)
(3.13442 -0.787037 0)
(3.13564 -0.786818 0)
(3.13625 -0.78643 0)
(3.13668 -0.78669 0)
(3.13626 -0.788085 0)
(3.13582 -0.790488 0)
(3.13616 -0.792453 0)
(3.13603 -0.792317 0)
(3.13508 -0.788429 0)
(3.13522 -0.783767 0)
(3.13432 -0.781361 0)
(3.13453 -0.780906 0)
(3.13608 -0.783815 0)
(3.13554 -0.789477 0)
(3.13626 -0.794696 0)
(3.13529 -0.792956 0)
(3.13387 -0.786904 0)
(3.13554 -0.786466 0)
(3.13696 -0.788338 0)
(3.13737 -0.791413 0)
(3.1361 -0.791511 0)
(3.13592 -0.791102 0)
(3.13578 -0.791439 0)
(3.13632 -0.792281 0)
(3.13696 -0.793568 0)
(3.13699 -0.795305 0)
(3.13745 -0.795099 0)
(3.13855 -0.795112 0)
(3.13918 -0.795002 0)
(3.13915 -0.794692 0)
(3.13788 -0.793857 0)
(3.12963 -0.79027 0)
(3.10655 -0.791601 0)
(3.05172 -0.758595 0)
(3.13497 -0.778885 0)
(3.1351 -0.77893 0)
(3.13546 -0.778976 0)
(3.13567 -0.778823 0)
(3.13569 -0.778142 0)
(3.13557 -0.777902 0)
(3.13568 -0.778047 0)
(3.13554 -0.778826 0)
(3.1353 -0.779473 0)
(3.13595 -0.778461 0)
(3.13649 -0.777386 0)
(3.13681 -0.775328 0)
(3.13608 -0.773418 0)
(3.13607 -0.772491 0)
(3.13618 -0.772702 0)
(3.13709 -0.774678 0)
(3.13779 -0.77649 0)
(3.13829 -0.776481 0)
(3.13757 -0.774752 0)
(3.13832 -0.77121 0)
(3.13791 -0.769652 0)
(3.1361 -0.77051 0)
(3.13538 -0.772043 0)
(3.13652 -0.776438 0)
(3.13591 -0.77974 0)
(3.13649 -0.781813 0)
(3.13689 -0.784289 0)
(3.13693 -0.785346 0)
(3.13778 -0.784466 0)
(3.13798 -0.779685 0)
(3.13734 -0.773249 0)
(3.13694 -0.773205 0)
(3.13605 -0.778958 0)
(3.13826 -0.784911 0)
(3.1378 -0.784482 0)
(3.13732 -0.782528 0)
(3.13731 -0.78151 0)
(3.13812 -0.782106 0)
(3.13861 -0.782471 0)
(3.13916 -0.782673 0)
(3.13987 -0.782328 0)
(3.14071 -0.781576 0)
(3.14134 -0.781315 0)
(3.14259 -0.779859 0)
(3.14387 -0.776941 0)
(3.14133 -0.775096 0)
(3.13909 -0.776304 0)
(3.13347 -0.77187 0)
(3.11683 -0.772812 0)
(3.06328 -0.750167 0)
(3.13775 -0.725225 0)
(3.13738 -0.725731 0)
(3.1373 -0.725832 0)
(3.13742 -0.724964 0)
(3.13769 -0.724047 0)
(3.13805 -0.722371 0)
(3.13767 -0.721343 0)
(3.13784 -0.721101 0)
(3.13761 -0.721779 0)
(3.13686 -0.72347 0)
(3.13687 -0.724845 0)
(3.13708 -0.724574 0)
(3.13715 -0.723727 0)
(3.13707 -0.723296 0)
(3.13729 -0.723505 0)
(3.13757 -0.724065 0)
(3.13765 -0.725449 0)
(3.13726 -0.726524 0)
(3.13769 -0.727526 0)
(3.13818 -0.730086 0)
(3.13796 -0.731609 0)
(3.13869 -0.732215 0)
(3.1401 -0.731754 0)
(3.14087 -0.730554 0)
(3.14142 -0.727345 0)
(3.14044 -0.723192 0)
(3.13798 -0.721284 0)
(3.1368 -0.723077 0)
(3.1376 -0.725311 0)
(3.13704 -0.729882 0)
(3.13867 -0.733845 0)
(3.14115 -0.733752 0)
(3.14199 -0.728791 0)
(3.13906 -0.723454 0)
(3.13773 -0.726254 0)
(3.13892 -0.729441 0)
(3.13931 -0.729657 0)
(3.13959 -0.729268 0)
(3.13975 -0.728013 0)
(3.13911 -0.729417 0)
(3.13883 -0.730129 0)
(3.13876 -0.729377 0)
(3.13842 -0.731358 0)
(3.13758 -0.734323 0)
(3.13723 -0.737723 0)
(3.137 -0.740759 0)
(3.13283 -0.746741 0)
(3.12635 -0.753326 0)
(3.11948 -0.75899 0)
(3.09406 -0.735373 0)
(3.1332 -0.6434 0)
(3.13354 -0.644244 0)
(3.1335 -0.646002 0)
(3.1335 -0.646413 0)
(3.13309 -0.648576 0)
(3.13272 -0.649848 0)
(3.13368 -0.649642 0)
(3.13448 -0.647862 0)
(3.13413 -0.645507 0)
(3.13363 -0.644948 0)
(3.13378 -0.6457 0)
(3.13343 -0.645944 0)
(3.13374 -0.64679 0)
(3.13411 -0.647946 0)
(3.13403 -0.648625 0)
(3.13408 -0.649215 0)
(3.1343 -0.650041 0)
(3.13441 -0.650637 0)
(3.13482 -0.649972 0)
(3.13512 -0.648602 0)
(3.13482 -0.647649 0)
(3.13459 -0.649112 0)
(3.13455 -0.651935 0)
(3.13367 -0.653351 0)
(3.13244 -0.654394 0)