/*--------------------------------*- C++ -*----------------------------------*\
  =========                 |
  \\      /  F ield         | OpenFOAM: The Open Source CFD Toolbox
   \\    /   O peration     | Website:  https://openfoam.org
    \\  /    A nd           | Version:  7
     \\/     M anipulation  |
\*---------------------------------------------------------------------------*/
FoamFile
{
    version     2.0;
    format      ascii;
    class       volScalarField;
    location    "2.5";
    object      T;
}
// * * * * * * * * * * * * * * * * * * * * * * * * * * * * * * * * * * * * * //

dimensions      [0 0 0 1 0 0 0];

internalField   nonuniform List<scalar> 
90000
(
0.922028
0.927486
0.932909
0.938092
0.942686
0.947007
0.950834
0.954464
0.957675
0.960796
0.963624
0.966523
0.969429
0.973119
0.977324
0.982307
0.987419
0.992895
0.998108
1.00342
1.00833
1.01326
1.01773
1.02223
1.0261
1.03013
1.03335
1.03675
1.03926
1.04181
1.0437
1.04507
1.04624
1.04708
1.04702
1.04683
1.04643
1.04586
1.04502
1.0433
1.0408
1.03778
1.03563
1.0341
1.03418
1.03465
1.03578
1.03658
1.0372
1.03775
1.03816
1.03833
1.03817
1.03777
1.03698
1.03607
1.03522
1.03469
1.03458
1.03468
1.03501
1.03508
1.03549
1.03565
1.03551
1.03514
1.03457
1.03414
1.03395
1.0339
1.03363
1.03378
1.03398
1.03403
1.03361
1.03313
1.03264
1.03219
1.0317
1.03113
1.03007
1.02891
1.02781
1.0267
1.02605
1.02534
1.02436
1.02294
1.02205
1.02168
1.02134
1.02057
1.01981
1.01933
1.01877
1.01792
1.01715
1.01652
1.01586
1.01478
0.917283
0.917513
0.917974
0.918686
0.919663
0.920877
0.922339
0.924007
0.925899
0.927963
0.930235
0.932656
0.935147
0.937695
0.940327
0.943236
0.946297
0.949796
0.953431
0.957491
0.96172
0.966158
0.970876
0.975577
0.980508
0.985438
0.990329
0.995185
0.99995
1.00449
1.00886
1.01296
1.01693
1.01996
1.0231
1.02593
1.02764
1.02929
1.03042
1.03235
1.03425
1.0353
1.0361
1.03585
1.03512
1.03395
1.03261
1.03127
1.03029
1.02965
1.02977
1.02994
1.03039
1.03106
1.03197
1.03271
1.03297
1.03273
1.0321
1.03124
1.03028
1.0294
1.02932
1.02956
1.03049
1.03165
1.03216
1.03184
1.03115
1.03039
1.02968
1.02984
1.03063
1.03134
1.03118
1.03067
1.02989
1.02896
1.02845
1.02865
1.02811
1.02685
1.02529
1.02403
1.02414
1.02393
1.02304
1.02156
1.02079
1.02051
1.02017
1.01951
1.01875
1.0183
1.0178
1.01697
1.01625
1.01584
1.01531
1.01427
0.915881
0.915856
0.915825
0.915792
0.915762
0.915741
0.915728
0.915735
0.915761
0.915817
0.91591
0.916046
0.91629
0.916643
0.917096
0.917666
0.918362
0.919227
0.920272
0.921573
0.923101
0.924996
0.927206
0.929849
0.933008
0.936479
0.940734
0.9452
0.950437
0.955863
0.96209
0.968226
0.974789
0.981769
0.988323
0.994551
1.00095
1.0071
1.01166
1.01663
1.01976
1.02192
1.02339
1.02417
1.02511
1.02575
1.02555
1.02498
1.02406
1.02281
1.02255
1.02298
1.02359
1.02451
1.02544
1.02629
1.02668
1.02653
1.02603
1.02501
1.024
1.02313
1.0232
1.02384
1.02466
1.02559
1.02602
1.0262
1.0259
1.02519
1.02501
1.02511
1.02544
1.02583
1.02602
1.0259
1.02553
1.02495
1.02448
1.02411
1.02366
1.02261
1.02135
1.02088
1.02059
1.02027
1.01957
1.01895
1.0181
1.01764
1.01729
1.01688
1.01639
1.01597
1.01552
1.01483
1.01412
1.01373
1.01328
1.01247
0.913978
0.913955
0.913928
0.913897
0.913868
0.913838
0.913803
0.913766
0.913736
0.913713
0.913683
0.913659
0.913602
0.91355
0.913505
0.913456
0.913403
0.913359
0.913332
0.913337
0.913359
0.913409
0.913501
0.913724
0.914086
0.914599
0.91535
0.916338
0.917763
0.919611
0.922031
0.925226
0.929035
0.933949
0.939473
0.946376
0.953448
0.961288
0.9701
0.978106
0.98562
0.992697
0.998975
1.00302
1.00756
1.01018
1.01194
1.01387
1.0146
1.0157
1.01806
1.01942
1.01988
1.02069
1.02111
1.02102
1.0206
1.02005
1.01959
1.01911
1.01899
1.01909
1.01928
1.01948
1.01941
1.01926
1.01934
1.01968
1.02013
1.02092
1.02133
1.02103
1.02055
1.02025
1.02037
1.0206
1.02086
1.02061
1.01984
1.01892
1.01824
1.01767
1.01727
1.01661
1.01605
1.01557
1.01541
1.01491
1.01417
1.01361
1.01336
1.01311
1.01278
1.01236
1.01183
1.01125
1.01067
1.01041
1.01015
1.00966
0.912172
0.912148
0.91212
0.912097
0.912083
0.912067
0.912049
0.912029
0.912005
0.911977
0.911946
0.91191
0.911872
0.911835
0.9118
0.911763
0.911723
0.911682
0.911647
0.911626
0.911616
0.911597
0.911592
0.911554
0.911512
0.911469
0.911429
0.911396
0.911402
0.911437
0.911529
0.911749
0.912145
0.912819
0.913836
0.915424
0.917735
0.920866
0.925507
0.930911
0.938482
0.94673
0.956344
0.966621
0.97593
0.985636
0.993176
1.00114
1.0065
1.01023
1.01305
1.01407
1.01444
1.01522
1.0158
1.01531
1.01351
1.01363
1.01444
1.01558
1.01661
1.0173
1.01746
1.01711
1.01641
1.01534
1.01537
1.01566
1.01634
1.01725
1.01792
1.01826
1.01797
1.01743
1.01711
1.0171
1.01721
1.01734
1.01686
1.01601
1.01465
1.01388
1.01383
1.01353
1.01272
1.01184
1.01134
1.0113
1.01085
1.01009
1.00968
1.00954
1.00927
1.00883
1.00836
1.00783
1.00733
1.00703
1.00672
1.00629
0.911006
0.910993
0.910971
0.91095
0.910931
0.910917
0.91091
0.910899
0.910886
0.910873
0.910859
0.910839
0.910809
0.910785
0.910768
0.910749
0.910721
0.910696
0.910673
0.910656
0.910642
0.910621
0.910591
0.910557
0.910524
0.910497
0.91047
0.910442
0.91041
0.910386
0.910378
0.910358
0.91034
0.910331
0.910339
0.910369
0.910451
0.910649
0.911036
0.91172
0.912921
0.914894
0.918035
0.922959
0.929187
0.937848
0.948514
0.958632
0.970705
0.980956
0.989682
0.996781
1.00026
1.00388
1.00806
1.00854
1.00907
1.01135
1.01432
1.01605
1.01637
1.01643
1.01615
1.0154
1.01482
1.01435
1.0144
1.01477
1.01543
1.01567
1.01576
1.01588
1.01582
1.01594
1.01611
1.01599
1.01564
1.01521
1.01464
1.01381
1.01305
1.01241
1.01197
1.01143
1.01084
1.00979
1.00897
1.00856
1.00832
1.00783
1.0072
1.00708
1.007
1.00647
1.00576
1.00541
1.00484
1.00432
1.00407
1.00355
0.910551
0.910546
0.910539
0.910524
0.910508
0.910497
0.910486
0.910473
0.91046
0.910451
0.910443
0.910431
0.91041
0.910387
0.910372
0.910361
0.910348
0.910325
0.910308
0.910294
0.910281
0.910259
0.910227
0.910197
0.910169
0.910138
0.910103
0.910066
0.910022
0.909969
0.90994
0.909922
0.909902
0.909882
0.909873
0.909876
0.909898
0.909917
0.909929
0.909945
0.909958
0.909989
0.910096
0.910399
0.911085
0.912382
0.915013
0.918952
0.925445
0.934484
0.944845
0.957819
0.970828
0.981411
0.991196
1.00125
1.00785
1.01085
1.01334
1.01499
1.01528
1.01467
1.01244
1.0125
1.01315
1.01455
1.01552
1.01577
1.01553
1.01512
1.01442
1.01441
1.01465
1.01529
1.01582
1.01571
1.01528
1.0144
1.01354
1.01273
1.01228
1.01184
1.01118
1.01037
1.0096
1.00907
1.00841
1.00752
1.00681
1.00655
1.00621
1.00582
1.00548
1.00518
1.0045
1.00399
1.00354
1.00284
1.00242
1.00185
0.910427
0.910421
0.910414
0.910407
0.910398
0.910389
0.910379
0.910369
0.91036
0.910352
0.910343
0.910331
0.910315
0.910294
0.910284
0.91028
0.910272
0.910257
0.910236
0.910216
0.910195
0.91017
0.910138
0.910109
0.910086
0.910062
0.910037
0.910011
0.90998
0.909937
0.909888
0.909835
0.909772
0.909739
0.909734
0.90973
0.90972
0.909701
0.909685
0.909683
0.90968
0.909673
0.90966
0.909641
0.909623
0.909606
0.909636
0.909794
0.910289
0.911452
0.913994
0.918109
0.925528
0.93585
0.947397
0.960957
0.975269
0.986707
0.994407
1.00095
1.00484
1.00731
1.00916
1.01271
1.01535
1.01679
1.01677
1.01654
1.01557
1.01414
1.01386
1.01412
1.01496
1.01579
1.01572
1.01541
1.01462
1.01385
1.0132
1.01282
1.01227
1.01147
1.01067
1.00988
1.00917
1.00877
1.00818
1.00722
1.00633
1.0061
1.00587
1.00546
1.00476
1.00435
1.00405
1.00351
1.00288
1.00225
1.00159
1.00092
0.910375
0.91037
0.910366
0.910361
0.910356
0.910351
0.910345
0.910337
0.910325
0.910305
0.910292
0.910291
0.910289
0.910286
0.910278
0.910265
0.910252
0.910236
0.910209
0.91017
0.910135
0.910109
0.910083
0.910051
0.910018
0.909984
0.909948
0.909924
0.909914
0.909902
0.90987
0.909816
0.909759
0.909707
0.909642
0.909597
0.909582
0.909568
0.909558
0.909558
0.909556
0.909539
0.90951
0.909486
0.909468
0.909451
0.909441
0.909425
0.909404
0.909366
0.909379
0.909526
0.910124
0.911571
0.914872
0.920222
0.92983
0.941901
0.956048
0.971453
0.984374
0.996781
1.0065
1.01184
1.01439
1.01597
1.01587
1.01443
1.01277
1.01326
1.0144
1.01556
1.01594
1.01587
1.01524
1.01426
1.01384
1.01378
1.01369
1.01308
1.01215
1.01099
1.01012
1.00968
1.00937
1.00877
1.00793
1.00701
1.00644
1.00606
1.00569
1.00522
1.00443
1.00394
1.00377
1.00342
1.00272
1.00189
1.00136
1.00061
0.91023
0.91023
0.91023
0.910227
0.910222
0.910217
0.910212
0.910205
0.910193
0.910184
0.91018
0.910177
0.910171
0.910166
0.910163
0.910156
0.910145
0.910122
0.910083
0.910064
0.910059
0.910051
0.910026
0.909985
0.909946
0.909908
0.909867
0.909826
0.909782
0.909739
0.909705
0.909675
0.909638
0.909588
0.909532
0.909489
0.90947
0.909461
0.909456
0.909458
0.909463
0.909455
0.90943
0.909419
0.909418
0.909411
0.909411
0.90941
0.909387
0.909339
0.909278
0.909177
0.909087
0.909089
0.909196
0.909563
0.910724
0.913095
0.918494
0.926493
0.939466
0.954028
0.969974
0.983751
0.993775
1.00106
1.00587
1.00833
1.01226
1.01546
1.01704
1.01697
1.01647
1.01476
1.01392
1.01371
1.01412
1.01455
1.01411
1.0131
1.01152
1.01046
1.00985
1.00982
1.00943
1.00863
1.00759
1.00703
1.00659
1.00609
1.00555
1.00491
1.00426
1.00389
1.00362
1.00323
1.00263
1.00177
1.00126
1.00044
0.909893
0.909893
0.909892
0.90989
0.909886
0.909879
0.909874
0.90987
0.909867
0.909862
0.909855
0.909854
0.909853
0.90985
0.909844
0.909835
0.909815
0.909782
0.909771
0.909775
0.909782
0.90978
0.909759
0.909722
0.909689
0.909661
0.909633
0.909597
0.909552
0.909506
0.909468
0.909439
0.909412
0.909381
0.909352
0.909343
0.909346
0.909346
0.909343
0.909337
0.909333
0.909333
0.909338
0.909353
0.909369
0.909384
0.909399
0.909402
0.909386
0.909343
0.909282
0.909207
0.909111
0.909021
0.908967
0.908967
0.908992
0.909082
0.909429
0.910366
0.912935
0.917615
0.926845
0.939495
0.955852
0.972959
0.988118
1.0016
1.01051
1.01395
1.01571
1.01521
1.01269
1.01221
1.0131
1.01451
1.01515
1.01477
1.01375
1.01203
1.01074
1.01031
1.01016
1.00978
1.00918
1.0082
1.00722
1.00703
1.0067
1.00612
1.00531
1.00456
1.00429
1.00391
1.00348
1.00299
1.00246
1.00178
1.00118
1.00028
0.909467
0.909465
0.909463
0.909462
0.909461
0.909461
0.909458
0.909456
0.909456
0.909458
0.909463
0.909464
0.909463
0.909462
0.909461
0.909457
0.909446
0.909442
0.909444
0.909453
0.90946
0.909459
0.909448
0.909427
0.909412
0.909399
0.909379
0.909355
0.909326
0.909295
0.909264
0.909234
0.909209
0.909185
0.909159
0.909141
0.909134
0.909133
0.90913
0.90913
0.909137
0.909156
0.909188
0.909223
0.90926
0.909299
0.909331
0.909347
0.909354
0.909352
0.909327
0.909265
0.909169
0.909048
0.908936
0.908886
0.908882
0.908894
0.908936
0.909017
0.909175
0.909543
0.910526
0.912949
0.918551
0.928496
0.943287
0.961303
0.97781
0.990879
1.00029
1.00486
1.00748
1.01199
1.01561
1.01579
1.01539
1.01351
1.01199
1.01099
1.01086
1.01076
1.01026
1.0095
1.00849
1.00777
1.00741
1.00703
1.0065
1.00571
1.00494
1.00435
1.0042
1.00385
1.00326
1.00272
1.00222
1.00167
1.00103
1.00008
0.909056
0.909057
0.90906
0.909059
0.909059
0.90906
0.909062
0.909066
0.909069
0.909069
0.909072
0.909087
0.90909
0.90909
0.909091
0.909093
0.9091
0.909104
0.909106
0.909107
0.909107
0.909105
0.909099
0.909093
0.90909
0.909083
0.909072
0.909063
0.909062
0.909059
0.909049
0.909036
0.909023
0.909011
0.908991
0.908955
0.908908
0.908873
0.908864
0.908868
0.908882
0.908909
0.908944
0.908981
0.909019
0.909064
0.909119
0.909174
0.909224
0.909266
0.909284
0.909276
0.909228
0.909138
0.909019
0.9089
0.908833
0.908824
0.908836
0.908872
0.908963
0.90908
0.909131
0.909187
0.909492
0.910599
0.913851
0.921162
0.933765
0.951758
0.969948
0.988462
1.00301
1.01044
1.01413
1.01432
1.01249
1.00953
1.01023
1.0113
1.01131
1.01071
1.00956
1.00843
1.00773
1.00783
1.00754
1.0069
1.00591
1.00507
1.00459
1.00443
1.00411
1.00358
1.00294
1.00239
1.00194
1.00142
1.00082
0.99987
0.908731
0.908731
0.908732
0.908734
0.908737
0.908745
0.908748
0.908747
0.908747
0.908747
0.908748
0.908752
0.908757
0.90876
0.908762
0.908764
0.908769
0.908775
0.908783
0.908791
0.9088
0.908811
0.908821
0.908829
0.908837
0.908848
0.908863
0.908879
0.908891
0.908898
0.908904
0.908907
0.908908
0.908909
0.908902
0.908875
0.908825
0.90876
0.908694
0.908649
0.908631
0.908628
0.908635
0.908663
0.908701
0.90875
0.908822
0.908908
0.908985
0.909049
0.90911
0.909164
0.909177
0.909155
0.909079
0.908949
0.908802
0.908722
0.908726
0.90877
0.908868
0.908954
0.908963
0.908971
0.908935
0.908831
0.908885
0.90935
0.911391
0.916387
0.927322
0.943204
0.963375
0.981173
0.993313
1.00151
1.00475
1.00844
1.01247
1.01233
1.01143
1.0093
1.00752
1.00755
1.00783
1.00796
1.00747
1.00637
1.00518
1.00451
1.00461
1.00446
1.004
1.00326
1.00271
1.00228
1.00165
1.00106
1.0005
0.999627
0.908483
0.908483
0.908483
0.908484
0.908487
0.908494
0.908501
0.908502
0.908502
0.908504
0.908506
0.90851
0.908514
0.908516
0.908517
0.908521
0.908527
0.908534
0.90854
0.908548
0.90856
0.908579
0.908603
0.90862
0.908632
0.908644
0.90866
0.90868
0.9087
0.908717
0.908733
0.908755
0.908784
0.908804
0.908809
0.908806
0.90879
0.908754
0.908698
0.908631
0.908567
0.908506
0.908448
0.908409
0.908406
0.908426
0.908484
0.908564
0.908647
0.908734
0.908829
0.908912
0.908963
0.908976
0.908955
0.908882
0.908745
0.908588
0.908521
0.908535
0.908579
0.908657
0.908761
0.908785
0.908745
0.908676
0.908548
0.908418
0.908436
0.908722
0.910084
0.913691
0.922945
0.937465
0.958141
0.977493
0.995866
1.00629
1.01097
1.01064
1.0083
1.0052
1.00583
1.00699
1.0082
1.00783
1.00677
1.0054
1.00456
1.00458
1.00449
1.0042
1.00358
1.00301
1.00258
1.00202
1.00124
1.00059
1.00009
0.999353
0.908397
0.90839
0.908382
0.908372
0.90836
0.908352
0.908349
0.908346
0.908342
0.908334
0.90833
0.90833
0.90833
0.908328
0.908328
0.908334
0.90834
0.908342
0.908344
0.908348
0.908358
0.908372
0.908376
0.908377
0.90838
0.908388
0.908404
0.908424
0.908446
0.908467
0.908492
0.908523
0.90856
0.908596
0.908623
0.908638
0.908643
0.908644
0.908636
0.908612
0.908571
0.908511
0.908432
0.908345
0.908268
0.908227
0.908226
0.908254
0.908315
0.908387
0.908464
0.908554
0.908638
0.908678
0.908679
0.908649
0.908564
0.908422
0.90827
0.908224
0.908242
0.908293
0.908392
0.9085
0.908523
0.9085
0.908413
0.908268
0.908191
0.908182
0.908223
0.908452
0.909313
0.912184
0.919475
0.933587
0.953758
0.972338
0.989303
0.995657
1.00013
1.00325
1.00799
1.00858
1.00815
1.00673
1.00539
1.00472
1.00483
1.00465
1.00421
1.0036
1.0031
1.00296
1.00254
1.00174
1.00074
1.00009
0.999818
0.999094
0.908453
0.90844
0.908426
0.908408
0.908389
0.908368
0.908346
0.908326
0.908307
0.90829
0.908274
0.908259
0.908245
0.908231
0.908215
0.908201
0.908191
0.908184
0.908174
0.908168
0.908168
0.908165
0.908158
0.908154
0.908156
0.908161
0.908173
0.908191
0.908212
0.908237
0.908273
0.908316
0.908358
0.908392
0.908422
0.908448
0.908471
0.908493
0.90852
0.908531
0.908529
0.908505
0.908446
0.908363
0.90827
0.908182
0.908114
0.90808
0.90808
0.908095
0.908131
0.908184
0.90825
0.90832
0.908353
0.908339
0.908279
0.908178
0.908032
0.907916
0.907916
0.907945
0.908012
0.908146
0.908238
0.908241
0.908219
0.908128
0.908027
0.908003
0.908019
0.90806
0.908078
0.908168
0.908705
0.910928
0.917044
0.930805
0.950195
0.969891
0.991709
1.00089
1.007
1.0068
1.00489
1.00364
1.00434
1.00531
1.0051
1.00447
1.00359
1.003
1.00308
1.00286
1.00226
1.00122
1.0004
0.999961
0.999579
0.998763
0.908482
0.90847
0.908458
0.908446
0.908432
0.908416
0.908396
0.908373
0.90835
0.908325
0.908298
0.908271
0.908244
0.908217
0.90819
0.908165
0.908141
0.908118
0.908094
0.908074
0.908061
0.908049
0.908034
0.90802
0.908013
0.908014
0.908021
0.908036
0.908057
0.908092
0.908143
0.908174
0.908186
0.9082
0.908222
0.908254
0.908285
0.908322
0.90838
0.908436
0.908451
0.908446
0.908419
0.908362
0.908283
0.908197
0.908102
0.907988
0.90789
0.907866
0.907878
0.907899
0.907924
0.907963
0.908023
0.908042
0.908003
0.907932
0.907843
0.907737
0.907699
0.9077
0.907709
0.907787
0.907933
0.907984
0.907983
0.907949
0.907876
0.907841
0.907837
0.90785
0.90787
0.907852
0.907684
0.907524
0.90775
0.909667
0.914653
0.928543
0.947262
0.966818
0.987112
0.99242
0.997623
1.00197
1.00612
1.00594
1.00484
1.00322
1.00296
1.00318
1.00311
1.00269
1.00169
1.00076
1.0004
0.999952
0.999293
0.998368
0.908452
0.908452
0.908456
0.908461
0.908461
0.90846
0.908456
0.908442
0.908419
0.908397
0.908379
0.908362
0.908344
0.908322
0.908296
0.908266
0.908235
0.908202
0.90816
0.908117
0.908079
0.908048
0.908019
0.907984
0.907942
0.907905
0.907882
0.907878
0.907881
0.907898
0.907925
0.907947
0.907974
0.908019
0.908075
0.908125
0.908169
0.90822
0.908284
0.90834
0.908374
0.90838
0.908368
0.908334
0.908282
0.908216
0.908116
0.907978
0.907832
0.907719
0.907669
0.90767
0.907695
0.907745
0.9078
0.907835
0.907812
0.90775
0.907714
0.907697
0.907664
0.907606
0.907573
0.907597
0.907702
0.907763
0.907758
0.907737
0.907705
0.907688
0.90767
0.90766
0.907665
0.907641
0.907516
0.907225
0.906836
0.906332
0.906135
0.907734
0.912465
0.926989
0.946191
0.968369
0.991816
0.999515
1.00467
1.00417
1.00116
1.00164
1.00253
1.0035
1.00307
1.00203
1.00113
1.00072
1.00032
0.999725
0.998779
0.998005
0.908256
0.908264
0.908293
0.908329
0.908331
0.908334
0.908345
0.908355
0.908357
0.908359
0.908359
0.908357
0.908351
0.908336
0.908317
0.908301
0.908285
0.908261
0.908227
0.908195
0.908171
0.908144
0.908104
0.908052
0.907993
0.907914
0.90784
0.907821
0.907813
0.90779
0.907751
0.907731
0.90774
0.90777
0.907768
0.907746
0.907739
0.90775
0.907789
0.907848
0.907921
0.907999
0.908094
0.908153
0.908154
0.908125
0.908038
0.907942
0.907842
0.907719
0.907585
0.907529
0.907549
0.90759
0.907631
0.907677
0.907664
0.907611
0.907606
0.907648
0.907656
0.90762
0.907546
0.907541
0.907576
0.907588
0.907567
0.907532
0.907526
0.907544
0.907563
0.907564
0.907534
0.907454
0.907332
0.907062
0.906649
0.906069
0.905371
0.904336
0.903979
0.905556
0.910828
0.926982
0.948285
0.968582
0.987593
0.992364
0.996711
1.00277
1.00372
1.00332
1.00175
1.00101
1.00102
1.00103
1.00047
0.999426
0.998318
0.998034
0.907962
0.907994
0.908029
0.908066
0.908089
0.908104
0.908121
0.908143
0.908166
0.908189
0.908208
0.90821
0.908206
0.908206
0.908207
0.90821
0.90822
0.908219
0.908212
0.908205
0.908195
0.908173
0.908133
0.90808
0.908024
0.907924
0.90783
0.907803
0.907785
0.907758
0.907717
0.907664
0.907629
0.907591
0.907525
0.907407
0.907294
0.907267
0.907268
0.907281
0.907324
0.90743
0.907637
0.907882
0.907971
0.90795
0.907901
0.907868
0.907806
0.907697
0.907566
0.907502
0.907529
0.907568
0.907551
0.907541
0.907537
0.907511
0.907511
0.907571
0.907626
0.907616
0.90755
0.907507
0.907516
0.907519
0.907484
0.907434
0.90743
0.907457
0.907505
0.907516
0.907482
0.907374
0.907185
0.906869
0.906435
0.905831
0.905062
0.904127
0.903208
0.902053
0.902113
0.904207
0.910888
0.92876
0.951004
0.974676
0.993756
1.00081
1.0025
0.999811
0.999018
1.00002
1.00153
1.00112
1.00018
0.998941
0.998337
0.998024
0.907621
0.907691
0.907744
0.907761
0.907778
0.907811
0.907843
0.907865
0.907887
0.90792
0.90796
0.907969
0.907961
0.907949
0.907933
0.90793
0.90794
0.907951
0.907937
0.907916
0.907907
0.907891
0.907865
0.907839
0.907814
0.907784
0.90776
0.907743
0.907711
0.907656
0.907649
0.907656
0.90765
0.907591
0.907455
0.907261
0.907044
0.906927
0.906914
0.906918
0.906958
0.907096
0.907349
0.907624
0.907771
0.907776
0.907753
0.907711
0.90764
0.907562
0.907517
0.907539
0.907593
0.907607
0.907581
0.907475
0.907376
0.907356
0.907376
0.90745
0.907518
0.907527
0.907497
0.907488
0.907513
0.907522
0.907505
0.907476
0.907476
0.907487
0.907505
0.907491
0.907428
0.907284
0.907059
0.90668
0.906178
0.905556
0.904832
0.903922
0.903037
0.902173
0.901433
0.900385
0.900607
0.903187
0.911758
0.931576
0.955564
0.975399
0.98752
0.992662
0.998633
1.00191
1.00159
1.00024
0.998957
0.998588
0.998691
0.998106
0.907155
0.907198
0.907206
0.907208
0.907226
0.907239
0.907247
0.907268
0.907304
0.907333
0.907361
0.907393
0.907426
0.907461
0.907497
0.907537
0.907586
0.907615
0.907612
0.907587
0.907587
0.907596
0.907616
0.907656
0.907689
0.907691
0.907695
0.90772
0.907721
0.907706
0.907697
0.907702
0.907702
0.907677
0.907577
0.907363
0.907063
0.906881
0.906856
0.906858
0.906905
0.907058
0.907269
0.907458
0.907583
0.907622
0.907607
0.907538
0.907455
0.907434
0.907458
0.907531
0.907567
0.907559
0.907493
0.907348
0.90725
0.907253
0.90729
0.90734
0.907375
0.907383
0.90739
0.907441
0.907523
0.907539
0.907537
0.90754
0.907535
0.907521
0.907512
0.907481
0.907399
0.907243
0.906968
0.906535
0.905994
0.905379
0.904663
0.903811
0.903006
0.902221
0.901477
0.900616
0.899698
0.89847
0.898979
0.902624
0.91427
0.935774
0.960424
0.985719
0.996816
1.00079
0.99943
0.996787
0.997714
0.999142
0.998873
0.99795
0.906911
0.906912
0.906896
0.906852
0.906842
0.906842
0.906854
0.906866
0.906862
0.906862
0.906871
0.906889
0.906912
0.906931
0.906958
0.907012
0.907084
0.907173
0.907249
0.907284
0.907322
0.907383
0.907459
0.907577
0.907726
0.90775
0.907749
0.907765
0.907837
0.907847
0.907835
0.907829
0.907829
0.907799
0.907708
0.907548
0.907307
0.907124
0.907076
0.907087
0.907166
0.907271
0.907366
0.907447
0.907491
0.907504
0.907486
0.907429
0.907368
0.907358
0.907376
0.907423
0.907425
0.907393
0.907284
0.9072
0.907207
0.90726
0.90733
0.907348
0.907332
0.907314
0.907331
0.907393
0.907482
0.907537
0.907551
0.907548
0.907519
0.90745
0.907376
0.907323
0.907254
0.907109
0.906835
0.90643
0.905892
0.905279
0.904567
0.90379
0.902997
0.902246
0.901491
0.900704
0.899672
0.89855
0.897479
0.89668
0.897766
0.90285
0.918357
0.941862
0.965953
0.982659
0.990005
0.994533
0.999883
0.999618
0.998601
0.997129
0.9071
0.907091
0.907054
0.907034
0.907034
0.907025
0.907004
0.906986
0.906982
0.906985
0.906977
0.90695
0.906928
0.906923
0.906923
0.906903
0.906892
0.906909
0.906976
0.907048
0.907135
0.907251
0.907378
0.907559
0.907703
0.907712
0.90771
0.907722
0.907784
0.907831
0.907832
0.907808
0.90777
0.90771
0.907631
0.907516
0.907315
0.907171
0.907153
0.907192
0.90729
0.907311
0.907363
0.907407
0.907443
0.907503
0.907526
0.907494
0.907403
0.907311
0.907269
0.907253
0.907228
0.907205
0.907183
0.907201
0.907299
0.907438
0.907482
0.907469
0.90742
0.90738
0.90738
0.907379
0.907408
0.907468
0.907504
0.907498
0.907441
0.907287
0.907156
0.907109
0.907062
0.90696
0.906745
0.906391
0.905878
0.905261
0.904542
0.903773
0.903006
0.902264
0.901452
0.900675
0.8997
0.898673
0.897516
0.896557
0.895463
0.895578
0.897525
0.905327
0.924252
0.948719
0.977923
0.991772
0.998922
0.997988
0.995506
0.996076
0.90704
0.907024
0.90698
0.90695
0.906937
0.906946
0.906958
0.906948
0.906929
0.906891
0.906838
0.906802
0.90679
0.906791
0.906787
0.906774
0.906784
0.906828
0.906862
0.906904
0.906959
0.907033
0.907161
0.907342
0.907438
0.907465
0.907462
0.907415
0.907328
0.907253
0.907183
0.907105
0.907059
0.90705
0.90705
0.907034
0.907007
0.906978
0.90696
0.907003
0.907089
0.907089
0.906995
0.906834
0.906835
0.907009
0.907273
0.907424
0.907454
0.907419
0.907296
0.907106
0.907026
0.907031
0.907097
0.907245
0.907418
0.907535
0.907548
0.907526
0.907497
0.907482
0.907457
0.907386
0.907323
0.907326
0.907353
0.907354
0.907297
0.90717
0.90706
0.907035
0.907006
0.906919
0.906731
0.906411
0.905915
0.905276
0.904519
0.903735
0.902929
0.902115
0.901378
0.900682
0.899849
0.898911
0.897809
0.896818
0.895921
0.895195
0.894336
0.89479
0.897655
0.909777
0.931417
0.956448
0.980611
0.985431
0.992297
0.996826
0.90637
0.906398
0.906395
0.906388
0.906392
0.906395
0.906391
0.906372
0.906352
0.906325
0.906282
0.906246
0.906212
0.906155
0.906117
0.906135
0.906178
0.90625
0.90632
0.906319
0.90631
0.90631
0.906311
0.906338
0.906347
0.90628
0.906112
0.906102
0.906172
0.906254
0.906301
0.906304
0.906289
0.906209
0.90611
0.906095
0.906138
0.906204
0.906288
0.906428
0.90646
0.906375
0.906195
0.906171
0.906318
0.906727
0.907159
0.907426
0.907546
0.90755
0.907463
0.907236
0.907021
0.907013
0.907094
0.907257
0.907415
0.907493
0.907493
0.907471
0.907437
0.90742
0.907382
0.907229
0.907043
0.907011
0.907025
0.907078
0.907134
0.907145
0.907131
0.907105
0.90706
0.906956
0.906743
0.906403
0.905908
0.905256
0.904448
0.903539
0.902631
0.901923
0.901315
0.90071
0.900048
0.899257
0.898272
0.897283
0.896322
0.895414
0.894537
0.893724
0.892934
0.894016
0.899147
0.916345
0.940591
0.968545
0.988906
0.995737
0.904671
0.90477
0.904873
0.904964
0.90504
0.905119
0.905224
0.905306
0.90532
0.905326
0.905365
0.905452
0.905469
0.905463
0.905466
0.90551
0.905673
0.905813
0.905815
0.905809
0.905796
0.905738
0.905696
0.905702
0.905673
0.905429
0.905185
0.90519
0.90523
0.905434
0.905709
0.905804
0.905831
0.905774
0.905551
0.905452
0.905489
0.905577
0.905661
0.905722
0.905679
0.905488
0.905405
0.905454
0.905725
0.906254
0.906733
0.907043
0.907251
0.907323
0.907259
0.907056
0.906802
0.906697
0.906777
0.90681
0.906724
0.906653
0.906645
0.9067
0.906906
0.907085
0.907101
0.907011
0.906842
0.906811
0.906853
0.906972
0.90714
0.907227
0.907226
0.907201
0.907125
0.906973
0.906734
0.906374
0.905821
0.905075
0.904165
0.903181
0.902376
0.901821
0.901327
0.900872
0.900357
0.89967
0.898758
0.897666
0.896578
0.895517
0.894624
0.893695
0.892905
0.892012
0.892149
0.894259
0.902923
0.925694
0.949951
0.977722
0.905147
0.905278
0.905407
0.905491
0.905554
0.905633
0.905746
0.905859
0.905911
0.905912
0.9059
0.905839
0.9058
0.905811
0.90583
0.905902
0.906037
0.906204
0.906528
0.906768
0.906774
0.906721
0.906502
0.906313
0.906314
0.906377
0.906455
0.906418
0.906433
0.906729
0.907397
0.907583
0.907607
0.907578
0.907242
0.906602
0.906371
0.906367
0.906303
0.906219
0.906152
0.906025
0.905928
0.905976
0.906191
0.906305
0.906238
0.906129
0.906079
0.90613
0.906237
0.906247
0.906213
0.906164
0.906097
0.905924
0.905742
0.905719
0.90572
0.905766
0.905968
0.906314
0.906556
0.906589
0.906565
0.906592
0.906792
0.907071
0.907206
0.907224
0.907201
0.907157
0.907068
0.906879
0.906513
0.905969
0.905301
0.904567
0.903777
0.902964
0.902329
0.901934
0.901591
0.901173
0.900621
0.89992
0.898978
0.897851
0.8967
0.895534
0.894598
0.893673
0.89292
0.892296
0.891726
0.89083
0.891334
0.895723
0.908363
0.948357
0.909335
0.909398
0.909466
0.909459
0.909432
0.909318
0.909063
0.909016
0.909097
0.909117
0.908955
0.90895
0.908957
0.908647
0.908042
0.907688
0.9075
0.907496
0.907605
0.907937
0.908242
0.908255
0.908099
0.908097
0.907987
0.907756
0.907766
0.907861
0.908109
0.908255
0.908397
0.90856
0.908613
0.90852
0.908049
0.907215
0.906737
0.906638
0.906587
0.906539
0.906486
0.906331
0.906063
0.905999
0.906114
0.906187
0.906106
0.905649
0.905286
0.905231
0.905265
0.905433
0.90565
0.905789
0.905826
0.905808
0.905644
0.905489
0.905485
0.905532
0.905676
0.905906
0.906169
0.906426
0.906653
0.906879
0.906925
0.906923
0.906782
0.906476
0.90636
0.906322
0.906238
0.906064
0.905745
0.905275
0.904739
0.904157
0.903551
0.902964
0.902576
0.902196
0.901771
0.901301
0.900759
0.900087
0.899181
0.898122
0.896906
0.895733
0.894644
0.893736
0.893254
0.892683
0.892028
0.891154
0.890146
0.889044
0.890225
0.909163
0.916144
0.916223
0.916322
0.916584
0.91673
0.916715
0.916292
0.916074
0.915924
0.915386
0.914869
0.914897
0.914829
0.914183
0.913014
0.911976
0.91124
0.910799
0.910766
0.910884
0.911146
0.911487
0.91191
0.912107
0.91199
0.910988
0.909852
0.909778
0.909706
0.90928
0.908763
0.908703
0.908794
0.908694
0.908409
0.908379
0.908587
0.908568
0.908306
0.908248
0.908348
0.908294
0.908158
0.908196
0.908278
0.908198
0.907939
0.907489
0.906849
0.906256
0.906204
0.9063
0.906372
0.906451
0.906806
0.907409
0.907678
0.907629
0.907474
0.907224
0.906884
0.906725
0.906739
0.906742
0.906751
0.906879
0.906895
0.906771
0.90641
0.905915
0.905664
0.905622
0.905579
0.905455
0.905194
0.904746
0.904216
0.903713
0.903231
0.902964
0.902591
0.902153
0.901694
0.901183
0.900623
0.899926
0.899035
0.898031
0.897011
0.896013
0.895005
0.894347
0.893687
0.892978
0.892153
0.891245
0.890168
0.889023
0.887447
0.89063
0.926266
0.926404
0.926539
0.926548
0.926486
0.926458
0.926515
0.927203
0.927786
0.927674
0.927176
0.926041
0.925105
0.925007
0.925119
0.925055
0.924477
0.924373
0.924244
0.923936
0.92393
0.923974
0.923997
0.924277
0.924491
0.924232
0.923152
0.921776
0.920753
0.920015
0.919315
0.918764
0.918375
0.917678
0.917343
0.917413
0.917175
0.916977
0.916708
0.916106
0.916061
0.915947
0.915208
0.91476
0.914802
0.915102
0.915143
0.914929
0.914334
0.912897
0.911842
0.911453
0.910893
0.910066
0.909754
0.909899
0.910125
0.910017
0.909438
0.908609
0.907905
0.907505
0.907201
0.906734
0.906325
0.906262
0.906264
0.906246
0.906129
0.90578
0.905608
0.905613
0.905587
0.905471
0.905291
0.905053
0.904646
0.904074
0.903442
0.902784
0.902199
0.901561
0.900981
0.900446
0.900013
0.899459
0.898783
0.897961
0.897194
0.896424
0.895607
0.894753
0.893882
0.893071
0.892193
0.891273
0.890107
0.888985
0.887783
0.88647
0.943909
0.944063
0.944063
0.94386
0.943109
0.942321
0.942008
0.941815
0.941382
0.940861
0.940749
0.940386
0.939263
0.938973
0.938991
0.938804
0.938228
0.937141
0.936358
0.936289
0.936177
0.93583
0.934972
0.934421
0.934419
0.934466
0.934256
0.933248
0.932955
0.933073
0.93262
0.932054
0.93201
0.931888
0.931428
0.930419
0.929734
0.929605
0.929223
0.928139
0.926779
0.925676
0.924228
0.922095
0.92103
0.921097
0.921248
0.920755
0.920019
0.919541
0.919115
0.918755
0.918303
0.917323
0.915228
0.913526
0.913021
0.912405
0.911101
0.910608
0.910646
0.910691
0.910486
0.909769
0.908444
0.907693
0.907627
0.907771
0.907812
0.907587
0.907487
0.907579
0.907433
0.907075
0.906707
0.906253
0.90558
0.904592
0.903646
0.902687
0.901916
0.901219
0.900664
0.900189
0.899768
0.899322
0.898891
0.898331
0.8976
0.896822
0.895893
0.89492
0.893791
0.892864
0.89195
0.891015
0.890072
0.889282
0.88841
0.886419
0.961813
0.961966
0.962265
0.96253
0.962484
0.961968
0.960897
0.960315
0.960319
0.960289
0.959861
0.959676
0.959578
0.959187
0.95913
0.95915
0.95855
0.957438
0.957012
0.95641
0.955705
0.955418
0.955178
0.954771
0.953747
0.952505
0.952377
0.952397
0.95216
0.951511
0.950022
0.948345
0.947735
0.947393
0.946602
0.945093
0.944682
0.944865
0.944712
0.943459
0.94297
0.943032
0.942598
0.941161
0.939384
0.938442
0.937536
0.935682
0.934293
0.933397
0.931849
0.931002
0.931167
0.931069
0.929597
0.927768
0.926918
0.925665
0.923357
0.922496
0.922093
0.921453
0.920921
0.920026
0.918269
0.916483
0.91529
0.914622
0.913882
0.91272
0.911298
0.9104
0.909529
0.908542
0.907494
0.906332
0.905299
0.904089
0.903154