/*--------------------------------*- C++ -*----------------------------------*\
  =========                 |
  \\      /  F ield         | OpenFOAM: The Open Source CFD Toolbox
   \\    /   O peration     | Website:  https://openfoam.org
    \\  /    A nd           | Version:  7
     \\/     M anipulation  |
\*---------------------------------------------------------------------------*/
FoamFile
{
    version     2.0;
    format      ascii;
    class       volVectorField;
    location    "2.5";
    object      U;
}
// * * * * * * * * * * * * * * * * * * * * * * * * * * * * * * * * * * * * * //

dimensions      [0 1 -1 0 0 0 0];

internalField   nonuniform List<vector> 
90000
(
(4.05114 -0.249894 0)
(4.04915 -0.235886 0)
(4.04642 -0.221881 0)
(4.04353 -0.210215 0)
(4.04018 -0.199085 0)
(4.03709 -0.191024 0)
(4.03355 -0.181966 0)
(4.03038 -0.175678 0)
(4.02693 -0.167954 0)
(4.02387 -0.162908 0)
(4.02051 -0.155923 0)
(4.01757 -0.150991 0)
(4.01431 -0.14381 0)
(4.01184 -0.135877 0)
(4.01038 -0.129837 0)
(4.00861 -0.119109 0)
(4.00799 -0.114619 0)
(4.00612 -0.101562 0)
(4.00565 -0.0980218 0)
(4.00377 -0.0862339 0)
(4.00275 -0.0803577 0)
(4.00152 -0.0733911 0)
(3.99962 -0.062975 0)
(3.99919 -0.0603836 0)
(3.99659 -0.048352 0)
(3.99614 -0.0461342 0)
(3.99352 -0.0354299 0)
(3.99303 -0.0327198 0)
(3.99014 -0.0219691 0)
(3.99066 -0.0208591 0)
(3.98689 -0.0110048 0)
(3.98555 -0.0059365 0)
(3.98688 -0.00421578 0)
(3.98295 0.00151661 0)
(3.98338 0.00555377 0)
(3.98311 0.00653758 0)
(3.98337 0.00799493 0)
(3.98324 0.00896332 0)
(3.9828 0.00918344 0)
(3.98318 0.00639781 0)
(3.98318 0.00341024 0)
(3.98415 -0.00451331 0)
(3.98279 -0.00663079 0)
(3.98146 -0.0130653 0)
(3.98092 -0.0148327 0)
(3.98026 -0.0158564 0)
(3.97921 -0.0161825 0)
(3.97795 -0.0132619 0)
(3.97756 -0.0113696 0)
(3.9771 -0.00746 0)
(3.97674 -0.00349769 0)
(3.97709 -0.000848158 0)
(3.97769 0.00166446 0)
(3.97773 0.00295229 0)
(3.97795 0.00249201 0)
(3.97852 -0.000390116 0)
(3.97909 -0.00222987 0)
(3.97942 -0.00513675 0)
(3.97954 -0.00746999 0)
(3.97958 -0.00888601 0)
(3.98003 -0.00958653 0)
(3.97923 -0.00719396 0)
(3.97905 -0.00387312 0)
(3.97863 -0.000358166 0)
(3.97899 0.00235852 0)
(3.97918 0.00261503 0)
(3.97969 0.000420406 0)
(3.98015 -0.00222726 0)
(3.9803 -0.00480275 0)
(3.98096 -0.00515519 0)
(3.98071 -0.00374335 0)
(3.98086 -0.00205681 0)
(3.98084 0.000365816 0)
(3.98009 -0.00108312 0)
(3.98046 -0.00254618 0)
(3.9809 -0.0035597 0)
(3.98139 -0.00437491 0)
(3.98291 -0.00307374 0)
(3.98428 -0.000760211 0)
(3.9858 0.00199198 0)
(3.98799 0.0018748 0)
(3.99007 0.000613275 0)
(3.99256 0.0015781 0)
(3.99478 0.00447333 0)
(3.99717 0.00781145 0)
(3.9989 0.00883062 0)
(4.00119 0.00811004 0)
(4.00385 0.00730262 0)
(4.00573 0.0081418 0)
(4.00803 0.0082305 0)
(4.00932 0.00751201 0)
(4.0112 0.00661066 0)
(4.01284 0.00620122 0)
(4.01434 0.00632966 0)
(4.01591 0.00609658 0)
(4.01772 0.00657319 0)
(4.0195 0.00741114 0)
(4.02184 0.00889385 0)
(4.02376 0.00881598 0)
(4.02676 0.0089335 0)
(4.05132 -0.262961 0)
(4.05111 -0.26235 0)
(4.05069 -0.261355 0)
(4.05011 -0.259915 0)
(4.04935 -0.257985 0)
(4.04846 -0.255615 0)
(4.04741 -0.252788 0)
(4.04622 -0.249475 0)
(4.04495 -0.245881 0)
(4.04354 -0.241595 0)
(4.0421 -0.237331 0)
(4.04042 -0.232099 0)
(4.03901 -0.227178 0)
(4.03669 -0.221235 0)
(4.03404 -0.216255 0)
(4.03059 -0.209221 0)
(4.02741 -0.20327 0)
(4.02344 -0.194056 0)
(4.02037 -0.187256 0)
(4.0162 -0.175089 0)
(4.01352 -0.167804 0)
(4.00946 -0.153604 0)
(4.00661 -0.143712 0)
(4.00381 -0.132177 0)
(3.9999 -0.114801 0)
(3.99928 -0.1095 0)
(3.9946 -0.0882563 0)
(3.99358 -0.0809329 0)
(3.99047 -0.0650657 0)
(3.98961 -0.0556601 0)
(3.98606 -0.0366524 0)
(3.98685 -0.0340794 0)
(3.98459 -0.0220267 0)
(3.98135 -0.00379303 0)
(3.98318 -0.00613665 0)
(3.98172 0.000856254 0)
(3.97778 0.0130765 0)
(3.97815 0.0142596 0)
(3.97765 0.0182723 0)
(3.97707 0.0186235 0)
(3.97604 0.0144873 0)
(3.97742 0.0122744 0)
(3.97945 0.00757598 0)
(3.98013 0.00444593 0)
(3.98124 -4.16249e-05 0)
(3.98221 -0.00301625 0)
(3.98285 -0.0072317 0)
(3.9833 -0.00729512 0)
(3.98245 -0.00740128 0)
(3.98279 -0.00463092 0)
(3.98264 -0.00379856 0)
(3.98209 -0.00154755 0)
(3.98169 7.97715e-05 0)
(3.9811 0.00213111 0)
(3.98019 0.00176752 0)
(3.98015 0.00195872 0)
(3.98014 -0.00108169 0)
(3.98012 -0.00315185 0)
(3.98022 -0.00471541 0)
(3.9806 -0.00649593 0)
(3.98113 -0.00622197 0)
(3.98144 -0.00401672 0)
(3.98138 -0.00301868 0)
(3.98121 -0.000746217 0)
(3.98069 -0.000334255 0)
(3.98024 0.00128867 0)
(3.97949 -0.000775405 0)
(3.97965 -0.0016548 0)
(3.97994 -0.00250874 0)
(3.98034 -0.00295217 0)
(3.98097 -0.00224461 0)
(3.98098 -0.00201713 0)
(3.98078 -0.00198535 0)
(3.98003 -0.00152742 0)
(3.98005 -0.00149675 0)
(3.9803 -0.00203231 0)
(3.98101 -0.0016525 0)
(3.9813 -0.00111272 0)
(3.98418 -0.000132234 0)
(3.98576 0.000729172 0)
(3.98715 0.000910498 0)
(3.98965 0.000985358 0)
(3.99175 0.00327388 0)
(3.99501 0.0061226 0)
(3.99696 0.00687367 0)
(3.99851 0.00758261 0)
(4.00119 0.00801382 0)
(4.00365 0.00957861 0)
(4.00675 0.00789048 0)
(4.00868 0.00745414 0)
(4.01011 0.00746548 0)
(4.0118 0.00731772 0)
(4.01345 0.00692717 0)
(4.01497 0.00682713 0)
(4.01647 0.00687063 0)
(4.01844 0.00763988 0)
(4.01999 0.00775356 0)
(4.02241 0.0085245 0)
(4.02457 0.00851551 0)
(4.02788 0.00874765 0)
(4.0481 -0.262614 0)
(4.04804 -0.262651 0)
(4.04796 -0.26263 0)
(4.04788 -0.262584 0)
(4.04779 -0.262534 0)
(4.04769 -0.262451 0)
(4.04758 -0.262353 0)
(4.04746 -0.262183 0)
(4.04734 -0.262024 0)
(4.04718 -0.261686 0)
(4.04702 -0.261331 0)
(4.04681 -0.260661 0)
(4.04649 -0.260002 0)
(4.046 -0.259114 0)
(4.0454 -0.257922 0)
(4.04471 -0.256557 0)
(4.04387 -0.254585 0)
(4.04296 -0.25264 0)
(4.04184 -0.249727 0)
(4.0406 -0.246584 0)
(4.03921 -0.24276 0)
(4.03749 -0.237592 0)
(4.03583 -0.232822 0)
(4.03366 -0.22529 0)
(4.03151 -0.218137 0)
(4.0293 -0.210285 0)
(4.02589 -0.196903 0)
(4.02426 -0.191332 0)
(4.01977 -0.172709 0)
(4.0172 -0.163033 0)
(4.01412 -0.150279 0)
(4.00961 -0.128849 0)
(4.00728 -0.120143 0)
(4.00305 -0.101241 0)
(4.00103 -0.0900809 0)
(3.99621 -0.0662682 0)
(3.99472 -0.0630969 0)
(3.99381 -0.0555327 0)
(3.99008 -0.0327869 0)
(3.99196 -0.0373195 0)
(3.98578 -0.0246274 0)
(3.98502 -0.0181956 0)
(3.98474 -0.0117269 0)
(3.98329 -0.00771129 0)
(3.98453 -0.00505965 0)
(3.98431 -0.00211187 0)
(3.98357 -0.000784648 0)
(3.98354 0.000106852 0)
(3.98401 0.000571569 0)
(3.9844 0.00223484 0)
(3.98376 -0.00160203 0)
(3.98318 -0.0029354 0)
(3.98275 -0.00433259 0)
(3.98211 -0.00509826 0)
(3.98125 -0.00706466 0)
(3.98056 -0.00623002 0)
(3.98078 -0.00543696 0)
(3.98101 -0.00444678 0)
(3.98138 -0.00297939 0)
(3.98224 -0.00278844 0)
(3.98271 -0.00163048 0)
(3.98334 -0.00338561 0)
(3.98293 -0.00432465 0)
(3.98221 -0.00516066 0)
(3.98166 -0.00573948 0)
(3.98116 -0.00502028 0)
(3.98072 -0.00259634 0)
(3.98056 0.000189006 0)
(3.98058 0.000576843 0)
(3.98088 0.000239582 0)
(3.98127 -0.00282659 0)
(3.98129 -0.00530476 0)
(3.9813 -0.00589098 0)
(3.98061 -0.00448136 0)
(3.9807 -0.0017667 0)
(3.98052 -0.000685683 0)
(3.98126 -0.00110944 0)
(3.9817 -0.00201317 0)
(3.98292 -0.0034921 0)
(3.98539 -0.00201122 0)
(3.98753 0.00154239 0)
(3.99003 0.00315947 0)
(3.99199 0.0049201 0)
(3.99442 0.00268173 0)
(3.99714 0.00426244 0)
(3.99954 0.00676281 0)
(4.00207 0.0091818 0)
(4.0047 0.00802203 0)
(4.00789 0.00702205 0)
(4.01034 0.00685984 0)
(4.01195 0.00706632 0)
(4.01329 0.00707956 0)
(4.01468 0.00631934 0)
(4.01605 0.00567667 0)
(4.01753 0.00587015 0)
(4.01956 0.00661796 0)
(4.02128 0.00650706 0)
(4.02383 0.00770727 0)
(4.0261 0.00847012 0)
(4.02964 0.00927938 0)
(4.04386 -0.26265 0)
(4.04382 -0.262664 0)
(4.04379 -0.26271 0)
(4.04377 -0.262727 0)
(4.04374 -0.262735 0)
(4.04369 -0.262796 0)
(4.04366 -0.262851 0)
(4.04363 -0.262856 0)
(4.0436 -0.26286 0)
(4.04354 -0.262957 0)
(4.04348 -0.262998 0)
(4.04344 -0.263036 0)
(4.04336 -0.262969 0)
(4.04328 -0.262924 0)
(4.04318 -0.262796 0)
(4.04308 -0.26266 0)
(4.043 -0.262555 0)
(4.04291 -0.26247 0)
(4.04279 -0.262288 0)
(4.04266 -0.262048 0)
(4.04252 -0.261672 0)
(4.0424 -0.261343 0)
(4.04223 -0.260682 0)
(4.04193 -0.260172 0)
(4.04148 -0.259154 0)
(4.04095 -0.257726 0)
(4.04034 -0.256077 0)
(4.03948 -0.25296 0)
(4.03858 -0.250175 0)
(4.03725 -0.244958 0)
(4.03568 -0.238876 0)
(4.03373 -0.231321 0)
(4.0316 -0.222411 0)
(4.02815 -0.207334 0)
(4.02583 -0.197735 0)
(4.02116 -0.177949 0)
(4.01713 -0.158018 0)
(4.01411 -0.143229 0)
(4.00659 -0.109909 0)
(4.0077 -0.10407 0)
(3.99847 -0.0637422 0)
(3.99679 -0.0570132 0)
(3.9932 -0.0399202 0)
(3.98831 -0.0156868 0)
(3.99052 -0.0190175 0)
(3.98447 -0.00284259 0)
(3.98325 0.00195505 0)
(3.98148 0.00420259 0)
(3.98176 0.00518636 0)
(3.98157 0.00492619 0)
(3.98221 0.00253544 0)
(3.98114 -0.00346541 0)
(3.98134 -0.00436647 0)
(3.98157 -0.00491599 0)
(3.98182 -0.00485279 0)
(3.98182 -0.00446198 0)
(3.98204 -0.00215525 0)
(3.98172 -0.000262006 0)
(3.98203 0.00164288 0)
(3.98216 0.00354009 0)
(3.98213 0.00235412 0)
(3.98188 5.45676e-05 0)
(3.98174 -0.00242763 0)
(3.98201 -0.0054702 0)
(3.98166 -0.00641609 0)
(3.98219 -0.00553901 0)
(3.98177 -0.00291617 0)
(3.98211 -0.00112855 0)
(3.98195 0.000919217 0)
(3.98243 0.00185375 0)
(3.98119 -0.000992859 0)
(3.98141 -0.00227315 0)
(3.98141 -0.00406394 0)
(3.98153 -0.0037779 0)
(3.98128 -0.00260119 0)
(3.98156 -0.00179153 0)
(3.98242 -0.0005209 0)
(3.98303 -0.000988484 0)
(3.9841 -0.00180824 0)
(3.98625 -0.00158653 0)
(3.98849 -0.000224551 0)
(3.99115 0.00333542 0)
(3.99322 0.00489815 0)
(3.99545 0.00443845 0)
(3.9981 0.00519168 0)
(4.00073 0.00647457 0)
(4.00359 0.00895349 0)
(4.0066 0.00885136 0)
(4.00975 0.00756338 0)
(4.0124 0.00665673 0)
(4.01419 0.00703201 0)
(4.01533 0.00693335 0)
(4.01639 0.00666085 0)
(4.01759 0.00666951 0)
(4.01905 0.00658773 0)
(4.02109 0.00783754 0)
(4.0232 0.00799158 0)
(4.02581 0.00817491 0)
(4.0282 0.00881684 0)
(4.03191 0.00915889 0)
(4.04119 -0.262379 0)
(4.04118 -0.262416 0)
(4.04118 -0.262461 0)
(4.04118 -0.262468 0)
(4.04116 -0.262499 0)
(4.04113 -0.262561 0)
(4.04111 -0.262567 0)
(4.04109 -0.262561 0)
(4.04105 -0.262602 0)
(4.04104 -0.262623 0)
(4.04103 -0.262635 0)
(4.04102 -0.262634 0)
(4.04101 -0.262646 0)
(4.04102 -0.262661 0)
(4.04103 -0.26267 0)
(4.04105 -0.262687 0)
(4.04106 -0.262719 0)
(4.04108 -0.262762 0)
(4.04108 -0.262775 0)
(4.04108 -0.262736 0)
(4.04105 -0.262816 0)
(4.04103 -0.262811 0)
(4.041 -0.262848 0)
(4.04101 -0.26285 0)
(4.04099 -0.26277 0)
(4.04096 -0.262623 0)
(4.04096 -0.262498 0)
(4.04096 -0.262393 0)
(4.04094 -0.262218 0)
(4.04089 -0.261923 0)
(4.04087 -0.261519 0)
(4.04079 -0.260887 0)
(4.04058 -0.259702 0)
(4.04026 -0.258373 0)
(4.03954 -0.255245 0)
(4.03864 -0.252058 0)
(4.03717 -0.246044 0)
(4.03526 -0.238003 0)
(4.03273 -0.228045 0)
(4.02951 -0.213014 0)
(4.02542 -0.195525 0)
(4.02151 -0.176467 0)
(4.01614 -0.151844 0)
(4.0103 -0.12319 0)
(4.00803 -0.109732 0)
(4.00167 -0.0819123 0)
(3.9969 -0.0557307 0)
(3.99787 -0.060957 0)
(3.99167 -0.0357797 0)
(3.99025 -0.0321832 0)
(3.99171 -0.0263754 0)
(3.98675 -0.0198691 0)
(3.98562 -0.0143558 0)
(3.9867 -0.011684 0)
(3.98618 -0.00727199 0)
(3.98458 -0.00406081 0)
(3.98199 0.001848 0)
(3.9819 0.00244266 0)
(3.98144 0.00170332 0)
(3.98134 -0.00044857 0)
(3.98074 -0.00125681 0)
(3.98017 -0.00351622 0)
(3.98043 -0.00418689 0)
(3.98128 -0.0045273 0)
(3.98241 -0.00408723 0)
(3.98374 -0.00427068 0)
(3.98353 -0.00347966 0)
(3.9833 -0.00353908 0)
(3.98263 -0.00336493 0)
(3.98189 -0.00405565 0)
(3.98182 -0.00351792 0)
(3.98162 -0.00157942 0)
(3.98213 -0.00124095 0)
(3.98288 -0.00194532 0)
(3.98222 -0.00230006 0)
(3.98326 -0.00331829 0)
(3.98365 -0.0032809 0)
(3.98488 -0.00121885 0)
(3.98624 -0.00033034 0)
(3.98847 0.000566444 0)
(3.99112 0.00156629 0)
(3.99245 0.00201372 0)
(3.995 0.00399583 0)
(3.99716 0.00485882 0)
(3.99984 0.00481833 0)
(4.00268 0.00562196 0)
(4.0051 0.00663523 0)
(4.00841 0.00885176 0)
(4.01176 0.00822524 0)
(4.01468 0.00679393 0)
(4.01619 0.00626399 0)
(4.01727 0.00662704 0)
(4.01825 0.00610364 0)
(4.01946 0.0059499 0)
(4.02109 0.00676749 0)
(4.0232 0.00726519 0)
(4.02562 0.00664522 0)
(4.0282 0.00703669 0)
(4.0306 0.00745477 0)
(4.03433 0.00855826 0)
(4.04097 -0.262641 0)
(4.04098 -0.262611 0)
(4.04099 -0.262604 0)
(4.04104 -0.262638 0)
(4.04106 -0.262698 0)
(4.04108 -0.262723 0)
(4.04108 -0.262753 0)
(4.04107 -0.262798 0)
(4.04109 -0.262828 0)
(4.04109 -0.262825 0)
(4.0411 -0.262815 0)
(4.04109 -0.262801 0)
(4.04112 -0.26283 0)
(4.04116 -0.262859 0)
(4.04118 -0.262902 0)
(4.04118 -0.262922 0)
(4.04121 -0.262962 0)
(4.04126 -0.262996 0)
(4.04127 -0.263002 0)
(4.0413 -0.263008 0)
(4.04133 -0.263 0)
(4.04135 -0.263004 0)
(4.0414 -0.263012 0)
(4.04145 -0.263004 0)
(4.04151 -0.263058 0)
(4.04157 -0.26308 0)
(4.04163 -0.263098 0)
(4.04169 -0.263104 0)
(4.04176 -0.263064 0)
(4.04182 -0.263034 0)
(4.04188 -0.262982 0)
(4.04201 -0.262863 0)
(4.04214 -0.262785 0)
(4.04224 -0.262734 0)
(4.04231 -0.262621 0)
(4.0424 -0.262476 0)
(4.04251 -0.26217 0)
(4.04252 -0.261635 0)
(4.04236 -0.260614 0)
(4.04198 -0.258809 0)
(4.04132 -0.256101 0)
(4.03998 -0.250356 0)
(4.03825 -0.243487 0)
(4.0354 -0.231418 0)
(4.03147 -0.212788 0)
(4.02786 -0.197581 0)
(4.02023 -0.162613 0)
(4.0174 -0.143277 0)
(4.0087 -0.106213 0)
(4.00256 -0.0738592 0)
(4.00445 -0.065375 0)
(3.99435 -0.0289938 0)
(3.99172 -0.0094457 0)
(3.99451 -0.0129891 0)
(3.99039 -0.00363632 0)
(3.98628 0.00965319 0)
(3.98479 0.00992582 0)
(3.9829 0.00299104 0)
(3.9829 -0.00219935 0)
(3.98346 -0.00355843 0)
(3.98057 -0.00496654 0)
(3.98084 -0.00472281 0)
(3.98154 -0.00341651 0)
(3.98249 -0.00152617 0)
(3.98362 0.000135361 0)
(3.98328 0.000635993 0)
(3.98394 -0.00164166 0)
(3.98392 -0.00326096 0)
(3.98329 -0.00448342 0)
(3.98385 -0.0053932 0)
(3.98333 -0.00456206 0)
(3.98352 -0.00270004 0)
(3.98384 -0.00123348 0)
(3.98409 -0.000791916 0)
(3.98378 -0.00167719 0)
(3.98433 -0.00241348 0)
(3.9852 -0.0032151 0)
(3.98628 -0.00328358 0)
(3.98836 -0.000978738 0)
(3.99028 -7.69047e-05 0)
(3.99273 0.00260195 0)
(3.99472 0.00256412 0)
(3.99691 0.0031569 0)
(3.99907 0.00420117 0)
(4.00149 0.0065101 0)
(4.0042 0.0067336 0)
(4.00726 0.00635115 0)
(4.00996 0.00560287 0)
(4.01345 0.00758291 0)
(4.01628 0.00752993 0)
(4.01793 0.00600305 0)
(4.01925 0.00608693 0)
(4.02021 0.00691737 0)
(4.02176 0.00703945 0)
(4.02351 0.00637682 0)
(4.02577 0.00790081 0)
(4.02821 0.00735971 0)
(4.03063 0.00696041 0)
(4.03306 0.00835941 0)
(4.03674 0.00902429 0)
(4.04266 -0.262392 0)
(4.04267 -0.262388 0)
(4.04269 -0.262379 0)
(4.04271 -0.262383 0)
(4.04277 -0.262441 0)
(4.0428 -0.262491 0)
(4.04282 -0.262513 0)
(4.04283 -0.262512 0)
(4.04284 -0.26251 0)
(4.04284 -0.262512 0)
(4.04286 -0.262504 0)
(4.04288 -0.262479 0)
(4.04292 -0.26247 0)
(4.04298 -0.262516 0)
(4.04301 -0.262547 0)
(4.04303 -0.262549 0)
(4.04306 -0.262549 0)
(4.04309 -0.262556 0)
(4.04316 -0.26257 0)
(4.0432 -0.262577 0)
(4.04324 -0.262596 0)
(4.04328 -0.262632 0)
(4.04336 -0.26261 0)
(4.04344 -0.262524 0)
(4.0435 -0.262483 0)
(4.04356 -0.26251 0)
(4.04362 -0.262559 0)
(4.0437 -0.262589 0)
(4.04379 -0.262608 0)
(4.04391 -0.262621 0)
(4.04408 -0.262627 0)
(4.04417 -0.262619 0)
(4.04425 -0.262586 0)
(4.04432 -0.262559 0)
(4.04439 -0.262542 0)
(4.04448 -0.262544 0)
(4.04456 -0.262553 0)
(4.04466 -0.262542 0)
(4.0448 -0.262495 0)
(4.04496 -0.26246 0)
(4.04506 -0.262337 0)
(4.04512 -0.262113 0)
(4.04515 -0.26168 0)
(4.04508 -0.260807 0)
(4.04475 -0.258909 0)
(4.044 -0.255412 0)
(4.04249 -0.249535 0)
(4.03998 -0.238277 0)
(4.03638 -0.224121 0)
(4.03216 -0.205119 0)
(4.02492 -0.166335 0)
(4.02259 -0.156052 0)
(4.01466 -0.118229 0)
(4.00831 -0.0795107 0)
(4.00492 -0.0691334 0)
(4.00486 -0.0606196 0)
(4.00177 -0.040937 0)
(4.00053 -0.0350423 0)
(3.99707 -0.0277943 0)
(3.99317 -0.0193501 0)
(3.99109 -0.0114049 0)
(3.98867 -0.00623131 0)
(3.98501 0.000817951 0)
(3.98515 0.00167919 0)
(3.98496 0.00128845 0)
(3.98383 -0.00232113 0)
(3.98449 -0.00342707 0)
(3.98453 -0.00667722 0)
(3.98482 -0.00683447 0)
(3.98535 -0.00532078 0)
(3.98538 -0.00390273 0)
(3.98573 -0.00248528 0)
(3.98574 -0.00180792 0)
(3.98497 -0.00311827 0)
(3.98536 -0.00303484 0)
(3.98555 -0.00293265 0)
(3.98632 -0.00250266 0)
(3.98755 -0.0023571 0)
(3.98964 -0.000574145 0)
(3.99101 -0.000220092 0)
(3.99342 0.00048782 0)
(3.99609 0.00189278 0)
(3.99847 0.00299886 0)
(4.00086 0.00443459 0)
(4.00276 0.00515158 0)
(4.00546 0.0073229 0)
(4.00878 0.00678737 0)
(4.01226 0.00658087 0)
(4.01489 0.00616102 0)
(4.01754 0.00687075 0)
(4.01951 0.00627452 0)
(4.02102 0.00532858 0)
(4.02222 0.00553215 0)
(4.02416 0.00728984 0)
(4.0261 0.00720331 0)
(4.02805 0.00668941 0)
(4.0303 0.00719738 0)
(4.03287 0.00668268 0)
(4.03513 0.0073382 0)
(4.03892 0.00882878 0)
(4.04502 -0.262515 0)
(4.04503 -0.262508 0)
(4.04504 -0.262508 0)
(4.04506 -0.262523 0)
(4.04508 -0.262533 0)
(4.0451 -0.26252 0)
(4.04512 -0.262511 0)
(4.04514 -0.262522 0)
(4.04516 -0.262535 0)
(4.04518 -0.262538 0)
(4.04519 -0.262545 0)
(4.04521 -0.262552 0)
(4.04523 -0.262565 0)
(4.04524 -0.262572 0)
(4.04528 -0.262545 0)
(4.0453 -0.262512 0)
(4.04532 -0.2625 0)
(4.04537 -0.262542 0)
(4.04542 -0.262562 0)
(4.04549 -0.262514 0)
(4.04555 -0.262492 0)
(4.0456 -0.262521 0)
(4.04566 -0.262502 0)
(4.04575 -0.262384 0)
(4.04581 -0.262281 0)
(4.04585 -0.262231 0)
(4.0459 -0.262231 0)
(4.04594 -0.26224 0)
(4.046 -0.262216 0)
(4.04606 -0.262204 0)
(4.04612 -0.26226 0)
(4.04614 -0.262293 0)
(4.04616 -0.26223 0)
(4.04624 -0.262148 0)
(4.04631 -0.262139 0)
(4.04635 -0.262136 0)
(4.04638 -0.262134 0)
(4.0465 -0.262144 0)
(4.04661 -0.262157 0)
(4.04673 -0.262223 0)
(4.04682 -0.262321 0)
(4.04693 -0.262344 0)
(4.04704 -0.262341 0)
(4.04717 -0.262271 0)
(4.04723 -0.262206 0)
(4.04727 -0.262006 0)
(4.04731 -0.261653 0)
(4.0473 -0.26101 0)
(4.04704 -0.259497 0)
(4.04633 -0.256499 0)
(4.04479 -0.250622 0)
(4.04224 -0.239415 0)
(4.0375 -0.21991 0)
(4.03387 -0.202866 0)
(4.02517 -0.159449 0)
(4.02143 -0.137287 0)
(4.01177 -0.0899787 0)
(4.00945 -0.0633585 0)
(4.00589 -0.0356224 0)
(3.99961 -0.0110751 0)
(4.00008 -0.00055322 0)
(3.99539 0.0147169 0)
(3.99282 0.0140252 0)
(3.98925 0.00382777 0)
(3.98777 -0.00111866 0)
(3.98607 -0.00614239 0)
(3.98622 -0.00610448 0)
(3.98675 -0.00580088 0)
(3.98736 -0.00443883 0)
(3.98829 5.15313e-05 0)
(3.98785 -0.00138793 0)
(3.98748 -0.00204465 0)
(3.98673 -0.00346643 0)
(3.98656 -0.0043698 0)
(3.98682 -0.0042531 0)
(3.98718 -0.00317296 0)
(3.98819 -0.000988015 0)
(3.98935 -0.00100952 0)
(3.99113 -9.31064e-05 0)
(3.99267 -0.0011357 0)
(3.99516 -0.000307166 0)
(3.99773 0.000938117 0)
(4.00014 0.00321113 0)
(4.00235 0.00500636 0)
(4.00424 0.00598988 0)
(4.00692 0.00591829 0)
(4.01003 0.0063969 0)
(4.01371 0.00657489 0)
(4.01608 0.00652899 0)
(4.01894 0.00606586 0)
(4.02083 0.00595699 0)
(4.02278 0.00587098 0)
(4.02446 0.00571927 0)
(4.0262 0.0066187 0)
(4.0278 0.00743821 0)
(4.0297 0.00717056 0)
(4.03189 0.00652351 0)
(4.03447 0.0071488 0)
(4.0368 0.00714915 0)
(4.04069 0.00834842 0)
(4.04675 -0.262354 0)
(4.04678 -0.262337 0)
(4.0468 -0.262323 0)
(4.04681 -0.262324 0)
(4.04683 -0.262337 0)
(4.04685 -0.262333 0)
(4.04687 -0.262324 0)
(4.0469 -0.262334 0)
(4.04693 -0.262357 0)
(4.04697 -0.26235 0)
(4.04703 -0.262326 0)
(4.04705 -0.262313 0)
(4.04705 -0.262309 0)
(4.04707 -0.262285 0)
(4.04709 -0.262249 0)
(4.04711 -0.262252 0)
(4.04715 -0.262225 0)
(4.04717 -0.262205 0)
(4.0472 -0.262236 0)
(4.04726 -0.26223 0)
(4.04733 -0.262172 0)
(4.04738 -0.26216 0)
(4.04742 -0.262143 0)
(4.04748 -0.262059 0)
(4.04752 -0.261963 0)
(4.04754 -0.261886 0)
(4.04756 -0.261838 0)
(4.04755 -0.261772 0)
(4.04748 -0.261713 0)
(4.04739 -0.261675 0)
(4.04731 -0.261621 0)
(4.04726 -0.261536 0)
(4.04726 -0.26146 0)
(4.04727 -0.261416 0)
(4.04726 -0.261402 0)
(4.04737 -0.261425 0)
(4.0475 -0.261459 0)
(4.04763 -0.261512 0)
(4.04777 -0.261568 0)
(4.04794 -0.261656 0)
(4.04806 -0.261743 0)
(4.04817 -0.261793 0)
(4.04833 -0.261875 0)
(4.04847 -0.261882 0)
(4.04856 -0.261882 0)
(4.04861 -0.261911 0)
(4.0487 -0.261834 0)
(4.04872 -0.26167 0)
(4.04868 -0.261733 0)
(4.0486 -0.261483 0)
(4.04849 -0.26119 0)
(4.04835 -0.260576 0)
(4.04788 -0.258871 0)
(4.04694 -0.255243 0)
(4.04489 -0.247291 0)
(4.04217 -0.235946 0)
(4.03576 -0.208384 0)
(4.03257 -0.19028 0)
(4.02328 -0.140569 0)
(4.02143 -0.127877 0)
(4.0133 -0.0819728 0)
(4.01267 -0.0704818 0)
(4.00981 -0.0524378 0)
(4.00791 -0.04109 0)
(4.00293 -0.027031 0)
(3.99778 -0.0183462 0)
(3.99723 -0.0100076 0)
(3.99298 -0.00348657 0)
(3.9903 0.000659246 0)
(3.98996 0.000273575 0)
(3.98873 -0.00267931 0)
(3.9879 -0.00489179 0)
(3.98798 -0.00720411 0)
(3.98816 -0.00657395 0)
(3.98843 -0.00439397 0)
(3.98963 -0.0025069 0)
(3.99011 -0.000858003 0)
(3.99136 -0.00121272 0)
(3.99262 -0.00205652 0)
(3.99489 -0.0020632 0)
(3.99746 -0.00101799 0)
(3.99991 0.00103516 0)
(4.00244 0.00345936 0)
(4.00412 0.00514217 0)
(4.00607 0.00531781 0)
(4.00856 0.00562876 0)
(4.01157 0.0060545 0)
(4.0146 0.00716713 0)
(4.01748 0.00623084 0)
(4.02 0.00550251 0)
(4.02217 0.00538709 0)
(4.02406 0.00567637 0)
(4.02604 0.00598211 0)
(4.02695 0.00612151 0)
(4.02883 0.00661287 0)
(4.03084 0.00703717 0)
(4.03307 0.00695147 0)
(4.03544 0.00632422 0)
(4.03792 0.00719827 0)
(4.04183 0.00833614 0)
(4.04789 -0.26229 0)
(4.04792 -0.262281 0)
(4.04793 -0.262272 0)
(4.04794 -0.262267 0)
(4.04796 -0.262263 0)
(4.04798 -0.262271 0)
(4.048 -0.262281 0)
(4.04802 -0.262285 0)
(4.04805 -0.26227 0)
(4.04809 -0.262263 0)
(4.0481 -0.262254 0)
(4.0481 -0.262246 0)
(4.0481 -0.262231 0)
(4.04814 -0.262189 0)
(4.04814 -0.262126 0)
(4.04814 -0.262114 0)
(4.04815 -0.262129 0)
(4.04816 -0.262144 0)
(4.04816 -0.262109 0)
(4.04819 -0.262008 0)
(4.0482 -0.261912 0)
(4.04818 -0.261881 0)
(4.04818 -0.26185 0)
(4.04823 -0.261721 0)
(4.04826 -0.261584 0)
(4.04825 -0.261529 0)
(4.04825 -0.261441 0)
(4.04828 -0.261304 0)
(4.04832 -0.261235 0)
(4.04835 -0.261163 0)
(4.04837 -0.261004 0)
(4.04835 -0.260843 0)
(4.04831 -0.260732 0)
(4.04827 -0.260713 0)
(4.04824 -0.260776 0)
(4.04823 -0.260856 0)
(4.04825 -0.260924 0)
(4.04829 -0.260974 0)
(4.04837 -0.261031 0)
(4.04853 -0.261131 0)
(4.04873 -0.261215 0)
(4.0489 -0.261292 0)
(4.04904 -0.261378 0)
(4.04921 -0.261462 0)
(4.04934 -0.261553 0)
(4.04944 -0.261574 0)
(4.0495 -0.261579 0)
(4.04951 -0.261601 0)
(4.04949 -0.261667 0)
(4.04942 -0.261697 0)
(4.04935 -0.261561 0)
(4.04921 -0.261446 0)
(4.04898 -0.261243 0)
(4.0489 -0.261145 0)
(4.04875 -0.260896 0)
(4.04846 -0.260024 0)
(4.0477 -0.257457 0)
(4.04636 -0.251713 0)
(4.04311 -0.238574 0)
(4.03972 -0.221479 0)
(4.03089 -0.181749 0)
(4.02807 -0.158731 0)
(4.01592 -0.0974499 0)
(4.01471 -0.0705022 0)
(4.00879 -0.0316868 0)
(4.00412 -0.00681832 0)
(4.00226 0.00600943 0)
(3.99886 0.0169474 0)
(3.99418 0.00718962 0)
(3.99172 -0.00111411 0)
(3.99006 -0.00632642 0)
(3.98991 -0.00661427 0)
(3.98998 -0.00571285 0)
(3.99099 -0.00367736 0)
(3.99091 0.000326751 0)
(3.99238 -0.000269341 0)
(3.99236 -0.00152035 0)
(3.99344 -0.00298753 0)
(3.99437 -0.00282549 0)
(3.99662 -0.00215042 0)
(3.99944 0.00015063 0)
(4.00179 0.00167037 0)
(4.00417 0.0032414 0)
(4.0056 0.00388606 0)
(4.00714 0.00436994 0)
(4.00978 0.0053557 0)
(4.01313 0.0061289 0)
(4.01591 0.00687221 0)
(4.01878 0.00580105 0)
(4.0212 0.00519505 0)
(4.02327 0.00530164 0)
(4.02496 0.00588348 0)
(4.02664 0.00669591 0)
(4.02788 0.00572801 0)
(4.0296 0.00590304 0)
(4.03162 0.00655808 0)
(4.03381 0.00690189 0)
(4.03629 0.00672714 0)
(4.03849 0.00690503 0)
(4.04253 0.00812674 0)
(4.04899 -0.262064 0)
(4.049 -0.262038 0)
(4.049 -0.262008 0)
(4.049 -0.261995 0)
(4.049 -0.261991 0)
(4.04902 -0.261984 0)
(4.04903 -0.261975 0)
(4.04904 -0.261978 0)
(4.04905 -0.261982 0)
(4.04906 -0.261976 0)
(4.04907 -0.261959 0)
(4.04909 -0.261934 0)
(4.04908 -0.261898 0)
(4.04908 -0.261851 0)
(4.04906 -0.261796 0)
(4.04905 -0.261799 0)
(4.04904 -0.261834 0)
(4.04909 -0.261764 0)
(4.04911 -0.261693 0)
(4.04912 -0.261642 0)
(4.04909 -0.261512 0)
(4.04906 -0.261467 0)
(4.04904 -0.261407 0)
(4.04904 -0.261317 0)
(4.04902 -0.261254 0)
(4.04901 -0.26118 0)
(4.04901 -0.261116 0)
(4.04903 -0.261069 0)
(4.04907 -0.261014 0)
(4.04912 -0.260952 0)
(4.04914 -0.260885 0)
(4.04915 -0.26079 0)
(4.04915 -0.260694 0)
(4.04913 -0.260643 0)
(4.04906 -0.260638 0)
(4.049 -0.260638 0)
(4.04897 -0.260642 0)
(4.04894 -0.260647 0)
(4.04894 -0.260689 0)
(4.04897 -0.260742 0)
(4.04903 -0.260781 0)
(4.04913 -0.260847 0)
(4.04924 -0.260948 0)
(4.04937 -0.261057 0)
(4.0495 -0.261151 0)
(4.04962 -0.261231 0)
(4.04973 -0.26132 0)
(4.04978 -0.261373 0)
(4.04981 -0.261366 0)
(4.04983 -0.26133 0)
(4.04982 -0.261341 0)
(4.04966 -0.261436 0)
(4.04938 -0.261458 0)
(4.04911 -0.261417 0)
(4.049 -0.261331 0)
(4.04897 -0.261305 0)
(4.04893 -0.261304 0)
(4.0489 -0.261256 0)
(4.04878 -0.26076 0)
(4.0483 -0.258626 0)
(4.047 -0.253685 0)
(4.04421 -0.240927 0)
(4.03931 -0.220653 0)
(4.03338 -0.191102 0)
(4.02505 -0.148505 0)
(4.02017 -0.118338 0)
(4.01366 -0.079648 0)
(4.01289 -0.0620309 0)
(4.0118 -0.0491346 0)
(4.00553 -0.0311243 0)
(4.00091 -0.0169136 0)
(3.99888 -0.00974909 0)
(3.992 -0.00141522 0)
(3.99331 0.000926857 0)
(3.9926 -0.000929755 0)
(3.99198 -0.00381571 0)
(3.99363 -0.00601893 0)
(3.99451 -0.00575166 0)
(3.99624 -0.00332088 0)
(3.999 -7.62575e-05 0)
(4.0005 0.00101239 0)
(4.00356 0.00145036 0)
(4.00497 0.00168706 0)
(4.00659 0.00246265 0)
(4.00855 0.00388591 0)
(4.01119 0.00586004 0)
(4.01395 0.0058679 0)
(4.01715 0.00557233 0)
(4.01976 0.00538154 0)
(4.02212 0.00526964 0)
(4.02421 0.00586048 0)
(4.02559 0.00599756 0)
(4.0271 0.00627151 0)
(4.02868 0.0055827 0)
(4.03029 0.00554214 0)
(4.03216 0.00619123 0)
(4.03433 0.00662412 0)
(4.03677 0.00660587 0)
(4.03887 0.00670671 0)
(4.04299 0.00793126 0)
(4.04958 -0.261637 0)
(4.04958 -0.261622 0)
(4.04958 -0.261598 0)
(4.04959 -0.261579 0)
(4.04959 -0.261574 0)
(4.04959 -0.261585 0)
(4.0496 -0.261596 0)
(4.0496 -0.261602 0)
(4.0496 -0.261608 0)
(4.0496 -0.261614 0)
(4.0496 -0.261618 0)
(4.04959 -0.261616 0)
(4.04959 -0.261611 0)
(4.04959 -0.261592 0)
(4.04958 -0.261555 0)
(4.04958 -0.261548 0)
(4.04959 -0.26151 0)
(4.0496 -0.261494 0)
(4.0496 -0.261495 0)
(4.04959 -0.261452 0)
(4.04956 -0.261355 0)
(4.04956 -0.261337 0)
(4.04955 -0.261329 0)
(4.04961 -0.261228 0)
(4.04964 -0.261161 0)
(4.04965 -0.261131 0)
(4.04965 -0.261085 0)
(4.04965 -0.261048 0)
(4.04965 -0.260986 0)
(4.04963 -0.260902 0)
(4.04961 -0.260847 0)
(4.04958 -0.260785 0)
(4.04955 -0.260698 0)
(4.04949 -0.260632 0)
(4.04939 -0.260585 0)
(4.04928 -0.260543 0)
(4.04921 -0.260524 0)
(4.04917 -0.260538 0)
(4.04915 -0.260578 0)
(4.04915 -0.26061 0)
(4.04915 -0.260628 0)
(4.04916 -0.260625 0)
(4.0492 -0.260672 0)
(4.04926 -0.260801 0)
(4.04934 -0.260929 0)
(4.04944 -0.261009 0)
(4.04954 -0.261084 0)
(4.04962 -0.261178 0)
(4.04969 -0.261283 0)
(4.04974 -0.261366 0)
(4.04977 -0.261393 0)
(4.04976 -0.261446 0)
(4.04962 -0.261477 0)
(4.04934 -0.261406 0)
(4.04904 -0.261364 0)
(4.04889 -0.261316 0)
(4.04886 -0.26132 0)
(4.04885 -0.261348 0)
(4.0489 -0.261416 0)
(4.04902 -0.261796 0)
(4.04913 -0.261942 0)
(4.04903 -0.261345 0)
(4.04844 -0.259032 0)
(4.04677 -0.252519 0)
(4.04335 -0.239354 0)
(4.0372 -0.212577 0)
(4.02953 -0.178035 0)
(4.01937 -0.126149 0)
(4.01611 -0.0847372 0)
(4.00734 -0.0330083 0)
(4.00892 -0.0174577 0)
(4.00088 0.0141683 0)
(3.99774 0.0144493 0)
(3.99463 0.0019761 0)
(3.99228 -0.0052922 0)
(3.99377 -0.00757862 0)
(3.9947 -0.00718641 0)
(3.99703 -0.00401583 0)
(3.99921 0.00237841 0)
(4.00124 0.00174501 0)
(4.00236 0.000860675 0)
(4.00426 0.000353934 0)
(4.00572 0.000985684 0)
(4.00751 0.00247464 0)
(4.01003 0.00464245 0)
(4.01185 0.00608996 0)
(4.01466 0.00500677 0)
(4.01745 0.00409094 0)
(4.0202 0.00454127 0)
(4.02261 0.00566025 0)
(4.02457 0.00637022 0)
(4.02566 0.00606663 0)
(4.02706 0.00543708 0)
(4.02877 0.00531133 0)
(4.03045 0.00530725 0)
(4.03244 0.00581672 0)
(4.03459 0.00611504 0)
(4.0369 0.0066043 0)
(4.03908 0.00661649 0)
(4.04319 0.00762404 0)
(4.04951 -0.261537 0)
(4.04951 -0.261542 0)
(4.04951 -0.261525 0)
(4.04949 -0.261482 0)
(4.0495 -0.261457 0)
(4.0495 -0.261465 0)
(4.04949 -0.261461 0)
(4.04951 -0.261444 0)
(4.0495 -0.261464 0)
(4.04949 -0.261511 0)
(4.0495 -0.261549 0)
(4.0495 -0.261528 0)
(4.04946 -0.26146 0)
(4.04947 -0.26142 0)
(4.04948 -0.261376 0)
(4.04951 -0.261334 0)
(4.04952 -0.261332 0)
(4.04953 -0.261356 0)
(4.04953 -0.261373 0)
(4.04953 -0.261393 0)
(4.04953 -0.261413 0)
(4.04955 -0.261424 0)
(4.04956 -0.261429 0)
(4.04959 -0.261424 0)
(4.04964 -0.261378 0)
(4.04966 -0.26135 0)
(4.04969 -0.261302 0)
(4.04971 -0.261234 0)
(4.04974 -0.261184 0)
(4.04972 -0.261117 0)
(4.0497 -0.261078 0)
(4.04965 -0.261052 0)
(4.0496 -0.261 0)
(4.04952 -0.260927 0)
(4.04941 -0.260859 0)
(4.04929 -0.260797 0)
(4.04919 -0.260737 0)
(4.04913 -0.260676 0)
(4.04911 -0.260644 0)
(4.04907 -0.260631 0)
(4.04902 -0.26063 0)
(4.04899 -0.260674 0)
(4.04901 -0.260775 0)
(4.04908 -0.260892 0)
(4.04918 -0.26099 0)
(4.04926 -0.261055 0)
(4.04932 -0.261101 0)
(4.04933 -0.261153 0)
(4.04934 -0.261202 0)
(4.04942 -0.261267 0)
(4.04952 -0.26139 0)
(4.04954 -0.26147 0)
(4.04951 -0.261513 0)
(4.04936 -0.261521 0)
(4.04909 -0.261425 0)
(4.04881 -0.261219 0)
(4.04865 -0.261159 0)
(4.04862 -0.261197 0)
(4.04864 -0.261214 0)
(4.04867 -0.26148 0)
(4.04876 -0.261951 0)
(4.04901 -0.262231 0)
(4.04919 -0.262257 0)
(4.04909 -0.261805 0)
(4.04878 -0.260701 0)
(4.04788 -0.257744 0)
(4.04539 -0.248661 0)
(4.04144 -0.233954 0)
(4.03357 -0.197238 0)
(4.0281 -0.167378 0)
(4.01873 -0.113337 0)
(4.01514 -0.0842951 0)
(4.01244 -0.0616103 0)
(4.0122 -0.0445607 0)
(4.00282 -0.0282335 0)
(4.00271 -0.0143031 0)
(3.99957 -0.00564208 0)
(3.99892 -0.000181435 0)
(3.99883 -0.000866792 0)
(3.99878 -0.00348721 0)
(4.00216 -0.00308327 0)
(4.00357 -0.00222441 0)
(4.00611 0.000892761 0)
(4.00818 0.0036513 0)
(4.01053 0.0047781 0)
(4.01233 0.00425397 0)
(4.01424 0.00350098 0)
(4.01732 0.00369415 0)
(4.02011 0.00446664 0)
(4.02293 0.0064906 0)
(4.0244 0.00647916 0)
(4.02581 0.00537593 0)
(4.02698 0.0047594 0)
(4.02854 0.00502034 0)
(4.03031 0.00525846 0)
(4.03235 0.00537095 0)
(4.03447 0.00555514 0)
(4.03691 0.00619844 0)
(4.03908 0.00665898 0)
(4.04322 0.00746814 0)
(4.04931 -0.261355 0)
(4.04931 -0.261351 0)
(4.0493 -0.261355 0)