/*--------------------------------*- C++ -*----------------------------------*\
  =========                 |
  \\      /  F ield         | OpenFOAM: The Open Source CFD Toolbox
   \\    /   O peration     | Website:  https://openfoam.org
    \\  /    A nd           | Version:  7
     \\/     M anipulation  |
\*---------------------------------------------------------------------------*/
FoamFile
{
    version     2.0;
    format      ascii;
    class       volVectorField;
    location    "7";
    object      U;
}
// * * * * * * * * * * * * * * * * * * * * * * * * * * * * * * * * * * * * * //

dimensions      [0 1 -1 0 0 0 0];

internalField   nonuniform List<vector> 
90000
(
(1.96276 -1.07243 0)
(1.9107 -0.961048 0)
(1.88856 -0.853142 0)
(1.86869 -0.655218 0)
(1.88845 -0.589153 0)
(1.88982 -0.533342 0)
(1.87938 -0.433293 0)
(1.87334 -0.320837 0)
(1.88098 -0.283003 0)
(1.86164 -0.19768 0)
(1.86028 -0.149158 0)
(1.84454 -0.0805392 0)
(1.83837 -0.0432026 0)
(1.8263 -0.00340338 0)
(1.81702 0.0251772 0)
(1.80854 0.041446 0)
(1.80262 0.0500387 0)
(1.79946 0.0548464 0)
(1.80192 0.0540641 0)
(1.80451 0.0537224 0)
(1.81144 0.0566841 0)
(1.81888 0.0596748 0)
(1.82624 0.0585361 0)
(1.82849 0.0528112 0)
(1.82952 0.0435049 0)
(1.82769 0.0303681 0)
(1.82789 0.0135968 0)
(1.82629 -0.00246691 0)
(1.82584 -0.020258 0)
(1.82681 -0.0241089 0)
(1.83055 -0.0282402 0)
(1.83003 -0.0301126 0)
(1.82769 -0.0327811 0)
(1.82504 -0.0329046 0)
(1.82306 -0.0329803 0)
(1.82118 -0.0276881 0)
(1.81778 -0.0193475 0)
(1.81786 -0.0110939 0)
(1.81536 -0.00493281 0)
(1.81442 -0.000582521 0)
(1.81014 -0.000915717 0)
(1.80543 -0.00263809 0)
(1.8038 -0.00370032 0)
(1.80263 -0.0054635 0)
(1.8005 -0.0077013 0)
(1.79786 -0.0107837 0)
(1.79557 -0.0107264 0)
(1.79415 -0.00875537 0)
(1.79385 -0.00548125 0)
(1.79134 -0.00377378 0)
(1.7892 -0.00470286 0)
(1.78752 -0.0065587 0)
(1.78584 -0.00881074 0)
(1.7841 -0.0103797 0)
(1.78203 -0.0134126 0)
(1.77961 -0.0136829 0)
(1.77841 -0.0117326 0)
(1.77706 -0.00840112 0)
(1.7754 -0.00876711 0)
(1.77293 -0.0123028 0)
(1.77156 -0.0175226 0)
(1.76913 -0.0194616 0)
(1.76863 -0.0177502 0)
(1.76719 -0.015277 0)
(1.76535 -0.0160295 0)
(1.76293 -0.0193335 0)
(1.75998 -0.0219164 0)
(1.75793 -0.0211328 0)
(1.7563 -0.0198418 0)
(1.75489 -0.0202166 0)
(1.75314 -0.0214158 0)
(1.75117 -0.0227753 0)
(1.74906 -0.0249248 0)
(1.74655 -0.0262707 0)
(1.74407 -0.0264105 0)
(1.7425 -0.0265178 0)
(1.74127 -0.0270035 0)
(1.73871 -0.0278563 0)
(1.73605 -0.0311815 0)
(1.73453 -0.0330038 0)
(1.73383 -0.0333516 0)
(1.73376 -0.0343074 0)
(1.73296 -0.0354486 0)
(1.73136 -0.0373 0)
(1.72987 -0.0394133 0)
(1.72816 -0.0412582 0)
(1.72547 -0.0410842 0)
(1.7206 -0.0420851 0)
(1.71244 -0.0443338 0)
(1.70122 -0.0470519 0)
(1.68843 -0.0487902 0)
(1.67433 -0.0543677 0)
(1.6557 -0.0590099 0)
(1.62988 -0.0613259 0)
(1.59902 -0.0651906 0)
(1.57085 -0.0683922 0)
(1.55082 -0.0653456 0)
(1.53515 -0.0655319 0)
(1.52495 -0.0690413 0)
(1.51916 -0.0676476 0)
(2.07694 -1.23324 0)
(2.07698 -1.23308 0)
(2.07701 -1.23294 0)
(2.07702 -1.23283 0)
(2.07706 -1.23264 0)
(2.077 -1.23269 0)
(2.07557 -1.23045 0)
(2.07024 -1.22119 0)
(2.05938 -1.20304 0)
(2.0383 -1.16411 0)
(2.01105 -1.1079 0)
(1.97495 -1.02719 0)
(1.93477 -0.932526 0)
(1.88784 -0.818082 0)
(1.83706 -0.680967 0)
(1.79947 -0.576195 0)
(1.74208 -0.424662 0)
(1.72215 -0.344362 0)
(1.67305 -0.219193 0)
(1.66311 -0.159921 0)
(1.63855 -0.090532 0)
(1.63223 -0.0493169 0)
(1.6263 -0.0244992 0)
(1.61891 0.00640396 0)
(1.61549 0.00773664 0)
(1.61507 0.0217384 0)
(1.61957 0.023509 0)
(1.63587 0.0284623 0)
(1.65153 0.0335705 0)
(1.66927 0.0325436 0)
(1.67649 0.0252969 0)
(1.67848 0.0145101 0)
(1.67944 0.00167021 0)
(1.6813 -0.00956458 0)
(1.6862 -0.0240201 0)
(1.6872 -0.0288316 0)
(1.68826 -0.0323929 0)
(1.6875 -0.0321972 0)
(1.68575 -0.0317735 0)
(1.68379 -0.0319667 0)
(1.68038 -0.0272903 0)
(1.67904 -0.0225749 0)
(1.67888 -0.0172328 0)
(1.67976 -0.0167982 0)
(1.67839 -0.0195173 0)
(1.68027 -0.0236007 0)
(1.68228 -0.0257593 0)
(1.68551 -0.0278194 0)
(1.68613 -0.0286285 0)
(1.68616 -0.0291637 0)
(1.68592 -0.0273631 0)
(1.68693 -0.0243039 0)
(1.6878 -0.0202686 0)
(1.6884 -0.0208039 0)
(1.68873 -0.0230119 0)
(1.68994 -0.0261212 0)
(1.69205 -0.0290704 0)
(1.69318 -0.028471 0)
(1.69358 -0.0264754 0)
(1.69281 -0.0232655 0)
(1.69334 -0.0239313 0)
(1.69438 -0.0257491 0)
(1.69683 -0.0291564 0)
(1.69767 -0.0295914 0)
(1.69762 -0.028253 0)
(1.69715 -0.0278133 0)
(1.69721 -0.0288979 0)
(1.6984 -0.0307606 0)
(1.69979 -0.0308283 0)
(1.70099 -0.0307763 0)
(1.70192 -0.0318285 0)
(1.70278 -0.032968 0)
(1.70352 -0.0327601 0)
(1.70443 -0.0328028 0)
(1.70523 -0.0331855 0)
(1.70685 -0.0331775 0)
(1.70783 -0.033178 0)
(1.70792 -0.0350908 0)
(1.70713 -0.0352672 0)
(1.70933 -0.0346199 0)
(1.71127 -0.0329073 0)
(1.71395 -0.0315004 0)
(1.71537 -0.0318974 0)
(1.71627 -0.0339688 0)
(1.71691 -0.0367022 0)
(1.71741 -0.0383285 0)
(1.7162 -0.0400847 0)
(1.71291 -0.0406153 0)
(1.70656 -0.0425581 0)
(1.69735 -0.0462188 0)
(1.68605 -0.0483789 0)
(1.67227 -0.0526359 0)
(1.65375 -0.0589649 0)
(1.62862 -0.0606515 0)
(1.59796 -0.0608834 0)
(1.57128 -0.0643124 0)
(1.55341 -0.0645512 0)
(1.53992 -0.0653854 0)
(1.53318 -0.068917 0)
(1.53173 -0.0665298 0)
(2.07653 -1.23255 0)
(2.0766 -1.23242 0)
(2.07644 -1.23263 0)
(2.07655 -1.23243 0)
(2.07636 -1.23274 0)
(2.07653 -1.23243 0)
(2.07642 -1.23301 0)
(2.07659 -1.23246 0)
(2.07677 -1.23231 0)
(2.07708 -1.2319 0)
(2.07722 -1.23193 0)
(2.07761 -1.23147 0)
(2.07767 -1.23173 0)
(2.07818 -1.23132 0)
(2.07827 -1.2319 0)
(2.0766 -1.23025 0)
(2.06675 -1.21226 0)
(2.04297 -1.17781 0)
(2.00035 -1.10862 0)
(1.94842 -1.01499 0)
(1.88654 -0.894764 0)
(1.82406 -0.743013 0)
(1.77783 -0.626056 0)
(1.71009 -0.45489 0)
(1.68766 -0.36253 0)
(1.6243 -0.226378 0)
(1.59529 -0.141213 0)
(1.57029 -0.0870052 0)
(1.55441 -0.0232485 0)
(1.54197 -0.0307508 0)
(1.54627 -0.0271891 0)
(1.55246 -0.0113871 0)
(1.56773 -0.00969427 0)
(1.58074 -0.0125372 0)
(1.59122 -0.0132243 0)
(1.60311 -0.00975229 0)
(1.61161 -0.0091932 0)
(1.61213 -0.0132114 0)
(1.60858 -0.0190173 0)
(1.60803 -0.0206939 0)
(1.61218 -0.0181232 0)
(1.61553 -0.0152496 0)
(1.61646 -0.0116332 0)
(1.61608 -0.00953567 0)
(1.61431 -0.00863535 0)
(1.62037 -0.00804274 0)
(1.62614 -0.00649191 0)
(1.63081 -0.00788497 0)
(1.63192 -0.0114199 0)
(1.634 -0.0145829 0)
(1.63662 -0.0184085 0)
(1.64008 -0.0188927 0)
(1.64179 -0.0172312 0)
(1.64259 -0.0147995 0)
(1.64319 -0.0138923 0)
(1.64734 -0.0133606 0)
(1.65019 -0.0143487 0)
(1.65349 -0.0168875 0)
(1.65451 -0.0214625 0)
(1.65566 -0.0230696 0)
(1.65709 -0.021693 0)
(1.65926 -0.0185491 0)
(1.66325 -0.0186521 0)
(1.66606 -0.0202912 0)
(1.66705 -0.0232968 0)
(1.6678 -0.0237904 0)
(1.66903 -0.0230415 0)
(1.67228 -0.0228846 0)
(1.67532 -0.0237217 0)
(1.67777 -0.0245268 0)
(1.68001 -0.0257513 0)
(1.68251 -0.0269645 0)
(1.68497 -0.0280689 0)
(1.68731 -0.0290722 0)
(1.68984 -0.0294774 0)
(1.6926 -0.0301631 0)
(1.69463 -0.0311474 0)
(1.69645 -0.0324877 0)
(1.69782 -0.0359537 0)
(1.70119 -0.0363937 0)
(1.70469 -0.0349694 0)
(1.70731 -0.0337841 0)
(1.71018 -0.0343434 0)
(1.71212 -0.0364188 0)
(1.7136 -0.0387876 0)
(1.71456 -0.0398286 0)
(1.71387 -0.040382 0)
(1.71091 -0.0414729 0)
(1.70448 -0.0434527 0)
(1.69565 -0.0463257 0)
(1.68493 -0.0478973 0)
(1.67089 -0.0508099 0)
(1.65226 -0.0571984 0)
(1.62858 -0.0595978 0)
(1.59962 -0.0604892 0)
(1.57509 -0.0623236 0)
(1.55921 -0.0630002 0)
(1.54863 -0.0639966 0)
(1.54552 -0.0681619 0)
(1.54554 -0.0672127 0)
(2.07691 -1.2324 0)
(2.07702 -1.23253 0)
(2.07726 -1.23247 0)
(2.07743 -1.23257 0)
(2.0777 -1.23257 0)
(2.07799 -1.23262 0)
(2.0783 -1.23274 0)
(2.07876 -1.23273 0)
(2.07908 -1.23312 0)
(2.07969 -1.23318 0)
(2.08001 -1.23393 0)
(2.08088 -1.234 0)
(2.08126 -1.23509 0)
(2.0825 -1.23505 0)
(2.08292 -1.23661 0)
(2.08471 -1.23643 0)
(2.085 -1.23836 0)
(2.08622 -1.23846 0)
(2.08765 -1.23809 0)
(2.0887 -1.23867 0)
(2.09016 -1.23879 0)
(2.09149 -1.23959 0)
(2.0916 -1.24015 0)
(2.08241 -1.21997 0)
(2.05702 -1.1763 0)
(2.00479 -1.08907 0)
(1.93977 -0.953582 0)
(1.87095 -0.816365 0)
(1.77863 -0.595871 0)
(1.73232 -0.465918 0)
(1.67173 -0.317576 0)
(1.61937 -0.169499 0)
(1.61396 -0.123216 0)
(1.57714 -0.0463841 0)
(1.56392 -0.0136723 0)
(1.56164 -0.0297593 0)
(1.57185 -0.0240651 0)
(1.57751 -0.0187608 0)
(1.58029 -0.0201157 0)
(1.59049 -0.027755 0)
(1.6041 -0.0283574 0)
(1.60965 -0.0262348 0)
(1.60811 -0.0263742 0)
(1.606 -0.0257621 0)
(1.60501 -0.0245491 0)
(1.61033 -0.0205215 0)
(1.61505 -0.0164365 0)
(1.61824 -0.0168562 0)
(1.61846 -0.0199563 0)
(1.62223 -0.021746 0)
(1.62622 -0.022153 0)
(1.63112 -0.0222477 0)
(1.63303 -0.0228621 0)
(1.63392 -0.0236613 0)
(1.63519 -0.0238286 0)
(1.63738 -0.0219334 0)
(1.64033 -0.0206913 0)
(1.6429 -0.0209082 0)
(1.64478 -0.0230751 0)
(1.64728 -0.0251969 0)
(1.65046 -0.026302 0)
(1.65279 -0.0251864 0)
(1.6556 -0.0239565 0)
(1.65827 -0.0242128 0)
(1.6599 -0.0258818 0)
(1.6618 -0.0276838 0)
(1.66372 -0.0278173 0)
(1.66673 -0.0272226 0)
(1.66982 -0.0272533 0)
(1.67271 -0.0281527 0)
(1.67538 -0.0296617 0)
(1.67853 -0.0311212 0)
(1.68157 -0.0323298 0)
(1.68419 -0.0329594 0)
(1.68706 -0.0331552 0)
(1.68999 -0.0331472 0)
(1.6924 -0.0339369 0)
(1.69441 -0.0353143 0)
(1.69634 -0.0379766 0)
(1.70012 -0.0370797 0)
(1.70425 -0.035164 0)
(1.70653 -0.034439 0)
(1.70859 -0.037092 0)
(1.71097 -0.039653 0)
(1.7134 -0.0409843 0)
(1.71477 -0.0407178 0)
(1.71441 -0.040878 0)
(1.71129 -0.042786 0)
(1.70452 -0.0453174 0)
(1.69567 -0.0462851 0)
(1.68545 -0.0482567 0)
(1.67184 -0.0516478 0)
(1.65461 -0.056501 0)
(1.63263 -0.059153 0)
(1.60608 -0.0591256 0)
(1.58308 -0.0620804 0)
(1.56899 -0.0622734 0)
(1.56083 -0.0627587 0)
(1.56056 -0.0692402 0)
(1.55949 -0.0679486 0)
(2.08034 -1.23256 0)
(2.08067 -1.23285 0)
(2.08121 -1.23292 0)
(2.0816 -1.23338 0)
(2.08228 -1.23349 0)
(2.08274 -1.23409 0)
(2.08358 -1.23423 0)
(2.08414 -1.235 0)
(2.08516 -1.23516 0)
(2.08584 -1.23608 0)
(2.08707 -1.23624 0)
(2.08786 -1.23734 0)
(2.08929 -1.23753 0)
(2.09024 -1.23872 0)
(2.09185 -1.23898 0)
(2.09299 -1.24019 0)
(2.0947 -1.24058 0)
(2.09607 -1.24179 0)
(2.09798 -1.24227 0)
(2.09921 -1.24406 0)
(2.10148 -1.24428 0)
(2.10253 -1.2467 0)
(2.10529 -1.24641 0)
(2.10593 -1.24943 0)
(2.10757 -1.24926 0)
(2.10902 -1.24944 0)
(2.11051 -1.24975 0)
(2.11167 -1.25081 0)
(2.1114 -1.24933 0)
(2.10013 -1.22422 0)
(2.0561 -1.15177 0)
(1.99051 -1.00858 0)
(1.92535 -0.858593 0)
(1.83764 -0.632763 0)
(1.78235 -0.441124 0)
(1.75805 -0.333812 0)
(1.68393 -0.186774 0)
(1.66209 -0.112632 0)
(1.64417 -0.0607201 0)
(1.63764 -0.0497128 0)
(1.63298 -0.0371427 0)
(1.62902 -0.027056 0)
(1.62445 -0.0312649 0)
(1.62469 -0.0292968 0)
(1.63166 -0.02776 0)
(1.63746 -0.0217816 0)
(1.6349 -0.0209962 0)
(1.63043 -0.0260546 0)
(1.63044 -0.0314633 0)
(1.63612 -0.0300079 0)
(1.64101 -0.0265179 0)
(1.64278 -0.0254825 0)
(1.64253 -0.0273883 0)
(1.64363 -0.029268 0)
(1.64634 -0.0278711 0)
(1.64812 -0.0245119 0)
(1.64937 -0.0242158 0)
(1.64963 -0.026316 0)
(1.65174 -0.0287185 0)
(1.65541 -0.0306426 0)
(1.65915 -0.0298333 0)
(1.66077 -0.0276275 0)
(1.66244 -0.0264827 0)
(1.66363 -0.0276204 0)
(1.66486 -0.0298045 0)
(1.66784 -0.0315158 0)
(1.67011 -0.0304886 0)
(1.67233 -0.0293431 0)
(1.67465 -0.0297364 0)
(1.67674 -0.0315 0)
(1.67917 -0.0335154 0)
(1.6824 -0.0348489 0)
(1.68548 -0.0356334 0)
(1.68809 -0.0361401 0)
(1.6908 -0.0364962 0)
(1.69362 -0.0367376 0)
(1.69564 -0.0382811 0)
(1.69748 -0.0396541 0)
(1.69974 -0.0377711 0)
(1.7035 -0.0346702 0)
(1.70645 -0.035035 0)
(1.7089 -0.03728 0)
(1.71086 -0.0388544 0)
(1.71361 -0.0394708 0)
(1.71637 -0.0396261 0)
(1.71805 -0.0394946 0)
(1.71803 -0.0401451 0)
(1.71527 -0.0416903 0)
(1.70911 -0.0437226 0)
(1.70073 -0.0452057 0)
(1.69112 -0.047261 0)
(1.67812 -0.0510546 0)
(1.66214 -0.0558299 0)
(1.64178 -0.0568452 0)
(1.61699 -0.0594827 0)
(1.595 -0.0624776 0)
(1.5818 -0.0627585 0)
(1.57484 -0.0644055 0)
(1.57672 -0.0713798 0)
(1.57253 -0.0681093 0)
(2.08559 -1.23781 0)
(2.08638 -1.23801 0)
(2.087 -1.23865 0)
(2.08796 -1.23886 0)
(2.08866 -1.23962 0)
(2.08975 -1.23984 0)
(2.09052 -1.24074 0)
(2.09176 -1.24095 0)
(2.09261 -1.24197 0)
(2.094 -1.24218 0)
(2.09493 -1.2433 0)
(2.09647 -1.24349 0)
(2.09746 -1.24472 0)
(2.09913 -1.24491 0)
(2.10019 -1.24624 0)
(2.10197 -1.24644 0)
(2.10308 -1.24785 0)
(2.10496 -1.24801 0)
(2.10605 -1.24956 0)
(2.10801 -1.24967 0)
(2.10915 -1.2512 0)
(2.1111 -1.25133 0)
(2.11232 -1.25263 0)
(2.11408 -1.25309 0)
(2.11573 -1.2537 0)
(2.11719 -1.25457 0)
(2.11867 -1.25536 0)
(2.12006 -1.25604 0)
(2.12147 -1.25709 0)
(2.12239 -1.25729 0)
(2.12348 -1.25701 0)
(2.12409 -1.25759 0)
(2.12491 -1.25801 0)
(2.12483 -1.25806 0)
(2.11225 -1.22744 0)
(2.0722 -1.14168 0)
(1.99509 -0.966602 0)
(1.93069 -0.779118 0)
(1.85634 -0.54549 0)
(1.81932 -0.38498 0)
(1.76777 -0.236391 0)
(1.72699 -0.128521 0)
(1.72097 -0.0921374 0)
(1.69097 -0.0439363 0)
(1.67984 -0.0343451 0)
(1.672 -0.0212026 0)
(1.66505 -0.0200841 0)
(1.65913 -0.0175804 0)
(1.66554 -0.0158376 0)
(1.67439 -0.0147305 0)
(1.67141 -0.017941 0)
(1.67016 -0.0228979 0)
(1.66906 -0.0296557 0)
(1.67283 -0.0289364 0)
(1.67624 -0.0261867 0)
(1.67626 -0.024383 0)
(1.67545 -0.024315 0)
(1.6742 -0.0229715 0)
(1.67614 -0.0230181 0)
(1.67803 -0.0236711 0)
(1.68174 -0.0249036 0)
(1.68292 -0.0254172 0)
(1.68349 -0.0255274 0)
(1.68295 -0.0264711 0)
(1.68371 -0.027115 0)
(1.6857 -0.0268736 0)
(1.68811 -0.0265325 0)
(1.68939 -0.0270407 0)
(1.69043 -0.0283125 0)
(1.69148 -0.029633 0)
(1.69339 -0.0301986 0)
(1.69595 -0.0304383 0)
(1.6983 -0.0309329 0)
(1.7005 -0.0319175 0)
(1.703 -0.0332907 0)
(1.70545 -0.0339228 0)
(1.70665 -0.0354739 0)
(1.70818 -0.035439 0)
(1.71058 -0.0362104 0)
(1.71337 -0.0365678 0)
(1.71576 -0.0368685 0)
(1.71782 -0.0382554 0)
(1.71927 -0.0407954 0)
(1.72194 -0.0424786 0)
(1.72468 -0.0431744 0)
(1.72637 -0.0429572 0)
(1.72645 -0.0427018 0)
(1.72376 -0.0443046 0)
(1.71835 -0.0459615 0)
(1.71086 -0.0456151 0)
(1.70156 -0.0472113 0)
(1.68886 -0.0522089 0)
(1.6738 -0.056227 0)
(1.65428 -0.0556057 0)
(1.63012 -0.0566874 0)
(1.60835 -0.0616608 0)
(1.59555 -0.0634842 0)
(1.58935 -0.0650761 0)
(1.59241 -0.0725289 0)
(1.58387 -0.0667908 0)
(2.09596 -1.24135 0)
(2.09664 -1.24204 0)
(2.09766 -1.24229 0)
(2.09841 -1.24309 0)
(2.09951 -1.24338 0)
(2.10031 -1.24424 0)
(2.10147 -1.24458 0)
(2.10233 -1.24549 0)
(2.10356 -1.24584 0)
(2.10448 -1.24678 0)
(2.10575 -1.24718 0)
(2.10674 -1.24811 0)
(2.10803 -1.24857 0)
(2.10909 -1.24947 0)
(2.11042 -1.24996 0)
(2.11153 -1.25083 0)
(2.11288 -1.25131 0)
(2.11399 -1.25219 0)
(2.11536 -1.25261 0)
(2.11646 -1.25347 0)
(2.11777 -1.25393 0)
(2.11896 -1.25454 0)
(2.12013 -1.25511 0)
(2.12129 -1.25562 0)
(2.12235 -1.25622 0)
(2.12335 -1.25684 0)
(2.12441 -1.25725 0)
(2.12527 -1.25789 0)
(2.12624 -1.25817 0)
(2.12698 -1.25873 0)
(2.12787 -1.25897 0)
(2.12829 -1.25989 0)
(2.12914 -1.26 0)
(2.12948 -1.2613 0)
(2.13014 -1.26084 0)
(2.13038 -1.26121 0)
(2.13109 -1.26093 0)
(2.13102 -1.26202 0)
(2.12639 -1.25111 0)
(2.10019 -1.18903 0)
(2.04012 -1.04194 0)
(1.96793 -0.817975 0)
(1.92252 -0.622457 0)
(1.84868 -0.385099 0)
(1.83422 -0.275382 0)
(1.76242 -0.144725 0)
(1.752 -0.0959476 0)
(1.71866 -0.0387485 0)
(1.70863 -0.0260104 0)
(1.70329 -0.0144494 0)
(1.69969 -0.0153149 0)
(1.69639 -0.0173297 0)
(1.70065 -0.0175908 0)
(1.70728 -0.0188466 0)
(1.70827 -0.0249731 0)
(1.70687 -0.0309321 0)
(1.70704 -0.0330048 0)
(1.70659 -0.030783 0)
(1.70581 -0.027984 0)
(1.70628 -0.0275914 0)
(1.70897 -0.0287746 0)
(1.7104 -0.0297525 0)
(1.71025 -0.0308064 0)
(1.70849 -0.0316334 0)
(1.70866 -0.032206 0)
(1.70987 -0.0320678 0)
(1.71206 -0.0318802 0)
(1.71232 -0.0320458 0)
(1.71214 -0.0327211 0)
(1.7124 -0.033962 0)
(1.71379 -0.0351125 0)
(1.71563 -0.0352258 0)
(1.71692 -0.0351352 0)
(1.71834 -0.0355063 0)
(1.72026 -0.0360236 0)
(1.7219 -0.036891 0)
(1.72201 -0.0383433 0)
(1.72383 -0.0394623 0)
(1.72549 -0.0387712 0)
(1.72777 -0.0369753 0)
(1.72949 -0.0372518 0)
(1.7305 -0.0395247 0)
(1.73174 -0.0410847 0)
(1.73448 -0.0410307 0)
(1.73695 -0.040654 0)
(1.73839 -0.0403844 0)
(1.73818 -0.0412304 0)
(1.73539 -0.0430852 0)
(1.73033 -0.0443208 0)
(1.72322 -0.0454044 0)
(1.71386 -0.0472024 0)
(1.70122 -0.0516634 0)
(1.68658 -0.056096 0)
(1.66746 -0.055407 0)
(1.64321 -0.0567808 0)
(1.62103 -0.0617524 0)
(1.60839 -0.0638616 0)
(1.60311 -0.0663582 0)
(1.60581 -0.0728552 0)
(1.59338 -0.0654791 0)
(2.10518 -1.24897 0)
(2.10603 -1.24926 0)
(2.10674 -1.24986 0)
(2.10766 -1.25016 0)
(2.10841 -1.2508 0)
(2.10936 -1.25113 0)
(2.11013 -1.25179 0)
(2.11111 -1.25214 0)
(2.11194 -1.25275 0)
(2.11291 -1.25314 0)
(2.11377 -1.25374 0)
(2.11477 -1.25411 0)
(2.11564 -1.25472 0)
(2.11665 -1.25506 0)
(2.11752 -1.25568 0)
(2.11858 -1.25594 0)
(2.11943 -1.25655 0)
(2.12046 -1.2568 0)
(2.1213 -1.25734 0)
(2.12226 -1.25761 0)
(2.12307 -1.25812 0)
(2.12398 -1.25837 0)
(2.1248 -1.25872 0)
(2.12562 -1.25893 0)
(2.12634 -1.2593 0)
(2.12709 -1.25954 0)
(2.12767 -1.26004 0)
(2.12839 -1.26014 0)
(2.12883 -1.26063 0)
(2.12949 -1.26064 0)
(2.12982 -1.26115 0)
(2.1305 -1.26106 0)
(2.13074 -1.26164 0)
(2.13132 -1.26165 0)
(2.13173 -1.26191 0)
(2.13215 -1.26216 0)
(2.13254 -1.26229 0)
(2.13283 -1.26279 0)
(2.13321 -1.26252 0)
(2.13343 -1.26262 0)
(2.13389 -1.26228 0)
(2.13394 -1.26288 0)
(2.13313 -1.25936 0)
(2.1083 -1.20193 0)
(2.0642 -1.06882 0)
(1.97801 -0.822177 0)
(1.93163 -0.61128 0)
(1.85541 -0.359676 0)
(1.83538 -0.23872 0)
(1.76607 -0.110771 0)
(1.7538 -0.0784241 0)
(1.73073 -0.0426582 0)
(1.72557 -0.0251102 0)
(1.72335 -0.0159255 0)
(1.72339 -0.0172542 0)
(1.72452 -0.0241689 0)
(1.72698 -0.0240873 0)
(1.72875 -0.0222588 0)
(1.7271 -0.0245742 0)
(1.72718 -0.0282664 0)
(1.72909 -0.030141 0)
(1.73016 -0.0298385 0)
(1.72888 -0.0295062 0)
(1.727 -0.0289364 0)
(1.72755 -0.0283946 0)
(1.72918 -0.0281957 0)
(1.73116 -0.0289451 0)
(1.73089 -0.0305284 0)
(1.73009 -0.0323795 0)
(1.73021 -0.0326284 0)
(1.7314 -0.0321047 0)
(1.7328 -0.0315003 0)
(1.73313 -0.0315913 0)
(1.7338 -0.0321134 0)
(1.73499 -0.0331105 0)
(1.73589 -0.0343291 0)
(1.73615 -0.0360524 0)
(1.73731 -0.0362911 0)
(1.73943 -0.0360852 0)
(1.74087 -0.0360339 0)
(1.7419 -0.0371218 0)
(1.7422 -0.0398558 0)
(1.74373 -0.0421026 0)
(1.74646 -0.0427938 0)
(1.74878 -0.0431752 0)
(1.74998 -0.0437325 0)
(1.74959 -0.0442951 0)
(1.74681 -0.0458223 0)
(1.74204 -0.0459883 0)
(1.73491 -0.0456379 0)
(1.72509 -0.0474926 0)
(1.71228 -0.051934 0)
(1.69809 -0.0555351 0)
(1.67922 -0.054596 0)
(1.65473 -0.0556696 0)
(1.63191 -0.0613883 0)
(1.61954 -0.0640581 0)
(1.61579 -0.0663137 0)
(1.61562 -0.0715106 0)
(1.60135 -0.0649753 0)
(2.11519 -1.25257 0)
(2.11575 -1.25298 0)
(2.11641 -1.25325 0)
(2.117 -1.25366 0)
(2.11767 -1.25393 0)
(2.11829 -1.25431 0)
(2.11894 -1.25465 0)
(2.11958 -1.25502 0)
(2.12024 -1.25536 0)
(2.12088 -1.25573 0)
(2.12153 -1.25609 0)
(2.12218 -1.25644 0)
(2.12284 -1.25676 0)
(2.12346 -1.25712 0)
(2.12412 -1.2574 0)
(2.12472 -1.2578 0)
(2.12542 -1.25797 0)
(2.12596 -1.2584 0)
(2.12663 -1.25851 0)
(2.12712 -1.25889 0)
(2.12774 -1.25903 0)
(2.12821 -1.25941 0)
(2.12884 -1.25942 0)
(2.12922 -1.2598 0)
(2.1298 -1.25977 0)
(2.13008 -1.26026 0)
(2.1306 -1.26031 0)
(2.13088 -1.26068 0)
(2.1313 -1.26072 0)
(2.13156 -1.26098 0)
(2.13191 -1.26109 0)
(2.13227 -1.26118 0)
(2.13251 -1.26151 0)
(2.13289 -1.26163 0)
(2.13308 -1.26207 0)
(2.13353 -1.26203 0)
(2.13373 -1.26238 0)
(2.13413 -1.26233 0)
(2.13437 -1.26254 0)
(2.13461 -1.26273 0)
(2.13486 -1.26286 0)
(2.13511 -1.26305 0)
(2.13542 -1.26352 0)
(2.13576 -1.26288 0)
(2.13624 -1.26268 0)
(2.13631 -1.26323 0)
(2.13516 -1.25925 0)
(2.10415 -1.18788 0)
(2.05127 -1.02261 0)
(1.95354 -0.734358 0)
(1.90843 -0.515326 0)
(1.82263 -0.264128 0)
(1.78891 -0.144444 0)
(1.75927 -0.082492 0)
(1.74079 -0.0499265 0)
(1.73657 -0.0367001 0)
(1.73594 -0.0274531 0)
(1.73463 -0.0213665 0)
(1.73462 -0.0215389 0)
(1.735 -0.0241187 0)
(1.73678 -0.0291684 0)
(1.73846 -0.0328941 0)
(1.7365 -0.033934 0)
(1.73639 -0.0330058 0)
(1.73806 -0.0305603 0)
(1.74013 -0.0290384 0)
(1.7406 -0.0300812 0)
(1.73937 -0.0329941 0)
(1.73944 -0.0358187 0)
(1.74001 -0.0361274 0)
(1.74238 -0.0354761 0)
(1.74346 -0.0341883 0)
(1.7434 -0.0336445 0)
(1.74361 -0.0337751 0)
(1.7443 -0.0346081 0)
(1.74441 -0.0365486 0)
(1.74547 -0.0379756 0)
(1.74656 -0.0378195 0)
(1.74891 -0.0368555 0)
(1.74983 -0.0374373 0)
(1.75027 -0.0396724 0)
(1.75084 -0.041027 0)
(1.7533 -0.0408179 0)
(1.75597 -0.0410002 0)
(1.75821 -0.041622 0)
(1.75939 -0.0423894 0)
(1.75898 -0.0433783 0)
(1.75658 -0.0446512 0)
(1.75204 -0.0443861 0)
(1.74458 -0.044557 0)
(1.7341 -0.0470946 0)
(1.72124 -0.0519309 0)
(1.70757 -0.0554793 0)
(1.68891 -0.0545536 0)
(1.66416 -0.0561178 0)
(1.6409 -0.062144 0)
(1.62913 -0.0648153 0)
(1.62698 -0.0674972 0)
(1.62202 -0.0704347 0)
(1.60781 -0.063653 0)
(2.12148 -1.2575 0)
(2.12194 -1.25766 0)
(2.12233 -1.25795 0)
(2.1228 -1.25811 0)
(2.12319 -1.2584 0)
(2.12366 -1.25855 0)
(2.12405 -1.25885 0)
(2.12452 -1.25901 0)
(2.12492 -1.25926 0)
(2.12538 -1.25941 0)
(2.12578 -1.25969 0)
(2.12626 -1.2598 0)
(2.12664 -1.26008 0)
(2.12713 -1.26015 0)
(2.12748 -1.26045 0)
(2.12795 -1.26055 0)
(2.1283 -1.26084 0)
(2.12875 -1.26092 0)
(2.12906 -1.26119 0)
(2.12947 -1.26124 0)
(2.12973 -1.26151 0)
(2.1301 -1.2616 0)
(2.13042 -1.26172 0)
(2.13076 -1.26175 0)
(2.13104 -1.26183 0)
(2.1313 -1.26202 0)
(2.13157 -1.26218 0)
(2.13182 -1.26233 0)
(2.13211 -1.2623 0)
(2.13232 -1.26243 0)
(2.13261 -1.26243 0)
(2.13288 -1.26254 0)
(2.13327 -1.26246 0)
(2.13349 -1.26271 0)
(2.13386 -1.26271 0)
(2.13408 -1.26299 0)
(2.13452 -1.26282 0)
(2.13469 -1.26313 0)
(2.13511 -1.26293 0)
(2.13529 -1.26314 0)
(2.13552 -1.26329 0)
(2.13589 -1.26312 0)
(2.13609 -1.26329 0)
(2.13652 -1.26314 0)
(2.13661 -1.26359 0)
(2.13719 -1.26316 0)
(2.13716 -1.2637 0)
(2.13744 -1.26384 0)
(2.13795 -1.2635 0)
(2.13785 -1.26431 0)
(2.12829 -1.23985 0)
(2.07192 -1.10584 0)
(1.99358 -0.854042 0)
(1.92015 -0.581744 0)
(1.82025 -0.283925 0)
(1.81013 -0.181557 0)
(1.75159 -0.0544745 0)
(1.73833 -0.0491784 0)
(1.73892 -0.0377553 0)
(1.73754 -0.0299463 0)
(1.73834 -0.031141 0)
(1.73964 -0.0299845 0)
(1.74001 -0.0291118 0)
(1.74166 -0.0298024 0)
(1.74471 -0.0300487 0)
(1.74443 -0.030313 0)
(1.74203 -0.0318646 0)
(1.74021 -0.0325845 0)
(1.74281 -0.0342779 0)
(1.74516 -0.0344169 0)
(1.74889 -0.0342586 0)
(1.74967 -0.0343748 0)
(1.74927 -0.0344219 0)
(1.74926 -0.0339141 0)
(1.74962 -0.0339486 0)
(1.7494 -0.0353044 0)
(1.75126 -0.0364871 0)
(1.75293 -0.0362214 0)
(1.75481 -0.0359611 0)
(1.75574 -0.037709 0)
(1.75582 -0.0406802 0)
(1.75764 -0.0427232 0)
(1.76078 -0.0429305 0)
(1.76331 -0.0431619 0)
(1.76529 -0.0440498 0)
(1.76638 -0.0452226 0)
(1.7661 -0.0461609 0)
(1.76437 -0.0466935 0)
(1.76015 -0.0451723 0)
(1.75235 -0.0447405 0)
(1.7411 -0.0471172 0)
(1.72842 -0.0514951 0)
(1.71534 -0.0545511 0)
(1.69688 -0.0538138 0)
(1.67191 -0.0552639 0)
(1.64849 -0.0618433 0)
(1.63783 -0.0648825 0)
(1.63625 -0.0685038 0)
(1.62614 -0.0676772 0)
(1.61251 -0.0619599 0)
(2.12681 -1.25876 0)
(2.12703 -1.25893 0)
(2.12732 -1.25902 0)
(2.12755 -1.25922 0)
(2.12783 -1.25934 0)
(2.12807 -1.25954 0)
(2.12835 -1.25966 0)
(2.12857 -1.25987 0)
(2.12883 -1.26002 0)
(2.12906 -1.26022 0)
(2.12931 -1.26037 0)
(2.12956 -1.26053 0)
(2.12984 -1.26061 0)
(2.13008 -1.26075 0)
(2.13036 -1.26085 0)
(2.13058 -1.26106 0)
(2.13086 -1.26117 0)
(2.1311 -1.26132 0)
(2.13134 -1.2614 0)
(2.13154 -1.26151 0)
(2.13174 -1.26163 0)
(2.1319 -1.26183 0)
(2.13212 -1.26188 0)
(2.13232 -1.26192 0)
(2.13254 -1.26192 0)
(2.13275 -1.26199 0)
(2.13291 -1.26215 0)
(2.13316 -1.26214 0)
(2.13332 -1.26222 0)
(2.13363 -1.26202 0)
(2.13375 -1.26226 0)
(2.13412 -1.26208 0)
(2.13431 -1.2623 0)
(2.13473 -1.26207 0)
(2.1349 -1.26235 0)
(2.13527 -1.26224 0)
(2.13546 -1.26248 0)
(2.13581 -1.26239 0)
(2.13605 -1.26249 0)
(2.13637 -1.26242 0)
(2.13662 -1.26246 0)
(2.13681 -1.26257 0)
(2.13696 -1.26279 0)
(2.13725 -1.26273 0)
(2.13755 -1.26267 0)
(2.13754 -1.26312 0)
(2.13786 -1.26305 0)
(2.13805 -1.26318 0)
(2.13813 -1.26352 0)
(2.13825 -1.26386 0)
(2.13858 -1.26387 0)
(2.13916 -1.26341 0)
(2.13909 -1.26397 0)
(2.13518 -1.25396 0)
(2.08567 -1.14002 0)
(2.01139 -0.905032 0)
(1.8899 -0.54094 0)
(1.87301 -0.339195 0)
(1.77958 -0.109901 0)
(1.74711 -0.0661925 0)
(1.74709 -0.0579179 0)
(1.74444 -0.0415732 0)
(1.74294 -0.0331212 0)
(1.74361 -0.0277824 0)
(1.745 -0.0283687 0)
(1.74259 -0.0300446 0)
(1.73916 -0.0329623 0)
(1.74048 -0.0363839 0)
(1.74519 -0.0372762 0)
(1.75015 -0.0360495 0)
(1.75234 -0.0366564 0)
(1.75303 -0.0380284 0)
(1.75278 -0.0380326 0)
(1.75328 -0.0369648 0)
(1.7537 -0.0363275 0)
(1.7537 -0.037082 0)
(1.75589 -0.037666 0)
(1.75819 -0.0366768 0)
(1.75981 -0.0367034 0)
(1.7603 -0.039295 0)
(1.76091 -0.0422503 0)
(1.7642 -0.042184 0)
(1.76783 -0.0418619 0)
(1.7701 -0.0423996 0)
(1.77178 -0.0438147 0)
(1.77275 -0.0448766 0)
(1.77262 -0.0457268 0)
(1.77134 -0.0455661 0)
(1.76714 -0.0434809 0)
(1.75884 -0.0436167 0)
(1.74694 -0.0465256 0)
(1.73459 -0.0511923 0)
(1.72209 -0.0545901 0)
(1.70375 -0.0542092 0)
(1.67851 -0.0558237 0)
(1.6554 -0.0625229 0)
(1.64618 -0.0652765 0)
(1.64296 -0.0688343 0)
(1.62929 -0.0655866 0)
(1.61545 -0.060161 0)
(2.12898 -1.26144 0)
(2.12916 -1.26147 0)
(2.1293 -1.26158 0)
(2.12949 -1.26159 0)
(2.12964 -1.26169 0)
(2.12983 -1.26173 0)
(2.12998 -1.26187 0)
(2.13016 -1.26194 0)
(2.1303 -1.2621 0)
(2.13047 -1.26218 0)
(2.1306 -1.26233 0)
(2.13076 -1.26243 0)
(2.13091 -1.26253 0)
(2.13108 -1.2626 0)
(2.13126 -1.26267 0)
(2.13142 -1.26279 0)
(2.1316 -1.26288 0)
(2.13176 -1.26298 0)
(2.13194 -1.26299 0)
(2.13207 -1.26308 0)
(2.13228 -1.26301 0)
(2.13237 -1.26318 0)
(2.13256 -1.26315 0)
(2.13266 -1.2633 0)
(2.13289 -1.26319 0)
(2.133 -1.26333 0)
(2.13324 -1.26324 0)
(2.13337 -1.26337 0)
(2.13363 -1.26322 0)
(2.13384 -1.2632 0)
(2.13415 -1.26304 0)
(2.13438 -1.26313 0)
(2.13471 -1.26302 0)
(2.135 -1.26301 0)
(2.13536 -1.26284 0)
(2.1356 -1.26293 0)
(2.13597 -1.26279 0)
(2.13614 -1.26302 0)
(2.13651 -1.26281 0)
(2.13669 -1.26298 0)
(2.13707 -1.26275 0)
(2.1372 -1.26289 0)
(2.13736 -1.26297 0)
(2.13745 -1.26317 0)
(2.13771 -1.26308 0)
(2.13782 -1.26326 0)
(2.13801 -1.26325 0)
(2.13805 -1.26356 0)
(2.13823 -1.26372 0)
(2.13854 -1.26352 0)
(2.13869 -1.26362 0)
(2.13889 -1.26365 0)
(2.13922 -1.26349 0)
(2.13953 -1.26314 0)
(2.13994 -1.26266 0)
(2.13973 -1.26333 0)
(2.13432 -1.25136 0)
(2.09238 -1.13376 0)
(1.98888 -0.828016 0)
(1.91166 -0.53626 0)
(1.85813 -0.2985 0)
(1.75885 -0.0631254 0)
(1.7424 -0.058738 0)
(1.74793 -0.0212561 0)
(1.7409 -0.0256262 0)
(1.74153 -0.0311202 0)
(1.74368 -0.0326532 0)
(1.74846 -0.0346768 0)
(1.75235 -0.0348399 0)
(1.75643 -0.0347977 0)
(1.75472 -0.0372614 0)
(1.75387 -0.0395524 0)
(1.75581 -0.0383241 0)
(1.75779 -0.0368327 0)
(1.7585 -0.0365168 0)
(1.75927 -0.0370245 0)
(1.76145 -0.0369399 0)
(1.76353 -0.0366238 0)
(1.76513 -0.0383559 0)
(1.76515 -0.0418197 0)
(1.76789 -0.0443134 0)
(1.77138 -0.0436423 0)
(1.77479 -0.0435395 0)
(1.77682 -0.044464 0)
(1.77806 -0.046438 0)
(1.77885 -0.047509 0)
(1.77894 -0.04793 0)
(1.77797 -0.0467175 0)
(1.77375 -0.0437742 0)
(1.76477 -0.0437905 0)
(1.75234 -0.0463488 0)
(1.7404 -0.0503637 0)
(1.72829 -0.0534833 0)
(1.71001 -0.0536424 0)
(1.68453 -0.0550644 0)
(1.66244 -0.0623254 0)
(1.65414 -0.0654774 0)
(1.64685 -0.066658 0)
(1.63199 -0.063599 0)
(1.61697 -0.0586866 0)
(2.13115 -1.26139 0)
(2.13125 -1.26145 0)
(2.13135 -1.26152 0)
(2.13145 -1.26158 0)
(2.13156 -1.26165 0)
(2.13167 -1.26172 0)
(2.13178 -1.26178 0)
(2.1319 -1.26182 0)
(2.132 -1.2619 0)
(2.13213 -1.26194 0)
(2.13224 -1.26201 0)
(2.13235 -1.26208 0)
(2.13246 -1.26216 0)
(2.13258 -1.26224 0)
(2.1327 -1.26232 0)
(2.13285 -1.26235 0)
(2.13296 -1.26243 0)
(2.1331 -1.26244 0)
(2.1332 -1.26252 0)
(2.13335 -1.26252 0)
(2.13348 -1.26255 0)
(2.13366 -1.26249 0)
(2.13377 -1.26257 0)
(2.13394 -1.26255 0)
(2.13407 -1.26262 0)
(2.13426 -1.26255 0)
(2.13439 -1.26264 0)
(2.13462 -1.2625 0)
(2.13476 -1.26264 0)
(2.13505 -1.26242 0)
(2.13527 -1.26245 0)
(2.1356 -1.26224 0)
(2.13581 -1.26233 0)
(2.1361 -1.26221 0)
(2.13637 -1.26212 0)
(2.13662 -1.26208 0)
(2.13692 -1.26192 0)
(2.13711 -1.26199 0)
(2.13736 -1.26196 0)
(2.13758 -1.26194 0)
(2.13778 -1.26194 0)
(2.1381 -1.26171 0)
(2.13808 -1.262 0)
(2.13825 -1.26206 0)
(2.13835 -1.26222 0)
(2.13849 -1.26226 0)
(2.13849 -1.26254 0)
(2.13861 -1.26267 0)
(2.13879 -1.26261 0)
(2.13878 -1.26283 0)
(2.13892 -1.2628 0)
(2.13904 -1.26309 0)
(2.13951 -1.26258 0)
(2.1397 -1.26251 0)
(2.13961 -1.26282 0)
(2.14001 -1.26221 0)
(2.13992 -1.26249 0)
(2.14025 -1.26215 0)
(2.13978 -1.26333 0)
(2.13362 -1.24572 0)
(2.07332 -1.09177 0)
(1.95739 -0.739855 0)
(1.9212 -0.475172 0)
(1.7971 -0.157363 0)
(1.78086 -0.115897 0)
(1.76452 -0.0659923 0)
(1.75769 -0.0429159 0)
(1.75853 -0.0346237 0)
(1.75798 -0.0298778 0)
(1.75748 -0.0298824 0)
(1.75191 -0.0352121 0)
(1.75507 -0.0421675 0)
(1.7592 -0.0417176 0)
(1.76328 -0.0396094 0)
(1.76468 -0.038125 0)
(1.7658 -0.0383049 0)
(1.76834 -0.0381924 0)
(1.7699 -0.0389084 0)
(1.77089 -0.0416182 0)
(1.77178 -0.0452649 0)
(1.77616 -0.0446874 0)
(1.77974 -0.04286 0)
(1.78197 -0.0428208 0)
(1.78349 -0.0442408 0)
(1.78464 -0.0463227 0)
(1.78555 -0.0467333 0)
(1.78592 -0.0470169 0)
(1.78475 -0.045454 0)
(1.78027 -0.0428891 0)
(1.77046 -0.0436496 0)
(1.75776 -0.0461974 0)
(1.74622 -0.0503824 0)
(1.73433 -0.0538116 0)
(1.71589 -0.0543351 0)
(1.69035 -0.0555629 0)
(1.67001 -0.0630109 0)
(1.66063 -0.0656439 0)
(1.64926 -0.0645604 0)
(1.63438 -0.0619485 0)
(1.6175 -0.0566482 0)
(2.13179 -1.26255 0)
(2.13186 -1.26261 0)
(2.13195 -1.26264 0)
(2.13202 -1.2627 0)
(2.13211 -1.26273 0)
(2.13218 -1.2628 0)
(2.13227 -1.26285 0)
(2.13235 -1.26293 0)
(2.13245 -1.26297 0)
(2.13253 -1.26306 0)
(2.13265 -1.26307 0)
(2.13273 -1.26315 0)
(2.13285 -1.26313 0)
(2.13293 -1.26321 0)
(2.13306 -1.26323 0)
(2.13317 -1.26328 0)
(2.13331 -1.26325 0)
(2.13343 -1.26327 0)
(2.13357 -1.26323 0)
(2.13366 -1.26332 0)
(2.13382 -1.26331 0)
(2.13395 -1.26337 0)
(2.13414 -1.26329 0)
(2.13426 -1.26336 0)
(2.13445 -1.26328 0)
(2.13458 -1.26332 0)
(2.13475 -1.2633 0)
(2.13493 -1.26327 0)
(2.13514 -1.26324 0)
(2.13535 -1.26321 0)
(2.13561 -1.26315 0)
(2.13591 -1.263 0)
(2.13616 -1.26295 0)
(2.13641 -1.26284 0)
(2.13661 -1.26277 0)
(2.1368 -1.26271 0)