/*--------------------------------*- C++ -*----------------------------------*\
  =========                 |
  \\      /  F ield         | OpenFOAM: The Open Source CFD Toolbox
   \\    /   O peration     | Website:  https://openfoam.org
    \\  /    A nd           | Version:  7
     \\/     M anipulation  |
\*---------------------------------------------------------------------------*/
FoamFile
{
    version     2.0;
    format      ascii;
    class       volScalarField;
    location    "2";
    object      T;
}
// * * * * * * * * * * * * * * * * * * * * * * * * * * * * * * * * * * * * * //

dimensions      [0 0 0 1 0 0 0];

internalField   nonuniform List<scalar> 
12750
(
0.992388
1.15962
1.24338
1.29496
1.32333
1.34328
1.35608
1.35594
1.34893
1.335
1.33523
1.33231
1.32033
1.31376
1.29728
1.28505
1.29506
1.33303
1.37359
1.37314
1.36601
1.33614
1.2871
1.28358
1.28743
1.31168
1.33324
1.33203
1.30216
1.19333
0.520502
0.524271
0.593473
0.733788
0.908458
1.05567
1.192
1.27523
1.35174
1.40008
1.44428
1.44398
1.42958
1.41719
1.40156
1.39976
1.42464
1.45535
1.47063
1.47274
1.47088
1.43799
1.36913
1.33102
1.32295
1.33732
1.34457
1.34375
1.32461
1.23766
0.495416
0.485454
0.47502
0.464359
0.456848
0.450037
0.466842
0.553319
0.720412
0.947447
1.09702
1.21713
1.31943
1.38485
1.43792
1.46071
1.49498
1.50649
1.50493
1.52267
1.55024
1.53252
1.46194
1.38132
1.35291
1.35491
1.35007
1.3491
1.33397
1.27281
0.458605
0.453549
0.449017
0.445355
0.442514
0.441331
0.440201
0.438988
0.437691
0.436143
0.432501
0.486448
0.682997
0.888518
1.07513
1.22589
1.35393
1.46998
1.51868
1.57974
1.62586
1.61356
1.54314
1.44129
1.39301
1.37048
1.35641
1.3492
1.33373
1.28993
0.440758
0.438679
0.43696
0.436089
0.435209
0.434926
0.434591
0.433867
0.432651
0.431086
0.429144
0.424946
0.421367
0.420106
0.418857
0.49779
0.772039
1.20694
1.5142
1.61635
1.67249
1.67174
1.62092
1.52924
1.45704
1.40525
1.37952
1.34955
1.33241
1.29544
0.430656
0.428736
0.427412
0.42756
0.428144
0.428476
0.428558
0.428125
0.426794
0.424455
0.421284
0.418413
0.416811
0.416924
0.417856
0.417696
0.417037
0.46857
1.05048
1.44531
1.66001
1.69506
1.67036
1.61436
1.53244
1.46455
1.41091
1.3443
1.32031
1.29149
0.422014
0.420737
0.420688
0.421422
0.423484
0.424173
0.424151
0.423975
0.42321
0.421156
0.418221
0.416147
0.415087
0.415852
0.417336
0.417577
0.419047
0.423859
0.43235
0.760802
1.35142
1.65695
1.67801
1.66524
1.60608
1.519
1.44124
1.34169
1.29701
1.26783
0.416784
0.416981
0.417787
0.419457
0.422097
0.42321
0.423177
0.422967
0.422267
0.420472
0.417599
0.415517
0.414468
0.416181
0.422478
0.430619
0.43708
0.444434
0.453609
0.456884
0.640329
1.28493
1.62086
1.64556
1.62918
1.56126
1.46282
1.33664
1.26811
1.23029
0.418561
0.419009
0.420111
0.421513
0.422962
0.424187
0.424822
0.424911
0.424275
0.422656
0.420504
0.420961
0.424676
0.435752
0.449551
0.456092
0.458161
0.459665
0.461853
0.465724
0.467105
0.595124
1.18083
1.42322
1.48219
1.47478
1.42962
1.3247
1.24916
1.18773
0.420352
0.420309
0.42035
0.4209
0.422325
0.42503
0.429161
0.4338
0.437378
0.43999
0.443229
0.446746
0.452135
0.46187
0.469472
0.469798
0.469745
0.469348
0.468225
0.469984
0.476475
0.482121
0.535157
0.801917
1.03715
1.19356
1.22452
1.20445
1.18552
1.15795
0.431012
0.431303
0.43238
0.435536
0.441206
0.447795
0.453986
0.459646
0.464036
0.465657
0.466762
0.467567
0.469102
0.473686
0.47785
0.478326
0.479679
0.484264
0.494264
0.501438
0.506925
0.511504
0.515993
0.523154
0.537514
0.636474
0.722809
0.857435
1.04264
1.11385
0.464554
0.464673
0.465138
0.467578
0.472482
0.476775
0.48013
0.484029
0.486324
0.486167
0.484812
0.48386
0.483591
0.485659
0.493638
0.502186
0.507493
0.514913
0.524075
0.530691
0.533953
0.537751
0.540603
0.545114
0.555715
0.57748
0.612639
0.63956
0.734662
1.04105
0.487442
0.487224
0.487338
0.488501
0.491994
0.496983
0.502233
0.507359
0.509269
0.509163
0.509239
0.510045
0.51313
0.520709
0.531639
0.539167
0.539588
0.539542
0.54137
0.546583
0.550769
0.554404
0.556909
0.560433
0.569536
0.59103
0.628439
0.674406
0.689428
0.859068
0.520706
0.520564
0.520665
0.521892
0.525927
0.531779
0.537611
0.541769
0.542492
0.542137
0.542378
0.543605
0.545977
0.550349
0.556523
0.557824
0.556597
0.555147
0.556427
0.560331
0.564174
0.566743
0.571627
0.578575
0.588973
0.607913
0.640319
0.68242
0.709939
0.735712
0.557438
0.556051
0.555984
0.55653
0.559265
0.565169
0.572552
0.575783
0.575557
0.574007
0.572486
0.572673
0.573506
0.575291
0.577976
0.58078
0.583804
0.588113
0.593965
0.595887
0.595437
0.595789
0.598463
0.606425
0.618413
0.635541
0.662013
0.688374
0.719524
0.742508
0.597409
0.595083
0.594905
0.59529
0.597462
0.603057
0.609217
0.611064
0.610219
0.606843
0.605312
0.606069
0.608742
0.612687
0.61638
0.619377
0.620769
0.621587
0.623466
0.625707
0.627437
0.629457
0.633016
0.639165
0.647791
0.660318
0.680563
0.704201
0.726267
0.748531
0.638923
0.637416
0.637477
0.638175
0.641536
0.64801
0.65146
0.651182
0.648791
0.644819
0.644008
0.645412
0.647902
0.648671
0.648602
0.649
0.648981
0.648623
0.648835
0.650488
0.653136
0.655072
0.656701
0.659486
0.665998
0.680245
0.703078
0.728309
0.750972
0.770539
0.684074
0.683627
0.683575
0.684163
0.688518
0.693843
0.694069
0.692482
0.68866
0.686229
0.687002
0.688736
0.688253
0.687235
0.687191
0.68784
0.687979
0.688251
0.688452
0.687943
0.685941
0.685182
0.685881
0.689312
0.697175
0.710329
0.731685
0.756059
0.773841
0.790256
0.734946
0.73261
0.732237
0.732976
0.737498
0.740114
0.739683
0.73749
0.733127
0.732231
0.733261
0.733046
0.731591
0.729929
0.72891
0.727389
0.725333
0.724325
0.723417
0.721994
0.721876
0.723174
0.725948
0.7307
0.736898
0.744834
0.756514
0.771014
0.788406
0.808432
0.78936
0.785871
0.784832
0.785566
0.789508
0.79096
0.790084
0.786217
0.781256
0.781083
0.781914
0.781038
0.777436
0.7749
0.773723
0.771694
0.767984
0.766233
0.764934
0.762634
0.759519
0.759481
0.760405
0.762795
0.767203
0.774511
0.784018
0.792494
0.799277
0.813592
0.846894
0.842094
0.840575
0.8413
0.845186
0.846429
0.845146
0.839612
0.833382
0.833042
0.833306
0.831627
0.825472
0.822272
0.821428
0.819483
0.814607
0.810837
0.808314
0.805577
0.802198
0.800626
0.801176
0.803094
0.807439
0.811151
0.815164
0.822434
0.831194
0.843546
0.909037
0.901575
0.899438
0.899499
0.902849
0.90493
0.903199
0.89706
0.888874
0.887185
0.887286
0.885077
0.877033
0.873138
0.872016
0.869916
0.864583
0.858493
0.854719
0.851561
0.848327
0.843936
0.841233
0.841402
0.843845
0.843744
0.843624
0.84562
0.851395
0.866234
0.979164
0.968371
0.962762
0.962316
0.965479
0.967709
0.965604
0.958714
0.947855
0.945746
0.946071
0.943
0.932929
0.928144
0.926323
0.923302
0.91757
0.909427
0.903838
0.89992
0.895391
0.890387
0.88482
0.881728
0.881819
0.880509
0.87651
0.87647
0.877739
0.887512
1.05727
1.04842
1.0377
1.03562
1.0377
1.03921
1.03641
1.02911
1.01699
1.01294
1.01212
1.00818
0.997916
0.99122
0.98744
0.981835
0.974541
0.96625
0.958417
0.952367
0.945819
0.938114
0.932748
0.927903
0.923819
0.920682
0.915518
0.912943
0.914811
0.922966
1.12357
1.12071
1.11624
1.11127
1.10996
1.10856
1.1055
1.10078
1.09344
1.08765
1.08407
1.07913
1.07074
1.06332
1.05716
1.04986
1.04122
1.03244
1.02353
1.01473
1.00681
0.998008
0.989908
0.983678
0.977137
0.970787
0.965294
0.959693
0.958655
0.959797
1.14349
1.14239
1.14095
1.14027
1.13962
1.13857
1.13699
1.13501
1.13236
1.12956
1.12772
1.12547
1.12155
1.11746
1.113
1.10752
1.10151
1.09482
1.08749
1.07926
1.07063
1.06203
1.05309
1.04448
1.03584
1.02693
1.01911
1.01245
1.0078
1.00101
1.1374
1.13718
1.1369
1.13652
1.13645
1.13636
1.1356
1.13442
1.1328
1.13127
1.1302
1.12867
1.1262
1.12374
1.12134
1.11827
1.11463
1.11035
1.10547
1.09989
1.09336
1.08634
1.07881
1.07062
1.06191
1.05281
1.04402
1.0356
1.02816
1.01717
1.09507
1.09558
1.09651
1.09771
1.09902
1.10159
1.10351
1.10358
1.10393
1.10542
1.10697
1.107
1.10693
1.10649
1.10611
1.10522
1.10334
1.10086
1.09763
1.09371
1.08888
1.08297
1.07631
1.06883
1.06054
1.05182
1.04292
1.03423
1.02633
1.01485
1.02519
1.02644
1.02769
1.02896
1.03026
1.03189
1.03398
1.03607
1.03792
1.04002
1.04256
1.04493
1.04716
1.04939
1.05164
1.0536
1.05509
1.05645
1.05646
1.05626
1.05515
1.05295
1.04967
1.04536
1.04017
1.03434
1.02812
1.02163
1.01551
1.00747
1.00136
1.00148
1.00162
1.00178
1.00196
1.00218
1.00245
1.00278
1.00314
1.00353
1.00402
1.0046
1.00524
1.00596
1.00677
1.00768
1.0086
1.00958
1.01049
1.01124
1.01186
1.01206
1.01191
1.0114
1.01044
1.00906
1.00732
1.00534
1.00345
1.00134
1.00002
1.00002
1.00002
1.00002
1.00003
1.00003
1.00004
1.00004
1.00005
1.00006
1.00007
1.00009
1.00011
1.00013
1.00016
1.0002
1.00025
1.0003
1.00037
1.00043
1.0005
1.00056
1.00061
1.00063
1.00061
1.00056
1.00046
1.00032
1.00019
1.00006
1
1
1
1
1
1
1
1
1
1
1
1
1
1
1
1
1
1
1
1
1
1.00001
1.00001
1.00001
1.00001
1.00001
1.00001
1
1
1
1
1
1
1
1
1
1
1
1
1
1
1
1
1
1
1
1
1
1
1
1
1
1
1
1
1
1
1
1
1
1
1
1
1
1
1
1
1
1
1
1
1
1
1
1
1
1
1
1
1
1
1
1
1
1
1
1
1
1
1
1
1
1
1
1
1
1
1
1
1
1
1
1
1
1
1
1
1
1
1
1
1
1
1
1
1
1
1
1
1
0.543607
0.529552
0.505824
0.466451
0.444226
0.432802
0.423798
0.4168
0.418336
0.421653
0.431356
0.465759
0.490615
0.52335
0.561169
0.602266
0.645293
0.691287
0.742969
0.799183
0.859028
0.921777
0.988943
1.06365
1.12729
1.14472
1.13783
1.09301
1.02304
1.0012
1.00001
1
1
1
1
0.537723
0.525563
0.501315
0.463463
0.443439
0.43181
0.423292
0.416908
0.418788
0.427824
0.442706
0.475987
0.501791
0.533374
0.571281
0.611469
0.654947
0.70186
0.754361
0.81194
0.873053
0.935664
1.00157
1.07483
1.13396
1.14637
1.13738
1.08456
1.0181
1.00077
1.00001
1
1
1
1
0.533859
0.523816
0.501395
0.466573
0.44791
0.433625
0.425192
0.419176
0.42079
0.431948
0.448346
0.479683
0.506799
0.537396
0.574986
0.614753
0.658503
0.705764
0.758398
0.816657
0.878002
0.940944
1.0081
1.08293
1.13834
1.14733
1.13483
1.07787
1.01473
1.00054
1.00001
1
1
1
1
0.530441
0.52333
0.500992
0.467701
0.451328
0.437086
0.428455
0.42236
0.422381
0.433026
0.45135
0.481184
0.509445
0.540046
0.576419
0.616075
0.660111
0.708225
0.760599
0.81854
0.879833
0.942792
1.01349
1.09297
1.14302
1.1482
1.1322
1.07152
1.01172
1.00037
1
1
1
1
1
0.529358
0.523593
0.500206
0.468224
0.454099
0.440272
0.430966
0.423619
0.422582
0.43257
0.45273
0.481544
0.510656
0.542383
0.577384
0.618082
0.663863
0.714685
0.768868
0.825905
0.886586
0.952931
1.02963
1.10751
1.14786
1.1498
1.13028
1.06463
1.00906
1.00025
1
1
1
1
1
0.530461
0.52545
0.500208
0.469736
0.456863
0.441868
0.431868
0.423259
0.42146
0.431955
0.453569
0.483221
0.514255
0.550456
0.591346
0.636472
0.684743
0.737505
0.793347
0.851939
0.913645
0.980064
1.05152
1.1195
1.15128
1.15138
1.12728
1.05685
1.00682
1.00016
1
1
1
1
1
0.534644
0.527414
0.500637
0.472657
0.459018
0.442567
0.431721
0.421322
0.420083
0.433001
0.455877
0.489526
0.521933
0.559989
0.603058
0.649026
0.69768
0.75012
0.806176
0.865769
0.928229
0.992986
1.06243
1.12705
1.15344
1.15208
1.12222
1.04947
1.00504
1.0001
1
1
1
1
1
0.539403
0.529072
0.501182
0.474811
0.459734
0.442958
0.430047
0.420531
0.419731
0.436862
0.458763
0.492883
0.524895
0.563302
0.606907
0.653394
0.702978
0.755724
0.812471
0.872744
0.935223
1.00029
1.07129
1.13392
1.15484
1.15179
1.117
1.04219
1.00362
1.00006
1
1
1
1
1
0.544597
0.530598
0.501794
0.474916
0.459266
0.442562
0.428554
0.420469
0.42043
0.439619
0.460381
0.495401
0.527454
0.565174
0.608694
0.654429
0.704843
0.758072
0.815065
0.876207
0.939138
1.00647
1.08196
1.14129
1.15582
1.15004
1.10972
1.03512
1.00257
1.00004
1
1
1
1
1
0.54797
0.531643
0.503547
0.474536
0.458154
0.441612
0.427927
0.420826
0.42289
0.444036
0.464677
0.499693
0.531147
0.566928
0.60923
0.655368
0.707403
0.763321
0.822617
0.88422
0.949855
1.02298
1.09853
1.14839
1.15694
1.14856
1.10254
1.02925
1.00181
1.00003
1
1
1
1
1
0.548409
0.532028
0.506342
0.474795
0.457604
0.441101
0.427872
0.42285
0.426192
0.44979
0.475577
0.508455
0.540971
0.578168
0.622425
0.675099
0.730631
0.789527
0.85043
0.913232
0.979063
1.0479
1.11362
1.1537
1.15832
1.1481
1.09631
1.02357
1.00121
1.00001
1
1
1
1
1
0.548178
0.532886
0.507048
0.475648
0.457336
0.440722
0.428859
0.426192
0.430485
0.455268
0.486778
0.52079
0.555556
0.594807
0.641188
0.692661
0.747211
0.805023
0.865543
0.928789
0.993534
1.06007
1.12347
1.15704
1.15943
1.1473
1.0873
1.01784
1.00077
1.00001
1
1
1
1
1
0.550706
0.535141
0.506779
0.475582
0.456657
0.439833
0.429625
0.428885
0.434931
0.459374
0.492593
0.52809
0.563243
0.603603
0.648729
0.699476
0.753829
0.81178
0.873051
0.936678
1.00181
1.06986
1.13193
1.15926
1.16007
1.14115
1.07643
1.01358
1.0005
1.00001
1
1
1
1
1
0.554956
0.53782
0.506914
0.475494
0.454342
0.438034
0.429456
0.42979
0.436868
0.460553
0.493926
0.530332
0.566231
0.60689
0.652199
0.701851
0.756581
0.814967
0.877049
0.942174
1.00973
1.08188
1.14103
1.16126
1.16027
1.13642
1.06845
1.01034
1.00032
1
1
1
1
1
1
0.559488
0.541038
0.507373
0.475708
0.451693
0.435636
0.427774
0.428245
0.436045
0.46061
0.492823
0.529872
0.566255
0.60708
0.653525
0.703082
0.760001
0.821789
0.887597
0.95682
1.03007
1.10124
1.15013
1.1632
1.16032
1.13253
1.05982
1.00739
1.00019
1
1
1
1
1
1
0.563735
0.54584
0.509197
0.477824
0.449998
0.432787
0.42583
0.425913
0.43124
0.460585
0.49134
0.529266
0.567387
0.61315
0.666531
0.726325
0.789136
0.853905
0.920309
0.987688
1.05498
1.11675
1.15647
1.16461
1.16038
1.12685
1.04962
1.00509
1.00011
1
1
1
1
1
1
0.565534
0.550458
0.516629
0.481125
0.449427
0.430251
0.425027
0.425567
0.431056
0.4643
0.498862
0.54198
0.586761
0.636571
0.691851
0.749613
0.809926
0.872278
0.936729
1.00214
1.06703
1.12636
1.1606
1.16548
1.16028
1.11763
1.04052
1.00345
1.00006
1
1
1
1
1
1
0.565606
0.553388
0.522544
0.485943
0.449713
0.428848
0.425288
0.429153
0.442538
0.48025
0.515489
0.557988
0.600275
0.647726
0.70182
0.759055
0.818792
0.881042
0.945621
1.01152
1.07768
1.13593
1.16367
1.16597
1.15635
1.10854
1.03252
1.00226
1.00004
1
1
1
1
1
1
0.564011
0.554998
0.525724
0.489971
0.45246
0.428929
0.426216
0.436973
0.454252
0.49098
0.523951
0.564365
0.605585
0.653323
0.707411
0.76444
0.82435
0.887286
0.953426
1.02264
1.09297
1.14693
1.1658
1.16612
1.15304
1.09916
1.02523
1.00144
1.00002
1
1
1
1
1
1
0.560102
0.555338
0.526771
0.491729
0.45479
0.430928
0.427995
0.44139
0.456873
0.493248
0.527927
0.568842
0.609684
0.657478
0.71092
0.76861
0.832326
0.901518
0.97454
1.04857
1.11422
1.15618
1.16742
1.16638
1.14991
1.08868
1.01904
1.00089
1.00001
1
1
1
1
1
1
0.556783
0.554187
0.526223
0.491257
0.454862
0.434779
0.429254
0.442468
0.456482
0.491193
0.529858
0.572565
0.615241
0.668863
0.72909
0.795235
0.865326
0.935477
1.00463
1.07081
1.12766
1.16185
1.16891
1.16663
1.14485
1.07764
1.01376
1.00052
1.00001
1
1
1
1
1
1
0.555521
0.550411
0.520409
0.486242
0.452995
0.436481
0.430545
0.439646
0.457321
0.491696
0.54016
0.588455
0.640805
0.697696
0.758082
0.821334
0.886537
0.952844
1.01904
1.08318
1.13729
1.16594
1.17033
1.16746
1.1385
1.06614
1.00947
1.00029
1
1
1
1
1
1
1
0.555799
0.547048
0.513037
0.479311
0.450835
0.438123
0.433125
0.437348
0.465549
0.511782
0.561106
0.609956
0.657724
0.710833
0.77032
0.832699
0.897218
0.963604
1.03078
1.0964
1.14804
1.16918
1.17144
1.16716
1.1322
1.05457
1.00632
1.00016
1
1
1
1
1
1
1
0.560936
0.546574
0.509817
0.476624
0.451608
0.441132
0.43763
0.445513
0.485038
0.522928
0.568329
0.616496
0.663798
0.717503
0.778509
0.842249
0.907485
0.976297
1.0489
1.11612
1.15882
1.17147
1.172
1.16359
1.12181
1.04359
1.00404
1.00008
1
1
1
1
1
1
1
0.569256
0.548655
0.511128
0.477248
0.455575
0.444261
0.441807
0.459403
0.494355
0.52584
0.568996
0.618166
0.667106
0.722623
0.786509
0.855558
0.929173
1.00556
1.07758
1.134
1.16577
1.17323
1.17243
1.16061
1.11094
1.03407
1.00251
1.00004
1
1
1
1
1
1
1
0.57339
0.550248
0.517448
0.478226
0.456105
0.445667
0.443832
0.465485
0.495553
0.529849
0.569327
0.618321
0.672726
0.742505
0.816607
0.890328
0.962792
1.03205
1.09555
1.1447
1.16991
1.17456
1.17316
1.15836
1.10141
1.02574
1.00149
1.00002
1
1
1
1
1
1
1
0.575089
0.552233
0.521179
0.477606
0.453416
0.442917
0.442688
0.469397
0.494555
0.537177
0.591494
0.646459
0.709959
0.779377
0.847266
0.913928
0.981002
1.04743
1.10907
1.15432
1.17294
1.17539
1.17401
1.15483
1.08784
1.01744
1.00078
1.00001
1
1
1
1
1
1
1
0.578051
0.557642
0.522708
0.469969
0.440309
0.4324
0.436584
0.471855
0.50458
0.559271
0.61923
0.677287
0.735294
0.797868
0.862894
0.928298
0.995794
1.06405
1.12607
1.16429
1.1752
1.1759
1.1732
1.14457
1.07124
1.01145
1.00041
1
1
1
1
1
1
1
1
0.583677
0.565623
0.522244
0.457347
0.430496
0.427713
0.43642
0.479374
0.528257
0.581407
0.63301
0.69068
0.748177
0.810061
0.876272
0.945082
1.01874
1.09058
1.1448
1.17147
1.17701
1.17671
1.16942
1.13406
1.05905
1.00771
1.00022
1
1
1
1
1
1
1
1
0.587894
0.568357
0.517975
0.45271
0.42894
0.429684
0.453084
0.497225
0.541855
0.585453
0.637308
0.697013
0.759399
0.824858
0.897772
0.976185
1.05113
1.1139
1.15669
1.17546
1.17861
1.17819
1.16743
1.12572
1.04733
1.00462
1.0001
1
1
1
1
1
1
1
1
0.591161
0.568071
0.513391
0.451196
0.429472
0.445843
0.473012
0.505755
0.544798
0.58619
0.639276
0.708242
0.777775
0.855253
0.933032
1.00665
1.07313
1.12931
1.16517
1.1779
1.1798
1.17943
1.16741
1.11574
1.03403
1.00247
1.00005
1
1
1
1
1
1
1
1
0.595945
0.566249
0.504318
0.451509
0.440482
0.456493
0.481702
0.506287
0.54462
0.591761
0.666723
0.739701
0.811151
0.885384
0.958639
1.02732
1.09163
1.14503
1.17285
1.17976
1.18064
1.17958
1.16525
1.09877
1.02275
1.00128
1.00002
1
1
1
1
1
1
1
1
0.59767
0.557185
0.4976
0.454527
0.448211
0.456112
0.48334
0.505893
0.550052
0.62707
0.70104
0.769765
0.837511
0.909302
0.981252
1.05061
1.11561
1.16101
1.17842
1.18144
1.18169
1.17807
1.15112
1.08063
1.01504
1.00063
1.00001
1
1
1
1
1
1
1
1
0.593915
0.547736
0.497631
0.454195
0.447823
0.453515
0.479258
0.524054
0.590374
0.664854
0.722841
0.792507
0.863927
0.935822
1.01019
1.08192
1.13821
1.17112
1.18171
1.18294
1.18275
1.1754
1.14151
1.06668
1.00957
1.00031
1
1
1
1
1
1
1
1
1
0.580804
0.545185
0.499905
0.44994
0.439173
0.454293
0.492718
0.558385
0.62083
0.676819
0.741824
0.818777
0.891656
0.967692
1.04281
1.10698
1.15294
1.17712
1.18362
1.18446
1.18373
1.17494
1.13395
1.05201
1.00547
1.00014
1
1
1
1
1
1
1
1
1
0.57326
0.547306
0.500839
0.446813
0.436235
0.46782
0.523992
0.582693
0.629769
0.686444
0.764537
0.84821
0.921886
0.997966
1.06964
1.12711
1.16553
1.18143
1.18474
1.18544
1.18402
1.17486
1.12071
1.03474
1.00253
1.00005
1
1
1
1
1
1
1
1
1
0.573132
0.557736
0.498959
0.444146
0.443461
0.489354
0.535113
0.586451
0.634091
0.70522
0.800077
0.879243
0.954079
1.02858
1.09653
1.14806
1.17637
1.18424
1.18549
1.18567
1.18368
1.1636
1.09577
1.02129
1.00114
1.00002
1
1
1
1
1
1
1
1
1
0.577036
0.563869
0.496243
0.442362
0.449839
0.498797
0.53656
0.580721
0.649265
0.756385
0.834608
0.912486
0.989624
1.06245
1.12451
1.16478
1.18259
1.1862
1.18636
1.18605
1.18128
1.15136
1.07819
1.01392
1.00057
1.00001
1
1
1
1
1
1
1
1
1
0.587496
0.563802
0.482278
0.433379
0.448809
0.500792
0.544007
0.602942
0.71122
0.794009
0.870449
0.951356
1.02534
1.09333
1.1463
1.17505
1.1859
1.18807
1.18782
1.187
1.17929
1.14291
1.06278
1.00791
1.00023
1
1
1
1
1
1
1
1
1
1
0.606242
0.554518
0.463936
0.426105
0.455821
0.50813
0.56945
0.672255
0.755401
0.823394
0.90529
0.988127
1.05957
1.1208
1.16364
1.18247
1.18802
1.18967
1.18978
1.18877
1.17979
1.13145
1.0417
1.00335
1.00007
1
1
1
1
1
1
1
1
1
1
0.620143
0.541031
0.460099
0.427134
0.495382
0.553044
0.630425
0.710031
0.774708
0.854697
0.94713
1.02585
1.09424
1.14625
1.17745
1.18737
1.18963
1.19066
1.19117
1.18962
1.17549
1.1044
1.02329
1.00132
1.00002
1
1
1
1
1
1
1
1
1
1
0.627029
0.529918
0.462274
0.459065
0.524551
0.590448
0.65643
0.726202
0.803314
0.904339
0.992653
1.06783
1.12677
1.16637
1.18623
1.1902
1.19115
1.19167
1.19169
1.18843
1.15626
1.07831
1.01351
1.00056
1.00001
1
1
1
1
1
1
1
1
1
1
0.635512
0.52439
0.460081
0.492264
0.539248
0.602246
0.672401
0.747771
0.859804
0.959007
1.03899
1.10618
1.1535
1.18006
1.19137
1.19226
1.19278
1.19345
1.19236
1.18406
1.14235
1.06013
1.00732
1.00021
1
1
1
1
1
1
1
1
1
1
1
0.650327
0.527536
0.477359
0.498031
0.543353
0.603997
0.700652
0.820904
0.927856
1.00918
1.08196
1.13801
1.17332
1.18835
1.19431
1.1938
1.19468
1.1954
1.193
1.18003
1.12815
1.03942
1.00295
1.00006
1
1
1
1
1
1
1
1
1
1
1
0.657547
0.531159
0.492442
0.489003
0.546277
0.663483
0.786401
0.894564
0.975861
1.05317
1.12022
1.16463
1.18645
1.19284
1.19615
1.19506
1.19636
1.19696
1.19464
1.17608
1.10003
1.01927
1.00094
1.00002
1
1
1
1
1
1
1
1
1
1
1
0.655203
0.51924
0.489488
0.497358
0.610639
0.754024
0.857419
0.943074
1.02361
1.10075
1.15383
1.18369
1.19372
1.19529
1.19786
1.19644
1.19749
1.19752
1.19425
1.15546
1.06464
1.00847
1.00029
1
1
1
1
1
1
1
1
1
1
1
1
0.628049
0.488351
0.459892
0.565071
0.712702
0.818318
0.909825
0.996807
1.08125
1.1429
1.17871
1.19464
1.19711
1.197
1.19959
1.19809
1.1982
1.19706
1.18358
1.12607
1.04154
1.00379
1.00009
1
1
1
1
1
1
1
1
1
1
1
1
0.595137
0.47762
0.482249
0.652575
0.771197
0.87092
0.973979
1.06537
1.13181
1.17289
1.19304
1.19955
1.19861
1.19822
1.20119
1.19955
1.19894
1.19515
1.17194
1.10459
1.02495
1.0014
1.00002
1
1
1
1
1
1
1
1
1
1
1
1
0.52866
0.469209
0.59459
0.732799
0.843455
0.956457
1.05183
1.12162
1.16645
1.19067
1.19993
1.20115
1.19938
1.19915
1.20253
1.20054
1.20006
1.19271
1.16082
1.07676
1.01067
1.00038
1.00001
1
1
1
1
1
1
1
1
1
1
1
1
0.398147
0.47082
0.684753
0.810577
0.930878
1.03946
1.11376
1.16108
1.18845
1.19947
1.20237
1.2017
1.19973
1.19988
1.20356
1.20109
1.20098
1.19217
1.1364
1.0404
1.00329
1.00008
1
1
1
1
1
1
1
1
1
1
1
1
1
0.355884
0.568101
0.761415
0.908222
1.02957
1.10832
1.15919
1.18708
1.19928
1.20258
1.20293
1.2019
1.20016
1.20056
1.20421
1.20123
1.20025
1.17733
1.09346
1.0179
1.00093
1.00002
1
1
1
1
1
1
1
1
1
1
1
1
1
0.372753
0.679602
0.871523
1.01587
1.10779
1.16086
1.18807
1.19896
1.20244
1.20328
1.20322
1.20211
1.20038
1.20104
1.20444
1.20051
1.1915
1.14557
1.06013
1.00765
1.00024
1
1
1
1
1
1
1
1
1
1
1
1
1
1
0.284211
0.741096
0.995994
1.11198
1.16535
1.19062
1.20005
1.20225
1.20288
1.20357
1.20357
1.20219
1.20038
1.20129
1.20442
1.1968
1.17987
1.11995
1.0349
1.0024
1.00005
1
1
1
1
1
1
1
1
1
1
1
1
1
1
0.588047
0.93966
1.11204
1.1726
1.19478
1.20142
1.20285
1.20273
1.203
1.20399
1.20379
1.20199
1.19988
1.20135
1.20359
1.19309
1.16685
1.08497
1.01277
1.00044
1.00001
1
1
1
1
1
1
1
1
1
1
1
1
1
1
0.950302
1.12284
1.18379
1.19914
1.20311
1.20336
1.20304
1.20284
1.20349
1.20424
1.20383
1.2012
1.19939
1.20163
1.20221
1.19061
1.13911
1.04054
1.00266
1.00004
1
1
1
1
1
1
1
1
1
1
1
1
1
1
1
1.20308
1.20359
1.20391
1.2043
1.20401
1.20335
1.20291
1.20311
1.20389
1.2043
1.20322
1.20017
1.19895
1.20177
1.20059
1.17815
1.09618
1.01304
0.999909
0.999992
1
1
1
1
1
1
1
1
1
1
1
1
1
1
1
1.20297
1.20322
1.20348
1.20391
1.20415
1.20366
1.20321
1.20297
1.20362
1.20421
1.20353
1.20068
1.19813
1.19932
1.20005
1.17128
1.09106
1.01433
1.00041
1
1
1
1
1
1
1
1
1
1
1
1
1
1
1
1
1.20294
1.20302
1.2033
1.20381
1.2042
1.20405
1.2035
1.203
1.203
1.2033
1.20305
1.20138
1.19832
1.19856
1.19825
1.15967
1.06485
1.00512
1.00007
1
1
1
1
1
1
1
1
1
1
1
1
1
1
1
1
1.20296
1.20296
1.20317
1.20365
1.20424
1.20436
1.20388
1.20292
1.20216
1.20219
1.20277
1.20282
1.19989
1.19832
1.19739
1.14319
1.04487
1.00261
1.00003
1
1
1
1
1
1
1
1
1
1
1
1
1
1
1
1
1.20297
1.20296
1.20307
1.20346
1.20419
1.2045
1.20423
1.20298
1.2018
1.20135
1.20282
1.20406
1.20198
1.19626
1.18854
1.12266
1.02916
1.00116
1.00001
1
1
1
1
1
1
1
1
1
1
1
1
1
1
1
1
1.20314
1.20304
1.20306
1.20334
1.20409
1.20458
1.20447
1.20314
1.20163
1.20096
1.20275
1.20482
1.20322
1.19426
1.17779
1.10472
1.01745
1.00047
1
1
1
1
1
1
1
1
1
1
1
1
1
1
1
1
1
1.20339
1.20324
1.20314
1.20336
1.20405
1.20465
1.20462
1.20333
1.20158
1.20075
1.20248
1.20504
1.2036
1.19287
1.16919
1.08409
1.00948
1.00018
1
1
1
1
1
1
1
1
1
1
1
1
1
1
1
1
1
1.20358
1.20342
1.20329
1.20343
1.20401
1.20465
1.20468
1.20355
1.20161
1.20073
1.20194
1.20477
1.20348
1.19159
1.15781
1.06136
1.00489
1.00007
1
1
1
1
1
1
1
1
1
1
1
1
1
1
1
1
1
1.20365
1.20358
1.20351
1.20347
1.20383
1.20441
1.20457
1.20394
1.20211
1.20097
1.20131
1.2035
1.20202
1.18564
1.14083
1.04061
1.00213
1.00002
1
1
1
1
1
1
1
1
1
1
1
1
1
1
1
1
1
1.20345
1.20364
1.20369
1.2036
1.20361
1.20381
1.2042
1.20426
1.203
1.20135
1.20091
1.20299
1.20124
1.18012
1.11924
1.02556
1.0009
1.00001
1
1
1
1
1
1
1
1
1
1
1
1
1
1
1
1
1
1.20309
1.20361
1.20379
1.20384
1.20347
1.20337
1.20373
1.20447
1.20387
1.202
1.20032
1.20199
1.20114
1.17599
1.09732
1.0144
1.00034
1
1
1
1
1
1
1
1
1
1
1
1
1
1
1
1
1
1
1.20283
1.20346
1.20384
1.20407
1.20344
1.20313
1.20323
1.20449
1.20436
1.20316
1.19933
1.19899
1.19946
1.16716
1.07221
1.00697
1.00012
1
1
1
1
1
1
1
1
1
1
1
1
1
1
1
1
1
1
1.2026
1.20334
1.20385
1.20421
1.20348
1.20293
1.20279
1.20411
1.20442
1.20408
1.19894
1.19583
1.19462
1.14868
1.05128
1.00333
1.00004
1
1
1
1
1
1
1
1
1
1
1
1
1
1
1
1
1
1
1.20251
1.20323
1.20386
1.2043
1.20364
1.20285
1.20245
1.20348
1.20438
1.2044
1.20024
1.19437
1.19135
1.13228
1.03366
1.00143
1.00001
1
1
1
1
1
1
1
1
1
1
1
1
1
1
1
1
1
1
1.2026
1.20319
1.20387
1.20437
1.20397
1.20294
1.20233
1.20263
1.20372
1.20433
1.20145
1.19412
1.18696
1.10704
1.01798
1.00051
1
1
1
1
1
1
1
1
1
1
1
1
1
1
1
1
1
1
1
1.203
1.20319
1.20382
1.20434
1.20438
1.20362
1.20249
1.20207
1.20284
1.20416
1.20234
1.19223
1.17023
1.08034
1.00937
1.00018
1
1
1
1
1
1
1
1
1
1
1
1
1
1
1
1
1
1
1
1.20343
1.20332
1.20378
1.20431
1.20461
1.2045
1.20314
1.20185
1.20212
1.20445
1.20285
1.19006
1.15403
1.05916
1.00438
1.00006
1
1
1
1
1
1
1
1
1
1
1
1
1
1
1
1
1
1
1
1.20378
1.20351
1.20354
1.20396
1.20472
1.20505
1.20393
1.20172
1.20118
1.20446
1.20311
1.1901
1.1362
1.03686
1.00169
1.00002
1
1
1
1
1
1
1
1
1
1
1
1
1
1
1
1
1
1
1
1.20398
1.20353
1.20323
1.2035
1.20462
1.20522
1.20452
1.20161
1.20018
1.2023
1.20203
1.18287
1.1116
1.02056
1.00064
1
1
1
1
1
1
1
1
1
1
1
1
1
1
1
1
1
1
1
1
1.20391
1.20332
1.2029
1.20304
1.2041
1.20521
1.20492
1.20229
1.19973
1.20087
1.19968
1.16926
1.08706
1.01079
1.00022
1
1
1
1
1
1
1
1
1
1
1
1
1
1
1
1
1
1
1
1
1.20353
1.20306
1.20267
1.20273
1.2034
1.20483
1.20503
1.20323
1.20017
1.20073
1.19913
1.15716
1.06147
1.00466
1.00006
1
1
1
1
1
1
1
1
1
1
1
1
1
1
1
1
1
1
1
1
1.20317
1.20298
1.20263
1.20263
1.20291
1.20411
1.20462
1.20432
1.2013
1.19939
1.19611
1.13584
1.03618
1.00174
1.00002
1
1
1
1
1
1
1
1
1
1
1
1
1
1
1
1
1
1
1
1
1.2029
1.20308
1.2029
1.20292
1.20277
1.20328
1.20397
1.20504
1.2025
1.19543
1.18344
1.10971
1.02049
1.00062
1
1
1
1
1
1
1
1
1
1
1
1
1
1
1
1
1
1
1
1
1
1.20277
1.20335
1.20384
1.20399
1.20299
1.20252
1.20319
1.20541
1.20376
1.19344
1.17126
1.08629
1.01001
1.00019
1
1
1
1
1
1
1
1
1
1
1
1
1
1
1
1
1
1
1
1
1
1.20264
1.2034
1.20441
1.20493
1.20356
1.20216
1.20229
1.20546
1.2041
1.19334
1.15633
1.05642
1.0039
1.00005
1
1
1
1
1
1
1
1
1
1
1
1
1
1
1
1
1
1
1
1
1
1.20251
1.20322
1.20455
1.20529
1.20412
1.20196
1.20163
1.20436
1.20324
1.18722
1.13222
1.03336
1.00148
1.00001
1
1
1
1
1
1
1
1
1
1
1
1
1
1
1
1
1
1
1
1
1
1.20239
1.20301
1.2045
1.20534
1.20472
1.20241
1.20155
1.20423
1.20263
1.17785
1.10628
1.01782
1.00047
1
1
1
1
1
1
1
1
1
1
1
1
1
1
1
1
1
1
1
1
1
1
1.20234
1.20264
1.20394
1.20512
1.20518
1.20336
1.20191
1.20442
1.20308
1.16843
1.07522
1.00732
1.00013
1
1
1
1
1
1
1
1
1
1
1
1
1
1
1
1
1
1
1
1
1
1
1.2025
1.2023
1.20293
1.2041
1.20501
1.20474
1.20208
1.20201
1.19971
1.14611
1.04518
1.00264
1.00003
1
1
1
1
1
1
1
1
1
1
1
1
1
1
1
1
1
1
1
1
1
1
1.20271
1.2022
1.20216
1.20258
1.20427
1.20616
1.2031
1.19785
1.18877
1.11969
1.0256
1.00088
1.00001
1
1
1
1
1
1
1
1
1
1
1
1
1
1
1
1
1
1
1
1
1
1
1.20313
1.20234
1.20172
1.20143
1.20344
1.20654
1.2055
1.19657
1.17715
1.0922
1.01126
1.00024
1
1
1
1
1
1
1
1
1
1
1
1
1
1
1
1
1
1
1
1
1
1
1
1.20329
1.20261
1.20165
1.20085
1.20217
1.20638
1.20627
1.1966
1.15947
1.05733
1.00403
1.00006
1
1
1
1
1
1
1
1
1
1
1
1
1
1
1
1
1
1
1
1
1
1
1
1.20282
1.20283
1.20223
1.2009
1.20164
1.20579
1.20591
1.18863
1.132
1.03255
1.00138
1.00001
1
1
1
1
1
1
1
1
1
1
1
1
1
1
1
1
1
1
1
1
1
1
1
1.20256
1.20292
1.20291
1.20236
1.20174
1.20594
1.20616
1.17908
1.10189
1.0149
1.00036
1
1
1
1
1
1
1
1
1
1
1
1
1
1
1
1
1
1
1
1
1
1
1
1
1.20242
1.20282
1.20363
1.20442
1.20237
1.20635
1.20697
1.16589
1.06436
1.00512
1.00008
1
1
1
1
1
1
1
1
1
1
1
1
1
1
1
1
1
1
1
1
1
1
1
1
1.20205
1.20211
1.20406
1.20641
1.20373
1.20464
1.20142
1.13567
1.03413
1.00154
1.00002
1
1
1
1
1
1
1
1
1
1
1
1
1
1
1
1
1
1
1
1
1
1
1
1
1.20151
1.20119
1.20303
1.20783
1.20732
1.20129
1.18626
1.10401
1.01609
1.0004
1
1
1
1
1
1
1
1
1
1
1
1
1
1
1
1
1
1
1
1
1
1
1
1
1
1.20144
1.20045
1.20065
1.20815
1.21084
1.20024
1.16781
1.0675
1.00528
1.00008
1
1
1
1
1
1
1
1
1
1
1
1
1
1
1
1
1
1
1
1
1
1
1
1
1
1.2015
1.19996
1.19909
1.20835
1.21136
1.1989
1.13816
1.03284
1.0014
1.00001
1
1
1
1
1
1
1
1
1
1
1
1
1
1
1
1
1
1
1
1
1
1
1
1
1
1.20074
1.19992
1.19843
1.20745
1.2109
1.1832
1.10017
1.01407
1.00033
1
1
1
1
1
1
1
1
1
1
1
1
1
1
1
1
1
1
1
1
1
1
1
1
1
1
1.19965
1.20094
1.20074
1.20751
1.21018
1.16561
1.06195
1.00433
1.00006
1
1
1
1
1
1
1
1
1
1
1
1
1
1
1
1
1
1
1
1
1
1
1
1
1
1
1.19787
1.20314
1.20695
1.20667
1.20609
1.13234
1.02638
1.00096
1.00001
1
1
1
1
1
1
1
1
1
1
1
1
1
1
1
1
1
1
1
1
1
1
1
1
1
1
1.19697
1.20642
1.21396
1.2034
1.18541
1.08611
1.00945
1.00018
1
1
1
1
1
1
1
1
1
1
1
1
1
1
1
1
1
1
1
1
1
1
1
1
1
1
1
1.1984
1.21144
1.2179
1.20248
1.1565
1.04644
1.00254
1.00003
1
1
1
1
1
1
1
1
1
1
1
1
1
1
1
1
1
1
1
1
1
1
1
1
1
1
1
1.20129
1.21357
1.21939
1.1975
1.11136
1.01664
1.00044
1
1
1
1
1
1
1
1
1
1
1
1
1
1
1
1
1
1
1
1
1
1
1
1
1
1
1
1
1.20301
1.2117
1.21927
1.17237
1.06096
1.00442
1.00007
1
1
1
1
1
1
1
1
1
1
1
1
1
1
1
1
1
1
1
1
1
1
1
1
1
1
1
1
1.21111
1.20898
1.20665
1.1278
1.02664
1.00093
1.00001
1
1
1
1
1
1
1
1
1
1
1
1
1
1
1
1
1
1
1
1
1
1
1
1
1
1
1
1
1.23417
1.20016
1.18408
1.07699
1.00731
1.00014
1
1
1
1
1
1
1
1
1
1
1
1
1
1
1
1
1
1
1
1
1
1
1
1
1
1
1
1
1
1.25202
1.1851
1.13583
1.03196
1.00152
1.00002
1
1
1
1
1
1
1
1
1
1
1
1
1
1
1
1
1
1
1
1
1
1
1
1
1
1
1
1
1
1.25915
1.16431
1.08163
1.0104
1.00028
1
1
1
1
1
1
1
1
1
1
1
1
1
1
1
1
1
1
1
1
1
1
1
1
1
1
1
1
1
1
1.25459
1.13095
1.04059
1.00267
1.00005
1
1
1
1
1
1
1
1
1
1
1
1
1
1
1
1
1
1
1
1
1
1
1
1
1
1
1
1
1
1
1.22407
1.09194
1.01556
1.00055
1.00001
1
1
1
1
1
1
1
1
1
1
1
1
1
1
1
1
1
1
1
1
1
1
1
1
1
1
1
1
1
1
1.1798
1.05456
1.00487
1.00009
1
1
1
1
1
1
1
1
1
1
1
1
1
1
1
1
1
1
1
1
1
1
1
1
1
1
1
1
1
1
1
1.1222
1.02274
1.0009
1.00001
1
1
1
1
1
1
1
1
1
1
1
1