/*--------------------------------*- C++ -*----------------------------------*\
  =========                 |
  \\      /  F ield         | OpenFOAM: The Open Source CFD Toolbox
   \\    /   O peration     | Website:  https://openfoam.org
    \\  /    A nd           | Version:  7
     \\/     M anipulation  |
\*---------------------------------------------------------------------------*/
FoamFile
{
    version     2.0;
    format      ascii;
    class       volScalarField;
    location    "4.5";
    object      rho;
}
// * * * * * * * * * * * * * * * * * * * * * * * * * * * * * * * * * * * * * //

dimensions      [1 -3 0 0 0 0 0];

internalField   nonuniform List<scalar> 
90000
(
0.543207
0.579347
0.614854
0.652347
0.687698
0.717476
0.748908
0.784082
0.814985
0.845461
0.87982
0.913549
0.946091
0.980814
1.01534
1.04925
1.08391
1.11723
1.15144
1.18238
1.21334
1.23833
1.26093
1.27282
1.28016
1.2822
1.28612
1.28626
1.28586
1.28452
1.28412
1.28216
1.27948
1.27653
1.27329
1.27
1.26591
1.26155
1.2559
1.2554
1.25829
1.26332
1.26892
1.27462
1.27973
1.2844
1.28762
1.29185
1.29133
1.28775
1.28112
1.27495
1.27188
1.27281
1.27611
1.2816
1.28689
1.29116
1.29104
1.28882
1.28435
1.28
1.27728
1.27878
1.28335
1.28826
1.29096
1.29036
1.2879
1.28422
1.2841
1.28559
1.28913
1.29155
1.29062
1.28765
1.28584
1.28573
1.28679
1.28629
1.28419
1.28055
1.27819
1.27691
1.27514
1.27271
1.27004
1.26817
1.26673
1.26469
1.26258
1.26108
1.25949
1.25702
1.25486
1.25358
1.25227
1.2506
1.24937
1.24695
0.513478
0.513506
0.513529
0.513573
0.5137
0.513969
0.514583
0.515911
0.5179
0.520966
0.525447
0.532162
0.540909
0.553114
0.568224
0.588443
0.612321
0.642762
0.677407
0.719941
0.7662
0.819241
0.874874
0.931521
0.986027
1.03415
1.08009
1.11694
1.15176
1.17613
1.19971
1.21272
1.2261
1.23159
1.23843
1.24097
1.24462
1.24614
1.25217
1.26073
1.271
1.2778
1.28282
1.28649
1.28738
1.2873
1.28674
1.28351
1.27425
1.26591
1.26255
1.2641
1.26559
1.2687
1.27366
1.27802
1.28343
1.28386
1.28157
1.27617
1.27073
1.27045
1.27279
1.27484
1.27835
1.28368
1.28333
1.28068
1.27648
1.27617
1.27844
1.28287
1.28391
1.28329
1.28037
1.27828
1.2787
1.28035
1.28067
1.27936
1.2757
1.27216
1.27094
1.27123
1.26942
1.26608
1.26292
1.26179
1.26133
1.26004
1.25853
1.25716
1.25537
1.25334
1.25193
1.25077
1.24955
1.24816
1.24722
1.24508
0.514406
0.514463
0.514525
0.514595
0.514667
0.514765
0.514819
0.514865
0.51492
0.514979
0.515035
0.515097
0.515169
0.515255
0.515346
0.515449
0.515547
0.515698
0.516003
0.516839
0.518639
0.522597
0.529213
0.541369
0.558662
0.585101
0.617722
0.66158
0.710998
0.770576
0.832633
0.89896
0.964091
1.02519
1.08365
1.13176
1.17944
1.21432
1.24635
1.26237
1.27303
1.27782
1.28211
1.28485
1.28601
1.28404
1.27563
1.26051
1.25
1.25274
1.25947
1.26633
1.27492
1.28097
1.28434
1.28388
1.28176
1.27544
1.26805
1.26418
1.26443
1.26634
1.27184
1.28058
1.283
1.28184
1.27742
1.27231
1.27051
1.27204
1.27655
1.28197
1.28162
1.27906
1.27484
1.27469
1.27545
1.27796
1.27772
1.27554
1.27273
1.27083
1.26869
1.26708
1.26576
1.26353
1.26136
1.25979
1.25833
1.25701
1.25612
1.25523
1.25356
1.2515
1.25065
1.25
1.24906
1.24792
1.24697
1.2449
0.515767
0.515833
0.515905
0.515981
0.516061
0.51614
0.516221
0.516303
0.516391
0.516482
0.516576
0.516671
0.516768
0.516866
0.516966
0.517068
0.51717
0.517268
0.517366
0.517486
0.517534
0.517576
0.517617
0.517667
0.51772
0.517787
0.517841
0.518044
0.518751
0.521211
0.52642
0.538212
0.55661
0.588187
0.628863
0.686787
0.752495
0.831999
0.912536
0.989064
1.05948
1.11278
1.16127
1.18906
1.21517
1.22603
1.23442
1.23958
1.25681
1.26972
1.28335
1.28993
1.29559
1.29454
1.29216
1.28752
1.2735
1.26285
1.26088
1.26262
1.26707
1.27589
1.28443
1.28731
1.28526
1.27779
1.27059
1.26964
1.27112
1.27755
1.28362
1.28338
1.28028
1.27446
1.2734
1.27463
1.27851
1.27984
1.27724
1.27287
1.27101
1.27082
1.27008
1.26748
1.26374
1.26205
1.26081
1.26002
1.25849
1.25699
1.25607
1.25517
1.25331
1.25139
1.25051
1.25002
1.24923
1.24818
1.24718
1.24505
0.517166
0.517215
0.517267
0.517322
0.517376
0.51743
0.517485
0.517539
0.517594
0.517648
0.517701
0.517753
0.517807
0.517859
0.517913
0.517965
0.518018
0.518066
0.518116
0.518161
0.518207
0.518255
0.518304
0.518353
0.518401
0.51845
0.518494
0.518547
0.518574
0.518599
0.518623
0.518649
0.518674
0.518705
0.51873
0.519169
0.520923
0.527528
0.541119
0.570277
0.612632
0.677986
0.755482
0.848703
0.944776
1.03482
1.12286
1.19052
1.24073
1.25885
1.27398
1.27997
1.28652
1.28627
1.28305
1.27152
1.26128
1.26356
1.26862
1.27887
1.28738
1.29258
1.29033
1.28691
1.27717
1.2708
1.27022
1.27287
1.28176
1.28858
1.28682
1.28225
1.27564
1.27344
1.27514
1.28077
1.28344
1.28116
1.2757
1.27243
1.27218
1.27376
1.27212
1.26798
1.26377
1.26173
1.26176
1.26101
1.25913
1.25749
1.25695
1.25573
1.25371
1.25189
1.25155
1.25074
1.2499
1.24912
1.24795
1.2456
0.518047
0.518073
0.518099
0.518128
0.518156
0.518185
0.518213
0.518241
0.518267
0.518294
0.51832
0.518347
0.518374
0.518401
0.518428
0.518454
0.518479
0.518504
0.518527
0.51855
0.518573
0.518596
0.518618
0.518641
0.518663
0.518686
0.518707
0.518729
0.51875
0.518775
0.518798
0.518823
0.518846
0.518871
0.518901
0.518912
0.518919
0.51893
0.518944
0.518974
0.518996
0.519352
0.521396
0.530308
0.550087
0.592814
0.656362
0.751812
0.858527
0.965366
1.06457
1.12941
1.19306
1.21774
1.24491
1.2491
1.26492
1.28037
1.29788
1.30711
1.30653
1.30385
1.29346
1.27547
1.26872
1.27043
1.27705
1.28789
1.29754
1.29569
1.28808
1.27799
1.27474
1.2773
1.28446
1.28874
1.28657
1.27933
1.27554
1.27515
1.2778
1.27738
1.27399
1.26823
1.26441
1.26378
1.26399
1.26242
1.26036
1.259
1.25856
1.25701
1.25507
1.25374
1.25333
1.25207
1.2511
1.25046
1.24916
1.24667
0.51852
0.51853
0.518542
0.518555
0.518568
0.51858
0.518592
0.518602
0.518613
0.518623
0.518634
0.518645
0.518657
0.518669
0.518681
0.518693
0.518704
0.518714
0.518724
0.518734
0.518745
0.518756
0.518769
0.518783
0.518798
0.518816
0.518835
0.518855
0.518876
0.518896
0.518914
0.518932
0.518949
0.518972
0.518993
0.51901
0.519026
0.519044
0.519068
0.519101
0.519136
0.519148
0.519148
0.519143
0.51914
0.519131
0.519227
0.521753
0.531052
0.562817
0.616107
0.709154
0.819874
0.94531
1.06858
1.1624
1.24324
1.27025
1.28943
1.29689
1.29844
1.29101
1.26848
1.26525
1.27114
1.28536
1.29701
1.302
1.30034
1.28935
1.27728
1.27549
1.27889
1.28877
1.2936
1.29178
1.28343
1.27862
1.27824
1.28185
1.28294
1.28017
1.2735
1.26912
1.26793
1.2677
1.26635
1.26405
1.26262
1.262
1.26115
1.25937
1.25766
1.25647
1.25562
1.25432
1.2534
1.25258
1.2511
1.24831
0.518765
0.51877
0.518774
0.518778
0.518782
0.518786
0.51879
0.518793
0.518797
0.5188
0.518804
0.518808
0.518813
0.51882
0.518826
0.518832
0.518839
0.518845
0.518852
0.51886
0.518869
0.518879
0.518893
0.518908
0.518926
0.518948
0.518968
0.518988
0.51901
0.519028
0.519045
0.519059
0.519073
0.51909
0.519107
0.519115
0.519122
0.519131
0.519147
0.519169
0.519189
0.519205
0.519213
0.519218
0.519216
0.519209
0.51919
0.519189
0.519195
0.519213
0.51923
0.520394
0.526664
0.554738
0.608205
0.713895
0.843158
0.975583
1.09677
1.16254
1.22679
1.23912
1.25556
1.27403
1.2991
1.31455
1.31375
1.30984
1.28914
1.27324
1.27408
1.28046
1.29293
1.3016
1.29888
1.28719
1.2798
1.2801
1.28508
1.28949
1.2869
1.27878
1.27382
1.27208
1.27247
1.27133
1.26847
1.26618
1.26488
1.26497
1.26392
1.2616
1.25996
1.25932
1.25793
1.2562
1.2553
1.25427
1.2525
1.24958
0.518897
0.518899
0.518901
0.518903
0.518906
0.518908
0.518911
0.518914
0.518916
0.518919
0.518922
0.518926
0.518931
0.518937
0.518942
0.518948
0.518955
0.518963
0.518973
0.518984
0.518996
0.519012
0.519032
0.519052
0.519072
0.519093
0.519109
0.519126
0.519144
0.519155
0.519163
0.519171
0.51918
0.519184
0.519187
0.519188
0.51919
0.519195
0.519205
0.519218
0.519237
0.519254
0.519264
0.519272
0.519272
0.519274
0.519282
0.519301
0.519331
0.51936
0.519384
0.519399
0.519408
0.519422
0.519434
0.520874
0.529642
0.569833
0.644158
0.773218
0.923882
1.06606
1.19861
1.26072
1.28797
1.30283
1.30299
1.28974
1.26136
1.26805
1.28399
1.2992
1.30472
1.30207
1.28953
1.27744
1.27845
1.28721
1.2937
1.29211
1.28417
1.27732
1.27512
1.27596
1.27555
1.27291
1.26925
1.26749
1.26756
1.26712
1.26555
1.26337
1.26196
1.26123
1.25935
1.25745
1.25657
1.25534
1.2532
1.25026
0.518975
0.518978
0.518982
0.518985
0.518989
0.518993
0.518998
0.519004
0.51901
0.519017
0.519026
0.519036
0.519044
0.519052
0.519059
0.519068
0.519079
0.51909
0.519102
0.519114
0.519128
0.519146
0.519167
0.519185
0.519198
0.519207
0.519213
0.519221
0.519229
0.519232
0.519232
0.51923
0.519229
0.519226
0.519213
0.519204
0.519204
0.519206
0.519212
0.519222
0.519236
0.519253
0.51927
0.519284
0.5193
0.519322
0.51935
0.519387
0.519424
0.519449
0.519461
0.519468
0.519463
0.519457
0.519457
0.519458
0.519458
0.519464
0.519521
0.524239
0.545234
0.618038
0.740753
0.903601
1.05089
1.14895
1.21698
1.23976
1.25815
1.2905
1.31427
1.31524
1.31101
1.28701
1.2742
1.27599
1.2866
1.30005
1.29826
1.28824
1.27966
1.27625
1.27841
1.28091
1.27818
1.27329
1.26949
1.26838
1.26958
1.2685
1.26609
1.26426
1.2636
1.26221
1.26012
1.25806
1.25723
1.25564
1.25363
1.25075
0.519091
0.519098
0.519105
0.519112
0.519121
0.519129
0.519137
0.519148
0.519158
0.519169
0.51918
0.519189
0.519199
0.519208
0.519214
0.519219
0.519228
0.519238
0.519246
0.519256
0.519268
0.519281
0.519292
0.519303
0.519304
0.5193
0.519294
0.519292
0.51929
0.519287
0.519276
0.519262
0.519259
0.519254
0.519229
0.519204
0.519202
0.519203
0.519211
0.519228
0.519246
0.519266
0.519284
0.519305
0.519341
0.519382
0.519431
0.519479
0.519512
0.519529
0.519531
0.519517
0.519496
0.519477
0.519459
0.519448
0.519447
0.519453
0.519484
0.519528
0.519573
0.519599
0.521799
0.545677
0.611851
0.744717
0.914551
1.09098
1.22248
1.27736
1.30017
1.30384
1.28928
1.26085
1.26974
1.2895
1.30269
1.30232
1.29148
1.27836
1.27647
1.27913
1.28484
1.28321
1.27839
1.27203
1.26988
1.27102
1.27071
1.26891
1.2666
1.26499
1.26471
1.26282
1.2598
1.25806
1.25748
1.25586
1.25319
1.2506
0.519272
0.519279
0.519286
0.519294
0.519302
0.519309
0.519317
0.519324
0.519331
0.519339
0.519344
0.519348
0.51935
0.51935
0.51935
0.519352
0.519356
0.519358
0.519361
0.519367
0.519375
0.519385
0.519388
0.519388
0.519386
0.519378
0.519362
0.519348
0.519342
0.519335
0.519319
0.519305
0.519303
0.519295
0.519266
0.519251
0.519252
0.519257
0.519275
0.519302
0.519334
0.519362
0.519386
0.519415
0.51945
0.51949
0.51954
0.519576
0.519596
0.519603
0.519596
0.51957
0.519539
0.519504
0.519473
0.519469
0.519471
0.519478
0.519495
0.519543
0.519603
0.519648
0.519664
0.519656
0.51962
0.522389
0.54704
0.629245
0.792563
0.973424
1.10746
1.20938
1.23469
1.26003
1.29423
1.31535
1.31284
1.29572
1.27495
1.27441
1.27894
1.28893
1.28796
1.2831
1.27426
1.27054
1.27146
1.27311
1.27146
1.26765
1.266
1.26611
1.26536
1.26308
1.25994
1.2584
1.25756
1.25519
1.25321
1.25064
0.51942
0.519422
0.519423
0.519425
0.519428
0.51943
0.519432
0.519433
0.519434
0.519436
0.519437
0.519435
0.519427
0.519415
0.519412
0.519412
0.519417
0.519418
0.519417
0.519418
0.519425
0.519435
0.519438
0.519439
0.519438
0.519434
0.519424
0.51941
0.519393
0.519381
0.519371
0.519367
0.519364
0.519357
0.519338
0.519333
0.519334
0.519343
0.519365
0.519397
0.519429
0.519451
0.519474
0.5195
0.51953
0.519569
0.519608
0.51963
0.519646
0.519648
0.519638
0.519615
0.51958
0.519541
0.519526
0.519528
0.519533
0.519541
0.519572
0.519616
0.519645
0.519666
0.519679
0.519669
0.519656
0.519639
0.519618
0.519627
0.527226
0.567582
0.687148
0.868849
1.06886
1.2254
1.28145
1.30178
1.29929
1.26552
1.26802
1.28076
1.29326
1.29373
1.2872
1.27471
1.27016
1.27161
1.2751
1.27407
1.26929
1.26624
1.26608
1.26699
1.26575
1.26131
1.25901
1.25896
1.25775
1.255
1.25313
1.25152
0.51948
0.519479
0.519478
0.519481
0.519486
0.519485
0.519481
0.519475
0.519469
0.519467
0.519468
0.519469
0.51946
0.51944
0.519435
0.519435
0.519436
0.51944
0.519443
0.519446
0.519449
0.519452
0.519456
0.519461
0.519461
0.51946
0.519458
0.519454
0.519444
0.519431
0.519425
0.519425
0.519426
0.519429
0.519435
0.51944
0.519447
0.51946
0.519478
0.519495
0.51951
0.519519
0.519526
0.519538
0.519565
0.519606
0.519625
0.51963
0.51964
0.519648
0.519642
0.519627
0.519601
0.519603
0.519614
0.519628
0.519637
0.51964
0.519656
0.519671
0.51967
0.519669
0.519666
0.519668
0.51966
0.519642
0.519647
0.519704
0.519811
0.519907
0.520781
0.537364
0.61984
0.794465
0.993079
1.13157
1.22331
1.23905
1.27917
1.305
1.30492
1.29753
1.27397
1.26813
1.26982
1.27838
1.27751
1.2718
1.26654
1.26562
1.26875
1.26811
1.26349
1.2601
1.25905
1.2596
1.25817
1.25527
1.25307
1.25279
0.519484
0.519482
0.519482
0.519483
0.519481
0.519474
0.519464
0.519456
0.519453
0.519452
0.519454
0.519451
0.519429
0.51941
0.519408
0.519408
0.519409
0.519417
0.519426
0.519425
0.519424
0.519424
0.519427
0.519433
0.519443
0.519454
0.519464
0.519467
0.519464
0.519467
0.519472
0.519482
0.51951
0.519553
0.519567
0.519565
0.519563
0.519565
0.519562
0.519552
0.519542
0.519535
0.519535
0.519541
0.519561
0.519569
0.519574
0.519587
0.519608
0.519622
0.519625
0.519617
0.519621
0.519639
0.519667
0.519691
0.519706
0.519709
0.519698
0.519682
0.519672
0.519652
0.519644
0.519653
0.519667
0.519682
0.519742
0.519848
0.520015
0.520215
0.520265
0.520271
0.520239
0.528151
0.581094
0.727251
0.945107
1.14225
1.26201
1.29085
1.29552
1.2743
1.26331
1.26962
1.28013
1.28269
1.27689
1.26478
1.26466
1.26936
1.27046
1.26723
1.26015
1.25906
1.26069
1.26049
1.25811
1.25572
1.25484
1.254
0.519426
0.519427
0.519427
0.519426
0.519425
0.519428
0.519425
0.519412
0.519402
0.5194
0.519399
0.519399
0.519402
0.519403
0.519403
0.519405
0.519413
0.51942
0.519427
0.519434
0.519447
0.519464
0.519477
0.519488
0.519498
0.519512
0.519523
0.519533
0.51955
0.519575
0.519606
0.519654
0.519693
0.519698
0.519693
0.519677
0.519654
0.519631
0.519608
0.519586
0.519555
0.519532
0.519523
0.519521
0.519515
0.519514
0.519527
0.519567
0.519608
0.519617
0.519631
0.519646
0.519645
0.519653
0.51967
0.519692
0.519715
0.519726
0.51972
0.519681
0.519623
0.519608
0.519625
0.519633
0.519662
0.519774
0.519923
0.520025
0.520172
0.520326
0.520348
0.520323
0.520253
0.520151
0.519956
0.522562
0.554305
0.69746
0.909359
1.07982
1.21691
1.23151
1.26825
1.29033
1.29164
1.28593
1.26215
1.26227
1.26766
1.27481
1.27182
1.26182
1.25786
1.25959
1.26301
1.26167
1.25845
1.25735
1.25742
1.25514
0.51939
0.519395
0.519403
0.519406
0.519407
0.519408
0.519408
0.51941
0.519412
0.519415
0.51942
0.519426
0.51943
0.519434
0.519444
0.519471
0.5195
0.519519
0.519535
0.519549
0.519562
0.519574
0.519583
0.519592
0.519608
0.519625
0.519633
0.51964
0.519646
0.519658
0.519699
0.519744
0.519749
0.519748
0.519739
0.519715
0.519683
0.519655
0.519629
0.519603
0.519557
0.519505
0.519485
0.519485
0.519484
0.519487
0.519501
0.519561
0.519612
0.519641
0.519677
0.519693
0.519678
0.519661
0.519658
0.519668
0.519695
0.519715
0.519714
0.519664
0.519586
0.519576
0.519615
0.519673
0.51975
0.51996
0.520085
0.520133
0.520249
0.520368
0.520371
0.520311
0.520143
0.51994
0.519734
0.519744
0.519763
0.521402
0.54632
0.670873
0.887221
1.10206
1.24972
1.27784
1.28582
1.26494
1.25027
1.26481
1.27864
1.27673
1.2642
1.25599
1.25774
1.26589
1.26499
1.2613
1.25899
1.25992
1.25909
1.25534
0.519402
0.519415
0.519429
0.519445
0.519467
0.519491
0.519506
0.519513
0.51952
0.519529
0.519537
0.519547
0.519561
0.519575
0.519588
0.5196
0.519611
0.519618
0.519624
0.51963
0.519635
0.519637
0.519639
0.519643
0.519649
0.519649
0.519647
0.519648
0.519653
0.519666
0.519708
0.519738
0.519738
0.519729
0.51971
0.519684
0.519647
0.519619
0.519602
0.519575
0.519543
0.519478
0.519457
0.519459
0.519482
0.519538
0.519594
0.519622
0.519682
0.519761
0.519772
0.519761
0.519708
0.519648
0.519616
0.519599
0.519599
0.519655
0.519711
0.51968
0.519591
0.519583
0.51968
0.519844
0.520014
0.520189
0.520207
0.520199
0.52027
0.520373
0.520359
0.520215
0.519991
0.519769
0.519683
0.519702
0.519782
0.51992
0.519986
0.520618
0.541012
0.666113
0.88139
1.06901
1.20423
1.22672
1.25431
1.29234
1.28922
1.27007
1.25394
1.25623
1.26698
1.27213
1.26684
1.26029
1.26081
1.2632
1.26086
1.25378
0.519529
0.519555
0.519579
0.519602
0.519634
0.519666
0.519675
0.519674
0.519667
0.519663
0.519655
0.51965
0.519649
0.51965
0.519652
0.519648
0.519643
0.51964
0.519639
0.519639
0.519639
0.519636
0.519632
0.519635
0.519633
0.519626
0.519604
0.519572
0.51956
0.519563
0.519583
0.519582
0.519583
0.519601
0.519626
0.519635
0.519634
0.519614
0.519597
0.519574
0.51954
0.519538
0.519559
0.519592
0.519603
0.519641
0.51974
0.519788
0.519856
0.519889
0.51988
0.519835
0.519676
0.519546
0.5195
0.519474
0.519469
0.51951
0.519672
0.519764
0.519748
0.519748
0.519852
0.520091
0.520286
0.52031
0.520286
0.520259
0.52029
0.520312
0.520231
0.52003
0.519842
0.519719
0.519705
0.519752
0.519942
0.520119
0.520193
0.52019
0.520042
0.5204
0.540722
0.66099
0.880695
1.11538
1.23631
1.28296
1.27713
1.24781
1.25135
1.26914
1.27877
1.27295
1.26123
1.25967
1.2652
1.26485
1.25893
1.25233
0.519684
0.519706
0.519738
0.519761
0.519765
0.519767
0.519768
0.519767
0.519762
0.519752
0.519736
0.519714
0.519691
0.519678
0.519668
0.519653
0.519631
0.519609
0.519602
0.5196
0.519598
0.519596
0.519603
0.519598
0.519577
0.519535
0.519459
0.519422
0.519416
0.519423
0.51947
0.519483
0.519497
0.519558
0.51964
0.519664
0.519681
0.519704
0.519719
0.519707
0.519714
0.519721
0.519685
0.519674
0.519662
0.519672
0.519752
0.519821
0.51991
0.519951
0.519935
0.519857
0.519653
0.519438
0.519385
0.519407
0.519419
0.519466
0.519679
0.520007
0.520113
0.520092
0.520096
0.520298
0.520425
0.520408
0.52033
0.520261
0.520207
0.520109
0.519948
0.519819
0.519772
0.519766
0.5198
0.519918
0.520135
0.520263
0.52025
0.520131
0.519753
0.519241
0.518997
0.519374
0.542288
0.670638
0.890807
1.11594
1.18056
1.23207
1.26085
1.29177
1.28713
1.26332
1.25817
1.26414
1.26918
1.26498
1.25527
1.25185
0.519763
0.519763
0.519761
0.519751
0.519734
0.519716
0.51969
0.519652
0.519619
0.519586
0.519554
0.519534
0.519519
0.519503
0.519501
0.519509
0.51951
0.519512
0.519521
0.519524
0.519527
0.519547
0.519557
0.519536
0.519509
0.519467
0.51941
0.519395
0.519392
0.519402
0.519449
0.519457
0.519468
0.519536
0.51966
0.519702
0.519739
0.519838
0.519882
0.519862
0.519864
0.51987
0.519795
0.519688
0.519663
0.519668
0.519737
0.519788
0.519843
0.519876
0.519886
0.51985
0.519658
0.519418
0.519338
0.519373
0.519453
0.519587
0.519888
0.52027
0.520385
0.520339
0.520311
0.52041
0.520476
0.520457
0.520332
0.52015
0.519967
0.519766
0.51969
0.519718
0.519793
0.51992
0.520041
0.520157
0.520303
0.520302
0.52023
0.519915
0.519371
0.518965
0.518969
0.519145
0.519629
0.52047
0.551633
0.670677
0.913154
1.16113
1.24071
1.28205
1.26989
1.24832
1.26172
1.27327
1.2709
1.25681
1.25121
1.25381
0.519557
0.519528
0.519498
0.51947
0.519451
0.519432
0.519395
0.519377
0.51938
0.519386
0.519388
0.519396
0.5194
0.519403
0.519448
0.519493
0.519493
0.519507
0.519571
0.519598
0.519614
0.519644
0.51967
0.519684
0.519702
0.519721
0.519736
0.519733
0.519711
0.519702
0.519734
0.519762
0.519758
0.519788
0.51987
0.519924
0.519992
0.52003
0.520028
0.519971
0.519958
0.519938
0.519824
0.519653
0.519618
0.519629
0.519673
0.51966
0.519694
0.519834
0.519909
0.519929
0.519847
0.519589
0.519527
0.519633
0.51979
0.519945
0.520222
0.520514
0.520565
0.520504
0.52046
0.52047
0.520472
0.52044
0.520272
0.52
0.519707
0.519598
0.519634
0.519742
0.519922
0.520176
0.520287
0.520349
0.520363
0.520279
0.519974
0.519435
0.519061
0.51888
0.51901
0.519669
0.52037
0.520503
0.520258
0.520233
0.555983
0.700088
0.931554
1.1514
1.19257
1.24187
1.28532
1.28078
1.2627
1.24841
1.2513
1.26078
0.519322
0.519311
0.519293
0.519289
0.519305
0.519326
0.519328
0.51933
0.519348
0.519392
0.519455
0.519468
0.519465
0.519475
0.519579
0.519687
0.519734
0.519836
0.519954
0.519964
0.51999
0.520062
0.520093
0.520077
0.520061
0.520069
0.520083
0.520037
0.51999
0.519986
0.520018
0.520026
0.519969
0.519976
0.520029
0.520028
0.520049
0.520051
0.520044
0.519995
0.519842
0.519661
0.519482
0.519348
0.519329
0.519366
0.519474
0.519519
0.519537
0.519698
0.519994
0.52009
0.520103
0.520061
0.520117
0.520181
0.520142
0.520136
0.520308
0.52058
0.52063
0.520578
0.520445
0.520239
0.52013
0.520119
0.520016
0.519784
0.519589
0.519575
0.519681
0.519879
0.520104
0.520342
0.520389
0.520439
0.52029
0.519883
0.519335
0.518937
0.518765
0.518858
0.519439
0.520243
0.520504
0.520389
0.519718
0.519015
0.518803
0.520329
0.572095
0.734325
0.991755
1.20211
1.26383
1.26914
1.24229
1.24714
1.26417
1.26563
0.519225
0.519214
0.519209
0.519213
0.519233
0.519264
0.519281
0.519303
0.519387
0.519442
0.519441
0.519463
0.519483
0.519505
0.519621
0.519792
0.519875
0.51996
0.520008
0.520042
0.520113
0.520159
0.520162
0.520162
0.520161
0.520184
0.520175
0.520108
0.520084
0.520108
0.520139
0.520101
0.519984
0.519969
0.519956
0.519883
0.519754
0.519592
0.519432
0.519324
0.51925
0.51915
0.519034
0.519026
0.519101
0.519247
0.519409
0.519529
0.519625
0.519847
0.520112
0.52014
0.520133
0.520229
0.520496
0.52047
0.520272
0.520203
0.520334
0.52056
0.520539
0.52031
0.519908
0.519594
0.519536
0.519561
0.519551
0.519501
0.519489
0.519587
0.519803
0.52
0.520192
0.520363
0.520358
0.520156
0.519547
0.51896
0.518569
0.518461
0.518506
0.519035
0.51998
0.520392
0.520284
0.519608
0.51869
0.518337
0.518436
0.519224
0.519657
0.522874
0.595413
0.787421
1.01851
1.17316
1.21775
1.25973
1.27979
1.27012
0.519008
0.519046
0.519055
0.519053
0.519047
0.519049
0.519083
0.519178
0.519273
0.51934
0.519391
0.519394
0.519368
0.519374
0.519443
0.519573
0.519678
0.519704
0.519679
0.51966
0.519695
0.519796
0.519842
0.519865
0.519893
0.519886
0.519815
0.519776
0.519779
0.519799
0.519788
0.519622
0.519363
0.5192
0.519033
0.518871
0.51877
0.518691
0.518652
0.518694
0.51876
0.518751
0.518714
0.518807
0.519136
0.519247
0.519379
0.519664
0.519814
0.519857
0.519837
0.519775
0.519808
0.520125
0.520469
0.520468
0.520162
0.519749
0.519696
0.519691
0.519592
0.519271
0.518963
0.518893
0.518949
0.519025
0.519081
0.519121
0.519177
0.51934
0.519547
0.51965
0.51968
0.519618
0.519451
0.519032
0.518463
0.518108
0.518041
0.518107
0.518638
0.519654
0.520292
0.520146
0.519423
0.518391
0.517946
0.518001
0.518659
0.519652
0.519825
0.51931
0.518525
0.52716
0.618983
0.852657
1.12162
1.23683
1.26903
1.25584
0.519191
0.519122
0.518941
0.518837
0.518841
0.518844
0.518805
0.518724
0.51871
0.518721
0.518761
0.518793
0.518785
0.518758
0.518742
0.518726
0.518674
0.518616
0.518611
0.518644
0.518638
0.518608
0.518635
0.518726
0.518741
0.518703
0.518687
0.518693
0.518705
0.51872
0.518715
0.518604
0.518391
0.518315
0.518283
0.518225
0.518166
0.51819
0.518299
0.518512
0.518622
0.518668
0.518835
0.519221
0.519365
0.519461
0.519665
0.519766
0.51978
0.51973
0.519615
0.519611
0.519703
0.519797
0.519811
0.519766
0.519469
0.519133
0.519143
0.519173
0.519111
0.518814
0.518559
0.51856
0.518664
0.518786
0.518906
0.519031
0.519244
0.519505
0.519663
0.519575
0.519428
0.519164
0.518804
0.518271
0.51801
0.517876
0.517993
0.51862
0.519688
0.520503
0.520386
0.519618
0.518553
0.517866
0.517897
0.518536
0.519752
0.520273
0.519832
0.5188
0.518426
0.518768
0.519058
0.540096
0.680057
0.919657
1.13935
1.21684
0.519279
0.519146
0.518898
0.518704
0.518664
0.518677
0.51876
0.518775
0.518713
0.51859
0.518543
0.518553
0.518556
0.51854
0.518471
0.518452
0.518452
0.518443
0.518458
0.518549
0.51857
0.518564
0.518607
0.518732
0.518753
0.518716
0.518721
0.518782
0.518849
0.518873
0.518873
0.518763
0.518732
0.518774
0.518746
0.518767
0.518904
0.519247
0.519642
0.519854
0.520017
0.520282
0.520694
0.520926
0.521088
0.521256
0.521282
0.521257
0.52114
0.520727
0.520057
0.519698
0.519572
0.519548
0.519566
0.519529
0.519358
0.519181
0.519183
0.519223
0.519206
0.519005
0.518856
0.518912
0.519198
0.519669
0.520069
0.520386
0.520768
0.520819
0.520582
0.519908
0.519244
0.51873
0.518381
0.518056
0.517986
0.518503
0.519712
0.520798
0.521431
0.521179
0.520433
0.519158
0.518383
0.518098
0.519144
0.520711
0.52153
0.520997
0.51982
0.518759
0.519387
0.520519
0.521019
0.520576
0.521262
0.570087
0.741792
1.08224
0.519051
0.518976
0.518869
0.518841
0.518852
0.518893
0.518912
0.518884
0.518806
0.518758
0.518771
0.518796
0.518773
0.518721
0.518716
0.518785
0.51887
0.518926
0.519033
0.519245
0.519305
0.519305
0.519376
0.519543
0.519644
0.519806
0.519957
0.520022
0.520137
0.520354
0.520673
0.520809
0.520868
0.521055
0.521355
0.52154
0.521731
0.522043
0.522103
0.521922
0.521837
0.521917
0.522015
0.521873
0.521674
0.521617
0.52152
0.521344
0.521121
0.520667
0.520073
0.519839
0.519778
0.519768
0.519862
0.519844
0.51978
0.519827
0.520003
0.520282
0.520474
0.520721
0.521091
0.521494
0.522093
0.522248
0.522061
0.521866
0.521737
0.521481
0.52076
0.519815
0.519236
0.518751
0.518866
0.519511
0.520989
0.522513
0.523527
0.523376
0.522783
0.521534
0.520421
0.5192
0.519513
0.521273
0.523477
0.523858
0.523336
0.5222
0.520568
0.521515
0.523226
0.523253
0.522723
0.5214
0.521977
0.522658
0.526779
0.727657
0.52175
0.521868
0.522138
0.522415
0.522601
0.522838
0.523103
0.523251
0.523329
0.523475
0.52372
0.524001
0.524199
0.524288
0.524364
0.524505
0.524752
0.524989
0.525201
0.525462
0.525592
0.525599
0.525573
0.525606
0.525695
0.525712
0.525708
0.525697
0.525621
0.525496
0.525475
0.525477
0.525286
0.525053
0.525012
0.524949
0.524784
0.524593
0.524351
0.524163
0.524191
0.524297
0.524255
0.524039
0.52399
0.524033
0.523902
0.523497
0.523252
0.52322
0.523369
0.523539
0.523565
0.523557
0.523634
0.523837
0.523973
0.524092
0.524247
0.524488
0.524763
0.52498
0.525123
0.525257
0.525205
0.524877
0.524199
0.523685
0.523521
0.523325
0.52273
0.522531
0.522735
0.523431
0.524513
0.525421
0.526341
0.526332
0.525961
0.525062
0.523674
0.522033
0.522077
0.52344
0.525435
0.527619
0.527353
0.526416
0.524438
0.523007
0.524486
0.527173
0.526957
0.526229
0.525762
0.526864
0.528939
0.528856
0.527916
0.536773
0.531708
0.531658
0.531586
0.531447
0.531289
0.531249
0.531287
0.531299
0.531212
0.531048
0.530951
0.530896
0.530748
0.530498
0.530404
0.53035
0.530282
0.530155
0.529902
0.529783
0.529783
0.529762
0.529663
0.52927
0.528782
0.528737
0.528717
0.528577
0.528117
0.527735
0.527605
0.527463
0.527011
0.526362
0.52582
0.524943
0.524305
0.524311
0.52432
0.524241
0.524298
0.524547
0.524599
0.524467
0.524448
0.524469
0.524396
0.524169
0.524168
0.524464
0.52506
0.525753
0.526598
0.527294
0.527413
0.527509
0.52778
0.528126
0.528244
0.528069
0.528004
0.52823
0.528287
0.527951
0.527046
0.526203
0.526092
0.525886
0.525699
0.52591
0.526866
0.528627
0.530313
0.531657
0.531738
0.531374
0.530289
0.529014
0.527805
0.52734
0.528166
0.530405
0.53279
0.53502
0.534825
0.533431
0.531375
0.52983
0.531249
0.534148
0.536697
0.53603
0.534816
0.534918
0.535791
0.536701
0.535955
0.535444
0.536021
0.537491
0.542479
0.54223
0.542165
0.542132
0.542076
0.542108
0.542213
0.542228
0.542217
0.542308
0.542455
0.542451
0.542304
0.542161
0.542126
0.542143
0.54227
0.542419
0.542542
0.542686
0.542837
0.543056
0.543383
0.543729
0.544034
0.544302
0.544492
0.544636
0.545003
0.545531
0.545568
0.545563
0.545878
0.546571
0.547074
0.547381
0.547759
0.548204
0.548576
0.548846
0.549391
0.550122
0.550358
0.550644
0.551099
0.551579
0.552125
0.552615
0.553089
0.553277
0.55318
0.553142
0.553441
0.553872
0.553892
0.553656
0.553174
0.552566
0.551844
0.551386
0.551361
0.551414
0.551362
0.550885
0.550426
0.550574
0.55116
0.551891
0.552378
0.552509
0.552541
0.552401
0.552207
0.552014
0.551672
0.551259
0.55075
0.550894
0.551251
0.551995
0.552851
0.553345
0.552959
0.551918
0.550647
0.549704
0.550304
0.55171
0.5533
0.552984
0.551926
0.550412
0.550577
0.551237
0.551461
0.551422
0.551604
0.552366
0.552384
0.552065
0.574819
0.574336
0.574198
0.574265
0.574532
0.57461
0.574607
0.57467
0.575047
0.575469
0.575525
0.575446
0.575235
0.574904
0.574564
0.574575
0.574642
0.574555
0.574508
0.574461
0.574277
0.574108
0.574165
0.574569
0.57484
0.574829
0.57478
0.57488
0.575265
0.575458
0.575432
0.575515
0.57592
0.576093
0.575911
0.575485
0.575325
0.57519
0.574832
0.574138
0.573279
0.572503
0.571987
0.571738
0.571469
0.57087
0.570594
0.570512
0.5702
0.569354
0.567975
0.566574
0.565769
0.565162
0.564009
0.563601
0.563751
0.563818
0.563438
0.562748
0.562662
0.563127
0.563404
0.563539
0.563917
0.564819
0.565724
0.566043
0.566293
0.566208
0.56604
0.565681
0.56526
0.56473
0.564027
0.564036
0.564401
0.564825
0.565141
0.565202
0.564879
0.564245
0.563498
0.56304
0.563385
0.564282
0.565538
0.5655
0.564772
0.563582
0.562724
0.563305
0.564193
0.564613
0.564439
0.564226
0.563838
0.562996
0.562159
0.561902
0.603435
0.603364
0.603366
0.603391
0.603374
0.603159
0.602707
0.602583
0.60269
0.602678
0.602316
0.602366
0.6026
0.602446
0.601876
0.601896
0.601867
0.60123
0.600835
0.600673
0.600297
0.599774
0.599578
0.599572
0.599427
0.598818
0.597909
0.597168
0.596692
0.595985
0.595064
0.594933
0.59483
0.594346
0.593669
0.59349
0.593639
0.593855
0.594003
0.594171
0.59439
0.594489
0.59433
0.594269
0.594268
0.594263
0.594356
0.594438
0.594488
0.594456
0.59445
0.594667
0.594818
0.594859
0.595192
0.596012
0.597084
0.597945
0.598033
0.597964
0.598132
0.598735
0.598751
0.598419
0.597807
0.597073
0.596023
0.595042
0.594188
0.593326
0.59244
0.591552
0.590852
0.590327
0.589747
0.589612
0.589667
0.589572
0.589088
0.588275
0.587427
0.586609
0.586229
0.585964
0.585638
0.585034
0.583956
0.582868
0.581601
0.581578
0.581629
0.581351
0.580684
0.579566
0.578634
0.578014
0.577209
0.57728
0.577821
0.577729
0.637859
0.637556
0.637235
0.63702
0.637067
0.637424
0.637567
0.637501
0.637316
0.637122
0.637092
0.637133
0.637149
0.637121
0.637184
0.637481
0.637646
0.637578
0.63731
0.637112
0.637172
0.637577
0.637656
0.637613
0.637593
0.637445
0.637045
0.637013
0.637131
0.636963
0.636765
0.636777
0.63674
0.636501
0.636232
0.635803
0.635246
0.635008
0.635147
0.635237
0.634776
0.633731
0.633345
0.63342
0.633464
0.633334
0.632935
0.632821
0.632737
0.632383
0.631688
0.630977
0.630189
0.629154
0.628014
0.627077
0.626284
0.62539
0.624241
0.622833
0.621319
0.619752
0.618307
0.617372
0.616549
0.615223
0.613505
0.61257
0.611787
0.611624
0.611784
0.612035
0.612387
0.612692
0.61268
0.612475
0.611983
0.611218
0.610206
0.6089
0.607997
0.607038
0.606287
0.605771
0.605171
0.604526
0.603515
0.60314
0.602881
0.602205
0.601289
0.600124