/*--------------------------------*- C++ -*----------------------------------*\
  =========                 |
  \\      /  F ield         | OpenFOAM: The Open Source CFD Toolbox
   \\    /   O peration     | Website:  https://openfoam.org
    \\  /    A nd           | Version:  7
     \\/     M anipulation  |
\*---------------------------------------------------------------------------*/
FoamFile
{
    version     2.0;
    format      ascii;
    class       volVectorField;
    location    "5.4";
    object      U;
}
// * * * * * * * * * * * * * * * * * * * * * * * * * * * * * * * * * * * * * //

dimensions      [0 1 -1 0 0 0 0];

internalField   nonuniform List<vector> 
1750
(
(2.56666 -0.348821 0)
(2.55145 -0.236729 0)
(2.55739 -0.0737631 0)
(2.5711 -0.0713914 0)
(2.58655 -0.0958995 0)
(2.62505 0.0409278 0)
(2.63219 0.0695133 0)
(2.66251 0.0769032 0)
(2.6483 0.0593989 0)
(2.67878 0.0327248 0)
(2.76872 -1.03402 0)
(2.74954 -0.943364 0)
(2.67756 -0.632328 0)
(2.7215 -0.488002 0)
(2.66149 -0.160636 0)
(2.70869 -0.0561451 0)
(2.67668 0.105348 0)
(2.64913 0.0730924 0)
(2.63121 0.0342648 0)
(2.72126 0.0153888 0)
(3.08888 -1.29081 0)
(3.10831 -1.38358 0)
(3.09898 -1.3662 0)
(3.07011 -1.28585 0)
(3.0431 -1.06007 0)
(2.99673 -0.784948 0)
(2.95195 -0.489511 0)
(2.89944 -0.259213 0)
(2.84163 -0.0930674 0)
(2.82049 -0.00549829 0)
(3.12571 -1.33379 0)
(3.16293 -1.32761 0)
(3.16314 -1.29936 0)
(3.16045 -1.26585 0)
(3.1665 -1.2158 0)
(3.16671 -1.17186 0)
(3.14407 -1.15159 0)
(3.07414 -0.878637 0)
(3.04313 -0.660258 0)
(2.98886 -0.319273 0)
(3.15633 -0.938836 0)
(3.18336 -0.929612 0)
(3.17604 -0.938832 0)
(3.14378 -0.981915 0)
(3.14418 -0.979655 0)
(3.15122 -0.973561 0)
(3.14953 -0.96306 0)
(3.12935 -0.981365 0)
(3.13626 -0.971193 0)
(3.12464 -0.805388 0)
(3.12444 -0.719829 0)
(3.16224 -0.767378 0)
(3.15751 -0.786773 0)
(3.13598 -0.81835 0)
(3.13176 -0.847654 0)
(3.13765 -0.848397 0)
(3.14257 -0.85138 0)
(3.14765 -0.834691 0)
(3.14643 -0.81335 0)
(3.14797 -0.808775 0)
(3.10213 -0.550977 0)
(3.11817 -0.494377 0)
(3.14447 -0.529844 0)
(3.13345 -0.576754 0)
(3.12421 -0.574885 0)
(3.12267 -0.585858 0)
(3.11918 -0.576573 0)
(3.11642 -0.615418 0)
(3.11535 -0.643786 0)
(3.11895 -0.666182 0)
(3.02216 -0.284522 0)
(3.03192 -0.266086 0)
(3.07018 -0.313965 0)
(3.08491 -0.356686 0)
(3.08586 -0.372737 0)
(3.07473 -0.401 0)
(3.0718 -0.467206 0)
(3.0707 -0.488506 0)
(3.08043 -0.531557 0)
(3.09408 -0.558324 0)
(2.90637 0.0503997 0)
(2.92744 -0.0101757 0)
(2.97137 -0.0994224 0)
(2.99008 -0.156675 0)
(2.99974 -0.157755 0)
(3.01631 -0.210342 0)
(3.01613 -0.274601 0)
(3.0161 -0.291714 0)
(3.02805 -0.315339 0)
(3.05014 -0.348875 0)
(2.79555 0.287816 0)
(2.8228 0.219343 0)
(2.82998 0.200451 0)
(2.87595 0.109129 0)
(2.90817 0.0284886 0)
(2.9296 0.00844756 0)
(2.95058 -0.054977 0)
(2.96028 -0.115011 0)
(2.97516 -0.152033 0)
(3.01031 -0.211707 0)
(2.68841 0.490114 0)
(2.70676 0.477261 0)
(2.74056 0.435656 0)
(2.764 0.391649 0)
(2.80033 0.312604 0)
(2.8344 0.241703 0)
(2.86616 0.176397 0)
(2.89395 0.103434 0)
(2.92068 0.0333802 0)
(2.96142 -0.0386155 0)
(2.69211 0.510655 0)
(2.69891 0.510567 0)
(2.7048 0.506059 0)
(2.71247 0.497642 0)
(2.72596 0.480202 0)
(2.7439 0.455268 0)
(2.77206 0.410567 0)
(2.8038 0.354905 0)
(2.84091 0.281678 0)
(2.8965 0.177955 0)
(2.8251 0.319924 0)
(2.7714 0.399408 0)
(2.7539 0.444317 0)
(2.75012 0.446493 0)
(2.74463 0.463553 0)
(2.74287 0.46814 0)
(2.7444 0.467005 0)
(2.75415 0.456925 0)
(2.76936 0.442232 0)
(2.82113 0.389854 0)
(2.96609 0.0628814 0)
(2.94205 0.10194 0)
(2.91131 0.160907 0)
(2.8839 0.212997 0)
(2.84527 0.285633 0)
(2.81846 0.343232 0)
(2.79979 0.383123 0)
(2.79679 0.415122 0)
(2.79959 0.427469 0)
(2.81239 0.41345 0)
(2.99892 0.00151083 0)
(2.99742 0.00339177 0)
(2.9937 0.00852841 0)
(2.98694 0.0166019 0)
(2.97068 0.0369007 0)
(2.94563 0.063084 0)
(2.90542 0.109304 0)
(2.86011 0.14805 0)
(2.81284 0.202646 0)
(2.76822 0.224763 0)
(2.66205 -1.06888 0)
(2.75584 -1.07688 0)
(3.00841 -1.24231 0)
(3.07806 -1.36362 0)
(3.08916 -1.0039 0)
(3.10692 -0.764502 0)
(3.09723 -0.57357 0)
(3.02728 -0.201634 0)
(2.9248 0.0478172 0)
(2.75119 0.395166 0)
(2.67811 0.514138 0)
(2.7009 0.498485 0)
(2.84082 0.298849 0)
(2.98052 0.0374979 0)
(2.99952 0.000715885 0)
(2.62987 -1.14464 0)
(2.75729 -1.17768 0)
(3.01695 -1.28402 0)
(3.05548 -1.34088 0)
(3.09615 -0.970137 0)
(3.12204 -0.76215 0)
(3.14634 -0.421819 0)
(2.9921 -0.00144334 0)
(2.88082 0.168644 0)
(2.71414 0.465459 0)
(2.66645 0.555209 0)
(2.74403 0.460412 0)
(2.89586 0.206375 0)
(2.99237 0.015267 0)
(2.99986 0.000223163 0)
(2.5936 -1.15102 0)
(2.75075 -1.19347 0)
(2.99769 -1.23983 0)
(3.06976 -1.27093 0)
(3.14752 -0.927473 0)
(3.18201 -0.634382 0)
(3.0661 -0.127194 0)
(2.97522 0.0150565 0)
(2.79844 0.314427 0)
(2.67663 0.520791 0)
(2.65477 0.575401 0)
(2.76231 0.433265 0)
(2.94122 0.12437 0)
(2.99698 0.00676023 0)
(2.99995 7.69498e-05 0)
(2.53041 -1.16153 0)
(2.73582 -1.22442 0)
(3.00448 -1.14909 0)
(3.11565 -1.20449 0)
(3.21839 -0.717165 0)
(3.11793 -0.31962 0)
(3.0287 -0.112425 0)
(2.92147 0.0371942 0)
(2.74915 0.376611 0)
(2.65098 0.548868 0)
(2.65502 0.575489 0)
(2.77222 0.432636 0)
(2.95564 0.0891722 0)
(2.99868 0.00262916 0)
(2.99998 2.68615e-05 0)
(2.3845 -1.19635 0)
(2.68332 -1.29829 0)
(3.03474 -1.07805 0)
(3.21355 -0.955937 0)
(3.17903 -0.755296 0)
(3.05295 -0.295602 0)
(2.98555 -0.156275 0)
(2.84668 0.218839 0)
(2.70113 0.453952 0)
(2.63641 0.562264 0)
(2.68018 0.523463 0)
(2.84341 0.272637 0)
(2.98341 0.02948 0)
(2.99959 0.000745081 0)
(3 7.39721e-06 0)
(2.27725 -1.23563 0)
(2.66268 -1.389 0)
(3.11332 -0.863386 0)
(3.13764 -0.890945 0)
(3.09325 -0.724701 0)
(3.02133 -0.322652 0)
(2.95855 0.0129299 0)
(2.7691 0.377126 0)
(2.64444 0.542102 0)
(2.62804 0.569742 0)
(2.73238 0.42886 0)
(2.93068 0.135211 0)
(2.99555 0.0095748 0)
(2.99991 0.000169821 0)
(3 1.61676e-06 0)
(2.21354 -1.18789 0)
(2.72619 -1.5235 0)
(3.07791 -0.954339 0)
(3.06406 -0.942911 0)
(3.09966 -0.505516 0)
(3.02888 -0.134699 0)
(2.85325 0.278075 0)
(2.72552 0.441732 0)
(2.61378 0.593405 0)
(2.61543 0.585245 0)
(2.77091 0.407453 0)
(2.95602 0.0966125 0)
(2.99844 0.00359027 0)
(2.99998 4.54217e-05 0)
(3 3.88897e-07 0)
(2.22605 -1.20968 0)
(2.68107 -1.55249 0)
(3.0012 -1.13562 0)
(3.08809 -0.822376 0)
(3.0129 -0.13647 0)
(2.93052 0.17413 0)
(2.81515 0.329729 0)
(2.64742 0.554943 0)
(2.59607 0.624782 0)
(2.64493 0.604238 0)
(2.82882 0.330513 0)
(2.98268 0.0369432 0)
(2.99959 0.000889809 0)
(2.99999 1.11026e-05 0)
(3 9.11522e-08 0)
(2.17312 -1.10731 0)
(2.62266 -1.46248 0)
(2.97384 -1.13921 0)
(3.05112 -0.268113 0)
(3.0234 -0.0353184 0)
(2.87267 0.256574 0)
(2.73815 0.432089 0)
(2.59449 0.62319 0)
(2.59133 0.632557 0)
(2.7142 0.482632 0)
(2.93636 0.138237 0)
(2.99628 0.0090993 0)
(2.99992 0.000182385 0)
(3 2.09896e-06 0)
(3 1.75169e-08 0)
(2.03359 -0.838285 0)
(2.61176 -1.30157 0)
(3.04187 -0.689641 0)
(3.00532 -0.0433329 0)
(2.94347 0.0470303 0)
(2.80211 0.344535 0)
(2.64179 0.573867 0)
(2.57694 0.647487 0)
(2.60453 0.620046 0)
(2.81506 0.341298 0)
(2.97151 0.0658709 0)
(2.99904 0.00236788 0)
(2.99999 3.28382e-05 0)
(3 3.58485e-07 0)
(3 2.90201e-09 0)
(1.72651 -0.242876 0)
(2.60164 -0.890855 0)
(2.96614 -0.194121 0)
(2.98114 -0.052978 0)
(2.83512 0.307212 0)
(2.69285 0.529517 0)
(2.58945 0.638808 0)
(2.57253 0.652409 0)
(2.68829 0.491087 0)
(2.87786 0.231832 0)
(2.99123 0.0189627 0)
(2.99981 0.00041826 0)
(3 5.70118e-06 0)
(3 5.96463e-08 0)
(3 4.65683e-10 0)
(1.50105 0.324778 0)
(2.76468 -0.510555 0)
(2.99436 -0.0930282 0)
(2.88816 0.246355 0)
(2.71674 0.5019 0)
(2.61615 0.619269 0)
(2.56773 0.661529 0)
(2.57962 0.620341 0)
(2.75504 0.405346 0)
(2.96797 0.0645814 0)
(2.99883 0.0027389 0)
(2.99998 5.50801e-05 0)
(3 7.15686e-07 0)
(3 7.54447e-09 0)
(3 5.94065e-11 0)
(1.44831 0.78608 0)
(2.83717 -0.0247819 0)
(2.94444 0.176778 0)
(2.73063 0.519648 0)
(2.63892 0.602201 0)
(2.57232 0.666154 0)
(2.56319 0.663377 0)
(2.68592 0.489449 0)
(2.89813 0.189547 0)
(2.99301 0.0151992 0)
(2.99982 0.000417898 0)
(3 6.01144e-06 0)
(3 7.0993e-08 0)
(3 7.16285e-10 0)
(3 5.51695e-12 0)
(2.06022 0.627135 0)
(2.92874 0.315535 0)
(2.7675 0.519366 0)
(2.63797 0.628373 0)
(2.57875 0.672387 0)
(2.55802 0.685239 0)
(2.5914 0.592379 0)
(2.76587 0.382279 0)
(2.97762 0.0451822 0)
(2.99928 0.00197999 0)
(2.99999 3.35242e-05 0)
(3 4.55809e-07 0)
(3 5.14397e-09 0)
(3 4.91174e-11 0)
(3 3.59201e-13 0)
(2.43335 0.660112 0)
(2.77726 0.553402 0)
(2.62164 0.657039 0)
(2.57166 0.698251 0)
(2.56889 0.685166 0)
(2.53458 0.732626 0)
(2.72364 0.41896 0)
(2.9547 0.089387 0)
(2.99786 0.0058006 0)
(2.99996 9.16335e-05 0)
(3 1.26996e-06 0)
(3 1.42077e-08 0)
(3 1.33399e-10 0)
(3 1.05145e-12 0)
(3 7.14333e-15 0)
(2.52846 0.693467 0)
(2.54514 0.696235 0)
(2.56245 0.707606 0)
(2.55962 0.715523 0)
(2.56981 0.687706 0)
(2.59148 0.646747 0)
(2.89228 0.159191 0)
(3.0045 -0.00797896 0)
(3.0005 -0.000730074 0)
(3.00001 -1.60709e-05 0)
(3 -1.23838e-07 0)
(3 -8.14631e-10 0)
(3 -5.42416e-12 0)
(3 -3.4056e-14 0)
(3 2.04396e-15 0)
(2.52452 0.683259 0)
(2.55247 0.67631 0)
(2.56487 0.710207 0)
(2.54661 0.741124 0)
(2.5754 0.682121 0)
(2.72774 0.464815 0)
(2.93038 0.109182 0)
(2.99779 0.00326483 0)
(2.99998 3.98062e-05 0)
(3 2.99028e-07 0)
(3 2.04357e-09 0)
(3 1.40003e-11 0)
(3 1.00236e-13 0)
(3 4.04213e-15 0)
(3 2.68189e-15 0)
(2.53258 0.691831 0)
(2.55477 0.661497 0)
(2.56 0.712193 0)
(2.53536 0.762207 0)
(2.57648 0.671262 0)
(2.78217 0.319493 0)
(2.98884 0.0150114 0)
(2.99994 8.91972e-05 0)
(3 1.47301e-07 0)
(3 6.84193e-10 0)
(3 6.8026e-12 0)
(3 1.34028e-13 0)
(3 1.8285e-15 0)
(3 1.92838e-15 0)
(3 1.96096e-15 0)
(2.52924 0.702854 0)
(2.55044 0.661677 0)
(2.55116 0.708264 0)
(2.54679 0.760762 0)
(2.60774 0.619866 0)
(2.88563 0.157671 0)
(2.99698 0.00440731 0)
(2.99999 9.12394e-06 0)
(3 3.73594e-08 0)
(3 5.40752e-11 0)
(3 2.17335e-12 0)
(3 7.91681e-14 0)
(3 6.67128e-16 0)
(3 1.86568e-15 0)
(3 1.78159e-15 0)
(2.52476 0.715313 0)
(2.52784 0.706077 0)
(2.54557 0.720677 0)
(2.55902 0.714438 0)
(2.77657 0.36321 0)
(2.97689 0.0321963 0)
(2.99986 0.000150293 0)
(3 6.40704e-07 0)
(3 -7.29933e-10 0)
(3 1.89133e-11 0)
(3 1.34918e-12 0)
(3 3.39441e-14 0)
(3 -4.03255e-17 0)
(3 1.70836e-15 0)
(3 1.63372e-15 0)
(2.51424 0.739665 0)
(2.50402 0.751942 0)
(2.54449 0.730872 0)
(2.58568 0.678175 0)
(2.85389 0.221363 0)
(2.99548 0.00669113 0)
(2.99998 2.94036e-05 0)
(3 -5.83757e-08 0)
(3 2.1595e-10 0)
(3 1.83926e-11 0)
(3 1.67451e-12 0)
(3 5.44528e-15 0)
(3 -8.55766e-16 0)
(3 1.35678e-15 0)
(3 1.45122e-15 0)
(2.51343 0.726364 0)
(2.45707 0.80292 0)
(2.55401 0.72778 0)
(2.68083 0.53966 0)
(2.95723 0.0610781 0)
(2.99961 0.000496168 0)
(3 -5.53236e-07 0)
(3 3.62398e-09 0)
(3 1.48265e-10 0)
(3 8.7432e-12 0)
(3 1.16638e-14 0)
(3 -1.31616e-15 0)
(3 -7.80778e-16 0)
(3 1.42981e-15 0)
(3 1.0282e-15 0)
(2.47786 0.725174 0)
(2.4084 0.861654 0)
(2.70659 0.629697 0)
(2.90028 0.233169 0)
(2.99506 0.00792612 0)
(2.99998 2.61203e-05 0)
(3 2.4134e-07 0)
(3 8.57903e-10 0)
(3 -6.52621e-13 0)
(3 -5.46333e-14 0)
(3 -5.19997e-15 0)
(3 -2.60264e-15 0)
(3 -1.98407e-16 0)
(3 1.7269e-15 0)
(3 9.96148e-16 0)
(2.48951 0.675779 0)
(2.45511 0.930569 0)
(2.74847 0.504227 0)
(2.95219 0.0807884 0)
(2.99949 0.000671126 0)
(3 2.6837e-07 0)
(3 -3.61463e-09 0)
(3 -1.29589e-11 0)
(3 -8.19832e-13 0)
(3 -8.22745e-15 0)
(3 -3.24357e-15 0)
(3 -2.58326e-15 0)
(3 -2.5341e-16 0)
(3 2.20902e-15 0)
(3 1.02565e-15 0)
(2.53742 0.600688 0)
(2.51867 0.819946 0)
(2.88659 0.224031 0)
(2.99476 0.00897326 0)
(2.99998 2.56235e-05 0)
(3 1.34109e-07 0)
(3 4.36408e-10 0)
(3 1.96999e-12 0)
(3 -1.1774e-14 0)
(3 -1.4306e-15 0)
(3 -3.02194e-15 0)
(3 -3.00494e-15 0)
(3 -8.50652e-16 0)
(3 2.27261e-15 0)
(3 1.21685e-15 0)
(2.5751 0.4817 0)
(2.64382 0.620486 0)
(2.95504 0.0822162 0)
(2.99929 0.00115903 0)
(3 4.042e-06 0)
(3 -4.04446e-09 0)
(3 -5.49472e-11 0)
(3 -4.60757e-13 0)
(3 -7.87218e-15 0)
(3 3.97815e-16 0)
(3 -2.14813e-15 0)
(3 -3.19835e-15 0)
(3 -1.64531e-15 0)
(3 1.62009e-15 0)
(3 7.54136e-16 0)
(2.62926 0.382682 0)
(2.76306 0.394403 0)
(2.98713 0.0211251 0)
(2.99991 0.000126372 0)
(3 -1.27101e-07 0)
(3 -3.61184e-12 0)
(3 -2.55529e-11 0)
(3 -2.79072e-13 0)
(3 -4.36869e-15 0)
(3 4.9794e-16 0)
(3 -1.71129e-15 0)
(3 -2.92504e-15 0)
(3 -2.18325e-15 0)
(3 -2.4778e-17 0)
(3 2.89103e-16 0)
(2.73151 0.229365 0)
(2.88443 0.189222 0)
(2.99753 0.00382867 0)
(2.99999 1.08486e-05 0)
(3 1.038e-07 0)
(3 2.79602e-10 0)
(3 9.53608e-13 0)
(3 -3.37482e-15 0)
(3 -3.69227e-15 0)
(3 -3.80425e-17 0)
(3 -1.84429e-15 0)
(3 -2.59511e-15 0)
(3 -2.04917e-15 0)
(3 -1.02037e-15 0)
(3 -1.21509e-16 0)
(2.80753 0.126856 0)
(2.95684 0.064765 0)
(2.99963 0.000534471 0)
(3 1.62586e-06 0)
(3 -4.60622e-09 0)
(3 -1.17462e-11 0)
(3 -4.17623e-13 0)
(3 4.42267e-16 0)
(3 8.5658e-16 0)
(3 3.27679e-16 0)
(3 -2.80168e-15 0)
(3 -2.60751e-15 0)
(3 -1.22701e-15 0)
(3 -1.19091e-15 0)
(3 -3.47339e-16 0)
(2.91554 0.0243757 0)
(2.99213 0.0109143 0)
(2.99997 3.39048e-05 0)
(3 -3.15847e-08 0)
(3 4.50286e-11 0)
(3 -2.72891e-12 0)
(3 -1.5925e-14 0)
(3 -4.07661e-17 0)
(3 1.49703e-15 0)
(3 1.16269e-15 0)
(3 -3.23987e-15 0)
(3 -2.62042e-15 0)
(3 -8.9511e-16 0)
(3 -1.81198e-15 0)
(3 -3.72259e-16 0)
(3 2.53136e-15 0)
(3 1.2443e-15 0)
(3 4.98874e-16 0)
(3 2.24736e-15 0)
(3 2.90114e-15 0)
(3 1.40305e-16 0)
(3 -2.79294e-16 0)
(3 7.49409e-16 0)
(3 2.45496e-15 0)
(3 2.27701e-15 0)
(3 -3.56682e-15 0)
(3 -2.54269e-15 0)
(3 -1.10579e-15 0)
(3 -2.23405e-15 0)
(3 -3.98104e-16 0)
(3 3.03989e-15 0)
(3 1.32586e-15 0)
(3 -1.90467e-16 0)
(3 1.28714e-15 0)
(3 2.75267e-15 0)
(3 -2.92739e-16 0)
(3 -7.77798e-16 0)
(3 5.59696e-16 0)
(3 2.44959e-15 0)
(3 1.09147e-15 0)
(3 -3.35522e-15 0)
(3 -2.08073e-15 0)
(3 -1.00359e-15 0)
(3 -1.3081e-15 0)
(3 2.26782e-16 0)
(3 3.10149e-15 0)
(3 2.16301e-15 0)
(3 -6.44016e-16 0)
(3 1.24057e-15 0)
(3 2.49151e-15 0)
(3 5.49905e-16 0)
(3 -2.45375e-16 0)
(3 2.44761e-17 0)
(3 1.62244e-15 0)
(3 8.54855e-16 0)
(3 -2.59332e-15 0)
(3 -1.96437e-15 0)
(3 -4.21906e-16 0)
(3 -3.15519e-16 0)
(3 4.81625e-16 0)
(3 2.5676e-15 0)
(3 1.5077e-15 0)
(3 -1.1063e-15 0)
(3 6.44151e-16 0)
(3 2.10466e-15 0)
(3 2.06355e-15 0)
(3 4.20318e-16 0)
(3 -4.0593e-16 0)
(3 8.16964e-16 0)
(3 -5.75805e-16 0)
(3 -2.83439e-15 0)
(3 -1.42804e-15 0)
(3 5.64245e-17 0)
(3 1.05665e-15 0)
(3 1.06586e-15 0)
(3 1.96377e-15 0)
(3 1.80189e-15 0)
(3 -7.13728e-16 0)
(3 3.10642e-16 0)
(3 2.01264e-15 0)
(3 2.10044e-15 0)
(3 3.76471e-16 0)
(3 5.36101e-17 0)
(3 8.30377e-16 0)
(3 -1.55125e-15 0)
(3 -2.20906e-15 0)
(3 -6.30996e-16 0)
(3 -3.57711e-16 0)
(3 1.70463e-15 0)
(3 1.634e-15 0)
(3 1.82383e-15 0)
(3 1.24572e-15 0)
(3 -7.62593e-16 0)
(3 2.31306e-16 0)
(3 2.38845e-15 0)
(3 1.93045e-15 0)
(3 2.80175e-16 0)
(3 1.35571e-16 0)
(3 7.75444e-16 0)
(3 -1.50981e-15 0)
(3 -1.93037e-15 0)
(3 -8.17842e-17 0)
(3 -1.0953e-15 0)
(3 1.00055e-15 0)
(3 2.4189e-15 0)
(3 2.5704e-15 0)
(3 9.28637e-16 0)
(3 -9.64294e-16 0)
(3 9.42112e-17 0)
(3 2.19159e-15 0)
(3 1.31705e-15 0)
(3 3.73045e-16 0)
(3 7.98569e-16 0)
(3 1.00958e-15 0)
(3 -1.50932e-15 0)
(3 -1.68163e-15 0)
(3 1.48593e-17 0)
(3 -1.77775e-15 0)
(3 6.72694e-16 0)
(3 2.42319e-15 0)
(3 1.10931e-15 0)
(3 3.14828e-16 0)
(3 -4.83344e-16 0)
(3 -8.69755e-16 0)
(3 2.09504e-15 0)
(3 8.33528e-16 0)
(3 -3.15856e-16 0)
(3 1.47478e-15 0)
(3 1.57613e-15 0)
(3 -7.11052e-16 0)
(3 -1.13277e-15 0)
(3 -4.81743e-16 0)
(3 -2.01574e-15 0)
(3 5.48367e-16 0)
(3 2.11442e-15 0)
(3 3.41828e-16 0)
(3 -3.2414e-16 0)
(3 -7.1226e-16 0)
(3 -1.74288e-15 0)
(3 2.4725e-16 0)
(3 1.33765e-15 0)
(3 7.16004e-16 0)
(3 6.54761e-16 0)
(3 9.77918e-16 0)
(3 -2.59891e-16 0)
(3 -6.3708e-16 0)
(3 3.06399e-16 0)
(3 -1.41432e-15 0)
(3 -2.63267e-17 0)
(3 9.10381e-16 0)
(3 -3.92098e-16 0)
(3 -1.81137e-16 0)
(3 -2.32491e-16 0)
(3 -7.36683e-16 0)
(3 2.55376e-16 0)
(3 7.04416e-16 0)
(3 7.08716e-16 0)
(3 6.03031e-16 0)
(3 3.25244e-16 0)
(3 -1.97852e-16 0)
(3 -8.69136e-17 0)
(3 4.06984e-16 0)
(3 -6.67616e-16 0)
(3 -4.87247e-16 0)
(3 -6.07831e-17 0)
(3 3.04903e-15 0)
(3 3.94258e-15 0)
(3 2.84084e-15 0)
(3 2.21851e-15 0)
(3 2.08028e-15 0)
(3 3.14205e-15 0)
(3 2.42685e-15 0)
(3 2.40359e-15 0)
(3 2.30346e-15 0)
(3 4.62855e-16 0)
(3 -7.66047e-17 0)
(3 7.46761e-16 0)
(3 1.2715e-15 0)
(3 3.06775e-15 0)
(3 4.4564e-15 0)
(3 4.03874e-15 0)
(3 1.12217e-15 0)
(3 1.96389e-15 0)
(3 2.07717e-15 0)
(3 1.25651e-15 0)
(3 -1.93982e-15 0)
(3 -3.14114e-16 0)
(3 6.24685e-16 0)
(3 1.60705e-15 0)
(3 2.78287e-15 0)
(3 1.7015e-15 0)
(3 1.09898e-15 0)
(3 3.36348e-16 0)
(3 1.01945e-15 0)
(3 7.02026e-16 0)
(3 -1.6598e-15 0)
(3 -6.57526e-16 0)
(3 7.4212e-16 0)
(3 1.29386e-15 0)
(3 1.27212e-15 0)
(3 3.3863e-16 0)
(3 8.51786e-16 0)
(3 8.01143e-16 0)
(3 9.97273e-16 0)
(3 1.50202e-16 0)
(3 -1.29562e-15 0)
(3 -1.13379e-15 0)
(3 2.56242e-17 0)
(3 8.19298e-16 0)
(3 8.45764e-17 0)
(3 -1.55269e-16 0)
(3 4.08107e-16 0)
(3 7.2743e-16 0)
(3 -9.38554e-16 0)
(3 -7.38018e-16 0)
(3 -1.91265e-15 0)
(3 -2.35563e-15 0)
(3 -2.63091e-15 0)
(3 -1.95865e-15 0)
(3 -8.99503e-16 0)
(3 3.78549e-16 0)
(3 1.54142e-15 0)
(3 -5.1904e-17 0)
(3 -1.81498e-15 0)
(3 -1.83544e-15 0)
(3 1.60825e-16 0)
(3 -7.98969e-16 0)
(3 -3.23229e-15 0)
(3 -3.63192e-15 0)
(3 -4.32534e-15 0)
(3 -2.85895e-15 0)
(3 -6.99838e-16 0)
(3 -1.47868e-15 0)
(3 -6.72098e-16 0)
(3 -5.08945e-16 0)
(3 -1.59099e-15 0)
(3 -1.95109e-15 0)
(3 -3.8334e-15 0)
(3 -5.91272e-15 0)
(3 -6.77992e-15 0)
(3 -6.58564e-15 0)
(3 -3.89874e-15 0)
(3 -2.19242e-15 0)
(3 -1.47138e-15 0)
(3 1.66113e-17 0)
(3 -2.50654e-15 0)
(3 -1.40694e-15 0)
(3 -1.16733e-15 0)
(3 -1.98873e-15 0)
(3 -2.29876e-15 0)
(3 -2.98576e-15 0)
(3 -3.0066e-15 0)
(3 -1.51396e-15 0)
(3 -5.87137e-16 0)
(3 -1.26782e-16 0)
(3 -1.04327e-15 0)
(3 -7.35701e-16 0)
(3 5.81723e-16 0)
(3 9.40474e-16 0)
(3 1.13457e-16 0)
(3 -1.13913e-16 0)
(3 -3.58904e-16 0)
(3 -1.04777e-15 0)
(3 -9.44352e-16 0)
(3 1.36162e-16 0)
(3 8.48341e-16 0)
(3 1.70452e-15 0)
(3 1.97546e-15 0)
(3 2.15846e-15 0)
(3 1.99772e-15 0)
(3 2.14027e-15 0)
(3 1.39495e-15 0)
(3 7.1814e-16 0)
(3 4.26545e-16 0)
(3 5.33648e-16 0)
(3 8.31132e-16 0)
(3 1.65085e-15 0)
(3 1.08235e-15 0)
(3 4.13722e-16 0)
(3 6.51163e-16 0)
(3 1.0927e-15 0)
(3 8.22297e-16 0)
(3 1.86899e-15 0)
(3 2.58874e-15 0)
(3 1.08133e-15 0)
(3 4.01189e-16 0)
(3 7.03623e-16 0)
(3 3.78855e-16 0)
(3 -7.47731e-17 0)
(3 -6.78288e-16 0)
(3 -1.01508e-15 0)
(3 -4.33694e-16 0)
(3 1.40339e-16 0)
(3 5.30079e-16 0)
(3 -2.99589e-16 0)
(3 -7.67349e-16 0)
(3 3.4309e-17 0)
(3 9.62555e-16 0)
(3 1.69397e-15 0)
(3 1.32148e-15 0)
(3 1.81646e-16 0)
(3 -1.1176e-17 0)
(3 -1.00547e-15 0)
(3 -1.47691e-15 0)
(3 -9.65731e-16 0)
(3 -6.03104e-16 0)
(3 -2.28927e-16 0)
(3 -8.83457e-17 0)
(3 2.90639e-16 0)
(3 9.73498e-16 0)
(3 9.73512e-16 0)
(3 8.7511e-16 0)
(3 4.78544e-16 0)
(3 -4.0956e-16 0)
(3 -1.21081e-16 0)
(3 -5.66181e-16 0)
(3 -2.18262e-15 0)
(3 -2.82448e-15 0)
(3 -2.81325e-15 0)
(3 -1.54072e-15 0)
(3 -1.43425e-15 0)
(3 -9.09601e-16 0)
(3 -8.32051e-16 0)
(3 -6.409e-16 0)
(3 -1.60784e-16 0)
(3 8.85856e-16 0)
(3 -4.40011e-16 0)
(3 -5.56564e-16 0)
(3 -3.4072e-16 0)
(3 -4.6533e-16 0)
(3 -5.17146e-16 0)
(3 -1.32045e-15 0)
(3 -8.76477e-16 0)
(3 -2.15046e-16 0)
(3 -2.72876e-16 0)
(3 2.32514e-15 0)
(3 2.41879e-15 0)
(3 2.30467e-15 0)
(3 1.17918e-15 0)
(3 5.74972e-16 0)
(3 7.60166e-16 0)
(3 1.1276e-15 0)
(3 1.32362e-15 0)
(3 1.46316e-15 0)
(3 4.85026e-16 0)
(3 5.58926e-17 0)
(3 1.04566e-15 0)
(3 1.60143e-15 0)
(3 1.96589e-15 0)
(3 2.5477e-15 0)
(3 3.02133e-15 0)
(3 2.9281e-15 0)
(3 2.01685e-15 0)
(3 6.62879e-16 0)
(3 1.78009e-16 0)
(3 -3.88152e-16 0)
(3 2.93976e-16 0)
(3 6.21983e-16 0)
(3 1.62325e-15 0)
(3 2.15697e-15 0)
(3 2.32433e-15 0)
(3 2.12746e-15 0)
(3 9.22755e-16 0)
(3 -9.61021e-17 0)
(3 -3.00332e-16 0)
(2.8482 -0.0478205 0)
(2.99345 -0.0084133 0)
(3 2.58644e-09 0)
(3 4.23691e-15 0)
(3 5.17443e-16 0)
(3 -7.86318e-16 0)
(3 7.52063e-16 0)
(3 -1.98552e-15 0)
(3 -3.79746e-15 0)
(3 -6.15991e-16 0)
(3 3.06754e-16 0)
(3 4.89453e-16 0)
(3 -8.10789e-16 0)
(3 -9.59238e-16 0)
(3 -2.8638e-16 0)
(3 -2.46842e-16 0)
(3 2.46087e-15 0)
(3 2.35298e-15 0)
(3 -2.85084e-16 0)
(3 -8.30913e-16 0)
(2.60628 -0.280616 0)
(2.89028 -0.135849 0)
(3.00029 0.000321592 0)
(3 -1.15677e-06 0)
(3 1.70777e-09 0)
(3 1.42165e-11 0)
(3 -1.25253e-14 0)
(3 -3.40124e-15 0)
(3 -4.93724e-15 0)
(3 -9.50382e-16 0)
(3 6.59511e-16 0)
(3 2.48509e-16 0)
(3 -9.28571e-16 0)
(3 -1.28107e-15 0)
(3 -1.14616e-15 0)
(3 1.43772e-15 0)
(3 3.45337e-15 0)
(3 2.51092e-15 0)
(3 -3.65794e-16 0)
(3 -9.13814e-16 0)
(2.51653 -0.50279 0)
(2.71787 -0.44464 0)
(2.99529 -0.00640211 0)
(3.00002 2.72096e-05 0)
(3 -2.06653e-10 0)
(3 1.65476e-11 0)
(3 -2.9651e-15 0)
(3 -2.58077e-15 0)
(3 -4.63507e-15 0)
(3 -2.93778e-15 0)
(3 1.30111e-15 0)
(3 1.00906e-16 0)
(3 -1.09137e-15 0)
(3 -1.98322e-15 0)
(3 -1.60954e-15 0)
(3 1.57197e-15 0)
(3 3.89943e-15 0)
(3 2.81999e-15 0)
(3 -3.38066e-16 0)
(3 -3.82212e-16 0)
(2.2921 -0.739989 0)
(2.24682 -1.00101 0)
(2.87254 -0.207088 0)
(2.9997 -0.000514229 0)
(3 -1.62723e-10 0)
(3 1.27336e-11 0)
(3 2.68027e-13 0)
(3 -1.71784e-15 0)
(3 -4.95354e-15 0)
(3 -3.503e-15 0)
(3 1.43088e-15 0)
(3 3.12961e-16 0)
(3 -1.93502e-15 0)
(3 -1.64884e-15 0)
(3 -5.71188e-16 0)
(3 1.13084e-15 0)
(3 3.96527e-15 0)
(3 3.21662e-15 0)
(3 8.21316e-16 0)
(3 6.46711e-17 0)
(2.17844 -0.855967 0)
(2.09794 -1.06677 0)
(2.613 -0.663193 0)
(2.9459 -0.108091 0)
(3.00002 0.000132396 0)
(3 3.7237e-07 0)
(3 3.39346e-10 0)
(3 5.11563e-13 0)
(3 -2.67335e-15 0)
(3 -4.97177e-15 0)
(3 -5.64597e-16 0)
(3 -1.66522e-16 0)
(3 -1.70821e-15 0)
(3 -1.11471e-15 0)
(3 2.40104e-16 0)
(3 1.76919e-15 0)
(3 3.90427e-15 0)
(3 2.67386e-15 0)
(3 9.64806e-16 0)
(3 6.68293e-16 0)
(2.19972 -0.899699 0)
(2.14252 -1.02067 0)
(2.32211 -0.955412 0)
(2.56088 -0.60777 0)
(2.96372 -0.042072 0)
(3.00008 0.000131699 0)
(3 8.1107e-07 0)
(3 -7.91752e-10 0)
(3 -3.75489e-11 0)
(3 5.348e-14 0)
(3 -3.10055e-16 0)
(3 -2.87103e-18 0)
(3 -8.285e-16 0)
(3 -9.55203e-18 0)
(3 1.3973e-15 0)
(3 2.17617e-15 0)
(3 3.27059e-15 0)
(3 1.94775e-15 0)
(3 8.37268e-16 0)
(3 9.53966e-16 0)
(2.23504 -0.9158 0)
(2.20289 -0.952786 0)
(2.23764 -0.925648 0)
(2.30601 -0.883722 0)
(2.6771 -0.395091 0)
(2.99076 -0.0108136 0)
(3.00002 3.77439e-05 0)
(3 1.04865e-06 0)
(3 3.36665e-09 0)
(3 -7.07344e-12 0)
(3 -3.73716e-13 0)
(3 -2.77158e-15 0)
(3 -3.07193e-16 0)
(3 9.63934e-16 0)
(3 2.27186e-15 0)
(3 2.41059e-15 0)
(3 2.29326e-15 0)
(3 1.72327e-15 0)
(3 1.12878e-15 0)
(3 1.3651e-15 0)
(2.24821 -0.890439 0)
(2.24781 -0.883345 0)
(2.25479 -0.900933 0)
(2.25199 -0.926013 0)
(2.44798 -0.698887 0)
(2.87809 -0.150875 0)
(2.99949 -0.00067293 0)
(3 -3.0514e-08 0)
(3 2.85786e-09 0)
(3 1.29993e-10 0)
(3 3.39646e-13 0)
(3 -1.68993e-15 0)
(3 1.04471e-15 0)
(3 1.57331e-15 0)
(3 2.77757e-15 0)
(3 2.61213e-15 0)
(3 2.50134e-15 0)
(3 1.47876e-15 0)
(3 1.21445e-15 0)
(3 1.71106e-15 0)
(2.24887 -0.879865 0)
(2.26713 -0.855606 0)
(2.27981 -0.884695 0)
(2.26588 -0.922837 0)
(2.31503 -0.881264 0)
(2.52736 -0.571789 0)
(2.95462 -0.0480715 0)
(3.00004 6.99373e-05 0)
(3 1.5427e-06 0)
(3 -2.17259e-09 0)
(3 -6.44235e-11 0)
(3 -5.58864e-13 0)
(3 1.60869e-15 0)
(3 1.94997e-15 0)
(3 2.26882e-15 0)
(3 2.84414e-15 0)
(3 2.79361e-15 0)
(3 6.6946e-16 0)
(3 7.11184e-16 0)
(3 1.45112e-15 0)
(2.24638 -0.874753 0)
(2.27007 -0.870805 0)
(2.28734 -0.890457 0)
(2.28226 -0.912062 0)
(2.26046 -0.900938 0)
(2.3227 -0.804459 0)
(2.73013 -0.311392 0)
(2.99446 -0.00703233 0)
(3.00001 6.41801e-06 0)
(3 5.3473e-07 0)
(3 2.11855e-10 0)
(3 -2.52927e-13 0)
(3 -2.29996e-14 0)
(3 6.07763e-16 0)
(3 1.45989e-15 0)
(3 2.26787e-15 0)
(3 3.35038e-15 0)
(3 5.96199e-16 0)
(3 -5.79935e-16 0)
(3 1.23465e-15 0)
(2.25254 -0.882158 0)
(2.26714 -0.884374 0)
(2.28092 -0.889001 0)
(2.27471 -0.892237 0)
(2.26179 -0.895952 0)
(2.30058 -0.848752 0)
(2.53024 -0.59819 0)
(2.92983 -0.085878 0)
(2.9999 -7.96168e-05 0)
(3 2.62567e-07 0)
(3 1.2058e-08 0)
(3 1.47423e-10 0)
(3 1.46294e-12 0)
(3 1.08734e-14 0)
(3 9.86149e-16 0)
(3 2.2725e-15 0)
(3 3.78909e-15 0)
(3 3.68042e-16 0)
(3 -1.60723e-15 0)
(3 4.6218e-16 0)
(2.25568 -0.885672 0)
(2.26474 -0.887284 0)
(2.27201 -0.887404 0)
(2.27177 -0.888796 0)
(2.26882 -0.888057 0)
(2.28853 -0.879331 0)
(2.30493 -0.861597 0)
(2.68891 -0.375478 0)
(2.98643 -0.0172161 0)
(3 -2.15084e-05 0)
(3 -2.80773e-07 0)
(3 -2.17365e-08 0)
(3 -5.42773e-11 0)
(3 -7.05597e-13 0)
(3 -1.49096e-15 0)
(3 1.52254e-15 0)
(3 3.05704e-15 0)
(3 1.72753e-16 0)
(3 -2.1123e-15 0)
(3 -6.19066e-16 0)
(2.25507 -0.883443 0)
(2.26028 -0.880602 0)
(2.26717 -0.88349 0)
(2.27215 -0.89351 0)
(2.27499 -0.892518 0)
(2.27445 -0.894366 0)
(2.28355 -0.869488 0)
(2.46087 -0.650275 0)
(2.91686 -0.0998261 0)
(2.99979 -0.000233017 0)
(3 -1.36324e-07 0)
(3 -1.96857e-08 0)
(3 -4.58444e-10 0)
(3 -7.52932e-13 0)
(3 2.8026e-17 0)
(3 2.01527e-15 0)
(3 -4.46836e-16 0)
(3 -1.2627e-16 0)
(3 -1.54982e-15 0)
(3 -8.73459e-16 0)
(2.2508 -0.879336 0)
(2.25607 -0.878401 0)
(2.26647 -0.883108 0)
(2.27328 -0.895915 0)
(2.27468 -0.891913 0)
(2.27106 -0.889746 0)
(2.27755 -0.871861 0)
(2.38031 -0.797877 0)
(2.63296 -0.458564 0)
(2.97165 -0.0468343 0)
(2.99976 -0.000363397 0)
(3 -1.88473e-06 0)
(3 -8.64359e-09 0)
(3 -4.07618e-11 0)
(3 -1.95583e-13 0)
(3 -9.8194e-17 0)
(3 -1.444e-15 0)
(3 -8.15967e-17 0)
(3 -3.92238e-16 0)
(3 2.04026e-16 0)
(2.24905 -0.878932 0)
(2.25477 -0.879606 0)
(2.2656 -0.8842 0)
(2.27172 -0.89232 0)
(2.2696 -0.888564 0)
(2.268 -0.882602 0)
(2.27209 -0.878228 0)
(2.27764 -0.902622 0)
(2.50068 -0.677109 0)
(2.96974 -0.0240417 0)
(3.00463 0.0075529 0)
(3.00037 0.000567266 0)
(3 5.95932e-06 0)
(3 3.15286e-08 0)
(3 1.66795e-10 0)
(3 9.54232e-13 0)
(3 4.1416e-15 0)
(3 8.5043e-16 0)
(3 9.7401e-16 0)
(3 6.47868e-16 0)
(2.26587 -0.832264 0)
(2.58915 -0.633346 0)
(2.40658 -0.770998 0)
(2.33357 -0.839764 0)
(2.30217 -0.863396 0)
(2.27991 -0.873928 0)
(2.27201 -0.877776 0)
(2.26571 -0.913033 0)
(2.33215 -0.803798 0)
(2.51453 -0.609637 0)
(2.92152 -0.133981 0)
(2.99687 -0.00964002 0)
(2.99991 -0.000248002 0)
(3 -3.34504e-06 0)
(3 -3.92817e-08 0)
(3 -3.79136e-10 0)
(3 -3.14578e-12 0)
(3 -2.00872e-14 0)
(3 8.469e-16 0)
(3 6.22978e-16 0)
(1.98435 -1.01663 0)
(2.75385 -0.204073 0)
(2.62681 -0.501859 0)
(2.49434 -0.687361 0)
(2.40398 -0.774836 0)
(2.3409 -0.826277 0)
(2.2992 -0.859468 0)
(2.27515 -0.899566 0)
(2.27692 -0.840487 0)
(2.33312 -0.777304 0)
(2.54178 -0.604366 0)
(2.91434 -0.140994 0)
(2.99635 -0.00847538 0)
(2.99991 -0.000213552 0)
(3 -2.85883e-06 0)
(3 -3.41242e-08 0)
(3 -3.42723e-10 0)
(3 -3.01316e-12 0)
(3 -2.27129e-14 0)
(3 8.6178e-16 0)
(2.2117 -0.305446 0)
(2.80121 0.361713 0)
(2.8226 -0.0230475 0)
(2.71109 -0.356731 0)
(2.54276 -0.623954 0)
(2.47581 -0.689744 0)
(2.3807 -0.793922 0)
(2.31334 -0.851836 0)
(2.2861 -0.839276 0)
(2.27848 -0.847911 0)
(2.35662 -0.769263 0)
(2.64992 -0.483275 0)
(2.9435 -0.100997 0)
(2.99792 -0.00457974 0)
(2.99996 -9.26469e-05 0)
(3 -1.06812e-06 0)
(3 -1.08968e-08 0)
(3 -9.4344e-11 0)
(3 -7.22624e-13 0)
(3 -3.28225e-15 0)
(2.32866 0.273822 0)
(2.78528 0.72882 0)
(2.93833 0.29017 0)
(2.845 -0.0670277 0)
(2.7658 -0.276274 0)
(2.58147 -0.562279 0)
(2.51488 -0.64953 0)
(2.39543 -0.757193 0)
(2.34164 -0.805716 0)
(2.28998 -0.847224 0)
(2.28819 -0.836368 0)
(2.39583 -0.74046 0)
(2.74908 -0.371618 0)
(2.97428 -0.0520045 0)
(2.99932 -0.00157459 0)
(2.99999 -2.45291e-05 0)
(3 -2.46097e-07 0)
(3 -2.24923e-09 0)
(3 -1.81178e-11 0)
(3 -1.116e-13 0)
(2.48263 0.823643 0)
(2.68634 1.20888 0)
(2.94977 0.439847 0)
(2.95154 0.0662466 0)
(2.89815 -0.0847534 0)
(2.72128 -0.389568 0)
(2.64798 -0.478878 0)
(2.48325 -0.671847 0)
(2.44994 -0.715108 0)
(2.33731 -0.817387 0)
(2.29509 -0.836653 0)
(2.30161 -0.83748 0)
(2.50859 -0.646034 0)
(2.86038 -0.232477 0)
(2.99203 -0.0179252 0)
(2.99985 -0.000342551 0)
(3 -4.33587e-06 0)
(3 -3.93928e-08 0)
(3 -3.1801e-10 0)
(3 -1.97099e-12 0)
(2.50725 0.958841 0)
(2.75051 1.17707 0)
(2.94212 0.742604 0)
(3.04224 0.603142 0)
(2.92477 -0.00877099 0)
(2.90709 -0.0669565 0)
(2.70225 -0.41526 0)
(2.63803 -0.483495 0)
(2.53215 -0.635973 0)
(2.42701 -0.74596 0)
(2.34243 -0.806579 0)
(2.30652 -0.837852 0)
(2.3472 -0.833142 0)
(2.62616 -0.536271 0)
(2.92969 -0.123793 0)
(2.99768 -0.00502395 0)
(2.99997 -6.27668e-05 0)
(3 -6.08055e-07 0)
(3 -4.83328e-09 0)
(3 -2.99026e-11 0)
(2.71581 0.956238 0)
(2.83266 1.08611 0)
(2.99941 0.75429 0)
(3.01282 0.813917 0)
(2.9925 0.415168 0)
(2.96659 0.175863 0)
(2.8258 -0.181001 0)
(2.75512 -0.275612 0)
(2.61265 -0.521674 0)
(2.55477 -0.589733 0)
(2.40691 -0.749296 0)
(2.33321 -0.815451 0)
(2.32616 -0.821994 0)
(2.44645 -0.727398 0)
(2.82025 -0.295192 0)
(2.98497 -0.0326106 0)
(2.9997 -0.000685869 0)
(3 -6.82816e-06 0)
(3 -5.84369e-08 0)
(3 -3.75569e-10 0)
(2.72935 0.913783 0)
(2.8798 0.937638 0)
(3.03665 0.787979 0)
(3.0296 0.764684 0)
(3.05293 0.586203 0)
(2.97519 0.185235 0)
(2.93894 0.10766 0)
(2.7858 -0.248937 0)
(2.73384 -0.315144 0)
(2.60412 -0.526375 0)
(2.50732 -0.638294 0)
(2.39249 -0.75044 0)
(2.34252 -0.796812 0)
(2.37276 -0.784875 0)
(2.56673 -0.604643 0)
(2.92716 -0.123333 0)
(2.99716 -0.00606461 0)
(2.99996 -8.01039e-05 0)
(3 -6.80633e-07 0)
(3 -4.45485e-09 0)
(2.7227 0.840512 0)
(2.85386 0.777758 0)
(3.02978 0.815163 0)
(3.13035 0.941365 0)
(3.10265 0.622586 0)
(2.99886 0.242482 0)
(3.00063 0.162955 0)
(2.83432 -0.180274 0)
(2.80873 -0.215247 0)
(2.64081 -0.484961 0)
(2.58374 -0.553817 0)
(2.4444 -0.700741 0)
(2.37639 -0.758033 0)
(2.37242 -0.776958 0)
(2.47492 -0.691118 0)
(2.75651 -0.367606 0)
(2.98296 -0.0296076 0)
(2.99969 -0.00060834 0)
(3 -6.31792e-06 0)
(3 -4.28064e-08 0)
(2.73734 0.785728 0)
(2.8061 0.762262 0)
(2.96029 0.917033 0)
(3.049 1.06895 0)
(3.08086 0.760195 0)
(3.08874 0.58626 0)
(3.01027 0.229633 0)
(2.95661 0.0941608 0)
(2.82732 -0.180616 0)
(2.79067 -0.290617 0)
(2.62283 -0.502805 0)
(2.555 -0.565972 0)
(2.43463 -0.700021 0)
(2.38457 -0.762993 0)
(2.40996 -0.743906 0)
(2.63049 -0.519208 0)
(2.9169 -0.141343 0)
(2.99722 -0.00515456 0)
(2.99997 -5.74012e-05 0)
(3 -3.95048e-07 0)
(2.7622 0.755605 0)
(2.77818 0.791674 0)
(2.94818 0.908355 0)
(3.0629 1.05678 0)
(3.09752 0.759674 0)
(3.07147 0.763871 0)
(3.02467 0.395289 0)
(2.9706 0.30576 0)
(2.89349 0.00905176 0)
(2.84909 -0.0933768 0)
(2.71045 -0.351226 0)
(2.63247 -0.420004 0)
(2.5225 -0.582305 0)
(2.42364 -0.719192 0)
(2.40767 -0.751348 0)
(2.51832 -0.644037 0)
(2.82607 -0.271625 0)