/*--------------------------------*- C++ -*----------------------------------*\
  =========                 |
  \\      /  F ield         | OpenFOAM: The Open Source CFD Toolbox
   \\    /   O peration     | Website:  https://openfoam.org
    \\  /    A nd           | Version:  7
     \\/     M anipulation  |
\*---------------------------------------------------------------------------*/
FoamFile
{
    version     2.0;
    format      ascii;
    class       volScalarField;
    location    "3.5";
    object      rho;
}
// * * * * * * * * * * * * * * * * * * * * * * * * * * * * * * * * * * * * * //

dimensions      [1 -3 0 0 0 0 0];

internalField   nonuniform List<scalar> 
90000
(
0.379289
0.411834
0.445641
0.479855
0.505857
0.528579
0.558151
0.588226
0.612451
0.640605
0.675005
0.708629
0.741755
0.779349
0.818157
0.857418
0.898128
0.938717
0.98008
1.0166
1.05128
1.07799
1.10121
1.11328
1.12005
1.12074
1.12266
1.12482
1.12453
1.12295
1.12118
1.11834
1.11593
1.11267
1.11155
1.10828
1.10354
1.09764
1.09111
1.08432
1.07989
1.08369
1.09115
1.09964
1.11052
1.12104
1.12968
1.13593
1.13869
1.1363
1.1292
1.11756
1.1077
1.10056
1.10156
1.10529
1.11145
1.11802
1.12557
1.12588
1.12439
1.11984
1.11408
1.10959
1.11004
1.11286
1.11764
1.12359
1.1235
1.12103
1.11519
1.11153
1.11269
1.11628
1.1221
1.12176
1.11791
1.11252
1.11103
1.11176
1.11283
1.11142
1.10662
1.10344
1.10344
1.10549
1.10966
1.11345
1.11656
1.1199
1.12198
1.12208
1.1218
1.12351
1.12638
1.13257
1.13905
1.14645
1.15453
1.16058
0.350543
0.350561
0.350575
0.350596
0.350636
0.350684
0.350717
0.350751
0.350789
0.350946
0.351728
0.353824
0.357387
0.363612
0.372522
0.385819
0.402993
0.426829
0.45568
0.492956
0.535619
0.587231
0.64418
0.702541
0.758471
0.809563
0.857248
0.89791
0.93516
0.963221
0.989626
1.00753
1.02643
1.03981
1.05501
1.06398
1.07353
1.07816
1.08127
1.08472
1.09313
1.10072
1.10769
1.11378
1.11639
1.11979
1.12305
1.12276
1.11805
1.10349
1.09157
1.08437
1.08653
1.09223
1.09855
1.10458
1.10961
1.11118
1.1103
1.10709
1.10012
1.09266
1.09267
1.09476
1.10061
1.1088
1.11116
1.11012
1.10597
1.09856
1.09616
1.09771
1.10388
1.11
1.1097
1.10663
1.09986
1.09697
1.09899
1.10263
1.10226
1.09932
1.09362
1.09102
1.09365
1.09748
1.10012
1.10384
1.10846
1.11432
1.11724
1.11753
1.11908
1.12054
1.12493
1.1326
1.13864
1.14742
1.15651
1.16258
0.351359
0.351431
0.351511
0.351598
0.351689
0.351787
0.351893
0.352004
0.35212
0.352235
0.352389
0.352464
0.352536
0.352612
0.352698
0.352786
0.352884
0.352983
0.353096
0.353206
0.35334
0.353433
0.354173
0.357968
0.365758
0.38064
0.401246
0.431165
0.46688
0.512612
0.562978
0.62379
0.686026
0.751678
0.815177
0.875915
0.934368
0.98497
1.03366
1.07004
1.09623
1.10724
1.11201
1.11758
1.11665
1.11556
1.11085
1.09971
1.082
1.05921
1.0625
1.0708
1.08154
1.09273
1.10104
1.10545
1.10853
1.10772
1.10325
1.09235
1.08487
1.08069
1.0822
1.08746
1.09692
1.10464
1.10744
1.10357
1.09522
1.08805
1.0891
1.0918
1.09907
1.10705
1.10471
1.09752
1.0923
1.09337
1.09487
1.09925
1.09781
1.0924
1.08823
1.08839
1.08991
1.09493
1.0967
1.09959
1.10448
1.11136
1.1145
1.11585
1.11774
1.12072
1.12674
1.13247
1.13826
1.14842
1.15847
1.16423
0.352736
0.352818
0.352905
0.352995
0.353084
0.353176
0.353267
0.353361
0.353453
0.353547
0.353635
0.353725
0.353819
0.353918
0.354016
0.354113
0.354208
0.354304
0.354398
0.354492
0.354588
0.354678
0.354803
0.35485
0.354892
0.354944
0.355002
0.355073
0.355144
0.355233
0.355298
0.355588
0.358249
0.367627
0.384294
0.414284
0.454209
0.511477
0.580055
0.664541
0.747996
0.825731
0.890917
0.94804
0.983068
1.01968
1.03392
1.04671
1.05334
1.0628
1.08485
1.09591
1.10784
1.11471
1.11744
1.11385
1.11082
1.10417
1.09066
1.07991
1.07948
1.08158
1.08942
1.10064
1.10858
1.10779
1.10376
1.09381
1.08648
1.08587
1.08877
1.09889
1.10637
1.1053
1.09877
1.09043
1.08946
1.09215
1.09936
1.09943
1.09558
1.08759
1.08654
1.08791
1.09208
1.09426
1.09482
1.09772
1.10495
1.11116
1.11309
1.11549
1.11815
1.12324
1.12886
1.13218
1.13812
1.14974
1.15988
1.16525
0.35407
0.354123
0.354179
0.354236
0.354292
0.354347
0.354403
0.35446
0.354518
0.354575
0.354631
0.354687
0.354744
0.354801
0.354857
0.354911
0.354964
0.35502
0.355076
0.355135
0.355194
0.355256
0.355315
0.355376
0.355438
0.3555
0.355566
0.355634
0.355697
0.355759
0.355816
0.355873
0.355903
0.355939
0.355977
0.356016
0.356047
0.356076
0.356092
0.35816
0.366894
0.391105
0.431053
0.490319
0.569572
0.662861
0.764209
0.86439
0.955606
1.02249
1.06756
1.08296
1.09772
1.10309
1.1075
1.10585
1.10061
1.08724
1.08
1.08203
1.08843
1.10064
1.1122
1.11309
1.11034
1.10404
1.09133
1.08528
1.08568
1.0898
1.10183
1.10994
1.10869
1.10041
1.09072
1.08933
1.09222
1.10063
1.1037
1.09949
1.09051
1.08624
1.08715
1.09229
1.09477
1.09277
1.09332
1.098
1.1068
1.11165
1.11319
1.11585
1.12026
1.12624
1.12982
1.13163
1.13797
1.15136
1.16063
1.16565
0.354924
0.354955
0.354986
0.355016
0.355044
0.355071
0.355099
0.355132
0.355166
0.3552
0.355232
0.355264
0.355296
0.355329
0.355364
0.355398
0.355433
0.355469
0.355508
0.35555
0.355592
0.355633
0.355675
0.355716
0.355754
0.355793
0.355836
0.355874
0.35591
0.355948
0.355982
0.356009
0.356039
0.356075
0.356105
0.356136
0.356161
0.356177
0.356199
0.356199
0.356204
0.356222
0.356249
0.356291
0.35633
0.357609
0.370679
0.401169
0.463868
0.55438
0.664171
0.775496
0.87382
0.942378
1.00851
1.03406
1.06438
1.07219
1.0877
1.10172
1.12115
1.13054
1.12954
1.1198
1.11067
1.0909
1.08347
1.08529
1.09353
1.10734
1.11885
1.1165
1.10522
1.09363
1.08976
1.09391
1.10434
1.10955
1.10631
1.09534
1.08844
1.08841
1.09378
1.09749
1.09596
1.09235
1.09386
1.10026
1.10939
1.11242
1.11388
1.11734
1.12315
1.12859
1.12988
1.13088
1.13822
1.15321
1.16092
1.16573
0.355392
0.355407
0.355421
0.355437
0.355453
0.355471
0.355491
0.355513
0.355535
0.355558
0.35558
0.355604
0.355629
0.355655
0.355681
0.35571
0.355738
0.355765
0.355794
0.355828
0.355858
0.355883
0.355909
0.355935
0.355959
0.355985
0.356012
0.356035
0.356059
0.356084
0.356105
0.356124
0.356148
0.356174
0.356192
0.356213
0.356237
0.356258
0.356284
0.356317
0.356367
0.356432
0.356502
0.356573
0.356661
0.35671
0.356757
0.35679
0.356795
0.356787
0.358349
0.378564
0.417868
0.49618
0.598499
0.728711
0.859671
0.96497
1.05493
1.09025
1.11208
1.12087
1.12062
1.11649
1.09427
1.08075
1.08726
1.1014
1.11543
1.12263
1.12116
1.10805
1.09463
1.0916
1.09545
1.10801
1.11503
1.11278
1.10115
1.09188
1.0894
1.09457
1.10101
1.09961
1.09406
1.09241
1.09543
1.1048
1.11212
1.11359
1.11518
1.11984
1.12561
1.1295
1.12862
1.13032
1.1393
1.1558
1.16132
1.1656
0.355697
0.355712
0.355727
0.355741
0.355757
0.355773
0.355792
0.355813
0.355833
0.355856
0.355878
0.3559
0.355924
0.355946
0.355968
0.355991
0.356013
0.356034
0.356059
0.356081
0.356097
0.35611
0.356122
0.356133
0.356147
0.356165
0.356185
0.356202
0.356218
0.356232
0.356244
0.356259
0.356278
0.3563
0.356325
0.356355
0.356391
0.356436
0.356486
0.356535
0.356589
0.35665
0.356711
0.35678
0.356857
0.356917
0.356963
0.356976
0.356972
0.356959
0.356918
0.356839
0.356767
0.356749
0.356737
0.366968
0.399101
0.483899
0.601577
0.743598
0.876191
0.958178
1.03207
1.05646
1.0768
1.08765
1.11562
1.13534
1.13574
1.1319
1.11128
1.09109
1.09068
1.09603
1.11092
1.12382
1.12119
1.10766
1.09473
1.09053
1.09529
1.10561
1.10559
1.10107
1.0922
1.09299
1.10059
1.10917
1.11412
1.11455
1.11666
1.12214
1.12775
1.12642
1.12582
1.13026
1.1426
1.15666
1.15996
1.16506
0.356017
0.356032
0.356048
0.356063
0.356079
0.356096
0.356114
0.356134
0.356154
0.356175
0.356195
0.356213
0.356232
0.356248
0.35626
0.356272
0.356284
0.356297
0.356309
0.356321
0.35633
0.35633
0.356328
0.356329
0.356337
0.35635
0.356364
0.356377
0.356387
0.356395
0.356402
0.35641
0.356421
0.35644
0.356472
0.356512
0.356556
0.356607
0.356656
0.356698
0.35674
0.356784
0.356831
0.356891
0.35695
0.356997
0.357026
0.357028
0.357019
0.35701
0.356988
0.356926
0.356838
0.356814
0.3568
0.356781
0.356793
0.356917
0.357014
0.372026
0.416019
0.51676
0.656579
0.81635
0.968179
1.05951
1.10184
1.12321
1.12215
1.1156
1.08376
1.08454
1.09594
1.11547
1.12617
1.12586
1.1136
1.09527
1.09104
1.09551
1.10861
1.11095
1.10663
1.09449
1.09118
1.09541
1.10592
1.11199
1.11303
1.11458
1.11868
1.12427
1.12437
1.12232
1.12442
1.13366
1.14745
1.15635
1.15843
1.1646
0.356328
0.356339
0.35635
0.356361
0.356373
0.356385
0.356398
0.35641
0.356424
0.356437
0.356449
0.356461
0.35647
0.356479
0.356484
0.356485
0.356486
0.356488
0.356493
0.356499
0.356499
0.35649
0.356478
0.356477
0.35648
0.356488
0.356497
0.356502
0.356505
0.356509
0.356512
0.356514
0.356521
0.356541
0.356582
0.356627
0.356675
0.356725
0.356762
0.356787
0.356807
0.356827
0.35686
0.356905
0.356948
0.356984
0.357011
0.357015
0.357008
0.357009
0.357007
0.356972
0.356902
0.35687
0.356866
0.356868
0.35689
0.356981
0.357081
0.357113
0.357106
0.357059
0.357699
0.387219
0.467137
0.622848
0.783486
0.913316
0.997342
1.06003
1.07052
1.09494
1.12123
1.13811
1.13556
1.12083
1.09164
1.087
1.09276
1.11003
1.11857
1.11353
1.09758
1.08939
1.09123
1.10226
1.11051
1.11263
1.11198
1.11506
1.12116
1.12276
1.11947
1.1186
1.12405
1.13813
1.15114
1.15463
1.15659
1.16425
0.356517
0.356524
0.356531
0.356537
0.356543
0.356548
0.356555
0.356562
0.35657
0.356577
0.356586
0.356593
0.356598
0.356602
0.356606
0.356605
0.3566
0.356596
0.356595
0.356597
0.356596
0.356584
0.356576
0.356576
0.356582
0.356587
0.356587
0.356585
0.356585
0.356589
0.356592
0.356594
0.3566
0.356628
0.356674
0.356714
0.356757
0.356795
0.356815
0.35682
0.356824
0.356831
0.356846
0.356868
0.356895
0.356929
0.356956
0.356972
0.35698
0.356987
0.357017
0.357044
0.357034
0.35699
0.35696
0.356958
0.356973
0.357028
0.357094
0.357108
0.357096
0.357068
0.357043
0.357065
0.357139
0.357382
0.377732
0.456257
0.598689
0.786673
0.954376
1.07084
1.10799
1.12459
1.11944
1.08793
1.07668
1.08999
1.11324
1.12248
1.11862
1.10037
1.08682
1.08785
1.09871
1.10862
1.11154
1.10811
1.11057
1.11811
1.12291
1.11965
1.11563
1.1174
1.12899
1.1446
1.15163
1.15263
1.15529
1.16424
0.35658
0.356586
0.356591
0.356595
0.356599
0.356603
0.356607
0.356612
0.356618
0.356626
0.356634
0.356641
0.356646
0.356652
0.356659
0.356663
0.356663
0.356661
0.35666
0.356663
0.356661
0.356656
0.356656
0.356658
0.356667
0.356679
0.356681
0.356682
0.356686
0.356691
0.356698
0.356703
0.356716
0.356751
0.356782
0.356802
0.356827
0.356846
0.356844
0.356839
0.356833
0.356829
0.356827
0.35683
0.356843
0.356881
0.356928
0.356945
0.356956
0.356992
0.357126
0.357235
0.357237
0.357189
0.357063
0.357011
0.357008
0.357039
0.357099
0.357116
0.357102
0.357071
0.357114
0.357244
0.357466
0.357905
0.358082
0.358122
0.358094
0.376607
0.475157
0.641936
0.817028
0.953827
1.02839
1.05801
1.08091
1.12487
1.13628
1.12881
1.10343
1.08305
1.08409
1.09503
1.10992
1.11236
1.10546
1.10433
1.11102
1.12137
1.12134
1.11585
1.11406
1.12031
1.13672
1.14905
1.14914
1.15023
1.15469
1.16444
0.356613
0.356616
0.35662
0.356624
0.356628
0.356632
0.356637
0.356643
0.356649
0.356656
0.356666
0.356678
0.356691
0.356705
0.356718
0.356729
0.356741
0.356755
0.356768
0.356775
0.356779
0.356792
0.35681
0.356823
0.356838
0.356852
0.356868
0.356892
0.356901
0.356905
0.356913
0.356919
0.356931
0.35695
0.356949
0.356931
0.35691
0.356905
0.356902
0.356905
0.356901
0.356877
0.356855
0.356843
0.35684
0.356861
0.356919
0.356958
0.356975
0.357035
0.357252
0.357405
0.357411
0.357362
0.357167
0.357023
0.357009
0.357028
0.357098
0.35713
0.357117
0.357125
0.357222
0.357424
0.357744
0.358168
0.358293
0.358283
0.358191
0.357914
0.357439
0.356918
0.397658
0.508685
0.703889
0.915691
1.05067
1.10664
1.11968
1.11574
1.07681
1.08031
1.09372
1.10876
1.11275
1.1055
1.09548
1.10161
1.11872
1.1243
1.11767
1.11164
1.11424
1.12873
1.14396
1.14768
1.14625
1.14899
1.15527
1.1645
0.356672
0.356677
0.356683
0.356691
0.356698
0.356706
0.356716
0.356727
0.35674
0.356755
0.356772
0.356793
0.356819
0.356851
0.356887
0.356924
0.356954
0.356971
0.356982
0.357001
0.357028
0.357054
0.357071
0.357081
0.357091
0.357105
0.357124
0.357137
0.357137
0.35713
0.35712
0.357111
0.357104
0.357095
0.357074
0.357032
0.356983
0.356959
0.356959
0.356968
0.35697
0.356948
0.356895
0.356874
0.356866
0.356866
0.356914
0.356986
0.357033
0.357141
0.357391
0.357493
0.357491
0.35743
0.357201
0.356991
0.356966
0.356981
0.357082
0.357188
0.357289
0.357357
0.357459
0.357642
0.357975
0.358282
0.358332
0.358316
0.358117
0.357599
0.356999
0.356691
0.35666
0.356696
0.364312
0.438156
0.615081
0.812021
0.946782
1.04339
1.05685
1.09496
1.11754
1.1193
1.11428
1.08681
1.09068
1.1103
1.12537
1.12305
1.11118
1.11035
1.12242
1.14076
1.14557
1.14112
1.14292
1.14888
1.15771
1.1646
0.356735
0.356742
0.356749
0.356758
0.35677
0.356784
0.356801
0.35683
0.356859
0.356878
0.356898
0.356927
0.356963
0.356999
0.357032
0.357056
0.357076
0.357096
0.357114
0.35714
0.35717
0.3572
0.357227
0.357235
0.35724
0.357249
0.357263
0.357256
0.357231
0.357196
0.357176
0.357171
0.357167
0.357154
0.357119
0.357067
0.357026
0.356995
0.356963
0.356975
0.357022
0.357043
0.357031
0.357018
0.357011
0.356999
0.357015
0.35709
0.35717
0.357316
0.357507
0.357542
0.357528
0.35744
0.357172
0.356963
0.356942
0.356963
0.357075
0.357368
0.357761
0.357869
0.357843
0.357894
0.358105
0.358298
0.358279
0.358174
0.357808
0.357205
0.356784
0.356647
0.356655
0.356902
0.357463
0.358105
0.358187
0.39218
0.518693
0.738217
0.945308
1.07656
1.10452
1.11038
1.09113
1.07098
1.09549
1.12498
1.12694
1.11228
1.10285
1.11125
1.13126
1.14373
1.13835
1.13691
1.14208
1.15235
1.15906
1.16255
0.356806
0.356813
0.356826
0.356839
0.356853
0.356868
0.356887
0.356936
0.356978
0.356986
0.356998
0.35702
0.357042
0.357071
0.357085
0.357081
0.35708
0.357095
0.357122
0.357156
0.35719
0.357227
0.357257
0.357269
0.35727
0.357272
0.357284
0.357276
0.357247
0.357194
0.357162
0.357161
0.357166
0.357155
0.357109
0.35706
0.357026
0.356984
0.356972
0.357029
0.357184
0.357269
0.357266
0.357237
0.357205
0.357167
0.357159
0.357193
0.357223
0.357346
0.357434
0.357427
0.35739
0.357292
0.357104
0.356963
0.356974
0.357058
0.357288
0.35779
0.358246
0.358284
0.358206
0.358122
0.358164
0.358146
0.357998
0.357718
0.357217
0.356823
0.356685
0.356646
0.356815
0.35734
0.358084
0.358332
0.358299
0.357856
0.356762
0.367267
0.480376
0.682782
0.867733
1.01434
1.04436
1.07321
1.12911
1.13668
1.1233
1.09846
1.10071
1.12094
1.13966
1.13658
1.13209
1.13549
1.14566
1.15819
1.15902
1.16079
0.35702
0.35703
0.357031
0.357025
0.357016
0.357014
0.357018
0.357041
0.357047
0.357044
0.35705
0.357063
0.35706
0.357054
0.357049
0.357032
0.357021
0.35702
0.357028
0.357059
0.3571
0.357148
0.357196
0.357232
0.357247
0.357251
0.357266
0.357271
0.357245
0.357175
0.357137
0.357134
0.357141
0.357132
0.35708
0.357045
0.357037
0.357039
0.357056
0.357152
0.357377
0.3575
0.357496
0.357432
0.357336
0.357292
0.357286
0.357265
0.357205
0.357213
0.357294
0.357308
0.357287
0.357247
0.357083
0.357056
0.357153
0.357375
0.357738
0.358292
0.358519
0.358518
0.358439
0.358265
0.358107
0.357837
0.357507
0.3571
0.356636
0.356584
0.356647
0.35683
0.357291
0.357864
0.358264
0.358343
0.357998
0.35698
0.356244
0.356019
0.356152
0.360577
0.440867
0.621363
0.859492
1.03754
1.11164
1.12374
1.09944
1.09306
1.10947
1.12865
1.13502
1.12717
1.12943
1.13802
1.15554
1.16028
1.15726
1.15932
0.357148
0.357139
0.357129
0.357116
0.357104
0.357094
0.357085
0.357077
0.35707
0.35706
0.357043
0.357011
0.356965
0.35692
0.356884
0.356855
0.356843
0.356842
0.356845
0.356865
0.356923
0.357016
0.35712
0.357202
0.357247
0.357266
0.357286
0.357309
0.357282
0.357232
0.357219
0.357218
0.35724
0.357243
0.357214
0.357211
0.357209
0.357191
0.357203
0.357319
0.357541
0.357619
0.357609
0.357503
0.357406
0.357384
0.357345
0.357204
0.357077
0.357106
0.357208
0.357224
0.357245
0.357268
0.357255
0.357299
0.357466
0.357736
0.3581
0.358505
0.358605
0.358601
0.358521
0.358315
0.357833
0.35723
0.35693
0.356584
0.356387
0.356426
0.356611
0.357266
0.357953
0.358204
0.358295
0.357933
0.357027
0.356171
0.355836
0.355914
0.356599
0.357203
0.357217
0.356726
0.41633
0.597256
0.822244
0.998526
1.05814
1.09963
1.1332
1.13187
1.11547
1.11952
1.13331
1.15511
1.1651
1.1607
1.15418
1.15883
0.357125
0.357104
0.357081
0.35705
0.357025
0.357007
0.356987
0.356974
0.356959
0.356943
0.356935
0.356917
0.356881
0.356837
0.356791
0.35675
0.356734
0.356734
0.356741
0.356766
0.356832
0.356956
0.357085
0.357178
0.357259
0.357334
0.357381
0.357418
0.357469
0.357477
0.357452
0.357438
0.35745
0.35745
0.357386
0.357365
0.357374
0.357337
0.357301
0.357367
0.357535
0.357582
0.357563
0.35745
0.357407
0.357401
0.357326
0.357116
0.357015
0.357074
0.357156
0.357193
0.357294
0.3575
0.357642
0.357732
0.357852
0.358032
0.358253
0.358532
0.358606
0.358545
0.358313
0.357923
0.357141
0.356554
0.356452
0.356337
0.356295
0.35633
0.356851
0.357913
0.358303
0.358349
0.357903
0.356996
0.356054
0.355682
0.355729
0.35635
0.357266
0.357586
0.357231
0.356418
0.35638
0.356693
0.403567
0.587901
0.884286
1.0741
1.11595
1.11102
1.1019
1.12194
1.15815
1.16986
1.16407
1.15444
1.15265
1.16335
0.357056
0.357051
0.357041
0.357019
0.356998
0.356985
0.356975
0.356968
0.356953
0.356926
0.356925
0.35692
0.356893
0.356856
0.356805
0.356776
0.356761
0.356768
0.356804
0.356851
0.356932
0.3571
0.357291
0.357456
0.357619
0.357717
0.357712
0.357686
0.357685
0.357657
0.357597
0.357581
0.357594
0.35758
0.357455
0.357417
0.357425
0.35736
0.357201
0.357164
0.357169
0.357189
0.357213
0.357234
0.357341
0.357397
0.357312
0.357136
0.357138
0.35725
0.357343
0.357436
0.357615
0.357903
0.35815
0.358166
0.358182
0.35819
0.358328
0.358334
0.358154
0.357851
0.357549
0.357116
0.356385
0.356065
0.356103
0.356189
0.356242
0.356626
0.357603
0.358368
0.358393
0.357947
0.35699
0.356078
0.355582
0.355591
0.356099
0.357344
0.358001
0.357776
0.356789
0.356326
0.357307
0.358671
0.358426
0.358278
0.433212
0.677463
0.912195
1.05512
1.09556
1.15232
1.18289
1.17563
1.15682
1.15187
1.15752
1.17553
0.357099
0.357126
0.357147
0.357152
0.357155
0.357162
0.357167
0.357162
0.357148
0.357162
0.357207
0.357218
0.357213
0.357199
0.357157
0.357103
0.357093
0.357113
0.357169
0.357189
0.357245
0.357375
0.357532
0.357682
0.35779
0.357842
0.357846
0.357827
0.357786
0.357702
0.357616
0.357598
0.357611
0.357598
0.357487
0.357374
0.357273
0.357084
0.356754
0.356567
0.356555
0.356572
0.356649
0.356815
0.357064
0.357278
0.357364
0.357439
0.357553
0.357689
0.357736
0.35778
0.357873
0.358108
0.358326
0.358328
0.358269
0.358194
0.357967
0.357397
0.356706
0.35662
0.356598
0.356384
0.355996
0.35588
0.355904
0.356117
0.356749
0.35759
0.35837
0.358473
0.358148
0.356999
0.356209
0.355735
0.355521
0.355947
0.357422
0.358734
0.358648
0.357734
0.356686
0.357571
0.359859
0.360775
0.360684
0.36135
0.362307
0.372493
0.487196
0.737534
0.985984
1.13484
1.16717
1.1729
1.15843
1.16071
1.18112
1.18781
0.357393
0.357399
0.357388
0.357368
0.357375
0.357391
0.357393
0.357382
0.357373
0.357393
0.35744
0.357445
0.357435
0.357397
0.357338
0.357238
0.357174
0.357168
0.357164
0.357171
0.35728
0.357374
0.357406
0.357486
0.357622
0.357714
0.357729
0.357719
0.357687
0.357624
0.357581
0.357541
0.357476
0.357394
0.357257
0.357043
0.356804
0.356505
0.356152
0.355997
0.355991
0.356019
0.356149
0.356399
0.356689
0.356977
0.357417
0.357875
0.358031
0.358055
0.358001
0.357879
0.357871
0.358092
0.358275
0.358232
0.358047
0.357677
0.357049
0.3562
0.35586
0.3559
0.356042
0.356051
0.355951
0.355973
0.356318
0.357306
0.358222
0.358763
0.358638
0.358172
0.357298
0.35626
0.355947
0.355612
0.356407
0.35832
0.360044
0.359926
0.359068
0.357861
0.358765
0.361079
0.362997
0.363469
0.364709
0.366536
0.369199
0.371327
0.374742
0.389564
0.517859
0.751388
0.954074
1.10972
1.14037
1.17867
1.21133
1.19701
0.357459
0.357463
0.357444
0.357374
0.357354
0.357358
0.357356
0.357334
0.357318
0.357313
0.35731
0.357301
0.357272
0.357197
0.357081
0.356976
0.356849
0.356702
0.356654
0.356643
0.356649
0.356679
0.356702
0.356749
0.356765
0.356792
0.356842
0.356854
0.356866
0.35689
0.356901
0.356871
0.356792
0.35673
0.356632
0.356488
0.356282
0.355957
0.355761
0.355752
0.355766
0.355836
0.356023
0.356305
0.356615
0.357119
0.357988
0.35843
0.358441
0.358326
0.358048
0.357782
0.357669
0.357617
0.357704
0.357756
0.35766
0.357278
0.356501
0.355768
0.355665
0.35574
0.355938
0.356142
0.356478
0.357074
0.358189
0.359326
0.359749
0.359351
0.358516
0.357519
0.356798
0.356154
0.356081
0.357787
0.360471
0.362543
0.36234
0.361098
0.359968
0.361618
0.365172
0.367091
0.36729
0.368859
0.371743
0.373582
0.375853
0.379102
0.382535
0.388363
0.397347
0.416089
0.522066
0.737575
0.994651
1.15387
1.19453
1.1973
0.356659
0.356617
0.356535
0.356503
0.356494
0.356469
0.356445
0.356445
0.356459
0.35646
0.356455
0.356453
0.356458
0.356446
0.356401
0.356346
0.356286
0.356156
0.356022
0.355997
0.356019
0.356038
0.356044
0.356101
0.356169
0.35622
0.356316
0.356388
0.356424
0.356474
0.356518
0.356539
0.356521
0.356517
0.356503
0.356462
0.35651
0.356626
0.356744
0.356832
0.356942
0.357142
0.357366
0.357566
0.357858
0.358478
0.358979
0.358989
0.3589
0.358577
0.358103
0.357678
0.357222
0.356985
0.357067
0.357448
0.35748
0.35722
0.356451
0.355793
0.355726
0.355942
0.356563
0.357666
0.358983
0.359985
0.360962
0.361194
0.360938
0.359418
0.358208
0.357202
0.35729
0.358552
0.361812
0.364776
0.366385
0.365851
0.364238
0.364427
0.367197
0.37131
0.374733
0.374549
0.374932
0.376767
0.378849
0.38181
0.385673
0.388646
0.392832
0.401293
0.412965
0.423547
0.428186
0.433726
0.530369
0.760694
1.00128
1.15197
0.35611
0.356069
0.356037
0.356036
0.356043
0.356057
0.356085
0.356127
0.35617
0.356212
0.356278
0.356324
0.356327
0.356324
0.356342
0.356335
0.356299
0.356213
0.356097
0.356071
0.35608
0.356136
0.35616
0.356182
0.356238
0.35637
0.356501
0.356559
0.356598
0.356626
0.356706
0.356916
0.357208
0.357417
0.357653
0.357978
0.358283
0.358559
0.358781
0.358917
0.35905
0.359332
0.359447
0.359457
0.359648
0.359834
0.359796
0.35962
0.359252
0.358626
0.358037
0.357505
0.356933
0.356835
0.356964
0.35741
0.357558
0.357385
0.357194
0.357376
0.358037
0.359395
0.36106
0.362541
0.362963
0.363024
0.36302
0.362717
0.361596
0.359482
0.359786
0.361495
0.364993
0.368341
0.371705
0.37195
0.371274
0.370151
0.371188
0.375106
0.378793
0.381809
0.382549
0.383296
0.385212
0.387442
0.389642
0.393102
0.395972
0.39867
0.403924
0.412873
0.423065
0.431687
0.437472
0.442029
0.444166
0.455917
0.544531
0.908123
0.356058
0.356085
0.356118
0.35614
0.356176
0.356219
0.356259
0.356303
0.356361
0.356451
0.356576
0.356723
0.35689
0.357034
0.357138
0.357231
0.357332
0.357454
0.357665
0.35795
0.358
0.357994
0.358075
0.358246
0.358277
0.358293
0.358407
0.358503
0.358563
0.358651
0.358827
0.359203
0.359733
0.360049
0.360254
0.360423
0.360482
0.360579
0.360715
0.360862
0.36103
0.360996
0.360724
0.360516
0.360468
0.360381
0.36008
0.359597
0.359167
0.358849
0.358451
0.357934
0.357551
0.35766
0.358053
0.3587
0.359688
0.361173
0.362933
0.364673
0.366291
0.367307
0.367919
0.367806
0.366883
0.365635
0.365378
0.36518
0.366006
0.368806
0.372456
0.376276
0.378544
0.379929
0.379508
0.378946
0.379333
0.381398
0.385301
0.389078
0.39032
0.390595
0.391811
0.394174
0.397227
0.39979
0.403093
0.405163
0.406126
0.408871
0.413665
0.422225
0.430209
0.439537
0.447621
0.453379
0.456703
0.460801
0.462505
0.546537
0.358969
0.35936
0.359658
0.359806
0.359971
0.360129
0.3603
0.360496
0.360685
0.360892
0.361195
0.361506
0.361739
0.361909
0.362022
0.362118
0.362223
0.362451
0.362701
0.36273
0.362718
0.362664
0.36265
0.362649
0.362629
0.36257
0.3626
0.362612
0.362535
0.362529
0.362541
0.362514
0.362419
0.362334
0.362282
0.362189
0.362091
0.362083
0.362095
0.362164
0.362136
0.361577
0.360678
0.360619
0.360712
0.360665
0.360357
0.360333
0.360649
0.361563
0.362843
0.363963
0.365101
0.366367
0.367852
0.369525
0.371325
0.372898
0.374206
0.375122
0.3754
0.375262
0.375312
0.375089
0.374837
0.375346
0.376726
0.379385
0.382886
0.38645
0.388625
0.389714
0.389344
0.389126
0.389405
0.390774
0.393298
0.396817
0.400363
0.401656
0.402196
0.403465
0.405329
0.407605
0.409594
0.412279
0.41459
0.416035
0.41874
0.421554
0.426169
0.43334
0.443747
0.455052
0.461437
0.464672
0.467978
0.47046
0.474013
0.478721
0.366061
0.366056
0.366037
0.366011
0.365987
0.365977
0.365997
0.366018
0.365996
0.366003
0.366029
0.366003
0.366033
0.366029
0.366017
0.36602
0.366009
0.366052
0.36602
0.36594
0.365785
0.365745
0.365757
0.36562
0.365422
0.36546
0.365478
0.36518
0.364512
0.364414
0.364468
0.364388
0.363926
0.36335
0.363154
0.363341
0.364078
0.365177
0.366276
0.366748
0.367047
0.36756
0.368425
0.369724
0.371135
0.372466
0.374049
0.375984
0.377966
0.379874
0.381751
0.383438
0.384776
0.385754
0.386278
0.386677
0.386629
0.386186
0.386091
0.385983
0.385899
0.386329
0.38756
0.388964
0.390731
0.393008
0.395692
0.398199
0.399433
0.400241
0.401095
0.400951
0.401123
0.402177
0.404806
0.407875
0.410711
0.412873
0.413735
0.414507
0.415829
0.417311
0.419424
0.421771
0.424017
0.42619
0.427335
0.429138
0.431076
0.434091
0.438922
0.44565
0.455889
0.464946
0.470896
0.475338
0.47893
0.482366
0.485735
0.490743
0.37456
0.374652
0.374761
0.374913
0.375092
0.375286
0.375519
0.375764
0.376017
0.376295
0.376581
0.376874
0.377177
0.377488
0.37782
0.378192
0.378672
0.379177
0.37971
0.380256
0.380896
0.38151
0.381774
0.382068
0.382839
0.383374
0.383395
0.383509
0.38412
0.385186
0.386145
0.386945
0.387619
0.388359
0.38914
0.390203
0.391405
0.392158
0.392781
0.393587
0.394543
0.395437
0.396144
0.396966
0.397753
0.397966
0.397982
0.398116
0.398267
0.398231
0.398216
0.398411
0.398645
0.398872
0.398834
0.398638
0.398403
0.398472
0.398864
0.399694
0.401042
0.403068
0.405638
0.408267
0.410666
0.412566
0.41392
0.415048
0.414857
0.414689
0.415289
0.417116
0.419046
0.420873
0.423223
0.425034
0.426724
0.427573
0.427898
0.428874
0.430569
0.432563
0.434336
0.436558
0.438912
0.44044
0.442435
0.44344
0.44463
0.447447
0.452892
0.460644
0.46818
0.475948
0.485601
0.490779
0.493474
0.497226
0.500196
0.503708
0.400471
0.40056
0.400653
0.400774
0.4009
0.401061
0.401357
0.401605
0.401764
0.401925
0.402087
0.402236
0.402371
0.402504
0.402676
0.402899
0.403164
0.40346
0.403802
0.404123
0.404415
0.404785
0.405038
0.405274
0.40566
0.40609
0.406299
0.406488
0.406872
0.407303
0.407553
0.40764
0.407679
0.40779
0.408104
0.408284
0.408059
0.407604
0.407529
0.407636
0.407851
0.408141
0.40816
0.408096
0.408113
0.407868
0.407597
0.407867
0.408208
0.408199
0.408313
0.409011
0.410456
0.412041
0.413573
0.415289
0.417339
0.419919
0.422456
0.424664
0.426751
0.428505
0.429775
0.430355
0.430479
0.430571
0.431017
0.431698
0.431994
0.432407
0.433306
0.43516
0.437546
0.43929
0.440669
0.442153
0.44251
0.443127
0.444675
0.446092
0.447654
0.449397
0.450967
0.452778
0.453832
0.454583
0.455499
0.457214
0.459718
0.462751
0.466895
0.47342
0.482966
0.493853
0.500914
0.503676
0.505003
0.506463
0.508513
0.513673
0.422721
0.422738
0.42291
0.42316
0.423124
0.423057
0.423205
0.423216
0.423215
0.423321
0.423343
0.423325
0.423314
0.423361
0.423517
0.423545
0.423429
0.423438
0.423723
0.423939
0.423903
0.423709
0.423629
0.423674
0.423812
0.423805
0.423821
0.424093
0.424416
0.424613
0.42494
0.425378
0.425842
0.426387
0.427139
0.428051
0.429016
0.429974
0.430878
0.431743
0.432562
0.433336
0.434009
0.434626
0.435327
0.436181
0.437235
0.438421
0.439732
0.44112
0.442537
0.443967
0.44535
0.446397
0.447023
0.447518
0.447865
0.447998
0.448034
0.448179
0.44849
0.448607
0.448504
0.447938
0.447018
0.446901
0.447467
0.448881
0.450699
0.452484
0.454251
0.45581
0.457318
0.458376
0.458819
0.459524
0.460314
0.460725
0.461543
0.463004
0.464695
0.46613
0.46744
0.468218
0.469269
0.470291
0.471185
0.472595
0.4746
0.477483
0.481029
0.487029
0.496691
0.506201
0.511115
0.515443
0.518845
0.52161
0.523409
0.526654
0.45039
0.450535
0.450683
0.450844
0.451001
0.451152
0.45129
0.451434
0.451561
0.451651
0.451764
0.452004
0.452417
0.452547
0.452577
0.452778
0.453152
0.453503
0.454015
0.454329
0.454277
0.454266
0.454463
0.454996
0.455735
0.455999
0.456078
0.456309
0.45681
0.457241
0.457558
0.45782
0.458089
0.458382
0.458576
0.458703
0.45899
0.459388
0.459521
0.459655
0.459901
0.460295
0.460787
0.461225
0.461623
0.462025
0.462395
0.462454
0.462287
0.461914
0.461616
0.461489
0.461475
0.461241
0.460752
0.460825
0.460704
0.460175
0.459583
0.45954
0.459871
0.460757
0.462071
0.463718
0.465559
0.467523
0.469542
0.471681
0.473588
0.475023
0.476059
0.476414
0.476182
0.476296
0.476358
0.476469
0.477194
0.47856
0.480095
0.48177
0.483023
0.484351
0.485283
0.4856
0.486103
0.487291
0.488813
0.490111
0.491443
0.493395
0.497124
0.502878
0.511879
0.521263
0.528339
0.532678
0.535635
0.53783
0.539764
0.542687
0.477595
0.477602
0.477634
0.477733
0.477768
0.477769
0.477784
0.477807
0.477777
0.477727
0.477832
0.477973
0.477827
0.477735
0.477849
0.477917
0.477828
0.477853
0.478112
0.478336
0.478545
0.478656
0.47872
0.478876
0.479165
0.479242
0.479218
0.479273
0.479547
0.479596
0.479616
0.479735
0.479703
0.479774
0.479961
0.479852
0.479627
0.47981
0.479957
0.479766
0.479433
0.479162
0.479019
0.479006
0.479141
0.479659
0.480378
0.480862
0.481286
0.481929
0.482877
0.483841
0.484417
0.484863
0.485573
0.486609
0.48794
0.489493
0.491249
0.493027
0.494341
0.495348
0.496228
0.496997
0.497493
0.497965
0.498145
0.498031
0.497488
0.496783
0.496361
0.495911
0.495688
0.495971
0.496858
0.498279
0.499954
0.501544
0.502939
0.50373
0.504042
0.503702
0.503718
0.504097
0.504741
0.505481
0.506653
0.508099
0.509372
0.510861
0.513538
0.519918
0.529657
0.539261
0.545717
0.549629
0.550682
0.550598
0.550576
0.552914
0.508132
0.508211
0.508286
0.508307
0.508342
0.508391
0.508404
0.508446
0.508615
0.508736
0.508804
0.508897
0.509047
0.509153
0.509119
0.509059
0.509113
0.509249
0.509255
0.509192
0.509201
0.509336
0.50941
0.509398
0.509438
0.509616
0.509622
0.509545
0.509584
0.509886
0.510263
0.51046
0.510737
0.511451
0.511777
0.511877
0.512178
0.512641
0.513042
0.5136
0.514012
0.514059
0.514109
0.514309
0.514763
0.515234
0.515584
0.516058
0.516283
0.516337
0.516552
0.516986
0.517324
0.517573
0.517828
0.517971
0.51789
0.517643
0.517425
0.517153
0.51665
0.516235
0.515785
0.515043
0.513997
0.512975
0.512725
0.512294
0.512289
0.512679
0.51364
0.515072
0.516972
0.518993
0.520683
0.521885