/*--------------------------------*- C++ -*----------------------------------*\
  =========                 |
  \\      /  F ield         | OpenFOAM: The Open Source CFD Toolbox
   \\    /   O peration     | Website:  https://openfoam.org
    \\  /    A nd           | Version:  7
     \\/     M anipulation  |
\*---------------------------------------------------------------------------*/
FoamFile
{
    version     2.0;
    format      ascii;
    class       volScalarField;
    location    "7";
    object      T;
}
// * * * * * * * * * * * * * * * * * * * * * * * * * * * * * * * * * * * * * //

dimensions      [0 0 0 1 0 0 0];

internalField   nonuniform List<scalar> 
90000
(
0.911032
0.917073
0.923285
0.92889
0.934034
0.938693
0.942992
0.946758
0.95027
0.953387
0.956374
0.958979
0.96168
0.964371
0.967506
0.971109
0.975898
0.981372
0.987596
0.993796
1.00012
1.00617
1.01214
1.01784
1.02339
1.02856
1.03373
1.0384
1.0431
1.04726
1.05126
1.05479
1.05801
1.06079
1.06338
1.06517
1.06654
1.06801
1.06823
1.06794
1.06773
1.06748
1.06693
1.06572
1.06372
1.06084
1.05752
1.05497
1.05342
1.05269
1.05315
1.0541
1.05553
1.0565
1.0566
1.05716
1.05754
1.05772
1.05758
1.05724
1.05644
1.0557
1.05507
1.05452
1.05428
1.05431
1.05471
1.05454
1.0548
1.05503
1.05496
1.05449
1.05402
1.05293
1.05183
1.05139
1.05093
1.05062
1.05083
1.05148
1.0512
1.05061
1.05
1.04971
1.04986
1.05044
1.05077
1.05028
1.04956
1.04888
1.0486
1.04854
1.04841
1.04809
1.04771
1.04775
1.04774
1.04762
1.04714
1.04658
0.904894
0.905064
0.905406
0.905915
0.906618
0.907543
0.908681
0.910006
0.911501
0.913179
0.915031
0.917069
0.919143
0.921233
0.923409
0.925689
0.928177
0.930782
0.933826
0.937045
0.940833
0.944754
0.949232
0.953802
0.95884
0.963887
0.969315
0.974766
0.980434
0.986163
0.991841
0.997538
1.00305
1.00878
1.01362
1.01926
1.02366
1.02788
1.03242
1.03568
1.03848
1.04134
1.04413
1.04568
1.04774
1.04995
1.05156
1.05284
1.05265
1.05178
1.05015
1.04812
1.04655
1.04521
1.04426
1.04451
1.04525
1.0462
1.04739
1.04871
1.05015
1.05107
1.05096
1.05039
1.04928
1.04805
1.04686
1.04536
1.04525
1.04566
1.04707
1.04881
1.04963
1.04886
1.04745
1.04592
1.04426
1.04442
1.04532
1.04679
1.0469
1.04633
1.04531
1.04446
1.04496
1.04624
1.04664
1.04628
1.04544
1.04501
1.04501
1.04512
1.04491
1.0446
1.04431
1.04418
1.04447
1.0444
1.04415
1.0436
0.902492
0.902439
0.902377
0.902327
0.902254
0.902171
0.902078
0.901996
0.901955
0.901911
0.901857
0.901859
0.901893
0.901953
0.902035
0.902138
0.902282
0.902542
0.902921
0.903422
0.904108
0.904966
0.906057
0.907339
0.908951
0.910813
0.913168
0.91584
0.919192
0.922947
0.9274
0.93246
0.937969
0.944168
0.951147
0.957833
0.96584
0.973616
0.981199
0.98987
0.997356
1.00443
1.01209
1.01805
1.02382
1.02708
1.02972
1.03185
1.03345
1.03473
1.03566
1.03591
1.03656
1.03653
1.03603
1.03581
1.03595
1.03631
1.03724
1.03845
1.03975
1.04071
1.04118
1.04094
1.04016
1.03868
1.03713
1.03621
1.03637
1.03698
1.03784
1.03897
1.03965
1.0402
1.03982
1.03827
1.03737
1.03739
1.03763
1.03804
1.03848
1.03883
1.03851
1.03847
1.03852
1.03876
1.03918
1.03952
1.03943
1.03903
1.03875
1.03879
1.03881
1.0388
1.03867
1.03868
1.03885
1.03911
1.03908
1.03873
0.898926
0.898883
0.898835
0.898783
0.898723
0.898659
0.898591
0.898519
0.898455
0.898397
0.898335
0.898268
0.898215
0.898173
0.89813
0.898078
0.89804
0.897956
0.897873
0.897806
0.897749
0.897729
0.897731
0.897729
0.897706
0.897712
0.897754
0.897864
0.898067
0.898379
0.898978
0.899798
0.901017
0.902533
0.904763
0.907456
0.911165
0.915587
0.921459
0.928006
0.936055
0.945068
0.954318
0.964961
0.974871
0.984753
0.992841
1.00136
1.0064
1.012
1.01644
1.01921
1.0217
1.02301
1.02374
1.02556
1.02731
1.02842
1.03
1.03118
1.03153
1.03176
1.03184
1.03154
1.03091
1.02983
1.02985
1.03003
1.0301
1.02996
1.02962
1.02926
1.02935
1.02988
1.0306
1.03179
1.03254
1.03206
1.03106
1.03016
1.03037
1.03102
1.0321
1.03251
1.03215
1.03156
1.03168
1.03228
1.03313
1.03311
1.03284
1.03268
1.0328
1.03294
1.03284
1.03276
1.03297
1.03334
1.03361
1.03344
0.896241
0.896217
0.896186
0.896147
0.896122
0.896112
0.896093
0.896061
0.896025
0.895989
0.895947
0.895903
0.895895
0.895897
0.895892
0.895882
0.895869
0.895837
0.895783
0.895735
0.895735
0.895768
0.895827
0.895867
0.895898
0.895939
0.895991
0.896061
0.896148
0.896338
0.896328
0.896312
0.896321
0.896352
0.89642
0.896533
0.896724
0.897023
0.897608
0.898543
0.90006
0.902388
0.905583
0.910592
0.916585
0.92505
0.935209
0.94577
0.958936
0.970115
0.982157
0.992093
1.0018
1.00867
1.01292
1.01809
1.02027
1.0212
1.02268
1.02387
1.02403
1.02404
1.02365
1.02302
1.0234
1.02417
1.0254
1.02638
1.02721
1.02709
1.02638
1.02478
1.02409
1.02434
1.02516
1.02654
1.02763
1.02807
1.02775
1.02698
1.02647
1.02661
1.02716
1.02755
1.02815
1.02786
1.02753
1.02763
1.02813
1.02865
1.02863
1.02845
1.02838
1.02846
1.02867
1.02876
1.02878
1.02897
1.0293
1.02928
0.894806
0.894822
0.894823
0.894821
0.894807
0.894803
0.894819
0.89486
0.894889
0.894907
0.894922
0.894931
0.894966
0.89503
0.895048
0.895065
0.895099
0.895145
0.895184
0.895209
0.89527
0.895361
0.895396
0.895426
0.895482
0.895564
0.895655
0.895739
0.895803
0.895866
0.895947
0.896036
0.89612
0.8962
0.896265
0.89633
0.896397
0.896534
0.896524
0.896533
0.896553
0.896595
0.896691
0.896914
0.897427
0.898369
0.900171
0.902851
0.907612
0.914069
0.922581
0.934809
0.946376
0.960745
0.974556
0.985703
0.995597
1.00204
1.00898
1.01298
1.01415
1.01578
1.01676
1.01934
1.02235
1.02425
1.02463
1.02513
1.02501
1.02423
1.02304
1.02306
1.02317
1.02371
1.0246
1.02502
1.02507
1.02513
1.02514
1.02544
1.02572
1.02562
1.02534
1.02517
1.02536
1.02559
1.02599
1.02613
1.02612
1.02624
1.02645
1.02672
1.02658
1.02634
1.02635
1.02652
1.02673
1.02684
1.027
1.02695
0.89434
0.894379
0.894391
0.894401
0.894416
0.894442
0.894473
0.894516
0.894581
0.894647
0.894701
0.894748
0.894789
0.894828
0.894886
0.894947
0.894998
0.895048
0.895109
0.895194
0.895287
0.895367
0.89545
0.895549
0.895663
0.895794
0.895898
0.89597
0.896045
0.896149
0.896273
0.896387
0.896461
0.896513
0.896566
0.896622
0.896659
0.896681
0.896708
0.896741
0.896778
0.896801
0.89681
0.896835
0.896863
0.896914
0.896985
0.897104
0.897342
0.897873
0.898834
0.900695
0.90386
0.908911
0.917767
0.927822
0.941913
0.957802
0.970732
0.984907
0.997738
1.00752
1.01447
1.01997
1.02295
1.02443
1.02466
1.02377
1.02066
1.02075
1.02157
1.02358
1.02483
1.02532
1.02527
1.02482
1.02376
1.02338
1.02376
1.02485
1.02584
1.0258
1.02552
1.02496
1.02462
1.02481
1.02526
1.0256
1.02557
1.02546
1.02557
1.0258
1.02606
1.02599
1.02585
1.02581
1.02588
1.02597
1.02593
1.02597
0.894613
0.894638
0.894657
0.894686
0.894716
0.894746
0.89477
0.894827
0.894907
0.894955
0.894987
0.89502
0.89505
0.895098
0.895178
0.895203
0.895217
0.895238
0.895286
0.895374
0.895481
0.895595
0.8957
0.895773
0.895831
0.895891
0.895964
0.896048
0.896159
0.896276
0.896392
0.89651
0.896605
0.896677
0.896737
0.896788
0.896823
0.896841
0.896849
0.896861
0.896886
0.896904
0.896901
0.896898
0.896908
0.896926
0.896906
0.896873
0.896862
0.896837
0.896842
0.896878
0.897001
0.897263
0.897916
0.899287
0.901987
0.907241
0.915698
0.927498
0.942413
0.959193
0.976077
0.989651
0.9993
1.00739
1.01153
1.01486
1.01658
1.02225
1.02468
1.02652
1.02659
1.0264
1.02502
1.02326
1.02331
1.02374
1.025
1.02616
1.02614
1.02583
1.02522
1.02476
1.02479
1.02511
1.02549
1.0255
1.02539
1.02532
1.02542
1.02556
1.0258
1.02581
1.02587
1.02586
1.0258
1.02567
1.02551
1.02555
0.895433
0.895424
0.895424
0.895447
0.895475
0.895488
0.895508
0.895548
0.895563
0.89556
0.895561
0.895573
0.895604
0.895652
0.895665
0.895662
0.895665
0.895676
0.895718
0.895803
0.895909
0.89601
0.896064
0.896086
0.896103
0.896129
0.896173
0.896245
0.896345
0.896451
0.896545
0.896636
0.896726
0.896804
0.896867
0.896908
0.896922
0.896925
0.896922
0.896916
0.896926
0.896929
0.896916
0.896898
0.896866
0.896791
0.896677
0.89653
0.896312
0.896159
0.89615
0.896167
0.896223
0.896301
0.89633
0.896321
0.896368
0.896551
0.897156
0.898547
0.90212
0.908281
0.919309
0.933516
0.950206
0.969692
0.985786
1.00197
1.01395
1.02221
1.02477
1.02664
1.02631
1.02409
1.0212
1.02195
1.02369
1.02579
1.02695
1.02683
1.02617
1.02488
1.02493
1.02524
1.02577
1.0259
1.02579
1.02551
1.02531
1.02536
1.02548
1.02555
1.02569
1.02579
1.02604
1.02604
1.0259
1.02566
1.02538
1.02542
0.896167
0.896165
0.896164
0.896164
0.896163
0.89616
0.896154
0.896143
0.896123
0.896121
0.896126
0.896146
0.89616
0.896168
0.896167
0.896133
0.89611
0.896118
0.896152
0.896225
0.896269
0.89627
0.896258
0.896249
0.89625
0.896253
0.896265
0.896295
0.896342
0.89641
0.896503
0.896593
0.896659
0.896715
0.896778
0.896832
0.896846
0.89684
0.896822
0.896803
0.896764
0.896686
0.89662
0.896567
0.896486
0.89638
0.896255
0.896032
0.895729
0.89561
0.895607
0.895628
0.895703
0.895806
0.895843
0.895833
0.895796
0.895734
0.895639
0.895568
0.895625
0.89592
0.897031
0.899358
0.905148
0.913569
0.928951
0.946028
0.965972
0.984704
0.996551
1.00914
1.01267
1.0163
1.02052
1.0255
1.02772
1.02766
1.02733
1.02546
1.02434
1.02442
1.02526
1.0265
1.02667
1.02645
1.02571
1.0254
1.02543
1.02559
1.02557
1.02549
1.02552
1.02582
1.02628
1.02626
1.02607
1.02555
1.02533
1.0254
0.896552
0.896542
0.896527
0.896498
0.896456
0.896417
0.896379
0.896358
0.896358
0.89636
0.896362
0.896358
0.896337
0.896329
0.896327
0.896305
0.896267
0.896267
0.896299
0.896306
0.896301
0.896271
0.896238
0.896237
0.896248
0.896255
0.896249
0.896227
0.896211
0.896205
0.896213
0.89624
0.896275
0.896312
0.896358
0.89639
0.896382
0.896343
0.896305
0.896267
0.896196
0.896121
0.896072
0.896027
0.895977
0.895901
0.895747
0.895475
0.895231
0.895111
0.895091
0.895103
0.895155
0.895241
0.89531
0.895338
0.895333
0.8953
0.895238
0.895135
0.895008
0.894979
0.895001
0.895134
0.895572
0.896468
0.898903
0.903139
0.913486
0.926744
0.948236
0.969276
0.988431
1.00916
1.01901
1.02433
1.02637
1.02607
1.02265
1.02166
1.02274
1.02503
1.02672
1.02704
1.02665
1.0256
1.02535
1.02549
1.02578
1.0257
1.02549
1.02526
1.02536
1.02588
1.02627
1.02622
1.02585
1.02549
1.02537
1.02551
0.896578
0.896553
0.896508
0.896424
0.896368
0.896356
0.896359
0.896378
0.896385
0.896371
0.896318
0.896276
0.896277
0.896277
0.89627
0.896247
0.896223
0.896208
0.896181
0.896129
0.896052
0.895983
0.895955
0.895945
0.895942
0.895937
0.895916
0.895862
0.895801
0.895753
0.895679
0.895571
0.895533
0.895526
0.895534
0.895534
0.895503
0.895484
0.895469
0.895443
0.895424
0.89543
0.895426
0.895417
0.895392
0.895314
0.895149
0.89494
0.894792
0.894686
0.894638
0.894642
0.894662
0.894666
0.894672
0.8947
0.894759
0.894804
0.894814
0.894798
0.894716
0.894625
0.894614
0.894663
0.894832
0.895079
0.895321
0.895625
0.896421
0.898344
0.904211
0.913585
0.932164
0.952515
0.974788
0.993179
1.00343
1.01196
1.01451
1.02238
1.02513
1.02729
1.02719
1.02605
1.02456
1.02472
1.02521
1.02621
1.02617
1.02571
1.02493
1.02499
1.02553
1.02603
1.02609
1.02577
1.02544
1.02548
1.02556
1.02557
0.896568
0.896533
0.896483
0.896425
0.896377
0.896335
0.896303
0.896291
0.896271
0.896236
0.896184
0.896135
0.896097
0.896059
0.896023
0.895986
0.895968
0.895928
0.895812
0.895794
0.895802
0.895769
0.895683
0.895614
0.895576
0.895546
0.895505
0.895442
0.895365
0.895283
0.895181
0.89504
0.894964
0.894931
0.894901
0.894873
0.894856
0.894864
0.894869
0.894855
0.894856
0.894892
0.894963
0.895
0.895001
0.894961
0.894819
0.894635
0.89451
0.894415
0.894359
0.894359
0.894357
0.89434
0.894325
0.894336
0.894391
0.894457
0.894494
0.894492
0.894439
0.894331
0.894302
0.894336
0.894465
0.894691
0.894848
0.89487
0.89486
0.894862
0.895044
0.895879
0.898947
0.905258
0.919824
0.93893
0.963306
0.98711
1.00662
1.02024
1.02334
1.02591
1.02447
1.02072
1.0217
1.02371
1.02588
1.02613
1.02572
1.02444
1.02448
1.02513
1.02576
1.02574
1.02531
1.02481
1.02494
1.02543
1.0255
1.02542
0.896225
0.896126
0.896119
0.896134
0.89614
0.896135
0.896114
0.896087
0.896072
0.89606
0.896046
0.896028
0.896001
0.895975
0.895964
0.895956
0.895948
0.895893
0.895806
0.89581
0.895819
0.895771
0.895608
0.895438
0.89533
0.895261
0.895198
0.895132
0.895061
0.894981
0.894878
0.894768
0.8947
0.894644
0.894598
0.894574
0.894563
0.894575
0.894591
0.894589
0.894602
0.894666
0.894745
0.894773
0.894776
0.894752
0.894652
0.894527
0.894451
0.894397
0.894335
0.894289
0.894247
0.894198
0.894154
0.894145
0.894165
0.894255
0.894395
0.894457
0.894455
0.894407
0.894341
0.894328
0.894354
0.894463
0.894604
0.894647
0.894629
0.894543
0.894397
0.894334
0.894407
0.894766
0.896231
0.90025
0.911025
0.927866
0.95337
0.976975
0.993502
1.00869
1.01212
1.01856
1.02322
1.02613
1.02609
1.02495
1.02332
1.02353
1.02474
1.0258
1.02571
1.02482
1.02416
1.02429
1.02487
1.02533
1.02527
1.02513
0.894946
0.89493
0.894927
0.89492
0.894915
0.894915
0.89492
0.894968
0.895057
0.895075
0.89508
0.895088
0.8951
0.895121
0.895138
0.895156
0.895219
0.895278
0.895279
0.895292
0.895303
0.895294
0.895279
0.895252
0.895193
0.895107
0.895023
0.894953
0.894888
0.894808
0.894711
0.89463
0.89456
0.894475
0.894397
0.894361
0.894346
0.894347
0.894373
0.894418
0.89449
0.894558
0.89461
0.89467
0.894711
0.894714
0.894675
0.894618
0.894614
0.894616
0.8946
0.894552
0.894468
0.894297
0.894137
0.89406
0.894036
0.894072
0.894229
0.894311
0.894309
0.89429
0.894223
0.894156
0.894137
0.894157
0.894213
0.894229
0.894196
0.894119
0.894033
0.893961
0.893911
0.893842
0.893845
0.893952
0.894771
0.897346
0.905922
0.920219
0.945843
0.971543
0.995338
1.01595
1.02164
1.02473
1.02333
1.01925
1.02066
1.02375
1.02579
1.02566
1.02461
1.02315
1.02338
1.02434
1.02491
1.02487
1.02472
1.02474
0.894022
0.894017
0.894011
0.894006
0.894
0.893999
0.894012
0.894072
0.894174
0.894269
0.894349
0.894412
0.894452
0.8945
0.894545
0.894543
0.894558
0.894695
0.894741
0.894733
0.89473
0.894736
0.894779
0.894827
0.894827
0.894806
0.894767
0.89473
0.894694
0.894637
0.894549
0.894468
0.894405
0.894337
0.894267
0.894258
0.894268
0.894275
0.894287
0.894314
0.894342
0.894371
0.894421
0.894479
0.894516
0.89454
0.894557
0.894597
0.894658
0.894661
0.894661
0.894656
0.894591
0.894396
0.894119
0.894035
0.894028
0.894051
0.894186
0.894242
0.894222
0.894178
0.894099
0.894045
0.894014
0.893975
0.893926
0.893904
0.893863
0.893804
0.893775
0.89375
0.893697
0.893671
0.893676
0.893723
0.893691
0.893722
0.894116
0.895885
0.902154
0.915303
0.940034
0.965526
0.988712
1.00416
1.01109
1.01576
1.02429
1.0255
1.02528
1.02351
1.02221
1.02257
1.02392
1.0247
1.02457
1.02408
1.02409
1.02436
0.893605
0.893607
0.893615
0.893615
0.893618
0.893623
0.893641
0.893676
0.893729
0.893807
0.893886
0.894001
0.894134
0.894142
0.894133
0.894133
0.894146
0.894167
0.8942
0.894214
0.894213
0.894219
0.894267
0.894375
0.894468
0.894479
0.894457
0.894417
0.894386
0.894356
0.894303
0.894233
0.894173
0.894107
0.894057
0.894074
0.894164
0.894281
0.894296
0.894291
0.894291
0.894308
0.894312
0.894278
0.894239
0.894237
0.894259
0.894365
0.894582
0.894616
0.894609
0.894599
0.89457
0.894424
0.894209
0.894175
0.894176
0.894192
0.894287
0.894278
0.894213
0.894143
0.894144
0.894125
0.894044
0.893922
0.893807
0.89372
0.893663
0.893627
0.893632
0.893641
0.893613
0.893552
0.893489
0.89346
0.893461
0.893457
0.893377
0.893275
0.893485
0.894835
0.900003
0.9126
0.936689
0.963399
0.99415
1.01311
1.02236
1.02371
1.02067
1.01825
1.02001
1.02332
1.02487
1.02449
1.0235
1.02343
1.02379
1.02413
0.893307
0.893281
0.89326
0.893247
0.893241
0.893241
0.893243
0.893254
0.893277
0.893341
0.893396
0.893494
0.893679
0.893717
0.893724
0.893755
0.893764
0.893746
0.893739
0.89375
0.893784
0.893835
0.893891
0.893958
0.894069
0.894162
0.894163
0.894097
0.894027
0.894006
0.893978
0.89392
0.893834
0.893784
0.893793
0.893851
0.893966
0.89417
0.89434
0.894359
0.894365
0.894366
0.894336
0.894209
0.894088
0.894057
0.894057
0.894125
0.894359
0.894388
0.894366
0.894331
0.894287
0.894146
0.894067
0.894075
0.894093
0.894107
0.894147
0.894134
0.894057
0.89389
0.893852
0.893887
0.893896
0.893873
0.89376
0.893559
0.893471
0.893466
0.893494
0.893526
0.893512
0.893443
0.89334
0.893248
0.893187
0.89315
0.893078
0.892979
0.892876
0.89288
0.893039
0.894311
0.898484
0.912033
0.934507
0.963505
0.9902
1.00206
1.01038
1.01635
1.02387
1.02477
1.02426
1.02251
1.02258
1.02327
1.02395
1.02383
0.893163
0.893151
0.893133
0.893126
0.893121
0.893102
0.893058
0.893051
0.89307
0.893132
0.8932
0.893268
0.893409
0.893484
0.893482
0.893461
0.893464
0.893497
0.893554
0.893601
0.893624
0.893635
0.893641
0.893657
0.893718
0.893811
0.893824
0.89379
0.893708
0.893627
0.893587
0.893551
0.893505
0.893496
0.893524
0.893602
0.893721
0.89397
0.894244
0.894273
0.894276
0.894286
0.894301
0.894269
0.89412
0.894006
0.893969
0.893985
0.894106
0.894105
0.894036
0.893887
0.893864
0.893836
0.893711
0.893687
0.893741
0.893809
0.893806
0.893755
0.893554
0.893362
0.893328
0.893393
0.89364
0.893679
0.893624
0.893391
0.893262
0.893275
0.893348
0.893426
0.893433
0.893392
0.893283
0.893138
0.893038
0.892977
0.89292
0.89284
0.892768
0.892767
0.892837
0.892833
0.892958
0.894117
0.898097
0.91275
0.935233
0.964677
1.00014
1.01404
1.02307
1.02268
1.01929
1.01972
1.02168
1.02397
1.02379
1.02314
0.893016
0.893012
0.892996
0.89298
0.892993
0.893008
0.893007
0.892999
0.892974
0.893003
0.893148
0.893253
0.893294
0.893316
0.893318
0.893319
0.893354
0.893468
0.893546
0.893571
0.893573
0.893545
0.893447
0.893413
0.893422
0.893426
0.893429
0.893471
0.893474
0.893401
0.893333
0.893301
0.893273
0.893265
0.893286
0.893375
0.893585
0.893934
0.894075
0.894071
0.894024
0.893998
0.894031
0.894059
0.893966
0.893741
0.893631
0.893619
0.893725
0.893772
0.893714
0.893416
0.893149
0.89315
0.893131
0.893122
0.893263
0.893426
0.893436
0.893372
0.893124
0.89293
0.892877
0.892954
0.893304
0.893452
0.893404
0.893188
0.893006
0.893011
0.893071
0.893154
0.893199
0.893176
0.893117
0.893014
0.892937
0.892885
0.892892
0.892862
0.892766
0.892737
0.892702
0.892653
0.892593
0.89248
0.892577
0.893819
0.898051
0.914084
0.938492
0.967698
0.998362
1.00454
1.01278
1.01917
1.024
1.02392
1.02222
1.02221
0.892801
0.892869
0.892881
0.892889
0.8929
0.892921
0.892959
0.893018
0.893104
0.893264
0.893375
0.893414
0.893426
0.893424
0.893422
0.893448
0.89361
0.893786
0.893799
0.893776
0.893709
0.893688
0.893666
0.893607
0.893534
0.893503
0.89348
0.893427
0.893282
0.893081
0.892989
0.89293
0.892835
0.89275
0.892774
0.892913
0.893119
0.893328
0.893487
0.893559
0.893574
0.893608
0.893748
0.893812
0.893725
0.893468
0.893171
0.893032
0.89308
0.893244
0.893264
0.89306
0.892766
0.892702
0.892596
0.892535
0.892741
0.893132
0.89319
0.893121
0.892918
0.892788
0.892724
0.892778
0.89308
0.893245
0.893199
0.892996
0.892769
0.892753
0.892782
0.892793
0.89275
0.892658
0.892636
0.892665
0.892705
0.892755
0.89287
0.892892
0.892856
0.892808
0.892717
0.892573
0.892397
0.892336
0.8922
0.892177
0.892352
0.893949
0.899197
0.917818
0.944165
0.976973
1.00872
1.01755
1.02282
1.01976
1.01893
1.02108
0.892168
0.892225
0.892311
0.892397
0.892444
0.892451
0.892461
0.892509
0.892582
0.892651
0.892739
0.892838
0.892857
0.892852
0.892843
0.892878
0.892956
0.893012
0.893064
0.893076
0.893069
0.893054
0.893018
0.892939
0.892856
0.892811
0.892782
0.892731
0.892577
0.892415
0.892372
0.892333
0.892206
0.892048
0.891934
0.891807
0.891656
0.891621
0.891676
0.891751
0.89184
0.892046
0.892471
0.892912
0.892976
0.89285
0.892528
0.892362
0.89244
0.892769
0.892949
0.892925
0.89281
0.892693
0.892401
0.892153
0.892254
0.892693
0.89288
0.892856
0.892799
0.892741
0.892676
0.892711
0.892893
0.89301
0.892958
0.89275
0.89254
0.892532
0.892569
0.892559
0.892462
0.892377
0.892391
0.892473
0.892577
0.892693
0.892849
0.892868
0.892864
0.892824
0.892698
0.892518
0.892381
0.892274
0.892118
0.892119
0.892194
0.892291
0.89254
0.894512
0.901338
0.923704
0.952863
0.981152
1.00329
1.00841
1.01856
1.02263
0.888944
0.888934
0.88892
0.888883
0.888831
0.888795
0.888784
0.888785
0.888824
0.888894
0.888951
0.888993
0.889072
0.889213
0.889399
0.889563
0.889581
0.889588
0.889622
0.889708
0.889868
0.890101
0.890334
0.890567
0.890803
0.890808
0.890778
0.890742
0.890773
0.890874
0.890937
0.890907
0.89074
0.890722
0.890832
0.890917
0.890789
0.890429
0.890301
0.890323
0.890452
0.890795
0.891247
0.891624
0.891723
0.89162
0.891501
0.891549
0.891803
0.89237
0.892783
0.892806
0.892725
0.892591
0.892295
0.891914
0.891874
0.892075
0.892421
0.892488
0.892473
0.89245
0.892438
0.892556
0.892659
0.892648
0.892435
0.892134
0.892079
0.892193
0.892425
0.892497
0.892461
0.892423
0.892431
0.892497
0.892574
0.892674
0.892767
0.892772
0.89272
0.892523
0.892296
0.8921
0.892119
0.892163
0.892219
0.892327
0.892437
0.89244
0.892457
0.892399
0.892681
0.895535
0.905397
0.931087
0.962358
0.995532
1.01562
1.02151
0.886778
0.886697
0.88644
0.885893
0.8856
0.885519
0.885516
0.885562
0.885555
0.88548
0.885446
0.885439
0.885473
0.885558
0.885693
0.885917
0.886135
0.88625
0.886334
0.886453
0.886641
0.886885
0.887173
0.887635
0.888349
0.888556
0.888555
0.88854
0.888603
0.888891
0.889198
0.889168
0.889015
0.889009
0.889113
0.889309
0.889319
0.889118
0.88872
0.888571
0.88861
0.888931
0.88956
0.890051
0.890102
0.889996
0.889865
0.889865
0.890028
0.890502
0.891209
0.891735
0.891808
0.891778
0.89162
0.891246
0.89094
0.89086
0.890883
0.890967
0.891053
0.891201
0.891536
0.891873
0.89197
0.891861
0.891462
0.891278
0.891341
0.891705
0.892189
0.892417
0.892492
0.892496
0.892451
0.892435
0.892455
0.892525
0.892559
0.892472
0.892248
0.891933
0.891916
0.891946
0.892075
0.892288
0.892471
0.89258
0.892575
0.892529
0.892445
0.892236
0.892017
0.89206
0.892856
0.897195
0.911654
0.941781
0.970468
1.00165
0.887348
0.88745
0.887544
0.887549
0.887452
0.887026
0.886721
0.886678
0.886676
0.886612
0.886422
0.886354
0.886428
0.886707
0.887041
0.887169
0.887142
0.88699
0.886924
0.886929
0.886996
0.887198
0.887463
0.887711
0.887987
0.888514
0.888889
0.888883
0.888909
0.889319
0.889811
0.889797
0.889607
0.889533
0.889585
0.889893
0.890158
0.890202
0.890158
0.889802
0.888917
0.888365
0.888461
0.888961
0.88915
0.8891
0.888899
0.888553
0.888459
0.888442
0.888243
0.88804
0.888055
0.888283
0.888764
0.888889
0.888896
0.888799
0.888749
0.888764
0.888704
0.8887
0.888887
0.889439
0.890247
0.890864
0.890989
0.890993
0.891084
0.89134
0.891673
0.89201
0.892213
0.892232
0.892172
0.892074
0.892023
0.891983
0.891881
0.891653
0.891516
0.891552
0.891681
0.891947
0.892222
0.892405
0.892568
0.892598
0.892582
0.892518
0.892282
0.892014
0.891919
0.891933
0.892005
0.892263
0.893764
0.901169
0.918654
0.96911
0.894275
0.894755
0.895235
0.895337
0.895316
0.894982
0.894318
0.894207
0.894244
0.894034
0.893027
0.892061
0.892027
0.892417
0.892606
0.892468
0.891836
0.890888
0.890105
0.889445
0.888927
0.888903
0.889028
0.889039
0.889025
0.889184
0.889755
0.889962
0.889801
0.889494
0.889473
0.889496
0.889296
0.888915
0.888777
0.888803
0.888929
0.888968
0.888893
0.88815
0.886509
0.886098
0.886201
0.886831
0.888109
0.888716
0.888753
0.888572
0.888134
0.887415
0.886473
0.885848
0.885834
0.886135
0.887
0.888002
0.888424
0.888391
0.888093
0.887651
0.887304
0.887179
0.887312
0.887749
0.888398
0.88905
0.889446
0.889596
0.889685
0.889692
0.88971
0.889844
0.890129
0.890257
0.890245
0.890275
0.890407
0.890703
0.890949
0.891085
0.891248
0.891566
0.891852
0.892107
0.892254
0.892362
0.892502
0.892511
0.892437
0.892182
0.891873
0.891808
0.891871
0.892005
0.892227
0.892393
0.892406
0.892767
0.894969
0.919987
0.899098
0.899282
0.899478
0.899581
0.899598
0.899588
0.899545
0.899533
0.899531
0.899374
0.898658
0.89834
0.898482
0.898854
0.898897
0.898645
0.898003
0.897074
0.895899
0.894495
0.893581
0.893629
0.894092
0.894372
0.894229
0.893745
0.893599
0.893616
0.893567
0.892928
0.891942
0.891545
0.891056
0.89004
0.889592
0.88956
0.889663
0.889764
0.88964
0.888893
0.887725
0.887426
0.887539
0.888111
0.889117
0.890352
0.891655
0.89207
0.891861
0.891013
0.889284
0.88739
0.886914
0.88709
0.887635
0.888445
0.889505
0.890463
0.890733
0.890694
0.890501
0.889919
0.888951
0.888527
0.888587
0.888842
0.889159
0.889235
0.889094
0.888599
0.888207
0.888204
0.888333
0.88847
0.888559
0.888727
0.889056
0.889556
0.890099
0.890574
0.890994
0.891331
0.891684
0.891873
0.891997
0.891982
0.891935
0.89183
0.891631
0.891475
0.891502
0.891703
0.89198
0.892238
0.892448
0.892441
0.892385
0.892184
0.892203
0.897051
0.912378
0.912558
0.912612
0.912549
0.911819
0.91131
0.911333
0.911269
0.910842
0.909772
0.907805
0.90714
0.907203
0.907125
0.906658
0.906576
0.907134
0.907557
0.907152
0.906809
0.906825
0.907596
0.908224
0.908071
0.907454
0.907382
0.907612
0.907932
0.90781
0.906989
0.906263
0.906259
0.906185
0.905342
0.903796
0.903011
0.902657
0.902395
0.902191
0.901932
0.901429
0.899667
0.898102
0.897861
0.897606
0.897536
0.89775
0.898299
0.898567
0.898457
0.897742
0.895832
0.894703
0.894273
0.893581
0.892579
0.89216
0.892221
0.892393
0.892426
0.892252
0.891579
0.890612
0.889837
0.88915
0.888724
0.888419
0.888118
0.888003
0.887986
0.887952
0.887868
0.88788
0.88793
0.888052
0.888328
0.888758
0.889132
0.889406
0.889548
0.889715
0.889801
0.889835
0.889805
0.889927
0.890187
0.890399
0.890586
0.890758
0.891042
0.891371
0.891699
0.891995
0.892244
0.892366
0.892324
0.892084
0.891758
0.891764
0.892439
0.931681
0.931827
0.931954
0.931966
0.931272
0.930374
0.930334
0.930333
0.929644
0.929174
0.929239
0.929122
0.928009
0.926888
0.92688
0.926759
0.925932
0.924362
0.923044
0.922896
0.923052
0.923017
0.92271
0.921179
0.918549
0.918033
0.917984
0.917573
0.91703
0.917019
0.917222
0.917106
0.916963
0.917144
0.917207
0.917052
0.917049
0.917128
0.91698
0.91626
0.915118
0.913679
0.912068
0.910117
0.908097
0.906601
0.905171
0.904278
0.904274
0.904395
0.903862
0.90309
0.902908
0.902885
0.9027
0.901704
0.8993
0.896262
0.894511
0.89393
0.893746
0.893836
0.894525
0.895171
0.894963
0.893364
0.890709
0.889722
0.889867
0.89066
0.891505
0.891356
0.8909
0.89058
0.890585
0.890762
0.891026
0.891107
0.890965
0.890543
0.890134
0.889777
0.889353
0.888996
0.888979
0.889085
0.889309
0.889515
0.889774
0.890091
0.890794
0.891406
0.891777
0.891961
0.891863
0.891551
0.891272
0.891303
0.89159
0.892094
0.950695
0.950041
0.949657
0.949515
0.949616
0.950363
0.950843
0.950882
0.950796
0.950466
0.950123
0.949611
0.948691
0.947951
0.947768
0.947762
0.948054
0.948158
0.947908
0.947039
0.9466
0.946717
0.94673
0.945376
0.943531
0.943553
0.943374
0.941577
0.94005
0.939498
0.93869
0.937873
0.937561
0.937067
0.935898
0.935441
0.935408
0.935261
0.934993
0.93448
0.933579
0.933377
0.933231
0.932638
0.931015
0.929571
0.928001
0.925611
0.924968
0.925008
0.924587
0.922292
0.91963
0.919227
0.919339
0.918614
0.916424
0.914907
0.914128
0.912724
0.90997
0.907957
0.90786
0.908149
0.907923
0.906378
0.9032
0.900438
0.89945
0.89895
0.898272
0.896988
0.89541
0.894195
0.893309
0.892626
0.891881
0.891311
0.890622
0.889884
0.889527
0.889321
0.88909
0.888951
0.88896
0.889066
0.8895
0.890169
0.890533
0.890516
0.890319
0.890264
0.890112
0.890177
0.890271
0.890317
0.890492
0.89086
0.891489
0.892075
0.974422
0.97419
0.9742
0.974073
0.973465
0.972903
0.972407
0.972091
0.972135
0.972257
0.972144
0.971035
0.969761
0.969722
0.969658
0.968825
0.968076
0.968031
0.96793
0.967689
0.967176
0.966555
0.966151
0.965582
0.964452
0.964242
0.964292
0.964026
0.963014
0.961123
0.960281
0.960361
0.960466
0.960153
0.958774
0.957413
0.956513
0.955437
0.95472
0.954056
0.953195
0.952104
0.950987
0.949774
0.94831
0.947038
0.945829
0.943876
0.942797
0.942968
0.943108
0.942004
0.939258
0.937702
0.936305
0.933131
0.929202
0.928561
0.928808
0.928369
0.926981
0.92499
0.922262
0.919566
0.917275
0.915789
0.914742
0.913346
0.910887
0.908249
0.906268
0.904504
0.902212
0.900258
0.89881
0.897672
0.896346
0.894735
0.893614
0.892443
0.891752
0.891856
0.89209
0.891743
0.891573
0.89159
0.891997
0.892187
0.891914
0.891271
0.890656
0.889995
0.889677
0.889713
0.889694
0.889734
0.889909
0.890279
0.890967
0.891743
0.996355
0.996383
0.996357
0.996264
0.995947
0.995711
0.995316
0.994731
0.994645
0.994434
0.993524
0.992728
0.992616
0.992835
0.992958
0.992626
0.991643
0.99067
0.990129
0.9901
0.99006
0.989933
0.989375
0.988418
0.987759
0.987339
0.986698
0.985736
0.984737
0.983893
0.983112
0.982182
0.981423
0.980877
0.980337
0.97965
0.978384
0.977216
0.976385
0.975876
0.975314
0.97431
0.973015
0.971814
0.970257
0.968515
0.967647
0.966409
0.964973
0.963771
0.962814
0.961739
0.959601
0.958342
0.957615
0.955935
0.953603
0.951147
0.947825
0.946328
0.946271
0.945656
0.943419
0.941063
0.939056
0.936432
0.934112
0.932691
0.931473
0.929116
0.926619
0.924891
0.922834
0.920208
0.917594
0.915331
0.913151
0.910551
0.90817
0.90573
0.903026
0.900694
0.898963
0.89706
0.895332
0.893714
0.893004
0.892069
0.891151
0.890363
0.89008
0.889873
0.889626
0.889718
0.890038
0.890539
0.890829
0.890883
0.890676
0.890649
1.02064
1.02045
1.02042
1.02028
1.01944
1.01876
1.01878
1.01884
1.0185
1.01802
1.01761
1.01692
1.01608
1.01563
1.01573
1.0158
1.01512
1.01404
1.01349
1.01308
1.01274
1.01246
1.01213
1.01145
1.01076
1.01024
1.00965
1.00889
1.008
1.007
1.0061
1.00534
1.00443
1.00351
1.0028
1.00209
1.0013
0.999438
0.997699
0.997591
0.997545
0.996989
0.995572
0.994027
0.992563
0.99103
0.989575
0.987995
0.986048
0.984952
0.984265
0.983387
0.981955
0.979722
0.97731
0.975393
0.973828
0.971862
0.969613
0.967791
0.966453
0.964826
0.961267
0.958589
0.956936
0.955617
0.953923
0.950412
0.946941
0.944459
0.942226
0.939875
0.937462
0.934657
0.931745
0.928713
0.925719
0.922775
0.920047
0.917627
0.914582
0.911096
0.907846
0.905396
0.902884
0.900041
0.897711
0.895645
0.894036
0.892741
0.892061
0.892145
0.892818
0.893159
0.893113
0.89288
0.892353
0.891725
0.891151
0.890579
1.04441
1.04342
1.04303
1.04301
1.04329
1.04349
1.04333
1.04236
1.04179
1.04178
1.04138
1.04037
1.04008
1.0399
1.03961
1.03857
1.03803
1.03804
1.03791
1.03702
1.0355
1.03488
1.03473
1.03455
1.03418
1.03362
1.03269
1.03134
1.03069
1.03024
1.02963
1.0288
1.02778
1.02672
1.02571
1.02466
1.0238
1.02295
1.02171
1.02008
1.01917
1.01849
1.01745
1.01591
1.01437
1.01287
1.01151
1.01027
1.00898
1.00756
1.00601
1.00427
1.0026
1.00078
0.99877
0.996927
0.995288
0.993598
0.990668
0.988082
0.986866
0.985616
0.983337
0.98059
0.977323
0.974908
0.973467
0.971849
0.968796
0.965089
0.962367
0.960307
0.958056
0.955323
0.952329
0.949283
0.946491
0.943683
0.940719
0.93806
0.935267