/*--------------------------------*- C++ -*----------------------------------*\
  =========                 |
  \\      /  F ield         | OpenFOAM: The Open Source CFD Toolbox
   \\    /   O peration     | Website:  https://openfoam.org
    \\  /    A nd           | Version:  7
     \\/     M anipulation  |
\*---------------------------------------------------------------------------*/
FoamFile
{
    version     2.0;
    format      ascii;
    class       volScalarField;
    location    "2";
    object      T;
}
// * * * * * * * * * * * * * * * * * * * * * * * * * * * * * * * * * * * * * //

dimensions      [0 0 0 1 0 0 0];

internalField   nonuniform List<scalar> 
8400
(
0.882251
1.05935
1.15626
1.20629
1.24125
1.2546
1.27053
1.28302
1.28683
1.3019
1.30025
1.29604
1.29919
1.30081
1.3097
1.35015
1.39042
1.3953
1.39377
1.38911
1.37232
1.31303
1.28132
1.28943
1.31085
1.33503
1.34169
1.33708
1.30098
1.21956
0.49291
0.482121
0.497188
0.557095
0.650879
0.789074
0.901659
0.999874
1.09851
1.16944
1.23209
1.28006
1.33611
1.39057
1.43731
1.51793
1.52465
1.5209
1.50701
1.4966
1.47741
1.42056
1.37105
1.3669
1.37172
1.36953
1.36788
1.35428
1.31801
1.25779
0.460199
0.453896
0.444871
0.435888
0.426452
0.417307
0.410827
0.406363
0.416021
0.450766
0.55381
0.695736
0.824037
0.991357
1.12903
1.28878
1.46833
1.57085
1.58166
1.59101
1.58943
1.54275
1.4778
1.44301
1.41199
1.39612
1.38005
1.34973
1.31474
1.27406
0.415694
0.411289
0.407102
0.404508
0.402309
0.400177
0.398588
0.398525
0.39892
0.399564
0.399825
0.399141
0.398718
0.399559
0.406597
0.51814
0.872933
1.28352
1.50214
1.62059
1.65375
1.62643
1.57659
1.52612
1.47638
1.44264
1.40021
1.3414
1.30893
1.26928
0.398588
0.397025
0.395996
0.395875
0.396172
0.396936
0.397611
0.398598
0.399498
0.401163
0.405434
0.406593
0.407851
0.41427
0.424241
0.435382
0.438701
0.493565
0.774784
1.12188
1.43784
1.59054
1.60213
1.58601
1.55365
1.50448
1.42408
1.32948
1.28082
1.24076
0.397342
0.397159
0.397974
0.400584
0.405299
0.410952
0.415732
0.418176
0.419679
0.421834
0.42608
0.432181
0.440005
0.447556
0.45503
0.462592
0.464623
0.463334
0.463549
0.473962
0.686969
1.09656
1.42761
1.4497
1.42713
1.38532
1.341
1.2579
1.21986
1.18945
0.416212
0.419988
0.426123
0.433052
0.440161
0.446854
0.448076
0.446796
0.446395
0.447734
0.451963
0.458716
0.466401
0.469858
0.471844
0.474628
0.476052
0.476516
0.479732
0.487981
0.497714
0.515888
0.701765
0.937188
1.02027
1.00528
1.01034
1.03799
1.08872
1.12894
0.453419
0.455889
0.460497
0.4661
0.473142
0.479908
0.480225
0.480031
0.481375
0.485254
0.489777
0.494359
0.494324
0.492376
0.492206
0.495867
0.505249
0.516503
0.526064
0.53312
0.539721
0.54373
0.546824
0.553222
0.569469
0.602492
0.636215
0.689102
0.810944
1.04008
0.489059
0.490691
0.495055
0.502186
0.511869
0.519879
0.520812
0.519982
0.520119
0.521185
0.523954
0.527084
0.528104
0.530503
0.535899
0.543536
0.549952
0.553886
0.557543
0.558423
0.559043
0.561932
0.567657
0.577054
0.591288
0.614458
0.649792
0.685587
0.700125
0.847337
0.53129
0.531716
0.534069
0.539666
0.550057
0.556325
0.556326
0.553387
0.551509
0.552088
0.554764
0.559147
0.565348
0.57088
0.5735
0.575436
0.575368
0.573993
0.573849
0.575054
0.577236
0.581708
0.589953
0.602498
0.615914
0.633595
0.659634
0.689874
0.703832
0.729119
0.581521
0.581655
0.582401
0.585545
0.592285
0.600038
0.602939
0.602712
0.601458
0.601415
0.602255
0.604838
0.606986
0.606413
0.604027
0.604034
0.605355
0.607513
0.610571
0.616415
0.624871
0.631463
0.636118
0.642548
0.655113
0.674471
0.702153
0.722327
0.731552
0.743381
0.63442
0.634217
0.634412
0.635388
0.638191
0.643349
0.646864
0.647373
0.645527
0.642002
0.641395
0.642522
0.645213
0.64711
0.649005
0.650974
0.652652
0.65419
0.655615
0.656931
0.659036
0.660963
0.664542
0.672483
0.684817
0.701979
0.724328
0.748502
0.759694
0.772483
0.692718
0.688029
0.687416
0.687803
0.689223
0.692214
0.695636
0.697185
0.69657
0.692642
0.689315
0.689403
0.690727
0.690916
0.689526
0.687853
0.687327
0.687026
0.686155
0.685894
0.686663
0.69014
0.697574
0.706464
0.714326
0.723912
0.737823
0.755292
0.76864
0.786624
0.754976
0.748658
0.745531
0.744837
0.745182
0.746409
0.746533
0.746401
0.746397
0.745355
0.739802
0.736354
0.736776
0.737509
0.736452
0.73318
0.73262
0.733051
0.733475
0.734172
0.735343
0.737934
0.741502
0.746477
0.752552
0.759385
0.768228
0.775321
0.779361
0.792044
0.813884
0.806995
0.804551
0.80479
0.806069
0.805582
0.802786
0.798733
0.795561
0.794787
0.794
0.791451
0.787475
0.785505
0.784176
0.780375
0.777161
0.776914
0.776825
0.776121
0.776121
0.776315
0.777484
0.78206
0.786699
0.791062
0.797993
0.80864
0.816984
0.829814
0.873632
0.866572
0.86602
0.867166
0.865815
0.86028
0.85842
0.857722
0.85407
0.847595
0.846611
0.846039
0.842143
0.834999
0.832871
0.831501
0.828323
0.824539
0.822456
0.821053
0.819693
0.819315
0.819646
0.821937
0.821999
0.822019
0.82341
0.827723
0.833913
0.849664
0.938753
0.934056
0.930756
0.927894
0.925995
0.923068
0.919733
0.915502
0.91136
0.906643
0.900824
0.899312
0.897328
0.891068
0.884599
0.882224
0.879499
0.875383
0.871155
0.867339
0.863844
0.860864
0.859775
0.860571
0.859945
0.857042
0.857053
0.857978
0.860513
0.871946
1.01098
1.00661
1.00264
0.995954
0.991434
0.989905
0.986619
0.981422
0.973053
0.96829
0.964735
0.960267
0.955458
0.949274
0.94172
0.93691
0.932682
0.927014
0.921315
0.916284
0.910262
0.906314
0.904421
0.902551
0.900181
0.895549
0.89271
0.894205
0.898687
0.909727
1.0865
1.08247
1.07899
1.07296
1.06719
1.06316
1.05877
1.05237
1.04591
1.0402
1.03343
1.02665
1.02062
1.01407
1.00557
0.99838
0.99251
0.985362
0.977621
0.971202
0.964357
0.959053
0.955575
0.951637
0.947583
0.943513
0.939805
0.936566
0.937348
0.941971
1.13408
1.13131
1.12888
1.12668
1.12397
1.12104
1.11784
1.11383
1.10885
1.104
1.09913
1.09331
1.08708
1.08074
1.07335
1.06573
1.05888
1.05128
1.04284
1.03554
1.02879
1.02198
1.01611
1.01001
1.00368
0.99804
0.993578
0.989432
0.986948
0.982626
1.1381
1.13712
1.13601
1.13442
1.13318
1.13214
1.1307
1.12881
1.12646
1.12423
1.12185
1.11884
1.11566
1.11212
1.10789
1.10349
1.09893
1.09351
1.08715
1.08083
1.07462
1.06784
1.06085
1.05394
1.04647
1.03928
1.03298
1.02702
1.02202
1.01298
1.12162
1.12324
1.12393
1.1233
1.12235
1.12211
1.12171
1.12135
1.12086
1.11982
1.11832
1.11607
1.11401
1.11179
1.10834
1.10428
1.10048
1.09624
1.0912
1.08566
1.07993
1.07379
1.06698
1.05994
1.05265
1.04501
1.03758
1.03032
1.02345
1.01337
1.06332
1.06545
1.06804
1.07067
1.07244
1.07417
1.07645
1.07851
1.07993
1.08118
1.08254
1.08365
1.08449
1.08447
1.08406
1.08285
1.08142
1.07944
1.07657
1.07293
1.06859
1.0636
1.05795
1.05155
1.04487
1.03815
1.03132
1.02446
1.01807
1.00935
1.01009
1.01091
1.01184
1.01302
1.01432
1.01557
1.01699
1.01854
1.02018
1.02187
1.02361
1.02544
1.02721
1.02897
1.03051
1.03175
1.03279
1.03339
1.03341
1.03294
1.03174
1.02992
1.0275
1.02454
1.0212
1.01759
1.01381
1.01
1.00659
1.00278
1.00031
1.00035
1.0004
1.00047
1.00055
1.00064
1.00075
1.00088
1.00104
1.00123
1.00144
1.00169
1.00196
1.00228
1.00262
1.00297
1.00332
1.00365
1.00392
1.00411
1.00416
1.0041
1.00392
1.00359
1.00314
1.00256
1.00191
1.00127
1.00072
1.00024
1
1
1
1
1
1.00001
1.00001
1.00001
1.00001
1.00001
1.00002
1.00002
1.00003
1.00003
1.00004
1.00005
1.00006
1.00007
1.00009
1.0001
1.00011
1.00011
1.00011
1.00011
1.0001
1.00008
1.00006
1.00004
1.00002
1
1
1
1
1
1
1
1
1
1
1
1
1
1
1
1
1
1
1
1
1
1
1
1
1
1
1
1
1
1
1
1
1
1
1
1
1
1
1
1
1
1
1
1
1
1
1
1
1
1
1
1
1
1
1
1
1
1
1
1
1
1
1
1
1
1
1
1
1
1
1
1
1
1
1
1
1
1
1
1
1
1
1
1
1
1
1
1
1
1
1
1
1
1
1
1
1
1
1
1
1
1
1
1
1
1
1
1
1
1
1
1
1
1
1
1
1
1
1
1
1
0.511009
0.500078
0.465616
0.419606
0.400697
0.402216
0.414197
0.452001
0.488637
0.532122
0.58329
0.640695
0.70163
0.759471
0.820221
0.88479
0.948089
1.01879
1.09372
1.13699
1.13973
1.12
1.05966
1.0088
1.00028
1
1
1
1
1
0.516103
0.498154
0.458251
0.413712
0.400307
0.409813
0.423383
0.463536
0.504746
0.550291
0.602797
0.657728
0.716035
0.773287
0.835774
0.899748
0.965639
1.03746
1.10881
1.14182
1.14144
1.11593
1.05
1.0057
1.00013
1
1
1
1
1
0.518503
0.497964
0.457956
0.412794
0.400327
0.41194
0.432113
0.471548
0.515059
0.558747
0.610761
0.664203
0.722333
0.783245
0.847159
0.910382
0.978045
1.05223
1.1199
1.1447
1.14217
1.11125
1.04144
1.00387
1.00007
1
1
1
1
1
0.520262
0.498696
0.458635
0.41233
0.399062
0.412202
0.437898
0.475329
0.519128
0.56313
0.615677
0.670614
0.727718
0.792139
0.856809
0.921648
0.992642
1.06839
1.1301
1.14678
1.14181
1.10303
1.03314
1.0025
1.00004
1
1
1
1
1
0.522507
0.501012
0.459769
0.411616
0.397217
0.41144
0.439763
0.47686
0.520834
0.56691
0.619566
0.6781
0.739863
0.805866
0.869131
0.938574
1.01011
1.08521
1.13863
1.14843
1.14041
1.09462
1.02599
1.00157
1.00002
1
1
1
1
1
0.525348
0.504517
0.460117
0.408976
0.393438
0.410349
0.439936
0.479802
0.524044
0.579218
0.638878
0.701511
0.765438
0.828033
0.894774
0.962694
1.03035
1.1011
1.14519
1.15014
1.1386
1.08561
1.01933
1.00093
1.00001
1
1
1
1
1
0.529174
0.505952
0.456368
0.403405
0.390687
0.410866
0.441552
0.491908
0.544661
0.599423
0.656865
0.718527
0.780544
0.844896
0.913065
0.97836
1.04875
1.11572
1.14989
1.1516
1.13447
1.07452
1.01371
1.00053
1.00001
1
1
1
1
1
0.532988
0.505929
0.447738
0.398042
0.390289
0.419228
0.455651
0.506615
0.555764
0.606559
0.665444
0.727784
0.792773
0.859909
0.925555
0.992955
1.06619
1.12895
1.15298
1.1523
1.12966
1.06333
1.00944
1.00029
1
1
1
1
1
1
0.535327
0.505171
0.440107
0.396141
0.394469
0.428645
0.465319
0.511716
0.558489
0.609977
0.671344
0.737511
0.803766
0.871535
0.939062
1.01095
1.084
1.13987
1.15543
1.15228
1.12275
1.05197
1.00613
1.00015
1
1
1
1
1
1
0.535755
0.502145
0.435058
0.395967
0.399486
0.431562
0.468889
0.512374
0.560795
0.613482
0.679729
0.750517
0.820749
0.888225
0.959844
1.03347
1.10192
1.14848
1.15761
1.15165
1.11346
1.04117
1.00381
1.00008
1
1
1
1
1
1
0.533007
0.496672
0.432008
0.395948
0.400537
0.431082
0.469367
0.512555
0.567337
0.637906
0.709419
0.778572
0.847505
0.917442
0.988065
1.05532
1.11936
1.15498
1.15924
1.1509
1.10421
1.03127
1.00225
1.00004
1
1
1
1
1
1
0.526501
0.48968
0.429554
0.39561
0.399409
0.429203
0.469212
0.531878
0.598808
0.665877
0.731187
0.798686
0.867749
0.937787
1.00574
1.0751
1.13429
1.15929
1.16026
1.14679
1.09171
1.02215
1.00123
1.00002
1
1
1
1
1
1
0.520574
0.48655
0.429183
0.394371
0.398461
0.433686
0.487581
0.557253
0.616864
0.67622
0.743492
0.813709
0.883483
0.953224
1.02372
1.09382
1.14562
1.16214
1.16092
1.14087
1.07856
1.01542
1.00066
1.00001
1
1
1
1
1
1
0.516657
0.487262
0.431477
0.393068
0.401656
0.450156
0.504728
0.567447
0.621689
0.681842
0.752711
0.827246
0.898238
0.970323
1.04511
1.11181
1.15444
1.16404
1.1611
1.13534
1.0657
1.00993
1.00033
1
1
1
1
1
1
1
0.515418
0.490514
0.433111
0.39209
0.412837
0.461817
0.50879
0.568538
0.624972
0.690383
0.771171
0.84579
0.921602
0.999014
1.07058
1.12967
1.16102
1.16497
1.16015
1.12495
1.05045
1.00578
1.00015
1
1
1
1
1
1
1
0.51677
0.492609
0.43485
0.394339
0.419442
0.464824
0.51122
0.566645
0.637592
0.724957
0.800226
0.876673
0.955468
1.02733
1.09295
1.14505
1.16526
1.16561
1.15686
1.11114
1.03776
1.00337
1.00007
1
1
1
1
1
1
1
0.525062
0.493275
0.433999
0.395479
0.421829
0.464075
0.516825
0.592805
0.679775
0.751679
0.826162
0.905785
0.979595
1.04819
1.11235
1.15595
1.16815
1.16712
1.15147
1.09913
1.02719
1.00179
1.00003
1
1
1
1
1
1
1
0.534442
0.490516
0.427822
0.394954
0.423224
0.473892
0.541349
0.630042
0.701281
0.76981
0.849991
0.928758
0.999735
1.07023
1.13068
1.1638
1.17043
1.16872
1.14815
1.08462
1.01748
1.00085
1.00001
1
1
1
1
1
1
1
0.538428
0.481118
0.424527
0.398639
0.438528
0.504643
0.573644
0.645121
0.712145
0.789871
0.874845
0.949024
1.02408
1.09596
1.14674
1.16903
1.17175
1.16889
1.1408
1.0661
1.01024
1.00037
1
1
1
1
1
1
1
1
0.538598
0.473259
0.423031
0.408596
0.453326
0.521098
0.582829
0.651976
0.727062
0.819051
0.898744
0.976001
1.05639
1.11975
1.1595
1.17252
1.17253
1.16459
1.12368
1.04935
1.00572
1.00016
1
1
1
1
1
1
1
1
0.538559
0.470231
0.420421
0.415108
0.458276
0.523731
0.58692
0.663415
0.763876
0.84942
0.927
1.01234
1.0841
1.13934
1.16889
1.17531
1.17385
1.1598
1.1113
1.03666
1.00316
1.00006
1
1
1
1
1
1
1
1
0.550634
0.471604
0.418845
0.416326
0.46086
0.521062
0.597059
0.708574
0.802733
0.876701
0.961771
1.04283
1.10809
1.15547
1.17526
1.17773
1.17571
1.15736
1.09716
1.02351
1.00141
1.00002
1
1
1
1
1
1
1
1
0.567577
0.47532
0.417181
0.415267
0.465575
0.549721
0.64914
0.751661
0.82608
0.907811
0.996596
1.0708
1.13145
1.1674
1.1786
1.17934
1.17629
1.15012
1.07349
1.01218
1.0005
1.00001
1
1
1
1
1
1
1
1
0.574031
0.474431
0.410452
0.420799
0.498916
0.598988
0.689723
0.771612
0.852932
0.947173
1.0282
1.10026
1.15151
1.17505
1.18016
1.17946
1.17171
1.12843
1.05182
1.00655
1.0002
1
1
1
1
1
1
1
1
1
0.575053
0.462853
0.399604
0.449012
0.541153
0.627356
0.705982
0.79399
0.894786
0.984384
1.06143
1.12797
1.16651
1.17969
1.18112
1.17895
1.1635
1.1128
1.03763
1.00339
1.00007
1
1
1
1
1
1
1
1
1
0.573606
0.450352
0.395306
0.478668
0.558737
0.637719
0.722824
0.836739
0.942679
1.0217
1.09591
1.14969
1.17697
1.18286
1.18289
1.17899
1.15779
1.09698
1.02287
1.00132
1.00002
1
1
1
1
1
1
1
1
1
0.553013
0.433616
0.402653
0.492235
0.564554
0.647018
0.769085
0.897615
0.98188
1.05893
1.12485
1.16663
1.18319
1.18522
1.18539
1.18102
1.15167
1.07045
1.01059
1.00042
1.00001
1
1
1
1
1
1
1
1
1
0.53238
0.410353
0.420689
0.492114
0.580573
0.704259
0.840901
0.938607
1.02008
1.0957
1.14927
1.17853
1.18623
1.18675
1.18645
1.17886
1.12787
1.04349
1.00446
1.00012
1
1
1
1
1
1
1
1
1
1
0.531713
0.398654
0.434025
0.498909
0.628221
0.779208
0.886071
0.978197
1.06434
1.12811
1.16843
1.18586
1.18835
1.18769
1.18558
1.16471
1.10052
1.0265
1.00184
1.00004
1
1
1
1
1
1
1
1
1
1
0.542406
0.423581
0.443153
0.562065
0.713987
0.826921
0.927247
1.02811
1.10674
1.15569
1.18108
1.19055
1.19151
1.18999
1.18346
1.15259
1.07994
1.01466
1.00066
1.00001
1
1
1
1
1
1
1
1
1
1
0.542415
0.431659
0.465999
0.630944
0.760615
0.871419
0.986789
1.08162
1.14263
1.17516
1.18858
1.1941
1.19472
1.19313
1.18155
1.13884
1.05301
1.00575
1.00017
1
1
1
1
1
1
1
1
1
1
1
0.53469
0.43963
0.535674
0.691762
0.815407
0.941163
1.05214
1.12399
1.17
1.18652
1.19319
1.19688
1.19694
1.19468
1.17916
1.10732
1.02469
1.00163
1.00003
1
1
1
1
1
1
1
1
1
1
1
0.522658
0.463523
0.614962
0.749106
0.887911
1.01746
1.10287
1.15727
1.18802
1.1924
1.19664
1.19847
1.198
1.1932
1.15329
1.06631
1.00994
1.00042
1.00001
1
1
1
1
1
1
1
1
1
1
1
0.407948
0.49051
0.667729
0.831809
0.979391
1.07843
1.14387
1.18187
1.19751
1.19536
1.19941
1.19917
1.19703
1.17928
1.11966
1.03912
1.00382
1.0001
1
1
1
1
1
1
1
1
1
1
1
1
0.240857
0.536233
0.752276
0.927683
1.05138
1.12962
1.17551
1.19578
1.20103
1.19728
1.20126
1.19947
1.19254
1.16296
1.09224
1.01984
1.0011
1.00002
1
1
1
1
1
1
1
1
1
1
1
1
0.237346
0.610262
0.851628
1.01823
1.11368
1.16918
1.19352
1.20174
1.20263
1.19807
1.20202
1.199
1.18671
1.14525
1.05734
1.00658
1.00022
1
1
1
1
1
1
1
1
1
1
1
1
1
0.178088
0.683309
0.959902
1.09739
1.163
1.19151
1.2013
1.20389
1.20327
1.19762
1.20218
1.19876
1.17973
1.10602
1.02328
1.00149
1.00003
1
1
1
1
1
1
1
1
1
1
1
1
1
0.377053
0.822401
1.06569
1.15786
1.19
1.20079
1.2038
1.20458
1.20327
1.19687
1.20116
1.19796
1.15362
1.05778
1.00698
1.00026
1
1
1
1
1
1
1
1
1
1
1
1
1
1
0.684622
1.0088
1.15174
1.19092
1.20063
1.20312
1.20423
1.20473
1.20253
1.19643
1.19808
1.18093
1.10719
1.02502
1.00155
1.00003
1
1
1
1
1
1
1
1
1
1
1
1
1
1
0.994516
1.14728
1.19383
1.20215
1.20315
1.20341
1.20366
1.20464
1.20208
1.1963
1.19494
1.15126
1.06324
1.00712
1.00018
1
1
1
1
1
1
1
1
1
1
1
1
1
1
1
1.20218
1.20318
1.20393
1.20407
1.20335
1.20311
1.20335
1.20486
1.20206
1.19652
1.1897
1.11261
1.0203
0.999776
0.999982
1
1
1
1
1
1
1
1
1
1
1
1
1
1
1
1.20186
1.20297
1.20398
1.2043
1.20314
1.20242
1.20306
1.20603
1.20486
1.19646
1.17929
1.09911
1.01761
1.00077
1.00001
1
1
1
1
1
1
1
1
1
1
1
1
1
1
1
1.20168
1.20277
1.20403
1.20442
1.20317
1.20197
1.20286
1.20635
1.20517
1.19475
1.16083
1.06953
1.00647
1.0001
1
1
1
1
1
1
1
1
1
1
1
1
1
1
1
1
1.20164
1.2025
1.20391
1.20442
1.20316
1.20169
1.20228
1.20595
1.20514
1.19218
1.14605
1.04961
1.00309
1.00003
1
1
1
1
1
1
1
1
1
1
1
1
1
1
1
1
1.20185
1.20221
1.20341
1.20414
1.20349
1.20177
1.20193
1.20484
1.2042
1.18481
1.12541
1.02778
1.00106
1.00001
1
1
1
1
1
1
1
1
1
1
1
1
1
1
1
1
1.20227
1.20211
1.20289
1.2037
1.20383
1.20282
1.20207
1.20391
1.2025
1.17412
1.09841
1.01475
1.00037
1
1
1
1
1
1
1
1
1
1
1
1
1
1
1
1
1
1.20261
1.20213
1.20233
1.2032
1.2041
1.2046
1.20255
1.20307
1.20143
1.16452
1.0729
1.00715
1.00011
1
1
1
1
1
1
1
1
1
1
1
1
1
1
1
1
1
1.20288
1.20212
1.20175
1.20237
1.20431
1.2059
1.20311
1.20104
1.1983
1.1492
1.0463
1.00274
1.00003
1
1
1
1
1
1
1
1
1
1
1
1
1
1
1
1
1
1.20296
1.20198
1.2014
1.20182
1.20423
1.20663
1.20447
1.19713
1.18919
1.12443
1.02753
1.00102
1.00001
1
1
1
1
1
1
1
1
1
1
1
1
1
1
1
1
1
1.20296
1.20193
1.20131
1.20159
1.20389
1.207
1.20584
1.19574
1.18103
1.09986
1.01486
1.00035
1
1
1
1
1
1
1
1
1
1
1
1
1
1
1
1
1
1
1.2027
1.20202
1.20152
1.20156
1.20356
1.20727
1.20678
1.19512
1.16959
1.06846
1.00602
1.00009
1
1
1
1
1
1
1
1
1
1
1
1
1
1
1
1
1
1
1.20225
1.20217
1.20201
1.20169
1.20269
1.2073
1.20727
1.19152
1.14446
1.04289
1.00235
1.00002
1
1
1
1
1
1
1
1
1
1
1
1
1
1
1
1
1
1
1.2019
1.20219
1.20276
1.20199
1.20153
1.20624
1.20775
1.18803
1.12054
1.02493
1.00081
1.00001
1
1
1
1
1
1
1
1
1
1
1
1
1
1
1
1
1
1
1.20166
1.20181
1.20321
1.20301
1.20064
1.20446
1.20794
1.18332
1.09062
1.01102
1.00022
1
1
1
1
1
1
1
1
1
1
1
1
1
1
1
1
1
1
1
1.20131
1.20139
1.20328
1.2041
1.20051
1.20275
1.20426
1.16157
1.06066
1.00447
1.00006
1
1
1
1
1
1
1
1
1
1
1
1
1
1
1
1
1
1
1
1.20115
1.20073
1.20236
1.20573
1.20378
1.20198
1.20019
1.14029
1.03764
1.00167
1.00001
1
1
1
1
1
1
1
1
1
1
1
1
1
1
1
1
1
1
1
1.20136
1.20022
1.2005
1.20681
1.20832
1.20213
1.19557
1.1105
1.01748
1.00045
1
1
1
1
1
1
1
1
1
1
1
1
1
1
1
1
1
1
1
1
1.20162
1.19964
1.1992
1.20737
1.21159
1.20177
1.17586
1.07542
1.00728
1.00012
1
1
1
1
1
1
1
1
1
1
1
1
1
1
1
1
1
1
1
1
1.2015
1.1995
1.19838
1.20826
1.21262
1.19878
1.1526
1.04912
1.00276
1.00003
1
1
1
1
1
1
1
1
1
1
1
1
1
1
1
1
1
1
1
1
1.20075
1.1995
1.19792
1.20869
1.21346
1.19818
1.12543
1.0245
1.00076
1.00001
1
1
1
1
1
1
1
1
1
1
1
1
1
1
1
1
1
1
1
1
1.19891
1.19979
1.19886
1.20866
1.21343
1.18501
1.09052
1.01035
1.0002
1
1
1
1
1
1
1
1
1
1
1
1
1
1
1
1
1
1
1
1
1
1.19737
1.2008
1.20347
1.20802
1.21096
1.16361
1.05973
1.00401
1.00005
1
1
1
1
1
1
1
1
1
1
1
1
1
1
1
1
1
1
1
1
1
1.19651
1.20362
1.20992
1.20791
1.20853
1.13846
1.03085
1.00111
1.00001
1
1
1
1
1
1
1
1
1
1
1
1
1
1
1
1
1
1
1
1
1
1.19558
1.20593
1.21391
1.20748
1.19615
1.09862
1.01243
1.00026
1
1
1
1
1
1
1
1
1
1
1
1
1
1
1
1
1
1
1
1
1
1
1.19504
1.20769
1.21701
1.20557
1.17041
1.06492
1.0048
1.00006
1
1
1
1
1
1
1
1
1
1
1
1
1
1
1
1
1
1
1
1
1
1
1.19541
1.20986
1.21898
1.20389
1.14314
1.03458
1.00131
1.00001
1
1
1
1
1
1
1
1
1
1
1
1
1
1
1
1
1
1
1
1
1
1
1.19733
1.21273
1.21956
1.1969
1.10409
1.0134
1.00029
1
1
1
1
1
1
1
1
1
1
1
1
1
1
1
1
1
1
1
1
1
1
1
1.20409
1.2133
1.21617
1.1697
1.06569
1.00488
1.00006
1
1
1
1
1
1
1
1
1
1
1
1
1
1
1
1
1
1
1
1
1
1
1
1.21407
1.21268
1.21095
1.14265
1.03441
1.00133
1.00001
1
1
1
1
1
1
1
1
1
1
1
1
1
1
1
1
1
1
1
1
1
1
1
1.23065
1.20967
1.19777
1.09965
1.01253
1.00028
1
1
1
1
1
1
1
1
1
1
1
1
1
1
1
1
1
1
1
1
1
1
1
1
1.24513
1.19372
1.16943
1.06052
1.00445
1.00006
1
1
1
1
1
1
1
1
1
1
1
1
1
1
1
1
1
1
1
1
1
1
1
1
1.25569
1.18226
1.13167
1.03022
1.00124
1.00001
1
1
1
1
1
1
1
1
1
1
1
1
1
1
1
1
1
1
1
1
1
1
1
1
1.26017
1.1679
1.08771
1.01143
1.0003
1
1
1
1
1
1
1
1
1
1
1
1
1
1
1
1
1
1
1
1
1
1
1
1
1
1.25451
1.14334
1.05543
1.00458
1.00008
1
1
1
1
1
1
1
1
1
1
1
1
1
1
1
1
1
1
1
1
1
1
1
1
1
1.24227
1.11907
1.02912
1.00136
1.00002
1
1
1
1
1
1
1
1
1
1
1
1
1
1
1
1
1
1
1
1
1
1
1
1
1
1.22482
1.08653
1.0128
1.00035
1
1
1
1
1
1
1
1
1
1
1
1
1
1
1
1
1
1
1
1
1
1
1
1
1
1
1.18529
1.05684
1.00492
1.00008
1
1
1
1
1
1
1
1
1
1
1
1
1
1
1
1
1
1
1
1
1
1
1
1
1
1
1.1426
1.03356
1.00155
1.00001
1
1
1
1
1
1
1
1
1
1
1
1
1
1
1
1
1
1
1
1
1
1
1
1
1
1
1.09584
1.01223
1.00027
1
1
1
1
1
1
1
1
1
1
1
1
1
1
1
1
1
1
1
1
1
1
1
1
1
1
1
1.03744
1.00229
1.00002
1
1
1
1
1
1
1
1
1
1
1
1
1
1
1
1
1
1
1
1
1
1
1
1
1
1
1
1
1
1
1
1
1
1
1
1
1
1
1
1
1
1
1
1
1
1
1
1
1
1
1
1
1
1
1
1
1
1
1
1
1
1
1
1
1
1
1
1
1
1
1
1
1
1
1
1
1
1
1
1
1
1
1
1
1
1
1
1
1
1
1
1
1
1
1
1
1
1
1
1
1
1
1
1
1
1
1
1
1
1
1
1
1
1
1
1
1
1
1
1
1
1
1
1
1
1
1
1
1
1
1
1
1
1
1
1
1
1
1
1
1
1
1
1
1
1
1
1
1
1
1
1
1
1
1
1
1
1
1
1
1
1
1
1
1
1
1
1
1
1
1
1
1
1
1
1
1
1
1
1
1
1
1
1
1
1
1
1
1
1
1
1
1
1
1
1
1
1
1
1
1
1
1
1
1
1
1
1
1
1
1
1
1
1
1
1
1
1
1
1
1
1
1
1
1
1
1
1
1
1
1
1
1
1
1
1
1
1
1
1
1
1
1
1
1
1
1
1
1
1
1
1
1
1
1
1
1
1
1
1
1
1
1
1
1
1
1
1
1
1
1
1
1
1
1
1
1
1
1
1
1
1
1
1
1
1
1
1
1
1
1
1
1
1
1
1
1
1
1
1
1
1
1
1
1
1
1
1
1
1
1
1
1
1
1
1
1
1
1
1
1
1
1
1
1
1
1
1
1
1
1
1
1
1
1
1
1
1
1
1
1
1
1
1
1
1
1
1
1
1
1
1
1
1
1
1
1
1
1
1
1
1
1
1
1
1
1
1
1
1
1
1
1
1
1
1
1
1
1
1
1
1
1
1
1
1
1
1
1
1
1
1
1
1
1
1
1
1
1
1
1
1
1
1
1
1
1
1
1
1
1
1
1
1
1
1
1
1
1
1
1
1
1
1
1
1
1
1
1
1
1
1
1
1
1
1
1
1
1
1
1
1
1
1
1
1
1
1
1
1
1
1
1
1
1
1
1
1
1
1
1
1
1
1
1
1
1
1
1
1
1
1
1
1
1
1
1
1
1
1
1
1
1
1
1
1
1
1
1
1
1
1
1
1
1
1
1
1
1
1
1
1
1
1
1
1
1
1
1
1
1
1
1
1
1
1
1
1
1
1
1
1
1
1
1
1
1
1
1
1
1
1
1
1
1
1
1
1
1
1
1
1
1
1
1
1
1
1
1
1
1
1
1
1
1
1
1
1
1
1
1
1
1
1
1
1
1
1
1
1
1
1
1
1
1
1
1
1
1
1
1
1
1
1
1
1
1
1
1
1
1
1
1
1
1
1
1
1
1
1
1
1
1
1
1
1
1
1
1
1
1
1
1
1
1
1
1
1
1
1
1
1
1
1
1
1
1
1
1
1
1
1
1
1
1
1
1
1
1
1
1
1
1
1
1
1
1
1
1
1
1
1
1
1
1
1
1
1
1
1
1
1
1
1
1
1
1
1
1
1
1
1
1
1
1
1
1
1
1
1
1
1
1
1
1
1
1
1
1
1
1
1
1
1
1
1
1
1
1
1
1
1
1
1
1
1
1
1
1
1
1
1
1
1
1
1
1
1
1
1
1
1
1
1
1
1
1
1
1
1
1
1
1
1
1
1
1
1
1
1
1
1
1
1
1
1
1
1
1
1
1
1
1
1
1
1
1
1
1
1
1
1
1
1
1
1
1
1
1
1
1
1
1
1
1
1
1
1
1
1
1
1
1
1
1
1
1
1
1
1
1
1
1
1
1
1
1
1
1
1
1
1
1
1
1
1
1
1
1
1
1
1
1
1
1
1
1
1
1
1
1
1
1
1
1
1
1
1
1
1
1
1
1
1
1
1
1
1
1
1
1
1
1
1
1
1
1
1
1
1
1
1
1
1
1
1
1
1
1
1
1
1
1
1
1
1
1
1
1
1
1
1
1
1
1
1
1
1
1
1
1
1
1
1
1
1
1
1
1
1
1
1
1
1
1
1
1
1
1
1
1
1
1
1
1
1
1
1
1
1
1
1
1
1
1
1
1
1
1
1
1
1
1
1
1
1
1
1
1
1
1
1
1
1
1
1
1
1
1
1
1
1
1
1
1
1
1
1
1
1
1
1
1
1
1
1
1
1
1
1
1
1
1
1
1
1
1
1
1
1
1
1
1
1
1
1
1
1
1
1
1
1
1
1
1
1
1
1
1
1
1
1
1
1
1
1
1
1
1
1
1
1
1
1
1
1
1
1
1
1
1
1
1
1
1
1
1
1
1
1
1
1
1
1
1
1
1
1
1
1
1
1
1
1
1
1
1
1
1
1
1
1
1
1
1
1
1
1
1
1
1
1
1
1
1
1
1
1
1
1
1
1
1
1
1
1
1
1
1
1
1
1
1
1
1
1
1
1
1
1
1
1
1
1
1
1
1
1
1
1
1
1
1
1
1
1
1
1
1
1
1
1
1
1
1
1
1
1
1
1
1
1
1
1
1
1
1
1
1
1
1
1
1
1
1
1
1
1
1
1
1
1
1
1
1
1
1
1
1
1
1
1
1
1
1
1
1
1
1
1
1
1
1
1
1
1
1
1
1
1
1
1
1
1
1
1
1
1
1
1
1
1
1
1
1
1
1
1
1
1
1
1
1
1
1
1
1
1
1
1
1
1
1
1
1
1
1
1
1
1
1
1
1
1
1
1
1
1
1
1
1
1
1
1
1
1
1
1
1
1
1
1
1
1
1
1
1
1
1
1
1
1
1
1
1
1
1
1
1
1
1
1
1
1
1
1
1
1
1
1
1
1
1
1
1
1
1
1
1
1
1
1
1
1
1
1
1
1
1
1
1
1
1
1
1
1
1
1
1
1
1
1
1
1
1
1
1
1
1
1
1
1
1
1
1
1
1
1
1
1
1
1
1
1
1
1
1
1
1
1
1
1
1
1
1
1
1
1
1
1
1
1
1
1
1
1
1
1
1
1
1
1
1
1
1
1
1
1
1
1
1
1
1
1
1
1
1
1
1
1
1
1
1
1
1
1
1
1
1
1
1
1
1
1
1
1
1
1
1
1
1
1
1
1
1
1
1
1
1
1
1
1
1
1
1
1
1
1
1
1
1
1
1
1
1
1
1
1
1
1
1
1
1
1
1
1
1
1
1
1
1
1
1
1
1
1
1
1
1
1
1
1
1
1
1
1
1
1
1
1
1
1
1
1
1
1
1
1
1
1
1
1
1
1
1
1
1
1
1
1
1
1
1
1
1
1
1
1
1
1
1
1
1
1
1
1
1
1
1
1
1
1
1
1
1
1
1
1
1
1
1
1
1
1
1
1
1
1
1
1
1
1
1
1
1
1
1
1
1
1
1
1
1
1
1
1
1
1
1
1
1
1
1
1
1
1
1
1
1
1
1
1
1
1
1
1
1
1
1
1
1
1
1
1
1
1
1
1
1
1
1
1
1
1
1
1
1
1
1
1
1
1
1
1
1
1
1
1
1
1
1
1
1
1
1
1
1
1
1
1
1
1
1
1
1
1
1
1
1
1
1
1
1
1
1
1
1
1
1
1
1
1
1
1
1
1
1
1
1
1
1
1
1
1
1
1
1
1
1
1
1
1
1
1
1
1
1
1
1
1
1
1
1
1
1
1
1
1
1
1
1
1
1
1
1
1
1
1
1
1
1
1
1
1
1
1
1
1
1
1
1
1
1
1
1
1
1
1
1
1
1
1
1
1
1
1
1
1
1
1
1
1
1
1
1
1
1
1
1
1
1
1
1
1
1
1
1
1
1
1
1
1
1
1
1
1
1
1
1
1
1
1
1
1
1
1
1
1
1
1
1
1
1
1
1
1
1
1
1
1
1
1
1
1
1
1
1
1
1
1
1
1
1
1
1
1
1
1
1
1
1
1
1
1
1
1
1
1
1
1
1
1
1
1
1
1
1
1
1
1
1
1
1
1
1
1
1
1
1
1
1
1
1
1
1
1
1
1
1
1
1
1
1
1
1
1
1
1
1
1
1
1
1
1
1
1
1
1
1
1
1
1
1
1
1
1
1
1
1
1
1
1
1
1
1
1
1
1
1
1
1
1
1
1
1
1
1
1.10736
1
1
1
1
1
1
1
1
1
1
1
1
1
1
1
1
1
1
1
1
1
1
1
1
1
1
1
1
1
1.29033
0.99962
1
1
1
1
1
1
1
1
1
1
1
1
1
1
1
1
1
1
1
1
1
1
1
1
1
1
1
1
1.4784
1.03161
1
1
1
1
1
1
1
1
1
1
1
1
1
1
1
1
1
1
1
1
1
1
1
1
1
1
1
1
1.67905
1.13764
1
1
1
1
1
1
1
1
1
1
1
1
1
1
1
1
1
1
1
1
1
1
1
1
1
1
1
1
1.8626
1.35078
0.999572
1
1
1
1
1
1
1
1
1
1
1
1
1
1
1
1
1
1
1
1
1
1
1
1
1
1
1
2.01176
1.60492
1.04839
0.999937
1
1
1
1
1
1
1
1
1
1
1
1
1
1
1
1
1
1
1
1
1
1
1
1
1
1
2.10414
1.8658
1.47893
1.00243
1
1
1
1
1
1
1
1
1
1
1
1
1
1
1
1
1
1
1
1
1
1
1
1
1
1
2.04341
1.91746
1.97241
1.31847
0.999663
1
1
1
1
1
1
1
1
1
1
1
1
1
1
1
1
1
1
1
1
1
1
1
1
1
1.94506
1.90223
2.03212
1.83544
1.11668
0.999847
1
1
1
1
1
1
1
1
1
1
1
1
1
1
1
1
1
1
1
1
1
1
1
1
1.87936
1.89035
2.00326
2.02588
1.52266
1.00364
1
1
1
1
1
1
1
1
1
1
1
1
1
1
1
1
1
1
1
1
1
1
1
1
1.84934
1.87744
1.97476
2.0228
1.88133
1.19535
0.999733
1
1
1
1
1
1
1
1
1
1
1
1
1
1
1
1
1
1
1
1
1
1
1
1.84234
1.87386
1.94654
1.98941
2.00734
1.57962
1.0131
1
1
1
1
1
1
1
1
1
1
1
1
1
1
1
1
1
1
1
1
1
1
1
1.83758
1.86909
1.9195
1.97136
2.01127
1.83201
1.19115
0.999744
1
1
1
1
1
1
1
1
1
1
1
1
1
1
1
1
1
1
1
1
1
1
1.83826
1.86615
1.90628
1.96411
2.00348
1.93648
1.47424
1.00466
1
1
1
1
1
1
1
1
1
1
1
1
1
1
1
1
1
1
1
1
1
1
1.84202
1.86742
1.90907
1.95984
1.99397
1.97354
1.75918
1.12942
0.999826
1
1
1
1
1
1
1
1
1
1
1
1
1
1
1
1
1
1
1
1
1
1.84909
1.87241
1.91321
1.95709
1.97996
1.97083
1.8855
1.41152
1.00099
1
1
1
1
1
1
1
1
1
1
1
1
1
1
1
1
1
1
1
1
1
1.85806
1.87894
1.91591
1.95381
1.96733
1.96247
1.91617
1.63443
1.05737
1
1
1
1
1
1
1
1
1
1
1
1
1
1
1
1
1
1
1
1
1
1.86626
1.88414
1.91568
1.95057
1.95784
1.95223
1.9296
1.789
1.24011
0.999649
1
1
1
1
1
1
1
1
1
1
1
1
1
1
1
1
1
1
1
1
1.87069
1.88629
1.91445
1.94847
1.9561
1.94933
1.93774
1.87606
1.49862
1.01178
1
1
1
1
1
1
1
1
1
1
1
1
1
1
1
1
1
1
1
1
1.87311
1.88547
1.91176
1.94537
1.95683
1.95027
1.9364
1.88615
1.67305
1.10713
1
1
1
1
1
1
1
1
1
1
1
1
1
1
1
1
1
1
1
1
1.87275
1.88286
1.90836
1.94141
1.95632
1.94988
1.93462
1.89111
1.76447
1.27451
0.999599
1
1
1
1
1
1
1
1
1
1
1
1
1
1
1
1
1
1
1
1.87136
1.8787
1.90451
1.93659
1.95304
1.94761
1.93134
1.89665
1.83284
1.48015
1.01174
1
1
1
1
1
1
1
1
1
1
1
1
1
1
1
1
1
1
1
1.86832
1.87363
1.89986
1.93066
1.94774
1.9425
1.92592
1.8962
1.85388
1.64001
1.09428
1
1
1
1
1
1
1
1
1
1
1
1
1
1
1
1
1
1
1
1.86368
1.86801
1.89462
1.92398
1.94063
1.93585
1.92031
1.89213
1.85098
1.71305
1.23392
0.99967
1
1
1
1
1
1
1
1
1
1
1
1
1
1
1
1
1
1
1.85794
1.8621
1.88885
1.91697
1.93329
1.92926
1.91556
1.88861
1.85364
1.78049
1.39624
1.00339
1
1
1
1
1
1
1
1
1
1
1
1
1
1
1
1
1
1
1.85153
1.8563
1.88303
1.91035
1.92715
1.92409
1.91137
1.88442
1.85613
1.81216
1.55244
1.04158
1
1
1
1
1
1
1
1
1
1
1
1
1
1
1
1
1
1
1.84565
1.85123
1.87763
1.90402
1.92143
1.91945
1.90818
1.88125
1.85295
1.81144
1.63765
1.13557
1
1
1
1
1
1
1
1
1
1
1
1
1
1
1
1
1
1
1.84093
1.84724
1.87296
1.89852
1.91625
1.9152
1.90576
1.87944
1.85139
1.81448
1.70754
1.2612
0.999619
1
1
1
1
1
1
1
1
1
1
1
1
1
1
1
1
1
1.83713
1.84413
1.86885
1.89325
1.91072
1.9108
1.90311
1.87732
1.84846
1.8152
1.76132
1.41094
1.00587
1
1
1
1
1
1
1
1
1
1
1
1
1
1
1
1
1
1.83488
1.84171
1.86499
1.88772
1.90462
1.90659
1.8995
1.87375
1.84437
1.81179
1.76843
1.52259
1.03832
1
1
1
1
1
1
1
1
1
1
1
1
1
1
1
1
1
1.8341
1.83962
1.86128
1.88327
1.8992
1.90079
1.89439
1.86956
1.84057
1.81036
1.77749
1.60576
1.10502
1
1
1
1
1
1
1
1
1
1
1
1
1
1
1
1
1
1.83312
1.83734
1.85743
1.8794
1.89403
1.89384
1.88754
1.86464
1.83668
1.81031
1.78391
1.6811
1.22141
0.999717
1
1
1
1
1
1
1
1
1
1
1
1
1
1
1
1
1.83151
1.83503
1.85372
1.8758
1.88945
1.8879
1.88053
1.85969
1.83331
1.80998
1.78161
1.70415
1.34203
1.0021
1
1
1
1
1
1
1
1
1
1
1
1
1
1
1
1
1.82954
1.83304
1.85097
1.87285
1.88605
1.88322
1.87484
1.85484
1.82942
1.80891
1.78186
1.72843
1.44149
1.01344
1
1
1
1
1
1
1
1
1
1
1
1
1
1
1
1
1.8275
1.83145
1.84884
1.87077
1.88388
1.87989
1.87029
1.85017
1.82471
1.80588
1.78294
1.75555
1.5426
1.05525
0.999999
1
1
1
1
1
1
1
1
1
1
1
1
1
1
1
1.82556
1.83025
1.84747
1.8692
1.88202
1.87709
1.86635
1.8459
1.81996
1.80162
1.78167
1.75949
1.59987
1.1277
1
1
1
1
1
1
1
1
1
1
1
1
1
1
1
1
1.82361
1.82901
1.8464
1.86751
1.88007
1.87467
1.86299
1.8425
1.81611
1.79671
1.77946
1.76391
1.65911
1.22195
0.999866
1
1
1
1
1
1
1
1
1
1
1
1
1
1
1
1.82245
1.82819
1.84546
1.8654
1.87725
1.87256
1.86137
1.84076
1.81272
1.79207
1.7766
1.76365
1.70429
1.33492
1.00187
1
1
1
1
1
1
1
1
1
1
1
1
1
1
1
1.82162
1.82704
1.84337
1.86091
1.8717
1.8705
1.86071
1.83998
1.81084
1.78895
1.77449
1.76244
1.72594
1.44827
1.02472
1
1
1
1
1
1
1
1
1
1
1
1
1
1
1
1.82267
1.83023
1.84674
1.86168
1.86811
1.86754
1.85731
1.83446
1.80521
1.78327
1.77075
1.75949
1.73486
1.4884
1.01357
0.999578
1
1
1
1
1
1
1
1
1
1
1
1
1
1
1.49125
1.68844
1.77736
1.8243
1.85243
1.86016
1.85598
1.84264
1.81564
1.78797
1.77366
1.76276
1.74782
1.63793
1.21848
1.00707
1.00004
1
1
1
1
1
1
1
1
1
1
1
1
1
1.10241
1.46426
1.64134
1.73635
1.79809
1.83376
1.8453
1.83958
1.82318
1.79606
1.77735
1.76582
1.75924
1.7021
1.43061
1.05519
1.00074
1
1
1
1
1
1
1
1
1
1
1
1
1
0.849943
1.28197
1.47372
1.61499
1.70561
1.77517
1.81275
1.82491
1.8182
1.79938
1.78197
1.76745
1.75945
1.75665
1.61039
1.19082
1.00686
1.00004
1
1
1
1
1
1
1
1
1
1
1
1
0.784971
1.16459
1.33884
1.47994
1.60209
1.68829
1.75283
1.79275
1.8011
1.7936
1.7806
1.76821
1.75916
1.76993
1.73165
1.42803
1.04866
1.00063
1
1
1
1
1
1
1
1
1
1
1
1
0.761397
1.00905
1.22469
1.36413
1.49852
1.59404
1.68091
1.73695
1.76955
1.77685
1.77264
1.76581
1.75962
1.76797
1.74711
1.58432
1.16773
1.00485
1.00002
1
1
1
1
1
1
1
1
1
1
1
0.812555
0.914881
1.09595
1.25909
1.39253
1.50721
1.59768
1.66996
1.72109
1.74816
1.75417
1.75714
1.75732
1.76084
1.75719
1.67899
1.32464
1.02426
1.00022
1
1
1
1
1
1
1
1
1
1
1
0.950062
0.929848
0.996305
1.16784
1.29747
1.42438
1.51374
1.60533
1.6594
1.70533
1.72752
1.74064
1.74937
1.75277
1.75635
1.75613
1.50658
1.08927
1.00163
1.00001
1
1
1
1
1
1
1
1
1
1
0.992767
0.932495
0.955291
1.10009
1.22389
1.34357
1.44446
1.53398
1.60263
1.65336
1.69029
1.71295
1.73217
1.74415
1.75454
1.75399
1.66427
1.25354
1.01175
1.00008
1
1
1
1
1
1
1
1
1
1
0.993867
0.916347
0.920654
1.03573
1.17035
1.27463
1.38305
1.4598
1.5468
1.60571
1.64384
1.67852
1.70547
1.7265
1.7473
1.74729
1.70727
1.41967
1.0495
1.00057
1
1
1
1
1
1
1
1
1
1
1.01776
0.903146
0.874528
0.95635
1.10135
1.20699
1.31765
1.4041
1.48094
1.55721
1.604
1.64511
1.67625
1.70047
1.73078
1.744
1.73311
1.55899
1.13526
1.00325
1.00002
1
1
1
1
1
1
1
1
1