/*--------------------------------*- C++ -*----------------------------------*\
  =========                 |
  \\      /  F ield         | OpenFOAM: The Open Source CFD Toolbox
   \\    /   O peration     | Website:  https://openfoam.org
    \\  /    A nd           | Version:  7
     \\/     M anipulation  |
\*---------------------------------------------------------------------------*/
FoamFile
{
    version     2.0;
    format      ascii;
    class       volScalarField;
    location    "4";
    object      p;
}
// * * * * * * * * * * * * * * * * * * * * * * * * * * * * * * * * * * * * * //

dimensions      [1 -1 -2 0 0 0 0];

internalField   nonuniform List<scalar> 
90000
(
0.710754
0.716092
0.721835
0.728039
0.733989
0.740109
0.745941
0.751979
0.757614
0.763433
0.76875
0.77423
0.779207
0.784297
0.788916
0.793657
0.798107
0.803036
0.807738
0.81368
0.821045
0.830889
0.842128
0.855368
0.868783
0.883316
0.8968
0.910915
0.923871
0.937073
0.94913
0.960795
0.971463
0.981413
0.989685
0.997097
1.0037
1.00763
1.01117
1.01345
1.01487
1.01556
1.01809
1.01836
1.01589
1.00573
0.992663
0.981096
0.973424
0.968728
0.968886
0.971394
0.97586
0.981824
0.986927
0.992006
0.99528
0.996489
0.997867
0.997917
0.99599
0.992265
0.987296
0.982634
0.979996
0.978741
0.980163
0.984584
0.986867
0.990203
0.994564
0.994659
0.992033
0.987757
0.983125
0.980588
0.981027
0.983399
0.987291
0.988372
0.987905
0.985705
0.984413
0.984193
0.985982
0.99022
0.990171
0.989939
0.987763
0.986905
0.986882
0.987707
0.987435
0.986496
0.98605
0.986461
0.988023
0.987802
0.987152
0.986025
0.706836
0.707166
0.707752
0.708641
0.709762
0.71136
0.713324
0.715696
0.718365
0.721444
0.724811
0.728587
0.732662
0.737014
0.741655
0.746603
0.751679
0.756898
0.762374
0.767719
0.773181
0.778857
0.785288
0.792065
0.800001
0.808544
0.818377
0.82858
0.839866
0.851957
0.864195
0.877446
0.8904
0.903629
0.917288
0.929573
0.942503
0.9539
0.96527
0.974488
0.983969
0.989813
0.99508
0.997809
1.00003
1.00138
1.00502
1.00701
1.00556
1.00041
0.993311
0.985832
0.979892
0.977131
0.977382
0.978633
0.981504
0.983982
0.987223
0.991554
0.995209
0.998052
0.997598
0.994972
0.990175
0.984758
0.982417
0.980078
0.98124
0.984274
0.987015
0.99011
0.99311
0.991692
0.989032
0.98474
0.981878
0.981182
0.982151
0.985072
0.988387
0.988141
0.986229
0.983935
0.984402
0.986413
0.990037
0.990633
0.989894
0.987855
0.986897
0.987299
0.987562
0.987117
0.986374
0.986208
0.987027
0.98787
0.987762
0.986631
0.707855
0.707797
0.707772
0.707771
0.707865
0.707899
0.707951
0.70802
0.708056
0.708069
0.708129
0.708296
0.708586
0.70898
0.70948
0.710129
0.710951
0.712218
0.713859
0.715708
0.717797
0.720181
0.72302
0.726113
0.729574
0.733383
0.737935
0.743044
0.749046
0.756004
0.763927
0.773224
0.783158
0.795345
0.807826
0.822765
0.837743
0.854646
0.871883
0.889549
0.908177
0.924885
0.941213
0.954632
0.967088
0.977916
0.983981
0.988223
0.990567
0.992378
0.995578
0.997958
0.999778
0.998421
0.99575
0.991756
0.987945
0.984736
0.984487
0.985561
0.987478
0.989849
0.992061
0.994137
0.993907
0.992762
0.989709
0.985589
0.981983
0.978999
0.979898
0.982429
0.986637
0.991555
0.994394
0.992383
0.987091
0.982073
0.981165
0.982432
0.985403
0.988871
0.988922
0.987125
0.985265
0.985859
0.988335
0.990619
0.990527
0.988733
0.986799
0.986897
0.98717
0.987183
0.986795
0.986568
0.986921
0.98762
0.987472
0.986678
0.708409
0.708354
0.708242
0.708164
0.708105
0.708048
0.708027
0.708037
0.708011
0.707947
0.707849
0.70779
0.707766
0.707777
0.707877
0.708033
0.708337
0.708485
0.708602
0.708702
0.70882
0.709004
0.709283
0.709648
0.71006
0.710542
0.711168
0.711995
0.713043
0.714269
0.716232
0.718854
0.722034
0.726229
0.731066
0.737594
0.74501
0.754857
0.765877
0.780084
0.795399
0.814618
0.834318
0.856553
0.87897
0.90286
0.922282
0.942148
0.95709
0.969153
0.981449
0.984812
0.987181
0.989331
0.98981
0.990031
0.989038
0.987805
0.987413
0.987055
0.986425
0.986754
0.987954
0.989903
0.991716
0.992403
0.991733
0.990144
0.985798
0.981056
0.978145
0.978853
0.981046
0.984456
0.98793
0.990481
0.991774
0.990069
0.986521
0.983229
0.982851
0.984474
0.986458
0.988645
0.987964
0.986225
0.985903
0.987395
0.98919
0.99022
0.989196
0.987662
0.987516
0.987574
0.987269
0.986576
0.98668
0.987168
0.987653
0.9873
0.709565
0.70957
0.709552
0.709522
0.709495
0.709494
0.709536
0.70957
0.709599
0.709652
0.709682
0.709662
0.709608
0.709571
0.709595
0.70965
0.709734
0.709846
0.709955
0.710062
0.710181
0.71033
0.710534
0.710781
0.71102
0.711298
0.711693
0.712201
0.7127
0.713431
0.713608
0.713776
0.714027
0.714411
0.714879
0.715408
0.716046
0.717012
0.718783
0.721697
0.725635
0.731608
0.739302
0.750373
0.764222
0.781665
0.803614
0.826429
0.853921
0.879441
0.906193
0.926552
0.943828
0.961739
0.968056
0.975818
0.981456
0.981373
0.982652
0.983674
0.984119
0.985554
0.988477
0.989803
0.989539
0.988301
0.987159
0.986971
0.987172
0.987022
0.985446
0.983658
0.981728
0.98115
0.981811
0.984313
0.986551
0.98912
0.991033
0.989689
0.986634
0.983697
0.98419
0.985935
0.988128
0.988737
0.987931
0.986741
0.987267
0.98874
0.988962
0.988125
0.987361
0.987425
0.987664
0.987196
0.986509
0.986647
0.987112
0.987116
0.711354
0.7114
0.711442
0.711507
0.711644
0.711799
0.711815
0.711815
0.711841
0.711927
0.712024
0.712135
0.712248
0.712256
0.712233
0.712235
0.712365
0.712501
0.712542
0.712634
0.712789
0.713012
0.713192
0.713191
0.713191
0.713303
0.713557
0.713689
0.713777
0.713945
0.714164
0.714394
0.714684
0.715073
0.715465
0.7158
0.716058
0.716492
0.71644
0.716374
0.716389
0.716504
0.716834
0.717622
0.719287
0.722137
0.727202
0.734795
0.746108
0.763125
0.781808
0.809386
0.837244
0.865784
0.897115
0.92063
0.943618
0.956583
0.969277
0.979311
0.98132
0.982573
0.985552
0.986968
0.985086
0.979248
0.979339
0.981852
0.985323
0.987949
0.988043
0.987519
0.985834
0.982648
0.980744
0.98157
0.983595
0.987025
0.988899
0.989145
0.988658
0.987035
0.985112
0.98523
0.985763
0.986403
0.986778
0.987119
0.987595
0.988458
0.989382
0.989086
0.988309
0.987558
0.987353
0.987646
0.987143
0.986709
0.986926
0.98742
0.713124
0.713213
0.713311
0.713402
0.713442
0.713468
0.713504
0.713628
0.713805
0.71388
0.713911
0.713992
0.714088
0.7141
0.714159
0.714281
0.71437
0.714437
0.714594
0.714908
0.715069
0.715062
0.715059
0.71509
0.715236
0.71555
0.715828
0.716006
0.716137
0.716153
0.716174
0.716292
0.716581
0.716871
0.717011
0.717094
0.717155
0.717202
0.717209
0.717185
0.717132
0.717033
0.717006
0.716908
0.716792
0.716798
0.716899
0.717259
0.717986
0.719674
0.722887
0.729032
0.739431
0.754235
0.776206
0.802139
0.831454
0.86592
0.892287
0.918684
0.943714
0.951401
0.961094
0.972801
0.973424
0.973569
0.978307
0.985193
0.987477
0.987947
0.987449
0.985423
0.983542
0.983295
0.98374
0.984738
0.986034
0.98631
0.986482
0.987055
0.98772
0.988727
0.988172
0.986916
0.985348
0.985416
0.985717
0.986282
0.986898
0.987544
0.988346
0.988899
0.988951
0.988434
0.987698
0.986996
0.986935
0.986675
0.986656
0.987039
0.714442
0.714563
0.714672
0.71471
0.714704
0.714696
0.714709
0.714812
0.714938
0.71495
0.714935
0.714943
0.714955
0.71495
0.714971
0.714987
0.714993
0.715029
0.715181
0.715472
0.715627
0.715625
0.715625
0.715633
0.715649
0.715715
0.715866
0.716054
0.71616
0.71622
0.716315
0.716476
0.716664
0.71683
0.71695
0.717047
0.717176
0.717286
0.717322
0.717336
0.717333
0.717287
0.71717
0.717021
0.716846
0.716666
0.716508
0.716276
0.715821
0.715435
0.715437
0.71566
0.716406
0.718154
0.721251
0.727653
0.737397
0.754079
0.777608
0.804419
0.839814
0.875822
0.903329
0.929377
0.957405
0.971685
0.977592
0.98306
0.986311
0.984619
0.97811
0.978569
0.980974
0.984789
0.988348
0.988194
0.987639
0.985694
0.983595
0.984195
0.986253
0.988697
0.98861
0.988033
0.986472
0.985334
0.98548
0.985969
0.986496
0.986982
0.987622
0.988416
0.989082
0.988896
0.98822
0.98702
0.986895
0.986637
0.986641
0.987026
0.715138
0.715226
0.715319
0.715358
0.715375
0.715373
0.71533
0.715297
0.715295
0.715308
0.715305
0.715292
0.715284
0.71529
0.715313
0.7153
0.715255
0.715251
0.715312
0.715421
0.715452
0.715466
0.715504
0.715598
0.715626
0.715628
0.715662
0.715771
0.715885
0.715999
0.716146
0.716313
0.716418
0.716472
0.716536
0.716642
0.716816
0.717
0.717066
0.717072
0.717053
0.716988
0.716869
0.716683
0.716371
0.715981
0.715638
0.715237
0.714616
0.714045
0.713805
0.713791
0.713859
0.714111
0.714418
0.714742
0.715364
0.716853
0.720354
0.727904
0.739505
0.761796
0.791746
0.823163
0.859042
0.90017
0.926433
0.940834
0.955997
0.962683
0.968929
0.979902
0.986293
0.989922
0.990232
0.988745
0.984981
0.983
0.983368
0.985349
0.988092
0.988619
0.988101
0.986959
0.986126
0.986
0.986209
0.986309
0.98617
0.986287
0.986858
0.987809
0.988761
0.988764
0.988397
0.987751
0.987193
0.986587
0.986636
0.987012
0.715425
0.715479
0.715507
0.71551
0.715504
0.715474
0.715397
0.71538
0.715373
0.715343
0.715291
0.715269
0.715272
0.715301
0.71531
0.715271
0.715196
0.715184
0.715206
0.715209
0.715156
0.715081
0.715085
0.715162
0.715213
0.715204
0.715172
0.715122
0.715084
0.715086
0.71512
0.715126
0.715065
0.714848
0.714716
0.714701
0.714732
0.714904
0.715112
0.715185
0.715184
0.71514
0.715049
0.714912
0.714743
0.714615
0.714459
0.714106
0.713572
0.713251
0.713085
0.712994
0.713013
0.713146
0.713321
0.713402
0.713382
0.713389
0.713485
0.713868
0.71491
0.717425
0.723287
0.735581
0.754569
0.785703
0.822176
0.863185
0.897637
0.931697
0.96176
0.977364
0.983297
0.987642
0.98553
0.977749
0.97865
0.981718
0.985956
0.988761
0.988546
0.987469
0.985049
0.985415
0.986452
0.98742
0.987192
0.986433
0.98582
0.985887
0.986305
0.986996
0.987987
0.988297
0.988313
0.988171
0.987655
0.986756
0.986756
0.987087
0.715203
0.715261
0.715308
0.715314
0.715292
0.715174
0.715116
0.715116
0.715116
0.715087
0.715046
0.715023
0.715025
0.715026
0.715014
0.71496
0.714902
0.714883
0.714866
0.714827
0.714734
0.714645
0.714569
0.714394
0.714236
0.714163
0.714084
0.713907
0.713676
0.713545
0.713482
0.713402
0.713197
0.712829
0.712565
0.712486
0.712474
0.712511
0.712652
0.712852
0.712935
0.712953
0.712987
0.713078
0.713216
0.713276
0.713216
0.712818
0.712527
0.712542
0.712511
0.712337
0.712248
0.712298
0.712415
0.712477
0.712542
0.712698
0.712901
0.712936
0.712825
0.712519
0.71266
0.713388
0.716026
0.72215
0.735527
0.756494
0.787616
0.825997
0.867813
0.903682
0.931405
0.951856
0.961508
0.969508
0.981914
0.989512
0.989783
0.98927
0.985339
0.982712
0.983148
0.984982
0.988273
0.988345
0.987652
0.986611
0.985696
0.98604
0.986713
0.987059
0.986999
0.98736
0.987984
0.988331
0.988056
0.987483
0.987212
0.987475
0.714641
0.71468
0.714678
0.714626
0.714413
0.714268
0.714259
0.714259
0.714303
0.714371
0.714375
0.714357
0.714295
0.714218
0.714142
0.714037
0.713945
0.713863
0.713781
0.713692
0.713604
0.713587
0.713578
0.713418
0.713124
0.713104
0.713089
0.712977
0.712708
0.712384
0.712157
0.711974
0.711764
0.711515
0.711251
0.710982
0.710802
0.710778
0.710785
0.710847
0.71098
0.711105
0.71123
0.711394
0.711634
0.711791
0.711751
0.711592
0.711566
0.711684
0.711769
0.711699
0.711525
0.711524
0.711564
0.711574
0.711655
0.711977
0.71252
0.712804
0.712761
0.712595
0.712171
0.712128
0.712389
0.713032
0.714355
0.717295
0.724021
0.73766
0.762098
0.796402
0.842862
0.884244
0.929295
0.9623
0.978872
0.985686
0.986452
0.98023
0.976745
0.979503
0.984856
0.98875
0.988732
0.987955
0.985619
0.985678
0.986331
0.987191
0.986893
0.98647
0.986329
0.986528
0.987322
0.988085
0.987996
0.987912
0.987792
0.987805
0.713871
0.713806
0.713739
0.71361
0.713382
0.713313
0.713307
0.713308
0.713325
0.713364
0.713365
0.713307
0.713261
0.713253
0.713281
0.71332
0.713333
0.713288
0.713145
0.713031
0.712947
0.712874
0.712741
0.712587
0.712554
0.712525
0.712408
0.712231
0.712034
0.711791
0.711462
0.711085
0.710767
0.710527
0.71029
0.709989
0.709707
0.709604
0.709595
0.709612
0.709712
0.70981
0.709886
0.710007
0.710231
0.71048
0.710581
0.710611
0.7107
0.710848
0.710877
0.710795
0.710592
0.71053
0.710454
0.710424
0.710514
0.710901
0.711661
0.712289
0.712606
0.712609
0.71242
0.712196
0.712271
0.712528
0.712953
0.713529
0.714133
0.715386
0.718381
0.727597
0.744413
0.776182
0.817043
0.863256
0.9058
0.932191
0.953639
0.961309
0.976455
0.986206
0.989659
0.989338
0.985872
0.983562
0.984325
0.986603
0.988402
0.988102
0.986903
0.985791
0.98584
0.986558
0.987227
0.987616
0.987819
0.988533
0.988622
0.988218
0.711755
0.711736
0.711719
0.71171
0.71171
0.711711
0.711713
0.711722
0.71175
0.711814
0.711866
0.711892
0.711899
0.711907
0.711949
0.712073
0.712301
0.712534
0.712607
0.712595
0.712524
0.712322
0.712127
0.712118
0.712172
0.712183
0.712093
0.711907
0.71174
0.711524
0.711182
0.71079
0.710482
0.710261
0.71005
0.709782
0.709538
0.709423
0.70939
0.709403
0.7095
0.709576
0.709604
0.709679
0.709872
0.710071
0.710216
0.710312
0.710521
0.710982
0.711145
0.711131
0.710935
0.710426
0.71006
0.709995
0.710082
0.710441
0.71117
0.712076
0.712567
0.712569
0.712367
0.71196
0.711829
0.712007
0.712397
0.712855
0.712986
0.712882
0.712918
0.713409
0.715314
0.721599
0.734289
0.761354
0.798455
0.848027
0.89686
0.941531
0.972084
0.981731
0.986711
0.981933
0.975498
0.979117
0.985844
0.988925
0.988568
0.986863
0.985272
0.98537
0.986338
0.986959
0.986751
0.98681
0.987591
0.989065
0.988993
0.988383
0.711156
0.711146
0.71114
0.711134
0.711125
0.711119
0.711118
0.711121
0.711126
0.711146
0.711214
0.711291
0.711327
0.711343
0.711353
0.711404
0.711544
0.711621
0.711654
0.711697
0.711753
0.711799
0.711868
0.711964
0.712039
0.712026
0.711933
0.711898
0.711906
0.7118
0.711511
0.711188
0.710959
0.710808
0.710683
0.71057
0.710432
0.710182
0.709872
0.709775
0.709783
0.709755
0.7097
0.709719
0.709863
0.709963
0.710045
0.710218
0.710696
0.711455
0.711856
0.711906
0.71187
0.711662
0.71123
0.710778
0.710629
0.710717
0.711094
0.711693
0.712127
0.712174
0.712101
0.711975
0.711871
0.711934
0.712084
0.712125
0.711949
0.711788
0.711799
0.711945
0.712273
0.712959
0.714504
0.718514
0.728319
0.750166
0.78521
0.83529
0.883042
0.919901
0.948958
0.959571
0.974007
0.987897
0.989156
0.988324
0.984409
0.983515
0.98463
0.987115
0.987625
0.987022
0.986029
0.986354
0.987879
0.989224
0.989056
0.988442
0.710939
0.710938
0.710941
0.710942
0.710945
0.710947
0.710951
0.710962
0.710986
0.711039
0.711121
0.711245
0.711298
0.711305
0.711301
0.711369
0.711475
0.711484
0.711499
0.711546
0.711606
0.711656
0.71179
0.711962
0.712028
0.712047
0.712111
0.712308
0.712409
0.712353
0.712178
0.712023
0.711934
0.711879
0.711889
0.711947
0.71197
0.711876
0.711599
0.711397
0.711261
0.711088
0.711029
0.711032
0.710983
0.710785
0.710639
0.710649
0.71095
0.711761
0.712525
0.71278
0.712803
0.712734
0.712413
0.71188
0.71155
0.71155
0.711641
0.711762
0.711896
0.711879
0.711767
0.711674
0.711588
0.711546
0.71151
0.71128
0.710953
0.710889
0.710982
0.711172
0.711452
0.711812
0.712088
0.71233
0.713159
0.716026
0.723958
0.743478
0.776922
0.828494
0.879823
0.932451
0.969382
0.982866
0.985986
0.976142
0.976335
0.980362
0.986541
0.988157
0.987522
0.985231
0.985435
0.98711
0.988659
0.988696
0.9882
0.988183
0.710571
0.710543
0.710519
0.710494
0.710462
0.710443
0.710445
0.710462
0.710522
0.71061
0.710664
0.710781
0.710915
0.710955
0.711004
0.711055
0.711056
0.711014
0.711006
0.711053
0.711095
0.711136
0.711242
0.711377
0.711492
0.711539
0.711589
0.711695
0.711815
0.712004
0.71228
0.712437
0.712438
0.712444
0.712549
0.712796
0.712958
0.71301
0.712998
0.712918
0.712763
0.71256
0.712462
0.712404
0.712306
0.712043
0.711804
0.711772
0.711909
0.71246
0.713221
0.713571
0.713632
0.713609
0.71339
0.712925
0.712619
0.712505
0.712406
0.712236
0.712008
0.711776
0.711578
0.711461
0.711379
0.711279
0.711153
0.710876
0.710579
0.710544
0.710601
0.710833
0.711255
0.711832
0.71221
0.712446
0.712487
0.712548
0.713023
0.714923
0.721907
0.738656
0.772339
0.822765
0.87491
0.917256
0.947736
0.958803
0.975811
0.987921
0.98843
0.987148
0.983658
0.984012
0.986752
0.989143
0.988978
0.987528
0.987252
0.988095
0.710549
0.710478
0.710409
0.710353
0.7103
0.710209
0.710148
0.710177
0.710247
0.710267
0.710332
0.710539
0.710617
0.710621
0.710605
0.710529
0.710475
0.710489
0.710531
0.710555
0.710555
0.710561
0.710626
0.710698
0.710784
0.710871
0.710987
0.711179
0.711339
0.711488
0.711786
0.712164
0.712337
0.712471
0.712677
0.712961
0.713386
0.713805
0.713892
0.713892
0.713878
0.713837
0.713731
0.713565
0.71325
0.712841
0.712743
0.712724
0.712769
0.713114
0.713691
0.713877
0.713914
0.7139
0.7137
0.713334
0.713278
0.713204
0.713026
0.712763
0.712493
0.712252
0.712051
0.711791
0.711531
0.711401
0.711238
0.710951
0.710786
0.710812
0.71088
0.711046
0.711289
0.711649
0.712004
0.712268
0.712391
0.712394
0.712262
0.712156
0.712473
0.714167
0.720481
0.737177
0.770987
0.823506
0.879296
0.939845
0.970047
0.984356
0.983219
0.97405
0.977513
0.984588
0.989514
0.989353
0.98757
0.986067
0.986888
0.988502
0.710891
0.710874
0.710849
0.710834
0.710835
0.710819
0.71076
0.710786
0.710871
0.71088
0.71087
0.710925
0.711114
0.711179
0.711179
0.711183
0.711268
0.711452
0.711483
0.711481
0.71149
0.711538
0.711551
0.711511
0.7115
0.711565
0.711699
0.711843
0.711878
0.711831
0.71181
0.711874
0.712125
0.712455
0.712726
0.712944
0.713233
0.71374
0.71411
0.714161
0.714171
0.714177
0.71415
0.71397
0.71341
0.712869
0.712816
0.712825
0.71283
0.712977
0.713151
0.713106
0.713008
0.713016
0.713059
0.713111
0.713168
0.713215
0.713189
0.713019
0.712692
0.712383
0.712321
0.712305
0.712205
0.71205
0.711921
0.711736
0.711656
0.711645
0.711665
0.711672
0.711619
0.711608
0.711803
0.712067
0.712111
0.712038
0.71191
0.711858
0.711811
0.711838
0.712194
0.713794
0.720153
0.736772
0.772929
0.827099
0.882535
0.925962
0.951567
0.962154
0.985312
0.989
0.988814
0.985773
0.984207
0.985639
0.988129
0.988916
0.711768
0.711762
0.711777
0.711806
0.711842
0.711886
0.711936
0.712039
0.712263
0.712349
0.71236
0.712343
0.712379
0.712637
0.713152
0.713274
0.713295
0.713307
0.713238
0.713144
0.713128
0.713043
0.712813
0.712777
0.712774
0.712753
0.712753
0.712812
0.7128
0.712685
0.712623
0.712574
0.712593
0.712807
0.712994
0.713038
0.713157
0.713538
0.713866
0.713926
0.713962
0.713964
0.713873
0.713622
0.713027
0.712425
0.712315
0.712288
0.712345
0.712561
0.712632
0.712558
0.712331
0.712127
0.712126
0.712242
0.712515
0.712858
0.71299
0.712966
0.712739
0.712644
0.712705
0.712898
0.712961
0.712882
0.712711
0.712616
0.71259
0.712591
0.712587
0.712481
0.712119
0.711915
0.71192
0.712026
0.71203
0.711913
0.711716
0.711625
0.711641
0.711734
0.711768
0.711814
0.712137
0.71386
0.720322
0.73984
0.779774
0.833355
0.904942
0.951469
0.980895
0.983766
0.977934
0.97707
0.98177
0.988222
0.989043
0.988552
0.712597
0.712602
0.712605
0.712615
0.71262
0.712608
0.712609
0.71267
0.71288
0.713058
0.713225
0.713388
0.713606
0.714101
0.714424
0.714483
0.714486
0.714422
0.714393
0.714408
0.714405
0.714152
0.713689
0.713663
0.713675
0.713532
0.713309
0.713231
0.713163
0.713098
0.712992
0.712828
0.712762
0.712839
0.712988
0.712985
0.712774
0.71259
0.712681
0.712892
0.713131
0.713383
0.71343
0.713208
0.712508
0.711857
0.7117
0.711679
0.711879
0.712386
0.712524
0.712448
0.7121
0.711801
0.711666
0.711615
0.711811
0.712594
0.713046
0.713063
0.712945
0.712832
0.712915
0.713372
0.713534
0.713443
0.713003
0.712789
0.712823
0.713019
0.713066
0.712963
0.712561
0.712328
0.712289
0.71238
0.71245
0.712373
0.712122
0.71183
0.711737
0.711713
0.71175
0.711761
0.711754
0.711775
0.712106
0.714282
0.721387
0.745793
0.78715
0.846446
0.911072
0.934851
0.95683
0.972896
0.989474
0.989871
0.988162
0.986487
0.711602
0.71163
0.711637
0.711633
0.71163
0.711631
0.711676
0.711797
0.711836
0.711903
0.712232
0.712598
0.712623
0.712596
0.712776
0.713376
0.713588
0.71357
0.713412
0.71338
0.713414
0.713266
0.71298
0.712975
0.712997
0.712909
0.712703
0.712579
0.712531
0.712509
0.712304
0.711897
0.71181
0.7118
0.711697
0.711416
0.711164
0.711235
0.711571
0.711818
0.71178
0.711765
0.71184
0.711664
0.710978
0.710536
0.710485
0.71061
0.711127
0.712058
0.712824
0.713077
0.713005
0.712542
0.712112
0.712025
0.712297
0.713002
0.713201
0.713059
0.712829
0.712748
0.71289
0.713512
0.713681
0.713545
0.712856
0.712471
0.712514
0.712763
0.712843
0.712727
0.71231
0.712094
0.712137
0.712481
0.712929
0.712982
0.712864
0.712554
0.712217
0.712037
0.71192
0.71178
0.711685
0.711731
0.711742
0.711799
0.712217
0.715127
0.723936
0.755436
0.800495
0.865358
0.940279
0.966207
0.985276
0.982346
0.977649
0.982552
0.704977
0.704771
0.704641
0.704571
0.704525
0.70445
0.704384
0.704378
0.704382
0.704392
0.704461
0.70492
0.705588
0.705628
0.705659
0.706314
0.707036
0.707211
0.707438
0.708018
0.708509
0.708786
0.709039
0.709389
0.70975
0.709817
0.709731
0.709652
0.709609
0.709473
0.708876
0.708265
0.708127
0.70815
0.708522
0.709407
0.710519
0.711974
0.712488
0.712504
0.71215
0.711441
0.711199
0.710775
0.709957
0.709616
0.709635
0.71
0.710895
0.711923
0.712711
0.713212
0.713287
0.713034
0.712685
0.712741
0.713149
0.71341
0.713369
0.712922
0.712526
0.712434
0.712624
0.713419
0.713641
0.713446
0.712595
0.711925
0.711914
0.712137
0.712391
0.712372
0.712123
0.711948
0.711991
0.712368
0.713056
0.713284
0.713255
0.713076
0.712754
0.712522
0.712347
0.712196
0.711979
0.711888
0.711857
0.711885
0.711824
0.711814
0.712403
0.716596
0.728869
0.767719
0.820632
0.879637
0.936384
0.950616
0.973108
0.985842
0.699467
0.699026
0.698426
0.697471
0.696619
0.696425
0.69639
0.696314
0.696233
0.696215
0.696219
0.696255
0.696406
0.696728
0.697211
0.697812
0.698382
0.699275
0.700357
0.70127
0.702241
0.70321
0.703954
0.704343
0.704587
0.704999
0.705432
0.705564
0.705484
0.704973
0.704084
0.703796
0.703813
0.704078
0.704898
0.706419
0.708827
0.711468
0.712099
0.71202
0.711554
0.710824
0.710328
0.709905
0.70952
0.709277
0.709211
0.709471
0.710046
0.710588
0.710953
0.711376
0.711981
0.712115
0.712061
0.712288
0.712789
0.712876
0.712579
0.711611
0.711033
0.710992
0.711416
0.712361
0.712656
0.712528
0.711958
0.711476
0.711471
0.711731
0.712072
0.712219
0.712162
0.712063
0.712066
0.712328
0.712943
0.713206
0.713192
0.713061
0.712868
0.712779
0.712743
0.712665
0.712485
0.712407
0.712335
0.712172
0.711798
0.711773
0.711838
0.712081
0.713357
0.719753
0.737759
0.784816
0.843371
0.912448
0.964836
0.982891
0.703434
0.703367
0.703256
0.702928
0.702088
0.701544
0.701538
0.701712
0.701728
0.701367
0.700564
0.700288
0.700312
0.700861
0.701141
0.701122
0.701271
0.701785
0.702326
0.702401
0.70223
0.701925
0.701991
0.702108
0.702067
0.702135
0.702748
0.703527
0.70344
0.702815
0.702592
0.70281
0.703617
0.704061
0.704138
0.704413
0.70554
0.706274
0.705904
0.704703
0.704335
0.704491
0.705585
0.706854
0.707076
0.707028
0.706423
0.705216
0.703808
0.703408
0.703445
0.703687
0.704332
0.705788
0.707617
0.708179
0.708254
0.708309
0.708551
0.70911
0.70932
0.709332
0.709497
0.70992
0.71042
0.710785
0.711212
0.711738
0.712033
0.712218
0.712229
0.712215
0.712118
0.712077
0.712096
0.712296
0.71284
0.713084
0.713061
0.712927
0.712829
0.712906
0.712938
0.712875
0.712764
0.7127
0.712653
0.712527
0.712256
0.712046
0.712072
0.712369
0.712642
0.713001
0.715012
0.723891
0.750057
0.805813
0.863176
0.932394
0.709892
0.711088
0.71203
0.71237
0.712503
0.712563
0.712844
0.713787
0.713998
0.713097
0.709647
0.707283
0.707158
0.707408
0.70739
0.706927
0.705914
0.704931
0.70426
0.703719
0.703188
0.702365
0.701395
0.700459
0.699413
0.698522
0.698444
0.69938
0.701663
0.701935
0.702076
0.703328
0.704348
0.704448
0.703596
0.702566
0.702322
0.701119
0.697104
0.694767
0.694728
0.695618
0.699057
0.703528
0.7044
0.704323
0.703813
0.703301
0.702377
0.700308
0.698088
0.697441
0.697714
0.699029
0.701301
0.70341
0.704119
0.704194
0.704312
0.704965
0.70602
0.706284
0.706352
0.70653
0.70665
0.707192
0.709136
0.71124
0.711789
0.711816
0.711654
0.711468
0.71147
0.711624
0.711845
0.712091
0.712176
0.712155
0.712215
0.712442
0.712771
0.712991
0.713005
0.712939
0.712783
0.71266
0.712379
0.71224
0.712316
0.712461
0.712795
0.713175
0.713174
0.713173
0.712912
0.713201
0.716505
0.731375
0.765128
0.858821
0.710101
0.711104
0.711877
0.712942
0.71508
0.717549
0.718412
0.718753
0.719452
0.719674
0.718614
0.715135
0.713723
0.714377
0.714737
0.714427
0.712746
0.710115
0.708029
0.707124
0.706736
0.706404
0.705818
0.705029
0.703929
0.7032
0.703145
0.703511
0.704828
0.707336
0.71041
0.71254
0.712948
0.712525
0.708507
0.704885
0.703566
0.700908
0.696782
0.695661
0.695664
0.697045
0.70103
0.704341
0.706552
0.708304
0.709215
0.70913
0.70835
0.706792
0.704819
0.702898
0.701385
0.701402
0.702285
0.703748
0.704901
0.704769
0.704527
0.704786
0.706123
0.706664
0.706518
0.704878
0.702438
0.702089
0.7027
0.704397
0.705816
0.706291
0.706424
0.706616
0.707197
0.708222
0.709334
0.710432
0.710974
0.711029
0.711268
0.711801
0.712444
0.71278
0.712777
0.712745
0.712609
0.71231
0.712055
0.712141
0.712558
0.713002
0.713542
0.71368
0.713664
0.713467
0.712846
0.712499
0.712586
0.713959
0.719855
0.767249
0.739212
0.739277
0.739568
0.739912
0.739915
0.739669
0.739738
0.739896
0.739293
0.736614
0.733585
0.732688
0.73383
0.73702
0.737898
0.736983
0.732874
0.728388
0.726711
0.7263
0.726745
0.728705
0.729302
0.728006
0.725754
0.725428
0.725722
0.726457
0.727708
0.728922
0.729835
0.731332
0.732834
0.732857
0.731441
0.728583
0.725033
0.720335
0.715899
0.714582
0.714317
0.713736
0.711474
0.710006
0.710605
0.713853
0.715933
0.715788
0.714138
0.712842
0.712192
0.711244
0.709837
0.708163
0.707571
0.70737
0.706714
0.70521
0.704132
0.704055
0.704379
0.704669
0.70475
0.704069
0.702284
0.701077
0.701035
0.701223
0.701764
0.702555
0.703304
0.70384
0.704489
0.705368
0.706302
0.707175
0.707956
0.708505
0.708697
0.70896
0.709107
0.709442
0.709891
0.710479
0.711234
0.711671
0.712142
0.71251
0.712879
0.713166
0.71354
0.713571
0.71334
0.712927
0.712598
0.712459
0.712694
0.712896
0.713242
0.724859
0.79207
0.792737
0.793117
0.793165
0.792543
0.789261
0.78612
0.785729
0.786261
0.78671
0.786417
0.785164
0.783859
0.783185
0.782353
0.780461
0.774933
0.767688
0.766127
0.76649
0.766645
0.765975
0.763432
0.761538
0.759643
0.755908
0.751606
0.748961
0.748548
0.749344
0.74959
0.747483
0.745339
0.745123
0.7464
0.750292
0.751319
0.749971
0.74642
0.742979
0.742292
0.741346
0.737619
0.732082
0.728336
0.727237
0.727201
0.726162
0.721489
0.716122
0.714798
0.715486
0.717183
0.717356
0.717629
0.718891
0.718755
0.714948
0.708856
0.706499
0.706363
0.70646
0.706979
0.708745
0.709109
0.707576
0.705062
0.703932
0.703883
0.704599
0.706517
0.707452
0.707937
0.707966
0.707988
0.707914
0.707515
0.706508
0.705325
0.705201
0.705414
0.706068
0.707161
0.708507
0.710189
0.711416
0.711943
0.712216
0.712377
0.712682
0.712664
0.712448
0.712323
0.71226
0.712465
0.712918
0.713239
0.713384
0.713383
0.714551
0.848213
0.84829
0.847907
0.844041
0.840324
0.840196
0.840944
0.840923
0.836627
0.831333
0.830459
0.830488
0.831277
0.832802
0.833407
0.832482
0.83184
0.831927
0.831698
0.828751
0.824553
0.824125
0.824165
0.823629
0.823873
0.823647
0.819876
0.816488
0.81652
0.816112
0.813654
0.808223
0.801588
0.798539
0.798396
0.79798
0.796605
0.794496
0.789649
0.78288
0.781612
0.782283
0.781481
0.777083
0.776041
0.776925
0.776586
0.774321
0.770645
0.765076
0.75903
0.753313
0.747387
0.744698
0.745153
0.748012
0.74858
0.747106
0.741727
0.733649
0.727599
0.72616
0.726274
0.726252
0.725881
0.72437
0.721081
0.716619
0.713052
0.711869
0.711172
0.709829
0.708376
0.707251
0.70694
0.706323
0.705011
0.703964
0.703487
0.703513
0.70375
0.704593
0.705852
0.707024
0.707971
0.708569
0.709151
0.709023
0.708758
0.709118
0.709881
0.710551
0.71145
0.711936
0.712769
0.713256
0.713418
0.713403
0.713118
0.712846
0.920085
0.92026
0.91943
0.915733
0.913353
0.913197
0.913669
0.913734
0.911282
0.904909
0.903734
0.903648
0.902506
0.899796
0.898954
0.898737
0.897816
0.89772
0.897674
0.894244
0.886727
0.885478
0.885604
0.884397
0.880937
0.879357
0.878757
0.876296
0.871096
0.869157
0.86817
0.865763
0.861077
0.859863
0.860565
0.860716
0.859551
0.857073
0.853366
0.848842
0.845485
0.842701
0.839348
0.831377
0.821921
0.819186
0.817383
0.812493
0.810746
0.810374
0.808716
0.804603
0.798492
0.795134
0.792222
0.783752
0.772145
0.770418
0.769345
0.76452
0.761057
0.760811
0.758566
0.748542
0.739658
0.738721
0.737855
0.734747
0.728852
0.721999
0.718191
0.715982
0.713444
0.710835
0.709979
0.709336
0.708337
0.707298
0.707502
0.708072
0.709223
0.711085
0.710887
0.710141
0.709162
0.708426
0.707599
0.706659
0.706518
0.706809
0.707416
0.70845
0.709707
0.711571
0.712501
0.712987
0.712903
0.712609
0.712055
0.71224
0.990194
0.988808
0.988082
0.988002
0.986862
0.982859
0.980187
0.98017
0.981203
0.981406
0.981014
0.979757
0.975838
0.972379
0.972226
0.972725
0.972708
0.971951
0.969949
0.967301
0.962929
0.959792
0.959747
0.959831
0.958948
0.956761
0.954872
0.952952
0.949397
0.943902
0.940252
0.938342
0.936228
0.932563
0.929185
0.926854
0.924389
0.921715
0.916245
0.909284
0.908411
0.908045
0.906224
0.901752
0.8956
0.891487
0.887292
0.882043
0.878759
0.873086
0.863634
0.860346
0.858789
0.855665
0.851728
0.845864
0.838825
0.834304
0.828276
0.815957
0.809914
0.809683
0.808686
0.804872
0.796487
0.784966
0.778479
0.776364
0.774979
0.76968
0.761108
0.755782
0.751825
0.746734
0.741374
0.736859
0.733179
0.728193
0.723739
0.719269
0.716502
0.713518
0.710391
0.708223
0.706808
0.706317
0.70581
0.705885
0.70612
0.706834
0.708326
0.70987
0.710423
0.710504
0.709987
0.709537
0.709593
0.70992
0.7107
0.712202
1.07387
1.07248
1.07081
1.06937
1.06894
1.06813
1.06673
1.06641
1.06572
1.0633
1.06294
1.06286
1.06067
1.05806
1.05529
1.05135
1.0509
1.05069
1.04997
1.04753
1.0427
1.04022
1.03928
1.03808
1.03565
1.03226
1.02938
1.02766
1.02599
1.02308
1.0191
1.01618
1.01409
1.01025
1.00643
1.00352
1.00064
0.997724
0.994237
0.989872
0.985838
0.982316
0.978196
0.971943
0.965462
0.960924
0.955303
0.947149
0.945524
0.944424
0.940712
0.934579
0.92897
0.923518
0.913639
0.901225
0.898297
0.896905
0.892044
0.882131
0.875934
0.86991
0.858052
0.850952
0.845744
0.840129
0.834556
0.825163
0.814698
0.807686
0.800838
0.792891
0.784432
0.777399
0.770509
0.763565
0.75632
0.748804
0.741093
0.733327
0.72719
0.72161
0.716767
0.713269
0.711512
0.71047
0.711024
0.711512
0.712281
0.713585
0.713388
0.712555
0.711263
0.709719
0.708427
0.708054
0.708114
0.708559
0.709522
0.711963
1.16191
1.16127
1.16125
1.16074
1.15737