/*--------------------------------*- C++ -*----------------------------------*\
  =========                 |
  \\      /  F ield         | OpenFOAM: The Open Source CFD Toolbox
   \\    /   O peration     | Website:  https://openfoam.org
    \\  /    A nd           | Version:  7
     \\/     M anipulation  |
\*---------------------------------------------------------------------------*/
FoamFile
{
    version     2.0;
    format      ascii;
    class       volScalarField;
    location    "4";
    object      rho;
}
// * * * * * * * * * * * * * * * * * * * * * * * * * * * * * * * * * * * * * //

dimensions      [1 -3 0 0 0 0 0];

internalField   nonuniform List<scalar> 
90000
(
1.04684
1.04999
1.0536
1.05779
1.06201
1.06655
1.07106
1.07594
1.08064
1.08567
1.09039
1.0954
1.10008
1.10497
1.10954
1.11434
1.11881
1.12365
1.12813
1.13367
1.14049
1.14956
1.15989
1.17201
1.18427
1.19755
1.20983
1.22268
1.23446
1.24643
1.25738
1.26792
1.2776
1.28657
1.29406
1.30075
1.30677
1.31033
1.31361
1.31577
1.31716
1.31808
1.3211
1.32174
1.31951
1.30973
1.29766
1.28746
1.28106
1.27749
1.27854
1.28138
1.28615
1.2924
1.29791
1.30338
1.30669
1.30795
1.3094
1.30956
1.30794
1.30471
1.30017
1.29596
1.2935
1.29278
1.29435
1.29912
1.30137
1.30466
1.30887
1.30926
1.30711
1.30331
1.29902
1.2971
1.29792
1.3006
1.30466
1.30596
1.30569
1.3038
1.30278
1.30306
1.30506
1.30938
1.3095
1.30952
1.3077
1.30719
1.30756
1.30868
1.30863
1.30796
1.30792
1.30853
1.31031
1.3103
1.30994
1.30929
1.04563
1.04595
1.04651
1.04735
1.04839
1.0499
1.05176
1.05401
1.05654
1.05947
1.06268
1.0663
1.07021
1.0744
1.07888
1.08369
1.08874
1.09404
1.09966
1.10521
1.11091
1.11684
1.12351
1.1305
1.1386
1.14727
1.15714
1.16732
1.1785
1.19038
1.20232
1.21512
1.22759
1.24016
1.2531
1.26453
1.27655
1.28692
1.29723
1.30533
1.31365
1.3183
1.32235
1.32377
1.32475
1.3252
1.32802
1.32945
1.32797
1.32297
1.31623
1.30926
1.30389
1.30147
1.30209
1.30337
1.30601
1.3082
1.31117
1.31523
1.31873
1.32147
1.32106
1.31857
1.31395
1.30884
1.30671
1.30473
1.30595
1.309
1.31161
1.31457
1.31745
1.31617
1.31378
1.30989
1.30717
1.30707
1.30809
1.31098
1.31427
1.31413
1.31237
1.31038
1.31092
1.31299
1.3165
1.31732
1.3167
1.31483
1.31423
1.31475
1.31517
1.31485
1.31427
1.31436
1.31528
1.31625
1.31627
1.31548
1.04934
1.04932
1.04934
1.0494
1.04955
1.04963
1.04975
1.04988
1.04998
1.05007
1.0502
1.05043
1.05081
1.0513
1.05192
1.05268
1.05363
1.05506
1.05689
1.05894
1.06125
1.06388
1.06699
1.07036
1.07411
1.07822
1.0831
1.08856
1.09493
1.10227
1.11059
1.12029
1.13065
1.14325
1.15615
1.17144
1.18674
1.20382
1.22119
1.23878
1.25726
1.27362
1.28945
1.30216
1.31373
1.32349
1.32849
1.33156
1.33259
1.33318
1.33522
1.33697
1.33802
1.33646
1.33352
1.32926
1.32537
1.32217
1.32194
1.32301
1.32484
1.32701
1.329
1.33085
1.33048
1.32925
1.32628
1.32229
1.31876
1.31594
1.31686
1.31934
1.3233
1.3279
1.33055
1.32864
1.3236
1.31899
1.31791
1.3192
1.32208
1.32541
1.32531
1.32354
1.3217
1.32228
1.32466
1.32683
1.32671
1.32494
1.32311
1.3232
1.32347
1.32345
1.32305
1.32287
1.32322
1.32393
1.3238
1.3231
1.05362
1.05359
1.0535
1.05346
1.05344
1.05341
1.05342
1.05347
1.05348
1.05346
1.05339
1.05339
1.05342
1.05351
1.05367
1.05389
1.05428
1.05452
1.05472
1.05491
1.05511
1.05537
1.05574
1.0562
1.05671
1.05729
1.05802
1.05896
1.06014
1.06151
1.0637
1.06658
1.07005
1.07458
1.07978
1.08674
1.09462
1.10501
1.11661
1.13145
1.14743
1.1673
1.18763
1.21038
1.23321
1.25737
1.27688
1.29661
1.31114
1.32255
1.33415
1.33656
1.33817
1.33953
1.33933
1.33884
1.33753
1.3359
1.33537
1.33497
1.33423
1.33445
1.33547
1.3372
1.33879
1.33894
1.33819
1.33659
1.3324
1.32777
1.32491
1.32558
1.32771
1.33092
1.33409
1.33642
1.33752
1.33582
1.33228
1.32911
1.32854
1.33003
1.33182
1.33375
1.33306
1.33137
1.33089
1.33218
1.33381
1.33466
1.33357
1.33199
1.33174
1.33169
1.33131
1.33054
1.33058
1.33098
1.33136
1.33093
1.05797
1.05799
1.05798
1.05797
1.05796
1.05797
1.05802
1.05807
1.05812
1.0582
1.05826
1.05824
1.05821
1.05819
1.05823
1.0583
1.0584
1.05854
1.05868
1.05882
1.05896
1.05914
1.05938
1.05967
1.05996
1.06028
1.06073
1.0613
1.06187
1.06268
1.06295
1.06318
1.0635
1.06394
1.06448
1.06508
1.0658
1.06686
1.0688
1.07195
1.07618
1.08253
1.09068
1.10232
1.11682
1.135
1.15772
1.18128
1.20944
1.23543
1.26263
1.28309
1.30032
1.31796
1.32397
1.33137
1.33656
1.33598
1.33688
1.33753
1.33767
1.33872
1.34118
1.34221
1.34194
1.34071
1.33957
1.33933
1.33953
1.33937
1.33769
1.33579
1.33383
1.33316
1.33372
1.33604
1.33801
1.34033
1.34195
1.34048
1.33736
1.33439
1.33481
1.33642
1.33851
1.33887
1.33799
1.33671
1.33716
1.33851
1.3385
1.33764
1.33676
1.33677
1.33688
1.33636
1.33557
1.33562
1.33597
1.33582
1.06149
1.06154
1.06159
1.06166
1.06181
1.06198
1.062
1.06201
1.06204
1.06214
1.06225
1.06238
1.06251
1.06253
1.06251
1.06252
1.06265
1.06281
1.06287
1.06299
1.06317
1.06341
1.06361
1.06362
1.06364
1.06377
1.06406
1.06421
1.06432
1.06451
1.06475
1.065
1.06531
1.06572
1.06614
1.06651
1.0668
1.06728
1.06723
1.06717
1.06719
1.06732
1.06767
1.0685
1.07026
1.07327
1.07859
1.08656
1.09838
1.11606
1.13547
1.16382
1.19236
1.22149
1.25303
1.27669
1.29969
1.3126
1.32508
1.33478
1.33663
1.33774
1.34042
1.34161
1.33983
1.33432
1.3344
1.33677
1.33993
1.34241
1.34222
1.34161
1.33984
1.33658
1.3345
1.33526
1.33716
1.34036
1.34209
1.34202
1.34148
1.33978
1.33784
1.3379
1.33832
1.33881
1.3391
1.33937
1.33975
1.34053
1.34131
1.34098
1.34015
1.33939
1.33909
1.33931
1.33877
1.33823
1.3384
1.33878
1.06393
1.06403
1.06413
1.06423
1.06427
1.0643
1.06434
1.06448
1.06467
1.06475
1.06479
1.06487
1.06497
1.06499
1.06505
1.06518
1.06527
1.06534
1.06551
1.06585
1.06602
1.06601
1.066
1.06604
1.06619
1.06652
1.06682
1.067
1.06714
1.06715
1.06716
1.06728
1.06758
1.06789
1.06805
1.06814
1.0682
1.06822
1.06821
1.06818
1.06811
1.06799
1.06795
1.06783
1.06768
1.06768
1.06778
1.06815
1.0689
1.07067
1.07405
1.08048
1.09132
1.10671
1.12938
1.15601
1.18594
1.22078
1.24739
1.2738
1.29861
1.30649
1.31613
1.32775
1.32854
1.32864
1.33317
1.33989
1.34186
1.34225
1.34171
1.33961
1.33766
1.3373
1.33766
1.33854
1.33961
1.33984
1.34004
1.34055
1.34108
1.34196
1.34138
1.34006
1.33846
1.33849
1.33874
1.33923
1.33979
1.34038
1.3411
1.34161
1.34158
1.34105
1.3403
1.33955
1.33946
1.33916
1.33912
1.33944
1.06536
1.06549
1.0656
1.06563
1.06562
1.06561
1.06562
1.06573
1.06585
1.06586
1.06584
1.06585
1.06585
1.06584
1.06586
1.06587
1.06587
1.0659
1.06605
1.06635
1.06649
1.06648
1.06648
1.06648
1.0665
1.06656
1.06672
1.06692
1.06704
1.06709
1.06718
1.06734
1.06753
1.06771
1.06784
1.06794
1.06808
1.06817
1.06819
1.0682
1.06819
1.06814
1.068
1.06782
1.06762
1.06742
1.06724
1.06698
1.06648
1.06604
1.06603
1.06625
1.06702
1.06885
1.07208
1.07876
1.08891
1.10616
1.13042
1.1579
1.19375
1.22995
1.25757
1.28341
1.31094
1.32481
1.33077
1.33621
1.33945
1.33784
1.33159
1.33204
1.33436
1.33808
1.34154
1.34137
1.34081
1.33889
1.33687
1.33748
1.33949
1.34182
1.34171
1.34113
1.33957
1.33841
1.33853
1.33899
1.33949
1.33994
1.34053
1.34127
1.34187
1.34167
1.34098
1.3398
1.33965
1.33937
1.33937
1.33971
1.06577
1.06586
1.06596
1.06599
1.06599
1.06599
1.06594
1.06589
1.06589
1.06589
1.06589
1.06587
1.06586
1.06586
1.06588
1.06587
1.06581
1.0658
1.06586
1.06596
1.06598
1.06599
1.06603
1.06613
1.06617
1.06617
1.06621
1.06634
1.06648
1.0666
1.06677
1.06694
1.06705
1.0671
1.06716
1.06727
1.06745
1.06765
1.0677
1.0677
1.06767
1.06759
1.06745
1.06723
1.06688
1.06645
1.06607
1.06563
1.06496
1.06433
1.06405
1.06403
1.0641
1.06435
1.06467
1.06501
1.06565
1.0672
1.07086
1.07874
1.0908
1.11378
1.14456
1.17665
1.21274
1.25347
1.27961
1.29399
1.30903
1.3155
1.32163
1.3324
1.33881
1.34238
1.3428
1.34132
1.33769
1.33575
1.33612
1.3381
1.34071
1.3414
1.34088
1.33975
1.33899
1.33885
1.33905
1.33914
1.33899
1.33909
1.33963
1.34055
1.34148
1.34148
1.34113
1.3405
1.33996
1.33936
1.3394
1.33975
1.06574
1.0658
1.06583
1.06583
1.06582
1.06579
1.06571
1.06569
1.06568
1.06565
1.06559
1.06556
1.06556
1.06558
1.06559
1.06555
1.06546
1.06544
1.06546
1.06546
1.06541
1.06533
1.06533
1.06541
1.06546
1.06545
1.06542
1.06536
1.06532
1.06533
1.06537
1.06539
1.06533
1.0651
1.06494
1.06493
1.06496
1.06514
1.06536
1.06544
1.06544
1.06539
1.06528
1.06513
1.06494
1.06479
1.06461
1.06422
1.06365
1.0633
1.06312
1.06302
1.06304
1.06318
1.06339
1.06348
1.06347
1.06349
1.0636
1.064
1.0651
1.06775
1.07388
1.08672
1.10646
1.13844
1.17561
1.21706
1.25146
1.28501
1.31422
1.32941
1.33531
1.33974
1.33775
1.33029
1.33117
1.33418
1.3383
1.34103
1.34082
1.33981
1.33752
1.3379
1.33894
1.33994
1.33974
1.33903
1.33847
1.33855
1.33896
1.33965
1.3406
1.34091
1.34095
1.34085
1.34037
1.3395
1.33949
1.33982
1.06537
1.06544
1.06549
1.06549
1.06547
1.06534
1.06528
1.06528
1.06529
1.06526
1.0652
1.06516
1.06516
1.06515
1.06514
1.06507
1.06501
1.06499
1.06497
1.06494
1.06484
1.06475
1.06468
1.0645
1.06433
1.06425
1.06417
1.06397
1.06372
1.06359
1.06353
1.06345
1.06324
1.06285
1.06256
1.06247
1.06246
1.0625
1.06265
1.06286
1.06296
1.06299
1.06303
1.06314
1.06329
1.06335
1.06329
1.06285
1.06254
1.06256
1.06253
1.06235
1.06226
1.06231
1.06246
1.06255
1.06263
1.06282
1.06307
1.06313
1.06303
1.06275
1.06291
1.06368
1.06647
1.07293
1.08697
1.1088
1.14088
1.17998
1.22198
1.25773
1.28511
1.30524
1.31465
1.32242
1.33435
1.34176
1.34196
1.34148
1.33763
1.33514
1.33559
1.33743
1.34066
1.34077
1.34011
1.33915
1.33832
1.33868
1.33937
1.33972
1.33966
1.34002
1.34063
1.34103
1.34078
1.34024
1.34
1.34027
1.06485
1.06489
1.06489
1.06484
1.06462
1.06445
1.06444
1.06444
1.06449
1.06455
1.06456
1.06453
1.06446
1.06438
1.06429
1.06419
1.0641
1.06403
1.06396
1.06387
1.06379
1.06378
1.06378
1.06362
1.0633
1.06327
1.06325
1.06313
1.06284
1.06249
1.06224
1.06204
1.06182
1.06155
1.06127
1.061
1.06082
1.06079
1.0608
1.06087
1.06102
1.06117
1.06132
1.06152
1.06178
1.06195
1.0619
1.06174
1.06172
1.06187
1.06198
1.06192
1.06174
1.06174
1.06178
1.06181
1.0619
1.06225
1.06286
1.06322
1.06319
1.06305
1.06264
1.06261
1.0629
1.0636
1.06503
1.06816
1.07527
1.08956
1.11495
1.15026
1.1975
1.23897
1.28359
1.31573
1.33175
1.33827
1.33915
1.33313
1.3297
1.33244
1.33765
1.34151
1.34144
1.34066
1.33843
1.3385
1.33917
1.34007
1.33978
1.33934
1.33929
1.33949
1.34026
1.341
1.34093
1.34088
1.34081
1.34084
1.06421
1.06414
1.06407
1.06394
1.06371
1.06363
1.06362
1.06362
1.06364
1.06368
1.06368
1.06362
1.06358
1.06358
1.06361
1.06367
1.06369
1.06366
1.06352
1.06341
1.06333
1.06326
1.06312
1.06296
1.06292
1.06289
1.06276
1.06257
1.06236
1.06211
1.06176
1.06136
1.06102
1.06077
1.06053
1.06023
1.05996
1.05985
1.05985
1.05987
1.05998
1.0601
1.06019
1.06033
1.06057
1.06083
1.06095
1.06099
1.0611
1.06127
1.06132
1.06125
1.06106
1.06104
1.06098
1.06095
1.06104
1.06146
1.06226
1.06292
1.06328
1.0633
1.06315
1.06297
1.06306
1.06335
1.0638
1.06444
1.06512
1.06649
1.06969
1.07941
1.09702
1.12993
1.17184
1.21846
1.26107
1.28716
1.30831
1.31574
1.33032
1.33956
1.34279
1.34249
1.33901
1.33695
1.3377
1.33997
1.34169
1.34139
1.3402
1.33918
1.33928
1.34
1.34066
1.34103
1.34123
1.34192
1.34205
1.34167
1.0622
1.06218
1.06217
1.06216
1.06216
1.06217
1.06217
1.06218
1.06221
1.06228
1.06234
1.06238
1.06239
1.0624
1.06245
1.06259
1.06283
1.06308
1.06315
1.06314
1.06307
1.06285
1.06266
1.06266
1.06272
1.06274
1.06265
1.06246
1.06229
1.06208
1.06173
1.06132
1.06101
1.06078
1.06056
1.06028
1.06004
1.05995
1.05993
1.05995
1.06007
1.06016
1.06019
1.06027
1.06047
1.0607
1.06086
1.06097
1.0612
1.0617
1.06188
1.06187
1.06167
1.06114
1.0608
1.06076
1.06088
1.0613
1.0621
1.06304
1.06353
1.06354
1.06335
1.06298
1.06288
1.06309
1.06354
1.06405
1.06421
1.06416
1.06424
1.06481
1.06689
1.07359
1.08697
1.11517
1.15347
1.20386
1.25284
1.29687
1.32667
1.33592
1.34067
1.33603
1.32974
1.33334
1.33995
1.34282
1.34244
1.34073
1.33928
1.3394
1.34038
1.34099
1.3408
1.34088
1.34165
1.34309
1.34303
1.34242
1.06193
1.06192
1.06191
1.06191
1.0619
1.06189
1.06189
1.0619
1.06191
1.06193
1.062
1.06209
1.06213
1.06215
1.06215
1.0622
1.06235
1.06243
1.06246
1.0625
1.06255
1.0626
1.06267
1.06278
1.06288
1.06287
1.06278
1.06278
1.06282
1.06274
1.06246
1.06213
1.0619
1.06175
1.06162
1.0615
1.06135
1.06109
1.06076
1.06066
1.06067
1.06064
1.06058
1.0606
1.06075
1.0609
1.06102
1.06124
1.06178
1.06261
1.06303
1.06308
1.06304
1.06281
1.06235
1.06191
1.0618
1.06192
1.06237
1.06305
1.0635
1.06354
1.06347
1.06336
1.0633
1.0634
1.06362
1.06368
1.06351
1.0634
1.06345
1.06365
1.06407
1.06489
1.0666
1.07089
1.08125
1.10411
1.14042
1.19147
1.23971
1.27647
1.30521
1.31551
1.32943
1.34266
1.34376
1.3429
1.33895
1.33834
1.33944
1.34187
1.34228
1.34169
1.3408
1.34113
1.34263
1.34392
1.34375
1.34316
1.06214
1.06214
1.06214
1.06214
1.06214
1.06214
1.06214
1.06215
1.06217
1.06222
1.06231
1.06244
1.06249
1.0625
1.06249
1.06256
1.06268
1.06269
1.06271
1.06276
1.06282
1.06288
1.06302
1.06321
1.06329
1.06332
1.06341
1.06364
1.06378
1.06374
1.0636
1.06348
1.06341
1.06337
1.06338
1.06344
1.06346
1.06335
1.06303
1.06281
1.06266
1.06248
1.06242
1.06243
1.06239
1.0622
1.06209
1.06212
1.06248
1.06339
1.06422
1.0645
1.06452
1.06445
1.06412
1.06358
1.06326
1.06326
1.06338
1.06355
1.06373
1.06372
1.06361
1.06353
1.06346
1.06345
1.06345
1.06326
1.06297
1.06293
1.06305
1.06328
1.06362
1.06406
1.06441
1.06471
1.06564
1.06873
1.07715
1.09764
1.13243
1.18529
1.23711
1.28929
1.32539
1.3384
1.34139
1.3319
1.33206
1.33603
1.3421
1.34351
1.34287
1.34069
1.3409
1.34255
1.34411
1.34407
1.34359
1.34364
1.0622
1.06217
1.06214
1.06211
1.06207
1.06205
1.06205
1.06207
1.06213
1.06222
1.06228
1.0624
1.06253
1.06258
1.06264
1.0627
1.0627
1.06266
1.06266
1.06271
1.06276
1.06282
1.06295
1.0631
1.06323
1.06329
1.06334
1.06346
1.0636
1.06383
1.06416
1.06435
1.06436
1.06437
1.06449
1.06476
1.06493
1.06499
1.06498
1.0649
1.06475
1.06454
1.06445
1.06439
1.0643
1.06403
1.0638
1.06378
1.06393
1.06454
1.06537
1.06578
1.06586
1.06584
1.06565
1.06521
1.06491
1.06478
1.06467
1.06449
1.06428
1.06407
1.06388
1.06377
1.0637
1.06361
1.06351
1.06325
1.063
1.06299
1.06306
1.06333
1.06381
1.06447
1.06491
1.0652
1.06529
1.06542
1.06599
1.06809
1.07554
1.09319
1.12826
1.17997
1.23278
1.27514
1.30536
1.31612
1.33255
1.34399
1.34447
1.34318
1.33991
1.34027
1.34297
1.34522
1.34504
1.34355
1.34344
1.34428
1.06257
1.06249
1.06241
1.06235
1.0623
1.06221
1.06215
1.06219
1.06227
1.0623
1.06238
1.06263
1.06273
1.06274
1.06272
1.06264
1.06257
1.06259
1.06263
1.06267
1.06267
1.06268
1.06275
1.06284
1.06294
1.06305
1.06318
1.06339
1.06357
1.06373
1.06406
1.06446
1.06465
1.0648
1.06502
1.06533
1.06577
1.06625
1.06638
1.0664
1.06641
1.06638
1.06629
1.06612
1.06578
1.06534
1.06522
1.0652
1.06524
1.06559
1.06623
1.06649
1.06656
1.06657
1.06642
1.06607
1.066
1.06592
1.06572
1.06544
1.06518
1.06498
1.06481
1.06456
1.06429
1.06417
1.06404
1.06377
1.06363
1.06367
1.06375
1.06396
1.06427
1.06471
1.06513
1.06543
1.06561
1.06565
1.06559
1.06561
1.06599
1.06786
1.07459
1.09219
1.12745
1.18143
1.23785
1.29773
1.32731
1.34112
1.33999
1.33118
1.33462
1.34157
1.34626
1.34604
1.34423
1.34283
1.34365
1.34527
1.06336
1.06336
1.06334
1.06334
1.06335
1.06336
1.06331
1.06334
1.06344
1.06347
1.06347
1.06353
1.06374
1.06383
1.06383
1.06384
1.06393
1.06413
1.06417
1.06417
1.06418
1.06423
1.06424
1.0642
1.0642
1.06427
1.06443
1.06458
1.06459
1.06452
1.06448
1.06454
1.06482
1.0652
1.06551
1.06575
1.06608
1.06666
1.06714
1.06723
1.06726
1.06728
1.06725
1.06706
1.06645
1.0658
1.06571
1.06571
1.06571
1.06589
1.06614
1.06614
1.0661
1.06616
1.06622
1.06628
1.06631
1.06635
1.06633
1.06618
1.06589
1.06564
1.06561
1.06559
1.06549
1.06535
1.06526
1.06511
1.06504
1.06504
1.06507
1.0651
1.06509
1.06513
1.06537
1.06569
1.06575
1.0657
1.06563
1.06566
1.06567
1.06575
1.06617
1.06791
1.07468
1.0922
1.12989
1.18538
1.24147
1.28489
1.31019
1.32048
1.34274
1.34627
1.34603
1.34299
1.34155
1.34296
1.34537
1.3461
1.06491
1.06493
1.06496
1.06501
1.06506
1.06512
1.06518
1.0653
1.06555
1.06566
1.06567
1.06565
1.06569
1.06597
1.06652
1.06666
1.06668
1.0667
1.06663
1.06653
1.06651
1.06642
1.06617
1.06611
1.0661
1.06607
1.06606
1.0661
1.06608
1.06594
1.06586
1.0658
1.06582
1.06606
1.06629
1.06636
1.06651
1.06696
1.06739
1.06749
1.06754
1.06754
1.06744
1.06715
1.06647
1.06575
1.06562
1.0656
1.06567
1.06596
1.06609
1.06608
1.06594
1.06575
1.06574
1.06585
1.06611
1.06647
1.06666
1.06665
1.06646
1.06641
1.06648
1.0667
1.0668
1.06674
1.06658
1.06648
1.06647
1.06649
1.0665
1.06641
1.06605
1.06587
1.06589
1.06602
1.06603
1.06594
1.06577
1.06574
1.06579
1.06593
1.06599
1.06607
1.06645
1.06832
1.0752
1.09576
1.13737
1.19229
1.26434
1.30999
1.33872
1.34146
1.33583
1.33504
1.33961
1.34592
1.34662
1.34613
1.06629
1.0663
1.06631
1.06632
1.06632
1.06631
1.06631
1.06638
1.06661
1.0668
1.06698
1.06715
1.06739
1.06794
1.06827
1.0683
1.0683
1.06822
1.06819
1.06821
1.0682
1.06794
1.06741
1.06737
1.06737
1.0672
1.06695
1.06689
1.06684
1.06679
1.0667
1.06656
1.06651
1.0666
1.06679
1.0668
1.06661
1.06645
1.06655
1.06679
1.06703
1.06728
1.06733
1.06707
1.06628
1.06557
1.06547
1.06548
1.06571
1.0663
1.06648
1.06641
1.06606
1.06577
1.06567
1.06563
1.06585
1.0667
1.06719
1.06721
1.06708
1.06697
1.06707
1.0676
1.06783
1.06774
1.06726
1.067
1.06703
1.06726
1.06733
1.06723
1.06682
1.06658
1.06656
1.06668
1.06678
1.06673
1.06651
1.06623
1.06617
1.06617
1.06623
1.06626
1.06628
1.06633
1.06671
1.06907
1.07662
1.10228
1.14533
1.20566
1.27082
1.29439
1.31593
1.33153
1.3474
1.34779
1.34606
1.34452
1.06571
1.06572
1.0657
1.06567
1.06566
1.06566
1.06571
1.06584
1.06588
1.06595
1.06631
1.06668
1.0667
1.06667
1.06686
1.0675
1.06771
1.06769
1.06752
1.06748
1.06751
1.06735
1.06703
1.06702
1.06704
1.06695
1.06675
1.06668
1.06668
1.06669
1.0665
1.06612
1.06607
1.06608
1.06598
1.06566
1.06534
1.06541
1.06576
1.06599
1.06594
1.06592
1.066
1.06581
1.06506
1.06467
1.06467
1.06482
1.0654
1.0664
1.06719
1.06744
1.06736
1.06687
1.06648
1.06644
1.06677
1.06757
1.06772
1.06753
1.06722
1.06712
1.06729
1.06803
1.06828
1.06814
1.06739
1.06694
1.06698
1.06726
1.06737
1.06726
1.06684
1.06662
1.06667
1.06705
1.06758
1.06767
1.06758
1.06729
1.06694
1.06676
1.06664
1.0665
1.06641
1.06648
1.06652
1.0666
1.06708
1.07022
1.07959
1.1126
1.1594
1.22529
1.29964
1.32494
1.34348
1.34063
1.33614
1.34098
1.05897
1.05873
1.05858
1.0585
1.05845
1.05837
1.05829
1.05828
1.05828
1.05829
1.05836
1.05884
1.05955
1.05959
1.05963
1.06033
1.06111
1.0613
1.06154
1.06216
1.06266
1.06294
1.06322
1.06361
1.06404
1.06413
1.06406
1.06401
1.06399
1.06387
1.06324
1.06261
1.06249
1.06251
1.0629
1.06382
1.06495
1.06644
1.06699
1.06701
1.06664
1.0659
1.06565
1.06521
1.06437
1.06408
1.06411
1.06451
1.06548
1.06655
1.06731
1.06778
1.06786
1.06759
1.06731
1.06742
1.06792
1.06823
1.06818
1.06766
1.06715
1.06702
1.06723
1.06814
1.06844
1.06825
1.06736
1.06665
1.06663
1.06688
1.06715
1.06714
1.06689
1.06672
1.06677
1.06718
1.06795
1.06823
1.06821
1.06804
1.06771
1.06746
1.06728
1.06713
1.06691
1.06683
1.06681
1.06686
1.06683
1.06687
1.06751
1.07199
1.085
1.12554
1.18004
1.23966
1.29625
1.31024
1.33212
1.34437
1.05319
1.05272
1.05207
1.05101
1.05006
1.04983
1.04979
1.04971
1.04962
1.04961
1.04961
1.04965
1.04982
1.05017
1.05069
1.05134
1.05196
1.05293
1.05409
1.05509
1.05616
1.05724
1.05806
1.0585
1.05878
1.05925
1.05976
1.05993
1.05985
1.05932
1.05835
1.05798
1.05798
1.05823
1.05907
1.06067
1.06321
1.06601
1.06674
1.06667
1.06621
1.06548
1.06499
1.06458
1.06421
1.06398
1.06392
1.06418
1.06475
1.06527
1.06561
1.06605
1.06674
1.06695
1.06697
1.06728
1.06787
1.06794
1.06759
1.06648
1.06581
1.06577
1.06626
1.06732
1.06765
1.06751
1.06688
1.06636
1.06637
1.06666
1.06702
1.06717
1.06712
1.06703
1.06704
1.06733
1.068
1.0683
1.0683
1.06818
1.068
1.06791
1.06787
1.06779
1.06759
1.06752
1.06746
1.06731
1.06693
1.06692
1.067
1.06726
1.06863
1.07542
1.09443
1.14336
1.20333
1.27248
1.32406
1.34153
1.05748
1.0574
1.05728
1.05693
1.05604
1.05546
1.05546
1.05564
1.05566
1.05527
1.05445
1.05421
1.05424
1.05484
1.05519
1.05518
1.05535
1.05592
1.05651
1.05659
1.05641
1.0561
1.05617
1.05633
1.0563
1.0564
1.05711
1.05797
1.05788
1.05719
1.05691
1.05711
1.0579
1.05831
1.05838
1.05866
1.05986
1.06066
1.06027
1.05904
1.05877
1.05895
1.06016
1.06157
1.06184
1.06179
1.06114
1.05981
1.0582
1.05771
1.05775
1.05804
1.05879
1.06044
1.06249
1.06316
1.06322
1.06324
1.06344
1.06394
1.06416
1.0642
1.06442
1.06493
1.06547
1.06581
1.0662
1.06673
1.06708
1.06733
1.06734
1.06733
1.06721
1.06717
1.0672
1.06743
1.06803
1.06832
1.0683
1.06818
1.06808
1.06817
1.0682
1.06813
1.068
1.06793
1.06789
1.06776
1.06748
1.06727
1.0673
1.06762
1.06791
1.0683
1.07044
1.07983
1.10734
1.16485
1.22349
1.29206
1.06468
1.06594
1.06695
1.06733
1.06749
1.06757
1.06789
1.06891
1.06914
1.06816
1.06447
1.06203
1.06193
1.06222
1.06221
1.06174
1.06069
1.05965
1.0589
1.05829
1.05768
1.05676
1.05569
1.05469
1.0536
1.0527
1.05263
1.05367
1.05616
1.05643
1.05656
1.05787
1.05884
1.0589
1.05794
1.0568
1.05656
1.05533
1.05109
1.04864
1.04861
1.04958
1.05328
1.05809
1.05905
1.05898
1.05843
1.05785
1.05681
1.05449
1.05208
1.05147
1.05179
1.05326
1.05577
1.05808
1.05883
1.05886
1.05895
1.05958
1.06067
1.06099
1.06111
1.06134
1.06147
1.06203
1.06405
1.06631
1.06695
1.06699
1.06682
1.06662
1.06663
1.0668
1.06705
1.06733
1.06742
1.06741
1.06749
1.06774
1.06808
1.0683
1.06831
1.06825
1.06809
1.06797
1.06767
1.06751
1.06759
1.06775
1.06811
1.06851
1.06851
1.06851
1.06822
1.06852
1.07203
1.08772
1.12317
1.21796
1.06513
1.06624
1.0671
1.06828
1.07061
1.07327
1.0742
1.07457
1.07533
1.07558
1.07448
1.07075
1.06916
1.06983
1.07018
1.06984
1.06803
1.06521
1.06294
1.06188
1.06142
1.06105
1.06043
1.05959
1.05845
1.05776
1.05773
1.05814
1.05962
1.0624
1.06567
1.06776
1.0681
1.06761
1.06323
1.05935
1.05802
1.0553
1.05096
1.04972
1.04972
1.05118
1.05541
1.05895
1.06135
1.0633
1.06432
1.06423
1.06337
1.06164
1.05946
1.05741
1.05585
1.05589
1.05687
1.05849
1.05973
1.05956
1.05924
1.05949
1.06088
1.06148
1.06133
1.05961
1.057
1.0566
1.05725
1.05905
1.06058
1.06109
1.06124
1.06145
1.06208
1.06319
1.0644
1.06557
1.06615
1.06623
1.06649
1.06707
1.06772
1.06809
1.0681
1.06808
1.06794
1.06764
1.06734
1.06743
1.06787
1.06833
1.06891
1.06906
1.06904
1.06883
1.06816
1.06779
1.06788
1.06934
1.07562
1.12477
1.096
1.09609
1.09644
1.09688
1.0969
1.09668
1.09677
1.09697
1.09637
1.09363
1.0904
1.08941
1.09061
1.09395
1.09482
1.09382
1.0894
1.08466
1.08296
1.08255
1.08303
1.08515
1.08584
1.08449
1.08219
1.0819
1.08223
1.08308
1.08451
1.08583
1.08669
1.08808
1.08945
1.08943
1.08784
1.08475
1.081
1.07607
1.07142
1.07004
1.06975
1.06911
1.06666
1.06511
1.06579
1.06937
1.07165
1.0715
1.06971
1.06825
1.0675
1.06646
1.06498
1.06321
1.0626
1.06241
1.06173
1.06013
1.05887
1.05875
1.05906
1.05937
1.05947
1.05877
1.05688
1.05554
1.05548
1.05567
1.05624
1.05708
1.05789
1.05847
1.05917
1.06012
1.06113
1.06207
1.06291
1.06351
1.06372
1.064
1.06415
1.06451
1.06501
1.06566
1.06648
1.06694
1.06744
1.06782
1.06821
1.0685
1.0689
1.06894
1.06869
1.06825
1.06792
1.06777
1.06802
1.06823
1.06861
1.0809
1.15216
1.15287
1.15328
1.15334
1.15273
1.14939
1.14592
1.14543
1.14595
1.14636
1.14602
1.1446
1.14311
1.14233
1.14142
1.13943
1.13375
1.12618
1.12442
1.12478
1.12493
1.12424
1.12159
1.11963
1.11765
1.11372
1.10924
1.10654
1.10614
1.10698
1.10723
1.10498
1.10271
1.10249
1.10384
1.108
1.10915
1.10776
1.10407
1.10044
1.09962
1.09852
1.0944
1.0884
1.08447
1.08341
1.08341
1.08234
1.07739
1.07163
1.07023
1.07098
1.07282
1.07301
1.0733
1.07464
1.07449
1.07043
1.06386
1.06128
1.06113
1.06125
1.06185
1.06378
1.06418
1.06252
1.05979
1.05856
1.05852
1.0593
1.06137
1.06236
1.06286
1.06291
1.06294
1.06286
1.06244
1.06136
1.06009
1.05996
1.06019
1.06089
1.06208
1.06354
1.06535
1.06665
1.06721
1.0675
1.06767
1.06799
1.06798
1.06775
1.06762
1.06758
1.06781
1.06831
1.06865
1.06879
1.06879
1.07006
1.20943
1.20953
1.20915
1.20526
1.20142
1.20127
1.202
1.20198
1.19759
1.19218
1.19129
1.19132
1.19213
1.19368
1.1943
1.19336
1.19271
1.1928
1.19256
1.1895
1.18528
1.18493
1.185
1.18451
1.18478
1.18457
1.18076
1.17714
1.17711
1.17664
1.17399
1.16826
1.16139
1.15831
1.15818
1.15775
1.15631
1.15408
1.14899
1.14199
1.14076
1.1415
1.14071
1.13625
1.13525
1.13619
1.13583
1.13341
1.12941
1.12337
1.11689
1.11092
1.10483
1.10213
1.10265
1.10575
1.1064
1.10482
1.09899
1.09021
1.08377
1.08234
1.08251
1.08253
1.08219
1.08061
1.07705
1.07222
1.06841
1.06717
1.06642
1.06496
1.06336
1.06214
1.06182
1.06116
1.05976
1.05864
1.05812
1.05814
1.0584
1.05931
1.06068
1.06195
1.06298
1.06362
1.06424
1.06411
1.06384
1.06423
1.06506
1.06578
1.06675
1.06729
1.06819
1.06872
1.06887
1.06886
1.06855
1.0683
1.28199
1.28214
1.2813
1.27755
1.27517
1.27503
1.2755
1.27557
1.27315
1.26677
1.26553
1.26543
1.26427
1.26152
1.26065
1.26043
1.25951
1.25942
1.25939
1.25598
1.24844
1.24716
1.24728
1.24604
1.24252
1.2409
1.24029
1.23781
1.23258
1.23065
1.22967
1.22724
1.22253
1.22135
1.22208
1.22226
1.22109
1.21859
1.21483
1.2102
1.20672
1.20382
1.20033
1.19216
1.1825
1.17969
1.1778
1.1727
1.17096
1.17067
1.16907
1.1649
1.15857
1.15495
1.15182
1.14297
1.13092
1.12913
1.12801
1.12299
1.11933
1.119
1.11655
1.10596
1.09666
1.09572
1.09482
1.09152
1.08522
1.07789
1.07383
1.07147
1.06875
1.06593
1.06501
1.06434
1.06331
1.06224
1.06246
1.06308
1.06433
1.06635
1.06615
1.06537
1.06432
1.06353
1.06264
1.06163
1.06152
1.06184
1.06249
1.06359
1.06494
1.06696
1.06798
1.0685
1.06841
1.06809
1.0675
1.06772
1.35078
1.34944
1.34873
1.34865
1.34753
1.34361
1.34102
1.34101
1.34203
1.34224
1.34186
1.34065
1.33683
1.33346
1.33332
1.33381
1.33379
1.33305
1.33108
1.32847
1.32415
1.32108
1.32105
1.32114
1.32028
1.31814
1.31626
1.31434
1.31079
1.30534
1.30174
1.29986
1.29777
1.29414
1.29079
1.28849
1.28605
1.28339
1.27794
1.27099
1.27012
1.26976
1.26796
1.26352
1.25739
1.25326
1.24905
1.24375
1.24038
1.23458
1.225
1.22174
1.22022
1.21713
1.21319
1.20728
1.20007
1.19531
1.18901
1.17633
1.17024
1.17007
1.16909
1.16512
1.15632
1.1443
1.13764
1.13554
1.13411
1.12853
1.11948
1.11392
1.10979
1.10442
1.09873
1.09395
1.09008
1.08481
1.08008
1.07529
1.07232
1.06913
1.06577
1.06342
1.06188
1.06133
1.06077
1.06086
1.06113
1.06191
1.06353
1.06518
1.06577
1.0659
1.06537
1.06489
1.06494
1.06528
1.06611
1.06773
1.43154
1.43021
1.42863
1.42726
1.42685
1.42609
1.42476
1.42444
1.42377
1.42144
1.4211
1.42103
1.41896
1.41646
1.41378
1.40998
1.40955
1.40936
1.40867
1.40633
1.40169
1.39931
1.39842
1.39727
1.39494
1.39167
1.3889
1.38724
1.38563
1.38283
1.37897
1.37613
1.37409
1.37038
1.36669
1.36389
1.36113
1.35831
1.35494
1.35068
1.34672
1.34324
1.33918
1.33304
1.32668
1.32222
1.31668
1.30864
1.3071
1.30607
1.30244
1.2964
1.29085
1.2854
1.27554
1.26313
1.26023
1.25886
1.25403
1.24413
1.2378
1.2316
1.21958
1.21241
1.20719
1.20149
1.1957
1.18602
1.17527
1.16807
1.16099
1.15272
1.14391
1.13657
1.12937
1.1221
1.1145
1.1066
1.09845
1.09021
1.08366
1.0777
1.07253
1.0688
1.06694
1.06583
1.06642
1.06697
1.06783
1.06926
1.06905
1.06815
1.06675
1.0651
1.06375
1.06332
1.06338
1.06384
1.06486
1.06747
1.51452
1.51391
1.51389
1.51339
1.51024
1.50506
1.50342
1.50375
1.50512
1.50536
1.50523
1.50328
1.49877
1.49758
1.49713
1.49585
1.49167
1.48993
1.48957
1.48891
1.48607
1.48057
1.4789
1.47836
1.4771
1.47416
1.47009
1.46655
1.46449
1.46262
1.4595
1.45565
1.45267
1.44981
1.44544
1.4415
1.43783
1.4337
1.42926
1.42415
1.42054
1.41761
1.41451
1.41005
1.4038
1.39762
1.39292
1.38827
1.38308
1.37797
1.37255
1.36517
1.35846
1.35409
1.34894
1.34124
1.33329
1.32723
1.31993
1.30823
1.30345
1.30034
1.29343
1.28419
1.27021
1.25995
1.2568
1.2529
1.24311
1.22896
1.21964
1.21318
1.20548
1.19658
1.18734
1.17879
1.16949
1.16143
1.1528
1.1448
1.136
1.12769
1.11897
1.10962
1.10118
1.0931
1.0877
1.08119
1.07644
1.07194
1.06858
1.0662
1.06464
1.06389
1.0636
1.06342
1.06445
1.06618
1.06669
1.06646
1.60551
1.60532
1.60376
1.60096
1.60062
1.60048
1.5985
1.59352
1.59105
1.59124
1.59184
1.59146
1.5902
1.58579
1.58211
1.58142
1.58083
1.57915
1.57577
1.57294
1.57106
1.5694
1.56716
1.56455
1.5607
1.55714
1.55478
1.55223
1.54847
1.54569
1.54341
1.54005
1.53595
1.53252
1.52872
1.52503
1.52152
1.51757
1.5124
1.50708
1.5021
1.49758
1.49364
1.48936
1.48404
1.47743
1.47044
1.46567
1.46154
1.45618
1.44984
1.44374
1.4368
1.42903
1.42246
1.41578
1.40714
1.4
1.39425
1.38728
1.37837
1.36848
1.35926
1.35215
1.34422
1.33542
1.32492
1.31422
1.30597
1.29707
1.28558
1.2743
1.26539
1.25558
1.24418
1.23304
1.22196
1.21124
1.19997
1.1885
1.17656
1.16538
1.15445
1.14344
1.13136
1.11948
1.10886
1.09906
1.08975
1.08134
1.07555
1.07192
1.07001
1.06888
1.0696
1.07098
1.07147
1.07066
1.06891
1.06571
1.70091
1.69993
1.69718
1.69437
1.69272
1.69253
1.6925
1.69102
1.68892
1.68712
1.68339
1.68195
1.68207
1.68138
1.67894
1.67302
1.66939
1.66947
1.66936
1.66773
1.66231
1.65796
1.65635
1.65508
1.65252
1.64849
1.6451
1.64282
1.63953
1.63542
1.63245
1.62978
1.62541
1.61916
1.61461
1.6112
1.60823
1.60473
1.59976
1.59358
1.58702
1.58168
1.57732
1.57301
1.56814
1.5615
1.55353
1.54738
1.54274
1.53745
1.52972
1.52213
1.516
1.50895
1.50026
1.49296
1.48566
1.47746
1.46944
1.46087
1.452
1.44305
1.43396
1.42493
1.41449
1.40492
1.39674
1.38708
1.37453
1.36343
1.35432
1.3434
1.33137
1.31996
1.30897
1.29693
1.2855
1.27373
1.26165
1.24922
1.23792
1.22655
1.21459
1.20325
1.19138
1.18036
1.16851
1.15743
1.14514
1.13342
1.12173
1.11012
1.10017
1.09082
1.08352
1.07765
1.07284
1.06836
1.06622
1.06516
1.79862
1.79648
1.79681
1.79717
1.79597
1.79375
1.7934
1.79245
1.78813
1.78348
1.78319
1.78359
1.7831
1.78036
1.77328
1.77084
1.77094
1.77065
1.76765
1.76201
1.7599
1.7588
1.75648
1.752
1.74801
1.74489
1.74198
1.73912
1.73564
1.73097
1.72534
1.72203
1.71941
1.71571
1.71076
1.70429
1.69858
1.69455
1.69044
1.68519
1.67919
1.67301
1.66676
1.66089
1.65577
1.65032
1.64301
1.63496
1.62881
1.62306
1.61521
1.6067
1.59988
1.59294
1.58394
1.57485
1.56673
1.55827
1.54952
1.54047
1.53079
1.52097
1.51098
1.50144
1.49177
1.48122
1.47026
1.45959
1.44871
1.43688
1.42514
1.41345
1.40154
1.38927
1.3768
1.36399
1.35096
1.33784
1.32536
1.31211
1.2985
1.28488
1.27113
1.25685
1.2426
1.22877
1.21486
1.20095
1.18656
1.1726
1.1578
1.14307
1.12834
1.11482
1.10205
1.0901
1.08083
1.07434
1.07116
1.07067
1.91192
1.90685
1.90154
1.90115
1.90214
1.90234
1.90138
1.8994
1.89739
1.89271
1.88962
1.88915
1.88847
1.88641
1.87945
1.87653