/*--------------------------------*- C++ -*----------------------------------*\
  =========                 |
  \\      /  F ield         | OpenFOAM: The Open Source CFD Toolbox
   \\    /   O peration     | Website:  https://openfoam.org
    \\  /    A nd           | Version:  7
     \\/     M anipulation  |
\*---------------------------------------------------------------------------*/
FoamFile
{
    version     2.0;
    format      ascii;
    class       volScalarField;
    location    "4.5";
    object      p;
}
// * * * * * * * * * * * * * * * * * * * * * * * * * * * * * * * * * * * * * //

dimensions      [1 -1 -2 0 0 0 0];

internalField   nonuniform List<scalar> 
90000
(
0.086004
0.125361
0.170051
0.205852
0.219034
0.247433
0.287259
0.312008
0.342241
0.38695
0.430817
0.475472
0.52507
0.575125
0.624425
0.671062
0.716403
0.749676
0.781935
0.799796
0.812909
0.816561
0.815882
0.808494
0.802491
0.792946
0.783619
0.778374
0.777027
0.775171
0.777643
0.780695
0.779353
0.772382
0.759737
0.748624
0.739059
0.734643
0.736566
0.746518
0.762661
0.781706
0.798577
0.80825
0.814391
0.808761
0.799076
0.787941
0.778871
0.775958
0.778982
0.785428
0.792715
0.796655
0.796721
0.792153
0.785697
0.77902
0.776286
0.777939
0.782402
0.786203
0.787109
0.78513
0.780362
0.778034
0.778344
0.782097
0.789725
0.787073
0.780905
0.77474
0.773287
0.778341
0.784528
0.786611
0.78256
0.774353
0.772738
0.776661
0.781393
0.782799
0.78212
0.784075
0.789472
0.796991
0.802724
0.807562
0.811235
0.813778
0.819903
0.821596
0.826036
0.830814
0.832135
0.834621
0.833472
0.834428
0.836463
0.841866
0.0438315
0.0438117
0.0437906
0.0437722
0.043755
0.043741
0.0437246
0.0437161
0.0436783
0.044419
0.0470395
0.0534073
0.0638873
0.0812744
0.104009
0.136849
0.176989
0.229204
0.288612
0.359704
0.432029
0.504657
0.574939
0.640061
0.699203
0.743066
0.777705
0.798332
0.81252
0.813898
0.811175
0.803585
0.795418
0.791181
0.786268
0.783647
0.781461
0.783199
0.782195
0.78212
0.784165
0.78714
0.786112
0.783452
0.780252
0.778393
0.780242
0.787867
0.792449
0.799193
0.800532
0.799446
0.795966
0.788896
0.781755
0.775662
0.773609
0.776321
0.782076
0.788107
0.791756
0.791505
0.788345
0.784026
0.781685
0.782505
0.783871
0.785231
0.780636
0.775839
0.773613
0.776343
0.780959
0.785999
0.782838
0.774815
0.771152
0.771859
0.777971
0.785123
0.783078
0.779754
0.781663
0.789927
0.798915
0.804614
0.806264
0.809834
0.813244
0.817701
0.822687
0.824274
0.830054
0.830809
0.832247
0.834455
0.834705
0.837208
0.840989
0.847356
0.043843
0.0438431
0.043844
0.0438454
0.0438464
0.043849
0.0438515
0.0438566
0.0438598
0.0438646
0.0438355
0.0438034
0.0437728
0.0437499
0.0437295
0.043718
0.0437037
0.0437026
0.0436704
0.0444996
0.0491591
0.0625424
0.0851437
0.121259
0.167766
0.228814
0.297649
0.376778
0.454488
0.531822
0.599992
0.66732
0.726531
0.777773
0.823145
0.849995
0.863818
0.865769
0.853719
0.83589
0.811567
0.782968
0.754921
0.728379
0.723809
0.736789
0.758604
0.786144
0.810575
0.824412
0.819638
0.805579
0.784833
0.768343
0.761341
0.765086
0.779001
0.79358
0.801154
0.79865
0.789321
0.781265
0.778875
0.780091
0.782643
0.783051
0.781899
0.778924
0.778074
0.779516
0.781848
0.784255
0.785232
0.781315
0.77812
0.777137
0.779783
0.784037
0.788547
0.781533
0.779147
0.78343
0.791727
0.801475
0.799978
0.800503
0.807255
0.814952
0.81975
0.824455
0.828343
0.829826
0.833354
0.832716
0.834508
0.83799
0.839394
0.843859
0.848307
0.854179
0.0438561
0.0438557
0.0438562
0.0438552
0.0438543
0.0438521
0.0438497
0.0438453
0.0438421
0.043836
0.0438318
0.0438273
0.0438246
0.0438227
0.0438208
0.04382
0.0438183
0.0438163
0.0438149
0.0438172
0.0437985
0.0437835
0.0437712
0.0437652
0.0437612
0.043769
0.043761
0.0455775
0.0537329
0.0745396
0.109034
0.16113
0.231693
0.315456
0.415004
0.516285
0.605234
0.692331
0.74679
0.782931
0.798697
0.792305
0.776492
0.762857
0.768829
0.775316
0.778324
0.779305
0.783451
0.788584
0.78403
0.782567
0.783744
0.784554
0.781584
0.778502
0.779086
0.785662
0.789444
0.789499
0.786837
0.781768
0.778148
0.780233
0.78616
0.788304
0.784113
0.778882
0.775845
0.780208
0.784148
0.784574
0.780921
0.778338
0.778746
0.780167
0.78193
0.782694
0.78073
0.781414
0.784867
0.790517
0.795796
0.798276
0.804104
0.810748
0.818625
0.820632
0.820759
0.824356
0.826919
0.829478
0.833434
0.834198
0.836369
0.838219
0.838953
0.841119
0.842458
0.849031
0.0438379
0.0438327
0.0438272
0.0438219
0.0438162
0.0438112
0.0438059
0.0438017
0.0437979
0.0437936
0.0437909
0.0437876
0.0437862
0.043785
0.0437838
0.0437827
0.0437834
0.043783
0.0437872
0.0437895
0.0437913
0.0437965
0.0438037
0.0438118
0.0438199
0.0438294
0.0438405
0.0438346
0.0438289
0.0438231
0.0438195
0.0438127
0.0438058
0.0437842
0.0482112
0.0679462
0.107127
0.174533
0.273917
0.391764
0.519981
0.632248
0.726113
0.785363
0.816144
0.810508
0.803858
0.791694
0.775689
0.756265
0.743644
0.748364
0.765588
0.788664
0.810408
0.808231
0.798307
0.781297
0.770227
0.770612
0.778419
0.787694
0.789473
0.782734
0.777355
0.775637
0.778176
0.780784
0.780292
0.778844
0.781801
0.784252
0.782774
0.779818
0.781479
0.783368
0.783716
0.782628
0.782359
0.784798
0.788731
0.793839
0.799817
0.807846
0.8131
0.815042
0.817064
0.818958
0.822672
0.827092
0.829637
0.834837
0.837653
0.83877
0.841286
0.84293
0.844027
0.844646
0.845689
0.853051
0.043774
0.0437716
0.0437695
0.0437674
0.0437655
0.0437646
0.0437637
0.0437637
0.0437639
0.0437655
0.0437681
0.0437713
0.0437743
0.043777
0.0437793
0.0437828
0.0437872
0.0437924
0.0437983
0.0438038
0.043808
0.0438129
0.0438196
0.0438246
0.043829
0.0438343
0.0438363
0.0438376
0.0438403
0.0438397
0.0438355
0.0438261
0.0438136
0.0438016
0.043779
0.0437587
0.0437435
0.0437443
0.0437498
0.0472189
0.0695479
0.126549
0.228092
0.361648
0.493899
0.590842
0.670102
0.703364
0.733008
0.733185
0.745064
0.757875
0.767056
0.776817
0.800392
0.811633
0.804271
0.78719
0.770034
0.767611
0.771924
0.781987
0.791873
0.793489
0.785168
0.774196
0.771873
0.777158
0.784859
0.788156
0.781327
0.777324
0.777995
0.778836
0.779248
0.784114
0.786557
0.786339
0.785006
0.788004
0.794162
0.800376
0.803686
0.805271
0.809893
0.815374
0.819247
0.824183
0.828528
0.833017
0.834201
0.836667
0.836746
0.836306
0.838967
0.841044
0.843182
0.845267
0.846671
0.853442
0.043754
0.0437544
0.0437551
0.0437563
0.0437583
0.0437606
0.0437634
0.0437664
0.0437709
0.0437767
0.0437833
0.0437899
0.0437948
0.0437985
0.0438021
0.0438058
0.0438097
0.0438129
0.0438169
0.04382
0.0438206
0.0438214
0.0438238
0.043825
0.0438249
0.0438242
0.0438219
0.0438196
0.0438168
0.0438123
0.0438037
0.0437927
0.0437835
0.043773
0.0437589
0.0437466
0.0437409
0.0437512
0.0437705
0.0437899
0.0438033
0.0438046
0.0437955
0.0456937
0.0645144
0.119631
0.208855
0.334509
0.474132
0.593037
0.692298
0.740348
0.770679
0.774071
0.781708
0.795086
0.791786
0.781811
0.7756
0.777675
0.778046
0.778093
0.780832
0.784194
0.782238
0.778261
0.775623
0.776917
0.780532
0.786032
0.783127
0.778015
0.777351
0.782682
0.785563
0.782277
0.781259
0.78209
0.784296
0.787723
0.795447
0.802003
0.809577
0.811931
0.816037
0.822268
0.82273
0.821639
0.825347
0.830688
0.834107
0.838857
0.841333
0.844332
0.845529
0.844149
0.844588
0.848792
0.851165
0.85701
0.0437605
0.0437644
0.0437679
0.0437721
0.0437761
0.0437805
0.0437852
0.0437898
0.0437959
0.0438034
0.043811
0.0438175
0.0438212
0.0438226
0.0438233
0.0438226
0.0438206
0.0438183
0.0438165
0.0438148
0.0438123
0.0438095
0.0438087
0.0438086
0.0438068
0.0438027
0.0437991
0.0437976
0.0437945
0.0437883
0.0437804
0.0437746
0.0437703
0.0437593
0.0437473
0.0437386
0.0437406
0.0437543
0.0437771
0.0438
0.0438104
0.0438091
0.0438025
0.0437868
0.0437662
0.0437386
0.0437117
0.0447019
0.063355
0.128012
0.233784
0.374871
0.519262
0.617478
0.695163
0.730747
0.759482
0.771589
0.79014
0.799247
0.791282
0.783371
0.778665
0.77559
0.776809
0.779023
0.782321
0.784182
0.783805
0.781644
0.779588
0.778242
0.778373
0.781662
0.786804
0.786958
0.78447
0.784886
0.788541
0.795836
0.799987
0.801819
0.804304
0.810741
0.815838
0.820121
0.8263
0.830662
0.829765
0.830698
0.834686
0.83726
0.837272
0.838946
0.844198
0.845698
0.842511
0.84274
0.847152
0.860594
0.0437876
0.0437919
0.0437962
0.0438007
0.043805
0.0438098
0.0438143
0.0438184
0.0438239
0.0438292
0.0438331
0.0438355
0.0438348
0.0438322
0.0438285
0.0438225
0.0438146
0.0438067
0.0438004
0.0437962
0.0437929
0.0437899
0.0437886
0.0437894
0.0437881
0.043785
0.0437835
0.0437833
0.0437806
0.0437758
0.0437713
0.0437688
0.043763
0.0437503
0.0437402
0.0437365
0.0437418
0.0437596
0.043783
0.0437995
0.0438016
0.0437954
0.0437819
0.0437673
0.0437525
0.0437312
0.0437153
0.043718
0.04373
0.0437624
0.0437886
0.0495509
0.081798
0.167171
0.291255
0.441189
0.596463
0.707273
0.770568
0.785442
0.789913
0.788462
0.781463
0.767752
0.77165
0.781165
0.789195
0.788102
0.782782
0.775837
0.776009
0.778858
0.784096
0.786406
0.785072
0.784752
0.783821
0.785503
0.790401
0.796528
0.803551
0.808053
0.810164
0.813412
0.820049
0.822496
0.821324
0.824746
0.832113
0.837189
0.837787
0.837473
0.835566
0.833723
0.835772
0.842353
0.848417
0.848663
0.847158
0.854994
0.0438269
0.0438324
0.0438353
0.0438363
0.0438377
0.0438402
0.0438421
0.0438433
0.0438437
0.0438424
0.0438406
0.0438385
0.0438335
0.0438267
0.0438204
0.0438101
0.043797
0.0437882
0.0437813
0.0437769
0.0437743
0.0437722
0.0437714
0.0437724
0.0437732
0.0437747
0.0437785
0.0437804
0.0437779
0.0437744
0.043772
0.0437691
0.0437625
0.0437509
0.0437433
0.0437405
0.0437477
0.0437639
0.0437829
0.0437813
0.0437749
0.0437659
0.0437581
0.0437527
0.0437458
0.043736
0.0437508
0.043781
0.043825
0.0438681
0.0438965
0.0439207
0.0439591
0.0439785
0.0439724
0.061394
0.12317
0.258429
0.430725
0.584397
0.694154
0.752816
0.765096
0.766178
0.779828
0.791802
0.79321
0.788008
0.780183
0.770659
0.773596
0.783306
0.790458
0.788681
0.784598
0.784244
0.786216
0.791779
0.79906
0.802562
0.803852
0.806991
0.811175
0.814803
0.81868
0.825215
0.825717
0.826968
0.833819
0.838341
0.839976
0.841643
0.843413
0.845162
0.846038
0.844347
0.845845
0.850456
0.853658
0.857155
0.0438578
0.0438577
0.0438566
0.0438554
0.0438546
0.0438534
0.0438526
0.0438499
0.0438432
0.043835
0.0438295
0.0438241
0.0438151
0.0438073
0.0437999
0.0437867
0.0437722
0.0437654
0.0437609
0.043758
0.0437563
0.0437562
0.0437578
0.0437614
0.0437674
0.0437764
0.0437871
0.0437917
0.0437905
0.0437886
0.0437878
0.043785
0.0437795
0.0437744
0.0437673
0.0437597
0.04376
0.0437627
0.0437551
0.0437456
0.0437449
0.0437502
0.0437515
0.0437491
0.043751
0.0437787
0.043832
0.0438863
0.0439268
0.0439396
0.0439431
0.0439507
0.0439628
0.0439442
0.0439235
0.0439082
0.0438434
0.0437036
0.0559394
0.123036
0.26148
0.450404
0.62444
0.733311
0.777915
0.78054
0.786486
0.784603
0.768023
0.768926
0.779966
0.790919
0.790092
0.786589
0.783645
0.785624
0.791289
0.798082
0.802592
0.803897
0.805501
0.809346
0.815747
0.819973
0.82138
0.823161
0.826305
0.831028
0.833378
0.835416
0.837434
0.839633
0.843716
0.847694
0.850505
0.846649
0.844685
0.846668
0.854455
0.860899
0.0438508
0.0438486
0.0438463
0.043844
0.0438415
0.0438382
0.0438341
0.0438291
0.0438212
0.0438137
0.0438082
0.0437999
0.043786
0.0437779
0.0437714
0.0437606
0.043748
0.0437422
0.0437408
0.0437413
0.043744
0.0437507
0.0437617
0.0437729
0.0437864
0.0438033
0.0438146
0.0438201
0.0438195
0.043817
0.0438142
0.0438112
0.0438106
0.04381
0.0438032
0.0437842
0.0437592
0.0437361
0.0437218
0.0437229
0.0437337
0.0437508
0.0437546
0.0437614
0.0437928
0.0438629
0.0439344
0.0439789
0.0439815
0.0439709
0.0439593
0.0439527
0.0439246
0.0438886
0.043863
0.0438311
0.0437492
0.0436541
0.0436449
0.0436552
0.0436703
0.0627056
0.14933
0.322663
0.525869
0.648123
0.740798
0.755738
0.760507
0.779332
0.796924
0.795423
0.789491
0.78276
0.784641
0.79086
0.798869
0.803526
0.804077
0.804619
0.806512
0.811024
0.818211
0.822316
0.822349
0.824641
0.828958
0.834682
0.836723
0.837798
0.839057
0.839621
0.841157
0.844136
0.846507
0.849161
0.848963
0.84944
0.851728
0.859581
0.0438171
0.0438155
0.0438137
0.0438121
0.0438104
0.0438069
0.0438008
0.0437977
0.0437965
0.0437941
0.0437896
0.0437805
0.0437616
0.0437523
0.0437505
0.0437469
0.0437385
0.0437349
0.0437373
0.0437463
0.0437597
0.0437788
0.0438044
0.0438224
0.0438348
0.043845
0.0438471
0.0438458
0.0438422
0.0438351
0.0438258
0.0438195
0.0438183
0.0438168
0.0438081
0.0437771
0.0437292
0.0437074
0.043708
0.0437142
0.0437375
0.0437572
0.0437726
0.0438073
0.0438761
0.0439573
0.0440074
0.0440111
0.0440015
0.0439792
0.0439611
0.0439186
0.0438607
0.043832
0.043811
0.0437737
0.0436925
0.0436353
0.0436351
0.0436479
0.0436881
0.0437856
0.0439877
0.0442689
0.0819321
0.206661
0.401184
0.60003
0.729037
0.78637
0.787738
0.791664
0.778731
0.782308
0.792107
0.797055
0.802638
0.804219
0.804851
0.806433
0.809838
0.815273
0.820641
0.823666
0.824426
0.82551
0.828862
0.83536
0.837471
0.838123
0.839242
0.840137
0.842014
0.844465
0.846962
0.85017
0.850647
0.849825
0.852012
0.860092
0.0438044
0.0438042
0.0438039
0.043804
0.0438034
0.043803
0.0438031
0.0438037
0.0438027
0.0437989
0.0437942
0.0437891
0.0437776
0.0437682
0.0437685
0.0437741
0.0437798
0.0437833
0.0437935
0.0438105
0.0438227
0.0438364
0.0438581
0.043866
0.0438653
0.0438613
0.0438539
0.043847
0.0438396
0.0438263
0.0438048
0.0437909
0.0437881
0.0437864
0.0437794
0.0437516
0.0437137
0.043705
0.0437063
0.0437163
0.0437465
0.0437917
0.0438447
0.043901
0.0439655
0.0440133
0.0440207
0.0440176
0.0440002
0.043976
0.043931
0.043833
0.0437763
0.0437766
0.0437719
0.0437443
0.0436758
0.0436333
0.0436446
0.0437324
0.0438621
0.0440431
0.0441783
0.0442066
0.0441831
0.0441335
0.0532699
0.132098
0.316688
0.547034
0.666316
0.757961
0.763056
0.78916
0.804547
0.801834
0.803269
0.802341
0.805864
0.810232
0.814929
0.819864
0.821311
0.823725
0.825837
0.827362
0.831203
0.837711
0.839675
0.840151
0.841024
0.842078
0.843851
0.845508
0.847117
0.848911
0.849205
0.849733
0.852941
0.862353
0.0438144
0.0438157
0.0438171
0.0438186
0.0438203
0.0438222
0.0438242
0.0438264
0.0438285
0.043829
0.0438264
0.043821
0.0438204
0.0438226
0.0438299
0.0438378
0.0438402
0.0438425
0.0438544
0.0438665
0.0438656
0.0438662
0.0438718
0.0438723
0.0438684
0.0438492
0.0438201
0.0438009
0.0437858
0.0437653
0.043747
0.0437453
0.0437494
0.0437623
0.0437631
0.0437465
0.0437299
0.0437314
0.0437357
0.0437489
0.0437943
0.0438799
0.0439566
0.0439894
0.044013
0.0440193
0.044015
0.0439868
0.0439415
0.0439006
0.043832
0.0437372
0.0437173
0.0437316
0.0437441
0.0437333
0.0436851
0.0436746
0.0437729
0.0440097
0.0442903
0.0444812
0.0443762
0.0441856
0.044151
0.0442096
0.0444947
0.0452457
0.0456757
0.0913245
0.240868
0.46363
0.653369
0.75847
0.780125
0.800119
0.810663
0.804911
0.813019
0.812931
0.819684
0.823483
0.82305
0.825554
0.827829
0.829334
0.832977
0.837599
0.839612
0.840344
0.841055
0.842419
0.845019
0.847468
0.848099
0.848254
0.850329
0.853353
0.855425
0.861149
0.0438418
0.0438445
0.0438467
0.0438499
0.0438532
0.0438555
0.0438576
0.0438614
0.0438653
0.0438664
0.0438663
0.0438662
0.0438666
0.0438682
0.0438709
0.0438731
0.0438731
0.0438731
0.0438762
0.0438769
0.0438736
0.0438598
0.0438445
0.0438352
0.0438214
0.043793
0.0437627
0.0437366
0.0437208
0.0437127
0.0437105
0.043715
0.0437295
0.0437563
0.0437857
0.0438147
0.0438332
0.0438403
0.0438415
0.0438486
0.0438846
0.0439623
0.044018
0.0440203
0.0440109
0.0439902
0.0439534
0.0438838
0.0438272
0.0437902
0.0437352
0.0436955
0.0436953
0.0437137
0.0437389
0.0437452
0.0437624
0.0438278
0.0440817
0.0444174
0.0447195
0.0448737
0.0447384
0.0444333
0.0445153
0.0449237
0.0457504
0.0468875
0.047691
0.0479261
0.0482728
0.0682993
0.187472
0.397952
0.595438
0.733222
0.781014
0.79959
0.824322
0.814648
0.825111
0.820231
0.824317
0.828414
0.830296
0.832398
0.834869
0.836932
0.839819
0.84294
0.845304
0.847202
0.84814
0.848918
0.849404
0.849795
0.85161
0.854634
0.856205
0.862134
0.0438829
0.0438822
0.0438822
0.0438833
0.0438861
0.0438864
0.0438843
0.0438809
0.0438801
0.0438802
0.0438801
0.0438793
0.0438784
0.0438769
0.0438741
0.0438702
0.0438631
0.0438506
0.0438387
0.0438258
0.0438009
0.0437781
0.0437713
0.0437723
0.0437706
0.0437604
0.0437432
0.043708
0.0437004
0.0437019
0.0436993
0.0437072
0.0437517
0.0438327
0.0439019
0.0439506
0.0439594
0.0439535
0.0439388
0.0439346
0.0439415
0.043981
0.0440063
0.044
0.0439768
0.0439467
0.0438991
0.0438162
0.0437572
0.0437256
0.0436946
0.0436873
0.0436957
0.0437199
0.0437697
0.0438675
0.0440478
0.0442898
0.044625
0.0448623
0.0450381
0.045244
0.0452612
0.0454384
0.0458123
0.0465053
0.0476587
0.048441
0.0492606
0.0502324
0.0511886
0.0518992
0.0527764
0.060757
0.143647
0.325637
0.547124
0.710605
0.777158
0.804207
0.843802
0.821404
0.832302
0.827307
0.829157
0.834876
0.839798
0.841447
0.843017
0.844111
0.845518
0.847341
0.849045
0.850808
0.851617
0.850889
0.85133
0.854164
0.857463
0.864191
0.0438818
0.0438801
0.0438773
0.043877
0.0438731
0.0438547
0.0438168
0.0437821
0.0437742
0.0437734
0.0437726
0.0437679
0.043765
0.0437653
0.0437646
0.043761
0.0437502
0.0437443
0.0437422
0.0437363
0.0437245
0.0437216
0.0437247
0.0437374
0.0437496
0.0437511
0.0437445
0.0437236
0.0437175
0.0437187
0.0437358
0.0437925
0.0439029
0.0439788
0.0440133
0.0440267
0.0440246
0.0440044
0.0439767
0.0439622
0.043951
0.0439535
0.0439664
0.0439598
0.0439386
0.0439195
0.0438811
0.0438031
0.0437405
0.0437018
0.0436989
0.0437186
0.0438092
0.0439776
0.0441386
0.0443717
0.0447252
0.0451546
0.045363
0.0454045
0.0454611
0.0456464
0.0461537
0.0469521
0.0477967
0.0490227
0.0500932
0.0507173
0.0516662
0.0529427
0.0539988
0.0550653
0.0565784
0.0582259
0.0589479
0.059435
0.10983
0.269301
0.488248
0.681094
0.767982
0.798548
0.85268
0.832215
0.83754
0.83523
0.832536
0.839312
0.846508
0.848042
0.84893
0.849749
0.849758
0.8509
0.852419
0.853533
0.854337
0.854933
0.85718
0.864137
0.0437647
0.0437532
0.0437387
0.0437197
0.0436861
0.04362
0.043574
0.0435668
0.0435693
0.0435757
0.0435868
0.0436017
0.0436185
0.043628
0.0436347
0.0436441
0.0436561
0.0436686
0.0436776
0.043686
0.0436946
0.0437035
0.0437148
0.0437393
0.0437927
0.0438307
0.0438508
0.0438669
0.0438698
0.043873
0.0438988
0.0439838
0.044077
0.0440824
0.044071
0.0440561
0.0440414
0.0440111
0.0439859
0.0439632
0.0439352
0.0439327
0.0439591
0.043958
0.0439379
0.0439235
0.0439039
0.0438443
0.0437791
0.0437777
0.0438474
0.0440722
0.0444813
0.0449313
0.0452945
0.0455562
0.0457653
0.0461966
0.0463196
0.0463437
0.0464459
0.0469125
0.04791
0.0491577
0.0505481
0.0515964
0.0524388
0.0533907
0.0542585
0.0552305
0.0565246
0.0584824
0.0599178
0.0605099
0.0617568
0.0632406
0.0644916
0.0656622
0.0931116
0.215571
0.416683
0.634526
0.756455
0.79597
0.848091
0.851103
0.841437
0.847602
0.842566
0.842833
0.849128
0.852633
0.853414
0.853176
0.85163
0.852513
0.854932
0.857502
0.858998
0.864234
0.0435429
0.0435374
0.0435218
0.0434814
0.0434423
0.0434326
0.0434342
0.0434398
0.0434503
0.0434659
0.0434897
0.0435201
0.0435528
0.0435796
0.0435999
0.0436247
0.0436663
0.0437203
0.0437722
0.0438175
0.0438623
0.0438987
0.0439266
0.0439595
0.0440237
0.0440989
0.0441155
0.0441113
0.0441073
0.0441094
0.0441293
0.0441567
0.044153
0.0441394
0.0441113
0.0440756
0.0440388
0.0440271
0.0440304
0.0440102
0.0439907
0.044004
0.0440196
0.0440001
0.0440071
0.0440476
0.0441322
0.044198
0.0442912
0.0444562
0.0447363
0.04519
0.0457155
0.0461676
0.0466343
0.046989
0.0471278
0.0473462
0.0478254
0.0482546
0.0488489
0.0497861
0.0509372
0.0523383
0.0536361
0.0543881
0.0551831
0.0561878
0.0572271
0.0581803
0.0597773
0.0614888
0.0627772
0.0638032
0.064831
0.0662478
0.0678491
0.0702246
0.0710981
0.071393
0.080476
0.170918
0.347443
0.581861
0.74918
0.791285
0.829574
0.869671
0.849476
0.841844
0.847545
0.848568
0.852471
0.856442
0.857566
0.857062
0.855365
0.856846
0.859334
0.86509
0.0435525
0.0435532
0.0435484
0.0435432
0.0435473
0.0435592
0.0435798
0.0436124
0.0436555
0.0437029
0.0437574
0.0438145
0.0438745
0.0439313
0.0439777
0.0440279
0.0440844
0.0441369
0.0441755
0.0442019
0.0442218
0.0442424
0.0442641
0.0442848
0.0443178
0.0443491
0.0443451
0.0443201
0.0443127
0.044304
0.0442682
0.0442231
0.0441996
0.0441825
0.0441615
0.0441494
0.0441554
0.0441842
0.0441975
0.0441623
0.044059
0.0440602
0.0441374
0.0441977
0.0442787
0.0444378
0.0447431
0.045181
0.0457016
0.0462366
0.0468163
0.0472773
0.0475891
0.0478024
0.0481193
0.0486064
0.0488872
0.0492225
0.0499005
0.0510761
0.0525125
0.0537628
0.0549772
0.0558967
0.0566841
0.0575244
0.0581998
0.0591206
0.0604075
0.061903
0.0637546
0.0647355
0.0657221
0.0668499
0.0680363
0.0698744
0.0712807
0.0726886
0.0742354
0.0755621
0.0762169
0.0778508
0.0790686
0.140331
0.29824
0.526674
0.717009
0.794848
0.829455
0.857019
0.860538
0.849064
0.852453
0.851765
0.855324
0.859086
0.860349
0.861641
0.859789
0.864225
0.0439874
0.0440388
0.0440755
0.0441195
0.0441674
0.0441836
0.0441922
0.0442073
0.0442377
0.0442774
0.0443101
0.0443338
0.0443503
0.0443661
0.0443881
0.0444074
0.0444304
0.0444509
0.0444484
0.04444
0.0444417
0.0444666
0.0444776
0.0444688
0.04447
0.0444813
0.0444678
0.0444054
0.0443883
0.0443762
0.0443341
0.0442437
0.0441628
0.0441455
0.0441493
0.0441767
0.0442448
0.0443944
0.0445505
0.044667
0.0448213
0.0450589
0.0453893
0.0458036
0.0462454
0.0467222
0.0471884
0.0476762
0.0482284
0.0487057
0.0491053
0.0493437
0.0495659
0.0497952
0.0501346
0.050741
0.0516856
0.0528077
0.0539409
0.0553121
0.0566417
0.0578242
0.0586733
0.0591452
0.0597032
0.0604342
0.0614687
0.0627831
0.0643004
0.0660317
0.0672871
0.0684211
0.0691624
0.0700103
0.071306
0.0735385
0.075388
0.0757447
0.0768611
0.0787225
0.0804632
0.0822641
0.0844822
0.0851248
0.0858103
0.124437
0.253667
0.465248
0.692618
0.793086
0.838875
0.844301
0.865329
0.85541
0.858347
0.855387
0.858098
0.861457
0.862895
0.867188
0.0448095
0.0448025
0.044794
0.0447816
0.0447623
0.0447329
0.0446978
0.0446693
0.0446438
0.044627
0.0446235
0.0446211
0.0446099
0.0445934
0.0445887
0.0445897
0.044598
0.044601
0.0445914
0.0445739
0.0445732
0.0445879
0.0445867
0.0445465
0.0445275
0.0445525
0.0445697
0.0445424
0.04452
0.0445605
0.044596
0.0446007
0.0446335
0.0447165
0.0448888
0.0451681
0.0455756
0.0460282
0.0465248
0.0470391
0.0475844
0.048128
0.0485887
0.0490043
0.0494009
0.0497401
0.0500347
0.050314
0.0506639
0.0508949
0.0511315
0.0516114
0.0522906
0.0530442
0.0540312
0.0552592
0.0568106
0.0581248
0.0592102
0.0598882
0.0604658
0.061113
0.0614587
0.062012
0.0627752
0.0639831
0.0658147
0.067475
0.0688953
0.0698794
0.0703215
0.0712401
0.0725518
0.0739658
0.0755465
0.0771023
0.0790591
0.0797559
0.0804289
0.082272
0.0849699
0.086406
0.0882685
0.0896073
0.0906374
0.0917666
0.0933617
0.110493
0.218028
0.42435
0.649934
0.784767
0.843831
0.844438
0.871939
0.862323
0.864088
0.857389
0.859301
0.866964
0.0445907
0.0445793
0.0445608
0.0445554
0.0445569
0.0445532
0.0445432
0.0445429
0.0445493
0.0445671
0.0445901
0.0446017
0.0446007
0.0446011
0.044616
0.044646
0.0446958
0.0447411
0.0447865
0.0448455
0.0449397
0.0450798
0.0452241
0.045371
0.0455328
0.0457314
0.0459645
0.0462411
0.0465277
0.0468182
0.0471108
0.0474481
0.0478226
0.0482335
0.0486462
0.0490847
0.0494988
0.0498441
0.0501285
0.0504248
0.0507783
0.0511385
0.0514987
0.0518216
0.0521067
0.0523452
0.0526724
0.053091
0.0536775
0.0545068
0.0554741
0.0565441
0.0576155
0.0588238
0.0599118
0.0607946
0.0615678
0.0622337
0.0627249
0.06296
0.0633499
0.063908
0.0647957
0.0660241
0.0674436
0.0692555
0.0707345
0.0719536
0.0727738
0.0731307
0.0736964
0.0747303
0.0763846
0.0788603
0.0807809
0.0811343
0.0820091
0.0835982
0.0850591
0.0869307
0.0891216
0.0902096
0.0913042
0.0932088
0.0946513
0.0964207
0.0993455
0.100823
0.101471
0.109483
0.188156
0.391736
0.627549
0.769283
0.843253
0.843499
0.872116
0.866648
0.866939
0.867284
0.0453995
0.0454917
0.0456043
0.0457413
0.0458882
0.0460387
0.0461799
0.0463154
0.0464681
0.0466093
0.046735
0.0468777
0.0470673
0.0472826
0.0474809
0.0476454
0.0478123
0.0480203
0.0482644
0.0485021
0.0487295
0.0489583
0.0492075
0.049457
0.0496894
0.049916
0.0501654
0.0504293
0.0507014
0.0509931
0.0513002
0.051609
0.0519184
0.0522356
0.0525183
0.0527921
0.0529789
0.0531691
0.0533997
0.0537455
0.0541454
0.0545715
0.0550397
0.0555257
0.0561605
0.0569124
0.0577814
0.0587237
0.0597243
0.0606589
0.0615339
0.062309
0.0629938
0.0636918
0.0641076
0.0643715
0.0646343
0.0652095
0.0657188
0.0663938
0.0673588
0.0686913
0.070435
0.0719431
0.0733041
0.074275
0.0748176
0.0754409
0.075959
0.076823
0.0782897
0.0799165
0.0817623
0.0835343
0.0847851
0.0852472
0.0858429
0.0876671
0.0902317
0.0918643
0.0933352
0.0947219
0.095333
0.0969917
0.0997831
0.102466
0.103628
0.10523
0.107077
0.108881
0.110427
0.113667
0.172984
0.362067
0.605067
0.750168
0.838646
0.841209
0.871723
0.876767
0.0503127
0.0504043
0.0505029
0.0506057
0.0507105
0.0508147
0.0509172
0.0510218
0.0511332
0.0512507
0.051369
0.0514898
0.0516162
0.0517457
0.0518725
0.0520028
0.0521404
0.0522783
0.0524179
0.0525665
0.0527225
0.0528823
0.0530462
0.0532158
0.0534096
0.0536267
0.0538617
0.0541075
0.054383
0.0546796
0.0550029
0.0553538
0.0557254
0.0561121
0.0565161
0.0569723
0.0575184
0.0581233
0.0587428
0.0593586
0.0599383
0.0605381
0.0611491
0.061841
0.0625427
0.0632645
0.0639341
0.0645277
0.0650409
0.0654677
0.0659249
0.0663139
0.0666682
0.0670756
0.0675905
0.0680834
0.0686989
0.0696611
0.0709928
0.0725427
0.073837
0.0750118
0.0759955
0.0768239
0.0776251
0.077917
0.0783498
0.0789946
0.0802311
0.0822522
0.0842279
0.0859664
0.0871765
0.0876528
0.0885056
0.090005
0.0914211
0.0930395
0.0954614
0.0966065
0.0973858
0.0994363
0.101573
0.102677
0.104858
0.106886
0.10786
0.109527
0.111762
0.113752
0.116133
0.118382
0.119678
0.120796
0.166224
0.347443
0.579406
0.739354
0.828311
0.859308
0.0546221
0.0547095
0.0548136
0.0549436
0.0550926
0.0552443
0.0553889
0.0555306
0.0556827
0.055845
0.0560208
0.0562097
0.0564077
0.0566076
0.0568108
0.0570224
0.0572451
0.0574815
0.0577301
0.0579816
0.0582448
0.0585252
0.0588256
0.0591406
0.059464
0.0598006
0.060157
0.0605266
0.0609062
0.0612903
0.0616829
0.0620781
0.0624911
0.06293
0.0634055
0.063893
0.0643682
0.0648107
0.0652309
0.0656283
0.0659994
0.066378
0.066739
0.0671001
0.067461
0.0678536
0.0682476
0.0686292
0.0689482
0.0693329
0.0698342
0.0703687
0.0710555
0.071917
0.0730431
0.0742493
0.0755233
0.076608
0.0776613
0.0786019
0.0793235
0.0798987
0.080239
0.0807283
0.08134
0.0822689
0.0836008
0.0851416
0.0869463
0.0884627
0.0898828
0.0911102
0.0915095
0.0921287
0.0932821
0.0951171
0.0974128
0.0988083
0.100253
0.102041
0.103221
0.104287
0.106393
0.108342
0.109808
0.111627
0.113879
0.115577
0.117621
0.120021
0.121615
0.123264
0.125176
0.127681
0.129263
0.130487
0.165578
0.330649
0.533685
0.780806
0.0615149
0.0616323
0.0617576
0.061879
0.0620043
0.0621365
0.06228
0.0624349
0.062592
0.0627458
0.0628987
0.0630609
0.0632324
0.0634098
0.0635913
0.0637798
0.063976
0.0641771
0.0643824
0.0645981
0.0648181
0.0650405
0.0652662
0.0654956
0.0657299
0.0659638
0.0662007
0.0664394
0.0666796
0.0669138
0.0671555
0.0674029
0.0676716
0.067942
0.0682239
0.0684976
0.0687785
0.0690715
0.0693881
0.0697358
0.0701214
0.0705242
0.0709255
0.071358
0.0718848
0.0725024
0.07319
0.0739656
0.0748028
0.0757105
0.0765816
0.0775344
0.0784487
0.0793074
0.0800653
0.0808919
0.0817491
0.0823503
0.0828379
0.0832301
0.0837944
0.0842926
0.0849692
0.085948
0.0872586
0.0890334
0.0907334
0.0923371
0.0935988
0.0941616
0.0948864
0.0956939
0.096728
0.098195
0.0999235
0.101612
0.103781
0.105289
0.105751
0.107144
0.109092
0.110182
0.111912
0.114675
0.116236
0.118041
0.119966
0.121404
0.123085
0.125415
0.127183
0.129216
0.131564
0.133488
0.135613
0.138099
0.139281
0.140268
0.164555
0.423537
0.0674334
0.0675259
0.0676321
0.0677381
0.0678367
0.0679352
0.0680349
0.0681398
0.068264
0.0683912
0.0685103
0.0686341
0.0687682
0.0689109
0.0690631
0.0692273
0.0693988
0.0695727
0.0697525
0.0699459
0.0701518
0.0703694
0.0705938
0.0708318
0.0710832
0.0713502
0.0716302
0.0719268
0.0722421
0.0725867
0.0729597
0.0733607
0.0737705
0.0741886
0.0746124
0.0750397
0.0754838
0.075948
0.0764475
0.0769963
0.0776003
0.0782311
0.0788914
0.0795305
0.0801511
0.080719
0.0812878
0.0818703
0.0825255
0.0831867
0.0837738
0.0842969
0.0847975
0.085233
0.0855687
0.0860017
0.0864978
0.0870784
0.0876938
0.0885217
0.0896518
0.0909967
0.0925463
0.0939538
0.0953747
0.0965944
0.0975316
0.0984515
0.0992616
0.0999438
0.100509
0.10173
0.103582
0.105473
0.107405
0.108774
0.109678
0.11121
0.112301
0.113175
0.115161
0.117854
0.119549
0.121434
0.1232
0.124004
0.125432
0.127848
0.129962
0.131312
0.133301
0.135539
0.137786
0.139559
0.141538
0.143164
0.145087
0.147992
0.148952
0.15746
0.0747612
0.074865
0.0749684
0.0750742
0.0751946
0.0753329
0.0754922
0.0756464
0.0757801
0.0759132
0.0760695
0.0762469
0.076426
0.0765986
0.0767739
0.0769622
0.0771691
0.0773869
0.0776035
0.0778203
0.0780485
0.0782941
0.0785558
0.0788294
0.0791117
0.0794008
0.0796971
0.0799996
0.0803126
0.0806353
0.0809638
0.0812921
0.081618
0.0819554
0.0823012
0.0826684
0.0830479
0.0834388
0.0838442
0.0842549
0.0846587
0.0850622
0.0854595
0.0858743
0.0862679
0.0866287
0.0869858
0.0873439
0.087789
0.0882768
0.0887618
0.0892642
0.090011
0.0908203
0.0916371
0.0924966
0.0935747
0.0948756
0.0961665
0.0974903
0.0986628
0.0998364
0.100948
0.101879
0.102703
0.10314
0.103621
0.104127
0.105148
0.106634
0.108221
0.109728
0.111615
0.113272
0.114596
0.115892
0.116608
0.117581
0.119569
0.121501
0.123033
0.125163
0.126667
0.127738
0.129373
0.131203
0.132885
0.134978
0.137128
0.138837
0.140794
0.142406
0.143733
0.145896
0.147524
0.149292
0.151401
0.153376
0.155175
0.157909
0.0824491
0.0825307
0.082631
0.0827518
0.0828864
0.0830217
0.0831463
0.0832652
0.0833974
0.0835457
0.0836994
0.0838514
0.0840146
0.0841882
0.084365
0.0845408
0.0847227
0.0849087
0.0851002
0.0852992
0.0855072
0.0857184
0.0859329
0.0861516
0.0863782
0.0866144
0.0868577
0.0871088
0.0873652
0.087626
0.0878949
0.0881709
0.0884578
0.0887586
0.0890862
0.0894371
0.0898056
0.0901987
0.0906095
0.0910345
0.0914699
0.0919404
0.0924719
0.0930853
0.0937765
0.0945388
0.0953064
0.0960708
0.0967877
0.0975244
0.0983184
0.0992309
0.100081
0.100994
0.102009
0.102998
0.103827
0.104566
0.105316
0.106043
0.106542
0.107006
0.107461
0.108169
0.108858
0.109734
0.11077
0.112185
0.113775
0.115682
0.117872
0.119272
0.120284
0.121519
0.122261
0.123155
0.12453
0.125829
0.127454