/*--------------------------------*- C++ -*----------------------------------*\
  =========                 |
  \\      /  F ield         | OpenFOAM: The Open Source CFD Toolbox
   \\    /   O peration     | Website:  https://openfoam.org
    \\  /    A nd           | Version:  7
     \\/     M anipulation  |
\*---------------------------------------------------------------------------*/
FoamFile
{
    version     2.0;
    format      ascii;
    class       volScalarField;
    location    "4.5";
    object      rho;
}
// * * * * * * * * * * * * * * * * * * * * * * * * * * * * * * * * * * * * * //

dimensions      [1 -3 0 0 0 0 0];

internalField   nonuniform List<scalar> 
90000
(
0.17592
0.208446
0.244944
0.27387
0.289113
0.317163
0.350594
0.374357
0.402961
0.441847
0.478847
0.51509
0.555124
0.595743
0.635284
0.672284
0.707537
0.734092
0.75928
0.774893
0.78825
0.794624
0.798578
0.797337
0.796341
0.792559
0.787905
0.785373
0.785714
0.786124
0.789736
0.794414
0.797752
0.797639
0.793562
0.790128
0.787248
0.788204
0.7932
0.803526
0.819301
0.837617
0.854341
0.865657
0.874816
0.87414
0.87116
0.867256
0.865153
0.867739
0.87458
0.883923
0.894176
0.901888
0.906645
0.907564
0.907172
0.90685
0.909468
0.915457
0.923585
0.931092
0.936068
0.938767
0.938747
0.940628
0.944635
0.951496
0.961828
0.961743
0.959297
0.956356
0.958006
0.964107
0.97132
0.974539
0.972122
0.966056
0.966458
0.970666
0.975558
0.977484
0.977426
0.979506
0.984588
0.991383
0.996803
1.00123
1.00466
1.00701
1.0124
1.01384
1.01761
1.02163
1.02256
1.0244
1.02309
1.02346
1.02453
1.02719
0.144555
0.144579
0.144607
0.144647
0.144696
0.144758
0.144821
0.144903
0.144965
0.145702
0.148059
0.153415
0.162118
0.176121
0.194231
0.219934
0.251243
0.291358
0.33728
0.391658
0.446966
0.501801
0.554037
0.600975
0.642518
0.672958
0.697099
0.711585
0.724513
0.728479
0.730767
0.730449
0.729251
0.729663
0.72895
0.729317
0.730179
0.733698
0.735233
0.737786
0.742735
0.748907
0.752353
0.754701
0.757489
0.761245
0.76762
0.777861
0.785813
0.795629
0.80141
0.805537
0.808436
0.808908
0.809893
0.811958
0.816857
0.825244
0.835845
0.846696
0.855827
0.862189
0.866541
0.870296
0.87571
0.883318
0.891219
0.899116
0.902412
0.905091
0.909518
0.917577
0.927217
0.936801
0.939059
0.937164
0.938314
0.942654
0.951511
0.961306
0.961767
0.961866
0.965401
0.974236
0.983323
0.989136
0.99152
0.995386
0.998917
1.0032
1.00779
1.00921
1.01415
1.01441
1.01521
1.01636
1.01557
1.0165
1.01817
1.01917
0.145277
0.145366
0.145466
0.145573
0.145684
0.145805
0.145931
0.14607
0.146202
0.146366
0.146449
0.146529
0.14661
0.146706
0.146803
0.146916
0.147019
0.147145
0.147228
0.148086
0.152188
0.16316
0.181097
0.209007
0.244756
0.29088
0.343441
0.402823
0.460301
0.515407
0.562258
0.606898
0.644001
0.675343
0.704026
0.721296
0.733847
0.7383
0.734103
0.726182
0.713299
0.697018
0.680653
0.664765
0.666245
0.676585
0.692995
0.713319
0.731212
0.744779
0.744262
0.738852
0.729544
0.722792
0.723432
0.730904
0.745131
0.76054
0.771407
0.775445
0.774956
0.776046
0.781292
0.789541
0.799028
0.807046
0.814104
0.820053
0.828047
0.838131
0.848775
0.859114
0.868192
0.873321
0.879125
0.88688
0.897256
0.908241
0.919067
0.919644
0.923561
0.933001
0.944871
0.957671
0.959627
0.96336
0.971022
0.979279
0.984633
0.989731
0.993744
0.995514
0.998616
0.997463
0.998326
1.00004
0.999387
1.00082
1.00172
0.998791
0.146361
0.146457
0.14656
0.146663
0.146768
0.146871
0.146974
0.147074
0.147176
0.147271
0.14737
0.147467
0.147565
0.147664
0.14776
0.147856
0.147947
0.148037
0.14812
0.148223
0.148269
0.148319
0.148369
0.14843
0.148493
0.14858
0.148641
0.150423
0.157774
0.175402
0.203388
0.243558
0.296662
0.360056
0.433578
0.504308
0.564472
0.620323
0.653913
0.676109
0.686027
0.682588
0.674465
0.665942
0.669505
0.673559
0.675015
0.676024
0.679555
0.684851
0.683734
0.684868
0.687894
0.690884
0.691564
0.692468
0.695698
0.70285
0.708764
0.712824
0.715358
0.716727
0.71945
0.725892
0.735427
0.743051
0.746602
0.750015
0.755541
0.766429
0.777481
0.786204
0.7921
0.799074
0.808673
0.819513
0.830703
0.841058
0.849079
0.858785
0.870457
0.883415
0.895495
0.904857
0.915793
0.927088
0.937984
0.94292
0.945667
0.950696
0.954374
0.957859
0.961699
0.961944
0.963112
0.963081
0.961308
0.959779
0.956946
0.951625
0.147333
0.147394
0.147456
0.14752
0.147582
0.147646
0.147708
0.147772
0.147837
0.147899
0.147964
0.148027
0.148092
0.148157
0.148221
0.148284
0.148349
0.148411
0.148483
0.148549
0.148612
0.148683
0.148757
0.148834
0.148911
0.148991
0.149073
0.149119
0.149166
0.149211
0.14926
0.1493
0.149337
0.149351
0.153579
0.170915
0.203609
0.256706
0.330864
0.416687
0.503996
0.575061
0.630677
0.664028
0.681744
0.67896
0.676019
0.669818
0.661146
0.650223
0.644223
0.647717
0.659373
0.674313
0.689674
0.689275
0.684498
0.675402
0.669704
0.672589
0.679293
0.687729
0.69136
0.689471
0.689374
0.691642
0.697189
0.703298
0.707791
0.712031
0.719369
0.727001
0.732404
0.737388
0.74596
0.75538
0.76409
0.772153
0.781056
0.79213
0.804454
0.81737
0.830626
0.845106
0.857118
0.866148
0.874135
0.880785
0.887668
0.89428
0.898848
0.905259
0.908924
0.910238
0.912119
0.912148
0.910776
0.907842
0.90444
0.898846
0.147921
0.147962
0.148004
0.148047
0.148089
0.148134
0.148179
0.148226
0.148274
0.148324
0.148377
0.148431
0.148484
0.148536
0.148587
0.148642
0.148698
0.148757
0.148817
0.148877
0.148932
0.14899
0.149053
0.149112
0.14917
0.149231
0.149284
0.149335
0.149388
0.149433
0.149468
0.14949
0.149503
0.149512
0.149503
0.1495
0.149504
0.149532
0.149567
0.152983
0.172395
0.218426
0.293396
0.391591
0.484902
0.548798
0.59692
0.616284
0.63352
0.633852
0.641517
0.649899
0.655532
0.661862
0.676922
0.68493
0.680796
0.671094
0.660593
0.66093
0.66421
0.671303
0.678265
0.680545
0.67672
0.670972
0.671919
0.676904
0.68389
0.688752
0.686949
0.687658
0.691652
0.696261
0.701095
0.709169
0.716216
0.722105
0.727767
0.736721
0.748205
0.759848
0.769456
0.777886
0.788499
0.799515
0.808686
0.817864
0.825668
0.832721
0.836745
0.841551
0.843913
0.845091
0.847546
0.848802
0.848995
0.847996
0.845711
0.84149
0.148354
0.148384
0.148416
0.14845
0.148486
0.148524
0.148563
0.148602
0.148646
0.148693
0.148743
0.148793
0.14884
0.148884
0.148928
0.148974
0.149021
0.149066
0.149113
0.149159
0.149198
0.149239
0.149284
0.149326
0.149366
0.149404
0.149438
0.149472
0.149504
0.14953
0.149545
0.149554
0.149564
0.149567
0.149562
0.149563
0.149575
0.149613
0.149675
0.149742
0.149792
0.149805
0.149796
0.151708
0.168569
0.214523
0.284663
0.381701
0.480659
0.555589
0.61251
0.639504
0.6567
0.659399
0.664401
0.673364
0.67171
0.666083
0.663044
0.664581
0.665068
0.665415
0.667495
0.670434
0.669585
0.667583
0.666771
0.668154
0.671105
0.676023
0.675094
0.673088
0.674607
0.679565
0.683562
0.683646
0.685702
0.689485
0.694616
0.700826
0.709945
0.718598
0.728241
0.734684
0.742603
0.75201
0.757175
0.761015
0.767561
0.774663
0.780068
0.786155
0.790371
0.794451
0.796434
0.796192
0.796089
0.797788
0.797629
0.79609
0.148702
0.148733
0.148764
0.148798
0.148832
0.148867
0.148904
0.148941
0.148983
0.149028
0.149075
0.149119
0.149157
0.149189
0.149221
0.149251
0.149277
0.149303
0.14933
0.149358
0.149383
0.149408
0.149438
0.14947
0.149497
0.149518
0.14954
0.149567
0.149587
0.149599
0.149606
0.149616
0.149626
0.149618
0.14961
0.149611
0.149625
0.149667
0.149732
0.149803
0.14984
0.149842
0.149832
0.149804
0.149763
0.149701
0.149639
0.150686
0.167726
0.221935
0.305418
0.412394
0.513874
0.574235
0.619314
0.639574
0.656291
0.662685
0.673272
0.678119
0.673171
0.668627
0.666203
0.664414
0.665423
0.66721
0.669476
0.671093
0.671159
0.670257
0.669468
0.669248
0.670027
0.672644
0.676787
0.67771
0.677382
0.679045
0.683026
0.68928
0.693496
0.696729
0.700839
0.707604
0.713737
0.7195
0.72624
0.731959
0.734231
0.737548
0.742517
0.746397
0.748506
0.751663
0.756359
0.758636
0.75702
0.757135
0.759576
0.766106
0.149035
0.149064
0.149094
0.149125
0.149156
0.149189
0.149222
0.149254
0.14929
0.149326
0.149359
0.149389
0.149411
0.149429
0.149446
0.149456
0.149462
0.149468
0.149477
0.149491
0.149507
0.149523
0.149544
0.14957
0.149589
0.149604
0.149621
0.149641
0.149652
0.149658
0.149664
0.149673
0.149671
0.149651
0.149642
0.149644
0.149661
0.149711
0.149775
0.149829
0.14984
0.149831
0.149804
0.149773
0.14974
0.149688
0.149654
0.149661
0.149692
0.149773
0.149838
0.155845
0.185352
0.256747
0.35699
0.468629
0.570064
0.633512
0.667903
0.675384
0.676333
0.674963
0.670158
0.661391
0.663779
0.669897
0.675009
0.674406
0.671155
0.666694
0.667271
0.669381
0.672822
0.674838
0.674278
0.674567
0.674597
0.675903
0.679348
0.683693
0.688663
0.692617
0.695104
0.698491
0.703901
0.706881
0.7077
0.711564
0.717874
0.722872
0.724787
0.726083
0.726444
0.727047
0.729814
0.735037
0.739902
0.740675
0.740097
0.745142
0.149367
0.149396
0.149419
0.149439
0.14946
0.149484
0.149506
0.149527
0.149546
0.14956
0.149573
0.149586
0.149593
0.149595
0.149598
0.149591
0.149576
0.149574
0.149576
0.149582
0.149592
0.149603
0.149617
0.149634
0.14965
0.149667
0.149688
0.149704
0.149708
0.14971
0.149715
0.149716
0.149707
0.149683
0.149676
0.149677
0.149699
0.149742
0.1498
0.1498
0.14979
0.149772
0.149756
0.149746
0.149728
0.149708
0.149747
0.149823
0.149933
0.15004
0.15011
0.150168
0.15026
0.150312
0.150298
0.167335
0.221387
0.330341
0.460784
0.563711
0.627971
0.660813
0.665481
0.664959
0.672301
0.678982
0.679212
0.675886
0.670885
0.665136
0.667098
0.673234
0.677879
0.676973
0.674484
0.674605
0.675943
0.679409
0.683951
0.68628
0.68761
0.690091
0.693157
0.695944
0.69903
0.70406
0.705354
0.707314
0.712575
0.716517
0.71856
0.720596
0.722856
0.725359
0.727302
0.727179
0.729398
0.733008
0.735752
0.739284
0.149643
0.149654
0.149664
0.149673
0.149684
0.149693
0.149704
0.14971
0.149705
0.149697
0.149696
0.149695
0.149686
0.149679
0.149673
0.149652
0.149628
0.149626
0.149627
0.14963
0.149636
0.149644
0.149657
0.149672
0.149692
0.149721
0.149756
0.149775
0.149778
0.14978
0.149786
0.149784
0.149775
0.149769
0.149759
0.149748
0.149748
0.149759
0.149744
0.149724
0.149726
0.14974
0.149745
0.14974
0.149746
0.149815
0.149947
0.150084
0.150186
0.150219
0.150229
0.150246
0.150277
0.150232
0.150182
0.150149
0.149996
0.149668
0.161885
0.221106
0.334068
0.47556
0.587155
0.65023
0.676621
0.676292
0.678055
0.676591
0.665876
0.666491
0.673464
0.680274
0.679604
0.677241
0.675327
0.676565
0.680138
0.684426
0.68736
0.688206
0.689278
0.69181
0.695914
0.698778
0.700186
0.702149
0.704884
0.708532
0.710723
0.712854
0.715033
0.717318
0.720723
0.724302
0.727276
0.725799
0.725781
0.727928
0.73369
0.739531
0.149772
0.149774
0.149776
0.149778
0.149779
0.149779
0.149777
0.149772
0.149761
0.14975
0.149745
0.149733
0.149707
0.149695
0.149686
0.149666
0.149642
0.149636
0.149638
0.149643
0.149652
0.149672
0.149702
0.149735
0.149774
0.149822
0.14986
0.149881
0.149882
0.149881
0.149877
0.149873
0.149874
0.149875
0.149862
0.149818
0.14976
0.149705
0.149672
0.149676
0.149702
0.149744
0.149755
0.149772
0.14985
0.150021
0.1502
0.150315
0.150324
0.150301
0.150273
0.150259
0.150193
0.150107
0.150045
0.149968
0.14977
0.149549
0.149533
0.149559
0.149596
0.168518
0.242718
0.382479
0.527436
0.60204
0.656833
0.663969
0.665665
0.676514
0.686547
0.685394
0.681396
0.677023
0.678223
0.682026
0.686909
0.689703
0.690036
0.690403
0.691562
0.694359
0.698912
0.701743
0.702084
0.703869
0.707124
0.711128
0.713009
0.714428
0.716043
0.717258
0.719065
0.721958
0.724599
0.727252
0.728115
0.729514
0.732027
0.738797
0.149783
0.149784
0.149785
0.149785
0.149785
0.149781
0.149769
0.149766
0.149767
0.149766
0.14976
0.149741
0.149696
0.149678
0.149678
0.149671
0.149652
0.149647
0.149654
0.14968
0.149719
0.149774
0.149844
0.149895
0.14993
0.149959
0.149967
0.149964
0.149956
0.149939
0.149916
0.149901
0.1499
0.149897
0.149878
0.149806
0.149692
0.149641
0.149643
0.149658
0.149715
0.149763
0.149801
0.149885
0.150052
0.150252
0.150383
0.150396
0.150375
0.150324
0.150284
0.150187
0.15005
0.14998
0.149928
0.149835
0.149637
0.149506
0.149508
0.149541
0.149637
0.149869
0.150367
0.150829
0.185816
0.290627
0.443462
0.575028
0.651655
0.685928
0.684599
0.68559
0.677341
0.679752
0.686441
0.6893
0.692478
0.693065
0.693415
0.694424
0.696576
0.699999
0.703442
0.705566
0.706347
0.707224
0.709588
0.71382
0.715791
0.716755
0.718043
0.719294
0.721317
0.723893
0.72659
0.729609
0.730982
0.73162
0.734145
0.741247
0.149809
0.149811
0.149812
0.149815
0.149816
0.149817
0.14982
0.149823
0.149823
0.149815
0.149806
0.149796
0.149771
0.149753
0.149756
0.149772
0.149791
0.149803
0.149831
0.149876
0.149909
0.149945
0.149999
0.15002
0.150019
0.150009
0.149991
0.149974
0.149956
0.149925
0.149874
0.149843
0.149838
0.149834
0.149818
0.149752
0.149659
0.149638
0.149641
0.149666
0.14974
0.14985
0.149978
0.150115
0.150272
0.150395
0.150419
0.150413
0.150374
0.150321
0.150221
0.149991
0.149854
0.149853
0.149839
0.149769
0.149599
0.149502
0.149529
0.14974
0.150046
0.150476
0.150798
0.150865
0.150802
0.150676
0.160429
0.230229
0.381924
0.544154
0.617263
0.672778
0.674627
0.689373
0.698511
0.697104
0.697992
0.697129
0.69936
0.702131
0.705137
0.708364
0.709536
0.711284
0.712884
0.7141
0.716774
0.720946
0.72278
0.723483
0.724529
0.725851
0.727816
0.729914
0.73201
0.734213
0.735494
0.737124
0.740533
0.749058
0.149866
0.149871
0.149875
0.149881
0.149886
0.149892
0.149899
0.149907
0.149915
0.149917
0.149912
0.149903
0.149903
0.149909
0.149928
0.149949
0.149957
0.149963
0.149993
0.150024
0.150022
0.150023
0.150038
0.150039
0.15003
0.149984
0.149914
0.149868
0.149832
0.149782
0.14974
0.149737
0.149748
0.149781
0.149784
0.149743
0.149703
0.149707
0.149717
0.149749
0.149859
0.150068
0.150258
0.150339
0.150395
0.150415
0.150406
0.150342
0.150238
0.150148
0.149991
0.149765
0.149713
0.149746
0.149773
0.149745
0.149626
0.149596
0.149829
0.150393
0.151063
0.151523
0.151268
0.150806
0.150723
0.150871
0.151567
0.153389
0.154432
0.197847
0.325307
0.497275
0.620952
0.685527
0.695663
0.706386
0.712138
0.708927
0.714385
0.714047
0.718451
0.721056
0.720972
0.722731
0.724459
0.725711
0.72837
0.731533
0.733342
0.734228
0.735295
0.736915
0.739464
0.742124
0.743693
0.745126
0.747747
0.751178
0.754177
0.761312
0.149954
0.149962
0.149969
0.149978
0.149988
0.149994
0.15
0.15001
0.15002
0.150024
0.150024
0.150024
0.150025
0.150029
0.150036
0.150042
0.150042
0.150042
0.150049
0.150052
0.150043
0.15001
0.149974
0.149952
0.149919
0.14985
0.149776
0.149713
0.149675
0.149656
0.149652
0.149664
0.149701
0.149768
0.149841
0.149914
0.14996
0.149978
0.149982
0.15
0.150089
0.150282
0.150419
0.150424
0.150402
0.150353
0.150265
0.150098
0.149966
0.149885
0.149759
0.149663
0.149661
0.149703
0.149761
0.149772
0.149809
0.149958
0.150561
0.151362
0.152091
0.152475
0.15215
0.15142
0.151626
0.152622
0.154622
0.15736
0.159286
0.159836
0.16066
0.182819
0.28965
0.465283
0.605008
0.692101
0.718701
0.726657
0.739269
0.733194
0.740697
0.736819
0.739546
0.742305
0.74362
0.745173
0.747089
0.74867
0.750884
0.75342
0.755676
0.757754
0.759341
0.761031
0.762782
0.764734
0.767657
0.771473
0.774431
0.782555
0.150066
0.150064
0.150064
0.150068
0.150075
0.150076
0.15007
0.150062
0.15006
0.15006
0.15006
0.150058
0.150056
0.150053
0.150046
0.150037
0.15002
0.149989
0.149961
0.14993
0.149869
0.149814
0.149798
0.149801
0.149797
0.149772
0.14973
0.149643
0.149626
0.14963
0.149625
0.149645
0.149755
0.149955
0.150126
0.150249
0.150276
0.150263
0.150231
0.150225
0.150243
0.15034
0.150404
0.150389
0.150332
0.150258
0.150142
0.14994
0.149801
0.149731
0.149661
0.149642
0.149661
0.149715
0.149831
0.150061
0.150491
0.151069
0.15187
0.152437
0.152867
0.153381
0.153431
0.153862
0.15477
0.156441
0.159202
0.16107
0.163014
0.165313
0.16756
0.169202
0.171232
0.182659
0.263773
0.42791
0.599618
0.706025
0.744302
0.757322
0.779365
0.763959
0.771991
0.768049
0.76906
0.773079
0.776291
0.777048
0.7782
0.779417
0.781027
0.783057
0.7852
0.787661
0.789914
0.791471
0.793897
0.79796
0.802321
0.811551
0.150068
0.150065
0.150058
0.150058
0.150049
0.150004
0.149912
0.149827
0.149808
0.149807
0.149805
0.149793
0.149786
0.149787
0.149785
0.149776
0.14975
0.149737
0.149732
0.149717
0.149688
0.14968
0.149687
0.149718
0.149747
0.149751
0.149734
0.149681
0.149668
0.149671
0.149714
0.149852
0.150125
0.150313
0.150401
0.150444
0.150442
0.150398
0.150337
0.150307
0.150283
0.15029
0.15032
0.150303
0.150248
0.150198
0.150102
0.149911
0.149762
0.149675
0.149666
0.149709
0.149918
0.150314
0.150697
0.151262
0.152123
0.153163
0.153665
0.153769
0.153913
0.15437
0.155601
0.157519
0.159532
0.162441
0.164976
0.166443
0.168662
0.171635
0.174068
0.17651
0.179904
0.18394
0.185445
0.186456
0.240273
0.39135
0.579882
0.717819
0.77274
0.788054
0.820055
0.804299
0.808495
0.806786
0.803347
0.807395
0.8122
0.813674
0.814776
0.816127
0.817092
0.819193
0.82213
0.825068
0.827872
0.830613
0.834401
0.844021
0.149788
0.14976
0.149725
0.149679
0.149598
0.149436
0.149325
0.149308
0.149314
0.14933
0.149357
0.149394
0.149435
0.149459
0.149476
0.149499
0.149528
0.149559
0.14958
0.149599
0.149619
0.149639
0.149665
0.149725
0.149855
0.149949
0.149998
0.150038
0.150045
0.150054
0.150117
0.150325
0.150558
0.150575
0.150551
0.15052
0.150492
0.150426
0.150372
0.150322
0.150254
0.150246
0.150307
0.150302
0.150248
0.150212
0.150166
0.150025
0.149858
0.149849
0.150007
0.150539
0.151517
0.152602
0.153485
0.154126
0.15464
0.155687
0.155993
0.156059
0.156314
0.157438
0.159817
0.162774
0.16604
0.168493
0.170464
0.172669
0.174669
0.176897
0.179836
0.184242
0.187476
0.18875
0.191503
0.194787
0.197534
0.200098
0.232893
0.355314
0.545821
0.715965
0.801275
0.82185
0.855124
0.851042
0.842578
0.847713
0.843718
0.844534
0.849536
0.852957
0.854301
0.855447
0.856167
0.858757
0.86268
0.866796
0.870054
0.878359
0.149251
0.149238
0.1492
0.149102
0.149007
0.148984
0.148988
0.149002
0.149027
0.149066
0.149124
0.149199
0.149279
0.149345
0.149395
0.149456
0.149558
0.149691
0.14982
0.149932
0.150042
0.150131
0.150199
0.150279
0.150435
0.15062
0.150662
0.150652
0.150642
0.150648
0.150696
0.150764
0.150756
0.150723
0.150658
0.150578
0.150497
0.150479
0.15049
0.150442
0.15039
0.150419
0.150451
0.150399
0.150415
0.150513
0.150719
0.150874
0.151093
0.151483
0.152148
0.153234
0.154495
0.155589
0.156728
0.157593
0.157936
0.158467
0.159617
0.160639
0.16205
0.164263
0.166961
0.170227
0.173234
0.174968
0.176794
0.179084
0.181439
0.183587
0.187153
0.190956
0.193793
0.196054
0.198313
0.201387
0.20484
0.209934
0.211778
0.212387
0.225002
0.321459
0.501742
0.701015
0.826224
0.84782
0.870739
0.89694
0.881588
0.878083
0.882693
0.884229
0.888042
0.892262
0.894404
0.895774
0.896602
0.899768
0.903746
0.912081
0.149277
0.149279
0.149267
0.149255
0.149265
0.149294
0.149346
0.149426
0.149532
0.149648
0.149783
0.149924
0.150073
0.150213
0.150329
0.150454
0.150595
0.150728
0.150826
0.150893
0.150944
0.150995
0.151048
0.151098
0.151177
0.151252
0.151242
0.15118
0.151161
0.151138
0.15105
0.150937
0.150877
0.150835
0.150786
0.150767
0.150784
0.150858
0.150891
0.150804
0.150544
0.150543
0.150722
0.150857
0.151044
0.151423
0.152162
0.153226
0.15449
0.155783
0.157175
0.15828
0.159026
0.159541
0.160305
0.161476
0.162141
0.162939
0.164538
0.167293
0.170637
0.173529
0.176321
0.178423
0.180217
0.182119
0.183639
0.1857
0.188565
0.191874
0.195956
0.198108
0.200253
0.202695
0.205258
0.20919
0.212168
0.21515
0.218421
0.221196
0.222588
0.226034
0.22856
0.297978
0.462314
0.674373
0.826593
0.882422
0.90347
0.920752
0.924286
0.916615
0.91974
0.919845
0.923621
0.928199
0.930882
0.933997
0.934724
0.941469
0.150331
0.150458
0.150549
0.150658
0.150775
0.150817
0.15084
0.150879
0.150957
0.151056
0.15114
0.151201
0.151246
0.151287
0.151344
0.151396
0.151456
0.151513
0.151508
0.15149
0.151495
0.151557
0.151583
0.15156
0.151561
0.151585
0.151552
0.151398
0.151352
0.15132
0.151215
0.15099
0.15079
0.150752
0.150763
0.15083
0.150997
0.151362
0.151734
0.152007
0.152371
0.152937
0.153729
0.154725
0.15579
0.156939
0.158064
0.159238
0.160562
0.161701
0.162651
0.163216
0.163744
0.164289
0.165095
0.166525
0.168726
0.171331
0.173949
0.177096
0.180128
0.1828
0.184713
0.18577
0.187016
0.18864
0.190929
0.193829
0.197154
0.20092
0.203647
0.206094
0.207685
0.209488
0.212232
0.216953
0.220822
0.221577
0.223911
0.227779
0.23136
0.235037
0.239553
0.240857
0.242258
0.289218
0.428501
0.641701
0.832849
0.908111
0.943063
0.943689
0.957458
0.950064
0.953646
0.952427
0.95591
0.961035
0.964242
0.970537
0.152354
0.152339
0.15232
0.15229
0.152245
0.152175
0.152091
0.152024
0.151965
0.151928
0.151921
0.151918
0.151892
0.151852
0.151847
0.151851
0.151875
0.151884
0.151862
0.151821
0.15182
0.151856
0.151852
0.151752
0.151703
0.15176
0.151796
0.151724
0.151664
0.151759
0.151841
0.15185
0.151929
0.152129
0.152547
0.153225
0.15421
0.155297
0.156486
0.157718
0.159021
0.160317
0.161414
0.162402
0.163344
0.164151
0.164848
0.165508
0.166332
0.166873
0.167429
0.168552
0.170139
0.171891
0.17418
0.177004
0.180534
0.183498
0.185927
0.187441
0.188726
0.190164
0.190924
0.192141
0.193821
0.196468
0.200462
0.204058
0.207112
0.209218
0.210162
0.212115
0.21489
0.21786
0.221165
0.224407
0.228469
0.229912
0.231304
0.235074
0.240552
0.243467
0.24723
0.249909
0.251968
0.254193
0.257362
0.280887
0.399815
0.615791
0.82083
0.928657
0.972189
0.969055
0.988609
0.981202
0.984784
0.982063
0.985144
0.994077
0.151868
0.151837
0.15179
0.151772
0.151774
0.151763
0.151736
0.151734
0.151749
0.151792
0.151847
0.151875
0.151872
0.151872
0.151908
0.151981
0.152102
0.152211
0.152319
0.152459
0.152685
0.153022
0.153367
0.153718
0.154104
0.154581
0.155141
0.155805
0.156493
0.157192
0.157897
0.158709
0.159608
0.160591
0.161574
0.162613
0.16359
0.164401
0.165067
0.16576
0.166587
0.16743
0.168274
0.169031
0.1697
0.170263
0.171029
0.172008
0.173371
0.17528
0.177492
0.179926
0.182354
0.185074
0.187509
0.189471
0.191186
0.192649
0.193725
0.194238
0.195094
0.196321
0.198258
0.200931
0.203999
0.207891
0.211052
0.21364
0.215373
0.216123
0.217308
0.219473
0.222919
0.228042
0.231993
0.232728
0.234533
0.237771
0.240735
0.244514
0.248912
0.251083
0.25327
0.257044
0.259884
0.263353
0.269049
0.2719
0.273109
0.284336
0.375913
0.59578
0.818389
0.935938
0.994769
0.991947
1.01376
1.01035
1.01286
1.01625
0.153755
0.153981
0.154256
0.15459
0.154949
0.155316
0.155661
0.155992
0.156365
0.156709
0.157014
0.15736
0.157818
0.158337
0.158814
0.159208
0.159606
0.160101
0.160681
0.161247
0.161786
0.162328
0.162918
0.163507
0.164055
0.164589
0.165176
0.165796
0.166436
0.167119
0.167838
0.168559
0.16928
0.170018
0.170673
0.171305
0.171734
0.172172
0.172705
0.173505
0.174429
0.175409
0.176483
0.177599
0.179053
0.180768
0.182742
0.184868
0.187111
0.189192
0.191127
0.192833
0.194337
0.19587
0.196772
0.197343
0.197918
0.199175
0.200283
0.201745
0.203833
0.2067
0.210427
0.213633
0.216504
0.218542
0.219675
0.220977
0.222053
0.223845
0.226879
0.23023
0.234013
0.237628
0.240174
0.241117
0.242331
0.246
0.251114
0.254358
0.257281
0.260012
0.261226
0.264473
0.269887
0.275057
0.277287
0.280353
0.283776
0.287695
0.290528
0.295183
0.366111
0.574318
0.815713
0.93965
1.01512
1.01439
1.03814
1.04441
0.165649
0.165858
0.166083
0.166317
0.166557
0.166794
0.167028
0.167267
0.167521
0.16779
0.16806
0.168335
0.168623
0.168919
0.169208
0.169505
0.169819
0.170133
0.170452
0.170793
0.17115
0.171517
0.171893
0.172282
0.172727
0.173226
0.173767
0.174333
0.174966
0.175648
0.176391
0.177197
0.178048
0.178933
0.179856
0.180898
0.182141
0.183512
0.184909
0.186295
0.187595
0.188934
0.190292
0.191821
0.193365
0.194949
0.196414
0.197708
0.198824
0.199749
0.200739
0.201578
0.202342
0.203223
0.204332
0.205395
0.206722
0.208787
0.211625
0.214911
0.217638
0.220098
0.222149
0.223869
0.225528
0.226128
0.227019
0.22835
0.230887
0.235018
0.239037
0.242549
0.244987
0.245953
0.247668
0.250662
0.253474
0.256676
0.26144
0.263683
0.265213
0.269208
0.273335
0.275459
0.279627
0.283483
0.285328
0.28847
0.292676
0.296314
0.300713
0.304984
0.307319
0.309358
0.365946
0.568043
0.808981
0.950181
1.0311
1.05148
0.175546
0.175751
0.175995
0.176298
0.176645
0.176998
0.177333
0.177662
0.178014
0.178389
0.178795
0.17923
0.179685
0.180144
0.180609
0.181093
0.181602
0.182141
0.182706
0.183275
0.18387
0.184501
0.185175
0.185881
0.186603
0.187354
0.188147
0.188967
0.189808
0.190658
0.191524
0.192394
0.193301
0.194262
0.195301
0.196363
0.197396
0.198356
0.199266
0.200127
0.200929
0.201746
0.202524
0.2033
0.204072
0.204912
0.205754
0.206569
0.207252
0.208077
0.209155
0.210301
0.211771
0.2136
0.215978
0.218515
0.221182
0.223445
0.22563
0.227572
0.229051
0.230228
0.230924
0.231924
0.233174
0.235066
0.237774
0.240893
0.244526
0.247564
0.2504
0.252842
0.253643
0.254875
0.257155
0.260763
0.265244
0.26796
0.270769
0.274222
0.276497
0.278538
0.28255
0.286235
0.289001
0.292418
0.296616
0.299767
0.303541
0.307955
0.310878
0.313871
0.317339
0.321868
0.324698
0.326891
0.371988
0.558085
0.781588
1.00048
0.191134
0.191395
0.191672
0.191941
0.192217
0.192509
0.192825
0.193166
0.193511
0.193848
0.194183
0.194539
0.194914
0.195302
0.195698
0.196109
0.196537
0.196974
0.19742
0.197888
0.198365
0.198847
0.199336
0.199832
0.200339
0.200845
0.201357
0.201872
0.202391
0.202896
0.203417
0.203948
0.204526
0.205106
0.20571
0.206295
0.206895
0.207521
0.208196
0.208938
0.209761
0.210621
0.211478
0.212403
0.213527
0.21484
0.216294
0.217927
0.219685
0.221587
0.223409
0.225393
0.227286
0.229054
0.230606
0.232291
0.234038
0.235255
0.236243
0.237035
0.238176
0.239183
0.240548
0.242522
0.245155
0.248703
0.252088
0.255265
0.257756
0.258866
0.260296
0.261884
0.263906
0.266763
0.270114
0.273372
0.27754
0.280422
0.281309
0.283963
0.287645
0.289705
0.292951
0.298094
0.300984
0.304315
0.30785
0.310479
0.313541
0.31777
0.320964
0.324622
0.328825
0.332255
0.336027
0.340418
0.342489
0.344215
0.376492
0.659635
0.204024
0.204224
0.204454
0.204685
0.2049
0.205114
0.205332
0.20556
0.205831
0.206108
0.206366
0.206635
0.206926
0.207235
0.207564
0.207919
0.20829
0.208665
0.209052
0.209469
0.209913
0.210381
0.210863
0.211373
0.211911
0.212481
0.213077
0.213709
0.214379
0.215109
0.215899
0.216746
0.217612
0.218493
0.219386
0.220283
0.221213
0.222182
0.22322
0.224355
0.2256
0.226896
0.22825
0.229561
0.230833
0.231994
0.233152
0.23433
0.235654
0.23699
0.238174
0.239228
0.240235
0.241109
0.241782
0.242647
0.24364
0.244801
0.246034
0.247688
0.249943
0.252616
0.255682
0.258456
0.261242
0.263626
0.265452
0.267242
0.268817
0.27014
0.271239
0.273594
0.277143
0.280752
0.284426
0.287019
0.288731
0.29162
0.293667
0.295312
0.299004
0.303974
0.30709
0.310542
0.313755
0.31522
0.317807
0.322165
0.325968
0.328384
0.331924
0.335891
0.33986
0.342979
0.346448
0.349288
0.352639
0.357668
0.359319
0.371267
0.219648
0.219863
0.220077
0.220296
0.220545
0.220832
0.221162
0.221481
0.221757
0.222032
0.222356
0.222724
0.223096
0.223454
0.223818
0.224208
0.224638
0.225091
0.22554
0.22599
0.226463
0.226972
0.227514
0.22808
0.228663
0.229258
0.229867
0.230488
0.231129
0.231789
0.23246
0.233129
0.233793
0.23448
0.235183
0.235929
0.2367
0.237492
0.238313
0.239144
0.23996
0.240774
0.241575
0.242409
0.243199
0.24392
0.244633
0.245348
0.246238
0.247213
0.248177
0.249171
0.250656
0.252266
0.253889
0.255595
0.257723
0.260278
0.262802
0.26538
0.267655
0.269923
0.272065
0.273854
0.275433
0.276272
0.277195
0.278167
0.280119
0.282946
0.285955
0.288804
0.292354
0.295455
0.297926
0.30034
0.301673
0.303473
0.307126
0.310661
0.313453
0.317322
0.320038
0.321965
0.324902
0.328178
0.33118
0.334897
0.338702
0.341711
0.345148
0.347964
0.350277
0.354035
0.356855
0.359907
0.363534
0.366918
0.369963
0.375033
0.235527
0.235693
0.235898
0.236144
0.236419
0.236694
0.236947
0.237188
0.237456
0.237756
0.238067
0.238374
0.238703
0.239053
0.23941
0.239764
0.24013
0.240505
0.240891
0.241291
0.24171
0.242136
0.242567
0.243007
0.243464
0.24394
0.244431
0.244938
0.245455
0.245982
0.246525
0.247081
0.247658
0.24826
0.248914
0.249612
0.250343
0.251121
0.251935
0.252779
0.253646
0.254581
0.255636
0.256845
0.258201
0.259693
0.261194
0.262691
0.264095
0.265527
0.267059
0.268816
0.270446
0.272192
0.274129
0.276015
0.277596
0.279001
0.280424
0.281803
0.282749
0.283626
0.284487
0.285828
0.287132
0.288788
0.290743
0.293401
0.296377
0.299928
0.303983
0.306565
0.308428
0.310694
0.312054
0.313682
0.316176
0.318528
0.321461
0.325139
0.328166
0.330654
0.333868
0.336053
0.338797
0.342345
0.345896
0.348098
0.350401
0.353967
0.357007
0.360038
0.363026
0.365637
0.368648
0.371814
0.374163
0.376236
0.378501
0.382229
0.253533
0.253752
0.253997
0.25423
0.254455
0.254674
0.254906
0.255218
0.255546
0.255823
0.256091
0.256405
0.256753
0.257121
0.257491
0.257858
0.258229
0.258624
0.259047
0.259492
0.259953
0.260431
0.260935
0.261463
0.262012
0.262587
0.263185
0.263809
0.264455
0.265123
0.265809
0.266515
0.267238
0.267978
0.268732
0.269505
0.270317
0.271162
0.272065
0.273013
0.274026
0.27506
0.276156
0.277182
0.278173
0.27913
0.280191
0.281342
0.282504
0.28362
0.284777
0.285912
0.286853
0.287613
0.288586
0.28954
0.290459
0.291447
0.292797
0.29426
0.295902
0.297646
0.299827
0.302303
0.305371
0.308534
0.311643
0.314751
0.317406
0.318829
0.320613
0.32237
0.323293
0.324659
0.326731
0.328876
0.331733
0.335341
0.338222
0.341176
0.344048
0.345958
0.348307
0.351417
0.353739
0.356133
0.358672
0.361267
0.364113
0.366492
0.368945
0.371445
0.373903
0.376009
0.378261
0.38046
0.38261
0.385095
0.387026
0.389593
0.273757
0.273952
0.274141
0.27432
0.274522
0.274771
0.275087
0.275392
0.275643
0.275882
0.27617
0.276511
0.276858
0.277181
0.277502
0.277857
0.278247
0.278652
0.279055
0.279455
0.279869
0.280298
0.280735
0.281185
0.281646
0.282131
0.282631
0.283159
0.283708
0.284288
0.284883
0.285499
0.286141
0.28682
0.287521
0.288237
0.288958
0.2897
0.290456
0.291225
0.29195
0.292768
0.293616
0.294399
0.295204
0.296126
0.297162
0.298221
0.29932
0.300405
0.301504
0.302888
0.304612
0.306229
0.307775
0.309443
0.311345
0.313415
0.315587
0.317794
0.320079
0.322542
0.324762
0.326774
0.328275
0.329537
0.330683
0.331956
0.333531
0.334111
0.334658
0.336389
0.339065
0.341419
0.344314
0.347735
0.350511
0.353155
0.355327
0.356921
0.35866
0.360809
0.362717
0.364935
0.367519
0.36971
0.371879
0.374365
0.37656
0.378618
0.380545
0.382202
0.383947
0.385766
0.387085
0.388433
0.390025
0.391753
0.392994
0.39441
0.296373