/*--------------------------------*- C++ -*----------------------------------*\
  =========                 |
  \\      /  F ield         | OpenFOAM: The Open Source CFD Toolbox
   \\    /   O peration     | Website:  https://openfoam.org
    \\  /    A nd           | Version:  7
     \\/     M anipulation  |
\*---------------------------------------------------------------------------*/
FoamFile
{
    version     2.0;
    format      ascii;
    class       volScalarField;
    location    "8.5";
    object      rho;
}
// * * * * * * * * * * * * * * * * * * * * * * * * * * * * * * * * * * * * * //

dimensions      [1 -3 0 0 0 0 0];

internalField   nonuniform List<scalar> 
90000
(
0.909883
0.950405
0.993432
1.036
1.07696
1.1162
1.15345
1.18771
1.21946
1.24722
1.2727
1.29383
1.31315
1.32827
1.34209
1.35237
1.3616
1.36813
1.37383
1.37779
1.38118
1.38339
1.3857
1.38566
1.38434
1.3805
1.3747
1.36951
1.36484
1.36543
1.36708
1.36946
1.37205
1.37466
1.3767
1.37827
1.37936
1.37877
1.37658
1.37463
1.3733
1.37304
1.37349
1.37469
1.37652
1.37856
1.37923
1.37857
1.37698
1.37582
1.37595
1.37622
1.37728
1.37898
1.37887
1.37812
1.37726
1.37684
1.37712
1.37791
1.37782
1.37719
1.37627
1.37557
1.37532
1.37514
1.37449
1.37354
1.37282
1.37254
1.37196
1.37084
1.36983
1.36909
1.3684
1.3677
1.36716
1.36665
1.36588
1.365
1.36432
1.36363
1.36279
1.36204
1.36122
1.36026
1.35951
1.35882
1.35798
1.35711
1.35608
1.35507
1.35411
1.35329
1.35244
1.3515
1.35043
1.34918
1.34833
1.3466
0.877011
0.877525
0.878909
0.881909
0.886973
0.895177
0.906593
0.922524
0.942249
0.96714
0.995452
1.02833
1.06325
1.10067
1.13816
1.17491
1.20993
1.24096
1.26942
1.29158
1.31138
1.32418
1.33581
1.34219
1.3479
1.35072
1.35451
1.35931
1.36646
1.37067
1.37363
1.37666
1.37909
1.38113
1.38084
1.38021
1.37784
1.37485
1.3721
1.37229
1.37306
1.37435
1.37641
1.37852
1.37951
1.37896
1.37775
1.37608
1.37484
1.37505
1.37607
1.37798
1.37943
1.37918
1.3782
1.37708
1.3768
1.37698
1.37756
1.37817
1.37785
1.37686
1.37617
1.37566
1.37552
1.37524
1.37458
1.37374
1.37306
1.37273
1.37208
1.37099
1.37002
1.36926
1.36854
1.36787
1.36736
1.36681
1.36602
1.36517
1.36457
1.36385
1.36301
1.36229
1.36145
1.36053
1.35982
1.3591
1.35824
1.35737
1.35636
1.35539
1.35448
1.35367
1.35281
1.35187
1.35082
1.34965
1.34884
1.34717
0.877355
0.877379
0.877407
0.877441
0.877495
0.877594
0.877808
0.878267
0.879082
0.880548
0.882946
0.887001
0.893103
0.902624
0.915673
0.934285
0.957561
0.987668
1.0221
1.06222
1.10454
1.14844
1.1916
1.23135
1.26894
1.30014
1.32769
1.34616
1.36045
1.36831
1.37362
1.37576
1.37724
1.37796
1.37775
1.37517
1.37023
1.37094
1.37349
1.37613
1.3796
1.38247
1.3834
1.38241
1.38074
1.37746
1.3756
1.37496
1.37549
1.37774
1.38038
1.38159
1.38091
1.37905
1.37778
1.3773
1.37778
1.3791
1.3799
1.37934
1.37801
1.37705
1.37665
1.37684
1.37682
1.37606
1.37507
1.37447
1.37426
1.37371
1.37259
1.37155
1.37074
1.36998
1.36916
1.3686
1.36819
1.36749
1.36659
1.36581
1.36528
1.36448
1.36367
1.363
1.36213
1.36126
1.36062
1.35983
1.35896
1.3581
1.3571
1.35617
1.35532
1.35458
1.35368
1.35272
1.35165
1.35054
1.34985
1.34822
0.878142
0.87816
0.878179
0.878202
0.87823
0.878271
0.878298
0.878336
0.878379
0.878426
0.878484
0.878563
0.878686
0.878904
0.879375
0.880264
0.88179
0.884563
0.889091
0.896898
0.908501
0.926709
0.950872
0.984394
1.0241
1.07223
1.12385
1.17524
1.22481
1.26479
1.30114
1.32283
1.34152
1.34955
1.3567
1.36073
1.36782
1.37553
1.38326
1.38883
1.39143
1.39015
1.38854
1.38485
1.37885
1.37627
1.37641
1.37812
1.38151
1.38511
1.38509
1.38366
1.38102
1.37888
1.37888
1.38037
1.38211
1.38288
1.38204
1.38027
1.37863
1.37882
1.37944
1.3796
1.37873
1.37739
1.37672
1.37669
1.37637
1.37526
1.37389
1.37315
1.37258
1.37162
1.3708
1.37029
1.36969
1.36886
1.36794
1.3673
1.36665
1.36582
1.36507
1.3644
1.36352
1.36269
1.36204
1.36121
1.3603
1.35947
1.35846
1.3576
1.35676
1.35598
1.35507
1.35407
1.35297
1.35191
1.35121
1.34957
0.87909
0.879116
0.879144
0.879172
0.879201
0.879229
0.87926
0.879276
0.87929
0.879308
0.879332
0.879366
0.879408
0.879479
0.879516
0.879553
0.879596
0.879654
0.879743
0.87991
0.880237
0.881012
0.882503
0.885564
0.890936
0.901081
0.916855
0.942857
0.977446
1.02498
1.07931
1.13942
1.19903
1.25062
1.2969
1.32972
1.35687
1.36934
1.37737
1.3819
1.38517
1.38593
1.3836
1.37828
1.37918
1.38109
1.38527
1.38866
1.38993
1.38846
1.3853
1.38334
1.38165
1.38191
1.3841
1.38627
1.38596
1.38487
1.3831
1.38162
1.38182
1.38279
1.38281
1.38196
1.38071
1.37996
1.37978
1.37959
1.37881
1.37747
1.37638
1.37566
1.37486
1.37391
1.37314
1.37261
1.37191
1.37094
1.37006
1.36942
1.36869
1.36779
1.36705
1.3663
1.36536
1.36455
1.36386
1.36292
1.36201
1.36112
1.3601
1.35924
1.35842
1.35763
1.35666
1.3556
1.35443
1.35337
1.35271
1.35099
0.879952
0.879972
0.879994
0.880016
0.880038
0.880061
0.880084
0.880107
0.88013
0.880152
0.880173
0.880192
0.880211
0.88023
0.880243
0.880248
0.880258
0.880277
0.880305
0.880346
0.880448
0.880461
0.880479
0.880516
0.880602
0.880816
0.881296
0.882607
0.885419
0.891743
0.903095
0.924735
0.95649
1.00458
1.06209
1.12863
1.19556
1.25019
1.29791
1.32469
1.3478
1.35899
1.36666
1.37403
1.38484
1.39345
1.3989
1.39764
1.39536
1.39007
1.38199
1.38188
1.38307
1.38633
1.39005
1.38981
1.38839
1.38555
1.38374
1.38413
1.38542
1.38623
1.38523
1.38382
1.38274
1.38266
1.38273
1.38219
1.381
1.37972
1.37885
1.37805
1.37712
1.37625
1.37563
1.37497
1.37404
1.37299
1.3722
1.37157
1.37069
1.36977
1.36906
1.36824
1.36725
1.36646
1.36564
1.3646
1.36365
1.36271
1.36165
1.36081
1.35997
1.35913
1.3581
1.35698
1.35575
1.35471
1.35402
1.35217
0.880578
0.880589
0.880601
0.880614
0.880627
0.880639
0.880652
0.880666
0.880679
0.880692
0.880705
0.880719
0.880732
0.880745
0.880758
0.88077
0.880781
0.88079
0.880798
0.880805
0.880809
0.880814
0.880823
0.880838
0.880863
0.880904
0.881012
0.881006
0.881022
0.8811
0.881335
0.882107
0.884074
0.889256
0.899609
0.921345
0.955183
1.00874
1.07356
1.14672
1.21824
1.27633
1.32738
1.35884
1.37765
1.38509
1.39094
1.3914
1.38713
1.38069
1.38236
1.38584
1.39013
1.39291
1.3916
1.38883
1.38598
1.38515
1.38561
1.3878
1.38837
1.38727
1.38585
1.38475
1.38449
1.3851
1.38474
1.38348
1.3821
1.38121
1.38069
1.37991
1.37875
1.37786
1.37739
1.37669
1.37562
1.37452
1.37379
1.37308
1.37213
1.37125
1.37055
1.36963
1.36862
1.36781
1.36691
1.3658
1.36487
1.36386
1.36279
1.36193
1.36107
1.36021
1.35914
1.35799
1.35672
1.35569
1.35496
1.35301
0.880937
0.880941
0.880946
0.880952
0.880957
0.880963
0.880968
0.880973
0.880979
0.880985
0.88099
0.880996
0.881002
0.881008
0.881014
0.88102
0.881026
0.881032
0.881038
0.881044
0.88105
0.881056
0.881061
0.881066
0.88107
0.881073
0.881078
0.881094
0.881115
0.881141
0.881212
0.881204
0.881214
0.881271
0.881466
0.882208
0.884294
0.890309
0.903018
0.930713
0.973542
1.0387
1.11593
1.19359
1.26522
1.30733
1.34267
1.35663
1.36695
1.37706
1.38949
1.39959
1.39982
1.39805
1.39206
1.38361
1.38386
1.38558
1.38874
1.3911
1.39004
1.38746
1.38501
1.38515
1.38634
1.38677
1.38587
1.38421
1.38271
1.38221
1.38168
1.38075
1.37982
1.37904
1.37836
1.37748
1.37642
1.37549
1.37484
1.37402
1.37299
1.37218
1.37151
1.37052
1.36954
1.36872
1.3677
1.36653
1.36561
1.36456
1.3635
1.36266
1.36178
1.36088
1.35976
1.35859
1.35732
1.35634
1.35555
1.35349
0.881106
0.881108
0.881109
0.88111
0.881112
0.881114
0.881116
0.881117
0.881119
0.881121
0.881123
0.881124
0.881126
0.881128
0.88113
0.881132
0.881135
0.881138
0.881141
0.881144
0.881148
0.881152
0.881156
0.88116
0.881165
0.88117
0.881174
0.88118
0.881186
0.881195
0.881203
0.881223
0.881246
0.881271
0.88132
0.88132
0.881335
0.881411
0.881714
0.882905
0.886282
0.896266
0.916723
0.95945
1.02147
1.10434
1.19093
1.26375
1.32739
1.36326
1.38184
1.38959
1.39323
1.38845
1.38068
1.38219
1.38648
1.3907
1.39195
1.39077
1.38694
1.3846
1.3848
1.38699
1.3882
1.38732
1.38496
1.38373
1.38332
1.38307
1.3822
1.38102
1.38011
1.37983
1.3791
1.37782
1.37667
1.37593
1.37531
1.3744
1.37337
1.37267
1.37194
1.3709
1.36998
1.36914
1.36805
1.3669
1.366
1.36491
1.36388
1.36305
1.36215
1.36124
1.36012
1.35893
1.35768
1.35673
1.35588
1.35376
0.881173
0.881173
0.881173
0.881173
0.881173
0.881173
0.881173
0.881173
0.881173
0.881173
0.881174
0.881174
0.881175
0.881175
0.881176
0.881177
0.881179
0.881181
0.881183
0.881185
0.881188
0.881192
0.881196
0.881199
0.881204
0.881209
0.881215
0.881221
0.881228
0.881235
0.88124
0.881249
0.881258
0.881268
0.881278
0.881294
0.881311
0.881334
0.881332
0.881338
0.881377
0.881567
0.882293
0.885114
0.892883
0.914712
0.954688
1.02495
1.11359
1.2023
1.28164
1.32099
1.3541
1.36321
1.37676
1.38798
1.39834
1.39765
1.39442
1.3863
1.38262
1.38383
1.38729
1.39007
1.38896
1.38565
1.38353
1.38372
1.3843
1.38373
1.38252
1.38125
1.38052
1.38025
1.37941
1.37809
1.37686
1.37636
1.37565
1.3746
1.37364
1.37307
1.37224
1.37115
1.37029
1.3694
1.3682
1.36711
1.36624
1.3651
1.36414
1.36332
1.36239
1.36143
1.36028
1.35911
1.35794
1.35702
1.35607
1.35383
0.881213
0.881212
0.881211
0.881211
0.88121
0.881209
0.881209
0.881208
0.881208
0.881207
0.881207
0.881206
0.881206
0.881207
0.881207
0.881207
0.881208
0.881209
0.881211
0.881213
0.881215
0.881218
0.88122
0.881224
0.881228
0.881232
0.881236
0.881241
0.881246
0.881251
0.881257
0.881262
0.881268
0.881273
0.881279
0.881283
0.881289
0.881294
0.881299
0.881306
0.881306
0.881309
0.881315
0.881341
0.881479
0.882204
0.884784
0.894269
0.916613
0.96807
1.04495
1.14212
1.23852
1.30861
1.36321
1.37908
1.39109
1.39066
1.38389
1.38085
1.38436
1.38956
1.39158
1.39025
1.38554
1.38274
1.3831
1.38524
1.38495
1.3837
1.38206
1.38132
1.38137
1.38072
1.37914
1.3779
1.37718
1.37667
1.37584
1.37483
1.374
1.37338
1.37245
1.37135
1.37054
1.36956
1.3683
1.36731
1.36642
1.36525
1.36438
1.36355
1.36256
1.36157
1.3604
1.35927
1.35818
1.35727
1.35621
1.35389
0.881254
0.881253
0.881252
0.881251
0.881251
0.88125
0.88125
0.881249
0.881248
0.881248
0.881248
0.881247
0.881248
0.881248
0.881248
0.881248
0.881249
0.881249
0.88125
0.881251
0.881252
0.881253
0.881255
0.881256
0.881258
0.881259
0.88126
0.881262
0.881263
0.881264
0.881266
0.881268
0.88127
0.881271
0.881274
0.881275
0.881277
0.881278
0.881279
0.881281
0.881283
0.881288
0.881295
0.881299
0.881298
0.881302
0.881329
0.881508
0.882334
0.886176
0.897826
0.932038
0.992615
1.08852
1.19683
1.27251
1.33569
1.35083
1.3673
1.38019
1.39447
1.39746
1.39467
1.38599
1.38095
1.38232
1.38572
1.38662
1.38501
1.38269
1.38176
1.3823
1.38204
1.38053
1.37885
1.37786
1.37764
1.37697
1.37577
1.37483
1.37436
1.37361
1.37243
1.37148
1.37071
1.3696
1.36836
1.36747
1.36654
1.3654
1.36459
1.36371
1.36267
1.36165
1.36049
1.35942
1.35841
1.35745
1.35629
1.35382
0.881299
0.881299
0.8813
0.8813
0.8813
0.8813
0.8813
0.881301
0.881301
0.881301
0.881302
0.881302
0.881303
0.881303
0.881303
0.881303
0.881303
0.881303
0.881302
0.881301
0.8813
0.8813
0.881299
0.881298
0.881296
0.881294
0.881291
0.881288
0.881284
0.88128
0.881277
0.881275
0.881272
0.881269
0.881268
0.881267
0.881265
0.881265
0.881265
0.881267
0.881271
0.881277
0.881285
0.881297
0.881313
0.881329
0.881353
0.881349
0.881353
0.881393
0.881662
0.883278
0.889213
0.911038
0.958218
1.04758
1.15716
1.25366
1.33602
1.36901
1.38749
1.38932
1.38341
1.37954
1.38328
1.38872
1.3892
1.38633
1.38212
1.38157
1.38287
1.38357
1.38232
1.37975
1.3785
1.37843
1.3781
1.37694
1.37584
1.37514
1.37474
1.37382
1.37252
1.37171
1.37085
1.3696
1.36847
1.36766
1.36664
1.36557
1.3648
1.36383
1.36273
1.36168
1.36054
1.35955
1.35861
1.3576
1.35633
1.35374
0.881349
0.881351
0.881352
0.881353
0.881354
0.881355
0.881356
0.881357
0.881358
0.881359
0.881359
0.881359
0.881359
0.881359
0.881358
0.881358
0.881356
0.881355
0.881352
0.881349
0.881346
0.881343
0.881339
0.881336
0.881331
0.881326
0.881321
0.881314
0.881306
0.881298
0.881291
0.881283
0.881278
0.881273
0.881268
0.881266
0.881266
0.881266
0.881268
0.881271
0.881278
0.881289
0.881304
0.881323
0.881345
0.881367
0.881391
0.881406
0.881411
0.881419
0.881405
0.881404
0.881484
0.882162
0.885366
0.899901
0.936211
1.01831
1.12861
1.22985
1.31567
1.34181
1.36224
1.37686
1.39429
1.39663
1.39213
1.38136
1.38061
1.38268
1.38575
1.38448
1.38096
1.37889
1.37894
1.37917
1.37833
1.37687
1.37592
1.37579
1.37521
1.37393
1.37275
1.372
1.37099
1.36965
1.36867
1.36786
1.36677
1.36581
1.36502
1.36392
1.36278
1.3617
1.36062
1.35972
1.3588
1.35769
1.35626
1.35364
0.881393
0.881394
0.881396
0.881397
0.881397
0.881398
0.881399
0.881399
0.8814
0.8814
0.881399
0.881397
0.881396
0.881396
0.881394
0.881392
0.88139
0.881387
0.881383
0.881379
0.881374
0.881369
0.881362
0.881357
0.881351
0.881345
0.881338
0.881331
0.881322
0.881314
0.881306
0.881299
0.881294
0.881289
0.881286
0.881283
0.881283
0.881284
0.881287
0.881291
0.881301
0.881316
0.881336
0.881357
0.88138
0.881404
0.881429
0.881449
0.881454
0.881453
0.881443
0.881427
0.881391
0.881351
0.881373
0.881713
0.883629
0.893994
0.923806
0.998804
1.10788
1.22091
1.32019
1.36291
1.38587
1.38811
1.37913
1.37877
1.38388
1.38875
1.387
1.38208
1.37897
1.3791
1.38058
1.37996
1.37802
1.3768
1.37661
1.37643
1.3755
1.37408
1.37314
1.37232
1.3711
1.36977
1.36893
1.36805
1.36694
1.36609
1.36525
1.36402
1.36284
1.36175
1.36075
1.35993
1.35899
1.35777
1.35621
1.35356
0.881418
0.881418
0.881418
0.881418
0.881418
0.881418
0.881418
0.881417
0.881416
0.881415
0.881413
0.881412
0.88141
0.881407
0.881404
0.881402
0.8814
0.881396
0.881392
0.881388
0.881383
0.881377
0.881371
0.881365
0.881359
0.881352
0.881346
0.881339
0.881333
0.881326
0.88132
0.881314
0.881308
0.881305
0.881303
0.881302
0.881304
0.881308
0.881316
0.881326
0.881339
0.881355
0.881373
0.881391
0.881411
0.881431
0.881451
0.88147
0.88148
0.881477
0.881466
0.881444
0.881409
0.88137
0.88133
0.881304
0.881319
0.881529
0.88288
0.890938
0.916722
0.988714
1.09945
1.21307
1.30807
1.34033
1.36144
1.38004
1.39627
1.39425
1.38726
1.37825
1.37878
1.38181
1.38187
1.37976
1.37737
1.37718
1.37789
1.37713
1.37556
1.37424
1.37373
1.37271
1.37118
1.36996
1.3693
1.36829
1.36717
1.3664
1.36545
1.36408
1.36293
1.36184
1.36092
1.36018
1.35918
1.3578
1.35618
1.35352
0.881426
0.881426
0.881426
0.881425
0.881423
0.881421
0.881421
0.881419
0.881416
0.881414
0.881413
0.881412
0.881409
0.881405
0.881402
0.881399
0.881394
0.88139
0.881387
0.881382
0.88138
0.881377
0.881374
0.881369
0.881364
0.88136
0.881355
0.881352
0.881349
0.881346
0.881343
0.881341
0.88134
0.88134
0.881338
0.881338
0.881343
0.881351
0.88136
0.881369
0.881378
0.881389
0.881399
0.88141
0.881424
0.88144
0.881454
0.881469
0.881485
0.881483
0.88147
0.881454
0.881432
0.881403
0.881367
0.881327
0.881307
0.881318
0.881348
0.881516
0.882597
0.889693
0.914363
0.985599
1.09704
1.21954
1.3225
1.36808
1.38687
1.38518
1.37521
1.37817
1.38427
1.3857
1.3819
1.37739
1.3769
1.37923
1.37888
1.37728
1.37553
1.3749
1.37434
1.37298
1.37136
1.3704
1.36965
1.36855
1.3675
1.36674
1.36567
1.36424
1.36311
1.36201
1.36118
1.36045
1.35935
1.3578
1.35616
1.35353
0.881389
0.881387
0.881385
0.881383
0.881381
0.881377
0.881375
0.881375
0.881374
0.881371
0.881369
0.881368
0.881367
0.881368
0.881368
0.881367
0.881367
0.881368
0.88137
0.881372
0.881374
0.881376
0.881378
0.881381
0.881383
0.881385
0.881387
0.881392
0.881397
0.881401
0.881405
0.881408
0.881412
0.881414
0.881414
0.881413
0.881412
0.881414
0.881415
0.881414
0.881409
0.881407
0.881408
0.881406
0.881405
0.881406
0.881409
0.881417
0.881435
0.881458
0.881465
0.881461
0.881459
0.881454
0.881438
0.881405
0.88136
0.881348
0.881357
0.881373
0.881398
0.881555
0.882601
0.889431
0.914789
0.988702
1.10726
1.22805
1.31371
1.34734
1.365
1.38657
1.39496
1.38957
1.3774
1.37637
1.37905
1.38172
1.37956
1.37622
1.37549
1.3759
1.37505
1.37326
1.37167
1.37097
1.37007
1.36873
1.36788
1.36705
1.36568
1.36433
1.36333
1.36227
1.36149
1.36071
1.35949
1.35776
1.35619
1.3536
0.881322
0.88132
0.881319
0.881318
0.881316
0.881315
0.881314
0.881314
0.881314
0.881314
0.881315
0.881316
0.881319
0.881322
0.881326
0.881332
0.881338
0.881345
0.881353
0.881362
0.881371
0.881382
0.881393
0.881406
0.88142
0.881434
0.881448
0.881463
0.881477
0.881491
0.881506
0.881516
0.88152
0.881523
0.881523
0.88152
0.881508
0.881491
0.881474
0.881455
0.881434
0.881414
0.881394
0.881372
0.881349
0.881339
0.881336
0.881337
0.881351
0.88138
0.881421
0.881464
0.881503
0.88152
0.881523
0.881512
0.881472
0.881422
0.881386
0.881364
0.881358
0.881372
0.881424
0.881617
0.882716
0.889999
0.919186
0.99886
1.1208
1.25335
1.33899
1.37709
1.38614
1.37523
1.37509
1.38064
1.38456
1.38233
1.37648
1.37527
1.37701
1.37678
1.37495
1.37284
1.37224
1.37158
1.37028
1.36901
1.36832
1.36735
1.36573
1.36453
1.3636
1.36262
1.36186
1.36093
1.35942
1.35769
1.35627
1.35378
0.881288
0.881287
0.881286
0.881286
0.881286
0.881287
0.881287
0.881289
0.88129
0.881292
0.881295
0.881299
0.881303
0.881308
0.881314
0.881322
0.88133
0.881338
0.88135
0.881364
0.88138
0.881397
0.881416
0.881437
0.881458
0.88148
0.881502
0.881525
0.881547
0.881567
0.881587
0.881604
0.881611
0.881613
0.881612
0.881605
0.881588
0.881562
0.881529
0.881492
0.881451
0.881411
0.881375
0.881342
0.881311
0.881289
0.881285
0.881285
0.881294
0.881321
0.881372
0.881444
0.881523
0.881588
0.881607
0.88161
0.881593
0.881533
0.881441
0.88136
0.881323
0.881317
0.88133
0.881406
0.881491
0.881665
0.882998
0.891386
0.927365
1.01652
1.14945
1.26949
1.33001
1.35422
1.37702
1.39247
1.38925
1.37801
1.37412
1.37637
1.37914
1.37715
1.37404
1.3729
1.37299
1.37218
1.37063
1.36942
1.36874
1.36745
1.36583
1.3648
1.36393
1.36301
1.36224
1.3611
1.35933
1.35765
1.3564
1.354
0.881286
0.881285
0.881283
0.881283
0.881284
0.881285
0.881287
0.881289
0.881293
0.881295
0.881298
0.881303
0.881308
0.881315
0.881323
0.881331
0.881342
0.881354
0.881368
0.881384
0.881399
0.881415
0.881434
0.881454
0.881475
0.881498
0.881522
0.881547
0.88157
0.881591
0.88161
0.881625
0.881637
0.881642
0.88164
0.881632
0.881618
0.881595
0.881562
0.88152
0.881472
0.881421
0.881372
0.88133
0.881298
0.881277
0.881271
0.881273
0.881283
0.881307
0.881351
0.88142
0.881513
0.881607
0.881659
0.881668
0.881663
0.881619
0.881515
0.881382
0.881306
0.881294
0.881299
0.881344
0.881452
0.881531
0.881541
0.8817
0.883535
0.894586
0.942223
1.04327
1.1807
1.30449
1.36415
1.38311
1.37771
1.37086
1.37717
1.38213
1.38038
1.3745
1.37293
1.37401
1.3737
1.37213
1.37064
1.37022
1.36925
1.3675
1.366
1.36522
1.3643
1.3634
1.36252
1.36106
1.35922
1.35769
1.3566
1.35427
0.881316
0.881315
0.881314
0.881311
0.881309
0.881312
0.881314
0.881316
0.881319
0.881324
0.881328
0.881333
0.881339
0.881347
0.881355
0.881364
0.881372
0.881379
0.881386
0.881396
0.881408
0.881423
0.881439
0.881457
0.881475
0.881495
0.881515
0.881536
0.881557
0.881576
0.881591
0.881603
0.881614
0.881626
0.881628
0.881618
0.881602
0.881584
0.881564
0.881537
0.881502
0.88146
0.881413
0.881366
0.881324
0.88129
0.881272
0.881275
0.881288
0.88131
0.881347
0.881401
0.881477
0.881573
0.881656
0.881681
0.881677
0.881649
0.881571
0.881437
0.881315
0.881286
0.881294
0.881338
0.881431
0.88154
0.881576
0.881557
0.88152
0.881753
0.884711
0.901074
0.961825
1.08391
1.21812
1.31185
1.3457
1.36651
1.39
1.38685
1.37729
1.37215
1.37364
1.37573
1.37405
1.3718
1.37109
1.37093
1.36972
1.36762
1.36624
1.36567
1.36475
1.36383
1.36274
1.36093
1.35913
1.35777
1.3568
1.35454
0.881423
0.881421
0.881418
0.881416
0.881412
0.881408
0.881404
0.8814
0.881394
0.881392
0.881392
0.881391
0.881389
0.881386
0.881385
0.881387
0.88139
0.881393
0.881395
0.881397
0.881399
0.881401
0.881403
0.881406
0.881411
0.881418
0.881427
0.881439
0.881452
0.881466
0.881482
0.881498
0.881513
0.881529
0.881547
0.881559
0.881561
0.881558
0.881555
0.881551
0.881544
0.881532
0.881514
0.881489
0.881453
0.881405
0.881357
0.88133
0.881325
0.881332
0.881347
0.881373
0.881412
0.881474
0.881568
0.88165
0.881662
0.88164
0.881594
0.881508
0.881386
0.881307
0.881312
0.881351
0.881428
0.881528
0.881578
0.881567
0.881535
0.881468
0.881485
0.882022
0.886982
0.912963
0.993408
1.12613
1.26834
1.3473
1.37985
1.37905
1.36956
1.37459
1.37911
1.37676
1.37238
1.37116
1.37238
1.37158
1.36937
1.36766
1.36694
1.36615
1.3651
1.36413
1.36271
1.36072
1.35917
1.35807
1.35702
1.35476
0.881565
0.88156
0.881553
0.881546
0.881538
0.881529
0.881518
0.881508
0.881497
0.881485
0.881473
0.881461
0.881447
0.881432
0.881417
0.881402
0.881389
0.881378
0.881369
0.881362
0.881353
0.881345
0.881337
0.881329
0.881321
0.881316
0.881314
0.881313
0.881314
0.881319
0.881328
0.881342
0.881361
0.881384
0.881412
0.881446
0.881486
0.881526
0.881556
0.88158
0.881604
0.881624
0.881635
0.88164
0.881634
0.881606
0.881555
0.88149
0.881423
0.881371
0.881341
0.88133
0.881331
0.881349
0.881404
0.881498
0.881585
0.881611
0.881605
0.881577
0.881511
0.881419
0.881388
0.881406
0.88144
0.881499
0.881557
0.881548
0.881518
0.881477
0.881454
0.881478
0.881608
0.882836
0.891457
0.932456
1.03743
1.17941
1.29314
1.33781
1.35972
1.38652
1.38479
1.37778
1.3709
1.37257
1.37391
1.37183
1.36904
1.36811
1.36784
1.36675
1.36547
1.36437
1.36259
1.36059
1.35925
1.35842
1.35728
1.35496
0.881637
0.881631
0.881625
0.881617
0.881609
0.881599
0.881586
0.881574
0.881562
0.881548
0.881533
0.881518
0.881501
0.881481
0.88146
0.881437
0.881413
0.881388
0.881361
0.881339
0.881323
0.881312
0.881303
0.881294
0.881285
0.881274
0.881263
0.881256
0.881254
0.881252
0.881252
0.881257
0.881271
0.881294
0.881325
0.881364
0.881414
0.881479
0.881546
0.881601
0.881644
0.881687
0.881721
0.881732
0.881736
0.881731
0.881698
0.881629
0.881537
0.88144
0.881352
0.881294
0.881274
0.88127
0.881281
0.881338
0.881448
0.881568
0.881627
0.881639
0.881631
0.881585
0.881517
0.881475
0.881463
0.881461
0.881483
0.881489
0.881484
0.881479
0.881484
0.881539
0.881669
0.881761
0.882025
0.884473
0.900483
0.964662
1.08885
1.24016
1.33382
1.37692
1.37657
1.36803
1.37351
1.37752
1.37479
1.36957
1.36837
1.36938
1.36872
1.36699
1.36576
1.3644
1.36237
1.36067
1.35968
1.35876
1.35747
1.35513
0.881622
0.881618
0.881613
0.881605
0.881599
0.881594
0.881589
0.881582
0.881577
0.881572
0.881564
0.881554
0.881541
0.881526
0.88151
0.881492
0.881471
0.881449
0.881426
0.8814
0.881373
0.881345
0.881321
0.881303
0.88129
0.881281
0.881272
0.881261
0.881252
0.881247
0.881246
0.881249
0.881259
0.881277
0.881305
0.881339
0.881381
0.881436
0.881504
0.881576
0.881642
0.881699
0.881743
0.881758
0.881759
0.881752
0.881723
0.881665
0.881591
0.881505
0.881404
0.881301
0.881253
0.881246
0.88125
0.881286
0.881376
0.881511
0.88164
0.881686
0.881692
0.881682
0.88163
0.881531
0.881457
0.881427
0.881419
0.881432
0.881463
0.881492
0.881566
0.881674
0.881797
0.881868
0.881869
0.88187
0.882328
0.887485
0.917914
1.00994
1.15404
1.28274
1.33196
1.35693
1.38527
1.38268
1.37446
1.36808
1.36967
1.37081
1.36921
1.36721
1.3661
1.36436
1.36221
1.36069
1.36026
1.35917
1.35762
1.35528
0.88157
0.881574
0.881578
0.881582
0.881587
0.881589
0.881589
0.881588
0.881588
0.881587
0.881586
0.881584
0.881582
0.881581
0.881579
0.881578
0.881576
0.881572
0.881566
0.881557
0.881544
0.881529
0.88151
0.881489
0.881469
0.881451
0.881433
0.881414
0.881393
0.881372
0.881353
0.88134
0.881333
0.881332
0.881336
0.881351
0.881377
0.881406
0.881442
0.881487
0.881543
0.881605
0.881661
0.881699
0.881711
0.881705
0.881684
0.881645
0.881591
0.881534
0.881469
0.881386
0.881305
0.881271
0.881276
0.881308
0.881382
0.881492
0.881616
0.881694
0.881706
0.881702
0.881663
0.881563
0.881446
0.881405
0.881398
0.881412
0.88147
0.881577
0.881724
0.881829
0.881889
0.881898
0.881876
0.881767
0.881501
0.88153
0.882995
0.894753
0.950438
1.0706
1.22683
1.32962
1.37479
1.37419
1.36525
1.37081
1.37419
1.37161
1.3681
1.36718
1.36651
1.36423
1.36233
1.36125
1.36078
1.35944
1.3578
1.35558
0.88153
0.881541
0.881552
0.881561
0.881571
0.881581
0.881592
0.881604
0.881613
0.881622
0.881632
0.881644
0.881657
0.881668
0.881679
0.881689
0.8817
0.88171
0.881716
0.881721
0.881725
0.881727
0.881726
0.881721
0.881712
0.881698
0.881676
0.881649
0.881619
0.881586
0.881553
0.881519
0.881486
0.881456
0.881426
0.881397
0.881379
0.881367
0.881358
0.881354
0.881364
0.88139
0.881429
0.881473
0.881514
0.881542
0.881552
0.881551
0.881552
0.881554
0.881552
0.881532
0.881496
0.881451
0.881423
0.881427
0.881455
0.881506
0.881565
0.881631
0.88167
0.881666
0.881641
0.88157
0.881454
0.881407
0.881409
0.881455
0.881569
0.881742
0.881883
0.881919
0.881915
0.881879
0.88176
0.881556
0.881338
0.88123
0.881251
0.881662
0.885915
0.912202
1.00107
1.14741
1.27747
1.33062
1.35552
1.38233
1.37868
1.36938
1.36729
1.36845
1.3672
1.36416
1.3624
1.36247
1.36145
1.35932
1.35797
1.35597
0.881552
0.88157
0.881583
0.881594
0.881608
0.881622
0.881632
0.881644
0.88166
0.881675
0.881689
0.881704
0.881718
0.881729
0.881739
0.881749
0.881759
0.881769
0.881778
0.881788
0.881799
0.881804
0.881806
0.881807
0.881804
0.881794
0.881774
0.881747
0.881716
0.881682
0.881648
0.881616
0.881582
0.881543
0.881495
0.881437
0.881378
0.881331
0.881295
0.881271
0.881263
0.881266
0.881284
0.881318
0.881361
0.881406
0.881445
0.881479
0.88152
0.88158
0.881644
0.881674
0.881684
0.881674
0.881626
0.881568
0.881537
0.881524
0.881511
0.881509
0.881539
0.881576
0.881584
0.881563
0.881498
0.881488
0.881522
0.881605
0.881731
0.881888
0.881943
0.88194
0.881874
0.881725
0.88152
0.881355
0.881258
0.881219
0.881266
0.881421
0.881654
0.883017
0.893866
0.947375
1.06875
1.22951
1.32825
1.37324
1.37026
1.36613
1.37126
1.37071
1.366
1.36331
1.36367
1.3635
1.36169
1.35929
1.35834
1.3565
0.881587
0.881599
0.881609
0.881621
0.881638
0.881648
0.881656
0.881665
0.881674
0.881682
0.88169
0.881696
0.881704
0.881714
0.881724
0.881734
0.881744
0.881753
0.881759
0.881764
0.881767
0.881765
0.881758
0.88175
0.88174
0.881723
0.881709
0.881693
0.881672
0.881652
0.881633
0.881613
0.88159
0.881555
0.881508
0.881455
0.881402
0.881353
0.881314
0.881287
0.881273
0.881278
0.881295
0.881327
0.881368
0.881406
0.881442
0.881482
0.881531
0.881602
0.881695
0.881758
0.881772
0.881765
0.88172
0.881653
0.88158
0.881489
0.881442
0.881434
0.881446
0.881509
0.881581
0.881621
0.881639
0.881664
0.881704
0.881751
0.881829
0.881935
0.881944
0.881869
0.88168
0.881441
0.881293
0.88126
0.881244
0.881299
0.881461
0.881713
0.881846
0.881889
0.882218
0.885996
0.912821
1.00383
1.15177
1.28905
1.32848
1.36072
1.3793
1.3735
1.36302
1.36375
1.36614
1.36455
1.36124
1.35936
1.35902
1.35719
0.881643
0.881636
0.881629
0.881623
0.881614
0.881603
0.881589
0.881574
0.881559
0.881543
0.881529
0.881517
0.881505
0.881493
0.881486
0.881482
0.881482
0.88148
0.881473
0.881473
0.88147
0.881451
0.881441
0.881442
0.881433
0.881409
0.881398
0.881398
0.881409
0.881428
0.881451
0.881476
0.881501
0.881516
0.881517
0.881511
0.8815
0.881493
0.881495
0.881497
0.881488
0.881476
0.881465
0.881466
0.881498
0.881535
0.881542
0.881549
0.881565
0.881602
0.881659
0.881728
0.881768
0.881769
0.881725
0.881649
0.881556
0.881459
0.881414
0.881408
0.881434
0.881536
0.881724
0.881852
0.881877
0.881854
0.881806
0.881805
0.881857
0.881866
0.881801
0.881642
0.881416
0.881249
0.881226
0.881243
0.881354
0.88155
0.881764
0.88187
0.88192
0.881887
0.881688
0.881618
0.882879
0.894402
0.953805
1.08377
1.24049
1.34043
1.36792
1.35975
1.36183
1.3696
1.36839
1.36324
1.36024
1.36046
1.36002
1.35777
0.881521
0.881504
0.881485
0.881465
0.881444
0.88142
0.881393
0.881365
0.881338
0.881311
0.881287
0.881263
0.881236
0.881204
0.881185
0.881181
0.881179
0.881175
0.881172
0.881174
0.881183
0.881188
0.88119
0.881205
0.881217
0.881216
0.881221
0.881244
0.881288
0.88134
0.881403
0.881479
0.881543
0.881593
0.881642
0.88169
0.881713
0.88173
0.881749
0.881763
0.881772
0.881775
0.881764
0.881736
0.881714
0.881695
0.881641
0.881595
0.88157
0.881563
0.881562
0.88157
0.881582
0.881601
0.881578
0.881538
0.881501
0.881442
0.881438
0.881483
0.881604
0.881807
0.882023
0.88207
0.882049
0.881946
0.881833
0.881761
0.881707
0.881627
0.88152
0.881397
0.881273
0.881224
0.881246
0.881392
0.881634
0.881863
0.88193
0.881939
0.881889
0.881713
0.88142
0.881295
0.881338
0.881805
0.886821
0.917768
1.02405
1.17652
1.29
1.3364
1.36632
1.3755
1.36978
1.3603
1.36078
1.36214
1.36095
1.35818
0.881321
0.881307
0.881301
0.881294
0.881282
0.881272
0.881261
0.881245
0.881227
0.881207
0.881186
0.881164
0.881137
0.881112
0.881106
0.881107
0.881108
0.881112
0.881119
0.881129
0.881144
0.881166
0.881187
0.881195
0.881206
0.881235
0.881276
0.88133
0.881415
0.881506
0.881591
0.881694
0.881772
0.881781
0.88179
0.881814
0.881841
0.881858
0.881862
0.881858
0.881853
0.881872
0.881877
0.881855
0.881795
0.881737
0.881663
0.881554
0.88148
0.881463
0.881504
0.881485
0.881467
0.881481
0.881488
0.881458
0.881478
0.881563
0.881679
0.881797
0.881945
0.882111
0.882178
0.882163
0.8821
0.881949
0.881685
0.881455
0.881333
0.881292
0.881277
0.881285
0.881277
0.881343
0.881514
0.881731
0.881929
0.881993
0.881981
0.88189
0.881667
0.881384
0.881251
0.881283
0.881365
0.881577
0.881825
0.883574
0.899827
0.967801
1.11143
1.27149
1.34684
1.3679
1.3569
1.35903
1.36515
1.36368
1.36137
1.35862
0.881192
0.881199
0.88121
0.881216
0.881213
0.88119
0.881194
0.8812
0.881198
0.881218
0.881243
0.881289
0.881338
0.881364
0.881402
0.881456
0.881486
0.881507
0.881532
0.881561
0.881597
0.881631
0.881638
0.881637
0.881633
0.881642
0.881688
0.881754
0.881817
0.881869
0.881903
0.881907
0.881894
0.881909
0.881923
0.881864
0.88182
0.881817
0.881815
0.881792
0.881708
0.88168
0.881691
0.881649
0.881569
0.881565
0.881578
0.881507
0.881426
0.881411
0.881467
0.881493
0.88149
0.881505
0.881512
0.881599
0.881751
0.881901
0.881988
0.882062
0.882131
0.882205
0.882216
0.882161
0.881991
0.881693
0.881312
0.881093
0.881068
0.881105
0.88118
0.881291
0.881511
0.881769
0.881948
0.882038
0.882038
0.882014
0.881879
0.881611
0.881333
0.881204
0.881223
0.88134
0.881673
0.88191
0.881887
0.881848
0.882352
0.888914
0.932181
1.05305
1.20223
1.31392
1.33852
1.36414
1.36914
1.36457
1.36109
1.35928
0.881437
0.881479
0.881532
0.881563
0.881562
0.881567
0.881623
0.881693
0.881697
0.881679
0.881718
0.881861
0.881922
0.881922
0.881952
0.882014
0.88204
0.882058
0.88208
0.882104
0.882143
0.882154
0.882136
0.88215
0.882156
0.882097
0.882087
0.882129
0.882138
0.882106
0.882021
0.881958
0.881893
0.88179
0.881765
0.881717
0.881588
0.881479
0.881453
0.88141
0.88131
0.881257
0.881288
0.88133
0.881345
0.881392
0.881468
0.881462
0.881476
0.881547