/*--------------------------------*- C++ -*----------------------------------*\
  =========                 |
  \\      /  F ield         | OpenFOAM: The Open Source CFD Toolbox
   \\    /   O peration     | Website:  https://openfoam.org
    \\  /    A nd           | Version:  7
     \\/     M anipulation  |
\*---------------------------------------------------------------------------*/
FoamFile
{
    version     2.0;
    format      ascii;
    class       volScalarField;
    location    "13.5";
    object      rho;
}
// * * * * * * * * * * * * * * * * * * * * * * * * * * * * * * * * * * * * * //

dimensions      [1 -3 0 0 0 0 0];

internalField   nonuniform List<scalar> 
90000
(
0.383427
0.420372
0.457228
0.496326
0.525705
0.550954
0.583379
0.616843
0.64568
0.67694
0.714082
0.752524
0.789208
0.829597
0.871991
0.914359
0.957494
0.999348
1.04105
1.07681
1.1096
1.13332
1.15442
1.1593
1.16462
1.16479
1.16448
1.16344
1.1616
1.15799
1.15564
1.15326
1.154
1.15383
1.15431
1.15391
1.15183
1.14758
1.14144
1.13276
1.13315
1.1369
1.14639
1.15725
1.16919
1.18026
1.1887
1.19191
1.18735
1.17909
1.16948
1.16186
1.15905
1.16073
1.16623
1.1735
1.18123
1.18895
1.1886
1.18661
1.18254
1.1795
1.18029
1.18346
1.1888
1.19508
1.19738
1.19646
1.19363
1.19237
1.19399
1.19824
1.20381
1.20677
1.20616
1.20502
1.2055
1.20852
1.21387
1.2164
1.21569
1.21474
1.21594
1.21912
1.22204
1.22326
1.22428
1.22561
1.22714
1.22847
1.22993
1.23171
1.23343
1.2349
1.23641
1.23848
1.24103
1.24364
1.24583
1.25018
0.350593
0.350604
0.350617
0.35064
0.350678
0.350713
0.350746
0.350788
0.350868
0.351479
0.353285
0.35704
0.362678
0.371906
0.384602
0.402969
0.425933
0.457191
0.493972
0.54064
0.593576
0.654898
0.719747
0.782653
0.841969
0.893297
0.940523
0.978082
1.01266
1.03628
1.0594
1.07366
1.0894
1.09933
1.10937
1.11552
1.12207
1.12346
1.1244
1.1296
1.13952
1.14743
1.1506
1.15285
1.15337
1.15516
1.15303
1.14727
1.13764
1.12926
1.12976
1.13319
1.13877
1.14493
1.15009
1.15459
1.15798
1.15736
1.15438
1.14937
1.14524
1.14626
1.15014
1.15587
1.16279
1.16704
1.16668
1.16357
1.16125
1.16264
1.16629
1.17218
1.17617
1.17586
1.17475
1.17525
1.178
1.18373
1.18592
1.18559
1.18454
1.18511
1.18767
1.19207
1.19502
1.19629
1.19773
1.19989
1.20207
1.20388
1.20598
1.20838
1.21065
1.21261
1.21497
1.21795
1.22167
1.22545
1.22859
1.23409
0.351402
0.351466
0.35154
0.351624
0.351718
0.35182
0.351929
0.352042
0.352152
0.352304
0.352381
0.35245
0.352519
0.352599
0.352685
0.352779
0.352878
0.352987
0.353098
0.353231
0.353325
0.354585
0.358564
0.368681
0.384812
0.410931
0.443883
0.488524
0.539116
0.60164
0.667081
0.736438
0.803518
0.867409
0.928805
0.980581
1.03157
1.07122
1.10959
1.1343
1.1469
1.15361
1.15299
1.15099
1.14667
1.13803
1.12372
1.10449
1.09746
1.10165
1.1101
1.1195
1.12829
1.13573
1.13997
1.14364
1.1424
1.13671
1.12973
1.12727
1.1289
1.1338
1.14091
1.14511
1.14557
1.14393
1.13941
1.137
1.13774
1.14322
1.15036
1.15365
1.15279
1.1493
1.14895
1.15109
1.15554
1.16177
1.16234
1.15986
1.15954
1.16127
1.16488
1.16757
1.16894
1.17068
1.17259
1.17434
1.17566
1.1775
1.18036
1.18317
1.18553
1.18763
1.19065
1.19449
1.19811
1.20191
1.20561
1.21184
0.352787
0.352864
0.352947
0.353032
0.35312
0.35321
0.353303
0.353396
0.353493
0.353587
0.353679
0.353771
0.353864
0.353961
0.354057
0.354154
0.354249
0.354345
0.354441
0.354536
0.354639
0.354705
0.354759
0.354814
0.354881
0.354952
0.355033
0.35511
0.355202
0.35526
0.356913
0.364395
0.378867
0.40646
0.443602
0.49815
0.563356
0.646186
0.735653
0.822167
0.902302
0.962788
1.01818
1.04859
1.07799
1.0843
1.09232
1.09493
1.10728
1.11762
1.12947
1.13638
1.14188
1.14265
1.14217
1.13882
1.12778
1.11886
1.11637
1.11821
1.12374
1.13094
1.13942
1.14229
1.13884
1.13164
1.12646
1.12733
1.13228
1.13628
1.14304
1.14268
1.13899
1.13595
1.13696
1.14178
1.14659
1.14627
1.14427
1.14125
1.1418
1.14441
1.14901
1.15089
1.15063
1.15089
1.15258
1.1547
1.15605
1.15745
1.15924
1.16117
1.16271
1.16505
1.16774
1.1713
1.1757
1.17928
1.18267
1.18908
0.35411
0.354163
0.354218
0.354273
0.354328
0.354385
0.354443
0.354501
0.35456
0.354618
0.354674
0.354729
0.354786
0.354843
0.354899
0.354954
0.355008
0.355065
0.355122
0.35518
0.355241
0.355306
0.355373
0.35544
0.35551
0.355578
0.355644
0.355704
0.355762
0.355818
0.355845
0.355873
0.355902
0.355938
0.355972
0.356012
0.356035
0.357118
0.36346
0.384665
0.420777
0.481902
0.559742
0.661793
0.770248
0.873663
0.971656
1.04343
1.09554
1.11207
1.12558
1.13091
1.13666
1.13807
1.13493
1.12155
1.10997
1.11399
1.12065
1.1306
1.13899
1.14128
1.14012
1.1361
1.12837
1.12239
1.12279
1.12553
1.13308
1.14088
1.13994
1.13513
1.12995
1.13048
1.13272
1.13806
1.14348
1.14102
1.13546
1.13435
1.13651
1.13919
1.14022
1.14016
1.14057
1.14161
1.1419
1.14193
1.14239
1.1437
1.14575
1.14703
1.14793
1.14889
1.15173
1.15451
1.15662
1.16053
1.16346
1.16858
0.354973
0.354999
0.355026
0.355053
0.355081
0.35511
0.355141
0.355172
0.355203
0.355234
0.355266
0.355298
0.355331
0.355366
0.3554
0.355434
0.355471
0.35551
0.355551
0.355592
0.355636
0.355684
0.355729
0.355773
0.355816
0.355857
0.355893
0.355927
0.355959
0.355985
0.35601
0.356034
0.356059
0.356085
0.356108
0.356127
0.356152
0.356161
0.356168
0.356179
0.356196
0.356231
0.356256
0.358182
0.36917
0.404805
0.465221
0.565269
0.684284
0.803047
0.910238
0.978732
1.04257
1.0693
1.09444
1.09875
1.11487
1.13005
1.14736
1.15611
1.15318
1.14547
1.13637
1.12196
1.11995
1.12158
1.12727
1.13723
1.1467
1.14509
1.13712
1.12809
1.12795
1.13054
1.13878
1.14334
1.14186
1.13529
1.13106
1.1319
1.13506
1.13933
1.13888
1.13707
1.13711
1.13812
1.13874
1.13818
1.13808
1.13849
1.13892
1.13923
1.13989
1.14106
1.14239
1.14509
1.14694
1.14839
1.15123
1.1554
0.355417
0.355431
0.355449
0.355468
0.355486
0.355505
0.355525
0.355546
0.355568
0.355589
0.355609
0.355631
0.355654
0.355678
0.355704
0.355732
0.35576
0.355792
0.355825
0.355857
0.355891
0.355926
0.355957
0.355987
0.356014
0.356041
0.356062
0.356079
0.356095
0.356108
0.356122
0.356136
0.356152
0.356171
0.356185
0.356195
0.356209
0.356237
0.35628
0.356325
0.356382
0.356451
0.356526
0.356563
0.356607
0.356644
0.356685
0.356712
0.359431
0.383022
0.431113
0.521711
0.638609
0.773463
0.90686
1.00877
1.09155
1.11963
1.13892
1.14516
1.14765
1.14469
1.12876
1.11762
1.12253
1.13562
1.14648
1.15164
1.15008
1.13877
1.12921
1.12743
1.13091
1.1415
1.1479
1.14543
1.13663
1.13086
1.13109
1.13515
1.13933
1.13944
1.13773
1.13632
1.13652
1.13745
1.13746
1.1365
1.13671
1.13776
1.13769
1.13709
1.13711
1.13805
1.13958
1.14058
1.14243
1.14435
1.14503
1.14791
0.35572
0.355733
0.355747
0.355762
0.355777
0.355793
0.355809
0.355827
0.355845
0.355864
0.355884
0.355904
0.355924
0.355945
0.355967
0.355991
0.356017
0.356042
0.356067
0.356092
0.356117
0.356141
0.356162
0.35618
0.356194
0.35621
0.35622
0.356228
0.356238
0.356246
0.356254
0.356267
0.356283
0.356302
0.356324
0.356347
0.356376
0.356422
0.356482
0.35654
0.356599
0.356655
0.35671
0.356768
0.356832
0.356879
0.356911
0.356945
0.356958
0.356957
0.356939
0.356898
0.356875
0.37362
0.417851
0.518886
0.656528
0.802694
0.936676
1.01207
1.08475
1.10056
1.11442
1.12546
1.1486
1.1649
1.16417
1.16102
1.14278
1.12655
1.12728
1.13361
1.14626
1.15611
1.15344
1.1398
1.1319
1.13122
1.13617
1.1431
1.14274
1.14029
1.13696
1.13665
1.13803
1.13861
1.13751
1.13657
1.13703
1.13789
1.13769
1.1367
1.13677
1.13755
1.13905
1.13984
1.14069
1.14253
1.14358
1.14538
0.35603
0.356042
0.356054
0.356068
0.356081
0.356095
0.35611
0.356125
0.356141
0.356157
0.356174
0.356192
0.356209
0.356225
0.356241
0.356257
0.356275
0.356292
0.356306
0.356319
0.356332
0.356348
0.356362
0.35637
0.356374
0.356378
0.356388
0.356394
0.356399
0.356405
0.356415
0.356431
0.35645
0.356466
0.356484
0.356509
0.356543
0.356597
0.356661
0.356716
0.356764
0.356804
0.35684
0.356885
0.35693
0.356957
0.356974
0.356993
0.357002
0.356999
0.356981
0.356935
0.356913
0.356908
0.356911
0.356908
0.357695
0.384201
0.447349
0.57312
0.735362
0.893973
1.03639
1.1094
1.14204
1.15326
1.15694
1.14784
1.12078
1.12549
1.13776
1.15268
1.16024
1.15824
1.14486
1.13177
1.1319
1.13719
1.14696
1.14713
1.14476
1.13908
1.13772
1.14041
1.14153
1.1399
1.13751
1.13777
1.13926
1.13918
1.13783
1.13686
1.13734
1.1389
1.1399
1.14037
1.14123
1.1425
1.14348
1.14515
0.356324
0.356334
0.356343
0.356351
0.356359
0.356368
0.356378
0.356388
0.356397
0.356407
0.356418
0.356428
0.356439
0.356446
0.356449
0.356453
0.356461
0.356472
0.356475
0.356479
0.356483
0.356488
0.356496
0.356501
0.356502
0.356501
0.356501
0.356504
0.356509
0.356516
0.356524
0.35654
0.35656
0.356581
0.356605
0.356629
0.356663
0.356723
0.356785
0.356829
0.356858
0.356876
0.356889
0.356907
0.356937
0.356966
0.356979
0.356984
0.356989
0.356987
0.356973
0.356936
0.356924
0.356928
0.356942
0.356964
0.356977
0.357021
0.357093
0.35711
0.365032
0.420267
0.533029
0.70989
0.882126
0.989788
1.07819
1.10156
1.11658
1.14055
1.16812
1.17278
1.16879
1.14667
1.12902
1.13036
1.13853
1.15137
1.15439
1.15044
1.14135
1.13874
1.14215
1.14561
1.14374
1.14039
1.13931
1.14115
1.14208
1.14063
1.13831
1.13848
1.13977
1.14089
1.1409
1.14128
1.14242
1.14348
1.14421
1.14601
0.356521
0.356524
0.356525
0.356525
0.356526
0.356529
0.356535
0.35654
0.356545
0.356549
0.356552
0.356555
0.356559
0.356561
0.356559
0.356558
0.356559
0.356566
0.356569
0.356568
0.356568
0.356569
0.356573
0.356581
0.356586
0.356584
0.356581
0.356581
0.356582
0.356589
0.356602
0.35662
0.356646
0.356679
0.356709
0.356731
0.356762
0.356817
0.356862
0.356881
0.356894
0.356899
0.356898
0.356896
0.356913
0.356943
0.356946
0.356944
0.356951
0.356966
0.356956
0.356948
0.356962
0.356978
0.356993
0.357013
0.357037
0.357079
0.357138
0.357165
0.357163
0.357135
0.357085
0.366694
0.412865
0.535034
0.715159
0.906899
1.06238
1.12916
1.15802
1.16084
1.15031
1.11853
1.12466
1.14066
1.15378
1.15845
1.15423
1.14238
1.139
1.1417
1.14841
1.14749
1.14449
1.14093
1.14184
1.14457
1.14391
1.14122
1.13998
1.14099
1.1428
1.1431
1.14301
1.14365
1.14483
1.1451
1.14544
1.1473
0.35658
0.356581
0.356581
0.356581
0.356581
0.356583
0.356586
0.356588
0.35659
0.356593
0.356592
0.356591
0.356592
0.356595
0.356597
0.356599
0.356602
0.35661
0.35662
0.356629
0.356635
0.35664
0.356648
0.356658
0.356665
0.356669
0.35667
0.356672
0.356677
0.356688
0.356708
0.35673
0.356761
0.356804
0.356828
0.356838
0.356852
0.356891
0.356914
0.35691
0.356909
0.356906
0.356893
0.356886
0.356897
0.356925
0.356921
0.356918
0.356932
0.356986
0.357037
0.357107
0.357155
0.357146
0.3571
0.357079
0.357075
0.357088
0.357144
0.357186
0.357182
0.357143
0.357175
0.357238
0.357434
0.357642
0.364948
0.425121
0.576284
0.775348
0.942907
1.04691
1.09978
1.10961
1.14272
1.16682
1.16644
1.16188
1.14117
1.13461
1.13847
1.15045
1.15229
1.14761
1.14099
1.14153
1.14582
1.14678
1.14483
1.14157
1.14169
1.14374
1.14476
1.14472
1.14485
1.14576
1.14704
1.14696
1.1472
1.14962
0.356603
0.356605
0.356608
0.356611
0.356615
0.356619
0.356623
0.356626
0.356628
0.356628
0.356628
0.356628
0.356631
0.356636
0.356641
0.356648
0.356667
0.356696
0.356724
0.356746
0.356765
0.356785
0.356805
0.356823
0.356835
0.356845
0.356856
0.35687
0.356883
0.356897
0.356909
0.356923
0.356952
0.356976
0.356972
0.356967
0.356966
0.356974
0.35698
0.356973
0.356961
0.356959
0.356954
0.356946
0.356935
0.356932
0.356944
0.356976
0.357022
0.357065
0.357142
0.357278
0.357306
0.357289
0.357199
0.357109
0.357094
0.357089
0.35712
0.3572
0.35722
0.357267
0.357378
0.357525
0.357832
0.358186
0.358215
0.358218
0.358146
0.378185
0.466046
0.646091
0.876984
1.04422
1.13012
1.15257
1.1591
1.1416
1.12577
1.1352
1.14985
1.15637
1.15124
1.13797
1.13852
1.14446
1.14916
1.14759
1.1415
1.14065
1.14355
1.14599
1.14568
1.14542
1.14598
1.14745
1.14797
1.14814
1.14849
1.1517
0.35667
0.356678
0.356685
0.356691
0.356697
0.356702
0.35671
0.35672
0.35673
0.356738
0.356746
0.356754
0.356764
0.35678
0.356804
0.356836
0.356876
0.356918
0.356954
0.356988
0.357015
0.357038
0.357062
0.35708
0.357091
0.357097
0.357105
0.357118
0.357115
0.357101
0.357093
0.35709
0.357084
0.357071
0.357054
0.357045
0.357038
0.357028
0.357015
0.357003
0.357
0.357002
0.357001
0.356998
0.357001
0.357008
0.357025
0.357059
0.357109
0.357159
0.357272
0.357375
0.357381
0.357356
0.357248
0.35711
0.35708
0.357077
0.357108
0.357194
0.357348
0.357564
0.357693
0.357813
0.358091
0.358293
0.358299
0.358268
0.358078
0.357712
0.35709
0.358174
0.402546
0.570179
0.793085
0.951021
1.0845
1.0958
1.1289
1.15593
1.16364
1.15948
1.13479
1.13221
1.13915
1.15057
1.14994
1.14279
1.13821
1.14078
1.14674
1.14667
1.14548
1.14561
1.14708
1.14841
1.1483
1.14847
1.14959
1.15377
0.35673
0.356746
0.356758
0.356769
0.356777
0.35678
0.356785
0.356799
0.356819
0.356836
0.356854
0.356873
0.356893
0.356922
0.356966
0.357021
0.35707
0.357102
0.357126
0.357151
0.357178
0.357196
0.357206
0.357214
0.357217
0.357214
0.357212
0.357218
0.357202
0.357168
0.357162
0.357157
0.357138
0.357104
0.357084
0.357074
0.357063
0.357051
0.357036
0.357017
0.357003
0.357006
0.357034
0.35708
0.357115
0.357141
0.357152
0.357163
0.357202
0.357277
0.357383
0.357423
0.357418
0.357383
0.357263
0.357115
0.357081
0.357084
0.357119
0.357278
0.357704
0.358032
0.358047
0.358088
0.358237
0.358317
0.358272
0.358099
0.357732
0.357213
0.356804
0.356684
0.356703
0.356856
0.379464
0.500584
0.723528
0.943344
1.10666
1.14223
1.15467
1.13946
1.11692
1.13245
1.1527
1.15298
1.14491
1.13483
1.13647
1.14591
1.14786
1.1461
1.14457
1.14571
1.14832
1.1488
1.14818
1.14864
1.15104
1.15556
0.35688
0.356891
0.356899
0.356908
0.35692
0.356929
0.356945
0.356986
0.357004
0.357005
0.357013
0.357031
0.357049
0.357071
0.357105
0.357151
0.357184
0.35719
0.357193
0.357202
0.357222
0.357229
0.357228
0.357227
0.35723
0.357221
0.357211
0.357207
0.357184
0.357157
0.357157
0.357158
0.357139
0.357105
0.357084
0.357065
0.35705
0.357042
0.357036
0.357025
0.357022
0.357067
0.357195
0.357242
0.357249
0.35726
0.357258
0.357255
0.35726
0.357307
0.357365
0.357353
0.35732
0.357296
0.357228
0.357113
0.357112
0.357174
0.357302
0.357596
0.358164
0.358336
0.358313
0.358274
0.358281
0.35822
0.357993
0.357628
0.357179
0.35683
0.356689
0.356677
0.356884
0.357405
0.35807
0.358201
0.365879
0.468677
0.682674
0.890529
1.05891
1.09034
1.11846
1.16237
1.16429
1.15487
1.13063
1.13157
1.14242
1.15048
1.14731
1.14306
1.14392
1.14767
1.14909
1.14814
1.14774
1.14878
1.15298
1.15644
0.357118
0.357124
0.357125
0.357124
0.35712
0.357116
0.357115
0.357114
0.357111
0.357107
0.357106
0.357107
0.357118
0.357135
0.357152
0.357169
0.357181
0.357183
0.357177
0.357166
0.357164
0.357167
0.357168
0.357171
0.357167
0.357159
0.357159
0.35717
0.357162
0.357144
0.357145
0.357155
0.357139
0.357106
0.3571
0.357099
0.35709
0.357086
0.357094
0.357111
0.357152
0.357293
0.357406
0.357393
0.357348
0.357345
0.357338
0.357315
0.357285
0.357263
0.357276
0.357269
0.357256
0.357266
0.357232
0.3572
0.357271
0.357449
0.357674
0.358083
0.358463
0.358496
0.358458
0.358361
0.358236
0.357944
0.357512
0.35706
0.356709
0.356613
0.356651
0.356819
0.357317
0.357942
0.358313
0.358312
0.357934
0.356889
0.35993
0.443175
0.65038
0.908142
1.08918
1.15233
1.15334
1.12711
1.12237
1.13918
1.15346
1.15122
1.14086
1.14149
1.14618
1.1494
1.14842
1.14703
1.1474
1.15094
1.15479
1.15675
0.357258
0.357257
0.357251
0.357237
0.357216
0.357191
0.357166
0.357138
0.357118
0.357108
0.357101
0.3571
0.3571
0.357099
0.357094
0.357093
0.357093
0.357086
0.357081
0.35708
0.357081
0.357085
0.357091
0.357102
0.357123
0.357146
0.357169
0.357192
0.357226
0.357265
0.357307
0.357331
0.35732
0.357299
0.357297
0.357301
0.357289
0.35727
0.357248
0.357241
0.357279
0.357411
0.357473
0.357449
0.357408
0.357398
0.357376
0.357336
0.357224
0.357153
0.357156
0.357188
0.357234
0.357303
0.357358
0.357454
0.357637
0.357821
0.358036
0.358369
0.358538
0.358546
0.358489
0.358292
0.357909
0.35737
0.356967
0.356618
0.356469
0.356503
0.356621
0.357182
0.357898
0.358234
0.358359
0.358027
0.357046
0.356193
0.35588
0.355971
0.357038
0.437742
0.658173
0.900502
1.04746
1.09477
1.12635
1.16617
1.16236
1.14281
1.136
1.14193
1.15058
1.15012
1.14659
1.14619
1.14865
1.15404
1.15637
1.15681
0.357226
0.357184
0.357127
0.357068
0.357021
0.357004
0.357002
0.356998
0.356986
0.356971
0.356962
0.356962
0.356978
0.35699
0.356992
0.356999
0.357021
0.357034
0.357033
0.357031
0.357037
0.357046
0.357045
0.357051
0.357068
0.357096
0.357148
0.357246
0.357359
0.357441
0.357493
0.357537
0.35755
0.357516
0.357455
0.357443
0.357432
0.357403
0.357341
0.357289
0.357304
0.357385
0.357406
0.357381
0.357327
0.357323
0.35735
0.35732
0.357172
0.357082
0.35708
0.357131
0.357325
0.357557
0.357738
0.357942
0.358048
0.358127
0.358252
0.358436
0.358515
0.358416
0.358135
0.357727
0.357119
0.356651
0.356505
0.35639
0.356378
0.356417
0.356874
0.357842
0.358236
0.358352
0.357978
0.357089
0.356098
0.355711
0.355774
0.356351
0.357478
0.357513
0.360125
0.435996
0.664743
0.951829
1.09986
1.15469
1.14968
1.12665
1.13814
1.15206
1.15256
1.14824
1.14476
1.14602
1.15225
1.15627
1.15692
1.15708
0.357015
0.356964
0.356946
0.356942
0.356942
0.356947
0.356964
0.356972
0.356968
0.356964
0.356962
0.356964
0.356988
0.357009
0.35701
0.357024
0.357072
0.357089
0.357088
0.357093
0.357119
0.357151
0.357179
0.35721
0.357248
0.35731
0.357394
0.357488
0.357568
0.357616
0.357645
0.357659
0.357653
0.3576
0.357492
0.357467
0.357479
0.357467
0.35739
0.357276
0.357183
0.357114
0.357082
0.357086
0.357114
0.357194
0.357327
0.357345
0.357255
0.357162
0.35719
0.357336
0.357642
0.357922
0.3582
0.358342
0.358326
0.358281
0.358323
0.358327
0.358173
0.357745
0.357263
0.356829
0.356277
0.356147
0.356156
0.35624
0.356327
0.356756
0.357638
0.358312
0.358341
0.357918
0.357056
0.356106
0.355607
0.355625
0.356155
0.357297
0.358006
0.357773
0.356999
0.356539
0.360048
0.459758
0.706835
0.975983
1.05718
1.11233
1.16061
1.15894
1.15151
1.1426
1.14376
1.15179
1.15834
1.15777
1.15699
1.15767
0.357008
0.35701
0.357021
0.357038
0.357057
0.357081
0.357107
0.357141
0.357189
0.357219
0.357239
0.357276
0.357301
0.357299
0.357301
0.357325
0.357338
0.357331
0.357323
0.357322
0.357336
0.357392
0.357421
0.357414
0.357417
0.35749
0.357556
0.357578
0.357616
0.357669
0.35768
0.357676
0.357655
0.357593
0.357484
0.357438
0.357445
0.357423
0.357301
0.357067
0.356807
0.356665
0.356661
0.356727
0.356858
0.357058
0.357332
0.357412
0.357384
0.357401
0.357499
0.357694
0.357887
0.358122
0.358336
0.35839
0.358367
0.358284
0.358039
0.357622
0.357028
0.356636
0.3564
0.356139
0.355891
0.355889
0.35594
0.356205
0.356927
0.357801
0.358495
0.358437
0.358048
0.357
0.356244
0.355663
0.355535
0.355973
0.357459
0.358685
0.358551
0.357572
0.356943
0.357427
0.358982
0.359293
0.374201
0.491425
0.775032
1.0408
1.13616
1.15539
1.15107
1.141
1.15285
1.16155
1.16046
1.15961
1.15996
1.16077
0.357402
0.357415
0.357439
0.357446
0.357444
0.357437
0.357442
0.357468
0.357504
0.35751
0.357507
0.357498
0.357478
0.357439
0.357426
0.357416
0.357403
0.357371
0.357333
0.357322
0.357328
0.357368
0.357389
0.357376
0.357369
0.357384
0.357417
0.357418
0.357406
0.357389
0.357387
0.357379
0.357331
0.357203
0.357149
0.357144
0.357116
0.357019
0.356827
0.356533
0.356272
0.356232
0.356262
0.356405
0.356629
0.356856
0.357184
0.357576
0.3577
0.357746
0.357797
0.357832
0.357919
0.35814
0.358199
0.358127
0.357938
0.357561
0.357109
0.356539
0.356011
0.355993
0.356017
0.355963
0.355842
0.355885
0.356274
0.357361
0.358377
0.358995
0.358823
0.358208
0.357214
0.356311
0.355964
0.355546
0.356367
0.358263
0.359943
0.359838
0.359037
0.357669
0.358772
0.361747
0.364024
0.363832
0.363647
0.364372
0.396845
0.56298
0.840433
1.0651
1.12415
1.14711
1.17521
1.16934
1.16409
1.16528
1.16639
1.16616
0.357465
0.357471
0.357482
0.357482
0.357468
0.357446
0.357434
0.357436
0.357438
0.357431
0.357405
0.357359
0.357296
0.35722
0.357131
0.357006
0.35688
0.35684
0.356814
0.356791
0.356778
0.356775
0.356782
0.356772
0.356734
0.356693
0.356659
0.356621
0.356588
0.356584
0.356583
0.356577
0.356562
0.35653
0.35648
0.356458
0.356452
0.356413
0.35631
0.356126
0.356054
0.356055
0.356111
0.356305
0.356562
0.356938
0.357664
0.358344
0.358431
0.358361
0.358015
0.357767
0.357731
0.35768
0.357574
0.357396
0.357149
0.356846
0.356523
0.356058
0.355808
0.355832
0.355953
0.356089
0.356406
0.357001
0.358069
0.359191
0.35975
0.359507
0.35878
0.35759
0.356713
0.356214
0.356104
0.357921
0.360526
0.362393
0.362161
0.361201
0.35993
0.361413
0.36429
0.367272
0.368029
0.369356
0.371086
0.373551
0.375771
0.376704
0.431264
0.65442
0.96764
1.12482
1.18024
1.17259
1.17481
1.1756
1.17542
1.17577
0.35685
0.356842
0.356816
0.356724
0.356642
0.35659
0.356516
0.356483
0.356472
0.356449
0.356413
0.356385
0.356361
0.356333
0.356303
0.356251
0.356198
0.356181
0.356168
0.356147
0.35614
0.356142
0.356148
0.356169
0.356198
0.356211
0.35622
0.356246
0.356272
0.356288
0.356287
0.356276
0.3563
0.356336
0.356363
0.356395
0.356456
0.356625
0.356892
0.357072
0.357173
0.357269
0.357403
0.357582
0.357839
0.358323
0.358947
0.358996
0.358957
0.358824
0.358399
0.357775
0.357556
0.357271
0.357099
0.357051
0.356923
0.356727
0.356441
0.356051
0.355922
0.356049
0.356676
0.357838
0.359193
0.36006
0.360868
0.360924
0.360696
0.359509
0.358397
0.357229
0.357296
0.358479
0.361694
0.364728
0.366237
0.365829
0.364405
0.364363
0.367078
0.371139
0.373182
0.373525
0.375078
0.377789
0.380625
0.382512
0.384906
0.387512
0.388383
0.390446
0.492332
0.769475
1.06674
1.12645
1.18941
1.18887
1.18705
1.18783
0.356336
0.356308
0.356257
0.356201
0.356182
0.356171
0.356158
0.356156
0.356161
0.356178
0.356214
0.356242
0.356245
0.356241
0.356246
0.356233
0.3562
0.356185
0.356176
0.356178
0.356209
0.356218
0.356215
0.356233
0.356306
0.356368
0.35642
0.356505
0.356559
0.356591
0.356616
0.356663
0.356803
0.357141
0.357556
0.357835
0.358124
0.358604
0.35888
0.358995
0.359085
0.359204
0.359294
0.359301
0.359394
0.359619
0.359638
0.359465
0.359154
0.358735
0.358215
0.357825
0.35764
0.35724
0.356999
0.357065
0.357105
0.357098
0.357114
0.357452
0.358324
0.359658
0.361309
0.362598
0.363161
0.363203
0.363033
0.362386
0.361127
0.359358
0.359735
0.361382
0.364948
0.368478
0.371956
0.371714
0.370832
0.370321
0.371342
0.375392
0.379331
0.381988
0.381973
0.382779
0.384743
0.386473
0.389157
0.392112
0.394491
0.397476
0.399888
0.403037
0.403878
0.429286
0.59648
0.907641
1.15165
1.17666
1.20062
1.20593
0.356296
0.356286
0.356269
0.356255
0.356251
0.356258
0.356274
0.356293
0.356326
0.356392
0.356479
0.356584
0.356711
0.356853
0.357008
0.357151
0.357254
0.357327
0.357399
0.357549
0.357889
0.358054
0.358084
0.358141
0.358277
0.358505
0.358776
0.35897
0.359114
0.359279
0.359399
0.359517
0.35974
0.360203
0.360428
0.360491
0.360617
0.3608
0.360789
0.360738
0.36074
0.360819
0.360789
0.360514
0.360293
0.36003
0.359646
0.359272
0.358865
0.358407
0.358191
0.35822
0.358187
0.35812
0.35831
0.358795
0.359632
0.361029
0.362741
0.36458
0.366088
0.367189
0.367727
0.367433
0.366599
0.366042
0.365498
0.365068
0.365777
0.368433
0.372298
0.376229
0.378466
0.38002
0.379741
0.378889
0.379322
0.381303
0.385183
0.388771
0.390336
0.391066
0.392554
0.394523
0.396892
0.399727
0.402522
0.405268
0.406579
0.407705
0.409561
0.412608
0.415944
0.416827
0.417921
0.490729
0.746263
1.0156
1.18351
1.21357
0.358812
0.358979
0.359253
0.359584
0.35981
0.359996
0.36013
0.360214
0.36033
0.360574
0.360813
0.361003
0.361208
0.361446
0.361769
0.362071
0.362122
0.36214
0.362186
0.362344
0.362527
0.362555
0.362552
0.36253
0.362526
0.362588
0.362715
0.362815
0.362828
0.362797
0.36273
0.362699
0.362686
0.362574
0.362279
0.362208
0.362198
0.362103
0.36182
0.361555
0.361519
0.361501
0.361221
0.360816
0.360696
0.3604
0.360143
0.36019
0.360464
0.36106
0.362066
0.363312
0.364818
0.366647
0.368328
0.369885
0.371567
0.373074
0.374019
0.374647
0.375161
0.375165
0.375075
0.374478
0.37449
0.375192
0.377112
0.38017
0.383463
0.386211
0.387858
0.389714
0.389543
0.388674
0.388785
0.390373
0.393378
0.396872
0.400247
0.400828
0.401605
0.403239
0.405626
0.408042
0.409818
0.412476
0.414613
0.415986
0.418073
0.420198
0.422163
0.424417
0.428137
0.429721
0.431134
0.432276
0.441966
0.60156
0.903108
1.16288
0.365919
0.365884
0.365815
0.365783
0.36578
0.3658
0.365808
0.365759
0.365704
0.365713
0.365704
0.365685
0.365728
0.36571
0.365714
0.365745
0.365688
0.365701
0.365711
0.365662
0.365489
0.36534
0.365384
0.365349
0.365215
0.365138
0.364933
0.36488
0.364824
0.364391
0.364112
0.364217
0.364203
0.363776
0.363432
0.363508
0.363993
0.364655
0.365168
0.365777
0.366581
0.367567
0.368809
0.370258
0.371745
0.373069
0.374402
0.37604
0.377789
0.379652
0.381457
0.383039
0.384399
0.385403
0.385898
0.386327
0.386649
0.386524
0.386122
0.385956
0.386212
0.386522
0.387074
0.388462
0.390638
0.39317
0.395631
0.397774
0.399869
0.400522
0.400126
0.400289
0.401159
0.402529
0.404919
0.407731
0.410513
0.412864
0.414065
0.414858
0.41593
0.417468
0.419124
0.421406
0.424074
0.42576
0.427598
0.429434
0.431312
0.433589
0.436108
0.437504
0.439219
0.441467
0.442472
0.444254
0.447015
0.4479
0.492704
0.857967
0.374716
0.374793
0.374893
0.37502
0.375187
0.375386
0.375619
0.375826
0.375998
0.376163
0.376375
0.376626
0.37686
0.377111
0.377427
0.377807
0.378193
0.378613
0.379082
0.379501
0.379916
0.380444
0.381031
0.381536
0.382036
0.382661
0.383306
0.38393
0.384633
0.385424
0.386357
0.387208
0.387697
0.38824
0.389181
0.390355
0.391236
0.391953
0.392875
0.393826
0.394531
0.395222
0.395976
0.396706
0.397322
0.397709
0.397944
0.39824
0.398507
0.398654
0.398555
0.398463
0.398512
0.398443
0.398236
0.398278
0.398425
0.398522
0.398799
0.399676
0.401226
0.403276
0.405793
0.408513
0.410732
0.412563
0.413566
0.414124
0.414984
0.415798
0.416202
0.416837
0.418241
0.420922
0.423595
0.425381
0.426788
0.427252
0.427973
0.429397
0.431037
0.433167
0.434984
0.436673
0.439203
0.440735
0.44176
0.443149
0.443974
0.444967
0.447728
0.450485
0.451469
0.453431
0.456453
0.457964
0.458613
0.460807
0.461676
0.538492
0.400943
0.401074
0.401128
0.401193
0.401337
0.40161
0.402072
0.402273
0.402323
0.402396
0.402613
0.402899
0.402979
0.403057
0.403204
0.403425
0.403658
0.40383
0.404057
0.404264
0.404473
0.404728
0.405006
0.40527
0.405506
0.405727
0.405956
0.406209
0.406537
0.407042
0.407214
0.407242
0.40733
0.407508
0.407842
0.407998
0.407893
0.407812
0.407873
0.407744
0.407604
0.407762
0.408047
0.407945
0.40786
0.407897
0.407681
0.407741
0.408321
0.408521
0.408641
0.40919
0.410361
0.411902
0.413604
0.415547
0.417733
0.420074
0.422498
0.424796
0.426694
0.428239
0.429463
0.430408
0.431315
0.431317
0.430962
0.430972
0.431607
0.432641
0.434218
0.435694
0.43735
0.438966
0.440384
0.441887
0.442546
0.443417
0.444629
0.446164
0.447825
0.449337
0.451558
0.45306
0.45355
0.454912
0.455804
0.456967
0.459121
0.461669
0.46334
0.464763
0.465367
0.466211
0.467848
0.469313
0.471539
0.473093
0.474292
0.47575
0.422355
0.422389
0.422495
0.422722
0.422735
0.422675
0.422764
0.4228
0.422784
0.422841
0.422915
0.423033
0.423119
0.423193
0.423367
0.423478
0.423507
0.423617
0.423729
0.423726
0.423788
0.424032
0.424304
0.424472
0.424598
0.424769
0.425055
0.425179
0.425273
0.425471
0.425988
0.426214
0.426349
0.426668
0.427248
0.427975
0.428691
0.429351
0.429972
0.430683
0.431681
0.432792
0.433835
0.434931
0.436096
0.437209
0.438246
0.439246
0.440309
0.441492
0.442676
0.44384
0.44508
0.446247
0.447
0.447511
0.448192
0.448475
0.448485
0.448514
0.448422
0.448096
0.447821
0.447869
0.44787
0.447719
0.447847
0.448601
0.450118
0.452268
0.454283
0.455937
0.457598
0.458359
0.458982
0.459442
0.46008
0.46091
0.461767
0.463036
0.464591
0.465755
0.467134
0.46876
0.469252
0.469818
0.471361
0.473047
0.474508
0.476669
0.4769
0.477071
0.478565
0.480397
0.481582
0.483651
0.485299
0.486185
0.487375
0.489672
0.450153
0.450475
0.450784
0.450977
0.451084
0.451187
0.451328
0.45145
0.451545
0.451659
0.451939
0.452266
0.452367
0.452453
0.452715
0.453236
0.453358
0.453342
0.453395
0.453617
0.453887
0.454128
0.454403
0.454816
0.455338
0.455603
0.45579
0.456063
0.456451
0.456847
0.457248
0.457644
0.458123
0.458884
0.459406
0.459435
0.45946
0.459685
0.460107
0.460379
0.460567
0.460714
0.460758
0.460926
0.461389
0.461604
0.461762
0.462024
0.462317
0.462331
0.462077
0.461588
0.46143
0.461263
0.460734
0.460166
0.460306
0.46024
0.45981
0.459858
0.460219
0.460802
0.461778
0.463294
0.465419
0.467787
0.47001
0.471962
0.473601
0.475221
0.475688
0.476418
0.476342
0.476391
0.476254
0.476409
0.477228
0.478529
0.480113
0.481662
0.483179
0.484645
0.485139
0.485726
0.486771
0.487446
0.48833
0.490005
0.490818
0.491528
0.492721
0.494447
0.495712
0.496686
0.497915
0.498349
0.498476
0.499507
0.500816
0.502629
0.477794
0.477822
0.477831
0.477868
0.477928
0.477952
0.47797
0.478085
0.478197
0.478223
0.478316
0.478315
0.478276
0.478445
0.478531
0.478469
0.478513
0.478674
0.478704
0.47869
0.478662
0.478674
0.478767
0.478819
0.478911
0.47908
0.479126
0.479112
0.479041
0.47901
0.479112
0.479256
0.479326
0.479294
0.479081
0.479071
0.479301
0.479431
0.479593
0.479743
0.479677
0.479716
0.479974
0.47998
0.479986
0.480077
0.480263
0.480549
0.481085
0.481731
0.482403
0.483117
0.483943
0.485005
0.486256
0.487521
0.488699
0.489865
0.491166
0.492685
0.494219
0.495544
0.496544
0.49725
0.497994
0.497939
0.497859
0.49783
0.497686
0.496983
0.496171
0.495782
0.495766
0.496055
0.496894
0.498309
0.500038
0.501586
0.503068
0.503714
0.504098
0.504126
0.503999
0.503932
0.504439
0.505429
0.506607
0.507814
0.508665
0.5091
0.509353
0.510127
0.510328
0.510794
0.511467
0.512277
0.513488
0.514585
0.515248
0.516464
0.507929
0.507921
0.507872
0.507838
0.507928
0.507991
0.507994
0.508006
0.508127
0.508235
0.508375
0.508628
0.508797
0.508801
0.508778
0.50877
0.508862
0.509207
0.509511
0.509546
0.509494
0.509471
0.509569
0.509749
0.510027
0.510168
0.510106
0.510087
0.510241
0.51055
0.510817
0.510959
0.511069
0.511217
0.511449
0.511859
0.512562
0.512933
0.512885
0.512872
0.513163
0.513723
0.514222
0.514598
0.514927
0.515244
0.515677
0.516204
0.516557
0.5168
0.517219
0.517366
0.517335
0.517455
0.517635
0.517733
0.517768
0.517719
0.517471
0.517108
0.516639
0.516105
0.515465
0.514938
0.514287
0.513001
0.512299
0.511987
0.512123
0.512506
0.513537
0.515129
0.517026
0.518918
0.520601
0.521805
0.522692
0.522628
0.52209
0.521432
0.520653
0.520629
0.520947