/*--------------------------------*- C++ -*----------------------------------*\
  =========                 |
  \\      /  F ield         | OpenFOAM: The Open Source CFD Toolbox
   \\    /   O peration     | Website:  https://openfoam.org
    \\  /    A nd           | Version:  7
     \\/     M anipulation  |
\*---------------------------------------------------------------------------*/
FoamFile
{
    version     2.0;
    format      ascii;
    class       volVectorField;
    location    "2";
    object      U;
}
// * * * * * * * * * * * * * * * * * * * * * * * * * * * * * * * * * * * * * //

dimensions      [0 1 -1 0 0 0 0];

internalField   nonuniform List<vector> 
90000
(
(2.4238 -1.65698 0)
(2.40893 -1.46316 0)
(2.43256 -1.43314 0)
(2.40968 -1.27269 0)
(2.44725 -1.03898 0)
(2.50099 -1.03653 0)
(2.51241 -0.965859 0)
(2.51341 -0.820523 0)
(2.53342 -0.722665 0)
(2.55266 -0.674201 0)
(2.55589 -0.561 0)
(2.56417 -0.495114 0)
(2.56081 -0.397167 0)
(2.56624 -0.342227 0)
(2.56025 -0.26109 0)
(2.56241 -0.215402 0)
(2.55313 -0.141337 0)
(2.55304 -0.113019 0)
(2.53948 -0.0610182 0)
(2.53265 -0.0564155 0)
(2.52448 -0.0340232 0)
(2.513 -0.0360528 0)
(2.50518 -0.0442201 0)
(2.49628 -0.0453189 0)
(2.49527 -0.0424397 0)
(2.49305 -0.0414712 0)
(2.49701 -0.0317319 0)
(2.50068 -0.0221615 0)
(2.51389 -0.00495576 0)
(2.52042 0.0024742 0)
(2.52899 -0.00688981 0)
(2.52358 -0.020303 0)
(2.51705 -0.0376732 0)
(2.50409 -0.0568072 0)
(2.50031 -0.0757366 0)
(2.49669 -0.0891634 0)
(2.49515 -0.0973176 0)
(2.49138 -0.100474 0)
(2.48477 -0.108567 0)
(2.47643 -0.110865 0)
(2.46568 -0.112425 0)
(2.45499 -0.109765 0)
(2.44723 -0.105432 0)
(2.4383 -0.0954803 0)
(2.4336 -0.0870281 0)
(2.41947 -0.0824717 0)
(2.40137 -0.090442 0)
(2.37449 -0.103434 0)
(2.33502 -0.116064 0)
(2.30164 -0.116739 0)
(2.28243 -0.111598 0)
(2.26385 -0.104793 0)
(2.24916 -0.0955291 0)
(2.23402 -0.0894761 0)
(2.21683 -0.0895257 0)
(2.19162 -0.0887588 0)
(2.15864 -0.0783816 0)
(2.12065 -0.0731773 0)
(2.09571 -0.0889943 0)
(2.07991 -0.10613 0)
(2.07485 -0.122426 0)
(2.08053 -0.144626 0)
(2.09219 -0.171437 0)
(2.10389 -0.197895 0)
(2.13458 -0.201317 0)
(2.20061 -0.185686 0)
(2.27986 -0.178055 0)
(2.38526 -0.157708 0)
(2.54236 -0.108302 0)
(2.77187 -0.0253035 0)
(3.01138 0.0779661 0)
(3.17412 0.128766 0)
(3.25567 0.129649 0)
(3.26174 0.166026 0)
(3.25152 0.180945 0)
(3.20987 0.169487 0)
(3.15206 0.135638 0)
(3.14067 0.102044 0)
(3.12319 0.0683228 0)
(3.11241 0.0667588 0)
(3.16543 0.106416 0)
(3.20933 0.13138 0)
(3.21955 0.214896 0)
(3.21848 0.262973 0)
(3.13203 0.234309 0)
(3.05495 0.156996 0)
(3.05302 0.0787809 0)
(3.02478 0.0244113 0)
(2.95198 -0.0303003 0)
(2.84461 -0.0739334 0)
(2.85413 -0.0365772 0)
(3.03118 -0.0151154 0)
(3.17274 0.0303411 0)
(3.33067 0.070897 0)
(3.46249 0.0999637 0)
(3.48655 0.196781 0)
(3.49725 0.28578 0)
(3.44594 0.284762 0)
(3.35361 0.2307 0)
(3.30812 0.156496 0)
(2.4672 -1.78443 0)
(2.46834 -1.78548 0)
(2.46939 -1.78686 0)
(2.4708 -1.78796 0)
(2.47212 -1.7893 0)
(2.47358 -1.79057 0)
(2.47521 -1.79174 0)
(2.47674 -1.79317 0)
(2.47863 -1.79432 0)
(2.48011 -1.79605 0)
(2.4824 -1.7971 0)
(2.4829 -1.79909 0)
(2.47945 -1.78147 0)
(2.46656 -1.74153 0)
(2.44336 -1.66824 0)
(2.41409 -1.56988 0)
(2.3792 -1.42607 0)
(2.34747 -1.29558 0)
(2.30466 -1.11235 0)
(2.27112 -0.963953 0)
(2.23075 -0.787244 0)
(2.20017 -0.661566 0)
(2.16787 -0.515651 0)
(2.15889 -0.410534 0)
(2.14088 -0.306313 0)
(2.12297 -0.218885 0)
(2.10856 -0.14556 0)
(2.10182 -0.105419 0)
(2.09095 -0.0596403 0)
(2.07617 -0.057468 0)
(2.0624 -0.043173 0)
(2.05647 -0.0444949 0)
(2.07307 -0.0422849 0)
(2.08674 -0.0351959 0)
(2.10988 -0.0250954 0)
(2.13235 -0.0157658 0)
(2.15623 -0.0154422 0)
(2.15673 -0.0247995 0)
(2.15781 -0.0402086 0)
(2.155 -0.0540331 0)
(2.15815 -0.0641485 0)
(2.15866 -0.0712372 0)
(2.15893 -0.0685892 0)
(2.16061 -0.0604837 0)
(2.14748 -0.0449007 0)
(2.13266 -0.0370954 0)
(2.10218 -0.0406615 0)
(2.06143 -0.0557381 0)
(2.03268 -0.0632962 0)
(2.01917 -0.0693444 0)
(2.00887 -0.0705819 0)
(2.00173 -0.0690593 0)
(1.99387 -0.0725469 0)
(1.9847 -0.078684 0)
(1.96831 -0.0803646 0)
(1.94502 -0.0693408 0)
(1.91556 -0.0596094 0)
(1.89063 -0.0696922 0)
(1.88197 -0.0930061 0)
(1.88114 -0.113843 0)
(1.8875 -0.12472 0)
(1.90212 -0.146172 0)
(1.91564 -0.177642 0)
(1.91973 -0.206776 0)
(1.92974 -0.219395 0)
(1.96099 -0.205587 0)
(2.01573 -0.186686 0)
(2.08572 -0.178718 0)
(2.19566 -0.150311 0)
(2.37244 -0.0839472 0)
(2.62815 0.0146386 0)
(2.86993 0.105987 0)
(3.03991 0.138273 0)
(3.11032 0.168462 0)
(3.13326 0.198041 0)
(3.11043 0.169663 0)
(3.03718 0.132606 0)
(3.01571 0.107804 0)
(2.97654 0.0719374 0)
(2.93794 0.0695484 0)
(3.01043 0.10789 0)
(3.06255 0.13314 0)
(3.1073 0.220359 0)
(3.14373 0.271501 0)
(3.09396 0.237395 0)
(3.02952 0.145537 0)
(3.00826 0.0895203 0)
(2.93479 0.0319252 0)
(2.80127 -0.00732035 0)
(2.62514 -0.0427177 0)
(2.60545 -0.0482953 0)
(2.78151 -0.0299816 0)
(2.95241 0.00675016 0)
(3.16882 0.05154 0)
(3.37002 0.0751412 0)
(3.46943 0.188428 0)
(3.48802 0.294308 0)
(3.44078 0.28854 0)
(3.34942 0.228823 0)
(3.30508 0.153676 0)
(2.47117 -1.79505 0)
(2.47332 -1.79684 0)
(2.47505 -1.79912 0)
(2.47733 -1.80054 0)
(2.47908 -1.80241 0)
(2.48135 -1.80347 0)
(2.48299 -1.8055 0)
(2.48562 -1.80621 0)
(2.48736 -1.80829 0)
(2.49019 -1.80894 0)
(2.49188 -1.81123 0)
(2.49507 -1.812 0)
(2.49617 -1.81404 0)
(2.49771 -1.8151 0)
(2.49929 -1.81617 0)
(2.50105 -1.81727 0)
(2.50277 -1.81834 0)
(2.50446 -1.81954 0)
(2.50638 -1.81992 0)
(2.50772 -1.8209 0)
(2.50963 -1.82147 0)
(2.5107 -1.82299 0)
(2.49994 -1.80109 0)
(2.47039 -1.74511 0)
(2.42488 -1.65169 0)
(2.37161 -1.52901 0)
(2.31642 -1.36827 0)
(2.26639 -1.21599 0)
(2.20863 -1.01988 0)
(2.15639 -0.858384 0)
(2.09793 -0.684015 0)
(2.05132 -0.507434 0)
(2.04566 -0.405327 0)
(1.98208 -0.241285 0)
(1.97045 -0.190486 0)
(1.94319 -0.110325 0)
(1.92991 -0.109605 0)
(1.92925 -0.0988159 0)
(1.94823 -0.0949313 0)
(1.9636 -0.0818466 0)
(1.97975 -0.0788728 0)
(1.99159 -0.0806945 0)
(1.99642 -0.0776463 0)
(1.99343 -0.0683037 0)
(1.97667 -0.0602183 0)
(1.95713 -0.0609878 0)
(1.92412 -0.0647397 0)
(1.89347 -0.0691221 0)
(1.87829 -0.0691501 0)
(1.87562 -0.072074 0)
(1.87607 -0.072435 0)
(1.8732 -0.0682684 0)
(1.86381 -0.0706439 0)
(1.85191 -0.0718425 0)
(1.83563 -0.0641065 0)
(1.81681 -0.0497822 0)
(1.79831 -0.0482004 0)
(1.78448 -0.0621233 0)
(1.78285 -0.0853632 0)
(1.78881 -0.119965 0)
(1.79625 -0.142289 0)
(1.80894 -0.165872 0)
(1.81752 -0.190669 0)
(1.81592 -0.213765 0)
(1.81482 -0.228218 0)
(1.82348 -0.230766 0)
(1.83797 -0.227031 0)
(1.87754 -0.226739 0)
(1.93523 -0.215608 0)
(2.04291 -0.173469 0)
(2.22447 -0.101131 0)
(2.4384 -0.0189039 0)
(2.6265 0.0657328 0)
(2.75758 0.134656 0)
(2.84058 0.186468 0)
(2.8587 0.177376 0)
(2.78049 0.139025 0)
(2.74841 0.119718 0)
(2.69998 0.0928677 0)
(2.65317 0.0803494 0)
(2.73616 0.0975314 0)
(2.7976 0.119075 0)
(2.88269 0.192396 0)
(2.98312 0.271184 0)
(3.00486 0.235765 0)
(2.92749 0.14275 0)
(2.88614 0.104775 0)
(2.77661 0.0661707 0)
(2.59819 0.0336317 0)
(2.40174 -0.032293 0)
(2.35828 -0.0756292 0)
(2.51301 -0.0542559 0)
(2.69276 -0.0201515 0)
(2.92778 0.0167993 0)
(3.17026 0.0653012 0)
(3.39601 0.171949 0)
(3.46937 0.293216 0)
(3.43477 0.289429 0)
(3.34625 0.227115 0)
(3.30199 0.150109 0)
(2.4811 -1.80905 0)
(2.48285 -1.81079 0)
(2.48508 -1.81194 0)
(2.48707 -1.81344 0)
(2.48962 -1.81375 0)
(2.49153 -1.81511 0)
(2.49407 -1.81548 0)
(2.49635 -1.81637 0)
(2.49886 -1.81678 0)
(2.50082 -1.8179 0)
(2.50291 -1.81868 0)
(2.50478 -1.81992 0)
(2.50688 -1.82105 0)
(2.50898 -1.82212 0)
(2.51054 -1.82333 0)
(2.51207 -1.8243 0)
(2.5132 -1.82592 0)
(2.51451 -1.82725 0)
(2.51599 -1.82773 0)
(2.5174 -1.82796 0)
(2.51862 -1.82835 0)
(2.52007 -1.82998 0)
(2.52095 -1.82995 0)
(2.52184 -1.82942 0)
(2.52282 -1.82889 0)
(2.52399 -1.8282 0)
(2.52511 -1.82727 0)
(2.52541 -1.82697 0)
(2.5259 -1.82633 0)
(2.5265 -1.82521 0)
(2.52279 -1.81722 0)
(2.49277 -1.75916 0)
(2.43419 -1.64805 0)
(2.34772 -1.43929 0)
(2.27473 -1.24929 0)
(2.17037 -0.956327 0)
(2.10848 -0.744841 0)
(2.04058 -0.514359 0)
(2.02907 -0.355629 0)
(1.96988 -0.189779 0)
(1.95102 -0.100721 0)
(1.91243 -0.0144242 0)
(1.91135 0.000291948 0)
(1.90517 -0.0260841 0)
(1.9067 -0.0313435 0)
(1.89497 -0.0448313 0)
(1.87437 -0.0679252 0)
(1.86004 -0.0656286 0)
(1.84865 -0.0612955 0)
(1.8457 -0.0611474 0)
(1.84499 -0.0573964 0)
(1.83775 -0.0569886 0)
(1.82252 -0.0664727 0)
(1.80445 -0.068092 0)
(1.79219 -0.0549386 0)
(1.77972 -0.0435553 0)
(1.76839 -0.0464133 0)
(1.75952 -0.0611502 0)
(1.75807 -0.0907041 0)
(1.76342 -0.131755 0)
(1.76746 -0.151722 0)
(1.77537 -0.167777 0)
(1.77689 -0.190442 0)
(1.77025 -0.214919 0)
(1.7615 -0.23329 0)
(1.75357 -0.239683 0)
(1.7417 -0.232453 0)
(1.7461 -0.227903 0)
(1.76999 -0.224882 0)
(1.81834 -0.198003 0)
(1.91197 -0.128671 0)
(2.03997 -0.0216837 0)
(2.17555 0.0610578 0)
(2.29052 0.109155 0)
(2.3927 0.164353 0)
(2.45065 0.184373 0)
(2.40972 0.146727 0)
(2.37702 0.125965 0)
(2.343 0.0972603 0)
(2.31234 0.0729393 0)
(2.38783 0.0877156 0)
(2.45555 0.1104 0)
(2.56247 0.162676 0)
(2.7336 0.234532 0)
(2.81922 0.214377 0)
(2.72091 0.153803 0)
(2.6607 0.110167 0)
(2.53743 0.0819593 0)
(2.37112 0.0715689 0)
(2.21919 0.00189043 0)
(2.16598 -0.0861002 0)
(2.26701 -0.0792338 0)
(2.43711 -0.0569015 0)
(2.65318 -0.0285711 0)
(2.90861 0.018197 0)
(3.2185 0.138605 0)
(3.41137 0.284409 0)
(3.42427 0.299845 0)
(3.34346 0.226405 0)
(3.29936 0.143596 0)
(2.49385 -1.82134 0)
(2.49555 -1.8227 0)
(2.49691 -1.82441 0)
(2.49854 -1.82546 0)
(2.50006 -1.82646 0)
(2.50133 -1.82788 0)
(2.5028 -1.8293 0)
(2.50476 -1.82955 0)
(2.50653 -1.82975 0)
(2.50813 -1.83 0)
(2.5098 -1.83002 0)
(2.51129 -1.83051 0)
(2.51292 -1.83094 0)
(2.5148 -1.83103 0)
(2.51654 -1.83097 0)
(2.51699 -1.83122 0)
(2.51724 -1.83184 0)
(2.51784 -1.83275 0)
(2.51895 -1.83318 0)
(2.52041 -1.83289 0)
(2.52176 -1.83308 0)
(2.52306 -1.83362 0)
(2.52459 -1.83403 0)
(2.52582 -1.83315 0)
(2.52687 -1.83207 0)
(2.52783 -1.83118 0)
(2.52836 -1.83021 0)
(2.52852 -1.82974 0)
(2.52912 -1.82852 0)
(2.52978 -1.82791 0)
(2.52963 -1.82622 0)
(2.52914 -1.82527 0)
(2.52908 -1.8232 0)
(2.52933 -1.82124 0)
(2.52866 -1.81989 0)
(2.52742 -1.81787 0)
(2.52765 -1.81472 0)
(2.49717 -1.75697 0)
(2.43396 -1.61079 0)
(2.34717 -1.37385 0)
(2.26802 -1.0984 0)
(2.19805 -0.805469 0)
(2.14117 -0.537792 0)
(2.12393 -0.381145 0)
(2.0326 -0.20316 0)
(2.00081 -0.145941 0)
(1.94498 -0.0935286 0)
(1.9177 -0.0636357 0)
(1.88219 -0.0506165 0)
(1.86439 -0.0470844 0)
(1.8541 -0.0352476 0)
(1.83305 -0.0335904 0)
(1.81183 -0.0489453 0)
(1.79345 -0.0561664 0)
(1.79006 -0.045851 0)
(1.78266 -0.0365766 0)
(1.77154 -0.0411299 0)
(1.76101 -0.0577983 0)
(1.75348 -0.092672 0)
(1.75394 -0.141545 0)
(1.75401 -0.164174 0)
(1.75853 -0.175563 0)
(1.75559 -0.19262 0)
(1.74722 -0.216405 0)
(1.73482 -0.233883 0)
(1.71799 -0.243632 0)
(1.69356 -0.24516 0)
(1.67394 -0.244315 0)
(1.67649 -0.244051 0)
(1.6951 -0.225099 0)
(1.74153 -0.166953 0)
(1.80057 -0.0799338 0)
(1.84644 0.0195115 0)
(1.89791 0.0945798 0)
(1.96725 0.14848 0)
(2.02938 0.180932 0)
(2.03803 0.163064 0)
(2.02723 0.136028 0)
(2.01618 0.113546 0)
(2.00952 0.0801987 0)
(2.05986 0.0752927 0)
(2.12227 0.0843064 0)
(2.21304 0.117171 0)
(2.39881 0.20555 0)
(2.50885 0.219391 0)
(2.4175 0.166375 0)
(2.3577 0.139717 0)
(2.27039 0.128343 0)
(2.17508 0.0994712 0)
(2.09105 0.00832317 0)
(2.03639 -0.0971487 0)
(2.06948 -0.102444 0)
(2.2092 -0.083373 0)
(2.38412 -0.0654504 0)
(2.62612 -0.0277478 0)
(2.96178 0.0816577 0)
(3.29147 0.241319 0)
(3.39522 0.289234 0)
(3.34094 0.218004 0)
(3.2996 0.141315 0)
(2.50477 -1.83171 0)
(2.50588 -1.83186 0)
(2.50671 -1.8327 0)
(2.50772 -1.83372 0)
(2.50881 -1.83475 0)
(2.50932 -1.83642 0)
(2.51011 -1.83812 0)
(2.51133 -1.83873 0)
(2.51263 -1.83869 0)
(2.51393 -1.83864 0)
(2.5154 -1.83837 0)
(2.51701 -1.83757 0)
(2.51831 -1.83664 0)
(2.51923 -1.83576 0)
(2.52027 -1.8356 0)
(2.52118 -1.83612 0)
(2.52169 -1.83681 0)
(2.52203 -1.83727 0)
(2.52256 -1.83728 0)
(2.52353 -1.83703 0)
(2.52491 -1.83685 0)
(2.52632 -1.83668 0)
(2.52753 -1.83572 0)
(2.52822 -1.83447 0)
(2.52862 -1.83349 0)
(2.52959 -1.83297 0)
(2.53029 -1.83231 0)
(2.53033 -1.83153 0)
(2.53074 -1.83004 0)
(2.53113 -1.82925 0)
(2.53075 -1.82713 0)
(2.53021 -1.82584 0)
(2.53032 -1.82377 0)
(2.5306 -1.82183 0)
(2.52986 -1.82056 0)
(2.52877 -1.81872 0)
(2.52867 -1.8158 0)
(2.52791 -1.81324 0)
(2.52709 -1.81161 0)
(2.5259 -1.81004 0)
(2.52431 -1.80837 0)
(2.52352 -1.80572 0)
(2.50087 -1.74315 0)
(2.4381 -1.54605 0)
(2.32079 -1.17898 0)
(2.24945 -0.865206 0)
(2.1358 -0.510723 0)
(2.10772 -0.295356 0)
(1.95038 -0.0524446 0)
(1.88849 -0.0131483 0)
(1.8387 -0.012345 0)
(1.81135 -0.0175135 0)
(1.80637 -0.0346427 0)
(1.80202 -0.0465595 0)
(1.80274 -0.0422606 0)
(1.79806 -0.030317 0)
(1.78417 -0.0355487 0)
(1.76738 -0.0539442 0)
(1.75306 -0.0916323 0)
(1.74763 -0.142632 0)
(1.73969 -0.170107 0)
(1.73769 -0.18315 0)
(1.73302 -0.197476 0)
(1.72503 -0.218405 0)
(1.71359 -0.234961 0)
(1.69412 -0.243536 0)
(1.66148 -0.245453 0)
(1.62571 -0.240023 0)
(1.61209 -0.23516 0)
(1.60814 -0.211213 0)
(1.6321 -0.149898 0)
(1.65791 -0.0632733 0)
(1.65419 0.0117292 0)
(1.66456 0.085704 0)
(1.69443 0.130482 0)
(1.7352 0.161776 0)
(1.76775 0.16003 0)
(1.78435 0.133306 0)
(1.78979 0.101355 0)
(1.7937 0.0626423 0)
(1.812 0.0604219 0)
(1.84645 0.0726074 0)
(1.89663 0.0898727 0)
(2.01974 0.153051 0)
(2.11611 0.203577 0)
(2.09578 0.177663 0)
(2.07075 0.147176 0)
(2.05452 0.13727 0)
(2.03992 0.105465 0)
(2.00632 0.0175633 0)
(1.94773 -0.0915491 0)
(1.92882 -0.128917 0)
(2.00541 -0.114088 0)
(2.14351 -0.109754 0)
(2.34963 -0.0798829 0)
(2.66921 0.0184405 0)
(3.09995 0.192446 0)
(3.32898 0.279684 0)
(3.32842 0.215054 0)
(3.30064 0.137028 0)
(2.51282 -1.84174 0)
(2.51396 -1.84107 0)
(2.51473 -1.84109 0)
(2.51548 -1.84138 0)
(2.51647 -1.84147 0)
(2.51677 -1.8421 0)
(2.51677 -1.84316 0)
(2.51733 -1.84392 0)
(2.51816 -1.84433 0)
(2.51888 -1.84481 0)
(2.51968 -1.8456 0)
(2.52098 -1.84575 0)
(2.52237 -1.84475 0)
(2.52369 -1.84402 0)
(2.52481 -1.84354 0)
(2.52547 -1.84252 0)
(2.52569 -1.84134 0)
(2.52582 -1.84023 0)
(2.52595 -1.83979 0)
(2.5265 -1.83991 0)
(2.52752 -1.83962 0)
(2.52862 -1.83917 0)
(2.52967 -1.83874 0)
(2.5305 -1.83806 0)
(2.53076 -1.83665 0)
(2.53166 -1.83562 0)
(2.53228 -1.83431 0)
(2.53194 -1.83276 0)
(2.53211 -1.8308 0)
(2.53257 -1.82971 0)
(2.53164 -1.82768 0)
(2.53121 -1.82592 0)
(2.53158 -1.82416 0)
(2.53099 -1.82223 0)
(2.53002 -1.82071 0)
(2.52965 -1.81866 0)
(2.52922 -1.81574 0)
(2.52836 -1.81311 0)
(2.52718 -1.81097 0)
(2.52603 -1.80928 0)
(2.52475 -1.80773 0)
(2.52392 -1.80579 0)
(2.52318 -1.80425 0)
(2.52202 -1.80276 0)
(2.5206 -1.80103 0)
(2.52026 -1.80043 0)
(2.4958 -1.74702 0)
(2.4168 -1.51269 0)
(2.25481 -1.02769 0)
(2.19312 -0.662286 0)
(1.95785 -0.261264 0)
(1.86002 -0.10669 0)
(1.83395 -0.0598232 0)
(1.82391 -0.0531141 0)
(1.81421 -0.0374549 0)
(1.80664 -0.0186386 0)
(1.78931 -0.0251116 0)
(1.76739 -0.0448009 0)
(1.75411 -0.087528 0)
(1.74419 -0.140607 0)
(1.73181 -0.168603 0)
(1.7262 -0.181325 0)
(1.71934 -0.194325 0)
(1.70955 -0.21407 0)
(1.69643 -0.23397 0)
(1.67402 -0.241704 0)
(1.63523 -0.237227 0)
(1.59506 -0.220479 0)
(1.57553 -0.204782 0)
(1.56094 -0.174155 0)
(1.57278 -0.115394 0)
(1.58284 -0.0587833 0)
(1.57199 -0.00674689 0)
(1.55358 0.0772781 0)
(1.55904 0.126274 0)
(1.58088 0.14989 0)
(1.61649 0.15337 0)
(1.64506 0.13175 0)
(1.65642 0.096892 0)
(1.65778 0.0602469 0)
(1.65018 0.0467995 0)
(1.64336 0.0632659 0)
(1.65788 0.0862131 0)
(1.71022 0.153 0)
(1.79143 0.210679 0)
(1.84768 0.195497 0)
(1.89585 0.158243 0)
(1.9396 0.132217 0)
(1.95737 0.0989557 0)
(1.94584 0.0188206 0)
(1.88511 -0.0802419 0)
(1.83106 -0.138096 0)
(1.8431 -0.136328 0)
(1.94019 -0.135735 0)
(2.09349 -0.1273 0)
(2.37655 -0.0564049 0)
(2.84384 0.12071 0)
(3.21252 0.231438 0)
(3.30088 0.207936 0)
(3.30196 0.140045 0)
(2.52149 -1.84998 0)
(2.5224 -1.84893 0)
(2.52275 -1.84806 0)
(2.5226 -1.8466 0)
(2.52285 -1.84492 0)
(2.52322 -1.84448 0)
(2.52357 -1.84564 0)
(2.52452 -1.84695 0)
(2.52552 -1.84827 0)
(2.52568 -1.84976 0)
(2.52595 -1.85071 0)
(2.52655 -1.85031 0)
(2.52705 -1.84871 0)
(2.52776 -1.84771 0)
(2.52854 -1.84704 0)
(2.5294 -1.84647 0)
(2.52999 -1.84496 0)
(2.53025 -1.84315 0)
(2.5305 -1.84256 0)
(2.53081 -1.84252 0)
(2.53127 -1.84207 0)
(2.53193 -1.84134 0)
(2.5321 -1.84105 0)
(2.53271 -1.84024 0)
(2.53291 -1.83873 0)
(2.53284 -1.83682 0)
(2.53371 -1.83537 0)
(2.53347 -1.83299 0)
(2.53355 -1.83106 0)
(2.53366 -1.82989 0)
(2.53292 -1.82793 0)
(2.53246 -1.8259 0)
(2.53178 -1.82387 0)
(2.53094 -1.82252 0)
(2.53008 -1.82017 0)
(2.53048 -1.81785 0)
(2.52989 -1.8152 0)
(2.52887 -1.81314 0)
(2.52741 -1.81087 0)
(2.52631 -1.80879 0)
(2.52512 -1.80705 0)
(2.52385 -1.80547 0)
(2.52293 -1.80399 0)
(2.52174 -1.80232 0)
(2.52049 -1.80023 0)
(2.52011 -1.79953 0)
(2.51886 -1.79822 0)
(2.51783 -1.79704 0)
(2.51746 -1.79512 0)
(2.50743 -1.77465 0)
(2.34449 -1.44199 0)
(2.11919 -0.844036 0)
(2.03769 -0.429043 0)
(1.84541 -0.104129 0)
(1.8027 -0.00428624 0)
(1.80203 -0.000920836 0)
(1.78517 -0.0129234 0)
(1.77508 -0.0383653 0)
(1.75795 -0.0867524 0)
(1.74343 -0.139966 0)
(1.72525 -0.167753 0)
(1.7156 -0.183897 0)
(1.70815 -0.197745 0)
(1.69814 -0.212285 0)
(1.6832 -0.227693 0)
(1.65946 -0.234124 0)
(1.62174 -0.225729 0)
(1.59242 -0.201259 0)
(1.58102 -0.174976 0)
(1.57389 -0.140187 0)
(1.58269 -0.0918679 0)
(1.56971 -0.0574518 0)
(1.54712 -0.0208607 0)
(1.51528 0.0572051 0)
(1.50479 0.119092 0)
(1.51813 0.141623 0)
(1.54993 0.146452 0)
(1.57733 0.126284 0)
(1.58663 0.0902858 0)
(1.58052 0.0580859 0)
(1.55784 0.0475854 0)
(1.5291 0.0591512 0)
(1.52501 0.0834239 0)
(1.55334 0.147292 0)
(1.63405 0.193979 0)
(1.73817 0.173548 0)
(1.83505 0.148034 0)
(1.89479 0.12895 0)
(1.91526 0.0962125 0)
(1.90323 0.0216279 0)
(1.83974 -0.069875 0)
(1.76897 -0.138242 0)
(1.73877 -0.160246 0)
(1.77344 -0.162897 0)
(1.88305 -0.164013 0)
(2.09778 -0.117309 0)
(2.53038 0.0382232 0)
(3.01109 0.179404 0)
(3.22603 0.206963 0)
(3.28931 0.155458 0)
(2.52861 -1.85647 0)
(2.52879 -1.85606 0)
(2.52887 -1.8551 0)
(2.52898 -1.85344 0)
(2.52926 -1.85191 0)
(2.52935 -1.85103 0)
(2.52951 -1.85103 0)
(2.53028 -1.85095 0)
(2.53117 -1.85083 0)
(2.53106 -1.85142 0)
(2.53092 -1.85264 0)
(2.53127 -1.85287 0)
(2.53149 -1.85141 0)
(2.53208 -1.8509 0)
(2.53287 -1.85083 0)
(2.53384 -1.84992 0)
(2.53492 -1.84852 0)
(2.53583 -1.84785 0)
(2.5363 -1.84776 0)
(2.53677 -1.84756 0)
(2.53758 -1.84668 0)
(2.53713 -1.84441 0)
(2.5357 -1.84283 0)
(2.53543 -1.84155 0)
(2.53564 -1.83976 0)
(2.53493 -1.838 0)
(2.53489 -1.83564 0)
(2.53548 -1.83406 0)
(2.5348 -1.83158 0)
(2.53449 -1.8297 0)
(2.53411 -1.82838 0)
(2.53282 -1.82552 0)
(2.53186 -1.82405 0)
(2.5306 -1.82231 0)
(2.53028 -1.81936 0)
(2.53082 -1.81765 0)
(2.5302 -1.81483 0)
(2.52919 -1.81295 0)
(2.52769 -1.81089 0)
(2.52692 -1.8084 0)
(2.52548 -1.80629 0)
(2.52396 -1.80473 0)
(2.52284 -1.80334 0)
(2.52168 -1.80183 0)
(2.52025 -1.80006 0)
(2.51959 -1.79926 0)
(2.51909 -1.79839 0)
(2.51756 -1.79656 0)
(2.51675 -1.7946 0)
(2.51648 -1.79322 0)
(2.51551 -1.79157 0)
(2.51443 -1.79025 0)
(2.44385 -1.6484 0)
(2.21821 -1.13306 0)
(2.09606 -0.615971 0)
(1.895 -0.211297 0)
(1.84248 -0.0698506 0)
(1.80675 -0.0482579 0)
(1.75814 -0.0749346 0)
(1.74008 -0.113439 0)
(1.71792 -0.145725 0)
(1.70344 -0.173995 0)
(1.69552 -0.189419 0)
(1.68465 -0.204368 0)
(1.66745 -0.220904 0)
(1.64338 -0.230243 0)
(1.61834 -0.21794 0)
(1.60829 -0.186164 0)
(1.60745 -0.145295 0)
(1.6113 -0.102037 0)
(1.61364 -0.0760037 0)
(1.5901 -0.0543384 0)
(1.55687 -0.0296328 0)
(1.5061 0.0361545 0)
(1.48793 0.110054 0)
(1.49846 0.136821 0)
(1.52625 0.14486 0)
(1.55006 0.123673 0)
(1.55566 0.0867542 0)
(1.54215 0.0548934 0)
(1.51187 0.0438273 0)
(1.47741 0.0623329 0)
(1.47082 0.0917076 0)
(1.50077 0.146154 0)
(1.58655 0.170743 0)
(1.70782 0.145211 0)
(1.822 0.132403 0)
(1.87851 0.113781 0)
(1.89294 0.0852881 0)
(1.87228 0.0234414 0)
(1.80876 -0.0601476 0)
(1.73269 -0.134766 0)
(1.67264 -0.175558 0)
(1.65265 -0.180295 0)
(1.72963 -0.193291 0)
(1.87164 -0.160221 0)
(2.1971 -0.0459869 0)
(2.70543 0.0922148 0)
(3.04805 0.151141 0)
(3.22014 0.119033 0)
(2.53442 -1.85958 0)
(2.53475 -1.85909 0)
(2.53489 -1.85867 0)
(2.53505 -1.85781 0)
(2.53503 -1.85696 0)
(2.53491 -1.85629 0)
(2.53495 -1.85569 0)
(2.53501 -1.85515 0)
(2.53523 -1.85438 0)
(2.53583 -1.85336 0)
(2.53652 -1.85278 0)
(2.53675 -1.85278 0)
(2.53666 -1.85323 0)
(2.53693 -1.85384 0)
(2.53762 -1.85406 0)
(2.53846 -1.85304 0)
(2.53881 -1.85176 0)
(2.53915 -1.85058 0)
(2.53956 -1.85021 0)
(2.53979 -1.8493 0)
(2.53985 -1.84737 0)
(2.53937 -1.8458 0)
(2.53852 -1.84543 0)
(2.53829 -1.84359 0)
(2.53688 -1.83953 0)
(2.5362 -1.83802 0)
(2.536 -1.83527 0)
(2.53638 -1.83419 0)
(2.53568 -1.83207 0)
(2.53482 -1.82971 0)
(2.53425 -1.82824 0)
(2.53299 -1.82547 0)
(2.53196 -1.82379 0)
(2.53093 -1.822 0)
(2.53033 -1.81925 0)
(2.53084 -1.81704 0)
(2.5305 -1.81424 0)
(2.52953 -1.81238 0)
(2.52797 -1.81048 0)
(2.52714 -1.80796 0)
(2.52563 -1.80561 0)
(2.52411 -1.80407 0)
(2.52294 -1.8028 0)
(2.52172 -1.8014 0)
(2.52027 -1.79989 0)
(2.51933 -1.79909 0)
(2.51894 -1.79871 0)
(2.51783 -1.79669 0)
(2.51634 -1.79474 0)
(2.51553 -1.79227 0)
(2.51464 -1.79078 0)
(2.51388 -1.78835 0)
(2.51299 -1.78735 0)
(2.5129 -1.78588 0)
(2.4926 -1.74906 0)
(2.28272 -1.3009 0)
(2.1496 -0.727077 0)
(1.88523 -0.169784 0)
(1.78361 -0.0639612 0)
(1.71393 -0.0719693 0)
(1.69777 -0.12314 0)
(1.68341 -0.164257 0)
(1.6765 -0.18134 0)
(1.6641 -0.1959 0)
(1.64234 -0.214673 0)
(1.61936 -0.227329 0)
(1.61064 -0.211101 0)
(1.61964 -0.170198 0)
(1.6343 -0.120856 0)
(1.64397 -0.0634351 0)
(1.63984 -0.0457582 0)
(1.61221 -0.0479893 0)
(1.57458 -0.0349131 0)
(1.51614 0.0147695 0)
(1.48419 0.0956179 0)
(1.4943 0.133007 0)
(1.51721 0.141484 0)
(1.54046 0.120961 0)
(1.54322 0.0871452 0)
(1.52519 0.0585799 0)
(1.48886 0.0492906 0)
(1.45072 0.0715444 0)
(1.44508 0.10105 0)
(1.4815 0.133785 0)
(1.56983 0.14075 0)
(1.67829 0.125511 0)
(1.7934 0.115842 0)
(1.84735 0.102813 0)
(1.86994 0.0799009 0)
(1.85134 0.0270146 0)
(1.79102 -0.0495884 0)
(1.71099 -0.125052 0)
(1.63029 -0.185171 0)
(1.58365 -0.202491 0)
(1.62045 -0.211053 0)
(1.71727 -0.197697 0)
(1.92572 -0.0930537 0)
(2.32809 0.0112994 0)
(2.71128 0.107017 0)
(3.00407 0.124056 0)
(2.53832 -1.86282 0)
(2.53863 -1.86225 0)
(2.53872 -1.8618 0)
(2.53872 -1.86124 0)
(2.53871 -1.86044 0)
(2.5387 -1.85972 0)
(2.53884 -1.85893 0)
(2.53914 -1.85805 0)
(2.53955 -1.85729 0)
(2.53984 -1.85605 0)
(2.54035 -1.85482 0)
(2.5411 -1.85406 0)
(2.54153 -1.85382 0)
(2.54087 -1.85414 0)
(2.54057 -1.85482 0)
(2.54088 -1.85522 0)
(2.54083 -1.85376 0)
(2.54102 -1.85196 0)
(2.54142 -1.85132 0)
(2.54162 -1.85016 0)
(2.54173 -1.84785 0)
(2.54145 -1.84571 0)
(2.54006 -1.84507 0)
(2.53899 -1.84462 0)
(2.53885 -1.84191 0)
(2.53724 -1.83757 0)
(2.53686 -1.83562 0)
(2.53667 -1.83395 0)
(2.5355 -1.83168 0)
(2.53485 -1.82931 0)
(2.53454 -1.82787 0)
(2.53324 -1.825 0)
(2.53228 -1.82353 0)
(2.53163 -1.82157 0)
(2.53063 -1.81913 0)
(2.53031 -1.81589 0)
(2.53096 -1.81328 0)
(2.5298 -1.81122 0)
(2.52823 -1.80949 0)
(2.52703 -1.80712 0)
(2.52564 -1.80501 0)
(2.52421 -1.8035 0)
(2.52306 -1.80227 0)
(2.5219 -1.80107 0)
(2.52041 -1.79974 0)
(2.51924 -1.79895 0)
(2.51878 -1.79864 0)
(2.5178 -1.7972 0)
(2.5163 -1.79462 0)
(2.51504 -1.79224 0)
(2.51423 -1.78961 0)
(2.51415 -1.78758 0)
(2.51397 -1.78625 0)
(2.51413 -1.78507 0)
(2.51469 -1.78327 0)
(2.51571 -1.78154 0)
(2.51165 -1.78101 0)
(2.34288 -1.42301 0)
(2.11903 -0.786328 0)
(1.79713 -0.232746 0)
(1.6656 -0.174999 0)
(1.64798 -0.183221 0)
(1.64301 -0.182975 0)
(1.6293 -0.191302 0)
(1.60956 -0.210477 0)
(1.59367 -0.218866 0)
(1.60019 -0.202011 0)
(1.61897 -0.154247 0)
(1.64726 -0.0954069 0)
(1.67138 -0.0452926 0)
(1.67355 -0.0274384 0)
(1.64206 -0.0355244 0)
(1.59488 -0.0341264 0)
(1.54124 -0.000830394 0)
(1.49183 0.0720017 0)
(1.49745 0.124361 0)
(1.51506 0.134162 0)
(1.53785 0.119136 0)
(1.53996 0.0898991 0)
(1.52098 0.0667596 0)
(1.4809 0.0588966 0)
(1.44807 0.0772731 0)
(1.44486 0.0997036 0)
(1.48309 0.120452 0)
(1.5628 0.117006 0)
(1.66485 0.107502 0)
(1.77764 0.0985499 0)
(1.82462 0.0862877 0)
(1.85503 0.0698301 0)
(1.8401 0.0303122 0)
(1.7842 -0.0389144 0)
(1.70583 -0.112802 0)
(1.62276 -0.18747 0)
(1.55172 -0.230482 0)
(1.55652 -0.233439 0)
(1.62342 -0.220047 0)
(1.75681 -0.139921 0)
(2.01133 -0.0276745 0)
(2.30249 0.0549775 0)
(2.61605 0.0904379 0)
(2.54116 -1.8627 0)
(2.5415 -1.86193 0)
(2.54182 -1.86165 0)
(2.54171 -1.86139 0)
(2.54153 -1.86112 0)
(2.54157 -1.86091 0)
(2.54172 -1.86046 0)
(2.54176 -1.85972 0)
(2.54178 -1.85903 0)
(2.54188 -1.85802 0)
(2.54172 -1.8571 0)
(2.54175 -1.85609 0)
(2.54227 -1.85525 0)
(2.54253 -1.85497 0)
(2.54249 -1.85498 0)
(2.54267 -1.85462 0)
(2.54202 -1.85321 0)
(2.54146 -1.85182 0)
(2.54124 -1.85107 0)
(2.54114 -1.85012 0)
(2.54126 -1.84812 0)
(2.54145 -1.84587 0)
(2.54086 -1.84454 0)
(2.53975 -1.84425 0)
(2.53917 -1.84244 0)
(2.53776 -1.83772 0)
(2.53718 -1.8356 0)
(2.53676 -1.83367 0)
(2.53534 -1.83077 0)
(2.53441 -1.82898 0)
(2.5346 -1.82662 0)
(2.53405 -1.82404 0)
(2.53299 -1.82234 0)
(2.53298 -1.81983 0)
(2.53156 -1.81751 0)
(2.53054 -1.81471 0)
(2.53091 -1.81304 0)
(2.52987 -1.81046 0)
(2.52879 -1.80881 0)
(2.52738 -1.80664 0)
(2.52594 -1.80462 0)
(2.52452 -1.80308 0)
(2.5232 -1.80181 0)
(2.52205 -1.80058 0)
(2.52081 -1.79951 0)
(2.5194 -1.79855 0)
(2.5188 -1.79814 0)
(2.5177 -1.79682 0)
(2.51659 -1.79469 0)
(2.51538 -1.79207 0)
(2.51481 -1.78967 0)
(2.51531 -1.78759 0)
(2.51573 -1.78627 0)
(2.51589 -1.78569 0)
(2.51666 -1.78376 0)
(2.51787 -1.78148 0)
(2.51788 -1.78209 0)
(2.51928 -1.77946 0)
(2.51556 -1.78101 0)
(2.30416 -1.42336 0)
(1.90573 -0.651366 0)
(1.64801 -0.247052 0)
(1.5803 -0.186705 0)
(1.58234 -0.186751 0)
(1.58011 -0.207665 0)
(1.58049 -0.209619 0)
(1.59405 -0.193846 0)
(1.61553 -0.151934 0)
(1.65069 -0.0885433 0)
(1.6822 -0.042384 0)
(1.6883 -0.0202933 0)
(1.66905 -0.0213438 0)
(1.62466 -0.0257606 0)
(1.57422 -0.0111075 0)
(1.51747 0.0444839 0)
(1.50568 0.104561 0)
(1.5221 0.121086 0)
(1.54073 0.114293 0)
(1.54555 0.0917605 0)
(1.53028 0.0729145 0)
(1.49613 0.0656849 0)
(1.47694 0.0827248 0)
(1.47494 0.100541 0)
(1.50685 0.107786 0)
(1.57566 0.101825 0)
(1.67002 0.091456 0)
(1.77247 0.0788835 0)
(1.81357 0.0708427 0)
(1.84673 0.0598827 0)
(1.83544 0.0329142 0)
(1.79287 -0.0333543 0)
(1.73242 -0.109537 0)
(1.65921 -0.180343 0)
(1.57147 -0.243541 0)
(1.53479 -0.256351 0)
(1.56304 -0.246752 0)
(1.65317 -0.163609 0)
(1.82605 -0.0644561 0)
(2.00467 0.0170164 0)
(2.24882 0.0782763 0)
(2.54357 -1.86241 0)
(2.54329 -1.86183 0)
(2.54339 -1.86078 0)
(2.54354 -1.86043 0)
(2.54391 -1.86 0)
(2.54404 -1.85992 0)
(2.54413 -1.85995 0)
(2.54387 -1.85931 0)
(2.5435 -1.85827 0)
(2.5432 -1.85751 0)
(2.54291 -1.85715 0)
(2.54287 -1.85664 0)
(2.54266 -1.85571 0)
(2.54277 -1.85493 0)
(2.54284 -1.85469 0)
(2.5428 -1.85418 0)
(2.54254 -1.85228 0)
(2.54264 -1.85018 0)
(2.54224 -1.84881 0)
(2.54143 -1.84848 0)
(2.54105 -1.84786 0)
(2.5409 -1.84613 0)
(2.54074 -1.84405 0)
(2.54017 -1.84241 0)
(2.53949 -1.84073 0)
(2.5391 -1.83812 0)
(2.5375 -1.83544 0)
(2.53673 -1.83352 0)
(2.53557 -1.83084 0)
(2.53446 -1.82865 0)
(2.53511 -1.82608 0)
(2.5342 -1.8232 0)
(2.53356 -1.82032 0)
(2.53359 -1.81853 0)
(2.5323 -1.8164 0)
(2.53177 -1.81427 0)
(2.53133 -1.81274 0)
(2.52994 -1.81027 0)
(2.52898 -1.80843 0)
(2.52803 -1.80652 0)
(2.52667 -1.80465 0)
(2.52523 -1.803 0)
(2.52398 -1.80142 0)
(2.52269 -1.80013 0)
(2.52176 -1.79934 0)
(2.52053 -1.79819 0)
(2.51936 -1.79633 0)
(2.51863 -1.79557 0)
(2.51794 -1.79412 0)
(2.5166 -1.79161 0)
(2.51622 -1.78945 0)
(2.51683 -1.78729 0)
(2.51739 -1.78586 0)
(2.51852 -1.78407 0)
(2.51852 -1.78353 0)
(2.51802 -1.78338 0)
(2.51821 -1.78347 0)
(2.51904 -1.78014 0)
(2.51882 -1.77512 0)
(2.51892 -1.77227 0)
(2.49049 -1.7597 0)
(2.13588 -1.18083 0)
(1.70757 -0.443611 0)
(1.55108 -0.236449 0)
(1.56899 -0.197263 0)
(1.58265 -0.193159 0)
(1.59411 -0.180491 0)
(1.61152 -0.152767 0)
(1.64118 -0.0998227 0)
(1.68063 -0.050373 0)
(1.69516 -0.0189564 0)
(1.68724 -0.0085796 0)
(1.65983 -0.01132 0)
(1.61409 -0.00969991 0)
(1.56319 0.0213533 0)
(1.53034 0.0776856 0)
(1.53845 0.106211 0)
(1.55274 0.107766 0)
(1.56091 0.0926812 0)
(1.55207 0.0764453 0)
(1.53207 0.0730665 0)
(1.52113 0.0837269 0)
(1.52081 0.0966455 0)
(1.54505 0.0967994 0)
(1.59917 0.0873692 0)
(1.68043 0.0751669 0)
(1.7661 0.0567007 0)
(1.80282 0.0521145 0)
(1.83833 0.0482068 0)
(1.83789 0.0296971 0)
(1.82226 -0.0306716 0)
(1.78768 -0.105413 0)
(1.72526 -0.177446 0)
(1.63648 -0.238274 0)
(1.57312 -0.249267 0)
(1.56425 -0.240916 0)
(1.59846 -0.184482 0)
(1.72479 -0.0875436 0)
(1.87037 -0.0103942 0)
(2.07505 0.051595 0)
(2.549 -1.85912 0)
(2.54844 -1.85936 0)
(2.54817 -1.85942 0)
(2.54792 -1.85942 0)
(2.5477 -1.85938 0)
(2.54736 -1.85939 0)
(2.547 -1.85913 0)
(2.54659 -1.85818 0)
(2.54624 -1.85718 0)
(2.54556 -1.85638 0)
(2.54456 -1.85631 0)
(2.54418 -1.85611 0)
(2.54354 -1.85473 0)
(2.54306 -1.85403 0)
(2.54301 -1.85317 0)
(2.54312 -1.85245 0)
(2.54252 -1.85067 0)
(2.54256 -1.84877 0)
(2.54262 -1.84716 0)
(2.54188 -1.84648 0)
(2.54135 -1.84688 0)
(2.54114 -1.84545 0)
(2.54041 -1.84255 0)
(2.54063 -1.83996 0)
(2.54055 -1.83827 0)
(2.54007 -1.83697 0)
(2.53975 -1.8339 0)
(2.5374 -1.8306 0)
(2.5364 -1.82918 0)
(2.53589 -1.82675 0)
(2.53593 -1.8251 0)
(2.53478 -1.82246 0)
(2.53466 -1.81954 0)
(2.53444 -1.81825 0)
(2.53356 -1.81624 0)
(2.53259 -1.81417 0)
(2.53196 -1.81241 0)
(2.53058 -1.81006 0)
(2.52946 -1.80829 0)
(2.5287 -1.80646 0)
(2.52779 -1.8049 0)
(2.52655 -1.80333 0)
(2.52501 -1.80155 0)
(2.52369 -1.8001 0)
(2.52257 -1.79907 0)
(2.52129 -1.79795 0)
(2.52029 -1.79589 0)
(2.52002 -1.79491 0)
(2.51939 -1.79387 0)
(2.51892 -1.79184 0)
(2.51926 -1.78918 0)
(2.51995 -1.78729 0)
(2.52071 -1.78546 0)
(2.52072 -1.78432 0)
(2.52076 -1.78228 0)
(2.51968 -1.78272 0)
(2.51971 -1.78198 0)
(2.51977 -1.77776 0)
(2.52042 -1.77265 0)
(2.5205 -1.77168 0)
(2.52128 -1.7676 0)
(2.52105 -1.76879 0)
(2.32914 -1.55646 0)
(1.81874 -0.660506 0)
(1.59367 -0.265547 0)
(1.58725 -0.172417 0)
(1.59981 -0.160073 0)
(1.60858 -0.153474 0)
(1.62989 -0.122129 0)
(1.66767 -0.0704079 0)