/*--------------------------------*- C++ -*----------------------------------*\
  =========                 |
  \\      /  F ield         | OpenFOAM: The Open Source CFD Toolbox
   \\    /   O peration     | Website:  https://openfoam.org
    \\  /    A nd           | Version:  7
     \\/     M anipulation  |
\*---------------------------------------------------------------------------*/
FoamFile
{
    version     2.0;
    format      ascii;
    class       volScalarField;
    location    "3";
    object      rho;
}
// * * * * * * * * * * * * * * * * * * * * * * * * * * * * * * * * * * * * * //

dimensions      [1 -3 0 0 0 0 0];

internalField   nonuniform List<scalar> 
90000
(
0.893937
0.925507
0.960264
0.994718
1.02877
1.0612
1.09283
1.1219
1.15011
1.17502
1.19842
1.21887
1.23747
1.25325
1.2676
1.27923
1.2895
1.29783
1.30517
1.31075
1.31554
1.31827
1.31919
1.3177
1.31422
1.30781
1.3006
1.29391
1.28746
1.28731
1.28924
1.29245
1.29687
1.30132
1.30468
1.30653
1.30745
1.30698
1.30566
1.30284
1.30057
1.29847
1.29858
1.29993
1.30252
1.30479
1.30638
1.30618
1.30525
1.30382
1.3034
1.3045
1.30768
1.313
1.32094
1.32947
1.33843
1.34662
1.35196
1.35688
1.36206
1.36921
1.37889
1.39063
1.40193
1.40921
1.4132
1.41644
1.42027
1.4239
1.42737
1.43157
1.43419
1.43554
1.43775
1.4419
1.44544
1.44732
1.44915
1.45182
1.45367
1.45514
1.45677
1.45838
1.45989
1.46153
1.46335
1.46503
1.46663
1.46758
1.46774
1.46898
1.46984
1.4698
1.46961
1.46822
1.46526
1.46066
1.45617
1.4484
0.868953
0.869341
0.870467
0.872723
0.876734
0.882857
0.891678
0.903603
0.918561
0.937539
0.958974
0.984523
1.01163
1.04136
1.07176
1.10217
1.13194
1.1593
1.18384
1.20463
1.22336
1.23708
1.25027
1.25914
1.26694
1.27079
1.27546
1.28039
1.28832
1.29551
1.299
1.30204
1.30493
1.307
1.3084
1.308
1.30696
1.30433
1.30174
1.29933
1.29954
1.29999
1.30145
1.30352
1.3063
1.30789
1.30732
1.30557
1.30311
1.30271
1.30414
1.30625
1.31018
1.31542
1.32163
1.32809
1.33637
1.3458
1.35331
1.35844
1.36293
1.36931
1.37952
1.39259
1.40366
1.41028
1.41397
1.41733
1.42109
1.42449
1.42793
1.4321
1.43449
1.43607
1.43867
1.44313
1.4471
1.44933
1.45151
1.45395
1.45561
1.45703
1.45871
1.46038
1.46198
1.46368
1.4654
1.46701
1.46856
1.46957
1.46979
1.471
1.47171
1.47173
1.47149
1.46996
1.46692
1.46205
1.45738
1.44907
0.869329
0.869352
0.869378
0.86941
0.869456
0.869536
0.86968
0.870005
0.870601
0.871646
0.873301
0.876032
0.880128
0.886408
0.89513
0.907535
0.923352
0.944215
0.9686
0.997865
1.02976
1.0648
1.10094
1.13749
1.17359
1.2071
1.23754
1.26018
1.27872
1.28917
1.29697
1.3004
1.30193
1.30291
1.3042
1.30328
1.30075
1.29724
1.29833
1.30147
1.30435
1.30855
1.31182
1.31274
1.31199
1.30941
1.30579
1.30338
1.30345
1.30445
1.30725
1.31178
1.31452
1.31726
1.32099
1.32712
1.33671
1.34715
1.35523
1.35989
1.36368
1.37051
1.38226
1.39576
1.40662
1.41207
1.41557
1.41904
1.42272
1.42565
1.42913
1.43321
1.43533
1.43721
1.44031
1.44528
1.44958
1.45209
1.45443
1.45655
1.45798
1.4594
1.4611
1.46278
1.46442
1.46607
1.46764
1.46915
1.47064
1.47166
1.4719
1.47308
1.47365
1.47372
1.47347
1.47171
1.46864
1.46345
1.4586
1.45002
0.870134
0.870152
0.870173
0.870196
0.870224
0.870258
0.870308
0.87034
0.870382
0.870426
0.870477
0.87054
0.870632
0.870779
0.871029
0.871575
0.872491
0.874075
0.876644
0.880978
0.887558
0.897929
0.912252
0.933017
0.958937
0.99316
1.03209
1.07562
1.11967
1.15981
1.19791
1.22545
1.24967
1.26307
1.27536
1.2814
1.28762
1.29463
1.30391
1.3124
1.31747
1.3209
1.31967
1.3179
1.31243
1.30623
1.30431
1.30473
1.30693
1.31134
1.31534
1.3168
1.31733
1.31731
1.32029
1.32734
1.33916
1.35135
1.35828
1.36014
1.3638
1.37196
1.38618
1.39948
1.40919
1.41436
1.4181
1.42178
1.42507
1.42775
1.4316
1.43526
1.43706
1.43916
1.44261
1.44777
1.45222
1.45482
1.45712
1.45891
1.46018
1.46161
1.46329
1.46493
1.46655
1.46812
1.46955
1.47096
1.47239
1.4735
1.47383
1.47503
1.47549
1.47565
1.47528
1.47337
1.47015
1.46479
1.45974
1.45097
0.871105
0.871132
0.871161
0.871191
0.87122
0.871249
0.871277
0.871307
0.871322
0.871338
0.87136
0.871389
0.871428
0.871477
0.871555
0.871595
0.871632
0.871675
0.871733
0.871828
0.871994
0.872324
0.873025
0.874411
0.876881
0.881585
0.889313
0.902847
0.922362
0.951855
0.98828
1.0343
1.08362
1.13378
1.1812
1.2207
1.25578
1.28027
1.29532
1.30379
1.30814
1.31292
1.31328
1.31092
1.30565
1.30582
1.30789
1.31289
1.31662
1.31924
1.31837
1.31676
1.3148
1.31613
1.32006
1.32968
1.343
1.3542
1.3572
1.35884
1.36357
1.3745
1.38923
1.40155
1.41059
1.41633
1.42075
1.42442
1.42747
1.4302
1.43423
1.43745
1.43906
1.4412
1.44479
1.45003
1.45451
1.45706
1.45914
1.46064
1.46186
1.46334
1.46502
1.46664
1.46819
1.46962
1.47093
1.47228
1.4737
1.47488
1.47532
1.47652
1.47692
1.47716
1.47664
1.47464
1.47127
1.4658
1.46069
1.4519
0.871986
0.872005
0.872025
0.872047
0.87207
0.872093
0.872117
0.872141
0.872165
0.872188
0.87221
0.872232
0.872252
0.872271
0.872294
0.872299
0.872307
0.872322
0.872345
0.872379
0.872424
0.872535
0.872543
0.872557
0.872589
0.872666
0.872844
0.873264
0.874273
0.876633
0.881219
0.890592
0.905963
0.932206
0.967202
1.01497
1.06818
1.12398
1.17403
1.21662
1.24278
1.27
1.28044
1.29028
1.29859
1.30953
1.31927
1.32601
1.3256
1.32412
1.31968
1.31191
1.31254
1.31542
1.32261
1.33434
1.34512
1.35184
1.35354
1.35724
1.36458
1.37704
1.3896
1.40232
1.41145
1.41815
1.4231
1.42662
1.42955
1.43259
1.4365
1.439
1.44057
1.44279
1.44653
1.45179
1.45615
1.45856
1.46034
1.46171
1.46303
1.46459
1.46626
1.46787
1.46933
1.47063
1.47184
1.47318
1.47462
1.47584
1.47642
1.47759
1.47797
1.47831
1.47758
1.47552
1.47198
1.46647
1.46138
1.45267
0.872623
0.872635
0.872648
0.87266
0.872673
0.872685
0.872699
0.872712
0.872726
0.87274
0.872755
0.872769
0.872783
0.872796
0.87281
0.872823
0.872836
0.872847
0.872857
0.872864
0.872873
0.872878
0.872885
0.872897
0.872914
0.872939
0.872979
0.873088
0.873075
0.873085
0.873139
0.87333
0.873867
0.875412
0.878889
0.886977
0.901442
0.928073
0.965924
1.01861
1.0773
1.13935
1.19419
1.24328
1.27808
1.29952
1.30923
1.31638
1.31776
1.31446
1.30771
1.30968
1.31437
1.32144
1.32887
1.33713
1.34063
1.34372
1.34949
1.35701
1.36706
1.37813
1.38912
1.40018
1.41187
1.41994
1.4247
1.42797
1.43097
1.4344
1.43785
1.43978
1.4415
1.44391
1.44795
1.45308
1.45722
1.45947
1.46103
1.4624
1.46383
1.46541
1.46708
1.46866
1.47004
1.47124
1.47241
1.47378
1.47525
1.47646
1.47717
1.47828
1.47872
1.47913
1.47823
1.47613
1.47244
1.46691
1.46192
1.45333
0.872989
0.872995
0.873001
0.873007
0.873013
0.873019
0.873025
0.873032
0.873039
0.873045
0.873052
0.873059
0.873066
0.873073
0.873081
0.873088
0.873096
0.873104
0.873112
0.873119
0.873127
0.873133
0.87314
0.873146
0.873153
0.873158
0.873162
0.873166
0.873181
0.873201
0.873223
0.873281
0.873268
0.873271
0.873304
0.87344
0.87391
0.875369
0.879193
0.888028
0.906682
0.936693
0.986286
1.04546
1.11317
1.17619
1.22204
1.25958
1.27719
1.28923
1.29995
1.31458
1.32595
1.33095
1.33509
1.33291
1.33151
1.33768
1.34816
1.35941
1.36885
1.37511
1.38374
1.3992
1.41381
1.42209
1.42582
1.42879
1.43236
1.43611
1.43864
1.44022
1.44216
1.4449
1.44922
1.45407
1.45794
1.45996
1.46138
1.46283
1.46443
1.46608
1.4678
1.46936
1.47063
1.47173
1.47287
1.4743
1.47576
1.47691
1.47776
1.47875
1.47943
1.47974
1.47868
1.47654
1.47275
1.46714
1.46228
1.4538
0.873156
0.873158
0.873161
0.873164
0.873167
0.873171
0.873175
0.873179
0.873182
0.873185
0.873189
0.873193
0.873197
0.873201
0.873206
0.87321
0.873215
0.873219
0.873224
0.873229
0.873234
0.87324
0.873245
0.873251
0.873257
0.873261
0.873266
0.87327
0.873275
0.873279
0.873284
0.873286
0.873297
0.87331
0.873323
0.87335
0.873337
0.873339
0.873375
0.873554
0.874266
0.876325
0.882544
0.895498
0.924026
0.968188
1.03225
1.10433
1.1734
1.23576
1.27993
1.30308
1.31574
1.32134
1.32413
1.32075
1.32597
1.33864
1.35239
1.36139
1.36526
1.36825
1.37954
1.3996
1.41586
1.42358
1.42664
1.42976
1.43392
1.4372
1.43902
1.44065
1.44298
1.4462
1.45062
1.45511
1.45844
1.46028
1.46186
1.46345
1.46504
1.46671
1.46846
1.46994
1.47107
1.47209
1.47328
1.47484
1.47626
1.47734
1.47826
1.47918
1.48016
1.48023
1.47914
1.47688
1.47301
1.4673
1.46258
1.45418
0.87323
0.873231
0.873232
0.873233
0.873234
0.873236
0.873238
0.87324
0.873242
0.873244
0.873245
0.873248
0.87325
0.873253
0.873255
0.873259
0.873262
0.873265
0.873268
0.873272
0.873275
0.873279
0.873283
0.873287
0.87329
0.873294
0.873297
0.873301
0.873303
0.873305
0.873306
0.873305
0.873305
0.873305
0.873305
0.873305
0.87331
0.873316
0.873327
0.873319
0.873313
0.873327
0.873428
0.873834
0.875395
0.879891
0.892762
0.918414
0.966783
1.03321
1.1132
1.18261
1.2377
1.26889
1.29084
1.31016
1.32739
1.34926
1.36065
1.36242
1.35762
1.36189
1.37764
1.40137
1.41783
1.42218
1.42659
1.43107
1.43505
1.43784
1.43941
1.44157
1.444
1.44753
1.45174
1.45636
1.45901
1.46043
1.46205
1.46423
1.46618
1.46766
1.46912
1.47037
1.47132
1.47234
1.47368
1.47533
1.4767
1.47772
1.47866
1.47967
1.48081
1.48062
1.4796
1.47724
1.47326
1.46739
1.46286
1.45449
0.873297
0.873297
0.873297
0.873297
0.873297
0.873298
0.873299
0.8733
0.873301
0.873302
0.873303
0.873304
0.873305
0.873306
0.873307
0.873309
0.87331
0.873311
0.873312
0.873313
0.873314
0.873315
0.873316
0.873317
0.873318
0.873319
0.873319
0.873319
0.873318
0.873317
0.873316
0.873314
0.873311
0.873308
0.873305
0.873302
0.873299
0.873296
0.873292
0.87329
0.873288
0.873283
0.873277
0.873278
0.873292
0.873368
0.873732
0.875094
0.880046
0.892982
0.924286
0.977782
1.05476
1.1381
1.21502
1.28364
1.31553
1.33755
1.35183
1.35121
1.35037
1.36048
1.38166
1.40458
1.41389
1.42046
1.42728
1.43268
1.43467
1.43643
1.43857
1.44169
1.44423
1.44843
1.45264
1.45662
1.45895
1.46066
1.46265
1.46465
1.46636
1.46804
1.46949
1.47058
1.47146
1.47261
1.47415
1.47584
1.47711
1.47806
1.47897
1.48025
1.48136
1.481
1.48004
1.4776
1.47352
1.46753
1.46312
1.45468
0.873364
0.873364
0.873364
0.873365
0.873365
0.873366
0.873367
0.873367
0.873368
0.873369
0.873369
0.87337
0.873371
0.873371
0.873371
0.873371
0.873371
0.87337
0.873369
0.873368
0.873366
0.873364
0.873362
0.87336
0.873358
0.873355
0.873352
0.873348
0.873343
0.873338
0.873333
0.873327
0.873321
0.873314
0.873308
0.873301
0.873293
0.873286
0.873278
0.873271
0.873265
0.873255
0.873246
0.87324
0.873236
0.873234
0.873237
0.873254
0.873342
0.873749
0.875476
0.881833
0.899255
0.940085
1.00591
1.09983
1.18441
1.26196
1.29783
1.32828
1.34743
1.36917
1.39093
1.40158
1.40794
1.41995
1.43025
1.4335
1.43465
1.43603
1.43897
1.4421
1.44481
1.44881
1.45367
1.45745
1.45917
1.46116
1.4633
1.4651
1.46682
1.46856
1.46989
1.47082
1.47165
1.47292
1.47462
1.47629
1.4775
1.47845
1.47931
1.48093
1.48185
1.48142
1.48049
1.47796
1.47377
1.46771
1.46329
1.45473
0.873425
0.873426
0.873428
0.873429
0.87343
0.873431
0.873431
0.873431
0.873431
0.873432
0.873432
0.873432
0.873432
0.873431
0.87343
0.873429
0.873427
0.873425
0.873422
0.873419
0.873415
0.873411
0.873407
0.873402
0.873397
0.873391
0.873384
0.873377
0.873369
0.87336
0.873351
0.873341
0.873332
0.873321
0.87331
0.8733
0.873289
0.873282
0.873274
0.873266
0.873261
0.873258
0.873257
0.87326
0.873266
0.873276
0.873286
0.873304
0.873302
0.873304
0.873318
0.873434
0.874052
0.877062
0.887092
0.915738
0.977474
1.06741
1.17391
1.27546
1.33142
1.3586
1.38489
1.38757
1.40475
1.42585
1.43223
1.43274
1.43414
1.43669
1.44026
1.44199
1.44436
1.44926
1.45542
1.45822
1.45959
1.46187
1.46402
1.46559
1.46745
1.46919
1.47028
1.47099
1.4719
1.47336
1.47512
1.47669
1.47784
1.47882
1.47978
1.48162
1.48232
1.4819
1.48097
1.47833
1.47404
1.46787
1.46336
1.4547
0.873476
0.873477
0.873478
0.873478
0.873479
0.873478
0.873476
0.873475
0.873474
0.873472
0.87347
0.873469
0.873467
0.873464
0.873462
0.873459
0.873456
0.873451
0.873447
0.873442
0.873436
0.87343
0.873425
0.873419
0.873413
0.873405
0.873398
0.873391
0.873382
0.873375
0.873366
0.873356
0.873347
0.873336
0.873325
0.873315
0.873306
0.873299
0.873294
0.87329
0.873289
0.873291
0.873297
0.873308
0.873322
0.873336
0.873347
0.873357
0.87336
0.873359
0.873354
0.873333
0.873317
0.873344
0.873584
0.875008
0.88179
0.902506
0.962198
1.05706
1.17493
1.27253
1.33067
1.36691
1.41213
1.43539
1.43559
1.43346
1.43566
1.43915
1.4415
1.44218
1.44493
1.45128
1.45737
1.4589
1.46021
1.46285
1.46472
1.46625
1.46823
1.46983
1.4706
1.4712
1.47226
1.47389
1.47564
1.4771
1.47821
1.47924
1.48041
1.48226
1.48277
1.48242
1.48146
1.47871
1.47431
1.46806
1.4634
1.4546
0.873509
0.873508
0.873507
0.873505
0.873503
0.873501
0.873499
0.873496
0.873493
0.87349
0.873487
0.873484
0.87348
0.873477
0.873473
0.873468
0.873463
0.873458
0.873452
0.873446
0.873439
0.873433
0.873428
0.873424
0.873418
0.87341
0.873404
0.873395
0.873386
0.873379
0.873371
0.873361
0.873353
0.873344
0.873335
0.87333
0.873325
0.873325
0.873326
0.873332
0.87334
0.873352
0.873367
0.873382
0.873397
0.873408
0.873412
0.873414
0.873413
0.8734
0.873381
0.873358
0.873335
0.873305
0.873281
0.873285
0.873404
0.874245
0.879733
0.898673
0.961381
1.06427
1.19989
1.31796
1.40189
1.43004
1.42727
1.43534
1.44132
1.44268
1.44244
1.44305
1.44716
1.45511
1.45792
1.45921
1.46101
1.46403
1.46551
1.46717
1.46916
1.47045
1.47092
1.47156
1.4728
1.4744
1.47605
1.47742
1.47861
1.47975
1.48111
1.48279
1.48318
1.48293
1.48194
1.47909
1.47459
1.46829
1.46344
1.45453
0.87353
0.873527
0.873524
0.873521
0.873518
0.873515
0.873511
0.873507
0.873503
0.873499
0.873496
0.873492
0.873487
0.873482
0.873477
0.873472
0.873466
0.873459
0.873454
0.873446
0.87344
0.873432
0.873424
0.873417
0.873409
0.873401
0.873394
0.873386
0.873377
0.873369
0.873362
0.873353
0.873343
0.873337
0.873336
0.873337
0.873341
0.873349
0.87336
0.873374
0.873388
0.873404
0.873419
0.873432
0.873444
0.873446
0.873446
0.873448
0.873442
0.873425
0.873402
0.873376
0.873349
0.873317
0.87328
0.873262
0.873248
0.873253
0.87335
0.874097
0.87959
0.901733
0.970603
1.10112
1.26551
1.35617
1.4095
1.44329
1.44844
1.446
1.44314
1.44651
1.45362
1.45797
1.45876
1.45981
1.46277
1.46546
1.4666
1.46837
1.47001
1.47089
1.47127
1.47206
1.47339
1.47491
1.47645
1.47779
1.47911
1.48035
1.48179
1.48325
1.48358
1.48339
1.48237
1.47947
1.4749
1.46861
1.46356
1.45451
0.873544
0.873539
0.873536
0.873534
0.87353
0.873526
0.873521
0.873517
0.873512
0.873508
0.873502
0.873497
0.873492
0.873486
0.87348
0.873473
0.873466
0.87346
0.873451
0.873442
0.873434
0.873425
0.873416
0.873409
0.873401
0.873394
0.873388
0.87338
0.873372
0.873365
0.873358
0.87335
0.87335
0.873352
0.873356
0.873364
0.873375
0.873389
0.873402
0.873413
0.873425
0.873435
0.873444
0.873453
0.873457
0.873455
0.873455
0.873457
0.873448
0.873428
0.873404
0.873378
0.873348
0.87331
0.873276
0.873258
0.873248
0.873251
0.873259
0.87328
0.873405
0.874348
0.881094
0.914218
1.01175
1.18633
1.35129
1.4384
1.44324
1.43851
1.44516
1.45545
1.45929
1.45781
1.45855
1.46105
1.46542
1.46636
1.46746
1.46932
1.47053
1.47098
1.47171
1.47283
1.47404
1.47535
1.47681
1.47821
1.47966
1.48096
1.48232
1.48357
1.48393
1.48379
1.48277
1.47988
1.47528
1.46902
1.46379
1.45456
0.873543
0.873539
0.873534
0.87353
0.873524
0.873518
0.873514
0.873507
0.8735
0.873494
0.873487
0.873481
0.873475
0.873468
0.873462
0.873456
0.873449
0.873445
0.87344
0.873435
0.873429
0.873422
0.873415
0.873409
0.873402
0.873397
0.873393
0.87339
0.873387
0.873388
0.87339
0.873394
0.873401
0.873409
0.873418
0.873428
0.873437
0.873443
0.873446
0.87345
0.873452
0.873453
0.873456
0.873459
0.873458
0.873454
0.873453
0.873455
0.873441
0.873418
0.873393
0.873366
0.873335
0.873298
0.873276
0.873271
0.873271
0.873276
0.873288
0.873305
0.873329
0.87337
0.873571
0.87531
0.888665
0.954445
1.10941
1.30873
1.38795
1.42409
1.45477
1.46527
1.46287
1.45671
1.45938
1.46471
1.46771
1.46745
1.46848
1.47025
1.47102
1.47129
1.47244
1.47366
1.47484
1.47607
1.4774
1.47877
1.48025
1.48152
1.48277
1.4839
1.48432
1.4842
1.48315
1.48032
1.47577
1.46957
1.46417
1.45473
0.873513
0.873509
0.873506
0.873502
0.873496
0.873491
0.873486
0.873481
0.873477
0.873473
0.873469
0.873464
0.87346
0.873455
0.873451
0.873448
0.873443
0.873439
0.873437
0.873434
0.873432
0.87343
0.87343
0.873431
0.873433
0.873437
0.873441
0.873448
0.873454
0.873462
0.873472
0.873479
0.873487
0.873494
0.873496
0.873496
0.873494
0.873488
0.87348
0.873471
0.873464
0.87346
0.873458
0.873455
0.873449
0.873444
0.87344
0.873427
0.873404
0.87338
0.873358
0.873338
0.87331
0.873303
0.873304
0.873305
0.873307
0.873307
0.873308
0.873314
0.87333
0.873358
0.873409
0.873512
0.874096
0.879874
0.917552
1.04866
1.25411
1.39178
1.4492
1.46125
1.45351
1.45695
1.46535
1.46861
1.46663
1.46732
1.47012
1.47116
1.47075
1.47164
1.47332
1.47432
1.47483
1.47606
1.47768
1.47924
1.48073
1.48194
1.48316
1.48432
1.4848
1.48466
1.48358
1.48088
1.4764
1.47021
1.46469
1.45505
0.873488
0.873485
0.873484
0.873482
0.873479
0.873476
0.873473
0.873469
0.873466
0.873464
0.873461
0.87346
0.873459
0.873459
0.87346
0.873461
0.873464
0.873468
0.873472
0.873476
0.873481
0.873487
0.873493
0.873502
0.873509
0.873515
0.873524
0.873533
0.87354
0.873551
0.873555
0.873554
0.873552
0.873549
0.873543
0.873534
0.873521
0.873507
0.873493
0.873477
0.873464
0.873455
0.873445
0.873431
0.873419
0.873407
0.873392
0.873375
0.873357
0.873344
0.87333
0.87332
0.873327
0.87334
0.873347
0.873346
0.87334
0.873326
0.873315
0.87331
0.873314
0.873333
0.873374
0.873453
0.873628
0.874104
0.877038
0.900308
1.0022
1.19093
1.34651
1.42102
1.44168
1.46196
1.47434
1.47179
1.465
1.4686
1.47237
1.47201
1.47119
1.47248
1.47431
1.47496
1.47508
1.47633
1.47811
1.47977
1.48122
1.48234
1.48358
1.4849
1.48541
1.48521
1.48412
1.48157
1.47719
1.47093
1.46531
1.45548
0.873476
0.873476
0.873476
0.873477
0.873479
0.87348
0.873482
0.873485
0.873488
0.873492
0.873496
0.873501
0.873506
0.873512
0.873517
0.873522
0.873529
0.873536
0.873542
0.87355
0.873556
0.873562
0.873569
0.873575
0.87358
0.873584
0.873588
0.873591
0.873592
0.873592
0.873589
0.873582
0.873573
0.873563
0.87355
0.873535
0.873519
0.873502
0.873484
0.873465
0.873447
0.873427
0.873404
0.873389
0.873378
0.873364
0.87335
0.873341
0.873332
0.873328
0.873336
0.873349
0.873364
0.873377
0.873377
0.873369
0.873353
0.873328
0.873302
0.873285
0.873276
0.873281
0.873322
0.873406
0.873601
0.873937
0.874815
0.877938
0.894126
0.965994
1.12084
1.30151
1.40896
1.45408
1.46725
1.4599
1.46504
1.47458
1.47419
1.47153
1.47205
1.47394
1.47499
1.47497
1.47538
1.477
1.47878
1.48032
1.48164
1.48274
1.48417
1.48567
1.48615
1.48588
1.48485
1.48238
1.47795
1.47157
1.46591
1.45599
0.873534
0.873536
0.873538
0.873543
0.873548
0.873551
0.873555
0.87356
0.873564
0.873568
0.873573
0.873576
0.873579
0.873583
0.873587
0.87359
0.873594
0.873598
0.8736
0.873604
0.873607
0.873609
0.87361
0.873611
0.873612
0.87361
0.873606
0.873605
0.873602
0.873594
0.873585
0.873575
0.873563
0.873549
0.873533
0.873517
0.8735
0.87348
0.873458
0.873437
0.873418
0.873396
0.873375
0.873361
0.873351
0.873341
0.873328
0.873328
0.873337
0.873353
0.873367
0.873377
0.873385
0.873389
0.873381
0.873365
0.873343
0.873312
0.873267
0.873239
0.873228
0.873232
0.873273
0.873379
0.87358
0.873922
0.874649
0.876387
0.882479
0.898317
0.949
1.06187
1.22075
1.35197
1.41516
1.44268
1.47139
1.48067
1.47659
1.47084
1.47409
1.47599
1.47536
1.47503
1.47587
1.47778
1.47947
1.48088
1.48206
1.48323
1.48496
1.48657
1.48689
1.4866
1.4857
1.48321
1.47857
1.4719
1.46624
1.45641
0.873613
0.873616
0.87362
0.87362
0.873619
0.87362
0.873622
0.873623
0.873624
0.873625
0.873625
0.873625
0.873624
0.873624
0.873624
0.873623
0.873622
0.873622
0.873621
0.87362
0.873618
0.873617
0.873615
0.873612
0.873609
0.873608
0.873605
0.873598
0.873588
0.873578
0.873566
0.873554
0.87354
0.873525
0.873508
0.873491
0.873473
0.873454
0.873436
0.87342
0.873403
0.873386
0.87337
0.873361
0.873355
0.873355
0.873358
0.873366
0.873373
0.873376
0.873375
0.873377
0.873384
0.873377
0.87336
0.87334
0.873316
0.873279
0.873225
0.873194
0.873188
0.873199
0.873247
0.873373
0.873581
0.873913
0.874528
0.875967
0.880099
0.892
0.914496
0.949322
1.02063
1.13684
1.28503
1.40092
1.4594
1.47404
1.46468
1.4716
1.47809
1.47682
1.47466
1.47507
1.47688
1.47865
1.48008
1.4815
1.48261
1.48405
1.48608
1.48758
1.48759
1.48746
1.48668
1.48387
1.47885
1.47221
1.46665
1.45675
0.873659
0.873657
0.873656
0.873655
0.873654
0.873652
0.87365
0.873648
0.873646
0.873643
0.873639
0.873635
0.873631
0.873628
0.873626
0.873623
0.87362
0.873617
0.873613
0.87361
0.873607
0.873606
0.873602
0.873595
0.873589
0.873582
0.873574
0.873563
0.873551
0.873538
0.873529
0.87352
0.873511
0.873501
0.87349
0.873476
0.873459
0.873444
0.873436
0.873434
0.873437
0.873438
0.873442
0.873445
0.873438
0.873428
0.873419
0.873406
0.873391
0.873371
0.873362
0.873363
0.87336
0.873339
0.873317
0.873298
0.873277
0.873242
0.873195
0.873174
0.873175
0.873195
0.873253
0.873379
0.87358
0.873882
0.874418
0.875547
0.878685
0.888015
0.90754
0.935714
0.959857
0.993672
1.07094
1.20662
1.34239
1.42029
1.4483
1.47952
1.48258
1.47813
1.47395
1.47632
1.47822
1.47917
1.48053
1.48215
1.48344
1.48529
1.48747
1.48859
1.48837
1.48847
1.48776
1.48461
1.47918
1.4724
1.46673
1.4568
0.873666
0.873661
0.873656
0.873652
0.873647
0.873642
0.873639
0.873635
0.873631
0.873626
0.87362
0.873614
0.873609
0.873603
0.8736
0.873596
0.873592
0.873586
0.873581
0.873575
0.873566
0.873559
0.873552
0.873544
0.873538
0.873531
0.873523
0.873518
0.873512
0.873507
0.873505
0.873502
0.873496
0.873491
0.873488
0.873484
0.873483
0.873487
0.873502
0.873516
0.873524
0.873532
0.873535
0.873528
0.87351
0.873484
0.873454
0.873419
0.873385
0.873357
0.873334
0.873316
0.873295
0.873275
0.873261
0.873254
0.873242
0.873222
0.873202
0.8732
0.873204
0.873225
0.873277
0.873388
0.873567
0.873842
0.874291
0.875141
0.877535
0.884256
0.900786
0.927853
0.955803
0.969725
0.98267
1.02467
1.12778
1.28378
1.40454
1.47099
1.47521
1.4696
1.47581
1.47919
1.47827
1.47899
1.48114
1.4831
1.4847
1.48705
1.48893
1.48926
1.4893
1.48946
1.48868
1.48524
1.47954
1.47272
1.46704
1.457
0.873635
0.873629
0.873623
0.873618
0.873611
0.873605
0.873597
0.873589
0.87358
0.87357
0.873561
0.873552
0.873544
0.873536
0.873529
0.873526
0.873522
0.873518
0.873513
0.873508
0.873503
0.873499
0.873496
0.873495
0.873494
0.873494
0.873494
0.873495
0.873498
0.873502
0.873507
0.873511
0.873521
0.87353
0.873541
0.873556
0.873559
0.873567
0.873586
0.873585
0.873585
0.873589
0.873582
0.873563
0.873533
0.873497
0.873451
0.873402
0.873352
0.873304
0.873257
0.873232
0.873215
0.873208
0.873213
0.873231
0.873253
0.873252
0.873247
0.873246
0.873251
0.873263
0.873295
0.873384
0.873538
0.873783
0.874176
0.874873
0.876579
0.881546
0.893893
0.918649
0.950887
0.970241
0.973835
0.977615
0.997873
1.07018
1.21378
1.36692
1.42645
1.45809
1.48355
1.48269
1.47759
1.48008
1.48263
1.4842
1.48596
1.48847
1.48989
1.48996
1.49031
1.49059
1.48968
1.48608
1.48037
1.47357
1.46774
1.45737
0.873551
0.873544
0.87354
0.873536
0.873533
0.873528
0.873523
0.873517
0.873509
0.873501
0.873494
0.87349
0.873487
0.873482
0.873482
0.873482
0.873477
0.873474
0.873472
0.873472
0.873473
0.873477
0.873483
0.873492
0.873503
0.873515
0.873527
0.873536
0.873545
0.873556
0.873567
0.873576
0.873587
0.873599
0.873611
0.873613
0.87361
0.873612
0.873612
0.873599
0.873593
0.873595
0.873584
0.873555
0.873521
0.873479
0.873413
0.873348
0.873304
0.873262
0.873221
0.873194
0.873186
0.873182
0.873193
0.873234
0.873285
0.87331
0.873307
0.873294
0.873282
0.87328
0.873294
0.87336
0.873494
0.873717
0.874088
0.874693
0.876001
0.879485
0.888513
0.909509
0.942435
0.967336
0.972085
0.97377
0.976056
0.986174
1.03455
1.15292
1.31831
1.42668
1.47587
1.47298
1.47657
1.48463
1.48478
1.48515
1.48711
1.48997
1.49066
1.49097
1.49171
1.49173
1.49056
1.48701
1.48154
1.47477
1.46873
1.45794
0.873516
0.873513
0.873508
0.873504
0.873504
0.873502
0.873498
0.873498
0.873496
0.873487
0.873485
0.873491
0.873493
0.873494
0.873505
0.873509
0.873517
0.873532
0.873544
0.873554
0.873564
0.873572
0.87358
0.873589
0.873598
0.873606
0.873614
0.873621
0.873622
0.87363
0.873641
0.873638
0.873632
0.873635
0.873636
0.87363
0.873622
0.873619
0.873609
0.873583
0.873576
0.873578
0.873559
0.873518
0.873478
0.873423
0.873343
0.873305
0.873288
0.873257
0.873223
0.873211
0.873207
0.873209
0.873225
0.873266
0.873317
0.873352
0.873346
0.873316
0.873284
0.873272
0.873279
0.873321
0.873432
0.873655
0.87403
0.874603
0.875685
0.878111
0.884664
0.901081
0.930667
0.959434
0.970037
0.973042
0.975373
0.977905
0.984049
1.01176
1.10658
1.25676
1.4019
1.44104
1.47449
1.4899
1.48733
1.48588
1.4886
1.49081
1.49111
1.4922
1.4933
1.49292
1.49133
1.48834
1.48318
1.47649
1.4702
1.45868
0.873566
0.873567
0.873571
0.87358
0.873595
0.873601
0.873601
0.873608
0.873625
0.873626
0.873629
0.873651
0.873658
0.873658
0.87367
0.873672
0.873676
0.873687
0.873685
0.873679
0.873682
0.873688
0.873688
0.873689
0.873687
0.873682
0.873678
0.873679
0.87367
0.873658
0.873661
0.873653
0.873637
0.873635
0.873624
0.873595
0.873563
0.873539
0.87351
0.873477
0.873471
0.873475
0.873452
0.873427
0.873406
0.873357
0.873305
0.873304
0.873317
0.873303
0.873281
0.873291
0.873304
0.873277
0.873256
0.873274
0.873321
0.873361
0.87336
0.873311
0.873266
0.873248
0.873247
0.873279
0.873383
0.873618
0.874053
0.874655
0.875569
0.8773
0.881882
0.893884
0.918328
0.948631
0.966481
0.972621
0.97569
0.978187
0.980791
0.984371
1.00013
1.06723
1.21132
1.36115
1.4662
1.48051
1.47944
1.4878
1.49058
1.49016
1.49167
1.49395
1.49472
1.49384
1.49228
1.49012
1.48519
1.47823
1.47149
1.45922
0.873718
0.873724
0.873733
0.873744
0.873748
0.873746
0.873748
0.873753
0.873751
0.873743
0.873743
0.873752
0.873753
0.873746
0.873747
0.873751
0.873744
0.87374
0.873739
0.873728
0.873722
0.873725
0.873725
0.873719
0.873709
0.873702
0.873697
0.873681
0.873666
0.873661
0.873625
0.873588
0.873578
0.873546
0.873516
0.873487
0.873455
0.87343
0.873407
0.873376
0.873374
0.873381
0.873376
0.873372
0.87336
0.873374
0.873391
0.873412
0.873447
0.873436
0.873394
0.873384
0.873383
0.873331
0.873262
0.873259
0.873281
0.873329
0.873334
0.873268
0.873202
0.873193
0.873208
0.873254
0.873414
0.873742
0.874226
0.874808
0.875575
0.876856
0.879945
0.88809
0.906508
0.936093
0.960878
0.972401
0.976684
0.978865
0.980669
0.982902
0.985431
0.995108
1.03751
1.16443
1.34341
1.41651
1.46391
1.49454
1.49265
1.48973
1.49391
1.49617
1.49586
1.49475
1.49396
1.49214
1.48666
1.4793
1.47219
1.45922
0.873812
0.873808
0.873805
0.873806
0.873806
0.8738
0.873786
0.873782
0.873771
0.873758
0.873756
0.873756
0.873744
0.873737
0.873736
0.873728
0.873728
0.873731
0.873723
0.873713
0.873707
0.873703
0.873707
0.873703
0.873688
0.873668
0.873628
0.873597
0.873573
0.873508
0.873449
0.873453
0.873443
0.873402
0.873401
0.873412
0.873401
0.873385
0.873385
0.873377
0.873363
0.873394
0.873413
0.873399
0.873431
0.873494
0.873531
0.87355
0.873567
0.873539
0.873467
0.873412
0.873388
0.873343
0.873246
0.873207
0.873195
0.873205
0.873244
0.873213
0.873183
0.873168
0.873211
0.873377
0.873653
0.874014
0.87443
0.874909
0.875562
0.876518
0.878554
0.883859
0.896752
0.921916
0.952237
0.971308
0.977032
0.97905
0.980307
0.982132
0.984726
0.987568
0.993092
1.02379
1.12288
1.28985
1.42725
1.47901
1.47986
1.49151
1.49853
1.49795
1.49643
1.49628
1.49609
1.4937
1.48728
1.47975
1.47221
1.45898
0.873791
0.873784
0.873775
0.873763
0.873751
0.873732
0.873709
0.873683
0.873657
0.873645
0.873634
0.873615
0.873596
0.873594
0.873594
0.873591
0.873594
0.873597
0.873592
0.873581
0.873582
0.873577
0.873562
0.873538
0.873514
0.873491
0.87345
0.873417
0.873401
0.873372
0.873341
0.873342
0.873362
0.873363
0.873363
0.873375
0.873386
0.873412
0.873461
0.873476
0.8735
0.873586
0.873622
0.873601
0.8736
0.873596
0.873582
0.873588
0.873583
0.873518
0.873461
0.873398
0.87329
0.873209
0.873146
0.873097
0.8731
0.873121
0.873187
0.873179
0.873195
0.873275
0.873426
0.873646
0.873899
0.874198
0.87453
0.874931
0.875478
0.876186
0.877514
0.880952
0.889551
0.908496
0.940148
0.967596
0.977326
0.978383
0.979544
0.981491
0.984243
0.987314
0.990109
0.994026
1.01168
1.09658
1.24896
1.38744
1.4546
1.4974
1.50169
1.50024
1.49758
1.49893
1.49831
1.49479
1.48825
1.48094
1.47287
1.45908
0.873567
0.87356
0.873551
0.873545
0.873538
0.873525
0.873508
0.873488
0.873469
0.873455
0.873443
0.873438
0.873438
0.873442
0.873451
0.873465
0.873484
0.873509
0.873517
0.873517
0.873522
0.873526
0.873517
0.873492
0.873463
0.873441
0.873412
0.873379
0.873367
0.873377
0.873418
0.873492
0.873568
0.873616
0.873648
0.873659
0.873642
0.873641
0.873654
0.873677
0.873729
0.873758
0.873752
0.873754
0.87372
0.873654
0.873595
0.873542
0.873455
0.873326
0.87326
0.873229
0.87314
0.873087
0.873099
0.873091
0.87309
0.873172
0.873218
0.873272
0.873428
0.873557
0.873652
0.873786
0.87398
0.874241
0.874534
0.874829
0.87521
0.87578
0.876777
0.879087
0.884714
0.898348
0.925808
0.958469
0.97409
0.977363
0.979192
0.981284
0.984001
0.987233
0.990074
0.992398
0.994913
1.00835
1.06464
1.2073
1.37784
1.4728
1.497
1.4947
1.50066
1.50225
1.49998
1.49585
1.49028
1.48346
1.47442
1.45969
0.873379
0.87338
0.873381
0.873383
0.873383
0.873381
0.873379
0.873382
0.873372
0.873362
0.873362
0.873365
0.873374
0.873391
0.873416
0.873442
0.873469
0.873506
0.873533
0.87354
0.87355
0.873561
0.873554
0.873521
0.873514
0.873514
0.873501
0.873491
0.873519
0.873602
0.873708
0.873789
0.873809
0.873798
0.873795
0.873764
0.873701
0.873688
0.873691
0.873703
0.873728
0.873747
0.873727
0.873648
0.87354
0.873437
0.873353
0.873269
0.87311
0.87302
0.873012
0.873013
0.872988
0.873015
0.873129
0.873237
0.873344
0.873513
0.873579
0.873556
0.873606
0.873677
0.873706
0.873785
0.873948
0.874171
0.874308
0.874466
0.874801
0.875395
0.876382
0.878141
0.88192
0.89138
0.911693
0.942823
0.96639
0.975928
0.979305
0.9816
0.984013
0.986757
0.989786
0.991949
0.99415
0.996736
1.0045
1.04814
1.17241
1.3386
1.44485
1.48708
1.50849
1.50712
1.50239
1.49803
1.49439
1.48728
1.47674
1.46103
0.873606
0.873616
0.873626
0.873636
0.873645
0.873655
0.873668
0.873682
0.873694
0.873705
0.873714
0.873725
0.873742
0.873763
0.873795
0.873826
0.873845
0.873873
0.873896
0.873897
0.8739
0.873899
0.873873
0.873852
0.873833
0.873784
0.87371
0.873686
0.873692
0.873725
0.87379
0.87383
0.873823
0.873791
0.873776
0.873742
0.873667
0.873604
0.873581
0.873573
0.873572
0.873514
0.873432
0.873421
0.873419
0.873366
0.873239
0.873079
0.872927
0.872804
0.872812
0.873013
0.873207