/*--------------------------------*- C++ -*----------------------------------*\
  =========                 |
  \\      /  F ield         | OpenFOAM: The Open Source CFD Toolbox
   \\    /   O peration     | Website:  https://openfoam.org
    \\  /    A nd           | Version:  7
     \\/     M anipulation  |
\*---------------------------------------------------------------------------*/
FoamFile
{
    version     2.0;
    format      ascii;
    class       volVectorField;
    location    "9.5";
    object      U;
}
// * * * * * * * * * * * * * * * * * * * * * * * * * * * * * * * * * * * * * //

dimensions      [0 1 -1 0 0 0 0];

internalField   nonuniform List<vector> 
90000
(
(3.08503 -0.291108 0)
(3.08007 -0.269651 0)
(3.07585 -0.250544 0)
(3.0715 -0.23099 0)
(3.06819 -0.216365 0)
(3.06444 -0.20009 0)
(3.06162 -0.188924 0)
(3.05809 -0.174552 0)
(3.05557 -0.165953 0)
(3.05205 -0.15246 0)
(3.04979 -0.14589 0)
(3.04619 -0.132693 0)
(3.04417 -0.127627 0)
(3.04046 -0.114674 0)
(3.03866 -0.110429 0)
(3.0349 -0.0979504 0)
(3.03328 -0.0939401 0)
(3.02951 -0.0821461 0)
(3.02806 -0.0779621 0)
(3.02426 -0.0667326 0)
(3.0234 -0.062973 0)
(3.01903 -0.0509072 0)
(3.01947 -0.0482269 0)
(3.0142 -0.0370261 0)
(3.01298 -0.0311123 0)
(3.01249 -0.0252033 0)
(3.00848 -0.0180473 0)
(3.00717 -0.013142 0)
(3.00627 -0.00808565 0)
(3.00453 -0.00522544 0)
(3.00244 -0.00118956 0)
(2.99952 0.00172688 0)
(2.9976 0.00480017 0)
(2.99643 0.00766656 0)
(2.99634 0.00830732 0)
(2.99501 0.00554716 0)
(2.99422 0.00313627 0)
(2.99327 0.00125793 0)
(2.99199 -0.000147568 0)
(2.99126 -0.00118295 0)
(2.99057 -0.00193363 0)
(2.98997 -0.00263707 0)
(2.9902 -0.00340386 0)
(2.99002 -0.00145006 0)
(2.99077 -0.000593442 0)
(2.99165 0.000548701 0)
(2.99237 0.00167529 0)
(2.99285 0.00137553 0)
(2.99315 0.00179508 0)
(2.99349 0.00108944 0)
(2.99332 0.000591502 0)
(2.99299 -0.000255086 0)
(2.99237 -0.000696791 0)
(2.9917 -0.00218263 0)
(2.99123 -0.00119436 0)
(2.99139 -0.000728201 0)
(2.9917 -0.000108417 0)
(2.99212 0.000373748 0)
(2.9921 0.00076573 0)
(2.99249 0.000287449 0)
(2.99241 9.04582e-05 0)
(2.99218 -0.000513854 0)
(2.99195 -0.000412707 0)
(2.99173 -0.000219592 0)
(2.99178 -1.15533e-05 0)
(2.992 0.000180174 0)
(2.99206 0.00023895 0)
(2.99197 9.08724e-05 0)
(2.99179 -0.000250806 0)
(2.99165 -0.000197696 0)
(2.99155 -2.96856e-06 0)
(2.99176 7.49709e-05 0)
(2.99189 0.000271219 0)
(2.99178 0.000127239 0)
(2.99167 4.03312e-05 0)
(2.99157 -0.000255548 0)
(2.99159 -5.20532e-05 0)
(2.99155 9.16617e-05 0)
(2.99152 8.48663e-05 0)
(2.99147 2.24048e-05 0)
(2.99141 -6.3802e-06 0)
(2.99137 -2.61309e-06 0)
(2.99132 -3.75982e-05 0)
(2.99128 8.03772e-06 0)
(2.99121 -7.71398e-05 0)
(2.99122 -1.84261e-05 0)
(2.99118 4.31863e-05 0)
(2.99113 3.18676e-05 0)
(2.99105 -1.71884e-05 0)
(2.99097 -8.9767e-05 0)
(2.9909 1.29554e-06 0)
(2.99075 -0.00016567 0)
(2.9907 3.35479e-08 0)
(2.9907 9.27409e-05 0)
(2.9907 0.000104317 0)
(2.99068 7.75693e-05 0)
(2.99063 4.22557e-05 0)
(2.99056 -3.59967e-05 0)
(2.99054 -5.51976e-05 0)
(2.99052 2.503e-07 0)
(3.08801 -0.308594 0)
(3.08669 -0.307821 0)
(3.08459 -0.306292 0)
(3.08179 -0.303646 0)
(3.07862 -0.300128 0)
(3.07497 -0.295048 0)
(3.0713 -0.28939 0)
(3.06719 -0.281503 0)
(3.06345 -0.273892 0)
(3.05896 -0.262882 0)
(3.05532 -0.253701 0)
(3.05045 -0.239545 0)
(3.04704 -0.228947 0)
(3.04194 -0.212179 0)
(3.03881 -0.200173 0)
(3.03364 -0.181341 0)
(3.03104 -0.168773 0)
(3.0256 -0.147366 0)
(3.02419 -0.136215 0)
(3.01813 -0.111767 0)
(3.01795 -0.10256 0)
(3.01157 -0.0778069 0)
(3.01172 -0.0684443 0)
(3.00593 -0.046018 0)
(3.00629 -0.0377695 0)
(3.0008 -0.0166125 0)
(3.00105 -0.0106294 0)
(2.99606 0.00569584 0)
(2.99486 0.0120978 0)
(2.99224 0.0215448 0)
(2.98985 0.0268451 0)
(2.98936 0.0281921 0)
(2.98853 0.0257433 0)
(2.98713 0.0199034 0)
(2.98885 0.0161518 0)
(2.98872 0.00768618 0)
(2.99144 0.00453825 0)
(2.99095 0.00045593 0)
(2.99139 -0.00211647 0)
(2.99156 -0.00264867 0)
(2.99226 -0.00295587 0)
(2.99212 -0.00324534 0)
(2.99235 -0.00235015 0)
(2.99325 0.000467911 0)
(2.99354 0.00233544 0)
(2.99334 0.00357881 0)
(2.99286 0.00497407 0)
(2.99278 0.00472622 0)
(2.99259 0.00383094 0)
(2.9923 0.00195604 0)
(2.9919 -0.000395913 0)
(2.99176 -0.00235077 0)
(2.9917 -0.00385761 0)
(2.99169 -0.00355428 0)
(2.99205 -0.00184347 0)
(2.99181 -0.000218484 0)
(2.9922 0.00128552 0)
(2.99214 0.0021371 0)
(2.99207 0.00177769 0)
(2.99181 0.00058074 0)
(2.99174 -0.000481099 0)
(2.99158 -0.00184305 0)
(2.99164 -0.00170891 0)
(2.99189 -0.000684295 0)
(2.99189 0.000455742 0)
(2.99177 0.00125127 0)
(2.99162 0.000676147 0)
(2.99144 -0.000154322 0)
(2.99138 -0.00107343 0)
(2.99141 -0.00087081 0)
(2.9916 -6.27548e-05 0)
(2.99148 0.000817172 0)
(2.99152 0.000648731 0)
(2.99145 0.0002038 0)
(2.99137 -0.000277943 0)
(2.99137 -0.000119127 0)
(2.99136 0.000230875 0)
(2.99132 0.000278266 0)
(2.99126 0.000167586 0)
(2.99119 -5.21286e-05 0)
(2.99118 -2.90051e-05 0)
(2.99115 -1.23018e-05 0)
(2.99109 -0.000109712 0)
(2.99108 -0.000199336 0)
(2.99102 2.71392e-05 0)
(2.99099 0.000183339 0)
(2.99097 0.000149917 0)
(2.99092 4.45541e-05 0)
(2.99087 -5.56407e-05 0)
(2.9908 -4.93955e-06 0)
(2.99069 -0.000244335 0)
(2.99058 -7.78051e-05 0)
(2.99054 8.19788e-05 0)
(2.99054 0.000198061 0)
(2.99055 0.000160781 0)
(2.99053 9.71969e-05 0)
(2.99049 6.95991e-06 0)
(2.99045 -1.35674e-05 0)
(2.99043 6.98868e-05 0)
(2.99043 6.71434e-05 0)
(3.08628 -0.308708 0)
(3.08622 -0.308677 0)
(3.08616 -0.308633 0)
(3.08608 -0.308557 0)
(3.08598 -0.308464 0)
(3.08583 -0.308326 0)
(3.08561 -0.308117 0)
(3.08526 -0.307814 0)
(3.08475 -0.307369 0)
(3.08411 -0.306733 0)
(3.08331 -0.30572 0)
(3.08234 -0.30439 0)
(3.08117 -0.302434 0)
(3.07976 -0.299936 0)
(3.07809 -0.296607 0)
(3.07605 -0.292157 0)
(3.07388 -0.28705 0)
(3.07116 -0.279765 0)
(3.06844 -0.272329 0)
(3.0648 -0.261604 0)
(3.06152 -0.251656 0)
(3.05688 -0.236497 0)
(3.0535 -0.225178 0)
(3.04781 -0.204673 0)
(3.04471 -0.193096 0)
(3.03841 -0.168634 0)
(3.03591 -0.157854 0)
(3.02934 -0.130665 0)
(3.02796 -0.123013 0)
(3.02218 -0.096727 0)
(3.0219 -0.0916395 0)
(3.01717 -0.0685103 0)
(3.01855 -0.0650642 0)
(3.0115 -0.0478488 0)
(3.01161 -0.0394268 0)
(3.00479 -0.0273879 0)
(3.00476 -0.0206366 0)
(3.00082 -0.0148205 0)
(3.00033 -0.0098203 0)
(2.99821 -0.00597957 0)
(2.99858 -0.00191091 0)
(2.99749 0.00172069 0)
(2.99556 0.00503878 0)
(2.99466 0.00762634 0)
(2.99364 0.0077327 0)
(2.99216 0.00623429 0)
(2.99118 0.00465869 0)
(2.9899 0.00098329 0)
(2.98997 -0.000260452 0)
(2.98957 -0.00353783 0)
(2.98981 -0.0043562 0)
(2.99048 -0.0042758 0)
(2.99132 -0.00324505 0)
(2.99203 -0.0013505 0)
(2.99249 -1.9152e-05 0)
(2.99239 0.00181607 0)
(2.99217 0.00215833 0)
(2.99137 0.000991284 0)
(2.99098 0.000322207 0)
(2.99026 -0.00177579 0)
(2.99043 -0.00177184 0)
(2.99103 -0.00133981 0)
(2.99133 -0.000464499 0)
(2.9915 0.000940626 0)
(2.9913 0.00080514 0)
(2.99088 0.000343909 0)
(2.99042 -0.00107859 0)
(2.99043 -0.00114225 0)
(2.99071 -0.000779146 0)
(2.99081 -4.75272e-05 0)
(2.99101 0.00104111 0)
(2.99083 0.000783487 0)
(2.99056 0.000100174 0)
(2.99052 -0.000471698 0)
(2.99055 -0.000347432 0)
(2.99068 5.96082e-05 0)
(2.99066 1.40398e-05 0)
(2.99064 -0.000164097 0)
(2.99055 -0.000107138 0)
(2.99055 2.65179e-05 0)
(2.99054 0.000149092 0)
(2.99051 6.10753e-05 0)
(2.99048 -0.000167882 0)
(2.99048 -7.81143e-05 0)
(2.99048 3.84347e-05 0)
(2.99044 -1.94132e-06 0)
(2.99043 -4.1057e-05 0)
(2.9904 -2.86137e-05 0)
(2.99038 -2.11603e-05 0)
(2.9903 -0.000246657 0)
(2.99023 -0.000214011 0)
(2.99018 -0.000223573 0)
(2.99015 -0.000123079 0)
(2.99014 -7.0753e-05 0)
(2.99015 -1.67157e-05 0)
(2.99016 -3.50759e-05 0)
(2.99016 -4.41561e-05 0)
(2.99015 6.60733e-06 0)
(2.99015 0.000109828 0)
(2.99018 0.000103846 0)
(3.08267 -0.308339 0)
(3.08263 -0.308339 0)
(3.08259 -0.308341 0)
(3.08255 -0.308352 0)
(3.0825 -0.308354 0)
(3.08245 -0.308357 0)
(3.08239 -0.30835 0)
(3.08231 -0.308335 0)
(3.08221 -0.308281 0)
(3.08212 -0.30823 0)
(3.08202 -0.308153 0)
(3.08193 -0.308071 0)
(3.08183 -0.307963 0)
(3.08174 -0.307874 0)
(3.08161 -0.307692 0)
(3.08147 -0.307502 0)
(3.08124 -0.307194 0)
(3.08085 -0.30683 0)
(3.08037 -0.3062 0)
(3.07977 -0.30529 0)
(3.07903 -0.303864 0)
(3.07808 -0.301799 0)
(3.07688 -0.298839 0)
(3.07523 -0.294536 0)
(3.07327 -0.288979 0)
(3.07045 -0.280523 0)
(3.06753 -0.271346 0)
(3.06282 -0.255993 0)
(3.05914 -0.242848 0)
(3.05198 -0.217892 0)
(3.04849 -0.202107 0)
(3.03864 -0.165675 0)
(3.03708 -0.149862 0)
(3.02587 -0.106321 0)
(3.02613 -0.094872 0)
(3.01466 -0.0550968 0)
(3.01488 -0.048339 0)
(3.00584 -0.0185905 0)
(3.00635 -0.0156537 0)
(3.00017 0.00172664 0)
(2.99884 0.00456557 0)
(2.99522 0.0138668 0)
(2.99342 0.0136612 0)
(2.99154 0.00937263 0)
(2.99171 0.00528285 0)
(2.99059 0.000774615 0)
(2.99085 0.000299715 0)
(2.98942 -0.00227366 0)
(2.98946 -0.00208878 0)
(2.98967 -0.00157127 0)
(2.99007 -0.000260145 0)
(2.99067 0.0020645 0)
(2.99096 0.00333258 0)
(2.9907 0.00481012 0)
(2.99119 0.0023281 0)
(2.99061 0.000615677 0)
(2.99003 -0.000591008 0)
(2.98975 -0.00301649 0)
(2.98931 -0.00157443 0)
(2.98951 -0.000493536 0)
(2.99006 5.37986e-05 0)
(2.99042 0.00179477 0)
(2.99065 0.00113368 0)
(2.99032 0.000108369 0)
(2.98982 -0.00148421 0)
(2.98967 -0.00174836 0)
(2.98969 -0.000755462 0)
(2.98981 -0.000191694 0)
(2.98998 0.001048 0)
(2.99016 0.000632256 0)
(2.98991 0.000191454 0)
(2.98981 -0.000546115 0)
(2.98952 9.52391e-05 0)
(2.98962 0.000288551 0)
(2.98961 0.000561857 0)
(2.9898 0.000124136 0)
(2.98983 -8.80113e-05 0)
(2.98976 4.50672e-06 0)
(2.98979 0.000148649 0)
(2.98981 0.000178351 0)
(2.98978 7.36388e-05 0)
(2.98975 -0.000106138 0)
(2.98976 -0.000125807 0)
(2.98978 -6.87872e-05 0)
(2.98983 1.82337e-05 0)
(2.98984 0.000172745 0)
(2.98983 0.000152431 0)
(2.98981 9.21746e-05 0)
(2.98978 -5.32407e-05 0)
(2.98975 -0.000188408 0)
(2.98973 -0.00034057 0)
(2.98973 -0.000237665 0)
(2.98977 4.81759e-05 0)
(2.98969 0.000289701 0)
(2.98972 0.000277694 0)
(2.98975 0.000210032 0)
(2.98978 8.44052e-05 0)
(2.98982 2.48211e-05 0)
(2.98985 6.53615e-05 0)
(2.98991 6.95096e-05 0)
(3.07925 -0.307992 0)
(3.07921 -0.307985 0)
(3.07917 -0.307988 0)
(3.07913 -0.307981 0)
(3.07908 -0.307975 0)
(3.07903 -0.307974 0)
(3.079 -0.307974 0)
(3.07895 -0.307972 0)
(3.07894 -0.307974 0)
(3.07893 -0.307987 0)
(3.07892 -0.307995 0)
(3.07891 -0.308012 0)
(3.07889 -0.308025 0)
(3.07886 -0.308059 0)
(3.07884 -0.308053 0)
(3.0788 -0.308071 0)
(3.07875 -0.308054 0)
(3.07869 -0.308012 0)
(3.07863 -0.307944 0)
(3.07857 -0.307873 0)
(3.07852 -0.307787 0)
(3.07846 -0.3077 0)
(3.07839 -0.307551 0)
(3.07831 -0.30739 0)
(3.0782 -0.307053 0)
(3.07799 -0.30667 0)
(3.07766 -0.305891 0)
(3.07716 -0.304689 0)
(3.0764 -0.302549 0)
(3.07523 -0.299365 0)
(3.07357 -0.294262 0)
(3.07098 -0.286544 0)
(3.06778 -0.276322 0)
(3.06268 -0.259698 0)
(3.0582 -0.243554 0)
(3.05 -0.213931 0)
(3.04548 -0.19529 0)
(3.035 -0.154621 0)
(3.03232 -0.140754 0)
(3.02175 -0.098444 0)
(3.02003 -0.0919592 0)
(3.01286 -0.0610426 0)
(3.014 -0.0601581 0)
(3.0053 -0.0417668 0)
(3.00652 -0.0354475 0)
(3.00016 -0.0237882 0)
(3.00032 -0.0186106 0)
(2.99627 -0.0120019 0)
(2.99543 -0.00564726 0)
(2.99331 0.000333658 0)
(2.99022 0.00409143 0)
(2.99009 0.00695633 0)
(2.98891 0.00584671 0)
(2.98808 0.00379005 0)
(2.9873 6.20154e-05 0)
(2.98746 -0.00294268 0)
(2.98758 -0.00492534 0)
(2.98809 -0.00486352 0)
(2.9894 -0.00227392 0)
(2.98954 -0.000405211 0)
(2.98994 0.00193709 0)
(2.98986 0.00209009 0)
(2.98922 0.000691675 0)
(2.98882 -0.00148711 0)
(2.98875 -0.00249239 0)
(2.98912 -0.00223595 0)
(2.98945 -0.00140446 0)
(2.98973 0.000447606 0)
(2.98969 0.000870505 0)
(2.98947 0.000601349 0)
(2.98909 -0.000534488 0)
(2.98902 -0.0008776 0)
(2.98915 -0.000659402 0)
(2.98936 7.69178e-05 0)
(2.98942 0.000323268 0)
(2.98942 0.000193716 0)
(2.98941 -7.02357e-05 0)
(2.98939 -0.000156976 0)
(2.98955 0.000110635 0)
(2.98956 0.000156305 0)
(2.98948 9.6186e-06 0)
(2.98945 -0.000180513 0)
(2.98946 -0.000216037 0)
(2.98948 -0.000190652 0)
(2.98962 5.07068e-06 0)
(2.98962 2.49518e-05 0)
(2.98964 7.17118e-05 0)
(2.98963 1.64942e-05 0)
(2.9896 -0.000173826 0)
(2.98959 -0.000368974 0)
(2.98962 -0.000391135 0)
(2.98963 -0.000267343 0)
(2.98968 -1.60362e-05 0)
(2.98964 0.00014681 0)
(2.98967 0.000104935 0)
(2.9897 1.45561e-05 0)
(2.98975 -5.37701e-05 0)
(2.98978 -7.71847e-05 0)
(2.98985 4.58318e-05 0)
(2.98994 6.24658e-05 0)
(3.07758 -0.307855 0)
(3.07758 -0.307855 0)
(3.07757 -0.307848 0)
(3.07757 -0.307849 0)
(3.07756 -0.307844 0)
(3.07756 -0.307843 0)
(3.07755 -0.307835 0)
(3.07755 -0.307834 0)
(3.07754 -0.307819 0)
(3.07754 -0.307815 0)
(3.07754 -0.307811 0)
(3.07755 -0.307806 0)
(3.07756 -0.307818 0)
(3.07756 -0.307816 0)
(3.07757 -0.307823 0)
(3.07756 -0.30782 0)
(3.07759 -0.307831 0)
(3.07762 -0.307843 0)
(3.07768 -0.307861 0)
(3.07772 -0.307875 0)
(3.07775 -0.3079 0)
(3.07779 -0.30791 0)
(3.07782 -0.307949 0)
(3.07785 -0.30794 0)
(3.07786 -0.308 0)
(3.0779 -0.307935 0)
(3.07794 -0.30787 0)
(3.07798 -0.307808 0)
(3.07803 -0.307735 0)
(3.07806 -0.307631 0)
(3.07805 -0.307447 0)
(3.07799 -0.307097 0)
(3.07788 -0.306428 0)
(3.07755 -0.305116 0)
(3.07684 -0.302668 0)
(3.07537 -0.298147 0)
(3.07316 -0.291092 0)
(3.06887 -0.278089 0)
(3.06444 -0.263201 0)
(3.0557 -0.234039 0)
(3.05069 -0.213132 0)
(3.03711 -0.16451 0)
(3.03535 -0.145256 0)
(3.01923 -0.0875912 0)
(3.02066 -0.0759647 0)
(3.00743 -0.0311148 0)
(3.00894 -0.0252573 0)
(3.00031 0.00161169 0)
(2.99782 0.00535827 0)
(2.99451 0.0177165 0)
(2.99077 0.0138584 0)
(2.98831 0.00739278 0)
(2.98783 0.00142276 0)
(2.98748 -0.000487612 0)
(2.98676 -0.0030959 0)
(2.98715 -0.00317585 0)
(2.98808 -0.00225741 0)
(2.98912 -1.41368e-05 0)
(2.99044 0.00236918 0)
(2.9899 0.00127759 0)
(2.98944 0.000870396 0)
(2.98855 -0.000837475 0)
(2.9881 -0.00215842 0)
(2.98828 -0.00174494 0)
(2.98865 -0.00134339 0)
(2.98929 -0.00012324 0)
(2.98968 0.000693394 0)
(2.98967 0.000617795 0)
(2.98945 0.00020036 0)
(2.98914 -0.000636441 0)
(2.98939 -0.000189482 0)
(2.98968 0.00011868 0)
(2.98977 0.000571831 0)
(2.98999 0.000209669 0)
(2.98986 2.0754e-05 0)
(2.98982 -0.000142296 0)
(2.98984 -7.24994e-05 0)
(2.98992 0.000128156 0)
(2.99004 1.60535e-05 0)
(2.98997 -9.97832e-05 0)
(2.98986 -2.24157e-05 0)
(2.98987 3.17494e-05 0)
(2.98993 8.62926e-05 0)
(2.98997 0.000131171 0)
(2.9901 2.79732e-05 0)
(2.99011 2.37624e-05 0)
(2.99013 -3.98713e-05 0)
(2.99012 -3.98665e-05 0)
(2.99006 -0.000131904 0)
(2.99006 -0.000320936 0)
(2.99008 -0.000374741 0)
(2.99013 -0.000297656 0)
(2.99014 -6.68331e-05 0)
(2.99016 0.000115844 0)
(2.99016 9.57849e-05 0)
(2.99018 9.58555e-05 0)
(2.99022 6.80585e-05 0)
(2.99027 5.7558e-05 0)
(2.99033 0.00017121 0)
(2.99041 0.000157853 0)
(3.07801 -0.307828 0)
(3.07803 -0.307829 0)
(3.07805 -0.307825 0)
(3.07808 -0.307824 0)
(3.0781 -0.307817 0)
(3.07813 -0.307815 0)
(3.07816 -0.307806 0)
(3.07819 -0.307806 0)
(3.07822 -0.3078 0)
(3.07825 -0.307805 0)
(3.07829 -0.307803 0)
(3.07833 -0.307812 0)
(3.07837 -0.307808 0)
(3.07841 -0.307817 0)
(3.07845 -0.307813 0)
(3.07849 -0.307818 0)
(3.07854 -0.307807 0)
(3.07859 -0.307815 0)
(3.07864 -0.307799 0)
(3.0787 -0.307801 0)
(3.07876 -0.307797 0)
(3.07882 -0.307821 0)
(3.07888 -0.307818 0)
(3.07895 -0.307838 0)
(3.07902 -0.307832 0)
(3.07908 -0.307851 0)
(3.07916 -0.307863 0)
(3.07922 -0.307884 0)
(3.0793 -0.307895 0)
(3.07937 -0.307931 0)
(3.07944 -0.307923 0)
(3.07949 -0.307961 0)
(3.07962 -0.307906 0)
(3.07973 -0.307867 0)
(3.07983 -0.307814 0)
(3.0799 -0.307712 0)
(3.07993 -0.307458 0)
(3.07991 -0.306843 0)
(3.07962 -0.305401 0)
(3.07875 -0.302582 0)
(3.07703 -0.296916 0)
(3.07357 -0.286877 0)
(3.06911 -0.271969 0)
(3.06109 -0.245468 0)
(3.05505 -0.221764 0)
(3.04259 -0.174933 0)
(3.03871 -0.154947 0)
(3.02612 -0.102562 0)
(3.02475 -0.09544 0)
(3.0161 -0.0579887 0)
(3.01989 -0.0579691 0)
(3.00706 -0.0340578 0)
(3.00561 -0.0275375 0)
(3.00063 -0.0175831 0)
(2.99786 -0.00864295 0)
(2.99576 -0.00243041 0)
(2.99246 0.00357491 0)
(2.99114 0.00564562 0)
(2.99031 0.00469493 0)
(2.98925 0.00100763 0)
(2.98885 -0.00181845 0)
(2.98875 -0.0047694 0)
(2.9889 -0.0042846 0)
(2.98965 -0.00214696 0)
(2.99048 -0.000202262 0)
(2.99071 0.00139279 0)
(2.9906 0.00112464 0)
(2.99002 -3.45905e-05 0)
(2.98989 -0.00156486 0)
(2.99004 -0.0016672 0)
(2.9905 -0.000955657 0)
(2.99096 -7.86591e-05 0)
(2.9909 0.000436526 0)
(2.99082 0.000432815 0)
(2.99064 -6.10903e-05 0)
(2.99081 -7.77625e-05 0)
(2.99089 2.13916e-05 0)
(2.99096 0.000290293 0)
(2.99096 0.000240316 0)
(2.9908 -0.000172374 0)
(2.99077 -0.000360011 0)
(2.99088 -0.00023832 0)
(2.99099 -1.89121e-05 0)
(2.99103 -2.47004e-06 0)
(2.99108 -4.60036e-05 0)
(2.99109 -2.59782e-05 0)
(2.99111 7.55509e-05 0)
(2.99104 -0.000130662 0)
(2.99096 -0.000364723 0)
(2.99095 -0.000411446 0)
(2.99099 -0.000326472 0)
(2.99108 -0.000227338 0)
(2.99105 8.97678e-06 0)
(2.99106 0.000133918 0)
(2.99102 0.000133312 0)
(2.99103 4.26338e-05 0)
(2.99106 -1.63864e-05 0)
(2.99111 -5.05077e-05 0)
(2.99116 3.77988e-05 0)
(2.9912 4.15982e-05 0)
(3.07974 -0.307983 0)
(3.07977 -0.307981 0)
(3.07981 -0.307984 0)
(3.07984 -0.307984 0)
(3.07987 -0.30799 0)
(3.07991 -0.307988 0)
(3.07995 -0.307992 0)
(3.07999 -0.307985 0)
(3.08003 -0.307981 0)
(3.08008 -0.307973 0)
(3.08012 -0.307977 0)
(3.08017 -0.307975 0)
(3.08022 -0.307987 0)
(3.08026 -0.307989 0)
(3.08031 -0.307997 0)
(3.08036 -0.307992 0)
(3.08042 -0.30799 0)
(3.08047 -0.307981 0)
(3.08053 -0.307979 0)
(3.08059 -0.307961 0)
(3.08065 -0.307966 0)
(3.08071 -0.307965 0)
(3.08078 -0.30797 0)
(3.08085 -0.307966 0)
(3.08092 -0.30797 0)
(3.08099 -0.307956 0)
(3.08106 -0.307963 0)
(3.08113 -0.307962 0)
(3.08121 -0.307965 0)
(3.0813 -0.307962 0)
(3.08138 -0.307979 0)
(3.08149 -0.307977 0)
(3.08154 -0.307983 0)
(3.0816 -0.307991 0)
(3.08165 -0.308017 0)
(3.08171 -0.307996 0)
(3.08177 -0.308015 0)
(3.08187 -0.307975 0)
(3.08197 -0.307952 0)
(3.08205 -0.307896 0)
(3.08209 -0.307781 0)
(3.08207 -0.307325 0)
(3.08185 -0.306277 0)
(3.08103 -0.303708 0)
(3.07934 -0.29839 0)
(3.07551 -0.287064 0)
(3.07074 -0.27104 0)
(3.06074 -0.237991 0)
(3.05506 -0.212148 0)
(3.03804 -0.151905 0)
(3.03862 -0.129257 0)
(3.02022 -0.0607634 0)
(3.02289 -0.0513731 0)
(3.00946 -0.0075088 0)
(3.00732 -0.00223117 0)
(3.00134 0.0180522 0)
(2.99692 0.0155264 0)
(2.99274 0.00646818 0)
(2.99239 0.00199118 0)
(2.99025 -0.00383415 0)
(2.99036 -0.00405525 0)
(2.99084 -0.00383877 0)
(2.99225 -0.000887103 0)
(2.99335 0.00258126 0)
(2.99312 0.00242199 0)
(2.99251 0.00176582 0)
(2.99158 -0.000253945 0)
(2.99125 -0.00138048 0)
(2.99124 -0.00148334 0)
(2.99157 -0.000866529 0)
(2.99238 0.000204282 0)
(2.99181 0.000232722 0)
(2.99173 1.50279e-05 0)
(2.99156 -0.000624548 0)
(2.99162 -0.000247263 0)
(2.99177 7.0935e-05 0)
(2.99195 0.000334796 0)
(2.99192 0.000172621 0)
(2.99188 -0.000245544 0)
(2.99187 -0.000108671 0)
(2.99203 -3.12067e-05 0)
(2.9921 1.11135e-06 0)
(2.99212 0.000126873 0)
(2.9921 6.74174e-05 0)
(2.9921 -3.41473e-05 0)
(2.9921 -0.000154839 0)
(2.99208 -0.000200544 0)
(2.992 -0.000145334 0)
(2.99192 -0.00030198 0)
(2.99193 -0.000333758 0)
(2.99197 -0.000330088 0)
(2.99206 -0.000232852 0)
(2.99204 -0.000122458 0)
(2.99201 3.28546e-06 0)
(2.99193 4.99544e-05 0)
(2.99193 0.000163173 0)
(2.99195 0.000147842 0)
(2.992 0.000129705 0)
(2.99201 0.000172869 0)
(2.99203 9.42651e-05 0)
(3.08173 -0.308118 0)
(3.08176 -0.308116 0)
(3.08179 -0.308113 0)
(3.08182 -0.308113 0)
(3.08184 -0.308105 0)
(3.08188 -0.308096 0)
(3.08191 -0.308096 0)
(3.08194 -0.308097 0)
(3.08198 -0.308094 0)
(3.08201 -0.308099 0)
(3.08205 -0.308104 0)
(3.08209 -0.308099 0)
(3.08212 -0.308088 0)
(3.08216 -0.308088 0)
(3.08219 -0.30809 0)
(3.08223 -0.308082 0)
(3.08226 -0.308073 0)
(3.0823 -0.308072 0)
(3.08234 -0.308065 0)
(3.08238 -0.308052 0)
(3.08243 -0.308047 0)
(3.08247 -0.308053 0)
(3.08252 -0.308049 0)
(3.08256 -0.30804 0)
(3.0826 -0.308031 0)
(3.08265 -0.308021 0)
(3.0827 -0.308019 0)
(3.08275 -0.308026 0)
(3.08281 -0.308025 0)
(3.08286 -0.308027 0)
(3.08293 -0.308025 0)
(3.08299 -0.308038 0)
(3.08306 -0.308041 0)
(3.08312 -0.308053 0)
(3.08318 -0.308043 0)
(3.08324 -0.308058 0)
(3.08331 -0.308058 0)
(3.08333 -0.308058 0)
(3.08335 -0.308055 0)
(3.08337 -0.308061 0)
(3.08339 -0.308043 0)
(3.08342 -0.308007 0)
(3.0835 -0.307994 0)
(3.08353 -0.307968 0)
(3.08352 -0.307862 0)
(3.08342 -0.307457 0)
(3.08303 -0.306194 0)
(3.08189 -0.303081 0)
(3.07962 -0.295898 0)
(3.07474 -0.281739 0)
(3.06878 -0.260415 0)
(3.05763 -0.220928 0)
(3.05159 -0.191543 0)
(3.03652 -0.129656 0)
(3.03437 -0.115117 0)
(3.02264 -0.0639891 0)
(3.02696 -0.0636294 0)
(3.01164 -0.0356531 0)
(3.01056 -0.0266061 0)
(3.00293 -0.015973 0)
(3.00136 -0.00652749 0)
(2.99675 0.00133021 0)
(2.99528 0.00449789 0)
(2.99449 0.00357729 0)
(2.99287 0.000524845 0)
(2.99237 -0.00214638 0)
(2.99249 -0.00439003 0)
(2.9927 -0.00385429 0)
(2.99339 -0.00168642 0)
(2.99384 0.00112877 0)
(2.99353 0.0010432 0)
(2.99304 0.00043995 0)
(2.99259 -0.000862337 0)
(2.99275 -0.000964224 0)
(2.99287 -0.000439165 0)
(2.99299 0.000469777 0)
(2.99296 0.000535453 0)
(2.99279 0.000231075 0)
(2.99273 -0.000429011 0)
(2.99283 -0.000425401 0)
(2.99301 -7.91143e-05 0)
(2.99294 7.78728e-05 0)
(2.9929 3.15657e-05 0)
(2.99288 -1.18297e-05 0)
(2.99287 1.65533e-05 0)
(2.99285 -4.76477e-05 0)
(2.99279 -0.000189405 0)
(2.99268 -0.000449181 0)
(2.99266 -0.00040146 0)
(2.99271 -0.000307624 0)
(2.99276 -0.000133602 0)
(2.99281 -0.000142937 0)
(2.99279 -9.9041e-05 0)
(2.99273 -7.3758e-05 0)
(2.99264 -3.48519e-05 0)
(2.99262 8.03646e-06 0)
(2.99263 9.14898e-05 0)
(2.99266 0.000129547 0)
(2.99265 0.000155482 0)
(2.99265 6.16403e-05 0)
(3.08327 -0.30817 0)
(3.08328 -0.30817 0)
(3.0833 -0.308171 0)
(3.08332 -0.30817 0)
(3.08334 -0.308167 0)
(3.08335 -0.308168 0)
(3.08338 -0.308166 0)
(3.0834 -0.308164 0)
(3.08342 -0.308161 0)
(3.08344 -0.308158 0)
(3.08346 -0.308154 0)
(3.08348 -0.308155 0)
(3.0835 -0.308151 0)
(3.08352 -0.308145 0)
(3.08354 -0.308145 0)
(3.08356 -0.30814 0)
(3.08358 -0.308131 0)
(3.0836 -0.308129 0)
(3.08362 -0.308126 0)
(3.08364 -0.308114 0)
(3.08366 -0.308101 0)
(3.08368 -0.308097 0)
(3.0837 -0.308096 0)
(3.08372 -0.308093 0)
(3.08375 -0.308084 0)
(3.08377 -0.308077 0)
(3.08379 -0.308078 0)
(3.08381 -0.308077 0)
(3.08383 -0.308073 0)
(3.08385 -0.308067 0)
(3.08389 -0.308069 0)
(3.08392 -0.308073 0)
(3.08395 -0.308078 0)
(3.08398 -0.308079 0)
(3.08401 -0.308081 0)
(3.08405 -0.308095 0)
(3.0841 -0.308114 0)
(3.08414 -0.308136 0)
(3.08418 -0.308145 0)
(3.08421 -0.308155 0)
(3.08426 -0.30817 0)
(3.08429 -0.308188 0)
(3.0843 -0.308191 0)
(3.08429 -0.308231 0)
(3.08425 -0.30822 0)
(3.08427 -0.308215 0)
(3.08426 -0.308185 0)
(3.08424 -0.30813 0)
(3.08414 -0.307926 0)
(3.08383 -0.307203 0)
(3.08305 -0.305084 0)
(3.08099 -0.299387 0)
(3.0774 -0.287931 0)
(3.06928 -0.262431 0)
(3.06239 -0.233893 0)
(3.04468 -0.172211 0)
(3.04393 -0.141465 0)
(3.02288 -0.0624 0)
(3.02513 -0.048784 0)
(3.01044 -0.00313682 0)
(3.00552 0.00647199 0)
(3.00224 0.0196856 0)
(2.99735 0.00985494 0)
(2.99481 0.00162839 0)
(2.99387 -0.0030836 0)
(2.99401 -0.00338619 0)
(2.99445 -0.00311555 0)
(2.99551 -4.60855e-05 0)
(2.99551 0.00156039 0)
(2.9951 0.00156017 0)
(2.99402 0.000461233 0)
(2.99334 -0.00121887 0)
(2.9933 -0.00134064 0)
(2.99363 -0.000827942 0)
(2.99411 0.000419206 0)
(2.994 0.000512835 0)
(2.99363 4.506e-05 0)
(2.99332 -0.000301288 0)
(2.99329 -0.000357604 0)
(2.9934 -8.20451e-05 0)
(2.99338 0.000172298 0)
(2.99337 0.000155927 0)
(2.9933 2.25189e-05 0)
(2.99333 -9.45404e-05 0)
(2.99333 -8.05784e-05 0)
(2.99327 -0.000122594 0)
(2.99316 -0.000341037 0)
(2.9931 -0.00042643 0)
(2.99311 -0.0003715 0)
(2.99316 -0.00029205 0)
(2.99324 -0.000125254 0)
(2.99324 -0.000133506 0)
(2.9932 -0.000141634 0)
(2.99314 -0.000151689 0)
(2.99308 -9.88059e-05 0)
(2.99299 8.40632e-05 0)
(2.993 0.000147109 0)
(2.99304 0.000196133 0)
(2.99304 0.000175427 0)
(2.99302 0.000110203 0)
(3.08413 -0.308129 0)
(3.08414 -0.308125 0)
(3.08414 -0.308123 0)
(3.08415 -0.308121 0)
(3.08416 -0.308115 0)
(3.08418 -0.308112 0)
(3.08418 -0.308112 0)
(3.08419 -0.30811 0)
(3.08421 -0.308103 0)
(3.08422 -0.308094 0)
(3.08423 -0.308094 0)
(3.08424 -0.308085 0)
(3.08425 -0.308073 0)
(3.08426 -0.308067 0)
(3.08426 -0.308058 0)
(3.08427 -0.30805 0)
(3.08428 -0.308036 0)
(3.08429 -0.308022 0)
(3.08429 -0.308021 0)
(3.0843 -0.308017 0)
(3.0843 -0.308 0)
(3.08431 -0.307993 0)
(3.08431 -0.307997 0)
(3.08432 -0.307989 0)
(3.08432 -0.307978 0)
(3.08433 -0.307978 0)
(3.08433 -0.307985 0)
(3.08434 -0.307983 0)
(3.08434 -0.307976 0)
(3.08434 -0.30798 0)
(3.08434 -0.308 0)
(3.08435 -0.308013 0)
(3.08435 -0.308018 0)
(3.08436 -0.308026 0)
(3.08437 -0.308043 0)
(3.08439 -0.308066 0)
(3.0844 -0.308099 0)
(3.08443 -0.308129 0)
(3.08445 -0.30817 0)
(3.08447 -0.308217 0)
(3.08451 -0.308251 0)
(3.08454 -0.308316 0)
(3.08457 -0.308371 0)
(3.08458 -0.30842 0)
(3.08461 -0.308463 0)
(3.08458 -0.308472 0)
(3.08453 -0.308468 0)
(3.08449 -0.308456 0)
(3.08442 -0.308395 0)
(3.08442 -0.308369 0)
(3.08436 -0.308235 0)
(3.08427 -0.308092 0)
(3.084 -0.307525 0)
(3.08325 -0.305704 0)
(3.08152 -0.300444 0)
(3.07725 -0.288379 0)
(3.07098 -0.265869 0)
(3.05916 -0.224155 0)
(3.05131 -0.187267 0)
(3.03518 -0.120618 0)
(3.031 -0.100115 0)
(3.02104 -0.0576463 0)
(3.02443 -0.0473794 0)
(3.00965 -0.0245909 0)
(3.00473 -0.0147748 0)
(3.00308 -0.00650672 0)
(2.99743 1.92762e-05 0)
(2.99583 0.00487947 0)
(2.9945 0.00336126 0)
(2.99351 -9.96025e-05 0)
(2.99334 -0.00335216 0)
(2.99341 -0.0030414 0)
(2.99412 -0.00137845 0)
(2.99461 0.00100843 0)
(2.99454 0.000967615 0)
(2.99393 0.000132657 0)
(2.99351 -0.00110499 0)
(2.99345 -0.000920092 0)
(2.99355 -0.000184887 0)
(2.99368 0.000556752 0)
(2.99361 0.000387516 0)
(2.99355 5.08013e-05 0)
(2.99346 -9.61914e-05 0)
(2.9935 -3.88485e-05 0)
(2.99349 -4.33433e-05 0)
(2.99342 -0.000206471 0)
(2.9933 -0.00054764 0)
(2.9933 -0.000534236 0)
(2.99332 -0.000363809 0)
(2.99335 -0.000169691 0)
(2.99339 -1.80852e-05 0)
(2.99341 -0.000100615 0)
(2.99338 -0.000163104 0)
(2.99333 -0.000230592 0)
(2.9933 -0.000196853 0)
(2.99319 5.26246e-06 0)
(2.9932 0.000205836 0)
(2.99324 0.000191501 0)
(2.99323 0.000139928 0)
(2.99322 5.25546e-05 0)
(3.08445 -0.30807 0)
(3.08446 -0.308066 0)
(3.08446 -0.308059 0)
(3.08447 -0.308051 0)
(3.08447 -0.308045 0)
(3.08448 -0.308038 0)
(3.08449 -0.308028 0)
(3.08449 -0.308025 0)
(3.0845 -0.308019 0)
(3.08451 -0.308009 0)
(3.08451 -0.308005 0)
(3.08451 -0.307997 0)
(3.08452 -0.307986 0)
(3.08452 -0.307973 0)
(3.08453 -0.307968 0)
(3.08453 -0.307958 0)
(3.08454 -0.307936 0)
(3.08454 -0.307923 0)
(3.08454 -0.307929 0)
(3.08453 -0.307931 0)
(3.08453 -0.307917 0)
(3.08453 -0.307905 0)
(3.08452 -0.307896 0)
(3.08452 -0.307884 0)
(3.08451 -0.307882 0)
(3.08451 -0.307891 0)
(3.0845 -0.307894 0)
(3.08449 -0.307886 0)
(3.08448 -0.307878 0)
(3.08447 -0.307887 0)
(3.08445 -0.307913 0)
(3.08443 -0.307935 0)
(3.08442 -0.307952 0)
(3.0844 -0.307981 0)
(3.08439 -0.30801 0)
(3.08439 -0.308045 0)
(3.08438 -0.308094 0)
(3.08438 -0.308141 0)
(3.08438 -0.308188 0)
(3.08439 -0.30825 0)
(3.08441 -0.308309 0)
(3.08443 -0.30837 0)
(3.08445 -0.308426 0)
(3.08448 -0.308481 0)
(3.08451 -0.308543 0)
(3.08453 -0.308581 0)
(3.08453 -0.308595 0)
(3.08452 -0.308592 0)
(3.0845 -0.308588 0)
(3.08445 -0.308563 0)
(3.08439 -0.308481 0)
(3.08433 -0.308385 0)
(3.08424 -0.308295 0)
(3.0842 -0.308251 0)
(3.0841 -0.30813 0)
(3.08383 -0.307534 0)
(3.08316 -0.305694 0)
(3.08093 -0.299203 0)
(3.07699 -0.286318 0)
(3.06635 -0.251436 0)
(3.05974 -0.219908 0)
(3.03629 -0.136411 0)
(3.03965 -0.109691 0)
(3.01736 -0.0278833 0)
(3.01472 -0.0194975 0)
(3.0074 0.0169034 0)
(3.0007 0.0132848 0)
(2.99603 0.00508835 0)
(2.99557 -9.13151e-05 0)
(2.99386 -0.00371645 0)
(2.99419 -0.00349534 0)
(2.99484 -0.000643213 0)
(2.99493 0.00222794 0)
(2.99462 0.00203225 0)
(2.99365 0.000251708 0)
(2.99305 -0.00152256 0)
(2.99319 -0.0014937 0)
(2.99363 -0.000532418 0)
(2.99394 0.000722075 0)
(2.99379 0.000577189 0)
(2.99348 1.68692e-05 0)
(2.99339 -0.000367214 0)
(2.99346 -0.000158841 0)
(2.99351 4.87481e-05 0)
(2.99346 -9.36019e-05 0)
(2.99338 -0.000418299 0)
(2.99333 -0.000570432 0)
(2.99336 -0.000446208 0)
(2.99342 -0.000249379 0)
(2.99345 -7.43611e-05 0)
(2.99345 -4.74772e-05 0)
(2.99344 -0.000110089 0)
(2.99343 -0.000183545 0)
(2.99339 -0.00024775 0)
(2.99339 -0.000201699 0)
(2.99334 -9.23169e-06 0)
(2.99335 0.000188133 0)
(2.99335 0.000233878 0)
(2.99333 0.000138977 0)
(2.99333 7.685e-05 0)
(3.08451 -0.307973 0)
(3.08451 -0.307971 0)
(3.08451 -0.307972 0)
(3.08451 -0.307973 0)
(3.08452 -0.307973 0)
(3.08452 -0.307972 0)
(3.08452 -0.307967 0)
(3.08453 -0.307966 0)
(3.08453 -0.307961 0)
(3.08453 -0.307952 0)
(3.08453 -0.307946 0)
(3.08454 -0.307939 0)
(3.08454 -0.307933 0)
(3.08455 -0.307924 0)
(3.08455 -0.307915 0)
(3.08456 -0.307908 0)
(3.08456 -0.307897 0)
(3.08456 -0.307891 0)
(3.08456 -0.307893 0)
(3.08456 -0.307894 0)
(3.08456 -0.307887 0)
(3.08455 -0.307875 0)
(3.08454 -0.307863 0)
(3.08453 -0.30786 0)
(3.08452 -0.307856 0)
(3.0845 -0.307843 0)
(3.08448 -0.307831 0)
(3.08446 -0.307828 0)
(3.08443 -0.307833 0)
(3.08439 -0.307847 0)
(3.08436 -0.307865 0)
(3.08434 -0.307876 0)
(3.0843 -0.307894 0)
(3.08427 -0.30793 0)
(3.08425 -0.307952 0)
(3.08422 -0.30799 0)
(3.08419 -0.308033 0)
(3.08417 -0.308082 0)
(3.08417 -0.30814 0)
(3.08417 -0.308202 0)
(3.08417 -0.308257 0)
(3.08418 -0.308314 0)
(3.08419 -0.308366 0)
(3.08422 -0.308423 0)
(3.08426 -0.308484 0)
(3.08431 -0.308534 0)
(3.08436 -0.308577 0)
(3.08439 -0.308595 0)
(3.0844 -0.308597 0)
(3.0844 -0.308573 0)
(3.08437 -0.308516 0)
(3.08431 -0.308448 0)
(3.08422 -0.308334 0)
(3.08412 -0.308243 0)
(3.08407 -0.308232 0)
(3.08406 -0.308236 0)
(3.08403 -0.308267 0)
(3.08397 -0.308189 0)
(3.08373 -0.307474 0)
(3.08275 -0.304704 0)
(3.08023 -0.296099 0)
(3.07339 -0.275581 0)
(3.06513 -0.242991 0)
(3.04783 -0.177483 0)
(3.04302 -0.147492 0)
(3.02461 -0.0701913 0)
(3.03102 -0.0705248 0)
(3.01297 -0.0337738 0)
(3.01076 -0.0238743 0)
(3.00539 -0.00993768 0)
(2.99778 -0.00178965 0)
(2.99432 0.00584801 0)
(2.99295 0.0041695 0)
(2.99218 0.000114349 0)
(2.99227 -0.00347118 0)
(2.99255 -0.00310113 0)
(2.99372 -0.00115135 0)
(2.99422 0.00125764 0)
(2.99401 0.00109834 0)
(2.99331 -0.000294389 0)