/*--------------------------------*- C++ -*----------------------------------*\
  =========                 |
  \\      /  F ield         | OpenFOAM: The Open Source CFD Toolbox
   \\    /   O peration     | Website:  https://openfoam.org
    \\  /    A nd           | Version:  7
     \\/     M anipulation  |
\*---------------------------------------------------------------------------*/
FoamFile
{
    version     2.0;
    format      ascii;
    class       volVectorField;
    location    "6";
    object      U;
}
// * * * * * * * * * * * * * * * * * * * * * * * * * * * * * * * * * * * * * //

dimensions      [0 1 -1 0 0 0 0];

internalField   nonuniform List<vector> 
90000
(
(2.96896 -1.34089 0)
(2.87635 -1.11051 0)
(2.83938 -0.944855 0)
(2.83405 -0.928416 0)
(2.80696 -0.787713 0)
(2.80451 -0.592397 0)
(2.82577 -0.57545 0)
(2.83363 -0.520363 0)
(2.82817 -0.421518 0)
(2.83059 -0.325424 0)
(2.84817 -0.296425 0)
(2.8426 -0.20592 0)
(2.85081 -0.165488 0)
(2.84356 -0.076189 0)
(2.85426 -0.0523685 0)
(2.84302 0.0299065 0)
(2.84958 0.0562291 0)
(2.84493 0.110756 0)
(2.8456 0.133315 0)
(2.84135 0.172398 0)
(2.84189 0.168175 0)
(2.83834 0.178345 0)
(2.83843 0.18073 0)
(2.83872 0.177482 0)
(2.83852 0.168358 0)
(2.83715 0.165693 0)
(2.83875 0.154956 0)
(2.83862 0.152118 0)
(2.84165 0.146608 0)
(2.84018 0.138332 0)
(2.83717 0.126262 0)
(2.83516 0.121528 0)
(2.83181 0.117634 0)
(2.82539 0.110094 0)
(2.82411 0.107947 0)
(2.82395 0.108141 0)
(2.8248 0.110083 0)
(2.8298 0.115003 0)
(2.83336 0.117551 0)
(2.83223 0.117043 0)
(2.83077 0.114636 0)
(2.83083 0.111641 0)
(2.8296 0.110312 0)
(2.82775 0.102722 0)
(2.82867 0.0997038 0)
(2.8309 0.0896715 0)
(2.83323 0.0912818 0)
(2.83648 0.0950163 0)
(2.84211 0.105815 0)
(2.84511 0.112403 0)
(2.85354 0.124032 0)
(2.85524 0.125814 0)
(2.85582 0.122923 0)
(2.85527 0.117125 0)
(2.85553 0.109902 0)
(2.85505 0.098614 0)
(2.85794 0.0953561 0)
(2.86026 0.0990619 0)
(2.86444 0.107395 0)
(2.8718 0.120178 0)
(2.87487 0.12247 0)
(2.87683 0.119511 0)
(2.87787 0.112927 0)
(2.87807 0.104086 0)
(2.88058 0.0971692 0)
(2.88258 0.102084 0)
(2.8855 0.111719 0)
(2.89238 0.120926 0)
(2.89368 0.118981 0)
(2.89472 0.114235 0)
(2.89572 0.100025 0)
(2.89765 0.102591 0)
(2.89941 0.107329 0)
(2.90441 0.111128 0)
(2.9062 0.108698 0)
(2.90728 0.10266 0)
(2.90946 0.0998072 0)
(2.91177 0.103545 0)
(2.91556 0.108147 0)
(2.9172 0.106 0)
(2.91888 0.102559 0)
(2.92016 0.0979372 0)
(2.9222 0.100471 0)
(2.92459 0.103065 0)
(2.92678 0.102545 0)
(2.92856 0.101657 0)
(2.93001 0.099548 0)
(2.93241 0.0980779 0)
(2.93412 0.0965373 0)
(2.93613 0.0925415 0)
(2.93743 0.0840955 0)
(2.93846 0.0770466 0)
(2.93955 0.0733889 0)
(2.94041 0.0696375 0)
(2.94113 0.0655674 0)
(2.94187 0.0614172 0)
(2.94175 0.0554051 0)
(2.94269 0.0507889 0)
(2.94396 0.0470746 0)
(2.9454 0.0449612 0)
(3.07339 -1.47875 0)
(3.0733 -1.47864 0)
(3.07317 -1.47857 0)
(3.07305 -1.47842 0)
(3.07286 -1.47837 0)
(3.07271 -1.47815 0)
(3.07242 -1.47816 0)
(3.07225 -1.47782 0)
(3.07193 -1.47805 0)
(3.07071 -1.47526 0)
(3.06643 -1.46698 0)
(3.05711 -1.44369 0)
(3.04342 -1.40938 0)
(3.02339 -1.34415 0)
(3.00111 -1.2783 0)
(2.96986 -1.15989 0)
(2.94295 -1.05999 0)
(2.90675 -0.900592 0)
(2.88203 -0.785429 0)
(2.84355 -0.59984 0)
(2.83106 -0.510521 0)
(2.79093 -0.334027 0)
(2.7908 -0.26828 0)
(2.75912 -0.130918 0)
(2.76381 -0.0905909 0)
(2.73716 0.0120993 0)
(2.74337 0.0337803 0)
(2.72704 0.100975 0)
(2.73408 0.110308 0)
(2.72548 0.14778 0)
(2.72668 0.158664 0)
(2.72801 0.175866 0)
(2.72731 0.190031 0)
(2.73253 0.206919 0)
(2.73653 0.219189 0)
(2.74451 0.22273 0)
(2.74928 0.214839 0)
(2.75431 0.198522 0)
(2.75632 0.173483 0)
(2.74914 0.138818 0)
(2.75255 0.121365 0)
(2.75751 0.100471 0)
(2.76041 0.0807766 0)
(2.76648 0.070589 0)
(2.77406 0.0826012 0)
(2.77776 0.0997756 0)
(2.78678 0.123925 0)
(2.7814 0.145531 0)
(2.7853 0.161745 0)
(2.78668 0.161405 0)
(2.78689 0.155217 0)
(2.78404 0.138963 0)
(2.78554 0.12441 0)
(2.78603 0.107946 0)
(2.79131 0.101129 0)
(2.79693 0.107841 0)
(2.80573 0.120001 0)
(2.81192 0.133538 0)
(2.81776 0.142505 0)
(2.82172 0.141808 0)
(2.8234 0.133787 0)
(2.82285 0.121331 0)
(2.8255 0.111587 0)
(2.8303 0.108646 0)
(2.83676 0.115192 0)
(2.84254 0.122335 0)
(2.84622 0.120928 0)
(2.85031 0.114744 0)
(2.85336 0.109404 0)
(2.8561 0.101034 0)
(2.85972 0.104643 0)
(2.86444 0.110484 0)
(2.86856 0.111297 0)
(2.87321 0.109187 0)
(2.87665 0.107169 0)
(2.87918 0.103265 0)
(2.88261 0.104851 0)
(2.8873 0.104774 0)
(2.89209 0.102701 0)
(2.89549 0.103046 0)
(2.89806 0.101108 0)
(2.90026 0.101995 0)
(2.90368 0.0993133 0)
(2.9075 0.097837 0)
(2.91079 0.0972977 0)
(2.91356 0.0950825 0)
(2.91597 0.0913453 0)
(2.91948 0.0899824 0)
(2.92229 0.0902888 0)
(2.92483 0.0904658 0)
(2.9265 0.0887799 0)
(2.92863 0.0855044 0)
(2.93053 0.0823334 0)
(2.93191 0.0775879 0)
(2.93323 0.0722346 0)
(2.93401 0.0669038 0)
(2.93429 0.0609755 0)
(2.93535 0.0552852 0)
(2.93653 0.0483325 0)
(2.93779 0.0407987 0)
(3.0699 -1.47755 0)
(3.06951 -1.47754 0)
(3.06921 -1.47729 0)
(3.06874 -1.47729 0)
(3.0684 -1.477 0)
(3.06787 -1.47704 0)
(3.06754 -1.47668 0)
(3.06695 -1.47678 0)
(3.06662 -1.47639 0)
(3.06594 -1.47653 0)
(3.06572 -1.47624 0)
(3.06552 -1.47596 0)
(3.06532 -1.47568 0)
(3.06507 -1.4755 0)
(3.06485 -1.47525 0)
(3.0645 -1.47522 0)
(3.0643 -1.47488 0)
(3.06385 -1.47505 0)
(3.06371 -1.47454 0)
(3.06328 -1.4751 0)
(3.06083 -1.4698 0)
(3.0481 -1.4416 0)
(3.02562 -1.38901 0)
(2.98888 -1.28807 0)
(2.95048 -1.18301 0)
(2.89925 -1.00771 0)
(2.86546 -0.880993 0)
(2.81814 -0.683601 0)
(2.80055 -0.581258 0)
(2.75718 -0.396371 0)
(2.75738 -0.325118 0)
(2.72049 -0.173809 0)
(2.72101 -0.122291 0)
(2.69659 -0.0152465 0)
(2.69738 0.00337448 0)
(2.6863 0.0633112 0)
(2.68866 0.0688964 0)
(2.68985 0.0893779 0)
(2.69241 0.0871133 0)
(2.70512 0.0959428 0)
(2.70817 0.093041 0)
(2.70934 0.0925614 0)
(2.71036 0.0960336 0)
(2.71175 0.102563 0)
(2.71053 0.112123 0)
(2.71217 0.117912 0)
(2.71722 0.112598 0)
(2.71683 0.111623 0)
(2.71347 0.108982 0)
(2.70863 0.107799 0)
(2.70748 0.10558 0)
(2.70469 0.107332 0)
(2.7145 0.103368 0)
(2.71988 0.104054 0)
(2.72896 0.105868 0)
(2.73613 0.111109 0)
(2.74662 0.106535 0)
(2.74882 0.103195 0)
(2.75128 0.101121 0)
(2.75243 0.098084 0)
(2.7531 0.0999403 0)
(2.75276 0.0959382 0)
(2.76296 0.100047 0)
(2.76848 0.1059 0)
(2.77406 0.110584 0)
(2.78109 0.112895 0)
(2.78619 0.113855 0)
(2.78981 0.109467 0)
(2.7936 0.105022 0)
(2.79908 0.101065 0)
(2.80568 0.102347 0)
(2.81187 0.105978 0)
(2.81811 0.108121 0)
(2.82315 0.105555 0)
(2.82723 0.101132 0)
(2.8325 0.0984182 0)
(2.83829 0.100459 0)
(2.84509 0.102921 0)
(2.85118 0.103461 0)
(2.8559 0.100635 0)
(2.85979 0.0995847 0)
(2.86463 0.096454 0)
(2.8704 0.0990999 0)
(2.87572 0.100878 0)
(2.88025 0.0993079 0)
(2.88436 0.0943033 0)
(2.8888 0.0944157 0)
(2.89361 0.093735 0)
(2.89797 0.0908675 0)
(2.90181 0.0851931 0)
(2.90491 0.0793734 0)
(2.90856 0.0781251 0)
(2.91141 0.0771926 0)
(2.91376 0.0743488 0)
(2.91575 0.0701355 0)
(2.91691 0.0659348 0)
(2.91786 0.0618466 0)
(2.91919 0.0587139 0)
(2.92031 0.0535837 0)
(2.92204 0.0417265 0)
(3.06524 -1.47625 0)
(3.065 -1.47602 0)
(3.06466 -1.47598 0)
(3.06441 -1.47574 0)
(3.06405 -1.47571 0)
(3.06382 -1.47545 0)
(3.06346 -1.47545 0)
(3.06324 -1.47515 0)
(3.06288 -1.47519 0)
(3.06268 -1.4749 0)
(3.06237 -1.47489 0)
(3.0622 -1.4746 0)
(3.06187 -1.47469 0)
(3.06178 -1.47435 0)
(3.06145 -1.47452 0)
(3.0614 -1.47418 0)
(3.06108 -1.47443 0)
(3.06109 -1.47406 0)
(3.06077 -1.47441 0)
(3.06088 -1.47398 0)
(3.06052 -1.47445 0)
(3.06058 -1.47419 0)
(3.06064 -1.47406 0)
(3.0607 -1.47397 0)
(3.06078 -1.47386 0)
(3.06084 -1.47388 0)
(3.06099 -1.47364 0)
(3.06098 -1.47387 0)
(3.06033 -1.4721 0)
(3.04875 -1.44498 0)
(3.02596 -1.38832 0)
(2.98439 -1.27139 0)
(2.94202 -1.14402 0)
(2.88412 -0.939811 0)
(2.84375 -0.786599 0)
(2.77867 -0.546769 0)
(2.76416 -0.429252 0)
(2.69389 -0.21036 0)
(2.69671 -0.115523 0)
(2.6536 0.042148 0)
(2.66188 0.0967262 0)
(2.6353 0.174379 0)
(2.62415 0.198237 0)
(2.62992 0.218373 0)
(2.63554 0.209771 0)
(2.63757 0.193376 0)
(2.64753 0.156828 0)
(2.66261 0.12309 0)
(2.66452 0.0964594 0)
(2.6663 0.0849959 0)
(2.6686 0.0830512 0)
(2.66759 0.0854286 0)
(2.67565 0.102595 0)
(2.68003 0.1194 0)
(2.6828 0.139852 0)
(2.68553 0.145906 0)
(2.68404 0.141801 0)
(2.68358 0.134132 0)
(2.68085 0.119702 0)
(2.6828 0.110197 0)
(2.68584 0.103184 0)
(2.69458 0.108643 0)
(2.70084 0.115912 0)
(2.70903 0.11872 0)
(2.71365 0.116283 0)
(2.71668 0.108383 0)
(2.72095 0.102905 0)
(2.72492 0.100603 0)
(2.72919 0.104068 0)
(2.73558 0.109883 0)
(2.74408 0.114083 0)
(2.75017 0.110051 0)
(2.75591 0.107473 0)
(2.76051 0.104389 0)
(2.7646 0.102438 0)
(2.77294 0.101245 0)
(2.78068 0.103607 0)
(2.7881 0.105812 0)
(2.79432 0.105035 0)
(2.79981 0.101931 0)
(2.80588 0.0971215 0)
(2.81344 0.0992485 0)
(2.82085 0.100081 0)
(2.82756 0.0979944 0)
(2.83345 0.0940422 0)
(2.83932 0.0929268 0)
(2.84601 0.0910836 0)
(2.85242 0.0914953 0)
(2.85847 0.0895845 0)
(2.86382 0.0861958 0)
(2.86869 0.0798747 0)
(2.87396 0.0778004 0)
(2.87862 0.0726155 0)
(2.88249 0.0668729 0)
(2.88544 0.0621625 0)
(2.88734 0.0584344 0)
(2.8893 0.0539044 0)
(2.89095 0.0497505 0)
(2.89248 0.0483773 0)
(2.89497 0.0443755 0)
(3.06232 -1.47416 0)
(3.06212 -1.4742 0)
(3.06204 -1.47402 0)
(3.06183 -1.47408 0)
(3.06175 -1.4739 0)
(3.06156 -1.47397 0)
(3.06148 -1.4738 0)
(3.06132 -1.47387 0)
(3.06127 -1.47371 0)
(3.06112 -1.4738 0)
(3.06111 -1.47362 0)
(3.06097 -1.47371 0)
(3.06096 -1.47357 0)
(3.06088 -1.47362 0)
(3.06089 -1.47351 0)
(3.06082 -1.47359 0)
(3.06086 -1.47344 0)
(3.06082 -1.47346 0)
(3.06084 -1.47341 0)
(3.06086 -1.47341 0)
(3.06088 -1.47345 0)
(3.06096 -1.47337 0)
(3.06097 -1.47347 0)
(3.06108 -1.47335 0)
(3.0611 -1.47349 0)
(3.06125 -1.47334 0)
(3.06126 -1.47349 0)
(3.06141 -1.47331 0)
(3.06139 -1.47363 0)
(3.06147 -1.47346 0)
(3.06151 -1.47345 0)
(3.06161 -1.47335 0)
(3.06156 -1.47351 0)
(3.06169 -1.47334 0)
(3.06147 -1.47387 0)
(3.06023 -1.47105 0)
(3.04792 -1.44074 0)
(3.00597 -1.33929 0)
(2.95514 -1.18931 0)
(2.88672 -0.955288 0)
(2.84262 -0.754443 0)
(2.78508 -0.499044 0)
(2.7684 -0.356279 0)
(2.7197 -0.158441 0)
(2.70832 -0.0742736 0)
(2.67659 0.000907919 0)
(2.67445 0.0270725 0)
(2.65697 0.0567175 0)
(2.66157 0.0743656 0)
(2.66341 0.0768941 0)
(2.66346 0.0818879 0)
(2.65973 0.0913504 0)
(2.65248 0.106907 0)
(2.65272 0.12089 0)
(2.65123 0.123932 0)
(2.64664 0.121642 0)
(2.64343 0.116664 0)
(2.64417 0.107662 0)
(2.64484 0.10269 0)
(2.65233 0.0945349 0)
(2.65763 0.0957951 0)
(2.66659 0.104609 0)
(2.66999 0.11416 0)
(2.67205 0.116173 0)
(2.6723 0.11505 0)
(2.67009 0.109221 0)
(2.67591 0.100889 0)
(2.67921 0.0924786 0)
(2.68428 0.0941528 0)
(2.68975 0.099325 0)
(2.69493 0.106038 0)
(2.70004 0.109663 0)
(2.70094 0.10164 0)
(2.70573 0.0961521 0)
(2.71055 0.0960846 0)
(2.71816 0.10089 0)
(2.72571 0.103483 0)
(2.73145 0.0993789 0)
(2.73657 0.094566 0)
(2.74289 0.092393 0)
(2.74974 0.0976435 0)
(2.7575 0.100052 0)
(2.7649 0.101123 0)
(2.77152 0.0988154 0)
(2.77781 0.094928 0)
(2.78497 0.0907284 0)
(2.79275 0.0919497 0)
(2.80007 0.0877028 0)
(2.80678 0.0852131 0)
(2.81309 0.0819011 0)
(2.8197 0.079138 0)
(2.8265 0.0773877 0)
(2.83258 0.0749466 0)
(2.83748 0.0694172 0)
(2.84135 0.0634131 0)
(2.84463 0.0578576 0)
(2.84746 0.0552103 0)
(2.84964 0.0510505 0)
(2.8515 0.0452191 0)
(2.85515 0.0378108 0)
(3.06082 -1.47374 0)
(3.06081 -1.4737 0)
(3.06077 -1.47372 0)
(3.06075 -1.4737 0)
(3.06072 -1.47372 0)
(3.06072 -1.47367 0)
(3.0607 -1.4737 0)
(3.06073 -1.47362 0)
(3.06072 -1.47367 0)
(3.06075 -1.47364 0)
(3.06076 -1.47362 0)
(3.06077 -1.47362 0)
(3.06079 -1.4736 0)
(3.06082 -1.4736 0)
(3.06085 -1.47359 0)
(3.06086 -1.47364 0)
(3.06091 -1.47357 0)
(3.06092 -1.4736 0)
(3.061 -1.4735 0)
(3.06101 -1.47358 0)
(3.0611 -1.47351 0)
(3.06112 -1.4736 0)
(3.0612 -1.47353 0)
(3.06122 -1.47362 0)
(3.06133 -1.47351 0)
(3.06137 -1.47359 0)
(3.06149 -1.47345 0)
(3.0615 -1.4735 0)
(3.06153 -1.47353 0)
(3.06156 -1.47354 0)
(3.0616 -1.47352 0)
(3.06156 -1.47359 0)
(3.06149 -1.47368 0)
(3.06141 -1.47373 0)
(3.0612 -1.47397 0)
(3.06116 -1.474 0)
(3.06115 -1.47406 0)
(3.06123 -1.47397 0)
(3.06128 -1.47406 0)
(3.06143 -1.47392 0)
(3.06147 -1.47403 0)
(3.05603 -1.45859 0)
(3.03091 -1.38622 0)
(2.96511 -1.17391 0)
(2.90532 -0.949889 0)
(2.79845 -0.567935 0)
(2.79691 -0.407037 0)
(2.7071 -0.120638 0)
(2.7178 -0.0368905 0)
(2.66136 0.106473 0)
(2.647 0.13542 0)
(2.64163 0.179841 0)
(2.63319 0.174061 0)
(2.62827 0.157242 0)
(2.63687 0.123637 0)
(2.64123 0.105377 0)
(2.64269 0.103659 0)
(2.6434 0.098366 0)
(2.6447 0.0985766 0)
(2.64926 0.100881 0)
(2.65711 0.113227 0)
(2.66144 0.115019 0)
(2.66069 0.114213 0)
(2.65824 0.110014 0)
(2.65621 0.102267 0)
(2.65267 0.0984408 0)
(2.65585 0.103282 0)
(2.65891 0.105118 0)
(2.66376 0.110318 0)
(2.67097 0.107318 0)
(2.67162 0.103632 0)
(2.67154 0.101607 0)
(2.66943 0.102069 0)
(2.675 0.0979286 0)
(2.67931 0.100041 0)
(2.68608 0.102471 0)
(2.68944 0.103549 0)
(2.69182 0.10273 0)
(2.69582 0.0985713 0)
(2.70278 0.0948154 0)
(2.70932 0.0959842 0)
(2.71474 0.0965516 0)
(2.71954 0.0936898 0)
(2.72395 0.090878 0)
(2.72931 0.0904271 0)
(2.736 0.091216 0)
(2.74286 0.0900793 0)
(2.74922 0.0917503 0)
(2.75466 0.0853073 0)
(2.76071 0.0796762 0)
(2.76734 0.0781759 0)
(2.77487 0.0766333 0)
(2.78112 0.0691016 0)
(2.78602 0.0646051 0)
(2.79001 0.0606744 0)
(2.79431 0.0564749 0)
(2.79753 0.0514086 0)
(2.80008 0.0482913 0)
(2.80232 0.044178 0)
(2.80696 0.0380267 0)
(3.06077 -1.47349 0)
(3.06081 -1.47348 0)
(3.06083 -1.4735 0)
(3.06085 -1.4735 0)
(3.06088 -1.47351 0)
(3.06092 -1.4735 0)
(3.06096 -1.47351 0)
(3.06102 -1.4735 0)
(3.06106 -1.47351 0)
(3.06111 -1.47347 0)
(3.06114 -1.47347 0)
(3.06118 -1.47343 0)
(3.0612 -1.47344 0)
(3.06127 -1.47337 0)
(3.06127 -1.47343 0)
(3.06131 -1.47339 0)
(3.06132 -1.47342 0)
(3.06137 -1.47335 0)
(3.06139 -1.47337 0)
(3.06145 -1.47329 0)
(3.06148 -1.47331 0)
(3.06151 -1.47332 0)
(3.06154 -1.47334 0)
(3.06158 -1.47334 0)
(3.06162 -1.47333 0)
(3.06165 -1.47335 0)
(3.06169 -1.47332 0)
(3.06169 -1.47332 0)
(3.06166 -1.47338 0)
(3.06158 -1.47351 0)
(3.06158 -1.47351 0)
(3.06147 -1.47363 0)
(3.06137 -1.47368 0)
(3.06118 -1.47386 0)
(3.06111 -1.47389 0)
(3.06103 -1.4741 0)
(3.0611 -1.47414 0)
(3.06119 -1.47415 0)
(3.06133 -1.4741 0)
(3.06148 -1.47406 0)
(3.06163 -1.47406 0)
(3.06176 -1.47395 0)
(3.06184 -1.47395 0)
(3.06189 -1.47396 0)
(3.06193 -1.47391 0)
(3.06198 -1.47388 0)
(3.04648 -1.42845 0)
(2.98806 -1.25399 0)
(2.93205 -1.02245 0)
(2.85206 -0.676858 0)
(2.83455 -0.497804 0)
(2.76671 -0.222067 0)
(2.76106 -0.129794 0)
(2.70609 -0.0154527 0)
(2.69427 0.023225 0)
(2.6754 0.0573192 0)
(2.6736 0.0716677 0)
(2.66449 0.090146 0)
(2.65901 0.107742 0)
(2.65114 0.119972 0)
(2.65376 0.131707 0)
(2.65172 0.126257 0)
(2.649 0.111136 0)
(2.64499 0.0937506 0)
(2.65101 0.0881441 0)
(2.6536 0.0906152 0)
(2.65711 0.098353 0)
(2.65851 0.104253 0)
(2.66335 0.109882 0)
(2.66466 0.108338 0)
(2.66449 0.104 0)
(2.66309 0.0963972 0)
(2.66324 0.0962535 0)
(2.66582 0.0995172 0)
(2.67015 0.103864 0)
(2.67511 0.103033 0)
(2.67656 0.099499 0)
(2.67752 0.0930987 0)
(2.68079 0.0936519 0)
(2.68313 0.0959395 0)
(2.6905 0.09935 0)
(2.69226 0.0993335 0)
(2.69365 0.0971892 0)
(2.69576 0.0926734 0)
(2.70055 0.0881652 0)
(2.70501 0.0872988 0)
(2.70932 0.0868252 0)
(2.71317 0.0820283 0)
(2.71616 0.0820759 0)
(2.72054 0.0776675 0)
(2.72606 0.0720324 0)
(2.73129 0.0717498 0)
(2.73617 0.0682327 0)
(2.73998 0.0614973 0)
(2.74348 0.0594027 0)
(2.74733 0.0567146 0)
(2.75082 0.0537757 0)
(2.75323 0.0484142 0)
(2.7558 0.0457242 0)
(2.76108 0.0382707 0)
(3.06105 -1.47377 0)
(3.06108 -1.47377 0)
(3.06111 -1.47377 0)
(3.06114 -1.47378 0)
(3.06119 -1.47375 0)
(3.06124 -1.47376 0)
(3.06131 -1.47372 0)
(3.06135 -1.47375 0)
(3.0614 -1.47372 0)
(3.06142 -1.47373 0)
(3.06145 -1.47367 0)
(3.06146 -1.47366 0)
(3.0615 -1.4736 0)
(3.06152 -1.47358 0)
(3.06155 -1.47354 0)
(3.06156 -1.47354 0)
(3.06157 -1.47353 0)
(3.06156 -1.47355 0)
(3.06157 -1.47355 0)
(3.06157 -1.47355 0)
(3.06162 -1.47347 0)
(3.06161 -1.47349 0)
(3.06161 -1.47352 0)
(3.06163 -1.47351 0)
(3.06161 -1.47354 0)
(3.0616 -1.47356 0)
(3.06155 -1.47364 0)
(3.06158 -1.47355 0)
(3.06144 -1.47371 0)
(3.06139 -1.47375 0)
(3.06131 -1.47387 0)
(3.06129 -1.47385 0)
(3.06112 -1.47399 0)
(3.06103 -1.47401 0)
(3.061 -1.47408 0)
(3.06109 -1.47417 0)
(3.06123 -1.47419 0)
(3.06134 -1.47412 0)
(3.06151 -1.47406 0)
(3.06166 -1.474 0)
(3.06181 -1.47398 0)
(3.06194 -1.47396 0)
(3.06202 -1.47396 0)
(3.06206 -1.47399 0)
(3.0621 -1.47402 0)
(3.06226 -1.474 0)
(3.0623 -1.47399 0)
(3.06238 -1.47398 0)
(3.0625 -1.47387 0)
(3.06248 -1.47388 0)
(3.05329 -1.4418 0)
(2.99848 -1.25635 0)
(2.94531 -1.00056 0)
(2.84089 -0.578 0)
(2.83627 -0.3933 0)
(2.73514 -0.0888647 0)
(2.73231 -0.00307674 0)
(2.69588 0.10121 0)
(2.65916 0.163398 0)
(2.65544 0.162384 0)
(2.65022 0.143584 0)
(2.65546 0.124041 0)
(2.65278 0.10339 0)
(2.65516 0.0998518 0)
(2.66044 0.0962539 0)
(2.66487 0.098692 0)
(2.66493 0.104834 0)
(2.66696 0.111676 0)
(2.66651 0.110986 0)
(2.66339 0.104609 0)
(2.66289 0.0977008 0)
(2.66352 0.0930908 0)
(2.66668 0.0955405 0)
(2.66971 0.101614 0)
(2.67367 0.10623 0)
(2.67339 0.103736 0)
(2.67236 0.0961943 0)
(2.67483 0.0909012 0)
(2.6771 0.0939071 0)
(2.67984 0.0981382 0)
(2.68449 0.0977845 0)
(2.68509 0.0958049 0)
(2.68525 0.0913433 0)
(2.6862 0.0890738 0)
(2.68936 0.0909604 0)
(2.69156 0.0905128 0)
(2.6932 0.0882913 0)
(2.69484 0.0851768 0)
(2.69643 0.0785551 0)
(2.69851 0.0776075 0)
(2.70205 0.0760238 0)
(2.70403 0.0685362 0)
(2.70628 0.0657547 0)
(2.70895 0.060376 0)
(2.71222 0.0552155 0)
(2.71494 0.0521269 0)
(2.7175 0.0496812 0)
(2.71976 0.0448446 0)
(2.7225 0.0408208 0)
(2.72734 0.0376656 0)
(3.06151 -1.47365 0)
(3.06152 -1.47364 0)
(3.06155 -1.47363 0)
(3.06161 -1.4736 0)
(3.06167 -1.47354 0)
(3.06171 -1.47349 0)
(3.06177 -1.47347 0)
(3.06181 -1.47347 0)
(3.06183 -1.47344 0)
(3.06183 -1.4734 0)
(3.06182 -1.47338 0)
(3.06182 -1.47335 0)
(3.06182 -1.47332 0)
(3.06182 -1.47332 0)
(3.0618 -1.47334 0)
(3.06181 -1.47332 0)
(3.0618 -1.4733 0)
(3.06177 -1.47331 0)
(3.06175 -1.4733 0)
(3.06171 -1.47335 0)
(3.06172 -1.47333 0)
(3.06169 -1.47337 0)
(3.06165 -1.47344 0)
(3.06165 -1.47345 0)
(3.06164 -1.47345 0)
(3.06158 -1.47353 0)
(3.06156 -1.47355 0)
(3.06153 -1.47357 0)
(3.06151 -1.47357 0)
(3.06142 -1.47373 0)
(3.06141 -1.47377 0)
(3.06139 -1.47379 0)
(3.06137 -1.47374 0)
(3.06125 -1.47386 0)
(3.0613 -1.47397 0)
(3.06144 -1.47394 0)
(3.06152 -1.47392 0)
(3.06163 -1.47391 0)
(3.06185 -1.47392 0)
(3.06194 -1.47389 0)
(3.06202 -1.47389 0)
(3.06208 -1.47391 0)
(3.0621 -1.47396 0)
(3.06207 -1.47404 0)
(3.06213 -1.47413 0)
(3.06233 -1.47425 0)
(3.0624 -1.47428 0)
(3.06267 -1.4743 0)
(3.06287 -1.47422 0)
(3.06293 -1.47405 0)
(3.06282 -1.47392 0)
(3.06269 -1.47378 0)
(3.0625 -1.47365 0)
(3.06231 -1.47405 0)
(3.04395 -1.40916 0)
(2.97328 -1.16505 0)
(2.91592 -0.866851 0)
(2.85101 -0.528901 0)
(2.80126 -0.270702 0)
(2.77635 -0.12433 0)
(2.71312 0.00206064 0)
(2.70757 0.0415256 0)
(2.68798 0.0720391 0)
(2.686 0.0943803 0)
(2.67976 0.102423 0)
(2.67333 0.111842 0)
(2.67111 0.116919 0)
(2.6676 0.111694 0)
(2.66401 0.101335 0)
(2.6587 0.0869404 0)
(2.66485 0.0875013 0)
(2.66814 0.0933327 0)
(2.67319 0.10249 0)
(2.67651 0.109319 0)
(2.67563 0.107246 0)
(2.67191 0.0980035 0)
(2.67018 0.0875275 0)
(2.67349 0.0901156 0)
(2.6777 0.0965497 0)
(2.68197 0.101276 0)
(2.68211 0.0993346 0)
(2.6821 0.0933815 0)
(2.68313 0.0883389 0)
(2.68418 0.0880021 0)
(2.68709 0.0890919 0)
(2.68807 0.0888762 0)
(2.68853 0.0860054 0)
(2.68907 0.0816498 0)
(2.69021 0.0779168 0)
(2.69101 0.0733554 0)
(2.69174 0.0725565 0)
(2.69193 0.0698905 0)
(2.69224 0.0639338 0)
(2.69351 0.0620694 0)
(2.69645 0.0564846 0)
(2.69756 0.0488019 0)
(2.69961 0.0466126 0)
(2.70157 0.0455362 0)
(2.70433 0.0408286 0)
(2.70829 0.0343031 0)
(3.06168 -1.47364 0)
(3.0617 -1.47365 0)
(3.06171 -1.47365 0)
(3.06177 -1.47365 0)
(3.06182 -1.47363 0)
(3.06185 -1.47363 0)
(3.06188 -1.47361 0)
(3.06187 -1.47359 0)
(3.06184 -1.47358 0)
(3.06182 -1.47354 0)
(3.06177 -1.47357 0)
(3.06173 -1.47356 0)
(3.06169 -1.47358 0)
(3.06166 -1.47357 0)
(3.06161 -1.47363 0)
(3.06159 -1.47365 0)
(3.06157 -1.47366 0)
(3.06152 -1.47372 0)
(3.06149 -1.47376 0)
(3.06148 -1.47377 0)
(3.06149 -1.47375 0)
(3.06149 -1.47378 0)
(3.06148 -1.47386 0)
(3.0615 -1.47382 0)
(3.06151 -1.47382 0)
(3.06151 -1.47384 0)
(3.06152 -1.47385 0)
(3.06153 -1.47383 0)
(3.06155 -1.47379 0)
(3.06156 -1.47384 0)
(3.06158 -1.47387 0)
(3.06162 -1.47381 0)
(3.06159 -1.47381 0)
(3.06156 -1.47383 0)
(3.06163 -1.47382 0)
(3.06169 -1.47384 0)
(3.06172 -1.47386 0)
(3.06191 -1.47384 0)
(3.06211 -1.47387 0)
(3.06215 -1.47387 0)
(3.06217 -1.47389 0)
(3.06215 -1.47394 0)
(3.06204 -1.47406 0)
(3.06196 -1.47426 0)
(3.06211 -1.47442 0)
(3.06238 -1.47455 0)
(3.06248 -1.47457 0)
(3.06293 -1.47462 0)
(3.06317 -1.47456 0)
(3.0633 -1.47434 0)
(3.06326 -1.47402 0)
(3.06311 -1.47353 0)
(3.06278 -1.47332 0)
(3.0624 -1.47357 0)
(3.0623 -1.47429 0)
(3.06236 -1.47478 0)
(3.06257 -1.47531 0)
(3.05755 -1.459 0)
(3.01701 -1.29726 0)
(2.95265 -0.99118 0)
(2.82595 -0.499148 0)
(2.84477 -0.316785 0)
(2.72735 0.00047702 0)
(2.71274 0.0685457 0)
(2.67344 0.134394 0)
(2.67484 0.152955 0)
(2.67009 0.126453 0)
(2.66872 0.108948 0)
(2.66925 0.0971781 0)
(2.67178 0.0943204 0)
(2.67402 0.0957153 0)
(2.67987 0.111815 0)
(2.68012 0.114868 0)
(2.67739 0.110221 0)
(2.67372 0.0994717 0)
(2.67016 0.0881206 0)
(2.67187 0.0896944 0)
(2.67759 0.0979502 0)
(2.68167 0.103925 0)
(2.6818 0.10314 0)
(2.68044 0.0968204 0)
(2.67978 0.0892822 0)
(2.68114 0.0881485 0)
(2.6835 0.0897367 0)
(2.68646 0.090303 0)
(2.68691 0.0882569 0)
(2.68701 0.0837441 0)
(2.68783 0.0796869 0)
(2.68887 0.0771426 0)
(2.68914 0.0746735 0)
(2.68913 0.0710189 0)
(2.6886 0.0665957 0)
(2.68851 0.0619527 0)
(2.68849 0.059764 0)
(2.69017 0.0583445 0)
(2.69093 0.0536793 0)
(2.69243 0.048058 0)
(2.69431 0.043852 0)
(2.69666 0.0424133 0)
(2.69931 0.0359645 0)
(3.06182 -1.4734 0)
(3.06185 -1.47337 0)
(3.06188 -1.47337 0)
(3.06189 -1.4734 0)
(3.0619 -1.4734 0)
(3.06187 -1.47344 0)
(3.06184 -1.47346 0)
(3.06179 -1.47349 0)
(3.06172 -1.47355 0)
(3.06168 -1.47355 0)
(3.06158 -1.47362 0)
(3.06151 -1.47368 0)
(3.06148 -1.47367 0)
(3.06143 -1.47373 0)
(3.06142 -1.47374 0)
(3.06142 -1.47376 0)
(3.06144 -1.47373 0)
(3.06143 -1.47377 0)
(3.06145 -1.4738 0)
(3.06151 -1.47378 0)
(3.06157 -1.47377 0)
(3.0616 -1.47384 0)
(3.06166 -1.47383 0)
(3.06172 -1.47378 0)
(3.06179 -1.47375 0)
(3.06182 -1.47375 0)
(3.06184 -1.47373 0)
(3.06186 -1.4737 0)
(3.06187 -1.47371 0)
(3.0619 -1.47371 0)
(3.06193 -1.47367 0)
(3.06197 -1.47364 0)
(3.06189 -1.47365 0)
(3.06184 -1.47367 0)
(3.06185 -1.47368 0)
(3.06189 -1.4737 0)
(3.06201 -1.47372 0)
(3.06219 -1.47378 0)
(3.06229 -1.47383 0)
(3.0623 -1.47384 0)
(3.0623 -1.47385 0)
(3.06221 -1.47389 0)
(3.06193 -1.4741 0)
(3.06191 -1.47436 0)
(3.06214 -1.47458 0)
(3.06237 -1.47475 0)
(3.06251 -1.47477 0)
(3.06303 -1.47489 0)
(3.06333 -1.47484 0)
(3.0636 -1.47454 0)
(3.06371 -1.474 0)
(3.06354 -1.47333 0)
(3.06313 -1.47316 0)
(3.06267 -1.47343 0)
(3.06222 -1.47414 0)
(3.06202 -1.47492 0)
(3.06213 -1.47643 0)
(3.06249 -1.47607 0)
(3.06326 -1.47472 0)
(3.06292 -1.47526 0)
(3.06016 -1.46793 0)
(3.02976 -1.34094 0)
(2.93686 -0.982253 0)
(2.8739 -0.627883 0)
(2.80771 -0.303912 0)
(2.73954 -0.0463798 0)
(2.7307 -0.00207546 0)
(2.69288 0.0549708 0)
(2.69249 0.0760486 0)
(2.69192 0.0969254 0)
(2.68075 0.116701 0)
(2.67576 0.124721 0)
(2.67006 0.116212 0)
(2.6659 0.0963227 0)
(2.66736 0.0766488 0)
(2.66961 0.0818522 0)
(2.67696 0.0960955 0)
(2.68097 0.107102 0)
(2.6818 0.104511 0)
(2.67926 0.0980563 0)
(2.67658 0.087436 0)
(2.67776 0.0869711 0)
(2.68051 0.0888026 0)
(2.68375 0.0914806 0)
(2.68452 0.0895995 0)
(2.68474 0.0850085 0)
(2.68516 0.0798266 0)
(2.6864 0.077946 0)
(2.68699 0.0761118 0)
(2.68756 0.0731439 0)
(2.68738 0.068347 0)
(2.68627 0.063174 0)
(2.687 0.0607616 0)
(2.68726 0.0580153 0)
(2.68849 0.0559509 0)
(2.68908 0.0517125 0)
(2.68977 0.0478084 0)
(2.69158 0.0430729 0)
(2.69321 0.0407877 0)
(2.69516 0.0362163 0)
(3.06178 -1.4734 0)
(3.06178 -1.47341 0)
(3.06178 -1.47341 0)
(3.06173 -1.47348 0)
(3.0617 -1.47352 0)
(3.06164 -1.4736 0)
(3.06161 -1.47364 0)
(3.06158 -1.47365 0)
(3.06149 -1.47372 0)
(3.06141 -1.47375 0)
(3.06132 -1.47382 0)
(3.06128 -1.47388 0)
(3.06129 -1.47391 0)
(3.06128 -1.474 0)
(3.06131 -1.47405 0)
(3.06135 -1.47405 0)
(3.06138 -1.47406 0)
(3.06147 -1.47407 0)
(3.06151 -1.47406 0)
(3.06163 -1.47404 0)
(3.0617 -1.47403 0)
(3.06178 -1.47401 0)
(3.06181 -1.47402 0)
(3.06191 -1.47397 0)
(3.06202 -1.4739 0)
(3.06206 -1.47387 0)
(3.06206 -1.47384 0)
(3.06206 -1.47381 0)
(3.06206 -1.47379 0)
(3.06205 -1.47378 0)
(3.06206 -1.47373 0)
(3.06211 -1.47372 0)
(3.06217 -1.47373 0)
(3.06222 -1.47374 0)
(3.0623 -1.47376 0)
(3.0624 -1.47377 0)
(3.06249 -1.47379 0)
(3.06254 -1.47384 0)
(3.06257 -1.47388 0)
(3.06257 -1.47387 0)
(3.06254 -1.47381 0)
(3.06227 -1.47379 0)
(3.06179 -1.47414 0)
(3.06182 -1.47451 0)
(3.06213 -1.47481 0)
(3.06234 -1.47499 0)
(3.06249 -1.47502 0)
(3.06295 -1.47515 0)
(3.06329 -1.4751 0)
(3.06371 -1.47478 0)
(3.064 -1.47402 0)
(3.06385 -1.47336 0)
(3.06339 -1.47296 0)
(3.06281 -1.47339 0)
(3.06239 -1.4738 0)
(3.06154 -1.47511 0)
(3.06131 -1.47694 0)
(3.0617 -1.47741 0)
(3.06245 -1.47621 0)
(3.06289 -1.4751 0)
(3.06266 -1.47506 0)
(3.06246 -1.47521 0)
(3.06204 -1.47639 0)
(3.06201 -1.47695 0)
(3.02016 -1.32722 0)
(2.91673 -0.911076 0)
(2.86503 -0.526939 0)
(2.73494 -0.0930148 0)
(2.75671 0.00117336 0)
(2.68255 0.147505 0)
(2.67382 0.15876 0)
(2.66349 0.136046 0)
(2.66918 0.110728 0)
(2.67039 0.0890697 0)
(2.67179 0.0844888 0)
(2.68131 0.0980056 0)
(2.68465 0.115746 0)
(2.68129 0.109872 0)
(2.67734 0.101552 0)
(2.67542 0.0930867 0)
(2.67561 0.0895567 0)
(2.67789 0.0908733 0)
(2.67929 0.092371 0)
(2.68216 0.0908876 0)
(2.68184 0.0868261 0)
(2.682 0.082916 0)
(2.6835 0.0794374 0)
(2.68423 0.0781419 0)
(2.68425 0.0756494 0)
(2.68445 0.0720023 0)
(2.68394 0.0671591 0)
(2.68302 0.0625377 0)
(2.684 0.0612041 0)
(2.68495 0.05746 0)
(2.68662 0.0538438 0)
(2.68759 0.049461 0)
(2.68827 0.0465984 0)
(2.68998 0.0429949 0)
(2.69129 0.0404934 0)
(2.69297 0.0359102 0)
(3.06166 -1.47372 0)
(3.06166 -1.47373 0)
(3.06163 -1.47375 0)
(3.06159 -1.47377 0)
(3.06154 -1.47385 0)
(3.06146 -1.474 0)
(3.06141 -1.47411 0)
(3.06137 -1.47416 0)
(3.06133 -1.47415 0)
(3.0613 -1.47412 0)
(3.0613 -1.47413 0)
(3.06134 -1.47417 0)
(3.06137 -1.47423 0)
(3.0614 -1.47433 0)
(3.06144 -1.47439 0)
(3.06149 -1.47439 0)
(3.06153 -1.47436 0)
(3.06154 -1.47436 0)
(3.06159 -1.47432 0)
(3.06176 -1.47423 0)
(3.06184 -1.47417 0)
(3.06186 -1.47414 0)
(3.0619 -1.47415 0)
(3.06206 -1.47408 0)
(3.06215 -1.47398 0)
(3.06218 -1.47397 0)
(3.0622 -1.47393 0)
(3.06218 -1.47388 0)
(3.06218 -1.47388 0)
(3.06216 -1.47387 0)
(3.06223 -1.47384 0)
(3.0623 -1.47386 0)
(3.06234 -1.47387 0)
(3.06239 -1.47389 0)
(3.06243 -1.47391 0)
(3.06253 -1.4739 0)
(3.06265 -1.47385 0)
(3.06272 -1.47385 0)
(3.0627 -1.47387 0)
(3.06265 -1.47381 0)
(3.06263 -1.47366 0)
(3.0623 -1.47356 0)
(3.06171 -1.47402 0)
(3.06183 -1.47451 0)
(3.06216 -1.47479 0)
(3.06236 -1.47492 0)
(3.0625 -1.47506 0)
(3.06287 -1.47526 0)
(3.06323 -1.47526 0)
(3.06372 -1.47494 0)
(3.06402 -1.47411 0)
(3.06385 -1.47354 0)
(3.06393 -1.47289 0)
(3.06385 -1.47276 0)
(3.0625 -1.47345 0)
(3.06094 -1.47546 0)
(3.06087 -1.47742 0)
(3.06141 -1.4779 0)
(3.06224 -1.47706 0)
(3.0628 -1.47556 0)
(3.06299 -1.47464 0)
(3.06313 -1.47338 0)
(3.06289 -1.47387 0)
(3.06232 -1.47495 0)
(3.06309 -1.47525 0)
(3.06386 -1.47406 0)
(3.05815 -1.45498 0)
(2.98665 -1.2167 0)
(2.91679 -0.810838 0)
(2.81294 -0.369059 0)
(2.78429 -0.150493 0)
(2.71619 -0.000773365 0)
(2.71374 0.0324854 0)
(2.70189 0.0724642 0)
(2.68845 0.0997346 0)
(2.67878 0.12306 0)
(2.67322 0.119442 0)
(2.67019 0.10307 0)
(2.6634 0.0817995 0)
(2.67145 0.0827867 0)
(2.67647 0.0880439 0)
(2.67952 0.0944922 0)
(2.68009 0.0925115 0)
(2.67906 0.0876972 0)
(2.67788 0.0822297 0)
(2.67872 0.0779449 0)
(2.67996 0.0769402 0)
(2.6812 0.0759204 0)
(2.68144 0.0734763 0)
(2.68085 0.0689303 0)
(2.67942 0.0643578 0)
(2.68004 0.0605721 0)
(2.68159 0.0595042 0)
(2.68232 0.055005 0)
(2.6841 0.0506911 0)
(2.68533 0.0471992 0)
(2.6862 0.0450639 0)
(2.68765 0.0422314 0)
(2.68917 0.0391271 0)
(2.69082 0.0342412 0)
(3.06158 -1.47414 0)
(3.0616 -1.47416 0)
(3.06159 -1.47422 0)
(3.0616 -1.47426 0)
(3.0616 -1.47432 0)
(3.06155 -1.47443 0)
(3.06154 -1.47445 0)
(3.06149 -1.47446 0)
(3.06145 -1.47449 0)
(3.06146 -1.47449 0)
(3.06148 -1.47449 0)
(3.06149 -1.47449 0)
(3.06152 -1.47451 0)
(3.06155 -1.47453 0)
(3.06158 -1.47453 0)
(3.06161 -1.47452 0)
(3.06164 -1.47451 0)
(3.06168 -1.47454 0)
(3.06181 -1.47452 0)
(3.06207 -1.4744 0)
(3.06217 -1.47433 0)
(3.0622 -1.47429 0)
(3.06223 -1.47428 0)
(3.06237 -1.47418 0)
(3.06239 -1.47415 0)
(3.06239 -1.47413 0)
(3.06236 -1.47411 0)
(3.06233 -1.47408 0)
(3.06233 -1.4741 0)
(3.06235 -1.47416 0)
(3.06239 -1.47425 0)
(3.06248 -1.47435 0)
(3.06262 -1.4744 0)
(3.06272 -1.47438 0)
(3.06275 -1.47438 0)
(3.06288 -1.47426 0)
(3.06308 -1.47402 0)
(3.06309 -1.47391 0)
(3.06305 -1.47371 0)
(3.06303 -1.47339 0)
(3.06302 -1.47319 0)
(3.06243 -1.47335 0)
(3.06215 -1.47368 0)
(3.06207 -1.47409 0)
(3.06228 -1.47433 0)
(3.06235 -1.47452 0)
(3.06237 -1.47494 0)
(3.06263 -1.4753 0)
(3.06308 -1.47536 0)
(3.06357 -1.47489 0)
(3.0637 -1.47452 0)
(3.06415 -1.47353 0)
(3.06438 -1.47308 0)
(3.06424 -1.47282 0)
(3.06207 -1.47376 0)
(3.06079 -1.47587 0)
(3.06094 -1.47752 0)
(3.06146 -1.47779 0)
(3.062 -1.47741 0)
(3.06266 -1.4766 0)
(3.06345 -1.47481 0)
(3.06386 -1.47244 0)
(3.06379 -1.47268 0)
(3.06326 -1.47444 0)
(3.06333 -1.47458 0)
(3.06359 -1.47347 0)
(3.06343 -1.47314 0)
(3.06335 -1.47296 0)
(3.06176 -1.47534 0)
(3.03361 -1.3928 0)
(2.95703 -1.03272 0)
(2.81699 -0.458297 0)
(2.80259 -0.18453 0)
(2.72116 0.0842684 0)
(2.67986 0.170224 0)
(2.67098 0.161982 0)
(2.67384 0.118072 0)
(2.67104 0.0927014 0)
(2.67192 0.0878657 0)
(2.67564 0.0877588 0)
(2.6823 0.0969548 0)
(2.68193 0.0965299 0)
(2.67883 0.0914388 0)
(2.67562 0.086165 0)
(2.67656 0.0813691 0)
(2.67744 0.0794726 0)
(2.67895 0.0775479 0)
(2.67957 0.0751233 0)