/*--------------------------------*- C++ -*----------------------------------*\
  =========                 |
  \\      /  F ield         | OpenFOAM: The Open Source CFD Toolbox
   \\    /   O peration     | Website:  https://openfoam.org
    \\  /    A nd           | Version:  7
     \\/     M anipulation  |
\*---------------------------------------------------------------------------*/
FoamFile
{
    version     2.0;
    format      ascii;
    class       volScalarField;
    location    "3.7";
    object      p;
}
// * * * * * * * * * * * * * * * * * * * * * * * * * * * * * * * * * * * * * //

dimensions      [1 -1 -2 0 0 0 0];

internalField   nonuniform List<scalar> 
1750
(
0.192484
0.386809
0.494012
0.503167
0.575391
0.604804
0.674815
0.703338
0.717585
0.781832
0.0188338
0.0554801
0.227507
0.46615
0.644385
0.714807
0.799789
0.784167
0.751042
0.810294
0.0198138
0.0205578
0.0241006
0.0915558
0.199079
0.395588
0.512597
0.597164
0.679359
0.794144
0.0315851
0.0350147
0.0461798
0.0657652
0.0723426
0.0818598
0.10711
0.178067
0.298077
0.559071
0.0693497
0.0747178
0.0828287
0.098804
0.105326
0.108417
0.114303
0.132266
0.132473
0.208589
0.136326
0.135974
0.136966
0.142503
0.156168
0.167325
0.178352
0.187357
0.195608
0.203293
0.250842
0.25335
0.256265
0.256174
0.258382
0.267174
0.265679
0.261095
0.260459
0.257821
0.464172
0.445044
0.427517
0.416256
0.405292
0.388202
0.372722
0.361698
0.351531
0.338305
0.776762
0.742046
0.700459
0.662549
0.629479
0.594116
0.563308
0.534095
0.510283
0.474957
1.02569
1.00274
0.973557
0.9381
0.898899
0.855981
0.808316
0.75831
0.714366
0.648371
1.07153
1.06971
1.0663
1.06046
1.05098
1.03564
1.01216
0.979556
0.942486
0.868803
1.05091
1.05449
1.05794
1.05933
1.05907
1.05831
1.0563
1.05146
1.04369
1.01549
1.01203
1.01631
1.02128
1.02744
1.03342
1.03901
1.04354
1.04545
1.04452
1.03848
1.00061
1.00107
1.00185
1.00316
1.0053
1.00831
1.01253
1.0174
1.02303
1.02617
1.00001
1.00002
1.00004
1.00008
1.00019
1.0004
1.00087
1.00173
1.00325
1.00677
0.0241613
0.0181777
0.0187956
0.030347
0.0624743
0.128054
0.248356
0.480073
0.814818
1.04301
1.07228
1.04605
1.00863
1.00039
1.00001
0.0228949
0.0170258
0.0195857
0.0389107
0.078444
0.156413
0.318519
0.601905
0.929957
1.07387
1.07318
1.03613
1.00466
1.00014
1
0.0212036
0.0157873
0.0206009
0.0411674
0.0864071
0.180371
0.389369
0.703715
0.994565
1.08252
1.07187
1.0274
1.00256
1.00006
1
0.020333
0.0147408
0.0232347
0.042111
0.100846
0.247069
0.486346
0.805014
1.04438
1.08727
1.06517
1.01819
1.00119
1.00003
1
0.0206063
0.0145256
0.0254286
0.0519581
0.13927
0.318064
0.581349
0.904491
1.07916
1.08931
1.05565
1.01041
1.00049
1.00001
1
0.0191085
0.0146075
0.0264778
0.0760412
0.19643
0.395432
0.702848
1.00175
1.09628
1.0898
1.03999
1.00519
1.00019
1
1
0.0154251
0.0131978
0.0310968
0.105208
0.256645
0.502335
0.84523
1.06767
1.10177
1.07959
1.02561
1.00231
1.00006
1
1
0.0123633
0.0131997
0.0465574
0.148821
0.342002
0.664486
0.966782
1.09971
1.10284
1.06429
1.01458
1.00087
1.00002
1
1
0.00937082
0.0229092
0.0798687
0.227431
0.491073
0.819776
1.05471
1.11262
1.10018
1.04612
1.00676
1.00029
1.00001
1
1
0.00586414
0.0326252
0.123316
0.342427
0.675035
0.965214
1.10677
1.11666
1.08554
1.02686
1.00246
1.00008
1
1
1
0.00153724
0.0378149
0.224691
0.535506
0.857145
1.07451
1.12588
1.11763
1.06348
1.01208
1.00075
1.00002
1
1
1
0.00332611
0.114203
0.404399
0.750325
1.01542
1.12751
1.12999
1.09941
1.03463
1.00419
1.00018
1
1
1
1
0.0286481
0.268567
0.636992
0.950494
1.11548
1.14314
1.13038
1.06865
1.01479
1.00115
1.00004
1
1
1
1
0.146384
0.499416
0.900496
1.09541
1.15124
1.14541
1.09995
1.03395
1.00444
1.00022
1.00001
1
1
1
1
0.532441
0.896606
1.09395
1.14588
1.15531
1.12524
1.06068
1.01251
1.00095
1.00003
1
1
1
1
1
1.15005
1.15409
1.15673
1.1535
1.14455
1.08526
1.02373
1.00152
1.00002
1
1
1
1
1
1
1.14941
1.15492
1.15781
1.15113
1.13718
1.07846
1.02097
1.00233
1.0001
1
1
1
1
1
1
1.14897
1.15676
1.15898
1.15043
1.12117
1.04984
1.00735
1.00036
1.00001
1
1
1
1
1
1
1.14887
1.15876
1.15907
1.14127
1.09728
1.0313
1.00344
1.00013
1
1
1
1
1
1
1
1.14984
1.16289
1.16039
1.13257
1.07388
1.01563
1.00114
1.00003
1
1
1
1
1
1
1
1.15489
1.16456
1.16106
1.11587
1.04591
1.00687
1.00035
1.00001
1
1
1
1
1
1
1
1.16204
1.16101
1.15303
1.08849
1.02482
1.00254
1.0001
1
1
1
1
1
1
1
1
1.17643
1.14923
1.13143
1.05993
1.01218
1.00083
1.00002
1
1
1
1
1
1
1
1
1.19045
1.14011
1.10409
1.03455
1.00442
1.00022
1.00001
1
1
1
1
1
1
1
1
1.1973
1.12625
1.06922
1.01614
1.00148
1.00005
1
1
1
1
1
1
1
1
1
1.19448
1.10126
1.04231
1.00678
1.0004
1.00001
1
1
1
1
1
1
1
1
1
1.17307
1.07497
1.02047
1.00206
1.00008
1
1
1
1
1
1
1
1
1
1
1.14313
1.04578
1.0078
1.00047
1.00001
1
1
1
1
1
1
1
1
1
1
1.09676
1.02152
1.00205
1.00007
1
1
1
1
1
1
1
1
1
1
1
1.04329
1.0061
1.0003
1.00001
1
1
1
1
1
1
1
1
1
1
1
1
1
1
1
1
1
1
1
1
1
1
1
1
1
1
1
1
1
1
1
1
1
1
1
1
1
1
1
1
1
1
1
1
1
1
1
1
1
1
1
1
1
1
1
1
1
1
1
1
1
1
1
1
1
1
1
1
1
1
1
1
1
1
1
1
1
1
1
1
1
1
1
1
1
1
1
1
1
1
1
1
1
1
1
1
1
1
1
1
1
1
1
1
1
1
1
1
1
1
1
1
1
1
1
1
1
1
1
1
1
1
1
1
1
1
1
1
1
1
1
1
1
1
1
1
1
1
1
1
1
1
1
1
1
1
1
1
1
1
1
1
1
1
1
1
1
1
1
1
1
1
1
1
1
1
1
1
1
1
1
1
1
1
1
1
1
1
1
1
1
1
1
1
1
1
1
1
1
1
1
1
1
1
1
1
1
1
1
1
1
1
1
1
1
1
1
1
1
1
1
1
1
1
1
1
1
1
1
1
1
1
1
1
1
1
1
1
1
1
1
1
1
1
1
1
1
1
1
1
1
1
1
1
1
1
1
1
1
1
1
1
1
1
1
1
1
1
1
1
1
1
1
1
1
1
1
1
1
1
1
1
1
1
1
1
1
1
1
1
1
1
1
1
1
1
1
1
1
1
1
1
1
1
1
1
1
1
1
1
1
1
1
1
1
1
1
1
1
1
1
1
1
1
1
1
1
1
1
1
1
1
1
1
1
1
1
1
1
1
1
1
1
1
1
1
1
1
1
1
1
1
1
1
1
1
1
1
1
1
1
1
1
1
1
1
1
1
1
1
1
5.84692
2.61035
0.999993
1
1
1
1
1
1
1
1
1
1
1
1
1
1
1
1
1
10.6633
8.13005
5.20496
1.45682
0.999998
1
1
1
1
1
1
1
1
1
1
1
1
1
1
1
8.874
7.90174
8.18774
6.44452
2.06619
0.999515
1
1
1
1
1
1
1
1
1
1
1
1
1
1
8.09914
7.80453
8.03725
8.05276
6.91357
2.51525
0.997752
1
1
1
1
1
1
1
1
1
1
1
1
1
7.84467
7.74675
7.85946
7.79384
7.72138
6.67772
2.34956
0.997243
1.00001
1
1
1
1
1
1
1
1
1
1
1
7.74667
7.68843
7.71622
7.66263
7.55202
7.36899
5.79197
1.75942
0.99785
1.00001
1
1
1
1
1
1
1
1
1
1
7.68873
7.62038
7.60833
7.54243
7.46093
7.44289
7.32826
4.75507
1.28245
0.998983
1
1
1
1
1
1
1
1
1
1
7.62011
7.54384
7.52566
7.45817
7.39281
7.33016
7.28666
6.71959
3.08989
1.02135
1
1
1
1
1
1
1
1
1
1
7.52656
7.45649
7.43938
7.37965
7.31776
7.26738
7.23542
7.08838
5.67689
1.74846
0.997433
1
1
1
1
1
1
1
1
1
7.41863
7.35548
7.33873
7.29199
7.23531
7.17487
7.15522
7.17805
6.99761
4.20915
1.1695
0.999999
1
1
1
1
1
1
1
1
7.3137
7.24777
7.22875
7.19284
7.14519
7.0996
7.07669
7.01733
6.96862
5.95883
2.27553
0.998769
1.00001
1
1
1
1
1
1
1
7.2201
7.14574
7.13011
7.10495
7.072
7.04793
7.0126
6.94418
6.86185
6.71799
4.36953
1.22562
0.999574
1
1
1
1
1
1
1
7.13881
7.06472
7.06031
7.03993
7.01049
6.99453
6.9538
6.88278
6.8247
6.82986
6.0198
2.3435
1.00326
1
1
1
1
1
1
1
7.04298
6.98798
6.99667
6.98379
6.95183
6.92494
6.887
6.83511
6.81808
6.82005
6.43226
4.08425
1.21685
1
1
1
1
1
1
1
6.94613
6.91764
6.94024
6.92974
6.8723
6.83434
6.80062
6.78606
6.77929
6.75586
6.58249
5.72281
1.90096
0.960304
0.999793
1
1
1
1
1
2.27464
3.60679
4.38747
4.96465
5.34718
5.64566
5.89359
6.08555
6.2536
6.39412
6.4739
6.37606
4.65589
1.64274
1.01675
1.00012
1
1
1
1
0.608412
1.81026
2.55971
3.24701
3.87898
4.31487
4.73959
5.05857
5.38769
5.67962
6.01559
6.20441
5.96599
3.76554
1.36737
1.00722
1.00004
1
1
1
0.56309
1.17993
1.6462
2.12565
2.67903
3.25217
3.71392
4.15197
4.49458
4.87827
5.33221
5.83337
5.82552
5.19854
2.60471
1.11746
1.00134
1.00001
1
1
0.660489
0.921321
1.14802
1.58547
1.98342
2.47118
2.91481
3.40973
3.78624
4.18798
4.63063
5.15073
5.46852
5.43151
4.32846
1.75061
1.02679
1.0002
1
1
0.772711
0.786155
0.822522
1.15499
1.52497
1.923
2.34649
2.75829
3.22177
3.62192
4.06952
4.49615
4.88199
5.25289
5.08249
3.14829
1.24159
1.00389
1.00002
1
0.864687
0.784454
0.767276
0.920288
1.16424
1.47186
1.88904
2.23592
2.69611
3.11127
3.56343
3.90539
4.33253
4.8734
4.9362
4.19751
1.89697
1.03931
1.00029
1
0.882065
0.803843
0.806509
0.877293
0.993329
1.21922
1.52565
1.88253
2.22476
2.65953
3.06473
3.42236
3.78294
4.33986
4.69473
4.52753
2.94265
1.21754
1.00334
1.00002
0.858121
0.813744
0.836258
0.828611
0.871817
1.08801
1.31971
1.6482
1.94269
2.33028
2.68951
3.07539
3.33437
3.80561
4.39739
4.42942
3.63488
1.65718
1.0222
1.00014
0.83532
0.818631
0.822562
0.785589
0.778789
0.923725
1.11802
1.43486
1.73882
2.05206
2.39842
2.75327
3.07153
3.44881
4.00219
4.30208
3.98333
2.32988
1.10442
1.00113
0.845609
0.838604
0.823888
0.7861
0.774758
0.844701
0.960091
1.1778
1.51035
1.77135
2.10141
2.40684
2.77551
3.1501
3.62033
4.13311
4.02437
2.92389
1.32864
1.00737
0.868962
0.858285
0.833956
0.796669
0.794779
0.850854
0.919322
1.06422
1.32407
1.57327
1.83567
2.12892
2.44302
2.82186
3.2178
3.8232
3.97518
3.43362
1.7227
1.03403
0.878274
0.863914
0.840456
0.814346
0.821425
0.830722
0.874636
1.0103
1.2003
1.44125
1.67686
1.97002
2.25076
2.58716
2.92927
3.46639
3.83767
3.63807
2.27237
1.1181
0.865401
0.851729
0.841458
0.826703
0.816653
0.801226
0.82
0.930659
1.05973
1.29653
1.53155
1.8138
2.09169
2.39123
2.71225
3.17467
3.6638
3.57889
2.63963
1.30113
0.846035
0.836256
0.844021
0.832965
0.811912
0.792739
0.797434
0.855582
0.914007
1.10712
1.32624
1.59522
1.87834
2.15534
2.44958
2.85041
3.42036
3.48807
2.89157
1.56354
0.828801
0.838726
0.846777
0.842258
0.819343
0.798594
0.798614
0.844948
0.881359
0.987751
1.19332
1.41254
1.70514
1.97802
2.26801
2.6165
3.1562
3.39315
3.09031
1.92748
0.718418
0.819486
0.839905
0.842344
0.823044
0.803286
0.801678
0.833897
0.866509
0.960912
1.13006
1.32667
1.59319
1.86172
2.13785
2.45702
2.93674
3.27597
3.08919
2.35464
0.629911
0.752784
0.812811
0.835897
0.817476
0.796241
0.782819
0.794887
0.824404
0.914278
1.0533
1.24564
1.46151
1.72116
1.97048
2.24871
2.67183
3.11213
3.02538
2.76727
0.529335
0.653529
0.757166
0.812496
0.804589
0.784854
0.758931
0.755167
0.771372
0.856768
0.941316
1.13007
1.33496
1.56434
1.81704
2.07726
2.45173
2.93643
2.96762
3.16141
0.468266
0.574998
0.684715
0.767566
0.787964
0.77637
0.753077
0.736609
0.7401
0.812136
0.88189
1.02528
1.22841
1.43039
1.67548
1.92796
2.26196
2.75406
2.97563
3.50665
0.487225
0.531205
0.598702
0.697221
0.75747
0.76038
0.744477
0.722233
0.723676
0.77168
0.829808
0.943795
1.12351
1.30537
1.52475
1.75107
2.03995
2.50278
2.95507
3.77454
0.514116
0.490704
0.514739
0.617931
0.699475
0.729027
0.721937
0.702509
0.704776
0.732615
0.77934
0.885559
1.02682
1.19207
1.39561
1.60064
1.84998
2.26921
2.86668
3.98713
0.538654
0.481089
0.471546
0.539409
0.620908
0.68176
0.690722
0.682626
0.688671
0.694191
0.711538
0.806717
0.934114
1.08582
1.27645
1.47365
1.69277
2.07668
2.81799
4.10546
0.592892
0.514464
0.478319
0.499881
0.54564
0.623685
0.661748
0.665144
0.672878
0.669387
0.673822
0.732213
0.842392
0.992803
1.15254
1.34478
1.54333
1.89164
2.68127
4.13194
0.684581
0.596083
0.511284
0.483775
0.489874
0.547653
0.61417
0.641448
0.645845
0.637626
0.644821
0.693993
0.7662
0.906141
1.05192
1.23041
1.41685
1.7571
2.57996
4.07797
0.778402
0.739737
0.669989
0.589733
0.528617
0.543214
0.563515
0.595916
0.607111
0.604396
0.617524
0.649808
0.685461
0.790428
0.918992
1.07204
1.23893
1.56486
2.37993
3.8534
)
;

boundaryField
{
    inlet
    {
        type            fixedValue;
        value           uniform 1;
    }
    outlet
    {
        type            zeroGradient;
    }
    airfoil
    {
        type            zeroGradient;
    }
    top
    {
        type            symmetryPlane;
    }
    bottom
    {
        type            symmetryPlane;
    }
    defaultFaces
    {
        type            empty;
    }
}


// ************************************************************************* //
