/*--------------------------------*- C++ -*----------------------------------*\
  =========                 |
  \\      /  F ield         | OpenFOAM: The Open Source CFD Toolbox
   \\    /   O peration     | Website:  https://openfoam.org
    \\  /    A nd           | Version:  7
     \\/     M anipulation  |
\*---------------------------------------------------------------------------*/
FoamFile
{
    version     2.0;
    format      ascii;
    class       volVectorField;
    location    "1";
    object      U;
}
// * * * * * * * * * * * * * * * * * * * * * * * * * * * * * * * * * * * * * //

dimensions      [0 1 -1 0 0 0 0];

internalField   nonuniform List<vector> 
8400
(
(0.149511 -0.078645 0)
(0.19183 -0.0795665 0)
(0.237111 -0.0750204 0)
(0.283116 -0.066698 0)
(0.328831 -0.0552446 0)
(0.37415 -0.0408303 0)
(0.41903 -0.0234928 0)
(0.463351 -0.00327942 0)
(0.506952 0.0196452 0)
(0.549623 0.0448948 0)
(0.591091 0.071769 0)
(0.630999 0.0991977 0)
(0.668942 0.125741 0)
(0.704499 0.149671 0)
(0.737288 0.169171 0)
(0.767037 0.182626 0)
(0.793627 0.188973 0)
(0.817118 0.187992 0)
(0.837724 0.180409 0)
(0.855756 0.167752 0)
(0.871557 0.15196 0)
(0.885453 0.134918 0)
(0.897724 0.118087 0)
(0.908601 0.102353 0)
(0.918245 0.0880839 0)
(0.926858 0.0752927 0)
(0.934348 0.0638542 0)
(0.941385 0.053305 0)
(0.946365 0.0445157 0)
(0.953867 0.0330371 0)
(0.214335 -0.168181 0)
(0.239451 -0.166407 0)
(0.267476 -0.15932 0)
(0.296881 -0.148139 0)
(0.327913 -0.133445 0)
(0.360639 -0.115471 0)
(0.39485 -0.094342 0)
(0.430295 -0.0701736 0)
(0.466745 -0.0431627 0)
(0.503965 -0.0136944 0)
(0.541683 0.017549 0)
(0.57957 0.0495154 0)
(0.617222 0.0807596 0)
(0.654157 0.109513 0)
(0.689838 0.133871 0)
(0.72372 0.152092 0)
(0.75531 0.162973 0)
(0.784227 0.166159 0)
(0.810242 0.162281 0)
(0.833292 0.152818 0)
(0.853472 0.139712 0)
(0.870997 0.124885 0)
(0.886157 0.109859 0)
(0.899276 0.0955897 0)
(0.910637 0.082511 0)
(0.920558 0.0706973 0)
(0.929049 0.0600612 0)
(0.936864 0.0502143 0)
(0.942397 0.0419341 0)
(0.950524 0.0311427 0)
(0.305421 -0.211373 0)
(0.31962 -0.210089 0)
(0.335818 -0.205019 0)
(0.352724 -0.196052 0)
(0.37102 -0.183198 0)
(0.391166 -0.166513 0)
(0.413263 -0.146088 0)
(0.437338 -0.122072 0)
(0.463415 -0.0947164 0)
(0.491498 -0.0644467 0)
(0.521534 -0.0319493 0)
(0.553381 0.00174817 0)
(0.586777 0.0352377 0)
(0.621303 0.0667758 0)
(0.656376 0.0944442 0)
(0.691271 0.116434 0)
(0.725183 0.131405 0)
(0.757318 0.13882 0)
(0.786996 0.139103 0)
(0.813744 0.133536 0)
(0.837343 0.12391 0)
(0.857828 0.112065 0)
(0.875429 0.0995059 0)
(0.890494 0.0872307 0)
(0.903379 0.0757459 0)
(0.914484 0.0652083 0)
(0.923897 0.0555971 0)
(0.932432 0.0466137 0)
(0.938488 0.0389718 0)
(0.947198 0.0289754 0)
(0.39929 -0.242175 0)
(0.407616 -0.239259 0)
(0.417075 -0.233689 0)
(0.426346 -0.225101 0)
(0.436088 -0.213254 0)
(0.446932 -0.198003 0)
(0.45924 -0.179272 0)
(0.473318 -0.157072 0)
(0.489487 -0.131532 0)
(0.508049 -0.102959 0)
(0.529252 -0.0719043 0)
(0.553243 -0.0392367 0)
(0.58002 -0.00618815 0)
(0.609366 0.0256676 0)
(0.640812 0.0545406 0)
(0.67363 0.0786689 0)
(0.706876 0.0966486 0)
(0.739499 0.107756 0)
(0.770485 0.112134 0)
(0.799009 0.110742 0)
(0.824545 0.105075 0)
(0.846906 0.0967541 0)
(0.866191 0.0871806 0)
(0.882694 0.0773435 0)
(0.896771 0.0678091 0)
(0.908841 0.0588233 0)
(0.919034 0.0504487 0)
(0.92819 0.0424903 0)
(0.934714 0.0356101 0)
(0.94394 0.0265279 0)
(0.488134 -0.261394 0)
(0.492459 -0.256371 0)
(0.497459 -0.249464 0)
(0.501939 -0.240355 0)
(0.50637 -0.228775 0)
(0.511304 -0.214519 0)
(0.517127 -0.197435 0)
(0.524221 -0.177437 0)
(0.53302 -0.154539 0)
(0.543984 -0.128901 0)
(0.557556 -0.100887 0)
(0.574113 -0.0711305 0)
(0.593899 -0.0405837 0)
(0.616946 -0.0105221 0)
(0.64301 0.0175377 0)
(0.67152 0.0420247 0)
(0.701601 0.0615884 0)
(0.732165 0.0753841 0)
(0.762066 0.0832741 0)
(0.790278 0.0858363 0)
(0.816051 0.0841689 0)
(0.838985 0.0795747 0)
(0.859006 0.0732579 0)
(0.876286 0.0661396 0)
(0.891106 0.0588115 0)
(0.903842 0.0515956 0)
(0.914616 0.044638 0)
(0.924253 0.0378502 0)
(0.931161 0.0318487 0)
(0.94081 0.0237977 0)
(0.565457 -0.271475 0)
(0.567002 -0.264723 0)
(0.569073 -0.256565 0)
(0.570621 -0.24678 0)
(0.571963 -0.235158 0)
(0.573526 -0.221529 0)
(0.575624 -0.205753 0)
(0.57859 -0.187731 0)
(0.582826 -0.167428 0)
(0.588791 -0.144912 0)
(0.596964 -0.120395 0)
(0.607802 -0.0942903 0)
(0.621679 -0.0672603 0)
(0.638809 -0.0402373 0)
(0.659162 -0.0143844 0)
(0.682403 0.0090254 0)
(0.707866 0.0288088 0)
(0.734616 0.0441109 0)
(0.761581 0.0545857 0)
(0.787722 0.0604543 0)
(0.812192 0.0624021 0)
(0.834443 0.0613626 0)
(0.854235 0.0582824 0)
(0.871582 0.0539547 0)
(0.886639 0.0489509 0)
(0.899687 0.043637 0)
(0.910797 0.0382257 0)
(0.92074 0.0327255 0)
(0.927925 0.0277041 0)
(0.937876 0.0207924 0)
(0.630083 -0.274445 0)
(0.629718 -0.266583 0)
(0.629792 -0.257644 0)
(0.629504 -0.247483 0)
(0.629069 -0.235951 0)
(0.6288 -0.222929 0)
(0.628933 -0.208317 0)
(0.62972 -0.192036 0)
(0.631476 -0.174048 0)
(0.634576 -0.154379 0)
(0.639427 -0.133151 0)
(0.646448 -0.110624 0)
(0.656017 -0.0872292 0)
(0.668414 -0.0636008 0)
(0.683746 -0.0405622 0)
(0.701874 -0.0190616 0)
(0.72238 -4.61993e-05 0)
(0.744585 0.0157117 0)
(0.767622 0.0277638 0)
(0.790585 0.0360665 0)
(0.812664 0.0409499 0)
(0.833254 0.0429938 0)
(0.851997 0.0428684 0)
(0.868761 0.041199 0)
(0.883558 0.0384898 0)
(0.896548 0.0351106 0)
(0.907724 0.0313108 0)
(0.917772 0.0271756 0)
(0.925103 0.0232121 0)
(0.935214 0.0175319 0)
(0.682431 -0.271629 0)
(0.680913 -0.263444 0)
(0.679804 -0.254398 0)
(0.678507 -0.244394 0)
(0.677169 -0.233337 0)
(0.676022 -0.221147 0)
(0.67524 -0.207757 0)
(0.675005 -0.193116 0)
(0.675549 -0.177198 0)
(0.677148 -0.160017 0)
(0.680113 -0.14165 0)
(0.684772 -0.122262 0)
(0.691442 -0.102131 0)
(0.700387 -0.0816755 0)
(0.711763 -0.0614513 0)
(0.72556 -0.042127 0)
(0.741558 -0.0244081 0)
(0.759322 -0.00893583 0)
(0.778241 0.00383138 0)
(0.797613 0.0136943 0)
(0.816752 0.0207271 0)
(0.835085 0.0252226 0)
(0.852202 0.0275973 0)
(0.867866 0.0282965 0)
(0.88197 0.027725 0)
(0.894552 0.026217 0)
(0.905521 0.0240255 0)
(0.915462 0.0212862 0)
(0.922795 0.0184285 0)
(0.932902 0.0140498 0)
(0.725022 -0.26561 0)
(0.722999 -0.257596 0)
(0.721359 -0.248875 0)
(0.719639 -0.239385 0)
(0.717945 -0.229061 0)
(0.716457 -0.217853 0)
(0.715307 -0.205717 0)
(0.714629 -0.192619 0)
(0.714589 -0.178544 0)
(0.715388 -0.163503 0)
(0.717252 -0.147548 0)
(0.720422 -0.130786 0)
(0.725141 -0.113401 0)
(0.731624 -0.0956653 0)
(0.740026 -0.0779495 0)
(0.750397 -0.0607127 0)
(0.762648 -0.0444642 0)
(0.776532 -0.0297031 0)
(0.791657 -0.0168427 0)
(0.80753 -0.00614701 0)
(0.823626 0.00230312 0)
(0.839458 0.00859714 0)
(0.854623 0.0129486 0)
(0.868835 0.0156375 0)
(0.881907 0.0169562 0)
(0.893778 0.0171771 0)
(0.904286 0.0165271 0)
(0.913908 0.0151668 0)
(0.921092 0.0134288 0)
(0.931019 0.0103934 0)
(0.761084 -0.258024 0)
(0.758927 -0.25045 0)
(0.757125 -0.242291 0)
(0.755296 -0.233501 0)
(0.75352 -0.224039 0)
(0.75194 -0.213866 0)
(0.750659 -0.202954 0)
(0.749775 -0.191279 0)
(0.749411 -0.178833 0)
(0.749711 -0.165623 0)
(0.750838 -0.151686 0)
(0.75297 -0.137094 0)
(0.756287 -0.121968 0)
(0.760955 -0.106489 0)
(0.767108 -0.0909042 0)
(0.774819 -0.0755281 0)
(0.784071 -0.0607233 0)
(0.794744 -0.0468682 0)
(0.806605 -0.0343102 0)
(0.819334 -0.023318 0)
(0.832555 -0.0140491 0)
(0.845885 -0.00654012 0)
(0.858974 -0.000721708 0)
(0.871533 0.00355162 0)
(0.883334 0.00646452 0)
(0.894255 0.00821597 0)
(0.904081 0.00898778 0)
(0.913189 0.0089446 0)
(0.920075 0.00830571 0)
(0.929643 0.00662384 0)
(0.793202 -0.249842 0)
(0.791064 -0.242824 0)
(0.78925 -0.235313 0)
(0.787427 -0.227278 0)
(0.785654 -0.218687 0)
(0.78405 -0.209512 0)
(0.782694 -0.199731 0)
(0.781661 -0.18933 0)
(0.78104 -0.1783 0)
(0.780939 -0.166649 0)
(0.781478 -0.154401 0)
(0.782789 -0.141603 0)
(0.785004 -0.128338 0)
(0.788255 -0.114726 0)
(0.792653 -0.100934 0)
(0.798272 -0.0871773 0)
(0.805135 -0.0737147 0)
(0.813196 -0.0608295 0)
(0.822328 -0.0488028 0)
(0.832335 -0.0378805 0)
(0.842966 -0.0282453 0)
(0.853937 -0.0199999 0)
(0.864964 -0.0131662 0)
(0.875786 -0.00769846 0)
(0.886172 -0.00350211 0)
(0.89597 -0.000450277 0)
(0.904933 0.00158505 0)
(0.913357 0.00275914 0)
(0.91981 0.00316555 0)
(0.928845 0.00281364 0)
(0.822983 -0.241345 0)
(0.820879 -0.234912 0)
(0.819065 -0.22806 0)
(0.81724 -0.220765 0)
(0.815451 -0.213001 0)
(0.813795 -0.204748 0)
(0.812337 -0.19599 0)
(0.811131 -0.186713 0)
(0.810247 -0.176913 0)
(0.809763 -0.166593 0)
(0.809773 -0.15577 0)
(0.810373 -0.144476 0)
(0.811666 -0.132765 0)
(0.813755 -0.120718 0)
(0.816731 -0.108448 0)
(0.820667 -0.0961036 0)
(0.825602 -0.0838695 0)
(0.831531 -0.071957 0)
(0.838395 -0.0605889 0)
(0.846083 -0.0499771 0)
(0.854433 -0.0403012 0)
(0.863247 -0.0316912 0)
(0.872307 -0.0242211 0)
(0.881397 -0.0179105 0)
(0.890304 -0.0127328 0)
(0.898868 -0.00862332 0)
(0.90684 -0.00550791 0)
(0.914441 -0.00324716 0)
(0.920342 -0.00187754 0)
(0.928686 -0.000955804 0)
(0.851175 -0.232411 0)
(0.849066 -0.226563 0)
(0.847205 -0.220354 0)
(0.845327 -0.213766 0)
(0.843466 -0.206776 0)
(0.841704 -0.19937 0)
(0.840092 -0.191533 0)
(0.838674 -0.183256 0)
(0.8375 -0.174535 0)
(0.836633 -0.16537 0)
(0.836142 -0.155771 0)
(0.836103 -0.145762 0)
(0.836596 -0.135376 0)
(0.837702 -0.124669 0)
(0.839498 -0.113716 0)
(0.84205 -0.102619 0)
(0.845403 -0.0915119 0)
(0.849575 -0.0805503 0)
(0.854549 -0.0699087 0)
(0.860266 -0.0597638 0)
(0.86663 -0.050278 0)
(0.873508 -0.041586 0)
(0.880743 -0.0337857 0)
(0.888164 -0.0269351 0)
(0.895589 -0.0210548 0)
(0.902868 -0.0161284 0)
(0.909764 -0.0121287 0)
(0.916442 -0.00893311 0)
(0.921697 -0.00670577 0)
(0.929213 -0.00459766 0)
(0.87798 -0.222767 0)
(0.875822 -0.2175 0)
(0.873866 -0.21192 0)
(0.871884 -0.206009 0)
(0.869903 -0.19975 0)
(0.867989 -0.193132 0)
(0.866184 -0.186141 0)
(0.864522 -0.17877 0)
(0.863043 -0.171014 0)
(0.861795 -0.162874 0)
(0.860832 -0.154354 0)
(0.860214 -0.14547 0)
(0.860004 -0.136244 0)
(0.860268 -0.126711 0)
(0.861069 -0.116923 0)
(0.862466 -0.106949 0)
(0.864506 -0.0968845 0)
(0.867217 -0.0868445 0)
(0.870607 -0.0769642 0)
(0.87465 -0.0673874 0)
(0.879295 -0.0582549 0)
(0.884458 -0.0496929 0)
(0.890029 -0.0418055 0)
(0.895881 -0.03467 0)
(0.901869 -0.0283355 0)
(0.907859 -0.0228195 0)
(0.91364 -0.0181327 0)
(0.919333 -0.0141652 0)
(0.923875 -0.0112034 0)
(0.930457 -0.00802381 0)
(0.90331 -0.212164 0)
(0.901079 -0.207477 0)
(0.899002 -0.202514 0)
(0.896889 -0.197262 0)
(0.894763 -0.191705 0)
(0.892676 -0.185832 0)
(0.890663 -0.179634 0)
(0.888751 -0.173102 0)
(0.886971 -0.166233 0)
(0.885361 -0.159024 0)
(0.883964 -0.151479 0)
(0.882828 -0.143606 0)
(0.882003 -0.13542 0)
(0.881543 -0.126943 0)
(0.881501 -0.118208 0)
(0.881929 -0.109264 0)
(0.882871 -0.100175 0)
(0.884362 -0.0910277 0)
(0.886419 -0.081925 0)
(0.889042 -0.0729825 0)
(0.892206 -0.0643183 0)
(0.895863 -0.0560446 0)
(0.899942 -0.0482612 0)
(0.904351 -0.041051 0)
(0.908979 -0.034478 0)
(0.913718 -0.0285807 0)
(0.918384 -0.0233974 0)
(0.923066 -0.018826 0)
(0.926854 -0.0152635 0)
(0.93243 -0.0111496 0)
(0.926951 -0.200462 0)
(0.924648 -0.196352 0)
(0.922452 -0.191998 0)
(0.920212 -0.187389 0)
(0.917943 -0.182511 0)
(0.91569 -0.177354 0)
(0.913481 -0.171909 0)
(0.911336 -0.166168 0)
(0.909281 -0.160128 0)
(0.907346 -0.153784 0)
(0.905566 -0.147139 0)
(0.903979 -0.140195 0)
(0.902626 -0.132963 0)
(0.901551 -0.125454 0)
(0.9008 -0.117691 0)
(0.900416 -0.109705 0)
(0.900442 -0.101539 0)
(0.900913 -0.0932581 0)
(0.901853 -0.0849392 0)
(0.903273 -0.0766739 0)
(0.905169 -0.0685593 0)
(0.907518 -0.0606917 0)
(0.910275 -0.0531609 0)
(0.913381 -0.0460472 0)
(0.916753 -0.0394193 0)
(0.920306 -0.0333264 0)
(0.923891 -0.0278252 0)
(0.927568 -0.0228158 0)
(0.930591 -0.0187914 0)
(0.935124 -0.0138974 0)
(0.948659 -0.187655 0)
(0.946309 -0.184112 0)
(0.944021 -0.180354 0)
(0.941679 -0.17637 0)
(0.939297 -0.172148 0)
(0.936908 -0.167679 0)
(0.934536 -0.162953 0)
(0.932198 -0.157964 0)
(0.929913 -0.152706 0)
(0.927706 -0.147176 0)
(0.925606 -0.141372 0)
(0.923643 -0.135295 0)
(0.921851 -0.12895 0)
(0.920267 -0.122344 0)
(0.918929 -0.115489 0)
(0.917876 -0.108405 0)
(0.917144 -0.10112 0)
(0.916769 -0.0936804 0)
(0.916778 -0.0861441 0)
(0.917189 -0.0785827 0)
(0.91801 -0.0710746 0)
(0.919234 -0.0636998 0)
(0.920838 -0.056536 0)
(0.922786 -0.0496562 0)
(0.925019 -0.0431271 0)
(0.927477 -0.0370009 0)
(0.930041 -0.0313449 0)
(0.93275 -0.0260564 0)
(0.935021 -0.0217087 0)
(0.938508 -0.0162006 0)
(0.96822 -0.173863 0)
(0.965863 -0.170867 0)
(0.963526 -0.167681 0)
(0.961126 -0.164296 0)
(0.958676 -0.160701 0)
(0.956199 -0.156887 0)
(0.953715 -0.152845 0)
(0.951237 -0.148567 0)
(0.948782 -0.144048 0)
(0.946369 -0.139283 0)
(0.944021 -0.134269 0)
(0.941764 -0.129006 0)
(0.939626 -0.123493 0)
(0.937637 -0.117734 0)
(0.935829 -0.111733 0)
(0.934236 -0.105502 0)
(0.932891 -0.0990602 0)
(0.931826 -0.092437 0)
(0.93107 -0.0856763 0)
(0.930646 -0.0788328 0)
(0.930566 -0.0719687 0)
(0.930837 -0.0651492 0)
(0.931451 -0.0584392 0)
(0.932388 -0.0519018 0)
(0.933612 -0.0455978 0)
(0.935079 -0.0395773 0)
(0.936704 -0.0339121 0)
(0.938506 -0.0284931 0)
(0.940059 -0.0239565 0)
(0.942529 -0.0180063 0)
(0.985497 -0.159306 0)
(0.983176 -0.156821 0)
(0.980841 -0.154172 0)
(0.978436 -0.151349 0)
(0.975969 -0.148341 0)
(0.973461 -0.14514 0)
(0.970923 -0.141738 0)
(0.968368 -0.138126 0)
(0.965809 -0.134298 0)
(0.963262 -0.130249 0)
(0.960745 -0.125974 0)
(0.958278 -0.12147 0)
(0.955886 -0.116736 0)
(0.953593 -0.11177 0)
(0.951427 -0.106574 0)
(0.949416 -0.101151 0)
(0.94759 -0.0955126 0)
(0.945979 -0.0896782 0)
(0.94461 -0.0836787 0)
(0.943507 -0.0775556 0)
(0.94269 -0.0713573 0)
(0.942169 -0.0651354 0)
(0.941948 -0.0589425 0)
(0.942021 -0.0528313 0)
(0.942367 -0.0468543 0)
(0.94296 -0.0410562 0)
(0.943742 -0.0355089 0)
(0.944714 -0.0300955 0)
(0.945601 -0.0254962 0)
(0.947113 -0.0192774 0)
(1.00044 -0.144255 0)
(0.998201 -0.142237 0)
(0.995917 -0.140077 0)
(0.993557 -0.137766 0)
(0.991127 -0.135296 0)
(0.988642 -0.132658 0)
(0.986111 -0.129842 0)
(0.983541 -0.126842 0)
(0.980945 -0.12365 0)
(0.978335 -0.120261 0)
(0.975725 -0.116668 0)
(0.973132 -0.112868 0)
(0.970576 -0.108856 0)
(0.968076 -0.104629 0)
(0.965657 -0.100184 0)
(0.963341 -0.0955214 0)
(0.961157 -0.0906446 0)
(0.95913 -0.0855654 0)
(0.957286 -0.0803051 0)
(0.95565 -0.0748941 0)
(0.954242 -0.0693688 0)
(0.953079 -0.0637694 0)
(0.952172 -0.058137 0)
(0.951523 -0.0525138 0)
(0.951125 -0.0469436 0)
(0.950965 -0.0414637 0)
(0.951009 -0.0361432 0)
(0.951244 -0.0308568 0)
(0.951532 -0.0263109 0)
(0.952165 -0.0199936 0)
(1.01311 -0.128997 0)
(1.01098 -0.12739 0)
(1.00879 -0.125664 0)
(1.00652 -0.123809 0)
(1.00417 -0.121818 0)
(1.00176 -0.119683 0)
(0.999284 -0.117394 0)
(0.996757 -0.114945 0)
(0.994185 -0.112328 0)
(0.991577 -0.109536 0)
(0.988945 -0.106563 0)
(0.986302 -0.103404 0)
(0.983663 -0.100054 0)
(0.981046 -0.0965057 0)
(0.978468 -0.0927555 0)
(0.975952 -0.0887992 0)
(0.97352 -0.0846363 0)
(0.971195 -0.0802722 0)
(0.969001 -0.0757204 0)
(0.966963 -0.0710021 0)
(0.965101 -0.0661443 0)
(0.963435 -0.0611766 0)
(0.961979 -0.0561304 0)
(0.960744 -0.0510381 0)
(0.959733 -0.0459344 0)
(0.958941 -0.0408491 0)
(0.958358 -0.035846 0)
(0.957956 -0.0307932 0)
(0.95772 -0.0264046 0)
(0.957573 -0.0201517 0)
(1.02361 -0.113794 0)
(1.02162 -0.112541 0)
(1.01956 -0.111188 0)
(1.01741 -0.109728 0)
(1.01518 -0.108154 0)
(1.01288 -0.106457 0)
(1.01051 -0.10463 0)
(1.00807 -0.102665 0)
(1.00557 -0.100556 0)
(1.00302 -0.0982951 0)
(1.00043 -0.0958756 0)
(0.997799 -0.0932915 0)
(0.995149 -0.0905363 0)
(0.99249 -0.0876034 0)
(0.989839 -0.084486 0)
(0.987212 -0.081178 0)
(0.984629 -0.0776755 0)
(0.98211 -0.0739794 0)
(0.979678 -0.0700971 0)
(0.977354 -0.0660426 0)
(0.97516 -0.0618346 0)
(0.973116 -0.0574945 0)
(0.97124 -0.0530447 0)
(0.969546 -0.0485091 0)
(0.968045 -0.0439141 0)
(0.966741 -0.0392816 0)
(0.96564 -0.0346694 0)
(0.964705 -0.0299413 0)
(0.964024 -0.0258006 0)
(0.963205 -0.0197644 0)
(1.03216 -0.0988627 0)
(1.03032 -0.0979049 0)
(1.0284 -0.0968658 0)
(1.02639 -0.0957391 0)
(1.02431 -0.0945177 0)
(1.02214 -0.0931947 0)
(1.0199 -0.0917631 0)
(1.01758 -0.090216 0)
(1.0152 -0.0885462 0)
(1.01275 -0.086747 0)
(1.01024 -0.0848116 0)
(1.00767 -0.0827333 0)
(1.00507 -0.0805054 0)
(1.00243 -0.0781205 0)
(0.999774 -0.075571 0)
(0.997112 -0.0728491 0)
(0.99446 -0.0699489 0)
(0.991836 -0.0668681 0)
(0.98926 -0.0636094 0)
(0.986752 -0.0601812 0)
(0.984332 -0.0565957 0)
(0.982021 -0.0528672 0)
(0.979838 -0.049011 0)
(0.9778 -0.0450434 0)
(0.975924 -0.0409834 0)
(0.97422 -0.0368461 0)
(0.972708 -0.032682 0)
(0.971342 -0.0283547 0)
(0.970297 -0.024539 0)
(0.968918 -0.0188586 0)
(1.03896 -0.0843558 0)
(1.03728 -0.0836392 0)
(1.03551 -0.0828577 0)
(1.03365 -0.0820056 0)
(1.03172 -0.0810771 0)
(1.02971 -0.080066 0)
(1.02761 -0.0789661 0)
(1.02544 -0.0777711 0)
(1.02319 -0.0764743 0)
(1.02086 -0.0750695 0)
(1.01847 -0.07355 0)
(1.01601 -0.0719094 0)
(1.01349 -0.0701408 0)
(1.01092 -0.0682367 0)
(1.00831 -0.066189 0)
(1.00567 -0.0639897 0)
(1.00301 -0.0616314 0)
(1.00035 -0.0591096 0)
(0.997712 -0.0564242 0)
(0.995103 -0.053579 0)
(0.992547 -0.0505812 0)
(0.990063 -0.0474396 0)
(0.987672 -0.0441635 0)
(0.985392 -0.0407633 0)
(0.983244 -0.0372517 0)
(0.981241 -0.0336377 0)
(0.979416 -0.0299647 0)
(0.977714 -0.0261 0)
(0.976383 -0.0226728 0)
(0.974555 -0.0174727 0)
(1.04426 -0.0703607 0)
(1.04272 -0.0698368 0)
(1.0411 -0.0692622 0)
(1.0394 -0.0686322 0)
(1.03762 -0.0679419 0)
(1.03576 -0.0671861 0)
(1.03381 -0.0663594 0)
(1.03179 -0.0654562 0)
(1.02968 -0.0644708 0)
(1.0275 -0.0633974 0)
(1.02524 -0.0622299 0)
(1.0229 -0.0609623 0)
(1.02049 -0.0595881 0)
(1.01802 -0.0581002 0)
(1.01549 -0.0564907 0)
(1.01292 -0.0547516 0)
(1.0103 -0.0528753 0)
(1.00767 -0.0508561 0)
(1.00502 -0.0486918 0)
(1.00237 -0.0463834 0)
(0.999752 -0.0439342 0)
(0.997172 -0.0413489 0)
(0.994654 -0.0386322 0)
(0.992217 -0.0357899 0)
(0.989884 -0.0328297 0)
(0.987671 -0.0297557 0)
(0.98562 -0.0266044 0)
(0.98367 -0.0232512 0)
(0.982125 -0.0202638 0)
(0.979953 -0.015653 0)
(1.04828 -0.0568966 0)
(1.04688 -0.056524 0)
(1.0454 -0.056113 0)
(1.04384 -0.0556598 0)
(1.0422 -0.0551603 0)
(1.04049 -0.0546104 0)
(1.03869 -0.0540056 0)
(1.03681 -0.0533412 0)
(1.03484 -0.0526124 0)
(1.0328 -0.0518141 0)
(1.03067 -0.0509412 0)
(1.02847 -0.0499883 0)
(1.02618 -0.0489497 0)
(1.02382 -0.0478188 0)
(1.0214 -0.0465887 0)
(1.01891 -0.0452518 0)
(1.01637 -0.043801 0)
(1.01379 -0.0422305 0)
(1.01117 -0.0405369 0)
(1.00854 -0.0387193 0)
(1.00591 -0.0367785 0)
(1.00329 -0.0347163 0)
(1.00071 -0.0325344 0)
(0.99818 -0.030235 0)
(0.995733 -0.0278222 0)
(0.993384 -0.0252966 0)
(0.99118 -0.0226878 0)
(0.989057 -0.0198844 0)
(0.98736 -0.0173773 0)
(0.984937 -0.0134497 0)
(1.05125 -0.0439147 0)
(1.04996 -0.0436596 0)
(1.0486 -0.0433766 0)
(1.04716 -0.0430627 0)
(1.04565 -0.0427148 0)
(1.04406 -0.0423298 0)
(1.0424 -0.041904 0)
(1.04065 -0.0414339 0)
(1.03881 -0.0409154 0)
(1.0369 -0.0403447 0)
(1.0349 -0.0397174 0)
(1.03282 -0.0390292 0)
(1.03065 -0.0382752 0)
(1.02841 -0.0374501 0)
(1.02609 -0.0365479 0)
(1.0237 -0.0355624 0)
(1.02124 -0.0344873 0)
(1.01873 -0.0333172 0)
(1.01618 -0.0320485 0)
(1.01358 -0.0306795 0)
(1.01097 -0.0292096 0)
(1.00836 -0.0276386 0)
(1.00576 -0.0259665 0)
(1.00319 -0.0241932 0)
(1.00068 -0.0223203 0)
(0.998253 -0.0203466 0)
(0.995955 -0.0182947 0)
(0.99372 -0.0160711 0)
(0.991922 -0.0140766 0)
(0.989327 -0.0109124 0)
(1.05332 -0.0312999 0)
(1.05213 -0.0311361 0)
(1.05086 -0.0309534 0)
(1.04953 -0.0307496 0)
(1.04812 -0.0305226 0)
(1.04664 -0.0302702 0)
(1.04508 -0.0299897 0)
(1.04344 -0.0296785 0)
(1.04172 -0.0293338 0)
(1.03991 -0.0289526 0)
(1.03802 -0.0285318 0)
(1.03605 -0.0280681 0)
(1.03399 -0.0275578 0)
(1.03185 -0.026997 0)
(1.02962 -0.0263811 0)
(1.02732 -0.0257054 0)
(1.02495 -0.024965 0)
(1.02251 -0.0241555 0)
(1.02002 -0.023274 0)
(1.01748 -0.0223185 0)
(1.01491 -0.0212878 0)
(1.01231 -0.0201809 0)
(1.00972 -0.018997 0)
(1.00715 -0.017735 0)
(1.00462 -0.0163952 0)
(1.00215 -0.0149754 0)
(0.999799 -0.0134917 0)
(0.997498 -0.0118731 0)
(0.995638 -0.0104179 0)
(0.992935 -0.00808611 0)
(1.05464 -0.0188608 0)
(1.05352 -0.0187696 0)
(1.05232 -0.0186675 0)
(1.05106 -0.0185531 0)
(1.04973 -0.0184251 0)
(1.04832 -0.0182823 0)
(1.04684 -0.018123 0)
(1.04528 -0.0179456 0)
(1.04364 -0.0177484 0)
(1.04192 -0.0175296 0)
(1.04011 -0.0172873 0)
(1.03822 -0.0170193 0)
(1.03624 -0.0167235 0)
(1.03417 -0.0163973 0)
(1.03203 -0.016038 0)
(1.0298 -0.0156424 0)
(1.02749 -0.0152076 0)
(1.02512 -0.0147307 0)
(1.02268 -0.0142096 0)
(1.02018 -0.0136429 0)
(1.01765 -0.0130296 0)
(1.01508 -0.0123687 0)
(1.01251 -0.0116591 0)
(1.00994 -0.0109 0)
(1.00741 -0.0100909 0)
(1.00493 -0.00923008 0)
(1.00255 -0.00832711 0)
(1.00022 -0.00733736 0)
(0.998325 -0.00644562 0)
(0.995562 -0.00500792 0)
(1.0553 -0.00632646 0)
(1.05421 -0.00629719 0)
(1.05305 -0.00626431 0)
(1.05183 -0.00622741 0)
(1.05054 -0.00618606 0)
(1.04917 -0.00613979 0)
(1.04773 -0.00608808 0)
(1.04622 -0.00603039 0)
(1.04462 -0.00596613 0)
(1.04294 -0.00589469 0)
(1.04118 -0.00581541 0)
(1.03933 -0.0057276 0)
(1.0374 -0.00563048 0)
(1.03538 -0.00552321 0)
(1.03327 -0.00540482 0)
(1.03108 -0.00527428 0)
(1.02882 -0.00513052 0)
(1.02648 -0.00497259 0)
(1.02407 -0.00479973 0)
(1.02161 -0.00461141 0)
(1.0191 -0.0044072 0)
(1.01655 -0.00418671 0)
(1.01399 -0.00394952 0)
(1.01144 -0.00369522 0)
(1.0089 -0.00342358 0)
(1.00642 -0.00313394 0)
(1.00404 -0.00282946 0)
(1.00169 -0.00249489 0)
(0.999781 -0.0021929 0)
(0.996992 -0.00170495 0)
(0.0825643 -0.0647023 1.63333e-19)
(0.186744 -0.160707 -7.58042e-20)
(0.29342 -0.207931 2.76614e-20)
(0.394307 -0.243113 -8.35331e-20)
(0.487403 -0.266619 5.49356e-20)
(0.567805 -0.279991 -4.88616e-20)
(0.634173 -0.285096 9.71977e-21)
(0.687436 -0.283093 -2.58411e-20)
(0.730252 -0.277035 4.10203e-20)
(0.766163 -0.268936 -2.04962e-20)
(0.797998 -0.260015 -2.20689e-21)
(0.827514 -0.250699 8.20559e-21)
(0.85552 -0.240923 2.72043e-21)
(0.882213 -0.230431 -5.53257e-21)
(0.907471 -0.218975 -8.05896e-21)
(0.931045 -0.206419 2.17961e-20)
(0.95266 -0.192771 -2.77585e-20)
(0.972087 -0.178173 3.42988e-20)
(0.989183 -0.162862 1.23448e-21)
(1.00391 -0.147129 -1.18927e-20)
(1.01632 -0.131272 7.00588e-23)
(1.02656 -0.115559 -7.41611e-21)
(1.03484 -0.100203 1.60789e-20)
(1.0414 -0.0853521 -1.77153e-20)
(1.04646 -0.0710843 3.65776e-21)
(1.05029 -0.0574077 3.04615e-21)
(1.05308 -0.0442625 -9.29816e-22)
(1.05502 -0.0315219 6.14388e-22)
(1.05625 -0.0189838 -1.81247e-21)
(1.05685 -0.00636584 7.32133e-22)
(0.0769828 -0.0483851 -2.2838e-20)
(0.193617 -0.13621 2.00896e-20)
(0.306599 -0.194701 -3.48807e-20)
(0.41209 -0.238799 -1.61251e-20)
(0.506996 -0.269141 -4.38549e-20)
(0.587759 -0.287386 4.58821e-20)
(0.652856 -0.295464 1.84761e-20)
(0.704265 -0.294979 -4.88815e-20)
(0.745171 -0.289417 4.0288e-20)
(0.779398 -0.281136 2.23526e-20)
(0.809878 -0.271613 -4.16546e-20)
(0.838349 -0.261452 -1.4925e-20)
(0.865547 -0.250685 2.7123e-20)
(0.891586 -0.239112 1.44261e-21)
(0.916269 -0.226527 -1.14893e-20)
(0.939286 -0.212836 5.73225e-21)
(0.960328 -0.198089 2.89109e-21)
(0.979154 -0.182466 3.39956e-21)
(0.995625 -0.166238 4.81885e-21)
(1.00972 -0.149714 -2.37944e-20)
(1.02151 -0.133199 2.60172e-20)
(1.03116 -0.116956 -1.44686e-20)
(1.0389 -0.101188 7.15612e-21)
(1.04497 -0.0860261 -3.79425e-22)
(1.04962 -0.0715302 -3.21217e-21)
(1.05309 -0.0576916 5.55208e-21)
(1.0556 -0.0444348 -3.95995e-21)
(1.05732 -0.0316199 1.06527e-21)
(1.0584 -0.0190327 2.64298e-23)
(1.05892 -0.00638048 -8.47097e-23)
(0.0660385 -0.0388505 -1.95585e-21)
(0.191475 -0.118727 -8.31252e-20)
(0.310984 -0.183183 4.73305e-20)
(0.42166 -0.233926 2.0325e-20)
(0.519589 -0.269982 2.51911e-20)
(0.601915 -0.292675 -3.78961e-20)
(0.667072 -0.303675 2.99154e-21)
(0.717866 -0.30489 1.22715e-21)
(0.757815 -0.300092 -3.64407e-20)
(0.791018 -0.291909 5.08029e-20)
(0.820586 -0.282031 -3.72064e-20)
(0.848314 -0.271216 -3.55296e-21)
(0.874923 -0.259595 2.38275e-20)
(0.900473 -0.247037 -4.07818e-21)
(0.924708 -0.233393 3.73414e-21)
(0.947269 -0.218622 -4.51645e-21)
(0.967817 -0.202827 -5.48861e-21)
(0.986102 -0.186233 5.40738e-21)
(1.00199 -0.169143 1.36829e-21)
(1.01549 -0.151887 6.47567e-21)
(1.02668 -0.134773 3.26941e-23)
(1.03577 -0.118058 -6.43313e-21)
(1.04298 -0.101931 1.00616e-21)
(1.04857 -0.0865049 1.54936e-21)
(1.0528 -0.0718226 -3.64796e-21)
(1.05592 -0.0578581 1.87287e-22)
(1.05814 -0.044521 4.07961e-21)
(1.05964 -0.0316589 -1.58602e-21)
(1.06056 -0.0190471 1.56391e-22)
(1.06101 -0.00638377 -6.16391e-23)
(0.0591356 -0.0341611 5.11876e-20)
(0.187741 -0.10912 2.34284e-20)
(0.3122 -0.175925 3.92232e-21)
(0.427664 -0.230725 -4.25432e-20)
(0.528973 -0.271166 3.82272e-21)
(0.613516 -0.297568 -4.2809e-20)
(0.679558 -0.311048 5.36026e-20)
(0.730337 -0.313948 -6.54682e-20)
(0.769813 -0.309982 4.16721e-20)
(0.802347 -0.302004 8.24515e-21)
(0.831248 -0.291883 -4.7234e-20)
(0.858396 -0.280505 3.44273e-20)
(0.884518 -0.268094 -9.21307e-21)
(0.909636 -0.25459 -1.66934e-21)
(0.933444 -0.239909 3.30861e-21)
(0.955541 -0.224072 6.89041e-21)
(0.975567 -0.207243 3.40673e-21)
(0.993274 -0.189697 6.38691e-21)
(1.00855 -0.171771 1.65043e-20)
(1.0214 -0.153813 -1.3467e-20)
(1.03197 -0.136132 4.3351e-21)
(1.04045 -0.118977 -1.57493e-20)
(1.04711 -0.102521 6.12384e-21)
(1.05221 -0.0868604 -3.81611e-21)
(1.05601 -0.0720171 1.25252e-21)
(1.05877 -0.0579491 5.89269e-21)
(1.0607 -0.0445513 -4.21885e-21)
(1.06197 -0.0316594 1.15064e-21)
(1.06274 -0.0190389 2.76977e-23)
(1.06311 -0.00637958 -8.90968e-23)
(0.0562728 -0.0318926 6.86138e-20)
(0.185903 -0.10417 -1.61789e-19)
(0.313648 -0.171976 7.009e-21)
(0.432948 -0.229293 1.34744e-19)
(0.537422 -0.27301 -2.44401e-20)
(0.623983 -0.30244 -1.24655e-19)
(0.691238 -0.318067 1.42434e-19)
(0.742308 -0.322519 -1.38482e-19)
(0.781581 -0.319382 8.85856e-20)
(0.813678 -0.31166 3.46386e-22)
(0.842086 -0.301354 -1.10354e-20)
(0.868776 -0.289458 2.54151e-21)
(0.894485 -0.276284 -9.31698e-21)
(0.919202 -0.261843 2.61681e-20)
(0.942578 -0.246124 -4.36839e-20)
(0.964181 -0.229221 3.02989e-20)
(0.983639 -0.211363 -3.70973e-20)
(1.00071 -0.192878 1.68218e-20)
(1.01531 -0.174138 9.90392e-21)
(1.02747 -0.155504 1.62739e-21)
(1.03737 -0.137287 -1.11136e-23)
(1.04522 -0.119723 -8.86215e-21)
(1.05131 -0.102969 4.54204e-21)
(1.05589 -0.0871 3.66445e-21)
(1.05926 -0.0721199 -5.93267e-21)
(1.06164 -0.0579694 3.45966e-21)
(1.06327 -0.0445294 -1.05525e-21)
(1.06432 -0.031624 1.69492e-21)
(1.06493 -0.0190097 -2.04978e-21)
(1.06522 -0.0063684 -6.4742e-23)
(0.0550201 -0.0307995 3.58867e-20)
(0.185219 -0.101751 7.31921e-20)
(0.315332 -0.170179 -1.48464e-19)
(0.437738 -0.229236 3.86475e-21)
(0.545087 -0.275486 3.89883e-20)
(0.633586 -0.307416 -5.63738e-20)
(0.70218 -0.32493 8.3799e-20)
(0.753785 -0.33079 -8.35348e-20)
(0.793102 -0.328454 5.32658e-20)
(0.82498 -0.321002 -2.02229e-20)
(0.853071 -0.310535 5.03271e-22)
(0.87943 -0.298138 1.44351e-20)
(0.904804 -0.2842 7.25343e-21)
(0.929155 -0.26881 -1.88801e-20)
(0.952096 -0.252039 4.18256e-21)
(0.973173 -0.234061 8.15294e-21)
(0.992014 -0.215175 3.96495e-21)
(1.0084 -0.195764 7.19765e-21)
(1.02226 -0.176231 -2.85872e-21)
(1.03369 -0.156951 5.00466e-21)
(1.04288 -0.138231 -2.08523e-20)
(1.05007 -0.120292 2.74445e-20)
(1.05555 -0.103271 -1.26552e-20)
(1.05961 -0.0872219 -4.06317e-21)
(1.06252 -0.0721298 7.96924e-21)
(1.06453 -0.0579185 -4.67607e-21)
(1.06586 -0.044455 -2.6316e-23)
(1.06668 -0.0315526 2.57187e-21)
(1.06713 -0.0189592 -1.28448e-21)
(1.06733 -0.00635023 -9.34532e-23)
(0.0543966 -0.0302794 -1.10068e-21)
(0.18512 -0.100678 6.92827e-20)
(0.317121 -0.169691 -1.56834e-19)
(0.44212 -0.230157 1.16152e-19)
(0.552129 -0.278474 -2.23342e-20)
(0.64251 -0.312506 -8.62468e-20)
(0.712503 -0.331724 1.21788e-20)
(0.764838 -0.338877 -2.89499e-20)
(0.804417 -0.337306 9.38981e-20)
(0.836279 -0.330122 2.17884e-22)
(0.864224 -0.319496 -5.82663e-20)
(0.890375 -0.306586 2.46199e-20)
(0.91549 -0.29186 8.19828e-21)
(0.939504 -0.275493 3.07428e-20)
(0.962001 -0.257643 -6.40915e-20)
(0.982514 -0.238573 5.95359e-20)
(1.00068 -0.218659 -3.78847e-20)
(1.01632 -0.198335 3.52666e-20)
(1.0294 -0.178037 9.24371e-22)
(1.04005 -0.158144 -1.66681e-20)
(1.04848 -0.138956 -5.96084e-23)
(1.05498 -0.120678 -2.39316e-20)
(1.05984 -0.103423 1.84675e-20)
(1.06336 -0.0872235 -5.93395e-21)
(1.06581 -0.0720452 1.57276e-21)
(1.06744 -0.0577952 5.00397e-21)
(1.06846 -0.0443273 -1.1146e-21)
(1.06904 -0.0314446 1.74963e-21)
(1.06934 -0.0188874 -3.07397e-21)
(1.06945 -0.00632498 8.31176e-22)
(0.0540714 -0.0300374 2.36257e-20)
(0.185366 -0.100306 -8.60189e-20)
(0.318988 -0.169958 2.44127e-20)
(0.446228 -0.231736 1.28238e-19)
(0.558668 -0.281834 -6.76401e-20)
(0.650905 -0.317674 8.95622e-21)
(0.722332 -0.338488 2.8299e-20)
(0.775552 -0.346857 -1.03217e-19)
(0.815585 -0.34602 6.5892e-20)
(0.847623 -0.339092 6.33148e-20)
(0.875582 -0.328289 1.49883e-20)
(0.901646 -0.314834 -7.50764e-20)
(0.926572 -0.299275 8.7478e-21)
(0.950271 -0.281883 2.59915e-21)
(0.972304 -0.262916 -1.81804e-20)
(0.992207 -0.242735 1.31768e-20)
(1.00965 -0.221791 2.53595e-20)
(1.02447 -0.200572 -1.80718e-20)
(1.03671 -0.179537 -2.25546e-22)
(1.04652 -0.159069 -2.5234e-20)
(1.05417 -0.139454 3.40523e-20)
(1.05995 -0.120875 -1.84083e-20)
(1.06417 -0.10342 7.10533e-21)
(1.06713 -0.0871019 -3.73204e-22)
(1.06911 -0.0718643 -2.2792e-21)
(1.07035 -0.0575984 6.57493e-21)
(1.07106 -0.0441457 -3.48439e-21)
(1.07141 -0.0312997 1.64403e-22)
(1.07155 -0.0187939 -1.77908e-22)
(1.07158 -0.00629259 7.46873e-23)
(0.0538883 -0.0299311 -5.57119e-20)
(0.185792 -0.100297 1.37105e-19)
(0.320863 -0.17066 -1.76911e-19)
(0.4501 -0.233725 2.5431e-20)
(0.564782 -0.285426 7.47347e-20)
(0.658837 -0.322899 -1.04345e-19)
(0.731746 -0.345249 1.53956e-19)
(0.785993 -0.354788 4.10908e-21)
(0.826662 -0.354667 -4.93088e-20)
(0.859061 -0.347977 -5.53042e-20)
(0.887195 -0.336961 -6.1403e-20)
(0.913286 -0.322905 9.56352e-20)
(0.938085 -0.306446 -1.34406e-20)
(0.961478 -0.287965 -3.31708e-20)
(0.983017 -0.267834 6.30045e-21)
(1.00225 -0.246518 3.98304e-20)
(1.01889 -0.224546 8.14554e-21)