/*--------------------------------*- C++ -*----------------------------------*\
  =========                 |
  \\      /  F ield         | OpenFOAM: The Open Source CFD Toolbox
   \\    /   O peration     | Website:  https://openfoam.org
    \\  /    A nd           | Version:  7
     \\/     M anipulation  |
\*---------------------------------------------------------------------------*/
FoamFile
{
    version     2.0;
    format      ascii;
    class       volScalarField;
    location    "0.8";
    object      p;
}
// * * * * * * * * * * * * * * * * * * * * * * * * * * * * * * * * * * * * * //

dimensions      [1 -1 -2 0 0 0 0];

internalField   nonuniform List<scalar> 
1750
(
0.199736
0.423416
0.597656
0.71146
0.763872
0.816142
0.851362
0.851503
0.878682
0.953248
0.0327171
0.0882256
0.273238
0.533502
0.699303
0.752803
0.751853
0.762853
0.825344
0.948522
0.0532025
0.0625592
0.0712213
0.12658
0.260608
0.403557
0.530261
0.676196
0.836322
0.964602
0.0831273
0.0921855
0.116711
0.147546
0.204969
0.335226
0.514545
0.705561
0.881214
0.983405
0.14002
0.157489
0.200639
0.268965
0.353112
0.468182
0.634774
0.824446
0.956753
0.996962
0.24108
0.260349
0.312745
0.405681
0.53365
0.686394
0.844652
0.957404
0.995468
0.99987
0.40932
0.442219
0.520048
0.640145
0.779402
0.903752
0.976457
0.997546
0.999905
0.999999
0.657087
0.703482
0.784504
0.880241
0.955701
0.991196
0.999227
0.99997
0.999999
1
0.894503
0.92488
0.961515
0.987703
0.997936
0.999839
0.999994
1
1
1
0.989235
0.994784
0.998428
0.999742
0.999979
0.999999
1
1
1
1
0.999733
0.999917
0.999984
0.999998
1
1
1
1
1
1
0.999998
0.999999
1
1
1
1
1
1
1
1
1
1
1
1
1
1
1
1
1
1
1
1
1
1
1
1
1
1
1
1
1
1
1
1
1
1
1
1
1
1
0.0137854
0.0292898
0.0485191
0.0818099
0.142737
0.241616
0.402705
0.641576
0.879744
0.984314
0.999398
0.999992
1
1
1
0.0168498
0.0377346
0.0601767
0.100671
0.173465
0.289715
0.472678
0.713201
0.916332
0.991139
0.999709
0.999996
1
1
1
0.0197237
0.0412573
0.0635107
0.103306
0.175288
0.301038
0.505177
0.75502
0.937257
0.994082
0.999815
0.999998
1
1
1
0.0263686
0.0443543
0.0624469
0.0979749
0.170973
0.311303
0.549223
0.809717
0.960705
0.996925
0.999908
0.999999
1
1
1
0.0366444
0.0435458
0.0446933
0.0733429
0.157396
0.33496
0.619367
0.870547
0.978986
0.998617
0.99996
0.999999
1
1
1
0.0420658
0.0331711
0.0260551
0.0627316
0.154197
0.40174
0.723724
0.9291
0.991329
0.999518
0.999986
1
1
1
1
0.0308022
0.0209
0.0218838
0.0762715
0.24043
0.541862
0.834577
0.970757
0.997797
0.99992
0.999996
1
1
1
1
0.0116728
0.0126422
0.0352361
0.140755
0.377411
0.692014
0.922214
0.994403
1.00068
1.00009
1
1
1
1
1
0.00293606
0.0107716
0.0705408
0.234243
0.522188
0.830376
0.982027
1.00547
1.00196
1.00013
1
1
1
1
1
0.000645583
0.0150193
0.125764
0.356606
0.699819
0.95183
1.01514
1.01028
1.00225
1.00009
1
1
1
1
1
0.000217433
0.0453184
0.212682
0.537657
0.888001
1.02578
1.0284
1.01224
1.00132
1.00004
1
1
1
1
1
0.00388886
0.109751
0.377032
0.777638
1.01834
1.05294
1.03438
1.00759
1.00044
1.00001
1
1
1
1
1
0.0267424
0.227848
0.65376
0.978775
1.07284
1.06241
1.02454
1.00288
1.0001
1
1
1
1
1
1
0.148501
0.507479
0.930712
1.08687
1.08583
1.05357
1.01156
1.00069
1.00002
1
1
1
1
1
1
0.522661
0.890184
1.11142
1.1164
1.09273
1.03025
1.00296
1.0001
1
1
1
1
1
1
1
1.13772
1.15301
1.14963
1.12712
1.06258
1.00721
1.00004
1
1
1
1
1
1
1
1
1.13185
1.14642
1.14203
1.12342
1.07176
1.01372
1.00061
1.00001
1
1
1
1
1
1
1
1.12915
1.14092
1.13636
1.11697
1.06677
1.01282
1.00058
1.00001
1
1
1
1
1
1
1
1.12874
1.13795
1.13279
1.11087
1.05937
1.01073
1.00048
1.00001
1
1
1
1
1
1
1
1.12912
1.13759
1.13246
1.10458
1.049
1.00752
1.0003
1
1
1
1
1
1
1
1
1.13468
1.13945
1.1345
1.0958
1.03613
1.00432
1.00015
1
1
1
1
1
1
1
1
1.15598
1.14557
1.13718
1.08044
1.02225
1.00196
1.00006
1
1
1
1
1
1
1
1
1.17412
1.14649
1.13063
1.05797
1.01107
1.0007
1.00002
1
1
1
1
1
1
1
1
1.18927
1.14136
1.10348
1.03449
1.00447
1.00021
1
1
1
1
1
1
1
1
1
1.19668
1.12581
1.07085
1.01665
1.00147
1.00005
1
1
1
1
1
1
1
1
1
1.19721
1.10211
1.04177
1.00656
1.00039
1.00001
1
1
1
1
1
1
1
1
1
1.17269
1.07439
1.02075
1.00209
1.00008
1
1
1
1
1
1
1
1
1
1
1.14047
1.04693
1.00788
1.00048
1.00001
1
1
1
1
1
1
1
1
1
1
1.09867
1.02096
1.00202
1.00007
1
1
1
1
1
1
1
1
1
1
1
1.04316
1.0061
1.00028
1.00001
1
1
1
1
1
1
1
1
1
1
1
1
1
1
1
1
1
1
1
1
1
1
1
1
1
1
1
1
1
1
1
1
1
1
1
1
1
1
1
1
1
1
1
1
1
1
1
1
1
1
1
1
1
1
1
1
1
1
1
1
1
1
1
1
1
1
1
1
1
1
1
1
1
1
1
1
1
1
1
1
1
1
1
1
1
1
1
1
1
1
1
1
1
1
1
1
1
1
1
1
1
1
1
1
1
1
1
1
1
1
1
1
1
1
1
1
1
1
1
1
1
1
1
1
1
1
1
1
1
1
1
1
1
1
1
1
1
1
1
1
1
1
1
1
1
1
1
1
1
1
1
1
1
1
1
1
1
1
1
1
1
1
1
1
1
1
1
1
1
1
1
1
1
1
1
1
1
1
1
1
1
1
1
1
1
1
1
1
1
1
1
1
1
1
1
1
1
1
1
1
1
1
1
1
1
1
1
1
1
1
1
1
1
1
1
1
1
1
1
1
1
1
1
1
1
1
1
1
1
1
1
1
1
1
1
1
1
1
1
1
1
1
1
1
1
1
1
1
1
1
1
1
1
1
1
1
1
1
1
1
1
1
1
1
1
1
1
1
1
1
1
1
1
1
1
1
1
1
1
1
1
1
1
1
1
1
1
1
1
1
1
1
1
1
1
1
1
1
1
1
1
1
1
1
1
1
1
1
1
1
1
1
1
1
1
1
1
1
1
1
1
1
1
1
1
1
1
1
1
1
1
1
1
1
1
1
1
1
1
1
1
1
1
1
1
1
1
1
1
1
1
1
1
1
1
1
1
1
1
1
1
2.23471
0.996934
1.00001
1
1
1
1
1
1
1
1
1
1
1
1
1
1
1
1
1
6.56602
1.47672
0.999937
1
1
1
1
1
1
1
1
1
1
1
1
1
1
1
1
1
12.1133
6.87016
2.35407
0.99793
1
1
1
1
1
1
1
1
1
1
1
1
1
1
1
1
9.70624
7.69879
6.50342
1.98636
0.99779
1
1
1
1
1
1
1
1
1
1
1
1
1
1
1
7.38667
6.75348
7.16618
4.56656
1.17984
0.999999
1
1
1
1
1
1
1
1
1
1
1
1
1
1
6.32744
6.28979
6.81373
6.02178
2.17706
0.998464
1
1
1
1
1
1
1
1
1
1
1
1
1
1
6.05333
6.17916
6.55501
6.42219
3.60504
1.03914
1
1
1
1
1
1
1
1
1
1
1
1
1
1
6.06096
6.13146
6.38406
6.48011
4.81258
1.35077
0.999999
1
1
1
1
1
1
1
1
1
1
1
1
1
6.14273
6.11438
6.24659
6.45906
5.63191
2.03387
0.999998
1
1
1
1
1
1
1
1
1
1
1
1
1
6.25647
6.12178
6.14945
6.37648
6.11688
2.9966
1.00107
1
1
1
1
1
1
1
1
1
1
1
1
1
6.33502
6.1397
6.07971
6.31456
6.38126
3.98094
1.09923
1
1
1
1
1
1
1
1
1
1
1
1
1
6.38053
6.16033
6.06391
6.34859
6.49664
4.7478
1.3427
0.999999
1
1
1
1
1
1
1
1
1
1
1
1
6.45901
6.24457
6.12928
6.43723
6.65403
5.26917
1.64325
0.999997
1
1
1
1
1
1
1
1
1
1
1
1
6.57044
6.39218
6.25104
6.47131
6.70691
5.80539
2.22275
0.999997
1
1
1
1
1
1
1
1
1
1
1
1
6.74993
6.59365
6.50332
6.71157
6.94539
5.80135
1.86135
0.957129
1
1
1
1
1
1
1
1
1
1
1
1
2.23786
3.96357
4.8807
5.53126
6.26365
6.09047
4.40394
1.73277
1.02378
1.00016
1
1
1
1
1
1
1
1
1
1
0.638434
1.98458
2.93487
3.70973
4.63787
5.13379
4.87003
3.30174
1.32937
1.00644
1.00003
1
1
1
1
1
1
1
1
1
0.367445
1.17317
1.72133
2.26436
2.93951
3.88291
4.15409
3.69134
2.01265
1.06367
1.00057
1
1
1
1
1
1
1
1
1
0.362392
0.763056
1.09242
1.48661
1.97334
2.78252
3.47213
3.36127
2.44199
1.21975
1.00394
1.00002
1
1
1
1
1
1
1
1
0.416203
0.551854
0.66874
0.95059
1.43006
2.10551
2.93528
3.07105
2.51609
1.36951
1.01146
1.00006
1
1
1
1
1
1
1
1
0.514107
0.464575
0.508166
0.686804
0.998064
1.54368
2.41679
2.69311
2.35305
1.38489
1.01459
1.00008
1
1
1
1
1
1
1
1
0.588533
0.445852
0.454021
0.624445
0.814501
1.29591
2.10242
2.3712
2.11089
1.32834
1.01289
1.00007
1
1
1
1
1
1
1
1
0.633588
0.454156
0.440197
0.594379
0.751088
1.22147
1.94356
2.11029
1.85881
1.2271
1.00803
1.00005
1
1
1
1
1
1
1
1
0.662862
0.492365
0.471539
0.597369
0.737992
1.22974
1.80329
1.87135
1.60899
1.12187
1.00319
1.00002
1
1
1
1
1
1
1
1
0.719256
0.581289
0.564173
0.678746
0.821932
1.29281
1.65392
1.65343
1.36548
1.04483
1.00072
1
1
1
1
1
1
1
1
1
0.850545
0.751355
0.734706
0.836242
0.9793
1.31911
1.50171
1.44034
1.15709
1.00908
1.00008
1
1
1
1
1
1
1
1
1
0.993514
0.934515
0.918564
0.982243
1.0812
1.29631
1.34104
1.2204
1.03524
1.00066
0.999992
0.999999
1
1
1
1
1
1
1
1
1.0115
0.991048
0.98078
1.00563
1.08969
1.21184
1.16937
1.04966
1.00111
0.999796
0.999983
1
1
1
1
1
1
1
1
1
0.988572
0.975684
0.972566
0.996419
1.07098
1.0663
1.01514
0.991438
0.997771
0.999869
0.999996
1
1
1
1
1
1
1
1
1
0.962347
0.962246
0.95893
0.969599
0.976084
0.946456
0.95092
0.985589
0.998658
0.999967
1
1
1
1
1
1
1
1
1
1
0.80554
0.91671
0.918605
0.905971
0.893255
0.904743
0.947698
0.98833
0.99934
0.99999
1
1
1
1
1
1
1
1
1
1
0.656408
0.810222
0.872263
0.871374
0.872764
0.902675
0.950547
0.990555
0.999532
0.999993
1
1
1
1
1
1
1
1
1
1
0.584619
0.709545
0.823805
0.856085
0.870957
0.906277
0.954943
0.991841
0.999607
0.999994
1
1
1
1
1
1
1
1
1
1
0.591233
0.630202
0.757932
0.830593
0.865888
0.91215
0.960663
0.993243
0.999687
0.999996
1
1
1
1
1
1
1
1
1
1
0.639726
0.639712
0.696125
0.777846
0.846975
0.912962
0.967343
0.995134
0.999795
0.999997
1
1
1
1
1
1
1
1
1
1
0.744441
0.691198
0.695886
0.733272
0.82376
0.909434
0.973177
0.996905
0.999893
0.999999
1
1
1
1
1
1
1
1
1
1
0.841878
0.777689
0.737446
0.743943
0.823198
0.910254
0.977714
0.998081
0.999951
0.999999
1
1
1
1
1
1
1
1
1
1
0.874564
0.852991
0.814782
0.800831
0.851025
0.923963
0.983683
0.998942
0.99998
1
1
1
1
1
1
1
1
1
1
1
0.893558
0.898312
0.888259
0.883155
0.913878
0.958423
0.992466
0.99964
0.999995
1
1
1
1
1
1
1
1
1
1
1
0.951546
0.958745
0.963339
0.968715
0.980078
0.992022
0.998891
0.999962
1
1
1
1
1
1
1
1
1
1
1
1
)
;

boundaryField
{
    inlet
    {
        type            fixedValue;
        value           uniform 1;
    }
    outlet
    {
        type            zeroGradient;
    }
    airfoil
    {
        type            zeroGradient;
    }
    top
    {
        type            symmetryPlane;
    }
    bottom
    {
        type            symmetryPlane;
    }
    defaultFaces
    {
        type            empty;
    }
}


// ************************************************************************* //
