/*--------------------------------*- C++ -*----------------------------------*\
  =========                 |
  \\      /  F ield         | OpenFOAM: The Open Source CFD Toolbox
   \\    /   O peration     | Website:  https://openfoam.org
    \\  /    A nd           | Version:  7
     \\/     M anipulation  |
\*---------------------------------------------------------------------------*/
FoamFile
{
    version     2.0;
    format      ascii;
    class       volScalarField;
    location    "0.8";
    object      T;
}
// * * * * * * * * * * * * * * * * * * * * * * * * * * * * * * * * * * * * * //

dimensions      [0 0 0 1 0 0 0];

internalField   nonuniform List<scalar> 
1750
(
1.07209
1.14026
1.16176
1.1502
1.11214
1.06939
1.02279
0.982141
0.973793
0.985406
0.334897
0.556604
0.900217
1.07373
1.06321
1.02351
0.976319
0.951696
0.956009
0.984204
0.373545
0.398007
0.42585
0.57748
0.739825
0.815095
0.860919
0.909905
0.956453
0.990351
0.448812
0.478536
0.528112
0.571283
0.634156
0.734403
0.833283
0.911798
0.967806
0.995585
0.554099
0.582653
0.631991
0.689179
0.745786
0.808844
0.881645
0.948741
0.988249
0.999158
0.67433
0.689825
0.726549
0.780147
0.840959
0.901923
0.955247
0.988292
0.99875
0.999962
0.794366
0.806646
0.839436
0.886485
0.93472
0.973015
0.993553
0.99932
0.999973
1
0.901711
0.914222
0.938252
0.966381
0.987731
0.997553
0.999782
0.999991
1
1
0.972779
0.980106
0.989553
0.996586
0.999416
0.999954
0.999998
1
1
1
0.997122
0.998569
0.999558
0.999926
0.999994
1
1
1
1
1
0.999924
0.999976
0.999995
0.999999
1
1
1
1
1
1
0.999999
1
1
1
1
1
1
1
1
1
1
1
1
1
1
1
1
1
1
1
1
1
1
1
1
1
1
1
1
1
1
1
1
1
1
1
1
1
1
1
0.325785
0.330174
0.361437
0.441427
0.551817
0.673989
0.793319
0.898627
0.969314
0.995901
0.999832
0.999998
1
1
1
0.337827
0.351313
0.394008
0.485869
0.593677
0.711166
0.827785
0.922413
0.978896
0.997644
0.999918
0.999999
1
1
1
0.349191
0.361702
0.415698
0.505244
0.604955
0.72219
0.84258
0.93449
0.98397
0.998402
0.999948
0.999999
1
1
1
0.382449
0.380111
0.427171
0.513711
0.610947
0.732307
0.860767
0.949469
0.989741
0.999155
0.999974
1
1
1
1
0.433907
0.393272
0.410955
0.489547
0.608896
0.751643
0.88807
0.966098
0.994414
0.999614
0.999989
1
1
1
1
0.486667
0.399969
0.36576
0.47253
0.610758
0.793145
0.923353
0.981533
0.997653
0.999864
0.999996
1
1
1
1
0.49397
0.387591
0.356264
0.519053
0.702791
0.862683
0.957271
0.992471
0.999408
0.999977
0.999999
1
1
1
1
0.449603
0.350524
0.441424
0.61581
0.793019
0.919778
0.981618
0.998795
1.00022
1.00003
1
1
1
1
1
0.339061
0.329272
0.50536
0.699065
0.863507
0.961766
0.996985
1.00184
1.00058
1.00003
1
1
1
1
1
0.161023
0.312254
0.580083
0.782102
0.928018
0.992852
1.00529
1.00319
1.00063
1.00003
1
1
1
1
1
0.0435873
0.417905
0.672524
0.868174
0.980698
1.01002
1.00882
1.00359
1.00038
1.00001
1
1
1
1
1
0.0917169
0.536263
0.784183
0.951315
1.0117
1.01636
1.01031
1.00218
1.00012
1
1
1
1
1
1
0.206646
0.635076
0.901372
1.00355
1.02323
1.01894
1.00698
1.0008
1.00003
1
1
1
1
1
1
0.474598
0.812288
0.989075
1.02698
1.02545
1.01508
1.00322
1.00019
1
1
1
1
1
1
1
0.807171
0.972812
1.03373
1.03274
1.02531
1.00843
1.00085
1.00003
1
1
1
1
1
1
1
1.03792
1.04186
1.04093
1.03468
1.0178
1.00211
1.00001
1
1
1
1
1
1
1
1
1.03643
1.04018
1.03906
1.03426
1.02027
1.00396
1.00018
1
1
1
1
1
1
1
1
1.03573
1.03875
1.03755
1.03242
1.01889
1.0037
1.00017
1
1
1
1
1
1
1
1
1.03563
1.03798
1.03662
1.0308
1.01683
1.0031
1.00014
1
1
1
1
1
1
1
1
1.03574
1.03788
1.03652
1.02911
1.01394
1.00217
1.00009
1
1
1
1
1
1
1
1
1.0373
1.03837
1.03704
1.02675
1.01032
1.00124
1.00004
1
1
1
1
1
1
1
1
1.04288
1.03991
1.03773
1.0226
1.00638
1.00056
1.00002
1
1
1
1
1
1
1
1
1.04757
1.0401
1.03598
1.01642
1.00318
1.0002
1
1
1
1
1
1
1
1
1
1.05142
1.03856
1.02871
1.00984
1.00129
1.00006
1
1
1
1
1
1
1
1
1
1.05327
1.03449
1.01986
1.00477
1.00042
1.00001
1
1
1
1
1
1
1
1
1
1.05338
1.02826
1.01184
1.00188
1.00011
1
1
1
1
1
1
1
1
1
1
1.04699
1.02085
1.00594
1.0006
1.00002
1
1
1
1
1
1
1
1
1
1
1.03858
1.01334
1.00227
1.00014
1
1
1
1
1
1
1
1
1
1
1
1.02744
1.00602
1.00058
1.00002
1
1
1
1
1
1
1
1
1
1
1
1.01222
1.00176
1.00008
1
1
1
1
1
1
1
1
1
1
1
1
1
1
1
1
1
1
1
1
1
1
1
1
1
1
1
1
1
1
1
1
1
1
1
1
1
1
1
1
1
1
1
1
1
1
1
1
1
1
1
1
1
1
1
1
1
1
1
1
1
1
1
1
1
1
1
1
1
1
1
1
1
1
1
1
1
1
1
1
1
1
1
1
1
1
1
1
1
1
1
1
1
1
1
1
1
1
1
1
1
1
1
1
1
1
1
1
1
1
1
1
1
1
1
1
1
1
1
1
1
1
1
1
1
1
1
1
1
1
1
1
1
1
1
1
1
1
1
1
1
1
1
1
1
1
1
1
1
1
1
1
1
1
1
1
1
1
1
1
1
1
1
1
1
1
1
1
1
1
1
1
1
1
1
1
1
1
1
1
1
1
1
1
1
1
1
1
1
1
1
1
1
1
1
1
1
1
1
1
1
1
1
1
1
1
1
1
1
1
1
1
1
1
1
1
1
1
1
1
1
1
1
1
1
1
1
1
1
1
1
1
1
1
1
1
1
1
1
1
1
1
1
1
1
1
1
1
1
1
1
1
1
1
1
1
1
1
1
1
1
1
1
1
1
1
1
1
1
1
1
1
1
1
1
1
1
1
1
1
1
1
1
1
1
1
1
1
1
1
1
1
1
1
1
1
1
1
1
1
1
1
1
1
1
1
1
1
1
1
1
1
1
1
1
1
1
1
1
1
1
1
1
1
1
1
1
1
1
1
1
1
1
1
1
1
1
1
1
1
1
1
1
1
1
1
1
1
1
1
1
1
1
1
1
1
1
1
1
1
1
1
1.2841
0.999284
1
1
1
1
1
1
1
1
1
1
1
1
1
1
1
1
1
1
1.87061
1.19029
0.999982
1
1
1
1
1
1
1
1
1
1
1
1
1
1
1
1
1
2.3955
2.10109
1.49136
0.999147
1
1
1
1
1
1
1
1
1
1
1
1
1
1
1
1
2.25293
2.11942
2.1319
1.41607
0.99887
1
1
1
1
1
1
1
1
1
1
1
1
1
1
1
2.09865
2.06391
2.16354
1.90141
1.08969
1
1
1
1
1
1
1
1
1
1
1
1
1
1
1
2.00562
2.03238
2.12857
2.07622
1.45496
0.999134
1
1
1
1
1
1
1
1
1
1
1
1
1
1
1.97684
2.01684
2.09091
2.10952
1.74735
1.02074
1
1
1
1
1
1
1
1
1
1
1
1
1
1
1.97638
2.00499
2.06658
2.10428
1.90713
1.16586
0.999999
1
1
1
1
1
1
1
1
1
1
1
1
1
1.98585
2.00532
2.05595
2.10266
2.00374
1.4011
0.999998
1
1
1
1
1
1
1
1
1
1
1
1
1
2.00269
2.0112
2.05435
2.1014
2.06827
1.62404
1.00076
1
1
1
1
1
1
1
1
1
1
1
1
1
2.01803
2.02066
2.05739
2.10761
2.11282
1.79525
1.05076
1
1
1
1
1
1
1
1
1
1
1
1
1
2.02846
2.02901
2.06409
2.12256
2.14115
1.9113
1.16535
0.999999
1
1
1
1
1
1
1
1
1
1
1
1
2.04073
2.04276
2.07623
2.14162
2.17078
1.98704
1.28679
0.999998
1
1
1
1
1
1
1
1
1
1
1
1
2.05115
2.05743
2.08847
2.14539
2.17888
2.05958
1.46963
0.999997
1
1
1
1
1
1
1
1
1
1
1
1
2.07263
2.08318
2.12431
2.17796
2.20902
2.06829
1.39185
0.973228
1
1
1
1
1
1
1
1
1
1
1
1
1.56206
1.82451
1.94376
2.04117
2.14409
2.12769
1.90742
1.3007
1.00988
1.00005
1
1
1
1
1
1
1
1
1
1
1.14211
1.52964
1.68259
1.80162
1.95757
2.03002
1.98713
1.69526
1.13939
1.00239
1.00001
1
1
1
1
1
1
1
1
1
1.12941
1.36723
1.45224
1.55577
1.71017
1.88333
1.8952
1.77291
1.3631
1.02506
1.00018
1
1
1
1
1
1
1
1
1
1.12001
1.22088
1.27382
1.3794
1.52975
1.72449
1.79063
1.71867
1.45882
1.08488
1.00133
1
1
1
1
1
1
1
1
1
1.15468
1.11767
1.10352
1.21886
1.40761
1.59494
1.69001
1.64262
1.44214
1.12803
1.00382
1.00002
1
1
1
1
1
1
1
1
1.19126
1.07705
1.06357
1.16076
1.30665
1.46209
1.57336
1.53958
1.38882
1.12572
1.00475
1.00002
1
1
1
1
1
1
1
1
1.1859
1.04703
1.03482
1.12144
1.21169
1.34728
1.46146
1.43496
1.3145
1.1042
1.00412
1.00002
1
1
1
1
1
1
1
1
1.17555
1.02861
0.986327
1.05799
1.12053
1.25474
1.36093
1.3349
1.23518
1.06979
1.00249
1.00001
1
1
1
1
1
1
1
1
1.15283
1.0238
0.976809
1.00793
1.05652
1.19045
1.26759
1.24298
1.16077
1.03645
1.00096
1
1
1
1
1
1
1
1
1
1.11976
1.02477
0.985477
1.00528
1.03496
1.14403
1.18842
1.16882
1.09595
1.01317
1.00021
1
1
1
1
1
1
1
1
1
1.08788
1.0318
1.0054
1.01622
1.03806
1.10846
1.13033
1.10993
1.04305
1.00265
1.00002
1
1
1
1
1
1
1
1
1
1.06394
1.03305
1.01653
1.02349
1.03814
1.08252
1.08555
1.0572
1.01017
1.00019
0.999998
1
1
1
1
1
1
1
1
1
1.03514
1.0243
1.01332
1.01533
1.02977
1.05273
1.04394
1.01417
1.00035
0.999942
0.999995
1
1
1
1
1
1
1
1
1
1.00636
1.00236
0.999126
1.00217
1.01822
1.01653
1.00451
0.997674
0.999368
0.999962
0.999999
1
1
1
1
1
1
1
1
1
0.985552
0.987005
0.985825
0.987874
0.990796
0.984659
0.986027
0.995926
0.999618
0.999991
1
1
1
1
1
1
1
1
1
1
0.966446
0.970771
0.972168
0.97005
0.968203
0.972058
0.984956
0.996688
0.999812
0.999997
1
1
1
1
1
1
1
1
1
1
0.936316
0.942
0.959966
0.961318
0.962117
0.971369
0.985734
0.997316
0.999867
0.999998
1
1
1
1
1
1
1
1
1
1
0.928983
0.911511
0.944024
0.956505
0.961483
0.972418
0.987007
0.997681
0.999888
0.999998
1
1
1
1
1
1
1
1
1
1
0.934444
0.883093
0.920764
0.947635
0.959808
0.974207
0.988683
0.99808
0.999911
0.999999
1
1
1
1
1
1
1
1
1
1
0.951638
0.888116
0.899057
0.929265
0.953663
0.974474
0.990635
0.998617
0.999942
0.999999
1
1
1
1
1
1
1
1
1
1
0.979966
0.909679
0.899766
0.913752
0.945957
0.973414
0.99234
0.999121
0.99997
1
1
1
1
1
1
1
1
1
1
1
0.989137
0.939913
0.916638
0.918065
0.945601
0.973654
0.99366
0.999456
0.999986
1
1
1
1
1
1
1
1
1
1
1
0.98083
0.96314
0.944335
0.938174
0.954625
0.977747
0.995366
0.9997
0.999994
1
1
1
1
1
1
1
1
1
1
1
0.975126
0.97349
0.968147
0.96532
0.974465
0.987943
0.997857
0.999898
0.999999
1
1
1
1
1
1
1
1
1
1
1
0.985228
0.98826
0.989805
0.991024
0.994149
0.997641
0.999672
0.999989
1
1
1
1
1
1
1
1
1
1
1
1
)
;

boundaryField
{
    inlet
    {
        type            fixedValue;
        value           uniform 1;
    }
    outlet
    {
        type            inletOutlet;
        inletValue      uniform 1;
        value           nonuniform List<scalar> 
35
(
0.985732
0.988807
0.99044
0.991712
0.994704
0.99795
0.999732
0.999992
1
1
1
1
1
1
1
1
1
1
1
1
0.98598
0.985267
0.991179
0.996134
0.99931
0.999971
1
1
1
1
1
1
1
1
1
)
;
    }
    airfoil
    {
        type            zeroGradient;
    }
    top
    {
        type            symmetryPlane;
    }
    bottom
    {
        type            symmetryPlane;
    }
    defaultFaces
    {
        type            empty;
    }
}


// ************************************************************************* //
