/*--------------------------------*- C++ -*----------------------------------*\
  =========                 |
  \\      /  F ield         | OpenFOAM: The Open Source CFD Toolbox
   \\    /   O peration     | Website:  https://openfoam.org
    \\  /    A nd           | Version:  7
     \\/     M anipulation  |
\*---------------------------------------------------------------------------*/
FoamFile
{
    version     2.0;
    format      ascii;
    class       volScalarField;
    location    "1.5";
    object      p;
}
// * * * * * * * * * * * * * * * * * * * * * * * * * * * * * * * * * * * * * //

dimensions      [1 -1 -2 0 0 0 0];

internalField   nonuniform List<scalar> 
90000
(
0.572299
0.584365
0.597204
0.610234
0.621713
0.632541
0.643684
0.65476
0.665579
0.677593
0.690668
0.70477
0.719021
0.733972
0.74881
0.764053
0.778664
0.793692
0.807813
0.822452
0.835875
0.849845
0.862266
0.875305
0.88652
0.898323
0.90787
0.918186
0.925743
0.934214
0.939758
0.944727
0.949073
0.951671
0.952116
0.951663
0.950908
0.949637
0.946634
0.942146
0.935249
0.929264
0.925106
0.924331
0.925833
0.928709
0.93267
0.936407
0.939589
0.941866
0.942271
0.941907
0.941426
0.940348
0.938311
0.935637
0.933108
0.932241
0.932839
0.934497
0.93747
0.940783
0.943861
0.944653
0.944756
0.943886
0.942428
0.940937
0.940825
0.942045
0.94499
0.948381
0.95028
0.95029
0.949285
0.948895
0.949414
0.951378
0.954264
0.956285
0.956984
0.958603
0.962456
0.967234
0.972017
0.979948
0.994789
1.01818
1.046
1.06909
1.07583
1.07817
1.08049
1.08264
1.08359
1.08528
1.08728
1.0889
1.08962
1.08881
0.562437
0.562946
0.563943
0.565692
0.568059
0.570716
0.574077
0.57831
0.583099
0.588253
0.594239
0.600942
0.608512
0.616702
0.626032
0.636026
0.647173
0.658808
0.671688
0.684874
0.699287
0.713733
0.729233
0.744564
0.760689
0.776553
0.792632
0.808494
0.823907
0.839242
0.853308
0.867404
0.878941
0.891408
0.899583
0.90846
0.913848
0.919409
0.921488
0.926555
0.933863
0.940892
0.944551
0.946686
0.946457
0.94533
0.943225
0.940481
0.938249
0.936213
0.934318
0.934032
0.934495
0.934861
0.936059
0.937179
0.939117
0.940956
0.942152
0.94183
0.9408
0.939723
0.939177
0.938898
0.939558
0.940101
0.941683
0.943976
0.94562
0.94587
0.945869
0.946119
0.947052
0.948093
0.949222
0.950469
0.951356
0.951886
0.952416
0.953878
0.956811
0.960546
0.963764
0.967029
0.971585
0.97988
0.99473
1.01636
1.04349
1.06818
1.07607
1.07859
1.08079
1.08273
1.08339
1.08488
1.08698
1.08874
1.08952
1.08885
0.562257
0.562235
0.562193
0.562153
0.562117
0.562085
0.562073
0.56209
0.562145
0.562271
0.562489
0.562834
0.563443
0.564272
0.565359
0.566719
0.568478
0.570646
0.57346
0.576857
0.581203
0.586317
0.592785
0.600192
0.609459
0.619816
0.632615
0.646414
0.66314
0.680635
0.701116
0.722179
0.745435
0.769063
0.793536
0.818368
0.84148
0.865136
0.885647
0.904477
0.915127
0.924733
0.928889
0.932522
0.933369
0.933908
0.93343
0.933622
0.932997
0.930994
0.928408
0.929268
0.932094
0.935966
0.941145
0.944579
0.946962
0.946751
0.945009
0.941839
0.937611
0.934694
0.931816
0.932569
0.934967
0.940461
0.945594
0.948733
0.948225
0.946211
0.943768
0.943798
0.945327
0.949207
0.952014
0.952358
0.951645
0.950484
0.951346
0.954225
0.958116
0.961051
0.962895
0.965721
0.970621
0.979122
0.994332
1.01662
1.04364
1.06765
1.07584
1.07848
1.08069
1.08225
1.08306
1.08481
1.0871
1.08898
1.09011
1.08926
0.562097
0.562024
0.561914
0.561856
0.561816
0.561771
0.561732
0.561702
0.561673
0.561643
0.56161
0.561617
0.561594
0.561581
0.561567
0.561555
0.561547
0.561539
0.561546
0.561589
0.561654
0.561752
0.561937
0.562248
0.562911
0.563942
0.565505
0.567622
0.570695
0.574704
0.580488
0.587671
0.59783
0.609685
0.625824
0.643785
0.666983
0.691418
0.720578
0.750126
0.779567
0.809497
0.833212
0.858277
0.873731
0.890378
0.898675
0.908353
0.91247
0.916148
0.921163
0.930285
0.937214
0.941941
0.946134
0.94779
0.9474
0.946479
0.94352
0.940219
0.936396
0.934886
0.935589
0.93826
0.941749
0.944435
0.945807
0.945097
0.944136
0.943821
0.94421
0.946024
0.947955
0.949823
0.950495
0.950492
0.950515
0.951126
0.952408
0.954654
0.957238
0.959539
0.962464
0.96657
0.97176
0.979993
0.994533
1.01613
1.04237
1.06717
1.07639
1.07926
1.0817
1.0829
1.08332
1.08478
1.08693
1.08869
1.08993
1.08937
0.561895
0.561849
0.561757
0.561632
0.561581
0.561553
0.561532
0.561515
0.561513
0.561503
0.561439
0.561354
0.56131
0.561278
0.56125
0.561225
0.561207
0.561202
0.561197
0.561199
0.561153
0.561088
0.561046
0.56108
0.561054
0.561044
0.561068
0.561091
0.561105
0.561158
0.561309
0.561603
0.562188
0.563126
0.564741
0.567159
0.571273
0.576965
0.586264
0.598043
0.616221
0.637319
0.666462
0.697456
0.733984
0.770727
0.805781
0.840918
0.86744
0.8955
0.911744
0.921705
0.928193
0.93262
0.936844
0.93835
0.937372
0.93374
0.930796
0.932303
0.936123
0.941381
0.945354
0.946442
0.945406
0.94446
0.942354
0.939997
0.940343
0.94217
0.946301
0.949623
0.949742
0.948738
0.947877
0.948105
0.949545
0.952419
0.955366
0.955549
0.956058
0.957859
0.961895
0.966921
0.971834
0.979796
0.995146
1.01698
1.042
1.06604
1.07608
1.07952
1.08176
1.08261
1.08282
1.08427
1.08648
1.08848
1.09009
1.08974
0.562054
0.562057
0.562025
0.561937
0.561777
0.561674
0.561643
0.561624
0.561605
0.561603
0.561602
0.561545
0.561433
0.561399
0.561388
0.561369
0.561356
0.561364
0.561368
0.561337
0.561286
0.561208
0.561064
0.56098
0.560954
0.560945
0.560968
0.56098
0.560932
0.560913
0.560922
0.560998
0.560993
0.560984
0.560988
0.561031
0.561162
0.561384
0.56181
0.562531
0.56399
0.566471
0.571333
0.578491
0.59135
0.607839
0.634009
0.663426
0.702091
0.741559
0.782353
0.817922
0.848477
0.867688
0.889428
0.8973
0.907564
0.913108
0.926011
0.936213
0.94512
0.950776
0.951322
0.950574
0.946844
0.940014
0.936393
0.937113
0.94035
0.94494
0.949233
0.950558
0.949773
0.948326
0.947178
0.947802
0.949849
0.952773
0.955659
0.956328
0.956048
0.957477
0.961787
0.966733
0.971442
0.979175
0.994672
1.01883
1.04503
1.06631
1.07549
1.07934
1.08155
1.08261
1.08309
1.08458
1.08655
1.08837
1.09002
1.08995
0.561751
0.561738
0.561684
0.561627
0.561595
0.561557
0.561483
0.561394
0.561376
0.561372
0.561379
0.561373
0.561297
0.561168
0.561142
0.561134
0.561127
0.561125
0.561108
0.561089
0.561076
0.561043
0.560944
0.560836
0.56081
0.560801
0.560807
0.560846
0.560826
0.560761
0.560732
0.560724
0.560733
0.560742
0.560754
0.560804
0.560889
0.560989
0.561003
0.56103
0.561078
0.561164
0.561336
0.561641
0.562302
0.563526
0.566246
0.570939
0.580589
0.594648
0.618793
0.649159
0.689038
0.733617
0.778256
0.820646
0.861489
0.894024
0.919571
0.930649
0.938857
0.945417
0.944974
0.939037
0.92953
0.931256
0.935136
0.941491
0.946948
0.94851
0.948291
0.946956
0.944113
0.944464
0.945974
0.949896
0.952758
0.952873
0.95342
0.954231
0.956214
0.959515
0.963514
0.966358
0.97005
0.977791
0.993932
1.01814
1.04543
1.06607
1.07488
1.07857
1.08114
1.08229
1.08301
1.08462
1.08653
1.08828
1.08993
1.09009
0.561505
0.561482
0.561421
0.561404
0.561406
0.561399
0.561358
0.561276
0.561248
0.561242
0.561252
0.561257
0.561226
0.561107
0.560954
0.560926
0.560925
0.560934
0.560955
0.560964
0.560954
0.560931
0.560879
0.560819
0.560794
0.560778
0.56077
0.560788
0.560835
0.560802
0.560734
0.560698
0.560689
0.560698
0.560735
0.560792
0.560806
0.5608
0.560815
0.560892
0.560996
0.561068
0.561147
0.561307
0.561499
0.561686
0.561888
0.562152
0.562606
0.56353
0.565563
0.569841
0.57794
0.593852
0.615904
0.652415
0.693115
0.743054
0.790152
0.832667
0.862284
0.88976
0.902206
0.910902
0.923934
0.940506
0.94808
0.951258
0.951775
0.949478
0.942774
0.939719
0.940208
0.943109
0.949395
0.952779
0.954148
0.952873
0.950887
0.95209
0.956261
0.962469
0.965169
0.966779
0.969832
0.977799
0.993924
1.01708
1.04292
1.06509
1.07503
1.07903
1.08124
1.08219
1.08302
1.08458
1.08623
1.08788
1.08955
1.09017
0.561443
0.56144
0.561437
0.561449
0.561472
0.561447
0.561369
0.56135
0.561353
0.561348
0.561333
0.561338
0.561332
0.561266
0.561082
0.561016
0.561011
0.561017
0.561032
0.561068
0.561071
0.561054
0.561052
0.561083
0.561102
0.561065
0.561039
0.561047
0.5611
0.561126
0.561085
0.561057
0.561054
0.561071
0.561123
0.56114
0.561123
0.561126
0.561162
0.56124
0.561304
0.561339
0.561367
0.561437
0.561584
0.561759
0.561926
0.562104
0.562286
0.562426
0.562541
0.562732
0.563087
0.563893
0.565725
0.570684
0.579987
0.599175
0.627343
0.670409
0.721023
0.776863
0.828649
0.881301
0.915768
0.935852
0.94221
0.946333
0.944412
0.932589
0.932841
0.936411
0.94321
0.949066
0.952475
0.951898
0.950519
0.948509
0.949356
0.952752
0.958255
0.962298
0.963613
0.965205
0.969184
0.978893
0.994531
1.01442
1.04084
1.06508
1.07644
1.08018
1.08152
1.08224
1.08296
1.08443
1.08639
1.08766
1.08929
1.09012
0.561526
0.561525
0.561537
0.561595
0.561619
0.561599
0.561584
0.561583
0.561608
0.56161
0.561578
0.561569
0.561573
0.56154
0.561402
0.561318
0.561313
0.561319
0.561333
0.561351
0.561368
0.561386
0.561407
0.561444
0.561502
0.5615
0.561479
0.561485
0.561519
0.561556
0.56156
0.561564
0.561556
0.561511
0.56147
0.561454
0.561455
0.56147
0.561515
0.561531
0.561505
0.561487
0.561486
0.56151
0.561598
0.561709
0.561806
0.561914
0.562027
0.562122
0.562229
0.562405
0.562539
0.562482
0.562252
0.56219
0.562428
0.563402
0.566265
0.573162
0.588963
0.614169
0.657525
0.7106
0.768821
0.823793
0.860834
0.889813
0.908325
0.916413
0.937412
0.947201
0.952304
0.952717
0.949868
0.94381
0.944627
0.947148
0.9521
0.95732
0.960834
0.960185
0.961152
0.964192
0.97045
0.979479
0.99286
1.01284
1.04063
1.06566
1.07819
1.08151
1.08248
1.08294
1.08309
1.08434
1.08602
1.08735
1.08927
1.09017
0.561444
0.56146
0.561471
0.561483
0.561501
0.56152
0.561532
0.561551
0.561619
0.561648
0.56162
0.56161
0.561605
0.56156
0.561397
0.561334
0.561332
0.561335
0.561341
0.561354
0.56137
0.561396
0.561414
0.561423
0.561427
0.561449
0.561529
0.5616
0.561618
0.561631
0.561672
0.56168
0.561643
0.561599
0.561551
0.561526
0.561521
0.561511
0.56148
0.561438
0.561402
0.561374
0.561352
0.561332
0.561323
0.561329
0.56136
0.561433
0.561543
0.561673
0.561854
0.562099
0.562256
0.562213
0.562053
0.561835
0.561531
0.561303
0.561261
0.561358
0.562057
0.564478
0.571326
0.585184
0.613837
0.655501
0.717434
0.777891
0.845382
0.897921
0.931849
0.941339
0.948507
0.944441
0.933224
0.934567
0.940789
0.951393
0.9572
0.958413
0.95702
0.956887
0.959637
0.965029
0.972227
0.979275
0.990666
1.01247
1.04382
1.06733
1.07708
1.08066
1.08193
1.08259
1.08333
1.08457
1.08587
1.08739
1.08991
1.09042
0.561308
0.561299
0.561293
0.561298
0.561329
0.561362
0.561382
0.561398
0.561438
0.561479
0.561498
0.56153
0.56153
0.561457
0.561229
0.56115
0.561151
0.561164
0.56116
0.561161
0.561174
0.561195
0.561216
0.561233
0.561258
0.561301
0.561373
0.561457
0.561516
0.561548
0.561596
0.561657
0.561644
0.56159
0.561559
0.561563
0.561562
0.561541
0.561515
0.561488
0.561449
0.561396
0.561332
0.56124
0.56113
0.561065
0.561031
0.561022
0.561044
0.561111
0.561254
0.561478
0.561737
0.561829
0.561723
0.561492
0.561236
0.561077
0.560994
0.560951
0.561005
0.561296
0.561972
0.563295
0.565924
0.572631
0.587761
0.620048
0.667692
0.736067
0.806573
0.849341
0.897442
0.90571
0.923339
0.93769
0.950184
0.957485
0.958154
0.951295
0.951226
0.954993
0.962344
0.968139
0.972495
0.976666
0.988708
1.01448
1.04739
1.06921
1.07604
1.08016
1.08168
1.08251
1.08314
1.08443
1.08596
1.08794
1.09093
1.09067
0.561526
0.561502
0.561472
0.561454
0.561441
0.561421
0.561374
0.561302
0.561275
0.561266
0.561263
0.561314
0.561381
0.561335
0.561169
0.561049
0.561035
0.561033
0.561011
0.560986
0.560989
0.561002
0.561031
0.561082
0.561121
0.561156
0.561204
0.561278
0.561352
0.561407
0.561467
0.561533
0.561528
0.561478
0.561446
0.561458
0.561469
0.56147
0.561472
0.56147
0.561452
0.561413
0.561349
0.561251
0.561132
0.561015
0.560896
0.56079
0.560735
0.560715
0.560754
0.560882
0.561071
0.561325
0.561586
0.561645
0.561533
0.561319
0.561165
0.561086
0.56108
0.561308
0.561881
0.56269
0.563551
0.564207
0.565123
0.568035
0.575537
0.598919
0.636589
0.703552
0.778037
0.844726
0.909616
0.933997
0.945037
0.954188
0.946538
0.938009
0.945573
0.959839
0.966238
0.969517
0.968786
0.972305
0.987441
1.01779
1.04983
1.06609
1.0753
1.08005
1.08161
1.08224
1.08315
1.08462
1.08649
1.08856
1.09149
1.09071
0.562027
0.562013
0.561993
0.561967
0.561934
0.561879
0.561799
0.561711
0.561622
0.561553
0.561489
0.561401
0.561364
0.56136
0.561347
0.561287
0.561241
0.56123
0.561217
0.561183
0.561157
0.561148
0.561128
0.561099
0.56108
0.561072
0.561084
0.561139
0.561198
0.561261
0.561365
0.561422
0.561386
0.561257
0.561219
0.561243
0.561273
0.561305
0.561322
0.561315
0.561293
0.561254
0.561174
0.561051
0.56091
0.560778
0.560644
0.56051
0.560422
0.560373
0.560371
0.560461
0.560669
0.56102
0.561415
0.561725
0.5619
0.561887
0.561788
0.561683
0.561631
0.561721
0.562126
0.562847
0.563679
0.564325
0.564644
0.564808
0.565082
0.566357
0.570758
0.586759
0.615543
0.676208
0.744383
0.818155
0.867895
0.90612
0.919603
0.9358
0.960911
0.965997
0.966703
0.962693
0.962957
0.969575
0.993066
1.02146
1.04602
1.06401
1.07512
1.08013
1.08145
1.08221
1.0833
1.08529
1.0871
1.08889
1.09157
1.0906
0.562534
0.562525
0.562507
0.562483
0.562459
0.562414
0.562299
0.562233
0.562227
0.562218
0.562198
0.562161
0.562115
0.562051
0.561957
0.561815
0.561699
0.561643
0.561595
0.561532
0.561462
0.561396
0.561331
0.561268
0.561188
0.561064
0.561006
0.560998
0.561008
0.561036
0.561153
0.561258
0.561233
0.561138
0.561135
0.561165
0.561194
0.561219
0.561247
0.561309
0.561454
0.561569
0.561552
0.56149
0.561429
0.561356
0.561237
0.561052
0.560812
0.560588
0.56047
0.560443
0.560552
0.560847
0.561273
0.561717
0.562159
0.562511
0.562564
0.562481
0.562399
0.562407
0.562566
0.562909
0.563448
0.564115
0.564565
0.564791
0.564811
0.564705
0.564738
0.565456
0.568323
0.579041
0.602134
0.653545
0.728179
0.805449
0.886163
0.929218
0.955041
0.955032
0.950227
0.950118
0.957278
0.97501
0.996087
1.01617
1.04032
1.06359
1.0768
1.08044
1.08107
1.08221
1.08391
1.08588
1.08764
1.08892
1.09144
1.09034
0.562736
0.562722
0.562701
0.562684
0.562656
0.562608
0.562595
0.562584
0.562531
0.562472
0.562465
0.56248
0.562492
0.562457
0.562357
0.562241
0.562152
0.562085
0.562013
0.561927
0.56184
0.561761
0.561674
0.56157
0.561473
0.561365
0.561261
0.561231
0.561232
0.561217
0.561153
0.561077
0.560988
0.560941
0.560956
0.56098
0.560996
0.561008
0.561029
0.561082
0.561211
0.561398
0.561535
0.561578
0.561593
0.561622
0.561608
0.561528
0.561358
0.561087
0.560797
0.560663
0.560654
0.560821
0.561275
0.56188
0.56242
0.562869
0.563097
0.563056
0.562948
0.562915
0.562925
0.56295
0.563131
0.563628
0.564304
0.564649
0.564553
0.564365
0.564291
0.564404
0.564971
0.565984
0.568056
0.575031
0.595485
0.639708
0.714172
0.793146
0.869386
0.895286
0.925424
0.944944
0.969858
0.985185
0.99061
1.00724
1.03761
1.0672
1.07829
1.07869
1.0805
1.08275
1.08472
1.08635
1.08708
1.0887
1.09167
1.09027
0.562743
0.56272
0.562722
0.562726
0.562729
0.56275
0.562763
0.562748
0.562721
0.562713
0.562711
0.562699
0.562693
0.562685
0.562664
0.562633
0.562588
0.562521
0.56245
0.562397
0.562336
0.562258
0.562143
0.562011
0.561904
0.5618
0.561679
0.561544
0.561413
0.561302
0.5612
0.561059
0.560866
0.560809
0.560819
0.560845
0.560876
0.560908
0.560943
0.561006
0.561141
0.561332
0.561535
0.561705
0.561841
0.561966
0.562056
0.562037
0.56193
0.561736
0.561444
0.561121
0.560973
0.560978
0.561168
0.56162
0.562211
0.562788
0.563182
0.563224
0.563104
0.562972
0.562922
0.562896
0.562883
0.563052
0.563602
0.564333
0.564739
0.564697
0.564592
0.564603
0.564912
0.565686
0.566529
0.567401
0.569165
0.575123
0.593029
0.639669
0.705899
0.795405
0.897637
0.937905
0.962686
0.972221
0.972118
0.99786
1.04175
1.07122
1.0751
1.07752
1.08118
1.08379
1.08549
1.08508
1.08657
1.08904
1.09262
1.09038
0.562609
0.562575
0.562577
0.562583
0.56259
0.562595
0.562611
0.562651
0.562648
0.562623
0.562618
0.56262
0.562624
0.562632
0.56263
0.562613
0.562577
0.562542
0.562511
0.562502
0.562481
0.562419
0.562328
0.562234
0.562154
0.562077
0.561987
0.561859
0.561679
0.56147
0.561253
0.560964
0.560719
0.560684
0.560694
0.560714
0.560731
0.560751
0.560785
0.560862
0.561018
0.561226
0.561454
0.561683
0.561877
0.562028
0.562157
0.562215
0.562152
0.562019
0.561844
0.561609
0.561338
0.561176
0.561158
0.561283
0.561656
0.562279
0.562953
0.563122
0.563024
0.562874
0.562756
0.562677
0.562612
0.562677
0.563104
0.563882
0.564658
0.564842
0.564814
0.56484
0.565118
0.565806
0.566652
0.567537
0.568426
0.569523
0.57137
0.577472
0.592122
0.639346
0.709352
0.80032
0.880299
0.91833
0.948629
1.0089
1.05535
1.0657
1.07178
1.07892
1.08338
1.08541
1.08355
1.0842
1.08659
1.0904
1.09301
1.09033
0.562277
0.562263
0.562266
0.562268
0.562272
0.562279
0.562292
0.562309
0.562328
0.562388
0.562467
0.562467
0.56244
0.562428
0.562443
0.562473
0.562478
0.562457
0.562463
0.562488
0.562482
0.56246
0.562432
0.562378
0.56231
0.56225
0.562187
0.562085
0.561917
0.561688
0.561441
0.56116
0.560833
0.560611
0.560555
0.560558
0.560545
0.560511
0.560507
0.56053
0.560612
0.560827
0.561162
0.561516
0.561776
0.561932
0.562049
0.56211
0.562067
0.561982
0.561918
0.561824
0.56166
0.561388
0.561174
0.561144
0.561182
0.561437
0.561991
0.562527
0.562745
0.562873
0.56302
0.563103
0.563046
0.562999
0.563165
0.563771
0.564608
0.565092
0.565209
0.565295
0.565552
0.566107
0.566852
0.567689
0.56865
0.569637
0.570478
0.571567
0.573185
0.579022
0.595343
0.648341
0.720606
0.820782
0.913866
1.00007
1.03607
1.05002
1.06849
1.08227
1.08519
1.08276
1.08169
1.08432
1.08894
1.09156
1.09258
1.0907
0.561593
0.561586
0.561585
0.561592
0.561599
0.561606
0.561625
0.561647
0.561676
0.561743
0.561855
0.561963
0.562034
0.562078
0.56211
0.562146
0.562208
0.562263
0.56231
0.562356
0.562373
0.562359
0.562329
0.562271
0.562205
0.562183
0.562157
0.562088
0.561972
0.561803
0.561618
0.561447
0.561292
0.561128
0.560927
0.560638
0.560305
0.560181
0.560161
0.560162
0.560218
0.560421
0.560719
0.561004
0.561208
0.561347
0.561494
0.561671
0.561778
0.561801
0.561796
0.561779
0.561695
0.561522
0.561217
0.560989
0.560972
0.561075
0.561401
0.56187
0.562333
0.56272
0.563058
0.56336
0.563516
0.563522
0.563591
0.563939
0.564664
0.565329
0.565624
0.565753
0.565935
0.566326
0.567011
0.567886
0.568822
0.569724
0.570547
0.571497
0.572656
0.574339
0.576702
0.584123
0.604644
0.654802
0.745219
0.866771
0.95756
1.03023
1.0797
1.0856
1.08164
1.07927
1.08163
1.08818
1.09163
1.09219
1.09207
1.09165
0.560841
0.560838
0.560856
0.560865
0.560849
0.560848
0.56085
0.56086
0.560903
0.560986
0.561091
0.56121
0.561316
0.561391
0.561434
0.561451
0.561463
0.561508
0.56165
0.561834
0.561991
0.562029
0.562002
0.562007
0.562042
0.562062
0.562031
0.561955
0.561845
0.561723
0.56161
0.56152
0.561444
0.561338
0.56121
0.561069
0.560845
0.560532
0.560449
0.560447
0.560524
0.560657
0.560641
0.560628
0.560623
0.560583
0.560563
0.560645
0.560903
0.56124
0.561475
0.561604
0.561632
0.561528
0.561364
0.56134
0.561399
0.561437
0.561416
0.561572
0.562065
0.562682
0.563189
0.563591
0.563919
0.56398
0.56396
0.564046
0.564485
0.565149
0.565617
0.565917
0.566226
0.566666
0.567298
0.568097
0.568897
0.569586
0.570316
0.571256
0.57246
0.574243
0.576424
0.578911
0.581781
0.58913
0.617801
0.687998
0.83847
0.997627
1.07588
1.07526
1.06961
1.07592
1.08606
1.09086
1.08962
1.08985
1.09226
1.09251
0.560263
0.56026
0.560258
0.560259
0.560266
0.560269
0.560282
0.560324
0.560328
0.560322
0.56034
0.560424
0.560506
0.560572
0.560661
0.56073
0.560703
0.560673
0.560692
0.560765
0.560902
0.561084
0.561328
0.561485
0.561522
0.561549
0.561646
0.56176
0.56173
0.561632
0.561504
0.561401
0.5613
0.561158
0.561006
0.560861
0.560701
0.56051
0.560414
0.560418
0.560486
0.560488
0.560409
0.560427
0.560375
0.56017
0.560057
0.560015
0.560109
0.560487
0.561038
0.561433
0.561469
0.561345
0.561281
0.561394
0.561733
0.561949
0.561946
0.561866
0.561965
0.562484
0.563066
0.563515
0.563854
0.563986
0.564061
0.564129
0.564385
0.564952
0.565527
0.565976
0.566471
0.567
0.567604
0.568266
0.568877
0.569446
0.57012
0.571052
0.572407
0.574385
0.576709
0.579106
0.580681
0.582214
0.585471
0.601342
0.667119
0.800005
0.952808
1.01987
1.06095
1.0857
1.09054
1.08547
1.08501
1.08873
1.09479
1.0939
0.561272
0.561186
0.561089
0.56097
0.560817
0.560697
0.560666
0.560664
0.560665
0.560678
0.560707
0.560708
0.560688
0.560658
0.560609
0.560567
0.560531
0.560429
0.560228
0.560071
0.559979
0.559965
0.560037
0.560148
0.560253
0.560365
0.560524
0.56076
0.561058
0.561263
0.561248
0.561148
0.56098
0.560763
0.560546
0.560441
0.560415
0.560379
0.560363
0.560383
0.560467
0.560701
0.561055
0.561215
0.56114
0.560726
0.560223
0.560063
0.559983
0.560048
0.560514
0.56118
0.561313
0.561228
0.561226
0.561476
0.561789
0.562025
0.562264
0.562229
0.562171
0.562316
0.562632
0.563011
0.56347
0.563812
0.564101
0.564396
0.564709
0.565064
0.56549
0.566033
0.566589
0.567174
0.567825
0.56846
0.569003
0.569508
0.570164
0.571138
0.572547
0.574455
0.576819
0.579246
0.58113
0.582096
0.58425
0.588252
0.603181
0.653583
0.771022
0.93884
1.0434
1.07938
1.07695
1.07265
1.08108
1.09445
1.09661
1.09306
0.561052
0.560928
0.560734
0.560415
0.560224
0.560198
0.560188
0.560184
0.560185
0.560214
0.560289
0.560324
0.560278
0.560192
0.56024
0.56033
0.560336
0.560053
0.559676
0.55968
0.55966
0.559458
0.559168
0.55909
0.559119
0.559182
0.559271
0.559434
0.559433
0.55937
0.559412
0.559537
0.559345
0.559194
0.559203
0.559291
0.559606
0.559962
0.560034
0.560067
0.560259
0.560759
0.561267
0.56155
0.561573
0.561422
0.560941
0.560447
0.560216
0.56009
0.56012
0.560661
0.560919
0.560834
0.560888
0.561319
0.561601
0.561798
0.562167
0.562357
0.562306
0.56224
0.562243
0.562257
0.562516
0.563162
0.564001
0.564797
0.565351
0.565746
0.566032
0.566309
0.566662
0.567237
0.56794
0.56854
0.568916
0.569303
0.569951
0.570985
0.572464
0.574475
0.577139
0.579726
0.581362
0.582416
0.583949
0.587428
0.596468
0.611776
0.655221
0.749014
0.8803
0.991949
1.03763
1.06368
1.09418
1.10056
1.09609
1.09144
0.558512
0.557899
0.557628
0.557634
0.557602
0.557577
0.557603
0.557669
0.557764
0.558019
0.558349
0.558386
0.55834
0.558361
0.558622
0.559087
0.559199
0.559268
0.559392
0.559446
0.559406
0.55944
0.559629
0.559886
0.560015
0.560067
0.559979
0.559784
0.559468
0.559158
0.558865
0.558294
0.557959
0.55793
0.557933
0.558022
0.558508
0.559055
0.559146
0.559159
0.559391
0.560039
0.560673
0.561073
0.561349
0.561314
0.561167
0.560977
0.56076
0.560577
0.560486
0.560287
0.559704
0.55956
0.55973
0.560119
0.560455
0.561028
0.561896
0.562474
0.562651
0.562516
0.562149
0.562094
0.56223
0.562811
0.563872
0.564956
0.565607
0.566004
0.566313
0.566534
0.566819
0.567264
0.567714
0.568124
0.568607
0.569218
0.569934
0.571035
0.572847
0.575207
0.577971
0.580372
0.581676
0.582483
0.583596
0.586646
0.594086
0.609276
0.628469
0.660455
0.72993
0.837703
0.975863
1.04909
1.08951
1.08758
1.08177
1.08866
0.554454
0.554096
0.55405
0.554073
0.554078
0.554035
0.554022
0.554109
0.554183
0.554423
0.555085
0.555301
0.55539
0.555558
0.556043
0.556538
0.556851
0.557225
0.557779
0.558403
0.558895
0.559341
0.559844
0.560283
0.560406
0.560366
0.560125
0.559503
0.558319
0.557349
0.556841
0.55619
0.555831
0.555807
0.555809
0.555904
0.556495
0.557293
0.557415
0.55714
0.556906
0.557073
0.557411
0.557663
0.558093
0.559159
0.560272
0.56048
0.560399
0.560308
0.559961
0.558845
0.558247
0.558288
0.558573
0.558679
0.55873
0.559083
0.560348
0.562023
0.562652
0.562764
0.562748
0.562668
0.562715
0.563085
0.56398
0.56493
0.565534
0.565934
0.56627
0.566413
0.56645
0.566553
0.566894
0.567528
0.568379
0.569317
0.570498
0.572107
0.574096
0.57628
0.578754
0.580841
0.581879
0.582202
0.583081
0.585513
0.592007
0.606467
0.627692
0.648507
0.667496
0.709927
0.791783
0.900377
1.01353
1.04015
1.07644
1.09429
0.555468
0.555513
0.555449
0.555311
0.555287
0.555295
0.555299
0.555284
0.555177
0.55507
0.555119
0.555421
0.555513
0.555388
0.555377
0.555653
0.556194
0.557068
0.558174
0.558517
0.558629
0.558743
0.559008
0.559434
0.55964
0.559578
0.559263
0.558703
0.558101
0.557538
0.557188
0.556877
0.556575
0.556536
0.556564
0.556539
0.556387
0.556022
0.555387
0.554702
0.553997
0.553636
0.553592
0.553618
0.553982
0.555123
0.556701
0.557772
0.557995
0.557834
0.557097
0.556769
0.556924
0.557327
0.557684
0.558083
0.558102
0.558162
0.558811
0.560287
0.561727
0.562422
0.562662
0.562673
0.562718
0.563072
0.56359
0.563956
0.564245
0.564605
0.56489
0.565193
0.56545
0.56578
0.566278
0.567123
0.568529
0.570165
0.57176
0.573305
0.574967
0.576931
0.579263
0.581329
0.581652
0.58185
0.582525
0.584762
0.590542
0.603542
0.625198
0.648583
0.662381
0.67077
0.688799
0.749224
0.84746
0.969714
1.06176
1.08939
0.557559
0.557474
0.557155
0.55667
0.556497
0.556519
0.556813
0.557005
0.557018
0.556768
0.555855
0.555527
0.555667
0.555649
0.555432
0.555433
0.555496
0.555575
0.555808
0.556044
0.556238
0.556258
0.555825
0.555188
0.555005
0.554897
0.554813
0.554854
0.554948
0.554976
0.555163
0.555559
0.555695
0.555667
0.555573
0.555235
0.554446
0.554204
0.554406
0.554631
0.554227
0.552711
0.552082
0.552049
0.552251
0.553109
0.554408
0.555483
0.555995
0.556057
0.555789
0.555663
0.55582
0.556709
0.557958
0.558015
0.557782
0.557599
0.557715
0.558062
0.558443
0.558987
0.559861
0.561113
0.561745
0.561675
0.561225
0.561063
0.561088
0.561428
0.562327
0.563568
0.564765
0.56564
0.5664
0.567608
0.569256
0.570918
0.572454
0.573919
0.57541
0.577117
0.579169
0.580667
0.58122
0.581574
0.582362
0.584485
0.589546
0.601339
0.621957
0.645991
0.661177
0.667903
0.671327
0.680513
0.712738
0.799524
0.905253
1.02104
0.563412
0.56349
0.563509
0.563202
0.562572
0.56248
0.562501
0.562947
0.563895
0.563964
0.563565
0.562592
0.560645
0.558853
0.558208
0.557959
0.557712
0.557548
0.557391
0.55729
0.557351
0.557501
0.557333
0.556912
0.556849
0.556832
0.556888
0.557139
0.557423
0.557693
0.558057
0.558604
0.55917
0.559314
0.558894
0.557871
0.557612
0.557697
0.558699
0.561265
0.562508
0.562284
0.561275
0.559698
0.558301
0.557694
0.557468
0.557313
0.557298
0.557645
0.558186
0.558439
0.558629
0.559218
0.560235
0.560931
0.561036
0.560742
0.55933
0.55729
0.556669
0.556603
0.556924
0.558458
0.559716
0.559682
0.55934
0.55911
0.559109
0.55939
0.560385
0.56196
0.563615
0.564829
0.566222
0.567914
0.569404
0.57081
0.572254
0.573591
0.574813
0.576282
0.57828
0.579865
0.580767
0.581502
0.58264
0.584866
0.589328
0.599664
0.618635
0.641484
0.658487
0.667176
0.670891
0.67437
0.679064
0.697834
0.747547
0.90226
0.588406
0.588686
0.588913
0.588934
0.588592
0.587865
0.587727
0.587872
0.588495
0.588568
0.587683
0.585408
0.582328
0.581177
0.581003
0.580611
0.579714
0.579004
0.578804
0.578653
0.578172
0.577848
0.577733
0.577441
0.576684
0.575683
0.575594
0.575717
0.575341
0.573348
0.572209
0.572474
0.572933
0.572862
0.571223
0.569769
0.569704
0.569845
0.570822
0.573026
0.574458
0.574541
0.574029
0.57217
0.568919
0.566202
0.564854
0.564143
0.563373
0.56229
0.561792
0.561472
0.560579
0.559281
0.559223
0.559598
0.560339
0.560469
0.559598
0.557254
0.556303
0.556315
0.556613
0.55743
0.558392
0.558894
0.559352
0.560143
0.560802
0.561338
0.562191
0.563445
0.564846
0.566278
0.567332
0.568085
0.568876
0.569568
0.570286
0.571275
0.572732
0.574772
0.576965
0.578768
0.580026
0.581182
0.582945
0.585147
0.589085
0.597457
0.61361
0.63529
0.655117
0.666893
0.672298
0.675502
0.678265
0.6814
0.688726
0.761425
0.606726
0.607225
0.607467
0.607402
0.606411
0.605607
0.60601
0.606579
0.606514
0.605646
0.60408
0.604044
0.604265
0.603393
0.599995
0.598996
0.599207
0.599695
0.601149
0.603641
0.604687
0.605531
0.605868
0.605354
0.605449
0.606029
0.605364
0.602442
0.598135
0.596355
0.595914
0.595732
0.595064
0.593555
0.590526
0.585621
0.584443
0.584002
0.582349
0.579788
0.579162
0.579742
0.581159
0.580993
0.579675
0.578489
0.578496
0.579069
0.579166
0.578007
0.574942
0.571664
0.568737
0.565724
0.564473
0.564517
0.564802
0.565836
0.567731
0.568114
0.567293
0.566043
0.564504
0.562851
0.562358
0.562682
0.564489
0.567341
0.568646
0.568282
0.567176
0.566692
0.566809
0.567717
0.568651
0.568606
0.56864
0.568976
0.56964
0.570798
0.572558
0.574784
0.577087
0.579269
0.58093
0.582149
0.583342
0.585071
0.587898
0.593779
0.606811
0.628054
0.65122
0.667855
0.673641
0.67576
0.67758
0.680791
0.683098
0.700603
0.656981
0.657025
0.65667
0.655586
0.655062
0.655162
0.655169
0.654779
0.654173
0.653476
0.652919
0.652507
0.651496
0.649311
0.645384
0.640903
0.63899
0.638865
0.639213
0.639435
0.639235
0.639336
0.638773
0.638113
0.638087
0.637128
0.636039
0.634518
0.632507
0.632141
0.632385
0.633746
0.634251
0.633739
0.633087
0.632427
0.63094
0.628101
0.624516
0.621046
0.618253
0.616524
0.614431
0.61056
0.607367
0.606612
0.607385
0.609253
0.609628
0.608476
0.605435
0.604414
0.603406
0.600366
0.594821
0.592452
0.591414
0.590112
0.589428
0.588788
0.587214
0.584851
0.582124
0.579119
0.576577
0.574177
0.573216
0.57324
0.573128
0.571543
0.568639
0.567659
0.567621
0.567804
0.568143
0.568343
0.568609
0.569345
0.570316
0.571661
0.574053
0.577254
0.580131
0.581911
0.582372
0.582767
0.583353
0.584114
0.585874
0.590478
0.601064
0.620106
0.64598
0.666916
0.674016
0.676034
0.678476
0.68276
0.684654
0.688336
0.702022
0.702029
0.702533
0.703807
0.704612
0.704732
0.704598
0.703892
0.702845
0.702349
0.701611
0.70003
0.698302
0.697672
0.698054
0.698151
0.697006
0.69434
0.692968
0.692958
0.69365
0.693581
0.691833
0.690648
0.689437
0.687363
0.6843
0.681064
0.677902
0.674895
0.672924
0.672205
0.671131
0.668938
0.668353
0.667854
0.665384
0.660699
0.659847
0.660367
0.660222
0.659231
0.657822
0.655546
0.651903
0.649558
0.647896
0.64455
0.638019
0.632538
0.631739
0.632356
0.631757
0.627406
0.62355
0.622971
0.622098
0.617569
0.611205
0.6079
0.605604
0.603255
0.601329
0.599517
0.596994
0.59404
0.591349
0.588401
0.585478
0.583281
0.580456
0.579386
0.579031
0.577109
0.576128
0.576224
0.576908
0.578126
0.579293
0.580509
0.582233
0.584309
0.585409
0.585177
0.584497
0.583964
0.583401
0.583694
0.58532
0.589724
0.598279
0.613815
0.637541
0.66129
0.673082
0.67737
0.681558
0.687161
0.688608
0.690021
0.762698
0.76225
0.760662
0.758749
0.757929
0.757085
0.756516
0.756645
0.757176
0.757124
0.755252
0.752003
0.751647
0.751868
0.750938
0.747704
0.74709
0.746936
0.746342
0.74376
0.740333
0.739986
0.739942
0.739503
0.739594
0.739302
0.737726
0.735316
0.734051