/*--------------------------------*- C++ -*----------------------------------*\
  =========                 |
  \\      /  F ield         | OpenFOAM: The Open Source CFD Toolbox
   \\    /   O peration     | Website:  https://openfoam.org
    \\  /    A nd           | Version:  7
     \\/     M anipulation  |
\*---------------------------------------------------------------------------*/
FoamFile
{
    version     2.0;
    format      ascii;
    class       volScalarField;
    location    "6";
    object      rho;
}
// * * * * * * * * * * * * * * * * * * * * * * * * * * * * * * * * * * * * * //

dimensions      [1 -3 0 0 0 0 0];

internalField   nonuniform List<scalar> 
90000
(
0.964564
0.971092
0.978586
0.98583
0.993249
1.00057
1.00792
1.01488
1.02186
1.02859
1.03536
1.04195
1.04874
1.05564
1.06302
1.07123
1.082
1.09433
1.10849
1.12268
1.13785
1.15226
1.16717
1.18129
1.1956
1.20906
1.2225
1.2349
1.24757
1.25853
1.27037
1.27983
1.28973
1.29785
1.30479
1.31077
1.31598
1.31874
1.32065
1.32262
1.32348
1.32308
1.32177
1.31852
1.31298
1.30538
1.29728
1.29123
1.29041
1.29161
1.29483
1.29906
1.30433
1.30951
1.31089
1.31357
1.31523
1.31711
1.31714
1.31658
1.31496
1.31283
1.31125
1.31125
1.31161
1.31257
1.31531
1.31589
1.31761
1.3194
1.32014
1.31942
1.31897
1.31667
1.31412
1.31372
1.31449
1.31499
1.3162
1.31917
1.31892
1.31755
1.31646
1.31739
1.31855
1.32119
1.32427
1.32351
1.32236
1.3212
1.32143
1.32227
1.32278
1.32245
1.32244
1.32326
1.3241
1.32464
1.32396
1.32388
0.960097
0.960447
0.961155
0.962133
0.963545
0.965402
0.967725
0.970412
0.973494
0.976972
0.980928
0.985275
0.990008
0.99516
1.00077
1.00679
1.01344
1.0205
1.02856
1.03705
1.04702
1.05746
1.06912
1.08138
1.09438
1.10861
1.12264
1.1381
1.15325
1.16918
1.18517
1.20103
1.21694
1.23192
1.24755
1.26072
1.27334
1.28686
1.2958
1.30387
1.31294
1.31866
1.32065
1.32113
1.32507
1.33136
1.33392
1.33568
1.33431
1.33085
1.32572
1.31956
1.31539
1.31261
1.31099
1.31174
1.3138
1.31703
1.32092
1.3252
1.32957
1.33297
1.33246
1.33074
1.32756
1.3236
1.31975
1.3156
1.31619
1.31814
1.32303
1.32874
1.33163
1.32955
1.3252
1.32111
1.31755
1.31849
1.3217
1.32557
1.32703
1.32556
1.32242
1.32081
1.32276
1.3268
1.3298
1.32911
1.3269
1.32655
1.32696
1.32794
1.32767
1.32711
1.32677
1.32693
1.32817
1.32856
1.32836
1.32792
0.96304
0.963063
0.963108
0.96324
0.963263
0.963273
0.963291
0.963368
0.963476
0.96358
0.963731
0.963981
0.964351
0.9648
0.965314
0.965893
0.966592
0.967655
0.969034
0.970715
0.972859
0.975506
0.978724
0.982439
0.986913
0.992262
0.998706
1.00645
1.01533
1.02605
1.03804
1.05225
1.06769
1.08586
1.10448
1.12652
1.14867
1.17158
1.19614
1.22138
1.24261
1.26598
1.28939
1.30496
1.32088
1.33058
1.33397
1.33631
1.33657
1.33725
1.33692
1.33477
1.3352
1.33476
1.33314
1.33147
1.33197
1.3328
1.33509
1.3385
1.34192
1.34457
1.34446
1.34338
1.34102
1.3362
1.33054
1.3271
1.32778
1.33002
1.33306
1.33668
1.33843
1.33996
1.33884
1.3346
1.33181
1.3312
1.33193
1.33283
1.33392
1.33444
1.33366
1.33311
1.33335
1.33405
1.33573
1.33695
1.33662
1.33565
1.33484
1.33483
1.33476
1.33461
1.33401
1.33401
1.33445
1.33545
1.33545
1.33483
0.966389
0.966395
0.966394
0.966406
0.966429
0.966432
0.966415
0.966391
0.966395
0.966413
0.966465
0.966545
0.966633
0.966725
0.96685
0.966984
0.967209
0.967227
0.967287
0.96742
0.967591
0.967786
0.967982
0.96817
0.968389
0.968685
0.969141
0.969793
0.970667
0.971774
0.973622
0.976288
0.979648
0.984299
0.990343
0.998172
1.0082
1.02074
1.03644
1.05451
1.07836
1.10303
1.13127
1.16437
1.1941
1.22588
1.25175
1.27858
1.2957
1.30954
1.32479
1.33078
1.33522
1.33732
1.33704
1.33849
1.34378
1.34593
1.34903
1.35172
1.35164
1.35092
1.35028
1.34956
1.34844
1.34561
1.34538
1.34561
1.34527
1.34437
1.3426
1.34099
1.34099
1.3422
1.3443
1.34822
1.34937
1.34731
1.34377
1.33955
1.33969
1.34118
1.34446
1.34493
1.34351
1.34154
1.34157
1.34304
1.34546
1.34521
1.34409
1.34301
1.34316
1.34301
1.34216
1.34121
1.34156
1.34261
1.34285
1.34213
0.969924
0.969902
0.969874
0.969869
0.969866
0.969859
0.969858
0.96987
0.969907
0.969966
0.970038
0.970101
0.970102
0.97009
0.970107
0.970153
0.970134
0.970125
0.970168
0.970307
0.97046
0.970572
0.970685
0.970822
0.970966
0.971131
0.9714
0.9718
0.97218
0.972735
0.972762
0.972837
0.972948
0.973137
0.973478
0.973952
0.974566
0.97542
0.977177
0.9799
0.984196
0.990503
0.999124
1.01224
1.02894
1.05097
1.08051
1.11043
1.14886
1.18446
1.22107
1.25401
1.28247
1.30973
1.32084
1.33458
1.34247
1.34485
1.34786
1.35054
1.35054
1.34929
1.34583
1.3458
1.34718
1.34948
1.35296
1.35577
1.35673
1.35568
1.35249
1.34709
1.34354
1.34389
1.34618
1.35002
1.35369
1.35348
1.35189
1.34892
1.34635
1.34656
1.34815
1.34918
1.35043
1.34952
1.34748
1.34771
1.34891
1.35044
1.35022
1.34925
1.34822
1.34805
1.34808
1.34769
1.34711
1.34747
1.348
1.34764
0.971758
0.971766
0.971765
0.971765
0.971767
0.971769
0.971786
0.971849
0.971948
0.972032
0.972077
0.972125
0.972185
0.972302
0.972445
0.972495
0.972512
0.972572
0.972725
0.972895
0.973024
0.973165
0.973321
0.973464
0.973618
0.97382
0.974145
0.974339
0.974466
0.974663
0.974913
0.975126
0.975324
0.975627
0.976077
0.976233
0.976293
0.976479
0.976486
0.976599
0.976809
0.977094
0.977495
0.978138
0.979567
0.982007
0.986672
0.993855
1.00522
1.02328
1.04481
1.07777
1.11314
1.15271
1.19631
1.23304
1.26266
1.28628
1.30594
1.31963
1.32901
1.33176
1.33327
1.34206
1.35139
1.35521
1.35641
1.35772
1.35716
1.35335
1.34831
1.34818
1.34794
1.34905
1.35133
1.35233
1.35305
1.35275
1.3519
1.35265
1.35278
1.35213
1.35096
1.34976
1.34998
1.35032
1.35118
1.35159
1.3514
1.35182
1.35249
1.35308
1.3521
1.35101
1.35022
1.3505
1.35073
1.35067
1.35071
1.35033
0.972092
0.972155
0.972194
0.972227
0.972282
0.972373
0.972504
0.972733
0.9728
0.972798
0.972812
0.972873
0.973002
0.973191
0.973354
0.973481
0.973628
0.973902
0.974149
0.974277
0.974384
0.974529
0.974706
0.974905
0.975152
0.97541
0.975598
0.975749
0.975956
0.976204
0.976425
0.976672
0.976984
0.97729
0.977452
0.977469
0.977444
0.977436
0.977454
0.97753
0.977668
0.977824
0.977926
0.978077
0.978169
0.978266
0.978404
0.97869
0.979237
0.980439
0.982765
0.987289
0.996059
1.00871
1.03178
1.05954
1.09695
1.14243
1.18246
1.22396
1.26436
1.29759
1.31867
1.33645
1.34743
1.35113
1.35224
1.34996
1.34131
1.34093
1.34336
1.34819
1.35246
1.35476
1.35516
1.3537
1.35079
1.349
1.35
1.35285
1.35539
1.35507
1.35374
1.35122
1.34962
1.34995
1.35124
1.35211
1.35224
1.35204
1.3523
1.35288
1.35326
1.3528
1.35196
1.3515
1.35157
1.35174
1.35162
1.35159
0.972782
0.972898
0.973015
0.973065
0.973178
0.973465
0.973632
0.973629
0.973572
0.973554
0.973578
0.97366
0.973817
0.973954
0.974051
0.97419
0.974473
0.974717
0.974788
0.974832
0.974919
0.974988
0.975066
0.975217
0.975508
0.975664
0.975703
0.975732
0.975816
0.976004
0.976283
0.976555
0.976773
0.976977
0.977132
0.977199
0.977222
0.977231
0.977242
0.977275
0.977359
0.97749
0.977588
0.977689
0.977732
0.977689
0.977627
0.977556
0.97737
0.977111
0.977103
0.977201
0.977451
0.978015
0.979534
0.982968
0.990233
1.00267
1.02492
1.05722
1.09454
1.14291
1.19354
1.23397
1.2657
1.2925
1.30552
1.31638
1.32274
1.34181
1.35044
1.35678
1.35752
1.35673
1.35227
1.34652
1.34677
1.34808
1.35206
1.35543
1.3553
1.3541
1.35164
1.35023
1.34966
1.35059
1.35144
1.35189
1.35181
1.35175
1.35195
1.35236
1.35291
1.35271
1.35274
1.35256
1.35225
1.35192
1.35151
1.35164
0.974385
0.974501
0.974637
0.974681
0.9747
0.974701
0.974679
0.974631
0.974619
0.974616
0.974622
0.974684
0.974738
0.974764
0.974804
0.974984
0.975167
0.975166
0.975088
0.975056
0.97506
0.975068
0.975094
0.975216
0.975384
0.975454
0.975476
0.975491
0.975542
0.975705
0.975996
0.976261
0.976402
0.976488
0.976588
0.976706
0.976777
0.976784
0.976776
0.976766
0.976768
0.976765
0.976765
0.976749
0.976663
0.976458
0.97622
0.975872
0.975205
0.974765
0.974633
0.974514
0.97442
0.974451
0.974569
0.974602
0.974727
0.975199
0.976849
0.980655
0.98966
1.005
1.03409
1.07156
1.11816
1.17573
1.22283
1.27178
1.30915
1.33637
1.34506
1.35271
1.35201
1.34515
1.33631
1.33893
1.3448
1.3519
1.35574
1.35528
1.35297
1.34858
1.34872
1.35001
1.35162
1.35197
1.35155
1.35098
1.3508
1.35121
1.35176
1.3518
1.35205
1.35228
1.35306
1.35305
1.35266
1.35201
1.35129
1.35148
0.975336
0.975335
0.975331
0.975316
0.975299
0.975302
0.975309
0.975299
0.975266
0.975258
0.975268
0.975282
0.975278
0.975289
0.975335
0.97534
0.975309
0.975257
0.97519
0.975081
0.974983
0.974956
0.974963
0.974997
0.975043
0.975067
0.975085
0.975108
0.975169
0.975288
0.975451
0.975647
0.975761
0.97578
0.975774
0.975793
0.975855
0.975877
0.975875
0.975858
0.975791
0.975627
0.975434
0.975266
0.97508
0.974891
0.974648
0.974057
0.973308
0.973017
0.972831
0.972632
0.972605
0.972665
0.972829
0.972956
0.973036
0.973132
0.97319
0.973246
0.973485
0.97424
0.977042
0.983027
0.997971
1.01997
1.06061
1.10791
1.16273
1.21925
1.25574
1.29601
1.3073
1.31935
1.33281
1.34924
1.35677
1.35665
1.35548
1.34942
1.34542
1.34567
1.34839
1.3524
1.35343
1.35263
1.35047
1.34995
1.35023
1.35104
1.3515
1.35116
1.3512
1.35198
1.35344
1.35341
1.35299
1.35157
1.35109
1.35142
0.975889
0.975873
0.975852
0.975802
0.975691
0.975633
0.975633
0.975628
0.975593
0.975544
0.97551
0.975505
0.975517
0.97552
0.97548
0.975354
0.975229
0.975118
0.975003
0.974863
0.974751
0.974706
0.974669
0.974594
0.974494
0.974438
0.974434
0.974448
0.974492
0.974501
0.974488
0.97451
0.974537
0.974456
0.974294
0.974251
0.974243
0.974293
0.974413
0.974428
0.97437
0.974197
0.97401
0.973889
0.973788
0.973623
0.973254
0.972578
0.97215
0.971947
0.971725
0.971478
0.971406
0.971447
0.97161
0.971861
0.972188
0.9726
0.972877
0.972973
0.972935
0.972806
0.972838
0.973106
0.974089
0.976477
0.983189
0.994509
1.02093
1.05589
1.11457
1.17615
1.2332
1.2976
1.32723
1.34437
1.35202
1.35145
1.34094
1.33714
1.34049
1.34784
1.35359
1.35429
1.35314
1.34959
1.34937
1.34984
1.35117
1.35128
1.35099
1.35049
1.35064
1.35225
1.35335
1.35326
1.35229
1.35136
1.35125
1.35184
0.976051
0.976064
0.976074
0.976038
0.975945
0.975851
0.975794
0.97578
0.97575
0.975738
0.975746
0.975735
0.975726
0.975653
0.975366
0.975297
0.975313
0.975251
0.974993
0.974742
0.974603
0.974494
0.974384
0.974271
0.974113
0.973934
0.973893
0.973883
0.973839
0.973671
0.973546
0.973497
0.973368
0.972953
0.972683
0.972659
0.97264
0.972652
0.972773
0.972873
0.972858
0.972856
0.972899
0.972926
0.972917
0.972788
0.972438
0.971978
0.971645
0.971418
0.971169
0.970848
0.970699
0.970709
0.970802
0.971045
0.971476
0.972033
0.972516
0.972635
0.97259
0.972426
0.972355
0.972519
0.972709
0.973004
0.973484
0.974451
0.976988
0.982394
0.997766
1.02242
1.07148
1.12859
1.19343
1.25025
1.28284
1.31054
1.3185
1.34165
1.3492
1.35585
1.35563
1.3517
1.34705
1.34799
1.34993
1.35313
1.35312
1.35198
1.34997
1.3501
1.35151
1.35284
1.35319
1.35206
1.35153
1.35167
1.35237
1.35261
0.976561
0.976508
0.976485
0.976449
0.976396
0.976336
0.976277
0.976202
0.976083
0.975852
0.975695
0.975697
0.975678
0.975518
0.975306
0.975181
0.975098
0.974957
0.974746
0.974592
0.97448
0.974401
0.974338
0.974248
0.974075
0.973816
0.973734
0.973702
0.97359
0.973364
0.973129
0.972874
0.972487
0.972069
0.97194
0.971938
0.971949
0.971991
0.972084
0.972191
0.97224
0.972283
0.97239
0.972486
0.972469
0.972349
0.972117
0.971844
0.971571
0.971334
0.971071
0.970727
0.970582
0.9706
0.970721
0.97101
0.971487
0.972195
0.972969
0.973379
0.973382
0.973229
0.972815
0.972409
0.972439
0.972673
0.973247
0.973906
0.974117
0.974283
0.974948
0.977213
0.985136
1.00165
1.0401
1.09291
1.16219
1.23363
1.29326
1.33548
1.3444
1.35287
1.34839
1.33642
1.33976
1.347
1.35395
1.35484
1.35356
1.34973
1.34987
1.35158
1.35378
1.35332
1.35155
1.35038
1.35101
1.35281
1.3535
1.35321
0.975623
0.975623
0.975624
0.975612
0.975564
0.975544
0.975548
0.975588
0.97573
0.975913
0.975902
0.975678
0.97525
0.975072
0.97511
0.97523
0.975248
0.975194
0.975091
0.974985
0.974915
0.974856
0.974693
0.974474
0.97429
0.974094
0.973893
0.973734
0.973564
0.97336
0.973114
0.972806
0.972417
0.972112
0.972021
0.972024
0.972054
0.972114
0.972181
0.972261
0.972288
0.972297
0.97235
0.972435
0.972424
0.972294
0.972059
0.971855
0.971881
0.97193
0.971873
0.97141
0.970878
0.970825
0.970913
0.971174
0.97168
0.972443
0.973226
0.973748
0.973862
0.973776
0.97353
0.973233
0.973103
0.973139
0.973341
0.973753
0.974036
0.974172
0.974245
0.974303
0.974539
0.975584
0.979735
0.990606
1.01862
1.06366
1.13315
1.20396
1.2551
1.30284
1.31374
1.33348
1.34779
1.35651
1.35618
1.35258
1.34823
1.34894
1.35261
1.35588
1.35535
1.35178
1.34989
1.3504
1.35246
1.35416
1.35412
1.3538
0.973718
0.973755
0.973782
0.973778
0.973707
0.973653
0.973634
0.973629
0.973659
0.973737
0.973721
0.973587
0.973528
0.97355
0.973647
0.973855
0.974087
0.974126
0.97413
0.974154
0.974216
0.974309
0.974497
0.974712
0.974828
0.974849
0.974819
0.974658
0.974361
0.97411
0.973944
0.973761
0.973506
0.9732
0.972949
0.972905
0.972922
0.972909
0.972834
0.972758
0.972701
0.972672
0.97268
0.972736
0.972841
0.972863
0.972814
0.972911
0.973365
0.973542
0.973517
0.973179
0.97281
0.972737
0.972741
0.972777
0.972914
0.973179
0.973559
0.974015
0.974296
0.974273
0.974093
0.973785
0.97352
0.973466
0.973497
0.973642
0.973902
0.974057
0.974112
0.974121
0.974124
0.974146
0.974286
0.974874
0.977221
0.983955
1.00586
1.04409
1.11447
1.18955
1.26185
1.32544
1.34327
1.35347
1.34899
1.33652
1.34168
1.35193
1.35815
1.35744
1.35332
1.34861
1.3493
1.35242
1.35444
1.35441
1.35416
1.35435
0.972658
0.972657
0.972655
0.972661
0.972718
0.972763
0.972769
0.972774
0.972779
0.972789
0.972824
0.972885
0.972939
0.973004
0.97312
0.973349
0.973654
0.973868
0.973947
0.973996
0.974054
0.974133
0.974255
0.974458
0.974739
0.974865
0.974842
0.974697
0.974598
0.97461
0.97464
0.974629
0.974508
0.974228
0.973844
0.973594
0.973602
0.973631
0.973628
0.973577
0.973361
0.973162
0.973133
0.973138
0.973242
0.973376
0.973485
0.973805
0.974528
0.974772
0.974776
0.974699
0.974706
0.974689
0.974571
0.974443
0.974373
0.974287
0.974268
0.974423
0.974728
0.974778
0.97467
0.9744
0.973998
0.973788
0.97379
0.97385
0.974001
0.974104
0.974182
0.974399
0.974544
0.974547
0.974585
0.974563
0.974594
0.974853
0.976081
0.980911
0.997169
1.03205
1.09866
1.17232
1.24245
1.29184
1.3141
1.3291
1.35593
1.35942
1.35836
1.35161
1.34761
1.34873
1.35315
1.3558
1.35516
1.35395
1.35408
1.35505
0.972722
0.972687
0.972663
0.972667
0.972752
0.972957
0.973005
0.973004
0.973
0.973015
0.97305
0.973096
0.97316
0.97332
0.973582
0.973765
0.973827
0.973852
0.973882
0.973971
0.97406
0.974136
0.974202
0.974343
0.974589
0.974784
0.974763
0.974696
0.974693
0.974728
0.974754
0.97472
0.974583
0.974396
0.974195
0.974064
0.974094
0.974155
0.97417
0.974131
0.97391
0.973666
0.973625
0.973611
0.973519
0.973475
0.973616
0.974193
0.97521
0.975801
0.975892
0.975949
0.975995
0.975999
0.975958
0.97585
0.975616
0.975266
0.975128
0.975138
0.975261
0.975354
0.975288
0.975078
0.97479
0.974494
0.974437
0.974493
0.974505
0.974511
0.974639
0.975005
0.975205
0.975168
0.975041
0.974884
0.97482
0.974776
0.974647
0.974705
0.975456
0.979237
0.992734
1.02598
1.09129
1.16723
1.26031
1.31947
1.34999
1.35456
1.34484
1.33706
1.34273
1.35355
1.35815
1.35681
1.3533
1.35338
1.35468
1.35584
0.973205
0.973184
0.973102
0.973035
0.973039
0.973099
0.973245
0.973293
0.973303
0.973326
0.973396
0.973554
0.973855
0.974243
0.974357
0.974354
0.974295
0.974254
0.974259
0.974311
0.97442
0.974502
0.974525
0.974527
0.974566
0.97468
0.974665
0.974621
0.974635
0.974734
0.974731
0.974553
0.974283
0.974221
0.974223
0.974305
0.974629
0.974843
0.9749
0.97492
0.974916
0.974786
0.974363
0.974153
0.974139
0.974186
0.974436
0.974836
0.97543
0.976291
0.976513
0.976539
0.976532
0.976447
0.976318
0.976118
0.975783
0.975516
0.975415
0.975377
0.97533
0.975193
0.975227
0.975301
0.975313
0.975525
0.9758
0.975779
0.975509
0.975405
0.97562
0.975993
0.976072
0.975975
0.975749
0.97542
0.97512
0.974862
0.974623
0.974602
0.974669
0.974864
0.975573
0.979084
0.989979
1.02514
1.08608
1.16759
1.2507
1.28913
1.31617
1.33444
1.35764
1.35988
1.35777
1.35144
1.35203
1.35425
1.3566
1.35629
0.974035
0.973915
0.973842
0.973813
0.973779
0.973707
0.973709
0.973759
0.973783
0.973742
0.973741
0.973988
0.974401
0.974457
0.974452
0.974517
0.974736
0.974797
0.974733
0.974709
0.974804
0.974875
0.974904
0.974965
0.975003
0.974942
0.974668
0.974564
0.974588
0.974604
0.974466
0.974381
0.974401
0.97464
0.974723
0.974745
0.975033
0.975893
0.976273
0.976338
0.976362
0.976315
0.975976
0.975455
0.975289
0.975272
0.975283
0.975338
0.97555
0.976195
0.976526
0.97654
0.976455
0.976306
0.976245
0.976071
0.975703
0.975663
0.975627
0.975603
0.975542
0.975241
0.975052
0.975077
0.975448
0.976643
0.977332
0.977187
0.976665
0.976573
0.976729
0.976744
0.976691
0.976594
0.97644
0.976162
0.975737
0.975152
0.974917
0.974962
0.975082
0.975282
0.975413
0.975534
0.976002
0.979194
0.989752
1.02819
1.09047
1.17538
1.28316
1.32556
1.35454
1.35319
1.34242
1.34385
1.35054
1.35813
1.35748
1.35541
0.975022
0.974929
0.974828
0.974801
0.974888
0.975012
0.975051
0.97507
0.975029
0.974902
0.97497
0.975056
0.975059
0.974836
0.974706
0.975009
0.975949
0.97614
0.976093
0.975787
0.975559
0.975572
0.975738
0.975783
0.975627
0.974975
0.974606
0.974528
0.974446
0.974338
0.974272
0.974287
0.974394
0.974889
0.975727
0.975811
0.975926
0.976535
0.977208
0.977294
0.977286
0.977038
0.976634
0.976354
0.975914
0.975684
0.975659
0.975649
0.975883
0.97658
0.976768
0.976729
0.976267
0.975442
0.97528
0.975274
0.975324
0.975715
0.976144
0.976276
0.976257
0.975798
0.975147
0.97513
0.975779
0.977406
0.977947
0.977702
0.977253
0.977126
0.977108
0.976942
0.976748
0.976753
0.97683
0.976801
0.976526
0.976025
0.975945
0.975974
0.976144
0.976276
0.976254
0.976099
0.975955
0.975742
0.976041
0.979505
0.99092
1.03353
1.10091
1.18478
1.27915
1.29825
1.32424
1.34422
1.35919
1.3589
1.35321
1.35345
0.97541
0.975695
0.97587
0.975833
0.975839
0.975962
0.976053
0.976095
0.976107
0.976071
0.976234
0.976389
0.976395
0.976224
0.976145
0.976614
0.977946
0.978188
0.978167
0.977852
0.97701
0.976677
0.976741
0.976797
0.976662
0.976258
0.975953
0.9757
0.97541
0.975069
0.974649
0.974388
0.974356
0.974664
0.975765
0.9761
0.976245
0.976647
0.977373
0.977597
0.97757
0.977229
0.976745
0.976583
0.976353
0.975885
0.975625
0.975631
0.975885
0.976383
0.976768
0.976823
0.976482
0.975449
0.974901
0.974767
0.974765
0.975402
0.97686
0.977437
0.977424
0.976982
0.975963
0.97576
0.97634
0.977722
0.978041
0.977769
0.977389
0.977223
0.977037
0.9767
0.976416
0.976447
0.976712
0.977051
0.97708
0.976998
0.976998
0.977118
0.97731
0.977306
0.977186
0.976791
0.976156
0.975742
0.975767
0.975883
0.976479
0.981011
0.995307
1.0449
1.11849
1.21376
1.30981
1.3379
1.35563
1.34548
1.3436
1.35069
0.973632
0.973729
0.973861
0.974099
0.974489
0.974933
0.975091
0.975089
0.975033
0.975051
0.975423
0.976025
0.976107
0.976018
0.975981
0.976237
0.976841
0.977185
0.97714
0.976703
0.97599
0.975818
0.975966
0.976095
0.976029
0.975703
0.975489
0.975291
0.974993
0.974712
0.974542
0.974106
0.973142
0.972967
0.973563
0.974152
0.974164
0.974145
0.974293
0.97439
0.974394
0.974386
0.974393
0.974698
0.975588
0.975766
0.97541
0.974635
0.97458
0.9752
0.976595
0.977176
0.977172
0.976703
0.975379
0.974397
0.974296
0.97495
0.976962
0.977979
0.977981
0.977535
0.976497
0.976262
0.976766
0.977522
0.977494
0.977179
0.977033
0.977007
0.976964
0.976758
0.976514
0.976548
0.976927
0.977489
0.977581
0.977537
0.977533
0.977667
0.977855
0.977842
0.977674
0.977209
0.976521
0.976095
0.975875
0.975943
0.976237
0.976749
0.9779
0.983527
1.00176
1.06053
1.14157
1.22594
1.29626
1.31275
1.34439
1.35658
0.96486
0.964833
0.964726
0.964657
0.964643
0.96464
0.964668
0.964753
0.964831
0.964948
0.965244
0.965741
0.966229
0.96667
0.967122
0.967507
0.96776
0.967949
0.968237
0.968875
0.969478
0.970059
0.971421
0.972388
0.972452
0.97238
0.972357
0.972329
0.972186
0.971915
0.971432
0.969994
0.968602
0.968485
0.969112
0.969781
0.969983
0.970298
0.97073
0.970998
0.970989
0.970975
0.971383
0.972906
0.974372
0.974468
0.97387
0.972665
0.972434
0.97299
0.97516
0.977127
0.977474
0.977394
0.976853
0.975542
0.974473
0.974472
0.975252
0.976774
0.977652
0.977454
0.976503
0.976201
0.976255
0.97616
0.975823
0.975567
0.975683
0.976246
0.976928
0.977128
0.977102
0.977141
0.977503
0.977805
0.977795
0.977672
0.977627
0.977708
0.977878
0.977843
0.977476
0.976741
0.976302
0.976353
0.976539
0.976746
0.977224
0.977673
0.97774
0.977839
0.978747
0.986253
1.01211
1.08108
1.17113
1.27132
1.33463
1.35297
0.956347
0.956174
0.956187
0.956157
0.956116
0.95614
0.956139
0.955959
0.955835
0.955751
0.955491
0.95529
0.955288
0.955324
0.955824
0.956459
0.956578
0.956808
0.95767
0.959102
0.960333
0.96125
0.962695
0.965403
0.967316
0.967545
0.967657
0.967991
0.968113
0.968066
0.96756
0.965926
0.964533
0.964346
0.964546
0.965398
0.965865
0.965874
0.965633
0.965678
0.965934
0.966432
0.967492
0.969105
0.970132
0.970047
0.969225
0.968318
0.968152
0.968436
0.969996
0.973145
0.97593
0.976448
0.976166
0.975219
0.973634
0.971974
0.971747
0.972052
0.972981
0.973913
0.974163
0.973978
0.973941
0.974413
0.974631
0.974749
0.975125
0.975894
0.976977
0.977489
0.977519
0.977525
0.977677
0.977858
0.977821
0.977666
0.977378
0.977261
0.977263
0.97715
0.97681
0.976456
0.976599
0.97706
0.977377
0.977626
0.97815
0.978245
0.978146
0.977938
0.977299
0.977358
0.979357
0.99059
1.02896
1.11052
1.19677
1.28939
0.960516
0.960037
0.960114
0.96011
0.960077
0.959979
0.959389
0.958801
0.958752
0.959019
0.95934
0.959144
0.958956
0.959278
0.960518
0.961652
0.962153
0.962422
0.962448
0.962499
0.962995
0.964362
0.967068
0.968618
0.968754
0.96871
0.968732
0.969095
0.969632
0.969639
0.969234
0.968353
0.967735
0.96761
0.967807
0.968773
0.969284
0.969042
0.96809
0.967962
0.968005
0.968459
0.969408
0.969603
0.969553
0.969073
0.968812
0.968361
0.966821
0.965033
0.964978
0.965353
0.966622
0.968204
0.968527
0.968524
0.968032
0.966913
0.966836
0.967188
0.968455
0.969992
0.970186
0.970325
0.97077
0.971844
0.97366
0.974859
0.975396
0.975884
0.976366
0.977043
0.977347
0.977351
0.977122
0.976497
0.976058
0.975596
0.975199
0.975257
0.975728
0.976071
0.976295
0.976743
0.977317
0.977709
0.977857
0.978063
0.978275
0.97821
0.977875
0.977224
0.976728
0.976743
0.976903
0.977583
0.981701
1.00131
1.04901
1.18412
0.980124
0.979383
0.979099
0.979129
0.979441
0.980545
0.981536
0.981475
0.979035
0.975564
0.975232
0.975195
0.97602
0.978669
0.979384
0.979281
0.978486
0.976463
0.972841
0.970105
0.969274
0.968534
0.967424
0.967165
0.967707
0.968658
0.968857
0.968867
0.968799
0.968778
0.968799
0.969052
0.969835
0.970282
0.970158
0.969501
0.969321
0.96891
0.96652
0.964757
0.964626
0.965341
0.966425
0.966734
0.966945
0.967002
0.967118
0.967497
0.967134
0.964282
0.961611
0.961378
0.961663
0.96241
0.963223
0.964581
0.965477
0.965268
0.964202
0.963921
0.964371
0.966145
0.96779
0.967844
0.96769
0.967672
0.968638
0.970738
0.971242
0.970961
0.970489
0.970734
0.971831
0.972627
0.972651
0.97269
0.972855
0.973013
0.973321
0.973989
0.975168
0.976196
0.976851
0.977449
0.977753
0.977836
0.977877
0.977983
0.977829
0.977362
0.97673
0.976433
0.97656
0.976937
0.977561
0.978086
0.978193
0.979321
0.985387
1.04857
0.988784
0.989197
0.990013
0.991308
0.992288
0.994463
0.997578
0.997751
0.994706
0.989611
0.988652
0.988599
0.988877
0.99144
0.993956
0.994332
0.99407
0.990001
0.986918
0.986261
0.984265
0.978671
0.973465
0.972844
0.973579
0.9753
0.976547
0.976525
0.976022
0.97593
0.976613
0.977899
0.978104
0.977622
0.974086
0.971061
0.970402
0.969577
0.967164
0.966122
0.966263
0.968138
0.969928
0.97006
0.969998
0.97019
0.971854
0.974596
0.974839
0.973148
0.970583
0.968676
0.967022
0.965847
0.9658
0.966433
0.968146
0.970558
0.971466
0.971219
0.97129
0.971912
0.97215
0.971774
0.970414
0.96893
0.968779
0.969088
0.969109
0.968523
0.967512
0.967287
0.967489
0.967867
0.96823
0.968791
0.9695
0.970288
0.971238
0.972793
0.974464
0.975691
0.976524
0.977158
0.977518
0.977372
0.976794
0.976197
0.975875
0.975831
0.97587
0.976113
0.976883
0.977512
0.97824
0.978284
0.978249
0.977927
0.978007
0.99073
1.02663
1.02677
1.02717
1.02788
1.02849
1.0286
1.02857
1.02853
1.02849
1.02745
1.0249
1.02433
1.02476
1.025
1.02442
1.02313
1.02267
1.02314
1.02492
1.0251
1.02375
1.0193
1.01616
1.016
1.01692
1.01929
1.02082
1.02034
1.01703
1.01423
1.01408
1.01507
1.01591
1.01561
1.01247
1.00667
1.00398
1.00265
1.00097
0.998983
0.997738
0.997712
0.997608
0.996548
0.993752
0.992598
0.99308
0.994413
0.994706
0.99385
0.991833
0.989971
0.988474
0.986456
0.982377
0.978272
0.977677
0.977704
0.977349
0.976173
0.974531
0.972385
0.971663
0.97152
0.970513
0.968309
0.96665
0.966414
0.966573
0.966669
0.96658
0.966442
0.966362
0.966438
0.966885
0.967959
0.968746
0.969179
0.969557
0.97026
0.971159
0.971679
0.971918
0.972519
0.972829
0.972551
0.972499
0.97286
0.973719
0.974846
0.97571
0.976292
0.977176
0.977616
0.978041
0.978138
0.977843
0.976994
0.976926
0.9786
1.08403
1.08413
1.08406
1.08369
1.08361
1.08406
1.08551
1.08573
1.0857
1.0853
1.0827
1.08122
1.08157
1.08131
1.07874
1.07531
1.07501
1.07582
1.0757
1.07273
1.0721
1.07169
1.06816
1.0619
1.06045
1.06008
1.05944
1.05777
1.05468
1.0496
1.04273
1.04019
1.04021
1.04222
1.04418
1.0429
1.04146
1.04236
1.04378
1.04382
1.04246
1.03659
1.03505
1.03495
1.03283
1.02787
1.0198
1.01077
1.00906
1.00882
1.00706
1.00602
1.00629
1.00617
1.00568
1.0042
0.999802
0.993758
0.988674
0.983377
0.979432
0.978605
0.979066
0.980471
0.980326
0.976866
0.97202
0.970901
0.971446
0.973004
0.97403
0.973969
0.973298
0.973339
0.974047
0.974936
0.974974
0.9745
0.973539
0.972828
0.97237
0.971671
0.970758
0.970286
0.969582
0.969394
0.969495
0.969909
0.971089
0.972379
0.97447
0.975707
0.976588
0.977203
0.976937
0.976374
0.976116
0.97621
0.976705
0.978342
1.14921
1.15021
1.15052
1.14977
1.14594
1.14304
1.14145
1.14078
1.14089
1.14126
1.14102
1.13945
1.13681
1.1353
1.13579
1.13619
1.13569
1.13602
1.13684
1.13679
1.13531
1.13189
1.13053
1.13042
1.13091
1.13084
1.12827
1.12498
1.12468
1.12364
1.11859
1.11006
1.10699
1.10723
1.10743
1.10667
1.10184
1.09398
1.09159
1.09028
1.0873
1.08576
1.08651
1.08836
1.08808
1.08591
1.08196
1.07658
1.07312
1.06998
1.06484
1.05836
1.05214
1.04972
1.05025
1.05066
1.04751
1.0427
1.04052
1.03578
1.02815
1.02413
1.02265
1.02222
1.02123
1.01675
1.0081
1.00079
0.997747
0.997161
0.996069
0.992994
0.98802
0.984377
0.981753
0.978432
0.976238
0.974407
0.97246
0.971396
0.971221
0.970759
0.96995
0.969186
0.968842
0.969134
0.969919
0.971571
0.973609
0.974178
0.973429
0.972798
0.97252
0.972655
0.972846
0.973169
0.974152
0.975534
0.976851
0.978233
1.21928
1.21711
1.21342
1.21259
1.21304
1.21425
1.21425
1.21262
1.21095
1.21075
1.20962
1.20605
1.20425
1.20452
1.20555
1.20538
1.20396
1.2026
1.20143
1.19839
1.19628
1.19549
1.19314
1.18941
1.1892
1.18909
1.18798
1.18386
1.17972
1.1793
1.17896
1.17707
1.17221
1.16971
1.16981
1.17077
1.17036
1.16662
1.16095
1.15779
1.15479
1.15135
1.14698
1.14221
1.13788
1.13189
1.12463
1.12231
1.12322
1.12392
1.12191
1.11599
1.10858
1.10547
1.1038
1.0985
1.08561
1.08101
1.08017
1.07604
1.06984
1.06743
1.06407
1.05698
1.04845
1.04253
1.03899
1.03558
1.02894
1.02088
1.01607
1.01261
1.00842
1.00307
0.997764
0.992122
0.986737
0.983116
0.980495
0.977597
0.977863
0.978133
0.976778
0.975377
0.975673
0.976508
0.977469
0.977861
0.977635
0.97672
0.974426
0.972954
0.971546
0.97131
0.971412
0.971744
0.972694
0.973981
0.975895
0.977161
1.29091
1.28831
1.28753
1.28793
1.28849
1.2879
1.28602
1.28527
1.28348
1.28104
1.28072
1.27985
1.27778
1.27658
1.27452
1.27278
1.27249
1.27207
1.27082
1.26726
1.26547
1.26537
1.26516
1.26396
1.26098
1.25849
1.25731
1.25491
1.25128
1.25008
1.24941
1.24796
1.24399
1.23892
1.23599
1.23375
1.23148
1.22876
1.2242
1.22001
1.2178
1.21555
1.21362
1.2119
1.20956
1.20551
1.19985
1.19525
1.19075
1.18635
1.18191
1.17452
1.16598
1.16468
1.16558
1.16457
1.15812
1.15092
1.14389
1.13273
1.12882
1.12844
1.12622
1.12114
1.11131
1.09944
1.09577
1.09487
1.09343
1.0864
1.07471
1.06731
1.06293
1.05744
1.0505
1.04412
1.03638
1.02878
1.02213
1.01457
1.00787
1.00318
0.998021
0.992253
0.988417
0.984482
0.981624
0.978757
0.976833
0.974982
0.972761
0.971881
0.971324
0.971356
0.972239
0.97412
0.975458
0.975461
0.974621
0.974315
1.36984
1.36578
1.36335
1.36336
1.36428
1.3643
1.36301
1.36249
1.36209
1.35877
1.35652
1.35606
1.35525
1.35431
1.35288
1.34937
1.34799
1.34808
1.34779
1.34618
1.34216
1.33972
1.33913
1.33846
1.33664
1.33407
1.33195
1.33016
1.3271
1.32346
1.32129
1.31979
1.31638
1.31147
1.30909
1.30789
1.30646
1.30404
1.30023
1.29465
1.28967
1.28553
1.28197
1.27942
1.27683
1.2732
1.26657
1.26163
1.25846
1.25555
1.25205
1.24721
1.24062
1.23372
1.22794
1.22338
1.21665
1.21046
1.20575
1.1988
1.19385
1.1898
1.18077
1.17262
1.16587
1.15913
1.15396
1.14643
1.13842
1.13102
1.12308
1.11414
1.10617
1.09814
1.0897
1.0817
1.07302
1.0641
1.05563
1.04755
1.03772
1.03002
1.02283
1.01554
1.00819
1.00168
0.995705
0.989455
0.984592
0.981536
0.979456
0.977597
0.978079
0.979147
0.980802
0.980761
0.979579
0.977649
0.975602
0.974083
1.45277
1.4521
1.45085
1.44674
1.44258
1.44194
1.44238
1.4437
1.44362
1.44249
1.43924
1.43542
1.43497
1.43472
1.43413
1.43105
1.42706
1.42669
1.42648
1.42531
1.42189
1.41853
1.417
1.4157
1.41325
1.4108
1.40938
1.40789
1.40593
1.40158
1.39692
1.3946
1.39266
1.3899
1.38664
1.38315
1.37937
1.37635
1.37373
1.36989
1.36502
1.36041
1.35652
1.35314
1.34953
1.34528
1.34046
1.33526
1.32925
1.32348
1.31876
1.31437
1.30958
1.3035
1.29675
1.29219
1.28749
1.28089
1.27308
1.26339
1.25717
1.25397
1.2482
1.2407
1.23107
1.22047
1.21503
1.21009
1.20229
1.19221
1.18452
1.17681
1.16874
1.16079
1.15239
1.14349
1.1354
1.1267
1.11826
1.11013
1.10084
1.09096
1.08192
1.07284
1.06224
1.05238
1.04256
1.03291
1.02266
1.01346
1.00611
0.998349
0.99301
0.988093
0.984647
0.980992
0.977028
0.975348
0.974795
0.974304
1.54229
1.54109
1.53966
1.53526
1.53163
1.53152
1.53202
1.53123
1.52795
1.52694
1.5262
1.52297
1.52088
1.52043
1.52
1.51766
1.51405
1.51318
1.51278
1.51156
1.50709
1.50329
1.50217
1.50108
1.49846
1.49493
1.49163
1.48947
1.48774
1.48533
1.48134
1.4771
1.474
1.47146
1.46877
1.46568
1.46163
1.45701
1.45283
1.44916
1.44552
1.44061
1.43501
1.43113
1.42794
1.42317
1.41709
1.412
1.40729
1.40087
1.39419
1.38863
1.38356