/*--------------------------------*- C++ -*----------------------------------*\
  =========                 |
  \\      /  F ield         | OpenFOAM: The Open Source CFD Toolbox
   \\    /   O peration     | Website:  https://openfoam.org
    \\  /    A nd           | Version:  7
     \\/     M anipulation  |
\*---------------------------------------------------------------------------*/
FoamFile
{
    version     2.0;
    format      ascii;
    class       volScalarField;
    location    "1";
    object      T;
}
// * * * * * * * * * * * * * * * * * * * * * * * * * * * * * * * * * * * * * //

dimensions      [0 0 0 1 0 0 0];

internalField   nonuniform List<scalar> 
90000
(
0.968907
0.971599
0.974567
0.977845
0.980867
0.983843
0.98657
0.989472
0.99212
0.994399
0.996564
0.99837
1.00027
1.00194
1.00354
1.00503
1.00638
1.00794
1.00923
1.01073
1.01268
1.01463
1.01713
1.01982
1.02268
1.02624
1.02989
1.03361
1.03754
1.04093
1.04499
1.04801
1.05036
1.05298
1.05517
1.0572
1.05953
1.06172
1.06373
1.06559
1.06531
1.06372
1.06171
1.06069
1.0598
1.06003
1.06129
1.06477
1.06861
1.06924
1.06946
1.0706
1.07097
1.07065
1.06993
1.0686
1.06742
1.06673
1.06686
1.0671
1.06784
1.06949
1.07164
1.07293
1.07366
1.07351
1.07276
1.07131
1.07004
1.06889
1.0671
1.06527
1.06192
1.05772
1.05463
1.05257
1.05234
1.05256
1.05262
1.05231
1.05101
1.04908
1.04684
1.04489
1.04312
1.04063
1.03722
1.0334
1.02902
1.02475
1.02277
1.02234
1.02235
1.02239
1.0223
1.02211
1.02177
1.02105
1.01951
1.01483
0.966405
0.966506
0.966753
0.967202
0.967863
0.968667
0.969611
0.970734
0.971986
0.973379
0.97483
0.976366
0.978053
0.979767
0.981639
0.983571
0.985309
0.987125
0.988831
0.990325
0.991902
0.993481
0.995066
0.996795
0.998654
1.00062
1.00292
1.00551
1.00828
1.01127
1.01476
1.01882
1.0221
1.02554
1.02978
1.03372
1.03738
1.04092
1.04486
1.04785
1.05059
1.05306
1.05475
1.05601
1.05632
1.05609
1.05586
1.05603
1.05737
1.0582
1.05873
1.06
1.06178
1.06296
1.06385
1.06429
1.06479
1.06467
1.06416
1.06325
1.06323
1.06363
1.06506
1.06669
1.06849
1.07034
1.07039
1.0695
1.06781
1.0658
1.06341
1.06005
1.05589
1.0509
1.04699
1.04433
1.04349
1.04369
1.0442
1.04426
1.04327
1.04112
1.03844
1.03622
1.03473
1.03256
1.02934
1.02559
1.02129
1.01715
1.01521
1.01485
1.01487
1.01495
1.015
1.01495
1.01472
1.01413
1.01275
1.00817
0.965194
0.965171
0.965144
0.965118
0.965119
0.965132
0.965163
0.965208
0.965261
0.965336
0.965432
0.965571
0.965821
0.966143
0.966612
0.967237
0.967899
0.968731
0.96973
0.970689
0.971837
0.973136
0.974463
0.975937
0.977593
0.979158
0.980913
0.983009
0.985285
0.987655
0.990302
0.993663
0.997044
1.00026
1.00447
1.00943
1.01366
1.01819
1.02302
1.02744
1.03234
1.03648
1.03973
1.04199
1.04421
1.04675
1.04936
1.05265
1.05347
1.05317
1.0532
1.05352
1.05423
1.05513
1.05601
1.05695
1.05782
1.05912
1.06
1.05985
1.05941
1.05885
1.05922
1.06018
1.06186
1.06387
1.06552
1.06549
1.06484
1.06271
1.05896
1.05371
1.04779
1.04225
1.03887
1.03665
1.03512
1.03457
1.03492
1.03476
1.03437
1.03325
1.03103
1.02828
1.02658
1.02519
1.02232
1.01835
1.01403
1.01033
1.00834
1.00798
1.00801
1.00822
1.00848
1.00853
1.0084
1.00795
1.00677
1.00241
0.963601
0.963596
0.963586
0.96357
0.963552
0.963539
0.963533
0.96353
0.963528
0.963524
0.963525
0.963534
0.963524
0.963531
0.963565
0.963646
0.963732
0.963809
0.963899
0.964026
0.964245
0.964564
0.965009
0.965582
0.966336
0.967172
0.968147
0.969437
0.971149
0.972895
0.974907
0.977315
0.980069
0.982808
0.986325
0.990524
0.995134
0.999684
1.00469
1.01047
1.01632
1.02218
1.02708
1.03059
1.03404
1.03773
1.04054
1.04398
1.04657
1.04828
1.04928
1.04977
1.05026
1.051
1.05145
1.05183
1.05223
1.05292
1.05403
1.05487
1.05536
1.05524
1.05532
1.05612
1.05694
1.05813
1.05958
1.06019
1.06009
1.05901
1.05566
1.04928
1.04151
1.03446
1.03076
1.03022
1.02972
1.02917
1.02871
1.02775
1.0268
1.02613
1.02523
1.02333
1.0213
1.01985
1.01807
1.01414
1.00916
1.00517
1.00349
1.00324
1.00323
1.00328
1.00343
1.00347
1.00336
1.00295
1.00194
0.997958
0.962047
0.962043
0.962038
0.962033
0.962025
0.96202
0.962019
0.962021
0.962023
0.962024
0.962021
0.962017
0.962019
0.962035
0.962079
0.962186
0.962281
0.96235
0.962411
0.962484
0.96261
0.962835
0.963056
0.963248
0.963448
0.963732
0.964158
0.964717
0.965449
0.966138
0.967039
0.968323
0.970002
0.971791
0.973997
0.976767
0.979961
0.983202
0.987066
0.992059
0.99736
1.00346
1.0088
1.01345
1.01804
1.02327
1.02766
1.03271
1.0383
1.04241
1.04462
1.04641
1.04823
1.04982
1.05127
1.05211
1.05204
1.05145
1.05114
1.05135
1.05163
1.05218
1.05298
1.05472
1.05567
1.05571
1.05604
1.05626
1.05597
1.05483
1.05226
1.04712
1.0387
1.03063
1.02633
1.02569
1.02584
1.02608
1.02594
1.02515
1.0236
1.0221
1.02128
1.02049
1.01896
1.01702
1.015
1.01207
1.00729
1.00276
1.0007
1.00037
1.00037
1.00041
1.00056
1.00072
1.00066
1.00037
0.999339
0.995429
0.96116
0.96116
0.96116
0.961159
0.961157
0.961156
0.961157
0.961161
0.961169
0.961182
0.961196
0.961206
0.961217
0.961243
0.961299
0.961381
0.961461
0.96155
0.961679
0.961794
0.96188
0.961976
0.962159
0.962421
0.962705
0.962991
0.963326
0.963855
0.964539
0.965092
0.965791
0.96669
0.967778
0.969072
0.970636
0.9724
0.974078
0.975854
0.978254
0.98141
0.98526
0.989492
0.993423
0.996783
1.0002
1.00389
1.00939
1.01605
1.02339
1.0312
1.0379
1.04296
1.04565
1.04707
1.04884
1.04992
1.0503
1.05016
1.04988
1.04995
1.05026
1.051
1.05214
1.05383
1.05486
1.05483
1.05469
1.05436
1.05348
1.05172
1.04888
1.04423
1.03698
1.02936
1.02549
1.02415
1.02411
1.02425
1.02409
1.02336
1.02218
1.02076
1.01967
1.01893
1.01792
1.01604
1.01366
1.01066
1.00666
1.0024
0.999916
0.999426
0.999449
0.999525
0.999654
0.999739
0.99967
0.999407
0.998585
0.994794
0.960794
0.960796
0.960798
0.9608
0.960803
0.960806
0.960813
0.960819
0.960828
0.96084
0.960844
0.960854
0.960881
0.960935
0.961011
0.961042
0.961053
0.961099
0.961263
0.961436
0.961525
0.96157
0.961689
0.961978
0.962391
0.962789
0.963151
0.963679
0.964071
0.964463
0.965274
0.966352
0.967383
0.968445
0.969773
0.971354
0.973051
0.974872
0.97694
0.979139
0.981658
0.984933
0.987256
0.988123
0.989058
0.990449
0.993114
0.996532
1.00227
1.01004
1.01893
1.02685
1.0342
1.03802
1.04241
1.04499
1.04661
1.0473
1.04855
1.05023
1.05133
1.05198
1.05292
1.05408
1.05483
1.05483
1.05455
1.05388
1.05264
1.05068
1.04733
1.0419
1.03459
1.0281
1.02535
1.02424
1.02365
1.02365
1.02344
1.02261
1.02152
1.02053
1.01941
1.01837
1.01725
1.01582
1.01332
1.01013
1.00623
1.00233
0.999918
0.999292
0.999193
0.999125
0.99912
0.999121
0.999018
0.998719
0.997922
0.994435
0.960563
0.960569
0.960577
0.960581
0.960582
0.960586
0.960595
0.960599
0.960601
0.960603
0.960609
0.960623
0.960645
0.960687
0.960755
0.96078
0.960805
0.960872
0.960986
0.961116
0.961229
0.961322
0.96148
0.961746
0.96211
0.962531
0.962918
0.963374
0.963688
0.964079
0.964947
0.966116
0.967171
0.968191
0.969425
0.970781
0.972357
0.974441
0.976737
0.978851
0.981272
0.984215
0.985386
0.985795
0.986539
0.987479
0.988237
0.988779
0.98977
0.992354
0.997555
1.00429
1.01149
1.01921
1.02653
1.03366
1.0401
1.04454
1.04791
1.0498
1.05095
1.05187
1.0529
1.05335
1.05419
1.05515
1.05523
1.05475
1.0534
1.05081
1.04623
1.03952
1.03213
1.02698
1.02522
1.02454
1.02399
1.02361
1.02314
1.0221
1.02123
1.02053
1.01962
1.01838
1.01711
1.01561
1.01344
1.01009
1.00611
1.00226
0.999872
0.999192
0.999065
0.99898
0.998918
0.998852
0.998704
0.99837
0.997589
0.994166
0.960427
0.96044
0.960449
0.960454
0.960457
0.960461
0.960468
0.960476
0.960478
0.960479
0.960485
0.960499
0.960523
0.960554
0.960594
0.960642
0.960703
0.960771
0.960856
0.960966
0.961111
0.961233
0.961379
0.96164
0.961942
0.962284
0.962647
0.963054
0.963413
0.963791
0.964568
0.965756
0.966907
0.968038
0.969262
0.970357
0.971653
0.973768
0.976428
0.978859
0.981329
0.983813
0.984693
0.985082
0.985949
0.987158
0.987593
0.987519
0.987344
0.98769
0.988992
0.991056
0.993304
0.997218
1.00248
1.01009
1.01839
1.02686
1.03464
1.03972
1.04515
1.048
1.05091
1.05285
1.0553
1.05693
1.05672
1.05599
1.05424
1.05042
1.04455
1.03716
1.03039
1.02657
1.02521
1.02466
1.02413
1.02366
1.02303
1.02193
1.02108
1.02051
1.0197
1.01847
1.01705
1.01551
1.01332
1.01022
1.00622
1.00228
0.999854
0.999148
0.999016
0.99891
0.998828
0.998753
0.998597
0.998245
0.997456
0.994099
0.960324
0.960339
0.960357
0.960366
0.96037
0.960372
0.960374
0.960376
0.960378
0.960383
0.960397
0.960421
0.960444
0.96047
0.960501
0.960543
0.960602
0.960677
0.96078
0.960906
0.961027
0.96114
0.961249
0.961479
0.961772
0.962053
0.962358
0.962698
0.963077
0.963479
0.964144
0.965226
0.966504
0.967829
0.969059
0.970014
0.971145
0.973126
0.975983
0.978812
0.981386
0.983404
0.983951
0.98429
0.985246
0.986787
0.98732
0.987308
0.987121
0.987226
0.987855
0.988337
0.98869
0.989427
0.990774
0.993494
0.997397
1.00362
1.0114
1.02063
1.03063
1.03906
1.04784
1.0523
1.05603
1.05639
1.05601
1.05455
1.05181
1.04841
1.04307
1.03657
1.03061
1.02664
1.02506
1.02429
1.02399
1.02368
1.02321
1.02232
1.0211
1.0202
1.01946
1.0185
1.01714
1.01538
1.01313
1.01008
1.00621
1.00228
0.999795
0.999099
0.998998
0.998936
0.99887
0.998811
0.998675
0.998312
0.997564
0.994257
0.960168
0.960188
0.960212
0.960232
0.960244
0.960252
0.96026
0.960264
0.960265
0.96027
0.960289
0.96031
0.960319
0.960328
0.960349
0.960383
0.96043
0.960493
0.960574
0.960675
0.960775
0.96088
0.960983
0.961168
0.961432
0.961709
0.962019
0.962371
0.962743
0.963157
0.963724
0.964583
0.96583
0.967378
0.968726
0.969652
0.970673
0.972481
0.975317
0.978376
0.981201
0.982901
0.983184
0.98342
0.984307
0.986075
0.986946
0.987002
0.986872
0.986954
0.987369
0.987747
0.988275
0.988797
0.989186
0.989694
0.990576
0.992138
0.994547
0.999785
1.00723
1.01787
1.02871
1.03786
1.04629
1.04905
1.05073
1.04976
1.04846
1.04604
1.04243
1.03676
1.0309
1.02651
1.02452
1.02405
1.02394
1.02388
1.0235
1.02257
1.02117
1.02006
1.01925
1.01841
1.01711
1.01519
1.01285
1.00994
1.00621
1.00225
0.999708
0.999085
0.999042
0.999019
0.999018
0.999013
0.99891
0.998546
0.997837
0.99465
0.959737
0.959765
0.959794
0.959805
0.959806
0.959806
0.959811
0.959825
0.959838
0.959847
0.959864
0.95987
0.959867
0.959867
0.959899
0.959973
0.96
0.960023
0.96008
0.96017
0.960292
0.960404
0.960517
0.960669
0.960889
0.961163
0.961481
0.961862
0.962274
0.962715
0.963228
0.963919
0.964959
0.966486
0.967963
0.969092
0.970134
0.97171
0.974274
0.977416
0.980598
0.982285
0.982509
0.98271
0.983503
0.985305
0.986542
0.986684
0.986608
0.986664
0.98694
0.987292
0.98803
0.988462
0.988715
0.989211
0.989656
0.990085
0.99073
0.992247
0.994825
0.999773
1.00638
1.01602
1.0255
1.03375
1.04157
1.04373
1.04369
1.04131
1.03808
1.03362
1.0282
1.02474
1.02453
1.0246
1.0245
1.02407
1.02348
1.02243
1.02113
1.02011
1.0193
1.01828
1.01674
1.01479
1.01259
1.00981
1.00613
1.00217
0.999697
0.999103
0.999092
0.999134
0.999209
0.999222
0.999118
0.998714
0.998012
0.994993
0.959047
0.959049
0.959048
0.959053
0.959063
0.959074
0.959088
0.959107
0.959129
0.959156
0.95918
0.959194
0.959206
0.959228
0.95927
0.959331
0.959391
0.959431
0.959482
0.959554
0.959663
0.959786
0.959919
0.960065
0.960266
0.960522
0.96082
0.96119
0.961604
0.962046
0.962532
0.963163
0.964019
0.965221
0.966698
0.968026
0.969249
0.970686
0.972922
0.975992
0.979372
0.981468
0.981859
0.982102
0.982832
0.984596
0.986063
0.986326
0.986298
0.98629
0.9865
0.986938
0.987807
0.988417
0.988771
0.989121
0.989423
0.989845
0.990565
0.991616
0.992826
0.994377
0.996398
0.999678
1.00388
1.01059
1.01726
1.02327
1.02804
1.02816
1.028
1.02681
1.02471
1.02469
1.02532
1.02528
1.02483
1.02382
1.02297
1.02214
1.0211
1.02026
1.01947
1.01825
1.01644
1.0145
1.01244
1.00971
1.00599
1.00209
0.999685
0.999143
0.99915
0.999217
0.999255
0.999241
0.999135
0.998709
0.998032
0.995157
0.958248
0.958264
0.958282
0.958293
0.958304
0.958322
0.958337
0.958356
0.95838
0.958409
0.958445
0.95848
0.958512
0.958546
0.958592
0.958654
0.958725
0.958784
0.958845
0.958917
0.959021
0.959149
0.959287
0.959426
0.95962
0.959857
0.960113
0.960448
0.960857
0.9613
0.961765
0.962388
0.963173
0.964108
0.965392
0.966816
0.968131
0.96952
0.971587
0.974487
0.977343
0.979709
0.980989
0.981631
0.982487
0.984104
0.985544
0.985906
0.985875
0.985852
0.986032
0.986497
0.98716
0.988
0.988488
0.988864
0.989214
0.989692
0.990438
0.991504
0.992709
0.99394
0.994948
0.995504
0.995689
0.996365
0.997493
1.00046
1.00339
1.00845
1.01269
1.01719
1.02209
1.02346
1.02483
1.02474
1.0236
1.02222
1.0221
1.0218
1.02119
1.02038
1.0195
1.01805
1.01621
1.01436
1.01233
1.00951
1.00579
1.00205
0.999744
0.999192
0.999164
0.999197
0.999225
0.999203
0.999092
0.998663
0.998045
0.995299
0.957531
0.957548
0.957582
0.957614
0.957637
0.957664
0.95769
0.957713
0.957742
0.957778
0.957819
0.957869
0.957914
0.957956
0.958008
0.958076
0.958158
0.958235
0.958312
0.958399
0.9585
0.958633
0.958785
0.958921
0.959093
0.959323
0.959559
0.959838
0.960225
0.960668
0.961112
0.96172
0.962443
0.963263
0.964339
0.965716
0.967064
0.96846
0.970293
0.973076
0.975736
0.977831
0.979408
0.980661
0.982088
0.983972
0.984864
0.985201
0.985375
0.985483
0.985741
0.9862
0.98683
0.98771
0.988361
0.98877
0.989158
0.989709
0.990484
0.991523
0.992694
0.993784
0.994073
0.994037
0.993611
0.992479
0.990557
0.988436
0.986093
0.987103
0.990147
0.996345
1.00459
1.01028
1.01718
1.01924
1.02038
1.02203
1.02266
1.02229
1.02137
1.0203
1.01896
1.01766
1.01619
1.01444
1.01215
1.00906
1.00559
1.00211
0.999842
0.999171
0.999124
0.999139
0.999133
0.999094
0.999003
0.998639
0.99807
0.995495
0.957151
0.957175
0.957212
0.957254
0.95729
0.957329
0.957366
0.957401
0.95744
0.95748
0.957519
0.957563
0.957617
0.957675
0.95774
0.957807
0.95788
0.957957
0.958036
0.95812
0.958207
0.958304
0.958423
0.958557
0.958701
0.958893
0.959118
0.959379
0.959724
0.960147
0.960601
0.961146
0.961821
0.96259
0.963482
0.964703
0.966062
0.967514
0.96904
0.971337
0.974081
0.976464
0.978499
0.979997
0.981483
0.98321
0.984325
0.984788
0.985078
0.985382
0.985725
0.986138
0.986755
0.987785
0.988631
0.989119
0.989532
0.990038
0.990731
0.991561
0.992556
0.993122
0.99307
0.992713
0.991863
0.990432
0.988298
0.985325
0.981898
0.977763
0.976831
0.978532
0.983177
0.991751
1.00118
1.00995
1.01822
1.02116
1.02213
1.02171
1.02033
1.01861
1.01798
1.01733
1.01636
1.01457
1.01163
1.00858
1.00546
1.00215
0.999823
0.99911
0.999047
0.999058
0.999077
0.999072
0.999011
0.998688
0.998208
0.995794
0.956847
0.956864
0.956882
0.956899
0.956914
0.956937
0.956958
0.956982
0.957008
0.957035
0.957066
0.957102
0.957151
0.957208
0.957273
0.957344
0.957414
0.957486
0.957561
0.957637
0.95772
0.957815
0.957932
0.958071
0.958227
0.958412
0.958641
0.958903
0.959235
0.959654
0.960108
0.960631
0.961285
0.962006
0.962804
0.963871
0.965171
0.966603
0.968094
0.969968
0.972371
0.975084
0.977617
0.97951
0.981137
0.982763
0.98395
0.984673
0.985178
0.985563
0.985918
0.986319
0.986963
0.987894
0.988549
0.989007
0.989393
0.989913
0.990623
0.991452
0.992069
0.99213
0.991971
0.991381
0.990242
0.988575
0.9863
0.983491
0.980254
0.976885
0.973705
0.972438
0.972991
0.975892
0.981179
0.990331
1.00091
1.0081
1.01456
1.01646
1.01692
1.01773
1.01825
1.01778
1.01643
1.0139
1.01112
1.00856
1.00562
1.00219
0.999697
0.999038
0.999036
0.999071
0.999078
0.999071
0.999045
0.998823
0.998403
0.996074
0.956465
0.956476
0.956495
0.956511
0.956527
0.956547
0.95657
0.956599
0.956628
0.956658
0.956692
0.956732
0.95678
0.956837
0.956895
0.956958
0.957028
0.957103
0.957182
0.957258
0.957337
0.957426
0.957527
0.957648
0.957796
0.957969
0.958182
0.958455
0.958778
0.959154
0.959597
0.960127
0.96077
0.961485
0.962274
0.963261
0.964434
0.965812
0.967316
0.969117
0.971248
0.973706
0.976263
0.978658
0.980756
0.982689
0.984187
0.984911
0.985322
0.985637
0.986009
0.986538
0.987264
0.9881
0.98872
0.989142
0.98948
0.98997
0.990643
0.991174
0.99126
0.991166
0.990772
0.989928
0.98862
0.986824
0.984526
0.981818
0.978818
0.97585
0.973211
0.971916
0.97134
0.971434
0.972295
0.975251
0.980989
0.990549
0.999613
1.00871
1.0144
1.01727
1.01748
1.01706
1.01508
1.01284
1.01073
1.00873
1.00567
1.00186
0.999514
0.99903
0.999061
0.999062
0.999054
0.999052
0.999049
0.998892
0.998497
0.996273
0.956208
0.956224
0.956248
0.956278
0.956307
0.956332
0.956356
0.956386
0.956419
0.956451
0.956485
0.956525
0.956575
0.956637
0.956699
0.956757
0.956819
0.956885
0.956951
0.957024
0.957095
0.957161
0.957238
0.957336
0.957465
0.957637
0.957856
0.958126
0.958429
0.958788
0.95921
0.959694
0.960333
0.961097
0.961886
0.962815
0.963998
0.965344
0.966701
0.968419
0.970543
0.972796
0.97509
0.977608
0.980095
0.982515
0.984533
0.985273
0.985609
0.985884
0.98629
0.986907
0.987727
0.988448
0.988915
0.989242
0.98952
0.989909
0.990397
0.990574
0.990525
0.990238
0.989522
0.988393
0.986937
0.985079
0.982818
0.980307
0.97768
0.975056
0.972973
0.971896
0.971392
0.971041
0.970889
0.971127
0.972281
0.975521
0.981318
0.989829
0.998506
1.00608
1.00872
1.01184
1.01219
1.01225
1.01104
1.00873
1.00493
1.00136
0.999442
0.999164
0.999122
0.999051
0.998975
0.999016
0.999032
0.998905
0.99854
0.996467
0.956013
0.95604
0.95608
0.956114
0.956136
0.956166
0.956202
0.956227
0.956249
0.956275
0.956298
0.956315
0.956355
0.956413
0.956462
0.956504
0.95655
0.956606
0.956678
0.956763
0.95686
0.956964
0.957074
0.957214
0.957381
0.957564
0.957786
0.958048
0.958319
0.958644
0.959033
0.959471
0.96002
0.96077
0.96162
0.962517
0.963681
0.965051
0.966388
0.967919
0.969973
0.972178
0.974231
0.976521
0.979178
0.981612
0.983791
0.985458
0.986099
0.986437
0.986814
0.987246
0.987759
0.988444
0.988954
0.989191
0.989445
0.989738
0.989837
0.98979
0.989588
0.989083
0.988124
0.986801
0.985239
0.983375
0.981178
0.978796
0.976529
0.974439
0.972846
0.972123
0.971691
0.971092
0.970813
0.970797
0.970899
0.971325
0.972669
0.975491
0.981281
0.989193
0.996467
1.00412
1.01146
1.01139
1.01014
1.00686
1.00317
1.00079
0.999778
0.999245
0.999002
0.998863
0.998913
0.999039
0.999025
0.998891
0.998564
0.996679
0.956196
0.956222
0.956252
0.956297
0.956358
0.956402
0.956426
0.956447
0.956469
0.956491
0.956526
0.956562
0.956592
0.956625
0.956662
0.956714
0.956756
0.956789
0.956863
0.956949
0.957005
0.957069
0.957163
0.95729
0.957448
0.957612
0.957796
0.958023
0.958277
0.95856
0.958913
0.959328
0.959816
0.960474
0.961327
0.962264
0.963348
0.964687
0.96612
0.967596
0.969375
0.971499
0.973567
0.975588
0.978012
0.980654
0.982995
0.985142
0.986546
0.987027
0.987066
0.9872
0.987607
0.988189
0.988627
0.988883
0.989185
0.98941
0.989404
0.989261
0.98883
0.988025
0.986846
0.985387
0.983724
0.981832
0.979679
0.977494
0.975571
0.97392
0.972791
0.972357
0.971949
0.971368
0.970918
0.970741
0.970816
0.971082
0.971232
0.971534
0.972703
0.975276
0.981077
0.987527
0.998116
1.00397
1.00368
1.00288
1.00185
1.00136
1.00017
0.998896
0.998633
0.998798
0.999029
0.999069
0.999026
0.998871
0.9986
0.996912
0.956402
0.956434
0.956468
0.956512
0.956579
0.956637
0.956679
0.95672
0.956759
0.956784
0.956808
0.956841
0.956878
0.956913
0.956932
0.956948
0.956967
0.956982
0.957009
0.957095
0.957207
0.95727
0.957279
0.957313
0.957421
0.95758
0.957748
0.957938
0.958176
0.958459
0.958768
0.959128
0.959586
0.960154
0.960892
0.961861
0.962955
0.964168
0.965624
0.967157
0.968706
0.970567
0.972654
0.974646
0.976835
0.979416
0.981901
0.984129
0.985971
0.986599
0.986795
0.987043
0.987497
0.988053
0.988381
0.988677
0.98893
0.988903
0.988724
0.988352
0.987696
0.986718
0.985482
0.984027
0.982351
0.980424
0.978384
0.976512
0.97498
0.973719
0.97275
0.972281
0.972035
0.971612
0.971191
0.971013
0.971018
0.971107
0.971167
0.971238
0.971233
0.971534
0.972528
0.975204
0.981353
0.991878
0.997133
0.999743
1.00103
1.00061
0.999198
0.997797
0.998161
0.998738
0.999107
0.999071
0.998974
0.998875
0.998686
0.997137
0.956604
0.956628
0.956663
0.956714
0.956789
0.956866
0.95693
0.956964
0.956969
0.956973
0.956995
0.957046
0.957096
0.957101
0.957092
0.957092
0.957108
0.957163
0.957216
0.957291
0.957416
0.957529
0.957605
0.957689
0.957759
0.957812
0.957905
0.958073
0.958287
0.958536
0.958808
0.959091
0.959435
0.959861
0.960431
0.96125
0.962266
0.963417
0.964792
0.966353
0.967905
0.969569
0.971482
0.973469
0.975641
0.97812
0.980596
0.982842
0.984933
0.986222
0.986554
0.986848
0.987408
0.988154
0.988526
0.98854
0.988461
0.988182
0.987685
0.987056
0.986307
0.985361
0.984175
0.982757
0.981103
0.979264
0.977457
0.975903
0.974716
0.973823
0.973051
0.972434
0.972079
0.971707
0.971329
0.971187
0.971218
0.971286
0.971341
0.971337
0.971254
0.971136
0.971081
0.97079
0.971815
0.976031
0.982133
0.985629
0.989684
0.992396
0.994534
0.996739
0.998751
0.999087
0.999012
0.998842
0.998956
0.998985
0.998824
0.997346
0.956827
0.956872
0.956914
0.956988
0.957078
0.957144
0.957188
0.9572
0.957201
0.957205
0.957229
0.9573
0.957343
0.957376
0.957421
0.957476
0.957541
0.95759
0.957634
0.957695
0.957776
0.957867
0.957995
0.958119
0.958198
0.95824
0.958229
0.958215
0.958308
0.958528
0.95879
0.959035
0.959284
0.959596
0.960026
0.960626
0.961459
0.962499
0.963715
0.965186
0.966785
0.968376
0.970106
0.971974
0.97399
0.976255
0.97869
0.981012
0.983315
0.985098
0.985858
0.98652
0.987363
0.988101
0.988209
0.988105
0.98775
0.987103
0.9863
0.985527
0.9848
0.983938
0.982811
0.981465
0.97996
0.978349
0.976883
0.97569
0.974713
0.973989
0.9734
0.972887
0.972501
0.972061
0.971686
0.971478
0.971394
0.971344
0.971369
0.9714
0.971431
0.971229
0.970979
0.970537
0.969704
0.968548
0.970121
0.971762
0.974876
0.980806
0.989595
0.995202
0.998169
0.998035
0.997785
0.998313
0.999062
0.999039
0.998858
0.997478
0.957283
0.95726
0.957253
0.957268
0.957339
0.957442
0.957525
0.957593
0.957657
0.957719
0.957785
0.957855
0.95792
0.957976
0.958022
0.958061
0.958099
0.958148
0.958217
0.958279
0.958341
0.958423
0.958549
0.958691
0.958776
0.95883
0.958861
0.958846
0.958804
0.958863
0.959056
0.959284
0.959468
0.959672
0.959962
0.960353
0.960911
0.961696
0.962669
0.963857
0.965265
0.966782
0.968402
0.970101
0.971948
0.97402
0.976288
0.978652
0.981147
0.983344
0.984787
0.985961
0.986982
0.987565
0.987577
0.987405
0.986905
0.98607
0.985087
0.984186
0.98341
0.982585
0.981552
0.980304
0.978925
0.977586
0.976502
0.975606
0.974731
0.973975
0.973469
0.973163
0.972992
0.972679
0.972348
0.972142
0.972016
0.971873
0.971749
0.971627
0.971517
0.971308
0.97094
0.970457
0.969672
0.967914
0.965261
0.962471
0.962199
0.965755
0.973451
0.982747
0.990723
0.993859
0.996652
0.998871
0.999073
0.998816
0.99865
0.997625
0.957508
0.957536
0.95756
0.957584
0.957613
0.957649
0.957693
0.957747
0.957808
0.95787
0.957935
0.958002
0.958069
0.958134
0.958202
0.958273
0.958337
0.958402
0.958479
0.958538
0.958585
0.958644
0.958737
0.958859
0.95895
0.959018
0.959059
0.959062
0.959018
0.959041
0.959182
0.959444
0.959611
0.959713
0.959867
0.960099
0.96045
0.960939
0.96156
0.962388
0.96346
0.964764
0.966302
0.967958
0.9697
0.971633
0.973776
0.97614
0.978648
0.981012
0.982947
0.984612
0.985834
0.986289
0.986309
0.986231
0.985942
0.98532
0.984343
0.983257
0.982291
0.981375
0.980373
0.979272
0.978124
0.977063
0.976196
0.975425
0.974627
0.973871
0.973371
0.973179
0.973144
0.972997
0.972752
0.972612
0.972551
0.972517
0.972474
0.972303
0.971969
0.971551
0.971105
0.970632
0.969855
0.968042
0.964335
0.959252
0.955906
0.956393
0.959906
0.9684
0.978406
0.989092
0.995257
0.998424
0.997962
0.997654
0.998117
0.997679
0.956848
0.956783
0.956781
0.956787
0.956799
0.956819
0.956846
0.956878
0.956904
0.956927
0.956951
0.956979
0.957031
0.957123
0.957227
0.957293
0.957362
0.957453
0.957543
0.957642
0.95776
0.957888
0.958014
0.958157
0.958403
0.958698
0.958802
0.958859
0.958914
0.958926
0.958929
0.959051
0.959181
0.959258
0.959349
0.959463
0.959651
0.959962
0.960393
0.96103
0.961923
0.963072
0.964491
0.966093
0.967761
0.9696
0.971674
0.97386
0.975951
0.977897
0.979955
0.982168
0.98403
0.984829
0.984842
0.984824
0.98481
0.984536
0.983684
0.982414
0.981118
0.98003
0.979159
0.978441
0.977689
0.976857
0.976053
0.975283
0.974557
0.973972
0.973518
0.973212
0.973041
0.972947
0.97282
0.972727
0.972737
0.972798
0.972871
0.972878
0.972687
0.97231
0.97188
0.971399
0.970479
0.968313
0.963998
0.958222
0.954151
0.953483
0.954199
0.956912
0.963705
0.97362
0.982878
0.991284
0.993768
0.99768
0.99834
0.99768
0.955956
0.955847
0.95573
0.955639
0.955595
0.95559
0.955588
0.955551
0.955507
0.955505
0.955515
0.95554
0.955676
0.955802
0.955788
0.955787
0.95599
0.956225
0.956288
0.956368
0.956543
0.956802
0.957057
0.957286
0.957581
0.958072
0.958379
0.958421
0.95846
0.95856
0.958727
0.95889
0.959015
0.959146
0.95928
0.959346
0.95938
0.959463
0.959679
0.960105
0.96075
0.961545
0.962581
0.963944
0.965407
0.967096
0.969087
0.970997
0.972682
0.974285
0.976212
0.978571
0.980957
0.982044
0.982461
0.982966
0.983528
0.983551
0.982992
0.981773
0.980379
0.979228
0.978561
0.978186
0.977738
0.977069
0.976298
0.975545
0.974961
0.974613
0.974371
0.974048
0.973737
0.973566
0.973394
0.97324
0.973152
0.973099
0.973086
0.973119
0.973139
0.972986
0.972613
0.972047
0.970985
0.968269
0.963202
0.957153
0.95381
0.953105
0.953127
0.95349
0.955175
0.959743
0.968429
0.978935
0.988912
0.996864
0.997872
0.996983
0.95777
0.957779
0.957744
0.957634
0.957397
0.957048
0.956861
0.956769
0.956641
0.956564
0.956602
0.956726
0.956833
0.956922
0.956979
0.957014
0.957066
0.957109
0.957095
0.95705
0.957074
0.957237
0.957392
0.957453
0.957536
0.957741
0.95804
0.958221
0.958338
0.958465
0.95861
0.958762
0.958923
0.959023
0.959095
0.959194
0.959349
0.959561
0.959812
0.960146
0.960572
0.960954
0.961376
0.961952
0.962622
0.963483
0.964704
0.966049
0.967376
0.968916
0.970657
0.972525
0.974906
0.977179
0.978785
0.980181
0.981254
0.98159
0.981338
0.9807
0.979736
0.978738
0.978455
0.978348
0.978011
0.977355
0.976527
0.975727
0.975272
0.975105
0.974986
0.974874
0.97488
0.974835
0.974707
0.974612
0.974533
0.974368
0.974003
0.973591
0.973276
0.973101
0.973012
0.972561
0.970801
0.967122
0.96132
0.955698
0.953348
0.953094
0.953113
0.953203
0.953424
0.954315
0.957054
0.963424
0.973835
0.984623
0.991141
0.994708
0.961441
0.961474
0.961529
0.961547
0.961382
0.9611
0.961033
0.961021
0.960975
0.960746
0.960249
0.960054
0.96007
0.960026
0.959728
0.959565
0.959515
0.959449
0.959393
0.959349
0.959252
0.958986
0.958558
0.958242
0.958083
0.95793
0.957747
0.957543
0.957325
0.957232
0.957243
0.957365
0.957701
0.95802
0.958211
0.958414
0.958653
0.958852
0.959097
0.959455
0.959723
0.95977
0.959764
0.959785
0.959879
0.960056
0.960381
0.960908
0.961731
0.962962
0.964555
0.96627
0.968231
0.970932
0.973801
0.975744
0.97718
0.978411
0.978557
0.978492
0.978612
0.978813
0.978727
0.978356
0.977762
0.97706
0.976316
0.975607
0.975201
0.975015
0.974926
0.974949
0.975148
0.975213
0.975205
0.97524
0.975267
0.975268
0.975164
0.974811
0.974414
0.974114
0.973755
0.972826
0.970377
0.965564
0.958905
0.95406
0.952847
0.952791
0.952806
0.952836
0.952898
0.953003
0.953344
0.954852
0.959601
0.967963
0.979801
0.991727
0.961365
0.961387
0.96152
0.961986
0.962414
0.962659
0.963013
0.963369
0.963342
0.963009
0.962613
0.962569
0.962585
0.962544
0.962184
0.961945
0.962092
0.96247
0.962483
0.962346
0.962149
0.961845
0.961302
0.960616
0.960001
0.959467
0.958984
0.958434
0.957791
0.957526
0.957549
0.957758
0.958282
0.958509
0.95855
0.95863
0.958882
0.95927
0.959607
0.959643
0.959561
0.95935
0.958929
0.958813
0.958841
0.958905
0.959069
0.959424
0.960109
0.961239
0.96286
0.964611
0.96602
0.967492
0.96933
0.970925
0.972288
0.973764
0.975067
0.976104
0.97713
0.978097
0.978207
0.978142
0.977608
0.97677
0.976138
0.975814
0.975557
0.975387
0.97539
0.975468
0.975601
0.975571
0.975494
0.975468
0.975496
0.975641
0.975832
0.975979
0.976005
0.975768
0.975135
0.973598
0.970116
0.963863
0.95699
0.953525
0.952856
0.95281
0.95282
0.952845
0.952889
0.952973
0.953219
0.953665
0.954548
0.957399
0.964025
0.978563
0.970328
0.97016
0.97016
0.970181
0.970169
0.970096
0.970029
0.969736
0.969235
0.969146
0.96901
0.968886
0.968911
0.968881
0.968694
0.968578
0.968607
0.968845
0.969298
0.969968
0.970515
0.970726
0.970606
0.970185
0.970058
0.969945
0.969506
0.968933
0.968142
0.966935
0.966426
0.966256
0.966022
0.965525
0.96488
0.964271
0.964149
0.964191
0.964186
0.96412
0.964009
0.963656
0.963059
0.962262
0.961346
0.961245
0.961316
0.961376
0.961597
0.96207
0.962599
0.963142
0.963617
0.964203
0.965204
0.966519
0.967978
0.969767
0.971692
0.973414
0.97499
0.976319
0.977033
0.97718
0.977069
0.976898
0.976955
0.977219
0.977512
0.977696
0.977866
0.9782
0.978456
0.978394
0.978273
0.978139
0.977838
0.977198
0.976501
0.976298
0.976432
0.976514
0.975974
0.973737
0.96897
0.961965
0.956189
0.954122
0.953857
0.953851
0.953857
0.953858
0.953847
0.953839
0.953894
0.954053
0.954601
0.955433
0.957006
0.966118
0.988466
0.988223
0.988021
0.98771
0.987132
0.98651
0.98628
0.986276
0.98637
0.986232
0.985688
0.985308
0.984939
0.984606
0.984376
0.984013
0.983233
0.981986
0.98149
0.98137
0.981065
0.980708
0.980288
0.979239
0.978363
0.978394
0.97839
0.978194
0.977578
0.976832
0.976212
0.975885
0.975422
0.974571
0.973471
0.972116
0.970132
0.968721
0.968233
0.967666
0.966675
0.966267
0.96647
0.966376
0.965937
0.965407
0.964928
0.964211
0.963498
0.962979
0.962173
0.961678
0.961853
0.962478
0.963574
0.965021
0.966685
0.968652
0.970737
0.972183
0.973083
0.974
0.975156
0.976202
0.977125
0.977974
0.97863
0.979066
0.979425
0.979753
0.980059
0.980572
0.981221
0.981347
0.981393
0.981424
0.981426
0.98114
0.980184
0.978943
0.978071
0.977388
0.975861
0.97228
0.966287
0.959851
0.956324
0.955722
0.955758
0.955866
0.955974
0.956086
0.956195
0.956293
0.95641
0.956519
0.956713
0.957168
0.958076
0.96141
1.00394
1.00341
1.00277
1.00213
1.00185
1.00195
1.00203
1.00194
1.00211
1.00232
1.00212
1.00187
1.00144
1.00087
1.00031
1.0003
1.00051
1.0003
0.999396
0.999112
0.998846
0.997947
0.996459
0.995221
0.994393
0.993805
0.993444
0.992764
0.991745
0.991252
0.990855
0.989807
0.989417
0.989562
0.989033
0.987387
0.985228
0.983974
0.983609
0.983168
0.982189
0.980423
0.97859
0.977177
0.976206
0.975594
0.974865
0.973902
0.972806
0.972372
0.971903
0.970769
0.970397
0.970501
0.970657
0.970947
0.97143
0.972676
0.973868
0.97373
0.973218
0.973548
0.975405
0.9777
0.978821
0.979482
0.979361
0.97924
0.979473
0.980078
0.980609
0.981007
0.981451
0.981663
0.981707
0.981859
0.982167
0.982447
0.982537
0.982243
0.981223
0.979538
0.976765