/*--------------------------------*- C++ -*----------------------------------*\
  =========                 |
  \\      /  F ield         | OpenFOAM: The Open Source CFD Toolbox
   \\    /   O peration     | Website:  https://openfoam.org
    \\  /    A nd           | Version:  7
     \\/     M anipulation  |
\*---------------------------------------------------------------------------*/
FoamFile
{
    version     2.0;
    format      ascii;
    class       volVectorField;
    location    "4";
    object      U;
}
// * * * * * * * * * * * * * * * * * * * * * * * * * * * * * * * * * * * * * //

dimensions      [0 1 -1 0 0 0 0];

internalField   nonuniform List<vector> 
90000
(
(4.84476 -1.62691 0)
(4.79578 -1.51857 0)
(4.74523 -1.24792 0)
(4.7248 -0.976873 0)
(4.7289 -1.01712 0)
(4.71589 -0.90853 0)
(4.70168 -0.724768 0)
(4.70901 -0.611167 0)
(4.72711 -0.595607 0)
(4.72733 -0.499653 0)
(4.73091 -0.418525 0)
(4.74015 -0.357012 0)
(4.74736 -0.279989 0)
(4.7549 -0.230917 0)
(4.76075 -0.177791 0)
(4.76165 -0.0998813 0)
(4.7756 -0.082923 0)
(4.76871 0.0189202 0)
(4.78326 0.0221317 0)
(4.77498 0.113686 0)
(4.78103 0.147266 0)
(4.78441 0.193722 0)
(4.78199 0.257041 0)
(4.78746 0.288145 0)
(4.79278 0.314947 0)
(4.79095 0.378308 0)
(4.80061 0.376068 0)
(4.80558 0.40235 0)
(4.81117 0.425792 0)
(4.82 0.422582 0)
(4.83024 0.415735 0)
(4.83947 0.399817 0)
(4.85002 0.37052 0)
(4.84994 0.347671 0)
(4.84715 0.319598 0)
(4.85949 0.29293 0)
(4.86951 0.262242 0)
(4.85874 0.238375 0)
(4.8519 0.204066 0)
(4.86207 0.177326 0)
(4.85765 0.162938 0)
(4.85068 0.15708 0)
(4.85106 0.159281 0)
(4.85014 0.17044 0)
(4.84717 0.195566 0)
(4.85571 0.203714 0)
(4.85856 0.229523 0)
(4.86368 0.250907 0)
(4.8701 0.251655 0)
(4.87256 0.264122 0)
(4.87665 0.274058 0)
(4.8795 0.276532 0)
(4.88146 0.275331 0)
(4.88358 0.27318 0)
(4.88594 0.281326 0)
(4.88843 0.277107 0)
(4.89193 0.27503 0)
(4.89415 0.281234 0)
(4.89696 0.284815 0)
(4.89957 0.287281 0)
(4.90138 0.287237 0)
(4.90184 0.287946 0)
(4.90204 0.285286 0)
(4.90114 0.279639 0)
(4.90188 0.268209 0)
(4.90298 0.255027 0)
(4.90312 0.247858 0)
(4.90224 0.241163 0)
(4.90223 0.241855 0)
(4.90279 0.24416 0)
(4.90323 0.248811 0)
(4.90443 0.259064 0)
(4.90379 0.266971 0)
(4.90422 0.277341 0)
(4.90435 0.279903 0)
(4.90413 0.279852 0)
(4.90344 0.279556 0)
(4.90424 0.274465 0)
(4.90399 0.270353 0)
(4.90454 0.269232 0)
(4.90505 0.269223 0)
(4.90593 0.271331 0)
(4.90609 0.272215 0)
(4.90465 0.268631 0)
(4.90262 0.261119 0)
(4.90092 0.25006 0)
(4.89932 0.245176 0)
(4.89742 0.22978 0)
(4.89662 0.224993 0)
(4.8946 0.214686 0)
(4.8942 0.206294 0)
(4.89342 0.206117 0)
(4.89218 0.197991 0)
(4.89159 0.191641 0)
(4.88986 0.183135 0)
(4.88717 0.169587 0)
(4.88649 0.165398 0)
(4.88652 0.163458 0)
(4.88617 0.162987 0)
(4.88412 0.154023 0)
(4.92497 -1.85888 0)
(4.92553 -1.85961 0)
(4.92627 -1.86026 0)
(4.92748 -1.85979 0)
(4.92841 -1.86033 0)
(4.92949 -1.86085 0)
(4.93057 -1.86179 0)
(4.93216 -1.86177 0)
(4.93346 -1.86273 0)
(4.93523 -1.86272 0)
(4.93644 -1.86438 0)
(4.93839 -1.86447 0)
(4.94003 -1.86581 0)
(4.94129 -1.86539 0)
(4.94066 -1.85804 0)
(4.93917 -1.82894 0)
(4.93476 -1.79929 0)
(4.92652 -1.73265 0)
(4.91548 -1.68227 0)
(4.90003 -1.5719 0)
(4.88398 -1.49142 0)
(4.86456 -1.3461 0)
(4.84558 -1.23965 0)
(4.82163 -1.05174 0)
(4.80688 -0.953378 0)
(4.77481 -0.719682 0)
(4.7696 -0.647042 0)
(4.73448 -0.412271 0)
(4.73665 -0.358332 0)
(4.70172 -0.146293 0)
(4.70884 -0.0906509 0)
(4.68108 0.0636855 0)
(4.6884 0.141629 0)
(4.69391 0.22356 0)
(4.70306 0.272272 0)
(4.70697 0.337684 0)
(4.7197 0.355978 0)
(4.72378 0.385098 0)
(4.73804 0.413417 0)
(4.7465 0.425822 0)
(4.75449 0.43138 0)
(4.76725 0.427227 0)
(4.78042 0.413699 0)
(4.78789 0.407228 0)
(4.7952 0.395118 0)
(4.79609 0.355045 0)
(4.8043 0.343764 0)
(4.81977 0.33742 0)
(4.81091 0.287983 0)
(4.81676 0.258656 0)
(4.82406 0.258502 0)
(4.82824 0.238593 0)
(4.83329 0.23208 0)
(4.83675 0.237736 0)
(4.84851 0.244762 0)
(4.85645 0.263103 0)
(4.86141 0.283316 0)
(4.86486 0.299323 0)
(4.86755 0.300008 0)
(4.86881 0.296435 0)
(4.86939 0.289481 0)
(4.86965 0.26652 0)
(4.87166 0.25024 0)
(4.87481 0.239715 0)
(4.87884 0.235245 0)
(4.88254 0.24212 0)
(4.89165 0.261122 0)
(4.89245 0.27432 0)
(4.89565 0.286407 0)
(4.89909 0.295574 0)
(4.9006 0.299647 0)
(4.89988 0.301263 0)
(4.89757 0.297474 0)
(4.89573 0.291219 0)
(4.89496 0.27918 0)
(4.89693 0.26985 0)
(4.8995 0.259752 0)
(4.90193 0.263687 0)
(4.903 0.26627 0)
(4.90407 0.272592 0)
(4.90421 0.275444 0)
(4.90452 0.27775 0)
(4.90268 0.270546 0)
(4.90187 0.260518 0)
(4.9009 0.250016 0)
(4.89989 0.241848 0)
(4.89913 0.234773 0)
(4.8974 0.22429 0)
(4.89629 0.21976 0)
(4.89465 0.209102 0)
(4.89367 0.203959 0)
(4.89337 0.201577 0)
(4.89228 0.196158 0)
(4.89037 0.185748 0)
(4.8876 0.175485 0)
(4.88659 0.168129 0)
(4.88637 0.164841 0)
(4.88634 0.164662 0)
(4.88544 0.160826 0)
(4.88265 0.149407 0)
(4.94586 -1.86879 0)
(4.94698 -1.87013 0)
(4.94847 -1.87099 0)
(4.94991 -1.87227 0)
(4.95212 -1.87163 0)
(4.9534 -1.87317 0)
(4.95524 -1.87358 0)
(4.95667 -1.87543 0)
(4.95898 -1.87476 0)
(4.96039 -1.8762 0)
(4.96228 -1.87642 0)
(4.96362 -1.87802 0)
(4.96562 -1.87761 0)
(4.96686 -1.8789 0)
(4.96889 -1.87874 0)
(4.96936 -1.88125 0)
(4.97051 -1.88136 0)
(4.97164 -1.88145 0)
(4.97257 -1.88195 0)
(4.97353 -1.8819 0)
(4.97423 -1.88218 0)
(4.97504 -1.88205 0)
(4.97566 -1.8827 0)
(4.9766 -1.88232 0)
(4.9773 -1.88282 0)
(4.97833 -1.88185 0)
(4.97873 -1.88265 0)
(4.97536 -1.86678 0)
(4.96413 -1.8293 0)
(4.9359 -1.72164 0)
(4.90174 -1.60845 0)
(4.8489 -1.39119 0)
(4.80414 -1.21454 0)
(4.75362 -0.930739 0)
(4.73227 -0.787424 0)
(4.68783 -0.494595 0)
(4.6995 -0.442748 0)
(4.65757 -0.16227 0)
(4.6856 -0.15563 0)
(4.65571 0.0411345 0)
(4.66746 0.0691261 0)
(4.66502 0.154578 0)
(4.66595 0.209266 0)
(4.67495 0.232249 0)
(4.68926 0.223603 0)
(4.68982 0.277825 0)
(4.69452 0.264526 0)
(4.70359 0.263131 0)
(4.71621 0.278262 0)
(4.71945 0.277343 0)
(4.73181 0.261512 0)
(4.73833 0.24437 0)
(4.74134 0.228619 0)
(4.74415 0.210102 0)
(4.75869 0.203379 0)
(4.76308 0.202958 0)
(4.76671 0.20854 0)
(4.77249 0.209918 0)
(4.76966 0.229023 0)
(4.76857 0.246334 0)
(4.77468 0.242386 0)
(4.78776 0.25735 0)
(4.7934 0.259237 0)
(4.81342 0.253049 0)
(4.8229 0.260115 0)
(4.83249 0.265661 0)
(4.84397 0.271307 0)
(4.85126 0.278976 0)
(4.85647 0.278859 0)
(4.86116 0.270258 0)
(4.86663 0.26105 0)
(4.87258 0.241944 0)
(4.87854 0.234837 0)
(4.88386 0.231813 0)
(4.88495 0.241108 0)
(4.8891 0.251445 0)
(4.88971 0.267296 0)
(4.89314 0.275386 0)
(4.89508 0.281361 0)
(4.89591 0.281303 0)
(4.89608 0.277044 0)
(4.897 0.264173 0)
(4.89827 0.247184 0)
(4.89726 0.235796 0)
(4.89703 0.227412 0)
(4.89672 0.223575 0)
(4.89692 0.215673 0)
(4.89511 0.211449 0)
(4.89384 0.204736 0)
(4.89311 0.198569 0)
(4.89241 0.197609 0)
(4.89241 0.193864 0)
(4.8914 0.189635 0)
(4.88872 0.179542 0)
(4.88748 0.169489 0)
(4.88622 0.162982 0)
(4.88661 0.163281 0)
(4.8864 0.162441 0)
(4.88444 0.157514 0)
(4.88197 0.146875 0)
(4.96531 -1.88227 0)
(4.96652 -1.88205 0)
(4.96761 -1.88226 0)
(4.96855 -1.88289 0)
(4.96953 -1.88339 0)
(4.97083 -1.88276 0)
(4.97173 -1.88329 0)
(4.97271 -1.88372 0)
(4.97374 -1.88354 0)
(4.97491 -1.88288 0)
(4.97556 -1.88364 0)
(4.9764 -1.88324 0)
(4.97729 -1.88262 0)
(4.9779 -1.88286 0)
(4.97863 -1.88261 0)
(4.9794 -1.88237 0)
(4.97995 -1.88269 0)
(4.98044 -1.883 0)
(4.98101 -1.88264 0)
(4.98134 -1.8826 0)
(4.9815 -1.88246 0)
(4.98148 -1.8826 0)
(4.98162 -1.88256 0)
(4.9818 -1.88258 0)
(4.98207 -1.88246 0)
(4.98238 -1.8823 0)
(4.9825 -1.88185 0)
(4.98256 -1.88181 0)
(4.9826 -1.88178 0)
(4.98258 -1.88172 0)
(4.98255 -1.88151 0)
(4.98202 -1.8809 0)
(4.98132 -1.88053 0)
(4.98066 -1.88024 0)
(4.97955 -1.88011 0)
(4.97792 -1.87624 0)
(4.96815 -1.84943 0)
(4.93376 -1.72861 0)
(4.89675 -1.60758 0)
(4.83418 -1.32003 0)
(4.79875 -1.16705 0)
(4.73462 -0.804204 0)
(4.72415 -0.704965 0)
(4.65811 -0.348358 0)
(4.67634 -0.296949 0)
(4.61182 -0.00619102 0)
(4.6337 0.0256212 0)
(4.58535 0.236247 0)
(4.60014 0.234902 0)
(4.58087 0.341981 0)
(4.58435 0.358437 0)
(4.59076 0.403547 0)
(4.60716 0.427175 0)
(4.6145 0.421557 0)
(4.62347 0.377956 0)
(4.62798 0.321236 0)
(4.63334 0.267252 0)
(4.65746 0.221362 0)
(4.65232 0.175723 0)
(4.66927 0.157519 0)
(4.68069 0.177246 0)
(4.69838 0.214683 0)
(4.70257 0.265256 0)
(4.71344 0.309423 0)
(4.72487 0.325191 0)
(4.73555 0.325773 0)
(4.74492 0.307271 0)
(4.75547 0.275105 0)
(4.76749 0.254155 0)
(4.77795 0.246962 0)
(4.7942 0.251385 0)
(4.80884 0.272659 0)
(4.82439 0.295288 0)
(4.83869 0.315154 0)
(4.84896 0.323615 0)
(4.85594 0.322698 0)
(4.85901 0.312317 0)
(4.86119 0.293089 0)
(4.86551 0.273517 0)
(4.87115 0.254772 0)
(4.87685 0.244357 0)
(4.88062 0.234178 0)
(4.88377 0.235507 0)
(4.88661 0.232111 0)
(4.88757 0.228236 0)
(4.88793 0.223434 0)
(4.88796 0.216072 0)
(4.88784 0.206901 0)
(4.88847 0.199674 0)
(4.88956 0.195625 0)
(4.88986 0.199219 0)
(4.88898 0.196123 0)
(4.8875 0.179494 0)
(4.88442 0.163622 0)
(4.88575 0.157556 0)
(4.88644 0.161028 0)
(4.88641 0.162457 0)
(4.88496 0.157251 0)
(4.88374 0.149232 0)
(4.88131 0.141075 0)
(4.9799 -1.88117 0)
(4.98029 -1.8814 0)
(4.98078 -1.88101 0)
(4.9812 -1.88089 0)
(4.98151 -1.8811 0)
(4.98186 -1.88096 0)
(4.98212 -1.88098 0)
(4.98239 -1.88106 0)
(4.9826 -1.8808 0)
(4.98277 -1.88068 0)
(4.98283 -1.88068 0)
(4.98284 -1.88048 0)
(4.9829 -1.88024 0)
(4.98287 -1.88026 0)
(4.98287 -1.88031 0)
(4.98296 -1.88034 0)
(4.98289 -1.88054 0)
(4.98258 -1.88081 0)
(4.98235 -1.88079 0)
(4.98225 -1.88067 0)
(4.98232 -1.88076 0)
(4.982 -1.88114 0)
(4.98175 -1.8812 0)
(4.98157 -1.88122 0)
(4.9812 -1.88119 0)
(4.9816 -1.88122 0)
(4.98199 -1.88133 0)
(4.982 -1.88131 0)
(4.98177 -1.88123 0)
(4.98136 -1.88094 0)
(4.98087 -1.88053 0)
(4.97985 -1.88001 0)
(4.97888 -1.87929 0)
(4.97793 -1.87858 0)
(4.97651 -1.8778 0)
(4.97477 -1.87766 0)
(4.9732 -1.878 0)
(4.9715 -1.87867 0)
(4.96987 -1.87858 0)
(4.96803 -1.87869 0)
(4.96649 -1.87767 0)
(4.96512 -1.87774 0)
(4.96378 -1.87685 0)
(4.95083 -1.83188 0)
(4.92592 -1.75355 0)
(4.86344 -1.49324 0)
(4.82168 -1.31748 0)
(4.74543 -0.907673 0)
(4.73256 -0.78082 0)
(4.6462 -0.354421 0)
(4.66445 -0.293942 0)
(4.59609 0.02698 0)
(4.61625 0.0240207 0)
(4.59317 0.195164 0)
(4.60642 0.173778 0)
(4.58593 0.222626 0)
(4.60607 0.232063 0)
(4.60969 0.231957 0)
(4.6169 0.23641 0)
(4.625 0.238844 0)
(4.62846 0.229552 0)
(4.63014 0.226981 0)
(4.63118 0.234128 0)
(4.6305 0.231862 0)
(4.62883 0.241442 0)
(4.63138 0.252007 0)
(4.63366 0.25621 0)
(4.65653 0.252269 0)
(4.66727 0.241084 0)
(4.67837 0.235221 0)
(4.7084 0.234929 0)
(4.71888 0.233301 0)
(4.73443 0.241597 0)
(4.74926 0.250569 0)
(4.76215 0.254957 0)
(4.77476 0.246844 0)
(4.7875 0.238366 0)
(4.79965 0.227357 0)
(4.81152 0.228582 0)
(4.82257 0.23188 0)
(4.83238 0.240148 0)
(4.84021 0.24266 0)
(4.84656 0.241305 0)
(4.85188 0.232135 0)
(4.85646 0.220178 0)
(4.86134 0.204046 0)
(4.86629 0.196113 0)
(4.87037 0.189497 0)
(4.87413 0.194482 0)
(4.87676 0.197799 0)
(4.87802 0.191257 0)
(4.87886 0.175865 0)
(4.87626 0.146445 0)
(4.87977 0.154512 0)
(4.88131 0.167706 0)
(4.88193 0.170204 0)
(4.88046 0.165286 0)
(4.87941 0.141671 0)
(4.88072 0.131239 0)
(4.87946 0.137631 0)
(4.98425 -1.88139 0)
(4.98433 -1.88128 0)
(4.98435 -1.88124 0)
(4.98446 -1.88105 0)
(4.98449 -1.8809 0)
(4.98446 -1.88088 0)
(4.98441 -1.88087 0)
(4.98436 -1.88083 0)
(4.98434 -1.88072 0)
(4.98432 -1.88055 0)
(4.98402 -1.88048 0)
(4.98371 -1.88037 0)
(4.98348 -1.88018 0)
(4.98318 -1.88021 0)
(4.98295 -1.88031 0)
(4.98266 -1.88037 0)
(4.98195 -1.88036 0)
(4.98148 -1.8804 0)
(4.98086 -1.88039 0)
(4.98061 -1.88067 0)
(4.9806 -1.88083 0)
(4.98044 -1.88117 0)
(4.98002 -1.88118 0)
(4.97974 -1.88128 0)
(4.97936 -1.88151 0)
(4.97849 -1.88171 0)
(4.97719 -1.88138 0)
(4.97615 -1.88075 0)
(4.97503 -1.88031 0)
(4.97424 -1.8797 0)
(4.97331 -1.87887 0)
(4.97226 -1.87786 0)
(4.97149 -1.87716 0)
(4.97048 -1.87655 0)
(4.96941 -1.8763 0)
(4.9681 -1.87618 0)
(4.96698 -1.8762 0)
(4.96617 -1.87588 0)
(4.96526 -1.87556 0)
(4.96457 -1.87507 0)
(4.96394 -1.87433 0)
(4.96284 -1.87403 0)
(4.96218 -1.87366 0)
(4.96152 -1.87351 0)
(4.96088 -1.87321 0)
(4.9603 -1.87351 0)
(4.96005 -1.87443 0)
(4.96011 -1.8747 0)
(4.96013 -1.87486 0)
(4.94268 -1.81354 0)
(4.91106 -1.68894 0)
(4.82705 -1.31773 0)
(4.77653 -1.05591 0)
(4.66651 -0.528935 0)
(4.68206 -0.375841 0)
(4.58485 0.0409411 0)
(4.60965 0.117913 0)
(4.55474 0.308401 0)
(4.54594 0.346405 0)
(4.54737 0.386173 0)
(4.54687 0.370836 0)
(4.55766 0.324203 0)
(4.57616 0.270917 0)
(4.57696 0.228281 0)
(4.58055 0.199671 0)
(4.58303 0.200788 0)
(4.58783 0.203001 0)
(4.59568 0.258027 0)
(4.59081 0.293777 0)
(4.60416 0.329206 0)
(4.61 0.327697 0)
(4.62254 0.32425 0)
(4.62698 0.288516 0)
(4.63752 0.25999 0)
(4.64965 0.24694 0)
(4.66285 0.249086 0)
(4.6787 0.265252 0)
(4.69852 0.276971 0)
(4.71825 0.274371 0)
(4.73436 0.262884 0)
(4.74864 0.247717 0)
(4.75978 0.237889 0)
(4.77088 0.228481 0)
(4.78112 0.207236 0)
(4.79228 0.191774 0)
(4.8055 0.186216 0)
(4.81691 0.198385 0)
(4.82691 0.206382 0)
(4.83479 0.205234 0)
(4.84021 0.185852 0)
(4.84441 0.176703 0)
(4.85251 0.146924 0)
(4.85175 0.174695 0)
(4.85902 0.186259 0)
(4.86278 0.180063 0)
(4.86482 0.167412 0)
(4.86715 0.133391 0)
(4.86868 0.134861 0)
(4.8707 0.149221 0)
(4.87087 0.145378 0)
(4.98497 -1.88036 0)
(4.98491 -1.88029 0)
(4.98471 -1.88016 0)
(4.98445 -1.88007 0)
(4.98408 -1.88002 0)
(4.98373 -1.87995 0)
(4.98352 -1.87975 0)
(4.98325 -1.87951 0)
(4.98273 -1.87926 0)
(4.98191 -1.87901 0)
(4.9817 -1.879 0)
(4.98139 -1.87905 0)
(4.9804 -1.87904 0)
(4.97975 -1.87884 0)
(4.97916 -1.87874 0)
(4.97811 -1.87903 0)
(4.97709 -1.87886 0)
(4.97642 -1.87896 0)
(4.97578 -1.87904 0)
(4.975 -1.87923 0)
(4.97478 -1.8795 0)
(4.97391 -1.87962 0)
(4.97303 -1.87977 0)
(4.97209 -1.87979 0)
(4.97141 -1.87988 0)
(4.97106 -1.8798 0)
(4.97066 -1.87924 0)
(4.96968 -1.87832 0)
(4.96893 -1.87781 0)
(4.96859 -1.87766 0)
(4.96789 -1.87711 0)
(4.96729 -1.8765 0)
(4.96677 -1.87619 0)
(4.966 -1.87592 0)
(4.96529 -1.87575 0)
(4.96445 -1.8758 0)
(4.96362 -1.87577 0)
(4.96307 -1.87551 0)
(4.96251 -1.87487 0)
(4.96216 -1.87451 0)
(4.96205 -1.87442 0)
(4.96096 -1.87374 0)
(4.96037 -1.87348 0)
(4.95997 -1.87328 0)
(4.95948 -1.87308 0)
(4.95927 -1.87368 0)
(4.9592 -1.87434 0)
(4.95912 -1.8747 0)
(4.95902 -1.87506 0)
(4.95802 -1.87461 0)
(4.95739 -1.87402 0)
(4.95702 -1.87385 0)
(4.95676 -1.87395 0)
(4.95585 -1.87312 0)
(4.9355 -1.80017 0)
(4.85675 -1.4822 0)
(4.7959 -1.15081 0)
(4.70885 -0.660095 0)
(4.69144 -0.432613 0)
(4.62328 -0.0834507 0)
(4.61023 0.0089121 0)
(4.5831 0.113567 0)
(4.57301 0.170948 0)
(4.57367 0.187656 0)
(4.57613 0.185056 0)
(4.57527 0.196881 0)
(4.56112 0.206742 0)
(4.55037 0.248073 0)
(4.55025 0.260968 0)
(4.549 0.269322 0)
(4.54624 0.273716 0)
(4.55202 0.251037 0)
(4.55784 0.260402 0)
(4.56974 0.226091 0)
(4.5794 0.21428 0)
(4.58739 0.214406 0)
(4.59796 0.221018 0)
(4.60933 0.230269 0)
(4.62 0.23796 0)
(4.63096 0.225454 0)
(4.64415 0.212318 0)
(4.65884 0.185123 0)
(4.67066 0.189291 0)
(4.6818 0.203475 0)
(4.69609 0.216909 0)
(4.715 0.217675 0)
(4.73272 0.203257 0)
(4.74689 0.191024 0)
(4.75835 0.184906 0)
(4.76852 0.174866 0)
(4.77814 0.152993 0)
(4.79141 0.157065 0)
(4.80106 0.16168 0)
(4.81147 0.154599 0)
(4.82049 0.149289 0)
(4.82843 0.133256 0)
(4.83406 0.149283 0)
(4.84012 0.164632 0)
(4.84285 0.148621 0)
(4.84885 0.122502 0)
(4.98039 -1.87994 0)
(4.98008 -1.87991 0)
(4.97999 -1.87987 0)
(4.97949 -1.87955 0)
(4.97913 -1.87932 0)
(4.97885 -1.87907 0)
(4.97852 -1.87896 0)
(4.97814 -1.87879 0)
(4.97756 -1.87853 0)
(4.97652 -1.87842 0)
(4.97567 -1.87869 0)
(4.97549 -1.87869 0)
(4.97514 -1.87841 0)
(4.97445 -1.87807 0)
(4.97327 -1.8783 0)
(4.97176 -1.87837 0)
(4.97136 -1.87828 0)
(4.97081 -1.87856 0)
(4.97026 -1.87927 0)
(4.96969 -1.87931 0)
(4.96865 -1.87868 0)
(4.9674 -1.87862 0)
(4.96655 -1.87944 0)
(4.96595 -1.87986 0)
(4.96556 -1.87979 0)
(4.96565 -1.87906 0)
(4.9657 -1.87782 0)
(4.96498 -1.87667 0)
(4.96482 -1.87653 0)
(4.96404 -1.87617 0)
(4.96355 -1.87594 0)
(4.96333 -1.87564 0)
(4.96295 -1.87529 0)
(4.96238 -1.87505 0)
(4.96226 -1.87503 0)
(4.96227 -1.87521 0)
(4.96174 -1.87527 0)
(4.96156 -1.87518 0)
(4.96118 -1.87468 0)
(4.96101 -1.87432 0)
(4.96062 -1.87401 0)
(4.95922 -1.87297 0)
(4.95875 -1.87261 0)
(4.95843 -1.8723 0)
(4.95826 -1.87252 0)
(4.95851 -1.87357 0)
(4.95842 -1.87388 0)
(4.95823 -1.87468 0)
(4.95832 -1.87548 0)
(4.95718 -1.87516 0)
(4.95697 -1.87518 0)
(4.95634 -1.87568 0)
(4.95536 -1.87594 0)
(4.95398 -1.8789 0)
(4.95281 -1.88311 0)
(4.95106 -1.89241 0)
(4.94955 -1.90043 0)
(4.94916 -1.90682 0)
(4.93043 -1.82567 0)
(4.84823 -1.44068 0)
(4.78864 -1.06858 0)
(4.64543 -0.368513 0)
(4.7007 -0.243608 0)
(4.5811 0.16015 0)
(4.59277 0.220451 0)
(4.54087 0.346244 0)
(4.52966 0.364044 0)
(4.51839 0.347818 0)
(4.52593 0.288322 0)
(4.53725 0.245708 0)
(4.53946 0.241946 0)
(4.54216 0.234317 0)
(4.5462 0.231528 0)
(4.54769 0.238587 0)
(4.54629 0.253311 0)
(4.55448 0.241187 0)
(4.55492 0.233812 0)
(4.55541 0.219734 0)
(4.55501 0.21761 0)
(4.55713 0.217649 0)
(4.55983 0.222759 0)
(4.57472 0.213871 0)
(4.58106 0.185222 0)
(4.59517 0.166874 0)
(4.60736 0.175943 0)
(4.61992 0.190464 0)
(4.63516 0.202154 0)
(4.64639 0.176671 0)
(4.65907 0.155575 0)
(4.66973 0.15906 0)
(4.68274 0.180204 0)
(4.69924 0.178036 0)
(4.71605 0.165263 0)
(4.73085 0.160248 0)
(4.74383 0.165442 0)
(4.75733 0.159377 0)
(4.76811 0.134957 0)
(4.78051 0.127586 0)
(4.78935 0.125449 0)
(4.80219 0.127309 0)
(4.97377 -1.879 0)
(4.97344 -1.87885 0)
(4.97322 -1.8788 0)
(4.97297 -1.87876 0)
(4.97289 -1.87852 0)
(4.97273 -1.8784 0)
(4.97241 -1.87841 0)
(4.97225 -1.87798 0)
(4.97182 -1.87732 0)
(4.97097 -1.87698 0)
(4.97014 -1.87712 0)
(4.97008 -1.87707 0)
(4.97028 -1.87644 0)
(4.96936 -1.87684 0)
(4.9664 -1.87782 0)
(4.966 -1.87788 0)
(4.96559 -1.87782 0)
(4.96496 -1.8778 0)
(4.96443 -1.87778 0)
(4.96407 -1.87741 0)
(4.9637 -1.87699 0)
(4.96349 -1.87706 0)
(4.96267 -1.87754 0)
(4.96205 -1.87805 0)
(4.96133 -1.87843 0)
(4.96208 -1.87706 0)
(4.96257 -1.87586 0)
(4.96284 -1.87564 0)
(4.96273 -1.87558 0)
(4.96151 -1.87528 0)
(4.96117 -1.87521 0)
(4.9607 -1.87498 0)
(4.96033 -1.8746 0)
(4.9606 -1.87455 0)
(4.9607 -1.87463 0)
(4.9605 -1.8748 0)
(4.95912 -1.87441 0)
(4.95869 -1.8742 0)
(4.9583 -1.87375 0)
(4.95798 -1.87296 0)
(4.95786 -1.8727 0)
(4.95785 -1.87231 0)
(4.95773 -1.87183 0)
(4.95738 -1.87125 0)
(4.95671 -1.87204 0)
(4.95694 -1.87367 0)
(4.95714 -1.87456 0)
(4.95735 -1.8757 0)
(4.95756 -1.87649 0)
(4.95538 -1.87829 0)
(4.9544 -1.8812 0)
(4.95291 -1.88599 0)
(4.95065 -1.892 0)
(4.94968 -1.8936 0)
(4.94871 -1.89584 0)
(4.94843 -1.89672 0)
(4.94795 -1.89791 0)
(4.94929 -1.89383 0)
(4.94748 -1.89556 0)
(4.94726 -1.90378 0)
(4.94578 -1.90828 0)
(4.93663 -1.87535 0)
(4.90665 -1.69332 0)
(4.80465 -1.14777 0)
(4.78824 -0.854068 0)
(4.67586 -0.294371 0)
(4.70901 -0.191686 0)
(4.63361 0.0776929 0)
(4.6179 0.104818 0)
(4.5912 0.174484 0)
(4.58262 0.174549 0)
(4.55543 0.20833 0)
(4.54183 0.224424 0)
(4.53133 0.244687 0)
(4.529 0.246335 0)
(4.52837 0.239703 0)
(4.53026 0.223983 0)
(4.53205 0.207856 0)
(4.53422 0.193848 0)
(4.53566 0.189224 0)
(4.5379 0.182328 0)
(4.53894 0.191416 0)
(4.54388 0.207357 0)
(4.54976 0.20344 0)
(4.55661 0.183428 0)
(4.56078 0.175658 0)
(4.56405 0.17804 0)
(4.56829 0.181708 0)
(4.5754 0.170664 0)
(4.58719 0.134423 0)
(4.59997 0.136108 0)
(4.61247 0.148478 0)
(4.62641 0.159895 0)
(4.6385 0.147849 0)
(4.65277 0.132313 0)
(4.66325 0.142956 0)
(4.6788 0.150045 0)
(4.69453 0.141094 0)
(4.70675 0.135694 0)
(4.72561 0.125073 0)
(4.96868 -1.87906 0)
(4.96857 -1.87913 0)
(4.96825 -1.87937 0)
(4.96767 -1.87953 0)
(4.96831 -1.87876 0)
(4.96811 -1.878 0)
(4.96763 -1.87705 0)
(4.9675 -1.87667 0)
(4.96708 -1.87638 0)
(4.96686 -1.87582 0)
(4.96714 -1.87498 0)
(4.96737 -1.87473 0)
(4.96592 -1.87474 0)
(4.96484 -1.8746 0)
(4.96404 -1.87479 0)
(4.96326 -1.87464 0)
(4.96274 -1.87442 0)
(4.96261 -1.87456 0)
(4.96206 -1.87509 0)
(4.96198 -1.87512 0)
(4.96208 -1.87495 0)
(4.96153 -1.87512 0)
(4.96054 -1.87594 0)
(4.9599 -1.8764 0)
(4.95982 -1.87629 0)
(4.96025 -1.87566 0)
(4.96024 -1.87535 0)
(4.96019 -1.87498 0)
(4.95956 -1.87486 0)
(4.95879 -1.87497 0)
(4.95857 -1.8751 0)
(4.95865 -1.8749 0)
(4.95896 -1.87446 0)
(4.95894 -1.87444 0)
(4.9589 -1.87457 0)
(4.95844 -1.87451 0)
(4.95771 -1.87401 0)
(4.95766 -1.87391 0)
(4.95749 -1.87355 0)
(4.95751 -1.87283 0)
(4.95719 -1.87208 0)
(4.95631 -1.8722 0)
(4.95541 -1.87251 0)
(4.95513 -1.87072 0)
(4.95393 -1.87227 0)
(4.95423 -1.87899 0)
(4.95497 -1.88493 0)
(4.95287 -1.88924 0)
(4.95121 -1.89079 0)
(4.94998 -1.89326 0)
(4.94922 -1.89479 0)
(4.94862 -1.89631 0)
(4.94787 -1.89839 0)
(4.94731 -1.89944 0)
(4.94733 -1.89932 0)
(4.9472 -1.8996 0)
(4.94677 -1.90043 0)
(4.94718 -1.89896 0)
(4.94745 -1.89876 0)
(4.94713 -1.90092 0)
(4.94586 -1.90309 0)
(4.9455 -1.90307 0)
(4.94686 -1.90167 0)
(4.94734 -1.90053 0)
(4.94771 -1.89838 0)
(4.91667 -1.73254 0)
(4.88708 -1.42615 0)
(4.76216 -0.639171 0)
(4.80795 -0.505615 0)
(4.64523 0.0484101 0)
(4.67571 0.0788181 0)
(4.58732 0.278578 0)
(4.54411 0.299459 0)
(4.53651 0.28989 0)
(4.54555 0.245272 0)
(4.55479 0.229977 0)
(4.55211 0.204916 0)
(4.54925 0.176225 0)
(4.54636 0.164222 0)
(4.54416 0.160306 0)
(4.54557 0.158268 0)
(4.54124 0.172042 0)
(4.54038 0.184392 0)
(4.54121 0.190908 0)
(4.54119 0.187237 0)
(4.54044 0.171712 0)
(4.54012 0.15951 0)
(4.54361 0.150168 0)
(4.54053 0.16049 0)
(4.55386 0.168261 0)
(4.55838 0.160478 0)
(4.56432 0.151233 0)
(4.56966 0.148576 0)
(4.57427 0.150355 0)
(4.58242 0.145834 0)
(4.59354 0.114997 0)
(4.60388 0.121255 0)
(4.6142 0.132034 0)
(4.62315 0.123282 0)
(4.64151 0.112699 0)
(4.96512 -1.87699 0)
(4.96482 -1.87692 0)
(4.96463 -1.87683 0)
(4.96456 -1.87614 0)
(4.96447 -1.87546 0)
(4.96436 -1.87536 0)
(4.96423 -1.87556 0)
(4.9642 -1.87559 0)
(4.96342 -1.87439 0)
(4.963 -1.8741 0)
(4.96273 -1.87403 0)
(4.96267 -1.87309 0)
(4.96309 -1.87207 0)
(4.96321 -1.87197 0)
(4.96281 -1.87182 0)
(4.96204 -1.87129 0)
(4.96184 -1.87103 0)
(4.96155 -1.87118 0)
(4.95974 -1.87253 0)
(4.95879 -1.87287 0)
(4.95845 -1.87289 0)
(4.95819 -1.87303 0)
(4.95806 -1.87367 0)
(4.9579 -1.87407 0)
(4.95772 -1.87428 0)
(4.95751 -1.87462 0)
(4.95722 -1.87478 0)
(4.95721 -1.87465 0)
(4.9573 -1.87469 0)
(4.95718 -1.87513 0)
(4.957 -1.87544 0)
(4.95702 -1.87535 0)
(4.95799 -1.87476 0)
(4.95812 -1.87467 0)
(4.9583 -1.87465 0)
(4.95771 -1.8751 0)
(4.95684 -1.87532 0)
(4.95634 -1.87514 0)
(4.95567 -1.87712 0)
(4.95392 -1.87969 0)
(4.95342 -1.87856 0)
(4.95275 -1.87824 0)
(4.95182 -1.88118 0)
(4.95227 -1.88207 0)
(4.95283 -1.88276 0)
(4.9527 -1.88751 0)
(4.95232 -1.89393 0)
(4.94998 -1.89584 0)
(4.94922 -1.89567 0)
(4.94776 -1.8959 0)
(4.94691 -1.89776 0)
(4.94676 -1.8986 0)
(4.94609 -1.90095 0)
(4.94529 -1.90322 0)
(4.94536 -1.90555 0)
(4.94543 -1.90639 0)
(4.94481 -1.9071 0)
(4.94576 -1.90449 0)
(4.94733 -1.89917 0)
(4.94695 -1.90078 0)
(4.94585 -1.90227 0)
(4.94611 -1.90171 0)
(4.94712 -1.90026 0)
(4.9475 -1.89715 0)
(4.94776 -1.88748 0)
(4.95038 -1.87394 0)
(4.95282 -1.86425 0)
(4.95626 -1.87041 0)
(4.95414 -1.77174 0)
(4.87375 -1.32103 0)
(4.86037 -0.989542 0)
(4.74786 -0.376612 0)
(4.80565 -0.270202 0)
(4.67406 0.0712357 0)
(4.64984 0.110194 0)
(4.61725 0.197016 0)
(4.60397 0.198658 0)
(4.5845 0.213068 0)
(4.58344 0.211977 0)
(4.57368 0.192332 0)
(4.5657 0.184607 0)
(4.56453 0.192872 0)
(4.56042 0.196927 0)
(4.55346 0.188368 0)
(4.54881 0.172962 0)
(4.54966 0.155226 0)
(4.54387 0.135379 0)
(4.55023 0.131992 0)
(4.54777 0.140993 0)
(4.54821 0.151589 0)
(4.55044 0.155899 0)
(4.55116 0.149654 0)
(4.55176 0.143759 0)
(4.55588 0.133839 0)
(4.55393 0.139945 0)
(4.56869 0.147138 0)
(4.56837 0.12681 0)
(4.57178 0.115984 0)
(4.57421 0.117701 0)
(4.58474 0.117515 0)
(4.96162 -1.87477 0)
(4.96143 -1.8748 0)
(4.96129 -1.87491 0)
(4.96115 -1.8746 0)
(4.96105 -1.87407 0)
(4.96099 -1.87359 0)
(4.96081 -1.8731 0)
(4.96026 -1.87322 0)
(4.96001 -1.87344 0)
(4.95973 -1.87356 0)
(4.95987 -1.87288 0)
(4.96023 -1.872 0)
(4.96024 -1.87181 0)
(4.96008 -1.87201 0)
(4.95969 -1.87122 0)
(4.9595 -1.8698 0)
(4.95977 -1.86906 0)
(4.9597 -1.86938 0)
(4.95748 -1.87154 0)
(4.95699 -1.87215 0)
(4.9567 -1.87211 0)
(4.95651 -1.87243 0)
(4.95686 -1.87348 0)
(4.95697 -1.87368 0)
(4.95696 -1.87401 0)
(4.95683 -1.87477 0)
(4.95673 -1.8751 0)
(4.9565 -1.87559 0)
(4.95611 -1.87553 0)
(4.95576 -1.8762 0)
(4.95595 -1.87844 0)
(4.9558 -1.87992 0)
(4.95578 -1.88035 0)
(4.95633 -1.88316 0)
(4.95586 -1.88586 0)
(4.95456 -1.88774 0)
(4.95291 -1.88929 0)
(4.95236 -1.88848 0)
(4.95151 -1.8901 0)
(4.94998 -1.89302 0)
(4.94967 -1.89256 0)
(4.94974 -1.89149 0)
(4.94984 -1.89163 0)
(4.95015 -1.8934 0)
(4.95048 -1.8964 0)
(4.9498 -1.89947 0)
(4.94929 -1.90014 0)
(4.9488 -1.89932 0)
(4.94754 -1.898 0)
(4.94493 -1.90001 0)
(4.94452 -1.90444 0)
(4.94466 -1.90528 0)
(4.9443 -1.90689 0)
(4.94446 -1.90777 0)
(4.94555 -1.9075 0)
(4.94545 -1.90651 0)
(4.94426 -1.90657 0)
(4.94495 -1.90355 0)
(4.94692 -1.89859 0)
(4.94718 -1.8986 0)
(4.94821 -1.89595 0)
(4.94922 -1.8869 0)
(4.95102 -1.87241 0)
(4.95302 -1.85659 0)
(4.95255 -1.85986 0)
(4.96244 -1.83588 0)
(4.96419 -1.83987 0)
(4.9728 -1.82112 0)
(4.97156 -1.82654 0)
(4.97633 -1.82273 0)
(4.9796 -1.81017 0)
(4.95935 -1.69378 0)
(4.95229 -1.41136 0)
(4.83882 -0.665038 0)
(4.8456 -0.510561 0)
(4.70663 -0.0465817 0)
(4.72268 0.0365373 0)
(4.64403 0.166998 0)
(4.62521 0.222162 0)
(4.60753 0.207641 0)
(4.61558 0.186252 0)
(4.61783 0.175575 0)
(4.60036 0.153843 0)
(4.59253 0.134895 0)
(4.58586 0.132187 0)
(4.57839 0.140485 0)
(4.5758 0.148042 0)
(4.57314 0.160756 0)
(4.56628 0.162133 0)
(4.56342 0.161137 0)
(4.55994 0.154626 0)
(4.55766 0.139574 0)
(4.5554 0.124198 0)
(4.56214 0.1155 0)
(4.55888 0.126815 0)
(4.56108 0.133545 0)
(4.56126 0.127544 0)
(4.56103 0.114519 0)
(4.56271 0.108762 0)
(4.56743 0.109823 0)
(4.95793 -1.87297 0)
(4.95784 -1.87352 0)
(4.95808 -1.87367 0)
(4.95801 -1.87344 0)
(4.9579 -1.87315 0)
(4.9579 -1.87287 0)
(4.9578 -1.87265 0)
(4.9576 -1.87246 0)
(4.95754 -1.87236 0)
(4.95753 -1.87237 0)
(4.95748 -1.87255 0)
(4.95739 -1.87299 0)
(4.9573 -1.87337 0)
(4.9571 -1.87336 0)
(4.95682 -1.87296 0)
(4.9572 -1.87185 0)
(4.9579 -1.87124 0)
(4.95599 -1.87314 0)
(4.95528 -1.87421 0)
(4.95492 -1.87393 0)
(4.95463 -1.8748 0)
(4.95419 -1.87799 0)
(4.95422 -1.87954 0)
(4.95479 -1.87894 0)
(4.9548 -1.87963 0)
(4.95464 -1.88342 0)
(4.95414 -1.88669 0)
(4.95403 -1.88757 0)
(4.95389 -1.88704 0)
(4.95339 -1.88828 0)
(4.95268 -1.89209 0)
(4.95194 -1.89536 0)
(4.95273 -1.89511 0)
(4.95309 -1.89472 0)
(4.95243 -1.8956 0)
(4.95132 -1.89634 0)
(4.94979 -1.89801 0)
(4.94967 -1.89686 0)
(4.94934 -1.89838 0)
(4.9484 -1.89868 0)
(4.94836 -1.89844 0)
(4.94825 -1.89858 0)
(4.94844 -1.89862 0)
(4.9489 -1.89929 0)
(4.94919 -1.90225 0)
(4.94874 -1.90371 0)
(4.94806 -1.90421 0)
(4.94721 -1.90288 0)
(4.9446 -1.9039 0)
(4.94419 -1.90579 0)
(4.94443 -1.90563 0)
(4.94462 -1.9051 0)
(4.94368 -1.90628 0)
(4.94548 -1.90465 0)
(4.94567 -1.9042 0)
(4.94561 -1.90397 0)
(4.94513 -1.90352 0)
(4.9457 -1.90057 0)
(4.94692 -1.88501 0)
(4.95418 -1.86909 0)
(4.96037 -1.85264 0)
(4.96152 -1.84347 0)
(4.96339 -1.83161 0)
(4.96265 -1.83472 0)
(4.96857 -1.8288 0)
(4.97131 -1.82705 0)
(4.9771 -1.81055 0)
(4.97699 -1.80826 0)
(4.97778 -1.80573 0)
(4.98673 -1.76825 0)
(4.98497 -1.7519 0)
(4.97477 -1.76494 0)
(4.97599 -1.74473 0)
(4.98009 -1.75142 0)
(4.98274 -1.65693 0)
(4.90429 -1.19828 0)
(4.88956 -0.825517 0)
(4.78242 -0.27764 0)
(4.75725 -0.125151 0)
(4.70891 0.0756014 0)
(4.68859 0.162965 0)
(4.65858 0.206998 0)
(4.64822 0.201223 0)
(4.65392 0.207159 0)
(4.64149 0.178212 0)
(4.63233 0.148534 0)
(4.6258 0.151545 0)
(4.61994 0.143485 0)
(4.61058 0.126341 0)
(4.60632 0.125114 0)
(4.59738 0.126736 0)
(4.59044 0.127105 0)
(4.58521 0.13214 0)
(4.58023 0.143672 0)
(4.57722 0.138499 0)
(4.57225 0.129259 0)
(4.57117 0.115402 0)
(4.56877 0.095725 0)
(4.56964 0.0957485 0)
(4.57068 0.0992431 0)
(4.95323 -1.88803 0)
(4.95314 -1.8882 0)
(4.95278 -1.88889 0)
(4.95255 -1.88861 0)
(4.95219 -1.88917 0)
(4.95186 -1.88997 0)
(4.95162 -1.89062 0)
(4.95119 -1.8918 0)
(4.9515 -1.89118 0)
(4.95157 -1.89119 0)
(4.95114 -1.89326 0)
(4.95153 -1.89336 0)
(4.95175 -1.89398 0)
(4.95124 -1.8955 0)
(4.95064 -1.89569 0)
(4.94994 -1.89621 0)
(4.94937 -1.89629 0)
(4.94942 -1.89482 0)
(4.94897 -1.89462 0)
(4.94976 -1.89206 0)
(4.95025 -1.89151 0)
(4.95012 -1.89418 0)
(4.95069 -1.89473 0)
(4.95118 -1.89511 0)
(4.95142 -1.89625 0)
(4.9519 -1.89672 0)
(4.95199 -1.8978 0)
(4.95173 -1.89839 0)
(4.95162 -1.89839 0)
(4.94999 -1.89923 0)
(4.94924 -1.89999 0)
(4.94886 -1.9004 0)
(4.94942 -1.8998 0)
(4.94967 -1.89937 0)
(4.95003 -1.89884 0)
(4.94954 -1.89917 0)
(4.94769 -1.90102 0)
(4.94711 -1.90247 0)
(4.94717 -1.90285 0)
(4.94687 -1.90362 0)
(4.94523 -1.9057 0)
(4.94365 -1.90897 0)
(4.94367 -1.91036 0)
(4.94407 -1.91071 0)
(4.9447 -1.91121 0)
(4.94424 -1.91148 0)
(4.94371 -1.91086 0)
(4.94261 -1.90825 0)
(4.94271 -1.90596 0)
(4.94482 -1.90322 0)
(4.94491 -1.90219 0)
(4.94496 -1.90133 0)
(4.94446 -1.90149 0)
(4.94739 -1.89906 0)
(4.94884 -1.89319 0)
(4.95088 -1.87907 0)
(4.95252 -1.85969 0)
(4.95494 -1.84124 0)
(4.95869 -1.83049 0)
(4.9637 -1.82435 0)
(4.96659 -1.8211 0)
(4.96859 -1.81853 0)
(4.96942 -1.82147 0)
(4.97522 -1.81163 0)
(4.97879 -1.81153 0)
(4.97996 -1.80504 0)
(4.98419 -1.79464 0)
(4.98157 -1.77042 0)
(4.98178 -1.74548 0)
(4.98241 -1.72857 0)
(4.97586 -1.74766 0)
(4.97819 -1.75464 0)
(4.98496 -1.74991 0)
(4.99757 -1.71065 0)
(4.99941 -1.70567 0)
(5.00177 -1.70346 0)
(5.00196 -1.70131 0)
(4.9712 -1.51605 0)
(4.91782 -1.08124 0)
(4.86166 -0.5444 0)
(4.88405 -0.39332 0)
(4.74017 -0.0370217 0)
(4.74502 0.065733 0)
(4.71467 0.190329 0)
(4.68933 0.180895 0)
(4.69022 0.1963 0)
(4.68374 0.197973 0)
(4.68248 0.146722 0)
(4.67192 0.122921 0)
(4.66435 0.138963 0)
(4.65571 0.145176 0)
(4.64313 0.146157 0)
(4.63501 0.140574 0)
(4.62718 0.12187 0)
(4.62167 0.100739 0)
(4.61077 0.0943672 0)
(4.60484 0.105223 0)
(4.59932 0.118641 0)
(4.59315 0.121755 0)
(4.58872 0.117648 0)
(4.95137 -1.88893 0)
(4.95142 -1.88844 0)
(4.95118 -1.8895 0)
(4.95127 -1.88901 0)
(4.95089 -1.88993 0)
(4.95054 -1.89052 0)
(4.9503 -1.89073 0)