/*--------------------------------*- C++ -*----------------------------------*\
  =========                 |
  \\      /  F ield         | OpenFOAM: The Open Source CFD Toolbox
   \\    /   O peration     | Website:  https://openfoam.org
    \\  /    A nd           | Version:  7
     \\/     M anipulation  |
\*---------------------------------------------------------------------------*/
FoamFile
{
    version     2.0;
    format      ascii;
    class       volScalarField;
    location    "8.5";
    object      rho;
}
// * * * * * * * * * * * * * * * * * * * * * * * * * * * * * * * * * * * * * //

dimensions      [1 -3 0 0 0 0 0];

internalField   nonuniform List<scalar> 
90000
(
1.11868
1.12278
1.1278
1.13291
1.13847
1.14389
1.14964
1.15514
1.16092
1.16636
1.17202
1.17729
1.18275
1.18781
1.19318
1.19823
1.2043
1.21141
1.22034
1.23035
1.24195
1.25362
1.26616
1.27762
1.28975
1.30021
1.31126
1.32029
1.32951
1.33696
1.34385
1.34893
1.35381
1.35656
1.35817
1.35833
1.35879
1.35885
1.35826
1.35515
1.34543
1.33447
1.3267
1.32163
1.32033
1.32179
1.32471
1.32792
1.33281
1.33411
1.33552
1.33844
1.33978
1.33949
1.33799
1.33578
1.3327
1.33104
1.32965
1.32969
1.33048
1.33099
1.33289
1.33564
1.33793
1.33966
1.33931
1.33711
1.33486
1.33452
1.33559
1.33635
1.33773
1.34044
1.34074
1.33946
1.33836
1.33856
1.33894
1.3403
1.34211
1.34151
1.34062
1.34046
1.34117
1.3422
1.3425
1.3424
1.34256
1.34325
1.34397
1.34404
1.34353
1.34319
1.34326
1.34357
1.344
1.34434
1.34442
1.34433
1.11662
1.11706
1.11791
1.1192
1.12092
1.1231
1.12572
1.12881
1.13232
1.13627
1.14057
1.14525
1.1502
1.15549
1.16105
1.16694
1.1729
1.17893
1.18528
1.19202
1.19969
1.20766
1.21694
1.22631
1.23658
1.24757
1.2582
1.27011
1.28125
1.29238
1.30391
1.31381
1.32426
1.33278
1.34078
1.3484
1.35183
1.35579
1.35932
1.36023
1.35977
1.35989
1.35963
1.35801
1.35364
1.34749
1.34158
1.33643
1.33402
1.33476
1.33555
1.33745
1.34041
1.34323
1.34539
1.34748
1.3476
1.34645
1.3438
1.34067
1.33789
1.33534
1.33601
1.33808
1.34159
1.34466
1.34681
1.34596
1.34357
1.34094
1.33877
1.33961
1.34212
1.3455
1.34628
1.3453
1.34334
1.34168
1.34229
1.34439
1.34629
1.34594
1.34489
1.34422
1.34436
1.34528
1.34589
1.34593
1.34593
1.34614
1.34677
1.34705
1.34673
1.34622
1.34614
1.34633
1.34656
1.34702
1.3473
1.34711
1.11818
1.11821
1.11824
1.11829
1.11835
1.11844
1.11856
1.11875
1.11901
1.11936
1.11981
1.12053
1.12152
1.12277
1.12435
1.12624
1.12855
1.13115
1.13418
1.13747
1.14129
1.14547
1.15025
1.15568
1.16184
1.16899
1.17708
1.18634
1.19663
1.20818
1.22074
1.23443
1.24849
1.26461
1.27908
1.29493
1.30993
1.32464
1.33619
1.34656
1.3574
1.36069
1.36285
1.36375
1.36376
1.36324
1.36172
1.35978
1.35602
1.35229
1.34933
1.3473
1.3476
1.34875
1.34996
1.3517
1.35265
1.35264
1.35265
1.35205
1.35054
1.34805
1.34556
1.34523
1.34644
1.34843
1.35094
1.35307
1.35381
1.35224
1.35028
1.34875
1.34905
1.35001
1.35152
1.35287
1.3524
1.35102
1.34981
1.35004
1.35098
1.3519
1.35179
1.35103
1.35041
1.35063
1.35132
1.35158
1.3514
1.35137
1.35162
1.35207
1.35197
1.35149
1.35097
1.35098
1.35113
1.35151
1.35146
1.35117
1.12096
1.121
1.12102
1.12101
1.121
1.121
1.12101
1.12103
1.12107
1.12114
1.12129
1.12132
1.12137
1.12142
1.1215
1.12161
1.12175
1.12192
1.12214
1.12244
1.12283
1.12351
1.12444
1.12561
1.12707
1.12891
1.1313
1.13427
1.13796
1.14279
1.14836
1.15578
1.16443
1.17481
1.1876
1.20167
1.21831
1.23593
1.25608
1.27513
1.2958
1.3133
1.33029
1.3415
1.34945
1.35803
1.36174
1.36267
1.36297
1.36243
1.36077
1.3606
1.36013
1.35907
1.35783
1.35694
1.35644
1.35593
1.35606
1.35657
1.35775
1.35801
1.35712
1.35546
1.35382
1.35317
1.35387
1.3556
1.35796
1.36084
1.36147
1.35984
1.35734
1.35535
1.35567
1.35721
1.35889
1.35955
1.35824
1.35618
1.35615
1.35712
1.35846
1.35811
1.35711
1.35639
1.35676
1.35739
1.35731
1.35712
1.35718
1.35749
1.35737
1.35697
1.35641
1.35644
1.35639
1.35653
1.35653
1.35626
1.12359
1.12362
1.12365
1.12365
1.12365
1.12365
1.12363
1.12361
1.12359
1.1236
1.12362
1.12362
1.12359
1.12356
1.12357
1.12357
1.12356
1.12358
1.12362
1.12369
1.12381
1.12386
1.12393
1.12397
1.12402
1.1241
1.12423
1.12444
1.12472
1.1251
1.12579
1.1268
1.12835
1.13058
1.13381
1.13816
1.14461
1.15242
1.16343
1.17722
1.19322
1.21445
1.23524
1.25931
1.2819
1.30477
1.3221
1.33687
1.34993
1.35576
1.36007
1.36172
1.36147
1.36087
1.3609
1.36095
1.36103
1.36034
1.35961
1.35989
1.36105
1.36284
1.36331
1.36281
1.36091
1.35862
1.35727
1.3578
1.35927
1.3616
1.36287
1.36376
1.36399
1.36287
1.36163
1.36101
1.36147
1.36197
1.36273
1.36212
1.36141
1.36106
1.36157
1.36239
1.36223
1.36163
1.3611
1.3613
1.36154
1.36146
1.36142
1.36163
1.36189
1.36169
1.36114
1.36067
1.36059
1.3607
1.36065
1.36035
1.12548
1.12549
1.1255
1.12551
1.12552
1.12553
1.12552
1.12548
1.12543
1.12541
1.12541
1.12542
1.12544
1.12545
1.12545
1.12543
1.12536
1.12534
1.12533
1.12533
1.12531
1.12527
1.12519
1.12513
1.12505
1.12501
1.12501
1.12503
1.12507
1.12518
1.12516
1.12513
1.12513
1.12517
1.12528
1.12549
1.12595
1.12684
1.12837
1.13092
1.13495
1.14121
1.15001
1.16276
1.18003
1.1995
1.22516
1.25156
1.27553
1.3012
1.3201
1.3376
1.34702
1.3513
1.35344
1.35875
1.36109
1.36174
1.3618
1.36228
1.36309
1.36397
1.36447
1.36422
1.36351
1.3628
1.36205
1.36189
1.36168
1.36192
1.36235
1.36344
1.36407
1.36496
1.36558
1.36497
1.36388
1.36311
1.36355
1.36427
1.36484
1.36431
1.36351
1.36377
1.36434
1.36449
1.36412
1.36368
1.36373
1.36397
1.36401
1.36385
1.364
1.36432
1.3643
1.36387
1.36342
1.3634
1.36333
1.36313
1.12631
1.12631
1.12631
1.1263
1.1263
1.12631
1.12631
1.1263
1.12626
1.12619
1.12616
1.12614
1.12614
1.12614
1.12614
1.12612
1.12604
1.12597
1.12596
1.12596
1.12596
1.12594
1.12588
1.1258
1.12572
1.12565
1.12558
1.12552
1.12544
1.12538
1.12531
1.12524
1.12516
1.1251
1.12509
1.12514
1.12515
1.12516
1.12519
1.12526
1.12542
1.12577
1.12659
1.12813
1.13105
1.13605
1.14448
1.1567
1.17489
1.19794
1.22487
1.25196
1.27957
1.31134
1.3235
1.33631
1.34879
1.35953
1.36032
1.36125
1.36194
1.36247
1.36177
1.36198
1.36271
1.36393
1.3652
1.36504
1.36406
1.36252
1.36217
1.36247
1.36322
1.36487
1.36576
1.36571
1.36521
1.36448
1.36423
1.36452
1.36481
1.36517
1.36506
1.36483
1.3651
1.36542
1.36527
1.36487
1.36455
1.3647
1.36498
1.36528
1.36518
1.36535
1.36549
1.36536
1.36492
1.36475
1.36465
1.36453
1.12681
1.12678
1.12675
1.12672
1.12669
1.12667
1.12666
1.12663
1.1266
1.12657
1.12654
1.12647
1.1264
1.1264
1.1264
1.12636
1.12627
1.12621
1.12613
1.1261
1.12609
1.12607
1.12601
1.12592
1.12584
1.12577
1.12571
1.12564
1.12555
1.12549
1.12543
1.12536
1.12527
1.1252
1.12516
1.12513
1.12511
1.12508
1.12505
1.12503
1.12503
1.12502
1.12499
1.12494
1.12496
1.12513
1.12568
1.12694
1.12988
1.1348
1.14448
1.15924
1.17925
1.2046
1.23814
1.26874
1.29041
1.31763
1.33315
1.34682
1.34866
1.35214
1.35469
1.36081
1.36438
1.36642
1.36635
1.36575
1.36453
1.36332
1.3623
1.3627
1.36376
1.36453
1.36509
1.36509
1.36496
1.36501
1.36499
1.36488
1.36471
1.36494
1.36511
1.36541
1.3655
1.36556
1.36554
1.36535
1.36509
1.365
1.36509
1.36535
1.36569
1.36615
1.36615
1.36602
1.36566
1.36525
1.36515
1.36517
1.12709
1.12706
1.12702
1.12699
1.12694
1.12689
1.12684
1.12681
1.12678
1.12676
1.12673
1.1267
1.12665
1.12661
1.12656
1.12652
1.12648
1.12642
1.12635
1.12628
1.12621
1.12616
1.12612
1.12607
1.126
1.12592
1.12584
1.12575
1.12565
1.12558
1.12551
1.1254
1.12533
1.12532
1.12531
1.12529
1.12524
1.12517
1.12509
1.12501
1.12493
1.12486
1.12477
1.12467
1.12459
1.12458
1.12459
1.12462
1.12472
1.12492
1.12554
1.12699
1.1308
1.1373
1.1508
1.16927
1.19692
1.22668
1.25955
1.29237
1.3145
1.33548
1.34762
1.35823
1.3615
1.36423
1.36363
1.36079
1.36099
1.3621
1.36354
1.36466
1.36443
1.36384
1.36294
1.3633
1.36398
1.36508
1.36543
1.36525
1.36484
1.36488
1.36508
1.3655
1.36558
1.36551
1.3654
1.36538
1.36541
1.3653
1.36518
1.36529
1.36563
1.36613
1.36651
1.3664
1.36613
1.36563
1.36538
1.36542
1.12732
1.12728
1.12725
1.12721
1.12715
1.1271
1.12706
1.12704
1.12702
1.127
1.12699
1.12697
1.12694
1.12691
1.12688
1.12686
1.12683
1.12678
1.12671
1.12663
1.12654
1.12647
1.1264
1.12632
1.12623
1.12613
1.12602
1.1259
1.1258
1.12571
1.1256
1.12547
1.12543
1.12543
1.12544
1.12543
1.1254
1.12533
1.12525
1.12516
1.12506
1.12498
1.1249
1.12481
1.1247
1.12462
1.12462
1.12466
1.12472
1.12484
1.12485
1.12483
1.12488
1.12515
1.12631
1.12898
1.13565
1.14644
1.16774
1.19284
1.2262
1.26192
1.29063
1.31935
1.3307
1.34567
1.34901
1.35539
1.36012
1.3654
1.36626
1.36596
1.3646
1.36154
1.36161
1.3624
1.36414
1.36515
1.36509
1.36457
1.36463
1.36494
1.3654
1.3656
1.36553
1.36533
1.36526
1.36545
1.36559
1.36548
1.36531
1.36535
1.36564
1.36609
1.36642
1.36655
1.36641
1.36602
1.36559
1.36563
1.12689
1.12685
1.12682
1.12679
1.12675
1.12672
1.12672
1.12671
1.1267
1.12668
1.12666
1.12663
1.1266
1.12657
1.12656
1.12655
1.12654
1.12651
1.12648
1.12644
1.12639
1.12633
1.1263
1.12627
1.12623
1.12617
1.12608
1.12602
1.12599
1.12595
1.12587
1.12581
1.12581
1.12581
1.12582
1.12582
1.1258
1.12576
1.12571
1.12565
1.12556
1.12549
1.12543
1.12538
1.12531
1.12526
1.12525
1.12528
1.12533
1.12535
1.12533
1.12531
1.12533
1.12545
1.12543
1.12547
1.12571
1.12662
1.12952
1.13527
1.14887
1.16774
1.19917
1.23303
1.2687
1.30409
1.32627
1.35037
1.3568
1.36334
1.36323
1.36128
1.35918
1.3603
1.3624
1.36466
1.36483
1.36461
1.36354
1.36372
1.3646
1.36582
1.36582
1.36559
1.36525
1.36518
1.36545
1.36571
1.3657
1.3656
1.3655
1.3656
1.36587
1.36608
1.36628
1.36663
1.36657
1.36635
1.36598
1.36589
1.12648
1.12646
1.12644
1.12642
1.12641
1.12642
1.12642
1.12642
1.12642
1.12641
1.1264
1.12638
1.12637
1.12636
1.12635
1.12636
1.12636
1.12636
1.12636
1.12634
1.1263
1.12628
1.12628
1.12628
1.12627
1.12625
1.12624
1.12624
1.12624
1.12623
1.12621
1.12621
1.12622
1.12624
1.12625
1.12626
1.12627
1.12626
1.12624
1.12621
1.12616
1.1261
1.12606
1.12605
1.12603
1.12603
1.12604
1.1261
1.12614
1.12615
1.12613
1.1261
1.12612
1.12612
1.12607
1.12606
1.12614
1.12618
1.12628
1.12656
1.1277
1.13056
1.13853
1.15169
1.17814
1.20883
1.24687
1.2855
1.30859
1.33492
1.3411
1.34899
1.35515
1.36402
1.36659
1.36634
1.36481
1.36224
1.36241
1.36398
1.36593
1.36639
1.36599
1.36514
1.36512
1.36553
1.36597
1.36592
1.36573
1.36574
1.36593
1.36619
1.36626
1.36617
1.36632
1.36661
1.36671
1.36668
1.36653
1.36624
1.12606
1.12606
1.12605
1.12603
1.12603
1.12604
1.12605
1.12606
1.12606
1.12605
1.12604
1.12604
1.12604
1.12604
1.12603
1.12603
1.12605
1.12605
1.12604
1.12605
1.12604
1.12602
1.12601
1.12602
1.12602
1.12604
1.12606
1.12609
1.12614
1.12619
1.12622
1.12626
1.1263
1.12633
1.12637
1.12641
1.12644
1.1265
1.12655
1.12658
1.1266
1.12665
1.12671
1.12678
1.12686
1.12696
1.12708
1.12717
1.12716
1.12718
1.12718
1.12718
1.12721
1.12722
1.12718
1.12705
1.12694
1.12689
1.12691
1.12699
1.12699
1.12706
1.12749
1.12885
1.13344
1.14235
1.16296
1.18943
1.22886
1.27011
1.30297
1.33909
1.35108
1.36054
1.36351
1.36153
1.35836
1.36013
1.36355
1.36669
1.36673
1.36619
1.36486
1.36496
1.36569
1.36639
1.36623
1.36595
1.36581
1.36617
1.36674
1.36676
1.36658
1.3664
1.36647
1.36662
1.36688
1.36707
1.36701
1.36676
1.1259
1.1259
1.12591
1.12591
1.12591
1.12591
1.12591
1.1259
1.12589
1.12589
1.12589
1.12589
1.12588
1.12586
1.12586
1.12585
1.12585
1.12584
1.12583
1.12582
1.12578
1.12575
1.12574
1.12574
1.12574
1.12576
1.12579
1.12585
1.12592
1.12601
1.1261
1.12618
1.12629
1.12641
1.12652
1.12662
1.12669
1.12676
1.12685
1.12695
1.12704
1.12715
1.12727
1.12739
1.12753
1.12771
1.12784
1.12786
1.12787
1.12788
1.12791
1.12799
1.12805
1.12804
1.12801
1.12794
1.12784
1.12775
1.12769
1.12761
1.12745
1.12734
1.12738
1.12747
1.12767
1.12836
1.1309
1.13675
1.15269
1.17564
1.21466
1.25635
1.29003
1.32351
1.3351
1.34643
1.35375
1.36501
1.36786
1.36765
1.36596
1.36379
1.36419
1.36601
1.36714
1.36692
1.36633
1.36598
1.36643
1.36711
1.36752
1.36727
1.3669
1.36682
1.36683
1.36688
1.3671
1.36751
1.36753
1.36735
1.12597
1.12599
1.12599
1.12598
1.12598
1.12599
1.126
1.126
1.12602
1.12603
1.12603
1.12603
1.12603
1.12603
1.12602
1.12602
1.12602
1.12602
1.126
1.12598
1.12594
1.1259
1.12588
1.12588
1.12589
1.12593
1.126
1.12611
1.12624
1.12636
1.12648
1.1266
1.1267
1.12681
1.12691
1.127
1.12709
1.12718
1.12727
1.12737
1.12749
1.1276
1.12771
1.12783
1.12799
1.12819
1.12824
1.12825
1.12825
1.12828
1.12832
1.12837
1.12848
1.12857
1.12857
1.12855
1.12856
1.12855
1.12851
1.12843
1.12829
1.12807
1.1279
1.12782
1.12787
1.12792
1.12797
1.1282
1.12967
1.1338
1.1466
1.16681
1.20521
1.24765
1.28705
1.33077
1.34869
1.3612
1.36433
1.36195
1.35972
1.36203
1.36593
1.36819
1.36764
1.36611
1.36591
1.36655
1.36762
1.36774
1.36766
1.36748
1.36747
1.36743
1.36728
1.36723
1.3674
1.36786
1.368
1.36793
1.12664
1.12665
1.12666
1.12667
1.12667
1.12667
1.12668
1.1267
1.12671
1.12671
1.12671
1.12671
1.1267
1.12667
1.12665
1.12664
1.12664
1.12663
1.12661
1.12656
1.12652
1.12647
1.12643
1.12644
1.12646
1.1265
1.12655
1.12664
1.12673
1.12683
1.12693
1.12704
1.12711
1.12716
1.12723
1.12734
1.12745
1.12757
1.12767
1.12777
1.12788
1.12798
1.12806
1.12817
1.12837
1.12849
1.12851
1.12851
1.1285
1.12851
1.12852
1.12853
1.12859
1.12867
1.12867
1.12864
1.12866
1.12875
1.12888
1.12891
1.12887
1.12876
1.12862
1.12855
1.12852
1.12845
1.12837
1.12841
1.1284
1.12851
1.12948
1.13258
1.1433
1.16167
1.19883
1.24106
1.28081
1.31939
1.33347
1.34653
1.35561
1.3674
1.36902
1.36804
1.36508
1.36529
1.3666
1.3682
1.36866
1.36825
1.36764
1.36782
1.36806
1.368
1.36771
1.36765
1.36786
1.36814
1.36839
1.36848
1.12749
1.12749
1.12749
1.12749
1.1275
1.12752
1.12754
1.12755
1.12754
1.12754
1.12754
1.12753
1.1275
1.12746
1.12746
1.12746
1.12744
1.12741
1.12737
1.12735
1.12733
1.1273
1.12727
1.12728
1.1273
1.1273
1.12732
1.12736
1.12744
1.12754
1.12762
1.12765
1.12766
1.12769
1.12776
1.12788
1.12802
1.12814
1.12823
1.1283
1.12836
1.12841
1.12847
1.12856
1.1287
1.12876
1.12878
1.12878
1.12877
1.12874
1.12866
1.1286
1.1286
1.12865
1.12867
1.12863
1.12863
1.12874
1.1289
1.12898
1.12899
1.12898
1.12898
1.12906
1.1292
1.12922
1.12916
1.12906
1.12885
1.12879
1.12881
1.12893
1.12968
1.13226
1.14175
1.15915
1.19656
1.23953
1.284
1.33162
1.35022
1.36386
1.36476
1.3599
1.36095
1.36469
1.3685
1.36901
1.36856
1.36762
1.36787
1.36846
1.36846
1.3682
1.36803
1.36822
1.36848
1.36848
1.36862
1.36892
1.12854
1.12854
1.12854
1.12854
1.12854
1.12855
1.12856
1.12857
1.12857
1.12858
1.12859
1.12859
1.12859
1.12858
1.12857
1.12853
1.1285
1.12851
1.1285
1.12848
1.12848
1.12848
1.12847
1.12846
1.12844
1.12839
1.12836
1.12838
1.12844
1.12846
1.12845
1.12842
1.12842
1.12841
1.12845
1.12854
1.12866
1.12876
1.12884
1.12891
1.12892
1.12891
1.12891
1.12896
1.12899
1.12901
1.12904
1.12905
1.12903
1.12897
1.12887
1.12865
1.12854
1.12855
1.12857
1.12855
1.12857
1.12871
1.12888
1.12896
1.12905
1.12914
1.1292
1.12931
1.12944
1.12948
1.12951
1.12954
1.12947
1.12934
1.12923
1.12924
1.12929
1.1294
1.13004
1.13243
1.14141
1.15887
1.19661
1.24061
1.28376
1.32219
1.3371
1.3483
1.36199
1.36957
1.36942
1.36813
1.36655
1.36732
1.36903
1.36919
1.36881
1.36829
1.36846
1.36892
1.36891
1.36874
1.3688
1.36924
1.12939
1.12939
1.12939
1.1294
1.1294
1.12941
1.12942
1.12944
1.12946
1.12949
1.12953
1.12954
1.12953
1.12953
1.12956
1.12959
1.12957
1.12952
1.12951
1.12951
1.12949
1.12947
1.12946
1.12947
1.12946
1.1294
1.12933
1.12928
1.12925
1.12924
1.12925
1.12924
1.1292
1.12918
1.12921
1.12926
1.12928
1.1293
1.12938
1.12947
1.12945
1.12938
1.12936
1.12937
1.12935
1.1293
1.1293
1.12934
1.12936
1.12927
1.12916
1.12897
1.12872
1.12868
1.1287
1.12875
1.12879
1.12886
1.12895
1.12907
1.12922
1.12933
1.12945
1.12953
1.12953
1.12951
1.12953
1.12957
1.12962
1.12964
1.12967
1.12968
1.12968
1.12972
1.12982
1.13
1.13067
1.13305
1.14191
1.16059
1.2001
1.24586
1.29471
1.33883
1.35725
1.36657
1.36417
1.36038
1.3636
1.36835
1.36964
1.36923
1.36817
1.36834
1.36924
1.36943
1.36922
1.36892
1.3691
1.36955
1.12987
1.12989
1.12991
1.12992
1.12993
1.12995
1.12996
1.12998
1.13
1.13003
1.13007
1.1301
1.13012
1.13012
1.1301
1.13008
1.13008
1.1301
1.13013
1.13012
1.13008
1.13007
1.13005
1.13002
1.12997
1.1299
1.12982
1.12975
1.12967
1.12966
1.12969
1.1297
1.12968
1.12964
1.12966
1.1297
1.12972
1.12977
1.12988
1.13002
1.13004
1.13001
1.12996
1.12988
1.12986
1.12986
1.12985
1.12985
1.1299
1.12989
1.12979
1.12966
1.12943
1.12924
1.1292
1.12922
1.12923
1.12919
1.12921
1.12931
1.1294
1.1295
1.1296
1.12965
1.12962
1.1295
1.12945
1.12948
1.1296
1.12969
1.12973
1.12977
1.12985
1.12993
1.13001
1.13013
1.1303
1.1305
1.13113
1.13376
1.14324
1.16461
1.20587
1.25466
1.29815
1.32961
1.34388
1.35596
1.36925
1.36996
1.36906
1.36698
1.36761
1.36948
1.37005
1.36959
1.36902
1.36916
1.36955
1.36985
1.12991
1.12992
1.12995
1.12997
1.12999
1.13
1.13
1.13001
1.13001
1.13005
1.13007
1.13007
1.13007
1.13009
1.13008
1.13005
1.13004
1.13006
1.13007
1.13003
1.12993
1.12988
1.12989
1.12992
1.12991
1.12987
1.12984
1.12982
1.12981
1.12986
1.12991
1.12993
1.12992
1.12988
1.12991
1.12993
1.12989
1.12991
1.13001
1.13015
1.1303
1.13035
1.13026
1.13023
1.13018
1.13016
1.13024
1.13032
1.13038
1.1304
1.13029
1.13028
1.13026
1.13007
1.12992
1.1299
1.12986
1.12973
1.12964
1.12961
1.12961
1.1297
1.12987
1.12992
1.12986
1.12962
1.12955
1.12958
1.12967
1.1297
1.1297
1.12973
1.12982
1.12991
1.12998
1.13008
1.13029
1.1306
1.13066
1.13073
1.1314
1.13471
1.14569
1.17154
1.2161
1.26537
1.31927
1.34932
1.36567
1.36526
1.36028
1.36345
1.36873
1.37055
1.36996
1.36859
1.36882
1.36977
1.36995
1.36984
1.12992
1.12994
1.12995
1.12995
1.12995
1.12995
1.12997
1.13
1.13003
1.13008
1.1301
1.1301
1.13011
1.13014
1.13018
1.13021
1.13022
1.13018
1.13001
1.12991
1.12992
1.12987
1.12979
1.12979
1.12978
1.12972
1.12971
1.12972
1.12979
1.12996
1.13005
1.13006
1.13006
1.13009
1.13008
1.13008
1.13017
1.1302
1.13016
1.13019
1.1304
1.13056
1.13039
1.1303
1.13034
1.13028
1.13028
1.13052
1.13069
1.13069
1.13056
1.13061
1.13059
1.13045
1.13033
1.1303
1.13033
1.13029
1.13014
1.13
1.12994
1.13
1.1303
1.13045
1.13041
1.13006
1.1298
1.12982
1.12987
1.12981
1.12968
1.12968
1.12976
1.12985
1.1299
1.12999
1.13022
1.13056
1.13082
1.13091
1.13083
1.13091
1.13181
1.13649
1.1494
1.18122
1.22752
1.27784
1.31924
1.33921
1.35098
1.36858
1.37084
1.36988
1.36726
1.36786
1.36975
1.37043
1.37005
1.36979
1.12983
1.12989
1.12996
1.13002
1.13006
1.13009
1.13011
1.13012
1.13016
1.1302
1.13022
1.13024
1.13029
1.13039
1.13049
1.1305
1.13047
1.13043
1.13035
1.1301
1.12999
1.13
1.12996
1.12981
1.1298
1.1298
1.12977
1.1298
1.12988
1.12996
1.13011
1.13023
1.13028
1.13028
1.13037
1.13057
1.13062
1.13048
1.13043
1.13058
1.13091
1.13089
1.13052
1.13034
1.13046
1.13051
1.13039
1.13049
1.13079
1.13084
1.1308
1.13054
1.13035
1.13034
1.13038
1.13051
1.13066
1.13061
1.13047
1.13038
1.13025
1.1302
1.1304
1.13089
1.13097
1.13073
1.13028
1.13014
1.13011
1.13003
1.12975
1.12969
1.12972
1.12985
1.12998
1.13007
1.13018
1.1305
1.13084
1.13093
1.13088
1.13072
1.13069
1.13091
1.13236
1.13858
1.15595
1.19395
1.24296
1.30161
1.34243
1.36407
1.36645
1.36005
1.36312
1.36868
1.37057
1.37019
1.36925
1.36965
1.13018
1.13017
1.13022
1.13033
1.13044
1.13047
1.13047
1.13046
1.13044
1.13046
1.13059
1.13068
1.13075
1.13086
1.1309
1.13086
1.13078
1.13071
1.1306
1.1304
1.13013
1.13003
1.13007
1.13005
1.13
1.12996
1.12987
1.12986
1.12993
1.13002
1.13011
1.13034
1.13074
1.13091
1.13087
1.13079
1.13087
1.13078
1.13074
1.13098
1.13111
1.13092
1.13048
1.13037
1.13057
1.13076
1.13061
1.13047
1.13051
1.13055
1.13046
1.13033
1.13023
1.13018
1.13025
1.13056
1.13058
1.13051
1.13078
1.13106
1.13094
1.13054
1.13046
1.13076
1.13105
1.13101
1.13081
1.13051
1.13015
1.12996
1.1299
1.12987
1.1299
1.13018
1.1304
1.13045
1.13051
1.13065
1.13082
1.13082
1.13072
1.13054
1.13044
1.13043
1.13051
1.13101
1.13352
1.14202
1.16644
1.20942
1.2642
1.31022
1.33569
1.34874
1.36768
1.37059
1.36984
1.36764
1.3686
1.37033
1.13092
1.131
1.13121
1.13128
1.13127
1.13128
1.13128
1.13129
1.1313
1.13137
1.13146
1.13151
1.13151
1.13149
1.13139
1.13129
1.1312
1.13098
1.13066
1.13049
1.13033
1.13012
1.13009
1.13012
1.13007
1.12982
1.12971
1.12977
1.12994
1.12998
1.13008
1.13034
1.13046
1.13057
1.1308
1.13091
1.13076
1.13072
1.13104
1.13131
1.13122
1.13086
1.1307
1.13072
1.13104
1.13127
1.13111
1.13068
1.13053
1.13051
1.13037
1.1304
1.13033
1.1302
1.13032
1.13057
1.13048
1.13047
1.131
1.13166
1.13166
1.13116
1.13043
1.13025
1.13044
1.13078
1.13085
1.13064
1.13023
1.13006
1.13005
1.13007
1.13018
1.13054
1.13083
1.13086
1.13084
1.13082
1.13077
1.13065
1.13051
1.13033
1.13028
1.13028
1.1303
1.13037
1.13054
1.13134
1.13531
1.14809
1.18156
1.22982
1.2894
1.33816
1.36239
1.36629
1.35998
1.36333
1.36796
1.37062
1.13069
1.1309
1.13096
1.13096
1.13091
1.13088
1.13088
1.1309
1.13094
1.13105
1.13116
1.1312
1.13119
1.13112
1.13109
1.13106
1.13094
1.13039
1.12999
1.13001
1.13003
1.12985
1.12927
1.12893
1.12895
1.12898
1.12885
1.1288
1.12882
1.12885
1.12899
1.12924
1.12951
1.12988
1.12998
1.12988
1.12986
1.13019
1.1309
1.13109
1.13102
1.13101
1.13106
1.13126
1.13156
1.13167
1.13147
1.13105
1.1307
1.13063
1.13086
1.13142
1.13151
1.13107
1.13065
1.13052
1.13026
1.13028
1.13097
1.13174
1.13177
1.13132
1.13044
1.13006
1.13016
1.1305
1.13069
1.13059
1.13059
1.13063
1.13064
1.13059
1.13059
1.13073
1.13098
1.13103
1.13102
1.13096
1.13082
1.13064
1.13048
1.13024
1.13019
1.13024
1.13033
1.13045
1.13062
1.1307
1.13094
1.13239
1.1388
1.15879
1.19952
1.25631
1.30364
1.33385
1.34857
1.3679
1.37076
1.37019
1.12851
1.12851
1.12844
1.12836
1.12836
1.12842
1.12862
1.1287
1.12876
1.1289
1.12905
1.12906
1.12905
1.12907
1.1291
1.12907
1.12884
1.12848
1.12846
1.12854
1.12852
1.12828
1.12806
1.12813
1.12822
1.12819
1.12821
1.12835
1.12832
1.12829
1.12847
1.1291
1.12947
1.12948
1.12946
1.12962
1.13025
1.1304
1.13026
1.13032
1.1307
1.131
1.13122
1.13147
1.13169
1.13167
1.13133
1.13088
1.13063
1.13082
1.13187
1.13256
1.13252
1.13193
1.13075
1.12955
1.1292
1.12938
1.13022
1.13119
1.13137
1.13102
1.13045
1.13038
1.13055
1.13077
1.13073
1.13076
1.13094
1.13105
1.13102
1.13092
1.1308
1.13073
1.13064
1.13064
1.13063
1.13061
1.13062
1.13057
1.13044
1.13037
1.13044
1.13059
1.13067
1.13068
1.13072
1.13068
1.13059
1.13062
1.1311
1.134
1.14491
1.17522
1.22319
1.28574
1.33574
1.36414
1.36507
1.36303
1.12505
1.12503
1.12504
1.12527
1.1256
1.12566
1.12557
1.12543
1.1255
1.12591
1.12654
1.12689
1.127
1.12716
1.12743
1.12744
1.12739
1.1275
1.12779
1.1282
1.12877
1.12933
1.12968
1.1299
1.13007
1.13003
1.12973
1.12936
1.1291
1.12888
1.1287
1.12862
1.12868
1.12879
1.12885
1.12902
1.1293
1.12927
1.12923
1.12953
1.12984
1.12987
1.12969
1.12936
1.12929
1.12924
1.12928
1.12952
1.12963
1.13008
1.1315
1.13222
1.13213
1.13137
1.12981
1.12856
1.12833
1.12857
1.12923
1.12994
1.13039
1.13054
1.13076
1.13142
1.13172
1.13172
1.13144
1.13094
1.13091
1.13103
1.1311
1.13101
1.13077
1.13033
1.13
1.12999
1.13009
1.13039
1.13069
1.13081
1.13081
1.13082
1.131
1.13104
1.13097
1.13092
1.13072
1.13056
1.13053
1.13055
1.1306
1.13078
1.13202
1.13747
1.15614
1.1955
1.25287
1.30607
1.33264
1.35538
1.12642
1.12646
1.12635
1.12583
1.12553
1.12553
1.12579
1.12607
1.12635
1.12667
1.12708
1.12784
1.12843
1.12877
1.12911
1.12954
1.13013
1.13082
1.1313
1.13157
1.13182
1.13188
1.13185
1.13172
1.13145
1.13081
1.13016
1.13012
1.13019
1.1301
1.12972
1.12906
1.12798
1.12743
1.12743
1.12763
1.12773
1.12776
1.12772
1.12761
1.12747
1.12719
1.12623
1.12536
1.12528
1.12535
1.12565
1.12628
1.1271
1.12833
1.1299
1.13046
1.13037
1.12976
1.12857
1.12749
1.12736
1.1278
1.1288
1.12954
1.12985
1.13017
1.13068
1.13149
1.13182
1.13178
1.13143
1.13079
1.13038
1.13039
1.13044
1.13037
1.13019
1.12997
1.12978
1.1298
1.13003
1.13062
1.13123
1.13134
1.13128
1.13119
1.13124
1.13124
1.13114
1.13083
1.13056
1.13059
1.13062
1.13069
1.13082
1.13102
1.13112
1.13147
1.13385
1.14381
1.1739
1.22302
1.28758
1.34704
1.12824
1.12768
1.12724
1.12715
1.12722
1.12746
1.12747
1.12697
1.12628
1.12624
1.12625
1.12655
1.12745
1.12838
1.12889
1.12907
1.12929
1.12987
1.13015
1.13015
1.13
1.12955
1.12873
1.12806
1.12796
1.12787
1.12757
1.12749
1.1275
1.12707
1.12631
1.12562
1.1246
1.12395
1.12396
1.12428
1.12496
1.12625
1.12716
1.1273
1.12729
1.1271
1.12591
1.12445
1.12425
1.12441
1.12456
1.12474
1.12531
1.12641
1.12781
1.12882
1.129
1.12873
1.12844
1.12853
1.12886
1.12968
1.13009
1.12991
1.12921
1.12862
1.12866
1.12941
1.13066
1.13101
1.13063
1.12962
1.12867
1.12849
1.12863
1.12905
1.12963
1.12988
1.1301
1.13033
1.13073
1.13125
1.1316
1.13157
1.13145
1.13136
1.13119
1.13092
1.13065
1.13057
1.13061
1.13075
1.13102
1.13114
1.13124
1.13124
1.13118
1.13094
1.13096
1.13189
1.13702
1.15684
1.19597
1.27699
1.13195
1.13169
1.13157
1.1317
1.1325
1.13312
1.13313
1.13259
1.13203
1.13214
1.13225
1.13211
1.13228
1.13305
1.1337
1.13384
1.13398
1.13439
1.13461
1.13456
1.13425
1.13365
1.13262
1.13154
1.13092
1.13067
1.13062
1.13067
1.13055
1.12933
1.1282
1.1282
1.12796
1.1277
1.12798
1.12901
1.12962
1.13001
1.13052
1.13092
1.13127
1.13179
1.13207
1.13156
1.13055
1.12967
1.1291
1.12892
1.12916
1.12954
1.13041
1.13137
1.13139
1.1307
1.12983
1.12977
1.13013
1.13073
1.1308
1.13052
1.12918
1.12692
1.12606
1.12618
1.12682
1.12771
1.12793
1.12771
1.12724
1.1272
1.1275
1.12813
1.12914
1.12995
1.13038
1.13064
1.13098
1.1314
1.13165
1.13158
1.13124
1.13075
1.13051
1.13042
1.13049
1.13066
1.13092
1.13131
1.13149
1.13144
1.13141
1.13134
1.13108
1.13077
1.13068
1.13072
1.13116
1.13403
1.14409
1.20164
1.17215
1.17122
1.17081
1.17095
1.17181
1.17204
1.17189
1.17098
1.16878
1.16765
1.16796
1.16848
1.16771
1.16514
1.16483
1.1648
1.16392
1.16186
1.16019
1.15923
1.15849
1.15698
1.15569
1.15563
1.1553
1.15375
1.15237
1.15227
1.15225
1.15153
1.14993
1.14963
1.14992
1.14997
1.14969
1.14963
1.14944
1.1482
1.14724
1.14714
1.14676
1.1448
1.14224
1.14171
1.14124
1.14014
1.13882
1.1375
1.13593
1.13448
1.13357
1.13297
1.1321
1.13034
1.12822
1.12785
1.12793
1.12805
1.12824
1.12844
1.12817
1.12681
1.1256
1.1255
1.1256
1.12626
1.12703
1.12761
1.1283
1.12891
1.12966
1.12991
1.12963
1.12954
1.12972
1.13007
1.13008
1.13001
1.12987
1.12957
1.12941
1.1295
1.12991
1.13029
1.1309
1.13134
1.13159
1.1316
1.13157
1.1315
1.13128
1.13103
1.13087
1.13076
1.13071
1.13081
1.13093
1.1311
1.13207
1.15138
1.21426
1.21345
1.21163
1.21069
1.21026
1.20964
1.20933
1.20933
1.20961
1.20937
1.20613
1.20255
1.20207
1.20137
1.19965
1.19965
1.19936
1.19724
1.19471
1.1942
1.19461
1.19489
1.19425
1.1929
1.19136
1.18898
1.1856
1.18274
1.18109
1.17905
1.17554
1.17333
1.17176
1.16962
1.16626
1.16339
1.16301
1.1627
1.16149
1.16086
1.16073
1.159
1.1542
1.15308
1.15334
1.15303
1.15216
1.15078
1.14849
1.14432
1.14016
1.13939
1.13895
1.13731
1.13358
1.13255
1.13224
1.13182
1.13184
1.13248
1.13323
1.13309
1.13209
1.13088
1.12997
1.12979
1.13021
1.13146
1.13294
1.13361
1.13342
1.13248
1.13078
1.12918
1.1287
1.12869
1.12869
1.12867
1.12852
1.12841
1.12848
1.12882
1.12946
1.13065
1.13134
1.13149
1.13154
1.13143
1.13118
1.13093
1.13071
1.13078
1.13087
1.13095
1.13103
1.13114
1.1311
1.13102
1.13102
1.13491
1.26586
1.2652
1.26323
1.26177
1.2608
1.25931
1.2586
1.25889
1.25997
1.2599
1.25824
1.25397
1.25028
1.24909
1.24805
1.24685
1.24683
1.24681
1.24587
1.24607
1.24714
1.24672
1.24503
1.2447
1.2447
1.24363
1.24118
1.23848
1.23565
1.23461
1.23464
1.23411
1.23127
1.22664
1.22246
1.21813
1.21536
1.21423
1.21233
1.20682
1.20435
1.20301
1.20014
1.1953
1.19194
1.19162
1.19188
1.19158
1.19029
1.18727
1.18235
1.18041
1.17888
1.17565
1.16981
1.16523
1.16196
1.15809
1.15443
1.15385
1.15399
1.15372
1.15152
1.14737
1.14276
1.13936
1.1374
1.1364
1.13553
1.13449
1.13261
1.13052
1.12912
1.1285
1.12836
1.12855
1.12873
1.12886
1.129
1.12934
1.13008
1.13101
1.13128
1.13104
1.13094
1.13064
1.1302
1.12984
1.12979
1.12987
1.13004
1.13044
1.131
1.1312
1.13127
1.13122
1.13107
1.13081
1.13085
1.13142
1.33621
1.33571
1.33452
1.33272
1.33208
1.3314
1.32979
1.32842
1.32693
1.32438
1.3237
1.32302
1.32016
1.31541
1.31274
1.31272
1.31308
1.31246
1.31105
1.31027
1.3091
1.30633
1.3013
1.2974
1.29585
1.29467
1.29259
1.289
1.28422
1.2828
1.28252
1.28137
1.2768
1.27469
1.27537
1.27518
1.27364
1.27194
1.26949
1.26593
1.26283
1.25901
1.25439
1.24962
1.24438
1.23835
1.23375
1.23065
1.22717
1.22191
1.21651
1.21358
1.21175
1.20966
1.20576
1.20097
1.19679
1.19218
1.18377
1.17292
1.17034
1.17038
1.16901
1.16489
1.16005
1.15514
1.14956
1.14532
1.14254
1.1407
1.13835
1.13503
1.13367
1.13431
1.13399
1.13299
1.1328
1.13387
1.13483
1.13504
1.13472
1.13404
1.13295
1.13177
1.13059
1.12988
1.1295
1.1292
1.12922
1.12944
1.12994
1.13083
1.13106
1.13107
1.13094
1.13071
1.13054
1.13056
1.13087
1.13154
1.40116
1.40082
1.40008
1.39791
1.3943
1.39284
1.39255
1.39308
1.3951
1.39555
1.39462
1.39252
1.38953
1.38551
1.38331
1.38336
1.38371
1.38304
1.38182
1.37965
1.37623
1.37586
1.37557
1.37266
1.3694
1.36775
1.36634
1.3638
1.35982
1.35545
1.35226
1.34886
1.34479
1.34147
1.339
1.33526
1.3311
1.32778
1.32249
1.31761
1.31751
1.31767
1.31594
1.3116
1.30674
1.30225
1.29857
1.29503
1.29105
1.28559
1.2763
1.26859
1.26627
1.26385
1.25843
1.25086
1.24723
1.24441
1.24036
1.23473
1.22785
1.21969
1.21194
1.20611
1.20359
1.20163
1.19735
1.18962
1.18141
1.17614
1.17268
1.1684
1.1625
1.15807
1.15399
1.14924
1.14462
1.14191
1.13931
1.13728
1.13468
1.13277
1.13141
1.13066
1.13022
1.12996
1.12976
1.12999
1.13059
1.13113
1.13098
1.13078
1.13062
1.1301
1.12983
1.12988
1.12997
1.13037
1.1311
1.13149
1.47578
1.47527
1.47464
1.47399
1.47286
1.46971
1.46831
1.46794
1.4658
1.46369
1.46311
1.46147
1.46
1.46013
1.45897
1.45534
1.45207
1.44896
1.44811
1.44772
1.44653
1.44286
1.44002
1.43848
1.43649
1.43282
1.43064
1.4299
1.42849
1.42548
1.42242
1.41999
1.41741
1.41439
1.41176
1.4088
1.40496
1.40089
1.3969
1.39284
1.38921
1.38417
1.37872
1.37405
1.36899
1.36036
1.35456
1.35379
1.35278
1.34903
1.34163
1.33453
1.32975
1.32662
1.32142
1.31289
1.30485
1.29615
1.28741
1.28276
1.27777
1.27274
1.26904
1.26189
1.24851
1.23832
1.23352
1.22954
1.22372
1.21348
1.20353
1.197
1.19106
1.18248
1.17405
1.16712
1.16038
1.15388
1.14824
1.14408
1.14043
1.13795
1.13582
1.13485
1.1348
1.13562
1.13556
1.13555
1.1351
1.13385
1.13257
1.13128
1.13023
1.12969
1.12965
1.12982
1.13019
1.1308
1.13132
1.13124
1.55072
1.55059
1.5509
1.55108
1.55031
1.54851
1.54717
1.54476
1.54139
1.54092
1.54117
1.54053
1.53916
1.53657
1.53207
1.53129
1.53151
1.53048
1.52696
1.52335
1.52193