/*--------------------------------*- C++ -*----------------------------------*\
  =========                 |
  \\      /  F ield         | OpenFOAM: The Open Source CFD Toolbox
   \\    /   O peration     | Website:  https://openfoam.org
    \\  /    A nd           | Version:  7
     \\/     M anipulation  |
\*---------------------------------------------------------------------------*/
FoamFile
{
    version     2.0;
    format      ascii;
    class       volScalarField;
    location    "8.5";
    object      p;
}
// * * * * * * * * * * * * * * * * * * * * * * * * * * * * * * * * * * * * * //

dimensions      [1 -1 -2 0 0 0 0];

internalField   nonuniform List<scalar> 
90000
(
0.184679
0.229706
0.266409
0.299074
0.337129
0.36436
0.386192
0.416385
0.446691
0.477009
0.507934
0.543552
0.582338
0.622878
0.665095
0.710236
0.757937
0.805043
0.852514
0.893653
0.932161
0.958987
0.985333
0.989906
0.993448
0.992831
0.990777
0.987294
0.983038
0.976751
0.971502
0.966194
0.966024
0.965351
0.964338
0.962568
0.958796
0.952723
0.944609
0.934348
0.932738
0.936601
0.946648
0.958353
0.971541
0.983289
0.992577
0.995193
0.989353
0.978744
0.966148
0.955795
0.950839
0.950944
0.956059
0.963081
0.970736
0.977642
0.976563
0.973136
0.967315
0.962483
0.961734
0.963786
0.968737
0.974267
0.975438
0.973141
0.968173
0.964572
0.964261
0.967496
0.972467
0.974088
0.97216
0.969264
0.967839
0.969095
0.973405
0.974472
0.972185
0.969404
0.96874
0.970164
0.971238
0.970725
0.970153
0.969787
0.969517
0.969031
0.968625
0.968703
0.9686
0.968116
0.967585
0.967708
0.968688
0.969793
0.97099
0.972455
0.147718
0.147692
0.147666
0.14764
0.14761
0.147582
0.147559
0.147524
0.147577
0.148135
0.149557
0.152786
0.158081
0.166733
0.17864
0.196631
0.21976
0.252094
0.290061
0.338522
0.393095
0.456745
0.523997
0.589408
0.651564
0.706474
0.757731
0.798875
0.837433
0.863814
0.89002
0.906479
0.925117
0.934905
0.945932
0.952454
0.957069
0.956481
0.956129
0.962109
0.974313
0.982951
0.985824
0.98786
0.987995
0.988971
0.985192
0.977012
0.964365
0.953969
0.952262
0.955205
0.960215
0.966028
0.971142
0.975562
0.978179
0.976603
0.972034
0.964881
0.959019
0.958167
0.961564
0.966877
0.973847
0.977046
0.975541
0.97032
0.965352
0.964862
0.967048
0.972167
0.974888
0.973301
0.970492
0.968848
0.970006
0.974166
0.974729
0.972381
0.96918
0.967571
0.968105
0.970602
0.971425
0.970564
0.969949
0.969963
0.969809
0.969068
0.968706
0.96868
0.968525
0.968018
0.967735
0.968325
0.969142
0.970485
0.971561
0.973069
0.147703
0.1477
0.147698
0.147697
0.147698
0.1477
0.147705
0.147713
0.147718
0.147738
0.147713
0.147678
0.14764
0.147604
0.147571
0.147544
0.14752
0.147503
0.147485
0.147484
0.147436
0.148444
0.151894
0.161135
0.176276
0.201431
0.233436
0.277501
0.327457
0.389909
0.455749
0.527225
0.597219
0.666767
0.735403
0.796055
0.857213
0.905606
0.95283
0.982845
0.999932
1.00546
1.00366
1.00029
0.994384
0.983139
0.964899
0.940679
0.93022
0.934822
0.944314
0.954915
0.965007
0.973287
0.978242
0.981248
0.979
0.971558
0.962476
0.958544
0.959372
0.964228
0.972189
0.976355
0.975966
0.973005
0.966842
0.962639
0.961374
0.966335
0.973593
0.976016
0.973518
0.968592
0.966522
0.967375
0.970894
0.976124
0.975387
0.970975
0.968343
0.968733
0.970686
0.971191
0.970233
0.969795
0.969695
0.969379
0.96855
0.968224
0.968647
0.969035
0.968341
0.967811
0.96761
0.968315
0.969538
0.970374
0.971431
0.973474
0.147744
0.147746
0.147747
0.147747
0.147746
0.147745
0.147744
0.14774
0.147736
0.147731
0.147728
0.147726
0.147724
0.147724
0.147722
0.14772
0.147716
0.147714
0.147714
0.147715
0.14772
0.147704
0.147679
0.147656
0.147641
0.147632
0.147632
0.147631
0.147642
0.147629
0.148972
0.155427
0.168175
0.193245
0.227801
0.280249
0.343718
0.426637
0.517986
0.609132
0.695817
0.764471
0.829688
0.867437
0.90355
0.912353
0.923091
0.927078
0.942736
0.955728
0.9706
0.979105
0.986311
0.986891
0.986091
0.981645
0.968192
0.956952
0.952928
0.954797
0.960927
0.969147
0.979288
0.981713
0.977023
0.967964
0.961453
0.961227
0.965965
0.97002
0.977111
0.976009
0.970765
0.967127
0.966954
0.971849
0.976036
0.975
0.97155
0.967017
0.966342
0.967643
0.971427
0.972202
0.970798
0.969656
0.970091
0.970178
0.969554
0.968675
0.968533
0.968474
0.968143
0.967327
0.967815
0.968626
0.969708
0.971435
0.972321
0.973981
0.147787
0.147784
0.14778
0.147775
0.147771
0.147767
0.147762
0.147756
0.147749
0.147742
0.147738
0.147735
0.147732
0.147728
0.147723
0.147718
0.147714
0.147711
0.14771
0.147712
0.147715
0.147718
0.147725
0.147733
0.14774
0.147747
0.147756
0.14776
0.147765
0.147772
0.14776
0.147746
0.147733
0.147723
0.147714
0.147713
0.147697
0.148544
0.153822
0.172384
0.20475
0.261781
0.335931
0.435329
0.54466
0.655534
0.767554
0.855941
0.923096
0.946167
0.963493
0.969865
0.976875
0.978544
0.974726
0.958844
0.945626
0.950007
0.957334
0.969053
0.979016
0.982243
0.980792
0.975899
0.966494
0.958876
0.958757
0.961802
0.970307
0.978992
0.977421
0.970981
0.965182
0.965102
0.967488
0.973568
0.978909
0.975521
0.968438
0.966317
0.96826
0.971226
0.971025
0.970016
0.969532
0.969726
0.969246
0.968558
0.968066
0.968475
0.969069
0.96857
0.967949
0.967952
0.968142
0.96992
0.970377
0.970384
0.972104
0.974154
0.14776
0.147754
0.147749
0.147746
0.147744
0.147742
0.147738
0.147733
0.147726
0.147722
0.147719
0.147718
0.147717
0.147716
0.147714
0.147712
0.147712
0.147714
0.147717
0.147724
0.147729
0.147733
0.147737
0.147742
0.147743
0.147744
0.147745
0.147744
0.147742
0.147737
0.147729
0.147721
0.147713
0.147703
0.147694
0.147689
0.147681
0.14766
0.147637
0.147621
0.147609
0.14761
0.147603
0.149109
0.15827
0.189864
0.245879
0.342667
0.459559
0.582321
0.696698
0.775196
0.850701
0.883861
0.914442
0.92117
0.942381
0.962366
0.984554
0.996344
0.993071
0.984282
0.973681
0.957476
0.954027
0.95587
0.962401
0.974144
0.985495
0.983306
0.973485
0.963074
0.962269
0.965142
0.975088
0.980563
0.978451
0.970296
0.964547
0.965372
0.968945
0.97356
0.972442
0.96965
0.968859
0.969449
0.969704
0.968851
0.968404
0.968133
0.968349
0.968066
0.967208
0.967085
0.968155
0.968917
0.971005
0.972131
0.972612
0.974556
0.147712
0.14771
0.14771
0.147709
0.147709
0.147709
0.147706
0.147703
0.147701
0.1477
0.1477
0.147701
0.147703
0.147704
0.147705
0.147707
0.14771
0.147714
0.147719
0.147727
0.147732
0.147734
0.147735
0.147734
0.147732
0.147728
0.147725
0.147719
0.147711
0.147701
0.147688
0.147675
0.147662
0.147648
0.147635
0.147628
0.147616
0.147604
0.147601
0.147611
0.147629
0.147654
0.14768
0.147685
0.147699
0.147715
0.147739
0.147746
0.149917
0.170256
0.212998
0.297184
0.407082
0.541695
0.683138
0.802453
0.904489
0.942393
0.967622
0.976264
0.980926
0.977719
0.959183
0.946074
0.951509
0.967161
0.980139
0.986152
0.984738
0.972148
0.960671
0.958941
0.963098
0.975854
0.983579
0.980806
0.970432
0.9638
0.963592
0.968337
0.973593
0.973323
0.970824
0.968962
0.96897
0.969914
0.969599
0.968214
0.968156
0.969144
0.968823
0.967869
0.967624
0.967694
0.969223
0.969901
0.969749
0.97152
0.973039
0.974681
0.147699
0.1477
0.147701
0.147702
0.147703
0.147704
0.147705
0.147705
0.147706
0.147708
0.147711
0.147714
0.147717
0.14772
0.147724
0.147728
0.147731
0.147735
0.14774
0.147743
0.147744
0.147743
0.147738
0.14773
0.147723
0.147718
0.147712
0.147702
0.147689
0.147677
0.147665
0.147651
0.147638
0.147626
0.147616
0.147611
0.147612
0.14762
0.147636
0.147656
0.147678
0.1477
0.147717
0.147733
0.147759
0.147786
0.147807
0.147826
0.147843
0.147843
0.147833
0.147806
0.147748
0.161722
0.200417
0.294978
0.426504
0.574586
0.717439
0.805078
0.892321
0.913247
0.931602
0.946617
0.976786
0.996871
0.99692
0.993381
0.972194
0.953023
0.954037
0.961947
0.977428
0.98977
0.986742
0.971024
0.960983
0.960567
0.966696
0.975377
0.975361
0.972563
0.968238
0.968009
0.969748
0.970504
0.969051
0.967847
0.968281
0.969198
0.968799
0.967403
0.967266
0.968076
0.969394
0.970939
0.971306
0.972248
0.973531
0.975238
0.147737
0.147739
0.14774
0.147742
0.147743
0.147744
0.147746
0.147747
0.147749
0.147752
0.147755
0.147758
0.14776
0.147762
0.147765
0.147766
0.147767
0.147767
0.147767
0.147764
0.147763
0.147756
0.147745
0.147732
0.147722
0.147715
0.14771
0.147702
0.14769
0.147677
0.147665
0.147654
0.147645
0.147636
0.14763
0.147631
0.147638
0.147653
0.147675
0.1477
0.147723
0.147739
0.147745
0.147753
0.14777
0.147786
0.1478
0.147817
0.147833
0.14784
0.147834
0.147815
0.147781
0.147748
0.147737
0.147727
0.148332
0.170874
0.226802
0.343653
0.500613
0.667935
0.832443
0.924037
0.966401
0.980268
0.985355
0.974522
0.942782
0.947923
0.962302
0.980269
0.989498
0.987877
0.972809
0.957528
0.957534
0.964209
0.975761
0.977238
0.97456
0.967842
0.966065
0.969478
0.971392
0.969801
0.967249
0.967587
0.969448
0.969526
0.967992
0.966822
0.967395
0.969324
0.970166
0.970625
0.971538
0.97269
0.973565
0.975221
0.147781
0.147782
0.147783
0.147783
0.147784
0.147784
0.147782
0.14778
0.147779
0.147778
0.147779
0.147779
0.147778
0.147776
0.147774
0.147771
0.14777
0.147767
0.147761
0.147754
0.147748
0.147739
0.147727
0.147714
0.147703
0.147694
0.147688
0.147681
0.147674
0.147667
0.147659
0.147652
0.147648
0.147644
0.147645
0.147655
0.14767
0.147688
0.147709
0.14773
0.147745
0.147746
0.147741
0.147738
0.147742
0.147753
0.147765
0.147777
0.147789
0.147799
0.147801
0.147794
0.147777
0.147768
0.147762
0.14776
0.147751
0.147758
0.147791
0.147799
0.154231
0.202751
0.307976
0.48129
0.657693
0.778344
0.882573
0.911301
0.931108
0.961936
0.994722
1.00161
0.997217
0.971713
0.951244
0.952851
0.962773
0.978106
0.982456
0.97796
0.967218
0.964371
0.968395
0.972659
0.970925
0.967439
0.96657
0.968906
0.970481
0.968936
0.966539
0.966778
0.968406
0.970082
0.970071
0.970749
0.972539
0.973714
0.974011
0.975777
0.147778
0.147776
0.147774
0.147772
0.147769
0.147767
0.147765
0.14776
0.147755
0.14775
0.147747
0.147746
0.147743
0.147738
0.147733
0.147728
0.147725
0.147721
0.147715
0.147708
0.147701
0.147695
0.147688
0.147682
0.147675
0.147671
0.147669
0.147666
0.147662
0.14766
0.147658
0.147658
0.147664
0.14767
0.147679
0.147694
0.14771
0.147722
0.147734
0.147745
0.147742
0.147735
0.147726
0.147715
0.147708
0.147711
0.147722
0.147731
0.147741
0.14776
0.147766
0.147779
0.147804
0.147803
0.147786
0.147775
0.147776
0.147787
0.147806
0.147814
0.147809
0.147791
0.14777
0.155403
0.194951
0.307033
0.478719
0.681187
0.865191
0.949899
0.985415
0.987798
0.975155
0.937566
0.944598
0.963508
0.978765
0.984618
0.980169
0.966334
0.962226
0.965561
0.973646
0.972778
0.969472
0.965533
0.966952
0.97062
0.970227
0.967275
0.966106
0.967416
0.969575
0.970292
0.970493
0.97131
0.97307
0.973905
0.973981
0.976154
0.147709
0.147705
0.147702
0.147699
0.147695
0.147694
0.147693
0.147687
0.14768
0.147674
0.147669
0.147665
0.147664
0.147663
0.147661
0.147661
0.14766
0.147659
0.14766
0.147662
0.147662
0.147664
0.147668
0.147671
0.147675
0.147679
0.147683
0.147685
0.147685
0.147688
0.147689
0.147693
0.147705
0.147717
0.14773
0.147745
0.147749
0.14775
0.147756
0.14775
0.147736
0.147727
0.147715
0.147701
0.147693
0.147692
0.147699
0.147711
0.147723
0.147737
0.147764
0.14784
0.147879
0.147873
0.147839
0.147796
0.147785
0.147785
0.147799
0.147808
0.147805
0.147787
0.147802
0.147845
0.147962
0.148075
0.153648
0.20657
0.34901
0.54617
0.726739
0.84578
0.909606
0.922664
0.964194
0.993546
0.993082
0.987926
0.963674
0.956124
0.960697
0.974726
0.97725
0.971835
0.964168
0.96497
0.970217
0.971798
0.969554
0.96595
0.966311
0.968927
0.970196
0.970361
0.970805
0.972236
0.973287
0.974036
0.974434
0.977539
0.147642
0.14764
0.147637
0.147635
0.147632
0.147628
0.147627
0.147626
0.147622
0.147617
0.147614
0.147611
0.147612
0.147617
0.147624
0.147634
0.147642
0.14765
0.14766
0.147672
0.147683
0.147694
0.14771
0.147723
0.147732
0.147742
0.147753
0.147761
0.14777
0.147771
0.147768
0.147767
0.147773
0.14778
0.147791
0.147796
0.147793
0.147788
0.147782
0.147771
0.147758
0.147754
0.147747
0.147726
0.147712
0.147708
0.147711
0.147727
0.147745
0.147761
0.147801
0.147902
0.147936
0.14793
0.147887
0.147809
0.147781
0.147773
0.147783
0.147814
0.147826
0.147848
0.147902
0.147986
0.148152
0.148355
0.148406
0.148403
0.148357
0.164773
0.243488
0.410299
0.648993
0.846364
0.953218
0.981159
0.986425
0.965188
0.945913
0.956937
0.974336
0.982106
0.976174
0.96059
0.961221
0.96826
0.973911
0.972217
0.964857
0.964197
0.967678
0.970784
0.970598
0.9705
0.971305
0.973435
0.973824
0.974194
0.974749
0.978821
0.147618
0.147617
0.147617
0.147618
0.147619
0.147619
0.14762
0.147622
0.147623
0.147627
0.147633
0.14764
0.147649
0.14766
0.147675
0.147689
0.147701
0.147716
0.147738
0.147757
0.147769
0.147782
0.147803
0.147825
0.147833
0.14784
0.147847
0.147854
0.147861
0.14786
0.147851
0.147835
0.14782
0.147814
0.147814
0.147816
0.147814
0.147807
0.147799
0.147791
0.147787
0.147786
0.147781
0.147768
0.147763
0.147762
0.147763
0.147779
0.147793
0.1478
0.147842
0.147942
0.147959
0.147952
0.1479
0.147796
0.147756
0.147752
0.147766
0.147824
0.147936
0.148043
0.148087
0.148139
0.148276
0.14841
0.148435
0.148421
0.148316
0.148108
0.14775
0.148601
0.186671
0.344794
0.564712
0.737501
0.894467
0.9088
0.949249
0.982488
0.991462
0.986547
0.958079
0.954559
0.962566
0.975972
0.975286
0.966825
0.961466
0.964593
0.971435
0.971547
0.97034
0.970566
0.972372
0.974145
0.974133
0.974213
0.975446
0.980534
0.147616
0.147617
0.147622
0.147628
0.147632
0.147635
0.14764
0.147647
0.147654
0.147664
0.147678
0.147695
0.147713
0.147732
0.147752
0.147766
0.147778
0.147792
0.147811
0.147825
0.147834
0.147844
0.147859
0.147871
0.147875
0.147877
0.147882
0.147883
0.147883
0.147886
0.147881
0.147864
0.147834
0.147815
0.14781
0.147809
0.147807
0.147802
0.147797
0.147794
0.147797
0.147798
0.147805
0.147835
0.147851
0.147838
0.147823
0.147826
0.147843
0.147862
0.147903
0.147963
0.147965
0.147946
0.147881
0.14778
0.147748
0.147748
0.14777
0.147884
0.148158
0.148316
0.148305
0.148302
0.14836
0.148423
0.148394
0.148295
0.148097
0.1478
0.147585
0.14752
0.147524
0.1476
0.165839
0.274104
0.487294
0.728328
0.924066
0.972301
0.982907
0.964169
0.937347
0.955403
0.979121
0.979698
0.97018
0.958303
0.96023
0.971436
0.973449
0.97132
0.969495
0.970837
0.973983
0.974677
0.97406
0.974418
0.976974
0.982361
0.147702
0.147708
0.147716
0.147723
0.147727
0.147733
0.147743
0.147753
0.14776
0.147768
0.147778
0.147788
0.147798
0.147814
0.14783
0.147834
0.147835
0.147839
0.147842
0.147848
0.147854
0.147857
0.147858
0.147859
0.147858
0.147858
0.14786
0.14786
0.147857
0.147861
0.147865
0.147851
0.147811
0.147785
0.147779
0.147784
0.147788
0.147787
0.147788
0.147791
0.147791
0.147806
0.147867
0.147942
0.147951
0.147923
0.147871
0.147855
0.147855
0.147867
0.147912
0.147913
0.147896
0.147884
0.147848
0.147767
0.147755
0.147786
0.147866
0.148076
0.148413
0.148485
0.148469
0.148418
0.148399
0.148358
0.148223
0.148012
0.147756
0.147562
0.147505
0.147514
0.147627
0.147911
0.148274
0.148358
0.154294
0.246736
0.449739
0.669672
0.864066
0.902212
0.937025
0.990575
0.993141
0.982366
0.953927
0.955005
0.96773
0.97728
0.973417
0.9682
0.969094
0.973512
0.975298
0.974164
0.97366
0.974753
0.979544
0.983687
0.147844
0.147845
0.147847
0.147849
0.14785
0.147852
0.147853
0.147852
0.147849
0.147842
0.147831
0.147825
0.147825
0.147835
0.147851
0.147852
0.14785
0.147842
0.14783
0.147821
0.147816
0.14781
0.147806
0.147804
0.147806
0.147816
0.147825
0.14783
0.147832
0.147837
0.147846
0.147838
0.147805
0.14779
0.147787
0.147793
0.147799
0.147803
0.147814
0.14783
0.147849
0.147897
0.147977
0.148017
0.148019
0.14799
0.147906
0.147861
0.147847
0.147846
0.147872
0.147876
0.147857
0.147859
0.147842
0.147803
0.147829
0.147918
0.148061
0.148333
0.148563
0.148581
0.148557
0.148479
0.148381
0.148203
0.147954
0.14769
0.147467
0.147431
0.147466
0.147591
0.147897
0.148241
0.148445
0.148441
0.148246
0.147653
0.149954
0.222324
0.413834
0.688007
0.905252
0.981774
0.981933
0.950115
0.943532
0.963548
0.98066
0.978124
0.965971
0.966555
0.972001
0.975915
0.974846
0.97321
0.973589
0.977717
0.982205
0.984457
0.147929
0.147926
0.147923
0.147919
0.147913
0.147907
0.147899
0.147891
0.14788
0.147864
0.147843
0.147825
0.147814
0.147805
0.147797
0.147789
0.147783
0.14778
0.147779
0.147776
0.147775
0.147775
0.147775
0.147777
0.147787
0.147807
0.147826
0.147841
0.147857
0.147876
0.147898
0.147906
0.147903
0.147898
0.147901
0.147906
0.147893
0.147883
0.147891
0.147905
0.147921
0.147968
0.148024
0.148041
0.14804
0.148014
0.147924
0.147843
0.147821
0.147824
0.147838
0.147828
0.147831
0.147866
0.147922
0.147964
0.148023
0.148108
0.148249
0.148476
0.148602
0.148611
0.148578
0.148449
0.148214
0.147883
0.147653
0.147444
0.14734
0.147356
0.147439
0.147802
0.148247
0.148427
0.148487
0.148313
0.147772
0.147249
0.147056
0.147103
0.147805
0.218602
0.426813
0.679818
0.848278
0.90679
0.945904
0.995069
0.990894
0.968486
0.960348
0.96718
0.977548
0.977041
0.973084
0.97251
0.9754
0.981801
0.984357
0.984745
0.147907
0.147895
0.147872
0.147849
0.147832
0.147817
0.147801
0.14778
0.147761
0.147748
0.147739
0.147736
0.147736
0.147737
0.147735
0.147731
0.147733
0.147739
0.14775
0.147755
0.147755
0.14776
0.147763
0.147763
0.147773
0.147803
0.147851
0.147903
0.147951
0.147986
0.148011
0.148033
0.148036
0.148023
0.148008
0.147978
0.147935
0.147929
0.147936
0.147934
0.147935
0.147966
0.147971
0.147956
0.14794
0.147923
0.147873
0.147827
0.147818
0.147826
0.14781
0.147802
0.147856
0.148016
0.148192
0.148258
0.148248
0.148272
0.148365
0.14851
0.148579
0.148532
0.148372
0.148132
0.147789
0.147479
0.147389
0.147326
0.147295
0.147307
0.147576
0.148174
0.148435
0.148495
0.148266
0.147787
0.147224
0.146972
0.146996
0.147313
0.147933
0.147955
0.149907
0.215437
0.426345
0.740175
0.920113
0.984904
0.978202
0.950172
0.963472
0.979157
0.980193
0.975252
0.97107
0.97253
0.979672
0.984363
0.984844
0.984937
0.147824
0.14781
0.147777
0.147761
0.14776
0.147758
0.147747
0.147728
0.147715
0.147714
0.147714
0.147717
0.147726
0.147728
0.14773
0.147735
0.147743
0.147759
0.147787
0.147794
0.147799
0.147824
0.147848
0.147858
0.147883
0.147948
0.148026
0.148074
0.1481
0.148118
0.148129
0.148127
0.148112
0.148085
0.148046
0.147983
0.147941
0.147944
0.147945
0.14791
0.147834
0.14778
0.14776
0.147741
0.147743
0.147787
0.147832
0.147857
0.147886
0.147889
0.147899
0.147951
0.148067
0.148252
0.148439
0.148454
0.148403
0.148368
0.148409
0.14844
0.148345
0.148084
0.14783
0.147615
0.147317
0.147203
0.147199
0.147236
0.147266
0.147507
0.148036
0.148472
0.148498
0.148247
0.147712
0.147224
0.146929
0.146925
0.147195
0.147848
0.148258
0.148124
0.147674
0.147429
0.149978
0.238741
0.475163
0.76709
0.863214
0.930477
0.989018
0.987121
0.978525
0.968035
0.969087
0.978255
0.985815
0.985086
0.984113
0.984815
0.147782
0.147778
0.147778
0.14778
0.147785
0.147794
0.147802
0.14781
0.147818
0.147826
0.147833
0.147845
0.14786
0.147871
0.14788
0.147887
0.147897
0.147915
0.147917
0.147908
0.147902
0.147909
0.147935
0.147947
0.14797
0.148055
0.148142
0.148152
0.14815
0.14815
0.148153
0.14815
0.148132
0.148094
0.148031
0.147951
0.147932
0.147917
0.14785
0.147723
0.147588
0.147502
0.147488
0.147488
0.147534
0.147666
0.147796
0.147894
0.147978
0.148024
0.148082
0.14815
0.148217
0.148346
0.14847
0.148472
0.148427
0.148365
0.148269
0.148063
0.147659
0.147364
0.147287
0.147213
0.147085
0.147085
0.147101
0.147221
0.14762
0.148156
0.148569
0.148552
0.148358
0.147711
0.14723
0.146935
0.146875
0.14714
0.147966
0.148672
0.148597
0.148017
0.147639
0.147991
0.148947
0.149108
0.16031
0.263086
0.538494
0.840585
0.957078
0.979271
0.974201
0.962075
0.975617
0.985882
0.985114
0.984318
0.984765
0.985785
0.147989
0.14799
0.147989
0.147987
0.147987
0.147982
0.147971
0.14797
0.147968
0.147964
0.147958
0.147953
0.14795
0.14795
0.147949
0.147946
0.147943
0.14794
0.147931
0.147901
0.147886
0.147884
0.147883
0.147888
0.147927
0.147983
0.147989
0.147987
0.147988
0.14799
0.147996
0.148013
0.14801
0.147945
0.147865
0.14786
0.147843
0.147765
0.147615
0.147438
0.14729
0.147247
0.14725
0.147261
0.147352
0.147527
0.147702
0.147977
0.148215
0.148263
0.148266
0.14823
0.148229
0.148302
0.148348
0.148309
0.148186
0.148015
0.147814
0.147459
0.147055
0.146994
0.147033
0.14707
0.147073
0.147111
0.147311
0.147885
0.148505
0.148894
0.148778
0.148464
0.14789
0.147301
0.147079
0.14687
0.147339
0.148448
0.14946
0.149415
0.148919
0.148084
0.148766
0.150489
0.151844
0.151664
0.151616
0.152016
0.176852
0.326501
0.603331
0.853777
0.927625
0.958642
0.995142
0.988838
0.982914
0.984336
0.985744
0.98593
0.148006
0.148006
0.148003
0.148
0.147993
0.147966
0.147924
0.147911
0.147911
0.147907
0.147889
0.147859
0.147824
0.147786
0.147753
0.14773
0.147708
0.147676
0.147624
0.147535
0.147484
0.147469
0.147462
0.14746
0.147464
0.147485
0.147493
0.147484
0.147477
0.147482
0.147527
0.147568
0.147569
0.147545
0.147504
0.147495
0.147499
0.147464
0.14734
0.147178
0.147145
0.147149
0.14717
0.147267
0.14744
0.147653
0.147958
0.14841
0.148571
0.148569
0.148455
0.148194
0.148062
0.147998
0.147912
0.147826
0.147751
0.147673
0.147519
0.147189
0.146928
0.146932
0.146991
0.147126
0.147419
0.147825
0.148382
0.148952
0.149347
0.149216
0.148728
0.148108
0.147572
0.147261
0.147108
0.148098
0.149631
0.150803
0.150714
0.15017
0.149453
0.150551
0.152132
0.153641
0.154043
0.154674
0.155785
0.157612
0.158564
0.159046
0.203196
0.401746
0.731651
0.914579
0.987421
0.980199
0.982769
0.984565
0.985289
0.986544
0.14762
0.147587
0.147546
0.14751
0.147464
0.147393
0.147374
0.147373
0.147362
0.147336
0.1473
0.147269
0.147251
0.147224
0.147205
0.147202
0.147202
0.1472
0.147189
0.147154
0.147137
0.147134
0.147134
0.147139
0.147159
0.147197
0.147237
0.147249
0.147247
0.147254
0.147321
0.147413
0.147436
0.14744
0.147432
0.147443
0.147497
0.147553
0.147605
0.147694
0.147784
0.147843
0.147925
0.148048
0.148213
0.148413
0.148777
0.148865
0.148841
0.148788
0.148654
0.148286
0.147965
0.147806
0.147605
0.147557
0.147608
0.147598
0.147481
0.147191
0.147024
0.147075
0.147377
0.148024
0.148932
0.149519
0.149973
0.149983
0.149884
0.149199
0.1485
0.147875
0.14788
0.14855
0.150393
0.152161
0.153135
0.152867
0.1519
0.15186
0.153503
0.156158
0.157319
0.157267
0.157952
0.159719
0.161333
0.162848
0.164324
0.165313
0.165891
0.167434
0.254301
0.511293
0.828952
0.903141
0.979198
0.985503
0.984139
0.985867
0.147313
0.147292
0.147271
0.147243
0.147213
0.147207
0.147207
0.147205
0.147199
0.147195
0.147185
0.147167
0.14716
0.14716
0.147162
0.147166
0.14717
0.14718
0.147189
0.14718
0.147168
0.147168
0.147175
0.147188
0.147216
0.147269
0.147345
0.1474
0.147414
0.14744
0.147518
0.147633
0.147778
0.147905
0.148005
0.148178
0.148401
0.148544
0.148673
0.148792
0.148874
0.148915
0.148959
0.149009
0.149082
0.149194
0.149242
0.149189
0.149014
0.148782
0.148538
0.148191
0.147955
0.147784
0.147617
0.147578
0.147649
0.147732
0.147863
0.148103
0.148528
0.149189
0.150043
0.150938
0.151364
0.1513
0.151137
0.150792
0.15014
0.149074
0.149264
0.150184
0.15231
0.154382
0.156411
0.156327
0.155898
0.155542
0.156129
0.158476
0.160461
0.162021
0.162412
0.163087
0.164013
0.165165
0.166717
0.168253
0.170235
0.171787
0.172861
0.174568
0.17534
0.194679
0.338376
0.64214
0.911454
0.949562
0.980881
0.989789
0.147315
0.147309
0.147301
0.147297
0.147293
0.147298
0.147305
0.147308
0.147319
0.147326
0.147335
0.147358
0.147408
0.147475
0.147531
0.147584
0.147658
0.147762
0.147884
0.148019
0.148168
0.148304
0.148381
0.148429
0.148503
0.148646
0.148819
0.148954
0.148998
0.14902
0.149068
0.149193
0.149389
0.149513
0.149569
0.149664
0.149822
0.149844
0.149821
0.149818
0.149835
0.149835
0.149833
0.149769
0.1496
0.149431
0.149219
0.149041
0.148873
0.148654
0.148475
0.148384
0.148304
0.148246
0.148371
0.148718
0.149296
0.150136
0.151109
0.15209
0.152909
0.153557
0.154028
0.154026
0.153565
0.152944
0.152406
0.152288
0.152751
0.154434
0.156715
0.158956
0.160301
0.161196
0.160998
0.160521
0.16074
0.161926
0.164202
0.166838
0.167207
0.167433
0.168422
0.170044
0.171583
0.173088
0.17501
0.176219
0.177046
0.178086
0.179362
0.181022
0.18245
0.183426
0.184325
0.242485
0.470062
0.748624
0.931866
0.978731
0.148799
0.148865
0.148935
0.149008
0.149186
0.149397
0.149477
0.149559
0.14966
0.149743
0.149826
0.149939
0.150101
0.150234
0.150282
0.150331
0.150413
0.150525
0.150656
0.150832
0.151006
0.15106
0.151055
0.151041
0.151046
0.151068
0.151086
0.15108
0.151033
0.150986
0.150989
0.150997
0.150989
0.150948
0.150871
0.150794
0.150689
0.150515
0.150447
0.150441
0.150409
0.150338
0.150213
0.149885
0.14971
0.149702
0.149628
0.149659
0.149749
0.150002
0.15064
0.15153
0.152457
0.153487
0.154435
0.155309
0.15623
0.157051
0.157641
0.158084
0.158235
0.158209
0.158279
0.158133
0.158099
0.158449
0.159524
0.161255
0.163146
0.164817
0.166035
0.167081
0.166848
0.166442
0.166581
0.167574
0.169268
0.171302
0.173017
0.173855
0.174652
0.175465
0.176512
0.177671
0.178996
0.180787
0.182182
0.183024
0.184016
0.185264
0.186748
0.188801
0.190408
0.190986
0.192409
0.19329
0.200173
0.335691
0.611805
0.908545
0.152781
0.152771
0.15277
0.152769
0.152754
0.15272
0.152715
0.152725
0.152706
0.152689
0.152702
0.152726
0.152717
0.152678
0.152666
0.152676
0.152675
0.152696
0.152733
0.152688
0.152674
0.152686
0.152667
0.152683
0.152632
0.152432
0.152436
0.152376
0.152204
0.152133
0.151909
0.151749
0.151663
0.151545
0.151547
0.151635
0.151865
0.15201
0.152218
0.152666
0.153341
0.154102
0.154843
0.155527
0.156264
0.157078
0.157904
0.158784
0.15977
0.160931
0.162013
0.162915
0.163708
0.164456
0.164831
0.165003
0.165139
0.165036
0.164798
0.164812
0.164782
0.164852
0.165269
0.166263
0.167628
0.169053
0.170443
0.171886
0.173087
0.173242
0.173393
0.173682
0.173964
0.17452
0.175893
0.177735
0.179565
0.181271
0.181607
0.181892
0.182773
0.184052
0.185262
0.186422
0.187811
0.188932
0.190085
0.191346
0.192583
0.193922
0.195014
0.196185
0.198024
0.19862
0.199079
0.200686
0.202082
0.202652
0.237377
0.589847
0.157999
0.15806
0.158139
0.15823
0.158346
0.158455
0.158553
0.158648
0.158751
0.158862
0.158984
0.159144
0.159336
0.159522
0.159696
0.159884
0.160105
0.160321
0.160531
0.160789
0.161123
0.161459
0.161801
0.16216
0.1625
0.162896
0.163303
0.163642
0.164005
0.164445
0.164926
0.165341
0.165748
0.166327
0.166838
0.167243
0.167712
0.168302
0.168957
0.169431
0.169794
0.170244
0.170727
0.17115
0.171517
0.171872
0.172156
0.172202
0.172203
0.172311
0.172278
0.172168
0.172157
0.172247
0.172228
0.172033
0.172174
0.172305
0.17249
0.173023
0.173952
0.175182
0.176733
0.178331
0.179627
0.180738
0.181405
0.182092
0.182577
0.182544
0.182635
0.183264
0.184595
0.18627
0.18758
0.188528
0.189501
0.189936
0.19051
0.191288
0.192151
0.193457
0.194558
0.195885
0.197626
0.198266
0.198971
0.199839
0.200376
0.201175
0.202831
0.203914
0.205272
0.206918
0.208175
0.208901
0.209575
0.211175
0.211688
0.271808
0.173709
0.173824
0.173865
0.173877
0.173919
0.174036
0.174244
0.174446
0.174501
0.174511
0.174561
0.174745
0.175008
0.175128
0.17517
0.175217
0.175349
0.175469
0.175547
0.175633
0.17577
0.175917
0.176055
0.176229
0.176423
0.1766
0.176772
0.176917
0.177073
0.177333
0.1775
0.177601
0.177751
0.177895
0.177864
0.177857
0.177952
0.17813
0.178114
0.177871
0.17779
0.177936
0.177983
0.177971
0.177986
0.177997
0.178059
0.178006
0.178012
0.178279
0.178663
0.178912
0.179356
0.180257
0.18145
0.182793
0.184096
0.185426
0.186934
0.188269
0.18945
0.190554
0.191468
0.192152
0.192275
0.192129
0.192122
0.19241
0.192924
0.193383
0.194057
0.194863
0.196105
0.197441
0.198417
0.199252
0.199499
0.19996
0.200753
0.201767
0.20279
0.203827
0.205055
0.205803
0.20646
0.20748
0.207833
0.208557
0.20997
0.21166
0.213053
0.213468
0.213666
0.214637
0.215924
0.216565
0.217822
0.218896
0.219729
0.220712
0.186922
0.186942
0.186991
0.18703
0.18701
0.187008
0.187121
0.187181
0.187247
0.187471
0.187507
0.187521
0.187636
0.187637
0.187639
0.187763
0.187833
0.187822
0.187844
0.187908
0.188014
0.188097
0.188085
0.18807
0.188101
0.18825
0.188456
0.188462
0.18846
0.18852
0.188706
0.188947
0.189153
0.189395
0.1897
0.190082
0.190548
0.191056
0.191607
0.192235
0.192912
0.193545
0.194149
0.194728
0.195329
0.195994
0.196679
0.197363
0.198005
0.198682
0.199474
0.200267
0.201004
0.201685
0.202273
0.202751
0.2032
0.203251
0.203194
0.203075
0.203014
0.203054
0.203061
0.203057
0.202765
0.202541
0.202651
0.203273
0.204412
0.2058
0.207031
0.207955
0.208883
0.209373
0.209967
0.210327
0.210615
0.211061
0.211699
0.212682
0.21363
0.214395
0.215556
0.216124
0.216316
0.216987
0.218127
0.219119
0.219938
0.221246
0.221568
0.221874
0.222546
0.223396
0.224439
0.226085
0.227071
0.227526
0.22827
0.229784
0.20452
0.204524
0.204554
0.204605
0.204661
0.204724
0.204801
0.20488
0.204991
0.20519
0.205353
0.205465
0.205607
0.205814
0.205953
0.206066
0.206158
0.20626
0.206511
0.206712
0.206735
0.206829
0.207061
0.20728
0.207481
0.207727
0.208165
0.208424
0.208532
0.208687
0.208927
0.209213
0.209556
0.209869
0.210049
0.21017
0.210346
0.210497
0.210568
0.210645
0.210739
0.210854
0.211007
0.211187
0.211386
0.211623
0.211863
0.211938
0.211996
0.212065
0.212014
0.211737
0.211339
0.211233
0.211107
0.210904
0.210958
0.210792
0.210499
0.210521
0.210683
0.211052
0.211748
0.212758
0.214146
0.215674
0.217032
0.218264
0.219312
0.220304
0.220741
0.221259
0.221165
0.221063
0.221006
0.221234
0.221841
0.222555
0.223544
0.224661
0.225654
0.226444
0.226796
0.227491
0.227957
0.228234
0.22894
0.230181
0.23068
0.231034
0.231725
0.232864
0.233875
0.234499
0.235126
0.235509
0.235678
0.236404
0.237259
0.238392
0.222139
0.222224
0.222349
0.222348
0.222255
0.222192
0.222127
0.222009
0.222006
0.222246
0.222413
0.222363
0.222349
0.222391
0.222452
0.222502
0.222535
0.222541
0.222527
0.222526
0.222559
0.222583
0.222574
0.222563
0.222599
0.222744
0.222894
0.222911
0.222912
0.222968
0.223024
0.223018
0.223029
0.223134
0.223287
0.223304
0.223174
0.223133
0.223366
0.223501
0.223419
0.223433
0.223517
0.22347
0.223289
0.223275
0.223443
0.223798
0.224165
0.224538
0.22497
0.225532
0.226232
0.227035
0.227792
0.228438
0.229046
0.229778
0.23068
0.231772
0.232874
0.233741
0.234369
0.234858
0.235215
0.235265
0.235319
0.235289
0.235109
0.234568
0.234149
0.233909
0.233855
0.234066
0.23465
0.235578
0.236725
0.237703
0.238636
0.239045
0.239393
0.239304
0.239081
0.239173
0.239711
0.240323
0.24099
0.241733
0.242393
0.242747
0.242885
0.243227
0.243421
0.243867
0.244304
0.244754