/*--------------------------------*- C++ -*----------------------------------*\
  =========                 |
  \\      /  F ield         | OpenFOAM: The Open Source CFD Toolbox
   \\    /   O peration     | Website:  https://openfoam.org
    \\  /    A nd           | Version:  7
     \\/     M anipulation  |
\*---------------------------------------------------------------------------*/
FoamFile
{
    version     2.0;
    format      ascii;
    class       volVectorField;
    location    "9";
    object      U;
}
// * * * * * * * * * * * * * * * * * * * * * * * * * * * * * * * * * * * * * //

dimensions      [0 1 -1 0 0 0 0];

internalField   nonuniform List<vector> 
90000
(
(3.98452 -1.39239 0)
(3.93375 -1.28177 0)
(3.8892 -1.03509 0)
(3.86984 -0.973341 0)
(3.86782 -0.951011 0)
(3.84195 -0.799315 0)
(3.84163 -0.661019 0)
(3.85408 -0.658005 0)
(3.85523 -0.592528 0)
(3.85285 -0.515445 0)
(3.8554 -0.445815 0)
(3.86513 -0.403667 0)
(3.8681 -0.347846 0)
(3.87182 -0.30505 0)
(3.87314 -0.239722 0)
(3.87959 -0.210825 0)
(3.8782 -0.148776 0)
(3.88363 -0.119272 0)
(3.8814 -0.0577279 0)
(3.88576 -0.0293527 0)
(3.88496 0.0242887 0)
(3.8891 0.0530844 0)
(3.89137 0.0947397 0)
(3.89784 0.122702 0)
(3.89892 0.150538 0)
(3.89924 0.161572 0)
(3.89719 0.165661 0)
(3.89284 0.165969 0)
(3.89122 0.166112 0)
(3.89079 0.160957 0)
(3.88886 0.159536 0)
(3.89112 0.149086 0)
(3.88752 0.142146 0)
(3.89104 0.12537 0)
(3.88888 0.120964 0)
(3.89016 0.109137 0)
(3.88503 0.100583 0)
(3.88129 0.0931101 0)
(3.87471 0.0910296 0)
(3.86873 0.0933059 0)
(3.86407 0.0981502 0)
(3.85893 0.106267 0)
(3.85478 0.114225 0)
(3.85698 0.128328 0)
(3.85811 0.131782 0)
(3.85928 0.130772 0)
(3.86092 0.127194 0)
(3.85887 0.122868 0)
(3.85785 0.117102 0)
(3.85709 0.109961 0)
(3.85689 0.101347 0)
(3.85759 0.0926169 0)
(3.86127 0.0859763 0)
(3.86305 0.0893556 0)
(3.86541 0.0979696 0)
(3.8675 0.107449 0)
(3.87231 0.122046 0)
(3.87088 0.131384 0)
(3.87864 0.137726 0)
(3.87937 0.138901 0)
(3.87911 0.134776 0)
(3.87784 0.127573 0)
(3.87859 0.117624 0)
(3.87864 0.101926 0)
(3.87939 0.0966192 0)
(3.87967 0.101166 0)
(3.88376 0.114382 0)
(3.88439 0.12683 0)
(3.89148 0.136979 0)
(3.89181 0.136571 0)
(3.89252 0.132221 0)
(3.89345 0.122894 0)
(3.89569 0.108526 0)
(3.8963 0.112411 0)
(3.89829 0.121376 0)
(3.90362 0.138245 0)
(3.90442 0.140902 0)
(3.90447 0.136419 0)
(3.90484 0.123693 0)
(3.90647 0.118155 0)
(3.90865 0.123529 0)
(3.91219 0.134484 0)
(3.91296 0.135703 0)
(3.91305 0.132376 0)
(3.91423 0.118217 0)
(3.91552 0.12145 0)
(3.91629 0.127264 0)
(3.9189 0.132409 0)
(3.91884 0.131671 0)
(3.91838 0.12649 0)
(3.91847 0.121146 0)
(3.91882 0.123138 0)
(3.91881 0.122363 0)
(3.918 0.118878 0)
(3.91716 0.111077 0)
(3.91654 0.106173 0)
(3.91623 0.103402 0)
(3.9155 0.100176 0)
(3.91477 0.0963664 0)
(3.91328 0.0903867 0)
(4.04678 -1.52971 0)
(4.04678 -1.52972 0)
(4.04686 -1.52953 0)
(4.04683 -1.52964 0)
(4.04692 -1.52943 0)
(4.04688 -1.52959 0)
(4.047 -1.52931 0)
(4.04694 -1.52954 0)
(4.04708 -1.52915 0)
(4.04697 -1.52947 0)
(4.04716 -1.52894 0)
(4.04702 -1.52944 0)
(4.04649 -1.52787 0)
(4.04431 -1.52014 0)
(4.03974 -1.50247 0)
(4.03314 -1.48037 0)
(4.02348 -1.43749 0)
(4.01122 -1.39327 0)
(3.99582 -1.31236 0)
(3.98044 -1.24717 0)
(3.96026 -1.12589 0)
(3.94436 -1.04496 0)
(3.92044 -0.885518 0)
(3.90904 -0.799358 0)
(3.88246 -0.610383 0)
(3.8786 -0.538941 0)
(3.84872 -0.350703 0)
(3.85572 -0.300796 0)
(3.83102 -0.143623 0)
(3.84219 -0.117109 0)
(3.82096 -0.000988785 0)
(3.83182 0.0124304 0)
(3.81362 0.0966103 0)
(3.82287 0.104765 0)
(3.80999 0.15826 0)
(3.81799 0.167011 0)
(3.80989 0.196838 0)
(3.81507 0.209158 0)
(3.81132 0.232041 0)
(3.81465 0.241218 0)
(3.81563 0.258077 0)
(3.81338 0.253345 0)
(3.81049 0.240378 0)
(3.81187 0.213348 0)
(3.81054 0.177601 0)
(3.80862 0.13885 0)
(3.81613 0.126398 0)
(3.81015 0.0975549 0)
(3.81434 0.08613 0)
(3.81949 0.0721908 0)
(3.8223 0.0799436 0)
(3.82674 0.0943416 0)
(3.8302 0.118063 0)
(3.83641 0.144312 0)
(3.82983 0.171202 0)
(3.83101 0.182481 0)
(3.83432 0.186747 0)
(3.83156 0.175417 0)
(3.83264 0.166645 0)
(3.82927 0.141311 0)
(3.83066 0.129314 0)
(3.83178 0.109738 0)
(3.83647 0.113019 0)
(3.84045 0.120985 0)
(3.84911 0.136944 0)
(3.85178 0.155427 0)
(3.85703 0.164283 0)
(3.85752 0.159996 0)
(3.85751 0.150614 0)
(3.8569 0.132303 0)
(3.85858 0.12142 0)
(3.86254 0.116228 0)
(3.8686 0.127854 0)
(3.8715 0.140771 0)
(3.87467 0.142754 0)
(3.87776 0.138356 0)
(3.87935 0.130778 0)
(3.88107 0.116665 0)
(3.88453 0.123542 0)
(3.88708 0.129873 0)
(3.89099 0.137013 0)
(3.89426 0.135493 0)
(3.89646 0.131802 0)
(3.89759 0.116307 0)
(3.90235 0.125606 0)
(3.90497 0.134377 0)
(3.90646 0.134987 0)
(3.90859 0.133246 0)
(3.90958 0.127227 0)
(3.91122 0.121347 0)
(3.91145 0.128493 0)
(3.91187 0.127249 0)
(3.91186 0.121472 0)
(3.9126 0.109861 0)
(3.91308 0.104749 0)
(3.91302 0.106513 0)
(3.91266 0.105568 0)
(3.91186 0.101483 0)
(3.91169 0.0952226 0)
(3.91117 0.0891801 0)
(4.0467 -1.52941 0)
(4.04664 -1.52946 0)
(4.04667 -1.52928 0)
(4.04656 -1.52941 0)
(4.04654 -1.52931 0)
(4.04641 -1.52949 0)
(4.04643 -1.52925 0)
(4.04626 -1.52949 0)
(4.04629 -1.52915 0)
(4.04608 -1.52943 0)
(4.04614 -1.52906 0)
(4.04589 -1.52943 0)
(4.04595 -1.52905 0)
(4.04562 -1.52964 0)
(4.04563 -1.52946 0)
(4.04563 -1.52932 0)
(4.0456 -1.52924 0)
(4.0456 -1.52899 0)
(4.04545 -1.52906 0)
(4.04538 -1.5289 0)
(4.04521 -1.52903 0)
(4.04518 -1.52876 0)
(4.04486 -1.52908 0)
(4.04479 -1.52864 0)
(4.04443 -1.52911 0)
(4.04349 -1.52696 0)
(4.03597 -1.50442 0)
(4.02237 -1.46392 0)
(3.99758 -1.3693 0)
(3.97324 -1.27872 0)
(3.93966 -1.11301 0)
(3.91818 -1.00507 0)
(3.88503 -0.805613 0)
(3.87411 -0.716109 0)
(3.84339 -0.515661 0)
(3.84661 -0.46258 0)
(3.81835 -0.285092 0)
(3.82802 -0.25385 0)
(3.80627 -0.113398 0)
(3.81311 -0.100804 0)
(3.80235 -0.00956828 0)
(3.80885 -0.00883197 0)
(3.80615 0.0478312 0)
(3.80897 0.0454758 0)
(3.79972 0.0713881 0)
(3.80095 0.0885895 0)
(3.80147 0.0913044 0)
(3.80191 0.0925706 0)
(3.80172 0.0988348 0)
(3.80123 0.107538 0)
(3.79817 0.115072 0)
(3.79222 0.124253 0)
(3.79071 0.129012 0)
(3.79181 0.133796 0)
(3.78868 0.133261 0)
(3.78508 0.1255 0)
(3.78389 0.123807 0)
(3.78244 0.119668 0)
(3.78368 0.115268 0)
(3.78472 0.111575 0)
(3.7924 0.101668 0)
(3.79539 0.104253 0)
(3.8003 0.107608 0)
(3.80336 0.117651 0)
(3.811 0.114756 0)
(3.81191 0.114219 0)
(3.81322 0.112411 0)
(3.81381 0.111362 0)
(3.81297 0.110715 0)
(3.81545 0.109696 0)
(3.8186 0.112389 0)
(3.82467 0.121354 0)
(3.82843 0.127043 0)
(3.83339 0.132742 0)
(3.83649 0.132494 0)
(3.83944 0.127571 0)
(3.84015 0.119378 0)
(3.84726 0.117618 0)
(3.85193 0.124595 0)
(3.85651 0.131663 0)
(3.86097 0.130853 0)
(3.86441 0.128323 0)
(3.8678 0.116919 0)
(3.8719 0.123597 0)
(3.87737 0.129246 0)
(3.88256 0.129929 0)
(3.88665 0.128605 0)
(3.88966 0.12468 0)
(3.89207 0.120443 0)
(3.89481 0.122905 0)
(3.89697 0.119201 0)
(3.89906 0.113825 0)
(3.90052 0.106857 0)
(3.90164 0.109797 0)
(3.90302 0.112159 0)
(3.90346 0.10738 0)
(3.90421 0.0986383 0)
(3.90551 0.0895288 0)
(3.90581 0.0878745 0)
(3.9058 0.0856822 0)
(4.04568 -1.52942 0)
(4.04559 -1.52948 0)
(4.04555 -1.52935 0)
(4.0455 -1.52926 0)
(4.04535 -1.52937 0)
(4.04523 -1.52944 0)
(4.04512 -1.52945 0)
(4.045 -1.52942 0)
(4.04488 -1.52937 0)
(4.04472 -1.52941 0)
(4.04462 -1.52929 0)
(4.04446 -1.52929 0)
(4.04434 -1.52919 0)
(4.04417 -1.52924 0)
(4.04409 -1.52906 0)
(4.04386 -1.52919 0)
(4.04373 -1.52894 0)
(4.04347 -1.52894 0)
(4.04326 -1.52877 0)
(4.04297 -1.52888 0)
(4.04282 -1.52859 0)
(4.04255 -1.5286 0)
(4.04235 -1.52841 0)
(4.04204 -1.52849 0)
(4.04187 -1.52818 0)
(4.04156 -1.52814 0)
(4.04138 -1.52803 0)
(4.04125 -1.52797 0)
(4.04114 -1.52791 0)
(4.04101 -1.52777 0)
(4.04086 -1.52752 0)
(4.04075 -1.52738 0)
(4.04063 -1.5273 0)
(4.04054 -1.52717 0)
(4.03866 -1.52159 0)
(4.03165 -1.49991 0)
(4.01164 -1.42529 0)
(3.9887 -1.341 0)
(3.95226 -1.1649 0)
(3.92703 -1.04313 0)
(3.88283 -0.794396 0)
(3.87164 -0.687992 0)
(3.82241 -0.42091 0)
(3.83597 -0.344128 0)
(3.78581 -0.108205 0)
(3.80908 -0.0591516 0)
(3.76239 0.102313 0)
(3.77415 0.132967 0)
(3.74759 0.212885 0)
(3.73859 0.233264 0)
(3.73739 0.255958 0)
(3.73607 0.244997 0)
(3.73697 0.218002 0)
(3.74715 0.167472 0)
(3.75403 0.127315 0)
(3.76252 0.111676 0)
(3.76176 0.0976678 0)
(3.76116 0.094027 0)
(3.76412 0.0916391 0)
(3.76322 0.110092 0)
(3.76693 0.130848 0)
(3.76533 0.146728 0)
(3.76721 0.165879 0)
(3.76519 0.164975 0)
(3.76473 0.159794 0)
(3.76035 0.142064 0)
(3.76121 0.132547 0)
(3.76276 0.118101 0)
(3.7666 0.118763 0)
(3.77183 0.124466 0)
(3.77798 0.13564 0)
(3.78297 0.140533 0)
(3.78757 0.138726 0)
(3.78786 0.124564 0)
(3.79071 0.120193 0)
(3.79345 0.120906 0)
(3.79709 0.124696 0)
(3.80485 0.136709 0)
(3.81078 0.135067 0)
(3.81628 0.134938 0)
(3.82009 0.130956 0)
(3.82282 0.123805 0)
(3.82798 0.125056 0)
(3.83458 0.127032 0)
(3.84134 0.128993 0)
(3.84773 0.129219 0)
(3.85316 0.127515 0)
(3.85749 0.126073 0)
(3.86186 0.126121 0)
(3.86629 0.123303 0)
(3.87069 0.121772 0)
(3.87446 0.120766 0)
(3.87785 0.11887 0)
(3.8805 0.114688 0)
(3.88339 0.105069 0)
(3.88589 0.0986737 0)
(3.88788 0.0964861 0)
(3.89036 0.097344 0)
(3.89186 0.0945095 0)
(3.89374 0.0862965 0)
(4.0441 -1.52948 0)
(4.04401 -1.52948 0)
(4.0439 -1.52953 0)
(4.04385 -1.52938 0)
(4.04372 -1.52942 0)
(4.04363 -1.52931 0)
(4.04349 -1.52927 0)
(4.04338 -1.52916 0)
(4.04323 -1.52917 0)
(4.04308 -1.52907 0)
(4.04291 -1.52899 0)
(4.04277 -1.52873 0)
(4.04262 -1.52865 0)
(4.0425 -1.52851 0)
(4.04239 -1.52848 0)
(4.04227 -1.52826 0)
(4.04209 -1.5281 0)
(4.04192 -1.52788 0)
(4.04171 -1.52781 0)
(4.04153 -1.52764 0)
(4.04137 -1.5275 0)
(4.04121 -1.52735 0)
(4.041 -1.52726 0)
(4.04084 -1.52711 0)
(4.0407 -1.52704 0)
(4.04059 -1.52696 0)
(4.04048 -1.52687 0)
(4.04023 -1.52675 0)
(4.04003 -1.52667 0)
(4.03986 -1.52659 0)
(4.03968 -1.52651 0)
(4.0395 -1.52642 0)
(4.03933 -1.52631 0)
(4.03913 -1.52617 0)
(4.0391 -1.52606 0)
(4.03905 -1.52596 0)
(4.03898 -1.5259 0)
(4.03884 -1.5259 0)
(4.0386 -1.52586 0)
(4.0383 -1.52579 0)
(4.03773 -1.52576 0)
(4.03691 -1.52573 0)
(4.02978 -1.50625 0)
(4.01461 -1.45356 0)
(3.97887 -1.30909 0)
(3.94947 -1.15623 0)
(3.90382 -0.895693 0)
(3.88718 -0.74161 0)
(3.84615 -0.473627 0)
(3.84716 -0.378514 0)
(3.81274 -0.172254 0)
(3.81158 -0.112293 0)
(3.78285 -0.025664 0)
(3.77338 0.0153902 0)
(3.76205 0.0548748 0)
(3.76491 0.0592603 0)
(3.75999 0.0687225 0)
(3.7593 0.0794551 0)
(3.75386 0.0890568 0)
(3.74057 0.109733 0)
(3.73525 0.134078 0)
(3.73284 0.140879 0)
(3.72681 0.138416 0)
(3.72585 0.130453 0)
(3.72726 0.125535 0)
(3.72844 0.11875 0)
(3.73462 0.108256 0)
(3.73728 0.107917 0)
(3.74242 0.110561 0)
(3.75099 0.125424 0)
(3.75128 0.131438 0)
(3.75178 0.135473 0)
(3.75148 0.132873 0)
(3.74697 0.130396 0)
(3.75568 0.115795 0)
(3.75763 0.109424 0)
(3.7626 0.115463 0)
(3.76808 0.123613 0)
(3.77419 0.134108 0)
(3.77602 0.124526 0)
(3.77723 0.120745 0)
(3.78043 0.116173 0)
(3.78653 0.120392 0)
(3.79291 0.126558 0)
(3.79971 0.130159 0)
(3.8055 0.132737 0)
(3.81042 0.127912 0)
(3.8158 0.11962 0)
(3.82175 0.116798 0)
(3.82771 0.115799 0)
(3.83329 0.114757 0)
(3.83818 0.108388 0)
(3.8431 0.103521 0)
(3.84857 0.0986754 0)
(3.85313 0.101028 0)
(3.85701 0.102639 0)
(3.86027 0.0990463 0)
(3.8639 0.0915969 0)
(3.8675 0.0867056 0)
(3.87238 0.0841099 0)
(4.04283 -1.52774 0)
(4.04273 -1.5277 0)
(4.04262 -1.52766 0)
(4.04248 -1.52768 0)
(4.04235 -1.52764 0)
(4.04223 -1.52753 0)
(4.04209 -1.52747 0)
(4.04195 -1.52747 0)
(4.04185 -1.52743 0)
(4.0417 -1.52729 0)
(4.04156 -1.52722 0)
(4.04146 -1.52715 0)
(4.04136 -1.5271 0)
(4.04121 -1.52703 0)
(4.04114 -1.52698 0)
(4.04105 -1.52692 0)
(4.04088 -1.52682 0)
(4.04074 -1.52672 0)
(4.04059 -1.52664 0)
(4.04041 -1.52657 0)
(4.04026 -1.52651 0)
(4.04019 -1.52648 0)
(4.04 -1.52642 0)
(4.03978 -1.52635 0)
(4.03967 -1.52633 0)
(4.03955 -1.5263 0)
(4.03951 -1.52629 0)
(4.0395 -1.52628 0)
(4.03939 -1.52622 0)
(4.03925 -1.52616 0)
(4.03907 -1.52609 0)
(4.03884 -1.52602 0)
(4.03865 -1.52589 0)
(4.0384 -1.5257 0)
(4.03812 -1.52548 0)
(4.03805 -1.52543 0)
(4.03777 -1.52539 0)
(4.03717 -1.52547 0)
(4.03638 -1.52538 0)
(4.03559 -1.525 0)
(4.03499 -1.52464 0)
(4.03362 -1.52465 0)
(4.03313 -1.52479 0)
(4.03299 -1.5248 0)
(4.03288 -1.52478 0)
(4.03283 -1.52481 0)
(4.03274 -1.52475 0)
(4.03253 -1.52505 0)
(4.02595 -1.4991 0)
(4.0084 -1.4208 0)
(3.96205 -1.18638 0)
(3.9301 -0.978091 0)
(3.85476 -0.561933 0)
(3.86897 -0.450086 0)
(3.78951 -0.123968 0)
(3.81605 -0.0724001 0)
(3.75536 0.111253 0)
(3.75484 0.143419 0)
(3.72887 0.221354 0)
(3.7176 0.223042 0)
(3.71052 0.196149 0)
(3.70833 0.149909 0)
(3.72117 0.126056 0)
(3.72536 0.114261 0)
(3.72441 0.11355 0)
(3.72683 0.111514 0)
(3.72866 0.111472 0)
(3.73552 0.120096 0)
(3.74001 0.137884 0)
(3.74019 0.137398 0)
(3.73886 0.134889 0)
(3.73618 0.128146 0)
(3.73499 0.116801 0)
(3.7308 0.111497 0)
(3.73463 0.122467 0)
(3.73892 0.12965 0)
(3.74385 0.129164 0)
(3.74665 0.127564 0)
(3.74686 0.125405 0)
(3.74652 0.128225 0)
(3.74613 0.118351 0)
(3.75057 0.121887 0)
(3.75617 0.127142 0)
(3.75945 0.128521 0)
(3.76337 0.124983 0)
(3.76773 0.118035 0)
(3.771 0.119455 0)
(3.77577 0.123528 0)
(3.78143 0.12353 0)
(3.78669 0.12246 0)
(3.7913 0.116435 0)
(3.79607 0.113677 0)
(3.8016 0.105942 0)
(3.80791 0.107379 0)
(3.81345 0.101543 0)
(3.81821 0.0940409 0)
(3.82252 0.0894902 0)
(3.82745 0.0866962 0)
(3.83235 0.0876139 0)
(3.83999 0.0837448 0)
(4.04124 -1.52721 0)
(4.04114 -1.52718 0)
(4.04105 -1.52715 0)
(4.04097 -1.52711 0)
(4.04091 -1.5271 0)
(4.04084 -1.52708 0)
(4.0408 -1.52704 0)
(4.04076 -1.52703 0)
(4.04069 -1.52703 0)
(4.04065 -1.52699 0)
(4.0407 -1.52693 0)
(4.04066 -1.52689 0)
(4.04059 -1.52686 0)
(4.04049 -1.52682 0)
(4.04034 -1.52676 0)
(4.04028 -1.52666 0)
(4.0402 -1.52657 0)
(4.04004 -1.52649 0)
(4.03988 -1.52641 0)
(4.03973 -1.52634 0)
(4.03956 -1.52628 0)
(4.0394 -1.52625 0)
(4.03932 -1.52623 0)
(4.03911 -1.5262 0)
(4.03891 -1.52614 0)
(4.03877 -1.52609 0)
(4.0386 -1.52599 0)
(4.03833 -1.52584 0)
(4.03811 -1.52571 0)
(4.03794 -1.52564 0)
(4.03777 -1.52558 0)
(4.03756 -1.52549 0)
(4.03734 -1.52538 0)
(4.03713 -1.52521 0)
(4.03699 -1.52515 0)
(4.03664 -1.52502 0)
(4.03606 -1.52482 0)
(4.03512 -1.52488 0)
(4.03411 -1.52496 0)
(4.03337 -1.52447 0)
(4.03298 -1.52397 0)
(4.03251 -1.52385 0)
(4.03186 -1.52429 0)
(4.03164 -1.52462 0)
(4.03171 -1.52469 0)
(4.03176 -1.52485 0)
(4.03176 -1.52498 0)
(4.03177 -1.52505 0)
(4.0318 -1.52477 0)
(4.03186 -1.5245 0)
(4.03186 -1.52448 0)
(4.03202 -1.52423 0)
(4.03296 -1.52332 0)
(4.02578 -1.49026 0)
(3.98549 -1.31903 0)
(3.95477 -1.12084 0)
(3.9004 -0.777479 0)
(3.89093 -0.613042 0)
(3.8465 -0.331234 0)
(3.84549 -0.201079 0)
(3.82762 -0.099191 0)
(3.77602 0.0194198 0)
(3.78153 0.0358831 0)
(3.75785 0.07263 0)
(3.75004 0.0891663 0)
(3.74165 0.108265 0)
(3.73645 0.123311 0)
(3.73379 0.142987 0)
(3.7314 0.146658 0)
(3.72428 0.140248 0)
(3.72202 0.122837 0)
(3.7204 0.105274 0)
(3.72775 0.0986047 0)
(3.72895 0.101809 0)
(3.73116 0.112872 0)
(3.73486 0.130694 0)
(3.73673 0.134116 0)
(3.73607 0.13001 0)
(3.7342 0.119405 0)
(3.73442 0.114442 0)
(3.73537 0.119138 0)
(3.73583 0.123414 0)
(3.74154 0.129877 0)
(3.7414 0.128332 0)
(3.74102 0.124984 0)
(3.7439 0.122108 0)
(3.74708 0.113412 0)
(3.74982 0.114557 0)
(3.75262 0.11432 0)
(3.75474 0.110094 0)
(3.75697 0.104766 0)
(3.76083 0.100469 0)
(3.76486 0.102189 0)
(3.76967 0.100027 0)
(3.77397 0.100646 0)
(3.77781 0.0957008 0)
(3.7818 0.0909323 0)
(3.78678 0.0897256 0)
(3.79198 0.0840338 0)
(3.8009 0.0774912 0)
(4.04012 -1.52706 0)
(4.04006 -1.52706 0)
(4.03999 -1.52705 0)
(4.03992 -1.52698 0)
(4.03983 -1.52692 0)
(4.03971 -1.52691 0)
(4.03959 -1.52688 0)
(4.03945 -1.52684 0)
(4.0393 -1.52682 0)
(4.03919 -1.52677 0)
(4.03912 -1.5266 0)
(4.03901 -1.52646 0)
(4.03886 -1.52641 0)
(4.03873 -1.52637 0)
(4.03869 -1.52635 0)
(4.03861 -1.52629 0)
(4.03847 -1.52617 0)
(4.03838 -1.52604 0)
(4.03842 -1.52604 0)
(4.03836 -1.526 0)
(4.03819 -1.52594 0)
(4.03814 -1.52592 0)
(4.0381 -1.52593 0)
(4.03803 -1.52593 0)
(4.0375 -1.52577 0)
(4.03729 -1.52569 0)
(4.03715 -1.52561 0)
(4.03692 -1.52546 0)
(4.03665 -1.52529 0)
(4.03645 -1.52521 0)
(4.03606 -1.52506 0)
(4.03563 -1.52488 0)
(4.03524 -1.52468 0)
(4.03488 -1.52456 0)
(4.03434 -1.5245 0)
(4.0338 -1.52429 0)
(4.03337 -1.52385 0)
(4.03285 -1.52376 0)
(4.03232 -1.52404 0)
(4.03189 -1.52389 0)
(4.03159 -1.5235 0)
(4.03144 -1.5233 0)
(4.0314 -1.52341 0)
(4.03155 -1.52379 0)
(4.03189 -1.524 0)
(4.03213 -1.5241 0)
(4.03221 -1.52426 0)
(4.03226 -1.52435 0)
(4.03232 -1.52444 0)
(4.03244 -1.52455 0)
(4.03249 -1.52459 0)
(4.03271 -1.52449 0)
(4.03369 -1.52379 0)
(4.03405 -1.523 0)
(4.0341 -1.52279 0)
(4.03435 -1.52248 0)
(4.03368 -1.5236 0)
(4.03197 -1.51742 0)
(4.00546 -1.39509 0)
(3.97065 -1.1421 0)
(3.92882 -0.798074 0)
(3.85811 -0.389631 0)
(3.89875 -0.304247 0)
(3.79248 0.0125406 0)
(3.77421 0.100347 0)
(3.7725 0.145769 0)
(3.74835 0.213864 0)
(3.72692 0.189685 0)
(3.71884 0.149864 0)
(3.72449 0.137393 0)
(3.72254 0.114548 0)
(3.72615 0.112312 0)
(3.72843 0.107498 0)
(3.73961 0.122392 0)
(3.73808 0.133007 0)
(3.7363 0.135085 0)
(3.73348 0.13166 0)
(3.73103 0.123344 0)
(3.73035 0.113149 0)
(3.73206 0.113846 0)
(3.73573 0.122111 0)
(3.73647 0.132881 0)
(3.73612 0.130585 0)
(3.73463 0.122599 0)
(3.73426 0.115001 0)
(3.73474 0.116584 0)
(3.73709 0.119204 0)
(3.73754 0.119495 0)
(3.73718 0.117993 0)
(3.73629 0.113132 0)
(3.73682 0.107404 0)
(3.7391 0.102928 0)
(3.74118 0.0984802 0)
(3.743 0.0958242 0)
(3.74459 0.0911625 0)
(3.7462 0.0884939 0)
(3.74894 0.0832802 0)
(3.75301 0.0801151 0)
(3.75641 0.0822669 0)
(3.76319 0.0813035 0)
(4.03857 -1.52659 0)
(4.03848 -1.52652 0)
(4.0384 -1.52645 0)
(4.03838 -1.52641 0)
(4.03832 -1.52634 0)
(4.03828 -1.5263 0)
(4.03822 -1.52633 0)
(4.03817 -1.52636 0)
(4.03817 -1.52628 0)
(4.03815 -1.52622 0)
(4.0381 -1.52618 0)
(4.03795 -1.52611 0)
(4.03787 -1.52605 0)
(4.03783 -1.52603 0)
(4.03769 -1.52596 0)
(4.03742 -1.52584 0)
(4.03715 -1.52569 0)
(4.03693 -1.52559 0)
(4.03672 -1.52552 0)
(4.03621 -1.52533 0)
(4.03574 -1.52517 0)
(4.03543 -1.52511 0)
(4.03513 -1.52505 0)
(4.03484 -1.525 0)
(4.03426 -1.52494 0)
(4.03358 -1.52474 0)
(4.0333 -1.52472 0)
(4.03307 -1.52464 0)
(4.03302 -1.52455 0)
(4.0329 -1.5244 0)
(4.0326 -1.52429 0)
(4.0323 -1.52419 0)
(4.03207 -1.52389 0)
(4.03187 -1.52376 0)
(4.03169 -1.52376 0)
(4.03153 -1.52361 0)
(4.0313 -1.52317 0)
(4.03122 -1.52276 0)
(4.03122 -1.52264 0)
(4.0314 -1.52274 0)
(4.03172 -1.52276 0)
(4.03201 -1.52271 0)
(4.03206 -1.52289 0)
(4.03212 -1.52318 0)
(4.03231 -1.52334 0)
(4.03238 -1.5236 0)
(4.03241 -1.52387 0)
(4.03253 -1.52402 0)
(4.03265 -1.52425 0)
(4.03272 -1.52463 0)
(4.03282 -1.5248 0)
(4.03315 -1.52486 0)
(4.03371 -1.52464 0)
(4.03424 -1.5238 0)
(4.03468 -1.52333 0)
(4.03497 -1.5232 0)
(4.03438 -1.52344 0)
(4.034 -1.5237 0)
(4.03381 -1.52512 0)
(4.03393 -1.52669 0)
(4.03446 -1.52727 0)
(4.02803 -1.49447 0)
(4.00971 -1.36681 0)
(3.94674 -1.02428 0)
(3.91786 -0.74236 0)
(3.88129 -0.431297 0)
(3.8394 -0.166866 0)
(3.85235 -0.104041 0)
(3.7696 0.0367856 0)
(3.77393 0.0599485 0)
(3.7537 0.093694 0)
(3.7523 0.117616 0)
(3.74703 0.132096 0)
(3.74288 0.148139 0)
(3.73697 0.144544 0)
(3.73107 0.130147 0)
(3.72706 0.113629 0)
(3.72565 0.10304 0)
(3.72776 0.10765 0)
(3.73403 0.121695 0)
(3.73663 0.133846 0)
(3.73549 0.133861 0)
(3.73145 0.122431 0)
(3.72973 0.111201 0)
(3.73039 0.10979 0)
(3.73191 0.112217 0)
(3.73315 0.116441 0)
(3.73316 0.116818 0)
(3.73171 0.112803 0)
(3.73102 0.10664 0)
(3.72995 0.100656 0)
(3.72938 0.101346 0)
(3.72943 0.0996835 0)
(3.72866 0.0967777 0)
(3.72792 0.0918439 0)
(3.72819 0.0879717 0)
(3.72966 0.0874332 0)
(3.73198 0.0829505 0)
(3.73326 0.0772872 0)
(3.73605 0.0738974 0)
(4.03644 -1.52544 0)
(4.03638 -1.52539 0)
(4.03631 -1.52533 0)
(4.03623 -1.52529 0)
(4.03614 -1.52524 0)
(4.03599 -1.52517 0)
(4.03587 -1.52508 0)
(4.03568 -1.52491 0)
(4.03546 -1.52478 0)
(4.03521 -1.52469 0)
(4.03511 -1.52466 0)
(4.0348 -1.52456 0)
(4.03451 -1.52442 0)
(4.03431 -1.52431 0)
(4.03403 -1.52422 0)
(4.03373 -1.52419 0)
(4.03351 -1.52414 0)
(4.03323 -1.52419 0)
(4.03296 -1.52428 0)
(4.03281 -1.52419 0)
(4.03276 -1.52405 0)
(4.03261 -1.52415 0)
(4.03239 -1.52426 0)
(4.03224 -1.52415 0)
(4.03214 -1.52405 0)
(4.03197 -1.52416 0)
(4.03177 -1.52444 0)
(4.03174 -1.52448 0)
(4.03184 -1.52432 0)
(4.03202 -1.52407 0)
(4.03202 -1.52405 0)
(4.03202 -1.52405 0)
(4.03208 -1.52377 0)
(4.03222 -1.52354 0)
(4.03227 -1.52359 0)
(4.03231 -1.52363 0)
(4.03236 -1.52339 0)
(4.03235 -1.52325 0)
(4.03242 -1.52321 0)
(4.03248 -1.52305 0)
(4.0326 -1.52286 0)
(4.03271 -1.52264 0)
(4.03244 -1.52265 0)
(4.03239 -1.52285 0)
(4.03246 -1.52304 0)
(4.03252 -1.52325 0)
(4.03256 -1.52347 0)
(4.03273 -1.52371 0)
(4.03281 -1.52416 0)
(4.03278 -1.52472 0)
(4.03301 -1.52516 0)
(4.0335 -1.52554 0)
(4.03415 -1.52564 0)
(4.03429 -1.52486 0)
(4.03495 -1.52423 0)
(4.03502 -1.52383 0)
(4.03503 -1.52357 0)
(4.03498 -1.52316 0)
(4.03517 -1.52442 0)
(4.03515 -1.52624 0)
(4.03557 -1.52745 0)
(4.03573 -1.52727 0)
(4.03567 -1.52613 0)
(4.03615 -1.52518 0)
(4.03787 -1.52449 0)
(4.02566 -1.4621 0)
(3.9766 -1.19078 0)
(3.94734 -0.823728 0)
(3.84257 -0.312031 0)
(3.86839 -0.190173 0)
(3.79018 0.0709398 0)
(3.75563 0.16016 0)
(3.74413 0.211181 0)
(3.74017 0.186631 0)
(3.73349 0.143886 0)
(3.73453 0.125375 0)
(3.72628 0.109501 0)
(3.72719 0.109024 0)
(3.73695 0.126146 0)
(3.73822 0.146936 0)
(3.73557 0.143334 0)
(3.72998 0.128831 0)
(3.72488 0.113653 0)
(3.72574 0.111977 0)
(3.7272 0.113313 0)
(3.73014 0.11646 0)
(3.73015 0.117759 0)
(3.72936 0.113942 0)
(3.72786 0.108643 0)
(3.72799 0.104 0)
(3.7262 0.100046 0)
(3.72586 0.0999564 0)
(3.72532 0.0972425 0)
(3.7239 0.091583 0)
(3.72248 0.0865748 0)
(3.7226 0.0826171 0)
(3.72242 0.0816888 0)
(3.72227 0.0824326 0)
(3.72177 0.0796567 0)
(3.7215 0.0762272 0)
(4.03425 -1.52378 0)
(4.03415 -1.52376 0)
(4.03405 -1.52366 0)
(4.03396 -1.52356 0)
(4.03384 -1.52354 0)
(4.03374 -1.52346 0)
(4.03365 -1.5234 0)
(4.03356 -1.52337 0)
(4.0335 -1.52335 0)
(4.03346 -1.52324 0)
(4.0334 -1.52317 0)
(4.03324 -1.52327 0)
(4.03313 -1.5232 0)
(4.03302 -1.52305 0)
(4.03276 -1.52318 0)
(4.03259 -1.52324 0)
(4.03258 -1.52314 0)
(4.03244 -1.52334 0)
(4.03233 -1.52371 0)
(4.03237 -1.52367 0)
(4.03245 -1.5235 0)
(4.03241 -1.52356 0)
(4.03229 -1.52375 0)
(4.03223 -1.5236 0)
(4.03229 -1.52339 0)
(4.03226 -1.52345 0)
(4.03188 -1.52386 0)
(4.03175 -1.52407 0)
(4.03173 -1.52411 0)
(4.03197 -1.52402 0)
(4.03221 -1.52401 0)
(4.03227 -1.52399 0)
(4.03238 -1.52391 0)
(4.03242 -1.52389 0)
(4.03254 -1.52392 0)
(4.03256 -1.52398 0)
(4.03258 -1.52408 0)
(4.03265 -1.52378 0)
(4.03268 -1.52366 0)
(4.03287 -1.52321 0)
(4.03299 -1.52297 0)
(4.033 -1.52268 0)
(4.0331 -1.52252 0)
(4.03325 -1.52217 0)
(4.03348 -1.52231 0)
(4.03363 -1.52256 0)
(4.0336 -1.52269 0)
(4.0335 -1.5231 0)
(4.03323 -1.52418 0)
(4.03321 -1.52517 0)
(4.0333 -1.52598 0)
(4.03372 -1.52662 0)
(4.03428 -1.52698 0)
(4.03469 -1.52632 0)
(4.03509 -1.5254 0)
(4.03513 -1.52495 0)
(4.03537 -1.52426 0)
(4.03619 -1.52332 0)
(4.03725 -1.52408 0)
(4.03771 -1.52578 0)
(4.03747 -1.52618 0)
(4.03636 -1.52713 0)
(4.03512 -1.52762 0)
(4.03516 -1.5276 0)
(4.03692 -1.52519 0)
(4.03718 -1.52392 0)
(4.03641 -1.52696 0)
(4.03348 -1.53303 0)
(4.01785 -1.47109 0)
(3.98762 -1.25316 0)
(3.91502 -0.803083 0)
(3.90627 -0.547091 0)
(3.81048 -0.117582 0)
(3.82326 -0.0772727 0)
(3.76551 0.041019 0)
(3.75096 0.0742125 0)
(3.74901 0.102079 0)
(3.73787 0.122484 0)
(3.73521 0.144967 0)
(3.72624 0.143657 0)
(3.71692 0.122154 0)
(3.71527 0.0942278 0)
(3.71745 0.0993476 0)
(3.72282 0.109609 0)
(3.72516 0.118473 0)
(3.72716 0.118248 0)
(3.72557 0.113911 0)
(3.72321 0.107 0)
(3.71992 0.0986965 0)
(3.71957 0.100451 0)
(3.72107 0.0996384 0)
(3.72178 0.0973826 0)
(3.72172 0.0928699 0)
(3.72027 0.085621 0)
(3.71934 0.0830824 0)
(3.72027 0.0813352 0)
(3.72003 0.0798295 0)
(3.71931 0.0786168 0)
(3.71831 0.0761464 0)
(3.71708 0.0725635 0)
(4.033 -1.52289 0)
(4.03299 -1.52292 0)
(4.03299 -1.52287 0)
(4.033 -1.52281 0)
(4.03299 -1.52283 0)
(4.03299 -1.52279 0)
(4.03299 -1.52273 0)
(4.03296 -1.52273 0)
(4.03294 -1.52268 0)
(4.03294 -1.52257 0)
(4.03291 -1.52253 0)
(4.03282 -1.52255 0)
(4.03271 -1.52251 0)
(4.03253 -1.52255 0)
(4.03235 -1.52267 0)
(4.03231 -1.52261 0)
(4.03236 -1.52255 0)
(4.03227 -1.52274 0)
(4.0322 -1.52309 0)
(4.03224 -1.52314 0)
(4.03235 -1.52299 0)
(4.03238 -1.52296 0)
(4.03219 -1.52316 0)
(4.03215 -1.5232 0)
(4.03217 -1.52318 0)
(4.03223 -1.52312 0)
(4.03213 -1.5233 0)
(4.03187 -1.52383 0)
(4.03185 -1.52399 0)
(4.03198 -1.52417 0)
(4.03227 -1.52432 0)
(4.03246 -1.52428 0)
(4.0325 -1.52419 0)
(4.03254 -1.52426 0)
(4.03266 -1.52443 0)
(4.03266 -1.52457 0)
(4.03278 -1.52473 0)
(4.03279 -1.52463 0)
(4.03268 -1.52442 0)
(4.03332 -1.52389 0)
(4.03405 -1.52346 0)
(4.03429 -1.52313 0)
(4.03453 -1.52265 0)
(4.03469 -1.52227 0)
(4.03496 -1.52226 0)
(4.035 -1.52224 0)
(4.03498 -1.52227 0)
(4.03455 -1.52282 0)
(4.03407 -1.52409 0)
(4.03377 -1.52526 0)
(4.03343 -1.52638 0)
(4.03376 -1.5275 0)
(4.03455 -1.52841 0)
(4.03477 -1.52766 0)
(4.03509 -1.52646 0)
(4.03516 -1.52592 0)
(4.03534 -1.52534 0)
(4.03636 -1.52425 0)
(4.03836 -1.52403 0)
(4.03926 -1.52512 0)
(4.03873 -1.52573 0)
(4.03694 -1.52688 0)
(4.03442 -1.52805 0)
(4.03366 -1.52828 0)
(4.03346 -1.52798 0)
(4.03365 -1.52765 0)
(4.03406 -1.52884 0)
(4.0322 -1.53218 0)
(4.03048 -1.53343 0)
(4.02751 -1.53408 0)
(4.0264 -1.5359 0)
(4.02112 -1.49975 0)
(3.95061 -1.1489 0)
(3.92194 -0.741882 0)
(3.82447 -0.235726 0)
(3.78925 -0.00809738 0)
(3.76621 0.132438 0)
(3.74732 0.212461 0)
(3.72515 0.187579 0)
(3.72651 0.142021 0)
(3.7185 0.108232 0)
(3.71874 0.102347 0)
(3.72349 0.109168 0)
(3.72488 0.124991 0)
(3.72366 0.12325 0)
(3.72051 0.11457 0)
(3.71758 0.105993 0)
(3.71662 0.101959 0)
(3.71571 0.101459 0)
(3.7156 0.100214 0)
(3.71617 0.0981767 0)
(3.71664 0.0930845 0)
(3.71684 0.0879696 0)
(3.71661 0.0837371 0)
(3.71585 0.0819564 0)
(3.71632 0.0804306 0)
(3.71673 0.077304 0)
(3.71697 0.0753699 0)
(3.71662 0.0734581 0)
(3.71572 0.0710558 0)
(4.03253 -1.52288 0)
(4.03251 -1.5229 0)
(4.03251 -1.52289 0)
(4.03251 -1.52289 0)
(4.03253 -1.52284 0)
(4.03265 -1.52266 0)
(4.03271 -1.52257 0)
(4.03273 -1.52257 0)
(4.03275 -1.52262 0)
(4.03274 -1.52254 0)
(4.03276 -1.52237 0)
(4.03274 -1.5222 0)
(4.03265 -1.52206 0)
(4.03244 -1.52215 0)
(4.03229 -1.52239 0)
(4.03231 -1.52245 0)
(4.03237 -1.52246 0)
(4.03237 -1.5226 0)
(4.03236 -1.52283 0)
(4.03242 -1.52281 0)
(4.03253 -1.52268 0)
(4.03244 -1.52285 0)
(4.03224 -1.5231 0)
(4.03223 -1.52312 0)
(4.0323 -1.52307 0)
(4.03235 -1.52301 0)
(4.03233 -1.5231 0)
(4.03211 -1.52372 0)
(4.03209 -1.52395 0)
(4.03225 -1.52417 0)
(4.0325 -1.52447 0)
(4.03265 -1.52439 0)
(4.03255 -1.52432 0)
(4.03265 -1.52472 0)
(4.03271 -1.52489 0)
(4.03299 -1.52525 0)
(4.03271 -1.52601 0)
(4.03257 -1.52635 0)
(4.03278 -1.52632 0)
(4.03418 -1.5255 0)
(4.03468 -1.52525 0)
(4.03521 -1.5243 0)
(4.03514 -1.52362 0)
(4.0352 -1.52282 0)
(4.03542 -1.52247 0)
(4.03553 -1.52236 0)
(4.03555 -1.52232 0)
(4.03553 -1.52262 0)
(4.0354 -1.52363 0)
(4.03471 -1.52535 0)
(4.03405 -1.52667 0)
(4.03443 -1.52833 0)
(4.0353 -1.52952 0)
(4.03559 -1.52911 0)
(4.03503 -1.52756 0)
(4.03492 -1.52713 0)
(4.0349 -1.52704 0)
(4.03589 -1.52687 0)
(4.03835 -1.52522 0)
(4.03954 -1.52468 0)
(4.03845 -1.52637 0)
(4.0362 -1.52862 0)
(4.03373 -1.53085 0)
(4.03275 -1.53174 0)
(4.0321 -1.53129 0)
(4.03202 -1.53046 0)
(4.03188 -1.53094 0)
(4.03072 -1.53393 0)
(4.02942 -1.5347 0)
(4.0263 -1.53602 0)
(4.02501 -1.53797 0)
(4.02546 -1.53793 0)
(4.02736 -1.53722 0)
(4.03149 -1.53305 0)
(4.00329 -1.40226 0)
(3.95078 -1.05847 0)
(3.87255 -0.556525 0)
(3.88409 -0.297495 0)
(3.79236 -0.0485157 0)
(3.79014 0.00924763 0)
(3.76171 0.0729547 0)
(3.74765 0.107034 0)
(3.72519 0.139482 0)
(3.71978 0.134584 0)
(3.71844 0.113418 0)
(3.71531 0.0973615 0)
(3.71518 0.0921108 0)
(3.71545 0.0948583 0)
(3.71602 0.0973512 0)
(3.71625 0.0967519 0)
(3.71623 0.0916908 0)
(3.71592 0.0852621 0)
(3.71627 0.0813978 0)
(3.71607 0.0794226 0)
(3.71521 0.0804281 0)
(3.71399 0.0788541 0)
(3.71304 0.0751632 0)
(3.71408 0.0730789 0)
(3.71482 0.0723591 0)
(3.7145 0.0697932 0)
(4.03181 -1.52401 0)
(4.03184 -1.52406 0)
(4.03182 -1.52417 0)
(4.03178 -1.52424 0)
(4.03187 -1.52416 0)
(4.03233 -1.52374 0)
(4.03249 -1.52355 0)
(4.03262 -1.52357 0)
(4.03274 -1.52349 0)
(4.03276 -1.52331 0)
(4.03278 -1.52319 0)
(4.03275 -1.52306 0)
(4.03268 -1.52293 0)
(4.03275 -1.52288 0)
(4.03282 -1.52289 0)
(4.03294 -1.523 0)
(4.03325 -1.52316 0)
(4.03341 -1.52319 0)
(4.0335 -1.523 0)
(4.03362 -1.52273 0)
(4.0337 -1.5225 0)
(4.03315 -1.52295 0)
(4.03282 -1.52331 0)
(4.03281 -1.52333 0)
(4.03308 -1.52311 0)
(4.0332 -1.52294 0)
(4.03321 -1.52304 0)
(4.0327 -1.52379 0)
(4.03268 -1.52397 0)
(4.03286 -1.52398 0)
(4.0332 -1.52406 0)
(4.0334 -1.52465 0)
(4.03338 -1.52492 0)
(4.0334 -1.52496 0)
(4.03361 -1.52514 0)
(4.03337 -1.52619 0)
(4.03312 -1.52681 0)
(4.03289 -1.52729 0)
(4.03345 -1.52712 0)
(4.03441 -1.52667 0)
(4.03458 -1.5267 0)
(4.03487 -1.52626 0)
(4.03465 -1.52498 0)
(4.0349 -1.52414 0)
(4.03518 -1.524 0)
(4.03538 -1.52352 0)
(4.03543 -1.52333 0)
(4.03553 -1.52324 0)
(4.03643 -1.52394 0)
(4.03748 -1.52546 0)
(4.03777 -1.52831 0)
(4.03782 -1.53016 0)
(4.03822 -1.53079 0)
(4.03692 -1.53076 0)
(4.03545 -1.53062 0)
(4.03411 -1.53071 0)
(4.03299 -1.53157 0)
(4.03369 -1.53205 0)
(4.03592 -1.53059 0)
(4.03683 -1.52858 0)
(4.03615 -1.52829 0)
(4.03437 -1.53121 0)
(4.03237 -1.53428 0)
(4.03161 -1.53482 0)
(4.03084 -1.53379 0)
(4.03078 -1.53258 0)
(4.03086 -1.53283 0)
(4.03022 -1.53443 0)
(4.02905 -1.53495 0)
(4.02699 -1.53499 0)
(4.02584 -1.53626 0)
(4.02554 -1.53641 0)
(4.027 -1.53586 0)
(4.03252 -1.53023 0)
(4.03421 -1.52884 0)
(4.03504 -1.52988 0)
(4.03149 -1.5188 0)
(4.00444 -1.30086 0)
(3.88913 -0.657419 0)
(3.8588 -0.299973 0)
(3.82945 -0.0082066 0)
(3.75356 0.209281 0)
(3.73369 0.202325 0)
(3.74151 0.140917 0)
(3.72792 0.106776 0)
(3.73242 0.102571 0)
(3.73326 0.101834 0)
(3.72927 0.102319 0)
(3.72835 0.101393 0)
(3.72734 0.0958174 0)
(3.72824 0.0925221 0)
(3.72584 0.0844874 0)
(3.72522 0.0840212 0)
(3.72266 0.0840447 0)
(3.72074 0.0818939 0)
(3.71799 0.0780732 0)
(3.71526 0.0729335 0)