/*--------------------------------*- C++ -*----------------------------------*\
  =========                 |
  \\      /  F ield         | OpenFOAM: The Open Source CFD Toolbox
   \\    /   O peration     | Website:  https://openfoam.org
    \\  /    A nd           | Version:  7
     \\/     M anipulation  |
\*---------------------------------------------------------------------------*/
FoamFile
{
    version     2.0;
    format      ascii;
    class       volScalarField;
    location    "0.5";
    object      T;
}
// * * * * * * * * * * * * * * * * * * * * * * * * * * * * * * * * * * * * * //

dimensions      [0 0 0 1 0 0 0];

internalField   nonuniform List<scalar> 
90000
(
0.693969
0.748386
0.7914
0.829868
0.854615
0.873658
0.892761
0.906254
0.920796
0.935946
0.948826
0.962566
0.977944
0.992725
1.00782
1.02406
1.04028
1.05624
1.07137
1.08488
1.097
1.10675
1.11437
1.11939
1.12383
1.12354
1.12157
1.11744
1.11239
1.10541
1.09741
1.08949
1.08258
1.07682
1.07279
1.06918
1.06565
1.06316
1.06396
1.06667
1.0715
1.07696
1.08178
1.08598
1.09016
1.08975
1.0882
1.08509
1.08148
1.07776
1.07477
1.07498
1.07609
1.07724
1.0785
1.07912
1.07833
1.07681
1.07597
1.07587
1.07605
1.076
1.07515
1.07223
1.0686
1.06422
1.06018
1.05782
1.05649
1.05525
1.05364
1.05208
1.05239
1.05395
1.05623
1.0551
1.04949
1.03714
1.02201
1.01275
1.00823
1.00157
0.992971
0.988498
0.988269
0.989138
0.991518
0.994838
0.997863
0.999536
0.999963
0.999999
1
1
1
1
1
1
1
1
0.634934
0.634559
0.634143
0.633711
0.633254
0.63283
0.632128
0.632167
0.632741
0.634346
0.637559
0.643789
0.653014
0.667201
0.685901
0.711747
0.742851
0.779882
0.819863
0.860718
0.901061
0.94061
0.975627
1.00449
1.02975
1.04987
1.06788
1.08114
1.09224
1.09899
1.10554
1.10739
1.10735
1.10516
1.10304
1.09891
1.09899
1.09995
1.10195
1.10472
1.10734
1.10777
1.10715
1.10502
1.10128
1.09721
1.09661
1.09737
1.09834
1.0987
1.09931
1.09912
1.09808
1.09613
1.09446
1.0929
1.09306
1.09379
1.09512
1.09643
1.09566
1.09422
1.09162
1.08722
1.0852
1.08406
1.08226
1.08138
1.08079
1.08
1.07854
1.07644
1.07489
1.07296
1.06937
1.06387
1.05447
1.03977
1.02469
1.01527
1.00887
1.00027
0.990808
0.987234
0.987249
0.98834
0.991026
0.994588
0.997763
0.999514
0.999961
0.999999
1
1
1
1
1
1
1
1
0.630359
0.630017
0.629649
0.629268
0.628876
0.628471
0.628061
0.627641
0.627201
0.62678
0.626292
0.62577
0.625247
0.624748
0.624272
0.623838
0.623424
0.623089
0.622606
0.622757
0.624452
0.630358
0.64339
0.666359
0.698195
0.741046
0.786191
0.837313
0.883971
0.931579
0.974182
1.01109
1.04223
1.06692
1.08837
1.1017
1.11407
1.12191
1.12512
1.12499
1.12324
1.11878
1.11046
1.10074
1.09066
1.08877
1.09045
1.09429
1.10028
1.10541
1.10962
1.10947
1.10798
1.10508
1.10135
1.09743
1.09755
1.09903
1.1029
1.10445
1.104
1.10164
1.09761
1.09382
1.09248
1.09283
1.09281
1.09285
1.09276
1.09188
1.08959
1.08662
1.0835
1.07891
1.0711
1.06081
1.04657
1.03218
1.01931
1.01386
1.00794
0.997553
0.988196
0.985965
0.986157
0.987546
0.990558
0.994342
0.997664
0.999495
0.99996
0.999999
1
1
1
1
1
1
1
1
0.624818
0.624552
0.624281
0.624011
0.623749
0.623491
0.623241
0.623
0.622771
0.622551
0.622345
0.622154
0.621979
0.62182
0.621677
0.621547
0.621433
0.621336
0.621255
0.621189
0.621125
0.621069
0.621025
0.620997
0.620976
0.620978
0.620985
0.621191
0.623367
0.632679
0.652459
0.690177
0.740572
0.803031
0.864485
0.925321
0.970164
1.0057
1.03115
1.05332
1.06567
1.07665
1.08223
1.08572
1.09223
1.09592
1.09638
1.09865
1.10012
1.10198
1.10416
1.10546
1.10384
1.10137
1.09952
1.09975
1.10016
1.10275
1.10533
1.1052
1.10363
1.10069
1.09737
1.09744
1.09751
1.09747
1.09635
1.09539
1.09471
1.09304
1.09049
1.08655
1.08092
1.07406
1.06175
1.04445
1.03128
1.02025
1.01225
1.0057
0.999575
0.991081
0.985767
0.984723
0.985061
0.986808
0.990125
0.994093
0.997563
0.999473
0.999959
0.999999
1
1
1
1
1
1
1
1
0.621616
0.621544
0.621475
0.621411
0.621353
0.621298
0.62125
0.621207
0.621169
0.621136
0.621112
0.621092
0.621077
0.621071
0.621065
0.621064
0.621068
0.62108
0.621098
0.621119
0.621136
0.621158
0.62119
0.621227
0.621269
0.621307
0.621347
0.62138
0.621431
0.621504
0.621576
0.621635
0.62169
0.62172
0.623032
0.632729
0.655742
0.699099
0.754301
0.817495
0.88028
0.937768
0.992828
1.03718
1.07379
1.0876
1.09697
1.09799
1.09828
1.09767
1.0974
1.096
1.0926
1.09369
1.09611
1.09904
1.10221
1.10371
1.10363
1.10138
1.09831
1.09555
1.09622
1.09831
1.09884
1.09816
1.09601
1.09444
1.09293
1.0901
1.08539
1.07973
1.07421
1.06399
1.04736
1.02638
1.00903
0.999562
0.996401
0.995852
0.993557
0.988315
0.984029
0.983508
0.984101
0.98622
0.989729
0.993823
0.997459
0.999469
0.99996
0.999999
1
1
1
1
1
1
1
1
0.621002
0.621002
0.621004
0.621007
0.62101
0.621015
0.621021
0.621029
0.621038
0.621049
0.62106
0.621068
0.621076
0.621084
0.621095
0.621122
0.621152
0.621175
0.621199
0.621223
0.621256
0.621305
0.621356
0.6214
0.621434
0.621461
0.621485
0.621503
0.62152
0.62153
0.621527
0.62152
0.621513
0.621498
0.621494
0.62149
0.621476
0.62146
0.621429
0.621471
0.626453
0.644894
0.693092
0.767033
0.849593
0.9201
0.977927
1.0166
1.04714
1.06026
1.0711
1.07452
1.08062
1.08894
1.0982
1.10393
1.10425
1.10243
1.09967
1.09446
1.09303
1.09331
1.09433
1.09633
1.09672
1.09608
1.0946
1.09254
1.08905
1.08447
1.07798
1.06832
1.05626
1.04183
1.02369
1.00431
0.990015
0.983767
0.983233
0.984332
0.984958
0.983696
0.98202
0.982164
0.983274
0.985738
0.989349
0.993552
0.997333
0.999456
0.999961
0.999999
1
1
1
1
1
1
1
1
0.621146
0.621161
0.621177
0.621193
0.62121
0.621228
0.621247
0.621267
0.621288
0.621313
0.621339
0.621366
0.621394
0.621424
0.621455
0.621474
0.621491
0.621511
0.621531
0.621548
0.621559
0.621566
0.62157
0.621574
0.621574
0.621575
0.621578
0.621578
0.621575
0.621568
0.621554
0.621534
0.621501
0.621457
0.621405
0.621357
0.621284
0.621254
0.621275
0.621368
0.62139
0.621374
0.621382
0.621395
0.622795
0.638311
0.676689
0.751706
0.829448
0.904308
0.963608
1.01271
1.05224
1.07234
1.08372
1.09055
1.09456
1.09708
1.09314
1.09007
1.09153
1.09606
1.0965
1.09569
1.0942
1.09242
1.08993
1.08557
1.07928
1.07152
1.06158
1.04893
1.03472
1.02035
1.00459
0.989556
0.980048
0.976874
0.976665
0.977271
0.97871
0.979434
0.979941
0.980882
0.982571
0.985234
0.988888
0.993268
0.997309
0.999475
0.999964
0.999999
1
1
1
1
1
1
1
1
0.62148
0.62149
0.621501
0.621512
0.621523
0.621533
0.621543
0.621552
0.621559
0.621565
0.62157
0.621575
0.621582
0.621588
0.621595
0.621602
0.621606
0.621609
0.62161
0.621609
0.621607
0.621603
0.621596
0.621585
0.621565
0.621534
0.621494
0.621446
0.621394
0.621339
0.621283
0.621228
0.621168
0.621099
0.621022
0.620993
0.621005
0.621029
0.621068
0.621131
0.621159
0.621167
0.621205
0.621279
0.62126
0.621224
0.621201
0.621114
0.621747
0.636124
0.675502
0.752957
0.83935
0.916049
0.976985
1.0202
1.05383
1.07034
1.07952
1.08803
1.09863
1.10371
1.10036
1.09395
1.08948
1.08583
1.08043
1.07321
1.06493
1.0553
1.04335
1.02973
1.01685
1.00459
0.992714
0.9827
0.975874
0.973233
0.973184
0.97362
0.974894
0.976469
0.978
0.979659
0.981802
0.984679
0.988432
0.992934
0.99723
0.999491
0.999968
0.999999
1
1
1
1
1
1
1
1
0.62159
0.621591
0.621592
0.621592
0.621592
0.621591
0.621589
0.621586
0.621582
0.621575
0.621566
0.621554
0.621538
0.621521
0.621502
0.621481
0.621458
0.621435
0.621408
0.621379
0.621348
0.621314
0.621278
0.621239
0.621198
0.621155
0.621114
0.621078
0.621041
0.621004
0.620965
0.620925
0.620872
0.620819
0.620791
0.620777
0.620765
0.620756
0.620766
0.620802
0.620905
0.620997
0.621003
0.621041
0.621043
0.62103
0.620983
0.620903
0.620845
0.62072
0.620622
0.620082
0.621405
0.640814
0.696712
0.788284
0.881166
0.964903
1.03591
1.07981
1.09891
1.09857
1.09448
1.08867
1.08295
1.07613
1.06814
1.05819
1.04766
1.03618
1.02315
1.01042
1.00083
0.993174
0.984877
0.977571
0.972634
0.970786
0.970854
0.971527
0.972731
0.974218
0.976022
0.978199
0.980738
0.983843
0.987901
0.992866
0.997324
0.999531
0.999973
1
1
1
1
1
1
1
1
1
0.621421
0.621408
0.621395
0.621381
0.621366
0.621351
0.621335
0.621319
0.6213
0.621281
0.621263
0.621247
0.62123
0.621216
0.621204
0.621187
0.621172
0.62116
0.621144
0.621125
0.621103
0.621077
0.62105
0.621031
0.621013
0.620991
0.620967
0.620945
0.620908
0.620862
0.62081
0.620752
0.620687
0.620633
0.620631
0.620637
0.620635
0.620628
0.620627
0.620637
0.620666
0.620644
0.620561
0.620465
0.620341
0.620197
0.619992
0.619635
0.61914
0.618577
0.617874
0.617005
0.615903
0.615035
0.614427
0.613561
0.621799
0.670808
0.773763
0.889801
0.978801
1.0301
1.0552
1.06594
1.06133
1.05808
1.0531
1.04474
1.03623
1.02426
1.0102
0.997812
0.990876
0.985294
0.978745
0.973298
0.969936
0.968802
0.968936
0.969845
0.971503
0.972976
0.974328
0.976557
0.979486
0.982873
0.987154
0.992599
0.997389
0.999582
0.999978
1
1
1
1
1
1
1
1
1
0.621188
0.621184
0.621179
0.621176
0.621172
0.621167
0.621163
0.621157
0.621154
0.62115
0.621147
0.62114
0.62113
0.62112
0.621108
0.621093
0.621078
0.621063
0.621044
0.621022
0.620998
0.620974
0.620947
0.62092
0.620893
0.620865
0.62084
0.620812
0.620777
0.620739
0.62069
0.620643
0.620591
0.620537
0.620524
0.620538
0.62056
0.620556
0.620538
0.620475
0.620362
0.62016
0.619868
0.61948
0.618976
0.618363
0.617689
0.616929
0.616064
0.615117
0.614203
0.613564
0.613006
0.612743
0.612707
0.612556
0.612442
0.612754
0.613567
0.625824
0.680478
0.787203
0.900443
0.970444
1.00538
1.0254
1.02313
1.01767
1.01444
1.00693
0.99667
0.989251
0.98457
0.97844
0.971481
0.967986
0.967572
0.96758
0.967605
0.967942
0.969043
0.970923
0.973234
0.975548
0.978265
0.981916
0.986912
0.992802
0.997576
0.999643
0.999983
1
1
1
1
1
1
1
1
1
0.621097
0.62109
0.621083
0.621074
0.621065
0.621055
0.621045
0.621035
0.621023
0.621011
0.620998
0.620983
0.620966
0.620948
0.62093
0.620913
0.620893
0.620873
0.620853
0.620832
0.620811
0.62079
0.620765
0.620739
0.620716
0.620694
0.620672
0.620649
0.620604
0.620568
0.620559
0.62055
0.620516
0.620456
0.620345
0.62029
0.620289
0.620247
0.620029
0.61962
0.619098
0.618524
0.61792
0.617277
0.61662
0.615938
0.615207
0.614503
0.613838
0.613149
0.612405
0.612284
0.612238
0.612165
0.612315
0.612498
0.61259
0.613631
0.61631
0.620383
0.62574
0.629568
0.652365
0.710665
0.804549
0.878722
0.931506
0.962472
0.980607
0.985107
0.983175
0.983531
0.979139
0.970646
0.964628
0.96389
0.963405
0.964205
0.965001
0.965031
0.965537
0.967758
0.970937
0.973928
0.976797
0.980532
0.98622
0.992842
0.997807
0.999716
0.999989
1
1
1
1
1
1
1
1
1
0.620903
0.620893
0.620882
0.62087
0.620858
0.620843
0.620828
0.620813
0.620797
0.620779
0.620761
0.620743
0.620721
0.620694
0.620668
0.620643
0.620613
0.620583
0.620551
0.620517
0.620487
0.620457
0.620422
0.620396
0.620371
0.620334
0.620315
0.620307
0.620288
0.620232
0.62023
0.620258
0.620261
0.62015
0.619868
0.619471
0.618993
0.618457
0.617861
0.61719
0.616535
0.61598
0.615556
0.615164
0.614844
0.614568
0.614161
0.613762
0.613421
0.613032
0.612406
0.612363
0.612561
0.612993
0.614086
0.616902
0.621119
0.625598
0.630087
0.635042
0.641042
0.646522
0.650475
0.655527
0.661951
0.681258
0.728731
0.795628
0.850967
0.902428
0.945021
0.970651
0.969342
0.963538
0.965286
0.967056
0.965083
0.961473
0.961196
0.96224
0.963961
0.965411
0.96788
0.971359
0.97516
0.980043
0.986493
0.993251
0.998103
0.999788
0.999993
1
1
1
1
1
1
1
1
1
0.620424
0.620396
0.620366
0.620333
0.620301
0.620266
0.62023
0.620193
0.620156
0.620118
0.62008
0.620038
0.62
0.619964
0.619925
0.619888
0.619845
0.619799
0.619753
0.619696
0.619637
0.61958
0.61951
0.619437
0.619357
0.61925
0.619128
0.619012
0.618841
0.618577
0.618272
0.618026
0.617808
0.617552
0.61722
0.616832
0.616423
0.615996
0.615552
0.615016
0.61463
0.614449
0.614361
0.614307
0.614319
0.614378
0.614274
0.614367
0.614751
0.615531
0.617068
0.61904
0.621758
0.625043
0.628335
0.631556
0.635056
0.639075
0.643099
0.646754
0.651101
0.656063
0.661221
0.666706
0.672545
0.678491
0.685323
0.693521
0.709351
0.742427
0.796046
0.853224
0.899622
0.936585
0.957082
0.9602
0.958783
0.955794
0.954965
0.956483
0.959719
0.963215
0.966163
0.968965
0.972784
0.97875
0.98636
0.993782
0.998473
0.999858
0.999996
1
1
1
1
1
1
1
1
1
0.61954
0.619516
0.619492
0.619465
0.619433
0.619402
0.619373
0.619338
0.619297
0.619256
0.619212
0.619157
0.619096
0.619031
0.618955
0.618867
0.618765
0.618643
0.618514
0.618379
0.618222
0.618086
0.617966
0.617826
0.617689
0.617561
0.61739
0.617192
0.617037
0.616906
0.616733
0.616604
0.616533
0.616475
0.61638
0.616167
0.615846
0.615531
0.615367
0.615439
0.615565
0.615636
0.615729
0.615943
0.616331
0.616882
0.61795
0.61951
0.621482
0.62356
0.625778
0.628253
0.631011
0.634002
0.637383
0.64051
0.643792
0.647188
0.651714
0.656364
0.659975
0.664658
0.670006
0.675573
0.681243
0.687364
0.694151
0.701004
0.707894
0.71654
0.726901
0.744352
0.775463
0.824959
0.876082
0.912159
0.931744
0.941924
0.946694
0.950095
0.954187
0.95885
0.962914
0.966785
0.972006
0.979024
0.986982
0.994564
0.998866
0.999916
0.999998
1
1
1
1
1
1
1
1
1
0.618522
0.618454
0.618376
0.618291
0.618197
0.618093
0.617979
0.617854
0.61772
0.617575
0.617418
0.617259
0.617093
0.616926
0.616759
0.616595
0.616451
0.616322
0.616198
0.616087
0.615966
0.615877
0.615843
0.61582
0.615802
0.615808
0.615812
0.61579
0.615826
0.615957
0.616209
0.616426
0.616517
0.616629
0.616831
0.616988
0.617117
0.617305
0.61753
0.617851
0.618257
0.618876
0.619583
0.62042
0.621401
0.622465
0.623801
0.625189
0.626747
0.628918
0.630971
0.633572
0.63604
0.638801
0.642348
0.646578
0.651343
0.656016
0.660475
0.666313
0.673198
0.679398
0.685858
0.692675
0.6996
0.706053
0.712905
0.719662
0.726243
0.73267
0.739802
0.746406
0.756141
0.768325
0.791353
0.831328
0.878936
0.916044
0.935001
0.942893
0.947697
0.952211
0.956992
0.9625
0.969807
0.97867
0.987967
0.995629
0.999257
0.999958
0.999999
1
1
1
1
1
1
1
1
1
0.616218
0.616142
0.616064
0.615984
0.615908
0.615838
0.615767
0.615701
0.615643
0.615591
0.615543
0.615501
0.615469
0.61544
0.615411
0.6154
0.6154
0.615407
0.615423
0.615434
0.615451
0.615461
0.615488
0.615535
0.615537
0.615545
0.615584
0.615636
0.615712
0.615853
0.615936
0.615945
0.616004
0.616185
0.61657
0.61728
0.61825
0.619283
0.620278
0.621317
0.62231
0.623563
0.624965
0.626272
0.62767
0.629505
0.631568
0.634229
0.637287
0.640716
0.644415
0.648215
0.652344
0.656713
0.660762
0.665346
0.670191
0.675974
0.681419
0.686401
0.691556
0.697057
0.702532
0.707977
0.713819
0.72015
0.726655
0.733797
0.740845
0.748797
0.756453
0.764477
0.772718
0.779956
0.791061
0.805243
0.82838
0.862873
0.897181
0.920061
0.933661
0.943192
0.95188
0.96103
0.970211
0.979748
0.989627
0.99684
0.999587
0.999983
1
1
1
1
1
1
1
1
1
1
0.614989
0.614984
0.614976
0.614974
0.614979
0.61499
0.614996
0.615006
0.615025
0.615049
0.615076
0.615108
0.615146
0.61519
0.615243
0.615294
0.615342
0.615397
0.615457
0.615531
0.615595
0.615622
0.615635
0.615682
0.61572
0.61574
0.615817
0.615917
0.61604
0.616188
0.616413
0.616749
0.617155
0.617717
0.618341
0.619166
0.620256
0.621603
0.623236
0.624976
0.627038
0.629051
0.631502
0.634457
0.637824
0.641385
0.644961
0.648561
0.652238
0.65562
0.659674
0.663889
0.668234
0.672544
0.67704
0.681503
0.686049
0.69009
0.695082
0.700076
0.705084
0.710538
0.716182
0.722089
0.728191
0.734601
0.740787
0.747013
0.754216
0.761678
0.768763
0.776221
0.784594
0.79472
0.803747
0.813579
0.827744
0.846144
0.870813
0.896453
0.917626
0.933621
0.946765
0.958841
0.970333
0.981675
0.99188
0.99804
0.999818
0.999995
1
1
1
1
1
1
1
1
1
1
0.61657
0.616733
0.616911
0.617098
0.617296
0.617506
0.617732
0.617976
0.61823
0.618496
0.618775
0.619066
0.61937
0.619693
0.620027
0.620384
0.620757
0.621151
0.621564
0.622003
0.622478
0.62299
0.623556
0.624179
0.624886
0.625683
0.626568
0.627565
0.628679
0.629922
0.631302
0.632768
0.634372
0.636039
0.637792
0.639549
0.641354
0.643228
0.645206
0.647315
0.649535
0.651946
0.654386
0.65694
0.65958
0.662195
0.66505
0.668021
0.671175
0.674747
0.678152
0.681652
0.685085
0.688693
0.692632
0.696698
0.701143
0.705656
0.709872
0.714813
0.720025
0.725027
0.730602
0.736492
0.74224
0.748323
0.755369
0.762444
0.76921
0.776521
0.784995
0.793673
0.801838
0.809249
0.816301
0.824839
0.835083
0.849808
0.870707
0.8959
0.918904
0.936249
0.949019
0.960632
0.972793
0.984999
0.994561
0.999047
0.999943
0.999999
1
1
1
1
1
1
1
1
1
1
0.623118
0.623304
0.623504
0.623716
0.623942
0.624182
0.624444
0.62472
0.625017
0.625338
0.625676
0.626037
0.626428
0.626835
0.627283
0.627778
0.628315
0.628881
0.629497
0.63018
0.63094
0.63177
0.632649
0.633603
0.634631
0.635748
0.636904
0.638137
0.639412
0.640747
0.642125
0.643553
0.645074
0.646644
0.648314
0.65013
0.65207
0.654158
0.656324
0.658662
0.660981
0.663449
0.665971
0.668468
0.671003
0.673635
0.676331
0.679162
0.682097
0.685152
0.688418
0.691973
0.695866
0.699927
0.703996
0.708258
0.712551
0.717554
0.722851
0.727955
0.733328
0.739249
0.745
0.750929
0.75747
0.764051
0.770471
0.777495
0.785063
0.79296
0.800828
0.809281
0.818892
0.828611
0.837845
0.846242
0.854365
0.86433
0.878471
0.897371
0.917627
0.935685
0.950828
0.964332
0.977583
0.98952
0.997155
0.99968
0.999989
1
1
1
1
1
1
1
1
1
1
1
0.629782
0.63007
0.630384
0.630718
0.631082
0.631467
0.631872
0.632301
0.632752
0.633239
0.633765
0.634328
0.634938
0.635585
0.636263
0.636989
0.637764
0.638608
0.639492
0.640412
0.641368
0.64239
0.643482
0.644603
0.645768
0.646973
0.648267
0.649599
0.651017
0.652505
0.654085
0.655759
0.657505
0.659375
0.661331
0.663394
0.665557
0.667798
0.670168
0.672597
0.675232
0.677916
0.6808
0.683851
0.687059
0.690446
0.693894
0.697483
0.701189
0.704875
0.708782
0.712685
0.716676
0.720848
0.725259
0.729882
0.734655
0.739281
0.744255
0.749429
0.754764
0.760189
0.76581
0.771729
0.777914
0.784404
0.790979
0.797816
0.805214
0.812984
0.820816
0.828761
0.837271
0.846824
0.857026
0.867023
0.876002
0.884339
0.893525
0.90521
0.919851
0.936487
0.953788
0.970029
0.984161
0.994374
0.999011
0.999939
0.999999
1
1
1
1
1
1
1
1
1
1
1
0.646897
0.64742
0.64799
0.648591
0.649217
0.649872
0.65055
0.651258
0.651991
0.652756
0.653554
0.654386
0.655255
0.656158
0.657091
0.658054
0.659063
0.660109
0.661209
0.662345
0.663511
0.664712
0.665979
0.667309
0.668675
0.670089
0.67155
0.673079
0.674653
0.676285
0.677973
0.679714
0.681522
0.683368
0.685288
0.687258
0.689295
0.691401
0.693574
0.695825
0.698138
0.700576
0.703074
0.705664
0.708353
0.711106
0.714015
0.717015
0.72011
0.723437
0.726785
0.730329
0.734013
0.737855
0.741826
0.745892
0.750231
0.754908
0.759557
0.764487
0.769576
0.774837
0.780482
0.786436
0.792359
0.798529
0.805363
0.812679
0.819999
0.827595
0.835933
0.844871
0.853953
0.863037
0.872547
0.88291
0.893927
0.904904
0.915662
0.926799
0.939054
0.952724
0.96715
0.98094
0.991992
0.998106
0.99982
0.999995
1
1
1
1
1
1
1
1
1
1
1
1
0.664222
0.664687
0.665189
0.665718
0.666271
0.666858
0.667468
0.668104
0.668766
0.669436
0.67014
0.67087
0.671629
0.672436
0.673272
0.674136
0.675033
0.675953
0.676909
0.677933
0.679009
0.680096
0.681206
0.682387
0.683632
0.68492
0.686251
0.687641
0.689094
0.690603
0.692173
0.693815
0.695526
0.697318
0.699176
0.701118
0.703136
0.705248
0.707433
0.709724
0.712104
0.714569
0.717146
0.719829
0.722624
0.725553
0.728585
0.731751
0.73507
0.738477
0.742078
0.745821
0.749752
0.753846
0.758133
0.762646
0.767262
0.772017
0.777068
0.782219
0.787623
0.793331
0.799109
0.805082
0.811532
0.818323
0.825198
0.832318
0.839942
0.847945
0.856106
0.864476
0.873294
0.88269
0.892594
0.902871
0.913383
0.92392
0.93442
0.94523
0.956868
0.969328
0.981543
0.991611
0.997653
0.999701
0.999987
1
1
1
1
1
1
1
1
1
1
1
1
1
0.683777
0.684296
0.684842
0.685412
0.685994
0.686606
0.687253
0.687926
0.688641
0.689373
0.690128
0.69091
0.691712
0.692562
0.693452
0.694362
0.695319
0.696322
0.697332
0.698383
0.699503
0.700681
0.701883
0.703114
0.704408
0.705759
0.707167
0.708618
0.710134
0.711712
0.713351
0.715052
0.71682
0.718662
0.720576
0.722566
0.724636
0.726782
0.729028
0.731344
0.733769
0.736287
0.738904
0.741627
0.744454
0.747391
0.750444
0.753616
0.75691
0.760357
0.763945
0.767689
0.771587
0.775658
0.779864
0.784222
0.788798
0.793535
0.798409
0.803541
0.808838
0.814306
0.820125
0.826241
0.832514
0.839074
0.846081
0.85343
0.860999
0.868894
0.877258
0.886037
0.895095
0.904417
0.914126
0.924331
0.934973
0.945825
0.956643
0.967287
0.977549
0.986811
0.994007
0.998225
0.999735
0.999985
1
1
1
1
1
1
1
1
1
1
1
1
1
1
0.703682
0.70418
0.704715
0.70528
0.705861
0.706452
0.70707
0.707706
0.708379
0.70909
0.709818
0.710595
0.711386
0.712188
0.713054
0.713934
0.71484
0.715826
0.716851
0.717864
0.718921
0.72005
0.721233
0.722454
0.72371
0.725025
0.72639
0.727815
0.72929
0.730829
0.732432
0.734095
0.735826
0.737624
0.7395
0.74145
0.743477
0.745592
0.747783
0.750076
0.752452
0.754927
0.757502
0.760178
0.762966
0.765864
0.768886
0.772035
0.775325
0.77876
0.782343
0.786086
0.789988
0.794035
0.798258
0.802656
0.807205
0.81195
0.816909
0.822048
0.827427
0.833087
0.838979
0.84513
0.851615
0.858422
0.865502
0.872884
0.880624
0.888719
0.897143
0.905914
0.915072
0.924631
0.934569
0.944841
0.955357
0.965898
0.976052
0.985159
0.992364
0.997004
0.999208
0.999883
0.999992
1
1
1
1
1
1
1
1
1
1
1
1
1
1
1
0.724313
0.724804
0.725336
0.725891
0.726479
0.72708
0.727708
0.728355
0.729018
0.729723
0.730449
0.731208
0.732011
0.732823
0.73369
0.734593
0.735488
0.736431
0.737478
0.73854
0.739599
0.740717
0.7419
0.743126
0.744402
0.745727
0.747109
0.748541
0.750034
0.751587
0.753207
0.754895
0.756648
0.758474
0.760374
0.762354
0.764415
0.766558
0.768793
0.771115
0.773535
0.776052
0.778671
0.7814
0.78424
0.787203
0.790292
0.793518
0.796884
0.800395
0.80406
0.807872
0.811834
0.81596
0.820242
0.824692
0.829331
0.834153
0.839176
0.84444
0.849942
0.855688
0.861715
0.86803
0.874613
0.881484
0.888669
0.896169
0.903974
0.912093
0.920535
0.92929
0.938328
0.947602
0.957039
0.966493
0.975693
0.984168
0.991237
0.996196
0.998829
0.999769
0.999973
0.999998
1
1
1
1
1
1
1
1
1
1
1
1
1
1
1
1
0.745765
0.746252
0.746774
0.747321
0.747899
0.748501
0.74913
0.749788
0.750461
0.75117
0.751901
0.752649
0.753447
0.754274
0.755119
0.756058
0.756983
0.757898
0.758903
0.760001
0.761095
0.762204
0.763383
0.76462
0.765896
0.767227
0.768616
0.770063
0.771563
0.773124
0.774751
0.776448
0.778214
0.78005
0.781961
0.783951
0.786022
0.78818
0.790423
0.792759
0.79519
0.797721
0.800357
0.803104
0.80597
0.808959
0.812079
0.815334
0.81873
0.822268
0.825947
0.829774
0.833753
0.837888
0.842192
0.846674
0.851344
0.856226
0.861335
0.866678
0.872272
0.878129
0.88425
0.890641
0.897318
0.904285
0.91154
0.919088
0.926928
0.935045
0.943409
0.951962
0.960607
0.969173
0.97739
0.984872
0.991141
0.995737
0.998464
0.999633
0.999948
0.999996
1
1
1
1
1
1
1
1
1
1
1
1
1
1
1
1
1
1
0.768174
0.768675
0.769212
0.769768
0.770346
0.77094
0.771562
0.772219
0.772903
0.773623
0.774373
0.775134
0.775927
0.776754
0.777605
0.778524
0.779509
0.780459
0.781424
0.782498
0.783637
0.784777
0.785955
0.787199
0.788495
0.789837
0.791237
0.792699
0.794221
0.795801
0.797444
0.799157
0.800943
0.802802
0.804735
0.806746
0.808841
0.811022
0.813293
0.815658
0.818121
0.820689
0.823368
0.826162
0.829078
0.83212
0.835293
0.838599
0.842042
0.845622
0.849346
0.853219
0.857248
0.861444
0.865818
0.870387
0.875165
0.880164
0.885393
0.89086
0.896572
0.902532
0.908745
0.915215
0.921939
0.928912
0.936121
0.943541
0.951126
0.958805
0.966462
0.973925
0.980949
0.98722
0.992388
0.996163
0.998471
0.99956
0.999919
0.999991
0.999999
1
1
1
1
1
1
1
1
1
1
1
1
1
1
1
1
1
1
1
0.791715
0.792218
0.792765
0.793334
0.793936
0.794544
0.79517
0.795822
0.796502
0.797224
0.797986
0.798765
0.799583
0.800418
0.801272
0.802174
0.803165
0.804176
0.805171
0.806216
0.807348
0.808525
0.809729
0.810983
0.812296
0.813659
0.815075
0.816553
0.818095
0.819699
0.821366
0.8231
0.824907
0.82679
0.828749
0.830789
0.832912
0.835125
0.837431
0.839835
0.842342
0.844958
0.847686
0.850533
0.853501
0.856593
0.859812
0.863162
0.866647
0.870271
0.874042
0.877971
0.882068
0.886345
0.890814
0.895487
0.90037
0.905468
0.910784
0.916321
0.922078
0.928052
0.934235
0.940611
0.947154
0.953824
0.960557
0.967261
0.973806
0.98002
0.985686
0.990566
0.994441
0.997185
0.998839
0.999636
0.99992
0.999989
0.999999
1
1
1
1
1
1
1
1
1
1
1
1
1
1
1
1
1
1
1
1
1
0.81655
0.817048
0.817598
0.818176
0.818794
0.819427
0.820069
0.820737
0.821418
0.822142
0.822914
0.8237
0.824532
0.825399
0.826266
0.827174
0.828157
0.829185
0.830228
0.831301
0.832428
0.833614
0.834845
0.836123
0.837456
0.838844
0.840285
0.841785
0.843349
0.84498
0.846676
0.84844
0.850277
0.852191
0.854186
0.856264
0.85843
0.860689
0.863044
0.865501
0.868063
0.870735
0.873519
0.876418
0.879436
0.882576
0.885842
0.88924
0.892776
0.89646
0.900301
0.904307
0.908487
0.912848
0.917394
0.922124
0.927038
0.932132
0.937398
0.942824
0.948388
0.954063
0.959804
0.965554
0.97123
0.976729
0.981922
0.986657
0.990777
0.994142
0.996667
0.998356
0.999327
0.999783
0.999948
0.999991
0.999999
1
1
1
1
1
1
1
1
1
1
1
1
1
1
1
1
1
1
1
1
1
1
1
0.842875
0.843373
0.843916
0.844493
0.845114
0.845765
0.846431
0.847123
0.847821
0.848554
0.849335
0.850135
0.850983
0.851879
0.852766
0.853686
0.854688
0.855728
0.856789
0.857898
0.859056
0.860257
0.861509
0.862815
0.864175
0.86559
0.867062
0.868594
0.870189
0.871852
0.873584
0.875387
0.877266
0.879224
0.881266
0.883394
0.885612
0.887923
0.890332
0.892841
0.895453
0.898171
0.900997
0.903935
0.90699
0.910167
0.913471
0.916908
0.920484
0.924203
0.928069
0.932082
0.936241
0.940538
0.944964
0.949507
0.954148
0.958861
0.963612
0.968357
0.973039
0.977588
0.98192
0.985941
0.989552
0.99266
0.995192
0.997115
0.998449
0.999274
0.999714
0.999909
0.999978
0.999996
0.999999
1
1
1
1
1
1
1
1
1
1
1
1
1
1
1
1
1
1
1
1
1
1
1
1
1
0.870883
0.871403
0.871958
0.872542
0.873169
0.873828
0.874514
0.875227
0.875949
0.876702
0.877496
0.878314
0.879184
0.880102
0.881014
0.881955
0.882981
0.884048
0.885128
0.886258
0.88745
0.888682
0.889958
0.891292
0.892683
0.894128
0.895632
0.897199
0.89883
0.900529
0.902298
0.90414
0.906057
0.908054
0.910132
0.912294
0.914542
0.916878
0.919305
0.921824
0.924439
0.927151
0.929963
0.932878
0.935898
0.939023
0.942254
0.945589
0.949023
0.952548
0.956155
0.959828
0.963548
0.967292
0.97103
0.974727
0.978342
0.981824
0.985121
0.988175
0.990929
0.993331
0.995341
0.996941
0.998137
0.998963
0.999484
0.999775
0.999916
0.999974
0.999994
0.999999
1
1
1
1
1
1
1
1
1
1
1
1
1
1
1
1
1
1
1
1
1
1
1
1
1
1
1
1
0.900835
0.901371
0.901942
0.902545
0.903185
0.903855
0.904555
0.905278
0.906017
0.906789
0.907595
0.908431
0.909321
0.910243
0.911171
0.912137
0.913174
0.914252
0.91535
0.916492
0.917693
0.918938
0.920228
0.921571
0.92297
0.924423
0.925931
0.927499
0.929128
0.93082
0.932575
0.934396
0.936283
0.938238
0.940261
0.942354
0.944516
0.946747
0.949048
0.951418
0.953854
0.956355
0.958917
0.961535
0.964201
0.966906
0.969639
0.972385
0.975126
0.977841
0.980508
0.983101
0.985591
0.987948
0.990141
0.992141
0.993922
0.995461
0.996748
0.99778
0.998568
0.999136
0.999518
0.999755
0.999888
0.999955
0.999984
0.999995
0.999999
1
1
1
1
1
1
1
1
1
1
1
1
1
1
1
1
1
1
1
1
1
1
1
1
1
1
1
1
1
1
1
0.932488
0.933016
0.933583
0.934184
0.934815
0.935472
0.936153
0.936854
0.937577
0.93833
0.939114
0.939932
0.940788
0.941665
0.942563
0.943504
0.944492
0.945512
0.94656
0.947648
0.948778
0.949948
0.951157
0.952408
0.953702
0.955037
0.956414
0.957834
0.959296
0.9608
0.962344
0.963928
0.965549
0.967206
0.968897
0.970618
0.972365
0.974134
0.975919
0.977713
0.979509
0.981298
0.98307
0.984813
0.986515
0.988163
0.989742
0.991238
0.992637
0.993926
0.995094
0.99613
0.99703
0.997789
0.998412
0.998905
0.999278
0.999549
0.999735
0.999854
0.999926
0.999966
0.999986
0.999995
0.999998
0.999999
1
1
1
1
1
1
1
1
1
1
1
1
1
1
1
1
1
1
1
1
1
1
1
1
1
1
1
1
1
1
1
1
1
1
0.963394
0.963848
0.964336
0.964848
0.965381
0.965931
0.966498
0.967081
0.967683
0.968307
0.968953
0.969621
0.970309
0.971013
0.971738
0.972489
0.973262
0.974053
0.974863
0.975695
0.976547
0.977418
0.978306
0.979212
0.980133
0.981068
0.982015
0.982973
0.983938
0.984909
0.985882
0.986855
0.987823
0.988783
0.989731
0.990661
0.99157
0.992452
0.993302
0.994115
0.994884
0.995607
0.996277
0.996891
0.997446
0.99794
0.998371
0.998741
0.999051
0.999304
0.999506
0.999661
0.999776
0.999859
0.999915
0.999951
0.999974
0.999987
0.999994
0.999997
0.999999
1
1
1
1
1
1
1
1
1
1
1
1
1
1
1
1
1
1
1
1
1
1
1
1
1
1
1
1
1
1
1
1
1
1
1
1
1
1
1
0.987054
0.987323
0.98761
0.987907
0.988212
0.988523
0.98884
0.989165
0.989498
0.989838
0.990184
0.990536
0.990891
0.991252
0.991619
0.99199
0.992363
0.992738
0.993115
0.993493
0.99387
0.994246
0.994619
0.994989
0.995353
0.995712
0.996063
0.996405
0.996737
0.997057
0.997364
0.997657
0.997935
0.998195
0.998438
0.998663
0.998868
0.999054
0.999219
0.999366
0.999493
0.999601
0.999693
0.999768
0.999829
0.999877
0.999914
0.999942
0.999962
0.999976
0.999985
0.999991
0.999995
0.999997
0.999999
0.999999
1
1
1
1
1
1
1
1
1
1
1
1
1
1
1
1
1
1
1
1
1
1
1
1
1
1
1
1
1
1
1
1
1
1
1
1
1
1
1
1
1
1
1
1
0.997812
0.997889
0.997968
0.998049
0.998129
0.99821
0.998292
0.998373
0.998455
0.998537
0.998617
0.998697
0.998776
0.998855
0.998932
0.999007
0.999081
0.999152
0.999222
0.999289
0.999354
0.999416
0.999475
0.999531
0.999584
0.999633
0.999679
0.999722
0.999761
0.999796
0.999828
0.999856
0.999882
0.999903
0.999922
0.999938
0.999952
0.999963
0.999972
0.999979
0.999985
0.999989
0.999993
0.999995
0.999997
0.999998
0.999999
0.999999
1
1
1
1
1
1
1
1
1
1
1
1
1
1
1
1
1
1
1
1
1
1
1
1
1
1
1
1
1
1
1
1
1
1
1
1
1
1
1
1
1
1
1
1
1
1
1
1
1
1
1
1
0.999876
0.999883
0.999889
0.999896
0.999902
0.999909
0.999915
0.999921
0.999927
0.999933
0.999938
0.999943
0.999948
0.999953
0.999958
0.999962
0.999966
0.99997
0.999973
0.999977
0.99998
0.999982
0.999985
0.999987
0.999989
0.999991
0.999992
0.999994
0.999995
0.999996
0.999997
0.999997
0.999998
0.999998
0.999999
0.999999
0.999999
1
1
1
1
1
1
1
1
1
1
1
1
1
1
1
1
1
1
1
1
1
1
1
1
1
1
1
1
1
1
1
1
1
1
1
1
1
1
1
1
1
1
1
1
1
1
1
1
1
1
1
1
1
1
1
1
1
1
1
1
1
1
1
0.999998
0.999998
0.999998
0.999998
0.999999
0.999999
0.999999
0.999999
0.999999
0.999999
0.999999
0.999999
0.999999
0.999999
0.999999
1
1
1
1
1
1
1
1
1
1
1
1
1
1
1
1
1
1
1
1
1
1
1
1
1
1
1
1
1
1
1
1
1
1
1
1
1
1
1
1
1
1
1
1
1
1
1
1
1
1
1
1
1
1
1
1
1
1
1
1
1
1
1
1
1
1
1
1
1
1
1
1
1
1
1
1
1
1
1
1
1
1
1
1
1
1
1
1
1
1
1
1
1
1
1
1
1
1
1
1
1
1
1
1
1
1
1
1
1
1
1
1
1
1
1
1
1
1
1
1
1
1
1
1
1
1
1
1
1
1
1