/*--------------------------------*- C++ -*----------------------------------*\
  =========                 |
  \\      /  F ield         | OpenFOAM: The Open Source CFD Toolbox
   \\    /   O peration     | Website:  https://openfoam.org
    \\  /    A nd           | Version:  7
     \\/     M anipulation  |
\*---------------------------------------------------------------------------*/
FoamFile
{
    version     2.0;
    format      ascii;
    class       volScalarField;
    location    "4";
    object      p;
}
// * * * * * * * * * * * * * * * * * * * * * * * * * * * * * * * * * * * * * //

dimensions      [1 -1 -2 0 0 0 0];

internalField   nonuniform List<scalar> 
90000
(
0.227604
0.264513
0.297526
0.326402
0.353286
0.384751
0.419987
0.460939
0.50632
0.556743
0.610118
0.666439
0.721452
0.775176
0.823759
0.867201
0.89932
0.925161
0.938581
0.941264
0.935587
0.921723
0.906346
0.891658
0.890977
0.888657
0.888113
0.884213
0.879093
0.88142
0.890358
0.901767
0.914077
0.921913
0.926131
0.924075
0.919392
0.919052
0.922417
0.925191
0.923443
0.920073
0.91931
0.922201
0.929986
0.941786
0.944897
0.940477
0.932771
0.93376
0.939896
0.947365
0.946582
0.942298
0.938696
0.941528
0.944934
0.948826
0.948617
0.947006
0.945445
0.942891
0.945949
0.955689
0.966619
0.968788
0.969986
0.980067
1.00558
1.04656
1.07696
1.08797
1.09144
1.09663
1.10407
1.10873
1.10912
1.10823
1.10451
1.10043
1.09705
1.0934
1.08901
1.0824
1.07333
1.06477
1.05693
1.04897
1.03895
1.02739
1.02223
1.01722
1.00933
1.0038
1.00556
0.993488
0.976689
0.957189
0.936242
0.899088
0.188701
0.188677
0.188655
0.188639
0.188645
0.188593
0.188883
0.190246
0.193777
0.201178
0.213714
0.234558
0.263419
0.303429
0.354784
0.419977
0.495803
0.574899
0.647956
0.714199
0.779378
0.828867
0.872789
0.904322
0.926466
0.921115
0.914584
0.903134
0.896044
0.903606
0.908134
0.909676
0.907801
0.90923
0.912092
0.908446
0.910596
0.918974
0.929588
0.933806
0.928934
0.921792
0.921022
0.919967
0.927843
0.938966
0.940193
0.9355
0.929653
0.932234
0.939699
0.945573
0.944527
0.941031
0.937768
0.940673
0.94964
0.951839
0.947356
0.944328
0.944343
0.945498
0.949153
0.95701
0.964297
0.96427
0.965839
0.978058
1.00698
1.05254
1.07868
1.08668
1.0909
1.09861
1.10638
1.10966
1.11039
1.10818
1.10417
1.0999
1.09772
1.09368
1.08855
1.08198
1.07256
1.06392
1.05697
1.04887
1.03857
1.02753
1.02233
1.01681
1.00813
1.00184
1.00393
0.992159
0.97552
0.956487
0.935694
0.899848
0.188154
0.188182
0.188217
0.188261
0.188322
0.188389
0.188442
0.188489
0.188415
0.188287
0.188152
0.188032
0.187953
0.187936
0.187814
0.188396
0.192063
0.201803
0.222256
0.254604
0.305074
0.374239
0.462436
0.564331
0.661908
0.749037
0.81306
0.872137
0.909676
0.930015
0.930926
0.920724
0.913397
0.910174
0.902003
0.896305
0.901597
0.915107
0.923408
0.925847
0.92152
0.91865
0.921138
0.933106
0.940292
0.941399
0.935951
0.927847
0.930843
0.941622
0.947359
0.946194
0.940781
0.938985
0.941407
0.948576
0.951295
0.94601
0.942065
0.941582
0.943365
0.946641
0.952738
0.960715
0.963594
0.961873
0.962334
0.97651
1.0109
1.06092
1.08113
1.08715
1.09326
1.10198
1.11076
1.11205
1.11177
1.10861
1.10379
1.10023
1.09726
1.09348
1.08827
1.08193
1.07205
1.06322
1.05716
1.04853
1.03811
1.02764
1.02215
1.01622
1.00683
0.999836
1.00219
0.990829
0.97429
0.955772
0.935204
0.900614
0.187477
0.187523
0.187563
0.187605
0.187645
0.18768
0.187714
0.187744
0.187779
0.187841
0.187915
0.188005
0.188103
0.188219
0.188369
0.188498
0.188596
0.188449
0.188306
0.188149
0.188182
0.187967
0.189895
0.199716
0.223794
0.271596
0.340565
0.43601
0.542002
0.631111
0.716031
0.766697
0.816053
0.847605
0.865299
0.880762
0.897507
0.920203
0.920338
0.916954
0.918044
0.925699
0.941429
0.946719
0.940517
0.925987
0.920206
0.925368
0.939948
0.949481
0.945498
0.938028
0.934552
0.938785
0.94723
0.951115
0.94621
0.942555
0.942128
0.941999
0.942922
0.948
0.956039
0.962967
0.959865
0.955394
0.956498
0.973573
1.01376
1.06673
1.08377
1.08845
1.09462
1.10629
1.1135
1.11433
1.11288
1.10917
1.10427
1.10103
1.0977
1.09386
1.08801
1.08158
1.07156
1.06269
1.05757
1.04817
1.03757
1.02778
1.02184
1.01542
1.00553
0.998085
1.00014
0.990039
0.973415
0.955194
0.934761
0.901362
0.186966
0.186998
0.187027
0.187066
0.187098
0.187143
0.18718
0.187228
0.187265
0.18732
0.187358
0.187411
0.187424
0.187468
0.187493
0.187588
0.187676
0.187812
0.187966
0.188142
0.188342
0.188567
0.188774
0.188674
0.188539
0.188474
0.188364
0.188928
0.196398
0.218191
0.261942
0.328518
0.415195
0.518224
0.618866
0.703455
0.77131
0.813962
0.846676
0.877021
0.900516
0.920719
0.949923
0.945298
0.938796
0.92483
0.92696
0.935682
0.946459
0.944795
0.93561
0.93231
0.936167
0.94442
0.952276
0.952613
0.947175
0.943275
0.943075
0.942659
0.942952
0.947277
0.956293
0.961041
0.956203
0.952429
0.954991
0.973047
1.01546
1.06963
1.08535
1.09015
1.09743
1.11027
1.11512
1.11576
1.11435
1.11033
1.10556
1.10184
1.09865
1.09429
1.08759
1.08125
1.07076
1.0622
1.05755
1.04773
1.03706
1.02793
1.02145
1.01434
1.00424
0.996686
0.998204
0.989257
0.972346
0.954443
0.934365
0.902158
0.186431
0.186443
0.186472
0.186497
0.186539
0.186573
0.186621
0.186657
0.186705
0.186753
0.186825
0.186897
0.186958
0.187007
0.18706
0.187174
0.187321
0.187521
0.187662
0.187815
0.187899
0.188064
0.188165
0.188361
0.188512
0.188756
0.188943
0.189106
0.18931
0.18915
0.188918
0.18894
0.188682
0.194968
0.218218
0.264277
0.334835
0.424044
0.526391
0.629936
0.727395
0.796846
0.844376
0.877376
0.905279
0.916264
0.934713
0.948849
0.95689
0.946335
0.933497
0.931902
0.940592
0.94642
0.947108
0.942161
0.938921
0.940186
0.943739
0.945177
0.947622
0.951929
0.956767
0.956488
0.95006
0.948056
0.955181
0.976886
1.01779
1.07087
1.08644
1.09368
1.10354
1.11437
1.11643
1.11542
1.11328
1.10914
1.10568
1.10289
1.09969
1.09479
1.08676
1.08096
1.06959
1.06223
1.05776
1.04731
1.03648
1.02801
1.02098
1.01313
1.00317
0.995585
0.996119
0.988809
0.971603
0.953789
0.933963
0.902938
0.186426
0.186425
0.18642
0.186421
0.186433
0.186446
0.186462
0.186466
0.186484
0.186505
0.186564
0.186642
0.186757
0.186837
0.1869
0.186947
0.187077
0.187235
0.187428
0.187561
0.187694
0.187804
0.187956
0.188092
0.188223
0.188334
0.188391
0.188516
0.18855
0.188651
0.188817
0.189021
0.189266
0.189271
0.189287
0.189341
0.189661
0.189545
0.197058
0.221944
0.274387
0.352652
0.450107
0.565363
0.679629
0.777027
0.8518
0.891385
0.913437
0.921075
0.927086
0.936607
0.952969
0.958978
0.950535
0.939962
0.936397
0.940153
0.942169
0.943055
0.94576
0.952419
0.956106
0.951436
0.944095
0.944733
0.955221
0.978575
1.0195
1.06657
1.08708
1.09995
1.11157
1.11301
1.11166
1.11102
1.10977
1.10746
1.10572
1.10377
1.10048
1.09493
1.08587
1.08016
1.06878
1.06265
1.05723
1.04679
1.03587
1.02798
1.02042
1.01201
1.00242
0.994954
0.994426
0.988268
0.970499
0.952866
0.933646
0.903793
0.186403
0.186399
0.186392
0.186391
0.186383
0.186393
0.18641
0.186424
0.186409
0.186406
0.186413
0.186473
0.186576
0.186737
0.186861
0.186951
0.187041
0.187189
0.187367
0.187559
0.187714
0.187831
0.187918
0.187986
0.188052
0.188094
0.188152
0.188208
0.188309
0.188435
0.188582
0.188676
0.188787
0.188929
0.189101
0.189395
0.189715
0.190059
0.190243
0.190333
0.190328
0.190364
0.190862
0.202963
0.237635
0.310261
0.41071
0.533602
0.649169
0.75778
0.848472
0.907166
0.926687
0.937041
0.935514
0.936466
0.942644
0.948097
0.946247
0.943528
0.945918
0.951757
0.954985
0.948178
0.94129
0.945992
0.959596
0.979239
1.01534
1.06203
1.09113
1.10974
1.11718
1.11301
1.10985
1.10921
1.10838
1.10705
1.10606
1.10436
1.10127
1.09411
1.08555
1.07845
1.06903
1.06315
1.05797
1.0465
1.0355
1.02775
1.0199
1.01095
1.00195
0.994697
0.992909
0.987786
0.970417
0.952397
0.933476
0.904722
0.186865
0.186882
0.186866
0.186829
0.186814
0.186822
0.18685
0.18685
0.186807
0.186742
0.186705
0.186707
0.186757
0.186874
0.187043
0.187195
0.187324
0.187438
0.187561
0.187735
0.187931
0.188062
0.188107
0.188076
0.188008
0.187957
0.187904
0.187895
0.187925
0.188
0.188133
0.188264
0.188399
0.188591
0.188735
0.188927
0.189241
0.189529
0.189793
0.190269
0.190476
0.190643
0.190781
0.190821
0.190883
0.191184
0.191188
0.19882
0.227361
0.295222
0.404849
0.542768
0.664595
0.780307
0.857746
0.917943
0.941904
0.942766
0.944517
0.941972
0.945803
0.951262
0.948956
0.937734
0.940482
0.953618
0.966033
0.979873
1.00886
1.05804
1.09812
1.11975
1.11928
1.11211
1.11005
1.11088
1.10968
1.10743
1.10641
1.10499
1.10085
1.09299
1.08467
1.07714
1.06949
1.06361
1.05837
1.0462
1.03565
1.02767
1.01956
1.01013
1.00167
0.99471
0.991706
0.987237
0.970059
0.951777
0.933485
0.905789
0.186865
0.186905
0.186932
0.186913
0.186894
0.186908
0.18695
0.186994
0.186997
0.186968
0.186944
0.186954
0.186993
0.187067
0.187193
0.187352
0.187526
0.187675
0.187794
0.187979
0.18823
0.188387
0.188412
0.18831
0.188136
0.187942
0.18779
0.187688
0.187667
0.187681
0.187807
0.187938
0.188059
0.188238
0.188384
0.188541
0.188896
0.18918
0.189469
0.189899
0.190156
0.190239
0.190332
0.190589
0.190791
0.191054
0.191271
0.191411
0.191596
0.191919
0.191917
0.199852
0.234189
0.312003
0.444452
0.596102
0.739816
0.834449
0.914846
0.933275
0.946075
0.945564
0.93867
0.931601
0.9462
0.965354
0.969236
0.975007
0.999658
1.05451
1.10981
1.1268
1.11988
1.11144
1.11309
1.11499
1.112
1.10837
1.10751
1.10523
1.09999
1.09169
1.0835
1.07671
1.06979
1.06427
1.05811
1.04629
1.03576
1.02761
1.01948
1.00973
1.0017
0.994973
0.990823
0.986539
0.969787
0.951445
0.933739
0.90704
0.186798
0.186833
0.186838
0.186816
0.186791
0.186781
0.186795
0.186834
0.186872
0.186891
0.186912
0.186963
0.187049
0.187163
0.187296
0.187451
0.187616
0.187799
0.187931
0.188112
0.188436
0.188633
0.188603
0.188521
0.188291
0.187999
0.187757
0.187616
0.187562
0.187558
0.187626
0.187788
0.1879
0.188067
0.188234
0.188336
0.188589
0.188895
0.189138
0.189533
0.18997
0.190096
0.190218
0.190395
0.190505
0.190649
0.190897
0.191174
0.191502
0.191843
0.19208
0.192175
0.192323
0.192453
0.19235
0.207687
0.269698
0.388619
0.550331
0.710472
0.834072
0.887883
0.916227
0.928939
0.960488
0.977791
0.969942
0.968926
0.989981
1.05281
1.12
1.12986
1.11875
1.11412
1.11982
1.12134
1.11619
1.11121
1.10842
1.106
1.09898
1.09063
1.08283
1.07654
1.07028
1.06463
1.05758
1.04632
1.03597
1.02789
1.01993
1.00992
1.00214
0.995481
0.990399
0.985829
0.969563
0.951235
0.934139
0.908423
0.186049
0.18609
0.186132
0.186166
0.186194
0.186216
0.186241
0.186298
0.186374
0.186413
0.186439
0.186498
0.18661
0.186747
0.186889
0.187053
0.187206
0.187384
0.187605
0.187831
0.188194
0.188524
0.188572
0.188545
0.188489
0.188222
0.187993
0.187834
0.187794
0.187794
0.18782
0.18796
0.188077
0.188185
0.188306
0.188337
0.188459
0.188709
0.188921
0.189303
0.189785
0.189951
0.190021
0.190243
0.190357
0.190382
0.190574
0.190841
0.191205
0.19162
0.191922
0.192141
0.192346
0.192388
0.192386
0.192613
0.192768
0.192768
0.201578
0.256891
0.370379
0.533767
0.706808
0.842861
0.937474
0.956293
0.961045
0.963627
0.98264
1.05599
1.12621
1.12953
1.11706
1.11984
1.12687
1.12549
1.117
1.11099
1.10977
1.10606
1.09809
1.09026
1.08223
1.07733
1.07162
1.06533
1.05732
1.04653
1.03646
1.02847
1.0206
1.01078
1.00304
0.996266
0.990115
0.984947
0.969338
0.951207
0.934677
0.909886
0.185143
0.185171
0.185199
0.185228
0.185265
0.185317
0.185359
0.185407
0.185502
0.185613
0.185698
0.185773
0.185885
0.186045
0.18621
0.186374
0.186548
0.186727
0.186948
0.187226
0.187547
0.187888
0.188119
0.188233
0.188297
0.188329
0.188363
0.188352
0.188316
0.18831
0.188344
0.18843
0.188508
0.188576
0.18861
0.188523
0.188511
0.18864
0.188794
0.189106
0.189565
0.189742
0.189803
0.190115
0.190302
0.190198
0.190227
0.190469
0.190852
0.191338
0.191689
0.191927
0.192096
0.192071
0.19215
0.192538
0.19261
0.192572
0.19265
0.192856
0.192964
0.201027
0.249932
0.37739
0.560612
0.720683
0.849083
0.907577
0.966407
1.0674
1.13446
1.12757
1.12064
1.12974
1.13152
1.12453
1.11493
1.11161
1.11092
1.10586
1.09802
1.08964
1.0835
1.07924
1.07318
1.06567
1.05695
1.04682
1.03723
1.02933
1.02142
1.01212
1.0042
0.997102
0.989835
0.983854
0.969166
0.951369
0.935304
0.911328
0.18433
0.18438
0.1844
0.184409
0.18442
0.184465
0.184518
0.184569
0.184648
0.184734
0.184816
0.184895
0.184993
0.185146
0.18534
0.185536
0.185716
0.185902
0.186128
0.186413
0.18677
0.187184
0.187535
0.187718
0.187832
0.187999
0.18823
0.188451
0.188596
0.188689
0.188771
0.188843
0.188863
0.188871
0.188887
0.188764
0.188606
0.188561
0.188623
0.188852
0.189208
0.189398
0.189488
0.189772
0.190102
0.190017
0.189871
0.190055
0.190467
0.190994
0.191401
0.191662
0.191775
0.191748
0.191982
0.192432
0.19241
0.192327
0.192536
0.192789
0.193027
0.193227
0.193354
0.193329
0.20313
0.271912
0.413395
0.622926
0.829274
1.03618
1.1323
1.12592
1.13197
1.13861
1.13313
1.12163
1.11309
1.11253
1.11215
1.10614
1.09785
1.09084
1.08594
1.08117
1.07438
1.06577
1.0569
1.04749
1.03827
1.03035
1.02249
1.01367
1.00536
0.997757
0.989621
0.982762
0.969029
0.951728
0.936036
0.912732
0.184191
0.184033
0.183884
0.183848
0.183962
0.183981
0.183858
0.183862
0.184047
0.184184
0.184185
0.184165
0.184198
0.184288
0.184414
0.184574
0.18478
0.185022
0.185341
0.185732
0.186144
0.186527
0.186909
0.1872
0.187364
0.187563
0.187855
0.188118
0.188332
0.188499
0.188596
0.188703
0.188727
0.18864
0.188615
0.188719
0.188592
0.188414
0.188389
0.188556
0.18883
0.189036
0.189178
0.189413
0.189828
0.190032
0.189808
0.189748
0.19008
0.190643
0.191144
0.191307
0.191348
0.191414
0.191736
0.192215
0.192226
0.192138
0.192364
0.192678
0.192946
0.193181
0.193247
0.193217
0.19328
0.193562
0.193759
0.219369
0.327082
0.622758
0.951305
1.11153
1.14979
1.14476
1.12923
1.11774
1.1129
1.11357
1.1129
1.10696
1.09905
1.0925
1.08841
1.08229
1.07467
1.06544
1.05686
1.04822
1.03931
1.03131
1.02346
1.01499
1.00633
0.998055
0.988929
0.981219
0.968856
0.952218
0.936806
0.91408
0.18452
0.184434
0.184345
0.184296
0.184245
0.184116
0.183918
0.183856
0.183971
0.183957
0.183752
0.183616
0.183709
0.183842
0.183902
0.183961
0.184101
0.184321
0.184603
0.184993
0.185481
0.18591
0.186312
0.186738
0.187004
0.187185
0.18747
0.187723
0.187927
0.18811
0.188193
0.188232
0.188263
0.188067
0.187746
0.187808
0.188048
0.187973
0.187907
0.188063
0.188348
0.18861
0.188808
0.189009
0.189357
0.189879
0.190004
0.189736
0.189791
0.19031
0.190851
0.190869
0.190877
0.191078
0.191432
0.19197
0.192075
0.192003
0.192197
0.192543
0.192825
0.193044
0.193071
0.193043
0.193144
0.193438
0.193748
0.194083
0.194205
0.21388
0.430871
0.889427
1.14693
1.13875
1.12558
1.11779
1.11616
1.11542
1.11369
1.10705
1.09902
1.09364
1.08938
1.08257
1.07419
1.06512
1.05711
1.049
1.0402
1.032
1.02397
1.01577
1.00681
0.997816
0.987835
0.978699
0.968419
0.952857
0.937617
0.915406
0.185056
0.185015
0.184887
0.184736
0.184687
0.18461
0.184423
0.184283
0.184267
0.184223
0.184065
0.18396
0.183887
0.183823
0.183832
0.183809
0.183798
0.183962
0.184201
0.184484
0.184952
0.185457
0.185827
0.18627
0.186719
0.186928
0.187075
0.187231
0.18739
0.18754
0.187618
0.187621
0.187691
0.187819
0.187564
0.187244
0.187268
0.187214
0.187086
0.1873
0.18775
0.188102
0.188373
0.188626
0.188963
0.189508
0.189876
0.189719
0.189637
0.189982
0.190473
0.190437
0.190376
0.190662
0.190972
0.191445
0.191787
0.191836
0.192025
0.192303
0.192597
0.192827
0.192828
0.192798
0.192946
0.19329
0.193666
0.193938
0.194141
0.194212
0.194326
0.317602
0.770316
1.04765
1.12271
1.12277
1.12613
1.12203
1.11457
1.10601
1.09895
1.09425
1.08894
1.08179
1.07337
1.06475
1.05745
1.04957
1.04065
1.03226
1.02401
1.01599
1.00677
0.996958
0.986655
0.976476
0.967877
0.953345
0.938394
0.916712
0.185114
0.185038
0.184964
0.184896
0.184845
0.184774
0.184719
0.184651
0.18452
0.184458
0.184417
0.184285
0.18415
0.184033
0.184012
0.184085
0.184012
0.183953
0.184077
0.184267
0.184583
0.185165
0.185573
0.185889
0.186406
0.186747
0.186753
0.186837
0.186915
0.187012
0.187103
0.187039
0.186954
0.187049
0.187018
0.186912
0.187079
0.187358
0.187191
0.186854
0.186916
0.187339
0.187857
0.18823
0.188667
0.189233
0.189621
0.189528
0.189336
0.189537
0.190007
0.189982
0.189984
0.190431
0.190653
0.190759
0.191179
0.191525
0.191785
0.192036
0.192268
0.192418
0.192439
0.192479
0.192675
0.193112
0.193514
0.193745
0.193938
0.193976
0.194062
0.194266
0.260774
0.65577
1.06162
1.12554
1.13741
1.13124
1.11669
1.10538
1.09907
1.09418
1.0881
1.08046
1.07215
1.06467
1.05811
1.04983
1.04049
1.03183
1.02337
1.01541
1.0062
0.995864
0.985409
0.974775
0.966951
0.953729
0.939225
0.918068
0.184821
0.184728
0.184645
0.184574
0.184517
0.184452
0.184373
0.184293
0.184217
0.184148
0.1841
0.184061
0.184015
0.183929
0.183846
0.183831
0.183838
0.183792
0.183786
0.183951
0.184207
0.184633
0.18514
0.185518
0.185944
0.186233
0.186332
0.186327
0.186214
0.186384
0.186606
0.186445
0.186254
0.186391
0.186589
0.186567
0.186563
0.186801
0.186937
0.186801
0.186832
0.186975
0.187146
0.187514
0.188145
0.188807
0.18923
0.189178
0.18894
0.188997
0.189413
0.189424
0.189455
0.189936
0.190229
0.190275
0.190511
0.191018
0.191472
0.191774
0.191992
0.192107
0.192144
0.192212
0.192428
0.192881
0.193256
0.193569
0.193667
0.193693
0.193837
0.194121
0.194385
0.227598
0.548343
0.982665
1.12593
1.13205
1.1153
1.10565
1.09936
1.09397
1.08772
1.07967
1.07174
1.06567
1.05902
1.04945
1.03975
1.03094
1.02239
1.01442
1.00524
0.994798
0.984254
0.973719
0.965825
0.954309
0.94008
0.919439
0.183818
0.183745
0.183674
0.183617
0.183629
0.183686
0.183723
0.183679
0.183562
0.183431
0.183308
0.183179
0.183169
0.183082
0.18292
0.182813
0.182919
0.183043
0.183103
0.183184
0.183319
0.183577
0.183935
0.184165
0.184264
0.184481
0.184816
0.18484
0.184926
0.185507
0.185785
0.185617
0.185449
0.185708
0.186111
0.186269
0.186393
0.186576
0.186665
0.186573
0.186554
0.18676
0.18702
0.18719
0.187423
0.187857
0.188412
0.188576
0.188412
0.188396
0.188725
0.188838
0.188882
0.189257
0.189848
0.189994
0.190173
0.19053
0.190888
0.191196
0.191464
0.191662
0.191809
0.191953
0.192208
0.192585
0.192864
0.193179
0.193291
0.193398
0.193597
0.193919
0.194376
0.194854
0.203584
0.438802
0.882361
1.10056
1.11071
1.11316
1.10105
1.09524
1.08898
1.08042
1.07322
1.06803
1.05902
1.04851
1.03849
1.02958
1.02113
1.01323
1.00413
0.993983
0.983411
0.973247
0.965055
0.954899
0.941078
0.920999
0.182664
0.18257
0.182505
0.182441
0.182452
0.182562
0.182717
0.182679
0.182493
0.182421
0.182355
0.18213
0.181967
0.18175
0.181473
0.181266
0.181141
0.181202
0.181156
0.181059
0.181157
0.181052
0.180882
0.18094
0.181204
0.18165
0.182396
0.183201
0.183299
0.183254
0.183787
0.18438
0.184638
0.185013
0.185474
0.185788
0.18599
0.186188
0.186348
0.186397
0.186328
0.186411
0.186621
0.186799
0.187009
0.187282
0.187549
0.187772
0.187757
0.187823
0.188201
0.188358
0.188411
0.188703
0.189386
0.189728
0.189907
0.190186
0.190386
0.190556
0.190758
0.19101
0.191299
0.191624
0.191983
0.192191
0.192322
0.192554
0.192833
0.193092
0.193375
0.193816
0.19444
0.195443
0.196148
0.196749
0.33045
0.795638
1.05559
1.11624
1.10099
1.09942
1.09114
1.08174
1.07596
1.06935
1.05873
1.04738
1.03726
1.02851
1.0203
1.01248
1.0033
0.993617
0.983122
0.973195
0.965034
0.955525
0.942318
0.922932
0.180033
0.180073
0.180088
0.180268
0.180624
0.180555
0.180569
0.180668
0.180461
0.180309
0.18035
0.180283
0.180172
0.179961
0.179709
0.179643
0.179459
0.178836
0.17863
0.178389
0.178058
0.178134
0.178038
0.177777
0.177848
0.178277
0.179085
0.180273
0.180855
0.181
0.181556
0.182683
0.183091
0.183396
0.183926
0.184563
0.185155
0.185764
0.186073
0.1861
0.185956
0.185831
0.185819
0.185866
0.185899
0.185958
0.186152
0.186475
0.186857
0.187324
0.187853
0.188017
0.188066
0.188271
0.188847
0.189325
0.189534
0.189805
0.189977
0.190058
0.19025
0.19056
0.190944
0.191396
0.191679
0.191702
0.191742
0.191928
0.192325
0.192797
0.193247
0.193852
0.194709
0.195733
0.196214
0.196454
0.196567
0.277482
0.675922
1.03847
1.09414
1.10305
1.09252
1.08385
1.07793
1.0693
1.05829
1.04673
1.03693
1.02857
1.0207
1.01295
1.00347
0.994064
0.983664
0.973715
0.965738
0.956499
0.943911
0.925349
0.174497
0.174743
0.174948
0.17533
0.17565
0.175601
0.175845
0.176255
0.176119
0.176271
0.176531
0.176531
0.176513
0.176433
0.176245
0.175884
0.175543
0.175383
0.175321
0.175002
0.174761
0.174807
0.175205
0.175313
0.17504
0.175087
0.175641
0.176644
0.177772
0.178848
0.179399
0.180042
0.181051
0.181784
0.182378
0.182996
0.183506
0.184042
0.184554
0.184738
0.184675
0.184651
0.184766
0.184945
0.185129
0.185269
0.185387
0.185523
0.185883
0.186632
0.187545
0.187822
0.187859
0.18792
0.18835
0.188807
0.188945
0.189117
0.189385
0.189539
0.189771
0.19011
0.190578
0.191091
0.19123
0.191208
0.191235
0.191456
0.191964
0.192605
0.193274
0.19408
0.194935
0.195741
0.195847
0.19606
0.196064
0.196355
0.237736
0.563597
0.953515
1.09699
1.08714
1.08412
1.07642
1.06784
1.05802
1.04751
1.03861
1.03029
1.02228
1.01456
1.00501
0.995836
0.985755
0.975165
0.966929
0.958001
0.945928
0.928217
0.168464
0.168244
0.168275
0.168401
0.168603
0.168763
0.16889
0.169057
0.169326
0.169932
0.170297
0.170236
0.170378
0.170626
0.170694
0.170694
0.170554
0.170419
0.170337
0.170274
0.17044
0.17054
0.170566
0.170762
0.171485
0.171738
0.172017
0.172631
0.173568
0.174607
0.175581
0.176571
0.177383
0.178038
0.17866
0.179361
0.180192
0.180705
0.181109
0.181642
0.182333
0.182922
0.183352
0.183728
0.184059
0.184374
0.184775
0.185259
0.18553
0.185881
0.186692
0.187318
0.187411
0.187456
0.187801
0.188094
0.188149
0.188242
0.188429
0.188599
0.188928
0.189457
0.190038
0.190446
0.190711
0.190777
0.190896
0.191223
0.191816
0.192557
0.193469
0.194217
0.194947
0.195392
0.195672
0.195481
0.195607
0.196247
0.197093
0.208965
0.461459
0.891487
1.05503
1.08481
1.0735
1.066
1.05954
1.05053
1.04258
1.03341
1.02421
1.0165
1.0073
0.998454
0.988981
0.976969
0.968125
0.959892
0.94837
0.931306
0.163746
0.163942
0.164062
0.163976
0.163771
0.163812
0.164036
0.16425
0.164365
0.164494
0.164833
0.165312
0.165384
0.165361
0.165464
0.16568
0.165867
0.165902
0.165892
0.165811
0.165703
0.16576
0.165833
0.165948
0.16628
0.16676
0.167211
0.167715
0.168352
0.169191
0.170017
0.170716
0.17144
0.172192
0.17282
0.173379
0.17397
0.174702
0.1756
0.176409
0.177092
0.177915
0.178877
0.179862
0.180738
0.181553
0.182526
0.183876
0.184922
0.185056
0.185204
0.185691
0.185943
0.186179
0.186693
0.186894
0.186906
0.187012
0.187252
0.187598
0.188111
0.188822
0.189391
0.189771
0.190149
0.190418
0.190712
0.191164
0.191876
0.192793
0.193568
0.194109
0.194619
0.194961
0.195058
0.195176
0.19549
0.196609
0.19787
0.198617
0.200884
0.350246
0.784052
1.06018
1.06607
1.06662
1.06437
1.05418
1.046
1.03568
1.02507
1.01764
1.00912
1.00039
0.991508
0.978576
0.969005
0.961822
0.950802
0.934188
0.16172
0.16167
0.161764
0.162007
0.162062
0.162061
0.162126
0.162267
0.162392
0.162475
0.16258
0.162846
0.16319
0.16323
0.163252
0.163384
0.163549
0.1636
0.163535
0.163355
0.163142
0.163081
0.163013
0.163007
0.163116
0.163434
0.163786
0.164129
0.164484
0.164875
0.165304
0.165727
0.166158
0.166628
0.167218
0.167897
0.168582
0.169293
0.170097
0.171018
0.171988
0.173004
0.174077
0.175121
0.176093
0.177066
0.178084
0.179032
0.180014
0.181064
0.181958
0.182514
0.182967
0.18367
0.184331
0.184672
0.184906
0.185216
0.185703
0.186411
0.187169
0.187944
0.188635
0.189189
0.189721
0.190174
0.190639
0.191369
0.192399
0.193032
0.193339
0.193675
0.194073
0.19443
0.194789
0.195188
0.196419
0.198249
0.199296
0.199994
0.200964
0.201742
0.298384
0.690775
0.982759
1.06394
1.06835
1.05749
1.04773
1.03497
1.02419
1.01777
1.01005
1.00101
0.991931
0.979664
0.969673
0.96371
0.953075
0.936449
0.161548
0.16157
0.161509
0.161524
0.161674
0.161947
0.1623
0.162413
0.162416
0.162481
0.162642
0.162905
0.163012
0.162994
0.162972
0.163027
0.163175
0.163306
0.163274
0.163056
0.162764
0.162554
0.162297
0.162135
0.162125
0.16222
0.162452
0.162746
0.162905
0.163015
0.163162
0.163275
0.163447
0.163732
0.164136
0.164663
0.165252
0.16579
0.166398
0.167183
0.168109
0.169074
0.170028
0.171012
0.172073
0.173157
0.17417
0.175053
0.175957
0.176841
0.177631
0.178339
0.179072
0.17998
0.18093
0.181757
0.182492
0.183214
0.184037
0.185152
0.186223
0.187104
0.188018
0.188774
0.189455
0.190129
0.19096
0.191942
0.19293
0.193022
0.192994
0.193494
0.193962
0.1943
0.195245
0.196963
0.199335
0.200796
0.201793
0.202844
0.203733
0.204851
0.20519
0.247152
0.560454
0.939643
1.05286
1.05634
1.0462
1.03231
1.02299
1.01749
1.01057
1.00095
0.990906
0.979637
0.970221
0.965247
0.954894
0.937988
0.161882
0.161879
0.161833
0.161831
0.161933
0.162143
0.162493
0.162793
0.162836
0.162812
0.16289
0.163082
0.163209
0.163312
0.163427
0.163463
0.163435
0.163438
0.163541
0.163532
0.163373
0.163046
0.162589
0.162027
0.161777
0.161734
0.16173
0.16182
0.161965
0.161969
0.162035
0.162027
0.162059
0.162275
0.162681
0.163176
0.163714
0.16431
0.165015
0.16566
0.166236
0.166932
0.167751
0.168591
0.169405
0.170179
0.171019
0.171989
0.173084
0.174154
0.175108
0.176043
0.176812
0.177602
0.178568
0.179569
0.180565
0.181654
0.182868
0.184204
0.185435
0.186426
0.187473
0.188474
0.189286
0.190518
0.191694
0.192411
0.193092
0.193629
0.193596
0.193961
0.194855
0.196282
0.198325
0.200733
0.202633
0.203497
0.204283
0.205396
0.206132
0.206855
0.20776
0.207865
0.221534
0.443407
0.854534
1.0151
1.03888
1.03336
1.02467
1.01747
1.01142
1.00109
0.990241
0.979839
0.970701
0.966193
0.956302
0.939363
0.162546
0.162541
0.162563
0.162645
0.162732
0.162878
0.16305
0.163283
0.163543
0.163669
0.163806
0.164025
0.164126
0.164153
0.164209
0.164238
0.164186
0.164022
0.163812
0.16362
0.163391
0.163018
0.162542
0.162094
0.16163
0.161356
0.161234
0.161215
0.161222
0.161276
0.161455
0.161481
0.161533
0.161772
0.162197
0.162703
0.163204
0.163766
0.164661
0.165433
0.165836
0.166374
0.167149
0.167955
0.168611
0.169174
0.169819
0.170723
0.171828
0.172851
0.174009
0.17538
0.176148
0.176716
0.177494
0.178519
0.179598
0.180855
0.182374
0.183816
0.185054
0.186026
0.186946
0.188182
0.190076
0.191744
0.192463
0.192725
0.193466
0.194937
0.196123
0.19716
0.198552
0.200481
0.202527
0.204316
0.205501
0.206455
0.206954
0.207636
0.208308
0.208993
0.209857
0.210816
0.210849
0.212217
0.345979
0.740067
0.985156
1.03637
1.02935
1.01965
1.01462
1.00276
0.991321
0.982197
0.972666
0.96723
0.95817
0.941527
0.16236
0.162472
0.162555
0.16276
0.163097
0.163347
0.16344
0.163533
0.16378
0.164095
0.16439
0.164682
0.164862
0.164871
0.164814
0.164891
0.165031
0.164854
0.164547
0.164504
0.164343
0.16391
0.163314
0.162714
0.162194
0.161735
0.161317
0.161091
0.160989
0.160963
0.161093
0.161617
0.162184
0.16259
0.163003
0.163467
0.163937
0.16431
0.164647
0.165166
0.165903
0.166679
0.167721
0.168628
0.169014
0.169488
0.16998
0.170612
0.171565
0.172324
0.173139
0.17489
0.176429
0.176881
0.177592
0.178596
0.179595
0.18074
0.182352
0.184076
0.185581
0.187062
0.188635
0.19028
0.191614
0.192566
0.193141
0.193769
0.19474
0.196476
0.198852
0.200942
0.202668
0.204471
0.206307
0.20735
0.208206
0.209068
0.209364
0.209846
0.21109
0.212668
0.213211
0.213266
0.213477
0.213568
0.214381
0.290222
0.601576
0.947871
1.01775
1.01905
1.01932
1.00571
0.99537
0.98685
0.976333
0.968279
0.960124
0.944402
0.163444
0.163666
0.163831
0.163981
0.164182
0.164318
0.164412
0.164583
0.164763
0.165011
0.165428
0.165754
0.166029
0.166318
0.166521
0.166683
0.166868
0.167067
0.167144
0.167146
0.167165
0.16719
0.166951
0.166496
0.166132
0.165856
0.165579
0.165249
0.165009
0.164846
0.164845
0.165102
0.165591
0.166144
0.166784
0.167584
0.168436
0.169033
0.169535
0.17016
0.17067
0.17111
0.171804
0.172547
0.17274
0.173046
0.173782
0.174432
0.174855
0.175188
0.175594
0.176221
0.177302
0.178817
0.180369
0.181788
0.183173
0.184499
0.185629
0.186688
0.187855
0.189368
0.190895
0.19211
0.192905
0.193819
0.195327
0.197186
0.198785
0.200312
0.202353
0.204685
0.206558
0.208167
0.209827
0.210252
0.210685
0.211819
0.213063
0.213805
0.214895
0.215899
0.216844
0.217614
0.218454
0.219421
0.220828
0.221325
0.245618
0.48701
0.854895
0.98383
1.02444
1.01041
1.00446
0.992519
0.979793
0.969857
0.962616
0.948225
0.165362
0.165305
0.165301
0.16545
0.165685
0.166031
0.166438
0.166543
0.166656
0.167009
0.167535
0.168057
0.168511
0.16891
0.169277
0.169656
0.170099
0.170528
0.170851
0.171191
0.171377
0.17142
0.171473
0.171553
0.171571
0.171588
0.171712
0.171705
0.17168
0.171805
0.172071
0.172298
0.172544
0.172853
0.17299
0.173088
0.173203
0.173515
0.174046
0.174628
0.175355
0.17601
0.176066
0.175973
0.17605
0.176314
0.176909
0.177725
0.178297
0.179048
0.180341
0.181874
0.183177
0.184567
0.185752
0.186592
0.187318
0.187772
0.188384
0.189655
0.191729
0.194082
0.195775
0.197046
0.198484
0.200437
0.202649
0.204899
0.20689
0.208531
0.209532
0.210463
0.211874
0.212868
0.213806
0.214943
0.215888
0.216905
0.218299
0.219551
0.220534
0.221815
0.22306
0.224272
0.225331
0.226302
0.227233
0.228123
0.228773
0.235318
0.388599
0.7312
0.980281
0.997811
1.01041
0.998939
0.983474
0.971725
0.965801
0.952551
0.172176
0.1724
0.172597
0.172784
0.172982
0.173217
0.173536
0.173981
0.174475
0.174952
0.175416
0.175888
0.176406
0.176896
0.177314
0.177788
0.178275
0.178642
0.179048
0.179363
0.179419
0.179421
0.179419
0.17942
0.179254
0.179123
0.179163
0.179086
0.178923
0.178897
0.178893
0.17883
0.178807
0.178778
0.178662
0.17874
0.179123
0.179746
0.180373
0.180889
0.181342
0.181885
0.182349
0.182581
0.183064
0.183993
0.185216
0.186624
0.188151
0.189793
0.191254
0.192585
0.193995
0.195286
0.196369
0.197165
0.197783
0.198679
0.200067
0.201871
0.203687
0.205133
0.206617
0.208236
0.209892
0.211297
0.212381
0.213365
0.214838
0.216533
0.21783
0.218797
0.219792
0.220805
0.221886
0.223293
0.224605
0.225875
0.227322
0.228847
0.229738
0.230271
0.230915
0.231567
0.231717
0.232097
0.232767
0.233865
0.235559
0.236884
0.238525
0.315722
0.632482
0.893637
1.00206
0.996467
0.98835
0.975925
0.968767
0.956169
0.183589
0.184119
0.184477
0.184744
0.184933
0.185085
0.185234
0.18538
0.185553
0.185765
0.186064
0.186457
0.186837
0.18717
0.18754
0.187895
0.188162
0.188423
0.188658
0.188664
0.188717
0.188827
0.188791
0.188858
0.188809
0.188748
0.188759
0.188732
0.188812
0.189035
0.189097
0.189254
0.189657
0.190273
0.191017
0.191852
0.192754
0.193685
0.194653
0.19569
0.196904
0.197978
0.198864
0.199822
0.200838
0.201787
0.202579
0.203306
0.204059
0.204953
0.205974
0.206846
0.207802
0.208158
0.208471
0.209051