/*--------------------------------*- C++ -*----------------------------------*\
  =========                 |
  \\      /  F ield         | OpenFOAM: The Open Source CFD Toolbox
   \\    /   O peration     | Website:  https://openfoam.org
    \\  /    A nd           | Version:  7
     \\/     M anipulation  |
\*---------------------------------------------------------------------------*/
FoamFile
{
    version     2.0;
    format      ascii;
    class       volVectorField;
    location    "0.5";
    object      U;
}
// * * * * * * * * * * * * * * * * * * * * * * * * * * * * * * * * * * * * * //

dimensions      [0 1 -1 0 0 0 0];

internalField   nonuniform List<vector> 
90000
(
(2.99074 -0.182623 0)
(2.98511 -0.168306 0)
(2.98088 -0.160388 0)
(2.97361 -0.146676 0)
(2.96767 -0.134353 0)
(2.96393 -0.130993 0)
(2.95814 -0.122428 0)
(2.95354 -0.115083 0)
(2.94951 -0.108166 0)
(2.94648 -0.104517 0)
(2.94259 -0.0959762 0)
(2.94064 -0.0912694 0)
(2.93824 -0.0829701 0)
(2.93693 -0.0779809 0)
(2.93507 -0.069932 0)
(2.93344 -0.0633287 0)
(2.93143 -0.0561244 0)
(2.92917 -0.0487808 0)
(2.92671 -0.0409778 0)
(2.92505 -0.0362697 0)
(2.92165 -0.0261387 0)
(2.92052 -0.0231435 0)
(2.91733 -0.0153947 0)
(2.91481 -0.00867965 0)
(2.914 -0.00561903 0)
(2.91127 -1.12632e-05 0)
(2.90825 0.00595871 0)
(2.90838 0.00750396 0)
(2.90785 0.00889254 0)
(2.90652 0.0116518 0)
(2.90453 0.0132791 0)
(2.90377 0.0125957 0)
(2.90332 0.0111395 0)
(2.90444 0.00743197 0)
(2.90405 0.00291811 0)
(2.90227 -0.00052611 0)
(2.90083 -0.00481142 0)
(2.89764 -0.00806187 0)
(2.89515 -0.0100889 0)
(2.89348 -0.0099619 0)
(2.89198 -0.00911308 0)
(2.89112 -0.00823094 0)
(2.8901 -0.00669168 0)
(2.89013 -0.00483979 0)
(2.89005 -0.00305616 0)
(2.89095 -0.000930654 0)
(2.89139 0.00038509 0)
(2.89219 0.00112812 0)
(2.89258 0.00109347 0)
(2.89201 9.68028e-06 0)
(2.89165 -0.000923463 0)
(2.89107 -0.00151757 0)
(2.89095 -0.00164153 0)
(2.89083 -0.000742746 0)
(2.89127 8.09677e-05 0)
(2.89153 0.00118519 0)
(2.8919 0.00121123 0)
(2.89252 0.000816854 0)
(2.89241 -0.000419684 0)
(2.8921 -0.000993259 0)
(2.89152 -0.000775799 0)
(2.89139 -0.000207763 0)
(2.89135 0.000959536 0)
(2.8916 0.00110293 0)
(2.892 0.000835852 0)
(2.89214 0.000348233 0)
(2.89202 0.000167686 0)
(2.89162 0.000351933 0)
(2.89164 0.000952812 0)
(2.89191 0.00124413 0)
(2.89303 0.00124642 0)
(2.89588 0.000534307 0)
(2.90116 -0.000515724 0)
(2.90915 -0.0016381 0)
(2.9177 -0.00180756 0)
(2.9236 -0.00294808 0)
(2.92866 -0.00512666 0)
(2.93297 -0.00719322 0)
(2.93607 -0.0107635 0)
(2.93929 -0.0166294 0)
(2.9455 -0.022352 0)
(2.95097 -0.025112 0)
(2.95239 -0.0219582 0)
(2.95476 -0.0165152 0)
(2.9594 -0.0113922 0)
(2.96525 -0.00699854 0)
(2.97149 -0.00383191 0)
(2.97813 -0.00178566 0)
(2.98552 -0.000668026 0)
(2.99299 -0.000174962 0)
(2.99813 -2.43018e-05 0)
(2.99981 -1.16935e-06 0)
(2.99999 -1.07485e-08 0)
(3 4.93392e-11 0)
(3 8.10417e-13 0)
(3 -2.1386e-14 0)
(3 -2.48026e-16 0)
(3 6.53574e-17 0)
(3 1.53081e-16 0)
(3 8.11342e-16 0)
(2.99381 -0.193874 0)
(2.99337 -0.193084 0)
(2.99261 -0.191661 0)
(2.99148 -0.189889 0)
(2.98981 -0.186289 0)
(2.98839 -0.183597 0)
(2.98616 -0.179101 0)
(2.98405 -0.175275 0)
(2.98133 -0.168835 0)
(2.97927 -0.164469 0)
(2.97609 -0.157962 0)
(2.97292 -0.152483 0)
(2.96901 -0.145904 0)
(2.96536 -0.140093 0)
(2.96075 -0.131382 0)
(2.95766 -0.126001 0)
(2.95292 -0.11414 0)
(2.95048 -0.108623 0)
(2.94574 -0.0956139 0)
(2.94314 -0.0876392 0)
(2.93895 -0.0751571 0)
(2.93705 -0.0672468 0)
(2.93227 -0.0511119 0)
(2.93164 -0.047199 0)
(2.92749 -0.0335565 0)
(2.92434 -0.0215208 0)
(2.92518 -0.0204135 0)
(2.92015 -0.00820249 0)
(2.91808 -0.00222147 0)
(2.91644 0.00211238 0)
(2.91648 0.00407166 0)
(2.91364 0.0081834 0)
(2.91328 0.0107022 0)
(2.91308 0.0120994 0)
(2.91258 0.0113483 0)
(2.91282 0.00991615 0)
(2.91357 0.00927077 0)
(2.91454 0.00769816 0)
(2.91495 0.00560478 0)
(2.91518 0.00381621 0)
(2.91538 0.00278496 0)
(2.91509 0.000704441 0)
(2.91469 0.000874267 0)
(2.91427 0.000447091 0)
(2.91363 0.00193117 0)
(2.91335 0.00241004 0)
(2.91287 0.00246366 0)
(2.91258 0.0024941 0)
(2.9124 0.00165006 0)
(2.91221 0.000917653 0)
(2.91213 5.58114e-05 0)
(2.91173 -0.000240328 0)
(2.91165 -0.000195449 0)
(2.9115 0.000228946 0)
(2.91124 0.000982441 0)
(2.911 0.00175169 0)
(2.91081 0.00203552 0)
(2.9108 0.00123436 0)
(2.91089 0.000429346 0)
(2.91094 -0.000356321 0)
(2.9107 -0.000739609 0)
(2.91039 0.000266882 0)
(2.91011 0.000829212 0)
(2.91004 0.00165184 0)
(2.90978 0.0010738 0)
(2.90992 0.000555319 0)
(2.91005 -0.000187855 0)
(2.90992 5.19158e-05 0)
(2.90969 0.000464438 0)
(2.90972 0.00124685 0)
(2.91037 0.0015012 0)
(2.9128 0.000889947 0)
(2.9179 -0.00113164 0)
(2.9256 -0.00268304 0)
(2.93368 -0.00250012 0)
(2.93927 -0.00290303 0)
(2.94529 -0.00551667 0)
(2.94979 -0.00715761 0)
(2.95306 -0.0108583 0)
(2.95543 -0.0170472 0)
(2.95871 -0.0226859 0)
(2.9603 -0.0247578 0)
(2.9579 -0.021928 0)
(2.95778 -0.0170192 0)
(2.96085 -0.0122629 0)
(2.96574 -0.00796459 0)
(2.97161 -0.00462232 0)
(2.97824 -0.00234052 0)
(2.98563 -0.0010134 0)
(2.99306 -0.000338474 0)
(2.99815 -7.02011e-05 0)
(2.99981 -6.15312e-06 0)
(2.99999 -1.63323e-07 0)
(3 -1.40503e-09 0)
(3 -6.47925e-12 0)
(3 -4.11277e-14 0)
(3 1.38865e-16 0)
(3 1.32689e-15 0)
(3 9.53425e-16 0)
(3 1.53721e-15 0)
(2.99185 -0.193959 0)
(2.9918 -0.193956 0)
(2.99172 -0.193948 0)
(2.99163 -0.193921 0)
(2.99151 -0.193862 0)
(2.99137 -0.193744 0)
(2.99118 -0.193549 0)
(2.99093 -0.193165 0)
(2.99061 -0.192641 0)
(2.9902 -0.191773 0)
(2.98969 -0.190734 0)
(2.98899 -0.189129 0)
(2.98815 -0.187246 0)
(2.98709 -0.184865 0)
(2.98573 -0.181764 0)
(2.98428 -0.178491 0)
(2.9823 -0.173694 0)
(2.98053 -0.1695 0)
(2.97781 -0.162405 0)
(2.97572 -0.157128 0)
(2.97226 -0.147547 0)
(2.9696 -0.140249 0)
(2.96569 -0.129111 0)
(2.96254 -0.119503 0)
(2.95778 -0.105177 0)
(2.95519 -0.0969912 0)
(2.94998 -0.0804413 0)
(2.94544 -0.0661567 0)
(2.94445 -0.0617456 0)
(2.93736 -0.0390898 0)
(2.93576 -0.0361409 0)
(2.93137 -0.0233195 0)
(2.92877 -0.0161874 0)
(2.92669 -0.0115721 0)
(2.92479 -0.0069564 0)
(2.9229 -0.00244258 0)
(2.92313 -8.55394e-05 0)
(2.92278 0.00301122 0)
(2.92218 0.00441127 0)
(2.92166 0.00514048 0)
(2.92162 0.00614471 0)
(2.9223 0.00597835 0)
(2.92323 0.0050304 0)
(2.92419 0.00431424 0)
(2.92501 0.002723 0)
(2.92474 0.000264131 0)
(2.92445 -0.00147084 0)
(2.92393 -0.00262695 0)
(2.92326 -0.00329775 0)
(2.92291 -0.00371957 0)
(2.92261 -0.00376769 0)
(2.92276 -0.00291109 0)
(2.92313 -0.00258041 0)
(2.92227 -0.00153859 0)
(2.92197 -0.000973597 0)
(2.92154 -8.17958e-05 0)
(2.92114 0.000113511 0)
(2.92051 0.00054028 0)
(2.92039 0.000662647 0)
(2.92044 0.000492867 0)
(2.92055 0.000346654 0)
(2.92064 -0.00031302 0)
(2.92054 -0.000410639 0)
(2.92019 -0.00016293 0)
(2.9199 0.000497518 0)
(2.91944 0.00142099 0)
(2.91953 0.00134191 0)
(2.91969 0.000940898 0)
(2.91962 0.000489928 0)
(2.91962 0.000641469 0)
(2.92012 0.0010105 0)
(2.92212 0.000959431 0)
(2.92671 -0.000646234 0)
(2.93415 -0.00239731 0)
(2.94251 -0.00320074 0)
(2.94798 -0.00584726 0)
(2.95506 -0.00687556 0)
(2.95912 -0.00772078 0)
(2.96263 -0.0110806 0)
(2.96449 -0.0168047 0)
(2.96562 -0.0230695 0)
(2.96481 -0.0242229 0)
(2.96111 -0.0216723 0)
(2.9601 -0.0171581 0)
(2.96232 -0.0126526 0)
(2.96648 -0.00859146 0)
(2.97186 -0.00536154 0)
(2.97822 -0.0030286 0)
(2.9856 -0.0014763 0)
(2.99309 -0.000547902 0)
(2.99817 -0.00011893 0)
(2.99981 -1.05271e-05 0)
(2.99999 -2.83864e-07 0)
(3 -2.50852e-09 0)
(3 -1.19725e-11 0)
(3 -4.25279e-14 0)
(3 6.72961e-16 0)
(3 1.21397e-15 0)
(3 1.08533e-15 0)
(3 1.26688e-15 0)
(2.98932 -0.193943 0)
(2.98928 -0.193945 0)
(2.98925 -0.193938 0)
(2.9892 -0.193938 0)
(2.98914 -0.193931 0)
(2.98908 -0.193921 0)
(2.98902 -0.193904 0)
(2.98896 -0.193894 0)
(2.98889 -0.193877 0)
(2.98882 -0.193856 0)
(2.98875 -0.193825 0)
(2.98866 -0.193781 0)
(2.98855 -0.193709 0)
(2.98843 -0.193592 0)
(2.98829 -0.193413 0)
(2.98811 -0.193111 0)
(2.9879 -0.192727 0)
(2.98758 -0.192042 0)
(2.98721 -0.191259 0)
(2.98666 -0.189904 0)
(2.98598 -0.188273 0)
(2.98508 -0.185899 0)
(2.98388 -0.182722 0)
(2.98237 -0.178454 0)
(2.98062 -0.17364 0)
(2.97793 -0.165216 0)
(2.9758 -0.15925 0)
(2.97142 -0.145495 0)
(2.96884 -0.136931 0)
(2.96284 -0.118283 0)
(2.96047 -0.109028 0)
(2.95291 -0.0847408 0)
(2.95019 -0.0751351 0)
(2.94366 -0.0542324 0)
(2.93915 -0.0392961 0)
(2.936 -0.0278973 0)
(2.93265 -0.0181802 0)
(2.92866 -0.0057296 0)
(2.92779 -0.00374171 0)
(2.9267 -0.00166435 0)
(2.92484 0.00394161 0)
(2.92405 0.00391347 0)
(2.92378 0.00462056 0)
(2.92378 0.00437201 0)
(2.92381 0.00324147 0)
(2.92415 0.00238685 0)
(2.92461 0.00116821 0)
(2.92469 0.00068287 0)
(2.92493 0.000558075 0)
(2.92504 0.000191714 0)
(2.92511 0.00134653 0)
(2.92552 0.0008419 0)
(2.92563 0.000875965 0)
(2.92503 -0.00017874 0)
(2.92476 -0.000864864 0)
(2.92435 -0.00100856 0)
(2.92404 -0.0011771 0)
(2.92329 -0.000177415 0)
(2.92273 0.000851395 0)
(2.92281 0.00177022 0)
(2.92263 0.00210209 0)
(2.92279 0.00158829 0)
(2.92309 0.000688661 0)
(2.92321 -0.000264991 0)
(2.92306 -0.000305864 0)
(2.92277 0.000144189 0)
(2.92258 0.000942744 0)
(2.92243 0.00132725 0)
(2.92244 0.000992724 0)
(2.92266 0.000151726 0)
(2.92335 -0.000316164 0)
(2.92534 -0.000912046 0)
(2.92958 -0.00201287 0)
(2.9366 -0.00283836 0)
(2.94513 -0.00324853 0)
(2.95143 -0.00483019 0)
(2.95759 -0.00801853 0)
(2.9624 -0.00895487 0)
(2.96593 -0.0123732 0)
(2.96742 -0.0176147 0)
(2.96742 -0.0227379 0)
(2.9659 -0.0232481 0)
(2.96275 -0.0210781 0)
(2.96189 -0.0170902 0)
(2.96372 -0.0130672 0)
(2.96728 -0.00936923 0)
(2.97218 -0.00620816 0)
(2.97836 -0.00371498 0)
(2.98572 -0.00190271 0)
(2.99317 -0.000733241 0)
(2.99821 -0.000164247 0)
(2.99982 -1.48578e-05 0)
(2.99999 -4.05551e-07 0)
(3 -3.62285e-09 0)
(3 -1.75696e-11 0)
(3 -6.6736e-14 0)
(3 3.0532e-17 0)
(3 1.46175e-15 0)
(3 7.868e-16 0)
(3 4.46798e-16 0)
(2.98739 -0.193749 0)
(2.98737 -0.193748 0)
(2.98736 -0.193747 0)
(2.98734 -0.193747 0)
(2.98733 -0.193747 0)
(2.98732 -0.193748 0)
(2.9873 -0.193748 0)
(2.98729 -0.193747 0)
(2.98726 -0.193747 0)
(2.98724 -0.193743 0)
(2.98721 -0.193739 0)
(2.98718 -0.193733 0)
(2.98714 -0.193723 0)
(2.98709 -0.19371 0)
(2.98705 -0.193695 0)
(2.987 -0.193682 0)
(2.98694 -0.193662 0)
(2.98689 -0.193637 0)
(2.98684 -0.193596 0)
(2.98678 -0.193537 0)
(2.98671 -0.193448 0)
(2.98662 -0.193297 0)
(2.98651 -0.193091 0)
(2.98634 -0.192705 0)
(2.98612 -0.192169 0)
(2.98575 -0.191261 0)
(2.98523 -0.189893 0)
(2.98443 -0.187801 0)
(2.98335 -0.184737 0)
(2.98167 -0.180151 0)
(2.97965 -0.174031 0)
(2.97647 -0.164785 0)
(2.97358 -0.155529 0)
(2.96791 -0.137275 0)
(2.96507 -0.1276 0)
(2.95714 -0.101917 0)
(2.9524 -0.0868988 0)
(2.94795 -0.0714692 0)
(2.9404 -0.0431781 0)
(2.94017 -0.0429863 0)
(2.93298 -0.0202008 0)
(2.93156 -0.0195515 0)
(2.92815 -0.00900997 0)
(2.92794 -0.00955869 0)
(2.92603 -0.00574898 0)
(2.92568 -0.00348597 0)
(2.92553 -0.00159477 0)
(2.92489 -0.000519024 0)
(2.92426 0.000710679 0)
(2.92387 0.00282484 0)
(2.92392 0.00279839 0)
(2.92353 0.00238969 0)
(2.92321 0.00131636 0)
(2.92303 -3.81008e-05 0)
(2.92343 -0.00184584 0)
(2.92329 -0.00239367 0)
(2.92319 -0.00183292 0)
(2.92328 -0.000645608 0)
(2.92301 0.000564098 0)
(2.92293 0.000952563 0)
(2.92269 0.00106688 0)
(2.92242 0.00106326 0)
(2.92249 0.000857518 0)
(2.9227 0.000731249 0)
(2.92305 0.000476861 0)
(2.92316 0.000268254 0)
(2.92295 0.000265035 0)
(2.92264 0.000192515 0)
(2.92242 0.00050073 0)
(2.92263 0.000544132 0)
(2.92345 0.000429566 0)
(2.92555 -1.32013e-05 0)
(2.92993 -0.00175004 0)
(2.93665 -0.00335479 0)
(2.94484 -0.00327091 0)
(2.95193 -0.00437512 0)
(2.95715 -0.00758086 0)
(2.96279 -0.0103929 0)
(2.96629 -0.0141125 0)
(2.96764 -0.0191355 0)
(2.96714 -0.0228953 0)
(2.96602 -0.0228702 0)
(2.96386 -0.0208069 0)
(2.96336 -0.0172275 0)
(2.96501 -0.013484 0)
(2.96823 -0.00995547 0)
(2.97282 -0.00683933 0)
(2.97875 -0.0042922 0)
(2.98593 -0.00231764 0)
(2.99328 -0.000929786 0)
(2.99825 -0.000211627 0)
(2.99983 -1.90804e-05 0)
(2.99999 -5.14452e-07 0)
(3 -4.54834e-09 0)
(3 -2.19605e-11 0)
(3 -9.15211e-14 0)
(3 -6.14106e-16 0)
(3 -4.54086e-17 0)
(3 4.21441e-17 0)
(3 -1.30534e-18 0)
(2.98647 -0.193738 0)
(2.98647 -0.193737 0)
(2.98647 -0.193737 0)
(2.98646 -0.193738 0)
(2.98646 -0.193738 0)
(2.98645 -0.193737 0)
(2.98645 -0.193737 0)
(2.98645 -0.193738 0)
(2.98644 -0.193738 0)
(2.98644 -0.193739 0)
(2.98643 -0.19374 0)
(2.98643 -0.193741 0)
(2.98643 -0.193742 0)
(2.98643 -0.193743 0)
(2.98642 -0.193742 0)
(2.98641 -0.193741 0)
(2.9864 -0.193738 0)
(2.98639 -0.193735 0)
(2.98638 -0.193731 0)
(2.98637 -0.193728 0)
(2.98636 -0.193723 0)
(2.98636 -0.193719 0)
(2.98635 -0.193712 0)
(2.98634 -0.193702 0)
(2.98633 -0.193686 0)
(2.98632 -0.193663 0)
(2.9863 -0.193615 0)
(2.98625 -0.19353 0)
(2.98618 -0.193352 0)
(2.98605 -0.19305 0)
(2.98582 -0.192458 0)
(2.98542 -0.191458 0)
(2.98473 -0.189634 0)
(2.98362 -0.186775 0)
(2.98192 -0.181823 0)
(2.97933 -0.174768 0)
(2.97581 -0.164067 0)
(2.97126 -0.1504 0)
(2.96484 -0.130423 0)
(2.96115 -0.116216 0)
(2.9506 -0.0820185 0)
(2.94972 -0.0748892 0)
(2.93886 -0.0418448 0)
(2.93759 -0.0351714 0)
(2.93029 -0.012633 0)
(2.9301 -0.0100082 0)
(2.92589 9.13262e-06 0)
(2.92469 0.00522669 0)
(2.92346 0.0076743 0)
(2.92272 0.00713501 0)
(2.92252 0.00352402 0)
(2.9219 0.00157248 0)
(2.92159 0.000177 0)
(2.92181 -0.000578305 0)
(2.92215 -0.000780736 0)
(2.92254 -0.000306844 0)
(2.92312 0.00101695 0)
(2.92331 0.000624673 0)
(2.92311 0.00057711 0)
(2.92273 0.000279761 0)
(2.92231 -0.00055405 0)
(2.92203 -5.74328e-05 0)
(2.92212 0.000429721 0)
(2.92225 0.000774514 0)
(2.9224 0.00135969 0)
(2.92276 0.000813119 0)
(2.9226 0.000428445 0)
(2.92249 6.54807e-05 0)
(2.92237 0.000267996 0)
(2.9225 0.000603957 0)
(2.92317 0.000868537 0)
(2.92518 0.00066415 0)
(2.92952 -0.000857762 0)
(2.93621 -0.00325612 0)
(2.94444 -0.00389146 0)
(2.95178 -0.00566448 0)
(2.95704 -0.00908587 0)
(2.96209 -0.0115199 0)
(2.96561 -0.014667 0)
(2.9671 -0.0189487 0)
(2.9666 -0.021999 0)
(2.96597 -0.0219998 0)
(2.96476 -0.0203918 0)
(2.9646 -0.0172864 0)
(2.96618 -0.0138655 0)
(2.96917 -0.0105612 0)
(2.97346 -0.00755052 0)
(2.97915 -0.00493731 0)
(2.98618 -0.00275302 0)
(2.99344 -0.00112495 0)
(2.99831 -0.000257085 0)
(2.99984 -2.2967e-05 0)
(3 -6.09004e-07 0)
(3 -5.3134e-09 0)
(3 -2.55282e-11 0)
(3 -8.90202e-14 0)
(3 -7.11757e-16 0)
(3 -1.36911e-15 0)
(3 -9.23631e-16 0)
(3 -2.73325e-16 0)
(2.98633 -0.193732 0)
(2.98634 -0.193732 0)
(2.98634 -0.193732 0)
(2.98634 -0.193732 0)
(2.98634 -0.193732 0)
(2.98634 -0.193732 0)
(2.98634 -0.193732 0)
(2.98634 -0.193731 0)
(2.98634 -0.193731 0)
(2.98634 -0.193731 0)
(2.98635 -0.193731 0)
(2.98635 -0.193731 0)
(2.98635 -0.193732 0)
(2.98635 -0.193732 0)
(2.98636 -0.193733 0)
(2.98636 -0.193734 0)
(2.98637 -0.193735 0)
(2.98637 -0.193737 0)
(2.98638 -0.193739 0)
(2.98638 -0.193741 0)
(2.98639 -0.193743 0)
(2.9864 -0.193745 0)
(2.9864 -0.193746 0)
(2.98641 -0.193748 0)
(2.98642 -0.193749 0)
(2.98643 -0.193752 0)
(2.98644 -0.19375 0)
(2.98645 -0.193747 0)
(2.98646 -0.19374 0)
(2.98647 -0.193733 0)
(2.98648 -0.193713 0)
(2.98649 -0.193681 0)
(2.98649 -0.193605 0)
(2.98647 -0.193479 0)
(2.98638 -0.193189 0)
(2.98617 -0.192611 0)
(2.9857 -0.191357 0)
(2.98486 -0.189171 0)
(2.9832 -0.18481 0)
(2.98086 -0.178159 0)
(2.97671 -0.166763 0)
(2.97269 -0.153336 0)
(2.9648 -0.129058 0)
(2.96065 -0.114179 0)
(2.95101 -0.0834452 0)
(2.94521 -0.0630573 0)
(2.94099 -0.0487633 0)
(2.9353 -0.0287381 0)
(2.93367 -0.023638 0)
(2.93094 -0.0171326 0)
(2.93104 -0.0131312 0)
(2.92748 -0.00783516 0)
(2.92622 -0.00506293 0)
(2.92561 -0.00222847 0)
(2.92368 0.000811514 0)
(2.92266 0.00255915 0)
(2.92247 0.00224105 0)
(2.92224 0.000982508 0)
(2.92217 -0.000418771 0)
(2.92224 -0.00208751 0)
(2.9223 -0.00173265 0)
(2.92256 -0.000672643 0)
(2.92275 0.000665827 0)
(2.92275 0.00170791 0)
(2.92263 0.00160392 0)
(2.92255 0.00114209 0)
(2.9224 0.000209432 0)
(2.9224 0.000116362 0)
(2.92249 0.000403687 0)
(2.92284 0.00094954 0)
(2.92358 0.000953049 0)
(2.92543 0.000753843 0)
(2.92942 -0.00078228 0)
(2.93586 -0.0034613 0)
(2.9441 -0.00524178 0)
(2.9514 -0.00688897 0)
(2.95711 -0.0106221 0)
(2.96172 -0.0121417 0)
(2.96493 -0.0147099 0)
(2.96667 -0.0187635 0)
(2.96655 -0.0212808 0)
(2.96623 -0.0213032 0)
(2.9656 -0.0200428 0)
(2.96571 -0.0173894 0)
(2.96723 -0.0143635 0)
(2.97005 -0.0112793 0)
(2.97415 -0.00828601 0)
(2.97964 -0.00554657 0)
(2.98651 -0.00315661 0)
(2.99364 -0.00130763 0)
(2.99839 -0.000299083 0)
(2.99985 -2.63592e-05 0)
(3 -6.8366e-07 0)
(3 -5.86084e-09 0)
(3 -2.79474e-11 0)
(3 -1.05031e-13 0)
(3 -7.80413e-16 0)
(3 -4.51983e-16 0)
(3 -3.78947e-16 0)
(3 3.64441e-16 0)
(2.9866 -0.193691 0)
(2.9866 -0.193691 0)
(2.98661 -0.193691 0)
(2.98661 -0.193691 0)
(2.98661 -0.193691 0)
(2.98662 -0.193691 0)
(2.98662 -0.193692 0)
(2.98663 -0.193691 0)
(2.98663 -0.193692 0)
(2.98664 -0.193691 0)
(2.98665 -0.193692 0)
(2.98665 -0.193692 0)
(2.98666 -0.193693 0)
(2.98667 -0.193693 0)
(2.98668 -0.193694 0)
(2.98668 -0.193694 0)
(2.98669 -0.193695 0)
(2.9867 -0.193696 0)
(2.98671 -0.193696 0)
(2.98672 -0.193698 0)
(2.98674 -0.193698 0)
(2.98675 -0.1937 0)
(2.98676 -0.193703 0)
(2.98677 -0.193704 0)
(2.98679 -0.193708 0)
(2.9868 -0.193709 0)
(2.98682 -0.193711 0)
(2.98683 -0.193714 0)
(2.98685 -0.193719 0)
(2.98686 -0.193722 0)
(2.98688 -0.193726 0)
(2.98689 -0.193728 0)
(2.98691 -0.193734 0)
(2.98693 -0.193737 0)
(2.98694 -0.193737 0)
(2.98696 -0.193725 0)
(2.98696 -0.193706 0)
(2.98695 -0.193633 0)
(2.98692 -0.19343 0)
(2.98678 -0.192952 0)
(2.98637 -0.191829 0)
(2.98552 -0.18948 0)
(2.98376 -0.184936 0)
(2.98095 -0.176713 0)
(2.97632 -0.163821 0)
(2.9703 -0.144999 0)
(2.96387 -0.124136 0)
(2.95356 -0.091242 0)
(2.95114 -0.0773035 0)
(2.93901 -0.0375525 0)
(2.93989 -0.0322943 0)
(2.93188 -0.00603151 0)
(2.93071 -0.00315389 0)
(2.92721 0.00827296 0)
(2.926 0.0087829 0)
(2.92418 0.00483241 0)
(2.92351 0.00152006 0)
(2.9228 -0.00094464 0)
(2.92281 -0.00118518 0)
(2.92297 -0.00128366 0)
(2.92347 -0.000237859 0)
(2.92406 0.0015982 0)
(2.92389 0.00174222 0)
(2.92342 0.00137255 0)
(2.92284 0.000588844 0)
(2.92259 0.00013916 0)
(2.9227 0.000147107 0)
(2.92288 0.000525805 0)
(2.92312 0.00126948 0)
(2.92356 0.00112552 0)
(2.92426 0.000704025 0)
(2.92581 0.000143069 0)
(2.92951 -0.00115394 0)
(2.93569 -0.00363348 0)
(2.94401 -0.00555721 0)
(2.95096 -0.00698692 0)
(2.95704 -0.0114011 0)
(2.96135 -0.0125492 0)
(2.96461 -0.0153183 0)
(2.96655 -0.019128 0)
(2.96675 -0.0209422 0)
(2.96657 -0.0208606 0)
(2.96635 -0.0198942 0)
(2.96667 -0.0177225 0)
(2.96818 -0.0149102 0)
(2.97095 -0.0118887 0)
(2.97492 -0.00888221 0)
(2.98022 -0.00606904 0)
(2.98692 -0.00352601 0)
(2.99389 -0.00147785 0)
(2.99849 -0.000336403 0)
(2.99986 -2.89892e-05 0)
(3 -7.28115e-07 0)
(3 -6.09174e-09 0)
(3 -2.87702e-11 0)
(3 -1.17855e-13 0)
(3 -6.25383e-16 0)
(3 -8.11245e-17 0)
(3 -1.64561e-15 0)
(3 2.4236e-15 0)
(2.98712 -0.193732 0)
(2.98713 -0.193733 0)
(2.98713 -0.193733 0)
(2.98714 -0.193734 0)
(2.98714 -0.193736 0)
(2.98715 -0.193736 0)
(2.98716 -0.193737 0)
(2.98716 -0.193737 0)
(2.98717 -0.193739 0)
(2.98718 -0.19374 0)
(2.98719 -0.193741 0)
(2.98719 -0.193742 0)
(2.9872 -0.193743 0)
(2.98721 -0.193744 0)
(2.98722 -0.193745 0)
(2.98723 -0.193746 0)
(2.98724 -0.193748 0)
(2.98725 -0.193748 0)
(2.98726 -0.193752 0)
(2.98727 -0.193752 0)
(2.98728 -0.193755 0)
(2.98729 -0.193757 0)
(2.9873 -0.19376 0)
(2.98731 -0.193764 0)
(2.98732 -0.193765 0)
(2.98734 -0.19377 0)
(2.98735 -0.19377 0)
(2.98736 -0.193775 0)
(2.98737 -0.193776 0)
(2.98738 -0.193782 0)
(2.98739 -0.193781 0)
(2.9874 -0.193784 0)
(2.98741 -0.193784 0)
(2.98742 -0.193782 0)
(2.98742 -0.193775 0)
(2.98742 -0.193771 0)
(2.98743 -0.193764 0)
(2.98742 -0.193751 0)
(2.98746 -0.193753 0)
(2.98749 -0.193756 0)
(2.98751 -0.193741 0)
(2.9875 -0.193689 0)
(2.98742 -0.19349 0)
(2.9872 -0.192914 0)
(2.9866 -0.191405 0)
(2.9854 -0.188269 0)
(2.98287 -0.181323 0)
(2.97888 -0.17029 0)
(2.9736 -0.153659 0)
(2.96459 -0.125384 0)
(2.96081 -0.109679 0)
(2.94906 -0.0688485 0)
(2.9473 -0.062117 0)
(2.93925 -0.0324136 0)
(2.93925 -0.0304711 0)
(2.93561 -0.0204939 0)
(2.93194 -0.0126028 0)
(2.92983 -0.00767318 0)
(2.92873 -0.00350929 0)
(2.92574 0.00119696 0)
(2.92486 0.00304636 0)
(2.92461 0.00256033 0)
(2.92396 0.00126752 0)
(2.9232 -0.00133356 0)
(2.92363 -0.00142455 0)
(2.9238 -0.000703187 0)
(2.92391 0.000398057 0)
(2.92391 0.00126509 0)
(2.9241 0.00115989 0)
(2.92427 0.000800227 0)
(2.92477 -0.0001948 0)
(2.92621 -0.000516572 0)
(2.92977 -0.00155201 0)
(2.93566 -0.00377947 0)
(2.94363 -0.00531667 0)
(2.95027 -0.00622099 0)
(2.9565 -0.0112948 0)
(2.96096 -0.0128693 0)
(2.96423 -0.0160078 0)
(2.96642 -0.0196659 0)
(2.96697 -0.0212994 0)
(2.96689 -0.021093 0)
(2.96699 -0.0201066 0)
(2.96758 -0.0179997 0)
(2.96916 -0.015198 0)
(2.97186 -0.0122356 0)
(2.97568 -0.00935329 0)
(2.98083 -0.0065656 0)
(2.98739 -0.00388555 0)
(2.9942 -0.00163354 0)
(2.99861 -0.000365688 0)
(2.99988 -3.03949e-05 0)
(3 -7.30061e-07 0)
(3 -5.91832e-09 0)
(3 -2.76118e-11 0)
(3 -1.0268e-13 0)
(3 -2.37596e-16 0)
(3 -3.25607e-16 0)
(3 -4.49837e-15 0)
(3 -2.48742e-15 0)
(2.9876 -0.193807 0)
(2.9876 -0.193809 0)
(2.98761 -0.193809 0)
(2.98761 -0.19381 0)
(2.98761 -0.193811 0)
(2.98762 -0.193811 0)
(2.98762 -0.193813 0)
(2.98763 -0.193814 0)
(2.98763 -0.193815 0)
(2.98763 -0.193816 0)
(2.98764 -0.193818 0)
(2.98764 -0.193819 0)
(2.98765 -0.19382 0)
(2.98765 -0.193822 0)
(2.98765 -0.193823 0)
(2.98766 -0.193825 0)
(2.98766 -0.193826 0)
(2.98767 -0.193827 0)
(2.98767 -0.19383 0)
(2.98768 -0.193831 0)
(2.98768 -0.193833 0)
(2.98769 -0.193834 0)
(2.98769 -0.193836 0)
(2.9877 -0.193838 0)
(2.9877 -0.19384 0)
(2.98771 -0.19384 0)
(2.98771 -0.193842 0)
(2.98772 -0.193842 0)
(2.98772 -0.193843 0)
(2.98773 -0.193842 0)
(2.98773 -0.193845 0)
(2.98774 -0.193845 0)
(2.98775 -0.193849 0)
(2.98776 -0.193849 0)
(2.98776 -0.193853 0)
(2.98777 -0.193855 0)
(2.98778 -0.193857 0)
(2.98779 -0.19386 0)
(2.98778 -0.193855 0)
(2.98777 -0.193854 0)
(2.98776 -0.193848 0)
(2.98775 -0.193848 0)
(2.98775 -0.193824 0)
(2.98776 -0.193793 0)
(2.98776 -0.193757 0)
(2.98771 -0.19364 0)
(2.98756 -0.193304 0)
(2.98709 -0.192156 0)
(2.98607 -0.18964 0)
(2.98365 -0.18328 0)
(2.98025 -0.173087 0)
(2.97281 -0.151796 0)
(2.96794 -0.133431 0)
(2.95516 -0.0935196 0)
(2.95209 -0.0750746 0)
(2.94169 -0.0377483 0)
(2.9365 -0.017114 0)
(2.93661 -0.0106779 0)
(2.93201 0.00825036 0)
(2.92791 0.0080337 0)
(2.92593 0.00288075 0)
(2.92539 0.000866845 0)
(2.92483 -0.00115165 0)
(2.92478 -0.00151939 0)
(2.9252 -0.000966721 0)
(2.92611 0.000790993 0)
(2.92521 0.00186349 0)
(2.9249 0.00162427 0)
(2.9244 0.000904175 0)
(2.92481 -0.000303102 0)
(2.9254 -0.000514969 0)
(2.92694 -0.000542731 0)
(2.93014 -0.00128846 0)
(2.93555 -0.0034953 0)
(2.94298 -0.00494113 0)
(2.94961 -0.00593904 0)
(2.95528 -0.0109409 0)
(2.96039 -0.0134457 0)
(2.96353 -0.0169239 0)
(2.96598 -0.0202263 0)
(2.96718 -0.0213545 0)
(2.96728 -0.0211603 0)
(2.96767 -0.0202668 0)
(2.96851 -0.0183166 0)
(2.9701 -0.0155835 0)
(2.9727 -0.0127523 0)
(2.97641 -0.00994349 0)
(2.98148 -0.00708428 0)
(2.98795 -0.0042182 0)
(2.99458 -0.00175882 0)
(2.99875 -0.000382397 0)
(2.9999 -3.02298e-05 0)
(3 -6.8552e-07 0)
(3 -5.34696e-09 0)
(3 -2.45718e-11 0)
(3 -1.02253e-13 0)
(3 -3.6587e-17 0)
(3 -2.73682e-16 0)
(3 1.54897e-16 0)
(3 -4.43663e-15 0)
(2.98782 -0.193885 0)
(2.98783 -0.193884 0)
(2.98783 -0.193884 0)
(2.98783 -0.193884 0)
(2.98783 -0.193883 0)
(2.98783 -0.193882 0)
(2.98783 -0.193882 0)
(2.98783 -0.193881 0)
(2.98783 -0.19388 0)
(2.98783 -0.19388 0)
(2.98783 -0.193879 0)
(2.98784 -0.193878 0)
(2.98784 -0.193877 0)
(2.98784 -0.193875 0)
(2.98784 -0.193875 0)
(2.98784 -0.193873 0)
(2.98784 -0.193872 0)
(2.98784 -0.19387 0)
(2.98785 -0.193869 0)
(2.98785 -0.193867 0)
(2.98785 -0.193865 0)
(2.98785 -0.193863 0)
(2.98785 -0.193861 0)
(2.98785 -0.193858 0)
(2.98786 -0.193856 0)
(2.98786 -0.193854 0)
(2.98786 -0.193851 0)
(2.98786 -0.193849 0)
(2.98786 -0.193848 0)
(2.98787 -0.193846 0)
(2.98787 -0.193846 0)
(2.98787 -0.193844 0)
(2.98788 -0.193842 0)
(2.98788 -0.193841 0)
(2.98788 -0.193838 0)
(2.98789 -0.193836 0)
(2.98789 -0.193833 0)
(2.98789 -0.193831 0)
(2.98789 -0.193828 0)
(2.98789 -0.193827 0)
(2.98789 -0.193824 0)
(2.98789 -0.193815 0)
(2.98788 -0.193817 0)
(2.98787 -0.19381 0)
(2.98786 -0.193803 0)
(2.98786 -0.193797 0)
(2.98785 -0.193779 0)
(2.98783 -0.193752 0)
(2.98778 -0.193655 0)
(2.98764 -0.193339 0)
(2.98723 -0.192329 0)
(2.98612 -0.189691 0)
(2.98383 -0.183065 0)
(2.97936 -0.171083 0)
(2.97324 -0.151263 0)
(2.96474 -0.12451 0)
(2.95538 -0.0917836 0)
(2.95084 -0.073123 0)
(2.94227 -0.0364786 0)
(2.94301 -0.0373777 0)
(2.9378 -0.0246172 0)
(2.93222 -0.0130775 0)
(2.93108 -0.00773316 0)
(2.93049 -0.00308018 0)
(2.92724 0.00147671 0)
(2.92669 0.00240089 0)
(2.92499 0.00143825 0)
(2.92394 -9.62134e-05 0)
(2.92454 -0.000992337 0)
(2.92506 -0.00105021 0)
(2.92613 -0.000766668 0)
(2.92755 -0.000393182 0)
(2.93028 -0.00117733 0)
(2.9351 -0.00364611 0)
(2.94185 -0.00597765 0)
(2.94874 -0.00762202 0)
(2.95438 -0.0113929 0)
(2.95966 -0.0153204 0)
(2.96311 -0.0185253 0)
(2.96543 -0.0207754 0)
(2.96699 -0.0214966 0)
(2.96755 -0.0210338 0)
(2.96828 -0.0201548 0)
(2.9694 -0.018563 0)
(2.97104 -0.0161525 0)
(2.97357 -0.0134 0)
(2.97721 -0.0105424 0)
(2.98222 -0.00755927 0)
(2.98859 -0.00449662 0)
(2.99501 -0.00184277 0)
(2.99891 -0.000384312 0)
(2.99992 -2.84527e-05 0)
(3 -6.00269e-07 0)
(3 -4.46862e-09 0)
(3 -2.01721e-11 0)
(3 -8.06595e-14 0)
(3 2.41476e-16 0)
(3 1.74397e-16 0)
(3 2.98388e-15 0)
(3 4.47435e-16 0)
(2.98789 -0.19382 0)
(2.98789 -0.193819 0)
(2.98789 -0.193818 0)
(2.98789 -0.193817 0)
(2.98789 -0.193817 0)
(2.98789 -0.193816 0)
(2.9879 -0.193814 0)
(2.9879 -0.193813 0)
(2.9879 -0.193812 0)
(2.9879 -0.193811 0)
(2.9879 -0.193809 0)
(2.9879 -0.193807 0)
(2.9879 -0.193807 0)
(2.9879 -0.193805 0)
(2.9879 -0.193803 0)
(2.9879 -0.193801 0)
(2.9879 -0.1938 0)
(2.9879 -0.193798 0)
(2.9879 -0.193796 0)
(2.9879 -0.193794 0)
(2.9879 -0.193793 0)
(2.9879 -0.193791 0)
(2.98791 -0.193789 0)
(2.98791 -0.193787 0)
(2.98791 -0.193785 0)
(2.98791 -0.193783 0)
(2.98791 -0.193781 0)
(2.98791 -0.193779 0)
(2.98791 -0.193777 0)
(2.98791 -0.193775 0)
(2.98791 -0.193772 0)
(2.98791 -0.19377 0)
(2.98792 -0.193766 0)
(2.98792 -0.193763 0)
(2.98792 -0.193759 0)
(2.98792 -0.193756 0)
(2.98792 -0.193752 0)
(2.98792 -0.193747 0)
(2.98792 -0.193742 0)
(2.98792 -0.193737 0)
(2.98792 -0.19373 0)
(2.98792 -0.193726 0)
(2.98792 -0.193723 0)
(2.98792 -0.193721 0)
(2.98791 -0.193719 0)
(2.98791 -0.193721 0)
(2.98789 -0.193713 0)
(2.98787 -0.193718 0)
(2.98786 -0.193716 0)
(2.98785 -0.193712 0)
(2.98784 -0.193685 0)
(2.9878 -0.193575 0)
(2.98767 -0.193178 0)
(2.9872 -0.191909 0)
(2.98593 -0.188411 0)
(2.98315 -0.180991 0)
(2.97741 -0.163919 0)
(2.97118 -0.144081 0)
(2.95844 -0.105497 0)
(2.9536 -0.0790657 0)
(2.94495 -0.0452648 0)
(2.93538 -0.00935242 0)
(2.93569 -0.00928505 0)
(2.93303 0.00821122 0)
(2.92931 0.00687591 0)
(2.92565 0.00209658 0)
(2.9243 -0.000857267 0)
(2.92447 -0.00182885 0)
(2.92529 -0.00147266 0)
(2.92657 0.000859566 0)
(2.92715 0.000276145 0)
(2.92793 -0.000358897 0)
(2.92976 -0.00167917 0)
(2.93366 -0.00410796 0)
(2.93979 -0.00677865 0)
(2.94729 -0.00927462 0)
(2.95341 -0.012547 0)
(2.95903 -0.0167125 0)
(2.96308 -0.0195627 0)
(2.96537 -0.0211723 0)
(2.96668 -0.0216227 0)
(2.96762 -0.0211845 0)
(2.96872 -0.0203605 0)
(2.97017 -0.0189303 0)
(2.97198 -0.016621 0)
(2.97451 -0.0139068 0)
(2.97809 -0.0110498 0)
(2.98304 -0.00797187 0)
(2.98932 -0.00471447 0)
(2.99551 -0.00188011 0)
(2.99908 -0.000370384 0)
(2.99994 -2.51904e-05 0)
(3 -4.85814e-07 0)
(3 -3.42154e-09 0)
(3 -1.51345e-11 0)
(3 -5.84663e-14 0)
(3 7.78508e-16 0)
(3 9.69487e-16 0)
(3 1.8304e-15 0)
(3 1.34481e-15 0)
(2.98793 -0.193658 0)
(2.98793 -0.193657 0)
(2.98793 -0.193656 0)
(2.98793 -0.193654 0)
(2.98793 -0.193653 0)
(2.98793 -0.193652 0)
(2.98793 -0.19365 0)
(2.98793 -0.193648 0)
(2.98793 -0.193647 0)
(2.98793 -0.193646 0)
(2.98793 -0.193644 0)
(2.98793 -0.193642 0)
(2.98793 -0.19364 0)
(2.98793 -0.193638 0)
(2.98793 -0.193637 0)
(2.98794 -0.193635 0)
(2.98794 -0.193633 0)
(2.98794 -0.193631 0)
(2.98794 -0.193628 0)
(2.98794 -0.193626 0)
(2.98794 -0.193625 0)
(2.98794 -0.193622 0)
(2.98794 -0.193619 0)
(2.98794 -0.193617 0)
(2.98794 -0.193615 0)
(2.98794 -0.193612 0)
(2.98794 -0.193609 0)
(2.98794 -0.193606 0)
(2.98794 -0.193604 0)
(2.98794 -0.193602 0)
(2.98794 -0.193599 0)
(2.98794 -0.193597 0)
(2.98794 -0.193594 0)
(2.98794 -0.193592 0)
(2.98794 -0.193589 0)
(2.98794 -0.193588 0)
(2.98794 -0.193586 0)
(2.98794 -0.193587 0)
(2.98794 -0.193587 0)
(2.98794 -0.193588 0)
(2.98794 -0.193593 0)
(2.98793 -0.193598 0)
(2.98793 -0.193608 0)
(2.98792 -0.193625 0)
(2.98791 -0.193638 0)
(2.9879 -0.193649 0)
(2.98789 -0.19365 0)
(2.98789 -0.193651 0)
(2.98788 -0.193645 0)
(2.98788 -0.193635 0)
(2.98789 -0.193586 0)
(2.98789 -0.193589 0)
(2.9879 -0.193528 0)
(2.98787 -0.19339 0)
(2.98783 -0.193221 0)
(2.98761 -0.192662 0)
(2.98687 -0.190808 0)
(2.98512 -0.186041 0)
(2.9808 -0.174707 0)
(2.97468 -0.154931 0)
(2.96566 -0.127154 0)
(2.9554 -0.0923279 0)
(2.95045 -0.070699 0)
(2.9411 -0.0334067 0)
(2.94458 -0.0345163 0)
(2.9345 -0.0170381 0)
(2.93064 -0.0105829 0)
(2.9297 -0.00524455 0)
(2.9268 0.00161507 0)
(2.92736 0.00183523 0)
(2.9269 0.00043903 0)
(2.92739 -0.00197242 0)
(2.92862 -0.00222029 0)
(2.93201 -0.00342409 0)
(2.93775 -0.00656358 0)
(2.94529 -0.0107725 0)
(2.95126 -0.0133354 0)
(2.95786 -0.0182693 0)
(2.96282 -0.0206885 0)
(2.96499 -0.0215658 0)
(2.96642 -0.02176 0)
(2.96763 -0.0214284 0)
(2.96909 -0.0207024 0)
(2.97089 -0.0194202 0)
(2.97282 -0.0172538 0)
(2.97538 -0.0145192 0)
(2.97899 -0.0115781 0)
(2.98394 -0.00834311 0)
(2.99014 -0.0048637 0)
(2.99605 -0.00186335 0)
(2.99925 -0.00034021 0)
(2.99995 -2.07657e-05 0)
(3 -3.58887e-07 0)
(3 -2.37046e-09 0)
(3 -1.02403e-11 0)
(3 -2.91477e-14 0)
(3 4.44802e-16 0)
(3 7.23751e-16 0)
(3 1.06861e-15 0)
(3 8.55852e-16 0)
(2.98794 -0.193573 0)
(2.98794 -0.193573 0)
(2.98794 -0.193573 0)
(2.98794 -0.193573 0)
(2.98794 -0.193574 0)
(2.98794 -0.193574 0)
(2.98794 -0.193575 0)
(2.98794 -0.193576 0)
(2.98794 -0.193577 0)