/*--------------------------------*- C++ -*----------------------------------*\
  =========                 |
  \\      /  F ield         | OpenFOAM: The Open Source CFD Toolbox
   \\    /   O peration     | Website:  https://openfoam.org
    \\  /    A nd           | Version:  7
     \\/     M anipulation  |
\*---------------------------------------------------------------------------*/
FoamFile
{
    version     2.0;
    format      ascii;
    class       volVectorField;
    location    "3.4";
    object      U;
}
// * * * * * * * * * * * * * * * * * * * * * * * * * * * * * * * * * * * * * //

dimensions      [0 1 -1 0 0 0 0];

internalField   nonuniform List<vector> 
8400
(
(2.43739 -0.680838 0)
(2.4725 -0.362852 0)
(2.50956 -0.202629 0)
(2.49558 0.0581461 0)
(2.5311 0.050091 0)
(2.53501 0.155113 0)
(2.55534 0.237707 0)
(2.57943 0.186248 0)
(2.5946 0.240038 0)
(2.61433 0.257566 0)
(2.62645 0.224875 0)
(2.65345 0.241765 0)
(2.69055 0.260798 0)
(2.68816 0.225251 0)
(2.70139 0.164534 0)
(2.74231 0.149112 0)
(2.75719 0.11396 0)
(2.76298 0.0673137 0)
(2.79413 0.0499038 0)
(2.80792 0.058902 0)
(2.83317 0.086223 0)
(2.84993 0.115104 0)
(2.86073 0.129242 0)
(2.86803 0.122568 0)
(2.86796 0.0905323 0)
(2.86396 0.0546605 0)
(2.87443 0.0207278 0)
(2.87449 -0.00990856 0)
(2.86452 -0.0156039 0)
(2.83053 -0.031841 0)
(2.58275 -1.37414 0)
(2.61588 -1.39598 0)
(2.63721 -1.39254 0)
(2.64096 -1.248 0)
(2.6419 -1.12752 0)
(2.61178 -0.973519 0)
(2.58094 -0.731266 0)
(2.57684 -0.647019 0)
(2.55042 -0.465005 0)
(2.53986 -0.288479 0)
(2.561 -0.25807 0)
(2.56258 -0.177379 0)
(2.56679 -0.0292108 0)
(2.58515 -0.038416 0)
(2.6075 -0.0428447 0)
(2.60941 0.00721439 0)
(2.65304 0.0232502 0)
(2.66337 0.025422 0)
(2.67819 0.040769 0)
(2.68722 0.0764115 0)
(2.701 0.0642529 0)
(2.70689 0.0485284 0)
(2.72659 0.032948 0)
(2.73491 0.0337347 0)
(2.73824 0.0329426 0)
(2.74662 0.0425562 0)
(2.75032 0.0275185 0)
(2.75947 0.0145521 0)
(2.76027 0.00319217 0)
(2.72536 -0.0304484 0)
(2.83625 -1.48631 0)
(2.87183 -1.51165 0)
(2.90827 -1.53445 0)
(2.9416 -1.57148 0)
(2.97408 -1.60621 0)
(2.99435 -1.63455 0)
(3.01306 -1.65631 0)
(3.03916 -1.69348 0)
(3.02883 -1.67869 0)
(2.98997 -1.58068 0)
(2.93947 -1.43374 0)
(2.85274 -1.24051 0)
(2.75479 -0.913788 0)
(2.71554 -0.663572 0)
(2.67827 -0.464599 0)
(2.59454 -0.192591 0)
(2.60549 -0.0338129 0)
(2.61838 0.0781055 0)
(2.5801 0.171447 0)
(2.59792 0.200631 0)
(2.59113 0.16187 0)
(2.6147 0.0729073 0)
(2.67729 0.0397952 0)
(2.69331 0.0193885 0)
(2.70379 -0.0016171 0)
(2.71053 0.0016186 0)
(2.7077 -0.0049188 0)
(2.72763 -0.00301695 0)
(2.73026 -0.00693446 0)
(2.6909 -0.0205979 0)
(2.97519 -1.63356 0)
(2.9906 -1.65313 0)
(3.01131 -1.67431 0)
(3.02686 -1.69738 0)
(3.04645 -1.71516 0)
(3.05271 -1.71708 0)
(3.05772 -1.72155 0)
(3.05964 -1.73077 0)
(3.06335 -1.73588 0)
(3.07485 -1.73396 0)
(3.07799 -1.7323 0)
(3.081 -1.7322 0)
(3.07523 -1.73286 0)
(3.07459 -1.71886 0)
(3.04523 -1.64015 0)
(2.97182 -1.4257 0)
(2.91138 -1.19233 0)
(2.86592 -0.894002 0)
(2.85679 -0.651163 0)
(2.82355 -0.354073 0)
(2.79896 -0.214 0)
(2.78768 -0.11862 0)
(2.75337 -0.0289001 0)
(2.75071 -0.00378544 0)
(2.74815 -0.0309128 0)
(2.74342 -0.0145249 0)
(2.75604 -0.00654694 0)
(2.77842 0.000402099 0)
(2.77689 -0.0108636 0)
(2.72435 -0.0343916 0)
(3.05974 -1.73671 0)
(3.07757 -1.7345 0)
(3.09951 -1.7366 0)
(3.08425 -1.74357 0)
(3.08067 -1.74411 0)
(3.07865 -1.73889 0)
(3.07452 -1.73626 0)
(3.06685 -1.73936 0)
(3.06347 -1.73631 0)
(3.0703 -1.7218 0)
(3.07568 -1.71395 0)
(3.08181 -1.7089 0)
(3.0903 -1.69075 0)
(3.09599 -1.64417 0)
(3.10265 -1.62092 0)
(3.0914 -1.62212 0)
(3.08819 -1.62207 0)
(3.09144 -1.62025 0)
(3.10225 -1.59642 0)
(3.07858 -1.37391 0)
(3.04317 -1.10469 0)
(2.99844 -0.794878 0)
(2.941 -0.514692 0)
(2.91184 -0.30946 0)
(2.95141 -0.267759 0)
(2.8766 -0.11332 0)
(2.87086 -0.0494621 0)
(2.85772 0.00407822 0)
(2.84652 -0.0152353 0)
(2.8085 0.0176872 0)
(3.06468 -1.76564 0)
(3.07093 -1.75754 0)
(3.07751 -1.74496 0)
(3.08558 -1.73447 0)
(3.10226 -1.72222 0)
(3.09542 -1.70389 0)
(3.09997 -1.67967 0)
(3.08876 -1.66935 0)
(3.0686 -1.64578 0)
(3.05556 -1.59749 0)
(3.0635 -1.56374 0)
(3.08233 -1.55956 0)
(3.10336 -1.56465 0)
(3.10524 -1.59516 0)
(3.11448 -1.57642 0)
(3.11931 -1.54112 0)
(3.11918 -1.53453 0)
(3.12631 -1.52974 0)
(3.13177 -1.5146 0)
(3.141 -1.51902 0)
(3.14268 -1.48859 0)
(3.14956 -1.46212 0)
(3.1467 -1.41657 0)
(3.11068 -1.19862 0)
(3.10137 -1.02924 0)
(3.06022 -0.729146 0)
(3.06699 -0.57343 0)
(3.03336 -0.399809 0)
(3.03119 -0.26841 0)
(2.93834 -0.076535 0)
(3.08727 -1.61265 0)
(3.093 -1.6091 0)
(3.10068 -1.58765 0)
(3.10656 -1.54527 0)
(3.12038 -1.51849 0)
(3.12156 -1.52692 0)
(3.12582 -1.53319 0)
(3.12254 -1.54224 0)
(3.11142 -1.55433 0)
(3.09736 -1.56757 0)
(3.09275 -1.54847 0)
(3.10749 -1.52735 0)
(3.12151 -1.52137 0)
(3.13359 -1.52086 0)
(3.13817 -1.52417 0)
(3.1376 -1.49436 0)
(3.13003 -1.45543 0)
(3.14774 -1.39233 0)
(3.15376 -1.38374 0)
(3.15505 -1.37266 0)
(3.1503 -1.36184 0)
(3.15069 -1.34173 0)
(3.16573 -1.3029 0)
(3.16325 -1.32329 0)
(3.16698 -1.3162 0)
(3.1762 -1.29335 0)
(3.17596 -1.26354 0)
(3.15411 -1.09588 0)
(3.14202 -0.954547 0)
(3.05402 -0.505472 0)
(3.10291 -1.58294 0)
(3.10619 -1.56784 0)
(3.1018 -1.56824 0)
(3.10329 -1.54573 0)
(3.10705 -1.53224 0)
(3.1186 -1.52743 0)
(3.1263 -1.52511 0)
(3.12867 -1.52074 0)
(3.13511 -1.51015 0)
(3.13264 -1.50848 0)
(3.12244 -1.49814 0)
(3.12291 -1.44542 0)
(3.13353 -1.4108 0)
(3.15771 -1.35804 0)
(3.17462 -1.33837 0)
(3.16147 -1.34406 0)
(3.14182 -1.33124 0)
(3.13669 -1.30854 0)
(3.14684 -1.29691 0)
(3.16231 -1.27929 0)
(3.15962 -1.28657 0)
(3.15796 -1.28598 0)
(3.1622 -1.26069 0)
(3.16617 -1.24878 0)
(3.1709 -1.21706 0)
(3.17488 -1.1948 0)
(3.17859 -1.17801 0)
(3.17463 -1.17756 0)
(3.17215 -1.18909 0)
(3.15796 -1.10142 0)
(3.15968 -1.4324 0)
(3.15751 -1.42893 0)
(3.15462 -1.41142 0)
(3.14592 -1.40644 0)
(3.1442 -1.39346 0)
(3.15202 -1.34988 0)
(3.16346 -1.32162 0)
(3.1636 -1.30749 0)
(3.17998 -1.26729 0)
(3.18556 -1.25228 0)
(3.16608 -1.26027 0)
(3.13787 -1.28893 0)
(3.13194 -1.27558 0)
(3.14498 -1.24874 0)
(3.16099 -1.23257 0)
(3.16198 -1.23447 0)
(3.15206 -1.25206 0)
(3.14386 -1.24224 0)
(3.14698 -1.23305 0)
(3.15883 -1.2228 0)
(3.1713 -1.20213 0)
(3.1724 -1.18819 0)
(3.1716 -1.16219 0)
(3.17378 -1.14353 0)
(3.16644 -1.14128 0)
(3.16327 -1.13942 0)
(3.16097 -1.15052 0)
(3.17077 -1.12859 0)
(3.17652 -1.11197 0)
(3.19558 -1.09939 0)
(3.17646 -1.23664 0)
(3.17636 -1.23925 0)
(3.17731 -1.24238 0)
(3.17466 -1.24391 0)
(3.15465 -1.26608 0)
(3.13887 -1.27517 0)
(3.13775 -1.24533 0)
(3.14527 -1.22493 0)
(3.1489 -1.21176 0)
(3.15799 -1.2027 0)
(3.15523 -1.20404 0)
(3.14001 -1.21873 0)
(3.12734 -1.21416 0)
(3.13162 -1.19968 0)
(3.13701 -1.1937 0)
(3.15799 -1.176 0)
(3.16854 -1.14987 0)
(3.16505 -1.14046 0)
(3.16215 -1.1247 0)
(3.16499 -1.09377 0)
(3.16752 -1.0786 0)
(3.17073 -1.05773 0)
(3.17082 -1.05365 0)
(3.16576 -1.06381 0)
(3.16536 -1.0611 0)
(3.16783 -1.07721 0)
(3.17355 -1.05822 0)
(3.18521 -1.03979 0)
(3.18701 -1.02461 0)
(3.1897 -1.01702 0)
(3.15599 -1.0717 0)
(3.16616 -1.07964 0)
(3.17289 -1.08612 0)
(3.17313 -1.08559 0)
(3.16468 -1.09234 0)
(3.1456 -1.11739 0)
(3.13237 -1.10667 0)
(3.14208 -1.07639 0)
(3.14864 -1.06606 0)
(3.16086 -1.0521 0)
(3.16373 -1.03884 0)
(3.1609 -1.0342 0)
(3.15135 -1.02366 0)
(3.14666 -1.01667 0)
(3.15329 -1.00334 0)
(3.15961 -0.997925 0)
(3.16597 -0.985816 0)
(3.16662 -0.978115 0)
(3.16276 -0.983277 0)
(3.16161 -0.983822 0)
(3.1587 -0.990492 0)
(3.16083 -0.993842 0)
(3.16593 -0.997841 0)
(3.16873 -0.996178 0)
(3.17435 -0.99005 0)
(3.17948 -0.978129 0)
(3.18554 -0.963537 0)
(3.18862 -0.946802 0)
(3.18814 -0.943855 0)
(3.18597 -0.946947 0)
(3.14243 -0.919641 0)
(3.15021 -0.90593 0)
(3.16145 -0.922275 0)
(3.16206 -0.93652 0)
(3.16014 -0.937859 0)
(3.1488 -0.948306 0)
(3.13312 -0.958535 0)
(3.13355 -0.94065 0)
(3.14415 -0.924872 0)
(3.15234 -0.919796 0)
(3.15444 -0.923984 0)
(3.15083 -0.926002 0)
(3.14418 -0.927441 0)
(3.14326 -0.927068 0)
(3.14579 -0.924429 0)
(3.14819 -0.922105 0)
(3.1501 -0.924101 0)
(3.15348 -0.925718 0)
(3.15534 -0.925235 0)
(3.15921 -0.921428 0)
(3.16233 -0.916974 0)
(3.16465 -0.912898 0)
(3.16848 -0.906095 0)
(3.17064 -0.899696 0)
(3.17664 -0.886823 0)
(3.17797 -0.883944 0)
(3.1798 -0.883606 0)
(3.18179 -0.88486 0)
(3.18032 -0.889614 0)
(3.18295 -0.892969 0)
(3.13487 -0.773914 0)
(3.13805 -0.746838 0)
(3.14312 -0.731104 0)
(3.15475 -0.761624 0)
(3.14901 -0.783394 0)
(3.14635 -0.793622 0)
(3.13687 -0.810781 0)
(3.1313 -0.809137 0)
(3.13856 -0.790254 0)
(3.14193 -0.769479 0)
(3.14825 -0.766014 0)
(3.14976 -0.781602 0)
(3.14487 -0.79203 0)
(3.14278 -0.792999 0)
(3.14522 -0.788 0)
(3.15125 -0.778791 0)
(3.15557 -0.779243 0)
(3.15805 -0.781722 0)
(3.16131 -0.780724 0)
(3.16305 -0.778786 0)
(3.16411 -0.769272 0)
(3.16336 -0.767865 0)
(3.16562 -0.775076 0)
(3.16489 -0.783195 0)
(3.16761 -0.788342 0)
(3.1685 -0.797651 0)
(3.17155 -0.804491 0)
(3.17496 -0.811906 0)
(3.17816 -0.811921 0)
(3.1862 -0.809756 0)
(3.11165 -0.631335 0)
(3.11808 -0.617933 0)
(3.12313 -0.593156 0)
(3.13755 -0.586238 0)
(3.14342 -0.612555 0)
(3.13031 -0.634774 0)
(3.12543 -0.645028 0)
(3.11739 -0.651255 0)
(3.11755 -0.651092 0)
(3.12588 -0.64326 0)
(3.14027 -0.636728 0)
(3.14788 -0.644918 0)
(3.14194 -0.660142 0)
(3.13519 -0.664094 0)
(3.13438 -0.660451 0)
(3.14199 -0.668453 0)
(3.14702 -0.672004 0)
(3.15029 -0.670596 0)
(3.15446 -0.677668 0)
(3.15521 -0.688501 0)
(3.15376 -0.695991 0)
(3.15482 -0.703094 0)
(3.15871 -0.705488 0)
(3.16263 -0.706322 0)
(3.16536 -0.713375 0)
(3.16792 -0.718107 0)
(3.17057 -0.723777 0)
(3.17463 -0.725295 0)
(3.17867 -0.722831 0)
(3.18346 -0.726292 0)
(3.09313 -0.477046 0)
(3.09769 -0.473184 0)
(3.1051 -0.454369 0)
(3.11155 -0.428318 0)
(3.12387 -0.44451 0)
(3.11653 -0.475259 0)
(3.11315 -0.484 0)
(3.10096 -0.505791 0)
(3.09843 -0.513651 0)
(3.11099 -0.505255 0)
(3.12703 -0.501931 0)
(3.13194 -0.507147 0)
(3.12934 -0.521611 0)
(3.12616 -0.528488 0)
(3.12915 -0.52743 0)
(3.13472 -0.542489 0)
(3.13601 -0.548541 0)
(3.13803 -0.550847 0)
(3.14293 -0.55915 0)
(3.14693 -0.568956 0)
(3.14762 -0.570774 0)
(3.14795 -0.577921 0)
(3.15141 -0.588564 0)
(3.15545 -0.598022 0)
(3.15852 -0.604789 0)
(3.16109 -0.605869 0)
(3.16373 -0.614634 0)
(3.16561 -0.613109 0)
(3.16743 -0.620456 0)
(3.17446 -0.63887 0)
(3.06249 -0.32167 0)
(3.06858 -0.32048 0)
(3.07637 -0.308187 0)
(3.08291 -0.284566 0)
(3.09563 -0.281883 0)
(3.0936 -0.31242 0)
(3.08986 -0.325582 0)
(3.08271 -0.356424 0)
(3.07666 -0.374666 0)
(3.09097 -0.368574 0)
(3.1072 -0.359716 0)
(3.11133 -0.365606 0)
(3.11015 -0.382266 0)
(3.10727 -0.390883 0)
(3.1127 -0.396847 0)
(3.11996 -0.415521 0)
(3.12062 -0.425637 0)
(3.12186 -0.42655 0)
(3.12732 -0.437013 0)
(3.1319 -0.454091 0)
(3.13291 -0.460694 0)
(3.13498 -0.475244 0)
(3.13906 -0.482912 0)
(3.14266 -0.488693 0)
(3.1454 -0.502055 0)
(3.14818 -0.519132 0)
(3.1511 -0.530541 0)
(3.15522 -0.54496 0)
(3.15952 -0.560356 0)
(3.16841 -0.574256 0)
(3.02792 -0.169304 0)
(3.02617 -0.168348 0)
(3.03332 -0.15816 0)
(3.04205 -0.140203 0)
(3.05678 -0.131756 0)
(3.06205 -0.155759 0)
(3.05603 -0.177823 0)
(3.05594 -0.208178 0)
(3.04874 -0.230198 0)
(3.0603 -0.227364 0)
(3.0776 -0.219637 0)
(3.08363 -0.228812 0)
(3.08246 -0.248932 0)
(3.08022 -0.254501 0)
(3.08688 -0.264561 0)
(3.09512 -0.288004 0)
(3.09632 -0.300467 0)
(3.09834 -0.304687 0)
(3.10484 -0.317134 0)
(3.11025 -0.336914 0)
(3.11149 -0.347006 0)
(3.11469 -0.361541 0)
(3.11995 -0.373328 0)
(3.12501 -0.386094 0)
(3.12886 -0.40439 0)
(3.1319 -0.413675 0)
(3.13643 -0.426226 0)
(3.14193 -0.440465 0)
(3.1465 -0.445006 0)
(3.1554 -0.462502 0)
(2.98387 -0.0176667 0)
(2.9786 -0.0231047 0)
(2.98253 -0.016106 0)
(2.99101 -0.00148681 0)
(3.00634 0.00778259 0)
(3.01638 -0.0100225 0)
(3.01267 -0.0354634 0)
(3.01508 -0.0655166 0)
(3.0092 -0.0872058 0)
(3.01923 -0.0853226 0)
(3.03537 -0.0792992 0)
(3.04636 -0.096366 0)
(3.04468 -0.120101 0)
(3.043 -0.122155 0)
(3.05223 -0.137574 0)
(3.06072 -0.162978 0)
(3.06199 -0.171391 0)
(3.06743 -0.184598 0)
(3.07465 -0.197585 0)
(3.08102 -0.217909 0)
(3.08325 -0.230837 0)
(3.08853 -0.249391 0)
(3.09499 -0.262279 0)
(3.10096 -0.273992 0)
(3.10691 -0.295751 0)
(3.11082 -0.311261 0)
(3.11722 -0.328742 0)
(3.12417 -0.342047 0)
(3.13113 -0.361068 0)
(3.14255 -0.387495 0)
(2.92565 0.136009 0)
(2.92337 0.128582 0)
(2.92446 0.127585 0)
(2.93104 0.132438 0)
(2.94106 0.141638 0)
(2.94898 0.13822 0)
(2.96418 0.107957 0)
(2.96755 0.068408 0)
(2.96112 0.0479801 0)
(2.96765 0.0518052 0)
(2.97656 0.0561414 0)
(2.99567 0.03035 0)
(2.99724 0.00546402 0)
(2.99874 0.00638298 0)
(3.01206 -0.0136514 0)
(3.01989 -0.0398436 0)
(3.02046 -0.045577 0)
(3.02863 -0.0623285 0)
(3.03863 -0.0829501 0)
(3.04501 -0.0977688 0)
(3.05138 -0.118789 0)
(3.05653 -0.131469 0)
(3.0655 -0.152915 0)
(3.07315 -0.170321 0)
(3.07942 -0.184767 0)
(3.08783 -0.210727 0)
(3.09451 -0.226648 0)
(3.10262 -0.24387 0)
(3.11075 -0.262283 0)
(3.12393 -0.289675 0)
(2.85969 0.288722 0)
(2.86064 0.276161 0)
(2.86165 0.281174 0)
(2.86433 0.283355 0)
(2.88004 0.262792 0)
(2.88826 0.248383 0)
(2.89291 0.240895 0)
(2.90302 0.218041 0)
(2.90812 0.194039 0)
(2.9122 0.194119 0)
(2.91845 0.191803 0)
(2.93986 0.154287 0)
(2.94486 0.135965 0)
(2.95023 0.131852 0)
(2.9634 0.113855 0)
(2.97474 0.0826407 0)
(2.97755 0.0741885 0)
(2.9869 0.0566328 0)
(2.99742 0.0361521 0)
(3.00658 0.0140072 0)
(3.01341 -0.000929324 0)
(3.02245 -0.0211581 0)
(3.03154 -0.0398831 0)
(3.04148 -0.0627435 0)
(3.05126 -0.0897383 0)
(3.05769 -0.100543 0)
(3.06832 -0.124903 0)
(3.07825 -0.147064 0)
(3.08705 -0.16574 0)
(3.10309 -0.198803 0)
(2.81988 0.368853 0)
(2.82207 0.366331 0)
(2.82353 0.36717 0)
(2.82749 0.364701 0)
(2.83269 0.358222 0)
(2.83587 0.355957 0)
(2.84266 0.348168 0)
(2.84926 0.338146 0)
(2.85476 0.32707 0)
(2.8618 0.313861 0)
(2.86827 0.308362 0)
(2.87954 0.293233 0)
(2.89074 0.271227 0)
(2.898 0.26035 0)
(2.91145 0.240029 0)
(2.9216 0.221414 0)
(2.93077 0.201316 0)
(2.94097 0.181191 0)
(2.9523 0.158877 0)
(2.96263 0.137653 0)
(2.97324 0.115293 0)
(2.98435 0.092501 0)
(2.99616 0.0675158 0)
(3.00532 0.0493894 0)
(3.01645 0.0243251 0)
(3.02819 -0.00365758 0)
(3.03854 -0.0243889 0)
(3.05032 -0.0478141 0)
(3.0618 -0.0727757 0)
(3.07958 -0.10731 0)
(2.82263 0.373586 0)
(2.8225 0.373484 0)
(2.82222 0.372592 0)
(2.82313 0.370474 0)
(2.82414 0.369652 0)
(2.82674 0.369284 0)
(2.82967 0.36959 0)
(2.83131 0.369954 0)
(2.8335 0.367214 0)
(2.83586 0.363705 0)
(2.83896 0.36389 0)
(2.84471 0.361175 0)
(2.85186 0.354275 0)
(2.8581 0.34746 0)
(2.86553 0.340126 0)
(2.8747 0.329185 0)
(2.8834 0.316672 0)
(2.89329 0.300389 0)
(2.90418 0.282136 0)
(2.91563 0.263186 0)
(2.92877 0.239449 0)
(2.9405 0.216993 0)
(2.95228 0.193386 0)
(2.966 0.164494 0)
(2.97908 0.13692 0)
(2.99084 0.113168 0)
(3.00525 0.0821292 0)
(3.01811 0.0562954 0)
(3.03086 0.0306916 0)
(3.05172 -0.0100895 0)
(2.85177 0.33893 0)
(2.85145 0.341578 0)
(2.84701 0.334878 0)
(2.84192 0.325431 0)
(2.8395 0.325795 0)
(2.84426 0.336928 0)
(2.84358 0.346008 0)
(2.84413 0.359688 0)
(2.84065 0.36205 0)
(2.83835 0.357421 0)
(2.842 0.352245 0)
(2.8453 0.352305 0)
(2.84852 0.354157 0)
(2.85293 0.354054 0)
(2.85696 0.351562 0)
(2.86018 0.349543 0)
(2.86391 0.34757 0)
(2.87006 0.342846 0)
(2.8764 0.33953 0)
(2.88383 0.333576 0)
(2.89191 0.324927 0)
(2.90064 0.313281 0)
(2.91088 0.297998 0)
(2.92237 0.279822 0)
(2.93558 0.256586 0)
(2.94904 0.232682 0)
(2.96409 0.204621 0)
(2.9793 0.175033 0)
(2.99418 0.14538 0)
(3.01768 0.0991946 0)
(2.93359 0.15454 0)
(2.92851 0.169263 0)
(2.92132 0.194781 0)
(2.91596 0.198668 0)
(2.91131 0.192702 0)
(2.89481 0.21592 0)
(2.89299 0.234499 0)
(2.89034 0.256543 0)
(2.88629 0.268122 0)
(2.88523 0.265544 0)
(2.87144 0.283513 0)
(2.86665 0.306442 0)
(2.86818 0.304556 0)
(2.86688 0.31072 0)
(2.86594 0.322302 0)
(2.86826 0.324524 0)
(2.86763 0.327241 0)
(2.87176 0.329651 0)
(2.87512 0.32961 0)
(2.87978 0.32813 0)
(2.88459 0.325746 0)
(2.88936 0.323193 0)
(2.89523 0.319499 0)
(2.90198 0.315105 0)
(2.90971 0.309391 0)
(2.9182 0.301016 0)
(2.92843 0.289269 0)
(2.9406 0.273112 0)
(2.95346 0.253844 0)
(2.9773 0.215128 0)
(2.98974 0.0229233 0)
(2.98813 0.0267619 0)
(2.98679 0.0305538 0)
(2.98451 0.0366216 0)
(2.9815 0.0411403 0)
(2.97559 0.0496669 0)
(2.97048 0.0592389 0)
(2.96582 0.0713783 0)
(2.96082 0.0863868 0)
(2.95502 0.100435 0)
(2.94964 0.108981 0)
(2.93709 0.135333 0)
(2.93159 0.150394 0)
(2.92063 0.176667 0)
(2.91692 0.189247 0)
(2.90742 0.215032 0)
(2.90199 0.232192 0)
(2.89761 0.247486 0)
(2.8925 0.266374 0)
(2.89444 0.273078 0)
(2.89107 0.289142 0)
(2.89376 0.293639 0)
(2.89589 0.296046 0)
(2.90112 0.300053 0)
(2.90638 0.299292 0)
(2.91202 0.296759 0)
(2.91767 0.293181 0)
(2.92497 0.288232 0)
(2.93296 0.283075 0)
(2.95101 0.269897 0)
(2.99969 0.000651537 0)
(2.99962 0.000800262 0)
(2.99951 0.00103408 0)
(2.99937 0.00134557 0)
(2.99918 0.00168567 0)
(2.99881 0.00226389 0)
(2.99831 0.00308015 0)
(2.99763 0.00440888 0)
(2.9969 0.00604242 0)
(2.99588 0.00830317 0)
(2.99446 0.0108589 0)
(2.99189 0.0157182 0)
(2.98926 0.0212181 0)
(2.98554 0.0289584 0)
(2.98105 0.0386103 0)
(2.97511 0.051944 0)
(2.96904 0.0666649 0)
(2.9614 0.085205 0)
(2.95349 0.10545 0)
(2.94507 0.129024 0)
(2.93815 0.150399 0)
(2.92979 0.177521 0)
(2.9265 0.194128 0)
(2.91937 0.221604 0)
(2.91995 0.231975 0)
(2.91822 0.247345 0)
(2.91994 0.259236 0)
(2.92294 0.26282 0)
(2.93058 0.26392 0)
(2.94308 0.259335 0)
(3 5.48722e-06 0)
(3 6.95137e-06 0)
(3 9.13865e-06 0)
(2.99999 1.24325e-05 0)
(2.99999 1.71634e-05 0)
(2.99999 2.39016e-05 0)
(2.99998 3.62272e-05 0)
(2.99997 5.41938e-05 0)
(2.99995 8.68418e-05 0)
(2.99993 0.00013026 0)
(2.99988 0.000207252 0)
(2.99981 0.000333218 0)
(2.99969 0.000567669 0)
(2.9995 0.000902611 0)
(2.99917 0.00152853 0)
(2.99867 0.00250048 0)
(2.99786 0.00416077 0)
(2.99668 0.00661277 0)
(2.99485 0.0105478 0)
(2.99232 0.0161808 0)
(2.98878 0.024526 0)
(2.98434 0.0355014 0)
(2.9788 0.0504298 0)
(2.97267 0.0675772 0)
(2.96569 0.089192 0)
(2.95897 0.111574 0)
(2.95286 0.135646 0)
(2.94808 0.158563 0)
(2.94464 0.177938 0)
(2.94689 0.200338 0)
(3 2.87765e-08 0)
(3 3.64261e-08 0)
(3 4.79582e-08 0)
(3 6.54336e-08 0)
(3 9.04253e-08 0)
(3 1.29969e-07 0)
(3 1.92097e-07 0)
(3 2.99085e-07 0)
(3 4.70926e-07 0)
(3 7.65136e-07 0)
(3 1.24291e-06 0)
(3 2.21002e-06 0)
(3 3.94263e-06 0)
(3 7.26939e-06 0)
(2.99999 1.35572e-05 0)
(2.99999 2.64817e-05 0)
(2.99997 5.13961e-05 0)
(2.99995 0.000101464 0)
(2.99989 0.000199539 0)
(2.9998 0.0003929 0)
(2.99962 0.000762148 0)
(2.9993 0.00145845 0)
(2.99875 0.0026972 0)
(2.99784 0.00486846 0)
(2.99641 0.00841486 0)
(2.9943 0.0139992 0)
(2.99135 0.0222357 0)
(2.98757 0.0339619 0)
(2.98336 0.0472981 0)
(2.97754 0.0750616 0)
(3 1.24129e-10 0)
(3 1.58685e-10 0)
(3 2.11245e-10 0)
(3 2.88426e-10 0)
(3 4.0283e-10 0)
(3 5.74426e-10 0)
(3 8.49027e-10 0)
(3 1.28578e-09 0)
(3 2.02578e-09 0)
(3 3.23315e-09 0)
(3 5.37357e-09 0)
(3 9.37836e-09 0)
(3 1.71645e-08 0)
(3 3.19182e-08 0)
(3 6.23447e-08 0)
(3 1.25482e-07 0)
(3 2.60769e-07 0)
(3 5.53313e-07 0)
(3 1.20735e-06 0)
(3 2.67967e-06 0)
(3 6.04059e-06 0)
(2.99999 1.37114e-05 0)
(2.99998 3.12286e-05 0)
(2.99997 7.05689e-05 0)
(2.99993 0.000158157 0)
(2.99985 0.000345372 0)
(2.99969 0.000733134 0)
(2.99939 0.0015254 0)
(2.99892 0.00279607 0)
(2.99761 0.00754736 0)
(3 4.14612e-13 0)
(3 5.35428e-13 0)
(3 7.19723e-13 0)
(3 9.93459e-13 0)
(3 1.39597e-12 0)
(3 2.00562e-12 0)
(3 2.9555e-12 0)
(3 4.45754e-12 0)
(3 6.93489e-12 0)
(3 1.10359e-11 0)
(3 1.81508e-11 0)
(3 3.14785e-11 0)
(3 5.68282e-11 0)
(3 1.05823e-10 0)
(3 2.06195e-10 0)
(3 4.1833e-10 0)
(3 8.78251e-10 0)
(3 1.90336e-09 0)
(3 4.26274e-09 0)
(3 9.79551e-09 0)
(3 2.30817e-08 0)
(3 5.53597e-08 0)
(3 1.35493e-07 0)
(3 3.34486e-07 0)
(3 8.40452e-07 0)
(3 2.10511e-06 0)
(3 5.30052e-06 0)
(2.99999 1.35046e-05 0)
(2.99998 3.03963e-05 0)
(2.99994 0.00013805 0)
(2.40827 -1.31618 0)
(2.53735 -1.36471 0)
(2.78898 -1.45653 0)
(2.95232 -1.60752 0)
(3.04903 -1.71298 0)
(3.05869 -1.76149 0)
(3.08179 -1.6327 0)
(3.10198 -1.59629 0)
(3.16005 -1.43218 0)
(3.16959 -1.22463 0)
(3.14976 -1.0865 0)
(3.13665 -0.941292 0)
(3.12812 -0.79112 0)
(3.11208 -0.634461 0)
(3.09315 -0.474082 0)
(3.07229 -0.314998 0)
(3.04001 -0.148365 0)
(2.99041 0.0153059 0)
(2.92257 0.169912 0)
(2.85052 0.312925 0)
(2.81723 0.373 0)
(2.82129 0.371109 0)
(2.85136 0.321695 0)
(2.93595 0.142946 0)
(2.99171 0.0183725 0)
(2.99976 0.000498043 0)
(3 4.53503e-06 0)
(3 2.37322e-08 0)
(3 1.01443e-10 0)
(3 3.36149e-13 0)
(2.40698 -1.29962 0)
(2.55704 -1.37177 0)
(2.80415 -1.46954 0)
(2.96169 -1.62807 0)
(3.05157 -1.71752 0)
(3.05474 -1.75343 0)
(3.08447 -1.62237 0)
(3.11907 -1.5616 0)
(3.16629 -1.34863 0)
(3.16402 -1.19623 0)
(3.14589 -1.08409 0)
(3.14454 -0.9332 0)
(3.1417 -0.780395 0)
(3.13322 -0.595428 0)
(3.11285 -0.411955 0)
(3.07926 -0.23383 0)
(3.02728 -0.0630955 0)
(2.963 0.0970444 0)
(2.89202 0.236093 0)
(2.83386 0.343136 0)
(2.81451 0.379824 0)
(2.82224 0.365336 0)
(2.86993 0.274275 0)
(2.9532 0.104542 0)
(2.99574 0.00933503 0)
(2.99991 0.000182699 0)
(3 1.392e-06 0)
(3 7.86611e-09 0)
(3 3.79231e-11 0)
(3 1.33899e-13 0)
(2.39722 -1.29669 0)
(2.55494 -1.37297 0)
(2.79414 -1.47277 0)
(2.95391 -1.62378 0)
(3.05415 -1.71334 0)
(3.05355 -1.75441 0)
(3.08977 -1.61382 0)
(3.1289 -1.47084 0)
(3.1609 -1.34704 0)
(3.15625 -1.22893 0)
(3.16092 -1.07369 0)
(3.16748 -0.893663 0)
(3.16342 -0.715976 0)
(3.12171 -0.494269 0)
(3.07499 -0.308266 0)
(3.03231 -0.144502 0)
(2.99065 -0.00529949 0)
(2.93375 0.134905 0)
(2.87058 0.263616 0)
(2.82258 0.359107 0)
(2.81328 0.384253 0)
(2.82519 0.358284 0)
(2.89525 0.238712 0)
(2.96899 0.0760682 0)
(2.99767 0.00553233 0)
(2.99996 8.59641e-05 0)
(3 6.0701e-07 0)
(3 3.34e-09 0)
(3 1.59246e-11 0)
(3 5.64467e-14 0)
(2.39491 -1.29384 0)
(2.54641 -1.37053 0)
(2.78415 -1.47553 0)
(2.95498 -1.63573 0)
(3.05913 -1.71703 0)
(3.06558 -1.73988 0)
(3.11505 -1.57863 0)
(3.13876 -1.45698 0)
(3.15675 -1.37452 0)
(3.1743 -1.21589 0)
(3.1892 -1.00132 0)
(3.16775 -0.809796 0)
(3.12601 -0.603444 0)
(3.09834 -0.450777 0)
(3.06771 -0.299973 0)
(3.03092 -0.152695 0)
(2.98678 -0.0182517 0)
(2.92987 0.120713 0)
(2.8651 0.2641 0)
(2.81777 0.366473 0)
(2.81272 0.385215 0)
(2.83103 0.35846 0)
(2.89812 0.242311 0)
(2.97638 0.0597931 0)
(2.99871 0.0031387 0)
(2.99998 4.06514e-05 0)
(3 2.64425e-07 0)
(3 1.41411e-09 0)
(3 6.57672e-12 0)
(3 2.36472e-14 0)
(2.39022 -1.2925 0)
(2.53674 -1.36477 0)
(2.77979 -1.47511 0)
(2.9537 -1.64276 0)
(3.06472 -1.71872 0)
(3.08407 -1.71017 0)
(3.11774 -1.58549 0)
(3.13465 -1.48948 0)
(3.16049 -1.38052 0)
(3.20361 -1.13259 0)
(3.16329 -0.920985 0)
(3.14022 -0.767294 0)
(3.11647 -0.608029 0)
(3.09251 -0.48504 0)
(3.06436 -0.329248 0)
(3.02816 -0.170675 0)
(2.98294 -0.0122732 0)
(2.925 0.137903 0)
(2.85786 0.290831 0)
(2.81368 0.374473 0)
(2.81478 0.381185 0)
(2.83611 0.362023 0)
(2.90613 0.223912 0)
(2.98161 0.0429823 0)
(2.99921 0.00175329 0)
(2.99999 1.83734e-05 0)
(3 1.13842e-07 0)
(3 5.96058e-10 0)
(3 2.70615e-12 0)
(3 1.02227e-14 0)
(2.38583 -1.29086 0)
(2.5232 -1.35453 0)
(2.77457 -1.47422 0)
(2.94827 -1.66276 0)
(3.07258 -1.73362 0)
(3.09221 -1.69537 0)
(3.10973 -1.61291 0)
(3.13436 -1.49774 0)
(3.19405 -1.32359 0)
(3.17041 -1.03463 0)
(3.14676 -0.932727 0)
(3.13133 -0.786156 0)
(3.1136 -0.636438 0)
(3.09519 -0.47709 0)
(3.07261 -0.302414 0)
(3.03723 -0.11568 0)
(2.97567 0.0721438 0)
(2.90365 0.222693 0)
(2.83688 0.340887 0)
(2.80874 0.382706 0)
(2.81393 0.375174 0)
(2.84155 0.327122 0)
(2.9314 0.152509 0)
(2.98952 0.0230248 0)
(2.99965 0.000727594 0)
(3 7.23742e-06 0)
(3 4.50927e-08 0)
(3 2.38213e-10 0)
(3 1.08849e-12 0)
(3 4.85907e-15 0)
(2.37905 -1.28834 0)
(2.51697 -1.34326 0)
(2.77383 -1.4738 0)
(2.94612 -1.66917 0)
(3.07174 -1.73837 0)
(3.09339 -1.69703 0)
(3.10906 -1.623 0)
(3.16321 -1.46767 0)
(3.18404 -1.20117 0)
(3.16401 -1.06785 0)
(3.14519 -0.944019 0)
(3.14082 -0.780292 0)
(3.13106 -0.610291 0)
(3.11202 -0.386704 0)
(3.06837 -0.190704 0)
(3.00676 -0.0106043 0)
(2.93661 0.14449 0)
(2.86811 0.274374 0)
(2.82075 0.362989 0)
(2.80654 0.388208 0)
(2.81329 0.374172 0)
(2.87338 0.279356 0)
(2.95507 0.111307 0)
(2.99472 0.0131945 0)
(2.99986 0.000323616 0)
(3 2.82506e-06 0)
(3 1.72973e-08 0)
(3 9.15218e-11 0)
(3 4.23457e-13 0)
(3 2.78085e-15 0)
(2.36728 -1.28402 0)
(2.51994 -1.34296 0)
(2.77445 -1.47489 0)
(2.9347 -1.67387 0)
(3.06467 -1.73187 0)
(3.09311 -1.70302 0)
(3.10978 -1.61148 0)
(3.16925 -1.34788 0)
(3.18042 -1.21232 0)
(3.16112 -1.09002 0)
(3.17625 -0.91429 0)
(3.17195 -0.70457 0)
(3.13968 -0.491557 0)
(3.0705 -0.271778 0)
(3.0244 -0.112785 0)
(2.98244 0.0135021 0)
(2.92823 0.138197 0)
(2.8626 0.271607 0)
(2.81557 0.369735 0)
(2.80563 0.393747 0)
(2.81551 0.3728 0)
(2.88041 0.273079 0)
(2.96188 0.102356 0)
(2.99682 0.00850048 0)
(2.99994 0.000155169 0)
(3 1.17937e-06 0)
(3 6.84501e-09 0)
(3 3.53335e-11 0)
(3 1.61405e-13 0)
(3 2.00229e-15 0)
(2.36282 -1.28398 0)
(2.52403 -1.34685 0)
(2.77278 -1.4837 0)
(2.92839 -1.67648 0)
(3.06259 -1.70062 0)
(3.08837 -1.70291 0)
(3.12133 -1.53567 0)
(3.15661 -1.3109 0)
(3.17339 -1.25586 0)
(3.19235 -1.06136 0)
(3.19672 -0.817145 0)
(3.14259 -0.593246 0)
(3.09183 -0.404021 0)
(3.06007 -0.270585 0)
(3.01965 -0.13069 0)
(2.97336 0.00172278 0)
(2.91949 0.142002 0)
(2.85555 0.286537 0)
(2.81132 0.379834 0)
(2.80693 0.395779 0)
(2.82341 0.381267 0)
(2.88735 0.277641 0)
(2.97005 0.0755969 0)
(2.99809 0.00464821 0)
(2.99997 6.9175e-05 0)
(3 4.85339e-07 0)
(3 2.72562e-09 0)
(3 1.37357e-11 0)
(3 6.0976e-14 0)
(3 1.6407e-15 0)
(2.34852 -1.28388 0)
(2.5152 -1.35747 0)
(2.76643 -1.50342 0)
(2.93615 -1.67662 0)
(3.06623 -1.68109 0)
(3.08092 -1.69261 0)
(3.11804 -1.43705 0)
(3.15397 -1.36509 0)
(3.18107 -1.25792 0)
(3.21568 -0.954828 0)
(3.15512 -0.722093 0)
(3.11822 -0.583088 0)
(3.0872 -0.437807 0)
(3.05237 -0.294228 0)
(3.0156 -0.129471 0)
(2.97008 0.0493275 0)
(2.90616 0.214321 0)
(2.83831 0.337768 0)
(2.80591 0.387805 0)
(2.80694 0.391166 0)
(2.82687 0.370318 0)
(2.90167 0.21778 0)
(2.98123 0.042641 0)
(2.99905 0.00210114 0)
(2.99999 2.65895e-05 0)
(3 1.83396e-07 0)
(3 1.03332e-09 0)
(3 5.19098e-12 0)
(3 2.22516e-14 0)
(3 1.30147e-15 0)
(2.32683 -1.27841 0)
(2.4879 -1.35091 0)
(2.75339 -1.50623 0)
(2.93865 -1.68131 0)
(3.068 -1.66951 0)
(3.07347 -1.6508 0)
(3.12662 -1.47243 0)
(3.15238 -1.38803 0)
(3.22298 -1.16284 0)
(3.17423 -0.86154 0)
(3.13483 -0.748194 0)
(3.10435 -0.605046 0)
(3.08097 -0.447174 0)
(3.05976 -0.256969 0)
(3.01626 -0.0408113 0)
(2.9383 0.151727 0)
(2.86715 0.287354 0)
(2.81965 0.368239 0)
(2.80184 0.390217 0)
(2.80775 0.381002 0)
(2.84163 0.317591 0)
(2.93791 0.145407 0)
(2.98919 0.0257695 0)
(2.99959 0.00090415 0)
(3 9.77709e-06 0)
(3 6.58895e-08 0)
(3 3.72681e-10 0)
(3 1.8798e-12 0)
(3 7.5014e-15 0)
(3 8.22925e-16 0)
(2.31469 -1.27012 0)
(2.47532 -1.34402 0)
(2.7398 -1.49738 0)
(2.93468 -1.69399 0)
(3.07341 -1.65749 0)
(3.07923 -1.658 0)
(3.12895 -1.50684 0)
(3.18552 -1.36459 0)
(3.18596 -1.00316 0)
(3.15787 -0.902601 0)
(3.13072 -0.75606 0)
(3.11952 -0.571245 0)
(3.10028 -0.363411 0)
(3.04648 -0.130652 0)
(2.97937 0.0519447 0)
(2.91715 0.183061 0)
(2.85419 0.29917 0)
(2.81139 0.379818 0)
(2.8005 0.393052 0)
(2.80779 0.375365 0)
(2.87517 0.278764 0)
(2.9504 0.126673 0)
(2.9942 0.0152169 0)
(2.99984 0.000388321 0)
(3 3.64573e-06 0)
(3 2.35011e-08 0)
(3 1.31283e-10 0)
(3 6.59499e-13 0)
(3 2.18088e-15 0)
(3 4.5309e-16 0)
(2.31094 -1.26605 0)
(2.45759 -1.3345 0)
(2.72405 -1.4968 0)
(2.94124 -1.69891 0)
(3.07617 -1.68313 0)
(3.08425 -1.68011 0)
(3.15262 -1.49872 0)
(3.21017 -1.2141 0)
(3.1904 -1.0342 0)
(3.15597 -0.906482 0)
(3.1604 -0.695659 0)
(3.12816 -0.441849 0)
(3.0623 -0.219297 0)
(3.01132 -0.0638501 0)
(2.96528 0.0546573 0)
(2.90675 0.180223 0)
(2.8455 0.308797 0)
(2.80571 0.39183 0)
(2.799 0.400894 0)
(2.81374 0.375498 0)
(2.8785 0.285735 0)
(2.96205 0.103292 0)
(2.99692 0.00830468 0)
(2.99993 0.000168335 0)
(3 1.37374e-06 0)
(3 8.4504e-09 0)
(3 4.60968e-11 0)
(3 2.28505e-13 0)
(3 5.44229e-16 0)
(3 2.1453e-16 0)
(2.30469 -1.2622 0)
(2.45212 -1.33751 0)
(2.70854 -1.51755 0)
(2.94502 -1.69844 0)
(3.07798 -1.69409 0)
(3.1194 -1.66199 0)
(3.19163 -1.37167 0)
(3.19081 -1.13979 0)
(3.17798 -1.08044 0)
(3.19075 -0.831014 0)
(3.15334 -0.554961 0)
(3.08947 -0.340836 0)
(3.04386 -0.197167 0)
(2.99916 -0.0728128 0)
(2.95221 0.0698496 0)
(2.89435 0.225842 0)
(2.83265 0.346251 0)
(2.80162 0.399993 0)
(2.8017 0.405081 0)
(2.82327 0.388295 0)
(2.89009 0.272431 0)
(2.97478 0.0645088 0)
(2.99831 0.004245 0)
(2.99997 6.61697e-05 0)
(3 5.01147e-07 0)
(3 3.00312e-09 0)
(3 1.60641e-11 0)
(3 7.90398e-14 0)
(3 3.40084e-16 0)
(3 1.67775e-16 0)
(2.30295 -1.26156 0)
(2.45322 -1.34095 0)
(2.70507 -1.54128 0)
(2.95459 -1.70624 0)
(3.08933 -1.68935 0)
(3.16571 -1.54538 0)
(3.16749 -1.28573 0)
(3.17854 -1.17964 0)
(3.19327 -1.05858 0)
(3.16986 -0.688137 0)
(3.12198 -0.490485 0)
(3.08011 -0.369594 0)
(3.035 -0.218049 0)
(2.99103 -0.0391058 0)
(2.93194 0.155471 0)
(2.86511 0.300285 0)
(2.81619 0.375563 0)
(2.80106 0.399527 0)
(2.80602 0.404267 0)
(2.82885 0.370181 0)
(2.91515 0.193278 0)
(2.98328 0.0395552 0)
(2.99921 0.00184917 0)
(2.99999 2.37856e-05 0)
(3 1.72843e-07 0)
(3 1.02842e-09 0)
(3 5.46039e-12 0)
(3 2.80953e-14 0)
(3 1.23151e-15 0)
(3 2.33232e-16 0)
(2.30277 -1.26142 0)
(2.45232 -1.34025 0)
(2.69103 -1.56969 0)
(2.96797 -1.70992 0)
(3.11461 -1.62562 0)
(3.12605 -1.44718 0)
(3.14568 -1.32448 0)
(3.16662 -1.20752 0)
(3.212 -0.895943 0)
(3.15542 -0.641302 0)
(3.10629 -0.524799 0)
(3.06891 -0.368672 0)
(3.03518 -0.16699 0)
(2.96725 0.068682 0)
(2.8999 0.226784 0)
(2.84503 0.331126 0)
(2.80544 0.387941 0)
(2.80088 0.396428 0)
(2.80334 0.384881 0)
(2.85213 0.303302 0)
(2.94107 0.137442 0)
(2.99089 0.0223926 0)
(2.99969 0.000714868 0)
(3 8.00893e-06 0)
(3 5.64989e-08 0)
(3 3.36059e-10 0)
(3 1.78635e-12 0)
(3 1.06896e-14 0)
(3 2.20571e-15 0)
(3 8.50633e-16 0)
(2.30166 -1.26021 0)
(2.43402 -1.33404 0)
(2.68038 -1.57419 0)
(2.97698 -1.70044 0)
(3.09632 -1.57857 0)
(3.10217 -1.48741 0)
(3.14595 -1.34205 0)
(3.20382 -1.14663 0)
(3.17189 -0.757468 0)
(3.14013 -0.682677 0)
(3.10573 -0.502946 0)
(3.07702 -0.274925 0)
(3.00787 -0.0315781 0)
(2.94574 0.123555 0)
(2.88617 0.242351 0)