/*--------------------------------*- C++ -*----------------------------------*\
  =========                 |
  \\      /  F ield         | OpenFOAM: The Open Source CFD Toolbox
   \\    /   O peration     | Website:  https://openfoam.org
    \\  /    A nd           | Version:  7
     \\/     M anipulation  |
\*---------------------------------------------------------------------------*/
FoamFile
{
    version     2.0;
    format      ascii;
    class       volScalarField;
    location    "0.66";
    object      p;
}
// * * * * * * * * * * * * * * * * * * * * * * * * * * * * * * * * * * * * * //

dimensions      [1 -1 -2 0 0 0 0];

internalField   nonuniform List<scalar> 
324000
(
0.248163
0.409987
0.635514
0.855255
0.926619
0.885633
0.866942
0.847539
0.830298
0.830533
0.834464
0.839094
0.848371
0.851708
0.852507
0.850032
0.844373
0.839452
0.837594
0.838539
0.838723
0.837922
0.837627
0.838194
0.84016
0.841054
0.841122
0.840836
0.840304
0.840011
0.84034
0.840517
0.842498
0.843724
0.8432
0.842842
0.842423
0.842554
0.843159
0.840556
0.833834
0.825145
0.818124
0.812694
0.807977
0.804479
0.800444
0.797217
0.795886
0.795479
0.797686
0.803966
0.810622
0.814802
0.815795
0.820441
0.830963
0.850273
0.861866
0.868877
0.86411
0.850385
0.861107
0.899731
0.943714
0.959141
0.953902
0.958522
0.961593
0.964189
0.969321
0.977136
0.986683
0.995219
0.999393
1.00009
1.00008
1.00003
1.00001
1
0.13155
0.132557
0.184005
0.347101
0.623578
0.790121
0.87905
0.878968
0.863523
0.86396
0.855839
0.836301
0.834865
0.837785
0.839876
0.839542
0.840494
0.841297
0.841499
0.841913
0.841627
0.839764
0.838953
0.839899
0.841146
0.841485
0.840119
0.839273
0.839512
0.840585
0.841627
0.842969
0.845152
0.845001
0.844133
0.843575
0.843586
0.843969
0.843272
0.839912
0.832264
0.823735
0.816831
0.812047
0.808107
0.804171
0.800435
0.79781
0.797667
0.798942
0.802714
0.809593
0.81208
0.81248
0.813477
0.820559
0.832594
0.84765
0.859533
0.861101
0.861299
0.848705
0.85735
0.897502
0.945709
0.957438
0.953386
0.958076
0.960339
0.963141
0.968423
0.97637
0.986123
0.994915
0.9993
1.00007
1.00007
1.00003
1.00001
1
0.131747
0.131636
0.1316
0.131518
0.176039
0.340707
0.589862
0.781166
0.878505
0.886703
0.853163
0.822297
0.820975
0.828546
0.834647
0.838094
0.84009
0.839278
0.839877
0.842378
0.842405
0.840942
0.840951
0.842215
0.842991
0.842948
0.842175
0.841408
0.841365
0.842167
0.842912
0.842096
0.842238
0.843058
0.843402
0.844064
0.843731
0.842893
0.840772
0.836288
0.828182
0.819197
0.812474
0.80828
0.806154
0.803946
0.801431
0.799815
0.801173
0.803743
0.807544
0.81091
0.811744
0.811684
0.812851
0.81871
0.83119
0.846718
0.860065
0.858747
0.853
0.84982
0.854636
0.896225
0.94659
0.955381
0.95349
0.957396
0.959148
0.962118
0.967502
0.975594
0.985562
0.994614
0.999208
1.00006
1.00006
1.00003
1.00001
1
0.131648
0.131646
0.131668
0.131693
0.131707
0.131701
0.168684
0.339037
0.592905
0.779147
0.817036
0.834188
0.829897
0.836958
0.833929
0.833604
0.84018
0.84207
0.842307
0.8436
0.842781
0.840445
0.839694
0.839671
0.840275
0.843399
0.845193
0.84592
0.845725
0.845502
0.845029
0.843102
0.84042
0.840613
0.84239
0.844438
0.845395
0.844277
0.841339
0.837199
0.829661
0.821505
0.814144
0.809021
0.805122
0.802307
0.801961
0.802749
0.804117
0.804929
0.807182
0.809184
0.807663
0.807256
0.810511
0.817698
0.831123
0.846751
0.858561
0.856784
0.847595
0.850147
0.854967
0.894876
0.945227
0.952992
0.95374
0.956474
0.958005
0.961086
0.966563
0.974819
0.985004
0.994317
0.999119
1.00004
1.00006
1.00003
1.00001
1
0.131654
0.131694
0.131736
0.131744
0.131739
0.131718
0.131746
0.131639
0.16883
0.328497
0.58777
0.793211
0.829793
0.851636
0.845138
0.835515
0.840739
0.840502
0.842635
0.844146
0.841998
0.83848
0.837388
0.837055
0.839051
0.842472
0.846017
0.846861
0.846407
0.844901
0.843766
0.841792
0.839491
0.839407
0.841578
0.844673
0.845724
0.844261
0.842002
0.836713
0.829455
0.821938
0.815662
0.811107
0.807668
0.804441
0.802423
0.802374
0.803051
0.804343
0.806587
0.806984
0.807289
0.808363
0.811023
0.817334
0.830672
0.847093
0.858091
0.856368
0.846817
0.84873
0.857396
0.894734
0.942942
0.951149
0.953913
0.955294
0.956842
0.96
0.965604
0.974043
0.98445
0.994026
0.999034
1.00003
1.00005
1.00003
1.00001
1
0.131729
0.131731
0.131733
0.131723
0.131691
0.131705
0.131634
0.131635
0.131689
0.131675
0.182165
0.368484
0.594065
0.787638
0.821861
0.833359
0.848917
0.840147
0.842163
0.842187
0.840598
0.838577
0.83777
0.8376
0.837596
0.839194
0.843061
0.845228
0.843891
0.841318
0.840036
0.839348
0.839112
0.839783
0.843188
0.845729
0.845855
0.844954
0.842246
0.836653
0.829333
0.822
0.81589
0.812042
0.808701
0.805431
0.803205
0.802826
0.802107
0.801832
0.804001
0.804828
0.805923
0.809357
0.813603
0.819167
0.832616
0.843706
0.850592
0.848511
0.84495
0.850143
0.859424
0.89535
0.939058
0.94973
0.95367
0.953901
0.955588
0.958835
0.964621
0.973265
0.983898
0.993743
0.998952
1.00001
1.00004
1.00003
1.00001
1
0.131717
0.131715
0.131701
0.131674
0.131676
0.131655
0.131656
0.131705
0.131693
0.131718
0.131724
0.132827
0.199077
0.382362
0.595015
0.755205
0.827997
0.830087
0.840732
0.840011
0.840075
0.839929
0.838173
0.83796
0.838903
0.839888
0.841223
0.841817
0.840028
0.83758
0.837009
0.837397
0.839571
0.843541
0.844356
0.845203
0.845071
0.843991
0.840314
0.834266
0.827401
0.820481
0.815528
0.811934
0.808998
0.805541
0.803104
0.801255
0.798676
0.797014
0.799029
0.801738
0.80673
0.806739
0.811021
0.817865
0.828966
0.847004
0.85328
0.855112
0.848426
0.851539
0.861398
0.897957
0.935436
0.948509
0.952758
0.952339
0.954207
0.957594
0.963612
0.972474
0.983348
0.993469
0.998876
0.999997
1.00004
1.00002
1.00001
1
0.131699
0.131688
0.131678
0.131678
0.131674
0.131664
0.131692
0.131692
0.131713
0.131726
0.131715
0.131694
0.131672
0.132773
0.203822
0.38676
0.636906
0.755776
0.82873
0.830955
0.843964
0.84575
0.840865
0.843153
0.845188
0.844635
0.842013
0.838769
0.836148
0.834008
0.83463
0.838029
0.843272
0.846951
0.846672
0.846372
0.846081
0.844672
0.840252
0.832863
0.82576
0.819189
0.81382
0.810649
0.807507
0.804034
0.801041
0.796916
0.792337
0.792451
0.79539
0.799477
0.805067
0.81497
0.820093
0.826376
0.835653
0.848064
0.849435
0.855347
0.848359
0.849328
0.862711
0.899397
0.931307
0.947057
0.951264
0.950677
0.952722
0.956314
0.96258
0.971665
0.982798
0.993206
0.998804
0.999985
1.00003
1.00002
1.00001
1
0.131693
0.131682
0.131672
0.131668
0.131663
0.131687
0.131698
0.131716
0.13173
0.131713
0.131686
0.131667
0.131662
0.131669
0.131673
0.135098
0.207118
0.425215
0.687714
0.777914
0.842066
0.842271
0.840002
0.849969
0.84987
0.84557
0.842568
0.838743
0.838986
0.83966
0.840663
0.843203
0.845282
0.845734
0.845391
0.845429
0.845434
0.843911
0.838992
0.830983
0.823378
0.817069
0.811996
0.808422
0.804638
0.800811
0.79632
0.792643
0.790816
0.793337
0.796627
0.803307
0.812417
0.817745
0.820128
0.825852
0.836299
0.847828
0.847334
0.853374
0.855982
0.855364
0.867472
0.900375
0.92877
0.945776
0.949438
0.948903
0.951159
0.955024
0.961533
0.970839
0.98225
0.992954
0.998739
0.999974
1.00003
1.00002
1.00001
1
0.131664
0.131656
0.13165
0.131667
0.131694
0.131716
0.131724
0.131726
0.131701
0.131674
0.131659
0.13166
0.131671
0.131682
0.131689
0.131687
0.131674
0.141783
0.238543
0.472792
0.739991
0.80001
0.826504
0.857411
0.853972
0.847807
0.839199
0.838709
0.844061
0.846859
0.84618
0.845088
0.843286
0.842212
0.843389
0.845056
0.845611
0.844237
0.838662
0.830895
0.823175
0.816988
0.811578
0.806627
0.801978
0.797816
0.794388
0.793211
0.791836
0.79387
0.798514
0.806192
0.811365
0.815059
0.819999
0.826738
0.836985
0.842024
0.84212
0.851
0.856635
0.854263
0.864755
0.892283
0.922133
0.944671
0.947456
0.946961
0.949557
0.953741
0.960476
0.970004
0.981709
0.992716
0.99868
0.999964
1.00003
1.00002
1.00001
1
0.131634
0.131667
0.131683
0.131715
0.131737
0.13174
0.131718
0.131684
0.131662
0.131657
0.131665
0.131676
0.131688
0.13169
0.131687
0.131684
0.131683
0.131681
0.131666
0.15385
0.292537
0.549537
0.748344
0.845968
0.843915
0.841722
0.835118
0.838319
0.848183
0.850208
0.849328
0.845535
0.839356
0.840096
0.843471
0.846688
0.846794
0.844311
0.838432
0.831041
0.823355
0.816836
0.811187
0.805877
0.801281
0.797559
0.796208
0.794826
0.794493
0.797284
0.802821
0.808005
0.81025
0.811914
0.816775
0.823703
0.835786
0.839635
0.843232
0.85233
0.85771
0.861536
0.874783
0.897497
0.923129
0.943388
0.944876
0.945001
0.947956
0.952437
0.959404
0.969167
0.981178
0.992494
0.998627
0.999955
1.00002
1.00002
1.00001
1
0.131697
0.131726
0.131753
0.131752
0.13172
0.131685
0.131661
0.131656
0.131663
0.131674
0.131687
0.131694
0.13169
0.131685
0.13168
0.131678
0.131685
0.131686
0.13168
0.131675
0.131649
0.180461
0.36362
0.640052
0.75622
0.836789
0.832245
0.8423
0.84992
0.848858
0.845856
0.837588
0.83236
0.835572
0.842846
0.846323
0.845845
0.843553
0.838364
0.831743
0.824571
0.818176
0.812255
0.806861
0.802699
0.800291
0.799284
0.800086
0.801914
0.804671
0.806629
0.805619
0.803643
0.807521
0.814547
0.82638
0.838455
0.839625
0.843779
0.85348
0.860905
0.865869
0.877805
0.895572
0.920885
0.940231
0.942062
0.943042
0.946255
0.951054
0.958304
0.968329
0.980662
0.992288
0.998583
0.999947
1.00002
1.00001
1
1
0.131742
0.13174
0.131718
0.13169
0.131664
0.131657
0.131662
0.131672
0.131684
0.131692
0.131691
0.131688
0.131683
0.131677
0.131676
0.131684
0.131693
0.131686
0.131678
0.131661
0.131649
0.131635
0.132893
0.208595
0.465626
0.757433
0.807247
0.840832
0.840805
0.832516
0.835099
0.83258
0.831503
0.8368
0.844264
0.844865
0.844512
0.843
0.839418
0.832949
0.825511
0.819169
0.813647
0.809081
0.805598
0.80329
0.804261
0.805273
0.806406
0.807496
0.806579
0.802694
0.799636
0.803908
0.811173
0.824694
0.834
0.83597
0.841532
0.851369
0.860093
0.868784
0.880046
0.900857
0.924988
0.938193
0.939296
0.941016
0.944426
0.949602
0.957168
0.967481
0.980161
0.992104
0.998548
0.999941
1.00002
1.00001
1
1
0.131718
0.131691
0.131669
0.13166
0.131661
0.131669
0.131681
0.131689
0.131689
0.131687
0.131685
0.131681
0.131675
0.131677
0.131685
0.131693
0.131693
0.13168
0.131663
0.13165
0.131646
0.131663
0.131675
0.131674
0.15351
0.310806
0.5664
0.789206
0.803292
0.821581
0.836372
0.834543
0.838118
0.846554
0.846179
0.844069
0.844112
0.845116
0.841291
0.834388
0.826888
0.819414
0.812703
0.809294
0.807507
0.806956
0.806293
0.806005
0.805699
0.804291
0.802027
0.797913
0.797527
0.803235
0.811137
0.82162
0.827788
0.831683
0.839403
0.849237
0.857925
0.867418
0.880497
0.901028
0.92456
0.935007
0.936552
0.938931
0.942619
0.948126
0.955985
0.966614
0.979671
0.991935
0.998523
0.999936
1.00001
1.00001
1
1
0.131672
0.131661
0.131664
0.131671
0.13168
0.131686
0.131686
0.131686
0.131686
0.131684
0.131678
0.131675
0.131681
0.131688
0.131693
0.131695
0.131687
0.131665
0.131652
0.13165
0.131673
0.131706
0.131742
0.131766
0.131749
0.131696
0.199398
0.431254
0.691022
0.806972
0.848722
0.845173
0.851739
0.853346
0.844856
0.842955
0.847231
0.847669
0.842371
0.832402
0.823439
0.814724
0.810125
0.808983
0.80818
0.806645
0.804573
0.802643
0.800646
0.799666
0.798228
0.795055
0.798398
0.806851
0.816693
0.823703
0.826198
0.830118
0.838441
0.848742
0.858247
0.867617
0.88099
0.901752
0.922481
0.931548
0.933923
0.936867
0.940848
0.946661
0.954776
0.965727
0.979214
0.991794
0.998486
0.999932
1.00001
1.00001
1
1
0.131663
0.131668
0.131675
0.131681
0.131684
0.131684
0.131684
0.131684
0.131683
0.131678
0.131677
0.131683
0.131691
0.131694
0.131694
0.131691
0.131673
0.131653
0.131649
0.131669
0.131703
0.131744
0.131791
0.131834
0.131853
0.131855
0.13179
0.139501
0.291828
0.579081
0.800426
0.837198
0.859662
0.856454
0.840076
0.844037
0.85205
0.849924
0.836982
0.826145
0.819181
0.812327
0.808367
0.808408
0.807146
0.804935
0.801835
0.798278
0.793669
0.792881
0.794516
0.796705
0.804109
0.812793
0.821079
0.825012
0.825976
0.829945
0.838613
0.849327
0.859344
0.869241
0.88285
0.902035
0.92027
0.928256
0.931648
0.9349
0.939143
0.945203
0.953552
0.964841
0.978747
0.991681
0.998491
0.99993
1.00001
1.00001
1
1
0.131669
0.131676
0.131682
0.131684
0.131685
0.131685
0.131684
0.131681
0.13168
0.131682
0.131685
0.131689
0.13169
0.13169
0.131687
0.131678
0.131659
0.131649
0.131662
0.131687
0.131726
0.13177
0.131817
0.131866
0.131908
0.131926
0.13194
0.131923
0.13191
0.190295
0.419742
0.680517
0.842505
0.829127
0.835142
0.853645
0.856229
0.846917
0.829376
0.823753
0.819046
0.812008
0.807779
0.807114
0.804413
0.801076
0.799347
0.79433
0.788052
0.787593
0.792464
0.799698
0.808478
0.814837
0.819923
0.822721
0.824614
0.829467
0.838444
0.849669
0.859994
0.870446
0.883832
0.901735
0.917547
0.924637
0.928761
0.932528
0.937322
0.943713
0.952306
0.963988
0.978343
0.991519
0.998478
0.999928
1.00001
1.00001
1
1
0.131674
0.131681
0.131686
0.13169
0.13169
0.131687
0.131683
0.131682
0.131685
0.131689
0.131689
0.131687
0.131685
0.131681
0.131675
0.131664
0.13165
0.131657
0.131672
0.131702
0.131744
0.131789
0.131833
0.131881
0.13193
0.131962
0.131993
0.132028
0.132085
0.132068
0.141389
0.28994
0.612889
0.753356
0.835378
0.861411
0.857695
0.8385
0.829368
0.82815
0.819522
0.811258
0.81022
0.806146
0.799683
0.797399
0.797184
0.789986
0.784379
0.788114
0.794848
0.802112
0.807352
0.810897
0.815336
0.819203
0.822491
0.827931
0.837104
0.848648
0.859922
0.870693
0.883589
0.900557
0.914752
0.921637
0.925877
0.930011
0.935292
0.942075
0.951026
0.963103
0.977928
0.991543
0.998517
0.99993
1.00001
1.00001
1
1
0.131685
0.13169
0.131693
0.131692
0.131688
0.131685
0.131684
0.131686
0.131689
0.131689
0.131688
0.131683
0.131676
0.131669
0.131663
0.131654
0.131645
0.131649
0.131662
0.131692
0.131739
0.131787
0.131831
0.131876
0.131931
0.131974
0.132014
0.132057
0.132105
0.132115
0.132126
0.132038
0.198622
0.475802
0.769093
0.844964
0.844424
0.826087
0.831199
0.831998
0.82358
0.817965
0.814916
0.804808
0.795631
0.796399
0.797972
0.790566
0.787469
0.793141
0.797811
0.801626
0.804734
0.806757
0.810848
0.815936
0.820486
0.826553
0.835726
0.846861
0.858644
0.870194
0.883352
0.898939
0.911459
0.919077
0.923875
0.928098
0.933393
0.940333
0.949673
0.962288
0.977506
0.991454
0.998536
0.999932
1.00001
1.00001
1
1
0.13169
0.131689
0.131689
0.131688
0.131685
0.131684
0.131685
0.131687
0.131688
0.131688
0.131684
0.131676
0.131668
0.13166
0.131651
0.131642
0.131635
0.131635
0.131642
0.13166
0.131693
0.131732
0.131762
0.131796
0.13185
0.131906
0.131979
0.132035
0.132085
0.1321
0.132087
0.132001
0.131489
0.155597
0.357834
0.651911
0.813486
0.822694
0.844263
0.841111
0.823026
0.820579
0.815296
0.801239
0.793126
0.798285
0.798986
0.79605
0.797856
0.800495
0.797546
0.797578
0.799444
0.801792
0.807269
0.814029
0.819342
0.82575
0.834588
0.844924
0.856612
0.869003
0.882576
0.896929
0.908058
0.915509
0.920649
0.925507
0.931296
0.93861
0.948319
0.961375
0.977251
0.991547
0.998579
0.999934
1.00001
1
1
1
0.131684
0.131683
0.131684
0.131685
0.131685
0.131685
0.131684
0.131684
0.131682
0.131678
0.131672
0.131667
0.131661
0.13165
0.131636
0.13163
0.131631
0.131633
0.131637
0.131639
0.131646
0.13165
0.131637
0.131632
0.131641
0.13166
0.131713
0.13176
0.131825
0.131815
0.13169
0.131362
0.130736
0.129602
0.128116
0.275344
0.636184
0.799759
0.845665
0.840094
0.815626
0.817849
0.809936
0.798032
0.797559
0.80246
0.799603
0.801567
0.805918
0.804261
0.797344
0.793302
0.792536
0.796166
0.805261
0.813299
0.818481
0.824709
0.833025
0.842851
0.854138
0.86689
0.880918
0.894441
0.905066
0.912395
0.917757
0.923025
0.929085
0.936699
0.946947
0.960549
0.976842
0.991566
0.998627
0.999938
1
1
1
1
0.131677
0.131678
0.131681
0.131683
0.131684
0.131681
0.131677
0.131674
0.131671
0.131666
0.131661
0.131658
0.131653
0.131638
0.131626
0.13163
0.131638
0.131642
0.131645
0.131639
0.131627
0.13161
0.13157
0.131531
0.131484
0.131418
0.131375
0.131315
0.131288
0.131173
0.1309
0.130449
0.129702
0.128482
0.12676
0.125594
0.209374
0.519201
0.768182
0.824282
0.810715
0.820183
0.803064
0.798367
0.805524
0.805775
0.800221
0.805003
0.807227
0.798464
0.791825
0.78829
0.787919
0.795948
0.806929
0.813181
0.816792
0.822465
0.83051
0.840606
0.851959
0.86455
0.87871
0.891798
0.90174
0.908907
0.91482
0.920822
0.927361
0.935154
0.945556
0.9597
0.976856
0.991714
0.998689
0.999943
1
1
1
1
0.131676
0.13168
0.131682
0.131683
0.131682
0.131679
0.131672
0.131666
0.131662
0.131658
0.131653
0.131652
0.13165
0.131633
0.131628
0.13164
0.131651
0.131658
0.131661
0.131649
0.131631
0.131607
0.131564
0.131516
0.13144
0.131323
0.13118
0.131018
0.130855
0.130632
0.130325
0.129831
0.128823
0.127175
0.125799
0.125849
0.125946
0.170188
0.420662
0.726662
0.782812
0.82296
0.804713
0.809474
0.811093
0.799417
0.793194
0.800541
0.800387
0.790817
0.785603
0.784842
0.789868
0.801518
0.810229
0.812246
0.814116
0.819322
0.827371
0.838326
0.850401
0.862649
0.875909
0.888857
0.898573
0.905161
0.91095
0.917252
0.924527
0.933234
0.944333
0.958846
0.976529
0.99184
0.998762
0.999948
1
1
1
1
0.13168
0.131682
0.131683
0.131682
0.131679
0.131673
0.131663
0.131654
0.13165
0.131649
0.13165
0.131657
0.131655
0.131642
0.131643
0.131658
0.131687
0.13171
0.13172
0.131704
0.131673
0.131652
0.131612
0.131555
0.131456
0.131316
0.131136
0.130926
0.130682
0.130392
0.13
0.129133
0.127494
0.12616
0.126032
0.126233
0.126875
0.127628
0.141451
0.30949
0.615101
0.774447
0.780206
0.820953
0.809388
0.792326
0.787516
0.794169
0.791512
0.785517
0.785869
0.788292
0.797031
0.807699
0.810893
0.81002
0.81074
0.815768
0.824561
0.836221
0.848665
0.861162
0.873248
0.885127
0.895291
0.902717
0.908379
0.914299
0.921661
0.930842
0.942648
0.958215
0.976718
0.992074
0.998842
0.999954
1
1
1
1
0.131683
0.13168
0.131676
0.13167
0.131664
0.131657
0.13165
0.131647
0.13165
0.131654
0.131661
0.13167
0.131669
0.13167
0.131683
0.131713
0.131763
0.131813
0.131842
0.131837
0.131818
0.131805
0.131781
0.131732
0.131635
0.131528
0.131364
0.13113
0.130862
0.130347
0.129345
0.127823
0.126401
0.126246
0.126427
0.126595
0.127243
0.129225
0.132331
0.135227
0.241983
0.466802
0.680368
0.795515
0.785968
0.785051
0.787735
0.7893
0.780851
0.783965
0.792114
0.794596
0.803332
0.808889
0.807176
0.806121
0.807265
0.811716
0.822486
0.834065
0.846129
0.85881
0.870676
0.8811
0.890321
0.898103
0.905329
0.912561
0.920048
0.929185
0.94125
0.95732
0.976629
0.992328
0.998934
0.99996
1
1
1
1
0.131676
0.131665
0.131655
0.131647
0.131646
0.131648
0.131647
0.131653
0.13166
0.131668
0.131677
0.131686
0.131691
0.131707
0.131733
0.131774
0.131837
0.131904
0.131951
0.131959
0.131952
0.131934
0.131916
0.131876
0.131802
0.131696
0.131526
0.131282
0.130697
0.129615
0.127924
0.126623
0.126295
0.126261
0.126624
0.12684
0.12821
0.131332
0.136004
0.142033
0.145845
0.169253
0.327978
0.557843
0.687669
0.776171
0.778045
0.775725
0.769334
0.791706
0.795993
0.794008
0.801148
0.803183
0.801594
0.801585
0.804947
0.813092
0.822364
0.831857
0.842572
0.854755
0.867207
0.877462
0.885387
0.892762
0.900635
0.908875
0.917446
0.927185
0.939869
0.957152
0.976909
0.992647
0.99903
0.999966
1
1
1
1
0.131652
0.131642
0.131636
0.131638
0.131647
0.131657
0.131663
0.131668
0.131676
0.131684
0.131694
0.131704
0.131715
0.131735
0.131767
0.131811
0.131874
0.131945
0.131992
0.132004
0.131996
0.131965
0.13194
0.131894
0.131825
0.131691
0.131486
0.130859
0.129406
0.127934
0.126611
0.126165
0.126252
0.126024
0.126461
0.128716
0.131786
0.135779
0.140583
0.145978
0.151601
0.156697
0.160631
0.2102
0.402974
0.620286
0.72761
0.752349
0.768215
0.804927
0.797954
0.792482
0.795131
0.791328
0.79273
0.796319
0.803631
0.812719
0.820626
0.82856
0.837977
0.849132
0.861643
0.873167
0.88207
0.8894
0.896755
0.904791
0.914001
0.924834
0.938381
0.956364
0.97711
0.993021
0.999135
0.999972
1
1
1
1
0.131642
0.131642
0.131645
0.131652
0.131662
0.131675
0.131684
0.13169
0.131693
0.131696
0.131701
0.131711
0.131725
0.131748
0.131782
0.131824
0.131882
0.13195
0.131992
0.132006
0.131995
0.131962
0.13193
0.131865
0.131761
0.131302
0.130325
0.128963
0.127488
0.126408
0.126008
0.125626
0.125804
0.126298
0.127462
0.130827
0.13562
0.14063
0.14558
0.150392
0.155803
0.16113
0.166623
0.172083
0.181394
0.252127
0.437118
0.627835
0.744483
0.790161
0.778002
0.782987
0.788904
0.777257
0.785841
0.796947
0.804911
0.810829
0.816498
0.823617
0.832954
0.843586
0.855243
0.866982
0.877279
0.886045
0.894042
0.902292
0.91142
0.922483
0.937141
0.956505
0.977607
0.993445
0.999241
0.999977
1
1
1
1
0.131658
0.131662
0.131667
0.131674
0.131683
0.131695
0.131705
0.131708
0.131702
0.13169
0.131684
0.131688
0.131694
0.131716
0.131761
0.131804
0.131863
0.131914
0.131893
0.13189
0.131851
0.131783
0.131658
0.1313
0.130578
0.129504
0.128018
0.126876
0.125901
0.125514
0.125575
0.125527
0.125867
0.128285
0.131773
0.134994
0.139715
0.145127
0.150451
0.155589
0.160379
0.165611
0.171067
0.176637
0.182777
0.189115
0.203257
0.283624
0.449335
0.609168
0.698313
0.757601
0.773654
0.76971
0.79495
0.799225
0.80419
0.806446
0.809411
0.817477
0.828805
0.84029
0.850642
0.860889
0.871148
0.880854
0.889789
0.898752
0.908778
0.920519
0.935534
0.95589
0.978113
0.993936
0.99935
0.999982
1
1
1
1
0.131684
0.13169
0.131692
0.131693
0.131698
0.131707
0.131714
0.131706
0.131688
0.131663
0.131651
0.131649
0.13164
0.131639
0.131665
0.131655
0.131632
0.131579
0.131452
0.131328
0.131174
0.130888
0.130439
0.129711
0.128619
0.127531
0.126228
0.125428
0.125278
0.125278
0.125502
0.126483
0.128399
0.131416
0.136141
0.141074
0.14534
0.149522
0.154136
0.158883
0.164118
0.169653
0.17573
0.182204
0.188346
0.194709
0.202267
0.209076
0.226339
0.298071
0.477774
0.645677
0.746603
0.770652
0.8083
0.799643
0.798765
0.795002
0.799125
0.812386
0.826071
0.837622
0.847971
0.856853
0.865647
0.874876
0.884457
0.894402
0.905139
0.917918
0.934757
0.956256
0.978868
0.994462
0.999455
0.999986
1
1
1
1
0.131711
0.131712
0.131706
0.131693
0.131692
0.131699
0.131697
0.131683
0.13166
0.131641
0.131623
0.13162
0.131602
0.131562
0.131512
0.131444
0.131323
0.131182
0.131
0.130745
0.130404
0.129834
0.129089
0.128178
0.126985
0.125946
0.125279
0.125111
0.125196
0.125422
0.126492
0.129539
0.133414
0.136472
0.140226
0.144826
0.149544
0.154028
0.158632
0.163916
0.169629
0.175157
0.180708
0.18707
0.193942
0.200603
0.207452
0.215326
0.223953
0.231255
0.25334
0.344526
0.516177
0.703045
0.785493
0.786392
0.790645
0.778883
0.789521
0.808826
0.820404
0.830295
0.840886
0.851476
0.86097
0.869992
0.879644
0.890431
0.902152
0.915491
0.933108
0.956246
0.979764
0.995043
0.999557
0.99999
1
1
1
1
0.131709
0.1317
0.13169
0.131681
0.131682
0.131688
0.131682
0.131671
0.131651
0.13164
0.131618
0.131606
0.131587
0.131517
0.131409
0.131314
0.13117
0.130983
0.130753
0.130354
0.1298
0.12895
0.127797
0.126592
0.125624
0.125281
0.125194
0.125244
0.125727
0.127828
0.13084
0.133176
0.13689
0.141348
0.144855
0.148749
0.153342
0.158605
0.163754
0.169082
0.17448
0.180589
0.186561
0.192332
0.198827
0.206109
0.2132
0.22093
0.229183
0.238134
0.24796
0.257303
0.290963
0.418458
0.588999
0.721619
0.766766
0.771158
0.793496
0.805472
0.811771
0.819756
0.830411
0.843145
0.854662
0.864843
0.875338
0.88644
0.898507
0.913292
0.933077
0.956911
0.980845
0.995643
0.99965
0.999993
1
1
1
1
0.131681
0.13169
0.131694
0.131694
0.1317
0.131699
0.13169
0.131685
0.131687
0.131673
0.131654
0.131636
0.131626
0.131592
0.131471
0.131361
0.131231
0.130967
0.130604
0.129877
0.128723
0.127398
0.126302
0.125591
0.125336
0.125456
0.125861
0.127218
0.129286
0.131308
0.13464
0.137594
0.140396
0.144742
0.149463
0.154134
0.158795
0.163929
0.169348
0.174496
0.179845
0.185206
0.191477
0.198058
0.20465
0.211584
0.219446
0.227331
0.23576
0.244806
0.254162
0.264117
0.274846
0.290454
0.359707
0.54582
0.706811
0.7742
0.801696
0.797647
0.79968
0.810865
0.822313
0.833904
0.846205
0.857959
0.869446
0.881755
0.895063
0.910677
0.931747
0.957555
0.982137
0.996273
0.999735
0.999995
1
1
1
1
0.131685
0.131706
0.131718
0.131723
0.13173
0.131733
0.131719
0.131703
0.131703
0.131682
0.131632
0.13163
0.131621
0.131603
0.13154
0.131372
0.131065
0.13039
0.129225
0.127971
0.126949
0.126235
0.125798
0.125866
0.126127
0.127064
0.128254
0.129952
0.132791
0.134599
0.137122
0.141786
0.145696
0.149493
0.154565
0.159728
0.164661
0.169199
0.174301
0.179817
0.185512
0.191288
0.197368
0.203452
0.210205
0.217468
0.225292
0.233293
0.241892
0.25121
0.2611
0.272003
0.282905
0.294255
0.306404
0.347443
0.490725
0.686089
0.778769
0.775601
0.786454
0.799855
0.815006
0.826798
0.837745
0.850362
0.863492
0.876553
0.89109
0.909073
0.931981
0.95874
0.983596
0.996897
0.999807
0.999997
1
1
1
1
0.131746
0.131757
0.131758
0.131752
0.131738
0.13173
0.131715
0.131675
0.131676
0.131671
0.131619
0.131615
0.13157
0.131457
0.131174
0.130411
0.129232
0.128072
0.12713
0.126549
0.126299
0.126213
0.126423
0.127087
0.127639
0.128904
0.1309
0.132126
0.134655
0.138812
0.141916
0.145967
0.151436
0.15614
0.160364
0.164819
0.169854
0.174743
0.179447
0.184655
0.190044
0.195994
0.20239
0.209441
0.216228
0.223619
0.231591
0.24037
0.24907
0.25806
0.268122
0.278719
0.290387
0.303063
0.315082
0.328656
0.357737
0.475266
0.640528
0.740399
0.787316
0.799783
0.807864
0.820058
0.832194
0.843305
0.856863
0.871821
0.887307
0.906168
0.931447
0.960222
0.985274
0.997509
0.999867
0.999998
1
1
1
1
0.131756
0.131746
0.131721
0.131679
0.131606
0.131536
0.131527
0.131509
0.131489
0.131474
0.131378
0.13109
0.130521
0.129674
0.128788
0.127932
0.127083
0.126546
0.126247
0.126134
0.126334
0.126736
0.127031
0.128142
0.129282
0.130195
0.13283
0.136127
0.138903
0.143565
0.148989
0.152676
0.15675
0.1614
0.165866
0.170136
0.174336
0.179641
0.184955
0.190244
0.196283
0.20248
0.208303
0.215202
0.222977
0.230693
0.238637
0.247235
0.256888
0.266552
0.276557
0.286998
0.298361
0.310628
0.324647
0.337685
0.35295
0.378922
0.478662
0.657939
0.760027
0.786457
0.793348
0.804328
0.820045
0.835967
0.850348
0.865589
0.883459
0.905643
0.932196
0.962198
0.987086
0.998081
0.999913
0.999999
1
1
1
1
0.131582
0.131471
0.131364
0.131291
0.131243
0.13118
0.131082
0.130942
0.130716
0.13036
0.129847
0.129166
0.128418
0.127607
0.126877
0.126438
0.12603
0.125836
0.125984
0.125945
0.126022
0.12701
0.127588
0.12856
0.131356
0.134166
0.137027
0.141942
0.146988
0.150059
0.154083
0.158668
0.162143
0.166068
0.170439
0.175337
0.180039
0.184724
0.190387
0.196196
0.202049
0.208798
0.216086
0.222647
0.229965
0.238071
0.246346
0.254798
0.263753
0.274028
0.284688
0.296198
0.308023
0.320059
0.333282
0.347975
0.362202
0.379239
0.406392
0.497907
0.643759
0.73891
0.772672
0.788257
0.804434
0.823409
0.842595
0.860163
0.878992
0.903252
0.932946
0.964711
0.989048
0.998595
0.999947
1
1
1
1
1
0.131213
0.131151
0.13109
0.131009
0.130887
0.130714
0.130469
0.130111
0.129577
0.128918
0.128201
0.127403
0.126732
0.126281
0.125935
0.125846
0.125827
0.125669
0.125792
0.126075
0.126376
0.127486
0.130478
0.133295
0.13637
0.141127
0.145369
0.148151
0.151987
0.155985
0.158837
0.162841
0.167263
0.171462
0.1758
0.180468
0.186087
0.191457
0.196826
0.202955
0.209142
0.214907
0.221691
0.22925
0.236626
0.244528
0.253184
0.262385
0.271595
0.281468
0.292314
0.303806
0.316217
0.329888
0.343551
0.358271
0.37405
0.388562
0.406841
0.437653
0.527683
0.665823
0.751636
0.782668
0.798376
0.81336
0.83261
0.853659
0.876066
0.903219
0.934733
0.967738
0.991058
0.999033
0.999971
1
1
1
1
1
0.131199
0.131139
0.131092
0.130985
0.130728
0.130347
0.129792
0.129048
0.128196
0.127401
0.126749
0.126223
0.125949
0.125913
0.125854
0.12582
0.125912
0.126131
0.126671
0.128571
0.13153
0.133998
0.136734
0.140654
0.143879
0.146547
0.150138
0.153514
0.156056
0.160299
0.164572
0.168023
0.172586
0.177447
0.182467
0.187349
0.192277
0.197883
0.203533
0.209168
0.215615
0.222509
0.228922
0.236148
0.243836
0.251926
0.260576
0.269626
0.279768
0.290206
0.301095
0.31278
0.325232
0.338868
0.353308
0.368514
0.384644
0.401475
0.417963
0.439474
0.475554
0.563225
0.680104
0.754047
0.78633
0.807066
0.825521
0.845421
0.870625
0.902121
0.937288
0.971404
0.993059
0.999382
0.999985
1
1
1
1
1
0.130983
0.130702
0.130259
0.129653
0.128918
0.128155
0.12752
0.126969
0.12656
0.126235
0.125999
0.125954
0.125958
0.126106
0.126445
0.126984
0.12814
0.130194
0.132487
0.134235
0.136697
0.139911
0.142344
0.144983
0.148378
0.151116
0.153887
0.158282
0.16245
0.165613
0.170285
0.17517
0.179367
0.18384
0.188627
0.193682
0.198715
0.20388
0.209712
0.215751
0.221641
0.228397
0.235898
0.243471
0.251702
0.260222
0.269114
0.278749
0.288772
0.299167
0.310592
0.322861
0.335629
0.348766
0.363546
0.379788
0.396466
0.414418
0.430401
0.44922
0.476625
0.519827
0.602749
0.695278
0.755566
0.790903
0.815669
0.840278
0.870306
0.903516
0.941057
0.97555
0.994931
0.999639
0.999993
1
1
1
1
1
0.1292
0.128536
0.127889
0.127343
0.126981
0.126735
0.126638
0.126526
0.126463
0.126557
0.126645
0.126918
0.127418
0.127945
0.129007
0.130545
0.1322
0.133989
0.136395
0.138783
0.140729
0.143568
0.146936
0.14959
0.152886
0.157277
0.161188
0.16439
0.168855
0.173349
0.176811
0.181024
0.185574
0.190031
0.194531
0.19947
0.20485
0.210558
0.216232
0.222609
0.229619
0.23646
0.243691
0.251345
0.259683
0.26835
0.277578
0.287283
0.297551
0.308911
0.320668
0.332676
0.346134
0.360198
0.374979
0.390588
0.408093
0.426567
0.446325
0.464282
0.485418
0.519162
0.568571
0.643867
0.718045
0.76696
0.800126
0.832569
0.868158
0.905991
0.946177
0.980057
0.996566
0.999811
0.999997
1
1
1
1
1
0.127153
0.126772
0.126515
0.126372
0.126386
0.126455
0.12662
0.126871
0.127068
0.127388
0.127865
0.128413
0.129455
0.130497
0.131699
0.1335
0.135533
0.137598
0.139927
0.143342
0.146826
0.149608
0.1531
0.157138
0.160566
0.163844
0.167773
0.171669
0.174772
0.178724
0.183053
0.186823
0.191081
0.195969
0.20096
0.206134
0.211594
0.217437
0.223868
0.230276
0.236902
0.244276
0.252019
0.260121
0.268157
0.277322
0.286691
0.29643
0.306822
0.318002
0.329937
0.343158
0.35642
0.371282
0.386451
0.4027
0.42046
0.43934
0.459522
0.479245
0.499518
0.525596
0.567741
0.621558
0.68338
0.743709
0.792278
0.832299
0.869581
0.910481
0.952551
0.984687
0.997888
0.999914
0.999999
1
1
1
1
1
0.12635
0.12629
0.126338
0.126331
0.126351
0.126509
0.126598
0.126968
0.127424
0.12794
0.129036
0.130011
0.131256
0.133534
0.135758
0.138161
0.141049
0.144267
0.147522
0.150495
0.153761
0.1573
0.160308
0.163479
0.16689
0.170098
0.173142
0.176896
0.180851
0.184303
0.18852
0.193392
0.198155
0.202885
0.20824
0.213733
0.21962
0.225533
0.231695
0.238528
0.24556
0.252643