/*--------------------------------*- C++ -*----------------------------------*\
  =========                 |
  \\      /  F ield         | OpenFOAM: The Open Source CFD Toolbox
   \\    /   O peration     | Website:  https://openfoam.org
    \\  /    A nd           | Version:  7
     \\/     M anipulation  |
\*---------------------------------------------------------------------------*/
FoamFile
{
    version     2.0;
    format      ascii;
    class       volScalarField;
    location    "11";
    object      rho;
}
// * * * * * * * * * * * * * * * * * * * * * * * * * * * * * * * * * * * * * //

dimensions      [1 -3 0 0 0 0 0];

internalField   nonuniform List<scalar> 
90000
(
0.352708
0.409733
0.453437
0.493981
0.513563
0.525583
0.538447
0.547467
0.549561
0.552139
0.553854
0.554352
0.554703
0.554687
0.554556
0.555608
0.556728
0.559377
0.563857
0.569105
0.57429
0.580622
0.588385
0.597854
0.608465
0.620134
0.632016
0.645084
0.658459
0.672527
0.686048
0.698824
0.71101
0.722532
0.732239
0.741057
0.749643
0.757783
0.765204
0.771793
0.777199
0.781403
0.784569
0.78684
0.788956
0.790881
0.790634
0.789447
0.786744
0.78318
0.778539
0.778736
0.780218
0.782284
0.78628
0.792121
0.798023
0.802566
0.805087
0.805147
0.805001
0.804504
0.802611
0.799906
0.797916
0.797844
0.798971
0.802847
0.809141
0.81582
0.821659
0.822751
0.825617
0.826424
0.83
0.837437
0.847386
0.857734
0.865657
0.869365
0.875954
0.883151
0.895308
0.903982
0.913144
0.915285
0.921902
0.92904
0.936804
0.943514
0.945734
0.954245
0.959541
0.965281
0.971649
0.973925
0.980485
0.989463
0.992483
0.997794
0.347326
0.352617
0.357705
0.363486
0.36972
0.376478
0.383274
0.39012
0.39643
0.401947
0.40645
0.409411
0.411923
0.413892
0.416355
0.419296
0.423029
0.427929
0.433124
0.439576
0.446438
0.454473
0.463171
0.473088
0.483353
0.494358
0.505788
0.51803
0.530814
0.544
0.557274
0.570289
0.583375
0.595831
0.606559
0.616701
0.627458
0.638679
0.650289
0.662177
0.674184
0.685872
0.697165
0.70787
0.718474
0.729062
0.739161
0.748498
0.756712
0.763097
0.76839
0.774676
0.783171
0.791675
0.797803
0.802575
0.806347
0.80906
0.80988
0.809186
0.806456
0.802843
0.798267
0.798278
0.798828
0.801779
0.806991
0.813414
0.819988
0.824315
0.824731
0.824088
0.825161
0.828121
0.835296
0.846601
0.856756
0.863089
0.867816
0.87156
0.879763
0.888604
0.90228
0.907308
0.914377
0.91727
0.926333
0.932204
0.939023
0.941736
0.946056
0.955385
0.959349
0.966426
0.970821
0.97356
0.981848
0.989716
0.992656
0.998226
0.346602
0.346268
0.349156
0.351223
0.352894
0.354186
0.356464
0.358686
0.361135
0.363446
0.366207
0.369525
0.372586
0.375424
0.378034
0.380282
0.382437
0.384165
0.385684
0.386817
0.388108
0.389748
0.392076
0.395282
0.399295
0.404326
0.410131
0.416931
0.424838
0.434193
0.444592
0.455613
0.46696
0.478462
0.489596
0.500595
0.51275
0.526156
0.54042
0.555415
0.571316
0.588145
0.605927
0.624476
0.643597
0.663385
0.683572
0.703753
0.723321
0.741641
0.757955
0.770363
0.779635
0.787743
0.793591
0.79722
0.799767
0.79961
0.798053
0.795956
0.792769
0.792886
0.794857
0.798979
0.806569
0.814591
0.821226
0.824632
0.826262
0.826316
0.825838
0.825897
0.828836
0.835597
0.846549
0.855186
0.861774
0.866713
0.869375
0.874247
0.884768
0.896668
0.905092
0.90891
0.914672
0.919444
0.929825
0.934249
0.939919
0.940621
0.94714
0.955767
0.960363
0.967217
0.970181
0.974192
0.983043
0.989333
0.992131
0.998132
0.306722
0.313453
0.322628
0.340089
0.350038
0.353825
0.354659
0.356644
0.35855
0.359961
0.36004
0.360169
0.360608
0.361414
0.362219
0.362933
0.363844
0.364845
0.366256
0.367719
0.36941
0.371117
0.373019
0.37489
0.376899
0.378888
0.38084
0.382516
0.383866
0.385387
0.38741
0.390363
0.394236
0.399084
0.404615
0.410951
0.41853
0.4284
0.439667
0.451593
0.464125
0.477108
0.4912
0.506776
0.522945
0.539895
0.557892
0.577422
0.598095
0.619586
0.641046
0.660813
0.677859
0.694116
0.709164
0.7231
0.735864
0.747792
0.758757
0.769223
0.778989
0.788509
0.798772
0.808055
0.815888
0.822136
0.827425
0.829469
0.828407
0.825516
0.82609
0.830042
0.838693
0.849434
0.858777
0.862613
0.865535
0.868351
0.871435
0.880802
0.891361
0.903936
0.905818
0.90927
0.914208
0.922953
0.931059
0.935313
0.939949
0.942095
0.949962
0.955031
0.960789
0.967416
0.96941
0.975137
0.984022
0.988689
0.992875
0.999352
0.0851681
0.0973431
0.116755
0.189445
0.272598
0.294699
0.315812
0.327375
0.343588
0.351452
0.354184
0.355617
0.357376
0.359387
0.360394
0.360506
0.360961
0.36138
0.361686
0.361634
0.361668
0.361724
0.362055
0.362666
0.363398
0.364244
0.365316
0.366753
0.36857
0.37039
0.372248
0.373975
0.375772
0.377739
0.379897
0.382242
0.3841
0.385809
0.388667
0.392994
0.398551
0.405136
0.412682
0.422598
0.434979
0.448358
0.462608
0.477647
0.494642
0.513338
0.532666
0.552438
0.572678
0.59426
0.617138
0.641132
0.665493
0.689816
0.713215
0.736006
0.75747
0.775548
0.789738
0.800437
0.807359
0.81191
0.814087
0.815391
0.817074
0.820185
0.828015
0.840763
0.851722
0.859367
0.86395
0.865642
0.867758
0.871075
0.877851
0.890413
0.899883
0.906471
0.906605
0.910243
0.916667
0.927947
0.931489
0.935322
0.938687
0.943796
0.951941
0.955635
0.961474
0.967337
0.970546
0.976698
0.984226
0.987981
0.993195
0.999632
0.0733185
0.073324
0.0733334
0.0733442
0.0757202
0.0839744
0.10145
0.12802
0.198066
0.266349
0.291418
0.314546
0.329166
0.343241
0.351564
0.354105
0.35566
0.357006
0.35845
0.358869
0.359703
0.360934
0.362109
0.362816
0.36322
0.363632
0.364069
0.364367
0.364497
0.364687
0.365058
0.365511
0.365855
0.366196
0.36675
0.367884
0.369958
0.372244
0.374188
0.376437
0.378921
0.381774
0.384901
0.387715
0.390727
0.395299
0.401481
0.408875
0.417473
0.428978
0.442486
0.456897
0.47159
0.488038
0.506468
0.52588
0.546107
0.568706
0.592822
0.618775
0.645794
0.67149
0.694791
0.716689
0.736142
0.753949
0.770885
0.787542
0.802953
0.819344
0.834933
0.848151
0.857338
0.862122
0.864337
0.865536
0.868377
0.875647
0.887951
0.898394
0.905032
0.906917
0.907581
0.913544
0.922685
0.931345
0.931877
0.935129
0.939861
0.94699
0.952889
0.955875
0.962163
0.966578
0.971117
0.977755
0.982998
0.987121
0.99252
0.998381
0.0737866
0.0738291
0.0738733
0.0739286
0.0739612
0.0739887
0.0740174
0.0740472
0.0740732
0.078132
0.0897735
0.112002
0.143731
0.205417
0.267271
0.296469
0.319509
0.335487
0.347656
0.356106
0.358287
0.358573
0.359651
0.360372
0.360279
0.36075
0.361889
0.362929
0.363836
0.364719
0.365447
0.366009
0.366411
0.366673
0.366937
0.367058
0.367132
0.367426
0.368254
0.368975
0.369846
0.37094
0.372597
0.375088
0.378027
0.380762
0.384044
0.387749
0.391833
0.395008
0.39855
0.404174
0.411246
0.419784
0.43126
0.445624
0.461033
0.477641
0.498169
0.519879
0.542708
0.568647
0.596312
0.625473
0.655997
0.685752
0.71506
0.743223
0.769708
0.7932
0.807996
0.818512
0.827791
0.835958
0.844735
0.855887
0.867388
0.881454
0.894471
0.902081
0.906235
0.904398
0.908127
0.919221
0.928841
0.932189
0.931879
0.935464
0.941948
0.949386
0.95272
0.956299
0.963268
0.96704
0.971192
0.977646
0.981146
0.986265
0.990262
0.994798
0.0743713
0.0744163
0.0744637
0.0745188
0.0745754
0.0746374
0.0747008
0.0747681
0.0748531
0.0748921
0.0749284
0.0749844
0.0750339
0.0754156
0.0825014
0.099301
0.127013
0.164788
0.217565
0.278797
0.311473
0.331652
0.345635
0.355169
0.362414
0.362875
0.363305
0.36432
0.364533
0.364388
0.36493
0.365596
0.365965
0.366377
0.36682
0.367394
0.36804
0.368838
0.36942
0.370023
0.370756
0.37159
0.372389
0.373175
0.374264
0.375748
0.377136
0.378619
0.380737
0.383997
0.386837
0.389691
0.392883
0.396507
0.400435
0.404476
0.410694
0.418502
0.428394
0.443077
0.458764
0.476298
0.497034
0.518767
0.541897
0.567856
0.595626
0.625702
0.657631
0.687846
0.715755
0.74148
0.767475
0.793208
0.817718
0.843703
0.864065
0.878233
0.885439
0.885934
0.890723
0.898222
0.913073
0.923491
0.930548
0.928371
0.929503
0.936805
0.945118
0.950145
0.951202
0.956767
0.964063
0.966892
0.970765
0.975701
0.979835
0.984826
0.986977
0.990259
0.0750943
0.0751554
0.0752213
0.0752929
0.0753703
0.0754493
0.0755292
0.0756124
0.0757004
0.0757975
0.0759122
0.0760387
0.076177
0.0763298
0.0764308
0.0765074
0.0766189
0.0766887
0.0786198
0.0905483
0.115648
0.152023
0.196989
0.245251
0.303912
0.334708
0.352555
0.361488
0.367502
0.36907
0.368648
0.369819
0.369637
0.369161
0.36957
0.370258
0.370623
0.370933
0.370987
0.371435
0.371706
0.372346
0.373237
0.374446
0.375864
0.377092
0.378249
0.379274
0.380156
0.380805
0.382232
0.383366
0.384453
0.385973
0.389181
0.392182
0.395442
0.399369
0.404324
0.408294
0.414631
0.423586
0.434271
0.449119
0.46559
0.484059
0.506678
0.530366
0.556615
0.586452
0.616884
0.648027
0.679743
0.7108
0.740724
0.768171
0.790055
0.809694
0.828251
0.849144
0.871318
0.894711
0.914782
0.91689
0.914773
0.917149
0.92675
0.939082
0.946488
0.946117
0.948329
0.957959
0.963863
0.965019
0.968139
0.973175
0.978383
0.98234
0.985029
0.987762
0.0760043
0.0760803
0.0761594
0.0762454
0.0763336
0.076422
0.0765081
0.0765955
0.0766873
0.0767901
0.076904
0.0770231
0.0771465
0.0772663
0.0773861
0.0775104
0.077645
0.0777671
0.0779326
0.0779688
0.0780183
0.0780587
0.0785583
0.0848484
0.1066
0.144997
0.196336
0.24921
0.298936
0.339095
0.361817
0.371712
0.375648
0.376849
0.375817
0.376657
0.375555
0.374843
0.374975
0.376033
0.376776
0.377658
0.378448
0.378877
0.378826
0.378816
0.379235
0.379892
0.380739
0.382177
0.383662
0.384614
0.385452
0.38615
0.386518
0.388106
0.389912
0.391692
0.394464
0.398546
0.402048
0.406778
0.412418
0.41765
0.424944
0.434356
0.445679
0.46146
0.477829
0.49712
0.519976
0.542551
0.567173
0.595139
0.624865
0.657408
0.691932
0.72659
0.762037
0.796106
0.824622
0.846643
0.853862
0.866266
0.883794
0.903752
0.924196
0.934143
0.932868
0.937528
0.947927
0.959283
0.959105
0.961679
0.965955
0.970489
0.974888
0.981013
0.985895
0.987314
0.0770192
0.0770992
0.0771806
0.0772664
0.0773532
0.077442
0.0775268
0.0776103
0.0776929
0.0777888
0.0778881
0.0779924
0.0780945
0.0782024
0.0782978
0.0784069
0.0785002
0.0786042
0.0786876
0.0787761
0.0788726
0.0789772
0.0791153
0.0792069
0.0792807
0.079356
0.0794143
0.0854778
0.105947
0.146416
0.204909
0.265073
0.311779
0.35098
0.373956
0.382294
0.384195
0.384278
0.384769
0.385196
0.38389
0.38315
0.383591
0.38405
0.384898
0.385402
0.386089
0.386318
0.38636
0.386256
0.385969
0.385894
0.386256
0.387193
0.388563
0.390289
0.391839
0.393166
0.394645
0.395996
0.39844
0.400823
0.404027
0.4088
0.41279
0.417911
0.424197
0.430396
0.438764
0.448409
0.459859
0.475795
0.493761
0.515123
0.537817
0.55886
0.583972
0.612101
0.643877
0.678715
0.711883
0.740749
0.771218
0.803482
0.8331
0.859372
0.873711
0.885646
0.902225
0.923531
0.942601
0.943429
0.949009
0.959613
0.966
0.967661
0.972539
0.982688
0.988546
0.990109
0.0780634
0.078135
0.0782074
0.0782794
0.0783561
0.0784345
0.078516
0.0785884
0.078661
0.0787341
0.0788099
0.0788833
0.0789656
0.0790449
0.0791214
0.0791997
0.0792751
0.079345
0.0794091
0.0794846
0.0795638
0.0796668
0.0797781
0.079915
0.0800531
0.0801952
0.0803566
0.0804103
0.0804856
0.0805839
0.0808298
0.0892338
0.113967
0.16116
0.228643
0.291655
0.336827
0.368411
0.389478
0.394221
0.395726
0.393236
0.394553
0.392975
0.393125
0.392259
0.393511
0.393972
0.393691
0.39329
0.393036
0.392553
0.392983
0.393673
0.393916
0.393963
0.394474
0.395261
0.396529
0.398583
0.400347
0.402389
0.404372
0.406519
0.409677
0.412599
0.416204
0.42123
0.426332
0.432922
0.439762
0.444464
0.451313
0.461845
0.475987
0.493935
0.511394
0.529881
0.552597
0.579946
0.608738
0.637599
0.666296
0.695812
0.725991
0.754865
0.785242
0.817041
0.845578
0.867432
0.88206
0.902638
0.924284
0.939639
0.947366
0.955826
0.967422
0.981614
0.986741
0.989722
0.0791054
0.0791595
0.0792151
0.07927
0.0793259
0.0793859
0.0794466
0.079508
0.0795663
0.0796202
0.0796719
0.0797252
0.0797863
0.0798462
0.0799051
0.0799634
0.0800229
0.0800753
0.0801351
0.0802052
0.0802985
0.080417
0.0805634
0.0807253
0.0808961
0.0810769
0.0812482
0.0814297
0.0816409
0.0818498
0.0821141
0.082224
0.0823357
0.0824114
0.0842239
0.0985949
0.13405
0.192812
0.268071
0.328062
0.370932
0.390696
0.403832
0.403367
0.403712
0.403135
0.403484
0.402177
0.400985
0.401527
0.402195
0.401954
0.402432
0.402391
0.401568
0.401672
0.402375
0.403155
0.404146
0.404296
0.404151
0.404698
0.405743
0.408614
0.411694
0.414441
0.417113
0.419774
0.423363
0.427292
0.431707
0.437458
0.441293
0.44553
0.451613
0.459584
0.471119
0.482838
0.495688
0.509418
0.527949
0.55047
0.570223
0.591059
0.615983
0.647205
0.682757
0.716305
0.745886
0.771137
0.803008
0.832182
0.854785
0.87215
0.889101
0.910493
0.931319
0.945479
0.950158
0.963237
0.080001
0.0800439
0.0800893
0.080133
0.0801793
0.080225
0.0802664
0.0803132
0.0803624
0.0804104
0.0804539
0.0805003
0.0805564
0.0806178
0.0806756
0.0807358
0.0807948
0.0808586
0.0809362
0.081034
0.0811573
0.0813198
0.0815101
0.0817078
0.0819056
0.082114
0.08231
0.0825074
0.0826994
0.0828956
0.0830728
0.0832253
0.0833562
0.0834834
0.0835258
0.0835862
0.0836776
0.083751
0.0908126
0.117907
0.173709
0.249769
0.324575
0.369356
0.399205
0.41056
0.414722
0.413941
0.41079
0.410336
0.410328
0.408931
0.41146
0.412961
0.412221
0.413072
0.412879
0.412182
0.412358
0.412325
0.41266
0.41366
0.414209
0.414971
0.415867
0.417107
0.419525
0.422643
0.425621
0.429149
0.432249
0.434907
0.438532
0.441345
0.444501
0.448233
0.453508
0.461878
0.470167
0.477268
0.483782
0.495103
0.513494
0.53125
0.547173
0.562801
0.581886
0.607771
0.636631
0.668705
0.702036
0.731346
0.760568
0.788626
0.815201
0.841241
0.865588
0.885913
0.901365
0.921007
0.0808524
0.0808839
0.0809189
0.0809552
0.0809964
0.0810404
0.0810847
0.0811313
0.0811845
0.0812407
0.0812966
0.0813535
0.0814235
0.081501
0.0815789
0.0816618
0.0817552
0.0818552
0.081972
0.0821024
0.0822536
0.0824348
0.0826452
0.0828522
0.0830442
0.083233
0.0834116
0.0835733
0.0837328
0.0838876
0.0840101
0.0841076
0.08417
0.0842302
0.0843201
0.0844401
0.0845806
0.0847698
0.0848697
0.0849956
0.085118
0.0889743
0.112204
0.165769
0.24509
0.324825
0.379203
0.410897
0.417535
0.420999
0.420463
0.419194
0.421116
0.422031
0.420358
0.422414
0.422693
0.422554
0.424027
0.423224
0.423295
0.423932
0.423647
0.424747
0.425311
0.426772
0.428818
0.429429
0.43007
0.431509
0.433955
0.437494
0.441318
0.443839
0.446496
0.449174
0.452036
0.455308
0.462096
0.469752
0.475277
0.478285
0.48171
0.490087
0.503765
0.520238
0.535232
0.547237
0.561291
0.578421
0.601637
0.629245
0.657686
0.683892
0.712827
0.745671
0.777614
0.808224
0.829681
0.859883
0.0816343
0.0816668
0.0817071
0.0817567
0.0818135
0.0818776
0.0819459
0.0820194
0.0821009
0.0821958
0.0822914
0.0823845
0.0824893
0.0826037
0.0827117
0.0828236
0.0829418
0.0830674
0.0832026
0.0833423
0.083487
0.0836381
0.0838064
0.0839683
0.0841118
0.0842507
0.0843762
0.084477
0.0845847
0.0846798
0.0847543
0.0848017
0.0848524
0.0849184
0.0850041
0.0851336
0.085326
0.0855823
0.0858682
0.0861691
0.0865217
0.0866602
0.086911
0.0871038
0.0895249
0.11138
0.165092
0.25417
0.332805
0.392091
0.414236
0.427048
0.431206
0.432979
0.431263
0.431536
0.430309
0.430058
0.433869
0.432923
0.433876
0.434807
0.4349
0.437321
0.437373
0.438398
0.439575
0.439402
0.440401
0.442
0.44261
0.44354
0.445064
0.446955
0.449591
0.453066
0.455217
0.457104
0.459912
0.464513
0.469546
0.473776
0.476361
0.479145
0.482749
0.491875
0.504329
0.516918
0.527795
0.53758
0.548621
0.563391
0.580541
0.599398
0.623069
0.650897
0.681061
0.706969
0.726181
0.764244
0.0825765
0.0826319
0.0826952
0.0827677
0.0828539
0.0829494
0.0830492
0.0831519
0.0832599
0.0833769
0.0834975
0.0836145
0.0837381
0.0838637
0.0839836
0.0840956
0.0841966
0.084292
0.0843964
0.0845111
0.0846206
0.0847274
0.0848295
0.0849275
0.0850044
0.0850835
0.0851576
0.0852265
0.0852977
0.0853656
0.0854211
0.0854817
0.0855693
0.0856903
0.0858444
0.0860672
0.0863877
0.0867717
0.0871343
0.0875088
0.0878234
0.0881544
0.0884887
0.0887566
0.0890686
0.0890741
0.0890342
0.0915936
0.115913
0.179603
0.270772
0.353302
0.409105
0.432631
0.442302
0.442934
0.440607
0.438484
0.441673
0.439299
0.442159
0.444985
0.446741
0.450493
0.449019
0.450372
0.452326
0.451989
0.453769
0.454788
0.453428
0.454135
0.455935
0.457342
0.458789
0.459918
0.459617
0.460376
0.463215
0.466843
0.470544
0.47522
0.478763
0.480439
0.482261
0.483847
0.488102
0.495658
0.504481
0.515028
0.524908
0.530016
0.536653
0.546951
0.561423
0.578615
0.598186
0.618304
0.638255
0.671491
0.0838312
0.0838961
0.0839668
0.0840501
0.0841416
0.0842313
0.084323
0.0844203
0.0845175
0.0846175
0.0847187
0.0848131
0.0849022
0.0849938
0.0850911
0.08518
0.0852496
0.0852908
0.0853383
0.0854121
0.0854815
0.0855498
0.0856143
0.0856693
0.0857179
0.0857587
0.0858131
0.0858813
0.0859624
0.0860588
0.0861798
0.0863262
0.086534
0.0867876
0.0870543
0.0873672
0.0877826
0.0881986
0.0885631
0.0888666
0.0891127
0.089368
0.0895817
0.0897292
0.089817
0.0899325
0.0900835
0.0901355
0.0903048
0.0905514
0.0965712
0.129195
0.205098
0.302598
0.390007
0.428053
0.447804
0.448713
0.451973
0.449262
0.450526
0.45334
0.457064
0.462878
0.460998
0.463308
0.464662
0.462686
0.466189
0.468325
0.467437
0.469468
0.470467
0.469086
0.469754
0.47199
0.472493
0.472372
0.472303
0.471803
0.47272
0.477331
0.48231
0.483959
0.485304
0.48663
0.48859
0.492403
0.496432
0.500998
0.508827
0.515976
0.522227
0.529921
0.537607
0.545776
0.555274
0.564295
0.57535
0.602993
0.0851151
0.0851585
0.0852023
0.0852518
0.085308
0.085372
0.0854435
0.0855134
0.085579
0.0856505
0.0857201
0.0857785
0.0858279
0.0858883
0.0859498
0.0860051
0.086056
0.0860702
0.0860846
0.0861291
0.0861839
0.0862461
0.0863274
0.0864151
0.0864962
0.0865731
0.0866641
0.0867825
0.086928
0.0871316
0.0873782
0.0876551
0.087998
0.0883599
0.088656
0.0889576
0.0893038
0.0896045
0.089846
0.0900345
0.0902149
0.0903911
0.0905487
0.0906366
0.0906923
0.0908408
0.0911454
0.0916051
0.0921042
0.092813
0.0932457
0.0937846
0.0941884
0.105117
0.15392
0.245391
0.345349
0.415535
0.442916
0.460661
0.463339
0.4646
0.471833
0.475029
0.471264
0.475238
0.476618
0.475286
0.480598
0.482475
0.480577
0.484101
0.485417
0.484004
0.48598
0.487945
0.486195
0.485407
0.485955
0.485107
0.485259
0.487268
0.489091
0.488216
0.489288
0.491913
0.493661
0.495204
0.49871
0.501753
0.504668
0.509547
0.514583
0.521305
0.528797
0.535503
0.542583
0.550151
0.551639
0.559135
0.0862045
0.0862245
0.0862456
0.0862693
0.0863007
0.0863367
0.0863779
0.0864263
0.0864777
0.0865249
0.0865636
0.0865953
0.0866252
0.0866614
0.0867117
0.0867653
0.0868236
0.0868818
0.0869376
0.0869988
0.0870807
0.0871842
0.087324
0.0875122
0.087725
0.087917
0.0881079
0.0883181
0.0885656
0.0888533
0.0891455
0.0894229
0.0897313
0.0900232
0.0902182
0.0903955
0.0905679
0.0907031
0.0907916
0.0908975
0.0910463
0.0912218
0.0913699
0.0915054
0.0916911
0.0920132
0.092525
0.0932805
0.0940653
0.094938
0.0957236
0.0963995
0.097052
0.0973108
0.0975165
0.0976378
0.119227
0.188089
0.287839
0.389383
0.443237
0.465795
0.490251
0.492383
0.489898
0.491138
0.488143
0.488355
0.496762
0.498337
0.497024
0.501642
0.502132
0.499543
0.502192
0.504205
0.502267
0.50351
0.505843
0.503506
0.501032
0.500971
0.502087
0.502382
0.50368
0.504651
0.504145
0.504112
0.504995
0.505959
0.508512
0.512292
0.516596
0.51851
0.521584
0.525588
0.530788
0.538914
0.544067
0.550967
0.0872582
0.0872645
0.0872663
0.0872695
0.0872787
0.0872967
0.0873202
0.0873564
0.0874008
0.0874421
0.0874813
0.0875225
0.087566
0.087619
0.0876889
0.0877796
0.0878934
0.0880256
0.088168
0.0883361
0.0885187
0.0887101
0.0889242
0.0891929
0.0894825
0.0897392
0.0899604
0.0901812
0.0904079
0.0906214
0.0908109
0.0909669
0.0911279
0.0912953
0.091401
0.0914712
0.0915923
0.0916123
0.0916452
0.0917351
0.091919
0.0922078
0.0925371
0.0929052
0.0933932
0.0940055
0.0948144
0.0957193
0.0965867
0.0972935
0.0978686
0.0982496
0.0986632
0.0989391
0.0991007
0.0993187
0.0995104
0.0997925
0.10611
0.147191
0.241823
0.346857
0.43483
0.479049
0.505061
0.516706
0.506445
0.512494
0.517949
0.514289
0.51619
0.522518
0.522262
0.520427
0.523761
0.524358
0.521088
0.522341
0.525628
0.524339
0.523908
0.524957
0.523041
0.520457
0.520243
0.521755
0.522765
0.523897
0.522899
0.521208
0.520758
0.520737
0.522272
0.523801
0.526056
0.528345
0.531762
0.533687
0.537025
0.545317
0.0879049
0.0879339
0.087963
0.0879942
0.0880327
0.0880821
0.0881461
0.0882205
0.0883033
0.088406
0.0885349
0.0886763
0.0888103
0.0889489
0.0891113
0.089299
0.089517
0.0897373
0.0899654
0.0902138
0.09045
0.0906501
0.0908347
0.0910554
0.0913026
0.0915082
0.0916623
0.0917907
0.0918987
0.0919888
0.0920628
0.0921311
0.0922035
0.0923329
0.0924262
0.0925007
0.0926182
0.0927506
0.0929117
0.0931606
0.093571
0.0941632
0.0947937
0.0954221
0.0960802
0.0967848
0.0975605
0.0983067
0.0987805
0.0991125
0.0994221
0.0996176
0.0998917
0.100256
0.100477
0.100939
0.101717
0.103572
0.105851
0.107579
0.108811
0.126975
0.187683
0.302283
0.409176
0.480801
0.513408
0.542223
0.553261
0.54218
0.548391
0.548427
0.543589
0.546555
0.55272
0.551076
0.547849
0.549627
0.551263
0.54909
0.549417
0.551373
0.549281
0.546297
0.547385
0.547749
0.546263
0.546001
0.544489
0.543251
0.544328
0.54432
0.542992
0.541934
0.54093
0.540625
0.539574
0.539671
0.54283
0.548955
0.0888753
0.0890119
0.0891531
0.0892906
0.0894332
0.0896048
0.089783
0.0899436
0.0901101
0.0903033
0.0905344
0.0907735
0.0909845
0.0911728
0.0913424
0.0915184
0.0917028
0.0918809
0.0920536
0.0922088
0.0923373
0.0924301
0.0925116
0.0926111
0.0927424
0.0928637
0.0929811
0.0930504
0.0930986
0.0931399
0.0931813
0.0932497
0.0933773
0.0936193
0.0938977
0.0941306
0.0943524
0.0946771
0.0951785
0.0957786
0.0964496
0.0971214
0.0977608
0.0983375
0.0988908
0.099455
0.100053
0.100412
0.100553
0.100683
0.100846
0.101036
0.101396
0.102089
0.10342
0.105219
0.107642
0.110669
0.112834
0.115112
0.117444
0.11819
0.118799
0.121426
0.155198
0.2447
0.372734
0.466769
0.527706
0.563075
0.595077
0.586117
0.583721
0.589995
0.588356
0.578049
0.580415
0.588648
0.587614
0.584562
0.584057
0.584911
0.582686
0.580928
0.5817
0.580506
0.57803
0.578766
0.578594
0.577307
0.576216
0.573794
0.570495
0.569192
0.568546
0.567525
0.565542
0.563186
0.560841
0.562769
0.0918862
0.0920367
0.0921736
0.092289
0.0923961
0.0925169
0.092655
0.0927814
0.0928803
0.0929835
0.0931042
0.0932188
0.0933148
0.0933544
0.0933808
0.0934229
0.09349
0.093584
0.0936308
0.093652
0.0936738
0.0936588
0.0936473
0.0936507
0.0936915
0.093797
0.0939297
0.0940758
0.0942459
0.094463
0.0947429
0.0951115
0.095562
0.096011
0.0964254
0.0968789
0.0973836
0.097991
0.0985975
0.099199
0.0996832
0.100113
0.100469
0.100806
0.101198
0.101646
0.102019
0.102147
0.102333
0.102621
0.103149
0.104175
0.105623
0.107825
0.11054
0.113238
0.116083
0.118042
0.119808
0.12146
0.12282
0.124331
0.126214
0.128782
0.131286
0.132866
0.147496
0.200078
0.309023
0.439416
0.529707
0.576699
0.617468
0.653546
0.642843
0.627349
0.633486
0.634354
0.62521
0.62422
0.630948
0.630638
0.628093
0.626703
0.625699
0.622526
0.620071
0.621027
0.620339
0.618511
0.618184
0.617197
0.615599
0.614
0.612159
0.608187
0.602465
0.596926
0.592384
0.589376
0.0944367
0.0944634
0.0944335
0.0943969
0.094395
0.0944049
0.0944446
0.0944876
0.0945207
0.0945687
0.094592
0.0946041
0.094618
0.0945829
0.0945307
0.0945261
0.0945496
0.0945691
0.0945421
0.0945308
0.094549
0.0945815
0.0945983
0.0946395
0.094753
0.0949977
0.095391
0.0958938
0.0964647
0.0971352
0.0978843
0.0985789
0.0991629
0.099637
0.100079
0.10053
0.101059
0.101579
0.102048
0.102343
0.102488
0.102648
0.102773
0.103025
0.103435
0.103919
0.104461
0.105196
0.106295
0.107822
0.109999
0.112446
0.115051
0.117764
0.119857
0.121901
0.123446
0.124713
0.126146
0.127444
0.129071
0.131492
0.134256
0.137603
0.140537
0.143682
0.145937
0.147181
0.148303
0.171117
0.240641
0.378383
0.502718
0.595321
0.640478
0.671042
0.708631
0.699314
0.68898
0.683507
0.683789
0.673513
0.676402
0.682295
0.68362
0.679166
0.676032
0.674079
0.671265
0.670728
0.671841
0.671189
0.668924
0.666073
0.663605
0.6613
0.657845
0.652874
0.646806
0.636581
0.0946508
0.094667
0.0946945
0.0947452
0.0947527
0.0947085
0.0947025
0.0947254
0.0948081
0.0949454
0.0950718
0.0951613
0.0952342
0.0953191
0.0954273
0.0955572
0.095686
0.0958327
0.0960281
0.0962951
0.0966245
0.0969877
0.097386
0.0978366
0.0983637
0.0989953
0.099688
0.10032
0.100858
0.101413
0.101916
0.102344
0.102721
0.103082
0.103473
0.103869
0.104345
0.104757
0.105055
0.105205
0.105449
0.105803
0.106393
0.107315
0.10846
0.109943
0.111725
0.113928
0.11627
0.118609
0.120923
0.122922
0.124867
0.126361
0.127632
0.128836
0.129926
0.131288
0.132917
0.1349
0.137714
0.140619
0.143876
0.146778
0.149421
0.152092
0.15354
0.155423
0.15873
0.161246
0.164245
0.166521
0.197406
0.28718
0.439269
0.57246
0.655436
0.700254
0.741887
0.761099
0.758521
0.741896
0.744645
0.741003
0.73378
0.731836
0.737947
0.738466
0.736825
0.736515
0.733516
0.728653
0.727113
0.726959
0.725619
0.722851
0.718811
0.712502
0.706138
0.698451
0.0970532
0.0972209
0.0974163
0.0976384
0.0978822
0.0981493
0.0984193
0.0986712
0.0989078
0.0991502
0.0994315
0.099717
0.0999884
0.100221
0.100448
0.100686
0.100924
0.101182
0.101481
0.101818
0.102168
0.102572
0.102949
0.103318
0.103649
0.103978
0.104344
0.104676
0.104946
0.105167
0.105366
0.105659
0.106041
0.106556
0.107169
0.107873
0.108602
0.109302
0.110142
0.111201
0.112626
0.114357
0.116336
0.11827
0.120285
0.122222
0.124086
0.12584
0.127292
0.128679
0.129865
0.131012
0.132137
0.133188
0.13438
0.135696
0.137493
0.139857
0.142529
0.145792
0.148777
0.151598
0.154057
0.156135
0.158397
0.160256
0.162548
0.165448
0.168643
0.171969
0.175271
0.178804
0.181089
0.183231
0.188281
0.232353
0.331606
0.495642
0.647812
0.723838
0.769157
0.798267
0.832992
0.818898
0.806996
0.799721
0.798189
0.791238
0.795531
0.804015
0.802998
0.799102
0.79585
0.791947
0.787528
0.785001
0.783263
0.779615
0.774936
0.767207
0.103256
0.103376
0.103502
0.103642
0.103794
0.103948
0.104101
0.104256
0.104425
0.10461
0.104801
0.104992
0.10519
0.105403
0.105632
0.105878
0.10616
0.106452
0.106763
0.107112
0.107488
0.107866
0.108262
0.10868
0.109114
0.109586
0.110052
0.110564
0.111139
0.111864
0.112715
0.113711
0.114772
0.115933
0.117182
0.118513
0.11983
0.121266
0.122755
0.124377
0.125968
0.127536
0.128929
0.130204
0.131375
0.132448
0.133429
0.134307
0.135169
0.136109
0.137076
0.138267
0.139682
0.141473
0.143648
0.146022
0.148765
0.151543
0.15456
0.157344
0.159706
0.161723
0.163196
0.164837
0.166594
0.169009
0.172113
0.175528
0.178979
0.182289
0.185491
0.18907
0.193046
0.196289
0.199026
0.200571
0.202453
0.212842
0.270055
0.399388
0.565479
0.720147
0.800779
0.82945
0.85817
0.885058
0.881107
0.860705
0.863655
0.860746
0.854219
0.85646
0.861843
0.860449
0.856065
0.851645
0.848247
0.843987
0.840705
0.835982
0.109933
0.110148
0.110376
0.110618
0.110885
0.11117
0.111474
0.111786
0.112116
0.112476
0.11287
0.113279
0.113716
0.114173
0.114673
0.115195
0.115765
0.116394
0.117043
0.1177
0.118396
0.119138
0.119917
0.120713
0.121532
0.122362
0.123249
0.124118
0.125011
0.125909
0.126821
0.127677
0.128533
0.129384
0.130235
0.131088
0.131987
0.132895
0.133807
0.134704
0.13557
0.136439
0.137275
0.138135
0.139001
0.139941
0.140856
0.142022
0.143459
0.145224
0.147207
0.149514
0.151966
0.154614
0.157019
0.159426
0.161541
0.163535
0.165483
0.167368
0.169325
0.171055
0.172794
0.174725
0.177388
0.180705
0.184427
0.18802
0.191586
0.194766
0.197873
0.200675
0.202962
0.205315
0.208328
0.212331
0.21716
0.222007
0.223675
0.224867
0.239695
0.316802
0.460155
0.647951
0.79124
0.863522
0.903413
0.914953
0.944659
0.929574
0.916553
0.913117
0.911284
0.907225
0.908863
0.911701
0.910204
0.905405
0.900332
0.895702
0.122965
0.123207
0.123484
0.123772
0.124079
0.124372
0.124643
0.124959
0.125322
0.125692
0.126061
0.126451
0.126863
0.127295
0.127732
0.128186
0.128648
0.12912
0.129605
0.1301
0.130595
0.131101
0.131607
0.132124
0.132658
0.133209
0.133768
0.134351
0.134946
0.13555
0.136165
0.136803
0.137488
0.138187
0.138971
0.139792
0.140671
0.141582
0.142592
0.143659
0.144849
0.146118
0.147537
0.14893
0.150499
0.152069
0.153851
0.155705
0.157853
0.159936
0.162075
0.164155
0.166216
0.168019
0.169589
0.171049
0.172303
0.173735
0.175209
0.177142
0.179487
0.182212
0.184935
0.188031
0.191269
0.194848
0.197921
0.20083
0.203489
0.20627
0.208865
0.211184
0.213681
0.217432
0.22174
0.226196
0.229165
0.231098
0.233531
0.237601
0.241599
0.243152
0.244494
0.275499
0.369258
0.546803
0.732788
0.867839
0.931667
0.944997
0.969062
0.982079
0.972056
0.956137
0.951404
0.951299
0.951255
0.95293
0.953155
0.950212
0.134616
0.134825
0.135055
0.135305
0.135601
0.135913
0.136202
0.136487
0.136812
0.137158
0.13751
0.13788
0.138261
0.138651
0.139068
0.139514
0.139981
0.140464
0.140965
0.141495
0.14205
0.142631
0.143241
0.143881
0.144545
0.145226
0.145924
0.14664
0.147373
0.148152
0.148958
0.149814
0.150722
0.151709
0.152764
0.153893
0.155087
0.156396
0.157762
0.159191
0.160588
0.16209
0.163499
0.164917
0.166287
0.167661
0.168927
0.170206
0.171555
0.172889
0.174268
0.175621
0.177142
0.178602
0.180157
0.18167
0.183483
0.185574
0.188248
0.191325
0.19476
0.197856
0.200944
0.203647
0.206572
0.209239
0.211665
0.213845
0.215972
0.218513
0.221397
0.224594
0.228311
0.231389
0.234253
0.236798
0.23883
0.241435
0.245176
0.248639
0.250705
0.25326
0.256433
0.257985
0.259404
0.261191
0.303681
0.438769
0.633366
0.81385
0.938198
0.971924
0.990472
0.995421
0.998036
0.991202
0.984613
0.981541
0.981513
0.983911
0.149078
0.149321
0.149582
0.149865
0.150172
0.150504
0.150857
0.151201
0.151544
0.151934
0.152367
0.152805
0.153243
0.153704
0.154195
0.154711
0.15524
0.155777
0.156326
0.156897
0.157485
0.158092
0.15871
0.159332
0.159976
0.16063
0.161292
0.161983
0.162693
0.163436
0.164222
0.165037
0.165874
0.166725
0.167605
0.168519
0.16948
0.170487
0.17157
0.172648
0.173739
0.174819
0.175929
0.177095
0.178288
0.179475
0.180647
0.181917
0.183336
0.185049
0.18682
0.188756
0.190908
0.193272
0.195709
0.198185
0.200798
0.203594
0.206491
0.209579
0.212199
0.214397
0.216038
0.217667
0.219527
0.221638
0.224087
0.226431
0.228927
0.231742
0.234766
0.237786
0.24048
0.24276
0.245045
0.247326
0.250151
0.253187
0.255565
0.257159
0.25932
0.261603
0.263644
0.265215
0.266542
0.267982
0.268855
0.269494
0.278804
0.363095
0.533636
0.736078
0.907861
0.982433
1.01451
1.01116
1.0167
1.01379
1.0078
1.00646
0.164672
0.164923
0.165177
0.165431
0.165706
0.16602
0.166358
0.166687
0.167008