/*--------------------------------*- C++ -*----------------------------------*\
  =========                 |
  \\      /  F ield         | OpenFOAM: The Open Source CFD Toolbox
   \\    /   O peration     | Website:  https://openfoam.org
    \\  /    A nd           | Version:  7
     \\/     M anipulation  |
\*---------------------------------------------------------------------------*/
FoamFile
{
    version     2.0;
    format      ascii;
    class       volScalarField;
    location    "5";
    object      rho;
}
// * * * * * * * * * * * * * * * * * * * * * * * * * * * * * * * * * * * * * //

dimensions      [1 -3 0 0 0 0 0];

internalField   nonuniform List<scalar> 
90000
(
0.412987
0.45516
0.492426
0.519271
0.551476
0.587303
0.618488
0.654735
0.69708
0.739436
0.783378
0.82912
0.873709
0.914293
0.953767
0.985234
1.01164
1.03004
1.04417
1.0519
1.0596
1.06178
1.06077
1.05795
1.05348
1.04959
1.0439
1.03886
1.03299
1.02972
1.02799
1.02834
1.02985
1.03356
1.04107
1.04948
1.05796
1.06277
1.06493
1.06451
1.06305
1.05982
1.05758
1.05601
1.05685
1.05925
1.06182
1.06441
1.06507
1.0644
1.06377
1.06382
1.06435
1.06523
1.06583
1.06639
1.06777
1.07071
1.07406
1.07877
1.08391
1.08957
1.09659
1.10636
1.11547
1.1197
1.12064
1.12253
1.12689
1.1314
1.13486
1.13603
1.13686
1.14023
1.15165
1.17113
1.19392
1.21191
1.22469
1.23247
1.23971
1.2484
1.25822
1.26872
1.27801
1.28482
1.28963
1.29616
1.30851
1.32845
1.35438
1.36898
1.37518
1.37591
1.37543
1.37454
1.37258
1.36765
1.36372
1.35489
0.3753
0.375322
0.37535
0.375392
0.375441
0.375544
0.376025
0.377616
0.381261
0.388014
0.398413
0.415029
0.437771
0.468914
0.507134
0.555423
0.609027
0.668042
0.727158
0.782475
0.83217
0.87338
0.910698
0.940336
0.963245
0.984271
0.998692
1.0145
1.02384
1.03477
1.03422
1.03383
1.03597
1.04336
1.04987
1.05342
1.05535
1.05498
1.05434
1.05282
1.04915
1.04516
1.04561
1.048
1.05334
1.05966
1.06553
1.0664
1.06447
1.06189
1.06162
1.06219
1.06332
1.06401
1.06463
1.06599
1.06846
1.07145
1.07484
1.07984
1.08522
1.09122
1.09935
1.1102
1.11886
1.12164
1.12245
1.12494
1.13026
1.13524
1.13794
1.13822
1.13961
1.14332
1.1549
1.17242
1.19078
1.21048
1.22725
1.2364
1.24364
1.25228
1.26196
1.27204
1.27987
1.28518
1.28937
1.29555
1.30769
1.32842
1.35478
1.36907
1.37419
1.37504
1.37484
1.37439
1.37248
1.36747
1.36361
1.35485
0.376395
0.37655
0.376729
0.376932
0.377157
0.377409
0.377664
0.377984
0.378147
0.378309
0.378488
0.378697
0.378941
0.379233
0.379576
0.379912
0.380947
0.384824
0.393198
0.408876
0.431425
0.463611
0.503824
0.554901
0.612761
0.677364
0.744002
0.810862
0.874051
0.932223
0.977547
1.01544
1.03908
1.05511
1.057
1.05835
1.05672
1.05569
1.05372
1.05095
1.04702
1.04792
1.0528
1.06123
1.06859
1.07136
1.06911
1.06631
1.06586
1.0663
1.06756
1.06896
1.06974
1.06982
1.07076
1.0732
1.07623
1.07816
1.07999
1.08266
1.08713
1.09473
1.10786
1.12071
1.12479
1.12545
1.12773
1.13343
1.14062
1.14363
1.14299
1.14309
1.14474
1.14968
1.16001
1.17204
1.18507
1.20722
1.22865
1.23988
1.24788
1.25672
1.26653
1.27549
1.28115
1.28486
1.28678
1.29267
1.30601
1.32857
1.35537
1.36948
1.37364
1.37463
1.37482
1.37458
1.3725
1.36732
1.36349
1.35499
0.378917
0.379146
0.379403
0.379665
0.379952
0.380238
0.380554
0.380861
0.381201
0.381563
0.381967
0.382392
0.382859
0.383337
0.383854
0.38438
0.384903
0.385562
0.385803
0.386062
0.386379
0.386789
0.387274
0.38779
0.388877
0.393245
0.404635
0.424883
0.460898
0.508624
0.576393
0.655682
0.740407
0.819432
0.883264
0.940488
0.978623
1.01281
1.03034
1.04393
1.05187
1.05961
1.07531
1.08706
1.08929
1.08364
1.07566
1.07362
1.07846
1.08386
1.084
1.08145
1.07955
1.0806
1.08336
1.08612
1.08745
1.088
1.08874
1.09161
1.09801
1.10919
1.1252
1.13384
1.13469
1.13587
1.13981
1.14784
1.15306
1.15333
1.15038
1.15126
1.15166
1.15646
1.16485
1.17167
1.17982
1.20427
1.22941
1.24248
1.25181
1.26145
1.27088
1.27797
1.28144
1.2825
1.28373
1.29027
1.30499
1.32901
1.35589
1.36929
1.3728
1.37424
1.37507
1.375
1.37266
1.36718
1.36332
1.35454
0.382268
0.382531
0.382815
0.383116
0.383433
0.383763
0.384114
0.384475
0.384862
0.385256
0.385678
0.386098
0.38655
0.38699
0.387469
0.38792
0.388433
0.388887
0.389405
0.389948
0.390552
0.391151
0.391781
0.392389
0.392976
0.393656
0.393904
0.394217
0.394558
0.395054
0.395441
0.39731
0.406821
0.428436
0.469825
0.52744
0.608117
0.699046
0.796049
0.883535
0.960395
1.01231
1.04984
1.06223
1.07777
1.08173
1.08641
1.09203
1.10205
1.10661
1.10215
1.09712
1.09689
1.09958
1.10112
1.09972
1.09813
1.09855
1.10051
1.1046
1.11208
1.12531
1.14116
1.14591
1.14519
1.14638
1.15244
1.16107
1.16344
1.16018
1.15544
1.15814
1.15863
1.16313
1.16894
1.17078
1.17668
1.20369
1.23014
1.2433
1.25337
1.26391
1.27306
1.27879
1.281
1.27917
1.28099
1.28864
1.30446
1.3298
1.3562
1.36886
1.37216
1.37424
1.37572
1.37564
1.37285
1.36696
1.36322
1.35413
0.386189
0.386475
0.386776
0.387096
0.387421
0.387764
0.38811
0.388473
0.388837
0.389218
0.389598
0.389997
0.390394
0.390806
0.391219
0.391641
0.392071
0.392503
0.392951
0.393382
0.393835
0.394261
0.394722
0.395139
0.395603
0.396012
0.396465
0.396957
0.397458
0.397973
0.39844
0.39898
0.399192
0.399455
0.399728
0.400128
0.400394
0.404136
0.421162
0.457698
0.521298
0.609088
0.712878
0.811532
0.906457
0.980599
1.04283
1.07801
1.09256
1.10201
1.10402
1.10958
1.11636
1.12269
1.12032
1.11517
1.10985
1.10704
1.10825
1.11342
1.12415
1.14181
1.15579
1.15476
1.15276
1.15533
1.16234
1.16732
1.16619
1.16459
1.16053
1.1625
1.16421
1.16791
1.17084
1.16953
1.1763
1.20537
1.23055
1.24283
1.25258
1.26343
1.27281
1.27805
1.27744
1.27611
1.27905
1.28781
1.30437
1.33073
1.35619
1.36791
1.37156
1.37467
1.37672
1.37629
1.37293
1.36649
1.36267
1.3534
0.39028
0.39053
0.390795
0.391069
0.39135
0.391637
0.391931
0.392232
0.392535
0.392847
0.393159
0.393484
0.393807
0.394141
0.39447
0.394809
0.395142
0.395489
0.395825
0.396172
0.396511
0.396862
0.397215
0.397575
0.397937
0.398297
0.398669
0.399028
0.399392
0.399732
0.400079
0.400393
0.400717
0.401061
0.401384
0.40171
0.402019
0.402153
0.402313
0.402462
0.402667
0.402784
0.40713
0.428887
0.471193
0.552371
0.658384
0.780349
0.887926
0.97939
1.04357
1.09821
1.10937
1.11898
1.12103
1.12112
1.11953
1.11825
1.1192
1.12483
1.13655
1.15297
1.158
1.15829
1.15664
1.16376
1.17015
1.17136
1.16834
1.16168
1.16399
1.16629
1.16787
1.16882
1.17015
1.16925
1.17984
1.20986
1.23099
1.23928
1.24825
1.25957
1.26871
1.27254
1.27231
1.27409
1.27816
1.2878
1.30484
1.33198
1.35572
1.3666
1.37086
1.37517
1.37744
1.37657
1.37249
1.36577
1.36218
1.35253
0.393833
0.394034
0.394248
0.394467
0.394695
0.394923
0.395159
0.395397
0.39564
0.395882
0.396129
0.396378
0.396634
0.396886
0.397143
0.397399
0.397657
0.397916
0.398176
0.398436
0.398698
0.398964
0.399229
0.399503
0.399776
0.400054
0.400324
0.400605
0.400877
0.401149
0.401409
0.40166
0.401903
0.402127
0.402339
0.40254
0.402721
0.402895
0.403069
0.403208
0.403344
0.40344
0.403501
0.403572
0.403684
0.403772
0.404259
0.418168
0.457405
0.535373
0.652944
0.791819
0.903649
1.00357
1.06376
1.0983
1.11921
1.11725
1.12319
1.13292
1.14688
1.16021
1.1581
1.15227
1.1606
1.1736
1.17518
1.16839
1.16193
1.1602
1.16443
1.16874
1.16924
1.16769
1.1688
1.17099
1.18812
1.21514
1.22649
1.23326
1.24196
1.25261
1.26143
1.26548
1.2684
1.27283
1.27846
1.28927
1.30597
1.33325
1.35532
1.36531
1.36978
1.37511
1.37744
1.37615
1.3717
1.36499
1.36155
1.35146
0.396937
0.397091
0.397252
0.397421
0.397593
0.397768
0.397944
0.398124
0.398304
0.398483
0.398665
0.398848
0.399033
0.399216
0.399398
0.399581
0.399767
0.399953
0.400145
0.400334
0.400528
0.400724
0.400926
0.401125
0.401331
0.401538
0.401744
0.401948
0.402149
0.402345
0.402523
0.402685
0.402837
0.402976
0.403108
0.403237
0.403351
0.403456
0.403535
0.403603
0.403656
0.403707
0.403763
0.403844
0.403942
0.404059
0.404206
0.404368
0.404529
0.404698
0.405152
0.419038
0.470538
0.559551
0.702226
0.846067
0.976587
1.04345
1.1018
1.12628
1.14169
1.15212
1.13906
1.14319
1.16562
1.17701
1.17187
1.15892
1.15622
1.15951
1.16456
1.16854
1.16702
1.1656
1.16996
1.17807
1.20056
1.21756
1.22122
1.22708
1.23709
1.24757
1.25582
1.26148
1.26698
1.27255
1.28001
1.29084
1.30695
1.33329
1.35523
1.36447
1.3683
1.37393
1.37606
1.37479
1.37038
1.36438
1.36088
1.35018
0.399359
0.399466
0.399578
0.399694
0.399814
0.399935
0.400056
0.400179
0.400302
0.400424
0.400547
0.400672
0.400794
0.400914
0.401034
0.401159
0.401288
0.401418
0.401553
0.401692
0.40183
0.401972
0.402119
0.402265
0.402412
0.402558
0.402705
0.402843
0.402973
0.403094
0.403201
0.403288
0.403367
0.403438
0.403513
0.403582
0.403643
0.403693
0.403731
0.403759
0.403786
0.403819
0.403863
0.403935
0.404036
0.40416
0.404323
0.40452
0.404705
0.404893
0.404975
0.40501
0.40506
0.405097
0.40916
0.439206
0.516647
0.660422
0.818221
0.942851
1.0435
1.09385
1.11863
1.14651
1.1782
1.17692
1.15952
1.14671
1.15304
1.15942
1.16372
1.16597
1.1639
1.16541
1.17486
1.19181
1.20927
1.21336
1.21563
1.22199
1.23411
1.24568
1.25372
1.26042
1.26682
1.27423
1.2819
1.29136
1.30717
1.33305
1.35522
1.36389
1.36685
1.37217
1.37373
1.37273
1.36899
1.36421
1.36021
1.34872
0.40109
0.40116
0.401232
0.401306
0.401384
0.401463
0.401543
0.401624
0.401707
0.401789
0.401873
0.401957
0.402038
0.402116
0.402195
0.402278
0.402367
0.40246
0.402553
0.402652
0.402752
0.402853
0.402956
0.403059
0.403159
0.403253
0.403343
0.403424
0.403493
0.403553
0.403599
0.403631
0.403658
0.403685
0.403718
0.403755
0.403786
0.403812
0.403829
0.403842
0.40386
0.403892
0.40394
0.404025
0.404152
0.404289
0.404471
0.404647
0.404813
0.404934
0.40498
0.404992
0.405011
0.405046
0.405102
0.405166
0.405225
0.406355
0.427008
0.505532
0.645731
0.830557
1.0061
1.12053
1.16228
1.16264
1.13922
1.14494
1.15634
1.15909
1.16177
1.16158
1.16114
1.16851
1.18489
1.20309
1.21048
1.20951
1.2115
1.2191
1.23283
1.24538
1.25354
1.26112
1.26977
1.27725
1.28275
1.29116
1.30581
1.33222
1.3552
1.36341
1.36612
1.37055
1.37139
1.37083
1.36795
1.36415
1.35961
1.34717
0.402155
0.402202
0.40225
0.402301
0.402354
0.402408
0.402463
0.402521
0.402579
0.402635
0.402694
0.402753
0.402808
0.40286
0.402913
0.402968
0.403029
0.403093
0.403156
0.403221
0.403288
0.403358
0.403429
0.403495
0.403556
0.403609
0.403655
0.403688
0.403715
0.403734
0.403738
0.403739
0.403742
0.403749
0.403764
0.403787
0.40381
0.403829
0.403843
0.403858
0.403887
0.403941
0.404018
0.404147
0.404297
0.404439
0.404596
0.404738
0.404851
0.404909
0.404938
0.404944
0.404957
0.404994
0.405053
0.405124
0.40523
0.405358
0.405461
0.405599
0.405651
0.433927
0.545111
0.74569
0.946775
1.07507
1.11696
1.15422
1.16883
1.16146
1.15545
1.15318
1.15876
1.1764
1.19663
1.20958
1.20936
1.20652
1.209
1.21846
1.23351
1.24663
1.25739
1.26749
1.27569
1.27971
1.28269
1.28769
1.30252
1.33123
1.35531
1.36323
1.36624
1.36968
1.36966
1.36959
1.36754
1.364
1.35902
1.3454
0.402876
0.402913
0.402951
0.402992
0.403033
0.403074
0.403118
0.403162
0.403206
0.403249
0.403292
0.403334
0.403373
0.403409
0.403446
0.403483
0.403523
0.403563
0.403601
0.40364
0.403681
0.403724
0.403766
0.403807
0.403838
0.403858
0.403874
0.403873
0.403867
0.403861
0.403838
0.40382
0.403817
0.403818
0.403827
0.403848
0.403875
0.403902
0.403932
0.403965
0.404021
0.40411
0.404228
0.404389
0.404522
0.40462
0.404727
0.404817
0.404882
0.40495
0.40495
0.404943
0.404949
0.404987
0.405051
0.405125
0.405267
0.405432
0.405543
0.405619
0.405692
0.405664
0.405576
0.417692
0.500411
0.706828
0.954362
1.1186
1.15157
1.15606
1.13754
1.14033
1.16221
1.18663
1.2025
1.20755
1.20251
1.2048
1.20809
1.21985
1.235
1.25033
1.26454
1.27491
1.27972
1.28021
1.27932
1.28241
1.29862
1.33048
1.35562
1.36339
1.36707
1.36972
1.36899
1.36917
1.36775
1.36385
1.35827
1.34335
0.403454
0.403483
0.403514
0.403545
0.403577
0.403607
0.403635
0.403664
0.403692
0.40372
0.403746
0.403767
0.403785
0.403803
0.403819
0.403835
0.403853
0.403871
0.403887
0.403902
0.403919
0.403935
0.40395
0.403967
0.403973
0.403972
0.403968
0.403952
0.403931
0.403901
0.403862
0.40385
0.403851
0.403859
0.403877
0.403904
0.40394
0.40399
0.404047
0.404118
0.404224
0.404345
0.404481
0.404617
0.404674
0.404714
0.404763
0.404801
0.404858
0.404876
0.404858
0.404858
0.404885
0.404955
0.405037
0.40517
0.405353
0.405477
0.40555
0.405623
0.405601
0.405527
0.405434
0.405406
0.405423
0.410596
0.504224
0.724356
0.960525
1.09097
1.11659
1.13698
1.17946
1.19816
1.20235
1.203
1.19775
1.20481
1.2118
1.22223
1.23577
1.25201
1.26887
1.27812
1.28072
1.2789
1.27331
1.27808
1.29622
1.33035
1.3562
1.36404
1.36859
1.37045
1.36954
1.36976
1.36816
1.36359
1.35705
1.34088
0.403863
0.403882
0.403902
0.403921
0.40394
0.403959
0.403974
0.403988
0.404
0.404012
0.404017
0.404018
0.404015
0.404011
0.40401
0.404011
0.404016
0.404021
0.404021
0.404021
0.404024
0.404027
0.404027
0.404027
0.404028
0.404021
0.404002
0.40397
0.403939
0.403903
0.403874
0.403871
0.403877
0.403897
0.403939
0.403992
0.404061
0.404153
0.404239
0.404353
0.404477
0.404568
0.404679
0.404753
0.40475
0.404753
0.404773
0.404805
0.404823
0.404821
0.404823
0.404836
0.404878
0.404976
0.405125
0.40534
0.40547
0.405507
0.405563
0.40557
0.405517
0.40541
0.405367
0.405381
0.405419
0.405607
0.405864
0.414301
0.515056
0.755006
0.990175
1.11316
1.16971
1.18601
1.20229
1.19923
1.19804
1.2146
1.21707
1.22068
1.23225
1.25044
1.26876
1.27811
1.27772
1.27211
1.26826
1.27492
1.29547
1.33044
1.35667
1.36524
1.37085
1.3719
1.37086
1.37083
1.36856
1.36286
1.35503
1.33801
0.404139
0.404146
0.404152
0.404158
0.404163
0.404164
0.404165
0.404158
0.404153
0.404148
0.404136
0.404123
0.404107
0.404082
0.404068
0.404066
0.404064
0.404061
0.404057
0.40405
0.404047
0.404045
0.404045
0.404044
0.404037
0.404024
0.404001
0.403969
0.403926
0.403919
0.403924
0.403949
0.403994
0.404063
0.404159
0.404246
0.404346
0.404441
0.404516
0.40461
0.404679
0.404728
0.404766
0.404778
0.404776
0.404764
0.404744
0.404746
0.404757
0.40477
0.404794
0.404831
0.404927
0.405086
0.405309
0.405506
0.405533
0.405528
0.4055
0.405479
0.405396
0.405322
0.405334
0.405374
0.405502
0.405879
0.406231
0.406703
0.407143
0.420537
0.540512
0.766686
0.969921
1.08548
1.16425
1.18647
1.20651
1.23072
1.22151
1.2176
1.22501
1.24442
1.25953
1.26611
1.26497
1.26244
1.26662
1.27549
1.29682
1.33054
1.35668
1.36753
1.37345
1.37369
1.37273
1.37192
1.3686
1.36102
1.35199
1.33487
0.404277
0.404274
0.404269
0.404264
0.404253
0.404243
0.40423
0.404214
0.404202
0.404188
0.404164
0.404141
0.40412
0.404092
0.404072
0.404065
0.404057
0.40405
0.404047
0.404045
0.404044
0.404045
0.404046
0.404043
0.404036
0.404028
0.404007
0.403994
0.404001
0.404023
0.404068
0.40415
0.404238
0.404342
0.40445
0.404528
0.404602
0.404658
0.404698
0.404737
0.40476
0.404781
0.404773
0.404746
0.404722
0.404695
0.404701
0.404721
0.404737
0.404759
0.404794
0.404895
0.405056
0.405258
0.405487
0.405546
0.405535
0.405458
0.405364
0.405316
0.405264
0.405275
0.405306
0.405443
0.405739
0.406115
0.406403
0.406651
0.40725
0.408498
0.412155
0.432588
0.514962
0.678715
0.869721
1.05066
1.17058
1.21304
1.20815
1.21679
1.21277
1.22986
1.24093
1.24692
1.25114
1.25639
1.26611
1.27728
1.29885
1.32959
1.35531
1.36937
1.37522
1.37511
1.37348
1.37201
1.36678
1.35752
1.34805
1.33175
0.404321
0.404308
0.404298
0.404285
0.404264
0.404247
0.40423
0.404207
0.404185
0.404157
0.404118
0.404098
0.404087
0.404071
0.40405
0.40404
0.404041
0.404044
0.404047
0.404048
0.40405
0.404048
0.404048
0.404056
0.404066
0.404079
0.404101
0.404132
0.404184
0.404257
0.404345
0.404444
0.404525
0.4046
0.404659
0.404702
0.404731
0.404747
0.404753
0.404766
0.404767
0.404726
0.404652
0.404633
0.404633
0.404646
0.40469
0.404722
0.404733
0.404763
0.404858
0.405019
0.405187
0.405389
0.405528
0.405503
0.405387
0.405251
0.405169
0.405147
0.405165
0.405219
0.405362
0.405695
0.406062
0.406324
0.406445
0.406598
0.406961
0.408023
0.411892
0.422665
0.441634
0.452428
0.47832
0.576999
0.765186
0.978561
1.09702
1.18164
1.19779
1.22966
1.2325
1.23897
1.24416
1.25501
1.26746
1.2772
1.29801
1.32499
1.35067
1.36866
1.3741
1.37364
1.37225
1.36964
1.36269
1.35286
1.34385
1.32899
0.404222
0.404209
0.404198
0.404175
0.404158
0.404151
0.404135
0.404107
0.4041
0.404095
0.40408
0.404071
0.404073
0.404071
0.404066
0.40406
0.404061
0.404068
0.404077
0.404093
0.404125
0.404153
0.40418
0.404216
0.404254
0.404304
0.40436
0.404407
0.404462
0.404531
0.404584
0.404629
0.404676
0.4047
0.404714
0.404733
0.404744
0.404747
0.404746
0.404732
0.404694
0.404587
0.404538
0.40455
0.40458
0.404627
0.404711
0.404754
0.404785
0.40486
0.405
0.405122
0.405239
0.405413
0.405464
0.405387
0.405218
0.40507
0.405017
0.405036
0.405109
0.405274
0.405628
0.406141
0.406327
0.406427
0.406416
0.406396
0.4066
0.407636
0.411517
0.422512
0.439973
0.455198
0.459093
0.459657
0.464534
0.52391
0.716161
0.952756
1.13057
1.2281
1.22542
1.24477
1.24923
1.25728
1.26696
1.27437
1.2923
1.31773
1.34639
1.36608
1.36973
1.36948
1.36878
1.36495
1.35683
1.34776
1.34012
1.32665
0.40416
0.404145
0.404128
0.404115
0.404111
0.404112
0.404108
0.404088
0.404081
0.404082
0.404088
0.404093
0.404097
0.404104
0.404118
0.404141
0.404191
0.404253
0.404298
0.404361
0.404434
0.40447
0.404514
0.404566
0.4046
0.404643
0.404678
0.404673
0.404668
0.404678
0.404683
0.404681
0.40469
0.404696
0.404698
0.404697
0.404701
0.404709
0.404694
0.404662
0.404597
0.40451
0.404487
0.404501
0.404547
0.40463
0.404758
0.404888
0.405
0.405111
0.405174
0.405181
0.405235
0.405335
0.405334
0.405268
0.405156
0.405023
0.404972
0.404997
0.405203
0.405533
0.406073
0.406474
0.406494
0.406465
0.40622
0.406087
0.406301
0.407374
0.411308
0.422347
0.439716
0.453693
0.458298
0.45947
0.460042
0.46098
0.461914
0.506891
0.698203
0.956653
1.15155
1.24975
1.25338
1.26344
1.26383
1.26424
1.28229
1.31121
1.34634
1.36466
1.36502
1.36542
1.36446
1.35925
1.35115
1.3435
1.33732
1.32498
0.404143
0.404139
0.40414
0.404144
0.404149
0.404155
0.404162
0.404174
0.404195
0.40422
0.404256
0.404297
0.404341
0.404393
0.40444
0.404487
0.404552
0.404602
0.404647
0.404707
0.40474
0.404761
0.404783
0.404803
0.404821
0.40482
0.404806
0.404785
0.404755
0.404712
0.404659
0.404615
0.404588
0.404562
0.404553
0.40456
0.404579
0.40461
0.404621
0.404601
0.40455
0.404489
0.404489
0.404517
0.404602
0.404766
0.40497
0.405165
0.405335
0.405352
0.405311
0.405212
0.405178
0.405177
0.405128
0.40515
0.405157
0.40506
0.404992
0.405117
0.405481
0.405927
0.406408
0.406564
0.406539
0.406319
0.405857
0.405816
0.406106
0.407293
0.411238
0.422482
0.439197
0.452297
0.457702
0.45929
0.460235
0.461029
0.461522
0.462464
0.463225
0.512204
0.734894
1.03886
1.1843
1.25094
1.24085
1.25353
1.27804
1.3089
1.3495
1.36531
1.36224
1.36266
1.36061
1.35421
1.34663
1.34059
1.33545
1.32389
0.404349
0.404382
0.404412
0.404443
0.404467
0.404491
0.40452
0.404551
0.404584
0.404623
0.404653
0.404682
0.404723
0.404761
0.404788
0.404817
0.404843
0.404858
0.404871
0.404883
0.404889
0.404894
0.404893
0.404883
0.404873
0.40486
0.404822
0.404755
0.404658
0.40453
0.404445
0.404403
0.404381
0.404375
0.40439
0.404437
0.404508
0.404563
0.404596
0.404583
0.404574
0.4046
0.404656
0.404748
0.404909
0.405095
0.405277
0.405437
0.405472
0.405442
0.405344
0.405137
0.405019
0.405012
0.405001
0.405045
0.405138
0.40515
0.405229
0.40559
0.405976
0.406305
0.406536
0.406469
0.406253
0.405845
0.405562
0.405617
0.406025
0.407308
0.411337
0.422311
0.438163
0.451265
0.457327
0.459221
0.460331
0.460813
0.461342
0.462129
0.463268
0.464295
0.467601
0.566216
0.849993
1.12934
1.19813
1.25627
1.27894
1.31174
1.3572
1.3658
1.36121
1.36183
1.3584
1.35075
1.34352
1.33937
1.33403
1.32344
0.404853
0.404867
0.404887
0.40492
0.404943
0.404944
0.404937
0.404935
0.404946
0.404949
0.40494
0.404927
0.404924
0.404925
0.404931
0.404929
0.404927
0.40492
0.404911
0.4049
0.404879
0.404876
0.404872
0.404821
0.404778
0.404749
0.404682
0.404593
0.404515
0.404429
0.404364
0.404325
0.404305
0.40431
0.404335
0.404394
0.404505
0.40458
0.404623
0.404693
0.404814
0.40495
0.405052
0.405142
0.405217
0.405289
0.405419
0.405486
0.405414
0.405245
0.405054
0.404908
0.404854
0.404878
0.404947
0.405036
0.405258
0.405509
0.405986
0.406431
0.406524
0.406565
0.406457
0.406153
0.405812
0.405492
0.405462
0.405555
0.40606
0.407624
0.411875
0.422224
0.437362
0.450676
0.457165
0.459389
0.459983
0.460448
0.461098
0.462061
0.463245
0.464457
0.466175
0.467502
0.495364
0.68586
1.01417
1.22701
1.27011
1.31569
1.36433
1.36051
1.35964
1.36071
1.35655
1.34892
1.3424
1.33851
1.3332
1.32327
0.405213
0.405205
0.405199
0.405187
0.405162
0.405141
0.405129
0.405116
0.405096
0.405069
0.405035
0.404996
0.404969
0.404954
0.404933
0.404908
0.404877
0.404836
0.404813
0.404785
0.40474
0.404728
0.404718
0.40467
0.404619
0.404624
0.404613
0.404521
0.404461
0.404438
0.404392
0.404339
0.404324
0.404334
0.404364
0.404453
0.404587
0.404789
0.405022
0.405175
0.405308
0.405442
0.405484
0.405468
0.405388
0.405341
0.40535
0.40531
0.405152
0.405041
0.404884
0.404794
0.404816
0.404851
0.404993
0.405441
0.405911
0.40636
0.406877
0.406953
0.406866
0.406584
0.406131
0.405833
0.405569
0.405423
0.405452
0.405602
0.406378
0.408367
0.41257
0.421988
0.436758
0.450393
0.457604
0.459386
0.45968
0.460103
0.460952
0.462218
0.463824
0.46552
0.467308
0.46905
0.470946
0.472252
0.57945
0.896346
1.15931
1.31253
1.36523
1.34755
1.35756
1.35904
1.35398
1.3475
1.34212
1.33795
1.33286
1.32376
0.405341
0.405313
0.405284
0.405253
0.405218
0.405181
0.405153
0.405126
0.405087
0.40504
0.404973
0.404903
0.404852
0.404808
0.404773
0.404748
0.40473
0.404705
0.404674
0.40467
0.404673
0.404672
0.404669
0.404644
0.404601
0.404601
0.404594
0.404545
0.404544
0.404556
0.404546
0.404563
0.404613
0.404677
0.404798
0.405027
0.40526
0.405499
0.405742
0.405785
0.405745
0.405722
0.405711
0.405653
0.405468
0.405253
0.405197
0.405077
0.40492
0.404906
0.404862
0.404858
0.404901
0.405062
0.405598
0.406318
0.406849
0.407303
0.40731
0.407108
0.406736
0.406168
0.405759
0.405698
0.405589
0.405476
0.405634
0.406216
0.407461
0.409375
0.413001
0.421493
0.436393
0.450563
0.458077
0.459441
0.45954
0.459937
0.460996
0.463039
0.465069
0.466685
0.468355
0.470033
0.47157
0.473461
0.474965
0.508346
0.775931
1.17198
1.32246
1.32886
1.35694
1.35663
1.35022
1.34654
1.34224
1.33755
1.33268
1.32417
0.404979
0.404939
0.4049
0.40488
0.404867
0.404841
0.404814
0.404824
0.404844
0.404839
0.404831
0.404809
0.404781
0.404734
0.404686
0.404681
0.404686
0.404666
0.404623
0.404618
0.404638
0.404661
0.404692
0.404751
0.404844
0.404948
0.405038
0.405113
0.405182
0.405246
0.405321
0.405432
0.405527
0.405608
0.405708
0.405813
0.405893
0.405955
0.405971
0.40595
0.405878
0.405759
0.405635
0.405493
0.405288
0.405217
0.405154
0.40499
0.404905
0.404908
0.404985
0.405275
0.405713
0.406399
0.407017
0.40733
0.407591
0.407664
0.407475
0.406998
0.406442
0.405893
0.405677
0.40574
0.405797
0.406036
0.406812
0.407761
0.408793
0.410081
0.412963
0.420891
0.436485
0.45086
0.458309
0.459425
0.459454
0.459989
0.461909
0.464354
0.466221
0.467671
0.469198
0.470531
0.471962
0.473523
0.474758
0.476488
0.486161
0.692144
1.12093
1.29798
1.36228
1.35056
1.34499
1.34646
1.34252
1.33726
1.33248
1.32445
0.404944
0.404913
0.404868
0.404844
0.40484
0.404832
0.404814
0.404804
0.404814
0.404835
0.404839
0.404843
0.404859
0.404895
0.404926
0.404975
0.405094
0.405143
0.405149
0.405243
0.405387
0.405479
0.405614
0.405825
0.406024
0.406142
0.406219
0.406253
0.406262
0.406293
0.406321
0.40633
0.406344
0.406346
0.406299
0.406201
0.406064
0.405932
0.405902
0.405883
0.405798
0.405701
0.405608
0.405504
0.405437
0.405395
0.405299
0.405257
0.405377
0.405731
0.406251
0.406832
0.407394
0.408023
0.40809
0.40797
0.40768
0.40741
0.407252
0.406948
0.406396
0.405899
0.405903
0.406152
0.406705
0.407701
0.408704
0.409244
0.409573
0.41017
0.412536
0.42052
0.436804
0.451527
0.457676
0.459396
0.460549
0.461839
0.463667
0.465532
0.467034
0.468353
0.469351
0.470396
0.471589
0.473067
0.474241
0.475619
0.477986
0.480638
0.684198
1.13755
1.34079
1.32907
1.34447
1.34856
1.34304
1.33737
1.33289
1.32522
0.405362
0.405397
0.405446
0.405489
0.405523
0.405556
0.405594
0.405647
0.405721
0.405793
0.405882
0.406014
0.40613
0.406259
0.406399
0.406482
0.406585
0.40674
0.406804
0.406779
0.40678
0.406886
0.407012
0.407104
0.407144
0.407133
0.407102
0.407027
0.40687
0.406811
0.406781
0.406683
0.406603
0.406559
0.406342
0.406089
0.406043
0.405963
0.405855
0.405819
0.405791
0.405724
0.405722
0.405775
0.405867
0.405983
0.406102
0.406387
0.406884
0.407465
0.407997
0.408499
0.408832
0.408767
0.408502
0.407979
0.407234
0.406871
0.406872
0.40689
0.406565
0.406611
0.407026
0.407881
0.408914
0.40985
0.410331
0.41015
0.4098
0.410143
0.412436
0.420635
0.437765
0.452951
0.4587
0.461001
0.462838
0.46457
0.465914
0.466571
0.467361
0.468484
0.469616
0.470934
0.47221
0.473487
0.474733
0.476016
0.477889
0.480495
0.483605
0.689355
1.15885
1.30075
1.35714
1.35324
1.34407
1.34009
1.33566
1.32733
0.407225
0.407295
0.407356
0.407427
0.407474
0.407501
0.407525
0.407547
0.407573
0.407601
0.40764
0.407694
0.407753
0.407823
0.407906
0.407941
0.407953
0.407941
0.40789
0.407802
0.407681
0.407634
0.407614
0.407568
0.407484
0.40735
0.407244
0.407118
0.406861
0.406733
0.40665
0.406428
0.406342
0.406302
0.406143
0.406023
0.405957
0.405953
0.405994
0.406065
0.406149
0.406318
0.406612
0.406984
0.407408
0.407933
0.408441
0.408913
0.409073
0.409207
0.409482
0.409493
0.409424
0.409053
0.40842
0.407654
0.407046
0.406957
0.407096
0.407502
0.408313
0.409299
0.410374
0.411054
0.411662
0.41169
0.4114
0.41067
0.410617
0.411258
0.413948
0.422981
0.440098
0.456065
0.463613
0.465547
0.466259
0.467274
0.468047
0.468646
0.469261
0.470298
0.471653
0.4735
0.475163
0.476456
0.477908
0.478855
0.480233
0.482676
0.485323
0.490624
0.726149
1.17564
1.36859
1.35771
1.34614
1.34518
1.33989
1.33057
0.408855
0.408881
0.4089
0.408935
0.408939
0.408833
0.408751
0.408755
0.408689
0.408535
0.408508
0.408497
0.408456
0.408401
0.408388
0.40839
0.408354
0.408261
0.408132
0.407994
0.407845
0.407692
0.407539
0.407397
0.407277
0.407128
0.407013
0.406911
0.406738
0.406693
0.406704
0.406664
0.406644
0.406619
0.406705
0.40693
0.407186
0.407526
0.408055
0.408475
0.408828
0.409267
0.409795
0.410331
0.410685
0.411009
0.411292
0.411251
0.410985
0.410709
0.410538
0.410125
0.409816
0.409736
0.409292
0.408857
0.408973
0.409524
0.410499
0.411563
0.412865
0.413718
0.414251
0.414144
0.413873
0.41347
0.412802
0.412894
0.413574
0.415438
0.419322
0.428032
0.443136
0.45881
0.468066
0.469293
0.469505
0.469992
0.471425
0.4737
0.475522
0.477188
0.479092
0.481246
0.483435
0.485364
0.487718
0.489795
0.491727
0.493677
0.496448
0.497931
0.50319
0.777137
1.24121
1.31897
1.35264
1.34983
1.34294
1.33372
0.410009
0.409945
0.409956
0.409963
0.409846
0.409741
0.409754
0.409763
0.409678
0.409495
0.409317
0.409214
0.409151
0.409094
0.409092
0.409123
0.409124
0.409056
0.409011
0.409022
0.409004
0.408948
0.40898
0.409003
0.409045
0.409197
0.409412
0.409617
0.409833
0.410119
0.410406
0.410629
0.410826
0.411114
0.411639
0.412245
0.412735
0.413296
0.41384
0.413946
0.413867
0.413769
0.413875
0.414022
0.413977
0.413618
0.413444
0.41337
0.413196
0.412964
0.412644
0.412494
0.412611
0.412899
0.413278
0.413713
0.414353
0.415262
0.416118
0.416735
0.417239
0.417118
0.416807
0.416648
0.416368
0.416249
0.416706
0.417601
0.419049
0.421258
0.424901
0.432342
0.445867
0.46087
0.472085
0.474559
0.474865
0.475448
0.47698
0.479692
0.48288
0.485884
0.488757
0.49126
0.493738
0.496013
0.498286
0.501007
0.503608
0.506163
0.507971
0.510545
0.511399
0.522217
0.815777
1.20417
1.36563
1.35187
1.34704
1.33861
0.411918
0.411884
0.411823
0.411836
0.411944
0.411975
0.411991
0.412053
0.412133
0.41222
0.412286
0.412304
0.412319
0.412361
0.412461
0.412612
0.412771
0.412982
0.413336
0.413531
0.413627
0.413915
0.414192
0.414331
0.414699
0.415168
0.415425
0.415701
0.416051
0.416463
0.416927
0.41727
0.417493
0.417691
0.417893
0.418056
0.418204
0.418325
0.418281
0.418075
0.417837
0.417568
0.417235
0.416966
0.416637
0.416173
0.415959
0.416025
0.416142
0.416174
0.416355
0.416827
0.417313
0.417846
0.41857
0.419366
0.420292
0.420916
0.421471
0.421617
0.421584
0.421505
0.421157
0.42122
0.421705
0.422922
0.424416
0.42569
0.426863
0.428256
0.430957
0.437939
0.451708
0.467049
0.477569
0.482459
0.484587
0.486194
0.488299
0.490605
0.493209
0.495519
0.497956
0.500102
0.502492
0.50493
0.507077
0.509805
0.512252
0.514607
0.516392
0.517896
0.520134
0.521323
0.536483
0.854365
1.27623
1.34158
1.35608
1.34784
0.419446
0.419577
0.419672
0.419761
0.41987
0.420014
0.420189
0.420426
0.42068
0.420813
0.420901
0.420989
0.421082
0.4212
0.42134
0.421477
0.421612
0.421752
0.421871
0.422039
0.422264
0.422317
0.422302
0.422341
0.422433
0.422468
0.422577
0.422695
0.422755
0.422862
0.422878
0.42285
0.422824
0.422803
0.4227
0.422322
0.422099
0.422137
0.422041
0.421654
0.421372
0.421193
0.421173
0.421059
0.420915
0.421012
0.421414
0.421869
0.422289
0.422893
0.423914
0.425042
0.42601
0.427071
0.428078
0.428774
0.429176
0.429473
0.429546
0.429343
0.429356
0.42973
0.43051
0.431343
0.432253
0.433395
0.434615
0.435666
0.436655
0.437955
0.440822
0.448544
0.464556
0.481925
0.492393
0.496941
0.499383
0.501342
0.503311
0.504832
0.506224
0.507297
0.508437
0.510027
0.511741
0.514005
0.516268
0.518381
0.520672
0.522625
0.525512
0.527158
0.528421
0.530384
0.532337
0.559512
0.907204
1.24383
1.36393
1.35698
0.428916
0.428919
0.428907
0.428833
0.428789
0.428802
0.428769
0.428734
0.428705
0.428681
0.428696
0.428649
0.428651
0.428634
0.428563
0.428526
0.428396
0.428351
0.428242
0.428122
0.428015
0.42778
0.427724
0.427753
0.427647
0.427452
0.427466
0.427463
0.427312
0.427216
0.427057
0.427135
0.427242
0.427324
0.427396
0.427459
0.427644
0.427989
0.42838
0.428856
0.429471
0.430276
0.431306
0.432513
0.433728
0.434893
0.436122
0.437316
0.438305
0.439181
0.439938
0.440326
0.440455
0.44052
0.440684
0.440622
0.440495
0.440848
0.441304
0.441506
0.441956
0.442839
0.444287
0.445894
0.447231
0.448358
0.449204
0.449978
0.451045
0.452803
0.456069
0.463518
0.478388
0.495421
0.506695
0.510921
0.512375
0.513353
0.51451
0.51632
0.51827
0.520441
0.522332
0.524356
0.526236
0.527608
0.529348
0.530645
0.53237
0.534463
0.536786
0.539281
0.542114
0.543777
0.545405
0.54638
0.583683
0.949027
1.30927
1.35571
0.442564
0.442646
0.442742
0.442846
0.442948