/*--------------------------------*- C++ -*----------------------------------*\
  =========                 |
  \\      /  F ield         | OpenFOAM: The Open Source CFD Toolbox
   \\    /   O peration     | Website:  https://openfoam.org
    \\  /    A nd           | Version:  7
     \\/     M anipulation  |
\*---------------------------------------------------------------------------*/
FoamFile
{
    version     2.0;
    format      ascii;
    class       volVectorField;
    location    "4";
    object      U;
}
// * * * * * * * * * * * * * * * * * * * * * * * * * * * * * * * * * * * * * //

dimensions      [0 1 -1 0 0 0 0];

internalField   nonuniform List<vector> 
90000
(
(2.15579 -0.384344 0)
(2.13825 -0.347365 0)
(2.12525 -0.318755 0)
(2.11021 -0.279894 0)
(2.1019 -0.256845 0)
(2.09007 -0.222019 0)
(2.08479 -0.204238 0)
(2.07536 -0.174552 0)
(2.07186 -0.16149 0)
(2.06447 -0.137444 0)
(2.06193 -0.128622 0)
(2.05642 -0.110646 0)
(2.05443 -0.105414 0)
(2.05067 -0.0931727 0)
(2.04932 -0.090975 0)
(2.04688 -0.0826453 0)
(2.04633 -0.082534 0)
(2.04443 -0.0770421 0)
(2.04398 -0.0761139 0)
(2.04215 -0.072623 0)
(2.04122 -0.0699078 0)
(2.03972 -0.06664 0)
(2.03826 -0.0623752 0)
(2.03677 -0.0582889 0)
(2.03443 -0.0538674 0)
(2.03258 -0.046452 0)
(2.03109 -0.0406146 0)
(2.0315 -0.0336931 0)
(2.03224 -0.0303728 0)
(2.03209 -0.0304007 0)
(2.03127 -0.0306161 0)
(2.03021 -0.0313289 0)
(2.02864 -0.0328027 0)
(2.02754 -0.0341148 0)
(2.02731 -0.0355203 0)
(2.02717 -0.0364263 0)
(2.02764 -0.0359732 0)
(2.02866 -0.0362014 0)
(2.02981 -0.0362218 0)
(2.0313 -0.0356345 0)
(2.0319 -0.0346947 0)
(2.03259 -0.0344029 0)
(2.03256 -0.0345116 0)
(2.03205 -0.0346743 0)
(2.03115 -0.0357476 0)
(2.0302 -0.037356 0)
(2.03024 -0.0384644 0)
(2.03051 -0.0385015 0)
(2.03093 -0.0379568 0)
(2.03154 -0.03686 0)
(2.0318 -0.0358572 0)
(2.03175 -0.0357756 0)
(2.03131 -0.0362191 0)
(2.0309 -0.0370638 0)
(2.0309 -0.0383264 0)
(2.03087 -0.0382622 0)
(2.03099 -0.0379203 0)
(2.0314 -0.0370566 0)
(2.03139 -0.0370268 0)
(2.03128 -0.0374401 0)
(2.03121 -0.0383657 0)
(2.03119 -0.0385253 0)
(2.03132 -0.0383048 0)
(2.03178 -0.0377348 0)
(2.03187 -0.0379711 0)
(2.03208 -0.0383828 0)
(2.03204 -0.0389937 0)
(2.03213 -0.0389886 0)
(2.03241 -0.0388209 0)
(2.03275 -0.0391047 0)
(2.03287 -0.0393788 0)
(2.03296 -0.0398142 0)
(2.03299 -0.0399018 0)
(2.03313 -0.0400301 0)
(2.03321 -0.0402231 0)
(2.03319 -0.0404911 0)
(2.03312 -0.0405647 0)
(2.03308 -0.0406793 0)
(2.03276 -0.0406107 0)
(2.03248 -0.0408332 0)
(2.03185 -0.0411628 0)
(2.02973 -0.0414296 0)
(2.02436 -0.0414347 0)
(2.01402 -0.0422442 0)
(1.99824 -0.0414318 0)
(1.98043 -0.0381292 0)
(1.96597 -0.0373004 0)
(1.95601 -0.0377622 0)
(1.94834 -0.0369168 0)
(1.9417 -0.0355455 0)
(1.93615 -0.0347732 0)
(1.93135 -0.0350456 0)
(1.92692 -0.0353697 0)
(1.92176 -0.0348517 0)
(1.91698 -0.0335476 0)
(1.91347 -0.0311782 0)
(1.91082 -0.029189 0)
(1.90771 -0.0292871 0)
(1.90492 -0.0319921 0)
(1.89528 -0.0404441 0)
(2.16984 -0.41044 0)
(2.16949 -0.410095 0)
(2.16861 -0.409097 0)
(2.16684 -0.40689 0)
(2.16409 -0.403187 0)
(2.15982 -0.396853 0)
(2.15452 -0.388609 0)
(2.14718 -0.375778 0)
(2.13948 -0.361953 0)
(2.12906 -0.341086 0)
(2.11988 -0.322219 0)
(2.10704 -0.293614 0)
(2.09785 -0.271629 0)
(2.0837 -0.237608 0)
(2.07586 -0.215151 0)
(2.06164 -0.179268 0)
(2.05634 -0.158833 0)
(2.04319 -0.125002 0)
(2.04115 -0.10784 0)
(2.03061 -0.0791604 0)
(2.03003 -0.0648496 0)
(2.02247 -0.0433454 0)
(2.0212 -0.0317844 0)
(2.01664 -0.0173667 0)
(2.01429 -0.011572 0)
(2.0145 -0.00751026 0)
(2.01349 -0.00945822 0)
(2.01315 -0.0120509 0)
(2.01187 -0.0199096 0)
(2.01317 -0.0256175 0)
(2.01507 -0.0325609 0)
(2.01707 -0.03683 0)
(2.01839 -0.038613 0)
(2.02062 -0.0394947 0)
(2.02193 -0.0388792 0)
(2.0228 -0.0388399 0)
(2.02332 -0.0383689 0)
(2.02424 -0.0367096 0)
(2.02452 -0.0344029 0)
(2.02482 -0.0324131 0)
(2.0249 -0.0321902 0)
(2.02451 -0.0329951 0)
(2.02366 -0.0350494 0)
(2.02333 -0.0374725 0)
(2.02206 -0.0398627 0)
(2.02226 -0.0402926 0)
(2.02265 -0.0398401 0)
(2.02359 -0.0377513 0)
(2.02349 -0.0366314 0)
(2.02497 -0.0348923 0)
(2.02505 -0.0349758 0)
(2.02469 -0.0362494 0)
(2.02421 -0.0379596 0)
(2.0237 -0.0387444 0)
(2.024 -0.0384459 0)
(2.02437 -0.0378065 0)
(2.02529 -0.0363951 0)
(2.02591 -0.03654 0)
(2.02586 -0.0373248 0)
(2.02565 -0.0383074 0)
(2.02562 -0.0386616 0)
(2.02582 -0.0384088 0)
(2.02659 -0.0374271 0)
(2.02723 -0.0374472 0)
(2.02717 -0.038145 0)
(2.02715 -0.0388887 0)
(2.02727 -0.0389775 0)
(2.02759 -0.0386722 0)
(2.02816 -0.0386835 0)
(2.02837 -0.039016 0)
(2.02849 -0.0395713 0)
(2.02854 -0.0397505 0)
(2.0287 -0.0398171 0)
(2.02891 -0.0399506 0)
(2.02898 -0.0402314 0)
(2.02898 -0.0404373 0)
(2.02903 -0.0404838 0)
(2.02908 -0.0405376 0)
(2.0289 -0.0405805 0)
(2.0287 -0.0407659 0)
(2.02807 -0.0411076 0)
(2.02599 -0.0413597 0)
(2.0207 -0.0413243 0)
(2.01046 -0.0419681 0)
(1.99477 -0.0409282 0)
(1.97709 -0.0375904 0)
(1.96271 -0.0368813 0)
(1.95277 -0.0373983 0)
(1.94504 -0.0365001 0)
(1.9384 -0.0351173 0)
(1.93287 -0.034343 0)
(1.92813 -0.0346194 0)
(1.92355 -0.0347853 0)
(1.91816 -0.0342949 0)
(1.91335 -0.0331039 0)
(1.90956 -0.030857 0)
(1.9067 -0.028941 0)
(1.90386 -0.0290673 0)
(1.90126 -0.0316943 0)
(1.89225 -0.0398925 0)
(2.169 -0.410336 0)
(2.16896 -0.41032 0)
(2.16893 -0.410292 0)
(2.16889 -0.410252 0)
(2.16884 -0.410192 0)
(2.16877 -0.410104 0)
(2.16864 -0.409933 0)
(2.16836 -0.409676 0)
(2.16787 -0.409179 0)
(2.16709 -0.408289 0)
(2.16592 -0.406671 0)
(2.16415 -0.404083 0)
(2.16164 -0.399979 0)
(2.15796 -0.393731 0)
(2.15327 -0.385152 0)
(2.14676 -0.372498 0)
(2.13952 -0.357736 0)
(2.12969 -0.336362 0)
(2.12078 -0.315835 0)
(2.10863 -0.285544 0)
(2.1003 -0.262789 0)
(2.08758 -0.226955 0)
(2.08137 -0.205853 0)
(2.07021 -0.170569 0)
(2.06647 -0.154086 0)
(2.05739 -0.123035 0)
(2.05519 -0.112325 0)
(2.04662 -0.0930171 0)
(2.0451 -0.0831699 0)
(2.03519 -0.0680336 0)
(2.03372 -0.0602525 0)
(2.02926 -0.0536633 0)
(2.02881 -0.0487741 0)
(2.02612 -0.0445856 0)
(2.02549 -0.0405803 0)
(2.02439 -0.0367982 0)
(2.02268 -0.0328326 0)
(2.0219 -0.0291423 0)
(2.02076 -0.0290598 0)
(2.01855 -0.0304739 0)
(2.01718 -0.0334902 0)
(2.01596 -0.0373836 0)
(2.01519 -0.0395679 0)
(2.01602 -0.0419612 0)
(2.01668 -0.0414094 0)
(2.01865 -0.039787 0)
(2.01989 -0.0375791 0)
(2.02109 -0.035494 0)
(2.02121 -0.0341757 0)
(2.02093 -0.0349669 0)
(2.02 -0.0368539 0)
(2.0189 -0.0393429 0)
(2.0191 -0.0395725 0)
(2.01992 -0.0388144 0)
(2.02072 -0.0376379 0)
(2.02176 -0.0362603 0)
(2.02212 -0.0365157 0)
(2.02183 -0.0375564 0)
(2.0215 -0.0388377 0)
(2.02153 -0.0389751 0)
(2.02209 -0.0385357 0)
(2.02291 -0.0376065 0)
(2.02367 -0.0373601 0)
(2.02348 -0.0379238 0)
(2.02317 -0.0389142 0)
(2.02327 -0.0390618 0)
(2.0239 -0.0387445 0)
(2.02447 -0.0385313 0)
(2.0246 -0.0387977 0)
(2.02463 -0.0393169 0)
(2.02467 -0.0397262 0)
(2.02488 -0.0397084 0)
(2.02517 -0.0398378 0)
(2.02524 -0.0400821 0)
(2.02529 -0.0403676 0)
(2.02537 -0.0404309 0)
(2.02559 -0.0404099 0)
(2.02571 -0.0404404 0)
(2.02561 -0.0405801 0)
(2.02545 -0.0407342 0)
(2.02482 -0.0410432 0)
(2.02278 -0.0412533 0)
(2.0177 -0.0410988 0)
(2.00773 -0.041486 0)
(1.99223 -0.0402559 0)
(1.97473 -0.0369494 0)
(1.96034 -0.0363629 0)
(1.95035 -0.0368784 0)
(1.94257 -0.0358454 0)
(1.93595 -0.0344584 0)
(1.93043 -0.033734 0)
(1.92571 -0.0340589 0)
(1.92098 -0.0340364 0)
(1.91552 -0.0335714 0)
(1.91073 -0.0324901 0)
(1.90673 -0.0304889 0)
(1.90375 -0.0287726 0)
(1.90104 -0.0288884 0)
(1.89856 -0.0314015 0)
(1.8902 -0.0392644 0)
(2.16753 -0.410104 0)
(2.1675 -0.410105 0)
(2.16746 -0.41011 0)
(2.16743 -0.410111 0)
(2.16739 -0.410124 0)
(2.16735 -0.41012 0)
(2.1673 -0.41014 0)
(2.16725 -0.410119 0)
(2.1672 -0.41008 0)
(2.16715 -0.410028 0)
(2.1671 -0.409967 0)
(2.16704 -0.409888 0)
(2.16697 -0.40978 0)
(2.16686 -0.409622 0)
(2.16667 -0.409327 0)
(2.16627 -0.408918 0)
(2.16564 -0.408092 0)
(2.16466 -0.406574 0)
(2.16316 -0.403977 0)
(2.16075 -0.399489 0)
(2.1574 -0.392841 0)
(2.15207 -0.381629 0)
(2.14587 -0.367938 0)
(2.1359 -0.344683 0)
(2.12708 -0.322363 0)
(2.11139 -0.282686 0)
(2.10235 -0.254208 0)
(2.08274 -0.201961 0)
(2.07731 -0.175698 0)
(2.05827 -0.124901 0)
(2.05537 -0.107453 0)
(2.04011 -0.0712668 0)
(2.03876 -0.0611586 0)
(2.02939 -0.0403259 0)
(2.02724 -0.0348636 0)
(2.02228 -0.0252858 0)
(2.02038 -0.0241123 0)
(2.01773 -0.0268507 0)
(2.01699 -0.0316448 0)
(2.01519 -0.0363156 0)
(2.01537 -0.0369332 0)
(2.01382 -0.0395811 0)
(2.01421 -0.0393306 0)
(2.01495 -0.0388724 0)
(2.01768 -0.0366121 0)
(2.01938 -0.034603 0)
(2.01973 -0.0331327 0)
(2.01927 -0.0339647 0)
(2.01821 -0.0357019 0)
(2.01672 -0.0379329 0)
(2.01589 -0.0397999 0)
(2.01632 -0.0394635 0)
(2.01732 -0.0382108 0)
(2.01873 -0.0371456 0)
(2.01983 -0.0357226 0)
(2.01974 -0.0361076 0)
(2.01899 -0.0375108 0)
(2.01847 -0.0387367 0)
(2.01861 -0.0388682 0)
(2.01925 -0.0384248 0)
(2.02018 -0.0375248 0)
(2.02088 -0.0370426 0)
(2.02063 -0.0377377 0)
(2.02014 -0.0386589 0)
(2.02035 -0.0390914 0)
(2.02082 -0.0388416 0)
(2.02147 -0.0383597 0)
(2.02177 -0.0385767 0)
(2.02175 -0.0390007 0)
(2.02169 -0.039575 0)
(2.02194 -0.039636 0)
(2.02231 -0.039661 0)
(2.02247 -0.0398914 0)
(2.02259 -0.0402203 0)
(2.02269 -0.0404094 0)
(2.0229 -0.0404127 0)
(2.02315 -0.0403674 0)
(2.02327 -0.0404279 0)
(2.02321 -0.0405904 0)
(2.02309 -0.0407278 0)
(2.02249 -0.0410373 0)
(2.02049 -0.0412143 0)
(2.01557 -0.040957 0)
(2.00593 -0.0410915 0)
(1.99075 -0.0396943 0)
(1.97342 -0.0364707 0)
(1.95901 -0.0360074 0)
(1.94902 -0.0364859 0)
(1.94114 -0.0352465 0)
(1.93448 -0.0338199 0)
(1.92891 -0.0331693 0)
(1.92417 -0.0335471 0)
(1.91934 -0.0333381 0)
(1.91387 -0.032883 0)
(1.90903 -0.0318388 0)
(1.90478 -0.0299784 0)
(1.90163 -0.0284914 0)
(1.8989 -0.0286273 0)
(1.89655 -0.0310436 0)
(1.88897 -0.0387402 0)
(2.16609 -0.409832 0)
(2.16606 -0.409825 0)
(2.16603 -0.409823 0)
(2.166 -0.409815 0)
(2.16597 -0.409815 0)
(2.16594 -0.409807 0)
(2.16591 -0.409808 0)
(2.16588 -0.409805 0)
(2.16587 -0.409818 0)
(2.16586 -0.409826 0)
(2.16584 -0.409846 0)
(2.16583 -0.409853 0)
(2.1658 -0.409889 0)
(2.16578 -0.409883 0)
(2.16575 -0.409927 0)
(2.16572 -0.409885 0)
(2.1657 -0.409831 0)
(2.16569 -0.409774 0)
(2.16566 -0.409693 0)
(2.16562 -0.40959 0)
(2.16553 -0.409404 0)
(2.16534 -0.409063 0)
(2.16495 -0.408394 0)
(2.16419 -0.40709 0)
(2.16285 -0.404395 0)
(2.1604 -0.399716 0)
(2.15655 -0.39146 0)
(2.15003 -0.377755 0)
(2.14184 -0.358793 0)
(2.12913 -0.328351 0)
(2.11788 -0.298536 0)
(2.09951 -0.250225 0)
(2.08957 -0.219743 0)
(2.07095 -0.167993 0)
(2.06449 -0.14714 0)
(2.05098 -0.108906 0)
(2.04789 -0.0985004 0)
(2.03774 -0.0800756 0)
(2.03776 -0.0705506 0)
(2.0296 -0.0589429 0)
(2.02884 -0.0519576 0)
(2.0235 -0.044978 0)
(2.02294 -0.0382869 0)
(2.02068 -0.0323615 0)
(2.01896 -0.027849 0)
(2.01782 -0.0285422 0)
(2.01598 -0.0314751 0)
(2.01418 -0.0360766 0)
(2.01364 -0.0394398 0)
(2.01384 -0.0426836 0)
(2.01475 -0.0417567 0)
(2.01709 -0.0391511 0)
(2.01846 -0.0367218 0)
(2.01907 -0.0352018 0)
(2.01883 -0.035796 0)
(2.01768 -0.037451 0)
(2.01683 -0.0397807 0)
(2.01715 -0.0397889 0)
(2.01797 -0.0388121 0)
(2.01921 -0.0375026 0)
(2.01981 -0.0368399 0)
(2.01947 -0.0374896 0)
(2.01886 -0.0385731 0)
(2.019 -0.0394947 0)
(2.01957 -0.0391809 0)
(2.0203 -0.0381529 0)
(2.02058 -0.038361 0)
(2.02042 -0.0388024 0)
(2.02043 -0.0395885 0)
(2.02062 -0.0397449 0)
(2.02093 -0.0396438 0)
(2.02138 -0.0398666 0)
(2.02147 -0.0400493 0)
(2.02159 -0.0403519 0)
(2.02185 -0.0403633 0)
(2.0221 -0.0403402 0)
(2.0223 -0.0402884 0)
(2.02247 -0.0403899 0)
(2.02246 -0.040549 0)
(2.02236 -0.0406652 0)
(2.0218 -0.0409783 0)
(2.01988 -0.041148 0)
(2.0151 -0.040924 0)
(2.00572 -0.0409124 0)
(1.99077 -0.0393577 0)
(1.97346 -0.0361747 0)
(1.95898 -0.0357288 0)
(1.94896 -0.0361058 0)
(1.94093 -0.0347263 0)
(1.93421 -0.0332765 0)
(1.92856 -0.0327477 0)
(1.92373 -0.0331571 0)
(1.91881 -0.0328015 0)
(1.91335 -0.0323359 0)
(1.90841 -0.0312852 0)
(1.90376 -0.0295018 0)
(1.9002 -0.0282207 0)
(1.89737 -0.0284011 0)
(1.89515 -0.0307606 0)
(1.88836 -0.0383292 0)
(2.1653 -0.409705 0)
(2.16529 -0.40971 0)
(2.16529 -0.409705 0)
(2.16529 -0.409711 0)
(2.16529 -0.409705 0)
(2.16529 -0.409713 0)
(2.16529 -0.409707 0)
(2.16529 -0.409716 0)
(2.1653 -0.40971 0)
(2.1653 -0.40972 0)
(2.16531 -0.409714 0)
(2.16532 -0.409727 0)
(2.16534 -0.409721 0)
(2.16536 -0.409737 0)
(2.16537 -0.409731 0)
(2.16541 -0.409754 0)
(2.16545 -0.409772 0)
(2.16548 -0.4098 0)
(2.16552 -0.409821 0)
(2.16555 -0.409853 0)
(2.16557 -0.409865 0)
(2.16555 -0.409893 0)
(2.16561 -0.409845 0)
(2.16566 -0.409801 0)
(2.1657 -0.409749 0)
(2.16571 -0.409656 0)
(2.16565 -0.409479 0)
(2.16548 -0.408995 0)
(2.16501 -0.407931 0)
(2.16379 -0.405447 0)
(2.16145 -0.400535 0)
(2.15663 -0.390443 0)
(2.14979 -0.375217 0)
(2.13714 -0.346097 0)
(2.1257 -0.316631 0)
(2.10376 -0.261323 0)
(2.09366 -0.22618 0)
(2.06717 -0.157816 0)
(2.06346 -0.131054 0)
(2.04321 -0.0794718 0)
(2.04205 -0.0655696 0)
(2.03034 -0.0377049 0)
(2.02558 -0.0308194 0)
(2.02288 -0.0212032 0)
(2.01896 -0.0244219 0)
(2.01564 -0.0314929 0)
(2.01536 -0.0347604 0)
(2.01367 -0.0396638 0)
(2.01411 -0.0399785 0)
(2.01502 -0.0400619 0)
(2.01743 -0.0380238 0)
(2.02014 -0.034467 0)
(2.01931 -0.0349157 0)
(2.01867 -0.0355662 0)
(2.01721 -0.0377504 0)
(2.01639 -0.0396915 0)
(2.01664 -0.0396629 0)
(2.01776 -0.0386501 0)
(2.01913 -0.0374278 0)
(2.01979 -0.036457 0)
(2.0195 -0.0372139 0)
(2.01886 -0.0385682 0)
(2.01879 -0.0395095 0)
(2.01918 -0.0391442 0)
(2.02023 -0.0383654 0)
(2.0207 -0.0379512 0)
(2.02055 -0.0384818 0)
(2.02032 -0.0391835 0)
(2.02081 -0.0393888 0)
(2.02117 -0.0391853 0)
(2.02141 -0.0392651 0)
(2.02169 -0.0397463 0)
(2.02183 -0.0402969 0)
(2.02203 -0.0403367 0)
(2.02236 -0.0402583 0)
(2.02255 -0.0403472 0)
(2.02272 -0.0405176 0)
(2.02299 -0.040526 0)
(2.02302 -0.0406365 0)
(2.02293 -0.0407997 0)
(2.02237 -0.0411941 0)
(2.02051 -0.0412855 0)
(2.01594 -0.0408342 0)
(2.00674 -0.0407907 0)
(1.99175 -0.0390829 0)
(1.97435 -0.0358312 0)
(1.95985 -0.0353774 0)
(1.94972 -0.0355509 0)
(1.94146 -0.0339887 0)
(1.93472 -0.0325311 0)
(1.92904 -0.0321977 0)
(1.92409 -0.0326386 0)
(1.91911 -0.032249 0)
(1.91368 -0.0317386 0)
(1.90867 -0.0306879 0)
(1.90366 -0.0290372 0)
(1.89955 -0.0280286 0)
(1.89654 -0.028273 0)
(1.8943 -0.0305587 0)
(1.88809 -0.037894 0)
(2.1654 -0.409728 0)
(2.16542 -0.40973 0)
(2.16544 -0.409736 0)
(2.16547 -0.409738 0)
(2.16549 -0.409743 0)
(2.16552 -0.409745 0)
(2.16554 -0.409752 0)
(2.16557 -0.409754 0)
(2.1656 -0.409763 0)
(2.16564 -0.409763 0)
(2.16567 -0.409773 0)
(2.16571 -0.409776 0)
(2.16575 -0.409786 0)
(2.16579 -0.409791 0)
(2.16584 -0.409802 0)
(2.16588 -0.409808 0)
(2.16593 -0.409819 0)
(2.16599 -0.409828 0)
(2.16604 -0.409841 0)
(2.16611 -0.40985 0)
(2.16617 -0.409867 0)
(2.16624 -0.409883 0)
(2.1663 -0.409897 0)
(2.16636 -0.409924 0)
(2.16642 -0.409936 0)
(2.16647 -0.409973 0)
(2.16652 -0.409974 0)
(2.16656 -0.409996 0)
(2.16664 -0.40995 0)
(2.1667 -0.409921 0)
(2.16674 -0.409856 0)
(2.1667 -0.409648 0)
(2.1665 -0.409005 0)
(2.16574 -0.407407 0)
(2.16393 -0.403407 0)
(2.15983 -0.395237 0)
(2.15306 -0.379799 0)
(2.14085 -0.352226 0)
(2.12772 -0.318317 0)
(2.10636 -0.262779 0)
(2.09435 -0.224618 0)
(2.07205 -0.161212 0)
(2.06537 -0.138939 0)
(2.05014 -0.0964011 0)
(2.04933 -0.0879465 0)
(2.03565 -0.0681929 0)
(2.03395 -0.0579491 0)
(2.02732 -0.0484358 0)
(2.02527 -0.0403696 0)
(2.02277 -0.0327062 0)
(2.02087 -0.0288534 0)
(2.01938 -0.0299557 0)
(2.01714 -0.0337645 0)
(2.0159 -0.0381088 0)
(2.01552 -0.0430801 0)
(2.01662 -0.0423431 0)
(2.01878 -0.0397219 0)
(2.02056 -0.0364126 0)
(2.02063 -0.0360216 0)
(2.02026 -0.0365884 0)
(2.01906 -0.0384393 0)
(2.01888 -0.0403038 0)
(2.01931 -0.0398925 0)
(2.02046 -0.0383676 0)
(2.02097 -0.0375917 0)
(2.02097 -0.038059 0)
(2.0207 -0.0390014 0)
(2.02113 -0.040106 0)
(2.02169 -0.0399156 0)
(2.02227 -0.0394471 0)
(2.02237 -0.0395756 0)
(2.0225 -0.0400197 0)
(2.02266 -0.0403119 0)
(2.02307 -0.0402981 0)
(2.02336 -0.0401101 0)
(2.0235 -0.0401826 0)
(2.02367 -0.0403484 0)
(2.02398 -0.0405965 0)
(2.024 -0.0406556 0)
(2.02388 -0.0408357 0)
(2.02328 -0.0412304 0)
(2.02148 -0.0412262 0)
(2.01705 -0.0409115 0)
(2.00784 -0.040705 0)
(1.99278 -0.0387456 0)
(1.97534 -0.0355481 0)
(1.96101 -0.0349764 0)
(1.95073 -0.034992 0)
(1.94227 -0.0332666 0)
(1.93557 -0.0318505 0)
(1.92989 -0.0317282 0)
(1.92486 -0.0321909 0)
(1.91981 -0.0317882 0)
(1.91441 -0.0312216 0)
(1.90934 -0.0301246 0)
(1.904 -0.0285161 0)
(1.89938 -0.0277771 0)
(1.89619 -0.0280942 0)
(1.89379 -0.0303013 0)
(1.88802 -0.0374551 0)
(2.16615 -0.409875 0)
(2.16618 -0.40988 0)
(2.16621 -0.409883 0)
(2.16624 -0.40989 0)
(2.16628 -0.409894 0)
(2.16631 -0.409901 0)
(2.16635 -0.409906 0)
(2.16639 -0.409911 0)
(2.16643 -0.409918 0)
(2.16647 -0.409922 0)
(2.16651 -0.40993 0)
(2.16655 -0.409938 0)
(2.1666 -0.409945 0)
(2.16665 -0.409948 0)
(2.1667 -0.409957 0)
(2.16675 -0.409966 0)
(2.1668 -0.40997 0)
(2.16686 -0.409981 0)
(2.16691 -0.409994 0)
(2.16697 -0.410002 0)
(2.16703 -0.410016 0)
(2.1671 -0.410025 0)
(2.16716 -0.410041 0)
(2.16722 -0.410058 0)
(2.16729 -0.410072 0)
(2.16735 -0.410084 0)
(2.16742 -0.410106 0)
(2.16749 -0.41012 0)
(2.16754 -0.410122 0)
(2.16759 -0.410145 0)
(2.16763 -0.410144 0)
(2.16767 -0.410172 0)
(2.16775 -0.410154 0)
(2.1678 -0.410149 0)
(2.16784 -0.410121 0)
(2.16782 -0.409963 0)
(2.16762 -0.409424 0)
(2.16685 -0.407793 0)
(2.16489 -0.403621 0)
(2.16005 -0.393572 0)
(2.15219 -0.375416 0)
(2.13659 -0.339114 0)
(2.12255 -0.299659 0)
(2.09426 -0.228284 0)
(2.08482 -0.184694 0)
(2.05628 -0.109807 0)
(2.05326 -0.0851972 0)
(2.03686 -0.0442353 0)
(2.03044 -0.0327006 0)
(2.02753 -0.0188712 0)
(2.02186 -0.0237534 0)
(2.01863 -0.0326504 0)
(2.01746 -0.0370249 0)
(2.01677 -0.0406716 0)
(2.01755 -0.0410316 0)
(2.02 -0.0389879 0)
(2.02251 -0.0353349 0)
(2.02228 -0.0353109 0)
(2.02123 -0.0359468 0)
(2.01967 -0.038578 0)
(2.01895 -0.0402661 0)
(2.01959 -0.0401472 0)
(2.02128 -0.0382795 0)
(2.02245 -0.0369229 0)
(2.02222 -0.03724 0)
(2.02151 -0.0386626 0)
(2.02156 -0.0397458 0)
(2.02198 -0.0398379 0)
(2.02283 -0.0391096 0)
(2.02316 -0.039337 0)
(2.02311 -0.0396699 0)
(2.02321 -0.0402671 0)
(2.02348 -0.0403554 0)
(2.02397 -0.0400796 0)
(2.02422 -0.0402154 0)
(2.02437 -0.0403758 0)
(2.02457 -0.040473 0)
(2.02483 -0.0405419 0)
(2.02479 -0.0407285 0)
(2.02461 -0.0409615 0)
(2.024 -0.0413819 0)
(2.02228 -0.04132 0)
(2.01788 -0.0409077 0)
(2.0087 -0.0405263 0)
(1.99353 -0.0384043 0)
(1.9759 -0.0351537 0)
(1.96181 -0.0346476 0)
(1.95142 -0.0342483 0)
(1.94264 -0.0322507 0)
(1.93608 -0.0309514 0)
(1.9306 -0.0310715 0)
(1.92553 -0.0316048 0)
(1.92045 -0.0311909 0)
(1.91507 -0.0305675 0)
(1.90991 -0.029391 0)
(1.90428 -0.027784 0)
(1.89936 -0.0274216 0)
(1.89601 -0.0278251 0)
(1.89344 -0.0300376 0)
(1.88784 -0.0369681 0)
(2.16709 -0.410053 0)
(2.16712 -0.410057 0)
(2.16715 -0.410059 0)
(2.16718 -0.410061 0)
(2.16721 -0.410063 0)
(2.16724 -0.410065 0)
(2.16727 -0.410068 0)
(2.1673 -0.41007 0)
(2.16734 -0.410076 0)
(2.16737 -0.410082 0)
(2.16741 -0.410088 0)
(2.16744 -0.410095 0)
(2.16748 -0.4101 0)
(2.16752 -0.410103 0)
(2.16756 -0.41011 0)
(2.1676 -0.410115 0)
(2.16764 -0.410116 0)
(2.16768 -0.410117 0)
(2.16773 -0.410127 0)
(2.16777 -0.410137 0)
(2.16782 -0.410148 0)
(2.16786 -0.410158 0)
(2.16791 -0.410162 0)
(2.16796 -0.410165 0)
(2.168 -0.410173 0)
(2.16805 -0.410184 0)
(2.1681 -0.410205 0)
(2.16815 -0.410223 0)
(2.16819 -0.410236 0)
(2.16824 -0.410244 0)
(2.16829 -0.410263 0)
(2.16834 -0.410271 0)
(2.16837 -0.410276 0)
(2.1684 -0.41029 0)
(2.16843 -0.41029 0)
(2.16848 -0.4103 0)
(2.16854 -0.410286 0)
(2.16857 -0.410279 0)
(2.1686 -0.410225 0)
(2.16853 -0.41001 0)
(2.16817 -0.409197 0)
(2.16694 -0.406791 0)
(2.16391 -0.400084 0)
(2.15681 -0.385364 0)
(2.14536 -0.357329 0)
(2.12598 -0.30967 0)
(2.10877 -0.259472 0)
(2.08325 -0.187687 0)
(2.07211 -0.151827 0)
(2.05451 -0.0998382 0)
(2.05098 -0.0879545 0)
(2.03849 -0.0669154 0)
(2.03282 -0.0548727 0)
(2.02985 -0.0441829 0)
(2.02645 -0.0351797 0)
(2.02331 -0.0285594 0)
(2.02176 -0.0299309 0)
(2.01936 -0.0346726 0)
(2.0182 -0.0396354 0)
(2.01847 -0.0435469 0)
(2.01948 -0.042386 0)
(2.02222 -0.0388641 0)
(2.02356 -0.0367051 0)
(2.02338 -0.0370021 0)
(2.02225 -0.0389794 0)
(2.02182 -0.0407083 0)
(2.02227 -0.0405174 0)
(2.02343 -0.0388829 0)
(2.02382 -0.0386325 0)
(2.0237 -0.0391603 0)
(2.0235 -0.0403341 0)
(2.02361 -0.0404881 0)
(2.02417 -0.0400574 0)
(2.02457 -0.039818 0)
(2.02489 -0.0400122 0)
(2.02499 -0.0404204 0)
(2.02514 -0.040474 0)
(2.02532 -0.0406426 0)
(2.02527 -0.0407843 0)
(2.02503 -0.0411106 0)
(2.02446 -0.0414628 0)
(2.02275 -0.0413092 0)
(2.0184 -0.0408772 0)
(2.00947 -0.0402835 0)
(1.9943 -0.0377611 0)
(1.97648 -0.0345719 0)
(1.9622 -0.0342035 0)
(1.95186 -0.0334154 0)
(1.94309 -0.0314653 0)
(1.93649 -0.0302735 0)
(1.93104 -0.0305465 0)
(1.92604 -0.0311362 0)
(1.92095 -0.0307218 0)
(1.91558 -0.0300865 0)
(1.91037 -0.0288855 0)
(1.90461 -0.0273233 0)
(1.89944 -0.0270353 0)
(1.89596 -0.0275465 0)
(1.89317 -0.0296708 0)
(1.88788 -0.0364231 0)
(2.16786 -0.410242 0)
(2.16788 -0.410245 0)
(2.1679 -0.410248 0)
(2.16792 -0.410251 0)
(2.16794 -0.410254 0)
(2.16797 -0.410257 0)
(2.16799 -0.41026 0)
(2.16801 -0.410264 0)
(2.16803 -0.410268 0)
(2.16806 -0.410274 0)
(2.16808 -0.410279 0)
(2.16811 -0.410281 0)
(2.16813 -0.410286 0)
(2.16816 -0.410288 0)
(2.16818 -0.410291 0)
(2.16821 -0.410299 0)
(2.16824 -0.410303 0)
(2.16826 -0.410307 0)
(2.16829 -0.410312 0)
(2.16832 -0.410319 0)
(2.16835 -0.410324 0)
(2.16838 -0.41033 0)
(2.16841 -0.41034 0)
(2.16843 -0.410345 0)
(2.16846 -0.410346 0)
(2.16849 -0.410352 0)
(2.16853 -0.410354 0)
(2.16856 -0.410363 0)
(2.16859 -0.41037 0)
(2.16862 -0.410376 0)
(2.16865 -0.410378 0)
(2.16869 -0.410391 0)
(2.16872 -0.410395 0)
(2.16876 -0.410403 0)
(2.16879 -0.410405 0)
(2.16883 -0.410415 0)
(2.16885 -0.410415 0)
(2.16887 -0.410415 0)
(2.16891 -0.410402 0)
(2.16894 -0.410397 0)
(2.16899 -0.410391 0)
(2.169 -0.410353 0)
(2.16898 -0.410227 0)
(2.16875 -0.409711 0)
(2.16792 -0.407972 0)
(2.16527 -0.402528 0)
(2.15928 -0.389081 0)
(2.146 -0.359061 0)
(2.12923 -0.314778 0)
(2.09976 -0.240983 0)
(2.08301 -0.180992 0)
(2.05695 -0.10614 0)
(2.04533 -0.0675804 0)
(2.03689 -0.0377655 0)
(2.02997 -0.0197465 0)
(2.02486 -0.0220367 0)
(2.02173 -0.0321558 0)
(2.01909 -0.0385367 0)
(2.01924 -0.0411478 0)
(2.02022 -0.0412867 0)
(2.02529 -0.0359012 0)
(2.02558 -0.0351579 0)
(2.02467 -0.035892 0)
(2.02295 -0.0386086 0)
(2.02179 -0.0411071 0)
(2.02233 -0.0409201 0)
(2.02388 -0.0389662 0)
(2.02463 -0.0376285 0)
(2.02421 -0.038325 0)
(2.02361 -0.0399255 0)
(2.02362 -0.0407172 0)
(2.02419 -0.040269 0)
(2.02493 -0.0394961 0)
(2.02507 -0.039686 0)
(2.02514 -0.0402243 0)
(2.02517 -0.0405579 0)
(2.02535 -0.0405061 0)
(2.02553 -0.04072 0)
(2.02544 -0.040999 0)
(2.02521 -0.0413976 0)
(2.02467 -0.0415551 0)
(2.023 -0.0412554 0)
(2.01883 -0.0408225 0)
(2.01021 -0.0399208 0)
(1.99552 -0.0369586 0)
(1.97777 -0.0338806 0)
(1.963 -0.0337355 0)
(1.95198 -0.0324336 0)
(1.94305 -0.0305096 0)
(1.93637 -0.029597 0)
(1.93092 -0.0300349 0)
(1.92616 -0.0305575 0)
(1.92111 -0.0300472 0)
(1.91562 -0.0293641 0)
(1.91016 -0.0280089 0)
(1.90433 -0.0265045 0)
(1.89931 -0.0265529 0)
(1.89581 -0.027269 0)
(1.89284 -0.0293397 0)
(1.88769 -0.0358934 0)
(2.16837 -0.410294 0)
(2.16838 -0.410297 0)
(2.16839 -0.410301 0)
(2.1684 -0.410304 0)
(2.16842 -0.410308 0)
(2.16843 -0.410312 0)
(2.16844 -0.410316 0)
(2.16846 -0.410321 0)
(2.16847 -0.410325 0)
(2.16849 -0.41033 0)
(2.1685 -0.410335 0)
(2.16852 -0.410342 0)
(2.16854 -0.410349 0)
(2.16855 -0.410355 0)
(2.16857 -0.410361 0)
(2.16859 -0.410365 0)
(2.1686 -0.410369 0)
(2.16862 -0.410376 0)
(2.16864 -0.41038 0)
(2.16865 -0.410389 0)
(2.16867 -0.4104 0)
(2.16869 -0.410405 0)
(2.1687 -0.410408 0)
(2.16872 -0.410412 0)
(2.16874 -0.410416 0)
(2.16876 -0.410424 0)
(2.16877 -0.410435 0)
(2.1688 -0.410439 0)
(2.16882 -0.410442 0)
(2.16884 -0.410448 0)
(2.16886 -0.410453 0)
(2.16888 -0.410457 0)
(2.1689 -0.410461 0)
(2.16893 -0.410464 0)
(2.16895 -0.410467 0)
(2.16897 -0.41047 0)
(2.169 -0.410471 0)
(2.16902 -0.410469 0)
(2.16905 -0.410468 0)
(2.16907 -0.410465 0)
(2.1691 -0.410458 0)
(2.16913 -0.410457 0)
(2.16916 -0.410452 0)
(2.16919 -0.410442 0)
(2.16921 -0.410414 0)
(2.16919 -0.410317 0)
(2.169 -0.409907 0)
(2.16816 -0.408214 0)
(2.16563 -0.402826 0)
(2.15834 -0.38743 0)
(2.14574 -0.357333 0)
(2.12198 -0.297742 0)
(2.10352 -0.242499 0)
(2.07477 -0.162262 0)
(2.06358 -0.123209 0)
(2.048 -0.0882041 0)
(2.04425 -0.0716213 0)
(2.0346 -0.0551339 0)
(2.03105 -0.0432966 0)
(2.02682 -0.032083 0)
(2.02606 -0.0306077 0)
(2.02297 -0.0332795 0)
(2.0206 -0.0388969 0)
(2.02024 -0.0440027 0)
(2.021 -0.0431849 0)
(2.0239 -0.0396061 0)
(2.02497 -0.0371368 0)
(2.02459 -0.0375557 0)
(2.02303 -0.03986 0)
(2.02296 -0.0411148 0)
(2.02359 -0.0408297 0)
(2.02504 -0.0390622 0)
(2.0251 -0.0394179 0)
(2.0249 -0.0398949 0)
(2.02477 -0.0405987 0)
(2.02497 -0.0406096 0)
(2.02533 -0.0405914 0)
(2.02535 -0.0409273 0)
(2.02541 -0.0412912 0)
(2.02529 -0.0415708 0)
(2.02479 -0.0414863 0)
(2.02321 -0.0411917 0)
(2.01926 -0.0407604 0)
(2.01095 -0.0394978 0)
(1.99645 -0.0362559 0)
(1.97867 -0.0333776 0)
(1.96358 -0.0328828 0)
(1.95216 -0.0314758 0)
(1.94335 -0.0294052 0)
(1.93666 -0.0288284 0)
(1.93115 -0.0295278 0)
(1.92634 -0.0301056 0)
(1.9213 -0.0295778 0)
(1.91585 -0.0288475 0)
(1.91023 -0.0272835 0)
(1.90447 -0.0258687 0)
(1.89938 -0.0260885 0)
(1.89588 -0.0267874 0)
(1.89276 -0.0288121 0)
(1.88767 -0.0352773 0)
(2.16861 -0.410315 0)
(2.16862 -0.410318 0)
(2.16863 -0.410321 0)
(2.16864 -0.410326 0)
(2.16864 -0.410331 0)
(2.16865 -0.410336 0)
(2.16866 -0.410343 0)
(2.16867 -0.410349 0)
(2.16868 -0.410355 0)
(2.16868 -0.410361 0)
(2.1687 -0.410366 0)
(2.16871 -0.41037 0)
(2.16872 -0.410378 0)
(2.16872 -0.410383 0)
(2.16874 -0.410389 0)
(2.16875 -0.410398 0)
(2.16876 -0.410405 0)
(2.16877 -0.410413 0)
(2.16878 -0.410418 0)
(2.16879 -0.410424 0)
(2.1688 -0.410428 0)
(2.16881 -0.410434 0)
(2.16883 -0.410442 0)
(2.16884 -0.410448 0)
(2.16885 -0.410455 0)
(2.16886 -0.410461 0)
(2.16888 -0.410462 0)
(2.16889 -0.410467 0)
(2.16891 -0.410472 0)
(2.16893 -0.410476 0)
(2.16895 -0.410482 0)
(2.16896 -0.410489 0)
(2.16898 -0.41049 0)
(2.169 -0.410494 0)
(2.16902 -0.410496 0)
(2.16904 -0.410499 0)
(2.16906 -0.410499 0)
(2.16908 -0.410497 0)
(2.1691 -0.410495 0)
(2.16912 -0.41049 0)
(2.16914 -0.410487 0)
(2.16916 -0.410484 0)
(2.16919 -0.410481 0)
(2.16921 -0.410484 0)
(2.16924 -0.410487 0)
(2.16927 -0.410492 0)
(2.1693 -0.410504 0)
(2.16931 -0.410503 0)
(2.16928 -0.410426 0)
(2.16904 -0.409937 0)
(2.16806 -0.40791 0)
(2.16443 -0.400402 0)
(2.15638 -0.381531 0)
(2.13659 -0.335266 0)
(2.11711 -0.279803 0)
(2.07836 -0.1799 0)
(2.06611 -0.125158 0)
(2.04475 -0.0615171 0)
(2.03335 -0.0346585 0)
(2.03144 -0.0181984 0)
(2.02318 -0.0275122 0)
(2.02058 -0.0364112 0)
(2.02015 -0.0418255 0)
(2.02107 -0.0422505 0)
(2.02495 -0.0375812 0)
(2.02566 -0.0359537 0)
(2.02466 -0.0365861 0)
(2.02278 -0.0395837 0)
(2.02188 -0.0417605 0)
(2.02267 -0.0414094 0)
(2.02462 -0.0388355 0)
(2.02504 -0.0386128 0)
(2.02457 -0.0393949 0)
(2.02413 -0.0405933 0)
(2.02432 -0.0407338 0)
(2.02474 -0.0404437 0)
(2.0252 -0.0406598 0)
(2.0251 -0.0412346 0)
(2.0252 -0.04163 0)
(2.02521 -0.0415476 0)
(2.02488 -0.0413755 0)
(2.02341 -0.0411702 0)
(2.0197 -0.0406742 0)
(2.01169 -0.0390163 0)
(1.99739 -0.0356152 0)
(1.97965 -0.0329706 0)
(1.96442 -0.0321713 0)
(1.9527 -0.0303534 0)
(1.94376 -0.0284802 0)
(1.9371 -0.028309 0)
(1.93152 -0.0292177 0)
(1.92655 -0.0296596 0)
(1.92112 -0.0287673 0)
(1.91557 -0.0280541 0)
(1.90993 -0.0265818 0)
(1.90412 -0.0252234 0)
(1.89904 -0.0253887 0)
(1.89559 -0.0260888 0)
(1.89231 -0.0282835 0)
(1.88727 -0.0347537 0)
(2.16871 -0.410343 0)
(2.16871 -0.410346 0)
(2.16872 -0.410349 0)
(2.16872 -0.410351 0)
(2.16873 -0.410353 0)
(2.16873 -0.410357 0)
(2.16874 -0.410363 0)
(2.16874 -0.410367 0)
(2.16875 -0.410374 0)
(2.16875 -0.410379 0)
(2.16876 -0.410386 0)
(2.16877 -0.410393 0)
(2.16877 -0.410399 0)
(2.16878 -0.410403 0)
(2.16879 -0.410405 0)
(2.1688 -0.410407 0)
(2.1688 -0.410411 0)
(2.16881 -0.410414 0)
(2.16882 -0.410418 0)
(2.16883 -0.410422 0)
(2.16884 -0.410427 0)
(2.16885 -0.41043 0)
(2.16886 -0.410433 0)
(2.16887 -0.410435 0)
(2.16889 -0.41044 0)
(2.1689 -0.410446 0)
(2.16891 -0.410448 0)
(2.16892 -0.41045 0)
(2.16894 -0.410452 0)
(2.16895 -0.410455 0)
(2.16897 -0.410456 0)
(2.16899 -0.410461 0)
(2.169 -0.410463 0)
(2.16902 -0.410463 0)
(2.16904 -0.410467 0)
(2.16906 -0.410465 0)
(2.16908 -0.410468 0)
(2.1691 -0.410469 0)
(2.16912 -0.410468 0)
(2.16914 -0.41047 0)
(2.16916 -0.410466 0)
(2.16918 -0.410472 0)
(2.1692 -0.410481 0)
(2.16922 -0.410494 0)
(2.16924 -0.410511 0)
(2.16926 -0.410526 0)
(2.16928 -0.410546 0)
(2.16931 -0.410573 0)
(2.16933 -0.410578 0)
(2.16936 -0.410587 0)
(2.16937 -0.410576 0)
(2.1693 -0.410443 0)
(2.16892 -0.409641 0)
(2.16722 -0.406261 0)
(2.16204 -0.394331 0)
(2.14834 -0.364196 0)
(2.12731 -0.309436 0)
(2.09826 -0.230307 0)
(2.07614 -0.165375 0)
(2.05805 -0.108457 0)
(2.04847 -0.0839657 0)
(2.0385 -0.0631987 0)
(2.03361 -0.047113 0)
(2.02914 -0.0363051 0)
(2.02565 -0.0300796 0)
(2.02274 -0.0326831 0)
(2.02028 -0.0389569 0)
(2.02006 -0.0446019 0)
(2.02114 -0.0435811 0)
(2.02428 -0.0397039 0)
(2.02511 -0.0376878 0)
(2.02459 -0.0384525 0)
(2.02355 -0.0407024 0)
(2.02365 -0.0408955 0)
(2.02428 -0.0404467 0)
(2.0248 -0.0404691 0)
(2.02468 -0.0411877 0)
(2.02471 -0.0418461 0)
(2.02497 -0.0418202 0)
(2.02515 -0.0414812 0)
(2.02486 -0.0413262 0)
(2.02355 -0.0411765 0)
(2.02018 -0.0404311 0)
(2.01254 -0.0384879 0)
(1.99848 -0.0351482 0)
(1.98076 -0.0327774 0)
(1.96523 -0.0315016 0)
(1.9526 -0.0292599 0)
(1.94351 -0.0276062 0)
(1.93677 -0.0275913 0)
(1.93157 -0.0287029 0)
(1.92676 -0.0291168 0)
(1.92125 -0.0282116 0)
(1.91565 -0.0273565 0)
(1.90993 -0.0256534 0)
(1.90361 -0.0242945 0)
(1.8983 -0.0248819 0)
(1.8951 -0.0253545 0)
(1.89179 -0.0276466 0)
(1.88709 -0.0341192 0)
(2.16872 -0.410401 0)
(2.16873 -0.410402 0)
(2.16873 -0.410404 0)
(2.16874 -0.410406 0)
(2.16874 -0.410407 0)
(2.16874 -0.41041 0)
(2.16875 -0.410412 0)
(2.16876 -0.410414 0)
(2.16876 -0.410416 0)
(2.16877 -0.410418 0)
(2.16877 -0.410421 0)