/*--------------------------------*- C++ -*----------------------------------*\
  =========                 |
  \\      /  F ield         | OpenFOAM: The Open Source CFD Toolbox
   \\    /   O peration     | Website:  https://openfoam.org
    \\  /    A nd           | Version:  7
     \\/     M anipulation  |
\*---------------------------------------------------------------------------*/
FoamFile
{
    version     2.0;
    format      ascii;
    class       volScalarField;
    location    "3.5";
    object      p;
}
// * * * * * * * * * * * * * * * * * * * * * * * * * * * * * * * * * * * * * //

dimensions      [1 -1 -2 0 0 0 0];

internalField   nonuniform List<scalar> 
90000
(
0.279491
0.315364
0.349292
0.38232
0.41585
0.443726
0.469216
0.498464
0.527338
0.552883
0.581311
0.611222
0.64033
0.670733
0.702053
0.734081
0.76626
0.799773
0.832614
0.866561
0.897205
0.926757
0.950094
0.966733
0.974735
0.980448
0.981388
0.981449
0.979658
0.977523
0.975879
0.973613
0.96965
0.965728
0.96017
0.954436
0.947794
0.940426
0.932195
0.930829
0.933997
0.939103
0.94524
0.951344
0.957116
0.961931
0.965373
0.968868
0.968036
0.964476
0.956829
0.948605
0.943308
0.94047
0.941913
0.945865
0.953203
0.958757
0.960958
0.958963
0.954561
0.947284
0.940268
0.939534
0.941043
0.945483
0.949654
0.950425
0.948866
0.94375
0.938753
0.938821
0.941207
0.944466
0.944172
0.941366
0.937084
0.935112
0.936273
0.938283
0.937914
0.93635
0.935475
0.936605
0.9401
0.942646
0.94273
0.942744
0.942725
0.942061
0.941017
0.939698
0.938822
0.937839
0.936897
0.93658
0.935809
0.934964
0.935549
0.935344
0.249635
0.249618
0.2496
0.24958
0.249655
0.249839
0.250259
0.251125
0.252678
0.254886
0.258351
0.263228
0.270274
0.279379
0.291884
0.307351
0.327792
0.351937
0.382516
0.417769
0.459949
0.505503
0.556633
0.608
0.658375
0.7059
0.748315
0.78899
0.821425
0.85218
0.873343
0.894285
0.905404
0.916889
0.921536
0.927187
0.928879
0.931257
0.935051
0.945535
0.954673
0.963839
0.969392
0.973953
0.975855
0.975203
0.974368
0.972148
0.962667
0.951115
0.94383
0.941746
0.941425
0.943832
0.948423
0.953565
0.959026
0.962957
0.960744
0.954837
0.945448
0.940276
0.938144
0.93916
0.944371
0.949174
0.953962
0.951801
0.945791
0.94068
0.938221
0.938946
0.942769
0.947529
0.945298
0.939187
0.935185
0.935751
0.937063
0.940038
0.938558
0.935195
0.934522
0.936237
0.941821
0.943052
0.942741
0.94225
0.94304
0.942578
0.941157
0.939966
0.939372
0.938048
0.937278
0.937066
0.936214
0.935579
0.93627
0.935627
0.249673
0.249675
0.249678
0.249683
0.249687
0.249701
0.249694
0.249671
0.249646
0.249621
0.249595
0.249569
0.249546
0.249527
0.249513
0.249501
0.249499
0.249469
0.249587
0.249912
0.250935
0.252985
0.257408
0.264642
0.277369
0.294765
0.320581
0.351997
0.393301
0.439141
0.493535
0.550027
0.610531
0.670627
0.728369
0.784931
0.833865
0.882067
0.917843
0.943852
0.954164
0.963385
0.967131
0.971045
0.972475
0.971687
0.966448
0.953762
0.931087
0.931001
0.935511
0.942981
0.95143
0.960451
0.966172
0.967333
0.966111
0.960653
0.950477
0.941351
0.935983
0.936402
0.939109
0.94813
0.957021
0.956348
0.953838
0.946839
0.939262
0.937394
0.938577
0.945213
0.949131
0.947791
0.941962
0.935794
0.934533
0.936375
0.940727
0.940705
0.937444
0.934124
0.934572
0.938106
0.942283
0.94277
0.942414
0.942632
0.943238
0.9427
0.941319
0.940339
0.939808
0.938682
0.938166
0.937593
0.936616
0.936099
0.936565
0.935883
0.249705
0.249709
0.249714
0.249718
0.249723
0.249726
0.249729
0.249732
0.249736
0.249741
0.249748
0.249756
0.249766
0.249776
0.249786
0.249793
0.249801
0.249809
0.249814
0.24984
0.249814
0.249779
0.249746
0.249717
0.249697
0.249679
0.249671
0.249653
0.249884
0.250711
0.253371
0.258776
0.270342
0.288116
0.317757
0.355957
0.409338
0.470833
0.543364
0.615683
0.68392
0.746595
0.794534
0.838573
0.864461
0.888485
0.898283
0.906924
0.91735
0.940042
0.954038
0.967568
0.976228
0.979095
0.977127
0.973165
0.961137
0.942985
0.935292
0.933114
0.934896
0.941757
0.952543
0.963294
0.962065
0.957794
0.945762
0.938812
0.936112
0.938059
0.945982
0.953292
0.951169
0.943239
0.936143
0.933867
0.936449
0.942722
0.942872
0.939203
0.934379
0.933276
0.935869
0.940064
0.942115
0.94175
0.941741
0.943256
0.943455
0.942569
0.941299
0.940837
0.940567
0.939511
0.938866
0.938088
0.937153
0.936655
0.936949
0.936036
0.249778
0.24978
0.249781
0.249782
0.249782
0.249783
0.249784
0.249784
0.249783
0.249782
0.249782
0.249782
0.249783
0.249784
0.249785
0.249784
0.249782
0.249779
0.249778
0.249774
0.249771
0.24977
0.249769
0.249769
0.249769
0.249771
0.249772
0.249771
0.249779
0.249769
0.249756
0.249746
0.249736
0.249734
0.249724
0.249755
0.250277
0.25221
0.25887
0.2721
0.299429
0.338215
0.396617
0.465143
0.547522
0.633438
0.718058
0.803047
0.872093
0.916387
0.93425
0.948899
0.956889
0.961701
0.959947
0.953769
0.937612
0.929643
0.931784
0.938492
0.951647
0.960997
0.964519
0.96204
0.956276
0.943725
0.936386
0.934755
0.938838
0.949746
0.955217
0.95384
0.944719
0.936226
0.932796
0.93606
0.943656
0.945555
0.942565
0.935406
0.932082
0.93384
0.938947
0.94086
0.940639
0.940269
0.941333
0.944192
0.943544
0.942391
0.941735
0.941646
0.940968
0.940004
0.939214
0.938462
0.937772
0.937099
0.937091
0.936046
0.249759
0.249759
0.249759
0.249759
0.249759
0.249758
0.249758
0.249757
0.249757
0.249756
0.249756
0.249755
0.249754
0.249754
0.249753
0.249751
0.249749
0.249747
0.249746
0.249745
0.249744
0.249743
0.249741
0.249739
0.249736
0.249733
0.24973
0.249729
0.249727
0.249727
0.24973
0.249732
0.249736
0.249739
0.249744
0.24975
0.249748
0.249746
0.24975
0.249755
0.249763
0.249755
0.250158
0.252278
0.260557
0.278594
0.316535
0.373702
0.458646
0.551166
0.644637
0.732099
0.791648
0.852627
0.879086
0.905308
0.913106
0.932429
0.949826
0.96871
0.977489
0.976424
0.972599
0.958229
0.937948
0.929906
0.932118
0.940294
0.952627
0.962589
0.959704
0.94608
0.936248
0.932032
0.935462
0.944562
0.949571
0.946611
0.936948
0.931937
0.933019
0.937721
0.940926
0.94088
0.938652
0.939058
0.942689
0.944531
0.943634
0.942606
0.942149
0.942272
0.941397
0.940314
0.939706
0.938807
0.938399
0.937686
0.937265
0.935957
0.249742
0.249742
0.249743
0.249742
0.249742
0.249741
0.24974
0.249739
0.249738
0.249737
0.249737
0.249735
0.249734
0.249732
0.249729
0.249727
0.249724
0.249722
0.249719
0.249717
0.249716
0.249715
0.249715
0.249715
0.249715
0.249715
0.249716
0.249718
0.249721
0.249724
0.24973
0.249735
0.24974
0.249745
0.24975
0.249753
0.249758
0.249769
0.249783
0.249793
0.249792
0.249788
0.249774
0.249756
0.249733
0.249712
0.249692
0.249822
0.252236
0.260549
0.287854
0.33263
0.410871
0.50453
0.615642
0.730361
0.826319
0.907675
0.936031
0.956622
0.964045
0.963734
0.952948
0.924879
0.922577
0.929459
0.946143
0.959081
0.962846
0.96085
0.947501
0.931041
0.930563
0.934068
0.945744
0.951206
0.949179
0.939437
0.931671
0.931888
0.936815
0.940826
0.940993
0.937727
0.936905
0.939038
0.944451
0.944425
0.943246
0.942632
0.942615
0.942678
0.941638
0.940269
0.940184
0.939169
0.938593
0.938053
0.937263
0.935758
0.249749
0.249748
0.249746
0.249745
0.249743
0.249742
0.24974
0.249737
0.249735
0.249733
0.249731
0.249729
0.249727
0.249725
0.249722
0.24972
0.249717
0.249715
0.249714
0.249714
0.249715
0.249718
0.249722
0.249727
0.249731
0.249735
0.249739
0.249744
0.249749
0.249756
0.249761
0.249766
0.24977
0.249773
0.249774
0.249775
0.249777
0.249784
0.249792
0.249791
0.249783
0.249774
0.249764
0.249748
0.249726
0.249713
0.249704
0.249694
0.249689
0.24969
0.249704
0.249708
0.250626
0.255475
0.277509
0.320512
0.409903
0.520078
0.637067
0.747564
0.811011
0.874777
0.888807
0.90966
0.929223
0.958913
0.974214
0.973241
0.968816
0.945168
0.926073
0.926491
0.932276
0.946641
0.957586
0.954529
0.940867
0.931338
0.930177
0.93578
0.943278
0.942717
0.938436
0.934615
0.935981
0.941972
0.94515
0.944524
0.943197
0.942641
0.943225
0.942806
0.941426
0.940322
0.940434
0.939695
0.938786
0.938343
0.937286
0.935604
0.249749
0.249747
0.249745
0.249743
0.249741
0.24974
0.249739
0.249737
0.249735
0.249734
0.249732
0.24973
0.249728
0.249726
0.249726
0.249725
0.249726
0.249728
0.24973
0.249734
0.24974
0.249747
0.249756
0.249763
0.249769
0.249774
0.249777
0.24978
0.249783
0.249786
0.249789
0.249789
0.249788
0.249786
0.249781
0.249775
0.249772
0.249775
0.249779
0.249775
0.249767
0.24976
0.249753
0.249738
0.249726
0.249718
0.249714
0.249717
0.249725
0.249734
0.249747
0.249753
0.249753
0.249752
0.249768
0.249775
0.250747
0.257013
0.287259
0.344469
0.449566
0.576701
0.710724
0.847826
0.915939
0.948393
0.962765
0.962155
0.946721
0.913242
0.91891
0.935063
0.952783
0.959766
0.957509
0.9428
0.927051
0.927696
0.934287
0.945586
0.944976
0.941846
0.932883
0.933005
0.936918
0.944906
0.945381
0.943307
0.94285
0.943077
0.943598
0.942858
0.941363
0.940647
0.941091
0.939831
0.938687
0.938521
0.937346
0.935325
0.249724
0.249723
0.249721
0.24972
0.24972
0.24972
0.24972
0.249721
0.249722
0.249722
0.249723
0.249724
0.249725
0.249727
0.249728
0.249731
0.249736
0.249741
0.249747
0.249756
0.249764
0.249772
0.249779
0.249782
0.249783
0.249783
0.249781
0.249779
0.249777
0.249774
0.24977
0.249764
0.249756
0.249749
0.249741
0.249733
0.249727
0.249725
0.249726
0.249726
0.249724
0.249722
0.249719
0.249716
0.249715
0.249718
0.249725
0.249736
0.249745
0.249754
0.249757
0.249753
0.249748
0.249743
0.249746
0.249748
0.249762
0.249781
0.249786
0.249783
0.252531
0.26606
0.319402
0.414985
0.555998
0.689475
0.784173
0.859343
0.884538
0.906131
0.938278
0.966101
0.970814
0.966783
0.942585
0.923046
0.923958
0.932798
0.947713
0.950622
0.945693
0.932611
0.929265
0.932434
0.941897
0.945748
0.943664
0.942093
0.942819
0.944846
0.944081
0.941691
0.940434
0.941271
0.941569
0.939721
0.938422
0.938552
0.937399
0.93507
0.249725
0.249726
0.249728
0.24973
0.249733
0.249736
0.24974
0.249742
0.249745
0.249749
0.249751
0.249753
0.249758
0.24976
0.24976
0.249763
0.249769
0.249772
0.249774
0.249781
0.249791
0.249793
0.249792
0.249787
0.249782
0.249776
0.24977
0.249764
0.249756
0.249747
0.249739
0.249731
0.249718
0.249706
0.249699
0.249693
0.249686
0.249681
0.249684
0.249692
0.249699
0.249703
0.249707
0.249715
0.249727
0.249739
0.249754
0.249766
0.249772
0.249776
0.249769
0.249754
0.249743
0.249734
0.249726
0.249726
0.249741
0.249758
0.249773
0.249797
0.249819
0.249834
0.249828
0.250777
0.265442
0.309136
0.409544
0.548471
0.711986
0.859915
0.926564
0.955159
0.958288
0.945775
0.910684
0.917706
0.934604
0.950339
0.954466
0.949446
0.933258
0.9245
0.92759
0.939538
0.946031
0.945191
0.940865
0.941511
0.944873
0.945587
0.942868
0.940453
0.940087
0.943176
0.941756
0.939794
0.938554
0.938743
0.937671
0.935125
0.249781
0.249784
0.249786
0.249789
0.249792
0.249796
0.249798
0.2498
0.249801
0.249802
0.249801
0.249801
0.249801
0.2498
0.249797
0.249794
0.249797
0.249802
0.249802
0.249802
0.249802
0.249799
0.249794
0.249788
0.249778
0.249766
0.249758
0.24975
0.249737
0.249727
0.249722
0.249714
0.249699
0.249687
0.249681
0.249678
0.249679
0.249687
0.249699
0.249713
0.249727
0.249739
0.24975
0.249764
0.249777
0.249791
0.249804
0.24981
0.24981
0.249807
0.249794
0.249765
0.249743
0.24973
0.249721
0.249722
0.249732
0.249748
0.249775
0.249813
0.249842
0.249857
0.249862
0.24985
0.249823
0.249797
0.250853
0.263177
0.316708
0.438966
0.592456
0.729303
0.827505
0.8798
0.896185
0.938929
0.962685
0.964093
0.958279
0.931991
0.921213
0.924012
0.937216
0.947162
0.946233
0.939123
0.93915
0.943111
0.947236
0.945265
0.941483
0.939977
0.942341
0.943815
0.941787
0.939016
0.939257
0.939078
0.937136
0.934622
0.249828
0.249828
0.249829
0.24983
0.249831
0.249832
0.249832
0.24983
0.249829
0.249827
0.24982
0.249814
0.24981
0.249808
0.249807
0.249804
0.249802
0.249803
0.249805
0.249804
0.249802
0.249799
0.249793
0.249784
0.249776
0.249768
0.24976
0.249751
0.249742
0.249731
0.249724
0.249719
0.24971
0.249704
0.249701
0.249702
0.249707
0.249719
0.249736
0.249754
0.24977
0.249783
0.249795
0.249807
0.249819
0.249832
0.249843
0.249847
0.249846
0.249841
0.249823
0.249781
0.249747
0.249741
0.249737
0.249736
0.249745
0.249767
0.24981
0.249841
0.249857
0.249869
0.249872
0.249859
0.249829
0.24981
0.249805
0.249808
0.249816
0.252298
0.273612
0.347047
0.480572
0.66815
0.832116
0.92382
0.9496
0.953791
0.933166
0.912296
0.919923
0.9378
0.94824
0.947188
0.937501
0.932482
0.937735
0.948528
0.948487
0.943747
0.940136
0.9406
0.945446
0.944049
0.940394
0.938719
0.940813
0.939906
0.936779
0.934403
0.249848
0.249845
0.249842
0.24984
0.249838
0.249837
0.249835
0.249834
0.249834
0.24983
0.249814
0.249802
0.249798
0.249797
0.249798
0.249795
0.249793
0.249794
0.249797
0.249799
0.249798
0.249795
0.24979
0.24978
0.249774
0.24977
0.249765
0.249757
0.249748
0.24974
0.249733
0.249731
0.249733
0.249736
0.249741
0.249747
0.249755
0.249769
0.249782
0.249794
0.249802
0.249806
0.249812
0.249823
0.249835
0.249841
0.249846
0.249854
0.249859
0.249856
0.24984
0.249801
0.249773
0.249771
0.249773
0.249776
0.24979
0.249823
0.249857
0.249859
0.249859
0.249856
0.249856
0.24985
0.249831
0.249805
0.249805
0.24983
0.2499
0.249985
0.250119
0.250154
0.256114
0.29372
0.420927
0.585388
0.723846
0.853649
0.873064
0.914951
0.937053
0.957796
0.955281
0.936227
0.926925
0.932123
0.948268
0.951909
0.946939
0.941176
0.940183
0.945642
0.946652
0.942258
0.938987
0.939866
0.941868
0.939318
0.936022
0.934496
0.249817
0.249815
0.24981
0.249806
0.249805
0.249806
0.249803
0.249795
0.249787
0.249775
0.249765
0.249761
0.249758
0.249756
0.249758
0.24976
0.249762
0.249764
0.249764
0.249766
0.249768
0.249767
0.249762
0.249757
0.249757
0.249758
0.249759
0.249754
0.24975
0.249749
0.249751
0.249758
0.249774
0.249784
0.249786
0.249787
0.249791
0.249797
0.249802
0.249802
0.2498
0.249798
0.249798
0.249802
0.249805
0.249804
0.24981
0.249834
0.249845
0.249845
0.249834
0.24981
0.249808
0.249817
0.24983
0.249841
0.249858
0.249876
0.24987
0.24986
0.249837
0.249828
0.249827
0.249834
0.249831
0.24983
0.249858
0.249922
0.250045
0.250163
0.250217
0.250224
0.250229
0.250216
0.252174
0.27082
0.358185
0.513816
0.705628
0.883237
0.925873
0.951291
0.939238
0.913517
0.922282
0.944485
0.956335
0.951871
0.9403
0.938655
0.94549
0.94919
0.945227
0.939226
0.938402
0.943251
0.943006
0.937631
0.9349
0.935042
0.249767
0.249767
0.249765
0.24976
0.249758
0.249756
0.249754
0.249754
0.249753
0.249746
0.249742
0.249741
0.249741
0.249743
0.249745
0.249751
0.249761
0.249764
0.249764
0.249765
0.249769
0.249775
0.24978
0.249786
0.249793
0.2498
0.249802
0.249803
0.24981
0.249821
0.249832
0.249845
0.249847
0.249844
0.249833
0.249817
0.249807
0.249805
0.249804
0.2498
0.249793
0.249782
0.249771
0.249757
0.249748
0.24975
0.249773
0.249816
0.249832
0.249837
0.249843
0.249839
0.249838
0.249846
0.249858
0.249872
0.249886
0.24989
0.249873
0.249819
0.249783
0.249783
0.249797
0.249819
0.249849
0.249906
0.249976
0.250062
0.250194
0.250256
0.25025
0.250224
0.250194
0.25014
0.250064
0.249953
0.250055
0.258249
0.327437
0.474272
0.650593
0.822302
0.854357
0.905033
0.933756
0.96228
0.960457
0.940302
0.935672
0.940959
0.953021
0.951108
0.941129
0.936686
0.941534
0.945342
0.941976
0.935732
0.934244
0.936517
0.249734
0.249734
0.249735
0.249736
0.249738
0.24974
0.249742
0.249743
0.249744
0.249746
0.249751
0.249755
0.249761
0.249772
0.249784
0.249794
0.249807
0.249819
0.249826
0.249832
0.24984
0.249852
0.249863
0.249872
0.249884
0.249895
0.249898
0.249895
0.24989
0.249892
0.249896
0.249896
0.249889
0.249873
0.249848
0.249826
0.24981
0.249798
0.249789
0.249778
0.249759
0.24973
0.249707
0.249695
0.249691
0.2497
0.249746
0.249813
0.249833
0.249854
0.249878
0.249878
0.249858
0.249847
0.24985
0.249862
0.249871
0.249873
0.249856
0.24979
0.249743
0.249742
0.249767
0.249812
0.249899
0.250022
0.25009
0.250167
0.250271
0.250288
0.250269
0.250197
0.250094
0.24998
0.249888
0.249862
0.249865
0.249899
0.249942
0.254717
0.308334
0.439466
0.642582
0.852433
0.9159
0.953619
0.939769
0.924882
0.9362
0.953247
0.955348
0.944954
0.934226
0.936323
0.947604
0.946693
0.938274
0.933376
0.934965
0.938251
0.249753
0.249759
0.249765
0.249771
0.249775
0.24978
0.249787
0.249792
0.249798
0.249804
0.249812
0.249819
0.249828
0.249837
0.249845
0.249855
0.249866
0.249878
0.249889
0.249898
0.249906
0.249914
0.249921
0.249927
0.249935
0.249936
0.249926
0.249912
0.24991
0.249912
0.249911
0.249906
0.249892
0.249864
0.24983
0.249802
0.249783
0.249769
0.249761
0.24975
0.249722
0.24967
0.249652
0.249651
0.249653
0.249673
0.249756
0.249856
0.249899
0.249919
0.249925
0.249914
0.249866
0.24982
0.249811
0.249815
0.249829
0.249852
0.249852
0.249793
0.249733
0.249731
0.249802
0.249899
0.250043
0.25014
0.250157
0.250202
0.25029
0.250299
0.250255
0.250123
0.24995
0.249829
0.249803
0.24983
0.249915
0.250011
0.250085
0.250144
0.250133
0.252668
0.299609
0.429758
0.620771
0.822336
0.863484
0.923
0.95398
0.964213
0.956961
0.930858
0.93189
0.945371
0.951402
0.942623
0.933533
0.933432
0.939935
0.939816
0.24983
0.249834
0.249838
0.249839
0.24984
0.249844
0.249846
0.249846
0.249846
0.249847
0.249848
0.249851
0.249854
0.249857
0.249861
0.249867
0.249874
0.249881
0.249888
0.249898
0.249907
0.249914
0.249915
0.249913
0.249917
0.249916
0.24989
0.249866
0.249863
0.249858
0.249841
0.249815
0.249804
0.249794
0.24979
0.249783
0.249773
0.249761
0.249751
0.249743
0.249713
0.249704
0.249706
0.249718
0.249743
0.249778
0.249865
0.249984
0.250001
0.249994
0.249971
0.249935
0.249837
0.249762
0.249747
0.249741
0.249748
0.249821
0.249871
0.249852
0.24981
0.249827
0.24994
0.250077
0.250205
0.250228
0.250207
0.25022
0.250287
0.250273
0.250177
0.250011
0.249852
0.249787
0.249794
0.249859
0.250015
0.250115
0.25017
0.250154
0.250046
0.249829
0.249611
0.251797
0.296978
0.433249
0.661938
0.883496
0.937535
0.954627
0.93138
0.919975
0.940576
0.955661
0.95082
0.93249
0.93012
0.938336
0.943538
0.939904
0.249877
0.249878
0.249886
0.24989
0.249889
0.249886
0.249879
0.249871
0.249866
0.249864
0.249859
0.249852
0.249849
0.249846
0.249845
0.249846
0.249847
0.249845
0.249846
0.24985
0.249854
0.249863
0.249863
0.249856
0.249856
0.24984
0.249773
0.249747
0.249745
0.249727
0.249722
0.249739
0.249768
0.249777
0.249776
0.249786
0.249806
0.249803
0.249812
0.249863
0.249867
0.249843
0.249823
0.249813
0.249835
0.249857
0.249904
0.250013
0.25006
0.250049
0.250003
0.249896
0.249732
0.249651
0.24965
0.249668
0.249696
0.249778
0.249959
0.250074
0.250066
0.250031
0.250087
0.250224
0.250279
0.250276
0.250257
0.250263
0.250242
0.250148
0.250028
0.24991
0.249837
0.249809
0.249838
0.249985
0.250137
0.250205
0.250195
0.250102
0.249862
0.249474
0.249444
0.24954
0.249792
0.25279
0.311398
0.472488
0.675709
0.851457
0.883429
0.921003
0.967503
0.963846
0.936426
0.923029
0.930449
0.947954
0.946132
0.937858
0.249856
0.249849
0.249838
0.249824
0.249807
0.24979
0.249778
0.24977
0.249763
0.249756
0.249746
0.249734
0.249733
0.249733
0.249732
0.249731
0.249731
0.249734
0.249743
0.249754
0.249764
0.249772
0.249775
0.249777
0.249787
0.249779
0.24972
0.249678
0.24967
0.249669
0.249676
0.249718
0.249757
0.249758
0.249765
0.249823
0.249895
0.249928
0.249966
0.250014
0.250021
0.249958
0.249865
0.249842
0.249864
0.24988
0.249882
0.249954
0.249998
0.249993
0.249964
0.24987
0.249703
0.249602
0.249591
0.249627
0.249714
0.249861
0.250097
0.250281
0.2503
0.250236
0.250222
0.250275
0.250297
0.250288
0.250253
0.250188
0.250043
0.249913
0.249868
0.249858
0.249873
0.249908
0.249991
0.250146
0.250239
0.250238
0.250184
0.24996
0.249551
0.249349
0.24939
0.24967
0.250144
0.250966
0.251515
0.257495
0.328318
0.503197
0.745938
0.897382
0.956903
0.944805
0.915306
0.923882
0.948447
0.951046
0.943448
0.935256
0.249653
0.249648
0.249642
0.249636
0.249627
0.249621
0.249628
0.249648
0.249656
0.249655
0.249653
0.249661
0.249677
0.249678
0.249666
0.249663
0.249675
0.249704
0.249733
0.249754
0.24977
0.249791
0.249811
0.249824
0.249837
0.249862
0.249873
0.249847
0.249814
0.249807
0.24983
0.24984
0.24981
0.249808
0.24988
0.250006
0.250034
0.250031
0.250027
0.250057
0.250066
0.25001
0.249889
0.249848
0.249844
0.249853
0.249813
0.2498
0.249913
0.249984
0.249976
0.249907
0.249743
0.249637
0.24965
0.249747
0.249916
0.250096
0.250295
0.250416
0.250434
0.25039
0.250303
0.250286
0.250295
0.25025
0.250135
0.249978
0.249815
0.24978
0.2498
0.249885
0.25002
0.250109
0.250186
0.250261
0.250278
0.250231
0.250039
0.249649
0.249331
0.249308
0.249451
0.249935
0.250442
0.251121
0.251604
0.252451
0.25343
0.263945
0.353533
0.540335
0.763347
0.841985
0.901053
0.941042
0.966843
0.95419
0.931436
0.93476
0.249604
0.249615
0.249623
0.249626
0.249624
0.249638
0.249684
0.249704
0.249704
0.249704
0.249716
0.249717
0.249715
0.249746
0.249847
0.249875
0.249871
0.249893
0.249974
0.250028
0.250057
0.250106
0.250123
0.25012
0.250136
0.250138
0.250106
0.250095
0.250088
0.250025
0.249992
0.250004
0.249979
0.249935
0.249957
0.25002
0.250036
0.250012
0.249961
0.249936
0.249885
0.249856
0.249857
0.249801
0.249709
0.249678
0.249664
0.249682
0.249865
0.250011
0.250028
0.250061
0.250069
0.249957
0.249886
0.249945
0.250121
0.250304
0.250405
0.250473
0.250483
0.250447
0.250312
0.250184
0.250156
0.250108
0.249977
0.249812
0.249716
0.249731
0.249799
0.249967
0.250141
0.250235
0.250261
0.250298
0.25018
0.249948
0.24962
0.249284
0.249207
0.249276
0.249737
0.250199
0.250584
0.251008
0.251285
0.252032
0.253453
0.256175
0.257214
0.275152
0.364631
0.586481
0.833657
0.920902
0.956667
0.920803
0.925245
0.941044
0.249588
0.24959
0.249582
0.249579
0.249599
0.249656
0.24971
0.249743
0.249775
0.249836
0.249865
0.249869
0.249891
0.249962
0.250029
0.250037
0.25002
0.250023
0.250076
0.250157
0.250214
0.250248
0.250274
0.250309
0.250325
0.250286
0.250219
0.250211
0.250208
0.250137
0.250035
0.250034
0.250016
0.249914
0.249749
0.249615
0.249528
0.249449
0.249389
0.249404
0.249467
0.249485
0.249537
0.249658
0.249645
0.24957
0.249561
0.24963
0.249891
0.250062
0.250114
0.250186
0.250233
0.250149
0.25002
0.250059
0.250211
0.250394
0.25046
0.250398
0.250265
0.250094
0.249874
0.249777
0.249797
0.249803
0.249752
0.249674
0.249642
0.249704
0.249848
0.250034
0.250175
0.250279
0.250265
0.25004
0.249609
0.249311
0.249061
0.249
0.249027
0.24941
0.250003
0.250286
0.250386
0.250417
0.250735
0.251701
0.253817
0.256019
0.257519
0.257804
0.258068
0.284522
0.409169
0.616384
0.821929
0.866789
0.932852
0.949223
0.249495
0.2495
0.249521
0.249562
0.249613
0.249668
0.24972
0.249732
0.24974
0.249763
0.24981
0.249917
0.249996
0.250001
0.249969
0.249924
0.249909
0.249912
0.249945
0.249997
0.250042
0.250078
0.250109
0.250144
0.250167
0.250152
0.250066
0.250012
0.250009
0.250001
0.249887
0.249635
0.249446
0.249301
0.249157
0.249038
0.248943
0.248877
0.24888
0.248997
0.249139
0.249197
0.24934
0.24952
0.249549
0.249548
0.24956
0.249635
0.249751
0.249901
0.250085
0.2502
0.250225
0.250159
0.250044
0.250075
0.250197
0.250216
0.250111
0.24984
0.249509
0.249286
0.249246
0.249285
0.249371
0.249442
0.24946
0.249468
0.249483
0.249548
0.249667
0.249863
0.249913
0.249871
0.249722
0.249307
0.24892
0.248735
0.248712
0.248755
0.249135
0.249788
0.250141
0.25008
0.249784
0.249801
0.250257
0.251766
0.254329
0.256249
0.256995
0.257252
0.257569
0.258038
0.259771
0.302721
0.451938
0.708114
0.897904
0.941028
0.249343
0.249334
0.249314
0.249289
0.249281
0.24928
0.249288
0.24928
0.249268
0.249268
0.249286
0.249354
0.249404
0.249394
0.249332
0.249207
0.249152
0.249152
0.249154
0.249159
0.249204
0.249258
0.249254
0.249248
0.249274
0.249299
0.249284
0.249264
0.249285
0.249297
0.249232
0.249055
0.249046
0.249037
0.248922
0.248744
0.248625
0.248602
0.248631
0.248799
0.248985
0.249076
0.249253
0.249508
0.249564
0.249571
0.249577
0.249592
0.249776
0.250009
0.250018
0.249962
0.249897
0.24984
0.249774
0.249758
0.249782
0.249792
0.249715
0.249497
0.249189
0.248963
0.248953
0.249029
0.249185
0.249308
0.249378
0.249423
0.249514
0.249633
0.249784
0.249823
0.249764
0.249583
0.249324
0.24886
0.248624
0.248585
0.248685
0.249138
0.249889
0.250263
0.25017
0.249653
0.249365
0.249534
0.250201
0.252636
0.254989
0.256327
0.256751
0.257045
0.257478
0.258563
0.259215
0.259514
0.263608
0.34119
0.524546
0.79285
0.249209
0.249162
0.249131
0.249114
0.249087
0.249029
0.249
0.248999
0.249005
0.249003
0.249002
0.249025
0.249084
0.249092
0.249048
0.248952
0.248934
0.248939
0.248947
0.248969
0.249067
0.249181
0.249191
0.249165
0.249178
0.249261
0.249305
0.24931
0.24935
0.249413
0.249428
0.249389
0.249386
0.249419
0.249409
0.249355
0.249355
0.249407
0.249545
0.24988
0.250258
0.250388
0.250511
0.250799
0.250943
0.250935
0.250788
0.250442
0.250266
0.250183
0.250074
0.249932
0.249764
0.249676
0.249671
0.249715
0.249753
0.249762
0.249699
0.24951
0.249268
0.249161
0.249202
0.249349
0.249586
0.249901
0.250187
0.250463
0.250651
0.250588
0.250302
0.24988
0.249584
0.249269
0.249044
0.248684
0.248663
0.248979
0.249671
0.250481
0.250944
0.250689
0.250143
0.249375
0.249306
0.249592
0.251275
0.253774
0.256005
0.256437
0.256691
0.257028
0.258295
0.259789
0.2602
0.260221
0.260913
0.261475
0.273701
0.504886
0.249269
0.249234
0.249211
0.249197
0.24918
0.249131
0.24908
0.249071
0.249069
0.249068
0.249074
0.249119
0.249203
0.249224
0.249221
0.249215
0.249201
0.249184
0.249174
0.249194
0.249338
0.249505
0.249529
0.249509
0.249524
0.249635
0.249861
0.249999
0.250076
0.25019
0.250382
0.250671
0.251071
0.251348
0.251361
0.251298
0.251264
0.251276
0.251345
0.251507
0.251639
0.25166
0.251634
0.251553
0.251557
0.251532
0.251195
0.250675
0.250383
0.250215
0.250068
0.249956
0.249901
0.249876
0.249887
0.249963
0.250048
0.250133
0.250205
0.250247
0.25034
0.250513
0.250699
0.250937
0.251238
0.251311
0.251378
0.251475
0.251429
0.251142
0.250548
0.249973
0.249616
0.24928
0.24932
0.249748
0.250772
0.251698
0.252245
0.252135
0.251772
0.251036
0.250131
0.249676
0.250064
0.25196
0.254184
0.255139
0.256111
0.257291
0.25806
0.259417
0.260698
0.261195
0.26121
0.261582
0.262443
0.26294
0.263443
0.284513
0.251819
0.251875
0.251994
0.252158
0.252327
0.252455
0.252536
0.252599
0.252648
0.252687
0.25274
0.252819
0.252899
0.253021
0.253186
0.253223
0.253217
0.253166
0.253119
0.253133
0.253236
0.253308
0.253315
0.253309
0.253269
0.253173
0.253139
0.253191
0.253243
0.253322
0.253435
0.253433
0.253426
0.253437
0.253462
0.253422
0.253262
0.253159
0.253163
0.253215
0.253216
0.253165
0.253034
0.252858
0.252749
0.252625
0.252438
0.25225
0.252206
0.252256
0.252458
0.252588
0.252595
0.252533
0.252414
0.252415
0.252514
0.252728
0.252943
0.253161
0.253434
0.253625
0.253631
0.253572
0.25335
0.252921
0.252702
0.252666
0.252606
0.252321
0.251835
0.251873
0.252023
0.252419
0.253025
0.253576
0.254241
0.254233
0.253937
0.25322
0.252154
0.251413
0.251501
0.252621
0.254255
0.255879
0.256601
0.256215
0.256526
0.258161
0.260686
0.263138
0.262788
0.262305
0.262867
0.264266
0.265369
0.266504
0.26739
0.268243
0.258153
0.258121
0.25806
0.258014
0.257999
0.257965
0.257865
0.257852
0.257855
0.257812
0.257693
0.257507
0.257332
0.257269
0.257294
0.257314
0.25728
0.257161
0.256899
0.256626
0.256569
0.256545
0.25648
0.256359
0.256189
0.255851
0.255515
0.255464
0.25544
0.255319
0.254941
0.254515
0.254208
0.253935
0.253564
0.253242
0.253135
0.253117
0.25323
0.253404
0.253377
0.253132
0.25306
0.253041
0.253029
0.252956
0.252782
0.25279
0.252993
0.253435
0.253974
0.254419
0.254506
0.254514
0.25452
0.254539
0.254644
0.254938
0.255308
0.255607
0.255866
0.255898
0.255727
0.255368
0.254808
0.254491
0.254186
0.253699
0.253612
0.253917
0.254927
0.256067
0.256875
0.257321
0.257502
0.257322
0.256847
0.256288
0.25547
0.255461
0.256077
0.257367
0.258815
0.260089
0.260497
0.259449
0.2587
0.259939
0.263612
0.266932
0.268858
0.268373
0.268102
0.26879
0.27013
0.270704
0.271265
0.272047
0.272838
0.273585
0.265611
0.265615
0.265609
0.265619
0.265626
0.265597
0.265585
0.265609
0.265656
0.265656
0.265622
0.265625
0.265638
0.265599
0.265605
0.265781
0.266023
0.266163
0.26626
0.26639
0.266521
0.266641
0.266796
0.266874
0.26688
0.266866
0.26675
0.266692
0.266755
0.266869
0.2669
0.266983
0.267188
0.26749
0.267816
0.268115
0.268374
0.268679
0.269241
0.269673
0.269903
0.270202
0.270532
0.271014
0.2718
0.272189
0.272032
0.271905
0.271977
0.272345
0.272892
0.273304
0.273342
0.2733
0.273188
0.272955
0.272587
0.272174
0.271779
0.271571
0.271521
0.27139
0.271029
0.270822
0.270936
0.271345
0.271691
0.271816
0.271863
0.271945
0.272093
0.272304
0.272429
0.272297
0.271868
0.271374
0.270986
0.271053
0.271376
0.271938
0.272607
0.272516
0.272197
0.271491
0.271011
0.27141
0.272888
0.275318
0.278432
0.279248
0.279096
0.279062
0.279658
0.280541
0.281261
0.281941
0.282385
0.28254
0.282131
0.282453
0.287094
0.287025
0.286839
0.286831
0.286851
0.286741
0.286718
0.286916
0.287012
0.287013
0.286987
0.286945
0.286895
0.286792
0.286783
0.287001
0.287288
0.287343
0.287365
0.287449
0.287588
0.287721
0.287967
0.288327
0.288433
0.288525
0.288693
0.288876
0.289021
0.289088
0.289102
0.289107
0.289066
0.288913
0.288593
0.288113
0.287623
0.28718
0.286802
0.286423
0.28614
0.286038
0.28588
0.285643
0.285608
0.285562
0.285354
0.284884
0.284148
0.283358
0.282607
0.28179
0.281071
0.280881
0.280986
0.281122
0.280984
0.280352
0.279528
0.278777
0.278581
0.278809
0.279218
0.279686
0.28034
0.281075
0.281515
0.281791
0.281962
0.2819
0.281605
0.28109
0.280622
0.280261
0.280149
0.280219
0.280341
0.280456
0.280651
0.28081
0.280663
0.28038
0.279867
0.279931
0.280566
0.281688
0.282913
0.284689
0.285655
0.286528
0.28736
0.28829
0.289192
0.290079
0.290765
0.290658
0.290707
0.290944
0.291488
0.292647
0.308495
0.308444
0.308327
0.308042
0.307694
0.307464
0.307457
0.307681
0.307808
0.307752
0.307404
0.306844
0.306752
0.30681
0.30667
0.306307
0.306023
0.305751
0.305248
0.304775
0.304527
0.304287
0.303811
0.303524
0.30329
0.302955
0.302713
0.302499
0.302264
0.302032
0.301878
0.301872
0.301961
0.302109
0.302169
0.302165
0.302248
0.302622
0.302733
0.302551
0.302237
0.301977
0.30172
0.301484
0.301314
0.301163
0.300926
0.300511
0.300337
0.300468
0.300774
0.301133
0.301482
0.302028
0.303053
0.303416
0.303447
0.303632
0.303934
0.304223
0.304596
0.30467
0.304561
0.304263
0.303812
0.303213
0.302636
0.302177
0.301625
0.300945
0.300184
0.29948
0.298862
0.298216
0.298195
0.298349
0.298242
0.298034
0.297928
0.297575
0.296868
0.296291
0.295862
0.295655
0.295597
0.295457
0.295629
0.296149
0.297937
0.299841
0.30065
0.300619
0.300408
0.300131
0.299543
0.299089