/*--------------------------------*- C++ -*----------------------------------*\
  =========                 |
  \\      /  F ield         | OpenFOAM: The Open Source CFD Toolbox
   \\    /   O peration     | Website:  https://openfoam.org
    \\  /    A nd           | Version:  7
     \\/     M anipulation  |
\*---------------------------------------------------------------------------*/
FoamFile
{
    version     2.0;
    format      ascii;
    class       volScalarField;
    location    "5.9";
    object      T;
}
// * * * * * * * * * * * * * * * * * * * * * * * * * * * * * * * * * * * * * //

dimensions      [0 0 0 1 0 0 0];

internalField   nonuniform List<scalar> 
1750
(
1.4468
1.5224
1.46181
1.39714
1.37343
1.39937
1.42165
1.44035
1.45798
1.45754
0.392634
0.877444
1.57331
1.85649
1.8463
1.80101
1.73401
1.64897
1.62908
1.59719
0.330972
0.34422
0.493773
1.00307
1.40832
1.56022
1.66605
1.66501
1.66214
1.6293
0.3659
0.391668
0.422911
0.446891
0.46104
0.66468
0.955823
1.20185
1.32588
1.40893
0.471717
0.481917
0.509834
0.51531
0.519226
0.525334
0.536682
0.580562
0.700477
0.979117
0.564887
0.570994
0.579997
0.589828
0.595035
0.601848
0.61486
0.627554
0.630689
0.645277
0.683169
0.682156
0.681429
0.684756
0.690147
0.693672
0.693057
0.692451
0.688391
0.683866
0.815865
0.804561
0.797577
0.789937
0.780297
0.771168
0.763169
0.75698
0.752526
0.74582
0.94294
0.928123
0.912975
0.899483
0.884806
0.869239
0.855348
0.842077
0.831373
0.815367
1.01047
1.00461
0.996168
0.986395
0.974922
0.960991
0.945976
0.929651
0.914121
0.890215
1.02063
1.02011
1.01921
1.01781
1.01548
1.01156
1.00548
0.997089
0.987268
0.966676
1.01456
1.01562
1.0164
1.01691
1.01692
1.01679
1.0164
1.01554
1.01418
1.00835
1.00345
1.00468
1.0061
1.00778
1.0095
1.01107
1.01235
1.01328
1.01374
1.01352
1.00017
1.00031
1.00053
1.00091
1.0015
1.00238
1.00353
1.005
1.00661
1.00896
1
1.00001
1.00001
1.00002
1.00005
1.00012
1.00024
1.00049
1.0009
1.00232
0.489494
0.38455
0.326753
0.355873
0.459676
0.560488
0.682324
0.826936
0.954362
1.01426
1.02088
1.01323
1.00257
1.00012
1
0.507835
0.390995
0.331934
0.386362
0.492345
0.599719
0.73117
0.875845
0.985294
1.02178
1.0211
1.01064
1.00137
1.00004
1
0.51046
0.394574
0.356605
0.417527
0.508486
0.627921
0.770507
0.914518
1.00381
1.02401
1.02086
1.00779
1.0007
1.00002
1
0.508009
0.393543
0.366572
0.440355
0.530295
0.666244
0.824559
0.95249
1.01616
1.02495
1.01849
1.00504
1.00034
1.00001
1
0.507185
0.380136
0.370065
0.447515
0.585153
0.736678
0.87459
0.981075
1.02364
1.02525
1.0153
1.00306
1.00015
1
1
0.490753
0.371328
0.383507
0.476959
0.641114
0.789474
0.918793
1.00492
1.02748
1.02514
1.01165
1.00155
1.00005
1
1
0.474634
0.397621
0.412972
0.557937
0.702978
0.840863
0.961532
1.02149
1.02889
1.02242
1.0076
1.00066
1.00002
1
1
0.460266
0.391649
0.451174
0.618622
0.766941
0.902244
0.997112
1.02917
1.02916
1.01881
1.00424
1.00026
1.00001
1
1
0.408442
0.366848
0.508541
0.681475
0.834842
0.957456
1.01894
1.03176
1.02834
1.01325
1.00187
1.00008
1
1
1
0.35309
0.40876
0.610129
0.775938
0.908902
0.996506
1.03071
1.03248
1.02399
1.00756
1.00072
1.00002
1
1
1
0.408299
0.50861
0.694267
0.85646
0.968706
1.02301
1.03486
1.03244
1.01793
1.00358
1.00022
1.00001
1
1
1
0.0907625
0.566816
0.792688
0.935529
1.01064
1.03593
1.0358
1.02795
1.01021
1.00124
1.00005
1
1
1
1
0.219157
0.666979
0.896315
0.996267
1.03364
1.03914
1.03594
1.0198
1.00439
1.00034
1.00001
1
1
1
1
0.471455
0.821389
0.981217
1.02856
1.04146
1.03978
1.02814
1.00984
1.0013
1.00006
1
1
1
1
1
0.812162
0.97314
1.02932
1.04064
1.0427
1.03532
1.01716
1.00357
1.00027
1.00001
1
1
1
1
1
1.04122
1.04215
1.04281
1.04202
1.0402
1.02406
1.00656
1.00045
1.00001
1
1
1
1
1
1
1.0412
1.04255
1.04323
1.04126
1.03768
1.02162
1.00631
1.00068
1.00003
1
1
1
1
1
1
1.04128
1.04327
1.0437
1.04139
1.03364
1.01422
1.00209
1.0001
1
1
1
1
1
1
1
1.04112
1.04359
1.0437
1.03948
1.02703
1.00877
1.00095
1.00004
1
1
1
1
1
1
1
1.04102
1.04381
1.0434
1.03616
1.02049
1.00458
1.00034
1.00001
1
1
1
1
1
1
1
1.04196
1.04437
1.04332
1.03182
1.01345
1.002
1.0001
1
1
1
1
1
1
1
1
1.04457
1.0445
1.04236
1.02507
1.00701
1.00072
1.00003
1
1
1
1
1
1
1
1
1.04828
1.04093
1.03621
1.01665
1.00344
1.00024
1.00001
1
1
1
1
1
1
1
1
1.05175
1.03803
1.02869
1.01002
1.00131
1.00006
1
1
1
1
1
1
1
1
1
1.0535
1.03469
1.01944
1.00457
1.00042
1.00002
1
1
1
1
1
1
1
1
1
1.05293
1.02805
1.01186
1.00191
1.00011
1
1
1
1
1
1
1
1
1
1
1.04715
1.02125
1.0061
1.00062
1.00002
1
1
1
1
1
1
1
1
1
1
1.04077
1.01441
1.00252
1.00015
1
1
1
1
1
1
1
1
1
1
1
1.03173
1.00825
1.00084
1.00003
1
1
1
1
1
1
1
1
1
1
1
1.02109
1.00404
1.00023
1
1
1
1
1
1
1
1
1
1
1
1
1.01061
1.00093
1.00004
1
1
1
1
1
1
1
1
1
1
1
1
1
1
1
1
1
1
1
1
1
1
1
1
1
1
1
1
1
1
1
1
1
1
1
1
1
1
1
1
1
1
1
1
1
1
1
1
1
1
1
1
1
1
1
1
1
1
1
1
1
1
1
1
1
1
1
1
1
1
1
1
1
1
1
1
1
1
1
1
1
1
1
1
1
1
1
1
1
1
1
1
1
1
1
1
1
1
1
1
1
1
1
1
1
1
1
1
1
1
1
1
1
1
1
1
1
1
1
1
1
1
1
1
1
1
1
1
1
1
1
1
1
1
1
1
1
1
1
1
1
1
1
1
1
1
1
1.07673
1
1
1
1
1
1
1
1
1
1.01196
1
1
1
1
1
1
1
1
1
1.00093
1
1
1
1
1
1
1
1
1
1.00008
1
1
1
1
1
1
1
1
1
1
1
1
1
1
1
1
1
1
1
1
1
1
1
1
1
1
1
1
1
1
1
1
1
1
1
1
1
1
1
1
1
1
1
1
1
1
1
1
1
1
1
1
1
1
1
1
1
1
1
1
1
1
1
1
1
1
1
1
1
1
1
1
1
1
1
1
1
1
1
1
1
1
1
1
1
1
1
1
1
1
1
1
1
1
1
1
1
1
1
1
1
1
1
1
1
1
1
1
1
1
1
1
1
1
1
1
1
1
1
1
1
1
1
1
1
1
1
1
1
1
1
1
1
1
1
1
1
1
1
1
1
1
1
1
1
1
1
1
1
1
1
1
1
1
1
1
1
1
1
1
1
1
1
1
1
1
1
1
1
2.5299
1.98753
1.18351
1.00001
1
1
1
1
1
1
1
1
1
1
1
1
1
1
1
1
2.53582
2.43902
2.21007
1.52885
0.999913
1
1
1
1
1
1
1
1
1
1
1
1
1
1
1
2.47766
2.41925
2.39919
2.23185
1.79217
1.05144
1
1
1
1
1
1
1
1
1
1
1
1
1
1
2.44083
2.4106
2.38633
2.35263
2.27371
1.91142
1.10879
0.99979
1
1
1
1
1
1
1
1
1
1
1
1
2.42204
2.40641
2.38424
2.34503
2.31389
2.24105
1.84666
1.08691
0.999792
1
1
1
1
1
1
1
1
1
1
1
2.40786
2.39438
2.37017
2.33684
2.3103
2.29436
2.24138
1.79892
1.05548
0.999812
1
1
1
1
1
1
1
1
1
1
2.39344
2.38095
2.35947
2.33113
2.30641
2.28452
2.2816
2.21813
1.69731
1.02075
1
1
1
1
1
1
1
1
1
1
2.37975
2.36857
2.35105
2.32717
2.30279
2.28297
2.27383
2.25611
2.16273
1.51807
0.99978
1
1
1
1
1
1
1
1
1
2.36875
2.35936
2.34578
2.3238
2.29994
2.28001
2.26639
2.25106
2.24189
2.09148
1.32475
0.998763
1
1
1
1
1
1
1
1
2.36078
2.35244
2.34074
2.3195
2.29592
2.27383
2.25753
2.24266
2.2341
2.21676
1.88692
1.11786
0.999481
1
1
1
1
1
1
1
2.35442
2.34607
2.33442
2.31329
2.28934
2.26639
2.24918
2.23421
2.22285
2.21
2.13358
1.56322
1.00827
1
1
1
1
1
1
1
2.34826
2.33905
2.3264
2.3053
2.28186
2.25948
2.24143
2.22793
2.21545
2.20307
2.202
2.03691
1.3042
0.998992
1
1
1
1
1
1
2.34029
2.33028
2.31725
2.29691
2.27583
2.25435
2.23665
2.22386
2.21344
2.20419
2.19944
2.14375
1.74009
1.05357
0.99977
0.999995
1
1
1
1
2.33184
2.32224
2.3094
2.28964
2.26969
2.24857
2.23051
2.21807
2.20887
2.20174
2.19159
2.16151
2.05256
1.40884
1.00226
0.999999
1
1
1
1
2.30712
2.28377
2.266
2.2459
2.22898
2.21325
2.20112
2.19474
2.19049
2.18628
2.17784
2.16151
2.13403
1.79375
1.06
0.998027
0.999955
1
1
1
1.70518
1.91378
1.98624
2.03355
2.06177
2.08018
2.09146
2.10349
2.11421
2.12393
2.13159
2.12769
2.12183
2.08327
1.62564
1.06345
1.00057
1
1
1
1.28231
1.60557
1.7232
1.81753
1.89056
1.9323
1.96972
1.99218
2.01893
2.03828
2.06029
2.06724
2.08508
2.08615
1.99885
1.45555
1.02648
1.00019
1
1
1.31617
1.46898
1.53438
1.61895
1.71849
1.79368
1.84786
1.89162
1.92126
1.95535
1.9816
2.00567
2.02573
2.05666
2.03615
1.84029
1.2478
1.00659
1.00003
1
1.37959
1.39244
1.41707
1.50855
1.58979
1.67411
1.73419
1.79736
1.83498
1.87799
1.9094
1.94501
1.96979
2.00053
2.01078
1.97465
1.60388
1.08038
1.00097
1
1.43428
1.37541
1.33388
1.40125
1.48066
1.56929
1.63794
1.69761
1.75366
1.79304
1.83903
1.8762
1.915
1.93431
1.96677
1.96456
1.83806
1.32012
1.0127
1.00008
1.45778
1.38177
1.32897
1.34484
1.38605
1.45926
1.548
1.60733
1.67496
1.71696
1.76616
1.8091
1.85264
1.87876
1.91018
1.94309
1.9072
1.6083
1.09935
1.00131
1.4477
1.39114
1.34387
1.32855
1.34013
1.39732
1.47646
1.54406
1.60896
1.66468
1.70474
1.75734
1.79563
1.83232
1.86473
1.90921
1.89893
1.7427
1.28261
1.01207
1.43247
1.39316
1.35164
1.31085
1.30437
1.35327
1.41717
1.48737
1.54552
1.61341
1.65523
1.70659
1.74559
1.78043
1.81649
1.86269
1.88229
1.81575
1.48494
1.06142
1.42503
1.39461
1.34965
1.30186
1.28333
1.30615
1.34675
1.4247
1.48016
1.54811
1.60238
1.64556
1.69339
1.7246
1.76576
1.81427
1.85682
1.83559
1.65625
1.20757
1.43009
1.40338
1.35227
1.30413
1.28662
1.30019
1.31267
1.36768
1.43422
1.49075
1.55896
1.59964
1.65092
1.68653
1.72915
1.77724
1.8242
1.82626
1.71588
1.38992
1.43005
1.40523
1.35632
1.31202
1.29328
1.29138
1.29698
1.34071
1.40488
1.45793
1.52354
1.56673
1.61375
1.65482
1.69208
1.73512
1.77876
1.8089
1.73437
1.55935
1.42519
1.40242
1.3582
1.31935
1.29706
1.28269
1.28175
1.31294
1.37173
1.42513
1.48003
1.53081
1.56809
1.61654
1.64799
1.68821
1.7329
1.77949
1.74448
1.70982
1.4187
1.398
1.36051
1.32322
1.29814
1.28314
1.27863
1.29021
1.32028
1.38248
1.42606
1.48565
1.51798
1.5736
1.61314
1.65826
1.7029
1.74445
1.76686
1.82224
1.40915
1.39208
1.35919
1.32443
1.30027
1.28511
1.28037
1.28999
1.30318
1.35395
1.39929
1.44926
1.48838
1.53417
1.58536
1.62892
1.67226
1.712
1.78311
1.91713
1.39775
1.38734
1.3565
1.32421
1.29933
1.2849
1.28387
1.29014
1.29443
1.33258
1.377
1.42052
1.46436
1.49905
1.5537
1.59842
1.63087
1.67731
1.79628
2.00136
1.37661
1.36764
1.34555
1.31847
1.29395
1.28056
1.28247
1.27973
1.27784
1.30467
1.34943
1.38542
1.43536
1.46984
1.51183
1.56354
1.60393
1.65397
1.79963
2.06183
1.32302
1.31999
1.32071
1.30706
1.28701
1.27685
1.2756
1.26908
1.26603
1.27644
1.31484
1.35353
1.39197
1.44266
1.48427
1.53168
1.5784
1.63788
1.81803
2.11369
1.23665
1.25379
1.28028
1.28972
1.28217
1.27366
1.26973
1.26451
1.26219
1.26942
1.27949
1.32561
1.36382
1.41012
1.46005
1.50339
1.54574
1.6193
1.83164
2.13686
1.16658
1.19262
1.233
1.26321
1.27378
1.26816
1.2629
1.25732
1.25895
1.26309
1.25562
1.28842
1.33953
1.38047
1.42807
1.47207
1.51537
1.61764
1.8412
2.15773
1.1513
1.14568
1.17601
1.22375
1.25476
1.25872
1.25252
1.24559
1.24716
1.24838
1.2452
1.26424
1.30654
1.35133
1.39233
1.43825
1.4923
1.63238
1.85702
2.1559
1.14469
1.10517
1.12926
1.17925
1.2219
1.24282
1.24399
1.23855
1.2334
1.2325
1.23547
1.25314
1.27866
1.32031
1.36024
1.40465
1.46716
1.65239
1.84777
2.12778
1.16191
1.09998
1.094
1.13417
1.17781
1.2169
1.23595
1.23376
1.22821
1.22404
1.22359
1.23819
1.25569
1.29001
1.32651
1.37102
1.46277
1.69243
1.84119
2.08403
1.20966
1.12436
1.09393
1.09823
1.1299
1.18321
1.21892
1.22903
1.22488
1.21843
1.21515
1.22284
1.23162
1.25968
1.29576
1.34604
1.48197
1.72432
1.82092
2.02943
1.25999
1.16251
1.10203
1.08581
1.09498
1.14218
1.18722
1.21523
1.22019
1.21569
1.21346
1.21146
1.20893
1.23118
1.26793
1.33081
1.51894
1.75734
1.7929
1.96242
1.31264
1.21968
1.16588
1.11519
1.09556
1.10619
1.13513
1.175
1.19882
1.2052
1.20438
1.19489
1.18553
1.20173
1.24154
1.37532
1.59433
1.74303
1.73621
1.83804
)
;

boundaryField
{
    inlet
    {
        type            fixedValue;
        value           uniform 1;
    }
    outlet
    {
        type            inletOutlet;
        inletValue      uniform 1;
        value           nonuniform List<scalar> 
35
(
1.31263
1.2196
1.16577
1.11508
1.09545
1.10604
1.13492
1.1748
1.19869
1.20507
1.20426
1.19481
1.18544
1.20156
1.24095
1.37386
1.59305
1.74235
1.73577
1.83842
1.45766
1.59717
1.62899
1.40854
0.978768
0.645192
0.683894
0.745777
0.815367
0.890226
0.966677
1.00835
1.01352
1.00896
1.00232
)
;
    }
    airfoil
    {
        type            zeroGradient;
    }
    top
    {
        type            symmetryPlane;
    }
    bottom
    {
        type            symmetryPlane;
    }
    defaultFaces
    {
        type            empty;
    }
}


// ************************************************************************* //
