/*--------------------------------*- C++ -*----------------------------------*\
  =========                 |
  \\      /  F ield         | OpenFOAM: The Open Source CFD Toolbox
   \\    /   O peration     | Website:  https://openfoam.org
    \\  /    A nd           | Version:  7
     \\/     M anipulation  |
\*---------------------------------------------------------------------------*/
FoamFile
{
    version     2.0;
    format      ascii;
    class       volVectorField;
    location    "3.4";
    object      U;
}
// * * * * * * * * * * * * * * * * * * * * * * * * * * * * * * * * * * * * * //

dimensions      [0 1 -1 0 0 0 0];

internalField   nonuniform List<vector> 
11200
(
(2.54845 -0.658506 0)
(2.55064 -0.311779 0)
(2.55678 -0.0951511 0)
(2.53652 0.156189 0)
(2.57493 0.147685 0)
(2.58691 0.28646 0)
(2.60526 0.273192 0)
(2.6282 0.286328 0)
(2.65497 0.297655 0)
(2.67377 0.287071 0)
(2.66873 0.218384 0)
(2.69239 0.15814 0)
(2.71354 0.0967809 0)
(2.72542 0.0282105 0)
(2.75608 0.0395449 0)
(2.77758 0.0771944 0)
(2.7878 0.128942 0)
(2.79736 0.137973 0)
(2.79121 0.118859 0)
(2.8009 0.084401 0)
(2.82493 0.0636298 0)
(2.84832 0.0728724 0)
(2.86557 0.0853842 0)
(2.87512 0.0786849 0)
(2.88029 0.0508209 0)
(2.88557 0.0223274 0)
(2.89792 0.01716 0)
(2.89871 0.0165573 0)
(2.89704 0.0148627 0)
(2.83227 -0.0232013 0)
(2.67473 -1.44066 0)
(2.68837 -1.43655 0)
(2.66849 -1.3082 0)
(2.63016 -1.082 0)
(2.60494 -0.90591 0)
(2.5441 -0.574059 0)
(2.5383 -0.397142 0)
(2.54233 -0.268366 0)
(2.53199 -0.0788196 0)
(2.55995 -0.023642 0)
(2.58084 0.00866655 0)
(2.5881 -0.00252739 0)
(2.62293 -0.00995701 0)
(2.62572 0.00423732 0)
(2.63407 0.0442424 0)
(2.64781 0.059423 0)
(2.65006 0.0574802 0)
(2.65542 0.0605748 0)
(2.65437 0.0797503 0)
(2.69415 0.0675546 0)
(2.71313 0.0594182 0)
(2.74443 0.0626063 0)
(2.7508 0.0628272 0)
(2.75514 0.0582754 0)
(2.76436 0.0465476 0)
(2.77493 0.0264404 0)
(2.78992 0.00455024 0)
(2.79307 -0.00709351 0)
(2.78808 -0.0150082 0)
(2.72436 -0.0362884 0)
(2.83497 -1.50867 0)
(2.87448 -1.52026 0)
(2.91317 -1.56748 0)
(2.93676 -1.58567 0)
(2.96701 -1.58986 0)
(2.98035 -1.62482 0)
(2.96603 -1.5632 0)
(2.91218 -1.42423 0)
(2.81732 -1.14398 0)
(2.75158 -0.845765 0)
(2.69286 -0.558732 0)
(2.62464 -0.278618 0)
(2.61005 -0.056175 0)
(2.52969 0.123759 0)
(2.54788 0.189913 0)
(2.5368 0.158982 0)
(2.55877 0.102336 0)
(2.58456 0.0653435 0)
(2.6162 0.0472406 0)
(2.65254 0.0557059 0)
(2.66845 0.0700185 0)
(2.68388 0.0785279 0)
(2.68659 0.0760533 0)
(2.69028 0.0710859 0)
(2.70608 0.0487733 0)
(2.72262 0.0225268 0)
(2.73533 0.00983775 0)
(2.73925 0.00434137 0)
(2.73646 -0.00268391 0)
(2.67579 -0.0297543 0)
(2.96021 -1.59154 0)
(2.98119 -1.59822 0)
(2.99844 -1.61719 0)
(3.02598 -1.61411 0)
(3.03506 -1.63451 0)
(3.04924 -1.64433 0)
(3.06072 -1.66894 0)
(3.06449 -1.67605 0)
(3.06666 -1.67665 0)
(3.06716 -1.66974 0)
(3.06153 -1.63795 0)
(3.00653 -1.50269 0)
(2.90478 -1.1899 0)
(2.81233 -0.814498 0)
(2.73371 -0.389372 0)
(2.67711 -0.15265 0)
(2.66347 -0.0416199 0)
(2.64012 0.0208046 0)
(2.65911 0.0334646 0)
(2.67724 0.037206 0)
(2.68138 0.056092 0)
(2.66553 0.0597411 0)
(2.66539 0.0569909 0)
(2.67689 0.0473774 0)
(2.69916 0.0216636 0)
(2.7153 0.0081946 0)
(2.72362 -0.00030501 0)
(2.72909 -0.00448586 0)
(2.72639 -0.00777445 0)
(2.66324 -0.0272438 0)
(3.03592 -1.61292 0)
(3.0412 -1.62005 0)
(3.0509 -1.62502 0)
(3.05535 -1.63149 0)
(3.05827 -1.64072 0)
(3.0592 -1.65386 0)
(3.06615 -1.66004 0)
(3.07002 -1.66228 0)
(3.06723 -1.66137 0)
(3.06609 -1.65325 0)
(3.06804 -1.64712 0)
(3.06601 -1.63719 0)
(3.0541 -1.64186 0)
(3.03378 -1.64744 0)
(2.99454 -1.52216 0)
(2.89987 -1.08677 0)
(2.84627 -0.660191 0)
(2.74685 -0.24685 0)
(2.73346 -0.0404248 0)
(2.71142 0.0315625 0)
(2.69271 0.0752299 0)
(2.66973 0.0455425 0)
(2.68783 0.0477122 0)
(2.70224 0.0241991 0)
(2.72461 -0.00226724 0)
(2.73294 -1.64479e-05 0)
(2.73203 -0.0159703 0)
(2.73938 -0.0214299 0)
(2.7389 -0.0216629 0)
(2.67471 -0.0362023 0)
(3.05746 -1.61303 0)
(3.05893 -1.61836 0)
(3.06247 -1.62554 0)
(3.06283 -1.63353 0)
(3.06073 -1.6419 0)
(3.06121 -1.65215 0)
(3.0648 -1.65936 0)
(3.06757 -1.65978 0)
(3.06339 -1.65597 0)
(3.06258 -1.65523 0)
(3.063 -1.65181 0)
(3.06178 -1.64164 0)
(3.05098 -1.63892 0)
(3.03233 -1.64544 0)
(3.02717 -1.6438 0)
(3.03469 -1.64646 0)
(3.03874 -1.64344 0)
(2.99871 -1.45275 0)
(2.92723 -1.00203 0)
(2.86805 -0.599831 0)
(2.79594 -0.282965 0)
(2.79285 -0.124763 0)
(2.77009 0.0187778 0)
(2.74648 0.00721548 0)
(2.76624 0.014706 0)
(2.77352 0.0164149 0)
(2.76505 -0.0139977 0)
(2.77644 -0.0135481 0)
(2.77859 -0.016759 0)
(2.71977 -0.0273331 0)
(3.06045 -1.63806 0)
(3.05975 -1.64492 0)
(3.05763 -1.65214 0)
(3.06037 -1.66492 0)
(3.06087 -1.66771 0)
(3.06084 -1.66928 0)
(3.06146 -1.66569 0)
(3.05747 -1.66371 0)
(3.04911 -1.66328 0)
(3.04733 -1.66362 0)
(3.04724 -1.66043 0)
(3.05073 -1.64674 0)
(3.04597 -1.64443 0)
(3.03087 -1.64971 0)
(3.02401 -1.64028 0)
(3.03436 -1.63428 0)
(3.04651 -1.62402 0)
(3.05861 -1.61958 0)
(3.06498 -1.60605 0)
(3.06185 -1.59496 0)
(2.99863 -1.27399 0)
(2.94963 -0.816784 0)
(2.88341 -0.395863 0)
(2.94356 -0.260081 0)
(2.85464 -0.067154 0)
(2.81167 0.0154214 0)
(2.80508 -0.00699783 0)
(2.83371 0.00649872 0)
(2.83171 -0.0143005 0)
(2.77978 -0.0430065 0)
(3.05102 -1.64764 0)
(3.05098 -1.65254 0)
(3.05062 -1.65891 0)
(3.05154 -1.66242 0)
(3.05352 -1.663 0)
(3.05358 -1.66255 0)
(3.0481 -1.66048 0)
(3.04378 -1.65545 0)
(3.03773 -1.65579 0)
(3.03507 -1.65793 0)
(3.03765 -1.6564 0)
(3.04288 -1.64931 0)
(3.04024 -1.63374 0)
(3.03532 -1.64006 0)
(3.02559 -1.6173 0)
(3.03441 -1.58563 0)
(3.047 -1.59298 0)
(3.07497 -1.5703 0)
(3.08404 -1.55442 0)
(3.0966 -1.53014 0)
(3.09992 -1.53174 0)
(3.1024 -1.5367 0)
(3.0869 -1.38298 0)
(3.07115 -1.09249 0)
(2.99195 -0.652618 0)
(2.95183 -0.377581 0)
(2.96709 -0.1743 0)
(2.89432 -0.0139283 0)
(2.86829 -0.0277709 0)
(2.83364 0.00409092 0)
(3.04575 -1.65522 0)
(3.04735 -1.65813 0)
(3.0492 -1.65867 0)
(3.04998 -1.65956 0)
(3.04826 -1.6544 0)
(3.0455 -1.64992 0)
(3.04123 -1.643 0)
(3.03769 -1.63684 0)
(3.03581 -1.63659 0)
(3.02641 -1.64343 0)
(3.01506 -1.63542 0)
(3.0215 -1.61585 0)
(3.04196 -1.59687 0)
(3.03425 -1.61322 0)
(3.02823 -1.60022 0)
(3.03144 -1.56797 0)
(3.04133 -1.56941 0)
(3.06651 -1.54874 0)
(3.07909 -1.51449 0)
(3.09045 -1.49715 0)
(3.11267 -1.46703 0)
(3.136 -1.41732 0)
(3.13451 -1.43004 0)
(3.1215 -1.4356 0)
(3.11026 -1.42692 0)
(3.08614 -1.20154 0)
(3.08611 -0.855794 0)
(2.96594 -0.407728 0)
(3.0733 -0.287034 0)
(2.89537 -0.052495 0)
(3.04867 -1.64658 0)
(3.05286 -1.63806 0)
(3.05069 -1.62649 0)
(3.05316 -1.6176 0)
(3.04363 -1.59798 0)
(3.03481 -1.5906 0)
(3.03202 -1.58507 0)
(3.04087 -1.58338 0)
(3.04638 -1.57507 0)
(3.04569 -1.56954 0)
(3.03984 -1.58202 0)
(3.0496 -1.57213 0)
(3.0605 -1.55777 0)
(3.0575 -1.55735 0)
(3.0497 -1.55316 0)
(3.0461 -1.52398 0)
(3.05773 -1.5129 0)
(3.07785 -1.50636 0)
(3.09292 -1.45889 0)
(3.09368 -1.44718 0)
(3.09369 -1.44729 0)
(3.11159 -1.4125 0)
(3.14097 -1.36452 0)
(3.15478 -1.33124 0)
(3.15113 -1.31989 0)
(3.12781 -1.33836 0)
(3.1264 -1.32009 0)
(3.11102 -1.16603 0)
(3.15867 -0.993484 0)
(2.9192 -0.23575 0)
(3.0431 -1.64162 0)
(3.0447 -1.63582 0)
(3.04453 -1.62975 0)
(3.04551 -1.62509 0)
(3.04783 -1.60436 0)
(3.04331 -1.57896 0)
(3.04966 -1.5422 0)
(3.06745 -1.52003 0)
(3.0677 -1.51678 0)
(3.06129 -1.52468 0)
(3.06517 -1.51155 0)
(3.08182 -1.48186 0)
(3.08901 -1.47037 0)
(3.09141 -1.45661 0)
(3.08698 -1.45833 0)
(3.07999 -1.45008 0)
(3.09173 -1.41326 0)
(3.10834 -1.39543 0)
(3.11605 -1.38997 0)
(3.11463 -1.38056 0)
(3.10776 -1.3817 0)
(3.10483 -1.37566 0)
(3.11558 -1.34971 0)
(3.14268 -1.30752 0)
(3.1587 -1.28163 0)
(3.16001 -1.25641 0)
(3.14929 -1.24321 0)
(3.13976 -1.24464 0)
(3.14893 -1.23202 0)
(3.08129 -0.834897 0)
(3.08814 -1.46341 0)
(3.09141 -1.4649 0)
(3.0894 -1.47927 0)
(3.08712 -1.48686 0)
(3.07248 -1.49744 0)
(3.06213 -1.51143 0)
(3.0531 -1.50064 0)
(3.05788 -1.48508 0)
(3.06264 -1.48233 0)
(3.06234 -1.49192 0)
(3.06699 -1.47976 0)
(3.08332 -1.43403 0)
(3.091 -1.40377 0)
(3.09886 -1.3778 0)
(3.10429 -1.36968 0)
(3.10512 -1.37044 0)
(3.11205 -1.34055 0)
(3.12895 -1.31564 0)
(3.13834 -1.30851 0)
(3.13994 -1.29878 0)
(3.13734 -1.28876 0)
(3.13101 -1.28163 0)
(3.12406 -1.27786 0)
(3.12918 -1.26155 0)
(3.14838 -1.23921 0)
(3.16231 -1.21708 0)
(3.16596 -1.20428 0)
(3.16487 -1.17789 0)
(3.1596 -1.16626 0)
(3.16129 -1.1456 0)
(3.10027 -1.43357 0)
(3.1018 -1.43646 0)
(3.10263 -1.43515 0)
(3.09961 -1.42746 0)
(3.09731 -1.4184 0)
(3.09129 -1.3956 0)
(3.08649 -1.36934 0)
(3.0953 -1.33312 0)
(3.11033 -1.3164 0)
(3.10902 -1.32142 0)
(3.10266 -1.34403 0)
(3.10147 -1.35293 0)
(3.09853 -1.34527 0)
(3.09958 -1.33253 0)
(3.10459 -1.32206 0)
(3.10944 -1.3041 0)
(3.11551 -1.28531 0)
(3.12717 -1.27509 0)
(3.14 -1.25734 0)
(3.14582 -1.23607 0)
(3.15007 -1.21292 0)
(3.15324 -1.20265 0)
(3.14739 -1.19561 0)
(3.13974 -1.19282 0)
(3.14377 -1.17385 0)
(3.15675 -1.16924 0)
(3.16526 -1.14434 0)
(3.17318 -1.13501 0)
(3.17214 -1.12081 0)
(3.17708 -1.09797 0)
(3.12888 -1.28132 0)
(3.12981 -1.2843 0)
(3.12889 -1.28942 0)
(3.12308 -1.29718 0)
(3.11012 -1.31332 0)
(3.10285 -1.31493 0)
(3.09843 -1.29816 0)
(3.09869 -1.28416 0)
(3.11224 -1.26 0)
(3.12424 -1.25392 0)
(3.12893 -1.25165 0)
(3.12638 -1.22751 0)
(3.12628 -1.21646 0)
(3.12765 -1.21159 0)
(3.12939 -1.20972 0)
(3.12741 -1.20646 0)
(3.12728 -1.20014 0)
(3.13381 -1.19353 0)
(3.14131 -1.18348 0)
(3.14403 -1.17058 0)
(3.14633 -1.15528 0)
(3.15253 -1.13906 0)
(3.16158 -1.12532 0)
(3.16014 -1.12112 0)
(3.15488 -1.10566 0)
(3.1563 -1.09943 0)
(3.16306 -1.0921 0)
(3.17168 -1.08906 0)
(3.1739 -1.07314 0)
(3.17969 -1.05967 0)
(3.14466 -1.18438 0)
(3.14165 -1.19075 0)
(3.14077 -1.19495 0)
(3.13796 -1.19873 0)
(3.12949 -1.21206 0)
(3.12234 -1.20788 0)
(3.11922 -1.18731 0)
(3.11998 -1.16961 0)
(3.13236 -1.14711 0)
(3.13716 -1.14458 0)
(3.1342 -1.15115 0)
(3.12852 -1.15757 0)
(3.12605 -1.15688 0)
(3.13042 -1.14221 0)
(3.14342 -1.10796 0)
(3.14492 -1.1008 0)
(3.14442 -1.09684 0)
(3.14907 -1.09116 0)
(3.15321 -1.08983 0)
(3.15201 -1.09095 0)
(3.14758 -1.09214 0)
(3.14927 -1.07721 0)
(3.16101 -1.05676 0)
(3.16694 -1.04126 0)
(3.16846 -1.03965 0)
(3.16667 -1.02493 0)
(3.16716 -1.01798 0)
(3.17229 -1.01076 0)
(3.177 -1.00297 0)
(3.18459 -0.99355 0)
(3.14959 -1.03679 0)
(3.15976 -1.04826 0)
(3.15619 -1.05813 0)
(3.15122 -1.06216 0)
(3.14529 -1.06837 0)
(3.13525 -1.08438 0)
(3.12825 -1.07268 0)
(3.1354 -1.05048 0)
(3.1393 -1.04067 0)
(3.14664 -1.02066 0)
(3.14645 -1.0164 0)
(3.14113 -1.01917 0)
(3.1379 -1.01878 0)
(3.13856 -1.02451 0)
(3.14249 -1.02098 0)
(3.14708 -1.01238 0)
(3.1474 -1.00817 0)
(3.15166 -0.992815 0)
(3.15874 -0.982517 0)
(3.16127 -0.978891 0)
(3.15971 -0.977944 0)
(3.15766 -0.977353 0)
(3.1604 -0.973518 0)
(3.16722 -0.968668 0)
(3.1712 -0.962775 0)
(3.17288 -0.961501 0)
(3.17288 -0.953 0)
(3.17486 -0.947529 0)
(3.1767 -0.952227 0)
(3.18344 -0.943547 0)
(3.13743 -0.900563 0)
(3.14629 -0.907563 0)
(3.15305 -0.925203 0)
(3.15222 -0.930178 0)
(3.14958 -0.932131 0)
(3.13862 -0.945022 0)
(3.13172 -0.953226 0)
(3.13652 -0.936107 0)
(3.1419 -0.923286 0)
(3.1443 -0.91615 0)
(3.14291 -0.920212 0)
(3.14096 -0.925765 0)
(3.1405 -0.923132 0)
(3.14431 -0.917419 0)
(3.14738 -0.911949 0)
(3.1504 -0.908122 0)
(3.15052 -0.908653 0)
(3.15088 -0.911521 0)
(3.15376 -0.913784 0)
(3.1562 -0.912974 0)
(3.16166 -0.905709 0)
(3.16423 -0.895514 0)
(3.16494 -0.892135 0)
(3.1654 -0.892396 0)
(3.16808 -0.891514 0)
(3.17147 -0.888145 0)
(3.17407 -0.887496 0)
(3.1767 -0.885599 0)
(3.18017 -0.881302 0)
(3.18463 -0.879911 0)
(3.1318 -0.762531 0)
(3.12904 -0.753571 0)
(3.14743 -0.772174 0)
(3.14628 -0.78982 0)
(3.14694 -0.799213 0)
(3.14229 -0.809684 0)
(3.13501 -0.821508 0)
(3.13306 -0.815059 0)
(3.14029 -0.795627 0)
(3.14022 -0.776241 0)
(3.14477 -0.784939 0)
(3.14362 -0.802037 0)
(3.14058 -0.802356 0)
(3.14154 -0.79747 0)
(3.14518 -0.79387 0)
(3.15074 -0.798102 0)
(3.15581 -0.796009 0)
(3.15779 -0.786545 0)
(3.15694 -0.786914 0)
(3.15653 -0.792657 0)
(3.15748 -0.795624 0)
(3.16018 -0.797281 0)
(3.16452 -0.797358 0)
(3.16648 -0.800513 0)
(3.16653 -0.803386 0)
(3.169 -0.809059 0)
(3.17183 -0.810907 0)
(3.17634 -0.813447 0)
(3.18014 -0.811671 0)
(3.18559 -0.811883 0)
(3.12431 -0.643695 0)
(3.12468 -0.625707 0)
(3.12741 -0.615735 0)
(3.13662 -0.6325 0)
(3.1355 -0.646989 0)
(3.1382 -0.652264 0)
(3.12503 -0.667845 0)
(3.11996 -0.676536 0)
(3.12466 -0.676448 0)
(3.13875 -0.66886 0)
(3.14193 -0.663086 0)
(3.13813 -0.669239 0)
(3.13327 -0.675727 0)
(3.13361 -0.676358 0)
(3.14075 -0.680378 0)
(3.14552 -0.685936 0)
(3.14736 -0.687174 0)
(3.14918 -0.695074 0)
(3.15017 -0.701131 0)
(3.15111 -0.699758 0)
(3.15402 -0.706188 0)
(3.15709 -0.712965 0)
(3.15988 -0.716721 0)
(3.16308 -0.717619 0)
(3.16669 -0.720461 0)
(3.16905 -0.725349 0)
(3.1713 -0.727878 0)
(3.17391 -0.731341 0)
(3.17651 -0.734448 0)
(3.18291 -0.741828 0)
(3.10469 -0.496869 0)
(3.10703 -0.473607 0)
(3.10514 -0.453226 0)
(3.11885 -0.479729 0)
(3.12162 -0.502492 0)
(3.12613 -0.512413 0)
(3.11066 -0.537034 0)
(3.10458 -0.545294 0)
(3.11199 -0.537818 0)
(3.12386 -0.52181 0)
(3.12949 -0.525952 0)
(3.12893 -0.538873 0)
(3.12278 -0.551126 0)
(3.12371 -0.550571 0)
(3.1308 -0.556418 0)
(3.13515 -0.566179 0)
(3.13815 -0.566277 0)
(3.14123 -0.57005 0)
(3.14246 -0.580513 0)
(3.1427 -0.587893 0)
(3.14574 -0.593064 0)
(3.15055 -0.596039 0)
(3.15381 -0.601293 0)
(3.1559 -0.616252 0)
(3.15863 -0.622479 0)
(3.16204 -0.626821 0)
(3.16493 -0.639413 0)
(3.16512 -0.6414 0)
(3.16994 -0.657703 0)
(3.17815 -0.67097 0)
(3.07729 -0.357933 0)
(3.08228 -0.342408 0)
(3.08475 -0.317734 0)
(3.09626 -0.320676 0)
(3.10091 -0.353701 0)
(3.09974 -0.359769 0)
(3.09074 -0.378726 0)
(3.0817 -0.401586 0)
(3.0865 -0.40232 0)
(3.104 -0.389929 0)
(3.11276 -0.39249 0)
(3.1123 -0.405186 0)
(3.10667 -0.415759 0)
(3.10714 -0.415911 0)
(3.11553 -0.432672 0)
(3.11931 -0.443658 0)
(3.12146 -0.444495 0)
(3.12633 -0.457673 0)
(3.12904 -0.46735 0)
(3.12942 -0.473995 0)
(3.13346 -0.490127 0)
(3.13828 -0.502861 0)
(3.14217 -0.505392 0)
(3.14614 -0.520031 0)
(3.14892 -0.536266 0)
(3.15167 -0.544494 0)
(3.15585 -0.5593 0)
(3.15983 -0.572159 0)
(3.16442 -0.581856 0)
(3.17304 -0.597343 0)
(3.04151 -0.205672 0)
(3.04828 -0.192325 0)
(3.05278 -0.169434 0)
(3.06345 -0.166507 0)
(3.06847 -0.201593 0)
(3.06594 -0.216038 0)
(3.06175 -0.236811 0)
(3.05362 -0.261245 0)
(3.06017 -0.26219 0)
(3.07916 -0.24882 0)
(3.08685 -0.251816 0)
(3.08662 -0.270133 0)
(3.08121 -0.281125 0)
(3.08384 -0.284827 0)
(3.09337 -0.302366 0)
(3.09731 -0.318409 0)
(3.09994 -0.322852 0)
(3.10498 -0.332324 0)
(3.10902 -0.350343 0)
(3.11066 -0.361243 0)
(3.11521 -0.374714 0)
(3.12055 -0.386507 0)
(3.1256 -0.403326 0)
(3.12961 -0.414342 0)
(3.13372 -0.42955 0)
(3.13801 -0.443126 0)
(3.14286 -0.455259 0)
(3.14763 -0.47115 0)
(3.15177 -0.477879 0)
(3.16172 -0.498588 0)
(2.99843 -0.0556305 0)
(3.00489 -0.0423339 0)
(3.01056 -0.0222716 0)
(3.02262 -0.0248051 0)
(3.02434 -0.0569114 0)
(3.02078 -0.0733654 0)
(3.0211 -0.0978589 0)
(3.01523 -0.122391 0)
(3.0267 -0.120974 0)
(3.0447 -0.108467 0)
(3.05108 -0.114944 0)
(3.05028 -0.137197 0)
(3.04646 -0.143999 0)
(3.05198 -0.15351 0)
(3.06235 -0.178124 0)
(3.06551 -0.189219 0)
(3.06984 -0.196769 0)
(3.07664 -0.211503 0)
(3.08077 -0.228523 0)
(3.08419 -0.246751 0)
(3.08969 -0.260309 0)
(3.09686 -0.276806 0)
(3.10236 -0.291039 0)
(3.10733 -0.307607 0)
(3.11381 -0.328679 0)
(3.11987 -0.346817 0)
(3.12505 -0.360476 0)
(3.13148 -0.377286 0)
(3.13921 -0.404051 0)
(3.15075 -0.431052 0)
(2.94295 0.0978564 0)
(2.9482 0.109443 0)
(2.95537 0.123813 0)
(2.966 0.11473 0)
(2.96608 0.0819604 0)
(2.96949 0.0650967 0)
(2.97085 0.0287128 0)
(2.96879 0.0116433 0)
(2.98257 0.0222846 0)
(2.99534 0.0318066 0)
(3.00395 0.0201324 0)
(3.00382 -0.00556422 0)
(3.00139 -0.012592 0)
(3.01123 -0.0307476 0)
(3.01912 -0.0487746 0)
(3.02492 -0.0635227 0)
(3.03088 -0.0703677 0)
(3.04029 -0.091226 0)
(3.04478 -0.109944 0)
(3.04932 -0.127151 0)
(3.05738 -0.144262 0)
(3.06622 -0.162237 0)
(3.07258 -0.178176 0)
(3.08093 -0.203258 0)
(3.08835 -0.222677 0)
(3.0944 -0.235615 0)
(3.10399 -0.265271 0)
(3.11192 -0.283109 0)
(3.11913 -0.297344 0)
(3.13299 -0.329471 0)
(2.87636 0.247685 0)
(2.87988 0.253678 0)
(2.88596 0.258528 0)
(2.89505 0.242572 0)
(2.90493 0.218786 0)
(2.91251 0.195826 0)
(2.90971 0.170923 0)
(2.91103 0.160214 0)
(2.92002 0.171868 0)
(2.93024 0.171769 0)
(2.94742 0.146293 0)
(2.9476 0.121567 0)
(2.94807 0.121662 0)
(2.96225 0.0972254 0)
(2.96923 0.0775641 0)
(2.97539 0.0662645 0)
(2.98693 0.0484132 0)
(2.9967 0.0298296 0)
(3.00201 0.0131941 0)
(3.0103 -0.00985455 0)
(3.02034 -0.0299648 0)
(3.02929 -0.045606 0)
(3.04023 -0.0736762 0)
(3.04706 -0.0881924 0)
(3.05769 -0.11431 0)
(3.0679 -0.13974 0)
(3.07603 -0.155648 0)
(3.08722 -0.182602 0)
(3.09768 -0.209377 0)
(3.11402 -0.24465 0)
(2.82449 0.358001 0)
(2.8261 0.360172 0)
(2.83057 0.358168 0)
(2.83946 0.344736 0)
(2.84273 0.336417 0)
(2.84608 0.329313 0)
(2.85048 0.31836 0)
(2.85475 0.307407 0)
(2.85847 0.308721 0)
(2.86814 0.300375 0)
(2.8826 0.275474 0)
(2.88783 0.261213 0)
(2.89434 0.253002 0)
(2.90572 0.234799 0)
(2.91515 0.213335 0)
(2.92349 0.197634 0)
(2.93607 0.176736 0)
(2.94617 0.158305 0)
(2.95637 0.135056 0)
(2.9663 0.113643 0)
(2.97738 0.0924065 0)
(2.99045 0.0651225 0)
(2.99958 0.0467254 0)
(3.01234 0.0175011 0)
(3.02409 -0.00841732 0)
(3.03406 -0.0285675 0)
(3.04837 -0.0623913 0)
(3.05996 -0.0855574 0)
(3.07123 -0.109725 0)
(3.09075 -0.150536 0)
(2.81464 0.380847 0)
(2.81512 0.380664 0)
(2.81646 0.380281 0)
(2.81812 0.379424 0)
(2.81949 0.378398 0)
(2.82077 0.37742 0)
(2.82243 0.37614 0)
(2.82498 0.373556 0)
(2.82773 0.373242 0)
(2.83134 0.372104 0)
(2.83752 0.364656 0)
(2.84184 0.358632 0)
(2.84705 0.354391 0)
(2.85583 0.344924 0)
(2.86411 0.33358 0)
(2.87329 0.319549 0)
(2.88278 0.30562 0)
(2.89419 0.286831 0)
(2.90535 0.267205 0)
(2.91759 0.244773 0)
(2.93131 0.218734 0)
(2.94291 0.196685 0)
(2.95823 0.164387 0)
(2.97038 0.139425 0)
(2.98477 0.109118 0)
(2.99958 0.077302 0)
(3.01321 0.0492282 0)
(3.02782 0.0187924 0)
(3.04247 -0.0130933 0)
(3.06489 -0.0572959 0)
(2.82896 0.354089 0)
(2.82868 0.356307 0)
(2.82771 0.361722 0)
(2.82859 0.37168 0)
(2.8286 0.373909 0)
(2.82568 0.370001 0)
(2.8249 0.363999 0)
(2.82858 0.363711 0)
(2.83064 0.365476 0)
(2.83262 0.368375 0)
(2.83437 0.369854 0)
(2.83644 0.367419 0)
(2.83798 0.365768 0)
(2.84065 0.364576 0)
(2.8454 0.362243 0)
(2.85041 0.360512 0)
(2.85629 0.357299 0)
(2.86199 0.353509 0)
(2.86864 0.346158 0)
(2.87682 0.336776 0)
(2.88654 0.325629 0)
(2.89834 0.308992 0)
(2.9107 0.288887 0)
(2.92431 0.264678 0)
(2.94007 0.235733 0)
(2.95527 0.206775 0)
(2.97319 0.170194 0)
(2.98963 0.136784 0)
(3.00624 0.102107 0)
(3.03257 0.0490867 0)
(2.90409 0.215753 0)
(2.88743 0.232312 0)
(2.87998 0.254829 0)
(2.882 0.26241 0)
(2.88181 0.269537 0)
(2.87625 0.287107 0)
(2.87081 0.290876 0)
(2.86732 0.282967 0)
(2.86174 0.289846 0)
(2.85676 0.31309 0)
(2.85911 0.323118 0)
(2.85947 0.322737 0)
(2.8532 0.331694 0)
(2.852 0.336186 0)
(2.85285 0.337716 0)
(2.85635 0.343644 0)
(2.85814 0.345182 0)
(2.86173 0.344662 0)
(2.86542 0.342528 0)
(2.86981 0.339854 0)
(2.87491 0.338409 0)
(2.88115 0.335352 0)
(2.88823 0.330119 0)
(2.89558 0.325169 0)
(2.90529 0.314711 0)
(2.91645 0.300963 0)
(2.93039 0.281211 0)
(2.94603 0.256593 0)
(2.9629 0.22657 0)
(2.99235 0.172849 0)
(2.97591 0.0556916 0)
(2.97277 0.0604854 0)
(2.97188 0.0587448 0)
(2.96704 0.0675123 0)
(2.96183 0.0862993 0)
(2.96152 0.0905198 0)
(2.95698 0.0987108 0)
(2.95025 0.106959 0)
(2.94375 0.116101 0)
(2.93371 0.139415 0)
(2.93008 0.152759 0)
(2.92398 0.166769 0)
(2.91731 0.181227 0)
(2.90558 0.208102 0)
(2.90145 0.219799 0)
(2.89364 0.241136 0)
(2.88891 0.25903 0)
(2.88704 0.268515 0)
(2.88123 0.286813 0)
(2.88103 0.296276 0)
(2.88185 0.30639 0)
(2.88264 0.30959 0)
(2.89058 0.313022 0)
(2.89391 0.312002 0)
(2.89913 0.310032 0)
(2.90546 0.30685 0)
(2.91307 0.302198 0)
(2.92312 0.295224 0)
(2.93348 0.288051 0)
(2.95643 0.262765 0)
(2.99889 0.002389 0)
(2.99864 0.00287112 0)
(2.99834 0.00336435 0)
(2.99791 0.004009 0)
(2.99742 0.00512012 0)
(2.99706 0.0062477 0)
(2.99653 0.00742305 0)
(2.99551 0.00929064 0)
(2.99429 0.0109802 0)
(2.99218 0.0147383 0)
(2.99015 0.0193586 0)
(2.98784 0.024274 0)
(2.9844 0.0309075 0)
(2.97971 0.0404558 0)
(2.9745 0.0519265 0)
(2.96838 0.0650064 0)
(2.96044 0.0835226 0)
(2.95384 0.099804 0)
(2.94255 0.127655 0)
(2.93719 0.144391 0)
(2.92514 0.177821 0)
(2.92175 0.193776 0)
(2.913 0.223495 0)
(2.91067 0.24035 0)
(2.90871 0.256163 0)
(2.91042 0.270504 0)
(2.91126 0.275838 0)
(2.92053 0.277872 0)
(2.92765 0.27607 0)
(2.94388 0.267906 0)
(2.99999 2.73418e-05 0)
(2.99998 3.25154e-05 0)
(2.99998 3.98835e-05 0)
(2.99997 4.9693e-05 0)
(2.99996 6.68749e-05 0)
(2.99995 8.67002e-05 0)
(2.99994 0.000114182 0)
(2.99992 0.000151786 0)
(2.99988 0.000206936 0)
(2.99983 0.000296892 0)
(2.99975 0.000454214 0)
(2.99964 0.000642909 0)
(2.99946 0.000977185 0)
(2.99917 0.00149181 0)
(2.99872 0.00235028 0)
(2.99806 0.00358687 0)
(2.99698 0.00570208 0)
(2.99548 0.00877591 0)
(2.99315 0.0136006 0)
(2.99 0.0206147 0)
(2.98551 0.0306633 0)
(2.98008 0.0442541 0)
(2.97296 0.0621789 0)
(2.96554 0.0832589 0)
(2.95664 0.109573 0)
(2.94987 0.135028 0)
(2.94196 0.163434 0)
(2.93874 0.186538 0)
(2.93488 0.207503 0)
(2.9436 0.224383 0)
(3 1.62539e-07 0)
(3 1.93442e-07 0)
(3 2.39352e-07 0)
(3 3.01038e-07 0)
(3 3.95332e-07 0)
(3 5.26914e-07 0)
(3 7.03478e-07 0)
(3 9.80035e-07 0)
(3 1.369e-06 0)
(3 2.0674e-06 0)
(3 3.20905e-06 0)
(3 5.02465e-06 0)
(3 8.0259e-06 0)
(2.99999 1.38221e-05 0)
(2.99999 2.37971e-05 0)
(2.99998 4.29301e-05 0)
(2.99996 7.85697e-05 0)
(2.99992 0.000148389 0)
(2.99985 0.000281434 0)
(2.99971 0.000540831 0)
(2.99947 0.00103939 0)
(2.99902 0.00197676 0)
(2.99824 0.00369015 0)
(2.99693 0.00671996 0)
(2.99484 0.011781 0)
(2.99171 0.0198912 0)
(2.98743 0.0318466 0)
(2.98198 0.0486136 0)
(2.97602 0.0674798 0)
(2.96954 0.10317 0)
(3 7.42419e-10 0)
(3 8.91846e-10 0)
(3 1.11488e-09 0)
(3 1.4172e-09 0)
(3 1.85747e-09 0)
(3 2.46966e-09 0)
(3 3.34467e-09 0)
(3 4.65978e-09 0)
(3 6.6526e-09 0)
(3 9.92278e-09 0)
(3 1.55389e-08 0)
(3 2.44397e-08 0)
(3 4.03804e-08 0)
(3 6.97846e-08 0)
(3 1.25861e-07 0)
(3 2.33876e-07 0)
(3 4.57638e-07 0)
(3 9.20841e-07 0)
(3 1.92667e-06 0)
(3 4.1378e-06 0)
(3 9.17563e-06 0)
(2.99999 2.07123e-05 0)
(2.99998 4.7592e-05 0)
(2.99995 0.000109712 0)
(2.99988 0.000252626 0)
(2.99974 0.000572377 0)
(2.99946 0.00125953 0)
(2.9989 0.00271316 0)
(2.99801 0.00511054 0)
(2.99558 0.013895 0)
(3 2.5987e-12 0)
(3 3.14506e-12 0)
(3 3.97106e-12 0)
(3 5.09843e-12 0)
(3 6.72664e-12 0)
(3 9.00796e-12 0)
(3 1.23127e-11 0)
(3 1.73223e-11 0)
(3 2.48434e-11 0)
(3 3.7183e-11 0)
(3 5.78569e-11 0)
(3 9.16033e-11 0)
(3 1.51533e-10 0)
(3 2.63516e-10 0)
(3 4.76614e-10 0)
(3 8.98677e-10 0)
(3 1.77847e-09 0)
(3 3.6645e-09 0)
(3 7.8642e-09 0)
(3 1.75169e-08 0)
(3 4.0544e-08 0)
(3 9.6845e-08 0)
(3 2.3906e-07 0)
(3 6.04032e-07 0)
(3 1.56623e-06 0)
(3 4.1051e-06 0)
(2.99999 1.08895e-05 0)
(2.99998 2.94477e-05 0)
(2.99996 7.02085e-05 0)
(2.99984 0.000342198 0)
(2.59751 -1.39836 0)
(2.65097 -1.42524 0)
(2.7966 -1.47696 0)
(2.93832 -1.58218 0)
(3.03131 -1.60983 0)
(3.05744 -1.6109 0)
(3.05773 -1.62853 0)
(3.05129 -1.64516 0)
(3.0434 -1.65075 0)
(3.04357 -1.64561 0)
(3.03953 -1.64126 0)
(3.08624 -1.46365 0)
(3.09784 -1.43202 0)
(3.12563 -1.28135 0)
(3.13095 -1.17801 0)
(3.13466 -1.02791 0)
(3.13678 -0.920293 0)
(3.13118 -0.785803 0)
(3.11398 -0.660293 0)
(3.09561 -0.508912 0)
(3.06781 -0.362596 0)
(3.03687 -0.213582 0)
(2.99506 -0.0630654 0)
(2.93909 0.0889616 0)
(2.8738 0.244106 0)
(2.82189 0.361849 0)
(2.81444 0.381899 0)
(2.83334 0.344698 0)
(2.90845 0.205046 0)
(2.9809 0.0450519 0)
(2.99912 0.00198022 0)
(2.99999 2.3945e-05 0)
(3 1.4124e-07 0)
(3 6.38087e-10 0)
(3 2.21769e-12 0)
(2.60528 -1.39716 0)
(2.66723 -1.4173 0)
(2.82125 -1.49117 0)
(2.96198 -1.60337 0)
(3.04824 -1.60294 0)
(3.05844 -1.61298 0)
(3.0558 -1.63174 0)
(3.04536 -1.64188 0)
(3.04138 -1.64597 0)
(3.04112 -1.64321 0)
(3.04218 -1.6116 0)
(3.08425 -1.42137 0)
(3.08966 -1.3949 0)
(3.1142 -1.25343 0)
(3.12656 -1.15737 0)
(3.13999 -1.04037 0)
(3.13575 -0.924509 0)
(3.13257 -0.788765 0)
(3.12486 -0.645248 0)
(3.10843 -0.4944 0)
(3.08616 -0.330743 0)
(3.05091 -0.174871 0)
(3.00235 -0.0267743 0)
(2.93977 0.116113 0)
(2.86913 0.268057 0)
(2.81738 0.372098 0)
(2.81439 0.382873 0)
(2.84054 0.340785 0)
(2.91604 0.19691 0)
(2.98623 0.0328956 0)
(2.99952 0.00108549 0)
(3 1.01938e-05 0)
(3 6.00003e-08 0)
(3 2.9584e-10 0)
(3 1.0765e-12 0)
(2.60455 -1.40501 0)
(2.6717 -1.40537 0)
(2.82151 -1.49055 0)
(2.96536 -1.61815 0)
(3.05472 -1.60647 0)
(3.06233 -1.61517 0)
(3.0543 -1.63307 0)
(3.04217 -1.64169 0)
(3.03892 -1.64353 0)
(3.03699 -1.64222 0)
(3.03605 -1.56908 0)
(3.07229 -1.47103 0)
(3.08553 -1.38561 0)
(3.10414 -1.27116 0)
(3.12062 -1.17478 0)
(3.13495 -1.05533 0)
(3.14613 -0.911971 0)
(3.14436 -0.771021 0)
(3.13831 -0.583979 0)
(3.11856 -0.431 0)
(3.0803 -0.250864 0)
(3.03826 -0.0978263 0)
(2.98845 0.0451039 0)
(2.92718 0.178842 0)
(2.85562 0.309618 0)
(2.81329 0.38031 0)
(2.81467 0.382977 0)
(2.84375 0.346835 0)
(2.9236 0.179547 0)
(2.98928 0.0245243 0)
(2.99969 0.000664925 0)
(3 5.56509e-06 0)
(3 3.15629e-08 0)
(3 1.52776e-10 0)
(3 5.46042e-13 0)
(2.60505 -1.40415 0)
(2.67112 -1.40335 0)
(2.81995 -1.50742 0)
(2.97082 -1.6248 0)
(3.05613 -1.61456 0)
(3.06395 -1.62583 0)
(3.05045 -1.63896 0)
(3.03883 -1.643 0)
(3.03234 -1.63592 0)
(3.01902 -1.65319 0)
(3.04151 -1.55913 0)
(3.05785 -1.4909 0)
(3.08262 -1.3904 0)
(3.1074 -1.26908 0)
(3.13245 -1.16818 0)
(3.15875 -1.0244 0)
(3.16141 -0.835833 0)
(3.14574 -0.676459 0)
(3.10936 -0.496197 0)
(3.08073 -0.341417 0)
(3.04745 -0.19309 0)
(3.00362 -0.0450355 0)
(2.94947 0.0992771 0)
(2.88707 0.235783 0)
(2.83305 0.342723 0)
(2.80899 0.386534 0)
(2.81389 0.37995 0)
(2.84642 0.322827 0)
(2.93725 0.137157 0)
(2.99279 0.0156739 0)
(2.99983 0.000348247 0)
(3 2.80275e-06 0)
(3 1.58571e-08 0)
(3 7.65591e-11 0)
(3 2.71239e-13 0)
(2.59515 -1.40345 0)
(2.66881 -1.40606 0)
(2.82163 -1.51847 0)
(2.97266 -1.62666 0)
(3.05578 -1.6162 0)
(3.06215 -1.63161 0)
(3.04678 -1.64198 0)
(3.0351 -1.64801 0)
(3.03321 -1.63652 0)
(3.01048 -1.66276 0)
(3.04587 -1.54424 0)
(3.06007 -1.493 0)
(3.09483 -1.37625 0)
(3.12533 -1.23867 0)
(3.15206 -1.12019 0)
(3.1517 -0.934305 0)
(3.13304 -0.775275 0)
(3.1186 -0.628197 0)
(3.10671 -0.503418 0)
(3.07821 -0.35021 0)
(3.04639 -0.217584 0)
(3.00402 -0.066861 0)
(2.94971 0.083836 0)
(2.88447 0.230623 0)
(2.82566 0.348348 0)
(2.80738 0.389128 0)
(2.81349 0.377101 0)
(2.87011 0.278908 0)
(2.95733 0.10001 0)
(2.99598 0.00946794 0)
(2.99992 0.000182843 0)
(3 1.39886e-06 0)
(3 7.84471e-09 0)
(3 3.76963e-11 0)
(3 1.31365e-13 0)
(2.56515 -1.39588 0)
(2.65941 -1.41146 0)
(2.82365 -1.52902 0)
(2.97427 -1.62663 0)
(3.04899 -1.62805 0)
(3.05772 -1.63795 0)
(3.04621 -1.64942 0)
(3.03696 -1.64997 0)
(3.0353 -1.64006 0)
(3.01841 -1.65688 0)
(3.05579 -1.52997 0)
(3.08198 -1.47228 0)
(3.11712 -1.32225 0)
(3.13035 -1.18964 0)
(3.13552 -1.05667 0)
(3.1355 -0.903502 0)
(3.13199 -0.801768 0)
(3.1207 -0.662301 0)
(3.10222 -0.528959 0)
(3.07574 -0.37496 0)
(3.04248 -0.224614 0)
(2.99934 -0.07307 0)
(2.94437 0.0753367 0)
(2.88078 0.224898 0)
(2.82256 0.352874 0)
(2.80711 0.391024 0)
(2.81601 0.373613 0)
(2.88005 0.268964 0)
(2.96382 0.0912394 0)
(2.99735 0.0066576 0)
(2.99995 0.000103986 0)
(3 7.25549e-07 0)
(3 3.93648e-09 0)
(3 1.85792e-11 0)
(3 6.19384e-14 0)
(2.53955 -1.38655 0)
(2.6506 -1.41442 0)
(2.82229 -1.55363 0)
(2.97256 -1.62239 0)
(3.04469 -1.63732 0)
(3.05894 -1.65252 0)
(3.05315 -1.66664 0)
(3.04633 -1.65704 0)
(3.03875 -1.64587 0)
(3.0443 -1.62997 0)
(3.08227 -1.51441 0)
(3.10277 -1.41758 0)
(3.12366 -1.29252 0)
(3.12733 -1.17208 0)
(3.13427 -1.06008 0)
(3.1385 -0.938994 0)
(3.13078 -0.813707 0)
(3.12157 -0.666484 0)
(3.11227 -0.509248 0)
(3.08828 -0.345057 0)
(3.05443 -0.170169 0)
(3.00649 -0.0167995 0)
(2.94585 0.126121 0)
(2.87551 0.268621 0)
(2.81701 0.37191 0)
(2.80708 0.39214 0)
(2.82151 0.377619 0)
(2.88395 0.276507 0)
(2.96865 0.0779832 0)
(2.99813 0.00436682 0)
(2.99997 5.67978e-05 0)
(3 3.72372e-07 0)
(3 1.96849e-09 0)
(3 9.11461e-12 0)
(3 2.80362e-14 0)
(2.52852 -1.3784 0)
(2.64274 -1.41502 0)
(2.80928 -1.56137 0)
(2.96887 -1.61818 0)
(3.04721 -1.63724 0)
(3.06752 -1.66034 0)
(3.06629 -1.67644 0)
(3.05429 -1.66425 0)
(3.03975 -1.66904 0)
(3.05724 -1.56412 0)
(3.07927 -1.52207 0)
(3.10296 -1.38774 0)
(3.11864 -1.29933 0)
(3.1252 -1.18226 0)
(3.13588 -1.07431 0)
(3.144 -0.943258 0)
(3.15328 -0.777377 0)
(3.14401 -0.603671 0)
(3.11977 -0.421031 0)
(3.0816 -0.249185 0)
(3.02712 -0.0785539 0)
(2.97257 0.0703634 0)
(2.91079 0.206832 0)
(2.84703 0.324336 0)
(2.80892 0.386907 0)
(2.80768 0.390867 0)
(2.82357 0.372064 0)
(2.89155 0.237904 0)
(2.97767 0.049604 0)
(2.99892 0.00231015 0)
(2.99999 2.75247e-05 0)
(3 1.79402e-07 0)
(3 9.48826e-10 0)
(3 4.37714e-12 0)
(3 1.15772e-14 0)
(2.52762 -1.37164 0)
(2.63238 -1.41306 0)
(2.80071 -1.55327 0)
(2.96849 -1.61777 0)
(3.05033 -1.63523 0)
(3.0731 -1.66135 0)
(3.07077 -1.68055 0)
(3.05493 -1.68555 0)
(3.02984 -1.69854 0)
(3.04986 -1.53389 0)
(3.05568 -1.54129 0)
(3.09794 -1.3908 0)
(3.11727 -1.30976 0)
(3.13728 -1.18073 0)
(3.15757 -1.05928 0)
(3.17431 -0.885652 0)
(3.1523 -0.681866 0)
(3.11294 -0.506798 0)
(3.0743 -0.338956 0)
(3.04103 -0.189887 0)
(3.0031 -0.0482431 0)
(2.95048 0.0967929 0)
(2.88923 0.23131 0)
(2.83342 0.338604 0)
(2.80509 0.392099 0)
(2.80614 0.389151 0)
(2.83052 0.341131 0)
(2.92299 0.174744 0)
(2.98633 0.0319832 0)
(2.99945 0.00122582 0)
(2.99999 1.30675e-05 0)
(3 8.3994e-08 0)
(3 4.4426e-10 0)
(3 2.04359e-12 0)
(3 3.736e-15 0)
(2.52821 -1.36551 0)
(2.62335 -1.40608 0)
(2.79873 -1.54825 0)
(2.97016 -1.61843 0)
(3.05047 -1.63588 0)
(3.07304 -1.66401 0)
(3.06825 -1.68737 0)
(3.05025 -1.69444 0)
(3.0198 -1.70802 0)
(3.05036 -1.51519 0)
(3.04945 -1.54256 0)
(3.10203 -1.38258 0)
(3.13072 -1.30318 0)
(3.16646 -1.12708 0)
(3.1816 -0.980918 0)
(3.14831 -0.781474 0)
(3.12118 -0.626372 0)
(3.10144 -0.498456 0)
(3.07515 -0.356028 0)
(3.04104 -0.216055 0)
(2.99976 -0.0741545 0)
(2.94846 0.0741109 0)
(2.88746 0.21679 0)