/*--------------------------------*- C++ -*----------------------------------*\
  =========                 |
  \\      /  F ield         | OpenFOAM: The Open Source CFD Toolbox
   \\    /   O peration     | Website:  https://openfoam.org
    \\  /    A nd           | Version:  7
     \\/     M anipulation  |
\*---------------------------------------------------------------------------*/
FoamFile
{
    version     2.0;
    format      ascii;
    class       volScalarField;
    location    "4.5";
    object      p;
}
// * * * * * * * * * * * * * * * * * * * * * * * * * * * * * * * * * * * * * //

dimensions      [1 -1 -2 0 0 0 0];

internalField   nonuniform List<scalar> 
1750
(
0.20559
0.407848
0.54374
0.574941
0.585838
0.644375
0.735083
0.784593
0.793989
0.788721
0.0219114
0.0744835
0.266804
0.514325
0.699141
0.807733
0.86284
0.825797
0.805255
0.803999
0.0238502
0.0272987
0.0309079
0.0906682
0.261653
0.465646
0.646466
0.746331
0.791324
0.835346
0.0368055
0.0402472
0.0485756
0.0672615
0.0732118
0.0898585
0.162866
0.318377
0.492009
0.631419
0.0767035
0.0812633
0.0868975
0.0993906
0.108812
0.11166
0.119104
0.12675
0.14994
0.262754
0.148494
0.155344
0.152886
0.152231
0.15955
0.173006
0.179189
0.189294
0.201371
0.208303
0.263148
0.264072
0.266871
0.268328
0.270778
0.273407
0.277199
0.276082
0.272532
0.262369
0.480456
0.46257
0.443928
0.428476
0.414849
0.397764
0.38271
0.37178
0.360771
0.350394
0.816592
0.776126
0.731772
0.6873
0.648459
0.611436
0.576352
0.544999
0.525227
0.490277
1.09042
1.06507
1.0312
0.989679
0.942444
0.892958
0.840643
0.786273
0.739223
0.667466
1.13267
1.13158
1.12813
1.12107
1.11072
1.09366
1.06806
1.03315
0.99298
0.910141
1.09083
1.09876
1.10605
1.11209
1.1117
1.11095
1.10988
1.10726
1.1017
1.0749
1.02026
1.02802
1.03697
1.04824
1.06017
1.07139
1.08087
1.0889
1.09514
1.09281
1.00098
1.00177
1.00306
1.00532
1.00894
1.01439
1.02191
1.03158
1.04278
1.0595
1.00002
1.00003
1.00006
1.00014
1.0003
1.00066
1.00142
1.00294
1.00548
1.01455
0.0257627
0.0202156
0.0193939
0.0320688
0.0719124
0.137232
0.260641
0.499964
0.862925
1.10954
1.13284
1.081
1.01467
1.00065
1.00001
0.0267007
0.0197541
0.0203189
0.0414119
0.0880411
0.165389
0.333688
0.631408
0.989603
1.14216
1.13275
1.06266
1.00782
1.00023
1
0.02917
0.0184429
0.023265
0.0449044
0.094325
0.19478
0.411466
0.739092
1.05976
1.15123
1.12716
1.04574
1.00403
1.0001
1
0.0295276
0.016848
0.0265964
0.0468239
0.105766
0.266094
0.507589
0.8471
1.1158
1.1556
1.11447
1.02908
1.0018
1.00004
1
0.0289994
0.0155641
0.0267359
0.0621498
0.157544
0.333492
0.60541
0.962691
1.1562
1.15704
1.09114
1.01709
1.0008
1.00001
1
0.0279335
0.0151373
0.0254002
0.0817496
0.208532
0.409381
0.744644
1.07607
1.17454
1.15634
1.06844
1.00897
1.00031
1.00001
1
0.0228041
0.0193084
0.0346127
0.111331
0.273725
0.534207
0.902606
1.14864
1.18144
1.13712
1.04329
1.00357
1.0001
1
1
0.0147052
0.0209366
0.0606874
0.162448
0.367453
0.70628
1.037
1.18439
1.18269
1.10999
1.02274
1.00133
1.00003
1
1
0.00746707
0.0191895
0.08894
0.252713
0.527425
0.871815
1.13913
1.19787
1.17091
1.07429
1.0103
1.00044
1.00001
1
1
0.00235033
0.0261163
0.138699
0.369327
0.714693
1.03576
1.19801
1.20088
1.1411
1.04298
1.00384
1.00012
1
1
1
0.00128725
0.0653411
0.252878
0.556962
0.910032
1.16053
1.21662
1.1966
1.1027
1.019
1.00113
1.00003
1
1
1
0.0062692
0.133079
0.413055
0.799357
1.09665
1.21979
1.22028
1.16254
1.05523
1.00623
1.00025
1.00001
1
1
1
0.028371
0.261327
0.682802
1.02721
1.21191
1.23722
1.21133
1.11208
1.02324
1.00174
1.00005
1
1
1
1
0.163515
0.560717
0.976771
1.18372
1.25262
1.2407
1.16686
1.05488
1.00664
1.00031
1.00001
1
1
1
1
0.576344
0.970366
1.18628
1.24528
1.25965
1.21258
1.09787
1.01748
1.00119
1.00004
1
1
1
1
1
1.24713
1.25335
1.25796
1.25418
1.24524
1.14176
1.03213
1.00152
1.00002
1
1
1
1
1
1
1.24619
1.25494
1.26033
1.24746
1.2278
1.12298
1.0317
1.0029
1.00011
1
1
1
1
1
1
1.24709
1.26143
1.26623
1.24851
1.20111
1.0776
1.00998
1.00038
1.00001
1
1
1
1
1
1
1.24886
1.26553
1.26751
1.24029
1.15877
1.04512
1.00397
1.00012
1
1
1
1
1
1
1
1.24794
1.26648
1.2671
1.22322
1.11294
1.02176
1.00132
1.00003
1
1
1
1
1
1
1
1.24878
1.26647
1.2612
1.18556
1.07217
1.00919
1.00037
1.00001
1
1
1
1
1
1
1
1.26676
1.26617
1.2529
1.1458
1.03652
1.003
1.00009
1
1
1
1
1
1
1
1
1.29523
1.2526
1.22095
1.09118
1.01576
1.00093
1.00002
1
1
1
1
1
1
1
1
1.31724
1.23067
1.16651
1.05159
1.00575
1.00023
1
1
1
1
1
1
1
1
1
1.32938
1.20654
1.11006
1.02311
1.00176
1.00005
1
1
1
1
1
1
1
1
1
1.32924
1.16586
1.06297
1.00856
1.00042
1.00001
1
1
1
1
1
1
1
1
1
1.28379
1.1186
1.03069
1.00273
1.00009
1
1
1
1
1
1
1
1
1
1
1.23152
1.07415
1.0115
1.00059
1.00001
1
1
1
1
1
1
1
1
1
1
1.15905
1.03285
1.00277
1.00009
1
1
1
1
1
1
1
1
1
1
1
1.0698
1.00904
1.00039
1.00001
1
1
1
1
1
1
1
1
1
1
1
1
1
1
1
1
1
1
1
1
1
1
1
1
1
1
1
1
1
1
1
1
1
1
1
1
1
1
1
1
1
1
1
1
1
1
1
1
1
1
1
1
1
1
1
1
1
1
1
1
1
1
1
1
1
1
1
1
1
1
1
1
1
1
1
1
1
1
1
1
1
1
1
1
1
1
1
1
1
1
1
1
1
1
1
1
1
1
1
1
1
1
1
1
1
1
1
1
1
1
1
1
1
1
1
1
1
1
1
1
1
1
1
1
1
1
1
1
1
1
1
1
1
1
1
1
1
1
1
1
1
1
1
1
1
1
1
1
1
1
1
1
1
1
1
1
1
1
1
1
1
1
1
1
1
1
1
1
1
1
1
1
1
1
1
1
1
1
1
1
1
1
1
1
1
1
1
1
1
1
1
1
1
1
1
1
1
1
1
1
1
1
1
1
1
1
1
1
1
1
1
1
1
1
1
1
1
1
1
1
1
1
1
1
1
1
1
1
1
1
1
1
1
1
1
1
1
1
1
1
1
1
1
1
1
1
1
1
1
1
1
1
1
1
1
1
1
1
1
1
1
1
1
1
1
1
1
1
1
1
1
1
1
1
1
1
1
1
1
1
1
1
1
1
1
1
1
1
1
1
1
1
1
1
1
1
1
1
1
1
1
1
1
1
1
1
1
1
1
1
1
1
1
1
1
1
1
1
1
1
1
1
1
1
1
1
1
1
1
1
1
1
1
1
1
1
1
1
1
1
1
1
1
1
1
1
1
1
1
1
1
1
1
1
1
1
1
1
1
1
1
2.1077
0.999992
1
1
1
1
1
1
1
1
1
1
1
1
1
1
1
1
1
1
9.22511
4.38642
1.42041
0.999998
1
1
1
1
1
1
1
1
1
1
1
1
1
1
1
1
10.9992
8.71344
7.84389
3.67335
1.06564
1
1
1
1
1
1
1
1
1
1
1
1
1
1
1
9.07604
8.03067
8.34814
7.88961
5.0623
1.37662
0.99959
1
1
1
1
1
1
1
1
1
1
1
1
1
8.02419
7.6932
7.73687
7.63177
7.62027
5.14369
1.42777
0.999085
1
1
1
1
1
1
1
1
1
1
1
1
7.51995
7.44727
7.5358
7.50803
7.59829
7.32562
4.60045
1.28162
0.999124
1
1
1
1
1
1
1
1
1
1
1
7.46294
7.46778
7.52436
7.45853
7.47234
7.46412
7.15377
3.84131
1.10797
0.999659
1
1
1
1
1
1
1
1
1
1
7.4894
7.51433
7.50169
7.42358
7.3837
7.30667
7.26003
6.51924
2.66711
1.00531
1
1
1
1
1
1
1
1
1
1
7.49119
7.48546
7.42621
7.34614
7.29452
7.24118
7.22626
7.16207
5.71621
1.75233
0.997595
1.00001
1
1
1
1
1
1
1
1
7.43435
7.38162
7.31461
7.27949
7.22499
7.18134
7.19857
7.21295
7.05577
4.51014
1.25978
0.998958
1
1
1
1
1
1
1
1
7.31637
7.24865
7.21776
7.19274
7.12847
7.11686
7.10141
7.05785
7.00293
6.19062
2.63523
1.01396
1
1
1
1
1
1
1
1
7.1856
7.13375
7.12466
7.10242
7.04809
7.0553
7.00172
6.95664
6.88054
6.82783
5.17147
1.53091
0.997802
1.00001
1
1
1
1
1
1
7.07921
7.03952
7.04778
7.03113
7.00049
6.96775
6.90749
6.84538
6.81674
6.8501
6.4079
3.19095
1.06161
0.999747
0.999998
1
1
1
1
1
6.9791
6.95321
6.96551
6.96268
6.95797
6.88767
6.82153
6.79512
6.79579
6.81472
6.59916
5.32504
1.73015
1.00319
1
1
1
1
1
1
6.89439
6.88423
6.89476
6.89354
6.88463
6.81098
6.75168
6.74205
6.74732
6.71942
6.57032
6.37632
3.18971
0.986523
0.999294
0.999998
1
1
1
1
2.27395
3.65109
4.41233
4.98089
5.40507
5.66464
5.88358
6.05423
6.22724
6.34732
6.3973
6.37965
5.77565
2.46832
1.08043
1.00087
1
1
1
1
0.611948
1.85834
2.59385
3.24085
3.88887
4.35691
4.75775
5.06989
5.38322
5.6523
5.86365
6.10747
6.20631
4.96784
1.97578
1.03998
1.00034
1
1
1
0.541999
1.18185
1.67782
2.17268
2.67852
3.26987
3.72379
4.17697
4.50921
4.89455
5.20367
5.56778
5.94385
5.69461
3.92898
1.47678
1.01226
1.00009
1
1
0.621736
0.895976
1.13354
1.60397
2.0241
2.493
2.94691
3.40374
3.79019
4.19583
4.5962
4.98711
5.423
5.48647
5.15886
2.75138
1.14327
1.00179
1.00001
1
0.751869
0.774445
0.799474
1.11547
1.53107
1.93264
2.39
2.74933
3.19775
3.56053
4.03468
4.40382
4.83559
5.15123
5.12986
4.18078
1.75523
1.02768
1.0002
1
0.866226
0.783222
0.763266
0.925932
1.16636
1.48385
1.9042
2.27226
2.66318
3.03335
3.47971
3.85527
4.21733
4.64516
4.98796
4.78056
2.87388
1.1922
1.00291
1.00001
0.876318
0.797924
0.798895
0.871778
0.996712
1.24645
1.55062
1.93311
2.24789
2.65922
3.02879
3.46102
3.67117
4.09824
4.67405
4.70661
3.92394
1.71303
1.02412
1.00017
0.842696
0.798045
0.811655
0.817922
0.86108
1.08968
1.32307
1.66655
1.97286
2.35006
2.70321
3.10261
3.38816
3.71636
4.24483
4.56447
4.3133
2.58119
1.14256
1.00174
0.833043
0.817029
0.813754
0.783393
0.771407
0.887211
1.0948
1.38744
1.71814
2.00827
2.37482
2.69627
3.07326
3.39739
3.83104
4.35193
4.27778
3.21283
1.43358
1.01195
0.851323
0.848674
0.825668
0.786226
0.772136
0.851295
0.970211
1.16038
1.48213
1.74537
2.05951
2.33087
2.6902
3.04522
3.40961
3.9727
4.19752
3.81787
1.99069
1.05638
0.871455
0.859047
0.832858
0.79385
0.791358
0.840019
0.914198
1.06969
1.32565
1.60467
1.86468
2.14524
2.44145
2.79168
3.15364
3.63049
4.07383
3.97869
2.70747
1.22947
0.866837
0.848906
0.824445
0.801147
0.803175
0.80919
0.848824
0.99206
1.18671
1.46455
1.70842
1.97628
2.25777
2.58308
2.92774
3.3319
3.85979
3.91753
3.07503
1.5464
0.844267
0.828239
0.8203
0.806971
0.798775
0.789096
0.798077
0.892115
1.01015
1.26838
1.50782
1.76595
2.03209
2.3348
2.64886
3.00489
3.55141
3.75287
3.35959
2.01689
0.82047
0.813855
0.825606
0.821938
0.804025
0.787729
0.789068
0.864155
0.945211
1.09459
1.33672
1.55915
1.84917
2.1471
2.45163
2.78973
3.27945
3.6321
3.48796
2.63882
0.802148
0.810715
0.825957
0.831273
0.81157
0.791003
0.795401
0.857548
0.922655
1.03536
1.24247
1.4575
1.72935
2.01601
2.30218
2.61184
3.02735
3.49902
3.46386
3.27142
0.712479
0.795484
0.820225
0.828289
0.808347
0.785196
0.791743
0.828051
0.883472
0.985009
1.16846
1.37056
1.60631
1.89212
2.14712
2.4083
2.78364
3.29997
3.4246
3.86642
0.614894
0.738441
0.801745
0.821507
0.805313
0.784907
0.780916
0.792814
0.828021
0.923636
1.04249
1.25481
1.44864
1.71769
1.9867
2.24925
2.57621
3.06494
3.4435
4.42555
0.559799
0.672037
0.766928
0.812824
0.806248
0.793707
0.780358
0.781517
0.798583
0.883963
0.966192
1.13422
1.34467
1.57937
1.83453
2.10756
2.3805
2.83174
3.48143
4.93237
0.528556
0.62521
0.721985
0.792565
0.806758
0.798066
0.779297
0.764822
0.7699
0.837865
0.920025
1.04665
1.24996
1.47491
1.69698
1.95172
2.19606
2.60373
3.46367
5.36496
0.526034
0.584354
0.654364
0.743093
0.793695
0.791226
0.769105
0.743267
0.74542
0.776242
0.861785
0.983824
1.13959
1.34664
1.55647
1.7917
2.02351
2.39852
3.40696
5.73079
0.54836
0.543478
0.57992
0.675377
0.750226
0.773948
0.760066
0.741741
0.741677
0.75874
0.802496
0.913077
1.03889
1.21992
1.4206
1.64074
1.87036
2.25183
3.34937
5.9657
0.59093
0.536729
0.534925
0.601827
0.680603
0.738463
0.749932
0.74098
0.742332
0.748965
0.765507
0.853891
0.966415
1.11634
1.30175
1.50422
1.7139
2.09953
3.2921
6.05982
0.684661
0.594476
0.54047
0.55423
0.604114
0.685184
0.729029
0.730547
0.730881
0.727801
0.730178
0.803446
0.899408
1.02335
1.18657
1.38089
1.58107
2.01632
3.23557
5.92459
0.762816
0.670389
0.573345
0.536834
0.545779
0.620065
0.686614
0.708217
0.709814
0.704445
0.704728
0.763147
0.828092
0.945342
1.09401
1.26222
1.46872
1.95271
3.21214
5.72642
0.785302
0.738758
0.680619
0.596395
0.552543
0.571504
0.608224
0.649679
0.661465
0.659371
0.668628
0.699762
0.732736
0.827407
0.952309
1.0936
1.31227
1.88899
3.03001
5.19688
)
;

boundaryField
{
    inlet
    {
        type            fixedValue;
        value           uniform 1;
    }
    outlet
    {
        type            zeroGradient;
    }
    airfoil
    {
        type            zeroGradient;
    }
    top
    {
        type            symmetryPlane;
    }
    bottom
    {
        type            symmetryPlane;
    }
    defaultFaces
    {
        type            empty;
    }
}


// ************************************************************************* //
