/*--------------------------------*- C++ -*----------------------------------*\
  =========                 |
  \\      /  F ield         | OpenFOAM: The Open Source CFD Toolbox
   \\    /   O peration     | Website:  https://openfoam.org
    \\  /    A nd           | Version:  7
     \\/     M anipulation  |
\*---------------------------------------------------------------------------*/
FoamFile
{
    version     2.0;
    format      ascii;
    class       volVectorField;
    location    "7";
    object      U;
}
// * * * * * * * * * * * * * * * * * * * * * * * * * * * * * * * * * * * * * //

dimensions      [0 1 -1 0 0 0 0];

internalField   nonuniform List<vector> 
24000
(
(3.07996 -1.07452 0)
(3.02715 -0.978011 0)
(2.98718 -0.854755 0)
(2.96488 -0.70853 0)
(2.9663 -0.683696 0)
(2.94994 -0.581548 0)
(2.94939 -0.49074 0)
(2.95162 -0.408715 0)
(2.96325 -0.378679 0)
(2.95396 -0.270466 0)
(2.96495 -0.242329 0)
(2.95673 -0.143963 0)
(2.96795 -0.123907 0)
(2.9581 -0.0267955 0)
(2.96302 -0.0182667 0)
(2.95023 0.0458882 0)
(2.94527 0.0299928 0)
(2.93596 0.0509207 0)
(2.92894 0.0496313 0)
(2.92793 0.0486437 0)
(2.9281 0.0449156 0)
(2.93036 0.0518834 0)
(2.92614 0.0631225 0)
(2.92266 0.0676636 0)
(2.91807 0.0681999 0)
(2.91474 0.0655114 0)
(2.90825 0.0689983 0)
(2.90748 0.0546613 0)
(2.90338 0.0466063 0)
(2.89808 0.0422062 0)
(2.89445 0.0333316 0)
(2.89642 0.0387422 0)
(2.90028 0.04634 0)
(2.90458 0.0556743 0)
(2.90487 0.0548344 0)
(2.90301 0.0499661 0)
(2.90008 0.0433189 0)
(2.8975 0.0479823 0)
(2.90013 0.0523438 0)
(2.90213 0.0542509 0)
(2.90303 0.0510503 0)
(2.90236 0.0442938 0)
(2.90566 0.0481604 0)
(2.9078 0.0523096 0)
(2.90899 0.0533136 0)
(2.90906 0.0510272 0)
(2.91072 0.0509613 0)
(2.91274 0.0549303 0)
(2.91459 0.0546227 0)
(2.91666 0.0507782 0)
(3.14146 -1.18386 0)
(3.1412 -1.1837 0)
(3.14089 -1.18347 0)
(3.14062 -1.18324 0)
(3.14019 -1.1832 0)
(3.13973 -1.18288 0)
(3.13922 -1.18295 0)
(3.1381 -1.18113 0)
(3.13449 -1.17605 0)
(3.12646 -1.15872 0)
(3.11607 -1.13393 0)
(3.09875 -1.07699 0)
(3.07958 -1.01583 0)
(3.04805 -0.883509 0)
(3.02579 -0.778721 0)
(2.98255 -0.572867 0)
(2.96728 -0.468729 0)
(2.92118 -0.254761 0)
(2.93085 -0.19958 0)
(2.89528 -0.054032 0)
(2.89879 -0.0204528 0)
(2.88315 0.0480028 0)
(2.88255 0.0623449 0)
(2.87456 0.0889181 0)
(2.87152 0.102092 0)
(2.87591 0.120378 0)
(2.8695 0.105853 0)
(2.86828 0.0786328 0)
(2.8658 0.0529396 0)
(2.87399 0.030156 0)
(2.87528 0.0331827 0)
(2.88211 0.0497301 0)
(2.88096 0.0752036 0)
(2.87765 0.0761375 0)
(2.87241 0.068138 0)
(2.8703 0.0591808 0)
(2.87033 0.0505252 0)
(2.87241 0.0541397 0)
(2.87851 0.0621664 0)
(2.87993 0.061231 0)
(2.87886 0.0536148 0)
(2.88049 0.0502927 0)
(2.88396 0.0551153 0)
(2.88674 0.0604548 0)
(2.88782 0.057741 0)
(2.88798 0.0530749 0)
(2.8909 0.0530899 0)
(2.89376 0.0523171 0)
(2.89581 0.0506718 0)
(2.89876 0.0487 0)
(3.13371 -1.18096 0)
(3.13295 -1.18105 0)
(3.13226 -1.18086 0)
(3.13145 -1.18069 0)
(3.13076 -1.18021 0)
(3.12954 -1.18053 0)
(3.1286 -1.18043 0)
(3.12771 -1.17987 0)
(3.12654 -1.17973 0)
(3.12573 -1.18018 0)
(3.12513 -1.17983 0)
(3.12433 -1.1793 0)
(3.12337 -1.17876 0)
(3.12217 -1.17938 0)
(3.12168 -1.1789 0)
(3.12106 -1.17931 0)
(3.11624 -1.17018 0)
(3.0976 -1.12354 0)
(3.07174 -1.04144 0)
(3.03063 -0.892849 0)
(2.99576 -0.735625 0)
(2.95697 -0.547447 0)
(2.93143 -0.387031 0)
(2.90901 -0.244909 0)
(2.8946 -0.146789 0)
(2.87274 -0.0275536 0)
(2.87357 -0.0377024 0)
(2.86317 0.0022418 0)
(2.86345 0.0282552 0)
(2.86425 0.0313444 0)
(2.86026 0.0429243 0)
(2.85465 0.0638236 0)
(2.85077 0.0678518 0)
(2.84405 0.0620938 0)
(2.84257 0.0498184 0)
(2.84767 0.0430546 0)
(2.85095 0.0449672 0)
(2.85703 0.0527043 0)
(2.8583 0.0551948 0)
(2.85583 0.049471 0)
(2.85513 0.0427612 0)
(2.85747 0.0460943 0)
(2.86266 0.0509531 0)
(2.86384 0.0512403 0)
(2.86342 0.0500692 0)
(2.86584 0.0484724 0)
(2.86851 0.0532901 0)
(2.87169 0.0568544 0)
(2.87287 0.0534745 0)
(2.87611 0.0484219 0)
(3.12335 -1.17981 0)
(3.12265 -1.18009 0)
(3.12217 -1.17977 0)
(3.12153 -1.17968 0)
(3.12081 -1.17977 0)
(3.12032 -1.1796 0)
(3.11951 -1.17998 0)
(3.11883 -1.17984 0)
(3.11841 -1.17932 0)
(3.11765 -1.17957 0)
(3.11711 -1.1799 0)
(3.11669 -1.17943 0)
(3.11629 -1.17877 0)
(3.11581 -1.17858 0)
(3.11569 -1.17875 0)
(3.11556 -1.17863 0)
(3.11549 -1.17817 0)
(3.1156 -1.17761 0)
(3.11558 -1.17748 0)
(3.11566 -1.17725 0)
(3.11567 -1.17698 0)
(3.114 -1.17258 0)
(3.10167 -1.13793 0)
(3.07206 -1.03955 0)
(3.03059 -0.882998 0)
(2.96758 -0.617122 0)
(2.95291 -0.452927 0)
(2.87227 -0.141613 0)
(2.88293 -0.0600117 0)
(2.85535 0.0484607 0)
(2.81926 0.121089 0)
(2.82042 0.114298 0)
(2.82669 0.0769279 0)
(2.83199 0.0546546 0)
(2.83887 0.0431436 0)
(2.84222 0.0451109 0)
(2.84823 0.0534124 0)
(2.84739 0.0637925 0)
(2.84544 0.0597566 0)
(2.83781 0.0499858 0)
(2.83731 0.0490011 0)
(2.84094 0.0540071 0)
(2.84632 0.0604082 0)
(2.84473 0.0579798 0)
(2.84291 0.0506489 0)
(2.8472 0.0506986 0)
(2.84965 0.0515595 0)
(2.85085 0.0504572 0)
(2.85102 0.0483234 0)
(2.85387 0.0470495 0)
(3.11774 -1.17763 0)
(3.11741 -1.17779 0)
(3.11712 -1.17789 0)
(3.117 -1.17757 0)
(3.11663 -1.17772 0)
(3.11637 -1.17799 0)
(3.1163 -1.17767 0)
(3.11613 -1.17753 0)
(3.11587 -1.17771 0)
(3.11587 -1.1777 0)
(3.11584 -1.17782 0)
(3.11571 -1.17784 0)
(3.11567 -1.17767 0)
(3.11567 -1.17723 0)
(3.11565 -1.17704 0)
(3.11585 -1.17677 0)
(3.11598 -1.17657 0)
(3.11584 -1.17658 0)
(3.11567 -1.17658 0)
(3.11575 -1.17589 0)
(3.11585 -1.1748 0)
(3.11563 -1.17457 0)
(3.11466 -1.17467 0)
(3.11428 -1.17565 0)
(3.11508 -1.17554 0)
(3.11573 -1.17709 0)
(3.10874 -1.15387 0)
(3.06766 -1.02662 0)
(3.02663 -0.828506 0)
(2.95039 -0.491494 0)
(2.94703 -0.333192 0)
(2.87957 -0.107789 0)
(2.88321 -0.0512039 0)
(2.85293 0.00641586 0)
(2.84753 0.0251648 0)
(2.84593 0.0427885 0)
(2.83908 0.0639067 0)
(2.83392 0.0638619 0)
(2.82585 0.0491475 0)
(2.82538 0.0413353 0)
(2.82841 0.0437914 0)
(2.83504 0.0547331 0)
(2.83591 0.056356 0)
(2.83383 0.0516589 0)
(2.83313 0.047776 0)
(2.83463 0.0513592 0)
(2.83702 0.0552378 0)
(2.83653 0.0528038 0)
(2.83617 0.0491815 0)
(2.83815 0.0469092 0)
(3.11563 -1.17827 0)
(3.11556 -1.17831 0)
(3.11549 -1.17845 0)
(3.1155 -1.17837 0)
(3.11549 -1.17836 0)
(3.11537 -1.17852 0)
(3.11538 -1.17854 0)
(3.11546 -1.17848 0)
(3.11549 -1.1785 0)
(3.11567 -1.17831 0)
(3.11584 -1.17805 0)
(3.11589 -1.17793 0)
(3.11601 -1.17763 0)
(3.11607 -1.17738 0)
(3.1159 -1.17736 0)
(3.116 -1.17702 0)
(3.11625 -1.17651 0)
(3.1164 -1.17657 0)
(3.1165 -1.1766 0)
(3.11615 -1.17551 0)
(3.11582 -1.17466 0)
(3.11544 -1.17436 0)
(3.11407 -1.17464 0)
(3.11376 -1.17539 0)
(3.1145 -1.17565 0)
(3.11554 -1.17646 0)
(3.11654 -1.17753 0)
(3.11767 -1.17804 0)
(3.11667 -1.18057 0)
(3.11164 -1.16806 0)
(3.08991 -1.07634 0)
(3.00011 -0.714658 0)
(2.99619 -0.486203 0)
(2.89234 -0.0973175 0)
(2.87684 -0.0231771 0)
(2.86085 0.12043 0)
(2.8226 0.0980617 0)
(2.81974 0.0618447 0)
(2.82034 0.0437571 0)
(2.82408 0.0410105 0)
(2.83291 0.0547386 0)
(2.83471 0.0621764 0)
(2.83051 0.0573249 0)
(2.82712 0.0468383 0)
(2.82744 0.0469193 0)
(2.83036 0.0523643 0)
(2.83138 0.0537457 0)
(2.83064 0.0500472 0)
(2.83084 0.0472016 0)
(2.83074 0.0462133 0)
(3.11594 -1.17864 0)
(3.11591 -1.17862 0)
(3.11588 -1.17861 0)
(3.11587 -1.17859 0)
(3.11589 -1.17848 0)
(3.11583 -1.1785 0)
(3.11587 -1.1784 0)
(3.11602 -1.17818 0)
(3.11605 -1.17827 0)
(3.11628 -1.17796 0)
(3.11641 -1.17781 0)
(3.11649 -1.17767 0)
(3.11662 -1.17728 0)
(3.11665 -1.1772 0)
(3.1167 -1.17742 0)
(3.11701 -1.17739 0)
(3.11714 -1.17729 0)
(3.11714 -1.17742 0)
(3.11711 -1.17719 0)
(3.11598 -1.17632 0)
(3.11553 -1.17611 0)
(3.1143 -1.17561 0)
(3.11183 -1.17597 0)
(3.11145 -1.17701 0)
(3.11266 -1.1775 0)
(3.1149 -1.17799 0)
(3.11674 -1.1783 0)
(3.11797 -1.17742 0)
(3.11764 -1.17665 0)
(3.11569 -1.17815 0)
(3.11544 -1.17968 0)
(3.11819 -1.17994 0)
(3.11381 -1.15595 0)
(3.06474 -0.964514 0)
(3.01392 -0.684348 0)
(2.93757 -0.280285 0)
(2.93635 -0.168463 0)
(2.86971 -0.029754 0)
(2.85552 0.0217543 0)
(2.84942 0.0468862 0)
(2.83542 0.0707425 0)
(2.8287 0.0652909 0)
(2.81912 0.0448855 0)
(2.82109 0.039981 0)
(2.8253 0.0480438 0)
(2.8303 0.0565024 0)
(2.82937 0.0527513 0)
(2.82738 0.0454679 0)
(2.82899 0.0461484 0)
(2.82858 0.0453518 0)
(3.11658 -1.17934 0)
(3.11664 -1.17923 0)
(3.11662 -1.17928 0)
(3.11664 -1.17926 0)
(3.11675 -1.17893 0)
(3.1166 -1.17901 0)
(3.11659 -1.1789 0)
(3.11691 -1.17846 0)
(3.11691 -1.17848 0)
(3.11717 -1.17827 0)
(3.11737 -1.178 0)
(3.11747 -1.17765 0)
(3.11743 -1.17766 0)
(3.11753 -1.17762 0)
(3.11761 -1.17786 0)
(3.11773 -1.17815 0)
(3.11795 -1.17849 0)
(3.11789 -1.17868 0)
(3.11741 -1.17855 0)
(3.11607 -1.17872 0)
(3.11484 -1.17819 0)
(3.11243 -1.17773 0)
(3.11111 -1.17774 0)
(3.11066 -1.17899 0)
(3.11199 -1.17984 0)
(3.11505 -1.18009 0)
(3.11775 -1.17895 0)
(3.11914 -1.17658 0)
(3.11859 -1.17433 0)
(3.11755 -1.17426 0)
(3.1172 -1.17637 0)
(3.11893 -1.17978 0)
(3.12024 -1.17981 0)
(3.12056 -1.179 0)
(3.11877 -1.18052 0)
(3.08469 -1.07347 0)
(3.04696 -0.778407 0)
(2.9305 -0.280518 0)
(2.94999 -0.129113 0)
(2.86508 0.103506 0)
(2.83353 0.094876 0)
(2.82094 0.0615449 0)
(2.82346 0.0445371 0)
(2.82773 0.0443029 0)
(2.83499 0.0580493 0)
(2.83278 0.0578318 0)
(2.82671 0.0490695 0)
(2.82648 0.0464548 0)
(2.82777 0.0473602 0)
(2.8274 0.0440761 0)
(3.11769 -1.1768 0)
(3.11759 -1.17671 0)
(3.11749 -1.1765 0)
(3.1174 -1.17646 0)
(3.11726 -1.17637 0)
(3.11714 -1.1764 0)
(3.11711 -1.17652 0)
(3.11729 -1.1767 0)
(3.11743 -1.17688 0)
(3.11782 -1.17694 0)
(3.11852 -1.17697 0)
(3.11889 -1.17654 0)
(3.11916 -1.1766 0)
(3.11996 -1.17719 0)
(3.11989 -1.17825 0)
(3.11986 -1.17918 0)
(3.11962 -1.17978 0)
(3.11847 -1.18031 0)
(3.11639 -1.17977 0)
(3.11559 -1.17954 0)
(3.11432 -1.17957 0)
(3.11305 -1.17933 0)
(3.11212 -1.17942 0)
(3.11235 -1.18058 0)
(3.11317 -1.18129 0)
(3.11596 -1.18117 0)
(3.11991 -1.17904 0)
(3.12078 -1.17521 0)
(3.11904 -1.17247 0)
(3.11836 -1.17321 0)
(3.11871 -1.17583 0)
(3.1203 -1.18069 0)
(3.12083 -1.18043 0)
(3.12025 -1.18007 0)
(3.11558 -1.18271 0)
(3.1125 -1.18466 0)
(3.1103 -1.1843 0)
(3.09258 -1.12159 0)
(3.05162 -0.830871 0)
(2.96135 -0.36533 0)
(2.93275 -0.173653 0)
(2.87871 -0.0249263 0)
(2.8542 0.0331612 0)
(2.84753 0.0518027 0)
(2.84032 0.0663769 0)
(2.82844 0.0515135 0)
(2.82402 0.038373 0)
(2.82906 0.0440125 0)
(2.83002 0.0472318 0)
(2.82755 0.0419839 0)
(3.1169 -1.17531 0)
(3.11677 -1.17508 0)
(3.11657 -1.175 0)
(3.11637 -1.17515 0)
(3.11625 -1.17537 0)
(3.1163 -1.17559 0)
(3.11638 -1.17594 0)
(3.11648 -1.17671 0)
(3.11712 -1.1775 0)
(3.11827 -1.17788 0)
(3.11873 -1.17792 0)
(3.11957 -1.17807 0)
(3.12009 -1.17804 0)
(3.12047 -1.17828 0)
(3.12014 -1.17914 0)
(3.11994 -1.17972 0)
(3.11912 -1.18032 0)
(3.11706 -1.17993 0)
(3.11659 -1.17956 0)
(3.11582 -1.17898 0)
(3.1148 -1.17927 0)
(3.1135 -1.1803 0)
(3.11349 -1.18133 0)
(3.11371 -1.18256 0)
(3.11429 -1.18377 0)
(3.11913 -1.18455 0)
(3.12278 -1.18119 0)
(3.12217 -1.17459 0)
(3.11809 -1.1716 0)
(3.11735 -1.17562 0)
(3.1175 -1.17912 0)
(3.11884 -1.18286 0)
(3.11887 -1.18298 0)
(3.11818 -1.18174 0)
(3.11238 -1.18412 0)
(3.10872 -1.18595 0)
(3.10761 -1.18551 0)
(3.10914 -1.18277 0)
(3.1131 -1.17774 0)
(3.09813 -1.11585 0)
(3.04497 -0.786979 0)
(2.93909 -0.261994 0)
(2.91247 -0.0737663 0)
(2.87281 0.105899 0)
(2.83148 0.0812405 0)
(2.832 0.0510407 0)
(2.83575 0.0471896 0)
(2.83946 0.0513416 0)
(2.83529 0.0483754 0)
(2.8303 0.0404929 0)
(3.1146 -1.17672 0)
(3.1146 -1.17701 0)
(3.11494 -1.17647 0)
(3.11479 -1.17674 0)
(3.11448 -1.17841 0)
(3.11486 -1.17938 0)
(3.11551 -1.17994 0)
(3.11604 -1.18115 0)
(3.1165 -1.18212 0)
(3.11676 -1.18225 0)
(3.11723 -1.18232 0)
(3.11854 -1.1813 0)
(3.11926 -1.18037 0)
(3.11955 -1.18002 0)
(3.11985 -1.17954 0)
(3.11979 -1.17961 0)
(3.11736 -1.17924 0)
(3.11686 -1.17917 0)
(3.11641 -1.17828 0)
(3.11559 -1.17694 0)
(3.11719 -1.1813 0)
(3.11883 -1.18397 0)
(3.12009 -1.1858 0)
(3.11981 -1.18744 0)
(3.11949 -1.18856 0)
(3.12107 -1.18779 0)
(3.12281 -1.1837 0)
(3.12176 -1.1749 0)
(3.11738 -1.17221 0)
(3.11643 -1.17816 0)
(3.11651 -1.18196 0)
(3.11691 -1.18448 0)
(3.11473 -1.18337 0)
(3.11058 -1.18366 0)
(3.10747 -1.18417 0)
(3.10829 -1.18389 0)
(3.10864 -1.18359 0)
(3.11108 -1.18003 0)
(3.11425 -1.17515 0)
(3.11489 -1.17431 0)
(3.11358 -1.17943 0)
(3.09392 -1.09777 0)
(3.02224 -0.702643 0)
(2.96302 -0.273248 0)
(2.90289 -0.0738777 0)
(2.86958 0.0169363 0)
(2.86223 0.0422928 0)
(2.84595 0.054954 0)
(2.83507 0.0413124 0)
(2.83711 0.0347274 0)
(3.11338 -1.18634 0)
(3.11356 -1.18637 0)
(3.11375 -1.18699 0)
(3.11362 -1.18791 0)
(3.11371 -1.18858 0)
(3.11403 -1.18881 0)
(3.1139 -1.18964 0)
(3.11387 -1.19003 0)
(3.11448 -1.1899 0)
(3.11466 -1.18989 0)
(3.11495 -1.18983 0)
(3.11683 -1.18755 0)
(3.11819 -1.1844 0)
(3.11795 -1.18098 0)
(3.11855 -1.17856 0)
(3.11801 -1.17651 0)
(3.11577 -1.17522 0)
(3.11559 -1.17474 0)
(3.1155 -1.17305 0)
(3.11713 -1.17654 0)
(3.12061 -1.18248 0)
(3.12202 -1.18506 0)
(3.1241 -1.18708 0)
(3.12188 -1.18851 0)
(3.12107 -1.18907 0)
(3.12126 -1.1877 0)
(3.12226 -1.18388 0)
(3.12035 -1.1752 0)
(3.11664 -1.17341 0)
(3.11362 -1.18079 0)
(3.11193 -1.18598 0)
(3.10632 -1.18666 0)
(3.09974 -1.18345 0)
(3.10025 -1.18266 0)
(3.10658 -1.18184 0)
(3.10985 -1.17709 0)
(3.11138 -1.17581 0)
(3.1152 -1.17299 0)
(3.1207 -1.16577 0)
(3.11862 -1.16879 0)
(3.11442 -1.17098 0)
(3.11611 -1.16557 0)
(3.11889 -1.15874 0)
(3.0914 -1.00493 0)
(2.98488 -0.454766 0)
(2.95792 -0.169907 0)
(2.87857 0.0984461 0)
(2.83161 0.0627538 0)
(2.84851 0.0419351 0)
(2.85422 0.0397485 0)
(3.11956 -1.19098 0)
(3.11948 -1.19091 0)
(3.11931 -1.19094 0)
(3.119 -1.19126 0)
(3.11873 -1.19117 0)
(3.11819 -1.19118 0)
(3.11665 -1.19258 0)
(3.11595 -1.19259 0)
(3.11651 -1.19102 0)
(3.11578 -1.19144 0)
(3.11539 -1.19042 0)
(3.11847 -1.18546 0)
(3.11799 -1.18148 0)
(3.11617 -1.17479 0)
(3.11665 -1.16844 0)
(3.11654 -1.16622 0)
(3.11422 -1.16723 0)
(3.11415 -1.16795 0)
(3.11466 -1.16783 0)
(3.11829 -1.17436 0)
(3.12062 -1.18242 0)
(3.12191 -1.18616 0)
(3.12413 -1.18811 0)
(3.12228 -1.18617 0)
(3.11789 -1.184 0)
(3.11406 -1.17897 0)
(3.10991 -1.17481 0)
(3.10707 -1.17206 0)
(3.10814 -1.17456 0)
(3.10678 -1.18157 0)
(3.10737 -1.19017 0)
(3.10337 -1.18109 0)
(3.10343 -1.17087 0)
(3.10624 -1.16929 0)
(3.11639 -1.16408 0)
(3.12174 -1.15777 0)
(3.12377 -1.15116 0)
(3.12203 -1.14979 0)
(3.12169 -1.14983 0)
(3.11686 -1.16165 0)
(3.1173 -1.15229 0)
(3.12074 -1.13725 0)
(3.12698 -1.12931 0)
(3.12803 -1.13074 0)
(3.12163 -1.10363 0)
(3.0669 -0.810629 0)
(3.00109 -0.356435 0)
(2.92453 -0.102883 0)
(2.89493 0.0167994 0)
(2.87315 0.041689 0)
(3.12705 -1.18788 0)
(3.12694 -1.18736 0)
(3.12664 -1.1869 0)
(3.12577 -1.18645 0)
(3.12478 -1.18637 0)
(3.12324 -1.18618 0)
(3.12172 -1.18598 0)
(3.12036 -1.18515 0)
(3.12037 -1.18177 0)
(3.11926 -1.1796 0)
(3.11736 -1.17857 0)
(3.11928 -1.1753 0)
(3.1185 -1.17085 0)
(3.11621 -1.16239 0)
(3.1168 -1.15533 0)
(3.11668 -1.15356 0)
(3.1122 -1.15624 0)
(3.11027 -1.16143 0)
(3.1102 -1.16289 0)
(3.11394 -1.17133 0)
(3.11675 -1.1803 0)
(3.11781 -1.18232 0)
(3.11638 -1.18567 0)
(3.11109 -1.18287 0)
(3.10416 -1.16865 0)
(3.09906 -1.16045 0)
(3.09642 -1.15715 0)
(3.10175 -1.15998 0)
(3.10895 -1.16417 0)
(3.11496 -1.16581 0)
(3.11837 -1.16366 0)
(3.11692 -1.1615 0)
(3.11669 -1.15127 0)
(3.11902 -1.14601 0)
(3.12207 -1.14047 0)
(3.12481 -1.13403 0)
(3.12135 -1.13696 0)
(3.11671 -1.13872 0)
(3.11678 -1.13759 0)
(3.12027 -1.13318 0)
(3.12527 -1.11568 0)
(3.13001 -1.10562 0)
(3.13131 -1.10268 0)
(3.13179 -1.09667 0)
(3.13296 -1.08276 0)
(3.1291 -1.08737 0)
(3.10988 -0.980098 0)
(3.02299 -0.492889 0)
(2.97263 -0.17285 0)
(2.8948 0.01653 0)
(3.11951 -1.13231 0)
(3.11896 -1.13296 0)
(3.11851 -1.13281 0)
(3.11837 -1.13109 0)
(3.11765 -1.13044 0)
(3.1168 -1.131 0)
(3.11655 -1.13173 0)
(3.11624 -1.13361 0)
(3.11622 -1.1335 0)
(3.11713 -1.13288 0)
(3.1187 -1.13199 0)
(3.11736 -1.12825 0)
(3.11641 -1.12379 0)
(3.11271 -1.1199 0)
(3.10837 -1.1132 0)
(3.10772 -1.11096 0)
(3.10223 -1.11382 0)
(3.10031 -1.12436 0)
(3.10708 -1.13783 0)
(3.11084 -1.14436 0)
(3.11455 -1.14565 0)
(3.11733 -1.1438 0)
(3.11847 -1.14004 0)
(3.11489 -1.14085 0)
(3.11078 -1.1442 0)
(3.10804 -1.14071 0)
(3.10781 -1.13514 0)
(3.11262 -1.13084 0)
(3.1146 -1.13035 0)
(3.11945 -1.13042 0)
(3.12839 -1.12332 0)
(3.1309 -1.11874 0)
(3.13229 -1.11433 0)
(3.12902 -1.11114 0)
(3.12241 -1.11063 0)
(3.12051 -1.10242 0)
(3.12216 -1.09696 0)
(3.12267 -1.09958 0)
(3.12657 -1.08628 0)
(3.13196 -1.07119 0)
(3.13477 -1.06927 0)
(3.13466 -1.06904 0)
(3.13492 -1.06135 0)
(3.13356 -1.04967 0)
(3.12837 -1.04681 0)
(3.1278 -1.04195 0)
(3.12883 -1.03256 0)
(3.12778 -1.00868 0)
(3.09535 -0.796287 0)
(2.93404 -0.141241 0)
(3.10591 -1.15721 0)
(3.10577 -1.1567 0)
(3.10461 -1.15629 0)
(3.10272 -1.15859 0)
(3.10304 -1.15787 0)
(3.10503 -1.15615 0)
(3.10472 -1.15686 0)
(3.10379 -1.15978 0)
(3.10132 -1.15783 0)
(3.09854 -1.15326 0)
(3.1014 -1.14871 0)
(3.10567 -1.14058 0)
(3.10495 -1.13321 0)
(3.10744 -1.12102 0)
(3.11042 -1.11734 0)
(3.11058 -1.11665 0)
(3.10932 -1.1199 0)
(3.11257 -1.12414 0)
(3.11435 -1.12444 0)
(3.11797 -1.12629 0)
(3.12131 -1.12743 0)
(3.12431 -1.12282 0)
(3.12469 -1.12007 0)
(3.12727 -1.11264 0)
(3.13282 -1.09784 0)
(3.13353 -1.09489 0)
(3.13136 -1.09421 0)
(3.12675 -1.09042 0)
(3.12172 -1.08315 0)
(3.11933 -1.07833 0)
(3.12106 -1.06666 0)
(3.12674 -1.06108 0)
(3.13418 -1.05367 0)
(3.13596 -1.04911 0)
(3.12711 -1.06045 0)
(3.12401 -1.05728 0)
(3.12678 -1.05143 0)
(3.13139 -1.04599 0)
(3.13665 -1.03945 0)
(3.13756 -1.03192 0)
(3.1388 -1.02667 0)
(3.13709 -1.01894 0)
(3.13593 -1.00648 0)
(3.13088 -1.00409 0)
(3.12945 -1.00357 0)
(3.13244 -0.995164 0)
(3.13544 -0.98626 0)
(3.14098 -0.97445 0)
(3.13835 -0.980728 0)
(3.07139 -0.641025 0)
(3.12749 -0.966023 0)
(3.13102 -0.969352 0)
(3.13217 -0.96816 0)
(3.13167 -0.971119 0)
(3.13005 -0.984865 0)
(3.12832 -0.989386 0)
(3.12783 -0.990171 0)
(3.12319 -0.992048 0)
(3.1189 -0.994437 0)
(3.11733 -1.00578 0)
(3.12113 -1.01324 0)
(3.12549 -1.01747 0)
(3.12885 -1.0188 0)
(3.13305 -1.02086 0)
(3.13267 -1.02538 0)
(3.1332 -1.03311 0)
(3.13548 -1.03494 0)
(3.13026 -1.02627 0)
(3.1284 -1.01441 0)
(3.13049 -1.00636 0)
(3.12949 -1.00142 0)
(3.12661 -0.987455 0)
(3.12719 -0.981493 0)
(3.12983 -0.979639 0)
(3.13656 -0.975783 0)
(3.13957 -0.974755 0)
(3.14124 -0.980238 0)
(3.13889 -0.98567 0)
(3.13446 -0.987368 0)
(3.12749 -0.988502 0)
(3.12482 -0.98842 0)
(3.12539 -0.997875 0)
(3.13108 -0.996704 0)
(3.13645 -0.991823 0)
(3.13791 -0.990287 0)
(3.13908 -0.988238 0)
(3.14085 -0.983465 0)
(3.14067 -0.978237 0)
(3.14397 -0.971911 0)
(3.13904 -0.961424 0)
(3.13895 -0.954621 0)
(3.13469 -0.955252 0)
(3.13284 -0.9526 0)
(3.13128 -0.962505 0)
(3.13565 -0.953069 0)
(3.13861 -0.949009 0)
(3.14014 -0.940615 0)
(3.13908 -0.93676 0)
(3.13455 -0.940313 0)
(3.13157 -0.928316 0)
(3.13497 -0.97087 0)
(3.1363 -0.971623 0)
(3.13696 -0.972286 0)
(3.13744 -0.972055 0)
(3.13831 -0.971141 0)
(3.13739 -0.973206 0)
(3.13623 -0.97603 0)
(3.13552 -0.97738 0)
(3.13693 -0.973393 0)
(3.13689 -0.963528 0)
(3.13897 -0.957954 0)
(3.13785 -0.953668 0)
(3.13891 -0.950852 0)
(3.13827 -0.94622 0)
(3.13971 -0.93609 0)
(3.14268 -0.930466 0)
(3.13623 -0.928585 0)
(3.13247 -0.934417 0)
(3.13275 -0.939726 0)
(3.1314 -0.942616 0)
(3.12815 -0.949787 0)
(3.13142 -0.954985 0)
(3.13013 -0.96157 0)
(3.1307 -0.968093 0)
(3.13018 -0.969498 0)
(3.12768 -0.967677 0)
(3.12771 -0.961558 0)
(3.13093 -0.955209 0)
(3.13655 -0.947929 0)
(3.14044 -0.944337 0)
(3.14284 -0.944033 0)
(3.1435 -0.94278 0)
(3.14016 -0.9401 0)
(3.14187 -0.935396 0)
(3.1434 -0.92713 0)
(3.14332 -0.921207 0)
(3.14344 -0.908681 0)
(3.14248 -0.905713 0)
(3.1385 -0.904768 0)
(3.13327 -0.911435 0)
(3.13289 -0.912159 0)
(3.13134 -0.922079 0)
(3.13551 -0.917963 0)
(3.1392 -0.912701 0)
(3.1416 -0.906986 0)
(3.14297 -0.894341 0)
(3.14037 -0.892427 0)
(3.13521 -0.892011 0)
(3.13245 -0.897268 0)
(3.13474 -0.889684 0)
(3.1401 -0.837409 0)
(3.14088 -0.839875 0)
(3.14061 -0.843648 0)
(3.14146 -0.845871 0)
(3.14179 -0.846713 0)
(3.14117 -0.846138 0)
(3.14052 -0.844805 0)
(3.13995 -0.845426 0)
(3.13895 -0.848805 0)
(3.13952 -0.852573 0)
(3.13998 -0.854441 0)
(3.13876 -0.855174 0)
(3.13824 -0.855651 0)
(3.1376 -0.858121 0)
(3.13855 -0.860995 0)
(3.13991 -0.863126 0)
(3.14104 -0.862664 0)
(3.14352 -0.859291 0)
(3.144 -0.855841 0)
(3.14472 -0.851885 0)
(3.14364 -0.849082 0)
(3.14633 -0.842283 0)
(3.1481 -0.830691 0)
(3.14403 -0.821921 0)
(3.14007 -0.821513 0)
(3.14013 -0.823644 0)
(3.14074 -0.830473 0)
(3.13946 -0.840438 0)
(3.14309 -0.841624 0)
(3.14463 -0.839551 0)
(3.14559 -0.828692 0)
(3.14316 -0.819081 0)
(3.14184 -0.821155 0)
(3.13977 -0.827265 0)
(3.13783 -0.830715 0)
(3.1365 -0.833114 0)
(3.13426 -0.843092 0)
(3.1366 -0.84647 0)
(3.13444 -0.852033 0)
(3.13682 -0.853292 0)
(3.13783 -0.852565 0)
(3.14111 -0.849019 0)
(3.14361 -0.843191 0)
(3.14436 -0.837271 0)
(3.14104 -0.830346 0)
(3.13767 -0.833593 0)
(3.13327 -0.839824 0)
(3.13243 -0.845446 0)
(3.13486 -0.84381 0)
(3.13807 -0.839957 0)
(3.13935 -0.749339 0)
(3.13967 -0.74608 0)
(3.1393 -0.74426 0)
(3.13993 -0.745768 0)
(3.14027 -0.746626 0)
(3.14005 -0.749654 0)
(3.13926 -0.751317 0)
(3.14002 -0.751799 0)
(3.14053 -0.750168 0)
(3.13988 -0.747369 0)
(3.1398 -0.747121 0)
(3.14009 -0.748669 0)
(3.14042 -0.748866 0)
(3.14088 -0.747297 0)
(3.14045 -0.745979 0)
(3.14006 -0.747262 0)
(3.1398 -0.748355 0)
(3.13931 -0.74963 0)
(3.13943 -0.750599 0)
(3.13943 -0.751993 0)
(3.138 -0.754519 0)
(3.13803 -0.756495 0)
(3.13804 -0.761419 0)
(3.13737 -0.766832 0)
(3.13763 -0.76825 0)
(3.14133 -0.766195 0)
(3.14302 -0.762444 0)
(3.14087 -0.761556 0)
(3.13944 -0.761618 0)
(3.13627 -0.763603 0)
(3.13304 -0.772664 0)
(3.13531 -0.781107 0)
(3.13601 -0.782675 0)
(3.13607 -0.78163 0)
(3.13661 -0.781061 0)
(3.13748 -0.783932 0)
(3.13789 -0.785721 0)
(3.1388 -0.783665 0)
(3.1393 -0.783115 0)
(3.14264 -0.775423 0)
(3.14128 -0.775257 0)
(3.14232 -0.765104 0)
(3.13834 -0.767381 0)
(3.13625 -0.771677 0)
(3.13389 -0.778851 0)
(3.13151 -0.79158 0)
(3.13274 -0.7937 0)
(3.13597 -0.793557 0)
(3.13861 -0.788014 0)
(3.13842 -0.788404 0)
(3.13535 -0.642877 0)
(3.1347 -0.644955 0)
(3.13408 -0.64522 0)
(3.13451 -0.644663 0)
(3.13507 -0.642839 0)
(3.13454 -0.640569 0)
(3.13458 -0.641228 0)
(3.13502 -0.642698 0)
(3.13418 -0.645053 0)
(3.13343 -0.646365 0)
(3.13443 -0.645919 0)
(3.13493 -0.645961 0)
(3.13498 -0.64692 0)
(3.13443 -0.647918 0)
(3.13393 -0.649232 0)
(3.13413 -0.649696 0)
(3.13466 -0.650676 0)
(3.13506 -0.65107 0)
(3.13508 -0.652203 0)
(3.13493 -0.653641 0)
(3.13511 -0.653927 0)
(3.13531 -0.655397 0)
(3.13549 -0.655616 0)
(3.13481 -0.654088 0)
(3.1345 -0.656086 0)
(3.13467 -0.659901 0)
(3.13453 -0.663278 0)
(3.13419 -0.667542 0)
(3.1341 -0.670306 0)
(3.13593 -0.667951 0)
(3.13629 -0.663094 0)
(3.13563 -0.664497 0)
(3.13435 -0.669522 0)
(3.13332 -0.672795 0)
(3.13453 -0.67103 0)
(3.1355 -0.672173 0)
(3.13606 -0.670677 0)
(3.13513 -0.673977 0)
(3.13184 -0.676051 0)
(3.13299 -0.680712 0)
(3.13142 -0.688748 0)
(3.13162 -0.698471 0)
(3.13273 -0.707314 0)
(3.13323 -0.717774 0)
(3.13238 -0.724363 0)
(3.1339 -0.727153 0)
(3.13685 -0.724325 0)
(3.13762 -0.727398 0)
(3.13417 -0.723322 0)
(3.13551 -0.736134 0)
(3.12673 -0.556318 0)
(3.12713 -0.557048 0)
(3.12698 -0.559281 0)
(3.12623 -0.560178 0)
(3.12618 -0.560213 0)
(3.12639 -0.559572 0)
(3.12618 -0.558766 0)
(3.12643 -0.55907 0)
(3.12652 -0.56053 0)
(3.12606 -0.561311 0)
(3.126 -0.561241 0)
(3.12638 -0.561721 0)
(3.12672 -0.562911 0)
(3.12656 -0.563398 0)
(3.12637 -0.564176 0)
(3.12626 -0.565115 0)
(3.1263 -0.56619 0)
(3.12646 -0.567374 0)
(3.12642 -0.567924 0)
(3.12648 -0.569831 0)
(3.12634 -0.57097 0)
(3.12621 -0.571819 0)
(3.12635 -0.574125 0)
(3.12648 -0.57542 0)
(3.12674 -0.576871 0)
(3.12704 -0.57868 0)
(3.12726 -0.58003 0)
(3.12736 -0.580894 0)
(3.12711 -0.582762 0)
(3.12753 -0.587352 0)
(3.12737 -0.593549 0)
(3.1276 -0.595557 0)
(3.12778 -0.595289 0)
(3.12794 -0.598599 0)
(3.12865 -0.606034 0)
(3.12858 -0.611083 0)
(3.12884 -0.615896 0)
(3.12915 -0.620417 0)
(3.12924 -0.627146 0)
(3.12895 -0.633899 0)
(3.12914 -0.639142 0)
(3.1299 -0.644365 0)
(3.1307 -0.649115 0)
(3.13173 -0.649745 0)
(3.13208 -0.652859 0)
(3.1323 -0.650591 0)
(3.13285 -0.656818 0)
(3.12877 -0.659882 0)
(3.13149 -0.673159 0)
(3.13279 -0.682667 0)
(3.11934 -0.517237 0)
(3.11931 -0.516924 0)
(3.11929 -0.51683 0)
(3.11942 -0.516898 0)
(3.11941 -0.517104 0)
(3.11941 -0.517135 0)
(3.11938 -0.517006 0)
(3.11967 -0.517291 0)
(3.11994 -0.517726 0)
(3.1198 -0.518658 0)
(3.11949 -0.519173 0)
(3.12003 -0.518792 0)
(3.12013 -0.518271 0)
(3.11999 -0.518254 0)
(3.12007 -0.518705 0)
(3.12008 -0.519421 0)
(3.11989 -0.519996 0)
(3.1199 -0.520568 0)
(3.12002 -0.521551 0)
(3.11995 -0.522718 0)
(3.11971 -0.523277 0)
(3.1195 -0.523957 0)
(3.11936 -0.52469 0)
(3.1194 -0.524963 0)
(3.11957 -0.525049 0)
(3.11994 -0.525911 0)
(3.12028 -0.526884 0)
(3.12057 -0.527337 0)
(3.12105 -0.528439 0)
(3.12148 -0.530126 0)
(3.12163 -0.530861 0)
(3.1217 -0.533134 0)
(3.12164 -0.536272 0)
(3.12162 -0.537816 0)
(3.12166 -0.538677 0)
(3.1221 -0.541607 0)
(3.1226 -0.54485 0)
(3.12301 -0.547817 0)
(3.12326 -0.549949 0)
(3.12334 -0.554181 0)
(3.12325 -0.557281 0)
(3.12362 -0.562371 0)
(3.12387 -0.565467 0)
(3.12462 -0.573351 0)
(3.12436 -0.577709 0)
(3.12577 -0.589037 0)
(3.1264 -0.596359 0)
(3.12783 -0.608598 0)
(3.12918 -0.615659 0)
(3.13083 -0.626894 0)
(3.11724 -0.510696 0)
(3.11725 -0.510687 0)
(3.11728 -0.510642 0)
(3.11731 -0.510674 0)
(3.1174 -0.51065 0)
(3.11751 -0.510495 0)
(3.11758 -0.510486 0)
(3.11801 -0.510821 0)
(3.11814 -0.511218 0)
(3.11814 -0.511333 0)
(3.11817 -0.511277 0)
(3.11824 -0.511183 0)
(3.1183 -0.511079 0)
(3.11812 -0.510925 0)
(3.11794 -0.510862 0)
(3.11791 -0.510905 0)
(3.1179 -0.511278 0)
(3.11783 -0.511763 0)
(3.11783 -0.51191 0)
(3.11795 -0.511845 0)
(3.11791 -0.511746 0)
(3.11774 -0.511565 0)
(3.11746 -0.511426 0)
(3.11732 -0.511431 0)
(3.11724 -0.511429 0)
(3.11726 -0.511531 0)
(3.11736 -0.511949 0)
(3.11747 -0.51223 0)
(3.11764 -0.512107 0)
(3.11782 -0.512292 0)
(3.11834 -0.51299 0)
(3.11856 -0.513424 0)
(3.11857 -0.513916 0)
(3.11837 -0.514448 0)
(3.11802 -0.514789 0)
(3.11763 -0.515495 0)
(3.11799 -0.517503 0)
(3.11839 -0.518787 0)
(3.11881 -0.519899 0)
(3.11921 -0.52128 0)
(3.11945 -0.524204 0)
(3.11945 -0.526491 0)
(3.11998 -0.530278 0)
(3.12064 -0.532944 0)
(3.12144 -0.537894 0)
(3.12232 -0.541755 0)
(3.12344 -0.546905 0)
(3.12467 -0.552104 0)
(3.12529 -0.556461 0)
(3.1259 -0.569009 0)
(3.11607 -0.508307 0)
(3.11605 -0.508234 0)
(3.11606 -0.508168 0)
(3.1161 -0.508086 0)
(3.11614 -0.508044 0)
(3.11613 -0.508073 0)
(3.11609 -0.508103 0)
(3.1158 -0.507784 0)
(3.11571 -0.507686 0)
(3.11568 -0.50741 0)
(3.11579 -0.506991 0)
(3.11564 -0.506617 0)
(3.11541 -0.506328 0)
(3.11543 -0.506128 0)
(3.11551 -0.506061 0)
(3.11555 -0.506139 0)
(3.11567 -0.50641 0)
(3.11603 -0.506751 0)
(3.11675 -0.506936 0)
(3.11786 -0.506517 0)
(3.1186 -0.505813 0)
(3.11879 -0.505446 0)
(3.1187 -0.505347 0)
(3.11815 -0.506129 0)
(3.11696 -0.507238 0)
(3.11578 -0.507501 0)
(3.11506 -0.507303 0)
(3.11491 -0.507418 0)
(3.11495 -0.507678 0)
(3.11544 -0.508337 0)
(3.1165 -0.508775 0)
(3.11738 -0.508097 0)
(3.11767 -0.507798 0)
(3.1177 -0.508125 0)
(3.11728 -0.509179 0)
(3.11656 -0.509768 0)
(3.11651 -0.509736 0)
(3.11688 -0.509833 0)
(3.11767 -0.510272 0)
(3.118 -0.510578 0)
(3.11833 -0.510978 0)
(3.11841 -0.511415 0)
(3.11869 -0.512091 0)
(3.11923 -0.512544 0)
(3.11977 -0.513676 0)
(3.12015 -0.514544 0)
(3.12051 -0.516591 0)
(3.12063 -0.518529 0)
(3.12083 -0.522359 0)
(3.12079 -0.530313 0)
(3.11344 -0.498364 0)
(3.11354 -0.498884 0)
(3.11359 -0.49986 0)
(3.11348 -0.500252 0)
(3.11352 -0.5007 0)
(3.11361 -0.500774 0)
(3.11356 -0.50103 0)
(3.11317 -0.50248 0)
(3.11322 -0.502873 0)
(3.11373 -0.503381 0)
(3.11446 -0.503921 0)
(3.1148 -0.504683 0)
(3.11472 -0.505523 0)
(3.11466 -0.507688 0)
(3.11487 -0.510233 0)
(3.11507 -0.510867 0)
(3.11513 -0.512161 0)
(3.11546 -0.513778 0)
(3.11602 -0.513984 0)
(3.11664 -0.513698 0)
(3.11756 -0.513429 0)
(3.11853 -0.511228 0)
(3.11843 -0.506454 0)
(3.11779 -0.502993 0)
(3.11617 -0.501097 0)
(3.11681 -0.502734 0)
(3.11742 -0.50408 0)
(3.11721 -0.505991 0)
(3.11624 -0.508805 0)
(3.11635 -0.512045 0)
(3.11575 -0.511783 0)
(3.11486 -0.508952 0)
(3.11639 -0.506672 0)
(3.11759 -0.507336 0)
(3.11781 -0.509413 0)
(3.11762 -0.510303 0)
(3.11734 -0.509772 0)
(3.11736 -0.509268 0)
(3.1178 -0.5091 0)
(3.11836 -0.509142 0)
(3.11886 -0.508976 0)
(3.11907 -0.50878 0)
(3.11911 -0.509166 0)
(3.11929 -0.508641 0)
(3.11925 -0.509196 0)
(3.11893 -0.509057 0)
(3.11848 -0.510004 0)
(3.11828 -0.51094 0)
(3.11826 -0.513098 0)
(3.1181 -0.51526 0)
(3.11454 -0.497815 0)
(3.11484 -0.497892 0)
(3.11512 -0.498295 0)
(3.11555 -0.499777 0)
(3.11601 -0.500776 0)
(3.116 -0.502208 0)
(3.11623 -0.502877 0)
(3.11784 -0.502662 0)
(3.11812 -0.501816 0)
(3.11738 -0.500541 0)
(3.11792 -0.497848 0)
(3.11947 -0.49496 0)
(3.11952 -0.491066 0)
(3.11788 -0.485935 0)
(3.11586 -0.479266 0)
(3.1149 -0.47638 0)
(3.11395 -0.475942 0)
(3.11364 -0.476168 0)
(3.11307 -0.476986 0)
(3.11256 -0.480896 0)
(3.11233 -0.484991 0)
(3.11245 -0.486557 0)
(3.11256 -0.489485 0)
(3.11424 -0.493483 0)
(3.11409 -0.498096 0)
(3.11703 -0.502761 0)
(3.11813 -0.503399 0)
(3.11913 -0.500223 0)
(3.11886 -0.492747 0)
(3.11626 -0.487687 0)
(3.11309 -0.485482 0)
(3.11331 -0.490979 0)
(3.11495 -0.497176 0)
(3.11729 -0.498733 0)
(3.11669 -0.495115 0)
(3.11651 -0.493172 0)
(3.11634 -0.49379 0)
(3.1157 -0.495795 0)
(3.11542 -0.495452 0)
(3.11549 -0.495557 0)
(3.11567 -0.496244 0)
(3.11549 -0.497293 0)
(3.11548 -0.498841 0)
(3.11594 -0.499573 0)
(3.11581 -0.501431 0)
(3.11607 -0.503577 0)
(3.1166 -0.505408 0)
(3.11783 -0.506692 0)
(3.11812 -0.508962 0)
(3.11943 -0.50968 0)
(3.10983 -0.444175 0)
(3.10974 -0.444008 0)
(3.11003 -0.443122 0)
(3.11041 -0.441653 0)
(3.11018 -0.440303 0)
(3.11055 -0.439908 0)
(3.11015 -0.441438 0)
(3.1097 -0.44302 0)
(3.10991 -0.445015 0)
(3.10846 -0.448877 0)
(3.10716 -0.450401 0)
(3.10863 -0.452129 0)
(3.10937 -0.452446 0)
(3.10979 -0.453649 0)
(3.10925 -0.454727 0)
(3.10937 -0.456953 0)
(3.11076 -0.460738 0)
(3.1105 -0.463995 0)
(3.11109 -0.464554 0)
(3.11227 -0.464832 0)