/*--------------------------------*- C++ -*----------------------------------*\
  =========                 |
  \\      /  F ield         | OpenFOAM: The Open Source CFD Toolbox
   \\    /   O peration     | Website:  https://openfoam.org
    \\  /    A nd           | Version:  7
     \\/     M anipulation  |
\*---------------------------------------------------------------------------*/
FoamFile
{
    version     2.0;
    format      ascii;
    class       volScalarField;
    location    "4.4";
    object      rho;
}
// * * * * * * * * * * * * * * * * * * * * * * * * * * * * * * * * * * * * * //

dimensions      [1 -3 0 0 0 0 0];

internalField   nonuniform List<scalar> 
1750
(
0.42215
0.588037
0.724284
0.828366
0.925091
0.915811
0.914085
0.904895
0.909595
0.910143
0.269683
0.357352
0.488221
0.615762
0.728567
0.785559
0.851862
0.889949
0.93951
0.93461
0.287001
0.296691
0.297079
0.307945
0.354561
0.45254
0.585734
0.756783
0.868173
0.919708
0.327809
0.34134
0.32983
0.313639
0.324692
0.350652
0.363527
0.403411
0.495918
0.744049
0.408203
0.424948
0.419712
0.415839
0.420451
0.445123
0.476957
0.486766
0.475616
0.494619
0.573516
0.607566
0.611815
0.597473
0.586078
0.579895
0.569204
0.55563
0.543747
0.520327
0.770187
0.774454
0.777423
0.76067
0.722937
0.69942
0.681809
0.644356
0.625366
0.627044
1.05933
1.00665
0.985205
0.953085
0.907146
0.877314
0.856722
0.82285
0.784661
0.74218
1.39506
1.31173
1.24707
1.18725
1.12623
1.0709
1.0227
0.978873
0.932161
0.858962
1.85167
1.72956
1.61069
1.5064
1.40928
1.32139
1.24248
1.16473
1.10698
1.02499
2.29415
2.20514
2.08524
1.96253
1.83473
1.6964
1.57448
1.45622
1.35853
1.23058
2.30734
2.30272
2.27884
2.23403
2.18293
2.10468
1.99518
1.87171
1.75364
1.56578
1.98056
2.07972
2.13184
2.18015
2.18002
2.16671
2.1325
2.08673
2.0374
1.92225
1.49492
1.56342
1.64663
1.74938
1.8569
1.95072
2.00084
2.02806
2.02528
1.99488
1.40268
1.40665
1.41527
1.43338
1.46817
1.52622
1.60784
1.71067
1.81828
1.97447
0.276556
0.24416
0.247743
0.311343
0.391745
0.561073
0.826358
1.13755
1.47285
1.97379
2.34946
2.30586
1.85597
1.45572
1.40133
0.272287
0.228273
0.228766
0.334044
0.461615
0.674481
0.966674
1.24907
1.63165
2.16048
2.39084
2.24758
1.72784
1.42495
1.40043
0.27044
0.223615
0.229257
0.383951
0.552468
0.766891
1.0285
1.32923
1.80246
2.30604
2.40178
2.16951
1.60195
1.40977
1.40014
0.27813
0.22728
0.261286
0.432205
0.601532
0.81766
1.09413
1.49366
2.0191
2.42484
2.40117
2.01688
1.50461
1.40352
1.40005
0.28989
0.239482
0.281715
0.438406
0.605124
0.872308
1.26266
1.75374
2.23413
2.48445
2.35858
1.8372
1.44932
1.40115
1.40002
0.291899
0.247778
0.278366
0.424687
0.640685
1.04189
1.5148
1.96604
2.39887
2.50367
2.27314
1.67376
1.41769
1.40031
1.40001
0.254942
0.244147
0.268624
0.445656
0.874241
1.28383
1.6981
2.16547
2.50652
2.49612
2.08832
1.52179
1.40459
1.40007
1.40001
0.185063
0.224867
0.296686
0.674912
1.08746
1.45431
1.89591
2.40861
2.55359
2.4057
1.83136
1.44738
1.40125
1.40002
1.40001
0.114027
0.221232
0.467393
0.88521
1.24862
1.67599
2.20737
2.57997
2.57487
2.27131
1.65484
1.41732
1.40032
1.40001
1.40001
0.0806758
0.290315
0.656297
1.04606
1.48992
2.03265
2.50011
2.64702
2.58521
2.04105
1.4959
1.40337
1.40006
1.40001
1.40001
0.075425
0.417214
0.840079
1.29739
1.9151
2.37356
2.68056
2.66907
2.39481
1.69265
1.42256
1.40056
1.40001
1.40001
1.40001
0.0934904
0.584018
1.14106
1.77968
2.30546
2.62265
2.75149
2.67269
2.01946
1.50232
1.40477
1.40009
1.40001
1.40001
1.40001
0.249205
0.93884
1.6828
2.2406
2.62494
2.75094
2.77003
2.36913
1.68075
1.42314
1.40059
1.40001
1.40001
1.40001
1.40001
0.730828
1.56004
2.23088
2.60351
2.82729
2.77656
2.65682
1.94863
1.47676
1.40287
1.40006
1.40001
1.40001
1.40001
1.40001
1.64994
2.32525
2.65848
2.81194
2.87391
2.78351
2.23992
1.56159
1.40698
1.40014
1.40001
1.40001
1.40001
1.40001
1.40001
2.88952
2.85315
2.82047
2.85821
2.87973
2.58026
1.655
1.38923
1.39869
1.39998
1.4
1.40001
1.40001
1.40001
1.40001
2.88253
2.84873
2.80921
2.84498
2.84429
2.31892
1.5459
1.40484
1.40006
1.40001
1.40001
1.40001
1.40001
1.40001
1.40001
2.82204
2.86239
2.88906
2.8704
2.72837
1.96926
1.43488
1.40016
1.40001
1.40001
1.40001
1.40001
1.40001
1.40001
1.40001
2.78601
2.87836
2.97108
2.88174
2.53801
1.63931
1.40495
1.40002
1.40001
1.40001
1.40001
1.40001
1.40001
1.40001
1.40001
2.77177
2.88863
3.00867
2.8621
2.13282
1.45915
1.4004
1.40001
1.40001
1.40001
1.40001
1.40001
1.40001
1.40001
1.40001
2.80761
2.93751
3.02881
2.64453
1.76728
1.41156
1.40004
1.40001
1.40001
1.40001
1.40001
1.40001
1.40001
1.40001
1.40001
2.92966
2.98309
3.04094
2.33191
1.50127
1.40084
1.40001
1.40001
1.40001
1.40001
1.40001
1.40001
1.40001
1.40001
1.40001
3.14975
3.01542
2.78892
1.794
1.41235
1.40005
1.40001
1.40001
1.40001
1.40001
1.40001
1.40001
1.40001
1.40001
1.40001
3.38418
2.90161
2.33591
1.51996
1.40123
1.40001
1.40001
1.40001
1.40001
1.40001
1.40001
1.40001
1.40001
1.40001
1.40001
3.49739
2.73246
1.83199
1.41415
1.40005
1.40001
1.40001
1.40001
1.40001
1.40001
1.40001
1.40001
1.40001
1.40001
1.40001
3.43679
2.34339
1.54709
1.4019
1.40001
1.40001
1.40001
1.40001
1.40001
1.40001
1.40001
1.40001
1.40001
1.40001
1.40001
3.14063
1.96872
1.43713
1.40021
1.40001
1.40001
1.40001
1.40001
1.40001
1.40001
1.40001
1.40001
1.40001
1.40001
1.40001
2.77185
1.66022
1.40656
1.40003
1.40001
1.40001
1.40001
1.40001
1.40001
1.40001
1.40001
1.40001
1.40001
1.40001
1.40001
2.25653
1.4923
1.40096
1.40001
1.40001
1.40001
1.40001
1.40001
1.40001
1.40001
1.40001
1.40001
1.40001
1.40001
1.40001
1.76581
1.41589
1.40007
1.40001
1.40001
1.40001
1.40001
1.40001
1.40001
1.40001
1.40001
1.40001
1.40001
1.40001
1.40001
1.40001
1.40001
1.40001
1.40001
1.40001
1.40001
1.40001
1.40001
1.40001
1.40001
1.40001
1.40001
1.40001
1.40001
1.40001
1.40001
1.40001
1.40001
1.40001
1.40001
1.40001
1.40001
1.40001
1.40001
1.40001
1.40001
1.40001
1.40001
1.40001
1.40001
1.40001
1.40001
1.40001
1.40001
1.40001
1.40001
1.40001
1.40001
1.40001
1.40001
1.40001
1.40001
1.40001
1.40001
1.40001
1.40001
1.40001
1.40001
1.40001
1.40001
1.40001
1.40001
1.40001
1.40001
1.40001
1.40001
1.40001
1.40001
1.40001
1.40001
1.40001
1.40001
1.40001
1.40001
1.40001
1.40001
1.40001
1.40001
1.40001
1.40001
1.40001
1.40001
1.40001
1.40001
1.40001
1.40001
1.40001
1.40001
1.40001
1.40001
1.40001
1.40001
1.40001
1.40001
1.40001
1.40001
1.40001
1.40001
1.40001
1.40001
1.40001
1.40001
1.40001
1.40001
1.40001
1.40001
1.40001
1.40001
1.40001
1.40001
1.40001
1.40001
1.40001
1.40001
1.40001
1.40001
1.40001
1.40001
1.40001
1.40001
1.40001
1.40001
1.40001
1.40001
1.40001
1.40001
1.40001
1.40001
1.40001
1.40001
1.40001
1.40001
1.40001
1.40001
1.40001
1.40001
1.40001
1.40001
1.40001
1.40001
1.40001
1.40001
1.40001
1.40001
1.40001
1.40001
1.40001
1.40001
1.40001
1.40001
1.40001
1.40001
1.40001
1.40001
1.40001
1.40001
1.40001
1.40001
1.40001
1.40001
1.40001
1.40001
1.40001
1.40001
1.40001
1.40001
1.40001
1.40001
1.40001
1.40001
1.40001
1.40001
1.40001
1.40001
1.40001
1.40001
1.40001
1.40001
1.40001
1.40001
1.40001
1.40001
1.40001
1.40001
1.40001
1.40001
1.40001
1.40001
1.40001
1.40001
1.40001
1.40001
1.40001
1.40001
1.40001
1.40001
1.40001
1.40001
1.40001
1.40001
1.40001
1.40001
1.40001
1.40001
1.40001
1.40001
1.40001
1.40001
1.40001
1.40001
1.40001
1.40001
1.40001
1.40001
1.40001
1.40001
1.40001
1.40001
1.40001
1.40001
1.40001
1.40001
1.40001
1.40001
1.40001
1.40001
1.40001
1.40001
1.40001
1.40001
1.40001
1.40001
1.40001
1.40001
1.40001
1.40001
1.40001
1.40001
1.40001
1.40001
1.40001
1.40001
1.40001
1.40001
1.40001
1.40001
1.40001
1.40001
1.40001
1.40001
1.40001
1.40001
1.40001
1.40001
1.40001
1.40001
1.40001
1.40001
1.40001
1.40001
1.40001
1.40001
1.40001
1.40001
1.40001
1.40001
1.40001
1.40001
1.40001
1.40001
1.40001
1.40001
1.40001
1.40001
1.40001
1.40001
1.40001
1.40001
1.40001
1.40001
1.40001
1.40001
1.40001
1.40001
1.40001
1.40001
1.40001
1.40001
1.40001
1.40001
1.40001
1.40001
1.40001
1.40001
1.40001
1.40001
1.40001
1.40001
1.40001
1.40001
1.40001
1.40001
1.40001
1.40001
1.40001
1.40001
1.40001
1.40001
1.40001
1.40001
1.40001
1.40001
1.40001
1.40001
1.40001
1.40001
1.40001
1.40001
1.40001
1.40001
1.40001
1.40001
1.40001
1.40001
1.40001
1.40001
1.40001
1.40001
1.40001
1.40001
1.40001
1.40001
1.40001
1.40001
1.40001
1.40001
1.40001
1.40001
1.40001
1.40001
1.40001
1.40001
1.40001
1.40001
1.40001
1.40001
1.40001
1.40001
1.40001
1.40001
1.40001
1.40001
1.40001
1.40001
1.40001
1.40001
1.40001
1.40001
1.40001
1.40001
2.0952
1.41261
1.40001
1.40001
1.40001
1.40001
1.40001
1.40001
1.40001
1.40001
1.40001
1.40001
1.40001
1.40001
1.40001
1.40001
1.40001
1.40001
1.40001
1.40001
3.01551
1.59469
1.39943
1.40001
1.40001
1.40001
1.40001
1.40001
1.40001
1.40001
1.40001
1.40001
1.40001
1.40001
1.40001
1.40001
1.40001
1.40001
1.40001
1.40001
4.03537
2.12331
1.41282
1.39997
1.40001
1.40001
1.40001
1.40001
1.40001
1.40001
1.40001
1.40001
1.40001
1.40001
1.40001
1.40001
1.40001
1.40001
1.40001
1.40001
4.47392
3.09507
1.76165
1.40056
1.40001
1.40001
1.40001
1.40001
1.40001
1.40001
1.40001
1.40001
1.40001
1.40001
1.40001
1.40001
1.40001
1.40001
1.40001
1.40001
4.29922
3.70152
2.8961
1.58964
1.39974
1.4
1.40001
1.40001
1.40001
1.40001
1.40001
1.40001
1.40001
1.40001
1.40001
1.40001
1.40001
1.40001
1.40001
1.40001
3.82946
3.67378
3.54998
2.48718
1.49569
1.39981
1.4
1.40001
1.40001
1.40001
1.40001
1.40001
1.40001
1.40001
1.40001
1.40001
1.40001
1.40001
1.40001
1.40001
3.46903
3.56721
3.71606
3.39767
2.08315
1.41624
1.39996
1.4
1.40001
1.40001
1.40001
1.40001
1.40001
1.40001
1.40001
1.40001
1.40001
1.40001
1.40001
1.40001
3.44194
3.5266
3.64968
3.5326
2.96181
1.73429
1.40158
1.40001
1.40001
1.40001
1.40001
1.40001
1.40001
1.40001
1.40001
1.40001
1.40001
1.40001
1.40001
1.40001
3.46505
3.48849
3.52896
3.49009
3.36203
2.46615
1.49446
1.39994
1.4
1.40001
1.40001
1.40001
1.40001
1.40001
1.40001
1.40001
1.40001
1.40001
1.40001
1.40001
3.49986
3.48809
3.45965
3.48218
3.52052
3.20148
1.92865
1.40869
1.39999
1.4
1.40001
1.40001
1.40001
1.40001
1.40001
1.40001
1.40001
1.40001
1.40001
1.40001
3.50158
3.49684
3.48396
3.49421
3.50701
3.37798
2.67473
1.58106
1.40044
1.4
1.40001
1.40001
1.40001
1.40001
1.40001
1.40001
1.40001
1.40001
1.40001
1.40001
3.50555
3.51139
3.50555
3.48935
3.46038
3.4142
3.21403
2.07597
1.42386
1.4
1.40001
1.40001
1.40001
1.40001
1.40001
1.40001
1.40001
1.40001
1.40001
1.40001
3.51439
3.52098
3.50412
3.47047
3.42775
3.4422
3.46402
2.87207
1.62459
1.40082
1.40001
1.40001
1.40001
1.40001
1.40001
1.40001
1.40001
1.40001
1.40001
1.40001
3.5294
3.52994
3.50769
3.46202
3.43104
3.45012
3.47228
3.17375
2.19292
1.47597
1.4008
1.40001
1.40001
1.40001
1.40001
1.40001
1.40001
1.40001
1.40001
1.40001
3.55818
3.54534
3.50508
3.46318
3.44538
3.44935
3.47243
3.35514
2.76187
1.50331
1.39149
1.3992
1.4
1.4
1.40001
1.40001
1.40001
1.40001
1.40001
1.40001
1.7367
2.61555
3.06122
3.26289
3.35514
3.4035
3.45637
3.47842
3.40606
2.58758
1.64735
1.41653
1.40044
1.40001
1.40001
1.40001
1.40001
1.40001
1.40001
1.40001
0.472251
1.51847
2.28288
2.73448
3.0132
3.20868
3.35107
3.46134
3.45078
3.23483
2.48141
1.63295
1.41426
1.40032
1.40001
1.40001
1.40001
1.40001
1.40001
1.40001
0.175075
0.78199
1.44497
2.06906
2.51427
2.82218
3.09441
3.30112
3.41703
3.3932
3.1622
2.2904
1.55543
1.4074
1.40014
1.40001
1.40001
1.40001
1.40001
1.40001
0.224572
0.586908
0.944112
1.39539
1.92822
2.34663
2.70149
2.98864
3.24344
3.3632
3.32681
2.95247
2.01351
1.47336
1.40241
1.40004
1.40001
1.40001
1.40001
1.40001
0.309909
0.503906
0.724869
1.03335
1.41977
1.87957
2.24244
2.60604
2.93569
3.2009
3.2838
3.25476
2.70133
1.75671
1.42478
1.4005
1.40001
1.40001
1.40001
1.40001
0.361196
0.400329
0.516483
0.83874
1.14365
1.51576
1.87312
2.24249
2.61033
2.9372
3.14072
3.2444
3.1634
2.36477
1.56666
1.40728
1.40012
1.40001
1.40001
1.40001
0.421619
0.37026
0.374212
0.611544
0.92059
1.23656
1.57327
1.90543
2.30311
2.62105
2.90761
3.17302
3.15874
2.88321
1.94657
1.44754
1.40103
1.40002
1.40001
1.40001
0.463487
0.39091
0.387818
0.553492
0.756379
1.01478
1.30646
1.6201
1.98727
2.28188
2.61776
2.95918
3.12048
3.07376
2.48662
1.62788
1.40984
1.40014
1.40001
1.40001
0.460977
0.422293
0.442385
0.54309
0.673068
0.884373
1.12628
1.42054
1.72064
2.04192
2.33021
2.67492
2.98554
3.05442
2.80852
1.95984
1.45398
1.4011
1.40002
1.40001
0.442801
0.430683
0.475379
0.520658
0.585369
0.798659
1.00313
1.26986
1.54978
1.85639
2.13513
2.45549
2.77526
2.99877
2.95572
2.37098
1.58204
1.40692
1.40008
1.40001
0.429642
0.4386
0.489575
0.481814
0.488772
0.65164
0.861259
1.10251
1.37431
1.6591
1.95311
2.24047
2.5657
2.88464
2.94677
2.72957
1.85506
1.43164
1.40053
1.40001
0.438114
0.461367
0.495415
0.472442
0.473853
0.591397
0.768215
0.94271
1.18918
1.41908
1.74183
1.98462
2.31418
2.68276
2.90066
2.82631
2.22504
1.52138
1.40306
1.40003
0.444956
0.471021
0.499837
0.479642
0.483913
0.595388
0.730036
0.889839
1.07585
1.29554
1.56994
1.82813
2.0906
2.44702
2.8016
2.80201
2.44582
1.68389
1.4139
1.40016
0.438412
0.466498
0.499638
0.488872
0.490457
0.578644
0.681779
0.851513
1.02177
1.21923
1.45517
1.71929
1.96096
2.26664
2.65883
2.77361
2.63961
1.89904
1.4411
1.40068
0.431295
0.452773
0.487569
0.486498
0.488395
0.54332
0.604916
0.764615
0.928326
1.11362
1.32558
1.58266
1.83123
2.09772
2.48323
2.73156
2.70742
2.18945
1.51834
1.40305
0.52757
0.462343
0.487269
0.492876
0.50759
0.533862
0.565961
0.704521
0.850329
1.00519
1.20884
1.43287
1.70251
1.95222
2.31848
2.6628
2.68829
2.34507
1.63734
1.40992
0.596209
0.496313
0.503984
0.512726
0.519376
0.529264
0.562687
0.700222
0.827788
0.971128
1.15791
1.36714
1.59869
1.84439
2.13944
2.53516
2.64445
2.46937
1.79266
1.4265
0.696451
0.56413
0.510936
0.514735
0.517398
0.521535
0.565764
0.696451
0.809652
0.948755
1.1234
1.3292
1.52864
1.75837
2.01552
2.3872
2.59449
2.55045
1.99024
1.47162
0.814838
0.698789
0.532867
0.502069
0.504778
0.503961
0.563206
0.676482
0.762063
0.907909
1.06571
1.25895
1.44611
1.64443
1.88574
2.23632
2.53005
2.53313
2.16372
1.56019
0.935454
0.839556
0.586399
0.488935
0.487731
0.487881
0.563986
0.656169
0.711088
0.854041
1.00763
1.16917
1.35363
1.54047
1.75694
2.06481
2.42177
2.49288
2.29141
1.70805
0.989139
0.947995
0.737539
0.499701
0.485136
0.486334
0.561984
0.637529
0.69313
0.830846
0.961476
1.10798
1.29142
1.47056
1.66838
1.93005
2.29429
2.46001
2.36314
1.90433
0.975981
1.03683
0.945947
0.581081
0.48162
0.484645
0.55182
0.61374
0.673771
0.809322
0.925329
1.0578
1.22748
1.40004
1.58219
1.81405
2.15901
2.40995
2.37851
2.14566
0.950009
1.02973
0.99021
0.75639
0.497926
0.481477
0.536437
0.583952
0.650306
0.772365
0.880764
1.00682
1.15182
1.31689
1.48501
1.68695
2.00376
2.33201
2.36613
2.3932
0.922218
0.991916
1.02952
0.944304
0.570282
0.473311
0.521401
0.564785
0.652566
0.740225
0.834251
0.964974
1.0943
1.24547
1.40579
1.58996
1.86345
2.22109
2.36704
2.59222
0.924304
0.973949
1.03858
1.0168
0.804604
0.526139
0.512494
0.557415
0.642075
0.700805
0.774209
0.895282
1.0066
1.13929
1.28483
1.44843
1.66579
2.00794
2.3544
2.79065
)
;

boundaryField
{
    inlet
    {
        type            calculated;
        value           uniform 1.40001;
    }
    outlet
    {
        type            calculated;
        value           nonuniform List<scalar> 
35
(
0.924488
0.974123
1.03864
1.01679
0.804857
0.526455
0.512547
0.557487
0.642028
0.700723
0.774438
0.895534
1.00677
1.13951
1.28508
1.44863
1.66582
2.00811
2.3556
2.79316
0.910278
0.93466
0.919832
0.74429
0.494859
0.520399
0.6269
0.742192
0.85918
1.02507
1.23061
1.56581
1.92251
1.99544
1.97549
)
;
    }
    airfoil
    {
        type            calculated;
        value           nonuniform List<scalar> 
60
(
0.276556
0.272287
0.27044
0.27813
0.28989
0.291899
0.254942
0.185063
0.114027
0.0806758
0.075425
0.0934904
0.249205
0.730828
1.64994
2.88952
2.88253
2.82204
2.78601
2.77177
2.80761
2.92966
3.14975
3.38418
3.49739
3.43679
3.14063
2.77185
2.25653
1.76581
2.0952
3.01551
4.03537
4.47392
4.29922
3.82946
3.46903
3.44194
3.46505
3.49986
3.50158
3.50555
3.51439
3.5294
3.55818
1.7367
0.472251
0.175075
0.224572
0.309909
0.361196
0.421619
0.463487
0.460977
0.442801
0.429642
0.438114
0.444956
0.438412
0.431295
)
;
    }
    top
    {
        type            symmetryPlane;
    }
    bottom
    {
        type            symmetryPlane;
    }
    defaultFaces
    {
        type            empty;
    }
}


// ************************************************************************* //
