/*--------------------------------*- C++ -*----------------------------------*\
  =========                 |
  \\      /  F ield         | OpenFOAM: The Open Source CFD Toolbox
   \\    /   O peration     | Website:  https://openfoam.org
    \\  /    A nd           | Version:  7
     \\/     M anipulation  |
\*---------------------------------------------------------------------------*/
FoamFile
{
    version     2.0;
    format      ascii;
    class       volVectorField;
    location    "1.5";
    object      U;
}
// * * * * * * * * * * * * * * * * * * * * * * * * * * * * * * * * * * * * * //

dimensions      [0 1 -1 0 0 0 0];

internalField   nonuniform List<vector> 
24000
(
(2.94801 -1.04258 0)
(2.93194 -0.97258 0)
(2.91368 -0.829036 0)
(2.91424 -0.772915 0)
(2.91649 -0.72236 0)
(2.90911 -0.621862 0)
(2.91491 -0.558336 0)
(2.91635 -0.487083 0)
(2.92389 -0.448983 0)
(2.91943 -0.355305 0)
(2.92734 -0.326812 0)
(2.92199 -0.250197 0)
(2.92182 -0.192245 0)
(2.92834 -0.162231 0)
(2.92147 -0.0694552 0)
(2.92803 -0.0732545 0)
(2.92401 -0.0262439 0)
(2.91969 -0.0165214 0)
(2.91806 -0.0222906 0)
(2.91773 -0.0220587 0)
(2.9175 -0.023891 0)
(2.91984 -0.02164 0)
(2.92098 -0.0173675 0)
(2.91613 0.00491844 0)
(2.9209 -0.00145256 0)
(2.89533 0.00353941 0)
(2.87502 0.00607781 0)
(2.83247 -0.00273956 0)
(2.79639 -0.017852 0)
(2.77126 -0.0448985 0)
(2.75402 -0.0620369 0)
(2.74649 -0.0623051 0)
(2.74208 -0.0541425 0)
(2.72778 -0.0437494 0)
(2.71981 -0.0405562 0)
(2.70693 -0.0385034 0)
(2.69063 -0.0337424 0)
(2.6787 -0.0332989 0)
(2.668 -0.0371776 0)
(2.65882 -0.0448789 0)
(2.65295 -0.0527014 0)
(2.64286 -0.0658459 0)
(2.64752 -0.0769169 0)
(2.69676 -0.0713776 0)
(2.76036 -0.0491342 0)
(2.83893 0.00027533 0)
(2.87693 0.0333981 0)
(2.9184 0.0455337 0)
(2.92436 0.0398878 0)
(2.93994 0.0437554 0)
(2.96571 -1.12352 0)
(2.96541 -1.12328 0)
(2.96515 -1.12303 0)
(2.96481 -1.12291 0)
(2.96441 -1.12277 0)
(2.96396 -1.12242 0)
(2.96319 -1.12201 0)
(2.96254 -1.12186 0)
(2.96097 -1.11974 0)
(2.95594 -1.1118 0)
(2.94864 -1.09697 0)
(2.93677 -1.06877 0)
(2.92068 -1.01511 0)
(2.90119 -0.955888 0)
(2.86754 -0.824293 0)
(2.84291 -0.718219 0)
(2.79689 -0.549449 0)
(2.77362 -0.374834 0)
(2.80022 -0.301219 0)
(2.76989 -0.122688 0)
(2.77536 -0.0482726 0)
(2.77966 -0.0165856 0)
(2.75338 0.0776904 0)
(2.74327 0.0926747 0)
(2.72948 0.0822477 0)
(2.73397 0.0815152 0)
(2.72259 0.0544661 0)
(2.68812 0.00047541 0)
(2.66459 -0.0225993 0)
(2.65565 -0.0394262 0)
(2.64847 -0.0416005 0)
(2.63948 -0.028574 0)
(2.61865 -0.0242213 0)
(2.60824 -0.0263726 0)
(2.59579 -0.0278261 0)
(2.58509 -0.0257865 0)
(2.57942 -0.025425 0)
(2.57463 -0.028059 0)
(2.57099 -0.0341512 0)
(2.56683 -0.0431174 0)
(2.56217 -0.0496117 0)
(2.55586 -0.0648005 0)
(2.55474 -0.0798998 0)
(2.57493 -0.0711247 0)
(2.6151 -0.0502897 0)
(2.66315 -0.00454482 0)
(2.69966 0.0271772 0)
(2.74436 0.0412509 0)
(2.75 0.0399955 0)
(2.77461 0.0450707 0)
(2.95629 -1.11868 0)
(2.95549 -1.11836 0)
(2.95452 -1.11808 0)
(2.95353 -1.11766 0)
(2.95247 -1.11724 0)
(2.9513 -1.11691 0)
(2.95008 -1.11648 0)
(2.94867 -1.11594 0)
(2.94733 -1.11542 0)
(2.94672 -1.11495 0)
(2.94596 -1.11447 0)
(2.9452 -1.11404 0)
(2.94445 -1.11342 0)
(2.94413 -1.11318 0)
(2.94315 -1.11263 0)
(2.94219 -1.11205 0)
(2.93928 -1.10909 0)
(2.9294 -1.09078 0)
(2.91073 -1.04481 0)
(2.87712 -0.953808 0)
(2.84536 -0.817791 0)
(2.81094 -0.67963 0)
(2.76769 -0.476086 0)
(2.74598 -0.337447 0)
(2.71768 -0.25276 0)
(2.66476 -0.115047 0)
(2.64195 -0.0690112 0)
(2.63297 -0.0656463 0)
(2.61361 -0.0597345 0)
(2.59903 -0.0452959 0)
(2.57046 -0.0142787 0)
(2.55359 -0.0102569 0)
(2.53744 -0.0239929 0)
(2.52997 -0.0385907 0)
(2.52697 -0.0353901 0)
(2.53043 -0.0274944 0)
(2.5328 -0.0250672 0)
(2.53411 -0.0274699 0)
(2.53061 -0.0400548 0)
(2.52619 -0.0462319 0)
(2.52006 -0.0492487 0)
(2.51547 -0.0636593 0)
(2.50994 -0.080925 0)
(2.5092 -0.0799645 0)
(2.51768 -0.0473225 0)
(2.52971 -0.00989997 0)
(2.55029 0.025937 0)
(2.57988 0.0406904 0)
(2.58581 0.0374801 0)
(2.61521 0.0421484 0)
(2.94399 -1.11416 0)
(2.94337 -1.11392 0)
(2.94271 -1.11367 0)
(2.94198 -1.1134 0)
(2.94128 -1.11311 0)
(2.94069 -1.11284 0)
(2.93995 -1.1125 0)
(2.93914 -1.11213 0)
(2.93851 -1.11183 0)
(2.93781 -1.11141 0)
(2.93751 -1.1111 0)
(2.93688 -1.11067 0)
(2.93629 -1.11028 0)
(2.93593 -1.11002 0)
(2.93543 -1.10971 0)
(2.93478 -1.1092 0)
(2.93448 -1.10865 0)
(2.93424 -1.10802 0)
(2.93404 -1.10774 0)
(2.93344 -1.10759 0)
(2.93267 -1.10708 0)
(2.93226 -1.10673 0)
(2.9248 -1.09104 0)
(2.90246 -1.02604 0)
(2.85309 -0.90293 0)
(2.74713 -0.63996 0)
(2.68049 -0.367596 0)
(2.64326 -0.146703 0)
(2.62261 -0.0265729 0)
(2.56597 0.0871866 0)
(2.54522 0.0750292 0)
(2.52192 0.0190336 0)
(2.51456 -0.0317127 0)
(2.51281 -0.037985 0)
(2.52031 -0.0339385 0)
(2.52699 -0.02423 0)
(2.52731 -0.0201568 0)
(2.52669 -0.0284164 0)
(2.51417 -0.0455321 0)
(2.51112 -0.0461097 0)
(2.50459 -0.04585 0)
(2.50106 -0.0624593 0)
(2.48843 -0.0783635 0)
(2.47296 -0.0736533 0)
(2.46459 -0.0408658 0)
(2.45577 -0.00421248 0)
(2.45583 0.0204846 0)
(2.46665 0.0363217 0)
(2.47108 0.0377981 0)
(2.50781 0.0409615 0)
(2.93534 -1.11108 0)
(2.935 -1.1109 0)
(2.93471 -1.11071 0)
(2.93458 -1.11061 0)
(2.93434 -1.11046 0)
(2.93402 -1.11017 0)
(2.93385 -1.10985 0)
(2.93358 -1.10966 0)
(2.93341 -1.10937 0)
(2.93319 -1.1091 0)
(2.9329 -1.10879 0)
(2.93275 -1.10853 0)
(2.93271 -1.10849 0)
(2.9327 -1.10831 0)
(2.93254 -1.10799 0)
(2.93237 -1.10771 0)
(2.93229 -1.10751 0)
(2.93205 -1.10728 0)
(2.93145 -1.10701 0)
(2.93125 -1.10698 0)
(2.93108 -1.10692 0)
(2.93078 -1.10687 0)
(2.93061 -1.1061 0)
(2.92994 -1.10563 0)
(2.9281 -1.10571 0)
(2.92498 -1.10747 0)
(2.90438 -1.06852 0)
(2.85412 -0.944867 0)
(2.78589 -0.72286 0)
(2.72491 -0.495063 0)
(2.67988 -0.301341 0)
(2.63139 -0.202698 0)
(2.59075 -0.107216 0)
(2.5577 -0.0564423 0)
(2.54566 -0.0316071 0)
(2.53446 -0.0202396 0)
(2.53436 -0.0135667 0)
(2.52443 -0.0314625 0)
(2.50808 -0.0491649 0)
(2.50692 -0.0420833 0)
(2.50005 -0.0417034 0)
(2.49276 -0.0602443 0)
(2.47539 -0.0705894 0)
(2.45397 -0.0588436 0)
(2.43845 -0.0271086 0)
(2.42454 0.000766675 0)
(2.41396 0.0215664 0)
(2.41022 0.0368577 0)
(2.41473 0.0361726 0)
(2.46061 0.0392452 0)
(2.93256 -1.10804 0)
(2.93254 -1.10784 0)
(2.93252 -1.10765 0)
(2.93245 -1.10748 0)
(2.93237 -1.10737 0)
(2.93233 -1.10713 0)
(2.93231 -1.10694 0)
(2.93225 -1.10692 0)
(2.93221 -1.10679 0)
(2.93217 -1.1067 0)
(2.93208 -1.10672 0)
(2.9319 -1.10681 0)
(2.93166 -1.10674 0)
(2.93153 -1.10662 0)
(2.9314 -1.10626 0)
(2.93144 -1.10604 0)
(2.93145 -1.1059 0)
(2.93133 -1.10592 0)
(2.93113 -1.1064 0)
(2.93077 -1.10718 0)
(2.93073 -1.10739 0)
(2.93058 -1.1076 0)
(2.93038 -1.10778 0)
(2.93046 -1.1069 0)
(2.92872 -1.10782 0)
(2.92625 -1.10642 0)
(2.92279 -1.10311 0)
(2.91613 -1.09931 0)
(2.90281 -1.09759 0)
(2.87277 -1.06879 0)
(2.81086 -0.936644 0)
(2.73256 -0.659588 0)
(2.69515 -0.439572 0)
(2.61071 -0.156322 0)
(2.58602 -0.0862138 0)
(2.55077 -0.00254156 0)
(2.54213 -0.00446821 0)
(2.52602 -0.0320825 0)
(2.52049 -0.0386598 0)
(2.51304 -0.0303918 0)
(2.50356 -0.0393362 0)
(2.48753 -0.0600948 0)
(2.46701 -0.0626382 0)
(2.44577 -0.0443511 0)
(2.42816 -0.0144028 0)
(2.41346 0.00692186 0)
(2.40062 0.0244766 0)
(2.3939 0.0349948 0)
(2.399 0.0355444 0)
(2.4483 0.0366213 0)
(2.93195 -1.10561 0)
(2.93192 -1.10556 0)
(2.93184 -1.10558 0)
(2.93177 -1.10552 0)
(2.93174 -1.10542 0)
(2.93167 -1.10547 0)
(2.93161 -1.10542 0)
(2.93146 -1.10545 0)
(2.93127 -1.10537 0)
(2.93119 -1.1052 0)
(2.93113 -1.10527 0)
(2.93102 -1.10566 0)
(2.93108 -1.10591 0)
(2.93129 -1.10577 0)
(2.93142 -1.10576 0)
(2.93152 -1.10576 0)
(2.93161 -1.10567 0)
(2.93158 -1.10572 0)
(2.93146 -1.10651 0)
(2.93164 -1.10718 0)
(2.93179 -1.10744 0)
(2.93211 -1.10811 0)
(2.93198 -1.10822 0)
(2.93169 -1.10798 0)
(2.93034 -1.10797 0)
(2.92823 -1.10759 0)
(2.92589 -1.10261 0)
(2.92065 -1.10059 0)
(2.91168 -1.09326 0)
(2.89048 -1.08001 0)
(2.85312 -1.06561 0)
(2.82406 -1.06405 0)
(2.79969 -1.01191 0)
(2.74898 -0.835462 0)
(2.68076 -0.529309 0)
(2.62957 -0.270347 0)
(2.59407 -0.136324 0)
(2.56224 -0.0631407 0)
(2.54664 -0.0344743 0)
(2.51393 -0.0138578 0)
(2.49577 -0.0339575 0)
(2.48015 -0.054776 0)
(2.46242 -0.0547515 0)
(2.44538 -0.0332961 0)
(2.42751 -0.00879667 0)
(2.41213 0.00839404 0)
(2.39855 0.0231801 0)
(2.39345 0.0322571 0)
(2.40043 0.0333752 0)
(2.45037 0.0312677 0)
(2.93144 -1.10417 0)
(2.93146 -1.10402 0)
(2.93123 -1.10414 0)
(2.93106 -1.1044 0)
(2.93101 -1.1044 0)
(2.93087 -1.10449 0)
(2.93068 -1.10447 0)
(2.93064 -1.10425 0)
(2.93036 -1.10452 0)
(2.93019 -1.10494 0)
(2.9303 -1.10512 0)
(2.93022 -1.1059 0)
(2.93039 -1.10634 0)
(2.93067 -1.10612 0)
(2.93067 -1.10639 0)
(2.93078 -1.10637 0)
(2.93099 -1.10612 0)
(2.93097 -1.10632 0)
(2.93144 -1.10697 0)
(2.9321 -1.1072 0)
(2.93256 -1.10728 0)
(2.93346 -1.10822 0)
(2.9331 -1.10844 0)
(2.93266 -1.10798 0)
(2.93231 -1.10762 0)
(2.93117 -1.10656 0)
(2.92936 -1.10389 0)
(2.92575 -1.10188 0)
(2.91963 -1.09472 0)
(2.903 -1.08659 0)
(2.86684 -1.08767 0)
(2.83055 -1.06624 0)
(2.80902 -1.0393 0)
(2.80554 -1.03262 0)
(2.79975 -1.01462 0)
(2.76224 -0.886859 0)
(2.67039 -0.520103 0)
(2.66838 -0.306731 0)
(2.55454 -0.00837181 0)
(2.52842 0.0203888 0)
(2.47718 -0.0331689 0)
(2.4748 -0.0478846 0)
(2.46894 -0.049305 0)
(2.45013 -0.0297528 0)
(2.42865 -0.00942329 0)
(2.41441 0.00794499 0)
(2.4024 0.0193163 0)
(2.40175 0.0280057 0)
(2.41183 0.0286677 0)
(2.46793 0.0213056 0)
(2.93015 -1.10512 0)
(2.93001 -1.10541 0)
(2.93004 -1.10511 0)
(2.92976 -1.10513 0)
(2.92917 -1.10574 0)
(2.92908 -1.10572 0)
(2.92888 -1.10597 0)
(2.9288 -1.1061 0)
(2.9289 -1.1061 0)
(2.92902 -1.10637 0)
(2.92895 -1.10737 0)
(2.92943 -1.10822 0)
(2.92967 -1.10796 0)
(2.92995 -1.10737 0)
(2.93036 -1.10717 0)
(2.93064 -1.10681 0)
(2.93087 -1.1066 0)
(2.931 -1.10673 0)
(2.93169 -1.10695 0)
(2.93253 -1.10675 0)
(2.93356 -1.10643 0)
(2.93453 -1.10691 0)
(2.93483 -1.10757 0)
(2.93514 -1.10742 0)
(2.93498 -1.10672 0)
(2.93462 -1.10654 0)
(2.93365 -1.10463 0)
(2.92988 -1.10413 0)
(2.92322 -1.10016 0)
(2.91208 -1.09022 0)
(2.8844 -1.08795 0)
(2.8464 -1.07675 0)
(2.81609 -1.04736 0)
(2.80625 -1.02728 0)
(2.80439 -1.02369 0)
(2.80223 -1.0241 0)
(2.79713 -1.01434 0)
(2.76661 -0.894624 0)
(2.67494 -0.547545 0)
(2.62451 -0.263746 0)
(2.5468 -0.0962583 0)
(2.50305 -0.0616173 0)
(2.47451 -0.0462908 0)
(2.44485 -0.0312126 0)
(2.42481 -0.0139927 0)
(2.41679 0.00636884 0)
(2.40983 0.0138746 0)
(2.41972 0.0189299 0)
(2.43341 0.0167662 0)
(2.49982 0.00660306 0)
(2.92883 -1.10741 0)
(2.92869 -1.10747 0)
(2.92858 -1.10751 0)
(2.92851 -1.10746 0)
(2.92851 -1.10754 0)
(2.92847 -1.10776 0)
(2.92859 -1.10822 0)
(2.92881 -1.1083 0)
(2.92905 -1.10853 0)
(2.92893 -1.10928 0)
(2.92917 -1.10995 0)
(2.92947 -1.10981 0)
(2.9296 -1.10913 0)
(2.92964 -1.10833 0)
(2.93038 -1.10774 0)
(2.93084 -1.10702 0)
(2.93091 -1.10661 0)
(2.93194 -1.1058 0)
(2.93271 -1.10539 0)
(2.93375 -1.10484 0)
(2.93538 -1.10366 0)
(2.93726 -1.10385 0)
(2.93791 -1.1046 0)
(2.93822 -1.10617 0)
(2.93838 -1.10693 0)
(2.93787 -1.10788 0)
(2.93663 -1.10677 0)
(2.93259 -1.10617 0)
(2.92488 -1.1066 0)
(2.91557 -1.0961 0)
(2.89789 -1.08903 0)
(2.86709 -1.088 0)
(2.83285 -1.06114 0)
(2.81112 -1.02958 0)
(2.80593 -1.02189 0)
(2.80642 -1.01927 0)
(2.80281 -1.01841 0)
(2.79703 -1.01712 0)
(2.78616 -1.00051 0)
(2.72988 -0.786582 0)
(2.63751 -0.398121 0)
(2.55465 -0.108865 0)
(2.44653 -0.0349772 0)
(2.43555 -0.0218312 0)
(2.42885 -0.00396494 0)
(2.42673 0.0130161 0)
(2.42222 0.00800211 0)
(2.44303 0.0129817 0)
(2.46067 0.00776409 0)
(2.53272 -0.0085255 0)
(2.92867 -1.10927 0)
(2.92872 -1.1091 0)
(2.92883 -1.10889 0)
(2.92884 -1.10861 0)
(2.92897 -1.10882 0)
(2.92921 -1.10979 0)
(2.92899 -1.11028 0)
(2.92901 -1.11079 0)
(2.92919 -1.11127 0)
(2.92923 -1.11175 0)
(2.92946 -1.11218 0)
(2.92957 -1.11227 0)
(2.9296 -1.11236 0)
(2.93055 -1.11165 0)
(2.93243 -1.10977 0)
(2.93265 -1.10821 0)
(2.93268 -1.10628 0)
(2.93372 -1.10366 0)
(2.93466 -1.1023 0)
(2.93501 -1.10176 0)
(2.93718 -1.10179 0)
(2.93859 -1.10231 0)
(2.93996 -1.10349 0)
(2.94056 -1.10617 0)
(2.93881 -1.10846 0)
(2.93777 -1.11133 0)
(2.93642 -1.11253 0)
(2.93252 -1.11176 0)
(2.92524 -1.11035 0)
(2.91608 -1.10519 0)
(2.90507 -1.09481 0)
(2.88589 -1.08785 0)
(2.85576 -1.07848 0)
(2.83023 -1.04403 0)
(2.81779 -1.02545 0)
(2.80991 -1.02017 0)
(2.80449 -1.01775 0)
(2.79843 -1.01299 0)
(2.79136 -1.00712 0)
(2.78437 -1.00031 0)
(2.76411 -0.949253 0)
(2.66032 -0.598524 0)
(2.53051 -0.247408 0)
(2.47032 -0.047098 0)
(2.45358 -0.0052092 0)
(2.44018 0.0208172 0)
(2.43612 0.00197918 0)
(2.46711 0.00119477 0)
(2.48714 -0.0145736 0)
(2.557 -0.0293625 0)
(2.93065 -1.11291 0)
(2.93091 -1.11308 0)
(2.93127 -1.11313 0)
(2.9317 -1.11329 0)
(2.93241 -1.11411 0)
(2.93286 -1.11508 0)
(2.93328 -1.11543 0)
(2.93352 -1.11543 0)
(2.93334 -1.11586 0)
(2.93367 -1.11565 0)
(2.93429 -1.11472 0)
(2.93436 -1.11495 0)
(2.93421 -1.1153 0)
(2.93425 -1.11343 0)
(2.93442 -1.11092 0)
(2.93489 -1.10872 0)
(2.93402 -1.10675 0)
(2.93368 -1.10395 0)
(2.93401 -1.10315 0)
(2.93425 -1.10302 0)
(2.93596 -1.10368 0)
(2.93694 -1.10437 0)
(2.93863 -1.10631 0)
(2.93984 -1.10917 0)
(2.93843 -1.11049 0)
(2.93649 -1.11309 0)
(2.9341 -1.11535 0)
(2.9292 -1.11699 0)
(2.92365 -1.11367 0)
(2.91771 -1.10741 0)
(2.91035 -1.09897 0)
(2.89876 -1.0894 0)
(2.87309 -1.09313 0)
(2.84504 -1.07572 0)
(2.82568 -1.04606 0)
(2.81433 -1.02674 0)
(2.80536 -1.01951 0)
(2.79947 -1.01135 0)
(2.79297 -0.998884 0)
(2.787 -0.993147 0)
(2.78088 -0.984561 0)
(2.77309 -0.969931 0)
(2.66706 -0.658284 0)
(2.58329 -0.24089 0)
(2.46557 0.0163643 0)
(2.45611 0.0150442 0)
(2.45777 0.000930443 0)
(2.48721 0.00277026 0)
(2.51404 -0.0187486 0)
(2.57756 -0.0392323 0)
(2.93712 -1.1141 0)
(2.93734 -1.11452 0)
(2.93757 -1.11533 0)
(2.93815 -1.11574 0)
(2.93887 -1.11643 0)
(2.93908 -1.11745 0)
(2.93922 -1.11773 0)
(2.9395 -1.11693 0)
(2.93952 -1.11608 0)
(2.93911 -1.11573 0)
(2.93876 -1.11502 0)
(2.9381 -1.11453 0)
(2.93671 -1.11394 0)
(2.93552 -1.11166 0)
(2.93507 -1.10975 0)
(2.93472 -1.10842 0)
(2.93348 -1.10635 0)
(2.93323 -1.10488 0)
(2.93305 -1.10443 0)
(2.93181 -1.10524 0)
(2.9312 -1.10747 0)
(2.93274 -1.11044 0)
(2.93442 -1.11468 0)
(2.93513 -1.1153 0)
(2.93456 -1.11435 0)
(2.93151 -1.1152 0)
(2.92921 -1.11738 0)
(2.92646 -1.12167 0)
(2.92298 -1.11698 0)
(2.92029 -1.10566 0)
(2.91528 -1.09992 0)
(2.90696 -1.09046 0)
(2.88448 -1.09242 0)
(2.85678 -1.08741 0)
(2.83291 -1.06259 0)
(2.8173 -1.03945 0)
(2.80849 -1.02354 0)
(2.80262 -1.01413 0)
(2.79485 -0.993277 0)
(2.79214 -0.982487 0)
(2.78951 -0.971451 0)
(2.78099 -0.963788 0)
(2.77279 -0.956908 0)
(2.71157 -0.751693 0)
(2.5977 -0.337773 0)
(2.52705 -0.121743 0)
(2.49671 -0.0472603 0)
(2.51476 -0.0104747 0)
(2.53579 -0.0340469 0)
(2.59008 -0.0501293 0)
(2.93931 -1.11704 0)
(2.9392 -1.11721 0)
(2.93918 -1.11731 0)
(2.93935 -1.11742 0)
(2.93974 -1.11785 0)
(2.93968 -1.1185 0)
(2.93943 -1.11868 0)
(2.93925 -1.11851 0)
(2.93902 -1.11773 0)
(2.93884 -1.11699 0)
(2.93825 -1.11498 0)
(2.93752 -1.11317 0)
(2.93564 -1.11013 0)
(2.93548 -1.10214 0)
(2.93494 -1.09842 0)
(2.9308 -1.0972 0)
(2.92754 -1.09959 0)
(2.92595 -1.10517 0)
(2.92682 -1.10672 0)
(2.92612 -1.10856 0)
(2.92154 -1.11585 0)
(2.92325 -1.12072 0)
(2.92407 -1.12107 0)
(2.92688 -1.11941 0)
(2.928 -1.1129 0)
(2.92522 -1.10893 0)
(2.92598 -1.11466 0)
(2.92667 -1.11862 0)
(2.92544 -1.11659 0)
(2.92223 -1.10384 0)
(2.9186 -1.09589 0)
(2.91092 -1.08767 0)
(2.88977 -1.08907 0)
(2.86379 -1.08463 0)
(2.84201 -1.0633 0)
(2.82826 -1.04491 0)
(2.81925 -1.02417 0)
(2.80936 -1.01277 0)
(2.80601 -0.994644 0)
(2.80819 -0.980978 0)
(2.80678 -0.962609 0)
(2.79261 -0.940891 0)
(2.78932 -0.93873 0)
(2.76648 -0.931046 0)
(2.73124 -0.832152 0)
(2.6363 -0.498566 0)
(2.56335 -0.213535 0)
(2.54856 -0.0547191 0)
(2.56104 -0.0888934 0)
(2.61005 -0.0625712 0)
(2.93295 -1.10088 0)
(2.93283 -1.10075 0)
(2.93218 -1.10121 0)
(2.93075 -1.10354 0)
(2.93074 -1.10382 0)
(2.93024 -1.10427 0)
(2.92974 -1.10683 0)
(2.93009 -1.10703 0)
(2.93008 -1.10423 0)
(2.93003 -1.10362 0)
(2.92971 -1.10063 0)
(2.92676 -1.0951 0)
(2.92492 -1.09017 0)
(2.92603 -1.08209 0)
(2.92639 -1.07905 0)
(2.92434 -1.08419 0)
(2.92284 -1.09284 0)
(2.92341 -1.09838 0)
(2.92491 -1.10147 0)
(2.92542 -1.10544 0)
(2.92654 -1.10755 0)
(2.92685 -1.10824 0)
(2.92626 -1.10817 0)
(2.9289 -1.10514 0)
(2.93165 -1.0969 0)
(2.93104 -1.09218 0)
(2.93496 -1.09469 0)
(2.93773 -1.09461 0)
(2.9372 -1.09193 0)
(2.93488 -1.0865 0)
(2.92813 -1.08207 0)
(2.91955 -1.07219 0)
(2.90178 -1.069 0)
(2.87746 -1.06559 0)
(2.85702 -1.04874 0)
(2.84262 -1.03603 0)
(2.83704 -1.00979 0)
(2.83454 -0.997266 0)
(2.82689 -0.993481 0)
(2.82348 -0.979104 0)
(2.81831 -0.948119 0)
(2.80397 -0.930583 0)
(2.80035 -0.928269 0)
(2.773 -0.900902 0)
(2.75592 -0.892436 0)
(2.73051 -0.86208 0)
(2.68319 -0.715446 0)
(2.63255 -0.436655 0)
(2.60496 -0.216802 0)
(2.62928 -0.0669565 0)
(2.92851 -1.11803 0)
(2.92673 -1.11636 0)
(2.92532 -1.1145 0)
(2.9249 -1.11381 0)
(2.92328 -1.11304 0)
(2.92101 -1.11286 0)
(2.91816 -1.11151 0)
(2.91716 -1.1096 0)
(2.91638 -1.10808 0)
(2.91522 -1.10395 0)
(2.91669 -1.09725 0)
(2.91443 -1.09355 0)
(2.91341 -1.08574 0)
(2.91594 -1.08036 0)
(2.91634 -1.08032 0)
(2.91855 -1.08689 0)
(2.92018 -1.08965 0)
(2.92537 -1.09098 0)
(2.93035 -1.08976 0)
(2.93286 -1.08759 0)
(2.93633 -1.0815 0)
(2.93659 -1.07634 0)
(2.93478 -1.07009 0)
(2.93168 -1.06282 0)
(2.93157 -1.0616 0)
(2.93273 -1.06007 0)
(2.93268 -1.05442 0)
(2.9356 -1.04717 0)
(2.93467 -1.04539 0)
(2.92975 -1.04791 0)
(2.92353 -1.05276 0)
(2.9198 -1.05248 0)
(2.91899 -1.04194 0)
(2.91449 -1.03852 0)
(2.90508 -1.02441 0)
(2.88952 -1.00993 0)
(2.87449 -0.995277 0)
(2.86255 -0.967727 0)
(2.84981 -0.956185 0)
(2.83534 -0.938127 0)
(2.82706 -0.913719 0)
(2.81264 -0.899089 0)
(2.79552 -0.889745 0)
(2.77766 -0.890578 0)
(2.75726 -0.878342 0)
(2.73906 -0.854503 0)
(2.72597 -0.817853 0)
(2.7087 -0.755799 0)
(2.69489 -0.620922 0)
(2.67816 -0.29302 0)
(2.94344 -0.95458 0)
(2.94115 -0.952472 0)
(2.94101 -0.956535 0)
(2.93931 -0.9613 0)
(2.93882 -0.961349 0)
(2.93662 -0.963691 0)
(2.93322 -0.976716 0)
(2.93201 -0.981344 0)
(2.93361 -0.980833 0)
(2.93318 -0.975033 0)
(2.92841 -0.969806 0)
(2.92687 -0.968916 0)
(2.92727 -0.969313 0)
(2.92619 -0.972631 0)
(2.92641 -0.98006 0)
(2.92926 -0.984279 0)
(2.93039 -0.986001 0)
(2.93026 -0.985823 0)
(2.93021 -0.980707 0)
(2.93136 -0.973778 0)
(2.93189 -0.971602 0)
(2.93297 -0.969493 0)
(2.93572 -0.968111 0)
(2.93428 -0.976179 0)
(2.9349 -0.980173 0)
(2.93502 -0.982264 0)
(2.93469 -0.986626 0)
(2.93666 -0.98938 0)
(2.939 -0.990636 0)
(2.94028 -0.9899 0)
(2.93778 -0.993514 0)
(2.93575 -0.991279 0)
(2.93249 -0.986901 0)
(2.925 -0.986392 0)
(2.91462 -0.979731 0)
(2.90142 -0.962224 0)
(2.88775 -0.945311 0)
(2.87163 -0.930772 0)
(2.85505 -0.908037 0)
(2.83905 -0.89286 0)
(2.82811 -0.873758 0)
(2.82029 -0.869425 0)
(2.80134 -0.853039 0)
(2.78757 -0.843704 0)
(2.77142 -0.819621 0)
(2.75863 -0.805242 0)
(2.74609 -0.780364 0)
(2.74219 -0.746062 0)
(2.7392 -0.70949 0)
(2.73873 -0.517684 0)
(2.93916 -0.963841 0)
(2.93959 -0.966836 0)
(2.93898 -0.971653 0)
(2.93954 -0.974535 0)
(2.94002 -0.978758 0)
(2.93946 -0.981715 0)
(2.93954 -0.984343 0)
(2.93907 -0.980394 0)
(2.93999 -0.975478 0)
(2.93779 -0.968003 0)
(2.9349 -0.958217 0)
(2.93606 -0.949441 0)
(2.93691 -0.947953 0)
(2.93781 -0.947429 0)
(2.93748 -0.948822 0)
(2.93486 -0.953063 0)
(2.93488 -0.954743 0)
(2.93489 -0.956737 0)
(2.93408 -0.962548 0)
(2.93451 -0.96473 0)
(2.93468 -0.962314 0)
(2.93455 -0.962178 0)
(2.93547 -0.962365 0)
(2.93697 -0.960181 0)
(2.93981 -0.957281 0)
(2.94172 -0.954209 0)
(2.94354 -0.952571 0)
(2.94664 -0.950981 0)
(2.9489 -0.949816 0)
(2.9495 -0.948547 0)
(2.95059 -0.940167 0)
(2.94933 -0.929192 0)
(2.94883 -0.927816 0)
(2.94008 -0.913111 0)
(2.92508 -0.900752 0)
(2.90601 -0.893879 0)
(2.88724 -0.880346 0)
(2.86914 -0.87267 0)
(2.85731 -0.873512 0)
(2.84726 -0.865382 0)
(2.84161 -0.856596 0)
(2.83603 -0.829553 0)
(2.81774 -0.814146 0)
(2.8058 -0.800986 0)
(2.78735 -0.778861 0)
(2.77434 -0.751143 0)
(2.76353 -0.724815 0)
(2.75779 -0.670644 0)
(2.76333 -0.650504 0)
(2.77159 -0.565193 0)
(2.94575 -0.821035 0)
(2.94814 -0.825221 0)
(2.94923 -0.828289 0)
(2.94732 -0.831411 0)
(2.94662 -0.837035 0)
(2.94458 -0.838964 0)
(2.9421 -0.841944 0)
(2.94244 -0.846073 0)
(2.94127 -0.850833 0)
(2.93973 -0.853643 0)
(2.94058 -0.855262 0)
(2.94081 -0.856426 0)
(2.94155 -0.857383 0)
(2.94275 -0.857852 0)
(2.9439 -0.856975 0)
(2.94542 -0.854375 0)
(2.9448 -0.852124 0)
(2.94695 -0.846742 0)
(2.94935 -0.83994 0)
(2.94867 -0.835544 0)
(2.94786 -0.834459 0)
(2.94896 -0.832963 0)
(2.95022 -0.829621 0)
(2.94998 -0.828244 0)
(2.95003 -0.829858 0)
(2.95038 -0.830792 0)
(2.95021 -0.826772 0)
(2.94977 -0.824919 0)
(2.9496 -0.822655 0)
(2.94845 -0.823146 0)
(2.94603 -0.826672 0)
(2.94294 -0.829881 0)
(2.93764 -0.832562 0)
(2.93102 -0.831813 0)
(2.91858 -0.839787 0)
(2.90835 -0.838719 0)
(2.89708 -0.837976 0)
(2.88773 -0.828803 0)
(2.88372 -0.823723 0)
(2.87191 -0.807529 0)
(2.86015 -0.789051 0)
(2.85123 -0.776582 0)
(2.83206 -0.757824 0)
(2.81787 -0.743044 0)
(2.80234 -0.726704 0)
(2.78919 -0.692394 0)
(2.78126 -0.680197 0)
(2.77321 -0.643181 0)
(2.77711 -0.590254 0)
(2.79837 -0.515933 0)
(2.94669 -0.763048 0)
(2.94605 -0.761749 0)
(2.94555 -0.761383 0)
(2.94524 -0.761548 0)
(2.9453 -0.760856 0)
(2.94517 -0.759811 0)
(2.94455 -0.759924 0)
(2.94353 -0.760613 0)
(2.94247 -0.761572 0)
(2.94145 -0.761947 0)
(2.94219 -0.760887 0)
(2.94236 -0.758862 0)
(2.94162 -0.757492 0)
(2.9418 -0.75766 0)
(2.94191 -0.757805 0)
(2.94237 -0.758053 0)
(2.94142 -0.760732 0)
(2.94146 -0.764379 0)
(2.94266 -0.766548 0)
(2.94405 -0.768047 0)
(2.94469 -0.770157 0)
(2.94546 -0.771126 0)
(2.94594 -0.771999 0)
(2.94531 -0.773549 0)
(2.94546 -0.774668 0)
(2.94526 -0.775936 0)
(2.94435 -0.777747 0)
(2.94327 -0.78086 0)
(2.944 -0.783968 0)
(2.94447 -0.786667 0)
(2.94397 -0.787497 0)
(2.94231 -0.788028 0)
(2.93892 -0.789153 0)
(2.93477 -0.788876 0)
(2.92984 -0.784512 0)
(2.92644 -0.77885 0)
(2.9174 -0.767399 0)
(2.90611 -0.754818 0)
(2.89413 -0.737367 0)
(2.88009 -0.724762 0)
(2.86131 -0.705913 0)
(2.8474 -0.695339 0)
(2.83328 -0.686847 0)
(2.81864 -0.666163 0)
(2.80697 -0.658199 0)
(2.7975 -0.642368 0)
(2.79129 -0.596303 0)
(2.79052 -0.574609 0)
(2.79445 -0.552211 0)
(2.8172 -0.482614 0)
(2.93915 -0.649884 0)
(2.93888 -0.65398 0)
(2.93769 -0.655781 0)
(2.93744 -0.656009 0)
(2.93778 -0.654419 0)
(2.93869 -0.651799 0)
(2.93815 -0.648313 0)
(2.93784 -0.648258 0)
(2.93794 -0.65104 0)
(2.9383 -0.65412 0)
(2.93787 -0.656413 0)
(2.93781 -0.65717 0)
(2.93877 -0.658343 0)
(2.93913 -0.659386 0)
(2.93986 -0.659294 0)
(2.94038 -0.658918 0)
(2.94081 -0.659479 0)
(2.94141 -0.659472 0)
(2.94194 -0.659282 0)
(2.94262 -0.661092 0)
(2.9428 -0.663749 0)
(2.94297 -0.664197 0)
(2.94327 -0.665045 0)
(2.94355 -0.666478 0)
(2.94379 -0.667602 0)
(2.94389 -0.670536 0)
(2.94452 -0.671116 0)
(2.94527 -0.670083 0)
(2.94525 -0.671343 0)
(2.94512 -0.671141 0)
(2.94535 -0.670964 0)
(2.94379 -0.671636 0)
(2.93956 -0.671642 0)
(2.9336 -0.670606 0)
(2.92953 -0.670347 0)
(2.92308 -0.66937 0)
(2.91366 -0.668372 0)
(2.90265 -0.669683 0)
(2.89306 -0.669752 0)
(2.88137 -0.676215 0)
(2.87104 -0.674566 0)
(2.86073 -0.665565 0)
(2.85013 -0.659499 0)
(2.83868 -0.646262 0)
(2.82921 -0.617798 0)
(2.82207 -0.605573 0)
(2.8157 -0.58173 0)
(2.81477 -0.528222 0)
(2.82208 -0.500578 0)
(2.84124 -0.425221 0)
(2.93111 -0.559976 0)
(2.9308 -0.559002 0)
(2.93095 -0.560571 0)
(2.93072 -0.562378 0)
(2.93092 -0.564117 0)
(2.93023 -0.566009 0)
(2.93034 -0.566568 0)
(2.93159 -0.565864 0)
(2.9318 -0.564756 0)
(2.93177 -0.564922 0)
(2.93181 -0.565038 0)
(2.93182 -0.565361 0)
(2.93266 -0.56707 0)
(2.93306 -0.568902 0)
(2.93293 -0.570134 0)
(2.93316 -0.570806 0)
(2.93327 -0.571101 0)
(2.93374 -0.572597 0)
(2.93444 -0.5756 0)
(2.93476 -0.576972 0)
(2.93488 -0.57752 0)
(2.93511 -0.579502 0)
(2.93539 -0.581887 0)
(2.93566 -0.585145 0)
(2.9358 -0.586501 0)
(2.93587 -0.588133 0)
(2.93639 -0.592932 0)
(2.93651 -0.595395 0)
(2.93677 -0.598278 0)
(2.93738 -0.604199 0)
(2.93735 -0.607202 0)
(2.93639 -0.610508 0)
(2.93542 -0.616408 0)
(2.93283 -0.622024 0)
(2.92688 -0.626719 0)
(2.92383 -0.630149 0)
(2.91872 -0.63042 0)
(2.9106 -0.63241 0)
(2.90411 -0.630765 0)
(2.89449 -0.624239 0)
(2.88645 -0.617804 0)
(2.87737 -0.610754 0)
(2.86489 -0.591403 0)
(2.85652 -0.578149 0)
(2.85247 -0.567182 0)
(2.83968 -0.520439 0)
(2.83708 -0.492083 0)
(2.83949 -0.470395 0)
(2.84529 -0.433076 0)
(2.86513 -0.360226 0)
(2.92262 -0.504229 0)
(2.92281 -0.504193 0)
(2.92294 -0.503883 0)
(2.92305 -0.503767 0)
(2.92314 -0.504251 0)
(2.92322 -0.504706 0)
(2.9231 -0.505357 0)
(2.9231 -0.505485 0)
(2.92354 -0.506179 0)
(2.9239 -0.506618 0)
(2.92385 -0.507774 0)
(2.92378 -0.508173 0)
(2.92406 -0.508652 0)
(2.9242 -0.508596 0)
(2.92446 -0.509139 0)
(2.92486 -0.510486 0)
(2.92501 -0.511638 0)
(2.92504 -0.512235 0)
(2.92522 -0.513384 0)
(2.92547 -0.514721 0)
(2.92562 -0.515613 0)
(2.92591 -0.517602 0)
(2.92606 -0.519423 0)
(2.92608 -0.520267 0)
(2.92637 -0.522699 0)
(2.92669 -0.524849 0)
(2.92701 -0.526395 0)
(2.92746 -0.529575 0)
(2.92786 -0.531933 0)
(2.92827 -0.533879 0)
(2.92875 -0.537323 0)
(2.92904 -0.54084 0)
(2.92882 -0.543461 0)
(2.9278 -0.545802 0)
(2.92531 -0.547302 0)
(2.92059 -0.546904 0)
(2.91817 -0.546002 0)
(2.91164 -0.542523 0)
(2.90396 -0.535345 0)
(2.89671 -0.531011 0)
(2.88688 -0.519129 0)
(2.87835 -0.506194 0)
(2.87159 -0.499084 0)
(2.86436 -0.480242 0)
(2.85875 -0.456272 0)
(2.85694 -0.445478 0)
(2.85691 -0.417127 0)
(2.85825 -0.373053 0)
(2.86547 -0.344006 0)
(2.88618 -0.276766 0)
(2.91907 -0.479598 0)
(2.91911 -0.479493 0)
(2.91918 -0.479425 0)
(2.91923 -0.479425 0)
(2.91924 -0.479462 0)
(2.91927 -0.479602 0)
(2.91936 -0.479736 0)
(2.91946 -0.479768 0)
(2.9196 -0.479605 0)
(2.91962 -0.479162 0)
(2.91952 -0.478986 0)
(2.91964 -0.479327 0)
(2.91977 -0.479764 0)
(2.91984 -0.48029 0)
(2.91985 -0.480412 0)
(2.91995 -0.480415 0)
(2.91999 -0.480358 0)
(2.92004 -0.480689 0)
(2.92005 -0.480915 0)
(2.92006 -0.480918 0)
(2.9201 -0.4813 0)
(2.92009 -0.481498 0)
(2.92014 -0.482051 0)
(2.9202 -0.482771 0)
(2.92026 -0.482894 0)
(2.92043 -0.483598 0)
(2.92065 -0.484613 0)
(2.92089 -0.484999 0)
(2.92129 -0.486111 0)
(2.92177 -0.487551 0)
(2.92235 -0.488475 0)
(2.92289 -0.489477 0)
(2.92328 -0.491297 0)
(2.92305 -0.493364 0)
(2.92272 -0.494044 0)
(2.92146 -0.494805 0)
(2.91901 -0.494355 0)
(2.91543 -0.494229 0)
(2.9113 -0.49379 0)
(2.90693 -0.489661 0)
(2.9022 -0.487678 0)
(2.89778 -0.480291 0)
(2.89353 -0.465162 0)
(2.89002 -0.44989 0)
(2.88708 -0.428734 0)
(2.88521 -0.397409 0)
(2.88606 -0.367675 0)
(2.89009 -0.334335 0)
(2.89809 -0.29832 0)
(2.91834 -0.221551 0)
(2.92001 -0.458395 0)
(2.92 -0.458103 0)
(2.92003 -0.457805 0)
(2.92013 -0.457869 0)
(2.9202 -0.457487 0)
(2.92036 -0.457153 0)
(2.92034 -0.457433 0)
(2.92027 -0.457335 0)
(2.92031 -0.456992 0)
(2.92046 -0.457274 0)
(2.92073 -0.45724 0)
(2.92061 -0.455941 0)
(2.92073 -0.455546 0)
(2.92068 -0.455214 0)
(2.92057 -0.454077 0)
(2.92062 -0.453649 0)
(2.92065 -0.454143 0)
(2.92068 -0.454107 0)
(2.92054 -0.453331 0)
(2.92045 -0.452019 0)
(2.92046 -0.451521 0)
(2.92046 -0.451138 0)
(2.92041 -0.450112 0)
(2.92045 -0.449301 0)
(2.92054 -0.448675 0)
(2.92058 -0.447432 0)
(2.9207 -0.446254 0)
(2.92094 -0.445411 0)
(2.9212 -0.443915 0)
(2.92167 -0.442758 0)
(2.92221 -0.441174 0)
(2.92295 -0.439843 0)
(2.92369 -0.438015 0)
(2.92435 -0.435799 0)
(2.92484 -0.433934 0)
(2.92478 -0.430464 0)
(2.92428 -0.4269 0)
(2.92309 -0.421145 0)
(2.92128 -0.413269 0)
(2.91926 -0.404247 0)
(2.91619 -0.39017 0)
(2.91318 -0.375262 0)
(2.91058 -0.359861 0)
(2.90801 -0.339816 0)
(2.90644 -0.317254 0)
(2.90679 -0.293114 0)
(2.90914 -0.264325 0)
(2.91461 -0.229554 0)
(2.92387 -0.197411 0)
(2.94488 -0.133177 0)
(2.92712 -0.423149 0)
(2.92717 -0.423393 0)
(2.92732 -0.423398 0)
(2.92739 -0.422396 0)
(2.92759 -0.42239 0)
(2.9278 -0.422227 0)
(2.92767 -0.421025 0)
(2.92778 -0.420475 0)
(2.92784 -0.419653 0)
(2.92798 -0.418639 0)
(2.92805 -0.418879 0)
(2.92834 -0.419111 0)
(2.92807 -0.417486 0)
(2.92819 -0.416169 0)
(2.92838 -0.416054 0)
(2.92843 -0.415095 0)
(2.92841 -0.413396 0)
(2.92851 -0.412296 0)
(2.92854 -0.411259 0)
(2.92859 -0.41014 0)
(2.92861 -0.408213 0)
(2.92872 -0.40636 0)
(2.92887 -0.40485 0)
(2.929 -0.402841 0)
(2.92917 -0.400386 0)
(2.92941 -0.398041 0)
(2.92965 -0.395414 0)
(2.92989 -0.392318 0)
(2.93024 -0.389298 0)
(2.93065 -0.385744 0)
(2.93123 -0.382117 0)
(2.93195 -0.377958 0)
(2.93285 -0.373718 0)
(2.93385 -0.369117 0)
(2.9348 -0.363713 0)
(2.9357 -0.35824 0)
(2.93634 -0.35168 0)
(2.93672 -0.344496 0)
(2.93682 -0.336258 0)
(2.93658 -0.326308 0)
(2.93618 -0.315285 0)
(2.93555 -0.301653 0)
(2.93476 -0.284805 0)
(2.93424 -0.265306 0)
(2.93438 -0.242509 0)
(2.93581 -0.216198 0)
(2.93936 -0.186849 0)
(2.94601 -0.153516 0)
(2.95498 -0.120017 0)
(2.9724 -0.0660414 0)
(2.94101 -0.355796 0)
(2.94111 -0.355762 0)
(2.94119 -0.355368 0)
(2.94113 -0.354272 0)
(2.94133 -0.353757 0)
(2.94152 -0.352981 0)
(2.94182 -0.351621 0)
(2.94178 -0.351862 0)
(2.94227 -0.352694 0)
(2.94179 -0.350654 0)
(2.94219 -0.348477 0)
(2.94252 -0.348528 0)
(2.9424 -0.34743 0)
(2.94247 -0.346139 0)
(2.94277 -0.345119 0)
(2.94284 -0.34335 0)
(2.94298 -0.341931 0)
(2.94322 -0.340521 0)
(2.94343 -0.338671 0)
(2.94365 -0.336615 0)
(2.94392 -0.33457 0)
(2.94423 -0.332318 0)
(2.94456 -0.32972 0)
(2.94491 -0.326918 0)
(2.9453 -0.323915 0)
(2.94569 -0.320575 0)
(2.94611 -0.317004 0)
(2.94655 -0.31317 0)
(2.94701 -0.308853 0)
(2.94756 -0.304227 0)
(2.94818 -0.29918 0)
(2.94891 -0.293799 0)
(2.94975 -0.287906 0)
(2.95072 -0.281553 0)
(2.95181 -0.274762 0)
(2.95292 -0.267243 0)
(2.95401 -0.259115 0)
(2.95496 -0.250071 0)
(2.95572 -0.239899 0)
(2.95627 -0.228464 0)
(2.9566 -0.21545 0)
(2.95685 -0.200875 0)
(2.95719 -0.184547 0)
(2.95784 -0.166109 0)
(2.95921 -0.145483 0)
(2.96182 -0.122663 0)
(2.96616 -0.0978416 0)
(2.97267 -0.0715143 0)
(2.98034 -0.0472191 0)
(2.99116 -0.018856 0)
(2.9598 -0.25131 0)
(2.95984 -0.250818 0)
(2.95996 -0.250801 0)
(2.95992 -0.250098 0)
(2.96001 -0.249366 0)
(2.96007 -0.248209 0)
(2.96046 -0.246355 0)
(2.96064 -0.246397 0)