/*--------------------------------*- C++ -*----------------------------------*\
  =========                 |
  \\      /  F ield         | OpenFOAM: The Open Source CFD Toolbox
   \\    /   O peration     | Website:  https://openfoam.org
    \\  /    A nd           | Version:  7
     \\/     M anipulation  |
\*---------------------------------------------------------------------------*/
FoamFile
{
    version     2.0;
    format      ascii;
    class       volScalarField;
    location    "9";
    object      p;
}
// * * * * * * * * * * * * * * * * * * * * * * * * * * * * * * * * * * * * * //

dimensions      [1 -1 -2 0 0 0 0];

internalField   nonuniform List<scalar> 
90000
(
0.907674
0.904641
0.903113
0.901875
0.900287
0.900794
0.90225
0.903298
0.904773
0.906727
0.909452
0.911537
0.913954
0.91637
0.919588
0.92199
0.924596
0.926467
0.929023
0.930877
0.933058
0.934369
0.935726
0.936443
0.93776
0.938684
0.939914
0.941037
0.942805
0.944489
0.946755
0.94906
0.952095
0.955033
0.958308
0.961535
0.964876
0.968392
0.97333
0.977946
0.98298
0.987384
0.991418
0.994596
0.997226
0.999083
0.997044
0.992344
0.982171
0.972733
0.965494
0.962687
0.963683
0.967017
0.971802
0.977004
0.982258
0.985543
0.988286
0.990133
0.991201
0.989418
0.984953
0.976693
0.968727
0.963718
0.962483
0.96485
0.970379
0.977211
0.982527
0.986864
0.985403
0.98025
0.972037
0.9678
0.964889
0.968214
0.973822
0.979648
0.981899
0.979462
0.97519
0.973097
0.973617
0.975956
0.980419
0.980927
0.979131
0.976291
0.975798
0.977736
0.979834
0.980386
0.978978
0.976442
0.975255
0.975208
0.974674
0.973969
0.913097
0.913143
0.913258
0.913304
0.913389
0.913603
0.914007
0.914328
0.914631
0.915038
0.915774
0.916562
0.917187
0.91793
0.918936
0.919635
0.920336
0.921267
0.92246
0.923727
0.924985
0.926255
0.927627
0.92921
0.930792
0.9322
0.933434
0.934773
0.936154
0.937535
0.938879
0.940241
0.94164
0.94316
0.944658
0.946155
0.94766
0.949446
0.951865
0.954748
0.958286
0.962108
0.966381
0.970525
0.975107
0.979525
0.984357
0.988513
0.992599
0.994236
0.993025
0.988753
0.982769
0.976558
0.972276
0.969043
0.969392
0.970867
0.972783
0.975719
0.980325
0.984541
0.98978
0.98948
0.986639
0.979033
0.9713
0.965474
0.964356
0.966252
0.970214
0.97628
0.98284
0.986277
0.983971
0.976488
0.969695
0.967254
0.968969
0.972971
0.978242
0.982267
0.980281
0.975379
0.971655
0.973036
0.977511
0.981365
0.980283
0.977293
0.975145
0.975918
0.978553
0.980045
0.979646
0.977948
0.97631
0.975551
0.97497
0.97445
0.914887
0.91492
0.914921
0.914895
0.91486
0.914857
0.914853
0.914896
0.914969
0.915099
0.91542
0.915786
0.915986
0.916106
0.916246
0.916452
0.916734
0.91718
0.917673
0.918121
0.91857
0.919075
0.919668
0.92041
0.921353
0.92239
0.923487
0.924794
0.926075
0.927353
0.928599
0.929797
0.930972
0.932293
0.933591
0.934885
0.936124
0.937507
0.93916
0.941306
0.943845
0.946922
0.950247
0.953925
0.957812
0.96198
0.966598
0.970691
0.97531
0.977493
0.97947
0.981311
0.983911
0.985193
0.985341
0.983853
0.981163
0.977921
0.975326
0.974048
0.974628
0.975994
0.978294
0.980648
0.982876
0.984708
0.983526
0.977984
0.971351
0.965572
0.96546
0.967402
0.971839
0.977295
0.983679
0.985969
0.982421
0.975324
0.968635
0.968735
0.971806
0.97681
0.983214
0.981828
0.977009
0.972865
0.973842
0.977046
0.981118
0.980074
0.977463
0.975983
0.977174
0.979739
0.979745
0.97889
0.977175
0.97592
0.975077
0.974427
0.917902
0.918051
0.918134
0.91815
0.918162
0.918148
0.918063
0.918065
0.91814
0.91838
0.918714
0.918863
0.918877
0.918806
0.91876
0.918817
0.91905
0.919284
0.919428
0.919456
0.919437
0.919473
0.919571
0.91978
0.920045
0.920308
0.92064
0.920754
0.920983
0.921402
0.921951
0.922576
0.923287
0.92415
0.925532
0.927073
0.928583
0.930164
0.931766
0.933535
0.935389
0.937502
0.939496
0.942012
0.944604
0.94788
0.951389
0.955149
0.959486
0.963117
0.967329
0.971222
0.974349
0.97602
0.977414
0.978149
0.978265
0.978601
0.978568
0.977913
0.976592
0.975045
0.974066
0.974571
0.975798
0.977483
0.979123
0.98028
0.979072
0.97518
0.970798
0.966913
0.967131
0.969252
0.974218
0.977694
0.981555
0.981827
0.97829
0.973516
0.970637
0.97191
0.975575
0.979235
0.981668
0.978637
0.974167
0.974481
0.97699
0.981106
0.980173
0.977425
0.97599
0.977442
0.980111
0.979597
0.978103
0.976272
0.975666
0.974758
0.921675
0.921651
0.921658
0.9217
0.92172
0.921782
0.921905
0.92193
0.921915
0.921932
0.921954
0.921922
0.921798
0.921714
0.921715
0.921798
0.921838
0.921781
0.921627
0.921586
0.921583
0.921615
0.921686
0.921733
0.921707
0.92165
0.921617
0.921603
0.921588
0.921633
0.921787
0.922045
0.922317
0.92278
0.922903
0.923054
0.923307
0.923872
0.924683
0.925657
0.926758
0.92802
0.929271
0.930726
0.932354
0.93443
0.936639
0.939461
0.942197
0.94556
0.949397
0.953673
0.958622
0.962325
0.966669
0.96922
0.972213
0.974251
0.975064
0.975195
0.975343
0.975324
0.975039
0.974623
0.974352
0.974336
0.974673
0.975643
0.976534
0.977702
0.977391
0.975077
0.971948
0.96916
0.969596
0.971577
0.976386
0.978624
0.980595
0.979586
0.976027
0.972027
0.972323
0.974504
0.977341
0.979135
0.977828
0.975461
0.975528
0.977355
0.979825
0.979477
0.977665
0.976821
0.977919
0.98007
0.979512
0.977556
0.975961
0.97499
0.924373
0.924398
0.924405
0.924401
0.924375
0.92424
0.924133
0.92413
0.924152
0.924225
0.924232
0.924151
0.923949
0.923887
0.923933
0.924046
0.924067
0.924039
0.923813
0.923536
0.923517
0.923591
0.923633
0.923577
0.923435
0.923345
0.923277
0.923195
0.923089
0.92297
0.922934
0.922881
0.922811
0.922667
0.922497
0.922368
0.922341
0.922252
0.922248
0.922346
0.922533
0.922838
0.923096
0.923372
0.923852
0.924709
0.925868
0.927434
0.929039
0.931106
0.933348
0.936788
0.94058
0.945503
0.950323
0.955428
0.961104
0.964655
0.969037
0.971205
0.973108
0.973286
0.973166
0.972792
0.972425
0.972348
0.972652
0.973374
0.974697
0.976157
0.977123
0.977165
0.976573
0.974509
0.97136
0.971747
0.972872
0.975914
0.97832
0.979133
0.978927
0.976694
0.973628
0.973472
0.974367
0.976766
0.977809
0.977308
0.976284
0.976306
0.97759
0.979084
0.978846
0.977507
0.977201
0.978256
0.979581
0.978936
0.977195
0.975334
0.928153
0.928166
0.928155
0.928094
0.928034
0.927879
0.927489
0.927317
0.927317
0.927378
0.927385
0.92735
0.927193
0.926918
0.926746
0.926737
0.92679
0.926806
0.926736
0.926314
0.926051
0.926029
0.925989
0.925863
0.925558
0.925221
0.925026
0.924908
0.924776
0.924585
0.924378
0.924186
0.924
0.923719
0.92332
0.922832
0.922404
0.921865
0.921461
0.921452
0.921577
0.921616
0.92151
0.921255
0.921053
0.920962
0.920921
0.921002
0.921244
0.921641
0.922386
0.923795
0.925651
0.928559
0.931815
0.936489
0.941166
0.946916
0.95276
0.957588
0.962841
0.965222
0.968048
0.968598
0.969439
0.970433
0.972344
0.973656
0.974723
0.975383
0.976212
0.97644
0.976536
0.976527
0.975602
0.974274
0.973596
0.97413
0.975417
0.977501
0.978018
0.977882
0.976651
0.974526
0.974188
0.97479
0.976481
0.9772
0.977286
0.976805
0.977031
0.977948
0.978463
0.978129
0.977424
0.977564
0.978519
0.979139
0.978424
0.976207
0.930163
0.930158
0.930196
0.930266
0.930269
0.930252
0.930195
0.930101
0.930011
0.929963
0.929932
0.929901
0.929792
0.929546
0.929293
0.929099
0.92905
0.92905
0.92904
0.928974
0.928768
0.928532
0.928425
0.928346
0.928187
0.927934
0.927668
0.927416
0.927165
0.926869
0.926514
0.926139
0.925777
0.925356
0.924824
0.924229
0.923669
0.923106
0.922517
0.92206
0.921679
0.921307
0.921027
0.920714
0.920509
0.920401
0.920258
0.919915
0.919475
0.919262
0.919196
0.91919
0.91931
0.919699
0.920513
0.922082
0.92442
0.928419
0.932883
0.939096
0.945404
0.951449
0.957724
0.961892
0.966416
0.969299
0.971732
0.97284
0.974042
0.973939
0.974098
0.974635
0.975524
0.976601
0.977409
0.977074
0.975913
0.974632
0.974618
0.975057
0.976352
0.977403
0.977269
0.9765
0.975138
0.974709
0.975175
0.976504
0.977031
0.977023
0.976929
0.977137
0.977892
0.978142
0.977799
0.977487
0.977825
0.978663
0.978854
0.97738
0.930077
0.930076
0.930113
0.930182
0.930203
0.930204
0.930191
0.930156
0.930055
0.929818
0.92968
0.929675
0.92969
0.92964
0.929532
0.929511
0.929506
0.929515
0.929569
0.929591
0.929565
0.929506
0.929483
0.929465
0.929422
0.929345
0.929242
0.929114
0.928971
0.928808
0.9286
0.928329
0.928019
0.927671
0.92725
0.926767
0.926251
0.925688
0.925122
0.924512
0.92395
0.923387
0.922755
0.922085
0.921404
0.920826
0.920276
0.919631
0.919048
0.918834
0.918788
0.918798
0.918809
0.918746
0.918544
0.918247
0.9183
0.918885
0.920246
0.923076
0.926722
0.932536
0.938175
0.944963
0.951672
0.956984
0.9627
0.965621
0.969605
0.971048
0.973294
0.974501
0.976157
0.976793
0.977391
0.977329
0.976979
0.976217
0.975153
0.975097
0.975146
0.975893
0.976769
0.97668
0.976346
0.975677
0.975505
0.975778
0.976508
0.976737
0.976827
0.976916
0.977283
0.977867
0.97794
0.977714
0.977779
0.978147
0.978667
0.978036
0.928416
0.928322
0.928256
0.92822
0.928216
0.928246
0.928283
0.92828
0.928254
0.928056
0.927824
0.927814
0.927816
0.927763
0.927663
0.927633
0.927625
0.927624
0.927626
0.927657
0.927683
0.927682
0.927647
0.927566
0.927517
0.927478
0.927445
0.927396
0.927331
0.927258
0.927149
0.926993
0.926825
0.926638
0.926369
0.92606
0.925762
0.925573
0.925331
0.924968
0.924561
0.924142
0.923659
0.923113
0.922485
0.921821
0.921181
0.920572
0.919859
0.919236
0.918993
0.918962
0.918892
0.918733
0.918502
0.918235
0.918064
0.918042
0.918125
0.918464
0.919224
0.92103
0.923498
0.927719
0.932656
0.939852
0.947394
0.9547
0.96207
0.967575
0.972442
0.973564
0.975222
0.975552
0.975519
0.975645
0.976075
0.976482
0.976247
0.975659
0.975021
0.975084
0.975585
0.976281
0.976707
0.97661
0.976191
0.975842
0.975955
0.976338
0.976581
0.976685
0.976888
0.977376
0.977769
0.977784
0.977769
0.978001
0.978453
0.97839
0.926184
0.926129
0.926136
0.926129
0.926059
0.926009
0.926028
0.926036
0.926018
0.92585
0.925603
0.925514
0.925473
0.925399
0.925319
0.925298
0.925294
0.925292
0.925293
0.925323
0.925422
0.925459
0.925438
0.925421
0.925433
0.925485
0.92552
0.925535
0.925563
0.925616
0.925691
0.925759
0.925765
0.925733
0.925591
0.92551
0.925548
0.925553
0.925482
0.925292
0.924996
0.92459
0.924177
0.9238
0.923419
0.92304
0.92268
0.922371
0.921998
0.921502
0.921156
0.921038
0.920932
0.920755
0.920533
0.920202
0.919609
0.918929
0.918758
0.918852
0.919253
0.919605
0.919893
0.920355
0.921547
0.92451
0.92889
0.936378
0.943839
0.95148
0.959549
0.963585
0.96755
0.969368
0.972187
0.97411
0.976482
0.976827
0.976702
0.976177
0.975469
0.975013
0.975223
0.975715
0.976528
0.976729
0.976589
0.976208
0.975916
0.976028
0.976223
0.976407
0.976535
0.976848
0.977397
0.977677
0.977685
0.977878
0.978267
0.978498
0.92388
0.923842
0.923836
0.923869
0.923981
0.924007
0.923966
0.92389
0.923722
0.923461
0.92328
0.923252
0.923277
0.92328
0.923241
0.923224
0.923225
0.923201
0.923156
0.923151
0.923189
0.923302
0.923342
0.923356
0.923389
0.923547
0.923611
0.923611
0.923652
0.923772
0.92397
0.924193
0.924265
0.924293
0.924345
0.924488
0.924648
0.924712
0.924726
0.924697
0.924561
0.924431
0.924283
0.924037
0.923694
0.923257
0.922985
0.922933
0.922955
0.923139
0.923375
0.923428
0.923455
0.923381
0.923133
0.922707
0.922123
0.921214
0.92021
0.919689
0.91966
0.919758
0.920081
0.920591
0.920623
0.920795
0.921309
0.923459
0.926938
0.933316
0.940178
0.948674
0.956257
0.962303
0.970076
0.972762
0.975487
0.975559
0.975219
0.974778
0.975107
0.975591
0.975939
0.976017
0.976044
0.976225
0.976398
0.976371
0.976162
0.975985
0.97602
0.976203
0.976397
0.976476
0.976779
0.977238
0.977526
0.97781
0.978138
0.978494
0.921947
0.921905
0.921853
0.921792
0.921727
0.921638
0.921508
0.921353
0.921178
0.92103
0.920932
0.920854
0.920789
0.920738
0.920698
0.920655
0.920584
0.92045
0.920369
0.920359
0.920359
0.92039
0.920483
0.920596
0.920704
0.920839
0.921007
0.921182
0.921359
0.921522
0.921679
0.92187
0.922061
0.922226
0.922388
0.922628
0.922981
0.923337
0.92361
0.923849
0.924005
0.924003
0.923937
0.923764
0.923448
0.92302
0.922749
0.922728
0.922826
0.923148
0.923609
0.924136
0.924745
0.925341
0.92578
0.925779
0.925525
0.924911
0.92394
0.922833
0.922068
0.921905
0.921884
0.921821
0.92166
0.921535
0.92159
0.921419
0.921466
0.922507
0.925033
0.930471
0.936488
0.944865
0.953299
0.959532
0.966625
0.968611
0.971444
0.973388
0.975961
0.97648
0.976423
0.976026
0.975619
0.975789
0.976293
0.976594
0.976424
0.976112
0.975957
0.976044
0.976249
0.976359
0.976514
0.976684
0.977361
0.977765
0.978058
0.978527
0.921416
0.921373
0.92132
0.921258
0.921182
0.921077
0.92094
0.920781
0.920612
0.920471
0.920368
0.920289
0.920223
0.920162
0.920103
0.920034
0.919931
0.919795
0.919664
0.91954
0.919441
0.919417
0.919416
0.919418
0.919428
0.919474
0.919566
0.919688
0.919821
0.919965
0.920126
0.920299
0.920469
0.920635
0.920816
0.921049
0.921357
0.92169
0.921994
0.922279
0.922551
0.922683
0.922693
0.92265
0.922455
0.922092
0.921789
0.921746
0.921885
0.922294
0.922965
0.92386
0.92472
0.925392
0.926013
0.926532
0.926624
0.92644
0.926051
0.925479
0.92478
0.924316
0.92399
0.923673
0.923257
0.922698
0.922156
0.921353
0.920985
0.92103
0.921291
0.922059
0.923875
0.92824
0.934036
0.943322
0.952485
0.960274
0.969169
0.971892
0.974593
0.975153
0.974988
0.974796
0.975407
0.976019
0.976335
0.97626
0.976142
0.976044
0.976128
0.976217
0.976204
0.976097
0.976088
0.976431
0.97704
0.977491
0.977903
0.978469
0.921395
0.921366
0.921314
0.921254
0.9212
0.921121
0.921026
0.920924
0.920817
0.920722
0.920619
0.920539
0.920489
0.920443
0.920393
0.920333
0.920221
0.920031
0.919838
0.91968
0.919514
0.919317
0.919181
0.919155
0.919163
0.919199
0.919274
0.919371
0.919475
0.919579
0.919693
0.919827
0.91997
0.92013
0.920317
0.920572
0.920943
0.921383
0.921829
0.922281
0.922746
0.923185
0.923481
0.923559
0.923533
0.923342
0.922938
0.922565
0.922508
0.922664
0.923062
0.923602
0.92417
0.924772
0.925463
0.926043
0.926208
0.926324
0.926381
0.926325
0.925891
0.925297
0.925095
0.924957
0.92477
0.924457
0.923956
0.923189
0.922205
0.921307
0.921248
0.921599
0.9216
0.921907
0.923315
0.927574
0.933447
0.942685
0.951551
0.958729
0.96616
0.968745
0.971758
0.973748
0.975973
0.976267
0.976127
0.975766
0.975905
0.976281
0.976519
0.976377
0.976085
0.975845
0.975994
0.976301
0.976673
0.977175
0.977789
0.978446
0.922483
0.922503
0.922499
0.92248
0.922435
0.922403
0.922394
0.922374
0.922363
0.922385
0.922394
0.922355
0.922249
0.922228
0.92233
0.922408
0.922373
0.922247
0.922092
0.921983
0.921898
0.921791
0.921639
0.921488
0.921328
0.921191
0.921177
0.921177
0.921126
0.92099
0.920926
0.920903
0.92088
0.920865
0.920905
0.921005
0.921167
0.921396
0.921702
0.92208
0.922524
0.923016
0.92348
0.923715
0.923698
0.92352
0.92324
0.922976
0.92269
0.922601
0.922739
0.92305
0.923305
0.923607
0.924017
0.92451
0.925131
0.92555
0.925615
0.925572
0.925211
0.924631
0.924523
0.924596
0.9249
0.925162
0.925076
0.924751
0.924126
0.923054
0.922214
0.921957
0.921749
0.921888
0.921951
0.922348
0.923751
0.927646
0.933037
0.942389
0.951497
0.960267
0.969145
0.972104
0.974294
0.974734
0.974508
0.975149
0.976042
0.976547
0.976347
0.976106
0.975866
0.975978
0.976093
0.976123
0.976319
0.976854
0.977598
0.978266
0.923437
0.923495
0.923593
0.92368
0.923718
0.923719
0.923697
0.923683
0.923701
0.923793
0.923829
0.923813
0.923815
0.923926
0.924149
0.924246
0.92428
0.924306
0.924333
0.924342
0.92436
0.924374
0.92436
0.924305
0.924144
0.923797
0.923694
0.923663
0.923467
0.923082
0.922925
0.922806
0.922532
0.922137
0.921892
0.921823
0.921825
0.921883
0.922014
0.922214
0.922525
0.922947
0.923419
0.923803
0.92385
0.923721
0.923524
0.923351
0.923154
0.922911
0.922889
0.922995
0.92302
0.922976
0.922945
0.923003
0.923326
0.924057
0.924402
0.924413
0.924226
0.923741
0.92355
0.923647
0.923939
0.924295
0.924639
0.925045
0.925109
0.925025
0.924662
0.924256
0.923737
0.923137
0.922489
0.9225
0.922469
0.922677
0.923715
0.927241
0.932911
0.942639
0.951714
0.960094
0.966295
0.96931
0.972441
0.975076
0.976238
0.976102
0.97579
0.975838
0.976109
0.976338
0.976184
0.976012
0.97614
0.976738
0.977393
0.978042
0.924173
0.924238
0.9243
0.924369
0.924436
0.924517
0.924595
0.92468
0.924768
0.92488
0.924987
0.925151
0.925428
0.925642
0.925707
0.925729
0.925752
0.925933
0.926347
0.926438
0.926362
0.92636
0.926503
0.926552
0.92655
0.926465
0.92628
0.926014
0.925682
0.925487
0.925368
0.92508
0.924589
0.924323
0.924161
0.923949
0.923741
0.923584
0.923514
0.923538
0.92367
0.923764
0.923819
0.923899
0.923951
0.92389
0.923688
0.923422
0.923354
0.923368
0.923376
0.923342
0.923187
0.922735
0.922357
0.922247
0.92228
0.9227
0.923261
0.923331
0.923178
0.922913
0.922822
0.922859
0.922934
0.923174
0.923719
0.924357
0.924984
0.925438
0.925501
0.925456
0.925321
0.924927
0.924232
0.923579
0.922852
0.922337
0.922324
0.922638
0.923658
0.927368
0.933734
0.943702
0.953523
0.962493
0.970606
0.973242
0.974766
0.974006
0.974331
0.975683
0.976402
0.976324
0.975988
0.975973
0.976282
0.976869
0.977157
0.977633
0.924475
0.92449
0.92451
0.924543
0.924524
0.924489
0.924483
0.924471
0.924468
0.924486
0.924556
0.924758
0.924983
0.925025
0.925045
0.925111
0.925352
0.925948
0.926362
0.926479
0.926572
0.926753
0.927089
0.927196
0.927203
0.927191
0.927104
0.926914
0.926795
0.926736
0.926555
0.926109
0.925873
0.925752
0.925545
0.925315
0.925152
0.92498
0.924829
0.924822
0.924834
0.924781
0.924559
0.924428
0.924459
0.924384
0.924039
0.923864
0.923927
0.924114
0.924185
0.924172
0.923951
0.923315
0.922559
0.922156
0.922093
0.92224
0.922649
0.922706
0.922518
0.922346
0.922419
0.922765
0.923146
0.923415
0.923603
0.92383
0.924267
0.924743
0.924903
0.924892
0.92485
0.924854
0.924905
0.924771
0.924339
0.923612
0.922843
0.922839
0.923239
0.923524
0.924776
0.928526
0.935418
0.945186
0.955432
0.962294
0.968259
0.970601
0.973714
0.976037
0.976126
0.975888
0.975813
0.976248
0.976845
0.977071
0.977013
0.977242
0.924705
0.924704
0.924687
0.924644
0.924468
0.924253
0.924185
0.924165
0.924172
0.924209
0.924214
0.924148
0.924076
0.924058
0.92406
0.924217
0.924789
0.925084
0.925039
0.924952
0.925013
0.925516
0.926093
0.926209
0.926235
0.926219
0.926101
0.925908
0.925839
0.925781
0.925542
0.925179
0.925023
0.924883
0.924688
0.924671
0.924752
0.924764
0.924829
0.924917
0.924912
0.924784
0.924469
0.92395
0.923575
0.923551
0.923566
0.923675
0.923952
0.924501
0.925044
0.925133
0.92505
0.92473
0.924196
0.923979
0.923926
0.923945
0.924011
0.923911
0.923468
0.922972
0.922882
0.923121
0.923434
0.923483
0.923364
0.923234
0.923343
0.923654
0.923926
0.923922
0.923862
0.923913
0.924083
0.924325
0.924582
0.92453
0.924259
0.923925
0.923661
0.923521
0.9235
0.923788
0.925323
0.929832
0.937367
0.948002
0.957969
0.967279
0.972077
0.974361
0.974756
0.974506
0.975638
0.976539
0.97698
0.976857
0.976807
0.977054
0.924864
0.924812
0.924731
0.924575
0.924422
0.924282
0.924212
0.924168
0.924124
0.924095
0.924018
0.923897
0.923795
0.923555
0.923345
0.923374
0.923706
0.923922
0.92391
0.923844
0.923874
0.924104
0.924468
0.924713
0.924778
0.924763
0.924626
0.924298
0.924194
0.924124
0.92393
0.923886
0.923905
0.923858
0.923774
0.923801
0.924025
0.924632
0.925088
0.925166
0.925169
0.925098
0.924748
0.923889
0.923165
0.923086
0.923112
0.923285
0.923718
0.92443
0.925091
0.925471
0.925665
0.925687
0.925597
0.925539
0.92568
0.925729
0.925651
0.925374
0.924733
0.924179
0.923995
0.923906
0.923889
0.923809
0.923534
0.923053
0.922764
0.922861
0.923088
0.92331
0.923384
0.923367
0.923412
0.923595
0.923884
0.924115
0.924301
0.924573
0.924637
0.924488
0.924068
0.923802
0.92378
0.924188
0.926272
0.93168
0.9404
0.950634
0.960147
0.965573
0.97023
0.972742
0.976171
0.976687
0.976591
0.976494
0.976828
0.977192
0.923948
0.923951
0.923946
0.9237
0.923369
0.923223
0.923204
0.92319
0.92319
0.923215
0.923203
0.923192
0.923272
0.923324
0.92325
0.923026
0.923052
0.923326
0.923507
0.923598
0.923565
0.923519
0.923523
0.923628
0.923724
0.923661
0.923378
0.922916
0.922756
0.922743
0.922716
0.922692
0.922836
0.923159
0.923357
0.923598
0.924171
0.925162
0.925662
0.925679
0.925641
0.925542
0.925366
0.925008
0.924439
0.924191
0.924205
0.924323
0.924599
0.925074
0.92544
0.925492
0.925404
0.925179
0.925043
0.92501
0.92524
0.925776
0.925937
0.925878
0.925341
0.924482
0.924206
0.924184
0.92421
0.924301
0.924295
0.924076
0.923632
0.923326
0.923272
0.92333
0.923379
0.923351
0.923261
0.923175
0.923198
0.923376
0.923624
0.923939
0.924328
0.924584
0.924556
0.924349
0.924012
0.924113
0.924268
0.925011
0.927715
0.934237
0.943844
0.954032
0.965133
0.971162
0.974689
0.975195
0.975088
0.975826
0.976773
0.977187
0.922269
0.922288
0.922361
0.922685
0.922858
0.922818
0.922808
0.922898
0.923019
0.923137
0.923376
0.923805
0.924453
0.925152
0.925365
0.925444
0.925634
0.925794
0.92578
0.925717
0.925649
0.925468
0.924851
0.9245
0.924433
0.924312
0.924001
0.923336
0.922599
0.922384
0.922351
0.922406
0.922842
0.923657
0.924012
0.924224
0.924675
0.925584
0.926137
0.926168
0.925937
0.925627
0.925572
0.925629
0.925765
0.925699
0.925597
0.925705
0.926078
0.926196
0.926196
0.925888
0.924919
0.924226
0.924128
0.924239
0.92477
0.925502
0.925973
0.926069
0.925842
0.924842
0.923786
0.923602
0.923764
0.924325
0.924942
0.925012
0.924798
0.924324
0.923908
0.923777
0.923729
0.923631
0.923393
0.92302
0.922864
0.922911
0.923064
0.923359
0.923772
0.924064
0.924143
0.924225
0.924322
0.924472
0.924548
0.924804
0.924986
0.926316
0.929743
0.937954
0.947309
0.958032
0.965489
0.969614
0.973312
0.976712
0.976946
0.976745
0.919504
0.919752
0.920188
0.921183
0.921566
0.921709
0.921956
0.922053
0.922163
0.922524
0.9232
0.923774
0.924226
0.924724
0.925299
0.925615
0.925722
0.925736
0.925645
0.92542
0.925294
0.925129
0.924642
0.924146
0.924069
0.92409
0.924007
0.923657
0.923098
0.922716
0.922476
0.922465
0.922838
0.923557
0.923714
0.923804
0.924266
0.924736
0.924877
0.92484
0.924613
0.92445
0.924433
0.924711
0.925194
0.925271
0.925199
0.925342
0.925812
0.926
0.925927
0.92535
0.924177
0.923156
0.922897
0.922896
0.923406
0.924952
0.926137
0.926273
0.926105
0.925388
0.924212
0.923489
0.923556
0.924086
0.924979
0.925443
0.925415
0.925175
0.924691
0.924318
0.924211
0.924145
0.923956
0.923554
0.923057
0.922938
0.922978
0.923126
0.923358
0.923578
0.923729
0.923895
0.924137
0.924414
0.92465
0.92467
0.924735
0.924871
0.925505
0.927756
0.932902
0.942528
0.952411
0.964034
0.971563
0.97587
0.975793
0.975554
0.91334
0.913472
0.913984
0.914659
0.914825
0.915044
0.915244
0.91533
0.915931
0.917131
0.917432
0.917567
0.917796
0.918284
0.918716
0.918896
0.918989
0.919023
0.919073
0.919304
0.919677
0.920159
0.920791
0.921132
0.921461
0.922143
0.922472
0.922467
0.922353
0.9221
0.921561
0.920876
0.920828
0.920978
0.920908
0.920915
0.920999
0.92078
0.920375
0.919991
0.919743
0.919733
0.920005
0.920767
0.921838
0.923201
0.923975
0.923965
0.923811
0.924143
0.924732
0.92502
0.925088
0.924707
0.923193
0.921893
0.921829
0.922586
0.924359
0.925683
0.925916
0.925827
0.925461
0.924716
0.924153
0.924163
0.924516
0.925153
0.925489
0.925489
0.925264
0.924681
0.924448
0.924477
0.924482
0.924311
0.923884
0.92355
0.923387
0.923351
0.923411
0.923539
0.923729
0.923917
0.924109
0.924326
0.924499
0.924486
0.924497
0.924532
0.924645
0.92504
0.926537
0.930025
0.937401
0.947317
0.957528
0.966176
0.970084
0.974007
0.910823
0.910332
0.910019
0.90969
0.909126
0.908309
0.907949
0.907938
0.907936
0.907887
0.907851
0.907856
0.907832
0.907595
0.906658
0.905921
0.90564
0.905532
0.905538
0.905775
0.906308
0.907286
0.908942
0.910362
0.911765
0.913437
0.914401
0.914939
0.915469
0.915624
0.915439
0.914571
0.913923
0.913996
0.914597
0.915516
0.915884
0.915779
0.915294
0.914355
0.913345
0.913409
0.914361
0.915656
0.916292
0.916949
0.917674
0.918134
0.918725
0.919924
0.922198
0.92456
0.925021
0.924885
0.924098
0.922522
0.921456
0.921492
0.92218
0.92364
0.925111
0.925465
0.925291
0.925072
0.924769
0.924228
0.924036
0.924214
0.924877
0.925224
0.925131
0.924628
0.924231
0.924234
0.924385
0.924556
0.924565
0.924456
0.924365
0.92442
0.924448
0.924393
0.924355
0.924301
0.924293
0.924345
0.924338
0.924241
0.924242
0.924298
0.924377
0.924601
0.924984
0.925925
0.928323
0.933419
0.942355
0.952573
0.963653
0.972954
0.915233
0.914377
0.91343
0.912185
0.910396
0.908744
0.908309
0.908301
0.908286
0.908137
0.907994
0.907933
0.907798
0.90734
0.906313
0.905665
0.90556
0.905434
0.905375
0.90614
0.90725
0.907708
0.908104
0.908923
0.910521
0.912479
0.913766
0.91455
0.915543
0.916267
0.916107
0.914701
0.91371
0.913845
0.914872
0.91682
0.918092
0.91813
0.917787
0.91716
0.916499
0.915952
0.915419
0.914526
0.91362
0.913339
0.913335
0.91345
0.913706
0.914388
0.915747
0.91787
0.92044
0.921914
0.92189
0.921294
0.920341
0.919342
0.918942
0.919144
0.919859
0.920971
0.922685
0.924031
0.924216
0.923872
0.923086
0.922927
0.923109
0.923691
0.924274
0.924393
0.924445
0.924542
0.924716
0.924811
0.924921
0.925093
0.925285
0.925516
0.92553
0.925444
0.925206
0.924923
0.924692
0.924617
0.924446
0.924212
0.924197
0.924236
0.924364
0.924582
0.924794
0.925043
0.92557
0.927056
0.930297
0.937545
0.946567
0.960863
0.933232
0.932335
0.930919
0.928883
0.927934
0.927959
0.928169
0.928123
0.927394
0.925998
0.925552
0.925412
0.925423
0.925081
0.923238
0.920685
0.92022
0.920668
0.921922
0.922214
0.921295
0.918395
0.915372
0.914221
0.914254
0.9142
0.914021
0.914144
0.914675
0.915778
0.917198
0.917968
0.918097
0.918294
0.919688
0.921384
0.921565
0.921054
0.920713
0.920364
0.919886
0.919591
0.919167
0.918471
0.917202
0.915381
0.913874
0.913176
0.912795
0.912758
0.912825
0.912908
0.913324
0.914386
0.915568
0.916192
0.91643
0.916352
0.915716
0.91508
0.91498
0.915196
0.916076
0.917572
0.91903
0.92002
0.920501
0.920817
0.921114
0.921517
0.922349
0.923742
0.924454
0.924611
0.924782
0.924877
0.924974
0.925143
0.925355
0.925573
0.925697
0.925708
0.925661
0.92555
0.92536
0.925113
0.924855
0.924647
0.924541
0.924465
0.924488
0.924526
0.924561
0.924682
0.924926
0.925292
0.926136
0.928406
0.933033
0.947072
0.939094
0.938366
0.938159
0.938409
0.940046
0.943309
0.947472
0.949191
0.947668
0.944536
0.944224
0.943905
0.941453
0.939951
0.939766
0.940126
0.942996
0.944253
0.944238
0.943198
0.938388
0.937438
0.937776
0.93667
0.932016
0.925113
0.921891
0.921947
0.92287
0.924675
0.927031
0.928356
0.928642
0.928645
0.927722
0.923637
0.919012
0.917481
0.917274
0.917479
0.918086
0.919359
0.922584
0.924042
0.924284
0.923688
0.921988
0.921599
0.920991
0.91799
0.91435
0.913218
0.913266
0.913894
0.915053
0.915812
0.916244
0.916853
0.917519
0.917433
0.917108
0.916267
0.914828
0.914315
0.914352
0.915083
0.917101
0.918462
0.918562
0.918703
0.919015
0.919739
0.920994
0.922231
0.922999
0.923427
0.92377
0.924298
0.92488
0.925436
0.925663
0.925629
0.925479
0.925417
0.925498
0.925572
0.925536
0.925345
0.925036
0.924762
0.924577
0.924442
0.924507
0.924757
0.924892
0.924968
0.925098
0.925561
0.926847
0.934338
0.990585
0.988007
0.986793
0.987227
0.989104
0.989819
0.990572
0.990894
0.988122
0.983123
0.979758
0.973711
0.970309
0.97038
0.970528
0.970418
0.970309
0.969893
0.966438
0.962954
0.962666
0.962126
0.962841
0.966283
0.966667
0.963809
0.96209
0.962592
0.963682
0.964836
0.967295
0.970349
0.971357
0.97023
0.96573
0.957332
0.947274
0.941445
0.938317
0.933585
0.929866
0.929949
0.932852
0.934589
0.933097
0.932375
0.934324
0.935661
0.93518
0.9318
0.929505
0.929385
0.928026
0.923245
0.918233
0.916898
0.916856
0.917827
0.919987
0.922115
0.922933
0.922317
0.918964
0.915485
0.915064
0.915604
0.917094
0.918526
0.919217
0.918934
0.917678
0.916848
0.916983
0.917934
0.919354
0.920537
0.921396
0.92211
0.923023
0.923834
0.924394
0.924514
0.924551
0.924737
0.925213
0.925642
0.925658
0.925498
0.925127
0.924861
0.924732
0.924684
0.924776
0.924962
0.924981
0.924892
0.924857
0.924925
0.92516
0.927794
1.06967
1.06727
1.06304
1.06254
1.06297
1.063
1.06314
1.06279
1.05977
1.05413
1.04992
1.04908
1.04962
1.0493
1.04511
1.04084
1.03994
1.03935
1.03839
1.0345
1.02647
1.02494
1.02517
1.02404
1.02058
1.01752
1.01483
1.00981
1.00363
1.00057
1.00092
1.00214
1.00192
0.998323
0.991455
0.987632
0.98756
0.990297
0.991192
0.988237
0.980029
0.978794
0.979058
0.977022
0.969941
0.963038
0.957191
0.94835
0.940977
0.939813
0.943139
0.947956
0.947426
0.943059
0.941258
0.940487
0.936481
0.928463
0.924668
0.924832
0.926312
0.927662
0.927125
0.926028
0.924108
0.921198
0.919718
0.919851
0.920689
0.921285
0.920562
0.918915
0.9183
0.918382
0.918999
0.919519
0.919665
0.919775
0.920082
0.920731
0.920939
0.921119
0.921515
0.922288
0.923401
0.924433
0.924912
0.925219
0.925296
0.925232
0.925063
0.924979
0.925036
0.925097
0.925096
0.925007
0.924941
0.924981
0.925124
0.925831
1.14359
1.14258
1.14201
1.14038
1.13578
1.13074
1.12851
1.12838
1.1296
1.13157
1.13086
1.1263
1.1229
1.11989
1.11508
1.11108
1.11003
1.10926
1.10832
1.10721
1.10572
1.10305
1.09705
1.09359
1.09364
1.09706
1.09807
1.09357
1.08598
1.08377
1.0835
1.08217
1.07894
1.07286
1.06366
1.05501
1.04963
1.04625
1.04405
1.04186
1.03696
1.02983
1.02806
1.02878
1.02842
1.02555
1.02073
1.01344
1.00279
0.999591
0.997688
0.989755
0.974962
0.969831
0.971258
0.974671
0.973172
0.966364
0.960855
0.955833
0.946495
0.939024
0.938482
0.940347
0.941096
0.939579
0.933411
0.926245
0.925394
0.926382
0.926253
0.924758
0.92262
0.920858
0.920129
0.919598
0.919383
0.919252
0.918671
0.918219
0.917867
0.917898
0.9183
0.919386
0.920606
0.921982
0.923287
0.92438
0.924934
0.924914
0.924824
0.924795
0.925076
0.925341
0.925332
0.925239
0.925089
0.925062
0.925109
0.925381
1.236
1.23625
1.2355
1.23352
1.23243
1.22951
1.2227
1.21949
1.21974
1.22087
1.22082
1.21915
1.21741
1.21387
1.2055
1.20333
1.20351
1.20226
1.20009
1.1986
1.19683
1.1917
1.18564
1.18377
1.18207
1.17903
1.17589
1.17196
1.16348
1.15985
1.15852
1.15416
1.14996
1.14903
1.14719
1.14248
1.1331
1.12957
1.12955
1.12869
1.12463
1.11621
1.10762
1.10313
1.09622
1.08608
1.07965
1.07391
1.06421
1.06146
1.06248
1.06075
1.05041
1.03903
1.03417
1.02747
1.01178
1.0027
1.0034
1.00241
0.995469
0.987878
0.977847
0.965735
0.963536
0.962967
0.960432
0.952272
0.942147
0.939543
0.939049
0.937041
0.931791
0.924079
0.92122
0.920679
0.920172
0.919842
0.91895
0.918209
0.918654
0.919971
0.921399
0.921877
0.921698
0.92134
0.921151
0.921265
0.921595
0.922211
0.923072
0.923877
0.92497
0.925607
0.925588
0.925425
0.925188
0.92512
0.925245
0.925689
1.32634
1.32487
1.32471
1.32527
1.32704
1.32713
1.32533
1.32123
1.31646
1.31298
1.31044
1.30971
1.31031
1.31023