/*--------------------------------*- C++ -*----------------------------------*\
  =========                 |
  \\      /  F ield         | OpenFOAM: The Open Source CFD Toolbox
   \\    /   O peration     | Website:  https://openfoam.org
    \\  /    A nd           | Version:  7
     \\/     M anipulation  |
\*---------------------------------------------------------------------------*/
FoamFile
{
    version     2.0;
    format      ascii;
    class       volScalarField;
    location    "9";
    object      T;
}
// * * * * * * * * * * * * * * * * * * * * * * * * * * * * * * * * * * * * * //

dimensions      [0 0 0 1 0 0 0];

internalField   nonuniform List<scalar> 
90000
(
1.03835
1.03954
1.04153
1.04361
1.04551
1.04786
1.05046
1.05283
1.05512
1.05726
1.05955
1.06138
1.06325
1.06493
1.06671
1.06798
1.06922
1.07008
1.0711
1.0717
1.07238
1.07263
1.07284
1.07271
1.07279
1.07289
1.07323
1.07369
1.07446
1.0753
1.07643
1.07763
1.07914
1.08061
1.0822
1.08376
1.08539
1.08705
1.08914
1.091
1.0929
1.09446
1.09582
1.09672
1.09756
1.09755
1.09668
1.09505
1.09182
1.0885
1.08585
1.08399
1.08411
1.08492
1.08618
1.08752
1.08894
1.08984
1.09052
1.09115
1.09171
1.09113
1.08956
1.08668
1.08365
1.08207
1.08101
1.08152
1.08292
1.08495
1.08649
1.08779
1.08722
1.08534
1.08246
1.08088
1.07932
1.08017
1.08183
1.08351
1.08398
1.08302
1.08153
1.08042
1.08019
1.08063
1.08185
1.08175
1.081
1.0799
1.0793
1.07973
1.08007
1.07991
1.07923
1.07818
1.0775
1.07714
1.07669
1.07589
1.03772
1.03773
1.03779
1.03786
1.03796
1.03815
1.03842
1.03873
1.03906
1.03945
1.03998
1.04055
1.04111
1.04175
1.0425
1.04316
1.04382
1.04458
1.04543
1.0463
1.04716
1.04801
1.04888
1.0498
1.05062
1.05126
1.05175
1.05221
1.05265
1.05307
1.0535
1.05395
1.05445
1.05502
1.05563
1.05629
1.057
1.05785
1.05894
1.0602
1.06169
1.0633
1.06507
1.06682
1.06875
1.07065
1.07269
1.07466
1.07652
1.07744
1.07711
1.07581
1.07396
1.07192
1.07046
1.06923
1.06933
1.06985
1.07054
1.07158
1.07319
1.07469
1.07654
1.07647
1.0756
1.07324
1.07063
1.06881
1.06818
1.06868
1.06982
1.0717
1.07381
1.07485
1.07402
1.0714
1.06914
1.0682
1.06859
1.06973
1.07134
1.07253
1.07175
1.07004
1.06865
1.06897
1.07026
1.07134
1.07092
1.06992
1.069
1.06914
1.06986
1.07007
1.06984
1.06915
1.06847
1.06799
1.06764
1.06708
1.03631
1.0363
1.03628
1.03625
1.03621
1.03618
1.03614
1.03612
1.03612
1.03613
1.03621
1.03628
1.0363
1.03631
1.03633
1.03638
1.03646
1.03658
1.03673
1.03688
1.03704
1.03722
1.03744
1.03772
1.03807
1.03845
1.03884
1.0393
1.03975
1.04018
1.0406
1.041
1.04139
1.04184
1.04227
1.0427
1.04312
1.04358
1.04414
1.04486
1.04572
1.04675
1.04787
1.04913
1.05047
1.05193
1.05356
1.0551
1.05686
1.05803
1.05915
1.06016
1.06129
1.06178
1.06208
1.06177
1.0611
1.06023
1.0595
1.05914
1.05932
1.05979
1.06067
1.06161
1.06249
1.06316
1.06282
1.06118
1.05913
1.05745
1.0573
1.05779
1.05913
1.06093
1.06302
1.0638
1.06272
1.06048
1.05836
1.05837
1.05927
1.06083
1.0628
1.06235
1.06074
1.05944
1.05972
1.06073
1.062
1.06162
1.06077
1.06025
1.06059
1.06134
1.06129
1.06097
1.06038
1.05989
1.05956
1.05916
1.03445
1.0345
1.03452
1.03452
1.03451
1.0345
1.03446
1.03445
1.03447
1.03454
1.03463
1.03463
1.03462
1.03458
1.03454
1.03455
1.03461
1.03463
1.03464
1.03463
1.0346
1.03459
1.0346
1.03464
1.03469
1.03472
1.03479
1.03478
1.03482
1.03491
1.03503
1.03518
1.03535
1.03558
1.03597
1.03642
1.03686
1.03733
1.03781
1.03833
1.03887
1.03948
1.04005
1.04079
1.04155
1.04251
1.04354
1.04465
1.04594
1.04705
1.04838
1.04969
1.05081
1.05154
1.05216
1.05263
1.05287
1.05318
1.05322
1.05306
1.05272
1.05226
1.05208
1.05229
1.05277
1.05346
1.05415
1.05459
1.05422
1.05309
1.05177
1.05061
1.05066
1.05128
1.05284
1.05418
1.05552
1.0557
1.05469
1.05327
1.05239
1.0527
1.0539
1.05507
1.0559
1.055
1.05363
1.05373
1.05453
1.05581
1.05551
1.05465
1.05421
1.05466
1.05549
1.0553
1.05483
1.05426
1.05404
1.05371
1.03318
1.03317
1.03317
1.03318
1.03318
1.0332
1.03323
1.03324
1.03324
1.03324
1.03325
1.03324
1.03319
1.03316
1.03315
1.03317
1.03318
1.03316
1.0331
1.03307
1.03307
1.03307
1.03308
1.03309
1.03307
1.03304
1.03302
1.033
1.03298
1.03299
1.03303
1.03309
1.03316
1.03329
1.03329
1.0333
1.03335
1.0335
1.03373
1.034
1.03431
1.03467
1.03503
1.03545
1.03592
1.03653
1.03717
1.038
1.03879
1.03975
1.04084
1.04202
1.04342
1.04448
1.04577
1.04659
1.0476
1.04832
1.04871
1.04889
1.04905
1.04912
1.0491
1.04906
1.04904
1.04905
1.04916
1.04948
1.04978
1.05018
1.05012
1.04954
1.04866
1.04789
1.04805
1.04868
1.05019
1.05106
1.05182
1.05157
1.05054
1.04933
1.04943
1.05014
1.05115
1.05177
1.05139
1.05067
1.05068
1.05129
1.05206
1.05196
1.05142
1.05115
1.05151
1.05219
1.05202
1.05143
1.05092
1.05062
1.03246
1.03247
1.03247
1.03246
1.03245
1.03241
1.03239
1.03239
1.03241
1.03244
1.03244
1.03242
1.03236
1.03235
1.03237
1.03241
1.03243
1.03242
1.03235
1.03226
1.03226
1.03228
1.0323
1.03228
1.03224
1.03222
1.03221
1.03219
1.03216
1.03213
1.03213
1.03212
1.03211
1.03207
1.03202
1.03198
1.03195
1.03189
1.03188
1.0319
1.03195
1.03203
1.03211
1.03219
1.03233
1.03259
1.03295
1.03344
1.03394
1.03458
1.03525
1.0363
1.03743
1.0389
1.04033
1.04184
1.04352
1.04451
1.04581
1.04648
1.04713
1.04723
1.04722
1.04715
1.04706
1.04703
1.04714
1.04738
1.04782
1.04832
1.04866
1.04877
1.04866
1.04811
1.04728
1.04743
1.04779
1.04871
1.04946
1.04986
1.04982
1.04924
1.04834
1.04835
1.04862
1.04939
1.04978
1.04964
1.04934
1.04937
1.04981
1.0503
1.05024
1.04983
1.04975
1.05011
1.05053
1.05034
1.04981
1.04927
1.03314
1.03314
1.03314
1.03312
1.0331
1.03304
1.03292
1.03288
1.03288
1.03291
1.03292
1.03291
1.03286
1.03278
1.03272
1.03272
1.03274
1.03275
1.03273
1.0326
1.03252
1.03251
1.0325
1.03247
1.03237
1.03227
1.03222
1.0322
1.03217
1.03212
1.03206
1.03201
1.03197
1.03189
1.03177
1.03162
1.03148
1.0313
1.03118
1.03118
1.03123
1.03125
1.03122
1.03115
1.03109
1.03107
1.03108
1.03111
1.03119
1.03132
1.03156
1.032
1.03259
1.0335
1.03453
1.036
1.03744
1.0392
1.04096
1.04238
1.04394
1.04461
1.04545
1.04558
1.04582
1.04613
1.04676
1.04723
1.0476
1.04782
1.04807
1.04817
1.04832
1.04833
1.04806
1.04768
1.04758
1.04775
1.04812
1.04875
1.04901
1.049
1.04867
1.04802
1.04803
1.04821
1.04875
1.04896
1.04906
1.04895
1.04903
1.04932
1.04952
1.04944
1.04925
1.0493
1.0496
1.04981
1.04961
1.04896
1.03396
1.03395
1.03397
1.03399
1.03399
1.03398
1.03396
1.03392
1.03389
1.03388
1.03386
1.03386
1.03382
1.03374
1.03366
1.0336
1.0336
1.0336
1.0336
1.03358
1.03351
1.03344
1.03341
1.03339
1.03334
1.03326
1.03317
1.0331
1.03302
1.03293
1.03282
1.0327
1.03259
1.03246
1.03229
1.03211
1.03193
1.03175
1.03156
1.03141
1.03128
1.03117
1.03108
1.03099
1.03093
1.0309
1.03087
1.03078
1.03065
1.0306
1.03058
1.03059
1.03064
1.03077
1.03104
1.03155
1.0323
1.03357
1.03499
1.03695
1.03891
1.04079
1.04272
1.04399
1.04536
1.04625
1.04697
1.04729
1.04765
1.04761
1.04765
1.04781
1.04809
1.04846
1.04873
1.04862
1.04829
1.0479
1.04793
1.04806
1.04846
1.04881
1.04878
1.04856
1.04818
1.0481
1.04824
1.04863
1.04884
1.04886
1.04887
1.04894
1.04917
1.04929
1.0492
1.04912
1.04922
1.04947
1.04957
1.04912
1.03419
1.03419
1.0342
1.03422
1.03423
1.03423
1.03422
1.03421
1.03418
1.0341
1.03406
1.03405
1.03406
1.03404
1.03401
1.03401
1.03401
1.03402
1.03404
1.03405
1.03404
1.03402
1.03402
1.03402
1.03401
1.03399
1.03396
1.03392
1.03387
1.03382
1.03375
1.03366
1.03356
1.03345
1.03331
1.03316
1.03299
1.03281
1.03262
1.03242
1.03223
1.03205
1.03184
1.03162
1.03141
1.03123
1.03105
1.03086
1.03068
1.03062
1.03061
1.03062
1.03063
1.03062
1.03056
1.03048
1.0305
1.03071
1.03117
1.0321
1.03329
1.03516
1.03696
1.03911
1.04121
1.04287
1.04464
1.04552
1.04674
1.04714
1.04781
1.04815
1.04863
1.04876
1.04894
1.04894
1.04887
1.04864
1.0483
1.0483
1.04832
1.04855
1.04882
1.04881
1.04871
1.04851
1.04844
1.04851
1.04874
1.04882
1.04887
1.04891
1.04903
1.04921
1.04923
1.04918
1.0492
1.04931
1.04949
1.0493
1.03396
1.03393
1.03391
1.0339
1.0339
1.03391
1.03392
1.03392
1.03391
1.03385
1.03377
1.03377
1.03377
1.03375
1.03372
1.03371
1.0337
1.0337
1.0337
1.03371
1.03372
1.03372
1.03371
1.03369
1.03367
1.03366
1.03365
1.03363
1.03361
1.03358
1.03354
1.03349
1.03343
1.03336
1.03327
1.03317
1.03308
1.03302
1.03295
1.03284
1.03271
1.03258
1.03242
1.03225
1.03205
1.03183
1.03163
1.03143
1.0312
1.031
1.03093
1.03093
1.03092
1.03087
1.03079
1.0307
1.03064
1.03064
1.03067
1.03079
1.03105
1.03165
1.03245
1.0338
1.03538
1.03767
1.04005
1.04236
1.04467
1.04638
1.04787
1.0482
1.04875
1.04873
1.0487
1.04873
1.04885
1.04899
1.04891
1.04872
1.04851
1.04853
1.04867
1.04888
1.04899
1.04894
1.0488
1.04867
1.0487
1.04881
1.04888
1.04892
1.04898
1.04912
1.04923
1.04923
1.04923
1.0493
1.04945
1.04941
1.03349
1.03348
1.03348
1.03348
1.03346
1.03344
1.03345
1.03345
1.03345
1.03339
1.03332
1.03329
1.03328
1.03325
1.03323
1.03322
1.03322
1.03322
1.03322
1.03323
1.03326
1.03327
1.03326
1.03324
1.03325
1.03326
1.03327
1.03327
1.03328
1.03329
1.03331
1.03332
1.03332
1.03331
1.03326
1.03323
1.03324
1.03325
1.03322
1.03316
1.03307
1.03293
1.03279
1.03266
1.03253
1.0324
1.03228
1.03217
1.03205
1.0319
1.0318
1.03178
1.03175
1.0317
1.03162
1.0315
1.0313
1.03106
1.03099
1.03102
1.03114
1.03125
1.03134
1.03149
1.03185
1.03279
1.0342
1.03661
1.03899
1.04141
1.04395
1.04523
1.04649
1.04704
1.04789
1.04846
1.04918
1.04921
1.04916
1.04899
1.04875
1.04858
1.04863
1.04877
1.049
1.04903
1.04898
1.04885
1.04873
1.04875
1.04881
1.04886
1.04889
1.04898
1.04916
1.04923
1.04922
1.04927
1.04938
1.04942
1.03271
1.0327
1.0327
1.03271
1.03275
1.03276
1.03275
1.03273
1.03268
1.0326
1.03255
1.03255
1.03256
1.03256
1.03255
1.03255
1.03255
1.03254
1.03252
1.03252
1.03253
1.03257
1.03257
1.03257
1.03257
1.03262
1.03263
1.03263
1.03264
1.03267
1.03273
1.0328
1.03283
1.03284
1.03286
1.03291
1.03296
1.03297
1.03297
1.03296
1.0329
1.03285
1.0328
1.0327
1.03258
1.03243
1.03234
1.03232
1.03232
1.03239
1.03246
1.03245
1.03244
1.0324
1.03231
1.03217
1.032
1.03173
1.03143
1.03125
1.03121
1.03122
1.0313
1.03145
1.03146
1.03151
1.03167
1.03234
1.03344
1.03546
1.03764
1.04034
1.04273
1.04463
1.04704
1.04786
1.04871
1.0487
1.04858
1.04845
1.04852
1.04864
1.04873
1.04875
1.04876
1.0488
1.04883
1.04881
1.04873
1.04866
1.04867
1.04872
1.04876
1.04877
1.04886
1.049
1.04909
1.04916
1.04924
1.04933
1.03177
1.03176
1.03174
1.03172
1.03171
1.03168
1.03164
1.03159
1.03153
1.03148
1.03145
1.03142
1.0314
1.03138
1.03137
1.03135
1.03132
1.03128
1.03126
1.03126
1.03126
1.03127
1.0313
1.03134
1.03137
1.03142
1.03147
1.03152
1.03157
1.03162
1.03167
1.03173
1.0318
1.03185
1.0319
1.03198
1.0321
1.03221
1.03229
1.03235
1.03236
1.03235
1.03232
1.03224
1.03212
1.03198
1.03193
1.03194
1.03198
1.03211
1.03227
1.03242
1.03259
1.03273
1.03282
1.0328
1.03271
1.03253
1.03226
1.03194
1.03168
1.03158
1.03155
1.0315
1.03146
1.03146
1.03146
1.03132
1.0313
1.03161
1.03241
1.03416
1.03609
1.03876
1.04141
1.04336
1.04555
1.04616
1.04706
1.04768
1.04852
1.04868
1.04865
1.04853
1.04836
1.0484
1.04854
1.04862
1.04857
1.04847
1.04841
1.04843
1.04848
1.04849
1.0485
1.04855
1.04876
1.04888
1.04896
1.04908
1.03122
1.0312
1.03118
1.03116
1.03113
1.03109
1.03104
1.03098
1.03092
1.03087
1.03082
1.03079
1.03076
1.03073
1.0307
1.03067
1.03062
1.03057
1.03052
1.03048
1.03045
1.03044
1.03044
1.03045
1.03045
1.03047
1.0305
1.03054
1.03058
1.03063
1.03068
1.03073
1.03079
1.03084
1.0309
1.03097
1.03108
1.03119
1.0313
1.03138
1.03146
1.03148
1.03148
1.03146
1.03139
1.03127
1.03118
1.03117
1.03122
1.03136
1.03159
1.03188
1.03215
1.03235
1.03253
1.03267
1.03268
1.03262
1.03249
1.03231
1.03209
1.03193
1.0318
1.03167
1.03151
1.03132
1.03114
1.03089
1.03074
1.03074
1.0308
1.03102
1.03157
1.03297
1.03483
1.03779
1.04065
1.04307
1.04581
1.04664
1.04749
1.04774
1.04771
1.04766
1.04782
1.04799
1.04808
1.04806
1.04802
1.04798
1.048
1.04802
1.048
1.04795
1.04792
1.04802
1.04819
1.04833
1.04844
1.04859
1.03073
1.03072
1.0307
1.03068
1.03066
1.03063
1.03059
1.03056
1.03052
1.03048
1.03044
1.03041
1.03039
1.03037
1.03035
1.03033
1.03028
1.03022
1.03016
1.03011
1.03006
1.02999
1.02994
1.02993
1.02993
1.02994
1.02996
1.02999
1.03002
1.03005
1.03007
1.03011
1.03014
1.03019
1.03024
1.03032
1.03043
1.03057
1.03071
1.03086
1.03102
1.03117
1.03128
1.03132
1.03132
1.03126
1.03111
1.03095
1.03092
1.03095
1.03105
1.0312
1.03138
1.03159
1.03185
1.03207
1.03213
1.03214
1.03213
1.03209
1.03193
1.03176
1.0317
1.03165
1.03156
1.03141
1.03121
1.03095
1.03065
1.03038
1.03031
1.03036
1.03031
1.03039
1.03082
1.03218
1.03405
1.03697
1.03971
1.04191
1.04417
1.04497
1.04595
1.04662
1.04734
1.04745
1.0474
1.04726
1.04729
1.04739
1.04745
1.0474
1.0473
1.04721
1.04725
1.04733
1.04743
1.04757
1.04774
1.04792
1.03036
1.03037
1.03037
1.03036
1.03035
1.03033
1.03033
1.03032
1.03031
1.03032
1.03032
1.03031
1.03028
1.03028
1.03031
1.03034
1.03033
1.0303
1.03026
1.03023
1.0302
1.03017
1.03012
1.03007
1.03002
1.02998
1.02997
1.02997
1.02996
1.02991
1.02987
1.02985
1.02982
1.0298
1.0298
1.02981
1.02984
1.02989
1.02998
1.0301
1.03025
1.03044
1.03062
1.03071
1.03071
1.03066
1.03056
1.03045
1.03033
1.03028
1.0303
1.03037
1.03043
1.03052
1.03068
1.03088
1.0311
1.03121
1.03121
1.03119
1.03104
1.03085
1.03083
1.03086
1.03097
1.03102
1.03097
1.03084
1.03062
1.03026
1.02997
1.02985
1.02975
1.02978
1.02976
1.02985
1.03025
1.03147
1.03318
1.03613
1.03895
1.04165
1.04437
1.04527
1.04595
1.04613
1.04607
1.04626
1.04652
1.04669
1.04662
1.04654
1.04644
1.04646
1.04649
1.04649
1.04654
1.04669
1.0469
1.04707
1.02988
1.02989
1.02992
1.02995
1.02996
1.02996
1.02994
1.02993
1.02993
1.02996
1.02997
1.02996
1.02996
1.02999
1.03005
1.03011
1.03013
1.03015
1.03016
1.03016
1.03016
1.03016
1.03015
1.03013
1.03007
1.02996
1.02994
1.02993
1.02988
1.02976
1.0297
1.02964
1.02954
1.02941
1.02932
1.02929
1.02929
1.02931
1.02934
1.02939
1.02949
1.02963
1.02979
1.02991
1.02993
1.02989
1.02982
1.02974
1.02967
1.02959
1.02959
1.02962
1.02962
1.02959
1.02956
1.02957
1.02966
1.02989
1.03
1.03001
1.02995
1.02977
1.02967
1.02968
1.02975
1.02986
1.03
1.03014
1.03014
1.03009
1.02995
1.02982
1.02963
1.02941
1.0292
1.02918
1.0291
1.02914
1.02942
1.03052
1.03232
1.0354
1.03819
1.04073
1.0426
1.04352
1.04455
1.04542
1.04582
1.04576
1.04564
1.04562
1.04568
1.04573
1.04568
1.04562
1.04565
1.04582
1.046
1.04617
1.02939
1.02941
1.02942
1.02944
1.02946
1.02949
1.02951
1.02954
1.02957
1.02961
1.02965
1.0297
1.02979
1.02985
1.02988
1.02989
1.0299
1.02996
1.03008
1.03009
1.03005
1.03004
1.03007
1.03006
1.03005
1.03001
1.02994
1.02985
1.02974
1.02967
1.02962
1.02951
1.02933
1.02927
1.02924
1.0292
1.02915
1.0291
1.02908
1.02908
1.02914
1.02915
1.02913
1.02912
1.02912
1.02909
1.029
1.02889
1.0289
1.02893
1.02896
1.02896
1.02893
1.02878
1.0286
1.0285
1.0285
1.02861
1.02881
1.02887
1.02884
1.02873
1.02862
1.0286
1.0286
1.02867
1.02886
1.02908
1.02928
1.02939
1.02942
1.02941
1.02937
1.02923
1.02898
1.02874
1.0285
1.02831
1.02825
1.02832
1.02862
1.02979
1.0318
1.03491
1.03794
1.04069
1.04317
1.04397
1.04446
1.04422
1.04433
1.04474
1.04496
1.04493
1.04483
1.0448
1.04488
1.04504
1.04511
1.04524
1.02877
1.02877
1.02878
1.0288
1.02879
1.02878
1.02878
1.02878
1.02878
1.02879
1.02882
1.02889
1.02896
1.02897
1.02898
1.029
1.02907
1.02927
1.02936
1.02936
1.02936
1.0294
1.0295
1.02951
1.0295
1.02949
1.02944
1.02937
1.02932
1.0293
1.02923
1.02907
1.02902
1.029
1.02896
1.02891
1.02887
1.02882
1.02877
1.02877
1.02877
1.02875
1.02864
1.02856
1.02856
1.02852
1.0284
1.02834
1.02837
1.02845
1.02848
1.02848
1.02841
1.02819
1.0279
1.02775
1.02773
1.02778
1.02793
1.02797
1.02791
1.02778
1.02776
1.02784
1.02796
1.02806
1.02812
1.02818
1.02831
1.02844
1.02847
1.02847
1.02846
1.02846
1.02845
1.02839
1.02823
1.02798
1.02773
1.02772
1.02781
1.02786
1.02821
1.02937
1.03155
1.03461
1.03774
1.0398
1.04158
1.04235
1.04337
1.04416
1.04418
1.0441
1.04402
1.04413
1.0443
1.04436
1.04433
1.04438
1.02812
1.02812
1.02811
1.0281
1.02805
1.02798
1.02795
1.02794
1.02794
1.02796
1.02796
1.02794
1.0279
1.02789
1.02788
1.02793
1.02809
1.02816
1.02814
1.02809
1.0281
1.02824
1.02841
1.02842
1.02843
1.02842
1.02837
1.02831
1.02829
1.02828
1.02821
1.0281
1.02808
1.02805
1.02801
1.028
1.02802
1.02802
1.02804
1.02805
1.02804
1.02798
1.02784
1.02762
1.02752
1.02752
1.02754
1.02758
1.02769
1.0279
1.02805
1.02805
1.028
1.02785
1.02763
1.02758
1.02759
1.02763
1.02768
1.02765
1.0275
1.02726
1.02718
1.02724
1.02736
1.0274
1.02737
1.02731
1.02734
1.02742
1.02749
1.02748
1.02743
1.02743
1.02748
1.02756
1.02763
1.0276
1.02751
1.0274
1.02731
1.02725
1.02719
1.02726
1.02772
1.02914
1.0315
1.03482
1.03787
1.04073
1.04218
1.04293
1.04302
1.04295
1.04328
1.04356
1.04372
1.04366
1.04362
1.04368
1.02753
1.02751
1.02748
1.02743
1.02737
1.02732
1.02729
1.02727
1.02724
1.02722
1.02718
1.02713
1.02708
1.02699
1.0269
1.0269
1.027
1.02706
1.02706
1.02704
1.02705
1.02712
1.02724
1.02734
1.02736
1.02736
1.02732
1.02721
1.02717
1.02715
1.02709
1.02709
1.0271
1.02708
1.02705
1.02706
1.02713
1.02732
1.02741
1.02741
1.0274
1.02736
1.02724
1.02697
1.02676
1.02675
1.02676
1.02682
1.02696
1.0272
1.02741
1.02748
1.02751
1.02751
1.02748
1.02746
1.02752
1.02755
1.02753
1.02745
1.02724
1.02705
1.02697
1.02692
1.0269
1.02687
1.0268
1.02668
1.0266
1.02663
1.02669
1.02674
1.02674
1.02672
1.02672
1.02676
1.02684
1.02691
1.02697
1.02707
1.02708
1.02702
1.02688
1.02677
1.02672
1.02684
1.02748
1.02918
1.03193
1.0351
1.03799
1.03961
1.04102
1.04182
1.04293
1.04313
1.0431
1.04299
1.04309
1.04319
1.02661
1.02661
1.02661
1.02653
1.02642
1.02638
1.02636
1.02635
1.02634
1.02633
1.02631
1.02629
1.02631
1.02634
1.02632
1.02625
1.02626
1.02633
1.02641
1.02648
1.02649
1.02649
1.02651
1.02656
1.02659
1.02657
1.02647
1.02631
1.02624
1.02622
1.02621
1.0262
1.02624
1.02633
1.02637
1.02642
1.0266
1.0269
1.02703
1.02702
1.02701
1.027
1.02697
1.0269
1.02675
1.02665
1.02664
1.02667
1.02674
1.02687
1.02695
1.02695
1.02693
1.02688
1.02688
1.02688
1.02697
1.02712
1.02713
1.0271
1.02692
1.02666
1.0266
1.02658
1.02656
1.02656
1.02656
1.02652
1.02644
1.02635
1.02631
1.02631
1.02632
1.0263
1.02626
1.0262
1.02619
1.02623
1.0263
1.02641
1.02654
1.02661
1.02659
1.02651
1.02639
1.02642
1.02645
1.02668
1.02753
1.02958
1.03258
1.03572
1.03912
1.04093
1.04204
1.04222
1.04218
1.04238
1.04267
1.04282
1.02557
1.02558
1.0256
1.02571
1.02579
1.02578
1.02578
1.02582
1.02587
1.02591
1.02599
1.02612
1.02634
1.02658
1.02667
1.02669
1.02674
1.02678
1.0268
1.02681
1.02683
1.02681
1.02664
1.02651
1.02647
1.02641
1.02629
1.02605
1.02578
1.02567
1.02565
1.02566
1.02579
1.02602
1.02612
1.02617
1.0263
1.02659
1.02684
1.02688
1.02683
1.02678
1.02679
1.02683
1.02688
1.02685
1.02677
1.02679
1.02688
1.02686
1.02683
1.02671
1.02639
1.02624
1.02625
1.02631
1.02652
1.02673
1.02681
1.02681
1.02672
1.02639
1.02607
1.02601
1.02606
1.02623
1.02643
1.02647
1.02643
1.0263
1.02615
1.02609
1.02607
1.02604
1.02598
1.02585
1.02576
1.02577
1.0258
1.02588
1.02601
1.0261
1.02613
1.02615
1.02618
1.02623
1.02626
1.02633
1.02638
1.02679
1.02786
1.03044
1.03334
1.03662
1.03888
1.04015
1.04132
1.04242
1.0425
1.04243
1.02445
1.02454
1.02469
1.02501
1.02515
1.02521
1.0253
1.02534
1.02539
1.02552
1.02575
1.02595
1.02611
1.02628
1.02647
1.02657
1.0266
1.02661
1.02658
1.02652
1.02648
1.02642
1.02626
1.0261
1.02606
1.02605
1.02601
1.02587
1.02565
1.02549
1.02535
1.02533
1.02542
1.02562
1.02567
1.02571
1.02585
1.02602
1.02619
1.02626
1.02623
1.02622
1.02622
1.02632
1.02647
1.02647
1.0264
1.02641
1.02649
1.02649
1.02646
1.02627
1.02592
1.02565
1.0256
1.02561
1.02579
1.02627
1.02659
1.02662
1.02656
1.02632
1.02595
1.02572
1.02574
1.02591
1.02622
1.02639
1.02639
1.0263
1.02613
1.02602
1.02599
1.02597
1.02592
1.02579
1.02562
1.02556
1.02557
1.02561
1.02568
1.02574
1.02578
1.02584
1.02592
1.02602
1.0261
1.02611
1.02612
1.02615
1.02634
1.02704
1.02864
1.03165
1.03471
1.0383
1.04064
1.042
1.04196
1.04186
1.02237
1.02242
1.02259
1.02282
1.0229
1.02299
1.02307
1.02311
1.02331
1.02369
1.0238
1.02386
1.02394
1.0241
1.02425
1.02433
1.02437
1.02438
1.02438
1.02443
1.02451
1.02463
1.0248
1.02488
1.02496
1.02516
1.02524
1.02523
1.02518
1.02508
1.02488
1.02462
1.02459
1.02463
1.02463
1.02465
1.02471
1.02467
1.02461
1.02456
1.02452
1.02453
1.02461
1.02484
1.02515
1.02554
1.02571
1.02568
1.02558
1.02567
1.02587
1.02602
1.02607
1.02598
1.02552
1.02508
1.02504
1.02524
1.02578
1.02624
1.02635
1.02632
1.02621
1.02595
1.02576
1.02577
1.02593
1.02618
1.02628
1.02627
1.02617
1.02597
1.02592
1.02595
1.02595
1.02589
1.02574
1.02562
1.02557
1.02556
1.02557
1.02561
1.02567
1.02574
1.02581
1.02588
1.02594
1.02594
1.02594
1.02595
1.02598
1.02609
1.02654
1.02763
1.02995
1.03306
1.03625
1.03893
1.0401
1.04128
1.02153
1.0214
1.02132
1.02124
1.02107
1.02081
1.02069
1.02069
1.02069
1.02067
1.02066
1.02066
1.02065
1.02058
1.02027
1.02001
1.0199
1.01986
1.01986
1.01993
1.02009
1.02038
1.02088
1.02131
1.02174
1.02227
1.02257
1.02273
1.02288
1.02293
1.02286
1.02258
1.02238
1.0224
1.02261
1.02296
1.02316
1.02314
1.02303
1.02278
1.02245
1.02247
1.02276
1.02313
1.02326
1.02341
1.02361
1.02374
1.02392
1.02432
1.0251
1.02589
1.02602
1.02597
1.0257
1.02517
1.0248
1.02481
1.02503
1.02552
1.02603
1.02615
1.02608
1.02598
1.02588
1.02574
1.02572
1.02581
1.02603
1.0261
1.02605
1.02588
1.02579
1.02581
1.02587
1.02591
1.0259
1.02585
1.02581
1.02582
1.02584
1.02582
1.02581
1.0258
1.0258
1.02582
1.02583
1.02582
1.02583
1.02585
1.02587
1.02593
1.02603
1.02631
1.02707
1.02869
1.03153
1.03474
1.03815
1.04099
1.02323
1.02297
1.02265
1.02222
1.02159
1.02099
1.02083
1.02083
1.02082
1.02078
1.02072
1.02069
1.02064
1.02049
1.02015
1.01984
1.01974
1.01966
1.01965
1.01989
1.02026
1.02042
1.02056
1.02083
1.02134
1.02199
1.02241
1.02262
1.02288
1.02309
1.02304
1.02261
1.02239
1.02245
1.02284
1.02356
1.02404
1.02407
1.02395
1.02371
1.02344
1.02323
1.02304
1.02274
1.02241
1.02226
1.02225
1.02228
1.02237
1.02264
1.02315
1.02387
1.02463
1.025
1.02498
1.02476
1.02445
1.02416
1.02407
1.02415
1.0244
1.02474
1.02524
1.02567
1.02575
1.02567
1.02547
1.02543
1.02547
1.0256
1.02576
1.02582
1.02586
1.02592
1.02599
1.02601
1.02603
1.02607
1.02612
1.0262
1.0262
1.02617
1.0261
1.02601
1.02593
1.02591
1.02587
1.02582
1.02582
1.02584
1.02588
1.02593
1.02599
1.02606
1.02623
1.02671
1.02776
1.03007
1.0329
1.03733
1.02911
1.02884
1.02833
1.02756
1.02719
1.02719
1.02724
1.02723
1.02702
1.02658
1.02634
1.02626
1.02626
1.02615
1.02554
1.02463
1.0244
1.02453
1.02493
1.02503
1.02476
1.02389
1.023
1.02266
1.02267
1.02264
1.02253
1.02252
1.02255
1.02277
1.02326
1.02365
1.02378
1.02392
1.02451
1.02519
1.02528
1.02512
1.02493
1.02471
1.02446
1.02435
1.02424
1.02406
1.02367
1.02303
1.02243
1.02218
1.02213
1.02218
1.02226
1.02231
1.02241
1.02267
1.023
1.02319
1.02328
1.02327
1.0231
1.02292
1.02289
1.02295
1.02321
1.02368
1.02418
1.02455
1.02472
1.02482
1.02489
1.02498
1.0252
1.02565
1.02592
1.02599
1.02606
1.02608
1.02609
1.02613
1.02619
1.02626
1.0263
1.0263
1.02628
1.02625
1.02619
1.02612
1.02604
1.026
1.02598
1.02596
1.02596
1.02596
1.02596
1.02599
1.02607
1.02621
1.0265
1.02724
1.0287
1.03312
1.03064
1.03038
1.0303
1.03037
1.03086
1.03181
1.03303
1.03354
1.03307
1.03208
1.03195
1.03183
1.03104
1.03051
1.03042
1.03053
1.03141
1.0319
1.03191
1.0316
1.0302
1.0301
1.03029
1.03004
1.02871
1.02649
1.02532
1.0253
1.02548
1.02588
1.02649
1.02703
1.02732
1.02736
1.02715
1.02601
1.02453
1.02385
1.0237
1.02373
1.0239
1.02434
1.02547
1.02598
1.02604
1.02579
1.02514
1.02499
1.02482
1.02395
1.02281
1.02239
1.0224
1.02258
1.02294
1.02317
1.02329
1.02348
1.02371
1.0237
1.02362
1.02336
1.02289
1.02273
1.02275
1.02301
1.02369
1.0241
1.02411
1.02414
1.02422
1.02446
1.02489
1.02531
1.02556
1.02568
1.02577
1.02592
1.02609
1.02628
1.02635
1.02634
1.02628
1.02626
1.02629
1.02633
1.02633
1.02629
1.0262
1.02612
1.02605
1.02599
1.02601
1.02607
1.02612
1.02616
1.02623
1.02639
1.0268
1.02917
1.04684
1.04601
1.04561
1.04577
1.04635
1.04641
1.0465
1.04659
1.04574
1.04423
1.0432
1.04136
1.04031
1.04033
1.04036
1.04031
1.04027
1.04013
1.03907
1.03803
1.03795
1.03778
1.03798
1.03898
1.03908
1.03815
1.03751
1.03762
1.03787
1.03812
1.03879
1.03988
1.04042
1.04016
1.039
1.03666
1.03363
1.0317
1.03059
1.02898
1.02781
1.02785
1.0288
1.02936
1.02885
1.02851
1.029
1.02934
1.0292
1.02821
1.02762
1.02762
1.02719
1.02566
1.02407
1.02363
1.0236
1.02386
1.02452
1.02523
1.02553
1.02535
1.02431
1.02322
1.02309
1.02326
1.02373
1.02417
1.02437
1.02426
1.02385
1.02361
1.02366
1.02399
1.02445
1.02482
1.02507
1.02529
1.02558
1.02585
1.02603
1.02608
1.02609
1.02614
1.02628
1.02642
1.02643
1.02638
1.02628
1.0262
1.02615
1.02612
1.02615
1.0262
1.02621
1.02618
1.02619
1.02622
1.02629
1.02713
1.06956
1.06884
1.0676
1.06747
1.0676
1.06761
1.06767
1.06759
1.06679
1.06521
1.06392
1.06362
1.06377
1.06366
1.06238
1.06111
1.06087
1.06072
1.06046
1.05935
1.05709
1.05677
1.05686
1.05656
1.0556
1.05472
1.05391
1.05237
1.05043
1.04944
1.04954
1.04992
1.04987
1.04882
1.04678
1.04558
1.04554
1.0463
1.0465
1.04553
1.04306
1.04285
1.043
1.0425
1.04054
1.03841
1.03643
1.03351
1.0312
1.03087
1.03193
1.03333
1.03308
1.03163
1.03129
1.03121
1.03007
1.02748
1.02617
1.02621
1.02665
1.02707
1.02692
1.02664
1.0261
1.02517
1.02464
1.02466
1.0249
1.02507
1.02484
1.02433
1.02415
1.02418
1.02438
1.02452
1.02456
1.02459
1.02469
1.0249
1.02499
1.02506
1.02519
1.02543
1.02577
1.02608
1.02622
1.02632
1.02636
1.02634
1.02628
1.02624
1.02626
1.02627
1.02627
1.02624
1.02623
1.02624
1.02629
1.02651
1.09031
1.09003
1.08988
1.08942
1.08812
1.08674
1.08618
1.08615
1.0865
1.08705
1.08686
1.08559
1.08467
1.08386
1.08257
1.08147
1.08116
1.08094
1.08066
1.08032
1.07986
1.07908
1.07737
1.07633
1.07633
1.07725
1.07746
1.07607
1.07394
1.07356
1.07359
1.07333
1.0725
1.07082
1.06819
1.06565
1.06405
1.06304
1.0624
1.06177
1.06036
1.05822
1.05762
1.05781
1.05767
1.05675
1.05527
1.05312
1.05001
1.04924
1.04877
1.04643
1.04185
1.04017
1.04061
1.04161
1.04109
1.03895
1.03739
1.036
1.03316
1.03075
1.03055
1.03111
1.03135
1.03089
1.02901
1.02672
1.02641
1.02671
1.02666
1.02621
1.02555
1.025
1.02475
1.02456
1.02447
1.02443
1.02425
1.02412
1.02403
1.02404
1.02417
1.02451
1.02488
1.02531
1.02571
1.02606
1.02624
1.02623
1.0262
1.02619
1.02629
1.02636
1.02635
1.02631
1.02626
1.02626
1.02628
1.02637
1.1147
1.11476
1.11457
1.11406
1.11378
1.11304
1.11129
1.11044
1.1105
1.11079
1.11078
1.11034
1.1099
1.10899
1.10679
1.10618
1.10622
1.10588
1.10529
1.10489
1.10443
1.10308
1.1015
1.10105
1.10064
1.09985
1.09902
1.09798
1.09572
1.09473
1.09435
1.09316
1.092
1.09172
1.09119
1.08988
1.08733
1.08639
1.08638
1.08613
1.08499
1.08263
1.08025
1.07907
1.07719
1.07436
1.07251
1.07087
1.06808
1.06724
1.06751
1.06698
1.06392
1.06064
1.05936
1.05751
1.05291
1.05011
1.0503
1.04996
1.04782
1.04561
1.04269
1.03903
1.03829
1.03809
1.03729
1.0348
1.03164
1.03082
1.03066
1.03004
1.02842
1.026
1.02505
1.02485
1.02467
1.02457
1.02429
1.02409
1.02425
1.02467
1.02514
1.02525
1.02519
1.02506
1.02498
1.02502
1.02513
1.02533
1.02561
1.02588
1.02625
1.02643
1.02641
1.02635
1.02627
1.02626
1.0263
1.02646
1.13744
1.13707
1.13703
1.13716
1.13759
1.13761
1.13716
1.13615
1.13498
1.13413
1.13349
1.13331
1.13345
1.13342
1.13263
1.13158
1.13019
1.12907
1.12886
1.12869
1.12834
1.12673
1.12573
1.12567
1.12551
1.12421
1.12297
1.1227
1.1222
1.12102
1.11954
1.11822
1.11692
1.11571
1.11453
1.1131
1.1116
1.11031
1.10916
1.10807
1.10679
1.10478
1.10272
1.10158
1.10039
1.09863
1.09688
1.09518
1.09304
1.09099
1.08905
1.08644
1.08346
1.08118
1.08001
1.07877
1.07613
1.07336
1.07122
1.06703
1.06336
1.06268
1.06128
1.05886
1.05612
1.0517
1.04918
1.04791
1.04641
1.0433
1.04052
1.03894
1.03748
1.03539
1.0334
1.03193
1.03067
1.02977
1.02847
1.02739
1.02692
1.0265
1.02577
1.02485
1.02445
1.02435
1.02425
1.02425
1.02434
1.02462
1.02496
1.02534
1.02593
1.02625
1.02621
1.02612
1.02609
1.02617
1.02644
1.02668
1.16358
1.16263
1.16257
1.16263
1.16241
1.16202
1.16174
1.16138
1.16066
1.15979
1.1591
1.15881
1.15841
1.15734
1.1571
1.15709
1.15682
1.1558
1.15388
1.15335
1.15332
1.15317
1.1522
1.15061
1.14974
1.14911
1.14819
1.14713
1.14619
1.14489
1.14345
1.14256
1.14174
1.14076
1.13963
1.13836
1.13694
1.13544
1.13387
1.13246
1.13116
1.1297
1.12791
1.12605
1.12433
1.12217
1.12017
1.11853
1.11673
1.11459
1.11261
1.11065
1.10848
1.1062
1.10368
1.10081
1.09789
1.09533
1.09324
1.09057
1.08737
1.08484
1.08104
1.07774
1.07547
1.07274
1.06975
1.06565
1.06272
1.06007
1.05657
1.05302
1.05021
1.04748
1.04439
1.04152
1.03826
1.03595
1.03412
1.03209
1.02985
1.02791
1.02652
1.0256
1.0251
1.02504
1.02487
1.02509
1.02557
1.02583
1.02569
1.02565
1.02565
1.02566
1.02555
1.0256
1.02579
1.02613
1.02649
1.02671
1.1903
1.18994
1.1895
1.18873
1.18751
1.18711
1.18726
1.18733
1.18698
1.18634
1.18535
1.18398
1.18374
1.18364
1.18348
1.18275
1.18128
1.18091
1.1807
1.18018
1.17859
1.17757
1.17725
1.1768
1.17578
1.17461
1.17355
1.17264
1.17184
1.17086
1.16955
1.16819
1.16697
1.16588
1.16471
1.16329
1.16181
1.16045
1.15895
1.15728
1.15569
1.15416
1.15254
1.15074
1.14909
1.1474
1.14537
1.14305
1.14108
1.13917
1.13684
1.13426
1.1319
1.12977
1.1274
1.12478
1.12229
1.11972
1.1169
1.11355
1.11006
1.10752
1.1048
1.10152
1.0981
1.09388
1.09079
1.08801
1.08415
1.07989
1.0764
1.07299
1.06934
1.0655
1.06114
1.05784
1.05441
1.05014
1.04739
1.04436
1.04123
1.03897
1.0367
1.03464
1.03272
1.03122
1.02934
1.02834
1.02726
1.02594
1.02511
1.02515
1.02524
1.02514
1.02511
1.02525
1.02556
1.02604
1.02651
1.02672
1.21756
1.21717
1.21686
1.21669
1.21606
1.21439
1.21337
1.21339
1.21373
1.21372
1.21333
1.21229
1.21052
1.20994
1.20997
1.20987
1.20925
1.20754
1.20699
1.20684
1.20641
1.20485
1.20361
1.20318
1.20268
1.20172
1.20042
1.19915
1.19815
1.19719
1.19602
1.19467
1.19312
1.19178
1.19067
1.18953
1.18806
1.18656
1.18518
1.18345
1.18152
1.1799
1.1783
1.17652
1.17458
1.17261
1.17067
1.16846
1.16603
1.16402
1.16202
1.15955
1.15701
1.15482
1.15253
1.14947
1.14651
1.14377
1.14087
1.13789
1.13485
1.13178
1.12848
1.1248
1.12168
1.11861
1.11473
1.11067
1.10717
1.10332
1.09895
1.0949
1.09078
1.08673
1.08247
1.0777
1.07382
1.06925
1.06483
1.06076
1.0568
1.05268
1.04892
1.04504
1.04083
1.03752
1.03462
1.03163
1.02881
1.02734
1.02637
1.02637
1.02636
1.02664
1.02694
1.02689
1.02669
1.02645
1.02633
1.02643
1.24593
1.2457
1.24548
1.24514
1.24475
1.2442
1.24284
1.24177
1.2418
1.24185
1.24151
1.24077
1.23938
1.23806
1.23787