/*--------------------------------*- C++ -*----------------------------------*\
  =========                 |
  \\      /  F ield         | OpenFOAM: The Open Source CFD Toolbox
   \\    /   O peration     | Website:  https://openfoam.org
    \\  /    A nd           | Version:  7
     \\/     M anipulation  |
\*---------------------------------------------------------------------------*/
FoamFile
{
    version     2.0;
    format      ascii;
    class       volScalarField;
    location    "8.5";
    object      T;
}
// * * * * * * * * * * * * * * * * * * * * * * * * * * * * * * * * * * * * * //

dimensions      [0 0 0 1 0 0 0];

internalField   nonuniform List<scalar> 
90000
(
0.921886
0.927407
0.932888
0.937931
0.942519
0.946986
0.950803
0.954356
0.957581
0.960747
0.963565
0.966464
0.969367
0.973091
0.977275
0.982273
0.987375
0.992849
0.998061
1.00336
1.00829
1.01321
1.01771
1.02213
1.02616
1.03
1.03338
1.0367
1.03926
1.04173
1.04383
1.04506
1.04605
1.04714
1.04715
1.04699
1.04649
1.04575
1.04485
1.04315
1.04074
1.03786
1.03577
1.03421
1.03423
1.03468
1.03559
1.03668
1.03735
1.03764
1.03824
1.03835
1.03814
1.03759
1.03675
1.03597
1.0352
1.03461
1.03458
1.03471
1.03504
1.03514
1.03549
1.03552
1.03544
1.03509
1.03463
1.03417
1.03395
1.03392
1.03372
1.03393
1.03414
1.03435
1.03394
1.03349
1.03307
1.03272
1.03286
1.03318
1.03314
1.03286
1.03252
1.03228
1.0323
1.03226
1.03206
1.03185
1.03171
1.03172
1.03162
1.03143
1.03122
1.03104
1.03092
1.03082
1.03073
1.03064
1.03052
1.03015
0.917167
0.917399
0.917891
0.91861
0.919529
0.920779
0.922273
0.923938
0.925792
0.927895
0.930169
0.932611
0.935083
0.93766
0.940281
0.943197
0.946264
0.94974
0.953406
0.957408
0.961687
0.966086
0.970812
0.975562
0.980428
0.985456
0.990284
0.99516
1.00003
1.0044
1.00892
1.01289
1.01698
1.0201
1.02286
1.02594
1.02805
1.02922
1.03037
1.03205
1.0342
1.03532
1.0361
1.03581
1.03505
1.0339
1.03248
1.03129
1.03052
1.02967
1.02981
1.03005
1.03047
1.03102
1.03178
1.03261
1.03293
1.03269
1.03206
1.03125
1.03038
1.02963
1.02924
1.0295
1.03042
1.03155
1.03208
1.03177
1.03113
1.0304
1.02979
1.02998
1.0308
1.03158
1.03146
1.03093
1.03014
1.02975
1.03004
1.03086
1.03084
1.03057
1.03021
1.02998
1.03011
1.03023
1.03012
1.02997
1.02985
1.02978
1.02975
1.02968
1.02953
1.02939
1.02926
1.02919
1.02916
1.02913
1.02906
1.02881
0.915803
0.915779
0.915749
0.915718
0.915687
0.915664
0.915658
0.915667
0.915693
0.915748
0.915839
0.915979
0.916227
0.916585
0.917044
0.917622
0.918329
0.919203
0.920246
0.921547
0.923081
0.924996
0.927196
0.929898
0.932944
0.936632
0.940629
0.945333
0.950442
0.955953
0.962065
0.968435
0.974751
0.9817
0.988538
0.994478
1.00113
1.00676
1.01206
1.01652
1.01987
1.02187
1.02338
1.02433
1.02505
1.02548
1.02537
1.025
1.0242
1.02315
1.02248
1.02285
1.02353
1.02454
1.0255
1.02629
1.02669
1.02651
1.02595
1.02494
1.02408
1.02314
1.02323
1.02382
1.02462
1.02557
1.02598
1.02613
1.02583
1.02509
1.02501
1.02516
1.02559
1.02597
1.0263
1.02621
1.02605
1.02579
1.02582
1.02602
1.02626
1.02634
1.02627
1.02611
1.02612
1.02622
1.0263
1.02633
1.02632
1.02633
1.02639
1.02637
1.02633
1.02625
1.0262
1.02617
1.0262
1.02629
1.02629
1.02617
0.913945
0.91392
0.913889
0.913857
0.913825
0.913791
0.913758
0.913726
0.91369
0.913655
0.913616
0.913598
0.913555
0.91351
0.913462
0.913412
0.913369
0.913342
0.913318
0.913323
0.913348
0.913409
0.913512
0.913746
0.914106
0.91464
0.915385
0.916423
0.917786
0.919729
0.922042
0.925308
0.929143
0.933953
0.939546
0.946441
0.953369
0.961504
0.970009
0.978044
0.985977
0.992336
0.99895
1.0032
1.00752
1.0099
1.0124
1.01368
1.01464
1.01583
1.01788
1.01935
1.02032
1.02097
1.02108
1.02101
1.02072
1.02011
1.01953
1.01893
1.01894
1.01906
1.01928
1.01952
1.01948
1.01933
1.01936
1.01962
1.02
1.02078
1.0212
1.02103
1.02069
1.02033
1.02058
1.02097
1.02165
1.02159
1.02134
1.02109
1.02121
1.02151
1.02184
1.02178
1.02171
1.02177
1.02199
1.02216
1.02226
1.02228
1.02235
1.02243
1.02251
1.02251
1.0225
1.02253
1.02261
1.02276
1.02287
1.02286
0.912134
0.912114
0.912092
0.91207
0.912047
0.912026
0.912004
0.911982
0.911956
0.911927
0.911895
0.911862
0.911833
0.911803
0.911772
0.911737
0.911702
0.911671
0.911644
0.911619
0.911603
0.911593
0.911601
0.911575
0.911539
0.911504
0.911475
0.911449
0.911454
0.911488
0.911599
0.911827
0.912215
0.91289
0.91387
0.915489
0.917658
0.921037
0.925193
0.931274
0.938019
0.946968
0.956112
0.966388
0.976256
0.985165
0.993834
1.0002
1.00665
1.01047
1.01291
1.01394
1.01497
1.01548
1.01569
1.01528
1.0141
1.01401
1.01444
1.01538
1.01648
1.0172
1.01748
1.01717
1.01655
1.0154
1.01537
1.0156
1.01621
1.01707
1.01795
1.01812
1.01781
1.01732
1.0171
1.01738
1.01791
1.01838
1.01834
1.01806
1.01782
1.01794
1.01819
1.01843
1.0184
1.01841
1.01855
1.01877
1.01892
1.01897
1.01905
1.01918
1.01929
1.01931
1.0193
1.01936
1.01945
1.0196
1.01974
1.01982
0.910948
0.91094
0.910929
0.910912
0.910895
0.91088
0.910868
0.910857
0.910847
0.910836
0.91082
0.910802
0.910788
0.910775
0.910757
0.910732
0.910711
0.910692
0.91067
0.910646
0.910625
0.910607
0.910591
0.910568
0.910543
0.910519
0.910495
0.910472
0.910448
0.910441
0.910413
0.910391
0.910376
0.910363
0.910369
0.910398
0.910461
0.910624
0.910953
0.911637
0.912768
0.914876
0.917855
0.922906
0.929091
0.938148
0.947785
0.959191
0.970588
0.980598
0.990071
0.995682
1.00173
1.00405
1.00699
1.00803
1.00986
1.0118
1.01435
1.01583
1.01631
1.01638
1.01621
1.01555
1.01488
1.0144
1.01439
1.01471
1.01535
1.0155
1.01573
1.01572
1.01562
1.0157
1.01593
1.01623
1.0163
1.01639
1.01635
1.01629
1.01624
1.01621
1.01624
1.01637
1.01657
1.01659
1.01664
1.01677
1.01693
1.01701
1.01709
1.01716
1.01726
1.01731
1.01732
1.01733
1.01739
1.01751
1.01762
1.01772
0.910481
0.910474
0.910467
0.910456
0.910442
0.910432
0.910424
0.910421
0.910418
0.910408
0.910398
0.910392
0.910388
0.91038
0.910366
0.910347
0.91033
0.910316
0.910298
0.910271
0.910254
0.910242
0.910227
0.910205
0.91018
0.910151
0.910114
0.910076
0.910053
0.91003
0.909997
0.909964
0.909944
0.909929
0.909923
0.90992
0.909923
0.909911
0.909902
0.909896
0.909886
0.909906
0.910013
0.910333
0.910988
0.91245
0.914778
0.919248
0.925114
0.934582
0.94494
0.957903
0.970342
0.981809
0.992633
1.00004
1.00802
1.01109
1.01349
1.01457
1.01529
1.01468
1.01314
1.01245
1.01295
1.01432
1.0154
1.0157
1.01565
1.01516
1.0143
1.01415
1.01439
1.01507
1.01561
1.01587
1.0158
1.01558
1.01545
1.01556
1.01571
1.01568
1.01553
1.01555
1.01568
1.01591
1.01598
1.01597
1.01602
1.01611
1.01625
1.01626
1.01627
1.0163
1.01633
1.01632
1.01632
1.01637
1.01646
1.01654
0.910393
0.910384
0.910379
0.910376
0.91037
0.910354
0.910339
0.910337
0.910335
0.910326
0.910309
0.910304
0.910304
0.910302
0.910293
0.910279
0.910264
0.910247
0.910227
0.910203
0.910178
0.910156
0.910139
0.910124
0.910104
0.910079
0.910051
0.910021
0.909986
0.909946
0.909904
0.909849
0.909791
0.909766
0.909751
0.909735
0.909716
0.909697
0.909673
0.909648
0.909624
0.909614
0.909601
0.909586
0.909567
0.909543
0.909569
0.909741
0.910213
0.911468
0.913763
0.918621
0.925197
0.936078
0.947666
0.961804
0.975013
0.985668
0.995825
1.00015
1.0055
1.00706
1.0097
1.01228
1.01511
1.01668
1.01669
1.01649
1.01525
1.01397
1.01371
1.01395
1.01472
1.01575
1.01575
1.0156
1.01526
1.01511
1.01523
1.01549
1.01565
1.01551
1.01535
1.01536
1.01545
1.0156
1.01573
1.01568
1.01568
1.01577
1.01588
1.01597
1.01593
1.01592
1.01595
1.01594
1.0159
1.01591
1.01594
1.016
0.910375
0.910369
0.910363
0.910356
0.910347
0.910339
0.910332
0.910325
0.910317
0.91031
0.910304
0.910296
0.910282
0.910258
0.910236
0.910224
0.910213
0.910193
0.910172
0.910154
0.910133
0.910105
0.910076
0.910049
0.910013
0.909972
0.90994
0.90991
0.909876
0.909837
0.909792
0.909743
0.909694
0.909641
0.909604
0.909589
0.909577
0.909565
0.909541
0.909518
0.909508
0.909499
0.909483
0.909463
0.909424
0.909375
0.909357
0.909339
0.909312
0.909273
0.909288
0.909468
0.910037
0.911687
0.914694
0.921029
0.929284
0.942442
0.956148
0.971211
0.985264
0.995886
1.0069
1.0112
1.01423
1.01582
1.0158
1.0144
1.01282
1.01324
1.01433
1.01534
1.01579
1.01586
1.0156
1.01482
1.01484
1.01507
1.01552
1.01566
1.01558
1.01542
1.01537
1.01543
1.01552
1.0155
1.01551
1.01552
1.01558
1.01566
1.0157
1.01576
1.0158
1.01581
1.01582
1.0158
1.01576
1.0157
1.0157
1.01573
0.910232
0.910227
0.910221
0.910214
0.910207
0.9102
0.910193
0.910187
0.910182
0.910176
0.910169
0.91016
0.910151
0.910138
0.910123
0.910109
0.910087
0.91007
0.910061
0.910046
0.910019
0.909987
0.909956
0.909918
0.909873
0.90984
0.909811
0.90978
0.909752
0.909729
0.909703
0.909672
0.909638
0.909595
0.909557
0.909545
0.909538
0.909535
0.90953
0.909515
0.90949
0.909463
0.909436
0.909407
0.909379
0.909368
0.909362
0.909342
0.909305
0.90925
0.909187
0.909099
0.909067
0.909089
0.909195
0.909629
0.910675
0.913415
0.918058
0.927473
0.93872
0.954577
0.969776
0.982964
0.99498
1.00046
1.00615
1.00818
1.01264
1.015
1.01672
1.01668
1.01639
1.01525
1.01417
1.01425
1.01475
1.01557
1.01575
1.0156
1.01521
1.01522
1.01541
1.01564
1.01559
1.01549
1.01533
1.01538
1.01552
1.01562
1.01559
1.0156
1.01566
1.01576
1.01576
1.01574
1.0157
1.01562
1.01556
1.01557
0.909881
0.909875
0.909869
0.909862
0.909858
0.909854
0.909851
0.909852
0.909852
0.90985
0.909845
0.90984
0.909839
0.909834
0.909818
0.909799
0.909799
0.9098
0.909796
0.909771
0.909731
0.9097
0.909689
0.909687
0.90968
0.909661
0.909627
0.909588
0.909554
0.909527
0.909501
0.909474
0.909443
0.909408
0.909379
0.909365
0.909361
0.909357
0.909354
0.909347
0.909337
0.909323
0.90931
0.909311
0.909322
0.909341
0.909349
0.909339
0.909305
0.909253
0.909191
0.909127
0.90906
0.909026
0.909029
0.909026
0.909048
0.909146
0.909469
0.910511
0.912718
0.918113
0.9261
0.94024
0.955753
0.972674
0.988722
1.00062
1.01067
1.01337
1.01559
1.01523
1.01369
1.01266
1.01332
1.01467
1.01572
1.01583
1.01556
1.01474
1.01477
1.01518
1.01566
1.01565
1.01553
1.01527
1.01518
1.01531
1.01545
1.01546
1.01543
1.01544
1.01555
1.01566
1.01566
1.01564
1.01561
1.01553
1.01546
1.01544
0.909461
0.909458
0.909453
0.90945
0.90945
0.909451
0.909454
0.909462
0.909463
0.909461
0.909456
0.909453
0.909449
0.909442
0.90944
0.909446
0.909452
0.909452
0.909449
0.909435
0.909412
0.909407
0.909408
0.909403
0.909387
0.909374
0.909363
0.90935
0.909339
0.909326
0.909305
0.909276
0.909242
0.909205
0.909174
0.909159
0.909154
0.909149
0.909146
0.909147
0.909152
0.90916
0.909175
0.909204
0.909245
0.909283
0.909304
0.909309
0.90931
0.909296
0.909252
0.909193
0.90912
0.909039
0.90899
0.908971
0.90896
0.908964
0.90899
0.909059
0.909193
0.909551
0.910439
0.91311
0.918186
0.929196
0.943022
0.960994
0.978675
0.989695
1.00183
1.00435
1.00828
1.01126
1.01515
1.01616
1.01602
1.01514
1.0139
1.014
1.01468
1.01557
1.01565
1.01543
1.01499
1.01499
1.01515
1.01533
1.0153
1.01516
1.01516
1.01526
1.01542
1.0155
1.01548
1.01548
1.01546
1.01539
1.01531
1.01529
0.909075
0.909075
0.909074
0.909073
0.909074
0.909074
0.909076
0.909081
0.909088
0.90909
0.90909
0.909091
0.909092
0.909092
0.909095
0.909102
0.909106
0.909105
0.909099
0.909088
0.909085
0.909087
0.909086
0.909076
0.909064
0.909059
0.909057
0.909059
0.90906
0.909056
0.909049
0.909033
0.90901
0.908981
0.908948
0.908921
0.9089
0.908881
0.908868
0.908871
0.908883
0.908904
0.908932
0.908968
0.909013
0.90906
0.909102
0.909139
0.909174
0.909206
0.909235
0.909233
0.909199
0.909139
0.909066
0.908988
0.90893
0.908905
0.908898
0.908911
0.90899
0.909071
0.909082
0.909129
0.909401
0.910628
0.913588
0.921764
0.93324
0.951871
0.970964
0.987098
1.00396
1.00944
1.01349
1.01452
1.01334
1.01158
1.0124
1.01416
1.01557
1.01555
1.0152
1.01434
1.01444
1.01487
1.01521
1.01517
1.01492
1.01478
1.01487
1.01505
1.01514
1.01521
1.01524
1.01525
1.01523
1.01516
1.0151
1.0151
0.908743
0.90874
0.908737
0.908735
0.908735
0.908736
0.908738
0.908742
0.908743
0.908743
0.908743
0.908741
0.908742
0.908744
0.908747
0.908749
0.908752
0.908756
0.90876
0.908764
0.90877
0.908778
0.908785
0.908789
0.90879
0.908792
0.908798
0.908811
0.908822
0.908832
0.908848
0.908859
0.90886
0.908854
0.908832
0.9088
0.90876
0.908714
0.908664
0.908623
0.908617
0.908621
0.908643
0.908686
0.90873
0.908779
0.908834
0.908885
0.908932
0.908982
0.90904
0.909109
0.909131
0.909121
0.909084
0.908988
0.908858
0.908791
0.908789
0.908816
0.908889
0.908905
0.908906
0.908907
0.908851
0.908728
0.90877
0.909336
0.911175
0.917083
0.926457
0.944318
0.963218
0.980011
0.995441
1.00089
1.00577
1.00922
1.01443
1.01561
1.01548
1.01452
1.01337
1.01358
1.01447
1.01511
1.01505
1.01467
1.01441
1.01448
1.0147
1.01484
1.01481
1.01484
1.01493
1.01496
1.01492
1.01486
1.01485
1.01485
0.908486
0.908484
0.908482
0.908482
0.908483
0.908485
0.908489
0.908493
0.908494
0.908493
0.908492
0.908492
0.908492
0.908494
0.908497
0.9085
0.908503
0.908508
0.908514
0.908519
0.908526
0.908536
0.908552
0.908569
0.908581
0.908594
0.908615
0.908644
0.908672
0.9087
0.908729
0.908757
0.908777
0.908786
0.908786
0.908778
0.908754
0.908718
0.908676
0.908626
0.908569
0.908507
0.90845
0.908424
0.908428
0.908446
0.908484
0.908527
0.908577
0.908641
0.908728
0.908835
0.908922
0.90894
0.908928
0.908878
0.908757
0.908616
0.908562
0.908572
0.908613
0.90869
0.908742
0.908737
0.908684
0.908586
0.908425
0.908342
0.908378
0.908752
0.909971
0.914282
0.921983
0.938932
0.958078
0.977412
0.998003
1.00704
1.01257
1.01391
1.01248
1.01091
1.01194
1.01394
1.0151
1.01485
1.01425
1.01394
1.01408
1.01443
1.01448
1.01443
1.01439
1.0145
1.0146
1.01461
1.01455
1.01456
1.0146
1.01458
0.908368
0.908358
0.908349
0.908343
0.908338
0.908334
0.908328
0.908319
0.908312
0.908307
0.908302
0.908297
0.908293
0.908293
0.908292
0.90829
0.90829
0.908293
0.908298
0.908303
0.908305
0.90831
0.908318
0.908328
0.908338
0.908351
0.90837
0.908395
0.908423
0.908455
0.908489
0.908523
0.908555
0.908586
0.908613
0.90863
0.908638
0.908641
0.908637
0.908617
0.908574
0.908508
0.908427
0.908347
0.90828
0.908223
0.90819
0.908191
0.908213
0.908266
0.908345
0.908456
0.908593
0.908658
0.908661
0.908644
0.908576
0.908439
0.908299
0.908267
0.908283
0.908315
0.90837
0.908449
0.908464
0.90843
0.908327
0.908182
0.908146
0.908163
0.908232
0.908493
0.909282
0.912533
0.919206
0.935074
0.954175
0.974058
0.991778
0.998976
1.00465
1.00867
1.01425
1.01509
1.01466
1.01318
1.01318
1.01355
1.01426
1.01448
1.01425
1.01391
1.01402
1.01423
1.01434
1.01425
1.0142
1.01429
1.01435
1.01431
0.908416
0.9084
0.908383
0.908365
0.908346
0.908327
0.908306
0.908287
0.908268
0.908248
0.90823
0.908215
0.908202
0.908185
0.908165
0.908149
0.908135
0.908122
0.908112
0.908103
0.908094
0.90809
0.908091
0.908093
0.908099
0.908109
0.908125
0.908149
0.908183
0.908227
0.908274
0.908316
0.908356
0.908396
0.908431
0.908462
0.908491
0.908518
0.908538
0.908541
0.908533
0.908503
0.908445
0.908365
0.908268
0.908165
0.908065
0.907991
0.90797
0.907976
0.908003
0.908065
0.908179
0.908309
0.908367
0.908365
0.908327
0.908233
0.908094
0.907975
0.907955
0.907968
0.908003
0.90809
0.908201
0.908219
0.908185
0.908072
0.908
0.908003
0.908052
0.908106
0.908123
0.908237
0.908785
0.911493
0.917592
0.933233
0.952517
0.973855
0.99668
1.00643
1.01268
1.01321
1.01042
1.01076
1.01224
1.01407
1.01439
1.01413
1.01348
1.01356
1.01391
1.01404
1.01398
1.01386
1.01393
1.01408
1.01412
1.01407
0.908437
0.908424
0.90841
0.908395
0.908377
0.908356
0.908332
0.908307
0.908279
0.908245
0.908216
0.908196
0.908175
0.908152
0.908128
0.908104
0.908076
0.908048
0.908024
0.908005
0.907989
0.907979
0.907977
0.907976
0.907976
0.907979
0.907991
0.908013
0.908048
0.908093
0.908136
0.908167
0.908194
0.908225
0.908262
0.908304
0.908344
0.908378
0.908412
0.908442
0.908449
0.908444
0.908421
0.90837
0.908291
0.908189
0.908059
0.907904
0.907778
0.907736
0.907738
0.907757
0.907815
0.907922
0.908043
0.908094
0.908078
0.908029
0.907955
0.907861
0.907773
0.907725
0.907724
0.907782
0.907921
0.907986
0.907971
0.907899
0.907839
0.90784
0.907864
0.907903
0.907921
0.907909
0.907884
0.907965
0.908452
0.910975
0.916976
0.932486
0.952406
0.973796
0.992109
0.999576
1.00447
1.01037
1.0142
1.01431
1.01372
1.01271
1.01299
1.01383
1.01401
1.01382
1.01349
1.01357
1.01382
1.01391
1.01387
1.01384
0.908398
0.908399
0.908399
0.908398
0.908392
0.908375
0.908354
0.908334
0.908312
0.908289
0.908273
0.908259
0.908244
0.908223
0.9082
0.908177
0.908152
0.908121
0.908084
0.908042
0.908
0.907971
0.907955
0.907941
0.907921
0.907902
0.907897
0.907899
0.90791
0.907932
0.907964
0.908003
0.908044
0.908093
0.908159
0.90823
0.908283
0.908313
0.908334
0.908359
0.908381
0.908383
0.908366
0.90833
0.90828
0.908206
0.908086
0.907916
0.907717
0.907553
0.907507
0.907519
0.907577
0.907683
0.907798
0.907881
0.907895
0.907883
0.907863
0.907826
0.907757
0.907664
0.907606
0.907606
0.907686
0.907738
0.907729
0.907686
0.907669
0.907673
0.907675
0.907679
0.907696
0.907724
0.907748
0.907739
0.907726
0.907802
0.90829
0.910768
0.917094
0.933385
0.954003
0.977322
0.999516
1.00846
1.01293
1.01215
1.00983
1.01111
1.01329
1.014
1.01378
1.01305
1.01316
1.0136
1.01375
1.01369
1.01358
1.01365
0.908187
0.908214
0.908234
0.908246
0.90825
0.908252
0.908254
0.908259
0.908265
0.908264
0.908263
0.908259
0.908252
0.908241
0.908225
0.908208
0.908181
0.908144
0.908112
0.908083
0.908041
0.908002
0.90798
0.907958
0.907929
0.907893
0.907863
0.907842
0.907829
0.907818
0.907812
0.907813
0.907823
0.907851
0.907885
0.907902
0.907908
0.907914
0.907924
0.907949
0.908006
0.908073
0.908115
0.908121
0.908117
0.9081
0.908042
0.907914
0.907727
0.907527
0.907395
0.907383
0.907414
0.907493
0.907603
0.907705
0.907767
0.907799
0.907799
0.907781
0.907747
0.907673
0.907564
0.90752
0.907517
0.907523
0.907518
0.90751
0.907514
0.907535
0.907547
0.90755
0.907553
0.907561
0.907579
0.907604
0.907602
0.907585
0.907568
0.907651
0.908192
0.910812
0.918055
0.935082
0.958048
0.979509
0.994835
1.00205
1.00682
1.01348
1.01405
1.01359
1.01231
1.01255
1.0134
1.0138
1.01363
1.01333
1.01337
1.01355
0.907909
0.907933
0.907957
0.907981
0.908004
0.908032
0.908061
0.908086
0.908103
0.908106
0.9081
0.908088
0.908089
0.908091
0.908088
0.908088
0.908073
0.90804
0.908033
0.908033
0.908033
0.908023
0.907996
0.90795
0.907893
0.907823
0.907769
0.907763
0.907765
0.907758
0.907728
0.907693
0.907677
0.907661
0.907629
0.907565
0.907476
0.90744
0.907434
0.907435
0.907467
0.907564
0.907738
0.907902
0.907941
0.90794
0.907916
0.907825
0.907673
0.907526
0.907415
0.907386
0.907409
0.907459
0.907507
0.907557
0.907622
0.90771
0.907755
0.907754
0.907741
0.907689
0.907581
0.907483
0.907442
0.90741
0.907404
0.907412
0.907431
0.907471
0.907493
0.907493
0.907483
0.907463
0.907442
0.907431
0.90743
0.907424
0.90739
0.907358
0.907372
0.907504
0.908233
0.911298
0.920436
0.939138
0.962217
0.988702
1.00386
1.01226
1.0122
1.00931
1.0105
1.01289
1.01385
1.01362
1.01306
1.01309
1.01335
1.01348
0.907703
0.907727
0.907743
0.90776
0.907795
0.907836
0.907858
0.907877
0.907901
0.907905
0.907895
0.907874
0.907854
0.90784
0.907835
0.907833
0.907811
0.907771
0.907771
0.907776
0.907778
0.907775
0.907755
0.907713
0.907664
0.90764
0.907645
0.90765
0.907644
0.907645
0.907652
0.90765
0.907637
0.907589
0.907507
0.907392
0.907228
0.907126
0.907109
0.907106
0.907119
0.907204
0.907415
0.907672
0.907777
0.907782
0.907763
0.907685
0.90756
0.907481
0.907435
0.907435
0.907457
0.907485
0.907486
0.907485
0.907508
0.907567
0.907607
0.907611
0.907592
0.907542
0.907487
0.907454
0.907448
0.907429
0.907402
0.907399
0.907418
0.907458
0.907483
0.907485
0.907464
0.907413
0.907347
0.907301
0.90728
0.907263
0.907245
0.907231
0.907236
0.907263
0.907318
0.907502
0.908526
0.912162
0.923959
0.94394
0.968537
0.98978
0.998961
1.00422
1.01226
1.01386
1.01354
1.01234
1.01265
1.01324
1.01347
1.01339
0.907299
0.907309
0.907321
0.90735
0.907379
0.907374
0.907363
0.907368
0.90739
0.907409
0.907425
0.907449
0.907437
0.907414
0.907409
0.907415
0.907457
0.907469
0.907464
0.907468
0.907494
0.907509
0.907502
0.907473
0.907467
0.907508
0.907562
0.907567
0.90758
0.907627
0.907637
0.907634
0.907634
0.907622
0.907574
0.907451
0.907229
0.9071
0.907075
0.907064
0.907065
0.907108
0.907262
0.907517
0.90765
0.907657
0.90764
0.907568
0.90743
0.907379
0.907385
0.907403
0.907436
0.907451
0.907437
0.907421
0.907425
0.907433
0.907442
0.907429
0.907386
0.907366
0.907387
0.907435
0.907472
0.907464
0.907431
0.907423
0.907446
0.907471
0.907481
0.90748
0.907454
0.907391
0.907299
0.907222
0.90719
0.907178
0.907178
0.907186
0.907204
0.907252
0.907326
0.907338
0.907362
0.907549
0.908937
0.913945
0.928935
0.950773
0.977878
1.00036
1.01017
1.01263
1.00935
1.01039
1.01226
1.01342
1.01332
1.01311
0.907096
0.907066
0.907054
0.907059
0.90706
0.907041
0.907014
0.907005
0.907002
0.907007
0.907008
0.907007
0.906999
0.906999
0.907023
0.907039
0.907059
0.907116
0.907165
0.907194
0.907241
0.907315
0.907327
0.907334
0.90735
0.907403
0.907545
0.907614
0.907656
0.907717
0.907744
0.907747
0.907746
0.907729
0.907678
0.907588
0.907435
0.907322
0.907285
0.907269
0.907262
0.907267
0.907319
0.907467
0.907585
0.907595
0.907586
0.907554
0.907443
0.907362
0.907337
0.907302
0.907283
0.907291
0.907325
0.907362
0.907401
0.907444
0.90744
0.907386
0.907284
0.907249
0.90728
0.907357
0.907431
0.90748
0.907473
0.907472
0.907472
0.907447
0.907422
0.907415
0.9074
0.90735
0.907263
0.907194
0.907186
0.907191
0.907216
0.907231
0.907246
0.907262
0.907284
0.907292
0.90726
0.907178
0.907204
0.907576
0.909701
0.917232
0.935217
0.961372
0.983115
0.997511
1.00335
1.01156
1.01348
1.01326
1.01235
1.01286
0.907281
0.907259
0.907258
0.907262
0.907265
0.907255
0.907226
0.907181
0.907139
0.907111
0.907098
0.907102
0.9071
0.907055
0.907015
0.906995
0.906982
0.906981
0.906992
0.90705
0.907141
0.90727
0.907389
0.907431
0.907454
0.907536
0.907623
0.907636
0.907622
0.907614
0.907636
0.907666
0.907667
0.907639
0.907583
0.907502
0.907422
0.907379
0.907355
0.907364
0.907384
0.907381
0.907389
0.907442
0.907506
0.907556
0.907578
0.907555
0.907444
0.907301
0.907208
0.907135
0.907093
0.907098
0.907167
0.907331
0.90753
0.907622
0.907594
0.907486
0.90733
0.907226
0.90725
0.907307
0.90736
0.907425
0.90745
0.907461
0.907449
0.907323
0.907235
0.907221
0.907227
0.907229
0.907203
0.907182
0.907189
0.907231
0.907281
0.907295
0.907291
0.907269
0.907257
0.90722
0.907145
0.907081
0.907065
0.907076
0.907168
0.907904
0.911317
0.922914
0.944126
0.971291
0.997299
1.00938
1.01247
1.00916
1.0104
1.01259
0.907135
0.907114
0.9071
0.907096
0.907101
0.907102
0.907096
0.907061
0.906989
0.90695
0.90694
0.906946
0.906948
0.906926
0.906872
0.906837
0.906827
0.906831
0.906843
0.90691
0.907032
0.907084
0.907123
0.907201
0.907283
0.907322
0.9073
0.907163
0.906982
0.906878
0.906843
0.906857
0.906897
0.906915
0.906922
0.906979
0.907106
0.90714
0.907143
0.90716
0.907179
0.907161
0.90705
0.907
0.907082
0.907316
0.907538
0.907592
0.907561
0.907411
0.907164
0.906997
0.906972
0.907001
0.907122
0.907342
0.907556
0.90765
0.907622
0.907529
0.907424
0.907331
0.907282
0.907275
0.907272
0.907314
0.907417
0.907434
0.907374
0.907212
0.907127
0.907126
0.907158
0.90721
0.907233
0.907243
0.907262
0.907297
0.907316
0.907316
0.907304
0.907266
0.907186
0.907108
0.907077
0.907064
0.907068
0.907108
0.907192
0.907238
0.907432
0.908808
0.914414
0.930155
0.956213
0.979912
0.996369
1.00299
1.01166
1.01339
0.906386
0.906386
0.9064
0.906429
0.906428
0.906421
0.906418
0.906413
0.906396
0.90637
0.906351
0.906321
0.906298
0.906301
0.906291
0.906249
0.906221
0.906225
0.906233
0.906249
0.906294
0.906302
0.906249
0.906232
0.90625
0.906193
0.906075
0.905973
0.905979
0.906022
0.906019
0.905998
0.906039
0.906092
0.906111
0.906141
0.906224
0.906352
0.906492
0.906563
0.906534
0.906441
0.906417
0.906488
0.906792
0.907261
0.907583
0.907706
0.907704
0.907629
0.907418
0.907111
0.906954
0.906976
0.907108
0.907334
0.907501
0.907565
0.907535
0.907456
0.907405
0.907359
0.907239
0.907052
0.906985
0.906984
0.907062
0.907174
0.907197
0.907162
0.907142
0.90716
0.90723
0.907288
0.907292
0.907287
0.907288
0.907296
0.907297
0.907274
0.907195
0.907113
0.907047
0.907039
0.907055
0.907098
0.90718
0.907238
0.907234
0.907216
0.907174
0.907191
0.907615
0.910159
0.920046
0.940428
0.968382
0.996374
1.00905
1.01206
0.904938
0.904971
0.905026
0.905044
0.905058
0.905081
0.905115
0.905164
0.905231
0.905313
0.905418
0.905542
0.905656
0.905664
0.905667
0.90569
0.905696
0.905657
0.905597
0.905594
0.905642
0.905734
0.905746
0.905708
0.90543
0.905082
0.905077
0.905138
0.905351
0.905513
0.905542
0.905509
0.905447
0.905494
0.90554
0.905556
0.90562
0.905762
0.905901
0.905922
0.905827
0.905726
0.905728
0.905871
0.906293
0.906848
0.907247
0.907449
0.907492
0.907436
0.907234
0.9069
0.90662
0.90657
0.90663
0.90671
0.906698
0.906673
0.906695
0.906825
0.906975
0.907018
0.906963
0.906753
0.906672
0.906685
0.906775
0.906975
0.907148
0.907213
0.90726
0.907312
0.907337
0.907333
0.907315
0.907298
0.907279
0.907243
0.907178
0.907082
0.906987
0.906999
0.907019
0.907049
0.907115
0.907231
0.907311
0.907306
0.907272
0.907187
0.90712
0.907075
0.907081
0.90721
0.908324
0.913221
0.928246
0.954915
0.978341
0.999647
0.905419
0.905414
0.905449
0.905454
0.905429
0.905424
0.905442
0.905523
0.905615
0.905692
0.905771
0.905852
0.905934
0.906074
0.906246
0.906502
0.906661
0.906671
0.906698
0.906815
0.90685
0.906816
0.90683
0.906889
0.906867
0.906672
0.906658
0.906717
0.907051
0.907498
0.907544
0.907527
0.907452
0.907159
0.906678
0.906504
0.906519
0.906559
0.906529
0.9064
0.906315
0.90624
0.906071
0.905932
0.905939
0.906061
0.906243
0.906392
0.906522
0.906565
0.906546
0.90643
0.906164
0.90586
0.905772
0.905766
0.905764
0.905769
0.905806
0.905924
0.906101
0.906266
0.906404
0.906457
0.90643
0.906435
0.906611
0.906943
0.907127
0.907202
0.907257
0.907312
0.907313
0.907284
0.907173
0.907067
0.907003
0.906946
0.906889
0.906847
0.906867
0.906958
0.907111
0.907196
0.907246
0.907316
0.907332
0.907315
0.907221
0.907098
0.907057
0.907056
0.907063
0.907093
0.907149
0.907543
0.909865
0.919399
0.938925
0.980413
0.908847
0.908805
0.908946
0.909061
0.90903
0.908827
0.908557
0.908304
0.908143
0.908077
0.908042
0.907973
0.907859
0.907839
0.907858
0.907971
0.908323
0.908383
0.908376
0.908513
0.908634
0.908804
0.909041
0.909072
0.90899
0.908642
0.908393
0.908395
0.90844
0.908617
0.908824
0.908826
0.908648
0.908206
0.907497
0.906933
0.906752
0.906667
0.906508
0.906284
0.906224
0.906248
0.906132
0.90582
0.905776
0.905823
0.905798
0.905613
0.905507
0.90553
0.905647
0.90569
0.90569
0.905701
0.90569
0.905641
0.905625
0.905631
0.905666
0.905737
0.905778
0.905818
0.905913
0.906128
0.906432
0.906726
0.906769
0.906734
0.906628
0.906523
0.906533
0.906614
0.906639
0.9066
0.906522
0.906493
0.906518
0.906598
0.906725
0.906806
0.906972
0.907198
0.907311
0.907308
0.907306
0.907317
0.907306
0.907229
0.907077
0.907013
0.907024
0.90707
0.907147
0.907193
0.907198
0.907188
0.907252
0.908241
0.912706
0.941589
0.915268
0.915198
0.915092
0.914948
0.91476
0.914487
0.91419
0.913883
0.913504
0.913193
0.912906
0.912562
0.912159
0.911782
0.91159
0.911583
0.911654
0.911673
0.911652
0.911701
0.911945
0.912197
0.912238
0.912088
0.911212
0.910451
0.909938
0.909265
0.908767
0.908759
0.909095
0.90943
0.90942
0.909107
0.908554
0.908229
0.908092
0.908085
0.908172
0.908308
0.908467
0.908601
0.908519
0.907926
0.90764
0.907661
0.907563
0.9071
0.906537
0.906479
0.906525
0.906498
0.906408
0.906459
0.907007
0.907667
0.907771
0.907689
0.907436
0.907038
0.906687
0.906574
0.906588
0.906682
0.906809
0.906948
0.906931
0.906775
0.906352
0.905935
0.905869
0.905881
0.90592
0.905954
0.905985
0.906006
0.906072
0.906233
0.906464
0.906836
0.90707
0.90721
0.907289
0.907259
0.907199
0.907137
0.907082
0.907017
0.906957
0.906972
0.907086
0.907191
0.907251
0.907243
0.907224
0.907129
0.907033
0.90705
0.907383
0.916424
0.926395
0.926744
0.926844
0.926839
0.926487
0.925801
0.925359
0.925415
0.925685
0.92571
0.925547
0.924997
0.924649
0.924748
0.925128
0.925079
0.92456
0.924272
0.924238
0.924445
0.924619
0.924555
0.924959
0.925302
0.924983
0.923763
0.922044
0.920644
0.919898
0.91952
0.919353
0.919208
0.918665
0.91836
0.918364
0.918201
0.917274
0.916261
0.916282
0.916541
0.9164
0.915854
0.915722
0.91574
0.915607
0.915309
0.915069
0.914554
0.913176
0.912383
0.912191
0.911731
0.910707
0.909994
0.910038
0.91036
0.910407
0.910097
0.909324
0.908425
0.907657
0.907325
0.907138
0.906743
0.90642
0.906362
0.906333
0.906305
0.906141
0.905849
0.905803
0.905813
0.905874
0.905936
0.906048
0.906289
0.90654
0.906728
0.906882
0.906833
0.906835
0.906802
0.906714
0.906577
0.906561
0.906612
0.906714
0.906835
0.90691
0.907027
0.907164
0.907235
0.907244
0.907221
0.907126
0.907013
0.906969
0.907028
0.907083
0.908581
0.942823
0.943016
0.943077
0.943006
0.94275
0.942175
0.941528
0.941473
0.941704
0.941616
0.940777
0.94028
0.940011
0.939948
0.939857
0.939344
0.938293
0.936892
0.936104
0.935963
0.935754
0.935539
0.935588
0.935455
0.935085
0.93481
0.934121
0.93279
0.932263
0.932535
0.932945
0.932846
0.932116
0.931859
0.931929
0.93169
0.930643
0.929081
0.927705
0.926743
0.926014
0.924469
0.922749
0.922458
0.921992
0.921503
0.921371
0.920716
0.919735
0.919587
0.919647
0.919426
0.9184
0.916335
0.91405
0.913423
0.913077
0.912219
0.911089
0.91094
0.910968
0.910822
0.910374
0.909466
0.908159
0.90763
0.907624
0.907802
0.907746
0.90764
0.907762
0.907712
0.907353
0.907285
0.907473
0.907708
0.907626
0.907423
0.907229
0.907015
0.906778
0.906555
0.906343
0.906293
0.9063
0.906345
0.906484
0.906641
0.906837
0.906995
0.907075
0.907131
0.907076
0.90698
0.906913
0.906922
0.907019
0.907213
0.907248
0.907427
0.962336
0.961478
0.960906
0.960728
0.960766
0.960857
0.960855
0.960621
0.959777
0.959259
0.959146
0.959312
0.959907
0.96006
0.95962
0.958437
0.958236
0.958292
0.957845
0.956349
0.955958
0.955832
0.955061
0.954323
0.954023
0.953729
0.953001
0.951475
0.950169
0.949325
0.948692
0.94835
0.94783
0.946651
0.946114
0.946189
0.946155
0.945421
0.943767
0.943342
0.943488
0.943185
0.941563
0.940234
0.939441
0.938397
0.937161
0.935668
0.933622
0.932597
0.932705
0.932973
0.932495
0.930671
0.928533
0.927771
0.927074
0.924933
0.923129
0.922806
0.92227
0.921725
0.921157
0.920023
0.91799
0.916063
0.915076
0.914692
0.914071
0.913034
0.911973
0.911057
0.909921
0.909102
0.908583
0.908158
0.907512
0.907048
0.90686
0.906752
0.906647
0.906482
0.906321
0.906357
0.906506
0.906751
0.907051