/*--------------------------------*- C++ -*----------------------------------*\
  =========                 |
  \\      /  F ield         | OpenFOAM: The Open Source CFD Toolbox
   \\    /   O peration     | Website:  https://openfoam.org
    \\  /    A nd           | Version:  7
     \\/     M anipulation  |
\*---------------------------------------------------------------------------*/
FoamFile
{
    version     2.0;
    format      ascii;
    class       volScalarField;
    location    "2.5";
    object      T;
}
// * * * * * * * * * * * * * * * * * * * * * * * * * * * * * * * * * * * * * //

dimensions      [0 0 0 1 0 0 0];

internalField   nonuniform List<scalar> 
90000
(
0.959051
0.961469
0.964371
0.967206
0.970137
0.9728
0.975448
0.977774
0.980044
0.981996
0.983883
0.985492
0.987051
0.988359
0.989875
0.99127
0.993081
0.995039
0.997562
1.00017
1.00322
1.0062
1.00927
1.0121
1.01466
1.01696
1.01893
1.02016
1.02145
1.02219
1.02226
1.02222
1.02197
1.02154
1.02046
1.01825
1.01546
1.01286
1.01131
1.01036
1.01052
1.01092
1.0114
1.01172
1.01228
1.0128
1.01283
1.01265
1.01215
1.01137
1.01038
1.00956
1.00895
1.00899
1.00932
1.01004
1.01055
1.0112
1.01117
1.01078
1.01004
1.00925
1.00885
1.00895
1.00931
1.00964
1.00947
1.00908
1.00836
1.00773
1.00754
1.00776
1.00795
1.00785
1.00746
1.00691
1.00676
1.00693
1.00683
1.00657
1.00608
1.00566
1.00565
1.00566
1.00564
1.00561
1.00563
1.00574
1.00572
1.00576
1.00596
1.00652
1.00809
1.01201
1.01876
1.02583
1.03133
1.0348
1.03643
1.03909
0.957031
0.957258
0.95769
0.958338
0.959198
0.960267
0.961512
0.962938
0.964499
0.966203
0.967994
0.969868
0.971787
0.973718
0.975527
0.977287
0.978961
0.980527
0.982196
0.98394
0.985815
0.987947
0.990117
0.99258
0.995114
0.997568
1.00029
1.00266
1.00505
1.00726
1.00886
1.01086
1.01225
1.01281
1.0134
1.01401
1.01401
1.01354
1.01235
1.01073
1.00905
1.0077
1.00662
1.00638
1.00655
1.00707
1.00767
1.00825
1.00881
1.00929
1.00916
1.00865
1.00776
1.00694
1.00643
1.00651
1.00707
1.00782
1.00844
1.00897
1.00878
1.00827
1.00764
1.00713
1.00722
1.00754
1.00794
1.00805
1.00768
1.00712
1.00673
1.00673
1.00684
1.00704
1.0069
1.00659
1.00638
1.00634
1.0063
1.00615
1.00585
1.00554
1.00536
1.00534
1.00536
1.00541
1.00541
1.00553
1.00561
1.0057
1.00592
1.0065
1.00809
1.01202
1.01873
1.02581
1.03157
1.03501
1.03651
1.03892
0.956368
0.956346
0.956327
0.956306
0.95631
0.956336
0.956393
0.956502
0.95667
0.956918
0.957263
0.957719
0.958319
0.959053
0.959941
0.960958
0.962108
0.963387
0.964731
0.966225
0.96779
0.969485
0.971359
0.973318
0.975588
0.977939
0.980573
0.983428
0.986189
0.989495
0.992578
0.995271
0.998451
1.00102
1.0033
1.00517
1.00623
1.00706
1.00754
1.00761
1.00757
1.00732
1.00654
1.00551
1.0045
1.00379
1.00358
1.0037
1.0039
1.00428
1.00468
1.00519
1.00528
1.00498
1.00435
1.00375
1.00348
1.00368
1.00411
1.00482
1.00544
1.00581
1.00551
1.00488
1.0045
1.00466
1.00502
1.00541
1.0055
1.00521
1.00468
1.00462
1.00475
1.00503
1.0052
1.00509
1.00487
1.0048
1.00484
1.00478
1.00459
1.00431
1.00412
1.00416
1.00428
1.00444
1.0046
1.00477
1.00494
1.00511
1.0054
1.00602
1.00766
1.01163
1.01832
1.02544
1.03142
1.03491
1.03624
1.03831
0.955343
0.95532
0.955292
0.955263
0.955229
0.955191
0.955154
0.955122
0.955092
0.955063
0.955034
0.95501
0.955004
0.955028
0.955083
0.955188
0.955348
0.955593
0.955922
0.956365
0.956941
0.957656
0.958549
0.959634
0.960886
0.962495
0.964215
0.966348
0.968829
0.97139
0.974652
0.977888
0.981434
0.985081
0.989022
0.992367
0.995336
0.998007
1.00021
1.00153
1.00225
1.00262
1.00319
1.00315
1.00283
1.00222
1.00149
1.00093
1.0004
1.00041
1.00056
1.00095
1.0013
1.00159
1.00156
1.00128
1.0008
1.00025
1.00028
1.00056
1.00109
1.00168
1.0024
1.00228
1.00187
1.00138
1.00137
1.00157
1.00189
1.0022
1.00202
1.0017
1.00164
1.00177
1.00206
1.00234
1.00227
1.00217
1.00211
1.00208
1.002
1.00193
1.00187
1.00195
1.00213
1.00237
1.00269
1.00297
1.00323
1.00351
1.00388
1.00458
1.0063
1.01037
1.01713
1.02433
1.0306
1.03422
1.03533
1.03689
0.954132
0.954112
0.954091
0.954068
0.954045
0.95402
0.953995
0.953963
0.953929
0.953897
0.953862
0.95383
0.953803
0.953762
0.953714
0.953675
0.953641
0.953609
0.953581
0.953555
0.953544
0.953559
0.953633
0.953783
0.954007
0.954341
0.954826
0.955492
0.956387
0.957629
0.95912
0.961154
0.963514
0.966569
0.969828
0.97385
0.978232
0.982268
0.986749
0.990476
0.993702
0.995655
0.997302
0.998888
0.999496
0.999654
0.999685
0.999802
0.999921
0.999835
0.999599
0.999248
0.998894
0.998765
0.998751
0.998736
0.99867
0.998468
0.998226
0.998059
0.998089
0.998259
0.998642
0.999018
0.999487
0.999406
0.999128
0.998799
0.99885
0.999017
0.999315
0.999241
0.999024
0.998882
0.999
0.99928
0.999563
0.999449
0.999289
0.999073
0.999049
0.998995
0.998957
0.998999
0.9992
0.99954
1.00002
1.00042
1.00073
1.00108
1.00154
1.00228
1.00406
1.00816
1.01492
1.02224
1.02894
1.03273
1.03353
1.03475
0.953088
0.953069
0.953048
0.953027
0.953007
0.952987
0.952966
0.952945
0.952921
0.952896
0.95287
0.952842
0.952814
0.952785
0.952752
0.952715
0.952676
0.952639
0.952606
0.952573
0.952538
0.952511
0.952464
0.952412
0.952358
0.952304
0.952268
0.952231
0.952241
0.952334
0.95253
0.952897
0.953467
0.954396
0.955678
0.957628
0.960036
0.963468
0.967311
0.972147
0.976884
0.982233
0.986377
0.990696
0.993314
0.995817
0.997365
0.997856
0.99824
0.998314
0.998249
0.998008
0.997681
0.997504
0.997364
0.997443
0.997443
0.997322
0.996977
0.996642
0.99635
0.996253
0.996323
0.996768
0.99726
0.997493
0.997556
0.997397
0.997091
0.996965
0.997054
0.997179
0.997157
0.997015
0.996922
0.996979
0.997112
0.997091
0.996912
0.996567
0.996379
0.996367
0.996414
0.996435
0.996571
0.996923
0.99743
0.997836
0.998109
0.99844
0.998898
0.999649
1.00146
1.00561
1.01241
1.01981
1.02659
1.03065
1.0311
1.03225
0.95237
0.952351
0.952333
0.952313
0.952293
0.952273
0.952254
0.952232
0.95221
0.952188
0.952165
0.95214
0.952115
0.95209
0.952065
0.95204
0.952012
0.951981
0.95195
0.95192
0.951886
0.95185
0.95181
0.951767
0.95172
0.951672
0.951619
0.951562
0.951514
0.95143
0.951333
0.951238
0.951156
0.95108
0.951097
0.951251
0.951616
0.952367
0.953568
0.95566
0.958484
0.962421
0.967363
0.972725
0.978381
0.983735
0.98814
0.991425
0.993906
0.995104
0.995869
0.995965
0.99637
0.996963
0.997327
0.997516
0.997408
0.997109
0.996586
0.996135
0.995767
0.99558
0.995666
0.995802
0.996015
0.996184
0.996253
0.996201
0.996203
0.996096
0.995967
0.995869
0.995886
0.995905
0.995814
0.995714
0.995623
0.995539
0.995412
0.995076
0.994553
0.994394
0.994493
0.994525
0.994599
0.994921
0.995433
0.995844
0.996103
0.996386
0.996792
0.997499
0.99923
1.00332
1.01003
1.01764
1.02417
1.02842
1.02868
1.02998
0.951963
0.951947
0.951929
0.95191
0.951891
0.951871
0.951851
0.951829
0.951805
0.951782
0.951759
0.951733
0.951707
0.951681
0.951655
0.951631
0.951604
0.951575
0.951546
0.951516
0.951485
0.951452
0.951417
0.951376
0.951331
0.95128
0.951224
0.951164
0.951099
0.951032
0.950955
0.950873
0.950776
0.950677
0.950585
0.95044
0.950292
0.950156
0.950075
0.95017
0.950539
0.951302
0.952937
0.955302
0.959363
0.96407
0.969969
0.97647
0.981937
0.986849
0.991264
0.993365
0.995578
0.996302
0.996616
0.996805
0.996743
0.996349
0.995933
0.995935
0.995995
0.995884
0.995691
0.995439
0.995307
0.995192
0.995213
0.995437
0.995617
0.995562
0.995439
0.995297
0.995299
0.995303
0.995264
0.995088
0.994881
0.994687
0.994521
0.994181
0.993583
0.99325
0.993347
0.993431
0.993449
0.993703
0.994194
0.994561
0.994813
0.995047
0.995413
0.996053
0.997696
1.00161
1.00826
1.01581
1.02235
1.02663
1.02686
1.02835
0.951786
0.951771
0.951755
0.951737
0.95172
0.9517
0.95168
0.95166
0.951638
0.951616
0.951592
0.951567
0.95154
0.951512
0.951482
0.951453
0.951423
0.951389
0.951354
0.951318
0.951281
0.951242
0.951201
0.951155
0.951102
0.951045
0.950985
0.950924
0.950863
0.950794
0.95072
0.950635
0.950536
0.950429
0.950311
0.950188
0.95006
0.94993
0.94981
0.949652
0.949505
0.949333
0.949334
0.949489
0.95009
0.951277
0.953765
0.957296
0.96271
0.968779
0.975596
0.98147
0.987458
0.990541
0.992828
0.994222
0.994927
0.995304
0.995904
0.996553
0.996456
0.996212
0.995839
0.995379
0.995002
0.994903
0.995082
0.995294
0.995214
0.995153
0.995029
0.995016
0.995073
0.995077
0.994995
0.994781
0.994538
0.994315
0.994041
0.993579
0.992885
0.992541
0.992645
0.992747
0.992808
0.993149
0.993648
0.993907
0.994052
0.994194
0.994485
0.995107
0.996754
1.0006
1.00733
1.01466
1.02135
1.02519
1.0256
1.02735
0.951682
0.951669
0.951653
0.951638
0.951623
0.951605
0.951586
0.951567
0.951546
0.951524
0.951502
0.951479
0.951453
0.951427
0.951399
0.951368
0.951338
0.951307
0.951272
0.951234
0.951196
0.951156
0.951113
0.951065
0.951011
0.950953
0.95089
0.950823
0.950753
0.950674
0.950588
0.950495
0.950389
0.950276
0.950159
0.95003
0.949901
0.94977
0.949631
0.949512
0.949396
0.949273
0.949173
0.949027
0.948884
0.94876
0.948881
0.949331
0.950554
0.952968
0.956785
0.96282
0.969215
0.976257
0.983244
0.987631
0.991886
0.994217
0.995442
0.995964
0.995853
0.995575
0.995084
0.995104
0.995258
0.99534
0.995238
0.995066
0.994693
0.994661
0.994636
0.994816
0.994911
0.994875
0.994742
0.994566
0.994405
0.994183
0.993756
0.993115
0.99233
0.992035
0.992167
0.992249
0.992361
0.992812
0.993385
0.993606
0.993659
0.993743
0.993982
0.994601
0.996205
1.00001
1.00663
1.01394
1.02086
1.02427
1.02482
1.02677
0.951566
0.951553
0.95154
0.951526
0.951511
0.951498
0.951483
0.951468
0.95145
0.951432
0.951413
0.951395
0.951373
0.951351
0.951326
0.951298
0.951269
0.951241
0.951208
0.95117
0.951129
0.951088
0.951044
0.950995
0.950941
0.950885
0.950822
0.950753
0.950676
0.95059
0.950498
0.950398
0.950291
0.950178
0.950062
0.949942
0.949816
0.949688
0.949559
0.949422
0.949301
0.949178
0.949048
0.948932
0.948813
0.948706
0.948551
0.948366
0.948234
0.948372
0.94887
0.95037
0.952929
0.957807
0.963765
0.971183
0.978481
0.984175
0.988852
0.991637
0.992778
0.993764
0.994435
0.995527
0.995979
0.995797
0.995403
0.994804
0.99437
0.994346
0.994538
0.994737
0.994667
0.994593
0.994452
0.994397
0.994329
0.99402
0.993423
0.992682
0.9919
0.991661
0.991806
0.991861
0.992008
0.992531
0.993172
0.993418
0.993457
0.993519
0.99372
0.994306
0.995846
0.999588
1.0061
1.01346
1.0206
1.02377
1.02437
1.02639
0.951461
0.951449
0.951433
0.951419
0.951408
0.951396
0.951384
0.951371
0.951355
0.951338
0.951321
0.951302
0.951281
0.951258
0.951232
0.951204
0.951171
0.951139
0.951106
0.951069
0.951025
0.950979
0.950933
0.950884
0.95083
0.950772
0.950708
0.950638
0.950559
0.950472
0.950379
0.950279
0.950175
0.950067
0.949957
0.949847
0.949731
0.949612
0.949496
0.949368
0.949233
0.949109
0.948977
0.948835
0.948705
0.948584
0.94847
0.948344
0.948231
0.94807
0.947874
0.947827
0.948017
0.94879
0.950455
0.954179
0.959251
0.966615
0.973983
0.98143
0.986398
0.991827
0.99355
0.994801
0.99523
0.995012
0.994412
0.994287
0.994456
0.994612
0.994559
0.994428
0.994232
0.994062
0.994144
0.994249
0.994129
0.993688
0.992988
0.992238
0.991468
0.991268
0.991427
0.991467
0.991677
0.992272
0.992959
0.993249
0.993301
0.993345
0.993491
0.994022
0.995539
0.999255
1.00568
1.01316
1.02039
1.02339
1.02405
1.02611
0.951376
0.951364
0.95135
0.951335
0.951319
0.951295
0.951279
0.951267
0.951249
0.951226
0.951203
0.95118
0.951155
0.951127
0.951098
0.951068
0.951033
0.950996
0.950958
0.950919
0.950875
0.950826
0.950778
0.950727
0.950672
0.950612
0.950545
0.950474
0.950395
0.950309
0.950218
0.950122
0.950023
0.949921
0.949819
0.949718
0.94961
0.9495
0.949395
0.949276
0.949144
0.949019
0.948893
0.948745
0.948606
0.948484
0.948358
0.948226
0.948099
0.947981
0.947847
0.947731
0.947555
0.947375
0.947447
0.947842
0.948911
0.951515
0.956001
0.962608
0.970212
0.978366
0.984042
0.988794
0.99091
0.992141
0.993123
0.994498
0.995053
0.994861
0.994456
0.99388
0.993663
0.993814
0.994025
0.993935
0.993644
0.99308
0.992457
0.991767
0.991036
0.990887
0.991
0.991067
0.991354
0.992021
0.992749
0.993092
0.993143
0.993141
0.993227
0.993713
0.995234
0.998928
1.00531
1.01296
1.0202
1.02304
1.02375
1.02586
0.95123
0.951215
0.951199
0.951184
0.951167
0.951141
0.95112
0.951102
0.95108
0.951052
0.951024
0.950999
0.950974
0.950946
0.950916
0.950886
0.950851
0.950812
0.950773
0.950732
0.950689
0.950642
0.950592
0.950541
0.950486
0.950425
0.950358
0.950287
0.950211
0.95013
0.950043
0.949953
0.949864
0.949771
0.949678
0.949586
0.949484
0.949378
0.949274
0.949159
0.949029
0.948901
0.948778
0.948645
0.948508
0.948394
0.948268
0.948119
0.947971
0.947841
0.947697
0.947543
0.947392
0.947256
0.947094
0.946979
0.946884
0.947045
0.947725
0.949498
0.953652
0.959196
0.96748
0.975851
0.982081
0.988445
0.991703
0.993585
0.994144
0.993965
0.993242
0.993265
0.993585
0.993772
0.993652
0.993377
0.992862
0.992333
0.991891
0.991207
0.990581
0.990529
0.990581
0.990692
0.991025
0.991736
0.992496
0.992904
0.992942
0.992893
0.992943
0.993398
0.994919
0.998564
1.00495
1.01281
1.02001
1.02266
1.02345
1.02563
0.95102
0.951005
0.950989
0.950973
0.950957
0.950933
0.950911
0.950891
0.950868
0.950841
0.95081
0.950782
0.950764
0.950744
0.950715
0.95068
0.950641
0.950607
0.950576
0.950541
0.9505
0.950455
0.950408
0.950358
0.950303
0.950244
0.950182
0.950115
0.950044
0.94997
0.949891
0.949811
0.949735
0.949655
0.94957
0.949484
0.949387
0.949281
0.949172
0.949056
0.948933
0.948803
0.948673
0.948545
0.948409
0.948276
0.948145
0.947993
0.947822
0.947658
0.947497
0.947336
0.947187
0.947048
0.946926
0.946808
0.946694
0.94653
0.94632
0.946364
0.946836
0.94813
0.951715
0.95699
0.964889
0.973585
0.98022
0.986574
0.988888
0.990803
0.991726
0.993532
0.993909
0.993684
0.993111
0.992476
0.991833
0.991672
0.991248
0.990487
0.990105
0.990162
0.990268
0.990406
0.990734
0.991439
0.992199
0.992652
0.992684
0.992629
0.992673
0.993116
0.994612
0.998173
1.00459
1.01272
1.01979
1.02226
1.02311
1.0254
0.950761
0.950746
0.95073
0.950714
0.950695
0.950673
0.950653
0.950632
0.950608
0.950587
0.950557
0.950525
0.950516
0.950509
0.950487
0.950443
0.950386
0.95036
0.950352
0.950335
0.950301
0.950257
0.950211
0.950164
0.950113
0.95006
0.950004
0.949943
0.949877
0.94981
0.949742
0.949678
0.949618
0.949553
0.949479
0.949399
0.949307
0.949204
0.94909
0.948966
0.948835
0.948696
0.948547
0.948399
0.94825
0.948095
0.947942
0.947783
0.947601
0.947416
0.947247
0.947097
0.946971
0.946874
0.946775
0.946645
0.946491
0.946318
0.946151
0.945956
0.945752
0.94563
0.94597
0.947023
0.950198
0.955123
0.96325
0.972217
0.979536
0.987003
0.990087
0.992618
0.992714
0.992416
0.991832
0.991512
0.991547
0.991213
0.990486
0.989693
0.989659
0.989804
0.989979
0.990154
0.990481
0.991157
0.991897
0.992352
0.992381
0.992348
0.992415
0.992869
0.994321
0.997778
1.00419
1.01258
1.0195
1.02188
1.02279
1.02516
0.950486
0.95047
0.950455
0.950436
0.950413
0.950387
0.950364
0.950345
0.950324
0.950306
0.950286
0.950265
0.950257
0.950254
0.950241
0.950205
0.950147
0.950122
0.950121
0.950119
0.950098
0.950053
0.950001
0.949951
0.949903
0.949855
0.949807
0.949755
0.949695
0.949638
0.949585
0.949538
0.949493
0.949438
0.949369
0.949291
0.949199
0.949092
0.94897
0.948835
0.948692
0.948541
0.94838
0.948221
0.948068
0.947911
0.947748
0.947585
0.947402
0.947207
0.947036
0.946895
0.94679
0.946717
0.946631
0.946504
0.946328
0.946143
0.945961
0.945772
0.945565
0.945431
0.945266
0.945092
0.945328
0.946175
0.949127
0.95399
0.962352
0.971447
0.978697
0.985634
0.987536
0.989314
0.990409
0.991649
0.991388
0.990637
0.989647
0.989087
0.989238
0.989505
0.9897
0.989912
0.990268
0.99093
0.991637
0.992047
0.992072
0.992077
0.992172
0.992639
0.994051
0.9974
1.00377
1.01228
1.01915
1.02154
1.02254
1.02498
0.950279
0.950254
0.950226
0.950199
0.950177
0.950149
0.950125
0.950119
0.950107
0.950099
0.950097
0.950088
0.950063
0.95005
0.950044
0.950027
0.949976
0.949926
0.949918
0.949914
0.949892
0.949849
0.949797
0.949742
0.949693
0.949649
0.949601
0.949548
0.949491
0.949433
0.949402
0.949383
0.949354
0.949301
0.949226
0.949142
0.949048
0.94894
0.948817
0.948678
0.948526
0.948367
0.948201
0.948036
0.947877
0.947714
0.947542
0.947367
0.94719
0.947005
0.946841
0.946702
0.946605
0.946545
0.946473
0.946356
0.946191
0.946012
0.945836
0.945647
0.945431
0.945259
0.94512
0.94499
0.944796
0.94454
0.944718
0.94551
0.948471
0.953435
0.962103
0.971307
0.979087
0.986033
0.988719
0.98993
0.98986
0.988889
0.988524
0.988819
0.988961
0.989217
0.989404
0.989649
0.990098
0.990781
0.991415
0.991769
0.991803
0.991843
0.991951
0.992418
0.9938
0.997049
1.00336
1.01196
1.01876
1.02122
1.02244
1.02498
0.950154
0.950127
0.950099
0.950073
0.950053
0.950021
0.949988
0.949986
0.949985
0.949975
0.949962
0.949943
0.949905
0.949876
0.949868
0.949857
0.949822
0.949763
0.949742
0.949731
0.949708
0.949667
0.949614
0.94955
0.949491
0.949445
0.949402
0.949355
0.949291
0.949251
0.949238
0.949241
0.949229
0.949176
0.949083
0.948984
0.948887
0.948781
0.948659
0.948517
0.948358
0.948189
0.948015
0.947842
0.947669
0.947498
0.947322
0.947139
0.946959
0.946791
0.946635
0.946514
0.946452
0.946396
0.946319
0.946203
0.946046
0.94587
0.945697
0.945526
0.945306
0.945115
0.944979
0.94484
0.944655
0.944463
0.944197
0.943893
0.944048
0.944837
0.947921
0.953131
0.962166
0.970768
0.978881
0.982312
0.985972
0.986651
0.988128
0.989153
0.989037
0.988818
0.988937
0.989366
0.989982
0.990644
0.991185
0.991478
0.9916
0.991657
0.991748
0.992195
0.993563
0.996734
1.00299
1.01164
1.01837
1.02088
1.02215
1.02473
0.95008
0.950055
0.95003
0.950011
0.94999
0.949967
0.949945
0.949917
0.949909
0.949902
0.949883
0.949847
0.949789
0.949759
0.949754
0.949744
0.949714
0.949651
0.949598
0.949575
0.949551
0.949513
0.949462
0.949408
0.94936
0.949308
0.949253
0.9492
0.949141
0.949107
0.949093
0.949096
0.949081
0.94902
0.948919
0.948812
0.948711
0.948604
0.94848
0.948341
0.948181
0.948004
0.947824
0.947642
0.947453
0.947272
0.947096
0.946914
0.946741
0.946577
0.946424
0.94635
0.946308
0.946254
0.94617
0.94605
0.945897
0.94572
0.945539
0.945367
0.94515
0.944947
0.944811
0.944665
0.944481
0.944276
0.944054
0.943774
0.943397
0.942992
0.943149
0.944061
0.947316
0.953149
0.962161
0.970971
0.979041
0.984512
0.986871
0.988347
0.987836
0.987887
0.988363
0.989129
0.989959
0.99045
0.990908
0.99121
0.991487
0.991492
0.991547
0.991978
0.993343
0.996433
1.00265
1.01135
1.01801
1.02057
1.02191
1.0245
0.950034
0.950017
0.949999
0.949981
0.94997
0.949957
0.949937
0.949925
0.949914
0.949888
0.949842
0.949769
0.949709
0.949703
0.949704
0.949697
0.94967
0.949608
0.94954
0.949512
0.949487
0.949448
0.949396
0.949342
0.949285
0.949216
0.949162
0.949112
0.949062
0.949038
0.949032
0.949021
0.948977
0.948893
0.948783
0.948667
0.948559
0.948445
0.948317
0.948175
0.948014
0.947842
0.947671
0.947486
0.947288
0.947093
0.946903
0.946725
0.946543
0.946332
0.946232
0.946202
0.946178
0.946115
0.946021
0.945904
0.945771
0.945614
0.945424
0.945216
0.944962
0.944755
0.94463
0.944488
0.944318
0.944109
0.943873
0.943585
0.943204
0.942773
0.942421
0.94187
0.942008
0.943178
0.946538
0.953671
0.962116
0.971782
0.978238
0.983235
0.984799
0.987177
0.988797
0.989306
0.989683
0.990048
0.990608
0.991233
0.991428
0.991319
0.991347
0.991794
0.993125
0.996114
1.00235
1.01111
1.01768
1.0203
1.02173
1.02436
0.95003
0.950016
0.95
0.949974
0.949957
0.949953
0.949947
0.949933
0.949908
0.949862
0.949802
0.949735
0.949679
0.949669
0.949671
0.949672
0.949656
0.949613
0.949545
0.949491
0.949456
0.949417
0.94937
0.949319
0.949254
0.94918
0.949125
0.949079
0.949053
0.949043
0.949035
0.949008
0.948947
0.948855
0.948742
0.948623
0.948507
0.948385
0.948255
0.948112
0.94795
0.947787
0.947651
0.947512
0.947343
0.947158
0.946971
0.946789
0.946606
0.946385
0.946222
0.946153
0.946097
0.946023
0.945924
0.945806
0.945674
0.945529
0.945375
0.945201
0.944972
0.944683
0.94448
0.94433
0.944167
0.94397
0.943729
0.943402
0.942944
0.942562
0.942199
0.94177
0.941232
0.94054
0.940762
0.942421
0.946248
0.954316
0.963903
0.973312
0.981466
0.985704
0.988163
0.988395
0.988525
0.989359
0.990289
0.991165
0.991191
0.991113
0.991153
0.991658
0.992891
0.995781
1.00208
1.01083
1.01735
1.02008
1.02164
1.02428
0.95001
0.95
0.949991
0.949978
0.949965
0.94995
0.94993
0.949902
0.949866
0.949823
0.949767
0.949702
0.949669
0.949661
0.94965
0.949642
0.949635
0.94961
0.949556
0.949489
0.949442
0.949403
0.94936
0.949311
0.949255
0.949194
0.949116
0.949062
0.949048
0.949045
0.949035
0.949003
0.948939
0.948851
0.948746
0.948632
0.94851
0.94838
0.94825
0.948109
0.947956
0.947784
0.947629
0.947497
0.947348
0.947173
0.946992
0.94681
0.946621
0.946424
0.946225
0.946095
0.94602
0.94594
0.945838
0.945716
0.945579
0.945432
0.945271
0.945087
0.94486
0.944582
0.944331
0.944174
0.944011
0.943816
0.943582
0.943281
0.942839
0.942376
0.94193
0.941475
0.940935
0.940429
0.939839
0.939334
0.939695
0.941821
0.947175
0.955925
0.966875
0.975222
0.982169
0.984717
0.987251
0.989751
0.990783
0.990833
0.990794
0.990946
0.991134
0.991517
0.992546
0.99546
1.00183
1.01049
1.01703
1.01995
1.02162
1.02424
0.949968
0.949958
0.94995
0.949939
0.949924
0.949907
0.949885
0.949859
0.94982
0.949783
0.949749
0.94971
0.949661
0.949632
0.949627
0.949626
0.949622
0.949606
0.949568
0.949518
0.949467
0.949418
0.949365
0.949315
0.949282
0.949244
0.949185
0.94911
0.949082
0.949068
0.949047
0.949008
0.948948
0.94887
0.948777
0.94867
0.948548
0.94841
0.94827
0.948125
0.94798
0.947804
0.947622
0.947488
0.947357
0.9472
0.94703
0.94685
0.946655
0.946462
0.946295
0.946151
0.946004
0.945852
0.94572
0.945595
0.945459
0.94531
0.945148
0.94495
0.94472
0.944439
0.944199
0.944028
0.943872
0.943694
0.943442
0.9431
0.942625
0.942125
0.941647
0.941165
0.940634
0.940128
0.93969
0.939041
0.938313
0.938349
0.939304
0.942332
0.949397
0.959721
0.970353
0.980436
0.98564
0.988998
0.989754
0.989698
0.990273
0.990787
0.991019
0.991203
0.992148
0.995231
1.00156
1.01012
1.01678
1.01989
1.02163
1.02424
0.949959
0.949952
0.949938
0.949921
0.949903
0.949883
0.949858
0.949834
0.949803
0.949753
0.949723
0.949701
0.949668
0.949627
0.949616
0.949614
0.94961
0.9496
0.949583
0.949557
0.949523
0.949474
0.949388
0.949339
0.949335
0.949322
0.949281
0.949224
0.949181
0.949152
0.949118
0.949076
0.949011
0.948923
0.94882
0.948705
0.948584
0.94845
0.948306
0.948152
0.948
0.947818
0.947619
0.947474
0.947351
0.947212
0.947054
0.946883
0.946694
0.946505
0.946334
0.946171
0.946012
0.945856
0.945681
0.945502
0.945335
0.945152
0.945021
0.944916
0.944759
0.944531
0.944225
0.94395
0.943759
0.943549
0.94325
0.942853
0.942375
0.941908
0.941445
0.940956
0.940414
0.939912
0.939477
0.938929
0.938421
0.937979
0.937814
0.93812
0.939805
0.944379
0.952997
0.964643
0.97428
0.982626
0.985536
0.988254
0.991037
0.991018
0.990705
0.990698
0.99178
0.995162
1.00118
1.0097
1.0166
1.01989
1.02162
1.02426
0.949969
0.949958
0.949938
0.94992
0.949905
0.949886
0.949856
0.949838
0.949823
0.949796
0.949765
0.949739
0.949704
0.949648
0.949626
0.949623
0.949621
0.94962
0.949621
0.949615
0.949593
0.949556
0.949485
0.949387
0.949358
0.949348
0.949318
0.949258
0.949195
0.949156
0.949119
0.949087
0.949051
0.948998
0.948917
0.948797
0.94864
0.948471
0.948311
0.94815
0.947989
0.9478
0.947565
0.947411
0.947321
0.947216
0.947072
0.946902
0.946704
0.946498
0.946321
0.946173
0.946002
0.945799
0.945594
0.945385
0.945165
0.945016
0.944926
0.944855
0.944705
0.944463
0.944146
0.94387
0.943658
0.943411
0.94307
0.942621
0.942134
0.941672
0.941222
0.940732
0.940204
0.939734
0.939291
0.938796
0.938352
0.93806
0.9378
0.937639
0.937733
0.938525
0.941255
0.947684
0.958548
0.969708
0.980569
0.986795
0.989893
0.990393
0.989504
0.989932
0.992024
0.995079
1.00064
1.00931
1.01635
1.01972
1.02162
1.02417
0.950031
0.950021
0.950012
0.95
0.949985
0.94996
0.949913
0.949896
0.949892
0.949875
0.949841
0.949806
0.949765
0.949701
0.949668
0.949665
0.949665
0.949663
0.949655
0.949647
0.949631
0.949602
0.949546
0.949455
0.949392
0.949365
0.949326
0.949263
0.949188
0.949127
0.949105
0.949089
0.949059
0.949011
0.948937
0.94883
0.948698
0.948557
0.948407
0.948232
0.948036
0.947817
0.947549
0.947356
0.947288
0.947211
0.947077
0.946903
0.946687
0.946469
0.946281
0.946178
0.946094
0.945958
0.945757
0.945476
0.945081
0.944884
0.944798
0.94474
0.944608
0.944351
0.943994
0.943708
0.943474
0.943191
0.942825
0.942348
0.941864
0.941404
0.940953
0.940463
0.939977
0.93957
0.939138
0.938669
0.938285
0.938045
0.937816
0.937594
0.937518
0.937589
0.937998
0.939622
0.944077
0.952711
0.964761
0.975439
0.982321
0.987315
0.988191
0.990441
0.992037
0.994356
1.00007
1.00898
1.01586
1.01941
1.02153
1.02415
0.950028
0.950034
0.950043
0.95004
0.950021
0.94998
0.949925
0.9499
0.949878
0.949859
0.949849
0.949835
0.949799
0.949718
0.949673
0.94967
0.94967
0.94966
0.949644
0.949631
0.949613
0.949584
0.94954
0.949473
0.949372
0.949321
0.949284
0.949224
0.949121
0.949072
0.949071
0.949071
0.949049
0.949006
0.948942
0.948852
0.948742
0.948615
0.948454
0.948248
0.948026
0.947782
0.947511
0.947348
0.947284
0.94721
0.947087
0.946887
0.946645
0.946413
0.946245
0.946175
0.946114
0.945975
0.945735
0.945421
0.945042
0.944781
0.944671
0.944581
0.944424
0.944132
0.943769
0.943491
0.943255
0.942937
0.942502
0.942044
0.941616
0.941198
0.940708
0.940194
0.939745
0.939397
0.939009
0.938561
0.938229
0.938016
0.937805
0.937577
0.937486
0.937501
0.937545
0.93774
0.938613
0.941452
0.947968
0.959031
0.970391
0.98203
0.986832
0.989647
0.990073
0.993036
0.999872
1.00841
1.01488
1.01924
1.02159
1.02416
0.950083
0.95009
0.950099
0.950096
0.950079
0.950048
0.950019
0.949998
0.949986
0.949974
0.949957
0.94993
0.949886
0.949823
0.949764
0.949719
0.949684
0.949655
0.949624
0.949586
0.949539
0.949481
0.949425
0.949366
0.949276
0.949192
0.94913
0.949045
0.948989
0.948983
0.949001
0.949008
0.948983
0.948945
0.948897
0.948828
0.948744
0.948643
0.948515
0.948363
0.948189
0.948002
0.947849
0.947729
0.947601
0.947426
0.947177
0.94689
0.946619
0.946317
0.94616
0.946104
0.946043
0.94588
0.945604
0.945291
0.94497
0.944684
0.944521
0.944378
0.944173
0.943817
0.943474
0.943193
0.94298
0.942668
0.942176
0.941738
0.94138
0.941005
0.940472
0.939932
0.939512
0.939201
0.938843
0.938432
0.938138
0.937945
0.937739
0.937515
0.93746
0.937461
0.937498
0.937645
0.937958
0.938577
0.940309
0.944655
0.953618
0.964963
0.975669
0.983606
0.986357
0.992543
0.999642
1.00677
1.01407
1.01939
1.02185
1.02419
0.950145
0.950146
0.950137
0.950117
0.950113
0.950113
0.950106
0.950098
0.950088
0.950075
0.950053
0.950028
0.949996
0.949956
0.949915
0.94988
0.949847
0.949815
0.94978
0.949734
0.94967
0.94958
0.949472
0.949362
0.949257
0.949159
0.94904
0.948943
0.948924
0.948929
0.948939
0.948915
0.948898
0.948889
0.948849
0.948771
0.948683
0.948594
0.948501
0.948397
0.948281
0.948162
0.94805
0.947929
0.947787
0.947593
0.947314
0.947003
0.946676
0.946266
0.946064
0.945982
0.945898
0.945695
0.945367
0.945064
0.944791
0.944519
0.944292
0.944076
0.943775
0.943393
0.943088
0.942803
0.942621
0.942373
0.941886
0.941433
0.941088
0.940731
0.940217
0.939688
0.939306
0.939019
0.938669
0.938295
0.938027
0.937839
0.937626
0.937431
0.937421
0.937419
0.937477
0.937638
0.937921
0.938233
0.938667
0.939635
0.942533
0.948463
0.960013
0.971155
0.980763
0.990807
0.996966
1.00475
1.01427
1.02021
1.0219
1.02409
0.950242
0.950247
0.950248
0.950234
0.950224
0.950218
0.950216
0.950222
0.950223
0.950205
0.95018
0.950158
0.950136
0.950115
0.950095
0.950082
0.950071
0.950055
0.950033
0.950003
0.949964
0.949912
0.949849
0.949759
0.949627
0.949473
0.949336
0.949241
0.949177
0.949116
0.949054
0.948998
0.948951
0.948892
0.948811
0.948698
0.94858
0.948494
0.948414
0.948328
0.948271
0.948207
0.948096
0.947939
0.947756
0.94753
0.947245
0.946957
0.946641
0.946276
0.946085
0.945989
0.945808
0.945463
0.945076
0.944725
0.944521
0.944405
0.944288
0.944052
0.943676
0.943284
0.942971
0.942671
0.942396
0.94205
0.941566
0.941129
0.940798
0.940443
0.93996
0.939434
0.939074
0.938797
0.938461
0.93812
0.937879
0.937677
0.937473
0.93738
0.937386
0.937402
0.937462
0.937633
0.937903
0.938138
0.938394
0.938775
0.939404
0.940924
0.945751
0.953773
0.966183
0.978894
0.989503
1.00256
1.01522
1.02049
1.02215
1.02437
0.950322
0.950313
0.950301
0.950283
0.950262
0.950237
0.950208
0.950191
0.950175
0.950156
0.950133
0.950109
0.950075
0.950052
0.950041
0.950037
0.950028
0.950006
0.949977
0.94994
0.949894
0.949842
0.949781
0.949709
0.949633
0.949548
0.949456
0.949359
0.94926
0.949157
0.949048
0.948944
0.948837
0.948719
0.948603
0.9485
0.94841
0.948315
0.948215
0.948162
0.948134
0.948107
0.948002
0.947813
0.947585
0.947322
0.947069
0.946823
0.946509
0.946247
0.946143
0.94606
0.945834
0.945378
0.944861
0.944599
0.944416
0.94428
0.944127
0.943838
0.943394
0.943011
0.942705
0.942417
0.942115
0.941723
0.94125
0.940855
0.940537
0.940174
0.939703
0.939183
0.938842
0.93859
0.938294
0.937977
0.937736
0.937502
0.937352
0.937344
0.93736
0.937367
0.937408
0.93757
0.937845
0.938035
0.938242
0.938576
0.938899
0.939247
0.940259
0.942973
0.950514
0.961874
0.978786
0.998695
1.01338
1.01849
1.02191
1.02497
0.950129
0.950094
0.950054
0.950006
0.94995
0.949886
0.949815
0.949758
0.949715
0.949669
0.949637
0.949628
0.949624
0.949622
0.949617
0.949615
0.949618
0.949618
0.949619
0.949608
0.949579
0.94956
0.949534
0.94949
0.949434
0.949381
0.949324
0.949246
0.949142
0.94902
0.948863
0.948678
0.948452
0.948233
0.948179
0.948178
0.948156
0.948103
0.948067
0.948011
0.947935
0.947866
0.94774
0.947512
0.947189
0.946929
0.946755
0.94659
0.946462
0.946351
0.946292
0.946173
0.945896
0.945477
0.945064
0.944745
0.944454
0.944164
0.943886
0.943536
0.943054
0.942669
0.942364
0.942091
0.94176
0.941338
0.940869
0.940508
0.940197
0.939834
0.939381
0.938912
0.938625
0.938405
0.938134
0.937844
0.937614
0.937387
0.937235
0.937234
0.937264
0.937241
0.93726
0.937404
0.937694
0.937874
0.938123
0.938455
0.93879
0.938999
0.93924
0.939839
0.942227
0.94778
0.961999
0.982498
1.00105
1.01513
1.02278
1.02548
0.949768
0.949729
0.949688
0.949638
0.949567
0.949477
0.949392
0.949333
0.949299
0.949286
0.949273
0.949252
0.949241
0.949244
0.949242
0.949236
0.949245
0.949245
0.949237
0.949216
0.949194
0.949183
0.949186
0.949171
0.949126
0.949092
0.949058
0.948989
0.948871
0.948714
0.948539
0.948311
0.947973
0.947853
0.947849
0.947869
0.947969
0.948132
0.948246
0.948287
0.948258
0.948159
0.947952
0.947545
0.947007
0.946709
0.946641
0.946595
0.946507