/*--------------------------------*- C++ -*----------------------------------*\
  =========                 |
  \\      /  F ield         | OpenFOAM: The Open Source CFD Toolbox
   \\    /   O peration     | Website:  https://openfoam.org
    \\  /    A nd           | Version:  7
     \\/     M anipulation  |
\*---------------------------------------------------------------------------*/
FoamFile
{
    version     2.0;
    format      ascii;
    class       volScalarField;
    location    "1.5";
    object      p;
}
// * * * * * * * * * * * * * * * * * * * * * * * * * * * * * * * * * * * * * //

dimensions      [1 -1 -2 0 0 0 0];

internalField   nonuniform List<scalar> 
60000
(
0.0738175
0.131066
0.177739
0.198923
0.224126
0.257432
0.311743
0.422235
0.442862
0.460665
0.523877
0.62763
0.695415
0.699596
0.720838
0.760677
0.798581
0.786881
0.746907
0.730337
0.732838
0.716082
0.698013
0.700747
0.713363
0.719262
0.721249
0.72473
0.730665
0.730186
0.723961
0.736994
0.76776
0.806548
0.845253
0.872403
0.877531
0.871831
0.860217
0.845954
0.828691
0.82132
0.818016
0.816302
0.819618
0.827794
0.839508
0.851865
0.862319
0.864649
0.863551
0.860421
0.857353
0.852882
0.845552
0.835794
0.825751
0.814881
0.805718
0.797255
0.807509
0.872094
0.91951
0.91998
0.920039
0.923601
0.922679
0.903441
0.869826
0.841248
0.816248
0.791603
0.768004
0.744924
0.714881
0.675068
0.637043
0.59135
0.555991
0.507597
0.468586
0.478194
0.520798
0.550703
0.556259
0.564667
0.579122
0.587466
0.599653
0.61082
0.633171
0.651315
0.664812
0.682074
0.686604
0.692303
0.706119
0.723639
0.748274
0.783061
0.0423898
0.042376
0.0423728
0.0423857
0.0423922
0.0423963
0.0423818
0.0443838
0.0482756
0.0575537
0.0823948
0.125714
0.17041
0.221705
0.285952
0.395074
0.483127
0.561535
0.643354
0.701266
0.750319
0.78268
0.802488
0.819536
0.809673
0.776662
0.746005
0.728433
0.71219
0.694058
0.690878
0.708698
0.754653
0.810685
0.853192
0.872675
0.877192
0.869908
0.867656
0.857672
0.837503
0.822181
0.815875
0.814694
0.818718
0.829698
0.84363
0.85777
0.866183
0.867172
0.865127
0.863042
0.859725
0.852119
0.842977
0.832006
0.818654
0.807862
0.797019
0.78782
0.803906
0.868709
0.914947
0.918721
0.92158
0.927286
0.924954
0.903532
0.870322
0.840363
0.817694
0.791235
0.766414
0.74632
0.71758
0.677362
0.633726
0.588075
0.545396
0.505499
0.46336
0.471761
0.520622
0.548228
0.558466
0.570521
0.583763
0.592676
0.604422
0.616538
0.64009
0.65818
0.67219
0.688993
0.693636
0.698924
0.710487
0.724436
0.74877
0.781839
0.042478
0.0424773
0.0424882
0.042519
0.0425435
0.0425495
0.0425679
0.0425818
0.0425423
0.0424937
0.0424566
0.0424658
0.0424783
0.0424935
0.0424853
0.0469669
0.0617986
0.091732
0.148317
0.221394
0.302771
0.433594
0.549672
0.682455
0.791688
0.817722
0.801625
0.778037
0.762051
0.74506
0.722714
0.710468
0.731319
0.761697
0.792637
0.832364
0.851812
0.848918
0.846041
0.836519
0.822478
0.81557
0.814235
0.817471
0.828056
0.842462
0.852883
0.86051
0.865777
0.866529
0.866592
0.865207
0.85937
0.848923
0.837137
0.825267
0.811066
0.799194
0.789517
0.784639
0.804955
0.859542
0.903428
0.913151
0.918437
0.924216
0.922504
0.900029
0.86555
0.83776
0.8158
0.785598
0.762514
0.742668
0.716495
0.680411
0.631889
0.5847
0.540872
0.500475
0.464218
0.470914
0.521754
0.550104
0.562259
0.576048
0.587127
0.597695
0.608701
0.622483
0.647169
0.663174
0.676693
0.692007
0.699351
0.706166
0.718201
0.728593
0.751538
0.781559
0.0425112
0.042526
0.0425357
0.0425581
0.0425824
0.0425832
0.0425912
0.0426203
0.0426126
0.0425886
0.042563
0.042565
0.0425792
0.0425912
0.0426057
0.0425979
0.0425897
0.042598
0.0425965
0.0425881
0.0425942
0.0508394
0.0804309
0.146155
0.274127
0.439941
0.569968
0.679419
0.782803
0.814464
0.779043
0.759311
0.757912
0.755572
0.766871
0.796767
0.811503
0.814174
0.816865
0.806853
0.797038
0.794708
0.806661
0.822579
0.836974
0.848584
0.855831
0.864101
0.86822
0.867915
0.86572
0.862403
0.856308
0.846574
0.836203
0.824451
0.810671
0.79983
0.793759
0.795141
0.816689
0.855351
0.89104
0.908362
0.916508
0.923441
0.920036
0.894102
0.860938
0.835458
0.812026
0.783694
0.76125
0.740848
0.714648
0.679466
0.629719
0.581442
0.54249
0.500172
0.46473
0.474494
0.523891
0.554293
0.565788
0.580469
0.591732
0.602621
0.613773
0.629336
0.652207
0.666432
0.67939
0.695309
0.704026
0.713761
0.726289
0.735222
0.758373
0.785982
0.0425809
0.0425875
0.0425947
0.0426092
0.0426016
0.0425892
0.0425999
0.0426217
0.0426183
0.0426085
0.0425926
0.0425802
0.0425754
0.0425757
0.0425886
0.0425921
0.0425793
0.0425754
0.0425891
0.0425913
0.042596
0.0425972
0.0425987
0.0425973
0.0425921
0.0502911
0.0867638
0.162949
0.298083
0.473773
0.604243
0.726387
0.741585
0.75563
0.773422
0.807577
0.825673
0.814349
0.79111
0.769565
0.762088
0.775109
0.803503
0.824483
0.83864
0.849531
0.858412
0.8644
0.867749
0.86691
0.865267
0.858849
0.849945
0.840754
0.829863
0.819493
0.81164
0.804319
0.802386
0.807386
0.822985
0.848079
0.87982
0.908131
0.921037
0.921568
0.911221
0.883687
0.856719
0.832962
0.806753
0.779631
0.755609
0.733457
0.708874
0.676819
0.629999
0.578699
0.540208
0.501739
0.467888
0.482844
0.530011
0.559427
0.569909
0.585135
0.596045
0.607965
0.621029
0.637014
0.657254
0.671779
0.683651
0.696341
0.707019
0.717608
0.730768
0.740687
0.765759
0.790925
0.0426069
0.0426032
0.0425854
0.0425696
0.0425731
0.0425668
0.0425635
0.0425807
0.0425879
0.0425856
0.0425803
0.0425707
0.0425717
0.0425723
0.0425673
0.0425667
0.0425633
0.0425573
0.0425671
0.042573
0.0425741
0.0425754
0.0425761
0.0425744
0.0425667
0.0425541
0.0425078
0.0424285
0.0423917
0.0558556
0.11299
0.240042
0.393857
0.502301
0.599835
0.680846
0.741105
0.76337
0.756667
0.746892
0.74743
0.77223
0.80236
0.821714
0.842086
0.858488
0.866147
0.86733
0.865578
0.865249
0.859981
0.851014
0.842826
0.83473
0.825741
0.819023
0.814873
0.810763
0.812353
0.818956
0.831243
0.853044
0.881171
0.907441
0.920139
0.912857
0.892737
0.86444
0.844423
0.822937
0.793202
0.768293
0.748225
0.727455
0.703374
0.673476
0.631472
0.578135
0.538604
0.504444
0.475933
0.487097
0.526683
0.553065
0.568562
0.590258
0.605087
0.619228
0.631106
0.646294
0.665562
0.673519
0.680273
0.692555
0.702604
0.717509
0.732941
0.745451
0.768763
0.788058
0.04258
0.0425792
0.0425686
0.0425418
0.0425415
0.0425497
0.0425612
0.042568
0.0425661
0.0425602
0.0425576
0.0425559
0.0425589
0.0425642
0.0425672
0.042568
0.0425654
0.0425598
0.0425667
0.0425816
0.0425942
0.0426014
0.0425833
0.0425514
0.0425395
0.0425257
0.0424522
0.0423069
0.0422915
0.0423211
0.0423306
0.0423017
0.0494938
0.0758862
0.125713
0.188952
0.264914
0.350333
0.456086
0.555665
0.645086
0.715474
0.774715
0.813143
0.847312
0.868734
0.872604
0.869364
0.870128
0.865704
0.853844
0.843729
0.840148
0.839139
0.831329
0.82641
0.824312
0.821987
0.82597
0.834087
0.84783
0.863956
0.883055
0.898761
0.904454
0.888569
0.873319
0.865477
0.840737
0.815359
0.786993
0.763132
0.74384
0.723261
0.699062
0.669945
0.632958
0.578805
0.535833
0.506348
0.486309
0.495682
0.531917
0.561158
0.584797
0.609676
0.626812
0.633427
0.636567
0.651421
0.669993
0.680672
0.68999
0.704644
0.70649
0.711107
0.721382
0.735339
0.766137
0.78178
0.042579
0.0425966
0.0426033
0.0426056
0.0426072
0.0426079
0.0426073
0.0426008
0.0425911
0.0425843
0.0425724
0.0425682
0.0425726
0.0425873
0.0426039
0.04261
0.0426071
0.0425968
0.0425824
0.0425758
0.0425861
0.042587
0.042537
0.0424902
0.0424877
0.0424846
0.0424328
0.0423146
0.0422744
0.0422903
0.0423164
0.0423389
0.0423574
0.0423748
0.0424257
0.0425246
0.0426289
0.043886
0.0583281
0.101182
0.18073
0.295748
0.438612
0.575836
0.718709
0.811844
0.863367
0.875423
0.880742
0.866125
0.847025
0.844392
0.84962
0.851681
0.842264
0.837385
0.834715
0.831638
0.836145
0.844671
0.854207
0.866323
0.874008
0.877647
0.881346
0.873586
0.863305
0.858729
0.831337
0.798831
0.77209
0.750019
0.732712
0.713315
0.691928
0.666841
0.632758
0.580328
0.534254
0.51229
0.497321
0.502746
0.534087
0.563743
0.594477
0.617397
0.625383
0.632196
0.642279
0.662507
0.684842
0.695079
0.701489
0.71584
0.715556
0.718548
0.726259
0.740803
0.77157
0.780479
0.0426591
0.0426636
0.0426669
0.0426708
0.0426737
0.0426748
0.0426784
0.0426744
0.0426583
0.0426512
0.0426489
0.0426389
0.0426267
0.042618
0.0426155
0.0426188
0.0426107
0.0425852
0.042541
0.0425182
0.0425302
0.0425336
0.042494
0.0424382
0.0424354
0.042441
0.0424201
0.0423586
0.0423036
0.0423045
0.0423215
0.0423493
0.0424004
0.0424663
0.0425325
0.0425949
0.0426677
0.0427692
0.0429051
0.0430083
0.0432505
0.0436041
0.0542459
0.0989617
0.198009
0.370767
0.58314
0.736862
0.841334
0.852298
0.847203
0.858949
0.869734
0.866047
0.853309
0.84897
0.843447
0.839946
0.842916
0.847379
0.850345
0.856984
0.865724
0.874325
0.878865
0.869725
0.853596
0.841985
0.81953
0.792281
0.771047
0.751931
0.733585
0.711921
0.689109
0.665606
0.632492
0.580115
0.533018
0.517145
0.510896
0.518705
0.537494
0.566577
0.600593
0.620509
0.629245
0.635045
0.640494
0.660005
0.679951
0.688829
0.694777
0.708753
0.707697
0.711397
0.721338
0.739992
0.770322
0.773879
0.0427351
0.0427388
0.04274
0.0427396
0.0427367
0.0427281
0.04272
0.0427036
0.0426618
0.0426388
0.0426313
0.0426128
0.0425839
0.0425484
0.0425216
0.0425216
0.042531
0.0425195
0.0424736
0.0424556
0.0424657
0.0424725
0.0424503
0.0424303
0.0424248
0.0424203
0.0423977
0.042364
0.0423412
0.0423498
0.0423674
0.0423915
0.0424834
0.0425919
0.0426254
0.0426515
0.0426962
0.042771
0.0428586
0.0429416
0.043074
0.0432549
0.0436029
0.0444344
0.0465716
0.0503659
0.0890392
0.205506
0.398091
0.623272
0.769036
0.857656
0.866972
0.864993
0.856074
0.85362
0.848143
0.842993
0.842266
0.839507
0.840915
0.85155
0.865801
0.874508
0.873228
0.861467
0.840392
0.819911
0.803787
0.781164
0.762488
0.745756
0.727818
0.707047
0.684841
0.662411
0.628722
0.574348
0.531334
0.519962
0.519751
0.530412
0.553856
0.58014
0.608551
0.624919
0.633935
0.638344
0.64622
0.665974
0.683415
0.690816
0.696641
0.705127
0.699673
0.702607
0.714649
0.736316
0.766842
0.770862
0.0427742
0.0427566
0.0427457
0.0427359
0.0427167
0.0426843
0.0426496
0.0425817
0.0425074
0.0424981
0.0425061
0.0424947
0.042457
0.0424249
0.04241
0.0424139
0.0424254
0.0424365
0.0424368
0.0424268
0.0424217
0.0424236
0.042427
0.0424313
0.0424395
0.0424361
0.0424138
0.0423861
0.0423893
0.0424349
0.0424934
0.0425271
0.0426015
0.0426876
0.0427098
0.042709
0.042705
0.0427121
0.042752
0.0428559
0.0429156
0.0430008
0.0432668
0.0436657
0.0443285
0.0460192
0.0499531
0.0549802
0.0608142
0.114054
0.256585
0.48058
0.64724
0.779651
0.826507
0.847837
0.846534
0.841849
0.838238
0.830632
0.83739
0.852782
0.867498
0.872171
0.861082
0.846187
0.82022
0.796161
0.787303
0.775742
0.758711
0.742898
0.725153
0.704614
0.682944
0.65799
0.619435
0.567539
0.538153
0.535189
0.543745
0.564832
0.587692
0.611784
0.629771
0.636988
0.63924
0.640074
0.651335
0.667879
0.679826
0.687014
0.693444
0.697894
0.69124
0.695748
0.707758
0.72967
0.762172
0.764744
0.0426137
0.0425799
0.0425607
0.0425546
0.0425587
0.0425552
0.0425176
0.0424018
0.0423519
0.0423474
0.0423554
0.0423684
0.0423675
0.0423547
0.0423438
0.0423509
0.042369
0.0423906
0.0424151
0.0424357
0.0424455
0.042444
0.0424495
0.0424638
0.0424794
0.0424917
0.0424985
0.0424966
0.0425025
0.0425586
0.0426446
0.0426692
0.0426979
0.0427375
0.042749
0.0427402
0.0427036
0.0426591
0.0426459
0.0426657
0.0427209
0.0427921
0.0429524
0.043175
0.0435167
0.0442801
0.0462705
0.049958
0.0544396
0.0583072
0.060845
0.0739368
0.146781
0.304161
0.531286
0.700858
0.805916
0.82307
0.829078
0.827938
0.84409
0.858647
0.864349
0.857599
0.842166
0.827109
0.804612
0.783076
0.775691
0.771406
0.758727
0.74305
0.724888
0.703301
0.680718
0.651624
0.608227
0.561856
0.54288
0.547706
0.567211
0.597808
0.622222
0.63333
0.637179
0.635291
0.633125
0.634653
0.646762
0.657548
0.664861
0.670595
0.676967
0.680083
0.677131
0.6869
0.704082
0.732463
0.755768
0.763672
0.0424756
0.0424264
0.042389
0.0423837
0.0423897
0.0424108
0.042406
0.0423331
0.0423106
0.0423075
0.0422998
0.0423006
0.0423162
0.0423413
0.0423543
0.042364
0.0423832
0.0424141
0.0424432
0.0424738
0.0424963
0.0425059
0.0425196
0.0425402
0.0425512
0.0425722
0.0426272
0.04266
0.0426626
0.0426669
0.0426998
0.0427355
0.0427576
0.0427691
0.0427677
0.0427477
0.0426698
0.0425605
0.0425156
0.0425214
0.0425633
0.0426215
0.0427151
0.0429059
0.043151
0.0435323
0.0444924
0.0465022
0.0495466
0.0530804
0.0573835
0.0603677
0.0622536
0.0628087
0.0900626
0.186283
0.3735
0.55594
0.697631
0.77198
0.826518
0.841438
0.85065
0.840315
0.830409
0.816367
0.794642
0.777794
0.768696
0.764208
0.758288
0.74342
0.724272
0.700393
0.67602
0.641627
0.595321
0.557878
0.557215
0.572922
0.604139
0.636025
0.650966
0.657274
0.658201
0.654847
0.651842
0.651576
0.658128
0.661924
0.666719
0.673124
0.678923
0.681232
0.680223
0.691674
0.706534
0.729977
0.741436
0.756448
0.042399
0.0423803
0.0423363
0.0423255
0.042328
0.04233
0.0423244
0.0423232
0.0423287
0.0423354
0.0423393
0.0423434
0.0423647
0.0424065
0.0424226
0.0424285
0.0424468
0.0424885
0.0425128
0.0425377
0.0425755
0.0425976
0.0426256
0.0426412
0.0426415
0.0426499
0.042698
0.0427362
0.0427506
0.0427408
0.0427287
0.0427426
0.0427659
0.0427625
0.0427493
0.042711
0.042566
0.0423977
0.0423722
0.0423798
0.0424211
0.0425045
0.0425838
0.0427494
0.0429817
0.0432445
0.0437819
0.0449052
0.0466544
0.0490069
0.0517187
0.0553463
0.0594651
0.0609792
0.0617902
0.0621589
0.0630308
0.10089
0.197994
0.36082
0.517428
0.634993
0.73178
0.788254
0.808572
0.800335
0.790072
0.781404
0.763548
0.757075
0.754088
0.739826
0.717964
0.693263
0.667594
0.627876
0.582406
0.567081
0.576967
0.603371
0.639199
0.660502
0.666938
0.666
0.66261
0.658119
0.653664
0.651478
0.649864
0.647542
0.651855
0.661229
0.669166
0.67574
0.684407
0.701792
0.718342
0.737038
0.734656
0.752415
0.0423747
0.0423723
0.0423712
0.0423601
0.0423498
0.04235
0.0423531
0.0423672
0.0423965
0.0424158
0.0424283
0.042446
0.0424798
0.0425395
0.0425656
0.0425717
0.0425816
0.042588
0.042586
0.0425878
0.0426203
0.0426696
0.0426838
0.0426836
0.0426781
0.0426845
0.042721
0.042742
0.0427492
0.0427471
0.0427393
0.0427293
0.0427073
0.0426651
0.0426271
0.0425659
0.0423904
0.0422571
0.0422503
0.042261
0.0423141
0.0424196
0.0425216
0.0426695
0.0429084
0.0431214
0.0435005
0.0442004
0.0451758
0.0466457
0.0488528
0.0513112
0.0537582
0.0563643
0.0588283
0.0597115
0.060032
0.060689
0.0619848
0.0637616
0.0851369
0.146757
0.243316
0.387369
0.529559
0.653483
0.714657
0.746649
0.754318
0.75708
0.751032
0.731416
0.702424
0.67626
0.646551
0.608266
0.580556
0.584028
0.602154
0.636247
0.665159
0.676473
0.677186
0.670756
0.662894
0.656624
0.650693
0.646509
0.641153
0.639568
0.647958
0.662885
0.674627
0.686597
0.702879
0.718446
0.731674
0.738514
0.729782
0.750448
0.0423888
0.0423925
0.0424024
0.0424144
0.0424278
0.0424422
0.0424527
0.0424944
0.0426201
0.0426571
0.0426579
0.0426703
0.0426926
0.0426914
0.0426802
0.0426801
0.0426775
0.0426426
0.0425956
0.0425917
0.0426047
0.0426577
0.0426845
0.0426843
0.0426801
0.0426923
0.0426971
0.0427001
0.0426965
0.0426589
0.0425902
0.0425354
0.0424689
0.0424127
0.0423916
0.0423603
0.0422594
0.0421815
0.0421772
0.0421939
0.0422559
0.0423704
0.0424846
0.0426402
0.0428724
0.0430558
0.0433577
0.0439217
0.0446011
0.0454852
0.0468216
0.0491244
0.0513184
0.0530785
0.0547421
0.0562733
0.0575021
0.0586341
0.0599455
0.0613006
0.0622574
0.0628425
0.0633881
0.0662257
0.0942671
0.173617
0.307335
0.462029
0.57151
0.657425
0.709341
0.706821
0.688442
0.665908
0.634555
0.599602
0.591939
0.60409
0.631494
0.66442
0.685054
0.688616
0.68252
0.671439
0.661217
0.656489
0.653835
0.652377
0.648693
0.650322
0.663072
0.679592
0.687943
0.693723
0.706625
0.718572
0.729017
0.731218
0.727088
0.751683
0.0425175
0.0425462
0.0425842
0.0426395
0.0426952
0.0427076
0.0427048
0.0427124
0.0427845
0.0428427
0.0428436
0.0428424
0.0428342
0.0427762
0.0427244
0.0427186
0.0427122
0.0426822
0.0426237
0.0425964
0.0426041
0.0426087
0.0425984
0.0425814
0.042574
0.0425547
0.0425289
0.0425327
0.0425426
0.0425299
0.0424651
0.042328
0.0421779
0.0421516
0.0421512
0.0421669
0.0421642
0.0421499
0.0421455
0.0421678
0.0422347
0.0423481
0.042462
0.0426204
0.042869
0.0430461
0.043291
0.0437452
0.0442632
0.0449839
0.0459037
0.0473768
0.0495916
0.0513461
0.0526308
0.0539295
0.0552081
0.0566094
0.058171
0.0597684
0.060822
0.0615669
0.0624302
0.0635177
0.0647696
0.0658452
0.066765
0.0815433
0.138194
0.24255
0.376472
0.527216
0.627943
0.649337
0.635815
0.621001
0.625414
0.63975
0.661209
0.676345
0.683146
0.679706
0.671156
0.661783
0.656805
0.661118
0.668208
0.671829
0.668455
0.668099
0.674168
0.679279
0.679125
0.681593
0.694897
0.709458
0.721917
0.725633
0.730031
0.756327
0.0426834
0.0427149
0.0427661
0.0427836
0.042787
0.0428001
0.0428416
0.042846
0.0428581
0.0428623
0.0428542
0.0428476
0.0428466
0.0428054
0.0427116
0.0426806
0.0426617
0.0426007
0.0424786
0.0424087
0.0423901
0.0423663
0.0423106
0.0422953
0.0423164
0.0423575
0.0423676
0.0423838
0.0423993
0.0424085
0.0424012
0.0422539
0.0420449
0.0420243
0.0420236
0.0420446
0.0421095
0.0421252
0.0421368
0.042201
0.0423225
0.0424427
0.0425754
0.0427876
0.0430737
0.0432006
0.0433328
0.0436651
0.0440898
0.044778
0.0456335
0.0466081
0.0482358
0.0501761
0.0515048
0.0527059
0.0539454
0.0553058
0.0567638
0.0581884
0.0595032
0.0606335
0.0617767
0.0630426
0.0644607
0.0655891
0.0667448
0.0680408
0.0696825
0.0709708
0.0752062
0.120883
0.24857
0.450604
0.568749
0.617238
0.643746
0.672358
0.689044
0.693161
0.692265
0.683017
0.67279
0.664099
0.661525
0.667434
0.673921
0.673935
0.665988
0.662022
0.662242
0.660823
0.661383
0.669408
0.690347
0.705489
0.715917
0.723054
0.734306
0.759979
0.0427429
0.04277
0.0428591
0.0428721
0.0428706
0.0428469
0.0428114
0.0428093
0.0428037
0.0427613
0.0426426
0.042605
0.0425966
0.042569
0.0425202
0.0424486
0.0423339
0.0422145
0.0421318
0.042131
0.0421414
0.0421407
0.0421225
0.0421121
0.0421351
0.0422574
0.0423413
0.0423551
0.0423661
0.042378
0.0423742
0.0422362
0.0420369
0.0420176
0.0420167
0.0420317
0.0420844
0.04218
0.0424247
0.042845
0.0430819
0.0431661
0.0432648
0.04352
0.0438899
0.044075
0.0440657
0.0440319
0.044155
0.0447613
0.0458011
0.0466774
0.0475941
0.049074
0.0507001
0.0520989
0.0534566
0.054717
0.0559387
0.0571713
0.0585832
0.0600203
0.0613788
0.0627544
0.0642199
0.065591
0.066936
0.0682838
0.0699602
0.0726373
0.0752687
0.0772213
0.0787815
0.105843
0.22215
0.40096
0.525925
0.589508
0.626374
0.649191
0.661719
0.66634
0.669643
0.672968
0.676998
0.681444
0.683792
0.675533
0.663642
0.659243
0.654816
0.650599
0.652791
0.665069
0.688097
0.698543
0.706188
0.718782
0.733701
0.757288
0.0425418
0.0425536
0.042615
0.0426974
0.0426985
0.0426778
0.0426944
0.0427464
0.0427413
0.0426957
0.042543
0.0424248
0.0423857
0.0423897
0.042396
0.0423617
0.0421353
0.0420043
0.0420132
0.0420692
0.042112
0.0421095
0.0420943
0.0420812
0.0421005
0.0422374
0.0424036
0.0424347
0.042466
0.0425455
0.042575
0.0425205
0.0424519
0.0424458
0.0424974
0.0426638
0.0428982
0.043246
0.0438217
0.0443451
0.0444706
0.044481
0.0444892
0.0446165
0.0448881
0.0450687
0.0450973
0.0450774
0.0451078
0.0453816
0.0460821
0.0468795
0.0475617
0.0484263
0.0497973
0.0514608
0.053217
0.0546363
0.0556762
0.0567861
0.0582136
0.0597495
0.0612989
0.0627977
0.0641371
0.066075
0.0686298
0.0718755
0.0750654
0.0775116
0.0797676
0.0823078
0.0847401
0.0861685
0.0871122
0.101189
0.162677
0.260635
0.367235
0.458333
0.52595
0.570856
0.595844
0.617248
0.631862
0.642121
0.651736
0.652394
0.652517
0.658423
0.654996
0.649604
0.653141
0.666552
0.681495
0.684962
0.691472
0.710628
0.727548
0.7498
0.0424673
0.0425125
0.0425336
0.0426124
0.0426272
0.0426099
0.0426388
0.0427848
0.0428094
0.0426721
0.0425706
0.0425688
0.042512
0.0424799
0.0425046
0.0425273
0.0424926
0.0423898
0.0423117
0.0423319
0.0425163
0.0427288
0.0427614
0.0427409
0.0427736
0.0428842
0.0430468
0.043238
0.043661
0.0441811
0.0442401
0.0440969
0.0440224
0.0440782
0.0443167
0.044581
0.0447689
0.0449355
0.0451833
0.0454476
0.045537
0.0455108
0.0455036
0.0455145
0.0454807
0.0453784
0.0453781
0.0454324
0.045439
0.0456045
0.046124
0.0468568
0.0476233
0.0484596
0.049552
0.0510529
0.0526647
0.054356
0.0561073
0.057731
0.0594507
0.0616194
0.0639858
0.0663036
0.0686074
0.0711638
0.074339
0.077415
0.0801439
0.0822147
0.0840346
0.0861884
0.0883955
0.0902437
0.0917377
0.0934423
0.0950843
0.0961974
0.101129
0.121948
0.159582
0.210575
0.265234
0.329576
0.39364
0.45487
0.515378
0.568893
0.609276
0.6302
0.636831
0.634224
0.645871
0.657617
0.663874
0.665585
0.67561
0.70083
0.716466
0.735965
0.0427962
0.0429293
0.0429753
0.042973
0.042963
0.0430569
0.0435145
0.0437446
0.0437497
0.0437648
0.043913
0.0441739
0.0441689
0.0439695
0.043927
0.0439701
0.0439894
0.0439653
0.0440135
0.0443036
0.0448361
0.0449754
0.0449764
0.0449269
0.0449264
0.0449563
0.0450058
0.0451543
0.0456596
0.0460099
0.0459812
0.0458019
0.0457738
0.0458863
0.045869
0.0457971
0.0458738
0.0459592
0.0459745
0.0460429
0.0460071
0.0458745
0.0458389
0.0458117
0.045607
0.0453934
0.0454065
0.0456468
0.0460588
0.0468418
0.0480046
0.0488467
0.0495624
0.0507557
0.0520863
0.0537372
0.0562221
0.0587923
0.061287
0.0639082
0.0664467
0.0687989
0.0710394
0.0732493
0.0755479
0.0776741
0.0796992
0.0813945
0.0833985
0.0857055
0.0874918
0.0889104
0.0905592
0.0929423
0.0948818
0.0966651
0.0990869
0.101114
0.103169
0.105589
0.107866
0.110283
0.112608
0.11465
0.124237
0.147378
0.1875
0.249752
0.330636
0.409003
0.482299
0.541373
0.590884
0.6179
0.631208
0.643311
0.665911
0.687344
0.696516
0.713926
0.0449765
0.0450975
0.0453167
0.0454381
0.0454875
0.0456317
0.0458489
0.0460769
0.0462584
0.0462262
0.0462283
0.0464472
0.0465142
0.0464708
0.0464198
0.0464409
0.0465279
0.046599
0.0465586
0.046557
0.0467288
0.0469653
0.0470173
0.0469709
0.0467465
0.0466833
0.0466877
0.0466442
0.0466337
0.046845
0.046969
0.0469485
0.0469122
0.0469476
0.0469802
0.0468287
0.0468466
0.0471645
0.0472691
0.0470371
0.0469192
0.0469106
0.0470562
0.0475875
0.048441
0.0495217
0.0506851
0.0517287
0.0529319
0.0551286
0.0574567
0.0576934
0.0575467
0.0578747
0.059194
0.0614213
0.0641926
0.0662207
0.0677729
0.0697467
0.0720031
0.0742539
0.0763671
0.0780823
0.079749
0.0813459
0.0828954
0.0844526
0.0860051
0.0879145
0.0897151
0.0910165
0.0924501
0.0950986
0.0977406
0.0995894
0.102391
0.106166
0.109374
0.112201
0.114722
0.117468
0.12066
0.123776
0.126937
0.130047
0.133274
0.137018
0.141956
0.156789
0.187256
0.239177
0.303668
0.374613
0.454879
0.535018
0.610411
0.638093
0.655028
0.691473
0.0474485
0.0474823
0.0475385
0.047615
0.0477176
0.0478012
0.0478026
0.0477624
0.0477563
0.0477927
0.0478903
0.0482702
0.0485297
0.0486764
0.0488159
0.0488888
0.048937
0.0487438
0.0483485
0.0482774
0.048293
0.048388
0.0485705
0.0486925
0.0485387
0.0484101
0.0484376
0.0485758
0.0484652
0.0485284
0.0489587
0.0496696
0.0502969
0.050966
0.0517664
0.0522551
0.0526325
0.0532602
0.05404
0.0544876
0.0547153
0.0550819
0.0558756
0.0573488
0.0585822
0.0592747
0.0600084
0.060927
0.061935
0.062855
0.0634814
0.0637741
0.0640586
0.0645793
0.0655266
0.0667653
0.0678899
0.0691054
0.070823
0.0730005
0.0751276
0.0770437
0.0789217
0.0805374
0.0821135
0.0838771
0.0853602
0.0870602
0.0882824
0.0896038
0.0918196
0.0946718
0.097044
0.0992344
0.102838
0.107311
0.110763
0.114333
0.117738
0.120548
0.123075
0.125455
0.128398
0.1315
0.134625
0.137833
0.141697
0.145896
0.151397
0.157361
0.161597
0.166464
0.171817
0.183167
0.207956
0.253619
0.326152
0.413236
0.504635
0.633153
0.0518324
0.052042
0.0524011
0.0524491
0.0524374
0.0526854
0.0532152
0.0532577
0.0532227
0.0531224
0.0531494
0.0533281
0.0537063
0.0540758
0.0543994
0.0545884
0.0545209
0.0541778
0.0540751
0.0541049
0.0544516
0.0551645
0.0558698
0.0567442
0.0573591
0.0577557
0.0583334
0.0590306
0.0592372
0.0594122
0.0600009
0.0607796
0.0611338
0.0614946
0.0621263
0.0627611
0.0631976
0.0636516
0.0642445
0.0645505
0.0644809
0.064478
0.0645483
0.064939
0.0655765
0.066019
0.0663487
0.0668442
0.067283
0.0672109
0.0670647
0.0672421
0.0680433
0.0691177
0.0700132
0.0710207
0.0722218
0.0736383
0.0754806
0.0770591
0.0786929
0.0804965
0.0824355
0.0847221
0.0865683
0.088389
0.0907422
0.0937474
0.0971077
0.100581
0.104077
0.107579
0.111334
0.114647
0.117081
0.119802
0.122092
0.123863
0.126234
0.128567
0.130941
0.133149
0.135771
0.139116
0.14227
0.145977
0.150902
0.155742
0.160856
0.167108
0.172524
0.17772
0.183989
0.19138
0.201055
0.212388
0.227067
0.25159
0.287597
0.414593
0.063812
0.0637773
0.063502
0.0635962
0.0635379
0.0637327
0.0645042
0.0646736
0.0646515
0.0644404
0.0644078
0.064435
0.0646334
0.0650136
0.0650788
0.0649207
0.0647323
0.0647565
0.0651239
0.0657112
0.0660261
0.0661327
0.0664508
0.0672323
0.0674647
0.0675721
0.0677855
0.0680822
0.068128
0.0682131
0.0685906
0.0688691
0.0688751
0.0689301
0.0692319
0.0696273
0.069923
0.0698962
0.0696806
0.069721
0.0701518
0.0708192
0.071168
0.0714766
0.071535
0.0715144
0.0717732
0.0725015
0.0735337
0.0746374
0.0756708
0.0767554
0.0780973
0.0796949
0.0814527
0.0836188
0.086063
0.0881926
0.0900551
0.0916858
0.0930133
0.0943498
0.0961026
0.0984872
0.101263
0.104127
0.107093
0.109941
0.112697
0.115345
0.117781
0.119902
0.122118
0.124185
0.125778
0.127651
0.129958
0.131776
0.133775
0.13593
0.138144
0.140446
0.142989
0.146687
0.151066
0.155104
0.160124
0.166002
0.1717
0.178093
0.185736
0.19225
0.198335
0.206174
0.215342
0.227096
0.240933
0.258263
0.275799
0.321855
0.0740629
0.0737572
0.0735802
0.0735844
0.0736464
0.0736079
0.0736538
0.0741947
0.0746085
0.0748219
0.0750256
0.075392
0.0755291
0.0754728
0.0752437
0.0750239
0.0749592
0.0750248
0.0753119
0.0757159
0.0759253
0.076063
0.0763061
0.0767219
0.0768968
0.0769735
0.0771043
0.0774123
0.0778889
0.0779447
0.0780179
0.0784999
0.0793266
0.0797481
0.0799571
0.080331
0.0808284
0.0812292
0.0818908
0.0829512
0.0839113
0.0845898
0.0851957
0.0860702
0.087139
0.0880292
0.0888565
0.0898692
0.0913484
0.09237
0.093118
0.0940764
0.0951618
0.0962847
0.0976052
0.0990711
0.100316
0.101154
0.102193
0.103791
0.105923
0.108466
0.110985
0.113279
0.115382
0.117192
0.118907
0.120398
0.121675
0.122994
0.124334
0.125631
0.127072
0.128948
0.130642
0.13247
0.134947
0.137567
0.140078
0.142964
0.146028
0.149574
0.153345
0.157372
0.162542
0.167791
0.172549
0.178707
0.185314
0.192059
0.199096
0.207589
0.214988
0.222575
0.232326
0.244921
0.260014
0.277314
0.29368
0.332098
0.0890751
0.0890546
0.0892564
0.0892877
0.0892512
0.0890011
0.0888931
0.088996
0.0900836
0.0904164
0.0902022
0.0902223
0.0907657
0.0908825
0.0908574
0.0911274
0.0918101
0.0918668
0.0918465
0.0920552
0.092436
0.0927565
0.0930915
0.0934859
0.0938481
0.0941896
0.0946303
0.0950136
0.0954051
0.0959957
0.0965254
0.0967928
0.096991
0.0972769
0.0977314
0.0981914
0.0987067
0.0993428
0.0999749
0.100592
0.101
0.101387
0.101892
0.1023
0.102864
0.103291
0.103602
0.104154
0.104435
0.104703
0.105111
0.105658
0.10625
0.106701
0.107429
0.108118
0.108583
0.109462
0.111026
0.113129
0.11528
0.117321
0.11918
0.120877
0.122451
0.123646
0.124953
0.126019
0.126769
0.127779
0.128862
0.130002
0.131369
0.133122
0.135245
0.137583
0.140289
0.14353
0.147035
0.151263
0.155726
0.160303
0.165339
0.170291
0.17555
0.182084
0.188416
0.194368
0.201762
0.209504
0.217053
0.224969
0.234252
0.243115
0.252865
0.264698
0.279972
0.30073
0.319361
0.355825
0.107282
0.107495
0.107893
0.107919
0.107895
0.107977
0.108035
0.108034
0.108096
0.10843
0.108676
0.10905
0.109121
0.109011
0.109015
0.109239
0.109689
0.110003
0.110019
0.110037
0.110306
0.110481
0.110536
0.110679
0.110771
0.110913
0.11115
0.11143
0.11175
0.112097
0.11238
0.112606
0.11286
0.113259
0.113675
0.113837
0.113929
0.114219
0.114663
0.114816
0.115013
0.115353
0.115674
0.115968
0.116128
0.116314
0.11655
0.117016
0.11745
0.117788
0.118078
0.11844
0.118977
0.119651
0.120539
0.121316
0.12198
0.122843
0.123995
0.125213
0.126191
0.126798
0.127518
0.128511
0.129806
0.131184
0.132621
0.134275
0.136129
0.138223
0.140533
0.142949
0.145597
0.148252
0.151012
0.153792
0.156777
0.160153
0.163607
0.166979
0.170864
0.174932
0.17947
0.184877
0.190401
0.196264
0.203498
0.210677
0.217739
0.226076
0.235491
0.244396
0.253569
0.264642
0.276039
0.289142
0.304191
0.323496
0.344828
0.38756
0.125205
0.124952
0.124905
0.124917
0.124964
0.125189
0.125376
0.125391
0.125394
0.125467
0.12565
0.125717
0.125717
0.125691
0.125637
0.125641
0.125758
0.126025
0.126106
0.126101
0.126161
0.126466
0.126612
0.126596
0.126597
0.126684
0.12685
0.126988
0.127059
0.127182
0.127313
0.127363
0.127464
0.127665
0.127852
0.127872
0.127881
0.12809
0.128354
0.128436
0.128494
0.128587
0.128738
0.128941
0.129182
0.129279
0.129299
0.12941
0.129615
0.129714
0.129808
0.129981
0.130152
0.130358
0.130611
0.130876
0.131201
0.131488
0.131924
0.132655
0.133652
0.134894
0.13646
0.138309
0.140245
0.14234
0.144484
0.146645
0.148875
0.151086
0.153396
0.155816
0.15832
0.161105
0.164164
0.167435
0.170743
0.174457
0.1786
0.182666
0.187197
0.192388
0.197493
0.203028
0.209454
0.215804
0.22245
0.230569
0.238854
0.247244
0.256382
0.267264
0.278022
0.289051
0.301466
0.31599
0.333034
0.353391
0.374639
0.420867
0.134004
0.133864
0.133788
0.133801
0.133825
0.133833
0.133863
0.133906
0.133947
0.13405
0.134164
0.134165
0.134101
0.134074
0.134058
0.133982
0.133962
0.133953
0.134043
0.134196
0.134231
0.134235
0.134236
0.134246
0.13426
0.134283
0.134271
0.134254
0.134269
0.134344
0.134406
0.134438
0.134497
0.134573
0.134595
0.134601
0.134625
0.134693
0.134738
0.134762
0.134785
0.134819
0.134937
0.135001
0.134984
0.135027
0.135172
0.135254
0.135278
0.135297
0.1354
0.135446
0.135419
0.135483
0.135669
0.136049
0.136333
0.136668
0.137294
0.138171
0.139289
0.140664
0.142247
0.144016
0.145826
0.147779
0.149786
0.151844
0.154067
0.156178
0.158519
0.161201
0.163777
0.166763
0.170394
0.174289
0.178383
0.182763
0.18765
0.193298
0.199064
0.205162
0.211905
0.218737
0.225908
0.234094
0.242519
0.251142
0.260918
0.271041
0.28154
0.292681
0.305506
0.318562
0.332055
0.347285
0.365286
0.388467
0.411047
0.459424
0.136517
0.136513
0.136506
0.136506
0.136505
0.136513
0.136547
0.136591
0.136649
0.136688
0.136683
0.136654
0.136639
0.136644
0.136686
0.136687
0.136694
0.136728
0.136793
0.136859
0.1369
0.136917
0.136937
0.136995
0.137122
0.137175
0.137185
0.137209
0.137265
0.137353
0.137452
0.137521
0.137602
0.137757
0.137774
0.137758
0.137812