/*--------------------------------*- C++ -*----------------------------------*\
  =========                 |
  \\      /  F ield         | OpenFOAM: The Open Source CFD Toolbox
   \\    /   O peration     | Website:  https://openfoam.org
    \\  /    A nd           | Version:  7
     \\/     M anipulation  |
\*---------------------------------------------------------------------------*/
FoamFile
{
    version     2.0;
    format      ascii;
    class       volVectorField;
    location    "1.5";
    object      U;
}
// * * * * * * * * * * * * * * * * * * * * * * * * * * * * * * * * * * * * * //

dimensions      [0 1 -1 0 0 0 0];

internalField   nonuniform List<vector> 
60000
(
(2.29059 -1.44507 0)
(2.28177 -1.22822 0)
(2.28855 -0.897949 0)
(2.40201 -0.725421 0)
(2.45325 -0.635964 0)
(2.43476 -0.459416 0)
(2.45417 -0.239657 0)
(2.52267 -0.217911 0)
(2.51621 -0.0830325 0)
(2.52056 0.0366258 0)
(2.53734 0.102562 0)
(2.52943 0.212815 0)
(2.54561 0.236976 0)
(2.5428 0.305616 0)
(2.55046 0.325731 0)
(2.57027 0.328513 0)
(2.58592 0.324227 0)
(2.61741 0.303664 0)
(2.63217 0.287329 0)
(2.65533 0.265731 0)
(2.68601 0.238036 0)
(2.69853 0.19675 0)
(2.68649 0.150456 0)
(2.6934 0.109338 0)
(2.70649 0.0729253 0)
(2.72562 0.0622979 0)
(2.7415 0.0636943 0)
(2.75325 0.0645902 0)
(2.75339 0.0820325 0)
(2.74888 0.0981952 0)
(2.73681 0.097234 0)
(2.71408 0.100113 0)
(2.68144 0.0773301 0)
(2.63822 0.0636174 0)
(2.62814 0.0603517 0)
(2.61937 0.0574939 0)
(2.61489 0.0568719 0)
(2.61066 0.0494345 0)
(2.61429 0.0306024 0)
(2.62244 0.0291055 0)
(2.62955 0.0349883 0)
(2.63778 0.0441888 0)
(2.64633 0.0516204 0)
(2.65451 0.0596475 0)
(2.66158 0.061114 0)
(2.66607 0.0592313 0)
(2.6672 0.0518747 0)
(2.6671 0.045791 0)
(2.66599 0.0376519 0)
(2.67132 0.0308316 0)
(2.67878 0.0290901 0)
(2.69292 0.0309715 0)
(2.71175 0.0382603 0)
(2.74304 0.0489376 0)
(2.7748 0.0572855 0)
(2.80507 0.0643758 0)
(2.84048 0.0682445 0)
(2.87698 0.0779626 0)
(2.91433 0.10458 0)
(2.93988 0.146824 0)
(2.94615 0.165312 0)
(2.91584 0.123226 0)
(2.90219 0.100601 0)
(2.89224 0.0861199 0)
(2.87075 0.0639815 0)
(2.83877 0.0401929 0)
(2.80019 0.0239742 0)
(2.75693 0.0177358 0)
(2.71222 0.0217376 0)
(2.67089 0.0222863 0)
(2.6365 0.0233046 0)
(2.62355 0.0244754 0)
(2.65147 0.0166183 0)
(2.70182 0.014572 0)
(2.78232 0.0170306 0)
(2.90748 0.0343437 0)
(3.05617 0.074157 0)
(3.21893 0.106248 0)
(3.38574 0.125416 0)
(3.48046 0.194437 0)
(3.479 0.301952 0)
(3.48123 0.355615 0)
(3.43714 0.344966 0)
(3.3899 0.309554 0)
(3.36977 0.278572 0)
(3.36506 0.260674 0)
(3.36085 0.24087 0)
(3.35684 0.22495 0)
(3.34914 0.208148 0)
(3.33974 0.192689 0)
(3.32557 0.181129 0)
(3.31199 0.151938 0)
(3.30404 0.145453 0)
(3.29897 0.141315 0)
(3.28763 0.13028 0)
(3.27724 0.133037 0)
(3.26653 0.12671 0)
(3.24704 0.104187 0)
(3.24102 0.0801113 0)
(3.19086 0.121607 0)
(2.3397 -1.67993 0)
(2.33967 -1.67979 0)
(2.33959 -1.67973 0)
(2.33964 -1.6795 0)
(2.33945 -1.67965 0)
(2.33968 -1.67917 0)
(2.33938 -1.67988 0)
(2.33622 -1.67008 0)
(2.32149 -1.62778 0)
(2.29679 -1.53924 0)
(2.26373 -1.42239 0)
(2.21404 -1.2189 0)
(2.1746 -1.03529 0)
(2.10549 -0.745016 0)
(2.07806 -0.566684 0)
(1.99823 -0.312187 0)
(1.97427 -0.147493 0)
(1.96554 -0.0319193 0)
(1.95287 0.104852 0)
(1.95903 0.156118 0)
(1.95807 0.164565 0)
(1.95791 0.187196 0)
(2.00197 0.178771 0)
(2.04179 0.158718 0)
(2.07892 0.144985 0)
(2.09974 0.123832 0)
(2.11924 0.104782 0)
(2.12882 0.0867888 0)
(2.13384 0.0658873 0)
(2.13369 0.0564538 0)
(2.11865 0.0503897 0)
(2.09203 0.0770149 0)
(2.06958 0.0995871 0)
(2.066 0.0965576 0)
(2.07969 0.0951312 0)
(2.08618 0.0936873 0)
(2.08701 0.0940894 0)
(2.08298 0.0925279 0)
(2.08086 0.0841831 0)
(2.08439 0.075308 0)
(2.09683 0.0615469 0)
(2.10552 0.0542392 0)
(2.11084 0.0476668 0)
(2.1162 0.037229 0)
(2.12524 0.0312329 0)
(2.1361 0.0301958 0)
(2.14423 0.0323099 0)
(2.14902 0.0366627 0)
(2.1541 0.0358668 0)
(2.16895 0.0327222 0)
(2.18634 0.023965 0)
(2.21098 0.0135645 0)
(2.24123 0.0157218 0)
(2.28234 0.0250875 0)
(2.32214 0.0401753 0)
(2.36026 0.0554199 0)
(2.40341 0.0667731 0)
(2.45324 0.0805676 0)
(2.5134 0.106661 0)
(2.5755 0.143691 0)
(2.62687 0.169849 0)
(2.63474 0.139759 0)
(2.62323 0.108565 0)
(2.61042 0.0947992 0)
(2.57984 0.0796663 0)
(2.53446 0.0674036 0)
(2.47853 0.0602918 0)
(2.41637 0.0533343 0)
(2.35584 0.0404355 0)
(2.30722 0.0328934 0)
(2.27803 0.0320107 0)
(2.27561 0.0247895 0)
(2.31244 0.0197188 0)
(2.3656 0.0136102 0)
(2.45434 0.000585258 0)
(2.58907 0.00467901 0)
(2.76859 0.0306991 0)
(2.97667 0.0674025 0)
(3.20237 0.104644 0)
(3.40269 0.183301 0)
(3.4577 0.321806 0)
(3.47316 0.373199 0)
(3.43679 0.354419 0)
(3.38542 0.307946 0)
(3.36751 0.27402 0)
(3.36217 0.255175 0)
(3.3579 0.235305 0)
(3.3545 0.223782 0)
(3.3467 0.206528 0)
(3.33699 0.195326 0)
(3.32304 0.179991 0)
(3.31032 0.151913 0)
(3.30229 0.147079 0)
(3.29594 0.140173 0)
(3.2861 0.131248 0)
(3.27625 0.13109 0)
(3.26442 0.124695 0)
(3.24478 0.10267 0)
(3.23966 0.0799554 0)
(3.19021 0.123005 0)
(2.33986 -1.68001 0)
(2.33963 -1.68033 0)
(2.33994 -1.67993 0)
(2.33967 -1.68039 0)
(2.3401 -1.67989 0)
(2.33974 -1.68065 0)
(2.3404 -1.6799 0)
(2.34032 -1.68148 0)
(2.34074 -1.68117 0)
(2.3409 -1.68111 0)
(2.34099 -1.68121 0)
(2.34148 -1.6809 0)
(2.34138 -1.68163 0)
(2.34235 -1.68104 0)
(2.34191 -1.68275 0)
(2.31318 -1.64011 0)
(2.24245 -1.52707 0)
(2.13226 -1.35294 0)
(2.00208 -1.06166 0)
(1.89052 -0.804575 0)
(1.74503 -0.532104 0)
(1.61762 -0.256011 0)
(1.56233 -0.0776756 0)
(1.50251 0.080485 0)
(1.48935 0.108521 0)
(1.5174 0.125851 0)
(1.57134 0.134471 0)
(1.62195 0.166398 0)
(1.66424 0.166653 0)
(1.66834 0.135163 0)
(1.66916 0.112633 0)
(1.66234 0.0851846 0)
(1.66076 0.0614051 0)
(1.66048 0.0657993 0)
(1.67518 0.0611167 0)
(1.68609 0.054457 0)
(1.68775 0.0524016 0)
(1.67947 0.0521545 0)
(1.67276 0.0502918 0)
(1.68145 0.0542458 0)
(1.69734 0.0580066 0)
(1.70716 0.054736 0)
(1.71183 0.0468316 0)
(1.71583 0.0416239 0)
(1.72507 0.0382026 0)
(1.73597 0.0364459 0)
(1.74313 0.0352532 0)
(1.74794 0.0320356 0)
(1.75667 0.0251079 0)
(1.77629 0.0183774 0)
(1.80192 0.00890168 0)
(1.8286 0.0100548 0)
(1.85494 0.0134247 0)
(1.88346 0.0149505 0)
(1.90837 0.0193317 0)
(1.92903 0.0252099 0)
(1.95565 0.030542 0)
(1.99454 0.0368285 0)
(2.04736 0.0564015 0)
(2.11547 0.100883 0)
(2.1909 0.148783 0)
(2.23638 0.143837 0)
(2.24236 0.115931 0)
(2.23518 0.107784 0)
(2.21306 0.0941845 0)
(2.17115 0.0771724 0)
(2.11757 0.0684515 0)
(2.06394 0.0611361 0)
(2.01864 0.0546714 0)
(1.99079 0.04681 0)
(1.98293 0.0304017 0)
(1.99396 0.00878353 0)
(2.03126 -0.00541592 0)
(2.08097 -0.0221485 0)
(2.16075 -0.0369923 0)
(2.27914 -0.0337954 0)
(2.44832 -0.00909661 0)
(2.66001 0.0158621 0)
(2.90172 0.0618718 0)
(3.18286 0.149925 0)
(3.38924 0.286993 0)
(3.45609 0.369587 0)
(3.43426 0.354725 0)
(3.38424 0.304472 0)
(3.36388 0.264933 0)
(3.35783 0.243774 0)
(3.35335 0.224893 0)
(3.35031 0.217282 0)
(3.3418 0.199233 0)
(3.33213 0.190813 0)
(3.31786 0.173935 0)
(3.30533 0.146833 0)
(3.29791 0.143275 0)
(3.2911 0.138888 0)
(3.28248 0.129372 0)
(3.27474 0.127842 0)
(3.26241 0.12046 0)
(3.24409 0.100981 0)
(3.239 0.0811695 0)
(3.19046 0.124498 0)
(2.34134 -1.67961 0)
(2.34161 -1.67954 0)
(2.34153 -1.68005 0)
(2.34204 -1.67979 0)
(2.34195 -1.68039 0)
(2.34231 -1.68054 0)
(2.34272 -1.68075 0)
(2.34292 -1.68132 0)
(2.34337 -1.68167 0)
(2.34394 -1.68195 0)
(2.34427 -1.68262 0)
(2.34465 -1.68336 0)
(2.34554 -1.6835 0)
(2.34564 -1.68462 0)
(2.34662 -1.68482 0)
(2.34664 -1.68557 0)
(2.34724 -1.68557 0)
(2.34722 -1.68635 0)
(2.34792 -1.6863 0)
(2.34772 -1.68722 0)
(2.33395 -1.67046 0)
(2.24426 -1.56697 0)
(2.06897 -1.34977 0)
(1.85099 -0.987687 0)
(1.6564 -0.637522 0)
(1.52213 -0.337538 0)
(1.41721 -0.10348 0)
(1.36563 0.0253967 0)
(1.35667 0.0931139 0)
(1.37091 0.139292 0)
(1.41753 0.186218 0)
(1.44828 0.17886 0)
(1.47878 0.141466 0)
(1.48054 0.0928934 0)
(1.48156 0.0458906 0)
(1.48027 0.041499 0)
(1.47673 0.0507235 0)
(1.47096 0.0666084 0)
(1.47341 0.0719045 0)
(1.48761 0.0690249 0)
(1.50753 0.0690578 0)
(1.52167 0.0584591 0)
(1.53396 0.0414388 0)
(1.54384 0.0232336 0)
(1.55022 0.0189167 0)
(1.55383 0.0219028 0)
(1.55594 0.024017 0)
(1.55716 0.0197012 0)
(1.56665 0.00776572 0)
(1.58643 -0.00427567 0)
(1.60569 -0.00442811 0)
(1.62337 -0.00167628 0)
(1.64019 -0.000679638 0)
(1.64492 0.00579015 0)
(1.64258 0.0204592 0)
(1.64235 0.0320032 0)
(1.64708 0.03447 0)
(1.66088 0.0430562 0)
(1.68745 0.0643427 0)
(1.73553 0.0977755 0)
(1.80204 0.13208 0)
(1.85896 0.132381 0)
(1.88692 0.119809 0)
(1.88906 0.113983 0)
(1.88166 0.113059 0)
(1.86079 0.110525 0)
(1.8309 0.0994202 0)
(1.80344 0.0791953 0)
(1.78942 0.0623561 0)
(1.79063 0.0475155 0)
(1.80023 0.0279554 0)
(1.81677 0.00868824 0)
(1.84955 -0.00625488 0)
(1.89028 -0.0280299 0)
(1.94991 -0.0582685 0)
(2.03961 -0.0714698 0)
(2.16817 -0.0621038 0)
(2.34474 -0.037759 0)
(2.56576 -0.00417143 0)
(2.85065 0.0874539 0)
(3.19624 0.240129 0)
(3.3961 0.367342 0)
(3.42388 0.369477 0)
(3.38075 0.29911 0)
(3.35879 0.260938 0)
(3.3509 0.241563 0)
(3.34616 0.22433 0)
(3.3437 0.218046 0)
(3.33513 0.197625 0)
(3.32497 0.191622 0)
(3.31077 0.172607 0)
(3.29907 0.147252 0)
(3.29248 0.146067 0)
(3.28778 0.141459 0)
(3.27986 0.131159 0)
(3.27349 0.127892 0)
(3.26189 0.12065 0)
(3.24507 0.0970297 0)
(3.23855 0.0842553 0)
(3.19431 0.128271 0)
(2.34298 -1.68191 0)
(2.34331 -1.68212 0)
(2.34347 -1.68261 0)
(2.34383 -1.68289 0)
(2.34428 -1.68311 0)
(2.34452 -1.68368 0)
(2.34501 -1.68402 0)
(2.3456 -1.6843 0)
(2.34579 -1.68512 0)
(2.3465 -1.68527 0)
(2.34689 -1.68581 0)
(2.34728 -1.68639 0)
(2.34782 -1.6868 0)
(2.34826 -1.68731 0)
(2.34881 -1.68763 0)
(2.34901 -1.6883 0)
(2.34946 -1.68858 0)
(2.34962 -1.68908 0)
(2.34981 -1.68915 0)
(2.34963 -1.68925 0)
(2.34978 -1.68915 0)
(2.34968 -1.68946 0)
(2.34985 -1.68944 0)
(2.34926 -1.69021 0)
(2.346 -1.68757 0)
(2.25843 -1.58353 0)
(2.06879 -1.34242 0)
(1.8453 -0.969509 0)
(1.61852 -0.541866 0)
(1.51487 -0.249946 0)
(1.4236 0.0162294 0)
(1.42056 0.117281 0)
(1.42104 0.134909 0)
(1.43918 0.138308 0)
(1.41834 0.108274 0)
(1.41435 0.0740488 0)
(1.41525 0.0692314 0)
(1.41927 0.0584216 0)
(1.42781 0.0656029 0)
(1.44023 0.0658095 0)
(1.45857 0.0649664 0)
(1.46597 0.0469961 0)
(1.48225 0.0325216 0)
(1.49656 0.0219837 0)
(1.5011 0.0188064 0)
(1.50339 0.0180342 0)
(1.50576 0.0154271 0)
(1.50597 0.00228218 0)
(1.51037 -0.0142546 0)
(1.51995 -0.015765 0)
(1.52892 -0.0121933 0)
(1.544 -0.00597416 0)
(1.55248 0.00412961 0)
(1.54484 0.0105771 0)
(1.52936 0.019456 0)
(1.51204 0.0279292 0)
(1.50194 0.0313877 0)
(1.49891 0.0365943 0)
(1.5055 0.0541909 0)
(1.52936 0.0827695 0)
(1.57152 0.105662 0)
(1.61687 0.120352 0)
(1.65267 0.123793 0)
(1.6687 0.117251 0)
(1.67162 0.113177 0)
(1.67151 0.107965 0)
(1.66698 0.095104 0)
(1.66237 0.0719922 0)
(1.67141 0.0491001 0)
(1.69 0.0285283 0)
(1.70841 0.00657499 0)
(1.72618 -0.0136935 0)
(1.75416 -0.0337021 0)
(1.78712 -0.0616601 0)
(1.82401 -0.0932631 0)
(1.8763 -0.105985 0)
(1.96064 -0.101392 0)
(2.08513 -0.0876892 0)
(2.2542 -0.0665283 0)
(2.50188 0.00328437 0)
(2.87792 0.149498 0)
(3.24248 0.312688 0)
(3.38702 0.343076 0)
(3.37543 0.283531 0)
(3.3531 0.252997 0)
(3.3428 0.23427 0)
(3.33929 0.22055 0)
(3.33668 0.214765 0)
(3.32752 0.192094 0)
(3.31717 0.187649 0)
(3.30397 0.17045 0)
(3.29485 0.147156 0)
(3.2901 0.147157 0)
(3.2871 0.143008 0)
(3.27951 0.131003 0)
(3.2736 0.125169 0)
(3.26204 0.114053 0)
(3.24742 0.0901083 0)
(3.23748 0.085185 0)
(3.2018 0.128972 0)
(2.34638 -1.68385 0)
(2.34666 -1.68425 0)
(2.34702 -1.68452 0)
(2.34709 -1.68514 0)
(2.34757 -1.68534 0)
(2.34792 -1.68578 0)
(2.3482 -1.68631 0)
(2.34868 -1.68661 0)
(2.34892 -1.68719 0)
(2.34921 -1.68774 0)
(2.34966 -1.68804 0)
(2.34979 -1.68861 0)
(2.34998 -1.68909 0)
(2.35012 -1.68939 0)
(2.35023 -1.68959 0)
(2.35017 -1.68985 0)
(2.35019 -1.69004 0)
(2.35016 -1.69022 0)
(2.35012 -1.69049 0)
(2.35036 -1.69057 0)
(2.35019 -1.69099 0)
(2.35024 -1.69107 0)
(2.34987 -1.6914 0)
(2.34959 -1.69137 0)
(2.34956 -1.69118 0)
(2.3495 -1.69106 0)
(2.34945 -1.69092 0)
(2.34972 -1.69053 0)
(2.34016 -1.67529 0)
(2.22717 -1.52696 0)
(2.03747 -1.1846 0)
(1.8839 -0.779265 0)
(1.8296 -0.559342 0)
(1.69892 -0.262435 0)
(1.64035 -0.109319 0)
(1.60321 -0.0586336 0)
(1.53442 0.0371637 0)
(1.49494 0.0394066 0)
(1.47752 0.0744882 0)
(1.46835 0.0743344 0)
(1.46924 0.0591499 0)
(1.47213 0.0391096 0)
(1.50378 0.0395986 0)
(1.51252 0.0305365 0)
(1.50773 0.0231929 0)
(1.50255 0.0136449 0)
(1.49921 0.00115134 0)
(1.49851 -0.0164167 0)
(1.49907 -0.0278103 0)
(1.49932 -0.0272665 0)
(1.50356 -0.0240035 0)
(1.51183 -0.0143477 0)
(1.51512 0.00315174 0)
(1.50609 0.0216758 0)
(1.48981 0.0349873 0)
(1.46825 0.0418882 0)
(1.44933 0.0484347 0)
(1.44261 0.0550194 0)
(1.44353 0.0668037 0)
(1.45615 0.0851875 0)
(1.48087 0.103096 0)
(1.51474 0.11247 0)
(1.54716 0.116646 0)
(1.56824 0.11838 0)
(1.57807 0.116569 0)
(1.58748 0.111404 0)
(1.59968 0.0932768 0)
(1.61221 0.0587668 0)
(1.62722 0.0346836 0)
(1.64625 0.0166551 0)
(1.66478 -0.0024038 0)
(1.68485 -0.0228177 0)
(1.70943 -0.0445393 0)
(1.73345 -0.0718235 0)
(1.75439 -0.104647 0)
(1.77891 -0.132176 0)
(1.81882 -0.136585 0)
(1.88503 -0.126364 0)
(1.9999 -0.119745 0)
(2.18556 -0.0817655 0)
(2.50231 0.0403125 0)
(2.95706 0.22673 0)
(3.26076 0.318073 0)
(3.3389 0.29768 0)
(3.34296 0.257429 0)
(3.33823 0.231081 0)
(3.3357 0.216199 0)
(3.33102 0.203791 0)
(3.32084 0.179026 0)
(3.3113 0.178311 0)
(3.29951 0.164465 0)
(3.29413 0.141262 0)
(3.29083 0.150557 0)
(3.28756 0.152522 0)
(3.28007 0.140781 0)
(3.27488 0.127909 0)
(3.26321 0.102849 0)
(3.24976 0.0922739 0)
(3.23262 0.0912055 0)
(3.20315 0.130893 0)
(2.34889 -1.68713 0)
(2.3491 -1.68749 0)
(2.34943 -1.68765 0)
(2.34952 -1.68795 0)
(2.34961 -1.68846 0)
(2.34983 -1.68883 0)
(2.35004 -1.68916 0)
(2.35013 -1.68956 0)
(2.35019 -1.68998 0)
(2.35015 -1.69042 0)
(2.3502 -1.69074 0)
(2.35029 -1.69092 0)
(2.35022 -1.69123 0)
(2.35025 -1.69145 0)
(2.35034 -1.69157 0)
(2.35037 -1.69164 0)
(2.35036 -1.69163 0)
(2.35031 -1.69161 0)
(2.35026 -1.69158 0)
(2.35025 -1.69148 0)
(2.35011 -1.69142 0)
(2.35002 -1.69158 0)
(2.34988 -1.69113 0)
(2.34992 -1.69093 0)
(2.35 -1.69058 0)
(2.35033 -1.69006 0)
(2.35037 -1.68975 0)
(2.35061 -1.68852 0)
(2.35064 -1.68801 0)
(2.35044 -1.68762 0)
(2.35005 -1.68723 0)
(2.34967 -1.68696 0)
(2.34592 -1.67707 0)
(2.28615 -1.56777 0)
(2.19589 -1.34198 0)
(2.08094 -1.06924 0)
(1.9484 -0.708992 0)
(1.88704 -0.536581 0)
(1.77564 -0.302003 0)
(1.69555 -0.133342 0)
(1.6424 -0.0600844 0)
(1.59737 0.00494148 0)
(1.57334 0.0314617 0)
(1.54669 0.0377501 0)
(1.52828 0.0374608 0)
(1.51348 0.0314388 0)
(1.50323 0.0170437 0)
(1.50118 -0.00448713 0)
(1.49567 -0.0268357 0)
(1.48967 -0.0310492 0)
(1.48955 -0.0262035 0)
(1.49081 -0.0160106 0)
(1.48936 0.00491666 0)
(1.4876 0.0323327 0)
(1.47788 0.0528676 0)
(1.45794 0.0625484 0)
(1.44047 0.0719528 0)
(1.43499 0.0770982 0)
(1.43475 0.0825103 0)
(1.44372 0.0888179 0)
(1.46296 0.0957362 0)
(1.48979 0.104596 0)
(1.5171 0.112384 0)
(1.53855 0.113728 0)
(1.55212 0.106072 0)
(1.56255 0.0960642 0)
(1.57668 0.0740386 0)
(1.59726 0.0381036 0)
(1.61247 0.0150671 0)
(1.62834 -0.00645642 0)
(1.64268 -0.0254632 0)
(1.66511 -0.0462807 0)
(1.68945 -0.0679561 0)
(1.70783 -0.0923929 0)
(1.71575 -0.11964 0)
(1.71903 -0.145594 0)
(1.72678 -0.161371 0)
(1.7411 -0.154846 0)
(1.80289 -0.153915 0)
(1.91925 -0.144935 0)
(2.13798 -0.0625028 0)
(2.5584 0.0947541 0)
(2.98266 0.218543 0)
(3.19969 0.250444 0)
(3.2738 0.265079 0)
(3.29497 0.24503 0)
(3.30331 0.220782 0)
(3.30734 0.203235 0)
(3.30356 0.182555 0)
(3.29725 0.185845 0)
(3.28536 0.172843 0)
(3.27971 0.160181 0)
(3.27756 0.160825 0)
(3.27321 0.151127 0)
(3.26396 0.135333 0)
(3.25911 0.128058 0)
(3.24558 0.114813 0)
(3.21986 0.100045 0)
(3.18726 0.0989426 0)
(3.15371 0.131101 0)
(2.34916 -1.69094 0)
(2.34929 -1.69112 0)
(2.3494 -1.69135 0)
(2.34952 -1.69156 0)
(2.34972 -1.69168 0)
(2.34972 -1.69185 0)
(2.34987 -1.69189 0)
(2.3499 -1.69207 0)
(2.35001 -1.69212 0)
(2.3501 -1.6922 0)
(2.35017 -1.69223 0)
(2.35022 -1.69224 0)
(2.35025 -1.69222 0)
(2.35028 -1.69209 0)
(2.35027 -1.69198 0)
(2.35027 -1.69183 0)
(2.35027 -1.69164 0)
(2.35026 -1.69157 0)
(2.35029 -1.69128 0)
(2.35018 -1.69122 0)
(2.35011 -1.69093 0)
(2.35016 -1.69075 0)
(2.35034 -1.69038 0)
(2.35039 -1.69002 0)
(2.35076 -1.68947 0)
(2.35105 -1.68892 0)
(2.3509 -1.6885 0)
(2.35058 -1.68753 0)
(2.35072 -1.68684 0)
(2.35038 -1.68654 0)
(2.34994 -1.68597 0)
(2.34936 -1.68533 0)
(2.3488 -1.6845 0)
(2.34728 -1.68448 0)
(2.34516 -1.68464 0)
(2.3433 -1.68397 0)
(2.34092 -1.68452 0)
(2.33134 -1.6684 0)
(2.26176 -1.52329 0)
(2.14973 -1.25478 0)
(2.017 -0.902567 0)
(1.92179 -0.634933 0)
(1.79138 -0.363458 0)
(1.71932 -0.185109 0)
(1.60578 -0.0489691 0)
(1.54754 0.0129881 0)
(1.51321 0.00886703 0)
(1.50036 0.0030108 0)
(1.49001 -0.0137059 0)
(1.48301 -0.0198089 0)
(1.48075 -0.0153503 0)
(1.47621 -0.00647387 0)
(1.47093 0.0114549 0)
(1.47603 0.0383518 0)
(1.48007 0.0617646 0)
(1.47053 0.0772799 0)
(1.45821 0.0893142 0)
(1.45261 0.0916587 0)
(1.44766 0.0912044 0)
(1.45023 0.0894712 0)
(1.46774 0.0908329 0)
(1.49386 0.0961603 0)
(1.51789 0.0988693 0)
(1.53592 0.0988113 0)
(1.55255 0.0940797 0)
(1.56274 0.0810551 0)
(1.56847 0.0584217 0)
(1.58115 0.0250434 0)
(1.59192 -0.00329214 0)
(1.61258 -0.0270742 0)
(1.63226 -0.0460275 0)
(1.65331 -0.0636252 0)
(1.67252 -0.0838701 0)
(1.68518 -0.102731 0)
(1.69008 -0.126335 0)
(1.68296 -0.153017 0)
(1.6692 -0.174105 0)
(1.65222 -0.181629 0)
(1.65871 -0.177763 0)
(1.72396 -0.172807 0)
(1.85094 -0.129766 0)
(2.11937 -0.0194211 0)
(2.51759 0.136033 0)
(2.84917 0.210371 0)
(3.03991 0.209293 0)
(3.13186 0.187474 0)
(3.17914 0.187506 0)
(3.20605 0.192351 0)
(3.2167 0.175857 0)
(3.22331 0.172162 0)
(3.21418 0.151755 0)
(3.20396 0.127513 0)
(3.20014 0.131253 0)
(3.19122 0.123243 0)
(3.17486 0.118706 0)
(3.15859 0.111641 0)
(3.13531 0.109127 0)
(3.08405 0.105134 0)
(3.02754 0.111106 0)
(2.99668 0.143163 0)
(2.35031 -1.69167 0)
(2.35039 -1.69167 0)
(2.35043 -1.69172 0)
(2.35048 -1.69168 0)
(2.35051 -1.6916 0)
(2.3505 -1.69151 0)
(2.35048 -1.69143 0)
(2.35045 -1.69144 0)
(2.35044 -1.6914 0)
(2.35042 -1.69138 0)
(2.3504 -1.69128 0)
(2.35039 -1.6912 0)
(2.35039 -1.691 0)
(2.35031 -1.69095 0)
(2.35029 -1.69087 0)
(2.35032 -1.69079 0)
(2.35033 -1.69067 0)
(2.35032 -1.69054 0)
(2.35036 -1.69032 0)
(2.35059 -1.68993 0)
(2.35068 -1.68955 0)
(2.35053 -1.68923 0)
(2.35089 -1.68853 0)
(2.35104 -1.68794 0)
(2.35087 -1.68776 0)
(2.35066 -1.68715 0)
(2.35069 -1.68666 0)
(2.35041 -1.68617 0)
(2.35007 -1.68576 0)
(2.34966 -1.68544 0)
(2.34907 -1.6852 0)
(2.34825 -1.68532 0)
(2.34761 -1.68489 0)
(2.34715 -1.68403 0)
(2.34488 -1.68475 0)
(2.3431 -1.68455 0)
(2.34171 -1.68298 0)
(2.34055 -1.68026 0)
(2.33484 -1.68106 0)
(2.32785 -1.68104 0)
(2.32487 -1.6728 0)
(2.2983 -1.69919 0)
(2.23431 -1.60031 0)
(2.10223 -1.27127 0)
(1.93696 -0.901321 0)
(1.72581 -0.458903 0)
(1.65387 -0.227708 0)
(1.51403 -0.0338249 0)
(1.46412 -0.0015956 0)
(1.45067 -0.000581404 0)
(1.44958 -0.00319802 0)
(1.44942 -0.00184387 0)
(1.45246 0.0138127 0)
(1.46049 0.038363 0)
(1.478 0.0679555 0)
(1.48493 0.0923719 0)
(1.48556 0.106154 0)
(1.47988 0.104671 0)
(1.47184 0.0991326 0)
(1.47113 0.0912902 0)
(1.48468 0.0856076 0)
(1.50434 0.084989 0)
(1.52489 0.0850602 0)
(1.54479 0.0882185 0)
(1.56181 0.0846588 0)
(1.56687 0.0710171 0)
(1.56696 0.0455676 0)
(1.57712 0.0085252 0)
(1.5829 -0.0244854 0)
(1.59702 -0.0493876 0)
(1.61634 -0.068673 0)
(1.63591 -0.0837434 0)
(1.65473 -0.0991277 0)
(1.66914 -0.114989 0)
(1.67392 -0.130668 0)
(1.66223 -0.1536 0)
(1.63394 -0.177077 0)
(1.59457 -0.192754 0)
(1.56941 -0.196349 0)
(1.60096 -0.193163 0)
(1.65924 -0.160061 0)
(1.78755 -0.0725348 0)
(2.02838 0.0160315 0)
(2.3159 0.110695 0)
(2.56388 0.176818 0)
(2.72866 0.194702 0)
(2.8315 0.197677 0)
(2.89597 0.198668 0)
(2.93256 0.18652 0)
(2.96018 0.189149 0)
(2.96012 0.173443 0)
(2.95068 0.16102 0)
(2.94787 0.161448 0)
(2.9339 0.149189 0)
(2.91351 0.132544 0)
(2.89268 0.121319 0)
(2.86195 0.127499 0)
(2.80763 0.125234 0)
(2.74308 0.112549 0)
(2.76351 0.132998 0)
(2.35015 -1.69051 0)
(2.3501 -1.69044 0)
(2.35004 -1.69039 0)
(2.35002 -1.69029 0)
(2.34998 -1.69026 0)
(2.35 -1.69028 0)
(2.35003 -1.69033 0)
(2.35006 -1.69038 0)
(2.3501 -1.69042 0)
(2.35016 -1.69042 0)
(2.35023 -1.69037 0)
(2.35027 -1.69028 0)
(2.35032 -1.69014 0)
(2.35038 -1.68989 0)
(2.35036 -1.68964 0)
(2.35062 -1.68909 0)
(2.35057 -1.68883 0)
(2.35048 -1.68858 0)
(2.35077 -1.68789 0)
(2.35055 -1.68764 0)
(2.35028 -1.68744 0)
(2.35031 -1.68691 0)
(2.35003 -1.6866 0)
(2.34972 -1.68643 0)
(2.34953 -1.6862 0)
(2.34936 -1.68569 0)
(2.34928 -1.68555 0)
(2.34909 -1.68539 0)
(2.34877 -1.68527 0)
(2.34858 -1.68522 0)
(2.34843 -1.68497 0)
(2.34773 -1.6849 0)
(2.34616 -1.68573 0)
(2.34547 -1.68518 0)
(2.34531 -1.68396 0)
(2.34261 -1.68511 0)
(2.34093 -1.68516 0)
(2.34051 -1.68242 0)
(2.33737 -1.68163 0)
(2.33287 -1.68093 0)
(2.32663 -1.67914 0)
(2.321 -1.6693 0)
(2.30733 -1.65858 0)
(2.29242 -1.63941 0)
(2.26336 -1.64707 0)
(2.21661 -1.61155 0)
(2.07836 -1.37781 0)
(1.85768 -0.914824 0)
(1.70502 -0.499822 0)
(1.54564 -0.187571 0)
(1.43202 -0.0318322 0)
(1.4078 -0.0306739 0)
(1.42098 -0.00776935 0)
(1.4458 0.018226 0)
(1.47315 0.0568648 0)
(1.4862 0.0959298 0)
(1.50244 0.117611 0)
(1.50028 0.115675 0)
(1.49645 0.1062 0)
(1.49872 0.0910411 0)
(1.50958 0.0815908 0)
(1.5231 0.0769047 0)
(1.54143 0.0765241 0)
(1.562 0.0790828 0)
(1.57316 0.0755934 0)
(1.57538 0.062176 0)
(1.57015 0.0359187 0)
(1.57574 -0.00145345 0)
(1.58524 -0.0432199 0)
(1.59382 -0.071735 0)
(1.6104 -0.0891181 0)
(1.62911 -0.101448 0)
(1.64838 -0.111517 0)
(1.66415 -0.1198 0)
(1.66706 -0.12853 0)
(1.64995 -0.146638 0)
(1.61187 -0.175796 0)
(1.55805 -0.201216 0)
(1.51961 -0.208083 0)
(1.52634 -0.197306 0)
(1.557 -0.171592 0)
(1.61846 -0.104146 0)
(1.71239 -0.00632251 0)
(1.85688 0.072096 0)
(2.01812 0.116461 0)
(2.15583 0.136525 0)
(2.26282 0.156409 0)
(2.34755 0.170339 0)
(2.40393 0.157064 0)
(2.45412 0.170224 0)
(2.48138 0.164614 0)
(2.49436 0.148943 0)
(2.50867 0.143744 0)
(2.51195 0.12723 0)
(2.51906 0.12722 0)
(2.52033 0.115866 0)
(2.51505 0.120039 0)
(2.505 0.128764 0)
(2.48469 0.1247 0)
(2.56965 0.13532 0)
(2.34957 -1.68965 0)
(2.34958 -1.68963 0)
(2.34958 -1.68963 0)
(2.34964 -1.68958 0)
(2.34969 -1.6895 0)
(2.34967 -1.68945 0)
(2.34984 -1.68919 0)
(2.34982 -1.68912 0)
(2.34998 -1.68892 0)
(2.35018 -1.68866 0)
(2.35017 -1.6886 0)
(2.35048 -1.68816 0)
(2.35039 -1.68796 0)
(2.35026 -1.68776 0)
(2.35033 -1.68724 0)
(2.35005 -1.68707 0)
(2.34992 -1.68678 0)
(2.34976 -1.68645 0)
(2.3494 -1.68639 0)
(2.34921 -1.68613 0)
(2.34891 -1.68595 0)
(2.34862 -1.68582 0)
(2.3485 -1.6856 0)
(2.34834 -1.68549 0)
(2.34821 -1.68539 0)
(2.34823 -1.68535 0)
(2.34825 -1.68532 0)
(2.34822 -1.68526 0)
(2.34814 -1.68515 0)
(2.34731 -1.68547 0)
(2.3466 -1.68555 0)
(2.34622 -1.68517 0)
(2.34443 -1.68593 0)
(2.34346 -1.68599 0)
(2.34323 -1.68495 0)
(2.34229 -1.6845 0)
(2.34075 -1.68496 0)
(2.33998 -1.68379 0)
(2.33966 -1.68173 0)
(2.3359 -1.68274 0)
(2.33395 -1.67922 0)
(2.32959 -1.67519 0)
(2.316 -1.67735 0)
(2.3023 -1.67311 0)
(2.2971 -1.63899 0)
(2.28114 -1.61102 0)
(2.23343 -1.6201 0)
(2.19989 -1.64072 0)
(2.16587 -1.57838 0)
(2.00381 -1.25877 0)
(1.78506 -0.77935 0)
(1.64337 -0.394397 0)
(1.442 -0.0847934 0)
(1.41236 -0.0231852 0)
(1.4456 0.0479651 0)
(1.47433 0.0984588 0)
(1.50081 0.121013 0)
(1.51411 0.118602 0)
(1.52605 0.107957 0)
(1.5376 0.0932303 0)
(1.54538 0.0795198 0)
(1.55169 0.0697565 0)
(1.56632 0.0667798 0)
(1.58214 0.0699638 0)
(1.59108 0.0666872 0)
(1.5948 0.0530018 0)
(1.59055 0.0246308 0)
(1.58812 -0.0162505 0)
(1.59529 -0.0551289 0)
(1.6025 -0.0874521 0)
(1.61233 -0.103048 0)
(1.62908 -0.115216 0)
(1.64781 -0.122689 0)
(1.66525 -0.124878 0)
(1.66949 -0.12674 0)
(1.64772 -0.137969 0)
(1.59801 -0.165848 0)
(1.53147 -0.195151 0)
(1.48217 -0.202969 0)
(1.47313 -0.184412 0)
(1.48836 -0.157202 0)
(1.52523 -0.097961 0)
(1.5749 -0.0228587 0)
(1.62474 0.0448709 0)
(1.67881 0.0982197 0)
(1.73982 0.133987 0)
(1.80303 0.15526 0)
(1.86954 0.164767 0)
(1.92882 0.165839 0)
(1.99235 0.1684 0)
(2.04864 0.158545 0)
(2.09473 0.151294 0)
(2.13844 0.150649 0)
(2.17561 0.12994 0)
(2.22048 0.127044 0)
(2.25663 0.118072 0)
(2.28951 0.129617 0)
(2.32704 0.134708 0)
(2.33608 0.113733 0)
(2.44056 0.116421 0)
(2.34906 -1.68863 0)
(2.34914 -1.68844 0)
(2.34911 -1.68837 0)
(2.34926 -1.68811 0)
(2.34929 -1.68794 0)
(2.34927 -1.68784 0)
(2.3494 -1.68757 0)
(2.34936 -1.68743 0)
(2.34944 -1.68714 0)
(2.34949 -1.68684 0)
(2.34941 -1.68674 0)
(2.3494 -1.68655 0)
(2.34925 -1.68638 0)
(2.34902 -1.68632 0)
(2.34879 -1.68598 0)
(2.3487 -1.68579 0)
(2.34848 -1.68562 0)
(2.34823 -1.68549 0)
(2.34803 -1.68539 0)
(2.34788 -1.68534 0)
(2.34781 -1.68532 0)
(2.34775 -1.68534 0)
(2.3477 -1.68529 0)
(2.34763 -1.68521 0)
(2.34742 -1.68522 0)
(2.34726 -1.68514 0)
(2.34693 -1.68519 0)
(2.34637 -1.68544 0)
(2.34613 -1.68525 0)
(2.34514 -1.68557 0)
(2.34411 -1.68591 0)
(2.34381 -1.68549 0)
(2.34285 -1.68548 0)
(2.34222 -1.68578 0)
(2.34193 -1.68538 0)
(2.34177 -1.68468 0)
(2.3407 -1.685 0)
(2.33998 -1.68483 0)
(2.33964 -1.68315 0)
(2.33897 -1.68172 0)
(2.33675 -1.68122 0)
(2.33565 -1.67709 0)
(2.33001 -1.67499 0)
(2.31793 -1.678 0)
(2.30894 -1.66813 0)
(2.30393 -1.64057 0)
(2.27943 -1.62348 0)
(2.22783 -1.63345 0)
(2.20349 -1.62588 0)
(2.19951 -1.60654 0)
(2.20094 -1.58763 0)
(2.13859 -1.465 0)
(1.92104 -1.06924 0)
(1.76674 -0.644557 0)
(1.54917 -0.223586 0)
(1.52932 -0.0708399 0)
(1.53727 0.0298175 0)
(1.55284 0.0879654 0)
(1.56514 0.100453 0)
(1.57304 0.0950754 0)
(1.57683 0.0861143 0)
(1.58505 0.0736272 0)
(1.5986 0.0641635 0)
(1.60742 0.06196 0)
(1.61191 0.0550514 0)
(1.61523 0.0396928 0)
(1.61384 0.014154 0)
(1.60654 -0.0249391 0)
(1.61006 -0.0602813 0)
(1.61687 -0.0919154 0)
(1.62106 -0.1095 0)
(1.63348 -0.122184 0)
(1.65042 -0.129829 0)
(1.6677 -0.128428 0)
(1.67114 -0.123755 0)
(1.6467 -0.130223 0)
(1.59215 -0.152488 0)
(1.52085 -0.177155 0)
(1.47127 -0.181113 0)
(1.45527 -0.162129 0)
(1.45696 -0.129749 0)
(1.47329 -0.0759403 0)
(1.50217 -0.0173071 0)
(1.52357 0.0380786 0)
(1.54994 0.0767705 0)
(1.58287 0.105135 0)
(1.623 0.122787 0)
(1.6709 0.13355 0)
(1.72598 0.135898 0)
(1.79053 0.142285 0)
(1.85555 0.137883 0)
(1.91469 0.129504 0)
(1.97028 0.125548 0)
(2.01956 0.102489 0)
(2.07259 0.107943 0)
(2.12163 0.104195 0)
(2.17106 0.118293 0)
(2.21553 0.127703 0)
(2.22346 0.101767 0)
(2.33556 0.0983476 0)
(2.34868 -1.68655 0)
(2.34873 -1.68641 0)
(2.34878 -1.68624 0)
(2.3487 -1.68618 0)
(2.3488 -1.68594 0)
(2.34877 -1.68585 0)
(2.34871 -1.68575 0)
(2.34859 -1.68566 0)
(2.34855 -1.68542 0)
(2.34851 -1.68513 0)
(2.34843 -1.68499 0)
(2.34829 -1.68494 0)
(2.34808 -1.68493 0)
(2.34801 -1.685 0)
(2.34798 -1.68504 0)
(2.3479 -1.68506 0)
(2.34778 -1.68502 0)
(2.34758 -1.68498 0)
(2.3474 -1.68491 0)
(2.34713 -1.68488 0)
(2.34687 -1.68476 0)
(2.34642 -1.68478 0)
(2.34603 -1.6848 0)
(2.34586 -1.6846 0)
(2.34513 -1.6849 0)
(2.34466 -1.68513 0)
(2.3445 -1.68513 0)
(2.34386 -1.6855 0)
(2.34352 -1.6855 0)
(2.34312 -1.68539 0)
(2.34247 -1.68547 0)
(2.34215 -1.6854 0)
(2.3418 -1.68542 0)
(2.34144 -1.68558 0)
(2.34103 -1.68549 0)
(2.34092 -1.68534 0)
(2.34093 -1.68462 0)
(2.34058 -1.68389 0)
(2.34026 -1.68356 0)
(2.33974 -1.68274 0)
(2.3386 -1.68212 0)
(2.33754 -1.68001 0)
(2.33675 -1.67608 0)
(2.32809 -1.67735 0)
(2.31806 -1.67908 0)
(2.31146 -1.66632 0)
(2.30517 -1.64409 0)
(2.27958 -1.63491 0)
(2.24018 -1.63993 0)
(2.21676 -1.63334 0)
(2.20604 -1.60906 0)
(2.20769 -1.58129 0)
(2.20713 -1.5702 0)
(2.20095 -1.5652 0)
(2.06697 -1.35492 0)
(1.89073 -0.946572 0)
(1.71843 -0.457732 0)
(1.66641 -0.141845 0)
(1.67174 -0.0197426 0)
(1.64695 0.091179 0)
(1.62682 0.0855545 0)
(1.62813 0.0811182 0)
(1.63078 0.0677833 0)
(1.63164 0.0623101 0)
(1.63493 0.0511182 0)
(1.6413 0.0350638 0)
(1.6435 0.0106884 0)
(1.63531 -0.024854 0)
(1.63133 -0.0595467 0)
(1.63354 -0.0873281 0)
(1.63706 -0.110061 0)
(1.64133 -0.125609 0)
(1.65316 -0.136619 0)
(1.66732 -0.136771 0)
(1.66829 -0.129485 0)
(1.64384 -0.1282 0)
(1.59154 -0.142283 0)
(1.53278 -0.156445 0)
(1.49995 -0.150708 0)
(1.48693 -0.134004 0)
(1.48176 -0.0983965 0)
(1.4816 -0.0489631 0)
(1.48488 -0.00466782 0)
(1.4982 0.026718 0)
(1.51947 0.048109 0)
(1.54508 0.0663125 0)
(1.57725 0.076476 0)
(1.61729 0.0859681 0)
(1.66554 0.0905925 0)
(1.72636 0.0977317 0)
(1.7853 0.0973451 0)
(1.83635 0.0921456 0)
(1.88344 0.0909894 0)
(1.92893 0.0714374 0)
(1.97545 0.0868648 0)
(2.02118 0.0883826 0)
(2.06539 0.108207 0)
(2.11334 0.114365 0)
(2.15326 0.0743141 0)
(2.26946 0.0774116 0)
(2.34753 -1.68501 0)
(2.34753 -1.68483 0)
(2.34757 -1.68462 0)
(2.34755 -1.68461 0)
(2.34768 -1.68474 0)
(2.34785 -1.68474 0)
(2.34781 -1.68471 0)
(2.34775 -1.68469 0)
(2.34776 -1.68457 0)
(2.34768 -1.68442 0)
(2.34763 -1.68437 0)
(2.34756 -1.68433 0)
(2.34739 -1.68433 0)
(2.3472 -1.68428 0)
(2.34693 -1.68425 0)
(2.34644 -1.6844 0)
(2.3462 -1.68429 0)
(2.34579 -1.68429 0)
(2.34517 -1.6845 0)
(2.34479 -1.68451 0)
(2.34462 -1.68435 0)
(2.34412 -1.6845 0)
(2.34354 -1.68481 0)
(2.34338 -1.68465 0)
(2.34307 -1.68469 0)
(2.34247 -1.68501 0)
(2.34233 -1.68516 0)
(2.34213 -1.6853 0)
(2.342 -1.68533 0)
(2.34168 -1.68544 0)
(2.34165 -1.68528 0)
(2.3414 -1.68547 0)
(2.3408 -1.68528 0)
(2.34075 -1.68513 0)
(2.34077 -1.68467 0)
(2.34062 -1.68454 0)
(2.34066 -1.68471 0)
(2.34101 -1.68389 0)
(2.34116 -1.68278 0)
(2.34112 -1.68242 0)
(2.34014 -1.68236 0)
(2.33867 -1.68203 0)
(2.33804 -1.67869 0)
(2.33505 -1.67609 0)
(2.32573 -1.67817 0)
(2.31764 -1.677 0)
(2.31056 -1.66662 0)
(2.29818 -1.65487 0)
(2.27386 -1.65345 0)
(2.2535 -1.64416 0)
(2.23323 -1.63301 0)
(2.21559 -1.62533 0)
(2.20737 -1.59809 0)
(2.21145 -1.5682 0)
(2.21104 -1.5649 0)
(2.20426 -1.58012 0)
(2.17796 -1.5399 0)
(2.07838 -1.29129 0)
(1.96559 -0.888914 0)
(1.87032 -0.47613 0)
(1.85569 -0.275628 0)
(1.7687 -0.0839012 0)
(1.73342 -0.0257997 0)
(1.68854 0.0259353 0)
(1.6763 0.0239046 0)
(1.67672 0.0241859 0)
(1.66839 0.0105154 0)
(1.65455 -0.0152733 0)
(1.6548 -0.04536 0)
(1.65539 -0.0764063 0)
(1.65465 -0.110892 0)
(1.65086 -0.133264 0)
(1.65421 -0.149187 0)
(1.66262 -0.152693 0)
(1.66073 -0.144268 0)
(1.63954 -0.135006 0)