/*--------------------------------*- C++ -*----------------------------------*\
  =========                 |
  \\      /  F ield         | OpenFOAM: The Open Source CFD Toolbox
   \\    /   O peration     | Website:  https://openfoam.org
    \\  /    A nd           | Version:  7
     \\/     M anipulation  |
\*---------------------------------------------------------------------------*/
FoamFile
{
    version     2.0;
    format      ascii;
    class       volScalarField;
    location    "1";
    object      p;
}
// * * * * * * * * * * * * * * * * * * * * * * * * * * * * * * * * * * * * * //

dimensions      [1 -1 -2 0 0 0 0];

internalField   nonuniform List<scalar> 
8400
(
0.270077
0.39911
0.534723
0.668534
0.785974
0.870313
0.952037
0.961133
0.938654
0.945734
0.939069
0.926206
0.901937
0.857583
0.810016
0.80008
0.798645
0.807795
0.814384
0.813856
0.809684
0.813894
0.831323
0.845712
0.848566
0.845581
0.84126
0.839491
0.841269
0.860739
0.156218
0.155962
0.160071
0.176076
0.215675
0.284515
0.390449
0.552237
0.678852
0.760124
0.830532
0.896072
0.922061
0.900445
0.871597
0.846433
0.814133
0.7886
0.784875
0.795667
0.80465
0.805944
0.8172
0.834648
0.846265
0.84094
0.826597
0.827397
0.833692
0.855524
0.156762
0.156506
0.155149
0.153581
0.151785
0.150289
0.146686
0.144973
0.16584
0.207182
0.275608
0.3763
0.509725
0.652918
0.764078
0.813516
0.81667
0.799351
0.786122
0.790135
0.793458
0.792275
0.796545
0.806546
0.815021
0.824185
0.833765
0.834736
0.82847
0.845014
0.149336
0.149107
0.147839
0.146943
0.146409
0.145804
0.144585
0.140322
0.130783
0.113918
0.0942079
0.0850949
0.100648
0.159478
0.274734
0.413236
0.554077
0.668118
0.739366
0.76502
0.778718
0.790887
0.805055
0.817915
0.824066
0.827161
0.824619
0.822356
0.816755
0.833866
0.142137
0.141229
0.140238
0.139864
0.139997
0.140285
0.140122
0.138119
0.134782
0.128457
0.116914
0.104605
0.10025
0.101223
0.104265
0.114463
0.150984
0.231616
0.352922
0.476393
0.585665
0.672808
0.722874
0.75466
0.7745
0.786751
0.788613
0.78974
0.790622
0.816236
0.136974
0.136699
0.136808
0.138244
0.140129
0.141277
0.140944
0.139782
0.141189
0.143465
0.142102
0.129797
0.118773
0.118533
0.12118
0.127879
0.13734
0.149345
0.16198
0.190211
0.24406
0.323639
0.410761
0.495778
0.575764
0.640453
0.682836
0.710822
0.72838
0.778046
0.1433
0.145841
0.148594
0.151902
0.155929
0.160033
0.16437
0.171386
0.178967
0.181296
0.181392
0.17378
0.157926
0.155045
0.158457
0.165183
0.175998
0.189322
0.202311
0.216157
0.235396
0.255655
0.280157
0.314148
0.366498
0.437536
0.516858
0.596087
0.660202
0.775839
0.167055
0.169945
0.173299
0.177628
0.183475
0.189903
0.196561
0.204195
0.212443
0.21566
0.21619
0.210084
0.190544
0.180362
0.182144
0.187457
0.195968
0.209057
0.22588
0.243311
0.262589
0.284896
0.312144
0.34245
0.378077
0.429622
0.501956
0.587225
0.662792
0.790479
0.188864
0.192746
0.197371
0.202762
0.208897
0.21572
0.223494
0.234016
0.245039
0.249098
0.250098
0.246962
0.228245
0.210307
0.209552
0.214545
0.225864
0.24262
0.262787
0.286241
0.310714
0.338537
0.371232
0.407675
0.44517
0.485478
0.537768
0.610101
0.691337
0.831655
0.23292
0.238978
0.245418
0.252808
0.261266
0.269926
0.278203
0.288203
0.300176
0.305729
0.307371
0.306163
0.290712
0.269849
0.267603
0.272138
0.283264
0.30095
0.321717
0.345153
0.373603
0.406087
0.440849
0.478793
0.522007
0.571855
0.630378
0.70169
0.781281
0.902678
0.278635
0.284921
0.291985
0.300178
0.309006
0.317749
0.326336
0.336915
0.349552
0.354908
0.356486
0.355767
0.341412
0.317488
0.313308
0.318387
0.329613
0.347868
0.3733
0.403161
0.43566
0.472566
0.516168
0.566301
0.621114
0.680003
0.744846
0.817607
0.891538
0.967556
0.336677
0.34504
0.354345
0.364832
0.375499
0.38516
0.39389
0.404466
0.415929
0.420924
0.422938
0.422374
0.408613
0.386777
0.38353
0.388871
0.402179
0.424481
0.453619
0.487417
0.526048
0.569447
0.617441
0.67101
0.731085
0.796792
0.864778
0.927635
0.972972
0.995951
0.411621
0.422601
0.434171
0.445993
0.456321
0.465321
0.474506
0.48371
0.491496
0.496091
0.49813
0.49637
0.480427
0.462972
0.463131
0.470476
0.485942
0.511569
0.546096
0.586225
0.630857
0.680303
0.734386
0.792308
0.852379
0.910356
0.958147
0.987199
0.997878
0.999878
0.512973
0.525328
0.537465
0.546415
0.55438
0.565086
0.574048
0.577853
0.582645
0.586883
0.587933
0.580845
0.562855
0.556858
0.561095
0.571775
0.591785
0.623503
0.663948
0.709263
0.75809
0.809488
0.861342
0.910367
0.951996
0.98102
0.995309
0.999396
0.999963
0.999999
0.649666
0.655547
0.661977
0.671814
0.683678
0.688414
0.690257
0.69142
0.692398
0.691818
0.686378
0.673369
0.666698
0.670225
0.678529
0.693959
0.720582
0.75774
0.800346
0.844355
0.887446
0.926842
0.959173
0.981813
0.994224
0.998874
0.999883
0.999994
1
1
0.825341
0.823615
0.822216
0.820847
0.820843
0.819896
0.816261
0.812135
0.808176
0.801734
0.790969
0.787018
0.790787
0.79785
0.810023
0.830626
0.859629
0.892536
0.924299
0.951924
0.973525
0.987993
0.995811
0.998978
0.999844
0.999986
0.999999
1
1
1
0.981385
0.971129
0.960444
0.949436
0.940017
0.931975
0.924763
0.918307
0.911104
0.902508
0.900083
0.902832
0.907899
0.915825
0.928125
0.944443
0.961795
0.976738
0.987659
0.994529
0.998081
0.999494
0.999905
0.999988
0.999999
1
1
1
1
1
1.0268
1.02095
1.01399
1.00609
0.997751
0.990628
0.98508
0.980314
0.975551
0.97352
0.974308
0.976229
0.979076
0.983114
0.988071
0.992857
0.99639
0.998457
0.999459
0.999852
0.99997
0.999995
0.999999
1
1
1
1
1
1
1
1.01587
1.0124
1.00921
1.00659
1.00447
1.00221
1.00014
0.998408
0.997363
0.997287
0.997481
0.997838
0.998329
0.998908
0.999429
0.999763
0.999918
0.999976
0.999994
0.999999
1
1
1
1
1
1
1
1
1
1
1.00333
1.00261
1.00194
1.00127
1.00077
1.00045
1.00024
1.00007
0.99995
0.999926
0.999931
0.999944
0.999962
0.999981
0.999993
0.999998
0.999999
1
1
1
1
1
1
1
1
1
1
1
1
1
1.00015
1.00011
1.00008
1.00005
1.00003
1.00002
1.00001
1.00001
1.00001
1
1
1
1
1
1
1
1
1
1
1
1
1
1
1
1
1
1
1
1
1
1
1
1
1
1
1
1
1
1
1
1
1
1
1
1
1
1
1
1
1
1
1
1
1
1
1
1
1
1
1
1
1
1
1
1
1
1
1
1
1
1
1
1
1
1
1
1
1
1
1
1
1
1
1
1
1
1
1
1
1
1
1
1
1
1
1
1
1
1
1
1
1
1
1
1
1
1
1
1
1
1
1
1
1
1
1
1
1
1
1
1
1
1
1
1
1
1
1
1
1
1
1
1
1
1
1
1
1
1
1
1
1
1
1
1
1
1
1
1
1
1
1
1
1
1
1
1
1
1
1
1
1
1
1
1
1
1
1
1
1
1
1
1
1
1
1
1
1
1
1
1
1
1
1
1
1
1
1
1
1
1
1
1
1
1
1
1
1
1
1
1
1
1
1
1
1
1
1
1
1
1
1
1
1
1
1
1
1
1
1
1
1
1
1
1
1
1
1
1
1
1
1
1
1
1
1
1
1
1
1
1
1
1
1
1
1
1
1
1
1
1
1
1
1
1
1
1
1
1
1
1
1
1
1
1
1
1
1
1
1
1
1
1
1
1
1
1
1
1
1
1
1
1
1
1
1
1
1
1
1
1
1
1
1
1
1
1
1
1
1
0.153221
0.152277
0.152849
0.146572
0.141937
0.13608
0.140308
0.163189
0.182676
0.222893
0.267683
0.32407
0.397192
0.498772
0.644545
0.833175
0.997949
1.03435
1.021
1.0045
1.00023
1
1
1
1
1
1
1
1
1
0.149078
0.142231
0.141099
0.134511
0.130094
0.128433
0.13772
0.16145
0.176293
0.213373
0.256161
0.314359
0.391219
0.500879
0.664358
0.880117
1.03233
1.04489
1.02639
1.00519
1.00022
1
1
1
1
1
1
1
1
1
0.135619
0.125597
0.127855
0.121999
0.115888
0.110509
0.114136
0.13314
0.146605
0.182602
0.229355
0.293082
0.377729
0.500191
0.687299
0.923
1.05452
1.05542
1.03227
1.00604
1.00025
1
1
1
1
1
1
1
1
1
0.1239
0.112958
0.115401
0.107947
0.0970185
0.0884157
0.0890714
0.109246
0.131801
0.17259
0.223828
0.290401
0.380965
0.515628
0.725455
0.966522
1.07092
1.06946
1.03802
1.00657
1.00025
1
1
1
1
1
1
1
1
1
0.112704
0.100925
0.101648
0.0919891
0.077001
0.0695049
0.0726237
0.098077
0.127223
0.170961
0.225243
0.295972
0.394678
0.543534
0.765039
1.00369
1.08709
1.08332
1.04274
1.00676
1.00023
1
1
1
1
1
1
1
1
1
0.101682
0.0902643
0.0882688
0.0762324
0.0606867
0.0567293
0.0650753
0.0933894
0.126651
0.171248
0.228206
0.30504
0.412609
0.571228
0.806013
1.03972
1.10636
1.09717
1.04621
1.00658
1.0002
1
1
1
1
1
1
1
1
1
0.0925789
0.0829826
0.0789075
0.0633933
0.0492022
0.0487353
0.0631945
0.0916615
0.125683
0.171437
0.233775
0.318315
0.431024
0.598944
0.85052
1.07701
1.12678
1.11035
1.04767
1.00599
1.00016
1
1
1
1
1
1
1
1
1
0.0864193
0.0784151
0.0741162
0.0550454
0.0421158
0.0439979
0.0631582
0.0896346
0.126167
0.175701
0.243437
0.329905
0.448476
0.633206
0.903427
1.11488
1.14672
1.12229
1.0477
1.00518
1.00012
1
1
1
1
1
1
1
1
1
0.0820713
0.0743288
0.0690669
0.0495631
0.0383315
0.0420619
0.064266
0.0896747
0.129984
0.183239
0.252344
0.341959
0.473023
0.681479
0.963293
1.14896
1.16795
1.13181
1.04527
1.00413
1.00008
1
1
1
1
1
1
1
1
1
0.078682
0.0708878
0.0593075
0.0421305
0.0366504
0.0418458
0.0684995
0.0943844
0.136175
0.190817
0.263651
0.364303
0.514868
0.737352
1.02345
1.18099
1.19025
1.13743
1.04097
1.00308
1.00005
1
1
1
1
1
1
1
1
1
0.0749784
0.0672351
0.0471335
0.0337038
0.0361169
0.0437232
0.0733045
0.100696
0.143013
0.203085
0.287773
0.403463
0.56027
0.79698
1.08252
1.21208
1.21144
1.13911
1.03526
1.00216
1.00003
1
1
1
1
1
1
1
1
1
0.0711109
0.060182
0.0374429
0.0299036
0.0375574
0.0484076
0.0757918
0.109123
0.158807
0.228722
0.319331
0.435288
0.601679
0.859763
1.14465
1.24307
1.23
1.13578
1.0285
1.00139
1.00002
1
1
1
1
1
1
1
1
1
0.0675581
0.0485115
0.0318736
0.0287395
0.0418347
0.055346
0.0800406
0.122547
0.177205
0.247735
0.338751
0.463492
0.649992
0.931979
1.20595
1.27227
1.24659
1.12785
1.0219
1.00084
1.00001
1
1
1
1
1
1
1
1
1
0.0614339
0.0419681
0.0310666
0.0287792
0.0444441
0.0631441
0.0897624
0.130872
0.185771
0.260319
0.36052
0.501148
0.710911
1.01222
1.26119
1.3014
1.25971
1.11658
1.01585
1.00047
1
1
1
1
1
1
1
1
1
1
0.053596
0.0401146
0.0345072
0.0329752
0.0458828
0.066409
0.0930469
0.134496
0.193643
0.277914
0.395887
0.555192
0.783803
1.09786
1.30969
1.33015
1.26482
1.09978
1.01043
1.00024
1
1
1
1
1
1
1
1
1
1
0.0501953
0.0401158
0.0387125
0.0373905
0.0460312
0.0668166
0.0950818
0.139081
0.209031
0.313082
0.445803
0.61426
0.867262
1.1859
1.35308
1.35566
1.25571
1.07856
1.00642
1.00012
1
1
1
1
1
1
1
1
1
1
0.0493038
0.0401392
0.0403619
0.0400782
0.0454266
0.0661742
0.100297
0.159324
0.247108
0.356075
0.488722
0.676177
0.958513
1.27653
1.39367
1.37403
1.23862
1.05889
1.00358
1.00005
1
1
1
1
1
1
1
1
1
1
0.0492197
0.0390617
0.0403784
0.041906
0.046903
0.073773
0.122591
0.190169
0.276219
0.384512
0.532515
0.750296
1.05745
1.3617
1.43041
1.38587
1.21104
1.04018
1.00182
1.00002
1
1
1
1
1
1
1
1
1
1
0.0497463
0.0371936
0.0377123
0.0433906
0.055222
0.0909043
0.139693
0.20429
0.294194
0.418725
0.593485
0.837823
1.16723
1.43178
1.46361
1.3945
1.17785
1.0255
1.00085
1.00001
1
1
1
1
1
1
1
1
1
1
0.0498488
0.0364525
0.0370108
0.0458037
0.0621087
0.0970265
0.145121
0.214775
0.319838
0.475106
0.673941
0.940519
1.28399
1.48483
1.49125
1.38104
1.13862
1.01441
1.00035
1
1
1
1
1
1
1
1
1
1
1
0.0502137
0.0363854
0.0365921
0.0476123
0.064302
0.0984267
0.148872
0.236254
0.376703
0.549593
0.760874
1.05964
1.39751
1.52524
1.50951
1.34823
1.10037
1.00772
1.00014
1
1
1
1
1
1
1
1
1
1
1
0.0515938
0.0359753
0.0341999
0.0476632
0.065421
0.100562
0.170415
0.294045
0.442398
0.617192
0.857301
1.18781
1.49437
1.56135
1.51574
1.30261
1.06604
1.00358
1.00005
1
1
1
1
1
1
1
1
1
1
1
0.0525013
0.0350059
0.0306
0.046021
0.0723851
0.125646
0.222307
0.342292
0.490385
0.69277
0.973593
1.3193
1.56528
1.59018
1.50252
1.24313
1.03963
1.00156
1.00002
1
1
1
1
1
1
1
1
1
1
1
0.052698
0.0342377
0.0286984
0.0502867
0.0927092
0.159883
0.251378
0.374114
0.550074
0.799488
1.10773
1.44851
1.61238
1.60851
1.47659
1.18449
1.02184
1.00061
1.00001
1
1
1
1
1
1
1
1
1
1
1
0.0532871
0.0338873
0.0288266
0.0634121
0.110131
0.172899
0.270508
0.423704
0.656185
0.93283
1.25787
1.56123
1.64758
1.6162
1.4214
1.12516
1.01034
1.00021
1
1
1
1
1
1
1
1
1
1
1
1
0.0539996
0.0330674
0.0347585
0.0710751
0.113948
0.180632
0.308792
0.52953
0.784937
1.07353
1.40949
1.64621
1.67707
1.60536
1.34885
1.07934
1.00473
1.00007
1
1
1
1
1
1
1
1
1
1
1
1
0.0523588
0.0302769
0.0398479
0.0714604
0.113673
0.211502
0.411422
0.646299
0.906128
1.22066
1.54322
1.69765
1.69564
1.58336
1.2747
1.0442
1.00178
1.00002
1
1
1
1
1
1
1
1
1
1
1
1
0.0486358
0.0282277
0.0397747
0.0729621
0.140718
0.305546
0.510601
0.745588
1.03909
1.37385
1.64672
1.72183
1.70094
1.52138
1.18978
1.02172
1.00063
1.00001
1
1
1
1
1
1
1
1
1
1
1
1
0.0431017
0.0282416
0.0379183
0.0891023
0.218441
0.383187
0.59253
0.871431
1.20754
1.52255
1.71407
1.73399
1.67411
1.43294
1.12524
1.01037
1.00022
1
1
1
1
1
1
1
1
1
1
1
1
1
0.0349369
0.0289433
0.046235
0.137223
0.273388
0.447449
0.714859
1.05688
1.38311
1.64411
1.74987
1.74103
1.6423
1.35547
1.07543
1.00422
1.00007
1
1
1
1
1
1
1
1
1
1
1
1
1
0.023218
0.0290847
0.0754097
0.183425
0.322987
0.561754
0.912429
1.2455
1.53509
1.72059
1.76323
1.74368
1.59827
1.25743
1.03746
1.00142
1.00002
1
1
1
1
1
1
1
1
1
1
1
1
1
0.0142636
0.0293773
0.104647
0.228183
0.41727
0.762147
1.11142
1.41111
1.64794
1.75368
1.76477
1.72902
1.50147
1.16577
1.01708
1.00045
1
1
1
1
1
1
1
1
1
1
1
1
1
1
0.00879457
0.0404366
0.133442
0.304228
0.613869
0.970338
1.29838
1.55636
1.7122
1.76004
1.75302
1.66303
1.39844
1.10253
1.00719
1.00013
1
1
1
1
1
1
1
1
1
1
1
1
1
1
0.00786076
0.064161
0.192785
0.454442
0.820117
1.18178
1.48429
1.65795
1.73723
1.75246
1.73127
1.60875
1.30882
1.05626
1.00265
1.00004
1
1
1
1
1
1
1
1
1
1
1
1
1
1
0.0107382
0.0892643
0.301883
0.6705
1.06002
1.40642
1.62444
1.70576
1.74434
1.74554
1.71239
1.54181
1.20586
1.02537
1.0008
1.00001
1
1
1
1
1
1
1
1
1
1
1
1
1
1
0.00531231
0.146193
0.495602
0.933561
1.33601
1.58137
1.69829
1.71835
1.74566
1.74497
1.68013
1.42071
1.11546
1.00922
1.0002
1
1
1
1
1
1
1
1
1
1
1
1
1
1
1
0.0205818
0.287433
0.767398
1.23495
1.55469
1.68132
1.72326
1.71316
1.74462
1.72578
1.59616
1.29852
1.05617
1.00281
1.00004
1
1
1
1
1
1
1
1
1
1
1
1
1
1
1
0.105724
0.534813
1.10468
1.5174
1.68029
1.72156
1.7218
1.71043
1.73688
1.68573
1.5051
1.19197
1.0226
1.00067
1.00001
1
1
1
1
1
1
1
1
1
1
1
1
1
1
1
0.347433
0.931723
1.46659
1.68209
1.72498
1.72945
1.71675
1.70747
1.73401
1.65151
1.40061
1.09893
1.00662
1.00012
1
1
1
1
1
1
1
1
1
1
1
1
1
1
1
1
0.94247
1.44038
1.68074
1.73154
1.73185
1.72488
1.71208
1.71373
1.73162
1.59111
1.25833
1.03529
1.0012
1.00001
1
1
1
1
1
1
1
1
1
1
1
1
1
1
1
1
1.73455
1.7314
1.73917
1.73725
1.72884
1.71885
1.70778
1.71888
1.69564
1.47306
1.13558
1.00286
0.999979
0.999999
1
1
1
1
1
1
1
1
1
1
1
1
1
1
1
1
1.73432
1.72913
1.73481
1.73387
1.72802
1.72206
1.70504
1.7059
1.69846
1.50109
1.16064
1.01064
1.00012
1
1
1
1
1
1
1
1
1
1
1
1
1
1
1
1
1
1.73567
1.72851
1.73194
1.73165
1.72722
1.72261
1.70418
1.69823
1.68782
1.46002
1.12609
1.00677
1.00007
1
1
1
1
1
1
1
1
1
1
1
1
1
1
1
1
1
1.73797
1.72838
1.72897
1.72887
1.72691
1.72399
1.70484
1.68841
1.6767
1.43343
1.10632
1.00499
1.00004
1
1
1
1
1
1
1
1
1
1
1
1
1
1
1
1
1
1.74157
1.72925
1.72691
1.7261
1.72629
1.72403
1.70712
1.68234
1.66439
1.3981
1.08487
1.00335
1.00003
1
1
1
1
1
1
1
1
1
1
1
1
1
1
1
1
1
1.74582
1.73174
1.72636
1.72385
1.72736
1.72592
1.71224
1.67727
1.64637
1.35979
1.06557
1.00215
1.00002
1
1
1
1
1
1
1
1
1
1
1
1
1
1
1
1
1
1.74873
1.73461
1.72718
1.7223
1.72888
1.72906
1.71744
1.67425
1.62432
1.31766
1.04825
1.00128
1.00001
1
1
1
1
1
1
1
1
1
1
1
1
1
1
1
1
1
1.74925
1.73601
1.72781
1.72181
1.72966
1.73302
1.72307
1.67204
1.59798
1.27216
1.03354
1.00071
1
1
1
1
1
1
1
1
1
1
1
1
1
1
1
1
1
1
1.75119
1.73815
1.72893
1.72369
1.72998
1.73725
1.7282
1.67049
1.56702
1.22455
1.02175
1.00036
1
1
1
1
1
1
1
1
1
1
1
1
1
1
1
1
1
1
1.75398
1.74193
1.73182
1.72558
1.73043
1.7423
1.73481
1.67116
1.52843
1.17659
1.01298
1.00017
1
1
1
1
1
1
1
1
1
1
1
1
1
1
1
1
1
1
1.75669
1.7467
1.73624
1.72901
1.73146
1.74841
1.74216
1.674
1.48146
1.13024
1.00702
1.00007
1
1
1
1
1
1
1
1
1
1
1
1
1
1
1
1
1
1
1.7579
1.74993
1.74103
1.73328
1.73275
1.7551
1.75134
1.67399
1.42427
1.08834
1.00338
1.00003
1
1
1
1
1
1
1
1
1
1
1
1
1
1
1
1
1
1
1.75861
1.75115
1.7477
1.74003
1.73665
1.76192
1.76202
1.66069
1.35511
1.05374
1.00143
1.00001
1
1
1
1
1
1
1
1
1
1
1
1
1
1
1
1
1
1
1.76192
1.75612
1.75926
1.75534
1.74715
1.77022
1.77511
1.63261
1.27501
1.02856
1.00052
1
1
1
1
1
1
1
1
1
1
1
1
1
1
1
1
1
1
1
1.77838
1.77191
1.77814
1.77885
1.7691
1.78502
1.78951
1.58518
1.19018
1.01289
1.00016
1
1
1
1
1
1
1
1
1
1
1
1
1
1
1
1
1
1
1
1.79783
1.7887
1.79538
1.80715
1.79786
1.80023
1.7951
1.50845
1.1141
1.00487
1.00004
1
1
1
1
1
1
1
1
1
1
1
1
1
1
1
1
1
1
1
1.81445
1.80324
1.80592
1.83225
1.83643
1.80686
1.76231
1.3982
1.05851
1.00156
1.00001
1
1
1
1
1
1
1
1
1
1
1
1
1
1
1
1
1
1
1
1.82592
1.81415
1.81224
1.85272
1.87054
1.81722
1.6965
1.27506
1.02527
1.00042
1
1
1
1
1
1
1
1
1
1
1
1
1
1
1
1
1
1
1
1
1.83084
1.82163
1.81717
1.87081
1.88848
1.82149
1.60291
1.16291
1.00902
1.0001
1
1
1
1
1
1
1
1
1
1
1
1
1
1
1
1
1
1
1
1
1.83306
1.82783
1.82075
1.88118
1.89941
1.79945
1.47049
1.08317
1.0027
1.00002
1
1
1
1
1
1
1
1
1
1
1
1
1
1
1
1
1
1
1
1
1.83542
1.83775
1.83033
1.88497
1.90467
1.74525
1.32946
1.03533
1.00069
1
1
1
1
1
1
1
1
1
1
1
1
1
1
1
1
1
1
1
1
1
1.83123
1.84754
1.84677
1.88464
1.90566
1.65643
1.19518
1.01229
1.00015
1
1
1
1
1
1
1
1
1
1
1
1
1
1
1
1
1
1
1
1
1
1.82134
1.85653
1.87792
1.87912
1.86126
1.51274
1.10124
1.00366
1.00003
1
1
1
1
1
1
1
1
1
1
1
1
1
1
1
1
1
1
1
1
1
1.81483
1.86927
1.91186
1.87211
1.79198
1.36749
1.04276
1.00092
1.00001
1
1
1
1
1
1
1
1
1
1
1
1
1
1
1
1
1
1
1
1
1
1.81211
1.88186
1.92822
1.87382
1.68731
1.21692
1.01484
1.00019
1
1
1
1
1
1
1
1
1
1
1
1
1
1
1
1
1
1
1
1
1
1
1.81532
1.89598
1.93731
1.84806
1.53795
1.11009
1.00424
1.00004
1
1
1
1
1
1
1
1
1
1
1
1
1
1
1
1
1
1
1
1
1
1
1.84167
1.91287
1.93925
1.78935
1.37908
1.04593
1.00104
1.00001
1
1
1
1
1
1
1
1
1
1
1
1
1
1
1
1
1
1
1
1
1
1
1.86855
1.91447
1.93086
1.69226
1.22602
1.01582
1.00021
1
1
1
1
1
1
1
1
1
1
1
1
1
1
1
1
1
1
1
1
1
1
1
1.9014
1.91815
1.90546
1.53914
1.10823
1.00421
1.00004
1
1
1
1
1
1
1
1
1
1
1
1
1
1
1
1
1
1
1
1
1
1
1
1.98412
1.89806
1.81984
1.35981
1.04385
1.00102
1.00001
1
1
1
1
1
1
1
1
1
1
1
1
1
1
1
1
1
1
1
1
1
1
1
2.07423
1.83457
1.69604
1.21221
1.0149
1.00021
1
1
1
1
1
1
1
1
1
1
1
1
1
1
1
1
1
1
1
1
1
1
1
1
2.14247
1.78931
1.50905
1.09636
1.00396
1.00004
1
1
1
1
1
1
1
1
1
1
1
1
1
1
1
1
1
1
1
1
1
1
1
1
2.17072
1.70132
1.32866
1.04069
1.00108
1.00001
1
1
1
1
1
1
1
1
1
1
1
1
1
1
1
1
1
1
1
1
1
1
1
1
2.16959
1.58799
1.19371
1.01451
1.00025
1
1
1
1
1
1
1
1
1
1
1
1
1
1
1
1
1
1
1
1
1
1
1
1
1
2.07138
1.45516
1.09976
1.00469
1.00005
1
1
1
1
1
1
1
1
1
1
1
1
1
1
1
1
1
1
1
1
1
1
1
1
1
1.95102
1.32793
1.04561
1.00126
1.00001
1
1
1
1
1
1
1
1
1
1
1
1
1
1
1
1
1
1
1
1
1
1
1
1
1
1.7987
1.20106
1.01618
1.00027
1
1
1
1
1
1
1
1
1
1
1
1
1
1
1
1
1
1
1
1
1
1
1
1
1
1
1.58761
1.10885
1.00491
1.00005
1
1
1
1
1
1
1
1
1
1
1
1
1
1
1
1
1
1
1
1
1
1
1
1
1
1
1.36838
1.04137
1.00092
1.00001
1
1
1
1
1
1
1
1
1
1
1
1
1
1
1
1
1
1
1
1
1
1
1
1
1
1
1.13377
1.00941
1.00009
1
1
1
1
1
1
1
1
1
1
1
1
1
1
1
1
1
1
1
1
1
1
1
1
1
1
1
1
1
1
1
1
1
1
1
1
1
1
1
1
1
1
1
1
1
1
1
1
1
1
1
1
1
1
1
1
1
1
1
1
1
1
1
1
1
1
1
1
1
1
1
1
1
1
1
1
1
1
1
1
1
1
1
1
1
1
1
1
1
1
1
1
1
1
1
1
1
1
1
1
1
1
1
1
1
1
1
1
1
1
1
1
1
1
1
1
1
1
1
1
1
1
1
1
1
1
1
1
1
1
1
1
1
1
1
1
1
1
1
1
1
1
1
1
1
1
1
1
1
1
1
1
1
1
1
1
1
1
1
1
1
1
1
1
1
1
1
1
1
1
1
1
1
1
1
1
1
1
1
1
1
1
1
1
1
1
1
1
1
1
1
1
1
1
1
1
1
1
1
1
1
1
1
1
1
1
1
1
1
1
1
1
1
1
1
1
1
1
1
1
1
1
1
1
1
1
1
1
1
1
1
1
1
1
1
1
1
1
1
1
1
1
1
1
1
1
1
1
1
1
1
1
1
1
1
1
1
1
1
1
1
1
1
1
1
1
1
1
1
1
1
1
1
1
1
1
1
1
1
1
1
1
1
1
1
1
1
1
1
1
1
1
1
1
1
1
1
1
1
1
1
1
1
1
1
1
1
1
1
1
1
1
1
1
1
1
1
1
1
1
1
1
1
1
1
1
1
1
1
1
1
1
1
1
1
1
1
1
1
1
1
1
1
1
1
1
1
1
1
1
1
1
1
1
1
1
1
1
1
1
1
1
1
1
1
1
1
1
1
1
1
1
1
1
1
1
1
1
1
1
1
1
1
1
1
1
1
1
1
1
1
1
1
1
1
1
1
1
1
1
1
1
1
1
1
1
1
1
1
1
1
1
1
1
1
1
1
1
1
1
1
1
1
1
1
1
1
1
1
1
1
1
1
1
1
1
1
1
1
1
1
1
1
1
1
1
1
1
1
1
1
1
1
1
1
1
1
1
1
1
1
1
1
1
1
1
1
1
1
1
1
1
1
1
1
1
1
1
1
1
1
1
1
1
1
1
1
1
1
1
1
1
1
1
1
1
1
1
1
1
1
1
1
1
1
1
1
1
1
1
1
1
1
1
1
1
1
1
1
1
1
1
1
1
1
1
1
1
1
1
1
1
1
1
1
1
1
1
1
1
1
1
1
1
1
1
1
1
1
1
1
1
1
1
1
1
1
1
1
1
1
1
1
1
1
1
1
1
1
1
1
1
1
1
1
1
1
1
1
1
1
1
1
1
1
1
1
1
1
1
1
1
1
1
1
1
1
1
1
1
1
1
1
1
1
1
1
1
1
1
1
1
1
1
1
1
1
1
1
1
1
1
1
1
1
1
1
1
1
1
1
1
1
1
1
1
1
1
1
1
1
1
1
1
1
1
1
1
1
1
1
1
1
1
1
1
1
1
1
1
1
1
1
1
1
1
1
1
1
1
1
1
1
1
1
1
1
1
1
1
1
1
1
1
1
1
1
1
1
1
1
1
1
1
1
1
1
1
1
1
1
1
1
1
1
1
1
1
1
1
1
1
1
1
1
1
1
1
1
1
1
1
1
1
1
1
1
1
1
1
1
1
1
1
1
1
1
1
1
1
1
1
1
1
1
1
1
1
1
1
1
1
1
1
1
1
1
1
1
1
1
1
1
1
1
1
1
1
1
1
1
1
1
1
1
1
1
1
1
1
1
1
1
1
1
1
1
1
1
1
1
1
1
1
1
1
1
1
1
1
1
1
1
1
1
1
1
1
1
1
1
1
1
1
1
1
1
1
1
1
1
1
1
1
1
1
1
1
1
1
1
1
1
1
1
1
1
1
1
1
1
1
1
1
1
1
1
1
1
1
1
1
1
1
1
1
1
1
1
1
1
1
1
1
1
1
1
1
1
1
1
1
1
1
1
1
1
1
1
1
1
1
1
1
1
1
1
1
1
1
1
1
1
1
1
1
1
1
1
1
1
1
1
1
1
1
1
1
1
1
1
1
1
1
1
1
1
1
1
1
1
1
1
1
1
1
1
1
1
1
1
1
1
1
1
1
1
1
1
1
1
1
1
1
1
1
1
1
1
1
1
1
1
1
1
1
1
1
1
1
1
1
1
1
1
1
1
1
1
1
1
1
1
1
1
1
1
1
1
1
1
1
1
1
1
1
1
1
1
1
1
1
1
1
1
1
1
1
1
1
1
1
1
1
1
1
1
1
1
1
1
1
1
1
1
1
1
1
1
1
1
1
1
1
1
1
1
1
1
1
1
1
1
1
1
1
1
1
1
1
1
1
1
1
1
1
1
1
1
1
1
1
1
1
1
1
1
1
1
1
1
1
1
1
1
1
1
1
1
1
1
1
1
1
1
1
1
1
1
1
1
1
1
1
1
1
1
1
1
1
1
1
1
1
1
1
1
1
1
1
1
1
1
1
1
1
1
1
1
1
1
1
1
1
1
1
1
1
1
1
1
1
1
1
1
1
1
1
1
1
1
1
1
1
1
1
1
1
1
1
1
1
1
1
1
1
1
1
1
1
1
1
1
1
1
1
1
1
1
1
1
1
1
1
1
1
1
1
1
1
1
1
1
1
1
1
1
1
1
1
1
1
1
1
1
1
1
1
1
1
1
1
1
1
1
1
1
1
1
1
1
1
1
1
1
1
1
1
1
1
1
1
1
1
1
1
1
1
1
1
1
1
1
1
1
1
1
1
1
1
1
1
1
1
1
1
1
1
1
1
1
1
1
1
1
1
1
1
1
1
1
1
1
1
1
1
1
1
1
1
1
1
1
1
1
1
1
1
1
1
1
1
1
1
1
1
1
1
1
1
1
1
1
1
1
1
1
1
1
1
1
1
1
1
1
1
1
1
1
1
1
1
1
1
1
1
1
1
1
1
1
1
1
1
1
1
1
1
1
1
1
1
1
1
1
1
1
1
1
1
1
1
1
1
1
1
1
1
1
1
1
1
1
1
1
1
1
1
1
1
1
1
1
1
1
1
1
1
1
1
1
1
1
1
1
1
1
1
1
1
1
1
1
1
1
1
1
1
1
1
1
1
1
1
1
1
1
1
1
1
1
1
1
1
1
1
1
1
1
1
1
1
1
1
1
1
1
1
1
1
1
1
1
1
1
1
1
1
1
1
1
1
1
1
1
1
1
1
1
1
1
1
1
1
1
1
1
1
1
1
1
1
1
1
1
1
1
1
1
1
1
1
1
1
1
1
1
1
1
1
1
1
1
1
1
1
1
1
1
1
1
1
1
1
1
1
1
1
1
1
1
1
1
1
1
1
1
1
1
1
1
1
1
1
1
1
1
1
1
1
1
1
1
1
1
1
1
1
1
1
1
1
1
1
1
1
1
1
1
1
1
1
1
1
1
1
1
1
1
1
1
1
1
1
1
1
1
1
1
1
1
1
1
1
1
1
1
1
1
1
1
1
1
1
1
1
1
1
1
1
1
1
1
1
1
1
1
1
1
1
1
1
1
1
1
1
1
1
1
1
1
1
1
1
1
1
1
1
1
1
1
1
1
1
1
1
1
1
1
1
1
1
1
1
1
1
1
1
1
1
1
1
1
1
1
1
1
1
1
1
1
1
1
1
1
1
1
1
1
1
1
1
1
1
1
1
1
1
1
1
1
1
1
1
1
1
1
1
1
1
1
1
1
1
1
1
1
1
1
1
1
1
1
1
1
1
1
1
1
1
1
1
1
1
1
1
1
1
1
1
1
1
1
1
1
1
1
1
1
1
1
1
1
1
1
1
1
1
1
1
1
1
1
1
1
1
1
1
1
1
1
1
1
1
1
1
1
1
1
1
1
1
1
1
1
1
1
1
1
1
1
1
1
1
1
1
1
1
1
1
1
1
1
1
1
1
1
1
1
1
1
1
1
1
1
1
1
1
1
1
1
1
1
1
1
1
1
1
1
1
1
1
1
1
1
1
1
1
1
1
1
1
1
1
1
1
1
1
1
1
1
1
1
1
1
1
1
1
1
1
1
1
1
1
1
1
1
1
1
1
1
1
1
1
1
1
1
1
1
1
1
1
1
1
1
1
1
1.42096
1
1
1
1
1
1
1
1
1
1
1
1
1
1
1
1
1
1
1
1
1
1
1
1
1
1
1
1
1
2.36551
0.998517
1
1
1
1
1
1
1
1
1
1
1
1
1
1
1
1
1
1
1
1
1
1
1
1
1
1
1
1
3.6052
1.07615
1
1
1
1
1
1
1
1
1
1
1
1
1
1
1
1
1
1
1
1
1
1
1
1
1
1
1
1
5.22746
1.3654
1
1
1
1
1
1
1
1
1
1
1
1
1
1
1
1
1
1
1
1
1
1
1
1
1
1
1
1
6.88397
2.16704
0.998805
1
1
1
1
1
1
1
1
1
1
1
1
1
1
1
1
1
1
1
1
1
1
1
1
1
1
1
8.62396
3.86193
1.11666
0.999851
1
1
1
1
1
1
1
1
1
1
1
1
1
1
1
1
1
1
1
1
1
1
1
1
1
1
9.58742
6.43695
2.67808
1.00771
1
1
1
1
1
1
1
1
1
1
1
1
1
1
1
1
1
1
1
1
1
1
1
1
1
1
8.5287
6.67928
5.8548
1.86076
0.999193
1
1
1
1
1
1
1
1
1
1
1
1
1
1
1
1
1
1
1
1
1
1
1
1
1
7.02369
6.29311
6.87348
4.53545
1.26248
0.999669
1
1
1
1
1
1
1
1
1
1
1
1
1
1
1
1
1
1
1
1
1
1
1
1
6.10013
5.93427
6.58845
6.14467
2.60008
1.00643
1
1
1
1
1
1
1
1
1
1
1
1
1
1
1
1
1
1
1
1
1
1
1
1
5.65322
5.6948
6.16095
6.01811
4.34596
1.29211
1
1
1
1
1
1
1
1
1
1
1
1
1
1
1
1
1
1
1
1
1
1
1
1
5.463
5.53671
5.79484
5.68963
5.29727
2.1937
0.998723
1
1
1
1
1
1
1
1
1
1
1
1
1
1
1
1
1
1
1
1
1
1
1
5.35145
5.4012
5.43552
5.4254
5.55355
3.55963
1.11754
1
1
1
1
1
1
1
1
1
1
1
1
1
1
1
1
1
1
1
1
1
1
1
5.28186
5.29027
5.20348
5.28031
5.42438
4.29808
1.5163
1
1
1
1
1
1
1
1
1
1
1
1
1
1
1
1
1
1
1
1
1
1
1
5.21473
5.17729
5.10042
5.12559
5.24782
4.70328
2.1594
0.99983
1
1
1
1
1
1
1
1
1
1
1
1
1
1
1
1
1
1
1
1
1
1
5.16062
5.10953
5.07911
5.03955
5.11103
4.89911
2.91842
1.04992
1
1
1
1
1
1
1
1
1
1
1
1
1
1
1
1
1
1
1
1
1
1
5.13145
5.07978
5.07448
5.02823
4.99276
4.84539
3.52083
1.21614
1
1
1
1
1
1
1
1
1
1
1
1
1
1
1
1
1
1
1
1
1
1
5.10635
5.06103
5.0629
5.02321
4.93035
4.79764
3.96549
1.50931
1
1
1
1
1
1
1
1
1
1
1
1
1
1
1
1
1
1
1
1
1
1
5.08473
5.04612
5.04708
5.00778
4.9062
4.77596
4.26501
1.90291
0.999212
1
1
1
1
1
1
1
1
1
1
1
1
1
1
1
1
1
1
1
1
1
5.06959
5.03783
5.03958
4.99597
4.88044
4.77493
4.47153
2.35834
1.00914
1
1
1
1
1
1
1
1
1
1
1
1
1
1
1
1
1
1
1
1
1
5.05887
5.03287
5.03649
4.98185
4.86033
4.79576
4.59798
2.8287
1.05418
1
1
1
1
1
1
1
1
1
1
1
1
1
1
1
1
1
1
1
1
1
5.04602
5.02395
5.02633
4.96468
4.85418
4.83516
4.66846
3.23963
1.15563
1
1
1
1
1
1
1
1
1
1
1
1
1
1
1
1
1
1
1
1
1
5.02997
5.00844
5.00316
4.94827
4.85997
4.8875
4.7247
3.58345
1.32108
1
1
1
1
1
1
1
1
1
1
1
1
1
1
1
1
1
1
1
1
1
5.01499
4.99028
4.9754
4.93327
4.86687
4.92483
4.77149
3.89387
1.55909
1
1
1
1
1
1
1
1
1
1
1
1
1
1
1
1
1
1
1
1
1
5.00249
4.97138
4.95149
4.91713
4.87309
4.94246
4.80209
4.12904
1.85927
0.999563
1
1
1
1
1
1
1
1
1
1
1
1
1
1
1
1
1
1
1
1
4.99319
4.95308
4.93639
4.9128
4.88351
4.95951
4.84335
4.32743
2.19619
1.00408
1
1
1
1
1
1
1
1
1
1
1
1
1
1
1
1
1
1
1
1
4.98599
4.94001
4.94021
4.92787
4.90206
4.96708
4.8632
4.51086
2.5704
1.02613
1
1
1
1
1
1
1
1
1
1
1
1
1
1
1
1
1
1
1
1
4.98271
4.94059
4.95608
4.94976
4.91841
4.96102
4.86541
4.61119
2.94997
1.08179
1
1
1
1
1
1
1
1
1
1
1
1
1
1
1
1
1
1
1
1
4.98318
4.94364
4.9681
4.96512
4.93084
4.95739
4.87359
4.65655
3.31689
1.18532
1
1
1
1
1
1
1
1
1
1
1
1
1
1
1
1
1
1
1
1
4.98225
4.94372
4.97212
4.97319
4.94191
4.95753
4.88404
4.70675
3.64951
1.34397
1
1
1
1
1
1
1
1
1
1
1
1
1
1
1
1
1
1
1
1
4.97663
4.94006
4.9721
4.97651
4.94611
4.95983
4.89728
4.76553
3.92012
1.55647
1
1
1
1
1
1
1
1
1
1
1
1
1
1
1
1
1
1
1
1
4.97162
4.93469
4.96784
4.97575
4.95321
4.96486
4.91319
4.81531
4.1439
1.81192
0.999755
1
1
1
1
1
1
1
1
1
1
1
1
1
1
1
1
1
1
1
4.97021
4.93538
4.96892
4.98027
4.9715
4.96809
4.92229
4.84381
4.34906
2.10643
1.00242
1
1
1
1
1
1
1
1
1
1
1
1
1
1
1
1
1
1
1
4.9646
4.93935
4.97708
4.99117
4.99193
4.97656
4.9237
4.85542
4.50814
2.42721
1.0155
1
1
1
1
1
1
1
1
1
1
1
1
1
1
1
1
1
1
1
4.95742
4.94441
4.99452
5.01127
5.00671
4.97308
4.91525
4.84969
4.64546
2.74823
1.04806
1
1
1
1
1
1
1
1
1
1
1
1
1
1
1
1
1
1
1
4.95246
4.9578
5.0061
5.02889
5.02016
4.97317
4.9025
4.85119
4.76296
3.06918
1.10686
1
1
1
1
1
1
1
1
1
1
1
1
1
1
1
1
1
1
1
4.94755
4.97128
5.02119
5.04448
5.02558
4.97276
4.90285
4.88695
4.83188
3.35496
1.20086
1
1
1
1
1
1
1
1
1
1
1
1
1
1
1
1
1
1
1
4.9504
4.98477
5.03403
5.05292
5.03165
4.98465
4.92815
4.95032
4.89288
3.5792
1.3058
0.999999
1
1
1
1
1
1
1
1
1
1
1
1
1
1
1
1
1
1
4.95355
4.99371
5.04064
5.05675
5.03909
4.9958
4.95098
4.99836
4.9383
3.90228
1.53925
1
1
1
1
1
1
1
1
1
1
1
1
1
1
1
1
1
1
1
4.97551
5.02554
5.06526
5.07252
5.05873
5.01494
4.9862
5.03012
4.90896
3.75557
1.4272
0.982949
1
1
1
1
1
1
1
1
1
1
1
1
1
1
1
1
1
1
2.49524
3.83563
4.56083
4.88508
5.01554
5.0231
5.01063
5.02792
5.08742
4.42809
2.28704
1.08556
1.0009
1
1
1
1
1
1
1
1
1
1
1
1
1
1
1
1
1
0.940345
2.36491
3.51126
4.26864
4.70752
4.91709
4.96746
5.00639
5.13751
4.98535
3.42356
1.46097
1.01469
1.0001
1
1
1
1
1
1
1
1
1
1
1
1
1
1
1
1
0.26663
1.26615
2.40748
3.37424
4.09231
4.55661
4.78835
4.92748
5.12023
5.04412
4.36593
2.23409
1.09032
1.00107
1
1
1
1
1
1
1
1
1
1
1
1
1
1
1
1
0.155422
0.865996
1.65296
2.44929
3.25749
3.95454
4.40154
4.72063
5.0465
5.00952
4.73378
3.22162
1.37213
1.01024
1.00006
1
1
1
1
1
1
1
1
1
1
1
1
1
1
1
0.121277
0.633232
1.23037
1.87793
2.54054
3.22378
3.82962
4.31786
4.8269
4.95815
4.89081
3.99595
1.94848
1.05392
1.00051
1
1
1
1
1
1
1
1
1
1
1
1
1
1
1
0.103281
0.397368
0.876431
1.47863
2.08024
2.67405
3.22839
3.78187
4.4172
4.82311
4.82829
4.51836
2.74596
1.21935
1.00432
1.00002
1
1
1
1
1
1
1
1
1
1
1
1
1
1
0.12041
0.288296
0.518284
1.02646
1.63479
2.26336
2.75786
3.3181
3.92223
4.46945
4.71634
4.65614
3.6073
1.61893
1.02408
1.00017
1
1
1
1
1
1
1
1
1
1
1
1
1
1
0.179131
0.298115
0.416293
0.68656
1.15838
1.7983
2.32664
2.87414
3.45216
3.9949
4.50479
4.54642
4.04162
2.22515
1.10273
1.0013
1.00001
1
1
1
1
1
1
1
1
1
1
1
1
1
0.234812
0.301696
0.396973
0.631147
0.940541
1.39101
1.92575
2.40945
2.96997
3.52515
4.15049
4.36596
4.20833
2.88674
1.28951
1.00671
1.00003
1
1
1
1
1
1
1
1
1
1
1
1
1
0.267702
0.288479
0.367788
0.591292
0.854801
1.21045
1.66263
2.08732
2.56152
3.04502
3.70081
4.14212
4.11159
3.29472
1.62563
1.02883
1.00022
1
1
1
1
1
1
1
1
1
1
1
1
1
0.322412
0.27384
0.294131
0.488318
0.744358
1.07677
1.47279
1.86193
2.28685
2.68031
3.22909
3.84452
3.93523
3.55213
2.05442
1.08922
1.00113
1
1
1
1
1
1
1
1
1
1
1
1
1
0.382629
0.278482
0.249541
0.371526
0.564554
0.893347
1.25345
1.6208
2.01815
2.42964
2.86382
3.47295
3.74125
3.58044
2.46706
1.22024
1.00486
1.00002
1
1
1
1
1
1
1
1
1
1
1
1
0.420046
0.283011
0.252371
0.372986
0.499978
0.763079
1.06184
1.38094
1.71294
2.14532
2.57667
3.12264
3.51877
3.48527
2.76122
1.41579
1.01601
1.00011
1
1
1
1
1
1
1
1
1
1
1
1
0.455066
0.294423
0.259367
0.374654
0.487167
0.70459
0.958891
1.22386
1.52892
1.84149
2.26641
2.79072
3.28993
3.3266
2.88786
1.66083
1.0428
1.00042
1
1
1
1
1
1
1
1
1
1
1
1
0.465798
0.302573
0.263163
0.354751
0.454094
0.64479
0.885928
1.11457
1.41232
1.69659
2.01427
2.47474
3.02702
3.1686
2.92797
1.87939
1.08825
1.00128
1.00001
1
1
1
1
1
1
1
1
1
1
1
0.466165
0.312615
0.269408
0.311812
0.382867
0.548494
0.774196
0.994385
1.2701
1.57689
1.86682
2.25422
2.79205
3.01568
2.88032
2.05216
1.15678
1.00343
1.00002
1
1
1
1
1
1
1
1
1
1
1
0.457358
0.335678
0.292521
0.305303
0.334822
0.467427
0.641009
0.847209
1.08454
1.38651
1.70102
2.07506
2.59489
2.88191
2.81618
2.19331
1.24586
1.00802
1.00005
1
1
1
1
1
1
1
1
1
1
1
0.433888
0.362933
0.33274
0.312009
0.325152
0.441724
0.580694
0.752606
0.980539
1.20688
1.48265
1.8489
2.36361
2.73446
2.71883
2.26089
1.34639
1.01638
1.00013
1
1
1
1
1
1
1
1
1
1
1
0.402255
0.369161
0.356613
0.316262
0.317687
0.41602
0.55423
0.71513
0.922066
1.13892
1.36819
1.64226
2.09981
2.53391
2.56929
2.25655
1.433
1.02835
1.00028
1
1
1
1
1
1
1
1
1
1
1
0.364005
0.369012
0.363941
0.316611
0.306913
0.379012
0.511843
0.669953
0.863892
1.08197
1.30897
1.56256
1.9494
2.38847
2.465
2.24481
1.50302
1.04284
1.00054
1
1
1
1
1
1
1
1
1
1
1
0.347455
0.365212
0.365342
0.319389
0.307969
0.355535
0.444809
0.596648
0.772933
0.988638
1.22071
1.48406
1.85429
2.30189
2.40331
2.21537
1.5515
1.05888
1.00094
1
1
1
1
1
1
1
1
1
1
1
0.343349
0.362628
0.362568
0.323093
0.310784
0.357162
0.43607
0.552241
0.707414
0.890854
1.09375
1.34874
1.72156
2.19005
2.31723
2.16912
1.5924
1.07697
1.00153
1.00001
1
1
1
1
1
1
1
1
1
1
0.33814
0.359365
0.360406
0.328005
0.315375
0.362408
0.434965
0.547082
0.69079