/*--------------------------------*- C++ -*----------------------------------*\
  =========                 |
  \\      /  F ield         | OpenFOAM: The Open Source CFD Toolbox
   \\    /   O peration     | Website:  https://openfoam.org
    \\  /    A nd           | Version:  7
     \\/     M anipulation  |
\*---------------------------------------------------------------------------*/
FoamFile
{
    version     2.0;
    format      ascii;
    class       volScalarField;
    location    "9.9";
    object      p;
}
// * * * * * * * * * * * * * * * * * * * * * * * * * * * * * * * * * * * * * //

dimensions      [1 -1 -2 0 0 0 0];

internalField   nonuniform List<scalar> 
1750
(
0.246281
0.496869
0.619888
0.611223
0.631347
0.716777
0.803031
0.855062
0.922327
0.990984
0.0258494
0.10386
0.404331
0.696232
0.849755
0.893544
0.913748
0.920834
0.962326
0.995817
0.0242109
0.024098
0.046582
0.209113
0.530972
0.750018
0.885066
0.976499
0.999032
0.98991
0.040784
0.0446256
0.0510405
0.057667
0.0894709
0.214593
0.408748
0.673676
0.818893
0.942485
0.0777958
0.0894928
0.0938777
0.0968623
0.100889
0.113111
0.122243
0.187851
0.334433
0.639722
0.140674
0.154077
0.152599
0.152435
0.16074
0.172082
0.183784
0.199265
0.20125
0.269959
0.258879
0.2628
0.26678
0.271805
0.272071
0.271897
0.273296
0.27196
0.270923
0.272888
0.478975
0.463398
0.442677
0.42493
0.413434
0.40082
0.385953
0.369879
0.359592
0.346412
0.818249
0.774877
0.734041
0.685973
0.645489
0.610508
0.577953
0.548452
0.52377
0.489409
1.09338
1.06529
1.0316
0.988577
0.940221
0.892107
0.840567
0.786808
0.739757
0.668067
1.1331
1.13199
1.12843
1.12076
1.10924
1.09305
1.06882
1.03328
0.99256
0.911372
1.0903
1.09956
1.10632
1.11086
1.1114
1.11136
1.11046
1.10721
1.10108
1.07596
1.02022
1.02782
1.03724
1.0481
1.06005
1.07136
1.08136
1.08856
1.09452
1.09373
1.00099
1.00174
1.00308
1.00533
1.00894
1.0144
1.02192
1.03155
1.04246
1.05996
1.00002
1.00003
1.00006
1.00014
1.0003
1.00066
1.00142
1.00296
1.00545
1.0146
0.0279281
0.0211522
0.0230116
0.0367551
0.0659107
0.127731
0.256625
0.502994
0.870172
1.11187
1.13308
1.08144
1.01485
1.00065
1.00001
0.0269891
0.0207329
0.0248317
0.0411144
0.0789942
0.162337
0.342379
0.63504
0.985983
1.14216
1.13281
1.06326
1.00784
1.00023
1
0.0263766
0.0194286
0.0246992
0.0407473
0.0898714
0.211138
0.417558
0.730372
1.05506
1.15124
1.12759
1.04578
1.00412
1.0001
1
0.0268936
0.0187999
0.0244668
0.0442321
0.120967
0.271238
0.498217
0.842218
1.1175
1.15553
1.11485
1.0292
1.00181
1.00004
1
0.0276132
0.0169944
0.0246277
0.065609
0.16574
0.324995
0.600886
0.971099
1.15646
1.15668
1.0898
1.01665
1.00077
1.00001
1
0.0238256
0.0148275
0.0284193
0.0895665
0.203769
0.398032
0.752071
1.07694
1.17188
1.15326
1.06722
1.00884
1.00031
1.00001
1
0.0185674
0.0139234
0.0416346
0.115325
0.260773
0.544068
0.900585
1.14435
1.17836
1.13659
1.04405
1.00365
1.0001
1
1
0.0146836
0.0189775
0.0590076
0.158946
0.364953
0.701454
1.03252
1.18378
1.18045
1.11232
1.02332
1.00134
1.00003
1
1
0.012496
0.0289452
0.0791326
0.233008
0.529239
0.869929
1.14097
1.19899
1.17547
1.07583
1.01061
1.00046
1.00001
1
1
0.00707465
0.0351751
0.134404
0.371393
0.713834
1.04078
1.20012
1.20247
1.145
1.04237
1.00383
1.00012
1
1
1
0.00150257
0.0392465
0.245895
0.571837
0.912788
1.1627
1.21885
1.20202
1.10066
1.01875
1.00108
1.00003
1
1
1
0.00341831
0.129975
0.432613
0.794317
1.09633
1.22082
1.22244
1.16171
1.05448
1.00615
1.00026
1.00001
1
1
1
0.0315353
0.291635
0.683952
1.02281
1.20892
1.23568
1.21199
1.10982
1.02308
1.00163
1.00005
1
1
1
1
0.160969
0.543328
0.970614
1.18692
1.25031
1.23752
1.16248
1.05561
1.00685
1.00034
1.00001
1
1
1
1
0.577329
0.973082
1.18585
1.24448
1.25637
1.2079
1.09922
1.01835
1.00128
1.00004
1
1
1
1
1
1.24736
1.25336
1.2574
1.25386
1.24583
1.14685
1.03198
1.00126
1.00003
1
1
1
1
1
1
1.24599
1.25449
1.25969
1.24651
1.22905
1.12494
1.02985
1.00283
1.00011
1
1
1
1
1
1
1.24583
1.26075
1.26556
1.24563
1.19863
1.07745
1.01047
1.00039
1.00001
1
1
1
1
1
1
1.24863
1.26673
1.26793
1.2382
1.16166
1.04608
1.00402
1.00012
1
1
1
1
1
1
1
1.25115
1.26915
1.2689
1.22803
1.11305
1.02106
1.00127
1.00003
1
1
1
1
1
1
1
1.25194
1.26848
1.26492
1.18532
1.0702
1.00926
1.00038
1.00001
1
1
1
1
1
1
1
1.26266
1.26267
1.24819
1.14383
1.0375
1.00301
1.00009
1
1
1
1
1
1
1
1
1.29405
1.25015
1.22106
1.09321
1.01582
1.00092
1.00002
1
1
1
1
1
1
1
1
1.31807
1.23291
1.16665
1.05038
1.00565
1.00023
1
1
1
1
1
1
1
1
1
1.32844
1.20628
1.11059
1.02375
1.00182
1.00005
1
1
1
1
1
1
1
1
1
1.32816
1.16627
1.06346
1.00862
1.00043
1.00001
1
1
1
1
1
1
1
1
1
1.28828
1.11783
1.02979
1.00262
1.00009
1
1
1
1
1
1
1
1
1
1
1.23053
1.07348
1.01163
1.0006
1.00001
1
1
1
1
1
1
1
1
1
1
1.15758
1.03374
1.00284
1.00009
1
1
1
1
1
1
1
1
1
1
1
1.07015
1.00891
1.00039
1.00001
1
1
1
1
1
1
1
1
1
1
1
1
1
1
1
1
1
1
1
1
1
1
1
1
1
1
1
1
1
1
1
1
1
1
1
1
1
1
1
1
1
1
1
1
1
1
1
1
1
1
1
1
1
1
1
1
1
1
1
1
1
1
1
1
1
1
1
1
1
1
1
1
1
1
1
1
1
1
1
1
1
1
1
1
1
1
1
1
1
1
1
1
1
1
1
1
1
1
1
1
1
1
1
1
1
1
1
1
1
1
1
1
1
1
1
1
1
1
1
1
1
1
1
1
1
1
1
1
1
1
1
1
1
1
1
1
1
1
1
1
1
1
1
1
1
1
1
1
1
1
1
1
1
1
1
1
1
1
1
1
1
1
1
1
1
1
1
1
1
1
1
1
1
1
1
1
1
1
1
1
1
1
1
1
1
1
1
1
1
1
1
1
1
1
1
1
1
1
1
1
1
1
1
1
1
1
1
1
1
1
1
1
1
1
1
1
1
1
1
1
1
1
1
1
1
1
1
1
1
1
1
1
1
1
1
1
1
1
1
1
1
1
1
1
1
1
1
1
1
1
1
1
1
1
1
1
1
1
1
1
1
1
1
1
1
1
1
1
1
1
1
1
1
1
1
1
1
1
1
1
1
1
1
1
1
1
1
1
1
1
1
1
1
1
1
1
1
1
1
1
1
1
1
1
1
1
1
1
1
1
1
1
1
1
1
1
1
1
1
1
1
1
1
1
1
1
1
1
1
1
1
1
1
1
1
1
1
1
1
1
1
1
1
1
1
1
1
1
1
1
1
1
1
1
1
1
1
1
1
1
1
4.63656
1.71162
0.999996
1
1
1
1
1
1
1
1
1
1
1
1
1
1
1
1
1
10.6497
7.29179
3.87882
1.15816
0.999999
1
1
1
1
1
1
1
1
1
1
1
1
1
1
1
8.81743
7.7735
7.75918
5.72974
1.6943
0.999776
1
1
1
1
1
1
1
1
1
1
1
1
1
1
8.01702
7.70883
7.90921
7.8734
6.29
2.03729
0.999115
1
1
1
1
1
1
1
1
1
1
1
1
1
7.79148
7.73956
7.85931
7.86403
7.82296
6.57577
2.26325
0.998365
1
1
1
1
1
1
1
1
1
1
1
1
7.81228
7.83256
7.89856
7.88202
7.85609
7.82577
6.62626
2.26623
0.998255
1
1
1
1
1
1
1
1
1
1
1
7.86685
7.90177
7.89621
7.86624
7.85394
7.84463
7.81665
6.64079
2.1973
0.997918
1
1
1
1
1
1
1
1
1
1
7.87826
7.89085
7.86647
7.83612
7.83879
7.8267
7.83916
7.811
6.43604
2.01649
0.997879
1
1
1
1
1
1
1
1
1
7.86501
7.85088
7.82483
7.81398
7.82215
7.81515
7.81977
7.80069
7.71234
5.97871
1.7077
0.998019
1.00001
1
1
1
1
1
1
1
7.83399
7.81002
7.80053
7.80112
7.80108
7.79011
7.77923
7.75825
7.72933
7.51257
4.92801
1.34881
0.998659
1.00001
1
1
1
1
1
1
7.80827
7.78503
7.78231
7.77665
7.76602
7.74307
7.7221
7.68371
7.63137
7.52621
7.1964
3.58345
1.09134
0.999592
0.999996
1
1
1
1
1
7.78561
7.76133
7.75549
7.73359
7.71076
7.68348
7.66179
7.61845
7.55477
7.47921
7.55773
6.82481
2.49586
1.01262
0.999997
1
1
1
1
1
7.75043
7.72309
7.70465
7.67044
7.64798
7.62451
7.60246
7.56967
7.53546
7.49853
7.524
7.45106
5.79088
1.69221
0.999921
0.999994
1
1
1
1
7.69701
7.66151
7.63069
7.58827
7.55947
7.53419
7.51121
7.48923
7.46662
7.45547
7.44654
7.43798
7.29529
4.33635
1.22356
1.00094
1
1
1
1
7.4281
7.28275
7.22643
7.17091
7.14317
7.13154
7.12685
7.13177
7.13643
7.14885
7.16087
7.17256
7.17486
6.45037
2.50298
0.982222
0.998474
0.999988
1
1
2.47738
3.81561
4.39019
4.87316
5.31484
5.62799
5.88886
6.07852
6.25933
6.39619
6.50793
6.59214
6.71509
6.72038
5.6866
2.08618
1.03841
1.00029
1
1
0.724833
2.01378
2.74265
3.30121
3.76689
4.25787
4.66292
5.01867
5.32995
5.57161
5.77752
5.92897
6.12181
6.36386
6.38804
4.7599
1.68334
1.01869
1.00013
1
0.654324
1.2445
1.71646
2.30472
2.80658
3.26971
3.69107
4.10965
4.45557
4.79701
5.08296
5.30443
5.55605
5.84793
6.13921
5.84926
3.54173
1.28508
1.00476
1.00003
0.777039
1.03587
1.16884
1.5582
2.05788
2.52167
2.98005
3.38986
3.77609
4.14333
4.46599
4.78109
5.06861
5.37042
5.65918
5.68743
5.13958
2.38485
1.07535
1.00069
0.948178
0.943182
0.985639
1.26833
1.57765
1.95828
2.39239
2.81179
3.22146
3.58683
3.93209
4.26547
4.60541
4.90309
5.16662
5.36115
5.33757
3.92362
1.49562
1.01201
0.993487
0.92258
0.917433
1.0749
1.29875
1.61235
1.96225
2.33514
2.71598
3.05753
3.44182
3.75782
4.15251
4.49467
4.70389
4.95833
5.22818
4.84494
2.53682
1.10876
0.988229
0.931924
0.934105
0.978463
1.0633
1.31612
1.64021
1.97624
2.31744
2.65203
3.01604
3.38379
3.7559
4.12939
4.32464
4.61085
4.97575
4.93091
3.66252
1.51899
1.00531
0.975842
0.975016
0.96883
0.990416
1.17001
1.40023
1.70164
2.02618
2.36464
2.68525
3.06558
3.4013
3.7504
4.01394
4.23762
4.59423
4.84033
4.3619
2.41599
1.03499
1.01898
0.998192
0.958991
0.951947
1.07553
1.2371
1.48419
1.76391
2.09421
2.40942
2.74762
3.05778
3.36208
3.69001
3.93613
4.27742
4.63475
4.43186
3.77328
1.05166
1.03388
1.00407
0.960929
0.950476
0.994858
1.09112
1.28698
1.54062
1.81887
2.13936
2.45147
2.78468
3.08934
3.38727
3.68636
3.99714
4.32285
4.57438
5.42883
1.04856
1.03154
1.00821
0.981607
0.970608
0.991417
1.0193
1.15335
1.36879
1.63435
1.94536
2.24615
2.56354
2.8665
3.13638
3.43949
3.68932
4.04645
4.87294
7.21981
1.03961
1.02776
1.02204
1.01178
1.00005
0.987638
0.993704
1.10296
1.26314
1.49365
1.78072
2.06818
2.34145
2.63835
2.89488
3.20061
3.43776
3.78929
5.16441
9.42879
1.02302
1.0204
1.03118
1.02352
0.997937
0.968505
0.963036
1.03657
1.15542
1.36182
1.60659
1.89711
2.12395
2.39383
2.67543
2.97103
3.26265
3.63877
5.69424
11.3182
1.00287
1.00936
1.02391
1.02123
0.993299
0.964464
0.958525
0.994598
1.05701
1.2328
1.44097
1.71002
1.96077
2.22616
2.52179
2.749
3.08266
3.65622
6.43819
12.2516
0.998998
1.00761
1.01575
1.01829
0.993896
0.970059
0.968898
0.999299
1.03439
1.16331
1.35354
1.57899
1.82563
2.06135
2.37284
2.59554
2.86874
3.82503
6.99919
12.1746
0.875551
0.987753
1.0069
1.01744
1.00151
0.987576
0.988249
0.995702
1.01615
1.12011
1.27598
1.47195
1.7097
1.90587
2.16377
2.44088
2.75567
4.27609
7.34979
11.4861
0.754236
0.914421
0.985377
1.01367
1.01335
1.00571
0.994752
0.981793
0.988492
1.06536
1.18671
1.34802
1.57467
1.79322
1.98413
2.25594
2.82158
4.96585
7.38709
10.5838
0.650296
0.81249
0.934003
1.00146
1.02642
1.01754
1.00075
0.98187
0.98684
1.03892
1.1206
1.25927
1.43282
1.66556
1.86848
2.1501
3.08439
5.65131
7.24466
9.50377
0.572509
0.706291
0.851797
0.962907
1.02027
1.02416
1.01226
0.991018
0.992017
1.01996
1.0592
1.19304
1.34422
1.52601
1.75993
2.16211
3.67686
6.17747
6.9722
8.3812
0.565225
0.634805
0.753258
0.887294
0.986571
1.01925
1.01353
1.00087
1.00015
0.99804
1.00226
1.09566
1.26044
1.41701
1.62725
2.37441
4.37497
6.26382
6.65464
7.29796
0.593191
0.589704
0.667772
0.80087
0.917628
0.993673
1.01093
1.00761
0.999103
0.987028
0.990965
1.05032
1.15572
1.31311
1.67251
2.88173
4.77158
6.08016
6.22219
6.34675
0.660125
0.602311
0.622785
0.709877
0.827381
0.940954
0.997383
1.0032
0.995768
0.981115
0.981507
1.01549
1.07313
1.29965
1.97683
3.55749
4.81989
5.73211
5.65986
5.56006
0.724546
0.647823
0.622984
0.650347
0.74304
0.863214
0.957433
0.989582
0.98436
0.971113
0.970252
0.991461
1.06084
1.4762
2.5793
3.99185
4.64604
5.17819
5.07696
4.91673
0.809245
0.72592
0.640816
0.6419
0.677561
0.772407
0.87976
0.950982
0.969097
0.960166
0.96416
1.00261
1.2137
2.07478
3.26386
3.97251
4.27149
4.60426
4.57932
4.4602
0.949448
0.882135
0.7799
0.685121
0.666487
0.691354
0.756579
0.850873
0.925593
0.988779
1.13186
1.46747
2.06035
2.7367
3.21166
3.56321
3.60301
3.77327
3.8262
3.7881
)
;

boundaryField
{
    inlet
    {
        type            fixedValue;
        value           uniform 1;
    }
    outlet
    {
        type            zeroGradient;
    }
    airfoil
    {
        type            zeroGradient;
    }
    top
    {
        type            symmetryPlane;
    }
    bottom
    {
        type            symmetryPlane;
    }
    defaultFaces
    {
        type            empty;
    }
}


// ************************************************************************* //
