/*--------------------------------*- C++ -*----------------------------------*\
  =========                 |
  \\      /  F ield         | OpenFOAM: The Open Source CFD Toolbox
   \\    /   O peration     | Website:  https://openfoam.org
    \\  /    A nd           | Version:  7
     \\/     M anipulation  |
\*---------------------------------------------------------------------------*/
FoamFile
{
    version     2.0;
    format      ascii;
    class       volScalarField;
    location    "9.9";
    object      T;
}
// * * * * * * * * * * * * * * * * * * * * * * * * * * * * * * * * * * * * * //

dimensions      [0 0 0 1 0 0 0];

internalField   nonuniform List<scalar> 
1750
(
1.39155
1.52583
1.49781
1.4309
1.39913
1.424
1.44225
1.43676
1.44733
1.45413
0.480492
1.04062
1.71574
1.88157
1.85005
1.79184
1.73155
1.6665
1.64706
1.61473
0.378585
0.374965
0.57977
1.17616
1.54
1.71467
1.75486
1.74676
1.72359
1.67204
0.419097
0.4314
0.43856
0.447855
0.555489
0.885319
1.15028
1.39757
1.4898
1.54244
0.483616
0.509907
0.518936
0.522185
0.520414
0.531571
0.54723
0.698794
0.906904
1.16478
0.572412
0.587804
0.586101
0.585184
0.595713
0.60904
0.622608
0.629886
0.633599
0.731668
0.687502
0.689299
0.690962
0.695006
0.696607
0.697019
0.697671
0.696909
0.69688
0.695616
0.824895
0.816099
0.803144
0.792661
0.78672
0.779984
0.77103
0.760909
0.754363
0.745832
0.958218
0.94333
0.927543
0.908575
0.892369
0.877759
0.863352
0.849645
0.837768
0.821173
1.03048
1.02357
1.01465
1.00276
0.988989
0.974534
0.958061
0.939885
0.922937
0.896604
1.03805
1.03778
1.03687
1.03497
1.03222
1.02829
1.02212
1.01275
1.00146
0.97833
1.02585
1.02835
1.03018
1.03145
1.03168
1.03167
1.03144
1.03062
1.0291
1.02278
1.00588
1.00806
1.01074
1.0138
1.01714
1.02028
1.02304
1.02502
1.02671
1.0265
1.00029
1.0005
1.00089
1.00154
1.00258
1.00415
1.0063
1.00904
1.0121
1.01701
1
1.00001
1.00002
1.00004
1.00009
1.00019
1.00041
1.00085
1.00157
1.0042
0.51667
0.437607
0.387398
0.404143
0.457325
0.558141
0.68609
0.834939
0.973317
1.03463
1.03802
1.02341
1.00433
1.00019
1
0.515064
0.433619
0.376408
0.408978
0.483247
0.599853
0.742789
0.88999
1.00468
1.04122
1.03772
1.01824
1.00228
1.00007
1
0.502524
0.411006
0.366686
0.405659
0.513775
0.650264
0.788701
0.927579
1.02231
1.04313
1.03621
1.0133
1.0012
1.00003
1
0.500468
0.392094
0.360717
0.425119
0.565526
0.694886
0.831654
0.965077
1.0367
1.04397
1.0326
1.00851
1.00053
1.00001
1
0.507976
0.373501
0.361552
0.489755
0.610212
0.733682
0.878221
1.00127
1.04507
1.04419
1.02572
1.00487
1.00022
1
1
0.510135
0.354688
0.391301
0.531802
0.639778
0.780175
0.93531
1.0276
1.04831
1.04277
1.01942
1.00259
1.00009
1
1
0.504459
0.346203
0.443815
0.556008
0.697218
0.857433
0.98168
1.04293
1.04979
1.03866
1.01289
1.00107
1.00003
1
1
0.498451
0.396085
0.488633
0.61226
0.773875
0.91886
1.01686
1.05159
1.05032
1.03202
1.00686
1.00039
1.00001
1
1
0.505955
0.437253
0.512526
0.693924
0.855998
0.972877
1.04269
1.05495
1.04871
1.02201
1.00312
1.00013
1
1
1
0.445445
0.446017
0.605354
0.790665
0.925902
1.01903
1.05589
1.05573
1.0409
1.01243
1.00112
1.00004
1
1
1
0.168886
0.417877
0.714858
0.878412
0.986627
1.04785
1.05983
1.05553
1.02887
1.00552
1.00031
1.00001
1
1
1
0.109659
0.603607
0.821447
0.954133
1.03348
1.06051
1.06054
1.045
1.01584
1.00181
1.00008
1
1
1
1
0.231811
0.712165
0.912598
1.01572
1.0586
1.06353
1.0574
1.03112
1.00679
1.00048
1.00001
1
1
1
1
0.49125
0.826352
0.99797
1.0537
1.06719
1.06388
1.045
1.01613
1.00201
1.0001
1
1
1
1
1
0.835543
0.999683
1.05405
1.06588
1.06842
1.05623
1.02806
1.00536
1.00037
1.00001
1
1
1
1
1
1.06644
1.06776
1.06861
1.0677
1.0657
1.04063
1.00927
1.00036
1.00001
1
1
1
1
1
1
1.06614
1.06812
1.06919
1.06585
1.0617
1.03519
1.00867
1.00082
1.00003
1
1
1
1
1
1
1.06609
1.06959
1.0706
1.06561
1.054
1.022
1.00302
1.00011
1
1
1
1
1
1
1
1.06682
1.07106
1.0712
1.06383
1.04459
1.01325
1.00116
1.00004
1
1
1
1
1
1
1
1.06751
1.07167
1.07145
1.06131
1.03169
1.00608
1.00036
1.00001
1
1
1
1
1
1
1
1.06779
1.0714
1.07041
1.05059
1.01998
1.00268
1.00011
1
1
1
1
1
1
1
1
1.07045
1.06967
1.06621
1.03988
1.01079
1.00087
1.00003
1
1
1
1
1
1
1
1
1.07798
1.06636
1.05946
1.02632
1.00457
1.00026
1.00001
1
1
1
1
1
1
1
1
1.08372
1.06189
1.04552
1.0144
1.00163
1.00007
1
1
1
1
1
1
1
1
1
1.08613
1.05524
1.03075
1.00683
1.00052
1.00002
1
1
1
1
1
1
1
1
1
1.08592
1.0452
1.01795
1.00248
1.00012
1
1
1
1
1
1
1
1
1
1
1.07623
1.0327
1.00853
1.00075
1.00003
1
1
1
1
1
1
1
1
1
1
1.06189
1.02085
1.00336
1.00017
1
1
1
1
1
1
1
1
1
1
1
1.04312
1.00972
1.00082
1.00003
1
1
1
1
1
1
1
1
1
1
1
1.01975
1.00259
1.00011
1
1
1
1
1
1
1
1
1
1
1
1
1
1
1
1
1
1
1
1
1
1
1
1
1
1
1
1
1
1
1
1
1
1
1
1
1
1
1
1
1
1
1
1
1
1
1
1
1
1
1
1
1
1
1
1
1
1
1
1
1
1
1
1
1
1
1
1
1
1
1
1
1
1
1
1
1
1
1
1
1
1
1
1
1
1
1
1
1
1
1
1
1
1
1
1
1
1
1
1
1
1
1
1
1
1
1
1
1
1
1
1
1
1
1
1
1
1
1
1
1
1
1
1
1
1
1
1
1
1
1
1
1
1
1
1
1
1
1
1
1
1
1
1
1
1
1
1
1
1
1
1
1
1
1
1
1
1
1
1
1
1
1
1
1
1
1
1
1
1
1
1
1
1
1
1
1
1
1
1
1
1
1
1
1
1
1
1
1
1
1
1
1
1
1
1
1
1
1
1
1
1
1
1
1
1
1
1
1
1
1
1
1
1
1
1
1
1
1
1
1
1
1
1
1
1
1
1
1
1
1
1
1
1
1
1
1
1
1
1
1
1
1
1
1
1
1
1
1
1
1
1
1
1
1
1
1
1
1
1
1
1
1
1
1
1
1
1
1
1
1
1
1
1
1
1
1
1
1
1
1
1
1
1
1
1
1
1
1
1
1
1
1
1
1
1
1
1
1
1
1
1
1
1
1
1
1
1
1
1
1
1
1
1
1
1
1
1
1
1
1
1
1
1
1
1
1
1
1
1
1
1
1
1
1
1
1
1
1
1
1
1
1
1
1
1
1
1
1
1
1
1
1
1
1
1
1
1
1
1
1
1
1.84537
1.28334
0.999998
1
1
1
1
1
1
1
1
1
1
1
1
1
1
1
1
1
2.52433
2.24525
1.77891
1.07103
1
1
1
1
1
1
1
1
1
1
1
1
1
1
1
1
2.40898
2.30941
2.26326
2.05926
1.27736
0.999868
1
1
1
1
1
1
1
1
1
1
1
1
1
1
2.34175
2.3056
2.31379
2.30385
2.1141
1.37941
0.999589
1
1
1
1
1
1
1
1
1
1
1
1
1
2.31551
2.30806
2.31281
2.30333
2.27318
2.11612
1.43583
0.999341
1
1
1
1
1
1
1
1
1
1
1
1
2.31617
2.31506
2.31599
2.30624
2.28813
2.26084
2.12241
1.44368
0.999273
1
1
1
1
1
1
1
1
1
1
1
2.31913
2.32028
2.31575
2.30526
2.29146
2.27342
2.25129
2.13525
1.43102
0.999135
1
1
1
1
1
1
1
1
1
1
2.31846
2.31892
2.31328
2.30301
2.29096
2.27381
2.26085
2.24696
2.10916
1.38615
0.999076
1
1
1
1
1
1
1
1
1
2.31702
2.31512
2.30964
2.3013
2.28978
2.27342
2.26006
2.25046
2.24316
2.06859
1.29212
0.99908
1
1
1
1
1
1
1
1
2.31441
2.31135
2.30717
2.30018
2.28802
2.27162
2.25744
2.24903
2.24678
2.23552
1.93332
1.15455
0.999366
1
1
1
1
1
1
1
2.31206
2.30899
2.30534
2.29796
2.28514
2.26814
2.25386
2.24473
2.23948
2.2326
2.1964
1.7136
1.04109
0.999815
0.999998
1
1
1
1
1
2.30971
2.30655
2.3027
2.29422
2.281
2.26458
2.251
2.24109
2.23341
2.22561
2.22845
2.14588
1.50426
1.00553
1
1
1
1
1
1
2.30625
2.30279
2.2979
2.28882
2.27675
2.26193
2.24867
2.2386
2.23184
2.22631
2.22523
2.2082
2.02736
1.28442
0.999885
0.999997
1
1
1
1
2.30122
2.29715
2.29139
2.28186
2.27009
2.25635
2.24316
2.23297
2.22599
2.2221
2.21794
2.21044
2.19386
1.83936
1.10104
1.00036
1
1
1
1
2.27829
2.26303
2.25321
2.24185
2.23073
2.21956
2.20887
2.20108
2.19616
2.1941
2.19226
2.18905
2.18396
2.10606
1.505
0.992703
0.999525
0.999997
1
1
1.68152
1.89451
1.95955
2.01091
2.05482
2.08057
2.09788
2.10702
2.11718
2.12586
2.13361
2.13863
2.146
2.1408
2.01612
1.39919
1.01654
1.0001
1
1
1.28519
1.63142
1.73172
1.80676
1.86722
1.92633
1.96792
1.99937
2.02517
2.04497
2.06265
2.07529
2.09136
2.10852
2.10504
1.89847
1.26854
1.00758
1.00004
1
1.28888
1.44797
1.53119
1.63779
1.71897
1.78911
1.8441
1.89245
1.92752
1.96146
1.98949
2.01064
2.03464
2.05916
2.08195
2.045
1.70034
1.11876
1.00178
1.00001
1.35017
1.38445
1.38314
1.4658
1.57379
1.66225
1.73711
1.79495
1.8425
1.88436
1.91928
1.95275
1.98237
2.01055
2.03524
2.02985
1.93019
1.44836
1.03053
1.00024
1.40291
1.34446
1.31404
1.38435
1.46454
1.55102
1.63612
1.70579
1.76458
1.81174
1.85302
1.89138
1.92931
1.95941
1.98358
1.99717
1.97964
1.74404
1.19233
1.00453
1.4082
1.34486
1.29986
1.32748
1.38785
1.46844
1.54822
1.61956
1.68339
1.73327
1.78602
1.82538
1.87369
1.91161
1.93147
1.95446
1.9691
1.87588
1.47011
1.04339
1.4079
1.35268
1.31059
1.29928
1.31261
1.3842
1.46905
1.544
1.61031
1.6664
1.72245
1.77326
1.82146
1.86596
1.88574
1.91525
1.94394
1.91453
1.68415
1.19297
1.41922
1.37968
1.33291
1.29552
1.28504
1.33763
1.4041
1.48138
1.55231
1.61557
1.6686
1.72525
1.77068
1.81499
1.84596
1.87088
1.90413
1.90636
1.79524
1.4278
1.42707
1.3943
1.33825
1.28947
1.27108
1.30685
1.35623
1.4266
1.4935
1.56274
1.61856
1.67259
1.71707
1.75852
1.80224
1.83299
1.86811
1.88551
1.82158
1.66107
1.42281
1.39196
1.33781
1.28966
1.27157
1.28091
1.31025
1.36974
1.43676
1.50118
1.56444
1.61887
1.67178
1.71666
1.75933
1.80004
1.83453
1.85411
1.84739
1.86141
1.41476
1.38735
1.33895
1.29785
1.28069
1.28109
1.28592
1.32718
1.38949
1.45641
1.52381
1.58006
1.63359
1.68108
1.7216
1.76544
1.79431
1.82438
1.8912
2.0338
1.40684
1.38423
1.34515
1.31065
1.29152
1.27928
1.27615
1.3102
1.35903
1.42028
1.48716
1.54401
1.59266
1.6425
1.68271
1.72987
1.75956
1.79517
1.93277
2.2108
1.40062
1.38359
1.35363
1.3188
1.29057
1.27038
1.26407
1.28704
1.32508
1.3834
1.4443
1.50689
1.54931
1.59807
1.64546
1.69378
1.73454
1.77724
1.9963
2.35218
1.39543
1.38218
1.3526
1.3191
1.28924
1.26879
1.26313
1.27346
1.29162
1.34472
1.39957
1.46371
1.51555
1.56642
1.61871
1.65661
1.70726
1.78299
2.06975
2.42284
1.39277
1.38161
1.35139
1.31968
1.29019
1.27143
1.2677
1.27599
1.28458
1.32386
1.3763
1.43296
1.48694
1.53355
1.59167
1.62944
1.67266
1.81417
2.11147
2.43137
1.37859
1.36957
1.34392
1.31779
1.29293
1.27875
1.27563
1.27492
1.27856
1.31051
1.35492
1.40592
1.46064
1.50006
1.55064
1.60048
1.65573
1.88385
2.13836
2.40409
1.33903
1.3345
1.33018
1.31528
1.29776
1.28596
1.27802
1.27113
1.27007
1.29262
1.32878
1.37186
1.42805
1.47467
1.51252
1.56615
1.67183
1.97164
2.13704
2.35952
1.27441
1.2855
1.30421
1.30874
1.30283
1.29032
1.28025
1.27176
1.27064
1.28477
1.3087
1.34661
1.3911
1.44468
1.48615
1.54178
1.72673
2.04346
2.12465
2.29422
1.21301
1.22897
1.26532
1.29139
1.29999
1.29356
1.28508
1.27569
1.27357
1.27981
1.28902
1.32713
1.36627
1.40871
1.46037
1.54932
1.83755
2.10321
2.09985
2.21189
1.18727
1.18182
1.21521
1.25825
1.28589
1.29175
1.28652
1.27979
1.27772
1.2732
1.26972
1.29623
1.34153
1.37911
1.42975
1.60768
1.93612
2.09654
2.07093
2.12292
1.18477
1.14368
1.16905
1.21834
1.25807
1.28189
1.28559
1.28271
1.27753
1.26978
1.26593
1.28045
1.30868
1.34568
1.4455
1.71968
1.98027
2.06879
2.03178
2.03781
1.2066
1.14465
1.13654
1.17194
1.21977
1.26159
1.28025
1.28095
1.2764
1.26737
1.26249
1.26779
1.27865
1.34838
1.53501
1.83313
1.96766
2.02706
1.97927
1.96069
1.22967
1.15818
1.13521
1.14244
1.18043
1.22948
1.26463
1.2756
1.27193
1.26296
1.25815
1.25996
1.27944
1.41043
1.67572
1.88812
1.93431
1.96509
1.92104
1.89258
1.26212
1.1879
1.13953
1.13377
1.15091
1.19037
1.2335
1.26007
1.26525
1.25832
1.25584
1.26453
1.33874
1.58117
1.80117
1.87581
1.87784
1.89559
1.86558
1.84029
1.31913
1.25125
1.19855
1.15181
1.1403
1.15211
1.18164
1.22022
1.24759
1.26968
1.32598
1.45086
1.60623
1.71713
1.77497
1.80123
1.78089
1.78605
1.77271
1.75791
)
;

boundaryField
{
    inlet
    {
        type            fixedValue;
        value           uniform 1;
    }
    outlet
    {
        type            inletOutlet;
        inletValue      uniform 1;
        value           nonuniform List<scalar> 
35
(
1.31926
1.2513
1.19849
1.15164
1.1401
1.15198
1.18151
1.2201
1.24742
1.26933
1.32519
1.44967
1.60532
1.71662
1.77474
1.80119
1.78094
1.78616
1.77274
1.75792
1.45419
1.6148
1.67184
1.54187
1.16416
0.731465
0.69565
0.745888
0.821164
0.8966
0.978326
1.02278
1.0265
1.01701
1.0042
)
;
    }
    airfoil
    {
        type            zeroGradient;
    }
    top
    {
        type            symmetryPlane;
    }
    bottom
    {
        type            symmetryPlane;
    }
    defaultFaces
    {
        type            empty;
    }
}


// ************************************************************************* //
