/*--------------------------------*- C++ -*----------------------------------*\
  =========                 |
  \\      /  F ield         | OpenFOAM: The Open Source CFD Toolbox
   \\    /   O peration     | Website:  https://openfoam.org
    \\  /    A nd           | Version:  7
     \\/     M anipulation  |
\*---------------------------------------------------------------------------*/
FoamFile
{
    version     2.0;
    format      ascii;
    class       volScalarField;
    location    "2.5";
    object      rho;
}
// * * * * * * * * * * * * * * * * * * * * * * * * * * * * * * * * * * * * * //

dimensions      [1 -3 0 0 0 0 0];

internalField   nonuniform List<scalar> 
14400
(
0.966155
0.98346
1.00374
1.02526
1.04784
1.07095
1.09492
1.11898
1.14383
1.16801
1.19294
1.21605
1.24008
1.26054
1.28185
1.29768
1.31216
1.32211
1.32582
1.32394
1.3145
1.29405
1.28871
1.29109
1.29837
1.30682
1.3084
1.3065
1.30178
1.30078
1.30366
1.30998
1.309
1.30451
1.30398
1.30652
1.31574
1.34732
1.38287
1.41843
0.953052
0.95407
0.956222
0.959817
0.965077
0.972353
0.981766
0.993801
1.00839
1.0263
1.04693
1.07113
1.09758
1.12679
1.15724
1.18737
1.21809
1.24283
1.26715
1.28235
1.28905
1.29644
1.30478
1.31041
1.31354
1.31182
1.309
1.30447
1.30223
1.30523
1.30946
1.31062
1.30826
1.30547
1.30658
1.3097
1.31774
1.34688
1.38332
1.41928
0.954354
0.954306
0.95426
0.954203
0.9542
0.954247
0.954411
0.954901
0.955931
0.957773
0.960743
0.965768
0.973336
0.985403
1.00203
1.02681
1.05802
1.09867
1.14587
1.19452
1.24781
1.28542
1.30851
1.31109
1.3129
1.31125
1.30488
1.30562
1.31057
1.31643
1.31468
1.31069
1.30839
1.31001
1.31297
1.31376
1.32015
1.34858
1.38485
1.42202
0.957086
0.956875
0.956629
0.956357
0.956089
0.95583
0.955638
0.955482
0.955328
0.955119
0.954999
0.954905
0.954948
0.955181
0.956063
0.95849
0.963318
0.973634
0.990627
1.02147
1.06622
1.1254
1.19387
1.23854
1.28336
1.29039
1.30042
1.31039
1.32478
1.32458
1.31995
1.30961
1.31071
1.31724
1.31971
1.31888
1.32481
1.3506
1.38649
1.42547
0.959236
0.959073
0.958877
0.958651
0.9584
0.958107
0.957772
0.95741
0.957003
0.956615
0.956249
0.955888
0.955481
0.955264
0.955053
0.954927
0.954967
0.955202
0.95583
0.958235
0.964338
0.982491
1.01514
1.07565
1.1502
1.2172
1.28233
1.3043
1.32186
1.32027
1.31084
1.31044
1.31745
1.32378
1.32127
1.32117
1.32893
1.35277
1.38771
1.42902
0.958752
0.958662
0.958544
0.958412
0.958269
0.9581
0.957924
0.957737
0.95753
0.957329
0.957171
0.957036
0.9568
0.956708
0.956728
0.956805
0.956932
0.957025
0.957047
0.957095
0.957088
0.957547
0.960037
0.970112
0.991828
1.04344
1.11458
1.18544
1.25836
1.27701
1.29691
1.31272
1.32903
1.32795
1.32083
1.32145
1.33142
1.35192
1.38829
1.43158
0.958041
0.958005
0.958009
0.958029
0.95805
0.958054
0.958072
0.95813
0.958277
0.958426
0.958566
0.958748
0.958854
0.958913
0.958987
0.958947
0.958785
0.95849
0.958009
0.957437
0.957181
0.957179
0.957554
0.958029
0.95881
0.963241
0.977133
1.022
1.0933
1.17999
1.27009
1.30219
1.32281
1.32155
1.31279
1.32105
1.33256
1.35052
1.38954
1.43383
0.960676
0.960866
0.961044
0.961172
0.961353
0.961422
0.961418
0.961472
0.961662
0.961723
0.961587
0.961388
0.961186
0.96089
0.960418
0.959808
0.959127
0.958393
0.957586
0.956633
0.956187
0.956113
0.95615
0.955897
0.954781
0.95163
0.950809
0.954294
0.968458
1.0172
1.09774
1.18601
1.26761
1.28971
1.30479
1.32752
1.33483
1.35061
1.39399
1.43604
0.965372
0.965402
0.965398
0.965366
0.96529
0.965156
0.96497
0.96474
0.964478
0.964141
0.963697
0.963206
0.962682
0.962053
0.961257
0.96035
0.959308
0.958128
0.957022
0.955644
0.953958
0.9534
0.953261
0.952936
0.951625
0.949753
0.947962
0.947458
0.947863
0.95277
0.970406
1.02715
1.11619
1.22011
1.29096
1.32064
1.31869
1.34456
1.39667
1.43629
0.966559
0.966461
0.966328
0.966161
0.96594
0.965636
0.965256
0.964796
0.96425
0.963651
0.963057
0.962456
0.961851
0.961223
0.960513
0.959653
0.958393
0.956457
0.954692
0.953235
0.951732
0.95112
0.951059
0.950832
0.949733
0.949095
0.949925
0.951305
0.951415
0.95002
0.949881
0.95511
0.978429
1.04566
1.14609
1.2413
1.27676
1.34627
1.40072
1.43181
0.961736
0.961478
0.961142
0.960734
0.96026
0.95979
0.959337
0.958844
0.958372
0.957968
0.957607
0.95726
0.957031
0.956773
0.956351
0.955556
0.953973
0.952259
0.951567
0.951366
0.951201
0.951125
0.951149
0.951042
0.950544
0.951038
0.953487
0.955045
0.954533
0.952099
0.949517
0.948754
0.94929
0.957024
0.994784
1.07321
1.19456
1.32351
1.37456
1.42541
0.951942
0.951837
0.951569
0.950799
0.95012
0.950004
0.949893
0.949732
0.949713
0.949896
0.950325
0.950846
0.951756
0.952572
0.952633
0.952372
0.951254
0.950573
0.95069
0.95136
0.952421
0.952451
0.952321
0.952126
0.952144
0.953189
0.954376
0.954932
0.954124
0.951564
0.947522
0.944992
0.943636
0.943886
0.947272
0.964561
1.03203
1.1547
1.30217
1.41682
0.955757
0.956121
0.956843
0.957044
0.956894
0.956192
0.955924
0.956097
0.956237
0.956475
0.95655
0.956638
0.957028
0.957715
0.958603
0.959271
0.959535
0.96042
0.963015
0.965451
0.965503
0.963994
0.96143
0.958892
0.956979
0.955516
0.953551
0.951268
0.949223
0.946752
0.943365
0.941433
0.941016
0.941576
0.941744
0.943523
0.954514
1.00172
1.15432
1.37393
0.994081
0.994619
0.995201
0.995247
0.994789
0.993958
0.992149
0.990841
0.990071
0.98831
0.985168
0.982772
0.982369
0.98214
0.981301
0.97902
0.976282
0.975458
0.975877
0.976068
0.974406
0.969829
0.963777
0.958081
0.955467
0.953846
0.9509
0.945876
0.944328
0.943805
0.942408
0.940301
0.940247
0.940998
0.944225
0.946924
0.946535
0.95163
0.996774
1.21808
1.04505
1.04447
1.04371
1.04297
1.04219
1.04099
1.03943
1.03734
1.03497
1.03198
1.02792
1.02414
1.02114
1.01824
1.01474
1.01033
1.00604
1.00014
0.993756
0.990858
0.98728
0.980816
0.975462
0.973348
0.972283
0.969769
0.962671
0.955722
0.954542
0.953931
0.95404
0.954894
0.955013
0.953974
0.952571
0.949867
0.945008
0.945674
0.953883
1.08043
1.14659
1.14509
1.14366
1.14146
1.13906
1.13744
1.13584
1.13299
1.13078
1.12896
1.12583
1.12315
1.12051
1.11571
1.11312
1.11048
1.10612
1.10013
1.09263
1.08513
1.07833
1.0676
1.0577
1.05562
1.05096
1.04351
1.03357
1.02058
1.01142
1.00413
0.995737
0.986138
0.97636
0.966148
0.957013
0.946681
0.943552
0.945134
0.952871
1.01207
1.29238
1.29069
1.28843
1.28603
1.28375
1.28103
1.27738
1.27332
1.26991
1.26619
1.26126
1.25586
1.25037
1.24414
1.23733
1.23003
1.22189
1.21277
1.20314
1.19465
1.18605
1.17646
1.16452
1.15303
1.13629
1.11801
1.1062
1.09353
1.07865
1.06158
1.04551
1.0271
1.01057
0.994741
0.982048
0.96718
0.961608
0.962954
0.968852
1.0067
1.47104
1.46884
1.46567
1.46206
1.45941
1.45644
1.45247
1.44713
1.44252
1.43797
1.43202
1.42513
1.4182
1.4108
1.40228
1.39325
1.3834
1.37317
1.36179
1.3495
1.33651
1.32178
1.30633
1.2903
1.27552
1.25806
1.23677
1.21491
1.19749
1.17764
1.15741
1.13676
1.11538
1.09434
1.07503
1.05298
1.0328
1.01215
0.998574
1.011
1.66007
1.65782
1.65432
1.65178
1.6495
1.64647
1.64279
1.63827
1.63344
1.62852
1.62257
1.61581
1.60865
1.60082
1.59214
1.58245
1.57204
1.56027
1.54789
1.53389
1.51916
1.5023
1.48362
1.46425
1.44198
1.41809
1.39524
1.37005
1.34219
1.31467
1.28473
1.25546
1.22547
1.19405
1.16296
1.13108
1.10062
1.0703
1.03924
1.04274
1.77503
1.77417
1.77306
1.77156
1.77038
1.77027
1.76995
1.76848
1.7661
1.76334
1.76029
1.75683
1.75288
1.74849
1.74361
1.73814
1.73196
1.72498
1.71714
1.70844
1.69811
1.68553
1.66991
1.65252
1.63329
1.61123
1.58524
1.55711
1.52588
1.49265
1.45767
1.41949
1.38083
1.34173
1.30024
1.2629
1.22384
1.19118
1.15741
1.14519
1.78895
1.78818
1.78727
1.78682
1.7863
1.78603
1.78599
1.7855
1.78432
1.78295
1.78205
1.78136
1.78069
1.77999
1.77907
1.77798
1.77661
1.7748
1.7726
1.76928
1.76512
1.76156
1.7576
1.75233
1.74612
1.73825
1.72768
1.71341
1.69502
1.67229
1.64457
1.61235
1.57332
1.53012
1.48266
1.43367
1.38482
1.33708
1.29748
1.24995
1.7545
1.75475
1.75506
1.75544
1.75598
1.75631
1.75617
1.75614
1.75646
1.75682
1.75703
1.75742
1.75813
1.75878
1.75934
1.75993
1.76045
1.76084
1.76073
1.75999
1.75908
1.75808
1.75673
1.75448
1.7516
1.74898
1.7458
1.74153
1.73609
1.72904
1.71983
1.70812
1.69235
1.67332
1.64704
1.6134
1.57398
1.5296
1.48871
1.42867
1.60516
1.6062
1.60751
1.60955
1.61111
1.61263
1.61467
1.61695
1.6194
1.62217
1.62514
1.62832
1.63177
1.63546
1.63938
1.64353
1.64793
1.65261
1.65744
1.66261
1.66816
1.67426
1.68051
1.68653
1.69215
1.69645
1.70063
1.70468
1.70724
1.70806
1.70652
1.70296
1.69677
1.68679
1.674
1.65793
1.63812
1.61356
1.58789
1.53972
1.44194
1.44251
1.44312
1.44408
1.44509
1.44602
1.44717
1.4485
1.44992
1.45153
1.45336
1.4554
1.45765
1.4602
1.46306
1.46629
1.46993
1.47407
1.47874
1.48403
1.49003
1.49676
1.50423
1.51251
1.52175
1.53197
1.54304
1.55492
1.56743
1.5802
1.59266
1.6043
1.61471
1.62192
1.62485
1.62256
1.61499
1.60169
1.58444
1.54395
1.40197
1.40203
1.40209
1.40216
1.40223
1.40232
1.40242
1.40253
1.40266
1.40281
1.40298
1.40318
1.40342
1.40369
1.40401
1.40438
1.40484
1.40537
1.40602
1.40681
1.40776
1.40892
1.41033
1.41206
1.41421
1.41689
1.42017
1.42429
1.42926
1.43549
1.44278
1.45162
1.46157
1.47268
1.4841
1.49451
1.50255
1.50581
1.50371
1.48811
1.40003
1.40003
1.40003
1.40004
1.40004
1.40004
1.40004
1.40004
1.40004
1.40005
1.40005
1.40005
1.40006
1.40006
1.40007
1.40008
1.40009
1.4001
1.40012
1.40014
1.40017
1.4002
1.40024
1.4003
1.40038
1.40049
1.40064
1.40085
1.40114
1.40156
1.40214
1.40298
1.40413
1.40574
1.40784
1.41046
1.41354
1.41626
1.4181
1.41703
1.40001
1.40001
1.40001
1.40001
1.40001
1.40001
1.40001
1.40001
1.40001
1.40001
1.40001
1.40001
1.40001
1.40001
1.40001
1.40001
1.40001
1.40001
1.40001
1.40001
1.40001
1.40001
1.40001
1.40001
1.40001
1.40001
1.40001
1.40001
1.40002
1.40003
1.40003
1.40005
1.40007
1.40011
1.40017
1.40026
1.40038
1.40053
1.40069
1.40072
1.40001
1.40001
1.40001
1.40001
1.40001
1.40001
1.40001
1.40001
1.40001
1.40001
1.40001
1.40001
1.40001
1.40001
1.40001
1.40001
1.40001
1.40001
1.40001
1.40001
1.40001
1.40001
1.40001
1.40001
1.40001
1.40001
1.40001
1.40001
1.40001
1.40001
1.40001
1.40001
1.40001
1.40001
1.40001
1.40001
1.40001
1.40001
1.40001
1.40001
1.40001
1.40001
1.40001
1.40001
1.40001
1.40001
1.40001
1.40001
1.40001
1.40001
1.40001
1.40001
1.40001
1.40001
1.40001
1.40001
1.40001
1.40001
1.40001
1.40001
1.40001
1.40001
1.40001
1.40001
1.40001
1.40001
1.40001
1.40001
1.40001
1.40001
1.40001
1.40001
1.40001
1.40001
1.40001
1.40001
1.40001
1.40001
1.40001
1.40001
1.40001
1.40001
1.40001
1.40001
1.40001
1.40001
1.40001
1.40001
1.40001
1.40001
1.40001
1.40001
1.40001
1.40001
1.40001
1.40001
1.40001
1.40001
1.40001
1.40001
1.40001
1.40001
1.40001
1.40001
1.40001
1.40001
1.40001
1.40001
1.40001
1.40001
1.40001
1.40001
1.40001
1.40001
1.40001
1.40001
1.40001
1.40001
1.40001
1.40001
0.952925
0.952723
0.954464
0.957324
0.959438
0.958869
0.958075
0.960533
0.965296
0.966657
0.961999
0.952025
0.955719
0.993945
1.04581
1.14866
1.29489
1.47431
1.66273
1.77604
1.7896
1.75417
1.60354
1.44107
1.40191
1.40003
1.40001
1.40001
1.40001
1.40001
0.95292
0.95291
0.95471
0.957702
0.959714
0.959018
0.958132
0.960457
0.965244
0.966732
0.962197
0.952187
0.956123
0.994535
1.04711
1.15211
1.29941
1.47945
1.66693
1.77751
1.7902
1.75357
1.60077
1.43973
1.40182
1.40003
1.40001
1.40001
1.40001
1.40001
0.952841
0.953026
0.954951
0.958089
0.960002
0.959183
0.958182
0.960375
0.965248
0.966767
0.962413
0.952996
0.956923
0.996098
1.04802
1.15534
1.30345
1.48405
1.67106
1.77891
1.79053
1.75301
1.59813
1.4385
1.40173
1.40003
1.40001
1.40001
1.40001
1.40001
0.952765
0.953196
0.95523
0.958505
0.960309
0.95936
0.958239
0.960225
0.9653
0.966748
0.96258
0.954031
0.958083
0.998637
1.04934
1.15904
1.30769
1.48912
1.67558
1.78038
1.79073
1.75227
1.59542
1.43722
1.40163
1.40003
1.40001
1.40001
1.40001
1.40001
0.952657
0.953423
0.95557
0.958964
0.96064
0.959557
0.958312
0.959866
0.965249
0.966663
0.962659
0.954911
0.959484
1.0008
1.05066
1.16337
1.31261
1.49516
1.68059
1.78196
1.79114
1.75136
1.59255
1.43588
1.40154
1.40002
1.40001
1.40001
1.40001
1.40001
0.952535
0.953668
0.955973
0.959468
0.961013
0.959801
0.958428
0.959528
0.964809
0.96657
0.962701
0.955785
0.96092
1.00245
1.05205
1.1682
1.31816
1.50165
1.68576
1.78363
1.79194
1.75041
1.58943
1.43448
1.40144
1.40002
1.40001
1.40001
1.40001
1.40001
0.952452
0.953937
0.956421
0.960013
0.961431
0.960107
0.958595
0.959342
0.964364
0.966458
0.962928
0.956781
0.962349
1.00411
1.05426
1.17329
1.32382
1.50813
1.69094
1.78532
1.79263
1.74916
1.58606
1.43305
1.40135
1.40002
1.40001
1.40001
1.40001
1.40001
0.952396
0.954239
0.956918
0.960581
0.961888
0.960474
0.958786
0.959254
0.964145
0.96632
0.96362
0.957987
0.963883
1.00622
1.05759
1.17866
1.32979
1.51493
1.69635
1.78702
1.79323
1.74752
1.58246
1.43157
1.40125
1.40002
1.40001
1.40001
1.40001
1.40001
0.952375
0.954546
0.95744
0.961182
0.96238
0.960893
0.958999
0.959188
0.963958
0.966183
0.964352
0.959336
0.965634
1.00875
1.06096
1.18435
1.33631
1.52225
1.70217
1.78871
1.79386
1.74577
1.57863
1.43004
1.40116
1.40002
1.40001
1.40001
1.40001
1.40001
0.952381
0.954883
0.957984
0.961797
0.962897
0.961382
0.959253
0.959118
0.96373
0.966087
0.964841
0.960568
0.96745
1.0113
1.06435
1.19039
1.34339
1.53014
1.7083
1.79034
1.79478
1.74409
1.57453
1.42847
1.40106
1.40002
1.40001
1.40001
1.40001
1.40001
0.952526
0.955236
0.958558
0.962432
0.963441
0.96194
0.959564
0.959101
0.963416
0.966018
0.965147
0.961403
0.968828
1.01361
1.06838
1.19684
1.35108
1.53856
1.71465
1.79193
1.79598
1.74238
1.57015
1.42686
1.40097
1.40002
1.40001
1.40001
1.40001
1.40001
0.952676
0.955565
0.959152
0.96308
0.964013
0.962579
0.959961
0.959268
0.963086
0.965974
0.965303
0.961737
0.969347
1.01565
1.07363
1.20363
1.35937
1.54762
1.7213
1.79356
1.79703
1.74053
1.56547
1.4252
1.40088
1.40002
1.40001
1.40001
1.40001
1.40001
0.952791
0.955876
0.959773
0.963737
0.964601
0.963275
0.960448
0.95959
0.962886
0.965987
0.965395
0.961747
0.969162
1.01762
1.07966
1.21068
1.36843
1.55739
1.72826
1.7954
1.79771
1.73846
1.56047
1.42351
1.40079
1.40001
1.40001
1.40001
1.40001
1.40001
0.952934
0.956238
0.960409
0.964375
0.965208
0.96404
0.961095
0.960064
0.962751
0.966141
0.965538
0.961348
0.968406
1.01978
1.0861
1.21829
1.37833
1.56777
1.73545
1.79736
1.79814
1.73597
1.5551
1.4218
1.4007
1.40001
1.40001
1.40001
1.40001
1.40001
0.953141
0.956637
0.961031
0.964979
0.965821
0.964822
0.96192
0.96071
0.962676
0.966404
0.965783
0.961022
0.968212
1.02251
1.09321
1.22673
1.38904
1.57875
1.74279
1.79948
1.79846
1.73271
1.54932
1.42008
1.40062
1.40001
1.40001
1.40001
1.40001
1.40001
0.953396
0.956997
0.961622
0.96555
0.966426
0.965569
0.962802
0.961472
0.962669
0.966529
0.966246
0.96118
0.968375
1.02651
1.10139
1.23594
1.40043
1.59037
1.75019
1.80169
1.79916
1.72868
1.54313
1.41836
1.40054
1.40001
1.40001
1.40001
1.40001
1.40001
0.953763
0.957325
0.962182
0.966055
0.966997
0.966238
0.963595
0.962246
0.963005
0.966662
0.967282
0.961536
0.96938
1.03218
1.11041
1.24562
1.41234
1.60257
1.75762
1.80384
1.80029
1.72435
1.53661
1.41665
1.40047
1.40001
1.40001
1.40001
1.40001
1.40001
0.954267
0.957677
0.962652
0.966454
0.967482
0.966807
0.964341
0.962897
0.9635
0.96724
0.968967
0.961939
0.971097
1.03806
1.11993
1.25596
1.42492
1.61549
1.76503
1.80579
1.8007
1.71967
1.52978
1.41497
1.4004
1.40001
1.40001
1.40001
1.40001
1.40001
0.954912
0.958156
0.962934
0.966712
0.96784
0.967248
0.965028
0.963445
0.963709
0.967877
0.970835
0.96327
0.972649
1.04228
1.12964
1.26695
1.43876
1.62909
1.77229
1.80751
1.80067
1.71461
1.52262
1.41332
1.40034
1.40001
1.40001
1.40001
1.40001
1.40001
0.955618
0.958635
0.963047
0.966821
0.968067
0.967554
0.965637
0.963912
0.963928
0.968112
0.97265
0.967358
0.974577
1.04377
1.13953
1.27895
1.45397
1.64336
1.77943
1.80936
1.80084
1.70908
1.51508
1.41172
1.40029
1.40001
1.40001
1.40001
1.40001
1.40001
0.956436
0.959201
0.963181
0.966834
0.968202
0.967747
0.966228
0.964362
0.964262
0.967906
0.974061
0.972342
0.977741
1.04347
1.15013
1.29244
1.47056
1.65832
1.78652
1.81191
1.80126
1.70255
1.50714
1.41019
1.40024
1.40001
1.40001
1.40001
1.40001
1.40001
0.957427
0.959955
0.963529
0.966725
0.968259
0.967868
0.966907
0.964849
0.964486
0.966633
0.975089
0.97709
0.981895
1.04656
1.16222
1.3082
1.48817
1.67397
1.79358
1.81479
1.80142
1.69484
1.49892
1.40873
1.40019
1.40001
1.40001
1.40001
1.40001
1.40001
0.958675
0.960917
0.96385
0.96642
0.968262
0.967928
0.967663
0.965497
0.964712
0.965449
0.976083
0.981793
0.986523
1.06044
1.17593
1.32546
1.5068
1.69022
1.80049
1.81724
1.80006
1.68639
1.49051
1.40736
1.40015
1.40001
1.40001
1.40001
1.40001
1.40001
0.960178
0.962008
0.964313
0.966021
0.968191
0.96817
0.968353
0.966513
0.96496
0.964443
0.977223
0.985993
0.991942
1.07386
1.18946
1.34384
1.52697
1.70688
1.80713
1.81939
1.7982
1.67727
1.48191
1.4061
1.40012
1.40001
1.40001
1.40001
1.40001
1.40001
0.962064
0.962929
0.964749
0.965905
0.968157
0.96863
0.969037
0.967985
0.965102
0.963871
0.977663
0.989468
0.998182
1.0853
1.203
1.36391
1.54882
1.72398
1.81334
1.82169
1.79669
1.66685
1.47312
1.40495
1.40009
1.40001
1.40001
1.40001
1.40001
1.40001
0.964082
0.963956
0.965178
0.965883
0.968194
0.969319
0.97
0.96965
0.965938
0.963354
0.977131
0.991985
1.00537
1.09834
1.21886
1.38591
1.57236
1.7413
1.819
1.82437
1.79504
1.6549
1.46422
1.40392
1.40007
1.40001
1.40001
1.40001
1.40001
1.40001
0.965935
0.965148
0.965871
0.966201
0.968294
0.970057
0.971424
0.971408
0.967285
0.963026
0.974248
0.993843
1.01462
1.11312
1.23826
1.41024
1.59718
1.75865
1.82421
1.82696
1.79253
1.64107
1.45527
1.40303
1.40005
1.40001
1.40001
1.40001
1.40001
1.40001
0.967859
0.966531
0.966638
0.967001
0.968631
0.970873
0.972986
0.973482
0.968747
0.962981
0.970598
0.995925
1.02659
1.12875
1.26098
1.43675
1.62338
1.7757
1.82928
1.82869
1.78822
1.62509
1.44659
1.40227
1.40004
1.40001
1.40001
1.40001
1.40001
1.40001
0.969865
0.968186
0.967731
0.968061
0.969299
0.971844
0.974909
0.975733
0.970513
0.963305
0.968472
0.998698
1.04056
1.14541
1.28647
1.46575
1.65118
1.79166
1.83419
1.82982
1.78281
1.6077
1.43834
1.40165
1.40003
1.40001
1.40001
1.40001
1.40001
1.40001
0.971693
0.970045
0.969394
0.969857
0.970849
0.972781
0.976907
0.978132
0.972795
0.963759
0.96807
1.00339
1.05605
1.16459
1.31508
1.49767
1.6798
1.80627
1.8387
1.83201
1.7759
1.58861
1.43064
1.40116
1.40002
1.40001
1.40001
1.40001
1.40001
1.40001
0.973416
0.972009
0.971318
0.972157
0.97308
0.973841
0.978819
0.980598
0.975942
0.966085
0.971052
1.01509
1.07294
1.18795
1.34667
1.53243
1.70931
1.81925
1.84292
1.83432
1.76575
1.56788
1.4237
1.40079
1.40001
1.40001
1.40001
1.40001
1.40001
1.40001
0.97495
0.974032
0.973999
0.975079
0.975879
0.976092
0.980592
0.982955
0.979845
0.970923
0.977184
1.02679
1.09076
1.216
1.38188
1.57067
1.73873
1.83076
1.84726
1.8351
1.75186
1.54621
1.41765
1.40051
1.40001
1.40001
1.40001
1.40001
1.40001
1.40001
0.976218
0.975919
0.977572
0.979102
0.979326
0.978917
0.982258
0.984879
0.983194
0.975441
0.981548
1.03679
1.11197
1.24882
1.42132
1.61146
1.76802
1.84117
1.85232
1.83607
1.7349
1.52359
1.41253
1.40032
1.40001
1.40001
1.40001
1.40001
1.40001
1.40001
0.976812
0.978142
0.98198
0.983817
0.983636
0.982679
0.983769
0.985908
0.985157
0.979519
0.985803
1.05021
1.13966
1.2867
1.46589
1.65548
1.79672
1.85032
1.85799
1.8394
1.71417
1.50033
1.4084
1.40019
1.40001
1.40001
1.40001
1.40001
1.40001
1.40001
0.976894
0.981011
0.986123
0.988591
0.988697
0.987426
0.985661
0.985328
0.986405
0.983666
0.991795
1.07053
1.17433
1.33148
1.51706
1.70204
1.8229
1.85786
1.86334
1.84014
1.68789
1.4774
1.40528
1.4001
1.40001
1.40001
1.40001
1.40001
1.40001
1.40001
0.979098
0.984306
0.989236
0.992045
0.992993
0.993295
0.988199
0.98289
0.987211
0.990648
1.00382
1.09657
1.21589
1.38379
1.57364
1.74751
1.84532
1.86403
1.86716
1.82626
1.65373
1.45656
1.40312
1.40006
1.40001
1.40001
1.40001
1.40001
1.40001
1.40001
0.983074
0.986194
0.990935
0.99436
0.996997
0.99738
0.990538
0.982227
0.986092
1.00089
1.02297
1.12594
1.26464
1.44243
1.63347
1.78996
1.86333
1.86991
1.86844
1.80372
1.61593
1.43914
1.40173
1.40003
1.40001
1.40001
1.40001
1.40001
1.40001
1.40001
0.986702
0.987657
0.991603
0.995536
1.00035
1.00077
0.993509
0.98205
0.985411
1.01259
1.0491
1.1633
1.32183
1.50892
1.69599
1.82686
1.87611
1.87507
1.86764
1.78362
1.57709
1.42512
1.40088
1.40002
1.40001
1.40001
1.40001
1.40001
1.40001
1.40001
0.989885
0.989142
0.990492
0.995957
1.00247
1.00331
0.997148
0.981777
0.986235
1.02666
1.08401
1.21456
1.38925
1.58433
1.75722
1.85499
1.88345
1.8791
1.86191
1.75801
1.53464
1.41457
1.4004
1.40001
1.40001
1.40001
1.40001
1.40001
1.40001
1.40001
0.991127
0.989918
0.991091
0.995448
1.0033
1.00469
1.00066
0.983709
0.989617
1.04429
1.13025
1.28125
1.46857
1.66505
1.81099
1.87271
1.8879
1.88089
1.85257
1.71573
1.49364
1.40753
1.40017
1.40001
1.40001
1.40001
1.40001
1.40001
1.40001
1.40001
1.40001
1.40001
1.40001
1.40001
1.40001
1.40001
1.40001
1.40001
1.40001
1.40001
1.40001
1.40001
1.40054
1.42076
1.57293
1.79792
1.86499
1.8931
1.89694
1.89079
1.88371
1.88363
1.88578
1.8917
1.89502
1.89485
1.8922
1.88824
1.87927
1.80033
1.40001
1.40001
1.40001
1.40001
1.40001
1.40001
1.40001
1.40001
1.40001
1.40001
1.40001
1.40001
1.40064
1.42339
1.58393
1.80205
1.86511
1.89308
1.89637
1.89075
1.88369
1.8836
1.8858
1.89176
1.89519
1.89496
1.8921
1.88769
1.86346
1.68733
1.40001
1.40001
1.40001
1.40001
1.40001
1.40001
1.40001
1.40001
1.40001
1.40001
1.40001
1.40001
1.40078
1.4266
1.59282
1.8071
1.86505
1.89307
1.89586
1.89076
1.88369
1.8834
1.88588
1.89187
1.89534
1.89505
1.89192
1.88613
1.83477
1.57244
1.40001
1.40001
1.40001
1.40001
1.40001
1.40001
1.40001
1.40001
1.40001
1.40001
1.40001
1.40001
1.40094
1.42985
1.60197
1.81477
1.86568
1.89309
1.89554
1.89084
1.88379
1.88324
1.88585
1.89197
1.89541
1.89512
1.89165
1.88247
1.79533
1.46209
1.40001
1.40001
1.40001
1.40001
1.40001
1.40001
1.40001
1.40001
1.40001
1.40001
1.40001
1.40002
1.40114
1.4336
1.6137
1.82103
1.86688
1.89294
1.89548
1.891
1.88401
1.88322
1.88584
1.89206
1.89545
1.89514
1.89119
1.87544
1.74751
1.35591
1.40001
1.40001
1.40001
1.40001
1.40001
1.40001
1.40001
1.40001
1.40001
1.40001
1.40001
1.40002
1.40139
1.43821
1.62567
1.82639
1.86792
1.89275
1.89547
1.89134
1.88434
1.88329
1.88587
1.89206
1.89548
1.89513
1.89019
1.86279
1.68852
1.26029
1.40001
1.40001
1.40001
1.40001
1.40001
1.40001
1.40001
1.40001
1.40001
1.40001
1.40001
1.40003
1.40173
1.44349
1.63718
1.83136
1.86821
1.89299
1.89556
1.89188
1.88482
1.88345
1.8858
1.89193
1.89546
1.89507
1.88813
1.84292
1.629
1.16697
1.40001
1.40001
1.40001
1.40001
1.40001
1.40001
1.40001
1.40001
1.40001
1.40001
1.40001
1.40003
1.40214
1.44935
1.64993
1.83644
1.86817
1.89346
1.89607
1.8924
1.88535
1.88358
1.88576
1.89177
1.8954
1.89489
1.88399
1.8141
1.56235
1.08281
1.40001
1.40001
1.40001
1.40001
1.40001
1.40001
1.40001
1.40001
1.40001
1.40001
1.40001
1.40004
1.40266
1.45625
1.66372
1.84318
1.8685
1.89393
1.89729
1.89307
1.88582
1.88366
1.88578
1.89162
1.89528
1.89439
1.87649
1.77449
1.49319
1.0106
1.40001
1.40001
1.40001
1.40001
1.40001
1.40001
1.40001
1.40001
1.40001
1.40001
1.40001
1.40005
1.40335
1.46408
1.67735
1.84863
1.87012
1.89484
1.89892
1.8941
1.8865
1.88386
1.88584
1.8914
1.89508
1.89313
1.86331
1.72507
1.43056
0.938714
1.40001
1.40001
1.40001
1.40001
1.40001
1.40001
1.40001
1.40001
1.40001
1.40001
1.40001
1.40007
1.40423
1.47308
1.69135
1.85288
1.87143
1.89533
1.90035
1.89523
1.88751
1.88434
1.88591
1.8911
1.89476
1.89048
1.84249
1.66599
1.36103
0.882714
1.40001
1.40001
1.40001
1.40001
1.40001
1.40001
1.40001
1.40001
1.40001
1.40001
1.40001
1.40009
1.40537
1.48322
1.70566
1.85794
1.87161
1.89522
1.90131
1.8961
1.88825
1.88453
1.88598
1.89071
1.89424
1.88506
1.8112
1.598
1.29896
0.844031
1.40001
1.40001
1.40001
1.40001
1.40001
1.40001
1.40001
1.40001
1.40001
1.40001
1.40001
1.40012
1.40683
1.49499
1.72061
1.86258
1.87152
1.89468
1.90168
1.89663
1.88887
1.88459
1.88611
1.89023
1.89332
1.8751
1.7683
1.5259
1.24345
0.80222
1.40001
1.40001
1.40001
1.40001
1.40001
1.40001
1.40001
1.40001
1.40001
1.40001
1.40001
1.40017
1.40878
1.50844
1.73653
1.86582
1.87129
1.89388
1.90171
1.89688
1.88954
1.88487
1.8862
1.88937
1.89154
1.85752
1.71361
1.45113
1.1871
0.772729
1.40001
1.40001
1.40001
1.40001
1.40001
1.40001
1.40001
1.40001
1.40001
1.40001
1.40001
1.40024
1.41125
1.52373
1.75194
1.86953
1.87136
1.89283
1.90144
1.89686
1.89022
1.88539
1.88637
1.88887
1.88721
1.83017
1.6482
1.37412
1.13817
0.767131
1.40001
1.40001
1.40001
1.40001
1.40001
1.40001
1.40001
1.40001
1.40001
1.40001
1.40001
1.40035
1.41452
1.54076
1.7685
1.87438
1.87219
1.89125
1.90057
1.89664
1.89086
1.88604
1.88652
1.88818
1.87814
1.78995
1.57536
1.30069
1.09782
0.773614
1.40001
1.40001
1.40001
1.40001
1.40001
1.40001
1.40001
1.40001
1.40001
1.40001
1.40001
1.4005
1.41869
1.55985
1.78535
1.87756
1.87312
1.88883
1.89897
1.89611
1.89141
1.8865
1.88639
1.88686
1.86222
1.73708
1.49764
1.22935
1.05899
0.782628
1.40001
1.40001
1.40001
1.40001
1.40001
1.40001
1.40001
1.40001
1.40001
1.40001
1.40001
1.40073
1.4242
1.58066
1.79913
1.88019
1.87374
1.88649
1.89706
1.89531
1.89167
1.88658
1.88627
1.88318
1.83508
1.67198
1.42081
1.16356
1.02376
0.794433
1.40001
1.40001
1.40001
1.40001
1.40001
1.40001
1.40001
1.40001
1.40001
1.40001
1.40002
1.40108
1.43119
1.60281
1.8134
1.88322
1.87557
1.88472
1.89536
1.89502
1.89179
1.88657
1.88583
1.87528
1.79588
1.5977
1.34408
1.10121
0.997947
0.819081
1.40001
1.40001
1.40001
1.40001
1.40001
1.40001
1.40001
1.40001
1.40001
1.40001
1.40002
1.40162
1.44024
1.62655
1.8232
1.88637
1.87755
1.88348
1.89415
1.8949
1.89183
1.88653
1.88432
1.85906
1.74138
1.51821
1.27179
1.04341
0.98089
0.862075
1.40001
1.40001
1.40001
1.40001
1.40001
1.40001
1.40001
1.40001
1.40001
1.40001
1.40004
1.40242
1.45131
1.6503
1.83163
1.89044
1.87873
1.88274
1.89344
1.89474
1.89199
1.88637
1.88038
1.83221
1.67561
1.43578
1.20542
1.00003
0.958171
0.903741
1.40001
1.40001
1.40001
1.40001
1.40001
1.40001
1.40001
1.40001
1.40001
1.40001
1.40006
1.40364
1.46523
1.67571
1.84366
1.89321
1.88058
1.88223
1.89254
1.89469
1.89241
1.88575
1.87126
1.78968
1.59806
1.35637
1.14957
0.967633
0.936883
0.940029
1.40001
1.40001
1.40001
1.40001
1.40001
1.40001
1.40001
1.40001
1.40001
1.40001
1.4001
1.40548
1.48201
1.70017
1.85104
1.89526
1.88264
1.88164
1.89126
1.89458
1.89272
1.88388
1.85355
1.73336
1.51657
1.27904
1.10067
0.94761
0.924671
0.961823
1.40001
1.40001
1.40001
1.40001
1.40001
1.40001
1.40001
1.40001
1.40001
1.40001
1.40017
1.40819
1.50223
1.72537
1.8567
1.89738
1.88295
1.88084
1.89046
1.8943
1.8927
1.87922
1.82311
1.66242
1.43185
1.20772
1.06014
0.944306
0.925417
0.979029
1.40001
1.40001
1.40001
1.40001
1.40001
1.40001
1.40001
1.40001
1.40001
1.40001
1.40029
1.41229
1.52596
1.75037
1.86394
1.89904
1.88299
1.88038
1.88959
1.89389
1.89205
1.86818
1.77702
1.58217
1.35034
1.14394
1.03296
0.946637
0.930246
0.986954
1.40001
1.40001
1.40001
1.40001
1.40001
1.40001
1.40001
1.40001
1.40001
1.40001
1.4005
1.418
1.55344
1.77367
1.86901
1.89932
1.88369
1.88038
1.88829
1.89371
1.88995
1.84723
1.71565
1.49833
1.27311
1.08598
1.00927
0.950359
0.941652
0.98962
1.40001
1.40001
1.40001
1.40001
1.40001
1.40001
1.40001
1.40001
1.40001
1.40002
1.40088
1.42656
1.58366
1.79446
1.8722
1.89937
1.88545
1.88057
1.88793
1.8941
1.88381
1.81065
1.63973
1.41092
1.20421
1.04046
0.995989
0.958451
0.959037
0.990149
1.40001
1.40001
1.40001
1.40001
1.40001
1.40001
1.40001
1.40001
1.40001
1.40002
1.40156
1.43784
1.61564
1.81279
1.87624
1.89978
1.88652
1.88118
1.88768
1.89368
1.86884
1.75844
1.55851
1.33163
1.14235
0.998538
0.981076
0.966986
0.97682
0.993808
1.40001
1.40001
1.40001
1.40001
1.40001
1.40001
1.40001
1.40001
1.40001
1.40004
1.40269
1.4535
1.65131
1.83006
1.88147
1.89979
1.88662
1.88125
1.88661
1.89106
1.84096
1.69059
1.47
1.25301
1.09601
0.976842
0.96726
0.977825
0.989889
0.998476
1.40001
1.40001
1.40001
1.40001
1.40001
1.40001
1.40001
1.40001
1.40001
1.40009
1.40476
1.47428
1.68555
1.84444
1.8822
1.89899
1.88672
1.88099
1.88576
1.88013
1.79455
1.60917
1.38792
1.18826
1.05634
0.960729
0.955205
0.985545
0.996412
1.00418
1.40001
1.40001
1.40001
1.40001
1.40001
1.40001
1.40001
1.40001
1.40001
1.40017
1.40807
1.4994
1.72224
1.8565
1.88194
1.89778
1.88754
1.88084
1.8826
1.85588
1.73159
1.52679
1.30736
1.1249
1.02782
0.960742
0.956077
0.988306
0.999942
1.0079
1.40001
1.40001
1.40001
1.40001
1.40001
1.40001
1.40001
1.40001
1.40001
1.40035
1.41369
1.53229
1.75433
1.86833
1.88233
1.89729
1.88948
1.881
1.87371
1.8157
1.65283
1.43447
1.23478
1.07878
1.01068
0.963149
0.960469
0.991465
0.999326
1.00697
1.40001
1.40001
1.40001
1.40001
1.40001
1.40001
1.40001
1.40001
1.40001
1.40072
1.42259
1.56789
1.78249
1.87529
1.88239
1.89706
1.89227
1.88024
1.85498
1.75535
1.56584
1.35564
1.17164
1.03133
0.998143
0.972695
0.96818
0.993832
0.99678
1.00272
1.40001
1.40001
1.40001
1.40001
1.40001
1.40001
1.40001
1.40001
1.40002
1.40148
1.43568
1.60989
1.81298
1.87921
1.88229
1.89659
1.89251
1.8758
1.82209
1.68199
1.47641
1.27378
1.11807
1.0008
0.988339
0.985497
0.979742
0.99806
0.994881
0.994667
1.40001
1.40001
1.40001
1.40001
1.40001
1.40001
1.40001
1.40001
1.40005
1.40297
1.45583
1.65447
1.832
1.88309
1.88252
1.89517
1.89126
1.86297
1.7714
1.59439
1.38892
1.20617
1.07649
0.982445
0.976188
0.991044
0.994466
1.00105
0.994327
0.987466
1.40001
1.40001
1.40001
1.40001
1.40001
1.40001
1.40001
1.40001
1.40012
1.40591
1.48239
1.69729
1.84887
1.88743
1.88322
1.89301
1.88602
1.83618
1.70048
1.50507
1.30989
1.14499
1.04593
0.976122
0.971493
0.993528
1.00637
1.00303
0.992496
0.980472
1.40001
1.40001
1.40001
1.40001
1.40001
1.40001
1.40001
1.40001
1.40028
1.41126
1.51745
1.74119
1.864
1.89038
1.88396
1.89033
1.87311
1.7905
1.62018
1.41722
1.23371
1.09411
1.02611
0.977447
0.974511
0.9971
1.00631
1.00228
0.990299
0.980483
1.40001
1.40001
1.40001
1.40001
1.40001
1.40001
1.40001
1.40001
1.40066
1.42063
1.56181
1.77804
1.87114
1.89123
1.88349
1.8862
1.84783
1.72701
1.53123
1.33211
1.17238
1.05037
1.01395
0.984776
0.980002
0.997333
1.00457
0.999086
0.989862
0.982688
1.40001
1.40001
1.40001
1.40001
1.40001
1.40001
1.40001
1.40003
1.40155
1.43664
1.61043
1.81041
1.87788
1.89113
1.88319
1.87502
1.80514
1.6477
1.44034
1.25565
1.11791
1.01508
1.00253
0.99797
0.989467
0.997998
1.00096
0.995314
0.989818
0.987367
1.40001
1.40001
1.40001
1.40001
1.40001
1.40001
1.40001
1.40007
1.40352
1.46056