/*--------------------------------*- C++ -*----------------------------------*\
  =========                 |
  \\      /  F ield         | OpenFOAM: The Open Source CFD Toolbox
   \\    /   O peration     | Website:  https://openfoam.org
    \\  /    A nd           | Version:  7
     \\/     M anipulation  |
\*---------------------------------------------------------------------------*/
FoamFile
{
    version     2.0;
    format      ascii;
    class       volScalarField;
    location    "2.8";
    object      p;
}
// * * * * * * * * * * * * * * * * * * * * * * * * * * * * * * * * * * * * * //

dimensions      [1 -1 -2 0 0 0 0];

internalField   nonuniform List<scalar> 
11200
(
0.15502
0.254325
0.358305
0.442323
0.520795
0.564447
0.604575
0.629914
0.63312
0.661039
0.668076
0.670749
0.701779
0.719064
0.733209
0.718187
0.700267
0.69083
0.692214
0.703874
0.706213
0.69864
0.691942
0.690953
0.697836
0.722817
0.808668
0.876602
0.879685
0.883601
0.0551433
0.0558847
0.069035
0.102848
0.156812
0.243639
0.340394
0.445208
0.541965
0.623191
0.690117
0.748261
0.775047
0.761408
0.737273
0.694872
0.657662
0.665908
0.692456
0.718724
0.714823
0.698991
0.687584
0.688237
0.694803
0.727903
0.816799
0.88704
0.893514
0.892311
0.0551177
0.055163
0.0554463
0.0546814
0.0542784
0.053421
0.0576345
0.0773643
0.133002
0.192797
0.280816
0.408314
0.503638
0.575861
0.638534
0.65813
0.681137
0.687603
0.688617
0.700106
0.70309
0.695139
0.695873
0.701942
0.708875
0.745394
0.825936
0.886099
0.902616
0.904367
0.0554798
0.0555398
0.0554489
0.0554126
0.0555217
0.0554883
0.0551936
0.0546703
0.0546231
0.0548365
0.0547779
0.0626348
0.0955327
0.167167
0.297044
0.45847
0.601129
0.668028
0.672389
0.691859
0.692989
0.690884
0.705703
0.700882
0.706354
0.74976
0.836724
0.89177
0.919422
0.913226
0.0569734
0.0568629
0.0567496
0.0566005
0.0564893
0.0562031
0.0558344
0.0556967
0.0559299
0.0560936
0.0558449
0.0551205
0.053871
0.0523987
0.0511269
0.0771246
0.155401
0.303054
0.435836
0.568298
0.639387
0.680804
0.72472
0.712539
0.716293
0.760187
0.836039
0.890707
0.932203
0.925464
0.0577344
0.0573526
0.056962
0.0566354
0.056447
0.056175
0.0558196
0.0556266
0.0556286
0.0556379
0.0554199
0.0547119
0.0531814
0.0515858
0.0507657
0.0504155
0.0502815
0.0503028
0.0797543
0.157166
0.325264
0.520119
0.631585
0.68246
0.707623
0.753244
0.841026
0.893397
0.948027
0.933873
0.0561253
0.0557422
0.0556089
0.0556179
0.0555482
0.0553963
0.0551119
0.0549332
0.0549297
0.0550903
0.0550485
0.0544543
0.0528566
0.0514277
0.0507293
0.0503455
0.05034
0.0513453
0.0529458
0.0540919
0.0576781
0.11144
0.240313
0.457878
0.58534
0.717741
0.844619
0.896023
0.943858
0.943871
0.0538286
0.0536762
0.053758
0.0541719
0.0546699
0.054721
0.0544105
0.0541926
0.0543335
0.0549176
0.0554745
0.0551594
0.0535602
0.0533067
0.0537992
0.054585
0.0567363
0.0615253
0.0644569
0.0645994
0.0647957
0.0657233
0.0667819
0.0966621
0.200301
0.441592
0.751425
0.888183
0.937637
0.956806
0.0527186
0.0528141
0.0531109
0.0536655
0.0544887
0.0546326
0.0542022
0.0539169
0.0540549
0.0546035
0.0556325
0.056334
0.0573193
0.0587272
0.0607085
0.0633852
0.066561
0.0707883
0.0742068
0.0754424
0.0767356
0.0789254
0.0791068
0.0787314
0.0802356
0.103502
0.384674
0.780335
0.919234
0.971748
0.0548358
0.0551785
0.0558507
0.0567175
0.0566839
0.0562676
0.0552482
0.054746
0.0547504
0.0552258
0.056956
0.0604121
0.0637069
0.0649893
0.0665018
0.0691404
0.072089
0.0751781
0.0790385
0.0829026
0.0859008
0.0902554
0.0933773
0.0930457
0.0925323
0.0940097
0.107037
0.429826
0.823009
0.962917
0.0610951
0.0614905
0.0622281
0.064117
0.0655653
0.0663021
0.0672174
0.0671569
0.0672452
0.0680987
0.070632
0.0749573
0.0766565
0.0759538
0.0759307
0.0776178
0.0800385
0.0818695
0.0846832
0.089144
0.0929292
0.0971981
0.101697
0.106464
0.108279
0.110195
0.111985
0.132046
0.50991
0.868952
0.0692036
0.070237
0.0729224
0.0762901
0.079367
0.0802467
0.0801619
0.0796581
0.0797315
0.0810773
0.0852401
0.0913426
0.0935654
0.0935614
0.0940919
0.0957609
0.0983127
0.100637
0.101635
0.101919
0.103155
0.105645
0.110731
0.116959
0.122281
0.123978
0.126617
0.1285
0.161995
0.664379
0.0884278
0.0893609
0.0906102
0.0919351
0.0938023
0.0951314
0.0950409
0.0944875
0.0945854
0.0960967
0.100754
0.10556
0.106279
0.106548
0.107729
0.110965
0.115486
0.118836
0.121712
0.123073
0.123367
0.123809
0.125708
0.129425
0.134332
0.138634
0.139588
0.143765
0.145398
0.361434
0.110871
0.111346
0.112293
0.114257
0.116779
0.119939
0.121276
0.120727
0.11905
0.118939
0.120661
0.12483
0.126192
0.125948
0.12586
0.127898
0.132119
0.134899
0.137544
0.141728
0.145327
0.146501
0.145723
0.145697
0.14754
0.153358
0.157841
0.158916
0.160143
0.17837
0.139782
0.139976
0.140023
0.140139
0.141072
0.144134
0.146568
0.146083
0.145499
0.145755
0.147265
0.151302
0.153493
0.152892
0.152249
0.153231
0.155928
0.156707
0.156897
0.158246
0.161713
0.165573
0.168635
0.169343
0.169496
0.169063
0.171909
0.175279
0.176499
0.179826
0.174663
0.172739
0.172304
0.17203
0.172855
0.175851
0.179913
0.182146
0.181961
0.179157
0.177011
0.177288
0.178906
0.181112
0.183754
0.187287
0.189567
0.189917
0.190248
0.19102
0.191265
0.192211
0.194828
0.197637
0.198211
0.196916
0.196228
0.197572
0.200095
0.203816
0.224053
0.217971
0.215909
0.216032
0.216991
0.219114
0.223021
0.226413
0.226911
0.224485
0.221306
0.221392
0.22331
0.22448
0.223939
0.22372
0.224261
0.225608
0.227075
0.227139
0.225902
0.224648
0.224183
0.224169
0.224752
0.226973
0.229559
0.229621
0.229651
0.231793
0.287649
0.279885
0.272069
0.271281
0.271409
0.273265
0.276974
0.279564
0.280342
0.278461
0.271427
0.267979
0.268457
0.269453
0.269724
0.269084
0.267208
0.264409
0.262553
0.261039
0.259834
0.259802
0.259327
0.258352
0.257981
0.257446
0.258568
0.260428
0.260209
0.260519
0.36555
0.361349
0.347061
0.341165
0.341023
0.344515
0.348564
0.348244
0.34529
0.340374
0.336145
0.335211
0.334569
0.330686
0.32663
0.326098
0.325482
0.323068
0.319548
0.317582
0.315155
0.311679
0.308454
0.305412
0.302693
0.298768
0.29457
0.290045
0.285725
0.287354
0.463657
0.461012
0.446154
0.43045
0.428454
0.433633
0.438848
0.437006
0.430472
0.421426
0.4153
0.415439
0.414778
0.407687
0.398427
0.396126
0.394384
0.390212
0.382713
0.376332
0.372015
0.366334
0.361035
0.355979
0.351852
0.348606
0.344432
0.341593
0.333892
0.327821
0.588122
0.583824
0.568155
0.545858
0.539693
0.542207
0.549265
0.54895
0.541412
0.523853
0.511769
0.512036
0.511919
0.503967
0.488137
0.482343
0.478958
0.473115
0.463635
0.452924
0.446228
0.439999
0.431979
0.422976
0.414045
0.407879
0.398977
0.392643
0.384568
0.376333
0.73895
0.733705
0.722066
0.69565
0.675703
0.673644
0.68032
0.683526
0.676896
0.658444
0.634093
0.628917
0.629291
0.622534
0.601467
0.588279
0.582014
0.57351
0.560849
0.546575
0.535291
0.524563
0.51241
0.500693
0.488621
0.477526
0.463873
0.450308
0.437746
0.425878
0.918995
0.91409
0.904141
0.876427
0.847252
0.842884
0.846018
0.844535
0.831311
0.81453
0.791551
0.771464
0.767586
0.76087
0.741354
0.719462
0.705471
0.692336
0.676611
0.658929
0.642485
0.626696
0.610076
0.593725
0.574784
0.559483
0.543537
0.526126
0.512076
0.492304
1.14196
1.11416
1.09385
1.08889
1.07913
1.06413
1.05075
1.03803
1.01383
0.995001
0.978323
0.955938
0.939074
0.924666
0.904956
0.879369
0.856087
0.834578
0.81381
0.791505
0.768988
0.747271
0.722912
0.701278
0.67745
0.655135
0.633809
0.610361
0.591386
0.566045
1.41055
1.38742
1.36105
1.35249
1.34408
1.32498
1.30014
1.27824
1.25456
1.23363
1.21233
1.18036
1.15459
1.13149
1.10403
1.07303
1.04213
1.0115
0.981641
0.951299
0.91974
0.890698
0.85898
0.828599
0.799424
0.768897
0.740921
0.712793
0.6877
0.652718
1.62906
1.62085
1.60797
1.59402
1.58452
1.57179
1.55392
1.53683
1.51661
1.49591
1.47518
1.44752
1.41689
1.3874
1.35335
1.31699
1.27875
1.24011
1.19897
1.1575
1.1147
1.07243
1.03219
0.989092
0.949604
0.909628
0.871814
0.833861
0.801231
0.755414
1.66375
1.65957
1.65606
1.65258
1.64905
1.64491
1.63933
1.63288
1.62527
1.61959
1.613
1.60243
1.5892
1.57449
1.55712
1.53662
1.51176
1.4821
1.44679
1.40606
1.36123
1.31222
1.26122
1.20727
1.15327
1.0988
1.04645
0.995103
0.951201
0.888331
1.60008
1.60149
1.60384
1.60905
1.61448
1.61712
1.61546
1.61248
1.61211
1.61115
1.60984
1.60506
1.59815
1.59215
1.58692
1.58041
1.57141
1.56102
1.54931
1.53453
1.51623
1.4935
1.46464
1.42835
1.38345
1.33175
1.27597
1.2143
1.15959
1.07714
1.34504
1.35338
1.36158
1.37592
1.39543
1.40824
1.42372
1.43829
1.44792
1.46095
1.48344
1.49107
1.49682
1.50825
1.52082
1.52864
1.53188
1.53334
1.53237
1.52874
1.52102
1.51069
1.49803
1.48222
1.46203
1.43724
1.40741
1.37275
1.33674
1.26839
1.06839
1.07378
1.08031
1.08728
1.09517
1.10519
1.11751
1.13076
1.14361
1.15771
1.17676
1.19732
1.2159
1.23804
1.26362
1.29
1.31503
1.34004
1.36452
1.38748
1.4076
1.4237
1.43238
1.43729
1.43399
1.42426
1.4088
1.3849
1.36018
1.31306
1.00291
1.00332
1.00383
1.00448
1.00523
1.00621
1.00751
1.00917
1.01118
1.01356
1.01667
1.02103
1.02615
1.03255
1.0407
1.05125
1.06395
1.07956
1.09811
1.12026
1.14522
1.17345
1.20203
1.2315
1.25866
1.27971
1.29621
1.30406
1.29976
1.2787
1.00003
1.00004
1.00004
1.00005
1.00007
1.00008
1.0001
1.00014
1.00018
1.00024
1.00033
1.00045
1.00064
1.0009
1.00129
1.00188
1.00275
1.00406
1.00599
1.00886
1.01303
1.01891
1.02728
1.03809
1.05251
1.06939
1.0877
1.10788
1.12415
1.13516
1
1
1
1
1
1
1
1
1
1
1
1
1
1.00001
1.00001
1.00002
1.00003
1.00005
1.00008
1.00014
1.00024
1.00042
1.00074
1.0013
1.00225
1.00381
1.00616
1.00948
1.01377
1.01978
1
1
1
1
1
1
1
1
1
1
1
1
1
1
1
1
1
1
1
1
1
1
1.00001
1.00001
1.00002
1.00005
1.00009
1.00017
1.00031
1.0006
1
1
1
1
1
1
1
1
1
1
1
1
1
1
1
1
1
1
1
1
1
1
1
1
1
1
1
1
1
1.00001
0.0561569
0.0563604
0.0553675
0.0555905
0.0572811
0.0583722
0.0571707
0.0541897
0.0526809
0.054474
0.0608808
0.0687056
0.0877524
0.110641
0.141409
0.179761
0.2287
0.289762
0.367418
0.465347
0.591713
0.7478
0.931739
1.16381
1.43546
1.64155
1.66911
1.59902
1.32911
1.0593
1.0024
1.00003
1
1
1
0.057821
0.0566372
0.0557954
0.0561609
0.0585783
0.0588428
0.0576116
0.0539476
0.0527054
0.0552531
0.0632045
0.0724509
0.0929387
0.117512
0.150094
0.188296
0.238508
0.299913
0.380653
0.483869
0.612202
0.773299
0.969276
1.21091
1.4861
1.66402
1.67446
1.59128
1.28402
1.04178
1.00131
1.00001
1
1
1
0.0586547
0.0567631
0.0564857
0.0566741
0.0597388
0.0593116
0.0579304
0.0539913
0.053023
0.0558105
0.0645456
0.075842
0.0952894
0.119994
0.152045
0.190919
0.241701
0.305725
0.386524
0.494897
0.625326
0.789809
0.996729
1.25011
1.52735
1.67791
1.67807
1.56222
1.23973
1.03009
1.0008
1.00001
1
1
1
0.059005
0.0569722
0.0573823
0.0570713
0.0602951
0.0595001
0.0579468
0.0542927
0.0540802
0.0571905
0.0652745
0.0783192
0.0966207
0.121804
0.152888
0.193003
0.243788
0.314681
0.403837
0.517697
0.667222
0.84333
1.04798
1.29987
1.57161
1.69018
1.6797
1.52535
1.2025
1.02147
1.00048
1
1
1
1
0.0588573
0.0570319
0.0580751
0.0573098
0.0604127
0.0595909
0.0578618
0.0550318
0.0549193
0.0589466
0.0656303
0.0812197
0.098796
0.123825
0.154694
0.197285
0.259282
0.341174
0.445537
0.569633
0.722876
0.905321
1.12031
1.37139
1.61799
1.70201
1.67972
1.50435
1.17089
1.01465
1.00027
1
1
1
1
0.0580916
0.0567553
0.0582379
0.0572683
0.0598194
0.059458
0.0576879
0.0554721
0.0555886
0.0608797
0.066751
0.0849502
0.104057
0.131003
0.170087
0.220158
0.286577
0.36761
0.469099
0.594531
0.749642
0.937584
1.1636
1.42929
1.65515
1.71145
1.67965
1.47653
1.13386
1.00917
1.00015
1
1
1
1
0.0576741
0.0567215
0.0576574
0.056621
0.0588541
0.0583222
0.0567323
0.0560573
0.0565377
0.0618667
0.07121
0.0902755
0.113587
0.145115
0.186674
0.234611
0.298796
0.377077
0.480416
0.609152
0.765664
0.964021
1.20041
1.4706
1.6811
1.71795
1.67447
1.41672
1.09935
1.00567
1.00008
1
1
1
1
0.0574237
0.0570049
0.0572081
0.0563223
0.0585033
0.0573521
0.0560621
0.057407
0.0578911
0.0617319
0.0762694
0.0953494
0.120619
0.151362
0.193283
0.239659
0.303373
0.385546
0.487168
0.624482
0.787682
0.993789
1.24216
1.51991
1.70638
1.72468
1.6496
1.36724
1.07616
1.00357
1.00004
1
1
1
1
0.0571183
0.0572223
0.0573308
0.0563384
0.0584493
0.057196
0.0561109
0.0588413
0.0592905
0.0617604
0.0795744
0.0971891
0.122769
0.153785
0.194805
0.244286
0.306567
0.398893
0.517728
0.668585
0.86148
1.07683
1.32372
1.58735
1.73027
1.73344
1.63623
1.3309
1.05626
1.00206
1.00002
1
1
1
1
0.0568132
0.0573716
0.0575554
0.0566124
0.0586036
0.0572423
0.0561583
0.0591484
0.0601214
0.063072
0.0807488
0.0973054
0.122595
0.155108
0.194699
0.253701
0.337294
0.443837
0.576954
0.735948
0.924245
1.14528
1.40021
1.64223
1.74571
1.73983
1.62502
1.28064
1.03669
1.00108
1.00001
1
1
1
1
0.0565026
0.0574742
0.05841
0.058785
0.0595981
0.0574469
0.0554129
0.0580226
0.0602384
0.0636809
0.0810737
0.0968972
0.121946
0.158029
0.212422
0.285053
0.374448
0.479463
0.607879
0.765725
0.958504
1.18606
1.44469
1.67478
1.75555
1.74108
1.58004
1.21629
1.02343
1.00057
1.00001
1
1
1
1
0.0562184
0.0576869
0.0607171
0.0619953
0.0606427
0.057754
0.0546682
0.0564237
0.0599011
0.0645562
0.0828128
0.102431
0.132168
0.178746
0.239739
0.306857
0.390278
0.494841
0.626799
0.788641
0.986135
1.22575
1.49417
1.70987
1.76453
1.73219
1.51916
1.17321
1.01565
1.00031
1
1
1
1
1
0.0560708
0.0585577
0.0629173
0.0640515
0.0609682
0.0577651
0.054499
0.0558162
0.0602945
0.068275
0.0906865
0.116552
0.150298
0.193293
0.2498
0.314891
0.399431
0.509057
0.646995
0.823483
1.04161
1.29455
1.56756
1.74954
1.77356
1.72097
1.48387
1.13815
1.00953
1.00015
1
1
1
1
1
0.056406
0.0603432
0.0640883
0.0647674
0.0610148
0.0575068
0.054635
0.0562141
0.0639458
0.0757767
0.097937
0.125134
0.15795
0.197746
0.252782
0.322097
0.413259
0.543447
0.70889
0.911122
1.14312
1.39778
1.6442
1.77572
1.7805
1.71675
1.44107
1.09701
1.00506
1.00007
1
1
1
1
1
0.0572647
0.0616543
0.0641281
0.0645352
0.0607808
0.0574622
0.056391
0.059152
0.0664068
0.0813816
0.101243
0.127722
0.160015
0.201149
0.255679
0.341447
0.464513
0.610214
0.780821
0.978778
1.20675
1.45875
1.68805
1.78748
1.78375
1.7009
1.35732
1.06266
1.00265
1.00003
1
1
1
1
1
0.0585727
0.0618898
0.0623109
0.0633201
0.0607594
0.0575946
0.0589586
0.060854
0.0666922
0.0829789
0.102333
0.128306
0.160463
0.209468
0.287743
0.389631
0.50888
0.647577
0.815799
1.0174
1.25365
1.51137
1.72571
1.79619
1.78285
1.63535
1.28516
1.04262
1.00145
1.00002
1
1
1
1
1
0.0602647
0.0613814
0.0591836
0.0616928
0.0607925
0.058815
0.0594817
0.0608844
0.0650854
0.0826131
0.102442
0.129943
0.17244
0.240094
0.323349
0.414716
0.527235
0.668467
0.845196
1.05806
1.3111
1.58019
1.76691
1.80525
1.77376
1.59181
1.23851
1.02839
1.00074
1.00001
1
1
1
1
1
0.0616125
0.0604388
0.0569986
0.0610532
0.0611301
0.0599004
0.058863
0.0590962
0.0642875
0.0819977
0.106708
0.149256
0.200706
0.2609
0.335786
0.425453
0.541235
0.695322
0.897664
1.1469
1.41403
1.66395
1.79925
1.81238
1.77108
1.55952
1.18678
1.01617
1.00034
1
1
1
1
1
1
0.0619843
0.0596524
0.0565131
0.0624682
0.0612287
0.0597494
0.0576147
0.0575537
0.0684893
0.0909797
0.122886
0.162659
0.209476
0.265987
0.339805
0.438692
0.583117
0.778401
1.00321
1.25016
1.50211
1.71861
1.81562
1.81708
1.77299
1.50334
1.12551
1.00828
1.00014
1
1
1
1
1
1
0.0606773
0.0590271
0.0582054
0.0655222
0.0610199
0.0591311
0.0572138
0.0582892
0.0770846
0.100059
0.129199
0.165021
0.210368
0.268395
0.351251
0.491411
0.6656
0.855942
1.07142
1.31257
1.55895
1.75474
1.82268
1.81861
1.72887
1.39535
1.08288
1.00441
1.00006
1
1
1
1
1
1
0.0583731
0.0588587
0.0614928
0.0671925
0.0613958
0.0577439
0.0568495
0.0621817
0.082698
0.102205
0.131106
0.165381
0.210296
0.284308
0.414294
0.557584
0.713704
0.898835
1.11904
1.37012
1.62103
1.78864
1.82528
1.80951
1.66375
1.32606
1.05738
1.00235
1.00003
1
1
1
1
1
1
0.0573597
0.0590241
0.063208
0.0672174
0.0610146
0.0551973
0.0549102
0.0646237
0.0845376
0.102774
0.133341
0.171611
0.237095
0.342718
0.462298
0.58888
0.743597
0.940414
1.18493
1.45804
1.69647
1.81485
1.82651
1.79158
1.62358
1.27227
1.03633
1.00112
1.00001
1
1
1
1
1
1
0.0575653
0.0599436
0.0636081
0.0628122
0.056576
0.0525773
0.0531125
0.0651785
0.0849012
0.108307
0.143763
0.20691
0.28593
0.377067
0.483062
0.611994
0.790519
1.03119
1.30272
1.56014
1.75414
1.82895
1.82905
1.78456
1.58742
1.20268
1.01941
1.00046
1
1
1
1
1
1
1
0.0587402
0.0612775
0.0625906
0.0574891
0.0527899
0.0515413
0.0530573
0.0672732
0.0874897
0.126685
0.17383
0.236639
0.305303
0.389722
0.501321
0.669805
0.895697
1.14383
1.39675
1.6281
1.78867
1.83527
1.83349
1.7847
1.50518
1.1321
1.00972
1.00019
1
1
1
1
1
1
1
0.0616136
0.0617213
0.0604492
0.0556742
0.0519096
0.0518536
0.057092
0.075809
0.101068
0.14156
0.188417
0.245506
0.311241
0.402048
0.559956
0.765982
0.980375
1.21588
1.46506
1.68563
1.81413
1.83771
1.83223
1.73245
1.39618
1.08709
1.00502
1.00008
1
1
1
1
1
1
1
0.0651274
0.0625238
0.0594667
0.055371
0.0520838
0.0545976
0.0625474
0.0826156
0.106673
0.144128
0.190489
0.245907
0.317787
0.458588
0.645987
0.830126
1.0388
1.28573
1.5483
1.74663
1.83126
1.83799
1.81583
1.66018
1.32463
1.0576
1.00242
1.00003
1
1
1
1
1
1
1
0.0678064
0.0635346
0.0601921
0.0564132
0.0530942
0.0561301
0.0650498
0.0842193
0.108068
0.1411
0.18869
0.251262
0.378098
0.539656
0.699677
0.880246
1.11748
1.39721
1.64638
1.79349
1.83924
1.83566
1.79149
1.61491
1.26163
1.03343
1.00105
1.00001
1
1
1
1
1
1
1
0.0686793
0.0639897
0.064289
0.0604671
0.053999
0.0558151
0.0659324
0.0823779
0.111427
0.145744
0.202711
0.317107
0.452204
0.585522
0.744075
0.968324
1.24964
1.5151
1.71578
1.82096
1.84204
1.83704
1.78208
1.56798
1.18248
1.01692
1.00041
1
1
1
1
1
1
1
1
0.0673884
0.0630942
0.06827
0.0628456
0.0539845
0.0527341
0.067629
0.0822147
0.117769
0.18178
0.26731
0.376098
0.486628
0.622042
0.832793
1.09953
1.36178
1.59576
1.76383
1.83648
1.84386
1.83901
1.77862
1.4678
1.1134
1.00783
1.00015
1
1
1
1
1
1
1
1
0.0623629
0.060994
0.0691948
0.0629774
0.0531873
0.0519964
0.0705732
0.0986181
0.148206
0.222053
0.302577
0.39871
0.512445
0.697261
0.955154
1.20078
1.44831
1.66935
1.80333
1.84275
1.84397
1.83143
1.70189
1.35137
1.06883
1.00349
1.00005
1
1
1
1
1
1
1
1
0.0583383
0.0600015
0.0676619
0.0615517
0.0542399
0.0543783
0.0827728
0.121555
0.170263
0.237723
0.315399
0.415227
0.576756
0.818522
1.05129
1.29191
1.54845
1.74288
1.82779
1.8442
1.83971
1.80278
1.61417
1.27175
1.04104
1.00152
1.00002
1
1
1
1
1
1
1
1
0.05711
0.0605585
0.0645096
0.0575484
0.0556946
0.0615565
0.0930637
0.132514
0.178108
0.240187
0.327632
0.47838
0.702305
0.915419
1.14268
1.41572
1.65519
1.79354
1.83927
1.84343
1.8313
1.76843
1.55646
1.20313
1.02143
1.00059
1.00001
1
1
1
1
1
1
1
1
0.0586564
0.064403
0.0618341
0.0525172
0.0536992
0.0681122
0.0969564
0.13477
0.186024
0.2541
0.396848
0.60508
0.79746
1.00308
1.27719
1.54288
1.73181
1.82269
1.84438
1.84405
1.83083
1.74996
1.48985
1.1277
1.0095
1.0002
1
1
1
1
1
1
1
1
1
0.0636077
0.0658642
0.0591883
0.0492315
0.0503281
0.0727279
0.102017
0.139878
0.212537
0.344111
0.510142
0.686836
0.873134
1.12995
1.41776
1.64176
1.78431
1.8392
1.84664
1.84702
1.83658
1.73696
1.37038
1.06938
1.00366
1.00006
1
1
1
1
1
1
1
1
1
0.0671077
0.0632935
0.0547386
0.0476085
0.0507391
0.0822021
0.121488
0.184054
0.281597
0.418274
0.572046
0.750051
0.988516
1.28261
1.53782
1.72349
1.81852
1.84722
1.84881
1.84758
1.82422
1.62976
1.2528
1.03561
1.00132
1.00002
1
1
1
1
1
1
1
1
1
0.0656046
0.0562051
0.0510527
0.0479373
0.0625308
0.107296
0.153102
0.225761
0.327479
0.463462
0.630529
0.863226
1.16016
1.42339
1.64812
1.78666
1.83589
1.85073
1.84942
1.84262
1.77058
1.51352
1.17258
1.01776
1.00048
1.00001
1
1
1
1
1
1
1
1
1
0.059575
0.0510631
0.0497628
0.0537237
0.0798803
0.123114
0.169023
0.252178
0.372424
0.521904
0.753198
1.05435
1.31811
1.554
1.74089
1.82311
1.84403
1.85134
1.84688
1.82463
1.71839
1.4342
1.11135
1.00776
1.00016
1
1
1
1
1
1
1
1
1
1
0.0579571
0.0484619
0.0481057
0.0626788
0.0921681
0.124806
0.180401
0.285545
0.444256
0.669089
0.949766
1.21717
1.45831
1.66971
1.80063
1.83954
1.84764
1.85073
1.84297
1.80824
1.67374
1.33736
1.05729
1.00275
1.00004
1
1
1
1
1
1
1
1
1
1
0.0608488
0.0476411
0.0464574
0.0655947
0.0957252
0.120732
0.223897
0.385083
0.584869
0.839828
1.10437
1.3593
1.59652
1.75212
1.83374
1.84484
1.84822
1.84979
1.84571
1.80922
1.60264
1.20667
1.02359
1.00079
1.00001
1
1
1
1
1
1
1
1
1
1
0.0695043
0.048419
0.0486282
0.0613412
0.0964138
0.170378
0.331044
0.50904
0.728054
0.984554
1.25488
1.52179
1.71055
1.80375
1.84828
1.84542
1.84748
1.84881
1.8439
1.76857
1.44565
1.11377
1.00909
1.00021
1
1
1
1
1
1
1
1
1
1
1
0.0717931
0.0452429
0.0524199
0.0611835
0.10734
0.266448
0.427405
0.622081
0.879013
1.16226
1.44978
1.67109
1.78641
1.82899
1.85202
1.84492
1.84744
1.84646
1.82099
1.65628
1.32138
1.06277
1.00333
1.00006
1
1
1
1
1
1
1
1
1
1
1
0.0685162
0.038371
0.0518229
0.086398
0.192639
0.355969
0.529392
0.784687
1.08142
1.38917
1.62743
1.76935
1.82396
1.83755
1.85346
1.8443
1.84645
1.83797
1.78349
1.57728
1.23066
1.02964
1.00105
1.00001
1
1
1
1
1
1
1
1
1
1
1
0.0626377
0.0366583
0.0480016
0.135053
0.282983
0.452124
0.710451
1.024
1.32932
1.58169
1.74143
1.82233
1.83679
1.8396
1.85508
1.84509
1.84835
1.82895
1.74782
1.48773
1.13114
1.01043
1.00026
1
1
1
1
1
1
1
1
1
1
1
1
0.0447577
0.045055
0.0676994
0.202978
0.389097
0.632901
0.966828
1.27835
1.54148
1.71814
1.81091
1.84382
1.83944
1.83983
1.85808
1.84867
1.85101
1.83423
1.70614
1.32675
1.05463
1.00284
1.00005
1
1
1
1
1
1
1
1
1
1
1
1
0.0260302
0.0524529
0.138485
0.308483
0.564323
0.92545
1.24733
1.51377
1.70144
1.80373
1.84353
1.84767
1.84026
1.84099
1.86143
1.85219
1.85099
1.82033
1.55655
1.17641
1.01956
1.00066
1.00001
1
1
1
1
1
1
1
1
1
1
1
1
0.0127482
0.0614717
0.236668
0.526524
0.886806
1.22971
1.5058
1.69673
1.79942
1.84032
1.85193
1.84804
1.84011
1.84259
1.86398
1.85351
1.83431
1.711
1.38485
1.09054
1.00638
1.00014
1
1
1
1
1
1
1
1
1
1
1
1
1
0.00254807
0.0972683
0.44242
0.855753
1.24002
1.52055
1.70708
1.80036
1.83793
1.85075
1.85291
1.84778
1.8403
1.84484
1.86474
1.84537
1.79939
1.60621
1.26216
1.03961
1.00165
1.00003
1
1
1
1
1
1
1
1
1
1
1
1
1
0.0355234
0.353707
0.823658
1.24978
1.55096
1.7318
1.81083
1.83752
1.84692
1.85261
1.85314
1.84792
1.8405
1.8472
1.86445
1.82463
1.75971
1.49754
1.13933
1.01135
1.00029
1
1
1
1
1
1
1
1
1
1
1
1
1
1
0.201942
0.702433
1.28039
1.61797
1.76921
1.82596
1.84202
1.84465
1.84805
1.85331
1.85456
1.84742
1.84011
1.84857
1.86074
1.81169
1.70112
1.31513
1.04546
1.00193
1.00003
1
1
1
1
1
1
1
1
1
1
1
1
1
1
0.805882
1.35933
1.69312
1.80841
1.84134
1.84681
1.84589
1.84517
1.84896
1.85598
1.85571
1.84593
1.83772
1.84828
1.85324
1.79165
1.5315
1.14052
1.01004
1.00017
1
1
1
1
1
1
1
1
1
1
1
1
1
1
1
1.84506
1.84827
1.85052
1.85113
1.85088
1.84713
1.84471
1.84513
1.85194
1.85814
1.85562
1.84239
1.83429
1.84601
1.83931
1.70701
1.34856
1.04348
0.99964
0.999961
0.999999
1
1
1
1
1
1
1
1
1
1
1
1
1
1
1.84429
1.84704
1.84972
1.85083
1.85092
1.84744
1.84468
1.84395
1.84882
1.85801
1.85726
1.84606
1.82981
1.83415
1.8371
1.69321
1.32262
1.0459
1.00142
1.00001
1
1
1
1
1
1
1
1
1
1
1
1
1
1
1
1.845
1.84678
1.84942
1.85111
1.85088
1.84835
1.84528
1.84405
1.84631
1.85409
1.85642
1.85
1.83037
1.8306
1.83124
1.63454
1.20382
1.01411
1.0002
1
1
1
1
1
1
1
1
1
1
1
1
1
1
1
1
1.84784
1.84784
1.84968
1.85086
1.85064
1.85006
1.84761
1.84568
1.84485
1.84865
1.85292
1.8548
1.83833
1.82873
1.81701
1.52227
1.13176
1.00692
1.00008
1
1
1
1
1
1
1
1
1
1
1
1
1
1
1
1
1.84995
1.84928
1.84987
1.8504
1.85065
1.85113
1.85111
1.84819
1.84453
1.84373
1.85084
1.85795
1.84702
1.81546
1.76342
1.42727
1.08044
1.00272
1.00002
1
1
1
1
1
1
1
1
1
1
1
1
1
1
1
1
1.85144
1.85019
1.84951
1.84933
1.85016
1.85188
1.8535
1.85126
1.84448
1.84067
1.84852
1.86211
1.85544
1.80687
1.70721
1.33959
1.04195
1.00099
1.00001
1
1
1
1
1
1
1
1
1
1
1
1
1
1
1
1
1.85203
1.85047
1.84868
1.84775
1.84863
1.85223
1.85443
1.85336
1.84477
1.83888
1.84583
1.86502
1.85789
1.80336
1.64353
1.239
1.0201
1.00034
1
1
1
1
1
1
1
1
1
1
1
1
1
1
1
1
1
1.85152
1.84979
1.84731
1.8464
1.84695
1.85152
1.85464
1.85418
1.84537
1.83809
1.84212
1.86284
1.85652
1.78924
1.56236
1.15763
1.00929
1.00011
1
1
1
1
1
1
1
1
1
1
1
1
1
1
1
1
1
1.84991
1.84875
1.84629
1.8455
1.84579
1.8489
1.85318
1.85443
1.84715
1.83867
1.83975
1.85571
1.84734
1.7451
1.46775
1.09282
1.00355
1.00003
1
1
1
1
1
1
1
1
1
1
1
1
1
1
1
1
1
1.84878
1.84822
1.84611
1.84518
1.84554
1.84631
1.8494
1.8528
1.85023
1.84224
1.83977
1.85382
1.84397
1.70777
1.36226
1.04944
1.00128
1.00001
1
1
1
1
1
1
1
1
1
1
1
1
1
1
1
1
1
1.84826
1.84825
1.84687
1.84595
1.84653
1.84552
1.84592
1.85149
1.85221
1.84704
1.83906
1.84836
1.84254
1.66096
1.25366
1.02339
1.00042
1
1
1
1
1
1
1
1
1
1
1
1
1
1
1
1
1
1
1.84833
1.8489
1.84856
1.8486
1.84881
1.84525
1.84389
1.84851
1.85322
1.85567
1.83728
1.8287
1.81619
1.57078
1.16115
1.00973
1.00012
1
1
1
1
1
1
1
1
1
1
1
1
1
1
1
1
1
1
1.84891
1.84961
1.85053
1.85148
1.85125
1.84614
1.8434
1.84494
1.85419
1.86115
1.84429
1.8087
1.77179
1.47295
1.09785
1.00382
1.00004
1
1
1
1
1
1
1
1
1
1
1
1
1
1
1
1
1
1
1.84932
1.84965
1.85201
1.85319
1.85281
1.84842
1.84373
1.84316
1.85289
1.86285
1.85265
1.80279
1.731
1.36949
1.05059
1.00131
1.00001
1
1
1
1
1
1
1
1
1
1
1
1
1
1
1
1
1
1
1.84988
1.84979
1.85246
1.8536
1.85313
1.85033
1.84433
1.84274
1.8512
1.86286
1.85512
1.79951
1.66778
1.24574
1.02216
1.00039
1
1
1
1
1
1
1
1
1
1
1
1
1
1
1
1
1
1
1
1.85029
1.84985
1.8515
1.8523
1.85236
1.85181
1.84575
1.84249
1.84808
1.86175
1.85236
1.77151
1.56004
1.15755
1.00947
1.00011
1
1
1
1
1
1
1
1
1
1
1
1
1
1
1
1
1
1
1
1.84903
1.84807
1.84805
1.84815
1.84998
1.85237
1.84842
1.84293
1.84347
1.86206
1.85276
1.75023
1.45857
1.08909
1.00325
1.00003
1
1
1
1
1
1
1
1
1
1
1
1
1
1
1
1
1
1
1
1.84773
1.8466
1.84555
1.84489
1.84731
1.85107
1.85036
1.84202
1.83674
1.85108
1.85158
1.72486
1.33272
1.0407
1.00098
1.00001
1
1
1
1
1
1
1
1
1
1
1
1
1
1
1
1
1
1
1
1.84753
1.84662
1.84468
1.84371
1.84469
1.85019
1.85163
1.84573
1.83123
1.82994
1.82899
1.62766
1.22108
1.01783
1.00028
1
1
1
1
1
1
1
1
1
1
1
1
1
1
1
1
1
1
1
1
1.84771
1.84759
1.84513
1.84411
1.84287
1.84668
1.85153
1.85501
1.83282
1.81557
1.80199
1.53746
1.13617
1.00674
1.00007
1
1
1
1
1
1
1
1
1
1
1
1
1
1
1
1
1
1
1
1
1.84831
1.85006
1.84876
1.84843
1.84395
1.84351
1.85106
1.85931
1.84742
1.80926
1.77299
1.41701
1.06567
1.00204
1.00002
1
1
1
1
1
1
1
1
1
1
1
1
1
1
1
1
1
1
1
1
1.84864
1.85125
1.85139
1.85201
1.84605
1.84362
1.84901
1.86114
1.85427
1.80181
1.68687
1.27793
1.02928
1.00059
1
1
1
1
1
1
1
1
1
1
1
1
1
1
1
1
1
1
1
1
1
1.84855
1.85146
1.85288
1.85422
1.84817
1.84475
1.84757
1.86394
1.85608
1.77951
1.58445
1.17958
1.01166
1.00015
1
1
1
1
1
1
1
1
1
1
1
1
1
1
1
1
1
1
1
1
1
1.84834
1.85097
1.85342
1.85522
1.85077
1.84296
1.84485
1.8647
1.85827
1.76934
1.46911
1.09078
1.00342
1.00003
1
1
1
1
1
1
1
1
1
1
1
1
1
1
1
1
1
1
1
1
1
1.84895
1.8482
1.85129
1.85431
1.85274
1.8424
1.83669
1.85087
1.85313
1.71725
1.32433
1.03878
1.00093
1.00001
1
1
1
1
1
1
1
1
1
1
1
1
1
1
1
1
1
1
1
1
1
1.84858
1.84553
1.84679
1.84986
1.85173
1.84779
1.83229
1.83467
1.82761
1.6122
1.20781
1.01546
1.00023
1
1
1
1
1
1
1
1
1
1
1
1
1
1
1
1
1
1
1
1
1
1
1.84855
1.84431
1.84129
1.84123
1.84683
1.85572
1.83785
1.82155
1.80669
1.5133
1.10987
1.00463
1.00005
1
1
1
1
1
1
1
1
1
1
1
1
1
1
1
1
1
1
1
1
1
1
1.84939
1.84431
1.83847
1.83528
1.84287
1.85848
1.85216
1.81206
1.75249
1.35621
1.04557
1.00118
1.00001
1
1
1
1
1
1
1
1
1
1
1
1
1
1
1
1
1
1
1
1
1
1
1.85001
1.84551
1.83871
1.83426
1.84073
1.86059
1.86008
1.79701
1.63898
1.22102
1.01795
1.00028
1
1
1
1
1
1
1
1
1
1
1
1
1
1
1
1
1
1
1
1
1
1
1
1.84865
1.84807
1.84325
1.83908
1.84133
1.86387
1.8642
1.77423
1.51833
1.11714
1.0052
1.00006
1
1
1
1
1
1
1
1
1
1
1
1
1
1
1
1
1
1
1
1
1
1
1
1.84635
1.8491
1.84799
1.8461
1.8412
1.86337
1.86876
1.75209
1.35375
1.04481
1.00116
1.00001
1
1
1
1
1
1
1
1
1
1
1
1
1
1
1
1
1
1
1
1
1
1
1
1.84427
1.84767
1.85123
1.85379
1.83949
1.85274
1.86092
1.62784
1.20498
1.01552
1.00024
1
1
1
1
1
1
1
1
1
1
1
1
1
1
1
1
1
1
1
1
1
1
1
1
1.84038
1.84232
1.85182
1.86518
1.85546
1.84053
1.81
1.49071
1.10425
1.00422
1.00004
1
1
1
1
1
1
1
1
1
1
1
1
1
1
1
1
1
1
1
1
1
1
1
1
1.83856
1.83704
1.84083
1.86905
1.87761
1.83563
1.73886
1.33211
1.03722
1.00088
1.00001
1
1
1
1
1
1
1
1
1
1
1
1
1
1
1
1
1
1
1
1
1
1
1
1
1.83818
1.83446
1.83088
1.87233
1.88239
1.82914
1.60852
1.16914
1.01048
1.00015
1
1
1
1
1
1
1
1
1
1
1
1
1
1
1
1
1
1
1
1
1
1
1
1
1
1.83781
1.83341
1.82574
1.8709
1.883
1.77047
1.43724
1.07479
1.00254
1.00002
1
1
1
1
1
1
1
1
1
1
1
1
1
1
1
1
1
1
1
1
1
1
1
1
1
1.83552
1.83714
1.82917
1.87101
1.88086
1.69615
1.26877
1.02335
1.00044
1
1
1
1
1
1
1
1
1
1
1
1
1
1
1
1
1
1
1
1
1
1
1
1
1
1
1.8276
1.84798
1.85877
1.8697
1.86768
1.54928
1.11482
1.00532
1.00006
1
1
1
1
1
1
1
1
1
1
1
1
1
1
1
1
1
1
1
1
1
1
1
1
1
1
1.82225
1.86353
1.89975
1.84667
1.76663
1.33467
1.03933
1.00095
1.00001
1
1
1
1
1
1
1
1
1
1
1
1
1
1
1
1
1
1
1
1
1
1
1
1
1
1
1.82927
1.89238
1.9204
1.83889
1.61719
1.16792
1.01029
1.00014
1
1
1
1
1
1
1
1
1
1
1
1
1
1
1
1
1
1
1
1
1
1
1
1
1
1
1
1.85294
1.90586
1.92609
1.80215
1.40521
1.05561
1.00163
1.00002
1
1
1
1
1
1
1
1
1
1
1
1
1
1
1
1
1
1
1
1
1
1
1
1
1
1
1
1.87004
1.90157
1.92262
1.66325
1.19074
1.01324
1.00022
1
1
1
1
1
1
1
1
1
1
1
1
1
1
1
1
1
1
1
1
1
1
1
1
1
1
1
1
1.92029
1.90213
1.83913
1.42419
1.06916
1.00232
1.00002
1
1
1
1
1
1
1
1
1
1
1
1
1
1
1
1
1
1
1
1
1
1
1
1
1
1
1
1
2.04673
1.83363
1.69711
1.21429
1.01693
1.00032
1
1
1
1
1
1
1
1
1
1
1
1
1
1
1
1
1
1
1
1
1
1
1
1
1
1
1
1
1
2.13741
1.75671
1.42872
1.06927
1.00271
1.00003
1
1
1
1
1
1
1
1
1
1
1
1
1
1
1
1
1
1
1
1
1
1
1
1
1
1
1
1
1
2.16173
1.60841
1.20567
1.01809
1.00042
1
1
1
1
1
1
1
1
1
1
1
1
1
1
1
1
1
1
1
1
1
1
1
1
1
1
1
1
1
1
2.03695
1.40313
1.08148
1.00383
1.00006
1
1
1
1
1
1
1
1
1
1
1
1
1
1
1
1
1
1
1
1
1
1
1
1
1
1
1
1
1
1
1.82105
1.22803
1.02279
1.00057
1.00001
1
1
1
1
1
1
1
1
1
1
1
1
1
1
1
1
1
1
1
1
1
1
1
1
1
1
1
1
1
1
1.53001
1.09024
1.0045
1.00006
1
1
1
1
1
1
1
1
1
1
1
1
1
1
1
1
1
1
1
1
1
1
1
1
1
1
1
1
1
1
1
1.20281
1.01819
1.00032
1
1
1
1
1
1
1
1
1
1
1
1
1
1
1
1
1
1
1
1
1
1
1
1
1
1
1
1
1
1
1
1
1
1
1
1
1
1
1
1
1
1
1
1
1
1
1
1
1
1
1
1
1
1
1
1
1
1
1
1
1
1
1
1
1
1
1
1
1
1
1
1
1
1
1
1
1
1
1
1
1
1
1
1
1
1
1
1
1
1
1
1
1
1
1
1
1
1
1
1
1
1
1
1
1
1
1
1
1
1
1
1
1
1
1
1
1
1
1
1
1
1
1
1
1
1
1
1
1
1
1
1
1
1
1
1
1
1
1
1
1
1
1
1
1
1
1
1
1
1
1
1
1
1
1
1
1
1
1
1
1
1
1
1
1
1
1
1
1
1
1
1
1
1
1
1
1
1
1
1
1
1
1
1
1
1
1
1
1
1
1
1
1
1
1
1
1
1
1
1
1
1
1
1
1
1
1
1
1
1
1
1
1
1
1
1
1
1
1
1
1
1
1
1
1
1
1
1
1
1
1
1
1
1
1
1
1
1
1
1
1
1
1
1
1
1
1
1