/*--------------------------------*- C++ -*----------------------------------*\
  =========                 |
  \\      /  F ield         | OpenFOAM: The Open Source CFD Toolbox
   \\    /   O peration     | Website:  https://openfoam.org
    \\  /    A nd           | Version:  7
     \\/     M anipulation  |
\*---------------------------------------------------------------------------*/
FoamFile
{
    version     2.0;
    format      ascii;
    class       volScalarField;
    location    "8.5";
    object      p;
}
// * * * * * * * * * * * * * * * * * * * * * * * * * * * * * * * * * * * * * //

dimensions      [1 -1 -2 0 0 0 0];

internalField   nonuniform List<scalar> 
90000
(
0.568275
0.657914
0.73312
0.765177
0.792059
0.836067
0.863065
0.857783
0.845528
0.828922
0.804879
0.77822
0.752119
0.728432
0.704764
0.684123
0.667218
0.652534
0.639454
0.628422
0.621274
0.616291
0.613281
0.61152
0.611139
0.612372
0.615009
0.618761
0.622875
0.626993
0.631499
0.635927
0.639903
0.64394
0.646638
0.648154
0.652039
0.65551
0.65836
0.660032
0.661031
0.661361
0.661221
0.660401
0.659179
0.658097
0.65749
0.655571
0.652952
0.649099
0.644879
0.641349
0.642533
0.645285
0.649671
0.655965
0.663374
0.670645
0.675774
0.678717
0.6799
0.68074
0.680707
0.679735
0.678223
0.677669
0.677976
0.680268
0.685947
0.693775
0.701696
0.706025
0.709731
0.709696
0.709029
0.71242
0.720007
0.731153
0.743817
0.756643
0.758434
0.768027
0.775934
0.790985
0.799957
0.81117
0.813962
0.823961
0.831993
0.847124
0.853058
0.857241
0.866944
0.869388
0.878001
0.883773
0.889286
0.896894
0.900099
0.905015
0.593695
0.600075
0.612816
0.619881
0.629624
0.639896
0.657021
0.667862
0.677439
0.685786
0.693356
0.69612
0.692161
0.683679
0.673658
0.663792
0.654394
0.646291
0.639227
0.635006
0.632486
0.631703
0.63202
0.633296
0.635358
0.638302
0.641568
0.644847
0.647876
0.650426
0.6527
0.653746
0.654261
0.65163
0.647098
0.641158
0.636887
0.633485
0.631288
0.62973
0.628901
0.628544
0.629054
0.62997
0.631118
0.632713
0.635221
0.637894
0.641016
0.643313
0.644386
0.646371
0.65401
0.662362
0.669064
0.674043
0.678003
0.681257
0.683466
0.684346
0.683761
0.682225
0.680008
0.677656
0.677796
0.679499
0.684415
0.691065
0.69851
0.706707
0.70989
0.71089
0.711046
0.710472
0.713246
0.721244
0.733813
0.744798
0.75705
0.761219
0.764797
0.773937
0.786623
0.799317
0.809363
0.815183
0.820684
0.831334
0.838872
0.851996
0.854649
0.86089
0.867182
0.871759
0.881902
0.886094
0.892213
0.899362
0.902046
0.907086
0.346498
0.446285
0.508001
0.556808
0.614059
0.627645
0.626426
0.635258
0.638904
0.638902
0.640934
0.645507
0.651511
0.65563
0.658059
0.66032
0.660486
0.658708
0.654989
0.65087
0.64604
0.641683
0.637208
0.634263
0.632426
0.632409
0.633303
0.634994
0.637215
0.640185
0.645305
0.650753
0.656622
0.659824
0.660165
0.658174
0.65543
0.653492
0.652861
0.652854
0.652978
0.653416
0.654785
0.657112
0.660264
0.663749
0.66837
0.673809
0.680166
0.687052
0.693638
0.697542
0.698051
0.698113
0.697742
0.696292
0.694356
0.6914
0.688926
0.68466
0.680275
0.675838
0.675302
0.677535
0.682458
0.690791
0.699663
0.706614
0.710495
0.712359
0.712079
0.71194
0.711647
0.714948
0.724482
0.736321
0.747566
0.755433
0.764057
0.764874
0.772114
0.782532
0.799376
0.807623
0.817193
0.819099
0.82677
0.837709
0.845996
0.855794
0.85721
0.865328
0.871469
0.877674
0.885544
0.887937
0.894449
0.900153
0.903511
0.909056
0.0262831
0.0335233
0.0548276
0.10904
0.310205
0.425271
0.491556
0.541004
0.601744
0.626776
0.629519
0.629746
0.633646
0.635038
0.631961
0.630645
0.631592
0.63392
0.635846
0.637264
0.639442
0.641803
0.643482
0.644712
0.645755
0.646991
0.64809
0.649093
0.648699
0.646358
0.6431
0.640765
0.6403
0.640973
0.641352
0.641789
0.641817
0.641797
0.646028
0.65216
0.657807
0.661091
0.663778
0.664577
0.665815
0.667349
0.667892
0.668527
0.669187
0.671178
0.673512
0.674969
0.673973
0.672929
0.671888
0.671318
0.670947
0.671262
0.672778
0.67501
0.677501
0.680561
0.685345
0.693134
0.700957
0.706921
0.712113
0.716247
0.717588
0.715555
0.711467
0.712296
0.716945
0.728027
0.740704
0.753179
0.757934
0.763003
0.766593
0.76964
0.781724
0.794916
0.808689
0.815344
0.822601
0.824234
0.835034
0.842198
0.850665
0.857832
0.86
0.870713
0.875902
0.882806
0.888369
0.890437
0.897475
0.900751
0.90465
0.91099
0.0259616
0.0259387
0.025911
0.025887
0.0258391
0.0318558
0.0530326
0.0956593
0.229698
0.388239
0.456609
0.520622
0.571073
0.610455
0.620329
0.624006
0.626866
0.629971
0.630594
0.628499
0.62798
0.627943
0.628452
0.628735
0.629519
0.630537
0.631718
0.63349
0.6365
0.640387
0.643778
0.646186
0.647892
0.649511
0.650698
0.651742
0.652273
0.65192
0.648568
0.646785
0.647931
0.649949
0.652542
0.655163
0.656176
0.663292
0.671463
0.678208
0.683526
0.686027
0.690773
0.695185
0.696532
0.695061
0.694477
0.694243
0.695807
0.698522
0.703204
0.709083
0.715158
0.720761
0.724802
0.726411
0.727027
0.724773
0.72105
0.716348
0.712027
0.709618
0.710439
0.718674
0.732673
0.746537
0.75406
0.761696
0.763095
0.767444
0.771385
0.779911
0.794032
0.810113
0.816036
0.821271
0.825749
0.830882
0.842892
0.845875
0.853824
0.858402
0.865364
0.876554
0.879824
0.887145
0.890496
0.893963
0.899994
0.901664
0.90606
0.913482
0.0259214
0.0259106
0.0258987
0.0258844
0.0258793
0.0258395
0.0257958
0.0257579
0.0256945
0.0309661
0.0499502
0.0923747
0.170459
0.339929
0.424242
0.494439
0.544539
0.588357
0.615103
0.619771
0.622477
0.626377
0.629897
0.631024
0.632261
0.634062
0.635585
0.635946
0.63557
0.635136
0.635441
0.636936
0.637869
0.638697
0.639147
0.63984
0.641224
0.645224
0.649901
0.652591
0.655254
0.65839
0.661476
0.664974
0.6658
0.662599
0.662611
0.665653
0.669614
0.672476
0.673783
0.682365
0.690434
0.694591
0.693906
0.694937
0.695559
0.694591
0.693719
0.695263
0.697117
0.699467
0.702455
0.703477
0.704804
0.70497
0.70626
0.708833
0.714163
0.720389
0.730033
0.74261
0.754027
0.762688
0.765956
0.768019
0.767445
0.771583
0.778991
0.794809
0.807887
0.819969
0.821164
0.82571
0.831654
0.841205
0.847619
0.84906
0.855894
0.862137
0.872147
0.880391
0.883587
0.890886
0.892204
0.896726
0.900619
0.902462
0.908125
0.916372
0.0258487
0.0258397
0.025829
0.0258205
0.0258087
0.0257967
0.0257843
0.025774
0.025771
0.0257422
0.0257016
0.0256722
0.0256062
0.0294034
0.046262
0.0853641
0.147729
0.247006
0.388306
0.471706
0.533645
0.577145
0.605605
0.623216
0.625359
0.626447
0.629202
0.629092
0.629415
0.631886
0.635515
0.638502
0.641142
0.643175
0.644501
0.645523
0.645569
0.645273
0.645435
0.648002
0.649533
0.651255
0.653121
0.655931
0.660182
0.666849
0.669941
0.673508
0.676989
0.680742
0.683512
0.680544
0.680069
0.682825
0.684699
0.685347
0.694498
0.70309
0.709056
0.711473
0.717708
0.722742
0.724742
0.726651
0.728576
0.731694
0.735952
0.74215
0.749525
0.757066
0.762928
0.764336
0.762861
0.760435
0.760476
0.762756
0.76803
0.779861
0.794717
0.811599
0.820606
0.826864
0.826087
0.830533
0.84009
0.849863
0.850845
0.851321
0.858196
0.867541
0.878058
0.882634
0.886799
0.892487
0.894825
0.902442
0.904582
0.904799
0.91075
0.919208
0.025822
0.0258129
0.0258041
0.0257946
0.0257843
0.0257748
0.0257646
0.0257565
0.0257478
0.0257432
0.0257374
0.0257367
0.0257365
0.0257385
0.0257
0.0256775
0.0256135
0.0261691
0.0393576
0.0750257
0.136048
0.217557
0.313021
0.438104
0.520025
0.572992
0.602518
0.621747
0.631375
0.633159
0.638464
0.638553
0.636268
0.636152
0.638126
0.640279
0.642435
0.645365
0.649114
0.653044
0.655293
0.657297
0.658976
0.66055
0.661923
0.66244
0.665002
0.666786
0.66842
0.670349
0.675706
0.682631
0.68549
0.688762
0.691988
0.695337
0.693193
0.693302
0.697514
0.700647
0.70284
0.714172
0.722373
0.724859
0.728108
0.729756
0.729523
0.731495
0.735357
0.740736
0.747608
0.752447
0.757739
0.764528
0.774311
0.783249
0.796316
0.811836
0.822466
0.826925
0.825574
0.821513
0.825775
0.841165
0.853455
0.857804
0.850527
0.853558
0.865088
0.874285
0.882804
0.883997
0.888949
0.891074
0.897017
0.906509
0.90725
0.906782
0.913915
0.920691
0.0258297
0.0258244
0.0258211
0.0258159
0.0258139
0.0258094
0.025808
0.0258054
0.0258081
0.0258103
0.0258172
0.025822
0.0258317
0.0258414
0.0258565
0.025877
0.0258991
0.0259279
0.0259054
0.0258717
0.0258474
0.0257801
0.0322132
0.0618063
0.123073
0.210303
0.304708
0.387761
0.495297
0.575718
0.613306
0.627397
0.634967
0.634144
0.644298
0.647328
0.645315
0.645829
0.648822
0.651568
0.652276
0.653651
0.655716
0.658506
0.661419
0.66415
0.667476
0.670804
0.67359
0.674918
0.675365
0.676955
0.680171
0.682194
0.68407
0.688348
0.696532
0.700592
0.704898
0.709414
0.714241
0.712633
0.714382
0.717818
0.719977
0.731229
0.740414
0.746476
0.753603
0.763535
0.770582
0.776374
0.782233
0.788962
0.796406
0.801666
0.807143
0.807947
0.806949
0.805493
0.815577
0.827943
0.847524
0.868366
0.862778
0.850914
0.848469
0.863331
0.877201
0.88077
0.881791
0.88498
0.888753
0.8906
0.899597
0.909205
0.90598
0.908508
0.918788
0.919326
0.0258797
0.0258796
0.0258805
0.025881
0.0258828
0.0258847
0.0258885
0.0258923
0.0259
0.0259082
0.0259195
0.0259302
0.0259437
0.0259557
0.0259769
0.0259885
0.0260061
0.026014
0.0260256
0.0260272
0.0260251
0.026035
0.0259748
0.0259075
0.0258581
0.0257725
0.0312981
0.0525842
0.10673
0.20097
0.310689
0.403716
0.482037
0.574861
0.625576
0.641157
0.645037
0.641958
0.651443
0.655624
0.648903
0.649049
0.655317
0.662555
0.663958
0.663565
0.66633
0.668849
0.670374
0.671151
0.67416
0.680088
0.684713
0.687603
0.689911
0.691574
0.692461
0.696964
0.69956
0.70177
0.706973
0.71631
0.720385
0.724287
0.728436
0.729388
0.733085
0.73937
0.744643
0.753476
0.766143
0.774925
0.781777
0.789891
0.795726
0.801486
0.807402
0.812155
0.818255
0.829863
0.846136
0.856228
0.866297
0.85348
0.850272
0.8547
0.866343
0.88238
0.874016
0.874373
0.885892
0.894295
0.896078
0.901243
0.908221
0.905885
0.906058
0.913799
0.922848
0.917751
0.0259424
0.0259489
0.025956
0.0259625
0.0259702
0.0259794
0.0259873
0.025997
0.0260051
0.0260132
0.0260211
0.0260316
0.0260418
0.0260528
0.0260653
0.026072
0.026079
0.0260834
0.0260943
0.0260878
0.0260754
0.0260508
0.026033
0.0260127
0.025997
0.0259894
0.02593
0.025867
0.0258249
0.0257471
0.0312066
0.0549263
0.10675
0.204266
0.325207
0.431754
0.502894
0.585248
0.638469
0.659137
0.653613
0.647141
0.661258
0.668327
0.655442
0.652184
0.661193
0.670917
0.674272
0.676725
0.68186
0.685438
0.683183
0.682977
0.685475
0.688903
0.695237
0.701622
0.705476
0.707247
0.709515
0.710664
0.714463
0.717051
0.721587
0.731426
0.738372
0.745521
0.753045
0.760937
0.766796
0.774953
0.780692
0.790651
0.80287
0.813414
0.819831
0.825111
0.827289
0.829199
0.836059
0.843173
0.849094
0.859822
0.868208
0.873837
0.874034
0.865345
0.871196
0.889681
0.903272
0.900583
0.902954
0.912882
0.91286
0.911271
0.917362
0.92296
0.917172
0.921456
0.0260444
0.0260537
0.0260628
0.0260703
0.0260793
0.0260907
0.0261007
0.0261111
0.0261171
0.0261232
0.0261253
0.0261292
0.0261313
0.0261347
0.0261357
0.0261351
0.0261293
0.0261229
0.0261207
0.0261137
0.0260958
0.0260694
0.0260422
0.0260101
0.0259874
0.0259568
0.0259391
0.0259273
0.025934
0.0259572
0.0259293
0.0259033
0.0259085
0.0258754
0.0326178
0.062512
0.124056
0.228203
0.356778
0.469093
0.535743
0.601565
0.650968
0.677103
0.661762
0.65123
0.666719
0.679122
0.669559
0.667635
0.677748
0.68467
0.682578
0.68563
0.692816
0.69626
0.697222
0.699461
0.701356
0.702604
0.707545
0.71414
0.718864
0.722265
0.725242
0.728726
0.736069
0.741505
0.747929
0.761453
0.771002
0.778726
0.787397
0.78932
0.792068
0.801685
0.809947
0.819159
0.830587
0.836763
0.843822
0.857413
0.865928
0.870495
0.869233
0.867816
0.866582
0.876504
0.891225
0.899946
0.899157
0.903426
0.904392
0.899889
0.907085
0.916267
0.923833
0.914028
0.919134
0.933706
0.0261774
0.0261821
0.0261885
0.026196
0.0262054
0.0262141
0.0262214
0.0262252
0.0262255
0.0262246
0.0262199
0.0262121
0.0262031
0.0261952
0.0261845
0.0261754
0.0261638
0.0261492
0.026135
0.0261255
0.0261076
0.0260876
0.0260625
0.0260383
0.026023
0.0260136
0.0260118
0.0260141
0.0260377
0.0260622
0.0261075
0.0261605
0.0262272
0.0262947
0.0262862
0.026252
0.0262226
0.0261435
0.0372309
0.0785156
0.158618
0.274875
0.406309
0.521089
0.582829
0.627873
0.660834
0.689189
0.673006
0.670883
0.679592
0.686164
0.677485
0.680511
0.694682
0.695492
0.6968
0.701084
0.704876
0.707924
0.713727
0.715562
0.715647
0.717876
0.722115
0.73187
0.741328
0.747458
0.753943
0.757731
0.765614
0.772719
0.78019
0.790252
0.80433
0.812056
0.816459
0.821214
0.827343
0.83687
0.840922
0.846726
0.858305
0.865611
0.871797
0.879758
0.877915
0.874926
0.880867
0.888154
0.899565
0.910165
0.911737
0.914021
0.917801
0.917616
0.915854
0.919269
0.930828
0.932106
0.0262831
0.0262813
0.0262796
0.0262799
0.026282
0.0262831
0.0262831
0.0262797
0.0262742
0.026268
0.0262609
0.02625
0.026239
0.0262244
0.0262065
0.0261885
0.0261743
0.0261588
0.026146
0.0261379
0.0261285
0.0261248
0.0261181
0.0261122
0.026118
0.0261359
0.0261545
0.0261816
0.0262129
0.0262481
0.0262851
0.026331
0.0263901
0.0264228
0.0264458
0.0264425
0.0264266
0.0264242
0.0263438
0.0262831
0.0261711
0.0277855
0.0491702
0.111215
0.223418
0.35821
0.485476
0.579471
0.637163
0.666128
0.685339
0.692299
0.682287
0.678069
0.691695
0.690261
0.694025
0.704644
0.70915
0.710544
0.713377
0.71275
0.713785
0.72093
0.729534
0.736702
0.741573
0.743586
0.751173
0.761847
0.770929
0.779626
0.786039
0.790765
0.799303
0.805372
0.808414
0.821162
0.833208
0.841503
0.850203
0.859858
0.857791
0.856991
0.859547
0.864808
0.875092
0.884176
0.896611
0.909404
0.91125
0.908037
0.911184
0.916252
0.918356
0.919619
0.92117
0.924052
0.931864
0.931704
0.0263605
0.0263537
0.0263465
0.0263397
0.0263325
0.0263241
0.0263151
0.0263075
0.0262983
0.0262877
0.0262763
0.0262654
0.0262574
0.0262485
0.0262388
0.0262287
0.0262232
0.0262173
0.0262187
0.0262267
0.0262379
0.0262543
0.0262732
0.0262911
0.0263232
0.0263596
0.0263911
0.0264184
0.026445
0.026467
0.0264783
0.0265018
0.0265314
0.0265473
0.026543
0.0265115
0.0264767
0.0264307
0.0264126
0.0264062
0.0264252
0.0264743
0.0264458
0.0264458
0.026395
0.0380889
0.0858205
0.182025
0.329014
0.467992
0.584379
0.639042
0.673603
0.678281
0.697487
0.695469
0.694766
0.70395
0.702943
0.706645
0.715264
0.717592
0.718603
0.723368
0.726924
0.735209
0.743168
0.74958
0.760999
0.767459
0.770136
0.777077
0.784752
0.793141
0.80358
0.809907
0.812669
0.816565
0.827566
0.832921
0.839185
0.857091
0.866561
0.872314
0.873853
0.876048
0.871244
0.87364
0.880406
0.885579
0.901386
0.914659
0.910125
0.911707
0.919942
0.925421
0.920731
0.913615
0.915699
0.922979
0.0263448
0.0263425
0.026339
0.0263342
0.0263276
0.0263223
0.0263181
0.0263181
0.0263179
0.0263181
0.0263179
0.026321
0.026328
0.0263365
0.0263456
0.0263575
0.0263699
0.0263838
0.0264035
0.0264288
0.0264533
0.026482
0.0265123
0.0265446
0.0265854
0.0266223
0.0266396
0.0266446
0.0266434
0.02663
0.0266081
0.026591
0.0265843
0.0265751
0.0265503
0.0265189
0.0264896
0.0264656
0.0264798
0.0265085
0.0265824
0.0266452
0.0267408
0.0268271
0.0269105
0.0268646
0.0268392
0.0267718
0.0331133
0.0718734
0.170888
0.313126
0.467796
0.576918
0.649452
0.684242
0.695858
0.712161
0.706965
0.70871
0.711847
0.710943
0.714577
0.723275
0.730693
0.742881
0.74964
0.752257
0.760245
0.765847
0.771236
0.784417
0.794881
0.796935
0.803543
0.80788
0.809444
0.820607
0.833665
0.837324
0.843004
0.847381
0.85654
0.864618
0.869184
0.873829
0.876712
0.878634
0.882867
0.892172
0.887493
0.895308
0.909933
0.915023
0.916762
0.922749
0.930922
0.935269
0.931362
0.927327
0.0263953
0.0264007
0.0264066
0.0264121
0.0264172
0.0264229
0.0264299
0.0264419
0.0264572
0.026476
0.0264935
0.0265158
0.0265458
0.026572
0.0265969
0.0266213
0.026639
0.0266581
0.0266786
0.0267012
0.0267211
0.0267398
0.0267582
0.0267794
0.0268049
0.0268152
0.026805
0.0267789
0.0267412
0.0267001
0.0266575
0.0266214
0.0265977
0.0265829
0.0265737
0.0265752
0.0265838
0.026618
0.0266756
0.0267762
0.0268776
0.0269864
0.0270933
0.0271444
0.027166
0.0271643
0.0271624
0.0271687
0.0270683
0.0269985
0.0269057
0.0317495
0.0693645
0.169023
0.314879
0.485293
0.595649
0.672346
0.697384
0.713416
0.71946
0.716671
0.71518
0.721035
0.728539
0.7447
0.753773
0.757887
0.766789
0.769418
0.773677
0.786051
0.793561
0.795152
0.804794
0.813564
0.818579
0.826821
0.834191
0.834273
0.837886
0.848142
0.859788
0.868093
0.873998
0.877999
0.876169
0.882017
0.888448
0.896074
0.898613
0.907437
0.917215
0.92229
0.924673
0.915197
0.905836
0.914351
0.93149
0.935293
0.02655
0.026562
0.0265769
0.0265945
0.0266142
0.0266347
0.0266567
0.0266816
0.026711
0.0267418
0.0267701
0.0268064
0.0268438
0.0268647
0.0268868
0.0269021
0.0269041
0.026899
0.0268908
0.0268829
0.0268776
0.0268722
0.0268729
0.0268766
0.0268748
0.0268598
0.0268338
0.0267955
0.0267554
0.0267152
0.0266859
0.026666
0.0266624
0.0266811
0.026727
0.0267908
0.0268708
0.0269545
0.0270465
0.0271556
0.0272386
0.0273242
0.0273594
0.0273645
0.0273385
0.0273069
0.0272804
0.0272388
0.027227
0.0272388
0.0273143
0.0273876
0.0275464
0.0275988
0.0315497
0.0745906
0.181703
0.349317
0.508468
0.620791
0.690064
0.707323
0.720207
0.730942
0.73373
0.744654
0.750782
0.759263
0.770296
0.772979
0.778116
0.788802
0.794593
0.799235
0.810356
0.816814
0.817978
0.827774
0.838276
0.842565
0.847006
0.854296
0.857394
0.860814
0.867608
0.875133
0.883673
0.890573
0.89661
0.901974
0.905455
0.907266
0.907577
0.909697
0.914149
0.914282
0.913127
0.910747
0.916045
0.928561
0.026839
0.0268525
0.026867
0.0268836
0.0269004
0.02692
0.0269393
0.026961
0.0269901
0.0270156
0.0270383
0.0270653
0.0270809
0.0270815
0.0270831
0.0270786
0.0270598
0.0270295
0.0269936
0.0269575
0.0269281
0.0269046
0.026897
0.0268972
0.0268939
0.0268821
0.026866
0.0268525
0.0268483
0.0268583
0.0268838
0.0269214
0.0269662
0.0270264
0.0271107
0.0272132
0.0273197
0.027398
0.0274663
0.027516
0.0275584
0.0275686
0.0275469
0.0275116
0.0274656
0.0274445
0.0274379
0.0274655
0.0275148
0.0275969
0.0277456
0.0279776
0.0281807
0.0284201
0.0285452
0.0285667
0.0284987
0.0358065
0.0890124
0.20925
0.39528
0.550868
0.650047
0.71492
0.736918
0.751826
0.756718
0.762762
0.765038
0.76649
0.781162
0.793038
0.797891
0.804457
0.813605
0.817211
0.820942
0.833776
0.843508
0.845088
0.848403
0.853469
0.856631
0.863205
0.873183
0.878103
0.881655
0.885645
0.892456
0.899203
0.90997
0.913656
0.910967
0.911665
0.914502
0.919949
0.923921
0.924301
0.923391
0.924528
0.0271994
0.0271989
0.0272029
0.0272062
0.0272101
0.027212
0.0272088
0.0272065
0.0272051
0.0272034
0.0272025
0.0271946
0.0271782
0.0271583
0.0271389
0.0271178
0.0270898
0.027056
0.0270158
0.0269789
0.0269562
0.0269468
0.0269505
0.0269758
0.0270134
0.0270512
0.0270951
0.0271457
0.0272018
0.027264
0.0273331
0.0274006
0.0274581
0.0275078
0.0275647
0.0276389
0.0277027
0.0277383
0.0277446
0.0277412
0.0277297
0.0276906
0.0276465
0.0276017
0.027589
0.0276206
0.0277044
0.0278171
0.0279433
0.0281048
0.0283216
0.0285419
0.0287446
0.028925
0.0289514
0.0289765
0.0290378
0.0290054
0.0289901
0.028985
0.0445674
0.118812
0.266433
0.452623
0.610725
0.678867
0.740449
0.771235
0.768184
0.776342
0.78805
0.786965
0.792137
0.8093
0.820243
0.822752
0.829088
0.835953
0.84053
0.844712
0.852919
0.861468
0.864717
0.86873
0.871806
0.873636
0.881104
0.890497
0.89815
0.903191
0.905135
0.904902
0.90499
0.907075
0.909836
0.921495
0.932571
0.935227
0.933118
0.930652
0.0274664
0.0274379
0.0274088
0.0273796
0.027354
0.0273351
0.027318
0.0272974
0.027275
0.0272527
0.0272276
0.0272007
0.0271764
0.0271568
0.0271416
0.027133
0.0271308
0.0271288
0.0271241
0.0271262
0.0271497
0.0271863
0.0272298
0.0273044
0.0273986
0.027487
0.0275691
0.0276501
0.0277257
0.0277894
0.0278372
0.0278676
0.0278828
0.0278867
0.0278977
0.0279144
0.027931
0.0279342
0.0279199
0.0278992
0.0278668
0.0278316
0.0278017
0.0277999
0.0278595
0.0279945
0.0281804
0.0283816
0.0285752
0.028794
0.0289982
0.0291886
0.0293225
0.0293318
0.0293454
0.0293502
0.0293703
0.0294575
0.0296313
0.0300994
0.030562
0.0313037
0.0318375
0.0599724
0.163198
0.325275
0.505234
0.638627
0.708841
0.77095
0.8107
0.793704
0.803043
0.813771
0.813742
0.816258
0.833709
0.841825
0.845557
0.851767
0.856962
0.858294
0.861858
0.870257
0.87755
0.882047
0.887778
0.890853
0.892311
0.894466
0.897446
0.904298
0.913222
0.917964
0.921283
0.922765
0.925711
0.927135
0.923885
0.91887
0.0273127
0.0272828
0.0272357
0.0272027
0.0271821
0.0271715
0.0271717
0.0271778
0.0271839
0.0271854
0.027192
0.0272161
0.0272478
0.0272863
0.0273387
0.0274019
0.0274799
0.0275497
0.027598
0.0276416
0.0277079
0.0277835
0.0278557
0.0279424
0.028031
0.0280861
0.0281212
0.0281507
0.0281773
0.0281865
0.0281781
0.0281557
0.0281233
0.0280921
0.0280711
0.0280594
0.0280587
0.0280651
0.0280754
0.0280807
0.0280818
0.0280943
0.0281385
0.0282297
0.0283951
0.0286156
0.028867
0.0290778
0.0292826
0.0294687
0.0296099
0.0297561
0.0297596
0.0297777
0.0298332
0.0298861
0.0300529
0.0304487
0.031146
0.032111
0.0331344
0.0341478
0.0349363
0.03524
0.0355877
0.0391559
0.0811559
0.203087
0.384132
0.554566
0.666822
0.744418
0.809854
0.836033
0.827335
0.82183
0.835508
0.831028
0.839507
0.853467
0.862047
0.862495
0.868727
0.875304
0.877578
0.880667
0.886805
0.890834
0.895061
0.900604
0.903874
0.907265
0.913375
0.915746
0.916199
0.918071
0.923433
0.930143
0.931985
0.931695
0.0273165
0.0273498
0.0273995
0.0274608
0.0275234
0.0275773
0.0276268
0.0276865
0.0277508
0.0278076
0.027863
0.0279339
0.0280157
0.028095
0.0281593
0.0282236
0.0283046
0.0283727
0.0284079
0.0284281
0.0284566
0.028486
0.0285062
0.0285258
0.028541
0.0285196
0.0284878
0.0284563
0.0284222
0.0283743
0.0283221
0.0282772
0.0282415
0.0282127
0.0281985
0.0282012
0.0282343
0.0282999
0.0283854
0.0284782
0.0285625
0.0286782
0.0288309
0.029039
0.029262
0.0294982
0.0296925
0.0298584
0.0300261
0.0301462
0.0303001
0.030377
0.0304542
0.0306154
0.0308204
0.0313027
0.0320386
0.0329755
0.0340669
0.0349647
0.0358435
0.0364847
0.0369363
0.0376601
0.0385573
0.0395005
0.0403326
0.0408749
0.0510747
0.109942
0.242192
0.435539
0.598735
0.689465
0.779429
0.829832
0.861703
0.839292
0.84969
0.853205
0.850054
0.853497
0.871624
0.878736
0.881851
0.887094
0.891702
0.892386
0.895528
0.901848
0.905094
0.908095
0.915277
0.919431
0.921493
0.922146
0.922053
0.924818
0.92939
0.932401
0.0285106
0.0285605
0.0286166
0.0286743
0.0287225
0.0287586
0.028789
0.028814
0.0288317
0.0288452
0.0288565
0.028867
0.0288784
0.0288777
0.0288647
0.028853
0.0288458
0.0288367
0.0288169
0.0287877
0.0287512
0.0287078
0.0286601
0.0286151
0.0285716
0.0285224
0.0284772
0.0284512
0.0284103
0.0283664
0.0283381
0.0283443
0.0283909
0.0284638
0.0285524
0.028661
0.0288129
0.0289876
0.0291942
0.0293879
0.0295792
0.0297668
0.0299936
0.0302227
0.0304188
0.0305778
0.0306715
0.030786
0.0308795
0.0310354
0.0312245
0.0314463
0.0318952
0.0324943
0.0333231
0.0342953
0.0353123
0.0362439
0.0370648
0.0377972
0.0384243
0.0389908
0.0396875
0.040551
0.0413744
0.0423847
0.0434278
0.0447717
0.0459964
0.0464533
0.0469023
0.0639065
0.137024
0.284766
0.479773
0.647689
0.728907
0.796905
0.875192
0.880635
0.867603
0.860323
0.869701
0.864286
0.87444
0.891185
0.898896
0.89977
0.901246
0.903969
0.90604
0.910866
0.917078
0.919641
0.921069
0.921015
0.920572
0.920328
0.922722
0.927743
0.0294142
0.0293889
0.0293676
0.0293474
0.029299
0.0292387
0.0292013
0.0291518
0.0291078
0.0290784
0.0290471
0.0289939
0.0289452
0.028894
0.0288427
0.0288005
0.0287597
0.0287254
0.0286897
0.0286531
0.0286253
0.0285848
0.0285408
0.0285084
0.0284915
0.028493
0.0285104
0.0285504
0.0286148
0.0287073
0.0288243
0.0289968
0.0292002
0.0294387
0.0296708
0.0299105
0.0301261
0.030349
0.030557
0.0307532
0.0309503
0.0311517
0.031365
0.0315412
0.0317129
0.0318166
0.0319556
0.032078
0.0323593
0.0327737
0.0333701
0.0341958
0.035131
0.0361349
0.0371222
0.0380299
0.0387627
0.0393988
0.0399757
0.0405475
0.0411084
0.0417819
0.0425732
0.0433511
0.0443949
0.0456088
0.0468443
0.0482002
0.0489113
0.0496453
0.0509772
0.0520218
0.0529634
0.0536273
0.076311
0.175044
0.33366
0.528983
0.684825
0.761688
0.830831
0.873429
0.901159
0.880463
0.886843
0.887359
0.882322
0.890722
0.903985
0.910002
0.91281
0.915429
0.915398
0.913546
0.916902
0.922558
0.927075
0.927898
0.926131
0.925975
0.028777
0.0287462
0.0287226
0.0287086
0.028685
0.0286379
0.0286032
0.0285896
0.0285859
0.0285892
0.0285919
0.0285824
0.0285719
0.028566
0.0285763
0.028605
0.0286481
0.0286976
0.0287605
0.0288371
0.0289343
0.0290428
0.0291591
0.0292784
0.0294177
0.0295855
0.0297946
0.0300193
0.0302508
0.0304784
0.0307129
0.0309439
0.0311511
0.0313392
0.0315261
0.0317078
0.031876
0.0320462
0.032191
0.0323695
0.0325482
0.0327729
0.0329971
0.033268
0.0335858
0.0340337
0.0346064
0.035282
0.0360338
0.0368577
0.037724
0.0385788
0.0393579
0.0400887
0.0407108
0.0412531
0.0416979
0.0421649
0.0426027
0.0431462
0.0439168
0.0448
0.0458042
0.0469679
0.0482813
0.0495713
0.0505899
0.0514078
0.0523807
0.0534107
0.0545851
0.0558066
0.0571279
0.059003
0.0602935
0.0611533
0.0617272
0.0965765
0.199367
0.388203
0.592038
0.720673
0.80279
0.851779
0.916385
0.912514
0.895696
0.899065
0.895219
0.896044
0.905821
0.920866
0.923059
0.922121
0.920745
0.920863
0.922884
0.925402
0.92794
0.929188
0.0288077
0.028878
0.0289574
0.029039
0.0291235
0.0292083
0.0293039
0.0294195
0.0295285
0.0296432
0.0297733
0.0299106
0.0300399
0.0301578
0.0302863
0.0304409
0.0305967
0.030748
0.0309119
0.0310751
0.0312318
0.0314015
0.0315898
0.0317532
0.0319118
0.0320774
0.0322639
0.0324535
0.0326098
0.0327516
0.032893
0.0330217
0.033172
0.0333255
0.0335037
0.0336834
0.0338916
0.0341138
0.0343913
0.0347287
0.0351559
0.0356547
0.0362344
0.0369064
0.0376369
0.0384413
0.0392249
0.0399724
0.0406579
0.0412741
0.0418314
0.0422997
0.0427219
0.0431569
0.0435704
0.0439935
0.0444949
0.0450603
0.0457703
0.0467267
0.0478744
0.0491061
0.0503735
0.0514694
0.0524232
0.0532283
0.0539708
0.054864
0.055906
0.0572578
0.05849
0.0598293
0.0615257
0.0635762
0.0648389
0.0655517
0.0666802
0.0679567
0.069086
0.0752134
0.126018
0.258737
0.444281
0.64957
0.7801
0.834018
0.875475
0.934727
0.920202
0.909299
0.909418
0.912257
0.911289
0.917776
0.92543
0.926872
0.926405
0.924099
0.923678
0.925837
0.0319462
0.0320119
0.0320812
0.0321505
0.0322153
0.0322837
0.0323578
0.0324369
0.0325153
0.0325984
0.0326916
0.0327863
0.0328835
0.0329871
0.0330882
0.0331885
0.033293
0.0334041
0.0335174
0.0336399
0.0337662
0.0338988
0.0340388
0.034205
0.0343864
0.0345723
0.0347632
0.0349569
0.0351757
0.0354257
0.0357154
0.0360397
0.0363943
0.0367754
0.0371825
0.0376142
0.0380805
0.0385895
0.0391528
0.0397369
0.0403444
0.0409328
0.0415266
0.0420842
0.0425957
0.0430591
0.0434839
0.04387
0.0441835
0.0444898
0.044774
0.0450901
0.0454914
0.0460053
0.0466828
0.0474933
0.0484273
0.0494574
0.0505503
0.051713
0.0527823
0.0538868
0.0547205
0.0554227
0.0561121
0.056817
0.057814
0.0589684
0.0603211
0.0620013
0.0636705
0.065324
0.0668097
0.0677987
0.0685113
0.0698452
0.0717909
0.0735131
0.0751839
0.0767523
0.0778783
0.0787623
0.0898195
0.165496
0.316892
0.535786
0.72289
0.830533
0.868719
0.909688
0.939968
0.92888
0.912365
0.915471
0.917019
0.918934
0.924606
0.928859
0.928042
0.926248
0.0349076
0.0349831
0.0350757
0.0351766
0.0352778
0.0353768
0.0354811
0.0355925
0.0357141
0.0358483
0.03599
0.0361395
0.036294
0.0364592
0.0366362
0.0368219
0.037017
0.0372275
0.0374514
0.0376873
0.0379347
0.0381973
0.0384734
0.0387645
0.039071
0.0393935
0.0397217
0.0400646
0.0404109
0.040781
0.0411391
0.041504
0.0418564
0.0422022
0.0425446
0.0428879
0.0432295
0.0435782
0.043925
0.044266
0.044618
0.0449406
0.0452872
0.0455977
0.0459223
0.0462246
0.0465894
0.0469438
0.0473236
0.047759
0.0482914
0.0489656
0.0497702
0.0507382
0.0518654
0.0529885
0.0540891
0.0549971
0.0558403
0.0565858
0.057344
0.0580588
0.0587173
0.0594961
0.0603627
0.0614943
0.062893
0.0644123
0.066107
0.0676373
0.0692756
0.0704225
0.0711622
0.0719346
0.0735461
0.075579
0.077246
0.0785124
0.0798636
0.0815418
0.0832252
0.0851708
0.086692
0.0873605
0.0879823
0.119225
0.228399
0.420043
0.63684
0.79958
0.863555
0.896176
0.922512
0.940867
0.929085
0.919292
0.91774
0.919585
0.922259
0.926418
0.0401541
0.0402474
0.0403503
0.0404587
0.0405739
0.0407018
0.0408322
0.0409622
0.0410958
0.0412331
0.0413748
0.0415197
0.0416717
0.0418255
0.0419863
0.0421484
0.0423159
0.0424897
0.042671
0.0428557
0.0430465
0.0432452
0.0434492
0.043655
0.043865
0.044077
0.0442994
0.0445267
0.0447625
0.0449995
0.045242
0.0454855
0.0457328
0.0459873
0.0462488
0.0465311
0.0468142
0.0471212
0.0474349
0.0477769
0.0481356
0.0485365
0.0489792
0.0494938
0.0500766
0.050726
0.0514594
0.0522031
0.0529659
0.0537191
0.0545128
0.0553041
0.0560986
0.0569549
0.0577271
0.0585178
0.0591622
0.0597339
0.0602799
0.0608256
0.0615562
0.0624222
0.0635351
0.0648147
0.0662142
0.0678407
0.0694023
0.0709176
0.0721448
0.0731151
0.0741982
0.0751653
0.076268
0.0778421
0.079477
0.0807512
0.0819044
0.0833762
0.0850516
0.0865094
0.0879815
0.0894217
0.0903106
0.0915582
0.0929291
0.0936966
0.0942019
0.0987449
0.164547
0.317313
0.534035
0.742439
0.861291
0.91014
0.917822
0.929694
0.929894
0.92259
0.918009
0.92069
0.0449286
0.0450247
0.0451247
0.045224
0.0453158
0.0454094
0.0455248
0.0456498
0.0457636
0.0458739
0.0459941
0.0461228
0.046255
0.0463937
0.0465376
0.0466851
0.0468386
0.0470025
0.0471777
0.0473637
0.0475561
0.0477582
0.0479718
0.048197
0.0484354
0.0486856
0.0489495
0.0492276
0.0495151
0.0498217
0.0501382
0.0504687
0.0508248
0.0512061
0.0516215
0.0520669
0.0525289
0.0530067
0.0534982
0.0540051
0.0545402
0.0550958
0.0556764
0.0563176
0.0569175
0.0575345
0.058156
0.0587742
0.0593424
0.0598469
0.0603198
0.060765
0.0612739
0.0618275
0.0624286
0.063106
0.063824
0.0646031
0.065452
0.0664736
0.0677529
0.0692277
0.0708021
0.0721854
0.0735186
0.0746939
0.0757292
0.0768323
0.0777132
0.0786019
0.0795491
0.0809273
0.0824679
0.0838244
0.0850005
0.0861926
0.0875161
0.088874
0.0900648
0.0911307
0.0923296
0.093454
0.094576
0.0953896
0.0961214
0.0967472
0.0975225
0.098233
0.0986403
0.0988992
0.12653
0.236988
0.450886
0.675863
0.847136
0.89301
0.923453
0.922391
0.927753
0.926534
0.0508711
0.0509676
0.0510785
0.0511983
0.0513237
0.0514495
0.0515758
0.0517132
0.0518613
0.0520109
0.0521624
0.0523189
0.0524832
0.0526557
0.0528389
0.0530245
0.0532141
0.0534136
0.0536231
0.0538411
0.0540615
0.0542882
0.0545231
0.0547659
0.0550211
0.0552805
0.0555509
0.055835
0.0561254
0.0564346
0.056756
0.0570951
0.0574591
0.0578442