/*--------------------------------*- C++ -*----------------------------------*\
  =========                 |
  \\      /  F ield         | OpenFOAM: The Open Source CFD Toolbox
   \\    /   O peration     | Website:  https://openfoam.org
    \\  /    A nd           | Version:  7
     \\/     M anipulation  |
\*---------------------------------------------------------------------------*/
FoamFile
{
    version     2.0;
    format      ascii;
    class       volScalarField;
    location    "8.5";
    object      T;
}
// * * * * * * * * * * * * * * * * * * * * * * * * * * * * * * * * * * * * * //

dimensions      [0 0 0 1 0 0 0];

internalField   nonuniform List<scalar> 
90000
(
2.35019
2.33033
2.32
2.29519
2.27595
2.27111
2.25833
2.22571
2.17984
2.13054
2.07768
2.02234
1.96678
1.91235
1.85959
1.80976
1.76341
1.71998
1.67927
1.6411
1.60701
1.57531
1.54612
1.51833
1.49243
1.46827
1.44589
1.4248
1.40471
1.38546
1.36745
1.35044
1.33435
1.31961
1.30599
1.29335
1.2834
1.27442
1.26617
1.25812
1.25042
1.24297
1.23592
1.22918
1.22284
1.21741
1.21284
1.2087
1.20497
1.20123
1.19823
1.19561
1.1964
1.19805
1.20099
1.20468
1.20889
1.21306
1.21623
1.2183
1.21947
1.2205
1.22105
1.22083
1.22035
1.22008
1.22014
1.22098
1.2235
1.22694
1.23025
1.23157
1.23223
1.23116
1.22896
1.22941
1.23178
1.23583
1.24042
1.24506
1.24438
1.24735
1.24954
1.25487
1.25759
1.26135
1.26106
1.26401
1.26616
1.27133
1.27237
1.27286
1.27567
1.27524
1.27745
1.27842
1.27914
1.28068
1.28079
1.2808
2.52662
2.52454
2.5344
2.53882
2.54898
2.5549
2.56328
2.55956
2.55101
2.53788
2.51986
2.49366
2.45913
2.41824
2.37442
2.32969
2.28445
2.23945
2.19464
2.15178
2.11029
2.06988
2.03064
1.99193
1.954
1.91642
1.87898
1.84102
1.80263
1.76349
1.72408
1.68367
1.64274
1.60086
1.56
1.5202
1.4834
1.44909
1.41781
1.38901
1.36308
1.33957
1.31859
1.29969
1.28288
1.2681
1.25556
1.24471
1.23587
1.22809
1.22147
1.21616
1.21642
1.2172
1.21753
1.21803
1.2188
1.21977
1.22056
1.22084
1.2206
1.22013
1.21957
1.21881
1.21909
1.22026
1.22291
1.22629
1.22992
1.23389
1.23537
1.23517
1.23476
1.23346
1.23388
1.23659
1.24156
1.2456
1.25009
1.25045
1.25068
1.25344
1.25774
1.26207
1.26523
1.26634
1.26736
1.27056
1.27234
1.27658
1.27625
1.27754
1.27876
1.27929
1.28214
1.28224
1.28305
1.28438
1.28428
1.28408
1.90017
2.16447
2.36884
2.51879
2.6052
2.61346
2.61572
2.62817
2.62785
2.62196
2.61553
2.61094
2.60771
2.60224
2.59401
2.58381
2.56954
2.55105
2.52849
2.50397
2.47773
2.45088
2.42256
2.39413
2.36487
2.33525
2.30433
2.27181
2.23746
2.20118
2.16459
2.12561
2.08443
2.03845
1.98877
1.9362
1.88266
1.82938
1.77766
1.72688
1.67761
1.62997
1.58505
1.54288
1.50394
1.46775
1.43512
1.40562
1.37957
1.35651
1.33619
1.31712
1.29995
1.28558
1.27329
1.26245
1.25308
1.24472
1.23788
1.2314
1.22586
1.2213
1.21959
1.22021
1.22204
1.22557
1.22966
1.23302
1.2349
1.23596
1.23589
1.2358
1.23551
1.23686
1.24105
1.246
1.25041
1.25325
1.25609
1.25513
1.25719
1.26075
1.26701
1.26945
1.27227
1.27169
1.27372
1.27697
1.27909
1.28171
1.28082
1.28287
1.28397
1.28524
1.28701
1.28626
1.28708
1.28785
1.28795
1.28768
0.530973
0.63371
0.887261
1.28611
1.90438
2.17092
2.3501
2.49347
2.59852
2.6192
2.61656
2.61603
2.61987
2.61933
2.61307
2.60641
2.60216
2.59901
2.59567
2.59229
2.58959
2.58604
2.58036
2.57271
2.56323
2.55235
2.53988
2.52603
2.50916
2.48856
2.46495
2.43951
2.41292
2.3837
2.35043
2.31342
2.27271
2.22834
2.18528
2.14064
2.09281
2.04014
1.98529
1.92736
1.86933
1.81153
1.7538
1.69712
1.64199
1.58936
1.53907
1.491
1.44628
1.40698
1.37289
1.34361
1.31852
1.29751
1.28043
1.26682
1.25602
1.24779
1.24218
1.24086
1.24067
1.24045
1.24072
1.24102
1.24049
1.239
1.2366
1.2368
1.23864
1.24353
1.24916
1.25465
1.2562
1.25809
1.25895
1.25947
1.26397
1.26909
1.27413
1.27607
1.27793
1.27745
1.28088
1.28254
1.28491
1.28627
1.28569
1.28881
1.28964
1.29117
1.29177
1.2909
1.29196
1.29172
1.29182
1.29169
0.519241
0.518513
0.517724
0.516989
0.515819
0.60082
0.854004
1.21414
1.74023
2.10358
2.26713
2.41412
2.52522
2.5859
2.59406
2.59602
2.59871
2.60185
2.6016
2.59836
2.59573
2.59288
2.58977
2.58612
2.58305
2.58021
2.57748
2.57527
2.57426
2.57363
2.57154
2.56709
2.56022
2.55107
2.53886
2.52392
2.50621
2.48528
2.45884
2.4307
2.40205
2.36977
2.33365
2.2928
2.24592
2.20074
2.15228
2.09854
2.04009
1.97607
1.91156
1.84517
1.77684
1.70858
1.64448
1.58486
1.5313
1.4835
1.44215
1.4067
1.37653
1.35106
1.32904
1.31048
1.29545
1.28195
1.27001
1.2595
1.25088
1.2448
1.24204
1.2441
1.24898
1.2542
1.25679
1.2599
1.25987
1.26123
1.26245
1.2655
1.27102
1.27759
1.27927
1.2808
1.28186
1.28307
1.2872
1.28735
1.28959
1.29004
1.29155
1.29501
1.29506
1.29677
1.29646
1.2961
1.29685
1.29593
1.29605
1.29628
0.514093
0.513519
0.512911
0.512261
0.511649
0.510736
0.509725
0.508791
0.507349
0.580915
0.808814
1.17541
1.56762
2.00929
2.19198
2.33615
2.44539
2.52702
2.56508
2.56887
2.57282
2.57965
2.58552
2.58541
2.58543
2.58613
2.58656
2.58552
2.58334
2.58059
2.57847
2.57773
2.5757
2.5726
2.56852
2.56412
2.55999
2.55828
2.55618
2.55094
2.54374
2.53412
2.52137
2.50589
2.48441
2.45529
2.42516
2.39305
2.35631
2.31256
2.26146
2.21114
2.154
2.08842
2.01529
1.94155
1.86729
1.79254
1.72002
1.65231
1.58901
1.53101
1.47933
1.43328
1.39448
1.36144
1.33485
1.31362
1.29766
1.28518
1.27765
1.27497
1.27387
1.27308
1.27088
1.26922
1.26654
1.26701
1.26868
1.2742
1.27893
1.28382
1.28353
1.28468
1.28652
1.28963
1.29171
1.2915
1.29331
1.29469
1.29774
1.30003
1.3002
1.30186
1.30081
1.30097
1.30092
1.30005
1.30062
1.30122
0.508363
0.507798
0.507188
0.506563
0.505897
0.505205
0.504491
0.503758
0.503067
0.502098
0.500992
0.499988
0.498403
0.550404
0.755116
1.10516
1.46526
1.79003
2.09303
2.25513
2.37887
2.46538
2.51525
2.53831
2.54428
2.55034
2.55889
2.56015
2.5598
2.56167
2.56546
2.56954
2.57262
2.57393
2.5737
2.57304
2.57127
2.56867
2.5661
2.56664
2.56497
2.56263
2.55957
2.55643
2.55345
2.55158
2.54445
2.53501
2.52203
2.5053
2.48351
2.45181
2.41686
2.37873
2.33264
2.27853
2.22614
2.16623
2.09862
2.02386
1.9494
1.87257
1.79445
1.71907
1.64884
1.58523
1.52946
1.48178
1.44134
1.40695
1.37689
1.35113
1.32932
1.31133
1.298
1.28884
1.28317
1.28415
1.28674
1.29091
1.29186
1.29215
1.29025
1.29091
1.29342
1.29673
1.29617
1.29545
1.29731
1.30003
1.30356
1.30416
1.30489
1.30592
1.3054
1.30688
1.30627
1.30454
1.30537
1.30621
0.502609
0.502042
0.501442
0.500811
0.500151
0.49947
0.498759
0.498032
0.497273
0.496506
0.495704
0.49489
0.49408
0.493138
0.491931
0.490843
0.489132
0.496014
0.664805
1.0072
1.38621
1.68786
1.91909
2.14857
2.29933
2.40141
2.45804
2.49045
2.50565
2.51518
2.52872
2.53389
2.53381
2.53549
2.53988
2.54467
2.54875
2.55318
2.55801
2.56259
2.56461
2.56614
2.5666
2.56617
2.56488
2.56186
2.56055
2.55726
2.55266
2.54719
2.54385
2.54053
2.5315
2.51943
2.50245
2.48108
2.44987
2.41403
2.37508
2.32731
2.27083
2.21475
2.1486
2.0722
1.99341
1.91179
1.82959
1.75141
1.67848
1.61194
1.55247
1.49995
1.45628
1.42086
1.39277
1.36961
1.353
1.34312
1.33502
1.32675
1.31723
1.30695
1.3036
1.3071
1.30901
1.30824
1.30228
1.30223
1.30539
1.30772
1.30963
1.30866
1.30952
1.30909
1.31007
1.31226
1.31119
1.30889
1.31038
1.31066
0.496718
0.496165
0.495586
0.494971
0.494347
0.493683
0.49301
0.492302
0.491595
0.490854
0.490108
0.489317
0.488517
0.487683
0.486848
0.485997
0.485166
0.484186
0.482917
0.481546
0.480277
0.478372
0.562043
0.873727
1.2898
1.63226
1.86713
2.02612
2.20624
2.34335
2.4141
2.44359
2.46112
2.46919
2.48804
2.49974
2.50148
2.50607
2.51429
2.52246
2.52732
2.5316
2.5364
2.54167
2.54653
2.5498
2.55279
2.5548
2.55567
2.55428
2.55084
2.54806
2.54663
2.54247
2.53688
2.5324
2.53025
2.52203
2.51029
2.49337
2.47129
2.4371
2.39846
2.35332
2.29891
2.2443
2.17959
2.10578
2.02808
1.95012
1.86994
1.79182
1.71989
1.6558
1.59858
1.54649
1.5003
1.45788
1.42176
1.39232
1.37508
1.36188
1.35645
1.35302
1.34325
1.32898
1.31952
1.32176
1.32277
1.32058
1.31726
1.31644
1.31589
1.31482
1.3167
1.31829
1.31535
1.31426
1.31671
1.31465
0.490663
0.490131
0.48957
0.488979
0.488372
0.487739
0.487092
0.486419
0.485739
0.485034
0.484317
0.483567
0.482802
0.481997
0.481208
0.480337
0.479463
0.478509
0.477541
0.476495
0.475399
0.47434
0.472819
0.471177
0.469705
0.46761
0.538614
0.769506
1.16881
1.56732
1.84212
2.01475
2.14756
2.29363
2.37463
2.40574
2.42353
2.43062
2.44795
2.46131
2.45745
2.46201
2.47568
2.49087
2.49845
2.50303
2.51026
2.51721
2.52282
2.52561
2.53048
2.53754
2.54183
2.54211
2.54179
2.53988
2.53613
2.53648
2.53313
2.52758
2.52319
2.52063
2.51024
2.49459
2.47312
2.44271
2.40672
2.36464
2.3127
2.25563
2.19377
2.12305
2.04819
1.9743
1.8997
1.82655
1.75621
1.68911
1.62837
1.57769
1.53808
1.50303
1.47458
1.43883
1.41524
1.39674
1.38232
1.37209
1.35477
1.34332
1.34134
1.33954
1.33592
1.33423
1.33277
1.32815
1.32437
1.3249
1.32546
1.32102
0.484382
0.483892
0.48337
0.482822
0.482258
0.481678
0.481068
0.480442
0.479785
0.479104
0.478397
0.47768
0.476934
0.476165
0.475375
0.474528
0.473657
0.472747
0.471839
0.470817
0.469738
0.468569
0.467413
0.466226
0.465036
0.463904
0.462357
0.460734
0.459312
0.457327
0.525999
0.776003
1.14325
1.54188
1.83267
2.02085
2.14114
2.26668
2.34337
2.38029
2.37969
2.38488
2.40777
2.42516
2.41439
2.41945
2.43608
2.45323
2.46386
2.47291
2.48536
2.49679
2.49931
2.50367
2.50955
2.51554
2.52354
2.5303
2.5325
2.53177
2.53032
2.5269
2.52498
2.5192
2.51348
2.51099
2.50282
2.49029
2.47156
2.44745
2.41392
2.3748
2.32644
2.27544
2.2192
2.15513
2.08336
2.00802
1.93052
1.85495
1.78757
1.72755
1.67533
1.63182
1.59282
1.554
1.51243
1.46646
1.43528
1.41791
1.40724
1.39425
1.3848
1.37895
1.3689
1.35899
1.35312
1.34825
1.34025
1.33673
0.478243
0.477788
0.477302
0.476786
0.476259
0.475723
0.475156
0.47457
0.47394
0.47329
0.4726
0.4719
0.471167
0.470417
0.469629
0.46881
0.467943
0.467052
0.466158
0.465214
0.464191
0.463102
0.461986
0.460824
0.459689
0.458489
0.457338
0.456196
0.455124
0.45412
0.452805
0.451471
0.450353
0.448767
0.530703
0.824538
1.20938
1.57195
1.85009
2.03659
2.14637
2.24565
2.31024
2.3534
2.34224
2.34583
2.36821
2.38783
2.38079
2.38673
2.40514
2.42279
2.42907
2.43914
2.45419
2.46644
2.47534
2.48495
2.4933
2.49876
2.50702
2.51515
2.51942
2.51914
2.51783
2.51582
2.51683
2.51359
2.50914
2.50924
2.50303
2.49092
2.47436
2.4478
2.41446
2.37936
2.33518
2.2842
2.22813
2.16366
2.09857
2.03855
1.97845
1.91897
1.85806
1.79458
1.7271
1.66325
1.60879
1.56627
1.53398
1.51256
1.49078
1.46489
1.44612
1.43013
1.41498
1.39351
1.38361
1.3764
0.472455
0.472011
0.471548
0.471072
0.470586
0.470078
0.469542
0.468969
0.468361
0.46773
0.467063
0.466361
0.465633
0.464886
0.464104
0.463308
0.462479
0.461616
0.460733
0.45985
0.458903
0.457925
0.456902
0.455864
0.454852
0.453848
0.452857
0.451856
0.450938
0.449986
0.449109
0.44824
0.447409
0.446559
0.445285
0.443833
0.44243
0.440383
0.570064
0.92747
1.3337
1.65212
1.89257
2.06985
2.16907
2.23915
2.28443
2.32414
2.31332
2.31765
2.33148
2.3492
2.34823
2.35637
2.37638
2.38627
2.39806
2.4126
2.42681
2.43966
2.45507
2.46557
2.47371
2.48179
2.48981
2.50161
2.51058
2.51277
2.5147
2.51196
2.51254
2.51016
2.5061
2.50323
2.50104
2.48971
2.46979
2.44474
2.41361
2.37953
2.33741
2.29254
2.24973
2.20133
2.14818
2.08758
2.0097
1.92439
1.84884
1.79107
1.75241
1.72067
1.68307
1.64228
1.60393
1.56695
1.53268
1.5008
1.48114
1.4531
0.466867
0.466432
0.465972
0.465503
0.465023
0.464522
0.463998
0.463441
0.462858
0.462256
0.46163
0.460967
0.460283
0.459559
0.458798
0.458017
0.457234
0.456424
0.455609
0.454797
0.45396
0.453133
0.45227
0.451392
0.450553
0.449749
0.448916
0.448091
0.447252
0.4464
0.445527
0.444674
0.44385
0.442875
0.441819
0.440612
0.439291
0.438008
0.436169
0.434441
0.432096
0.450273
0.67532
1.09972
1.50213
1.7827
1.98247
2.11865
2.19807
2.23696
2.26485
2.28994
2.28468
2.28556
2.29943
2.30534
2.31663
2.33539
2.34958
2.36023
2.37353
2.38357
2.3965
2.41509
2.43492
2.45242
2.46621
2.47435
2.48551
2.49696
2.50452
2.5093
2.50958
2.50785
2.50921
2.50563
2.49626
2.49411
2.48818
2.47666
2.46189
2.44444
2.41567
2.38275
2.34658
2.30263
2.25001
2.18695
2.12625
2.0759
2.02871
1.98206
1.93458
1.88244
1.82928
1.77895
1.73155
1.68091
1.64368
1.59526
0.461537
0.461113
0.460663
0.460197
0.459713
0.459208
0.458684
0.458151
0.457594
0.457014
0.456411
0.455794
0.455172
0.454527
0.453859
0.453167
0.452479
0.451765
0.45107
0.450386
0.449697
0.449013
0.448321
0.447601
0.446928
0.446245
0.445509
0.444721
0.443899
0.443026
0.442078
0.441168
0.440256
0.439245
0.4381
0.43678
0.435384
0.433873
0.432469
0.431072
0.429846
0.428638
0.427174
0.425914
0.424102
0.553364
0.933083
1.35615
1.69235
1.9109
2.07452
2.16237
2.20698
2.21701
2.24169
2.24613
2.25146
2.2647
2.27075
2.28022
2.29522
2.30664
2.31811
2.33334
2.34874
2.36948
2.39042
2.40903
2.4312
2.4467
2.45715
2.47037
2.48082
2.49
2.49947
2.50144
2.49748
2.49285
2.49419
2.48923
2.48169
2.48542
2.47948
2.4677
2.44962
2.4257
2.38898
2.35048
2.31351
2.27767
2.25217
2.22238
2.17409
2.12297
2.07538
2.02651
1.97073
1.90444
1.85474
1.79619
0.45605
0.455676
0.455273
0.454849
0.454403
0.453951
0.453491
0.453037
0.452566
0.452081
0.451576
0.45107
0.450565
0.450046
0.449508
0.448961
0.448393
0.44781
0.447233
0.446661
0.446062
0.445464
0.444853
0.44423
0.443621
0.442961
0.442187
0.44133
0.440415
0.439413
0.438344
0.437276
0.436232
0.435138
0.433933
0.432651
0.431328
0.429988
0.42881
0.427667
0.426709
0.425676
0.424748
0.423741
0.422661
0.421084
0.419572
0.417502
0.486355
0.818573
1.28926
1.6369
1.88007
2.02898
2.11846
2.16325
2.18755
2.21542
2.21377
2.21623
2.22288
2.23021
2.24127
2.25709
2.27196
2.29223
2.3105
2.3254
2.34543
2.36339
2.37986
2.40403
2.42535
2.43709
2.45125
2.46148
2.46596
2.47669
2.48623
2.48394
2.48154
2.4785
2.47761
2.47439
2.46685
2.45719
2.44274
2.42495
2.40743
2.39255
2.36772
2.34894
2.32872
2.29678
2.26088
2.22552
2.18708
2.13426
2.08571
2.02209
0.451089
0.450779
0.45045
0.450105
0.449746
0.449379
0.449007
0.448645
0.44828
0.447911
0.447517
0.447126
0.446752
0.44634
0.445902
0.445439
0.444923
0.444391
0.443844
0.443285
0.442694
0.442078
0.441439
0.440789
0.440127
0.439363
0.438479
0.437492
0.436425
0.435317
0.434184
0.433071
0.432002
0.430948
0.429887
0.428835
0.427764
0.426767
0.425832
0.425052
0.42423
0.423395
0.42251
0.421368
0.420057
0.41861
0.417141
0.415713
0.413837
0.412177
0.410155
0.46159
0.78573
1.25938
1.59354
1.84807
2.00428
2.105
2.13621
2.15281
2.16846
2.17516
2.18027
2.19047
2.20194
2.22096
2.23645
2.25015
2.26839
2.28162
2.29557
2.31728
2.33792
2.35213
2.37248
2.3923
2.40791
2.42463
2.43825
2.44229
2.4476
2.45574
2.46365
2.46635
2.4648
2.4602
2.44852
2.44184
2.4339
2.42595
2.41446
2.40579
2.39544
2.37941
2.35983
2.32945
2.2927
2.2623
2.24408
2.20047
0.446772
0.446514
0.446251
0.445986
0.445718
0.445442
0.445159
0.444871
0.444587
0.444289
0.443958
0.443643
0.443312
0.442895
0.442465
0.441984
0.44142
0.440796
0.440135
0.439453
0.438762
0.438047
0.437336
0.436613
0.435837
0.434976
0.434036
0.433021
0.431984
0.430943
0.429955
0.429004
0.428106
0.427277
0.426529
0.425801
0.425077
0.42431
0.423538
0.42281
0.421942
0.421037
0.419889
0.418558
0.417043
0.415483
0.413963
0.412442
0.411111
0.409896
0.408922
0.408177
0.407643
0.406457
0.444705
0.792369
1.25984
1.61489
1.84178
1.97874
2.06255
2.09739
2.12122
2.13821
2.14394
2.15533
2.16651
2.18086
2.19707
2.2077
2.21977
2.23577
2.25103
2.26605
2.28646
2.30458
2.31771
2.33774
2.35761
2.37239
2.38538
2.39877
2.40801
2.41594
2.42552
2.43268
2.43779
2.43708
2.43376
2.42788
2.421
2.41105
2.39919
2.38779
2.37688
2.36135
2.34155
2.31922
2.30511
2.2835
0.443143
0.442905
0.442647
0.442383
0.442106
0.441833
0.441543
0.44125
0.440974
0.440665
0.440326
0.439982
0.43957
0.439075
0.438563
0.437999
0.437346
0.436614
0.435828
0.435018
0.434218
0.433419
0.432685
0.43198
0.431257
0.430482
0.429664
0.428839
0.428045
0.427309
0.426626
0.425965
0.425288
0.424636
0.424051
0.423492
0.422896
0.422148
0.421331
0.420411
0.419425
0.418263
0.416909
0.415428
0.413869
0.412456
0.41118
0.410126
0.409181
0.408342
0.40773
0.407326
0.406665
0.406016
0.404971
0.403469
0.401277
0.471716
0.857113
1.29566
1.63847
1.84952
1.96987
2.04107
2.07359
2.09484
2.10357
2.11106
2.11914
2.12795
2.14576
2.15943
2.17069
2.18439
2.1997
2.21205
2.22452
2.24455
2.26238
2.27494
2.2887
2.30275
2.31586
2.33223
2.35203
2.36694
2.37892
2.38651
2.39307
2.39565
2.39955
2.39708
2.38894
2.38081
2.37215
2.36472
2.3546
2.33996
2.32507
2.3037
0.439678
0.439401
0.439116
0.438808
0.438488
0.438146
0.437767
0.437378
0.436977
0.436559
0.43613
0.435651
0.43511
0.434524
0.433911
0.433268
0.432578
0.43185
0.431076
0.430301
0.429578
0.428892
0.428266
0.427764
0.427311
0.426825
0.426324
0.425818
0.425312
0.424807
0.424297
0.423741
0.423104
0.422402
0.421711
0.421065
0.42034
0.419474
0.41846
0.417375
0.416224
0.414926
0.413554
0.412139
0.410889
0.409899
0.409174
0.408549
0.407907
0.407306
0.406811
0.406228
0.405497
0.404595
0.40313
0.401592
0.40014
0.39862
0.397273
0.395832
0.534101
0.968861
1.36722
1.65439
1.85366
1.93622
1.99372
2.02659
2.03906
2.05211
2.06271
2.06841
2.07841
2.09725
2.11121
2.12094
2.1334
2.14492
2.15619
2.16795
2.18318
2.19792
2.21009
2.22459
2.24028
2.25657
2.27633
2.29558
2.31063
2.32047
2.32525
2.32871
2.33187
2.33373
2.33329
2.33783
2.33891
2.33182
2.3216
2.30347
0.435784
0.435385
0.43496
0.434513
0.434077
0.433655
0.433214
0.432734
0.432228
0.431714
0.431186
0.430644
0.430098
0.429547
0.428998
0.428473
0.427976
0.427474
0.426941
0.426413
0.425962
0.425544
0.425135
0.424857
0.424612
0.424296
0.423924
0.423535
0.423111
0.422617
0.422023
0.421321
0.420527
0.419667
0.418826
0.417987
0.417119
0.416175
0.41515
0.414088
0.412966
0.411813
0.410659
0.409609
0.408843
0.408369
0.408005
0.4076
0.407068
0.406534
0.405871
0.405115
0.40413
0.402724
0.401343
0.399874
0.39846
0.397403
0.396333
0.395787
0.396323
0.397952
0.398974
0.612665
1.07238
1.40387
1.63105
1.7833
1.86922
1.92969
1.97312
1.97048
1.97971
1.98983
1.99854
2.0092
2.02846
2.03932
2.04861
2.06006
2.07065
2.07844
2.08813
2.10259
2.11848
2.13446
2.15237
2.16807
2.18175
2.19374
2.20383
2.217
2.23285
2.24516
2.25409
2.26001
2.26598
2.26964
2.26717
2.25864
0.429622
0.429218
0.428765
0.428363
0.428008
0.427698
0.427407
0.427116
0.426821
0.426503
0.4262
0.425965
0.425735
0.425502
0.425298
0.425114
0.424966
0.424765
0.424463
0.424114
0.423849
0.42359
0.423276
0.422978
0.422652
0.422191
0.421653
0.421091
0.420502
0.419817
0.41902
0.41813
0.417182
0.416236
0.415331
0.414455
0.413613
0.4128
0.412008
0.411201
0.410356
0.409531
0.408794
0.40819
0.407801
0.407492
0.407176
0.406656
0.406066
0.40536
0.404514
0.40366
0.40239
0.401193
0.400033
0.398774
0.397657
0.397283
0.398124
0.400215
0.402716
0.405112
0.406451
0.406562
0.406893
0.431513
0.690744
1.09884
1.39983
1.58654
1.70764
1.79067
1.84779
1.88188
1.8847
1.88907
1.90295
1.90932
1.92125
1.93573
1.948
1.95585
1.96636
1.97647
1.98595
1.99834
2.0134
2.02741
2.042
2.05609
2.06663
2.07706
2.09144
2.10446
2.11604
2.12786
2.14191
2.15699
2.16573
2.17365
0.424831
0.424785
0.424783
0.424782
0.424759
0.424688
0.424582
0.42451
0.424438
0.424314
0.424157
0.424051
0.423966
0.423855
0.423673
0.423496
0.423386
0.42322
0.422931
0.422566
0.422226
0.421864
0.421422
0.420916
0.420342
0.419601
0.418785
0.417955
0.417109
0.416196
0.415257
0.414362
0.413523
0.412713
0.411963
0.411278
0.410731
0.410293
0.409899
0.409478
0.408935
0.408418
0.407954
0.407611
0.407233
0.406845
0.406312
0.405688
0.405041
0.404234
0.403544
0.402613
0.401586
0.400729
0.399623
0.399948
0.40122
0.403349
0.406075
0.408066
0.409932
0.41078
0.410955
0.411848
0.413433
0.41413
0.415724
0.416786
0.477859
0.757787
1.09258
1.36356
1.52661
1.622
1.70068
1.75156
1.79122
1.78565
1.79171
1.79794
1.80649
1.81817
1.83465
1.84377
1.85286
1.8647
1.87637
1.88579
1.89768
1.91038
1.91943
1.92758
1.93946
1.95132
1.96334
1.97532
1.98685
2.00051
2.01338
2.03095
0.424489
0.424418
0.424363
0.42431
0.424235
0.424124
0.423986
0.423823
0.42362
0.423383
0.423127
0.422864
0.422589
0.422256
0.421858
0.421444
0.421023
0.420568
0.420061
0.419506
0.418893
0.418211
0.417468
0.416712
0.41594
0.415113
0.414277
0.413531
0.41278
0.412029
0.411375
0.410912
0.41058
0.410275
0.409965
0.409683
0.409514
0.409348
0.40921
0.408956
0.408595
0.40812
0.407766
0.407432
0.407022
0.406547
0.405879
0.405261
0.40446
0.403776
0.403127
0.402348
0.40269
0.403646
0.405534
0.407923
0.410341
0.412321
0.413813
0.414959
0.415684
0.416159
0.417012
0.418343
0.419547
0.42134
0.423179
0.425874
0.427883
0.428266
0.428874
0.519336
0.800008
1.09348
1.31269
1.47505
1.55521
1.61338
1.6635
1.68304
1.68938
1.69242
1.69892
1.70303
1.71502
1.73095
1.7433
1.7516
1.76079
1.76962
1.77688
1.78457
1.79312
1.80134
1.81054
1.82
1.82905
1.83833
1.84809
1.86666
0.423566
0.423297
0.423025
0.422749
0.422315
0.421802
0.421353
0.42086
0.420362
0.419908
0.419446
0.418856
0.418257
0.417634
0.417014
0.416419
0.415825
0.415256
0.414678
0.414109
0.4136
0.41306
0.412508
0.412003
0.411572
0.411194
0.410857
0.410572
0.410282
0.410001
0.409734
0.409693
0.409656
0.409655
0.409587
0.409533
0.409404
0.4093
0.409133
0.408889
0.408658
0.408503
0.408395
0.408165
0.40787
0.407236
0.40658
0.4055
0.405448
0.405822
0.406911
0.408901
0.411235
0.41368
0.415887
0.417682
0.418783
0.419545
0.420121
0.420675
0.421169
0.421956
0.423079
0.424166
0.425976
0.428224
0.430524
0.43315
0.433985
0.434979
0.437318
0.439303
0.440956
0.441987
0.545564
0.851026
1.08844
1.28067
1.404
1.47665
1.53789
1.57257
1.59897
1.59363
1.59884
1.6034
1.60898
1.61954
1.63283
1.64279
1.64979
1.65523
1.65896
1.66357
1.6715
1.6814
1.69048
1.69719
1.70196
1.71364
0.415682
0.415297
0.41494
0.414643
0.414315
0.413889
0.413507
0.413261
0.413064
0.412875
0.412696
0.412483
0.412253
0.412028
0.41185
0.411711
0.411589
0.411448
0.411308
0.411168
0.411061
0.410945
0.410821
0.410662
0.410565
0.410565
0.410628
0.410712
0.410825
0.41095
0.411129
0.41132
0.411344
0.411309
0.411272
0.411214
0.411108
0.410992
0.410758
0.410665
0.410542
0.410566
0.410522
0.410607
0.410833
0.411486
0.41257
0.414005
0.41562
0.417361
0.419139
0.420783
0.422105
0.423258
0.42402
0.424506
0.424673
0.424922
0.425115
0.425573
0.42663
0.428006
0.429709
0.431838
0.434345
0.436748
0.438442
0.439593
0.441102
0.442746
0.444707
0.446725
0.448949
0.452375
0.45483
0.456292
0.457153
0.594968
0.851771
1.09089
1.26325
1.36309
1.42136
1.46096
1.50529
1.51326
1.51113
1.51463
1.51789
1.52523
1.53408
1.54351
1.54871
1.5527
1.5569
1.56212
1.5678
1.57326
1.57802
1.58639
0.410386
0.410484
0.410595
0.410699
0.410798
0.410885
0.410998
0.411171
0.41129
0.411415
0.41159
0.41178
0.411906
0.411958
0.412039
0.412216
0.412393
0.412537
0.412716
0.412888
0.413038
0.413241
0.413526
0.413691
0.413816
0.413949
0.414172
0.414442
0.414497
0.41449
0.414468
0.41438
0.414328
0.414243
0.41422
0.414153
0.414176
0.414222
0.414419
0.414791
0.41545
0.416336
0.417489
0.418924
0.420508
0.422266
0.423876
0.425307
0.42648
0.427398
0.428123
0.428553
0.428813
0.429104
0.42926
0.42939
0.429715
0.430229
0.43115
0.432733
0.434829
0.437133
0.43947
0.441347
0.442857
0.443972
0.444935
0.446226
0.447861
0.450197
0.452245
0.454509
0.457535
0.461339
0.463423
0.464373
0.46611
0.46834
0.470368
0.491339
0.653835
0.906337
1.08529
1.23863
1.32786
1.37326
1.40541
1.44288
1.4433
1.44382
1.44461
1.44768
1.45098
1.45693
1.46426
1.46949
1.47301
1.47476
1.47663
1.48268
0.416656
0.416729
0.416803
0.416871
0.416914
0.416963
0.417024
0.417089
0.417133
0.417181
0.417253
0.417323
0.417395
0.417483
0.417544
0.417586
0.417631
0.417689
0.417745
0.417818
0.417887
0.417962
0.418048
0.41821
0.418413
0.418615
0.4188
0.41897
0.419203
0.419529
0.419959
0.420483
0.421076
0.421737
0.422455
0.423226
0.424072
0.425019
0.426103
0.427218
0.428369
0.429412
0.430438
0.431305
0.432007
0.43255
0.432954
0.433256
0.433285
0.433308
0.433266
0.433291
0.433479
0.433922
0.43477
0.435966
0.437489
0.439254
0.441177
0.443243
0.445049
0.446908
0.448066
0.448935
0.449772
0.450639
0.452144
0.454
0.456293
0.45926
0.462204
0.465066
0.467566
0.469045
0.470018
0.472185
0.475533
0.478385
0.481498
0.482789
0.484785
0.486551
0.520592
0.717028
0.932903
1.11652
1.24088
1.30695
1.34011
1.36799
1.38999
1.38699
1.38175
1.38503
1.38935
1.39393
1.39926
1.40337
1.40431
1.40691
0.422585
0.422632
0.422714
0.422814
0.422903
0.422977
0.423064
0.423167
0.423299
0.423465
0.423646
0.42384
0.424041
0.424267
0.424525
0.424804
0.425108
0.425454
0.425837
0.426249
0.426687
0.427162
0.427667
0.428205
0.42877
0.42937
0.429969
0.430598
0.431212
0.431873
0.432466
0.433053
0.433573
0.43405
0.434492
0.434916
0.435315
0.435717
0.436095
0.436438
0.436792
0.43703
0.437324
0.43747
0.43763
0.437708
0.437919
0.438071
0.438282
0.438627
0.439224
0.440183
0.441463
0.443129
0.445156
0.447137
0.449022
0.45041
0.451641
0.45263
0.453638
0.454517
0.455261
0.456276
0.457496
0.459272
0.461587
0.464159
0.467105
0.469698
0.472479
0.474265
0.475237
0.476296
0.478943
0.482383
0.485116
0.487134
0.489238
0.492022
0.494725
0.497931
0.499653
0.500695
0.501737
0.590693
0.80493
0.998114
1.15163
1.24817
1.2922
1.31494
1.3322
1.34746
1.34468
1.34301
1.34488
1.34759
1.35015
1.35424
0.434298
0.434411
0.434545
0.434687
0.434841
0.435024
0.435205
0.435373
0.435542
0.435713
0.435888
0.436063
0.436252
0.436436
0.436629
0.436814
0.437004
0.437203
0.437416
0.437626
0.43784
0.438064
0.43829
0.438508
0.438725
0.438933
0.439156
0.439377
0.439604
0.439816
0.440023
0.440214
0.440396
0.440579
0.440766
0.440989
0.4412
0.441459
0.441712
0.442021
0.442345
0.442756
0.443251
0.443915
0.444736
0.445738
0.446933
0.44814
0.449376
0.450566
0.451823
0.453039
0.454225
0.455517
0.456581
0.457675
0.458418
0.459
0.459526
0.460057
0.460954
0.46213
0.463833
0.465893
0.468206
0.470939
0.473496
0.475966
0.477892
0.47933
0.480953
0.482367
0.484032
0.486549
0.489166
0.491124
0.492869
0.495167
0.497808
0.500063
0.502322
0.504474
0.50582
0.507717
0.509773
0.510894
0.511639
0.523312
0.684047
0.897184
1.06699
1.19359
1.26054
1.28984
1.30154
1.31244
1.31583
1.31447
1.31501
1.31746
0.4433
0.443388
0.443473
0.443546
0.443594
0.443645
0.443747
0.443872
0.443949
0.444005
0.444078
0.444169
0.444265
0.444373
0.444485
0.444591
0.444703
0.444833
0.444988
0.445162
0.44534
0.445529
0.445735
0.445963
0.446212
0.446481
0.446772
0.447088
0.447416
0.447781
0.448161
0.448568
0.449031
0.449546
0.450139
0.450792
0.451473
0.452177
0.452894
0.45363
0.45441
0.455219
0.456067
0.457042
0.457903
0.458797
0.459686
0.460548
0.461268
0.461828
0.462298
0.462689
0.463193
0.463771
0.464434
0.465243
0.466126
0.467133
0.468288
0.469802
0.471818
0.474217
0.476793
0.478985
0.481072
0.482833
0.484319
0.48594
0.487192
0.488468
0.489837
0.491962
0.494369
0.496441
0.498185
0.499952
0.501936
0.503978
0.50575
0.507323
0.509095
0.51074
0.51237
0.51352
0.51456
0.515437
0.516623
0.517296
0.517899
0.518294
0.590358
0.796391
1.00348
1.14457
1.24021
1.26769
1.28602
1.2913
1.29853
1.29835
0.453695
0.453796
0.453924
0.454065
0.454213
0.454356
0.454495
0.454655
0.454834
0.455009
0.45518
0.455355
0.455545
0.455748
0.455967
0.456179
0.456391
0.456621
0.456867
0.457122
0.457369
0.457621
0.457883
0.458156
0.458446
0.458733
0.459037
0.459363
0.459695
0.46006
0.460444
0.460858
0.461319
0.461814
0.462325
0.462857
0.463343
0.463805
0.464207
0.464606
0.465018
0.465459
0.46597
0.466547
0.467128
0.467717
0.468378
0.469105
0.469779
0.470428
0.470975
0.4717
0.472688
0.473934
0.475522
0.47726
0.479138
0.480923
0.482544
0.484257
0.485976
0.487809
0.48941
0.490584
0.491551
0.492332
0.493373
0.494558
0.496173
0.497961
0.499888
0.501768
0.503499
0.505033
0.50644
0.50788
0.509319
0.510545
0.511749
0.513201
0.514571
0.515749
0.51652
0.517107
0.517745
0.51842
0.519133
0.51984
0.520412
0.520707
0.520726
0.520767
0.542617
0.709238
0.955442
1.1159
1.23125
1.26573
1.27652
1.28534
0.46473
0.464839
0.464946
0.465053
0.465144
0.465244
0.465421
0.465596
0.4657
0.4658
0.465939
0.466103
0.466273
0.466441
0.466596
0.466739
0.466889
0.467055
0.467229
0.467397
0.467567
0.467744
0.467947
0.468167
0.468433
0.468712
0.469035
0.469383
0.469748
0.470129
0.47054
0.470954
0.471423
0.471898
0.472412
0.472935
0.473499
0.474033
0.474541
0.475047
0.475641
0.476316
0.477126
0.478105
0.479117
0.480121
0.48123
0.482429
0.483631
0.484764
0.485885
0.487009
0.488092
0.489293
0.490586
0.492038
0.493252
0.494197
0.49494
0.495625
0.496406
0.49742
0.498453
0.499573
0.500534
0.501641
0.50291
0.504428
0.50603
0.507652
0.509113
0.510379
0.511478
0.512322
0.513084
0.513931
0.514878
0.515785
0.516793
0.517762
0.518458
0.518988
0.519473
0.519798
0.520096
0.520497
0.520945
0.521427
0.521722
0.521654
0.521613
0.521761
0.52213
0.522712
0.522834
0.669094
0.900989
1.09879
1.21269
1.27198
0.477097
0.477233
0.47741
0.477587
0.47776
0.477913
0.478037
0.478212
0.478459
0.478696
0.478882
0.479064
0.479273
0.479514
0.479775
0.480031
0.48027
0.480521
0.480779
0.481054
0.481329
0.481624
0.481926
0.482248
0.48259
0.482951
0.483331
0.48376
0.484196
0.484656
0.485148
0.485663
0.4862
0.48676
0.487326
0.487937
0.488594
0.489232
0.489821
0.490393
0.490995
0.491598
0.492294
0.493089
0.493895
0.494676
0.495533
0.496443
0.497266
0.497934
0.498493
0.498969
0.499471
0.500085
0.500927
0.501881
0.502743
0.503467
0.50419
0.504847
0.505668
0.506731
0.508008
0.509242
0.510365
0.511408
0.512401
0.513262
0.514055
0.51473
0.515313
0.515982
0.516626
0.517125
0.517562
0.518133
0.51884
0.519581
0.520108
0.520504
0.520826
0.521163
0.521439
0.521526
0.521659
0.522028
0.522415
0.522516
0.522625
0.522568
0.522558
0.522802
0.523687
0.524615
0.524746
0.524587
0.524646
0.63853
0.853827
1.15962
0.491716
0.491807
0.491932
0.492103
0.4923
0.492473
0.492608
0.492737
0.492905
0.493121
0.493345
0.493536
0.493717
0.493905
0.494121
0.494354
0.494583
0.494801
0.495018
0.495238
0.495471
0.495707
0.495942
0.496189
0.496462
0.496758
0.497097
0.497482
0.497869
0.49825
0.498637
0.499033
0.49943
0.499833
0.500234
0.500703
0.501244
0.501729
0.502174
0.502589
0.502969
0.503361
0.503811
0.504369
0.504992
0.50568
0.506462
0.507294
0.508025
0.508584
0.509033
0.509453
0.509926
0.510507
0.511325
0.51232
0.513162
0.513739
0.514284
0.514778
0.515247
0.515856
0.516516
0.516997
0.517352
0.517638
0.517897
0.518196
0.518531
0.518881
0.519269
0.519709
0.520178
0.520556
0.520802
0.521122
0.521524
0.521819
0.521925
0.522065
0.522251
0.522356
0.522517
0.522733
0.522979
0.523312
0.523471