/*--------------------------------*- C++ -*----------------------------------*\
  =========                 |
  \\      /  F ield         | OpenFOAM: The Open Source CFD Toolbox
   \\    /   O peration     | Website:  https://openfoam.org
    \\  /    A nd           | Version:  7
     \\/     M anipulation  |
\*---------------------------------------------------------------------------*/
FoamFile
{
    version     2.0;
    format      ascii;
    class       volScalarField;
    location    "2";
    object      T;
}
// * * * * * * * * * * * * * * * * * * * * * * * * * * * * * * * * * * * * * //

dimensions      [0 0 0 1 0 0 0];

internalField   nonuniform List<scalar> 
90000
(
0.729416
0.763586
0.792937
0.818898
0.840802
0.857443
0.872363
0.886872
0.89945
0.910477
0.921743
0.93299
0.943137
0.953607
0.964312
0.974805
0.985547
0.99641
1.00747
1.01828
1.02966
1.04005
1.04982
1.05752
1.06449
1.06755
1.06887
1.06997
1.07006
1.0692
1.06817
1.06669
1.06453
1.06168
1.05831
1.05445
1.05008
1.04553
1.04127
1.03892
1.04005
1.04228
1.04515
1.04809
1.05086
1.05337
1.05508
1.05646
1.05656
1.0559
1.05429
1.05138
1.04871
1.04615
1.04558
1.04691
1.0495
1.05246
1.05393
1.05428
1.05313
1.051
1.04821
1.04576
1.04606
1.0478
1.05037
1.05225
1.05177
1.05054
1.04846
1.04796
1.04924
1.05184
1.05416
1.05476
1.05572
1.05779
1.06083
1.06438
1.06734
1.07052
1.07462
1.07851
1.08135
1.08446
1.08732
1.08808
1.08707
1.08534
1.08247
1.08133
1.08141
1.08132
1.08099
1.07991
1.07826
1.07614
1.07486
1.07307
0.697015
0.696964
0.696905
0.696852
0.696878
0.69699
0.697289
0.697946
0.699
0.700698
0.703209
0.706974
0.711914
0.718834
0.727485
0.738756
0.752072
0.768498
0.786702
0.808219
0.830826
0.85605
0.880362
0.904608
0.925759
0.944709
0.961035
0.975473
0.988553
0.999157
1.00904
1.01626
1.02316
1.0276
1.03185
1.03426
1.03642
1.03773
1.04019
1.04306
1.04767
1.05061
1.05376
1.05589
1.05775
1.05918
1.0591
1.05899
1.05819
1.05471
1.0505
1.04713
1.04604
1.04621
1.04706
1.04885
1.05045
1.05277
1.05318
1.05191
1.04923
1.0464
1.04453
1.04448
1.04566
1.04791
1.05095
1.05074
1.04956
1.04721
1.04595
1.04656
1.04848
1.05135
1.05264
1.05308
1.05418
1.05658
1.06024
1.06358
1.06672
1.07034
1.0747
1.079
1.08199
1.08592
1.0885
1.08835
1.0868
1.08425
1.08066
1.07932
1.0794
1.07951
1.07927
1.07834
1.07684
1.07529
1.07452
1.07295
0.69596
0.695903
0.695841
0.695777
0.695709
0.695639
0.695554
0.695453
0.69534
0.695215
0.695086
0.694955
0.69482
0.694679
0.69453
0.694372
0.694212
0.694061
0.693884
0.693908
0.694104
0.694867
0.696539
0.700185
0.70605
0.715978
0.729143
0.747536
0.768445
0.794095
0.820106
0.848422
0.875378
0.9031
0.928992
0.953643
0.977609
0.999211
1.01871
1.03191
1.04028
1.0441
1.0473
1.04897
1.0504
1.05104
1.05066
1.04846
1.04411
1.03675
1.03715
1.03914
1.04163
1.04551
1.0489
1.05082
1.05064
1.04995
1.04777
1.04371
1.04091
1.04007
1.0408
1.04349
1.0474
1.04912
1.04877
1.04656
1.04364
1.04226
1.04288
1.04547
1.04809
1.0493
1.04918
1.0498
1.05163
1.05502
1.05836
1.06131
1.06493
1.06927
1.07412
1.07847
1.08181
1.08636
1.08864
1.08807
1.08565
1.0821
1.07786
1.07643
1.07658
1.07684
1.07669
1.07601
1.0748
1.07387
1.0736
1.07238
0.694248
0.69418
0.694107
0.694033
0.693957
0.693876
0.693789
0.693703
0.693616
0.693531
0.693449
0.69337
0.693289
0.693203
0.693105
0.693
0.69289
0.692782
0.692676
0.692569
0.692467
0.69234
0.692206
0.692073
0.691943
0.691823
0.691711
0.691614
0.691507
0.691584
0.691987
0.693447
0.696695
0.704117
0.716063
0.736446
0.762288
0.79711
0.833085
0.870491
0.902008
0.929906
0.952513
0.970402
0.986083
0.996276
1.00572
1.01077
1.01605
1.0216
1.03118
1.03827
1.04442
1.04898
1.04993
1.04869
1.04738
1.04336
1.03744
1.03455
1.03472
1.03643
1.04071
1.04457
1.04756
1.04689
1.04297
1.03923
1.03781
1.03876
1.04193
1.04482
1.04606
1.04536
1.04505
1.0461
1.04933
1.05279
1.05535
1.05831
1.06245
1.06731
1.07266
1.07701
1.08089
1.08598
1.08779
1.08688
1.08383
1.0795
1.07489
1.07351
1.07372
1.07406
1.07398
1.07353
1.07261
1.07218
1.07223
1.07123
0.692577
0.692527
0.692474
0.69242
0.692365
0.692308
0.692251
0.692195
0.692137
0.69208
0.692026
0.691979
0.691936
0.691886
0.691826
0.691756
0.691681
0.691608
0.691539
0.691473
0.691407
0.691344
0.691284
0.691229
0.69118
0.691135
0.691094
0.691056
0.691017
0.690985
0.69095
0.690921
0.690908
0.690903
0.690893
0.690872
0.690852
0.691059
0.692058
0.696008
0.704569
0.723005
0.748193
0.783572
0.820269
0.860609
0.897999
0.93416
0.96898
0.998432
1.01759
1.02733
1.03348
1.03787
1.03947
1.03943
1.03761
1.03253
1.02894
1.02971
1.03288
1.03873
1.04258
1.04328
1.04306
1.03931
1.03397
1.0337
1.03488
1.03891
1.04181
1.0429
1.0427
1.04072
1.0411
1.04381
1.04774
1.05063
1.05233
1.05542
1.06014
1.06546
1.07067
1.07495
1.07933
1.08479
1.08621
1.08509
1.08168
1.07707
1.07247
1.07119
1.07145
1.07181
1.07177
1.07149
1.07072
1.07051
1.07067
1.06977
0.691344
0.691318
0.691291
0.691264
0.691236
0.691208
0.69118
0.691153
0.691127
0.691101
0.691079
0.691062
0.691052
0.691042
0.691029
0.691006
0.690974
0.690937
0.690901
0.690867
0.690838
0.690813
0.690789
0.690769
0.690751
0.690734
0.690721
0.690708
0.690697
0.690682
0.690675
0.690679
0.690692
0.690714
0.69072
0.690715
0.6907
0.690683
0.690664
0.690645
0.690633
0.690617
0.690585
0.690728
0.691685
0.695948
0.706468
0.730363
0.766113
0.816679
0.862823
0.906144
0.938735
0.967105
0.985948
1.00295
1.01287
1.01789
1.02564
1.03222
1.03986
1.04455
1.04456
1.04349
1.03643
1.0294
1.02954
1.03132
1.03656
1.04112
1.04226
1.04143
1.03772
1.03711
1.03891
1.04332
1.04717
1.04919
1.05031
1.05355
1.05889
1.06423
1.06891
1.07316
1.07786
1.08317
1.08441
1.08332
1.08
1.07546
1.07101
1.06984
1.07012
1.07047
1.07044
1.07022
1.06955
1.06918
1.06935
1.06845
0.690649
0.690641
0.690633
0.690625
0.690617
0.690608
0.690598
0.690589
0.690582
0.690573
0.690568
0.690569
0.690571
0.690577
0.690587
0.690591
0.690589
0.69058
0.690565
0.690548
0.690535
0.690531
0.690529
0.690527
0.690522
0.690518
0.690514
0.690515
0.690517
0.690516
0.690517
0.690524
0.69054
0.690566
0.69058
0.690574
0.690555
0.690539
0.69053
0.690526
0.69052
0.6905
0.690474
0.690461
0.69044
0.690403
0.690373
0.690339
0.690363
0.691309
0.695568
0.7114
0.740542
0.783741
0.838506
0.889209
0.937947
0.981066
1.0161
1.02975
1.03791
1.0408
1.04038
1.03543
1.025
1.02558
1.02925
1.03628
1.04062
1.04099
1.04016
1.036
1.03357
1.03534
1.04051
1.04433
1.04724
1.04636
1.04791
1.0525
1.05839
1.06403
1.06796
1.07233
1.07727
1.0819
1.08318
1.08226
1.07919
1.07462
1.07035
1.06929
1.06954
1.06984
1.06982
1.06961
1.06899
1.06832
1.06846
1.06752
0.6903
0.6903
0.690302
0.690304
0.690304
0.690305
0.690305
0.690306
0.690307
0.690307
0.690307
0.69031
0.690315
0.690324
0.690337
0.690355
0.690373
0.690377
0.690375
0.690375
0.690378
0.690388
0.690402
0.690407
0.690405
0.690401
0.690399
0.690402
0.690404
0.690403
0.690403
0.690406
0.690415
0.690444
0.690458
0.690449
0.69043
0.690402
0.690392
0.690392
0.690381
0.690351
0.690311
0.690311
0.690304
0.690286
0.690259
0.690245
0.690244
0.690235
0.690226
0.690222
0.690209
0.690434
0.692978
0.70395
0.733693
0.789467
0.851739
0.90944
0.95069
0.978777
1.00258
1.00982
1.02017
1.02725
1.03856
1.0441
1.04391
1.042
1.03352
1.03041
1.03227
1.03816
1.04397
1.04585
1.04433
1.04471
1.04803
1.05349
1.05912
1.06368
1.06732
1.07218
1.07719
1.08135
1.08277
1.08197
1.07896
1.07421
1.07017
1.06925
1.06945
1.06968
1.06966
1.06944
1.06885
1.06793
1.06798
1.06698
0.690126
0.690129
0.690133
0.690136
0.690139
0.690143
0.690147
0.690152
0.690157
0.690161
0.690166
0.690171
0.690175
0.690182
0.690191
0.690206
0.690225
0.690242
0.690259
0.690277
0.690303
0.690332
0.690345
0.690345
0.690341
0.690333
0.69033
0.690329
0.690326
0.690321
0.690314
0.690306
0.690306
0.690319
0.690348
0.690344
0.690329
0.690296
0.690265
0.690266
0.690264
0.690247
0.690212
0.690203
0.690216
0.690219
0.690208
0.690187
0.690172
0.69017
0.690178
0.690178
0.69017
0.690153
0.690126
0.690118
0.69011
0.690411
0.693977
0.71346
0.751312
0.813743
0.878249
0.940684
0.999753
1.02541
1.04049
1.04324
1.04232
1.03465
1.02634
1.02928
1.03659
1.04262
1.04567
1.04291
1.0415
1.04431
1.05028
1.05581
1.06052
1.06394
1.06751
1.07263
1.07724
1.08145
1.08308
1.08218
1.07922
1.07397
1.07021
1.06948
1.06959
1.06975
1.06972
1.0695
1.0689
1.06784
1.0678
1.06668
0.690012
0.690023
0.690029
0.690028
0.690025
0.690025
0.690026
0.69003
0.690039
0.690049
0.690057
0.690063
0.690069
0.690077
0.690086
0.690097
0.69011
0.690125
0.690148
0.690182
0.690233
0.690289
0.690293
0.690288
0.690276
0.690258
0.690248
0.690242
0.690229
0.690216
0.690209
0.690197
0.690183
0.690184
0.690204
0.690229
0.690223
0.690208
0.690177
0.690148
0.690153
0.69016
0.690152
0.690134
0.690134
0.690147
0.690149
0.690143
0.690125
0.690107
0.690114
0.690124
0.690121
0.690114
0.690092
0.690078
0.690083
0.690091
0.690095
0.690093
0.690101
0.691311
0.699977
0.738365
0.803246
0.882704
0.940838
0.977211
1.00826
1.01503
1.02678
1.03595
1.04493
1.04707
1.04445
1.03901
1.04096
1.04713
1.05402
1.05699
1.05989
1.0643
1.06879
1.07383
1.07745
1.08217
1.08408
1.08282
1.07912
1.07355
1.07068
1.07001
1.06996
1.06997
1.0699
1.06964
1.069
1.06795
1.06784
1.06661
0.689924
0.689923
0.689921
0.68992
0.689917
0.689916
0.689916
0.689921
0.689934
0.689961
0.689972
0.689969
0.689969
0.689972
0.689983
0.689999
0.690015
0.690028
0.690046
0.690077
0.690138
0.690201
0.690199
0.690192
0.690176
0.690161
0.690156
0.690147
0.69013
0.690106
0.690093
0.690086
0.69007
0.690065
0.690073
0.690112
0.690138
0.69013
0.690115
0.690092
0.690085
0.690089
0.690104
0.690105
0.690101
0.690094
0.690102
0.690104
0.690102
0.690091
0.690084
0.690097
0.690109
0.690108
0.690101
0.690094
0.690102
0.690104
0.690102
0.690097
0.690091
0.690078
0.690049
0.690045
0.690665
0.70225
0.735678
0.807508
0.884695
0.958049
1.01639
1.03502
1.04521
1.04432
1.03741
1.03707
1.04406
1.05193
1.05657
1.05615
1.05898
1.06471
1.07088
1.07413
1.07819
1.08391
1.08519
1.08395
1.07904
1.07376
1.0716
1.07062
1.07041
1.07036
1.07024
1.06994
1.06914
1.06806
1.0679
1.06668
0.689813
0.68981
0.689808
0.689808
0.689806
0.6898
0.689798
0.6898
0.689808
0.689822
0.689839
0.689855
0.689864
0.68987
0.689878
0.689886
0.689894
0.689905
0.689921
0.689949
0.69
0.690068
0.690075
0.690071
0.690063
0.690058
0.69005
0.690036
0.69002
0.690002
0.689982
0.68998
0.689979
0.689976
0.68998
0.690005
0.69006
0.690063
0.690053
0.690048
0.690051
0.690054
0.690059
0.690071
0.690073
0.690073
0.690069
0.690056
0.690054
0.690056
0.690053
0.690052
0.690062
0.690064
0.69006
0.690054
0.690065
0.690083
0.690087
0.690087
0.690087
0.690074
0.690034
0.690017
0.690027
0.690026
0.690021
0.691219
0.701987
0.755646
0.837855
0.91598
0.974404
1.00292
1.022
1.03558
1.05267
1.05762
1.05517
1.05488
1.05904
1.0665
1.07198
1.07474
1.07981
1.08602
1.08641
1.08387
1.07862
1.07457
1.07248
1.07107
1.07077
1.07069
1.07058
1.0703
1.06934
1.06823
1.06804
1.06671
0.689685
0.689685
0.689687
0.689692
0.689692
0.68969
0.689685
0.689685
0.689687
0.689695
0.68971
0.68973
0.689749
0.689768
0.689782
0.689785
0.689787
0.689795
0.689815
0.689849
0.689895
0.689952
0.689965
0.689962
0.689952
0.68994
0.68994
0.689944
0.689945
0.68994
0.689929
0.689927
0.689931
0.689941
0.689953
0.689966
0.689999
0.690042
0.690041
0.690031
0.690026
0.690037
0.690051
0.690052
0.690052
0.690053
0.690055
0.690047
0.690033
0.690038
0.690054
0.690061
0.690068
0.690068
0.690064
0.690067
0.69008
0.690102
0.690108
0.690109
0.690108
0.690087
0.690052
0.690033
0.690014
0.690013
0.690006
0.690016
0.690021
0.690059
0.692858
0.720925
0.785245
0.878932
0.975129
1.02854
1.05441
1.05446
1.04776
1.05368
1.06323
1.06956
1.07183
1.07562
1.08229
1.08751
1.08652
1.08346
1.07919
1.0762
1.07302
1.07133
1.07105
1.07092
1.07077
1.07045
1.06939
1.06839
1.06822
1.06678
0.689583
0.689587
0.689599
0.689603
0.689603
0.689604
0.689604
0.689602
0.6896
0.689603
0.689616
0.689646
0.689687
0.689705
0.689703
0.689701
0.689703
0.689717
0.689747
0.689791
0.689835
0.689862
0.689881
0.689884
0.689881
0.689874
0.689872
0.689874
0.689879
0.689884
0.689886
0.68989
0.689897
0.689914
0.689934
0.689941
0.689949
0.689974
0.690011
0.690015
0.69001
0.690006
0.690016
0.690025
0.690031
0.690034
0.690032
0.690031
0.690031
0.690021
0.690026
0.690053
0.690065
0.690065
0.690054
0.69006
0.690103
0.690122
0.690121
0.690121
0.690118
0.690085
0.690043
0.690022
0.69001
0.690014
0.690044
0.69006
0.690068
0.690067
0.690013
0.689964
0.690373
0.703327
0.764597
0.870377
0.960103
1.00888
1.03037
1.05719
1.071
1.07105
1.07188
1.07691
1.08585
1.08699
1.08627
1.08396
1.0816
1.07779
1.07303
1.07161
1.07129
1.07107
1.07089
1.07056
1.06945
1.06853
1.06839
1.06689
0.689522
0.689529
0.689543
0.689544
0.689543
0.689543
0.689543
0.68954
0.68954
0.689548
0.689572
0.689607
0.689654
0.689666
0.689665
0.689664
0.689667
0.689683
0.689718
0.68976
0.689798
0.689821
0.689835
0.689848
0.689857
0.689855
0.689849
0.689841
0.689843
0.689849
0.689857
0.689866
0.689876
0.689896
0.689921
0.689933
0.689935
0.68994
0.689959
0.689965
0.689967
0.689976
0.689999
0.690017
0.690029
0.690042
0.690052
0.690059
0.690067
0.690061
0.690051
0.690078
0.690098
0.690097
0.690085
0.690088
0.690112
0.690121
0.690122
0.690123
0.690123
0.690111
0.690075
0.690052
0.690048
0.690062
0.690102
0.690126
0.690129
0.690112
0.690057
0.689983
0.689934
0.68988
0.689942
0.700921
0.752483
0.866499
0.97792
1.04952
1.06836
1.06427
1.072
1.08168
1.08839
1.08649
1.08587
1.08564
1.0836
1.07759
1.07246
1.07204
1.07156
1.07108
1.07086
1.07058
1.06956
1.06869
1.06854
1.06699
0.689486
0.689502
0.689505
0.689504
0.689503
0.689505
0.689504
0.689502
0.689504
0.689518
0.689548
0.68958
0.689623
0.689642
0.689642
0.689642
0.689647
0.689664
0.6897
0.689738
0.68977
0.689788
0.689799
0.689808
0.689813
0.689815
0.689816
0.689819
0.68982
0.689823
0.689836
0.689852
0.689864
0.689875
0.689872
0.68987
0.689862
0.68986
0.68987
0.689896
0.689918
0.689937
0.689962
0.689985
0.69
0.690016
0.690029
0.690045
0.690062
0.690073
0.690069
0.690085
0.6901
0.690096
0.690081
0.690083
0.690102
0.690107
0.690111
0.690116
0.690116
0.690105
0.690073
0.690053
0.69006
0.690097
0.690154
0.690173
0.690173
0.690149
0.690077
0.689988
0.689924
0.689873
0.689836
0.689769
0.689804
0.699918
0.774777
0.896037
0.998111
1.04358
1.07564
1.08915
1.08735
1.08533
1.08698
1.08931
1.08516
1.07605
1.07275
1.0726
1.07194
1.07147
1.07113
1.07066
1.0697
1.06884
1.06869
1.06709
0.68947
0.689488
0.689507
0.689507
0.689507
0.689507
0.689504
0.6895
0.689502
0.689513
0.68954
0.689579
0.689633
0.689652
0.68965
0.689647
0.689649
0.689661
0.689691
0.689724
0.689748
0.689757
0.689764
0.68978
0.689791
0.689792
0.689793
0.689796
0.689806
0.689817
0.689815
0.689812
0.689804
0.689794
0.689796
0.689794
0.68979
0.689796
0.689816
0.68985
0.689889
0.689928
0.689971
0.690021
0.690046
0.690064
0.690079
0.690101
0.690127
0.69014
0.69014
0.690144
0.690149
0.690142
0.690126
0.690139
0.690152
0.690149
0.69015
0.690157
0.690159
0.690157
0.690131
0.690132
0.690156
0.690212
0.690236
0.690235
0.690225
0.69017
0.690103
0.690021
0.689969
0.689895
0.689864
0.689875
0.689859
0.689737
0.690165
0.707415
0.819919
0.97552
1.06468
1.086
1.08093
1.0862
1.09313
1.09123
1.08212
1.07425
1.07423
1.07322
1.07182
1.07148
1.07129
1.07085
1.07002
1.06904
1.06865
1.06694
0.68951
0.689521
0.689543
0.68956
0.689557
0.689553
0.689554
0.689556
0.689563
0.68958
0.689612
0.689648
0.689686
0.689698
0.689697
0.689692
0.689691
0.689698
0.68973
0.689742
0.689741
0.689734
0.689732
0.689758
0.689778
0.689777
0.689767
0.689752
0.689745
0.689738
0.689735
0.689745
0.689747
0.689746
0.689744
0.689729
0.689727
0.689737
0.689757
0.689782
0.689811
0.689853
0.689922
0.68999
0.690024
0.690051
0.690065
0.690077
0.690103
0.690122
0.690139
0.690144
0.690139
0.690124
0.690105
0.690119
0.690124
0.690122
0.690125
0.690138
0.690151
0.690149
0.690161
0.690189
0.690223
0.690252
0.690262
0.690258
0.690227
0.690158
0.690082
0.690024
0.689954
0.689935
0.68997
0.689975
0.68993
0.689835
0.689651
0.68936
0.692909
0.763758
0.908554
1.02797
1.06369
1.09634
1.0964
1.08885
1.07732
1.07617
1.07641
1.07453
1.07239
1.07178
1.07158
1.07114
1.07056
1.06926
1.06883
1.06712
0.689542
0.689553
0.689574
0.689579
0.689576
0.689574
0.689574
0.689575
0.689582
0.689604
0.689631
0.689669
0.68968
0.689679
0.689675
0.689668
0.689666
0.689661
0.689657
0.689662
0.68967
0.689681
0.68968
0.689676
0.689667
0.689677
0.689687
0.689685
0.689686
0.689702
0.689715
0.68973
0.689734
0.689733
0.689732
0.689721
0.689715
0.689725
0.689743
0.689767
0.689796
0.689837
0.689905
0.690023
0.690118
0.690155
0.690168
0.690166
0.690165
0.690191
0.690211
0.690211
0.690197
0.690185
0.690198
0.690207
0.690203
0.690188
0.690206
0.690246
0.690265
0.690266
0.690283
0.690331
0.690344
0.690339
0.690332
0.690323
0.690285
0.690211
0.690135
0.690086
0.69006
0.690079
0.69008
0.690056
0.689981
0.68981
0.689576
0.689332
0.688944
0.689321
0.714537
0.859262
1.01583
1.08978
1.08957
1.078
1.0794
1.08202
1.07874
1.07303
1.072
1.07246
1.07224
1.07159
1.07103
1.06944
1.06847
1.06664
0.68954
0.689548
0.689557
0.68956
0.689561
0.68956
0.689554
0.689551
0.689558
0.689576
0.689581
0.68959
0.689606
0.689607
0.689606
0.689607
0.6896
0.689595
0.689596
0.689588
0.689569
0.689569
0.689582
0.689582
0.689577
0.689584
0.689604
0.689638
0.689693
0.689763
0.689791
0.689801
0.689804
0.689804
0.689789
0.689752
0.689747
0.68976
0.689772
0.689797
0.689841
0.689885
0.689943
0.690047
0.690129
0.690158
0.690169
0.690184
0.690194
0.690177
0.690177
0.69019
0.690201
0.690201
0.690214
0.690235
0.690238
0.690248
0.690288
0.69032
0.690324
0.690314
0.690343
0.690389
0.690388
0.690378
0.690364
0.690354
0.69032
0.69027
0.690212
0.690182
0.690192
0.690193
0.69018
0.690102
0.689954
0.689746
0.689531
0.689299
0.689064
0.688849
0.688771
0.698673
0.812127
0.965864
1.04868
1.06891
1.08977
1.08672
1.07978
1.07073
1.07236
1.07386
1.07318
1.07217
1.07134
1.06952
1.06828
1.06638
0.68939
0.689398
0.689407
0.689416
0.689423
0.689429
0.689434
0.689439
0.689442
0.689445
0.689449
0.689454
0.689462
0.689464
0.689464
0.689466
0.689474
0.689486
0.689496
0.689495
0.689488
0.689487
0.689501
0.689524
0.689529
0.689539
0.689564
0.689601
0.689649
0.689737
0.689811
0.689821
0.689821
0.689821
0.68982
0.689818
0.689838
0.689864
0.689863
0.689863
0.689896
0.689942
0.689982
0.690067
0.690136
0.690175
0.690179
0.690163
0.690145
0.690125
0.690126
0.690153
0.69018
0.690211
0.690257
0.690307
0.69035
0.690385
0.690441
0.690465
0.69046
0.690413
0.690376
0.690389
0.69039
0.690379
0.690352
0.690337
0.690322
0.690287
0.690251
0.690243
0.690269
0.690274
0.690236
0.690106
0.689918
0.689719
0.689508
0.689306
0.689123
0.688911
0.688875
0.688913
0.69194
0.745807
0.909531
1.0428
1.08766
1.08524
1.07049
1.07019
1.07543
1.07489
1.07245
1.07176
1.07126
1.0696
1.06831
1.06642
0.689358
0.689363
0.689369
0.689378
0.689388
0.689396
0.689405
0.689411
0.689414
0.689419
0.689426
0.689432
0.689434
0.689436
0.689439
0.689443
0.689455
0.689467
0.689468
0.689476
0.689478
0.689471
0.689475
0.689512
0.689519
0.689527
0.689557
0.689607
0.689678
0.689816
0.689944
0.689969
0.689968
0.689947
0.68992
0.689905
0.689891
0.68989
0.68989
0.689883
0.689895
0.689964
0.689982
0.689988
0.690073
0.690202
0.690233
0.690216
0.690166
0.69013
0.690123
0.690154
0.690246
0.690372
0.690473
0.690529
0.690566
0.690583
0.690588
0.690588
0.690561
0.690464
0.690385
0.690389
0.690407
0.690436
0.690449
0.690441
0.690453
0.690467
0.69046
0.690455
0.690447
0.690426
0.690342
0.690139
0.689902
0.689734
0.689548
0.689358
0.689217
0.689077
0.688924
0.688914
0.688989
0.689095
0.711127
0.836634
0.965078
1.04476
1.05503
1.07303
1.07898
1.07536
1.07085
1.07192
1.07143
1.0698
1.0685
1.06667
0.689504
0.689519
0.689521
0.689514
0.689513
0.689518
0.68953
0.689548
0.689558
0.689565
0.689577
0.689577
0.689573
0.689568
0.689567
0.689566
0.689573
0.689597
0.689595
0.689599
0.689608
0.689604
0.689612
0.689642
0.689642
0.689644
0.689677
0.689732
0.689782
0.68986
0.68995
0.689981
0.689988
0.689981
0.689927
0.68986
0.689855
0.689871
0.689871
0.689866
0.689868
0.689937
0.689979
0.689981
0.690034
0.690192
0.690329
0.69036
0.690353
0.690296
0.690236
0.69026
0.690366
0.690516
0.690632
0.69067
0.69067
0.69067
0.690678
0.690685
0.690638
0.690522
0.690452
0.690464
0.690506
0.690565
0.690606
0.690614
0.690606
0.690608
0.690607
0.690602
0.690561
0.690416
0.690206
0.690011
0.689877
0.689779
0.689628
0.689454
0.68934
0.689216
0.688985
0.688862
0.688867
0.6888
0.689441
0.694725
0.749594
0.880325
1.00279
1.07414
1.0733
1.06496
1.07039
1.07317
1.07143
1.06962
1.06891
1.06708
0.689768
0.689797
0.689805
0.689794
0.689776
0.689773
0.689783
0.6898
0.689801
0.689801
0.689802
0.689797
0.689789
0.689782
0.689767
0.689755
0.689754
0.689745
0.689709
0.689692
0.689699
0.689696
0.689662
0.689664
0.689685
0.689679
0.689617
0.689545
0.689491
0.689455
0.68946
0.68951
0.689603
0.689658
0.689659
0.68963
0.689639
0.689729
0.689838
0.689852
0.689852
0.689871
0.689956
0.690035
0.690133
0.690328
0.690489
0.690524
0.690523
0.690484
0.690393
0.690373
0.690438
0.690563
0.690673
0.690717
0.690716
0.690713
0.690708
0.690643
0.690512
0.69046
0.690487
0.690562
0.69064
0.69069
0.690718
0.690705
0.690671
0.690681
0.690677
0.690617
0.690486
0.690289
0.690083
0.689961
0.689889
0.689794
0.689674
0.68956
0.689454
0.689281
0.688989
0.688668
0.688607
0.688568
0.688998
0.691163
0.696568
0.713527
0.808011
0.948607
1.02198
1.04908
1.07497
1.07547
1.07139
1.06982
1.06942
1.06702
0.689682
0.68971
0.689734
0.68975
0.689763
0.689778
0.689794
0.689797
0.689795
0.689788
0.689776
0.689757
0.689717
0.689683
0.689684
0.689681
0.689652
0.689619
0.689556
0.689491
0.689472
0.689432
0.689348
0.689343
0.689351
0.689314
0.689207
0.689088
0.689008
0.688976
0.688986
0.689039
0.68915
0.689265
0.689333
0.689397
0.689475
0.689575
0.689718
0.689828
0.689864
0.689902
0.689983
0.690083
0.690197
0.690368
0.690473
0.69049
0.690487
0.690452
0.690376
0.690309
0.690325
0.6904
0.690473
0.690483
0.69048
0.690493
0.690506
0.690468
0.690363
0.69036
0.69045
0.690605
0.690688
0.690751
0.690773
0.690755
0.690708
0.690616
0.690516
0.690416
0.69027
0.690101
0.689942
0.689861
0.689781
0.689703
0.68969
0.689647
0.689512
0.689192
0.688699
0.688384
0.688386
0.688293
0.688615
0.69021
0.694375
0.703419
0.713756
0.753736
0.878992
1.00381
1.06905
1.0689
1.06894
1.07106
1.07046
1.06735
0.689136
0.689147
0.689191
0.689213
0.689216
0.689233
0.689275
0.689287
0.689295
0.689323
0.689353
0.689353
0.689342
0.689321
0.689319
0.689306
0.689273
0.689268
0.689257
0.689216
0.689134
0.689043
0.689013
0.689036
0.689048
0.68902
0.688933
0.688809
0.68871
0.688672
0.688683
0.688736
0.68885
0.689025
0.689159
0.689265
0.689386
0.689509
0.689636
0.689787
0.689929
0.690041
0.690074
0.690079
0.690084
0.690119
0.690187
0.690213
0.690212
0.690182
0.690135
0.690113
0.690124
0.690181
0.690243
0.690251
0.69028
0.690353
0.690372
0.690337
0.690264
0.690293
0.690469
0.690633
0.690688
0.69073
0.69073
0.690666
0.690548
0.690423
0.690312
0.690195
0.690056
0.689931
0.689814
0.689737
0.68965
0.6897
0.689732
0.689683
0.689469
0.689018
0.688435
0.688137
0.688165
0.688086
0.688303
0.689633
0.692771
0.699973
0.710173
0.719304
0.73643
0.822285
0.961614
1.02067
1.06493
1.07139
1.06879
1.06588
0.688664
0.688713
0.688798
0.688847
0.688875
0.688889
0.688894
0.688904
0.688932
0.688992
0.689096
0.689174
0.689182
0.689184
0.689192
0.689196
0.689197
0.689202
0.689202
0.689182
0.689121
0.689046
0.689009
0.689018
0.689031
0.689046
0.689046
0.689005
0.688969
0.688955
0.688953
0.688975
0.689071
0.689276
0.689431
0.689516
0.689654
0.689802
0.689932
0.690093
0.690148
0.690145
0.690119
0.690025
0.689882
0.689783
0.689801
0.689886
0.689932
0.689937
0.689954
0.690012
0.690087
0.690184
0.690239
0.690248
0.69027
0.69037
0.690478
0.69052
0.690526
0.690597
0.690752
0.690934
0.690942
0.690903
0.690815
0.690667
0.690522
0.690387
0.690258
0.690136
0.689996
0.689874
0.68977
0.689794
0.689866
0.68993
0.689875
0.689712
0.68938
0.688901
0.688357
0.688112
0.688223
0.68824
0.688278
0.689362
0.692045
0.697071
0.705726
0.71572
0.724835
0.732868
0.777358
0.911751
1.04112
1.06539
1.06307
1.06518
0.688728
0.688766
0.688846
0.688933
0.688935
0.688945
0.688986
0.689001
0.689003
0.689035
0.689146
0.689234
0.689248
0.689265
0.689306
0.689391
0.689578
0.689696
0.689714
0.689704
0.689697
0.689754
0.689869
0.68991
0.689942
0.689984
0.690033
0.690047
0.690019
0.689962
0.689921
0.689931
0.690033
0.69015
0.690197
0.690274
0.690322
0.690333
0.690344
0.69031
0.690233
0.690153
0.690092
0.689993
0.689856
0.689759
0.68977
0.689857
0.689934
0.690016
0.690152
0.690287
0.690438
0.690601
0.690678
0.690711
0.690695
0.690769
0.690993
0.691202
0.691301
0.691303
0.691257
0.691144
0.691023
0.690919
0.690793
0.690648
0.690512
0.690446
0.690368
0.690388
0.690469
0.690601
0.690703
0.690758
0.690727
0.690596
0.690318
0.689917
0.689439
0.688962
0.688572
0.68856
0.688777
0.688875
0.688745
0.689462
0.691676
0.695907
0.702604
0.711138
0.721139
0.730004
0.733698
0.760319
0.870894
0.990444
1.04724
1.06629
0.690325
0.690365
0.690391
0.690394
0.690377
0.690361
0.690382
0.690435
0.690495
0.690543
0.690585
0.690643
0.690721
0.690779
0.690831
0.690928
0.691101
0.691188
0.691182
0.691138
0.691079
0.691067
0.691099
0.691086
0.690989
0.690959
0.690967
0.690974
0.690924
0.690823
0.690823
0.69091
0.690944
0.690939
0.690961
0.691002
0.691004
0.690951
0.690953
0.69096
0.690906
0.690904
0.69093
0.690917
0.690823
0.690717
0.690732
0.690852
0.691034
0.6912
0.691373
0.691597
0.691846
0.691968
0.692001
0.692011
0.691992
0.691999
0.692053
0.692082
0.692077
0.692053
0.691973
0.691796
0.691728
0.691717
0.691702
0.691677
0.691634
0.691625
0.691633
0.691624
0.691627
0.691675
0.691676
0.691617
0.691439
0.69116
0.690844
0.690554
0.690314
0.690071
0.689793
0.689578
0.689497
0.68943
0.689029
0.689477
0.691508
0.695293
0.700833
0.708284
0.717417
0.727693
0.733665
0.735936
0.746453
0.846107
0.986027
1.05995
0.69268
0.692626
0.692568
0.692499
0.692415
0.69232
0.692207
0.692045
0.691847
0.691709
0.691682
0.691743
0.691795
0.691794
0.691778
0.691711
0.691508
0.691163
0.69105
0.691001
0.690936
0.690874
0.690837
0.690827
0.690791
0.690709
0.6907
0.690739
0.690728
0.690585
0.690544
0.690604
0.690614
0.690605
0.690649
0.690776
0.69086
0.690887
0.690868
0.690789
0.6908
0.691002
0.691221
0.691256
0.691251
0.691184
0.691214
0.691371
0.691529
0.691644
0.691844
0.692203
0.692482
0.692505
0.69246
0.69243
0.692419
0.692344
0.692164
0.691982
0.691893
0.691824
0.691737
0.691576
0.691554
0.69159
0.691622
0.691657
0.691718
0.691848
0.692041
0.692073
0.692078
0.692033
0.691926
0.691686
0.691393
0.691141
0.690954
0.69081
0.690786
0.690727
0.690394
0.689931
0.6897
0.689555
0.689331
0.689782
0.69165
0.695103
0.700342
0.707074
0.715274
0.724261
0.731366
0.735577
0.737774
0.746211
0.807964
0.994004
0.696679
0.696722
0.696725
0.696685
0.69666
0.696702
0.696741
0.696711
0.696597
0.69656
0.696599
0.69659
0.696466
0.696385
0.696464
0.69656
0.69647
0.696389
0.696448
0.696612
0.696815
0.697088
0.697255
0.697269
0.697227
0.697257
0.697415
0.697722
0.698079
0.698289
0.698402
0.698481
0.698568
0.698682
0.698983
0.69954
0.699705
0.699717
0.699863
0.700124
0.70044
0.700766
0.700809
0.700795
0.700885
0.701013
0.701119
0.701241
0.70128
0.701213
0.701001
0.700795
0.70078
0.700846
0.7009
0.700893
0.700818
0.700616
0.700501
0.700521
0.70061
0.700651
0.700652
0.700592
0.700541
0.700586
0.700731
0.700948
0.700993
0.700966
0.700878
0.700738
0.700546
0.700328
0.700075
0.699873
0.699716
0.699627
0.699627
0.69961
0.699501
0.699228
0.698723
0.698094
0.697969
0.698026
0.697801
0.698191
0.69966
0.701749
0.704906
0.709965
0.716663
0.724117
0.730872
0.735771
0.738758
0.74151
0.74566
0.872135
0.710195
0.710254
0.710305
0.710323
0.710326
0.710348
0.710438
0.710556
0.710566
0.710551
0.710586
0.710604
0.7105
0.710466
0.710536
0.71067
0.710643
0.710467
0.710375
0.71037
0.710359
0.710387
0.710421
0.710414
0.710339
0.710157
0.709959
0.709871
0.709838
0.709736
0.709622
0.709583
0.709524
0.709347
0.709212
0.709142
0.709062
0.708979
0.708913
0.708797
0.708515
0.708136
0.707841
0.707652
0.707433
0.70719
0.707158
0.707132
0.70704
0.70687
0.706594
0.706237
0.705853
0.70545
0.705049
0.704696
0.704664
0.70481
0.705006
0.705133
0.705278
0.705496
0.705773
0.705861
0.705886
0.7059
0.70597
0.705957
0.70586
0.705619
0.705225
0.704866
0.704637
0.704314
0.704029
0.7041
0.70415
0.70429
0.704412
0.70432
0.704023
0.703466
0.702803
0.702058
0.702019
0.702255
0.702253
0.702699
0.704023
0.706327
0.710001
0.714607
0.719299
0.724228
0.730828
0.7375
0.742751
0.745593
0.746539
0.771421
0.722063
0.72194
0.721897
0.721857
0.721749
0.721574
0.721425
0.721414
0.721419
0.72139
0.721401
0.72139
0.721228
0.720917
0.720818
0.720884
0.720994
0.720968
0.720879
0.720853
0.720775
0.72065
0.720634
0.720674
0.720691
0.720612
0.720565
0.720578
0.720531
0.720334
0.720179
0.720056
0.719823
0.719544
0.71923
0.719013
0.718936
0.718822
0.718554
0.718225
0.718164
0.718323
0.718531
0.718642
0.718811
0.71901
0.719146
0.719264
0.719462
0.719862
0.720252
0.720313
0.720259
0.720293
0.720445
0.720674
0.720947
0.721045
0.720997
0.720765
0.720655
0.720636
0.720556
0.72037
0.720085
0.719704
0.719227
0.718781
0.718386
0.717932
0.71744
0.717068
0.717012
0.716971
0.716826
0.716698
0.716521
0.71621
0.715708
0.715022
0.714257
0.713609
0.713067
0.712568
0.712183
0.712055
0.711729
0.711266
0.711907
0.714277
0.717443
0.720279
0.723185
0.728084
0.734445
0.740228
0.745609
0.751272
0.752927
0.756068
0.739209
0.739185
0.739093
0.738974
0.738852
0.738846
0.738949
0.738939
0.738772
0.738647
0.738681
0.738742
0.738637
0.738308
0.738216
0.738256
0.73827
0.738219
0.738209
0.738182
0.738074
0.738055
0.737974
0.737855
0.737894
0.738046
0.73805
0.737938
0.737946
0.738035
0.738138
0.738206
0.738204
0.738132
0.738102
0.738119
0.738134
0.738108
0.738005
0.737775
0.737581
0.737464
0.737291
0.73695
0.736624
0.736459
0.736327
0.736116
0.735885
0.735711
0.735514
0.735185
0.73469
0.734142
0.733694
0.733315
0.732905
0.732475
0.732039
0.731531
0.730901
0.730132
0.729404
0.728992
0.728642
0.728301
0.728007
0.727617
0.727499
0.727464
0.727433
0.727173
0.726978
0.72698
0.726806
0.726261
0.725483
0.724671
0.724065
0.723601
0.723085
0.72276
0.722409
0.721839
0.721071
0.720395