/*--------------------------------*- C++ -*----------------------------------*\
  =========                 |
  \\      /  F ield         | OpenFOAM: The Open Source CFD Toolbox
   \\    /   O peration     | Website:  https://openfoam.org
    \\  /    A nd           | Version:  7
     \\/     M anipulation  |
\*---------------------------------------------------------------------------*/
FoamFile
{
    version     2.0;
    format      ascii;
    class       volScalarField;
    location    "6";
    object      p;
}
// * * * * * * * * * * * * * * * * * * * * * * * * * * * * * * * * * * * * * //

dimensions      [1 -1 -2 0 0 0 0];

internalField   nonuniform List<scalar> 
90000
(
0.643943
0.661966
0.681633
0.701178
0.720458
0.739189
0.757707
0.775644
0.79349
0.810671
0.827838
0.844246
0.860658
0.876165
0.89172
0.906078
0.920599
0.933519
0.946769
0.957918
0.96936
0.978865
0.987078
0.995478
1.0013
1.0045
1.0098
1.01109
1.0107
1.00955
1.0079
1.0041
1.00094
0.995591
0.989331
0.987646
0.988409
0.9901
0.992265
0.994591
0.997762
1.00021
1.00166
1.00202
1.00123
0.999408
0.996833
0.994756
0.993128
0.991982
0.99206
0.992862
0.995049
0.99785
1.00001
0.999731
0.998783
0.99736
0.996107
0.99564
0.995956
0.996746
0.997885
0.999189
0.998973
0.998176
0.997483
0.997568
0.998163
0.999045
0.999533
0.999003
0.9982
0.997925
0.998238
0.998757
0.998804
0.998731
0.998559
0.998506
0.998514
0.998511
0.998541
0.998701
0.998888
0.998715
0.99854
0.998475
0.998506
0.998643
0.999014
0.999561
0.999687
0.999495
0.999249
0.999124
0.999091
0.999192
0.999157
0.999
0.629844
0.630919
0.632954
0.63608
0.640282
0.645684
0.652134
0.659859
0.668555
0.678611
0.689536
0.70185
0.714877
0.729192
0.744061
0.759991
0.776229
0.793272
0.810173
0.827691
0.844586
0.861546
0.878233
0.893224
0.909204
0.92206
0.935402
0.945853
0.956115
0.963231
0.970124
0.97362
0.979097
0.986049
0.993686
0.998042
1.00225
1.00411
1.00508
1.00486
1.00359
1.00278
1.00146
0.998364
0.994778
0.994126
0.99405
0.993846
0.994211
0.995413
0.996967
0.998222
0.998745
0.998353
0.997809
0.996911
0.996413
0.995949
0.996052
0.996896
0.998106
0.99846
0.998343
0.998054
0.997671
0.997307
0.997806
0.998648
0.99913
0.999103
0.998861
0.998273
0.998123
0.998316
0.998721
0.998634
0.998442
0.998538
0.998626
0.998656
0.998547
0.998514
0.998606
0.998811
0.998764
0.998576
0.99851
0.998514
0.998573
0.998744
0.999164
0.999484
0.999458
0.999341
0.999221
0.999149
0.99915
0.999229
0.999094
0.998946
0.62939
0.629396
0.629405
0.629424
0.62947
0.62958
0.629773
0.630101
0.63061
0.631363
0.632412
0.633891
0.635863
0.638551
0.64199
0.646559
0.65213
0.659349
0.667859
0.678618
0.690879
0.705809
0.722283
0.741591
0.762206
0.785447
0.809373
0.834792
0.860702
0.885869
0.911449
0.934445
0.955551
0.969994
0.981164
0.987136
0.991396
0.993174
0.995165
0.99558
0.99577
0.99406
0.99029
0.987544
0.988795
0.990915
0.993968
0.99788
1.00098
1.00265
1.00218
1.00043
0.997997
0.994874
0.993349
0.992886
0.993439
0.995846
0.998665
0.999831
0.999482
0.998031
0.996686
0.995487
0.996216
0.998072
0.999675
0.999615
0.998752
0.997851
0.997371
0.998129
0.99899
0.99901
0.99867
0.998324
0.998436
0.998715
0.998749
0.998594
0.998455
0.998552
0.998673
0.998691
0.998668
0.998632
0.998603
0.998576
0.998602
0.998774
0.999051
0.999362
0.999564
0.999496
0.999338
0.999247
0.999193
0.999182
0.999118
0.998978
0.629306
0.629295
0.629281
0.629267
0.629254
0.629237
0.62922
0.62921
0.629214
0.629222
0.629233
0.629249
0.629268
0.629304
0.629369
0.629537
0.629813
0.630263
0.63092
0.631904
0.633311
0.635426
0.638347
0.64266
0.648343
0.656477
0.666596
0.680547
0.696918
0.718158
0.741603
0.76999
0.799785
0.830467
0.861186
0.887298
0.912365
0.929519
0.947311
0.956332
0.965882
0.970625
0.975808
0.982092
0.991484
0.998061
1.00323
1.00568
1.00575
1.00511
1.00327
0.999619
0.99665
0.992996
0.992239
0.993867
0.996693
0.999305
1.00049
0.999979
0.998162
0.996356
0.995446
0.996568
0.998204
0.999581
0.999772
0.998944
0.997796
0.997178
0.997946
0.998949
0.999489
0.999083
0.998418
0.998305
0.998464
0.998601
0.998541
0.998464
0.998542
0.998739
0.998755
0.998711
0.998604
0.99857
0.998563
0.998574
0.998682
0.998944
0.999151
0.999403
0.999461
0.999339
0.999224
0.999161
0.99916
0.999182
0.999121
0.99902
0.629246
0.629245
0.629243
0.629242
0.629239
0.629236
0.629228
0.629214
0.629185
0.629158
0.629133
0.629112
0.629101
0.629093
0.629106
0.62908
0.629061
0.62906
0.629063
0.629073
0.629094
0.629128
0.629178
0.629293
0.62949
0.62994
0.630698
0.632004
0.634038
0.637469
0.642463
0.650573
0.661529
0.678206
0.698645
0.726608
0.757421
0.793476
0.830314
0.866071
0.900686
0.928411
0.955851
0.972384
0.983407
0.988918
0.994213
0.996917
0.998034
0.995692
0.990608
0.99019
0.991902
0.995333
0.998616
1.00112
1.00107
0.99949
0.997479
0.99583
0.995319
0.995915
0.997858
0.999848
0.999812
0.998979
0.997817
0.996992
0.997213
0.997957
0.998873
0.998855
0.998675
0.998472
0.998566
0.998669
0.998695
0.998539
0.998461
0.998553
0.998714
0.998772
0.998688
0.998512
0.998461
0.998563
0.998654
0.998706
0.998835
0.999055
0.99913
0.999196
0.999279
0.999308
0.999331
0.999282
0.999203
0.999152
0.999053
0.998972
0.6292
0.629197
0.629193
0.629191
0.629188
0.629185
0.629182
0.629178
0.629173
0.629165
0.629156
0.629146
0.629136
0.629126
0.629112
0.6291
0.629083
0.629053
0.629021
0.628999
0.628984
0.62898
0.628985
0.628997
0.629056
0.629045
0.629028
0.629016
0.62902
0.629065
0.629187
0.629462
0.630075
0.631387
0.633751
0.638353
0.645569
0.658283
0.675422
0.701575
0.73194
0.770438
0.810963
0.850259
0.887551
0.913226
0.938131
0.950233
0.963883
0.96998
0.979317
0.988501
0.998156
1.00423
1.00618
1.00557
1.00324
0.998757
0.992895
0.992801
0.99418
0.997313
1.00119
1.00139
1.0005
0.998666
0.99622
0.996287
0.997349
0.998667
0.999533
0.99918
0.998486
0.998142
0.998457
0.998729
0.998714
0.998419
0.998305
0.998533
0.998848
0.998898
0.998726
0.998502
0.998458
0.998541
0.998597
0.998729
0.999023
0.999153
0.999161
0.99908
0.999091
0.999204
0.999319
0.999333
0.999254
0.999134
0.999045
0.999018
0.629161
0.629155
0.629149
0.629143
0.629138
0.629133
0.629129
0.629123
0.629118
0.629112
0.629106
0.629099
0.629094
0.629088
0.629082
0.629076
0.629067
0.629059
0.629052
0.629044
0.629037
0.629026
0.629012
0.628998
0.628982
0.628962
0.628944
0.628932
0.628924
0.628924
0.628936
0.629016
0.628985
0.628961
0.628966
0.629045
0.629245
0.629808
0.631082
0.634088
0.639479
0.650243
0.666031
0.69242
0.724717
0.767466
0.812044
0.856688
0.899695
0.933439
0.965584
0.980758
0.990906
0.996381
0.999931
0.997758
0.991433
0.989872
0.991607
0.995375
0.999085
1.0014
1.00139
0.999628
0.996594
0.995662
0.995858
0.997432
0.999118
0.998973
0.998571
0.997905
0.998068
0.998663
0.999017
0.998835
0.998464
0.998311
0.998508
0.998763
0.998765
0.998672
0.998553
0.998529
0.998488
0.998554
0.998676
0.998843
0.999148
0.999198
0.999151
0.998959
0.999
0.999137
0.999349
0.999353
0.99926
0.999072
0.998973
0.998996
0.629134
0.629128
0.629121
0.629114
0.629107
0.629099
0.629092
0.629085
0.629078
0.629071
0.629064
0.629057
0.62905
0.629042
0.629034
0.629026
0.629019
0.629011
0.629004
0.628997
0.62899
0.628982
0.628975
0.628967
0.628957
0.628948
0.62894
0.62893
0.628922
0.628911
0.6289
0.628883
0.62888
0.628879
0.62889
0.628911
0.628962
0.628932
0.628892
0.628907
0.629005
0.629327
0.630317
0.632962
0.638184
0.649601
0.667114
0.697473
0.734124
0.78212
0.83119
0.874624
0.915753
0.936636
0.959647
0.96773
0.97861
0.988908
0.999475
1.00555
1.00516
1.00382
0.998333
0.99307
0.993396
0.994872
0.997726
1.00076
1.00053
0.999321
0.997015
0.996977
0.997782
0.998963
0.999189
0.998798
0.998154
0.998234
0.998686
0.999066
0.998866
0.998508
0.998443
0.998539
0.998542
0.998533
0.998661
0.999029
0.99928
0.999242
0.999057
0.998835
0.998883
0.99906
0.999308
0.999412
0.999322
0.999117
0.998999
0.998981
0.629104
0.629097
0.629092
0.629085
0.629075
0.629066
0.629058
0.62905
0.629042
0.629034
0.629026
0.629017
0.629007
0.628998
0.628987
0.628976
0.628967
0.628958
0.628949
0.628941
0.628931
0.628919
0.628909
0.628901
0.628892
0.628884
0.628877
0.628871
0.628865
0.62886
0.628856
0.628852
0.628851
0.628846
0.628848
0.628857
0.628853
0.62885
0.628851
0.628863
0.62889
0.628931
0.628884
0.628887
0.628976
0.629391
0.630575
0.633985
0.640841
0.656174
0.679186
0.718506
0.764963
0.819828
0.874374
0.918617
0.961973
0.981224
0.992964
0.99906
0.999367
0.993756
0.988194
0.990128
0.995202
0.999501
1.00108
1.00079
0.998899
0.996215
0.996171
0.997257
0.999027
0.999094
0.998676
0.997936
0.998005
0.998666
0.999023
0.998867
0.998617
0.998399
0.998478
0.998591
0.998653
0.998636
0.998784
0.999116
0.999277
0.999218
0.999024
0.998828
0.998847
0.998994
0.999224
0.999323
0.999271
0.999074
0.999022
0.999028
0.629104
0.629097
0.62909
0.629081
0.629067
0.629057
0.629051
0.629043
0.629033
0.629024
0.629015
0.629003
0.628991
0.62898
0.628965
0.628948
0.628935
0.628925
0.628914
0.628903
0.628889
0.628875
0.628863
0.628849
0.628835
0.628825
0.628816
0.628811
0.628807
0.628803
0.628803
0.628806
0.62881
0.628814
0.628818
0.628824
0.628825
0.628828
0.628836
0.628849
0.628865
0.628894
0.628932
0.628954
0.628994
0.628966
0.628957
0.628999
0.629194
0.629994
0.632116
0.638078
0.649645
0.674779
0.709601
0.762272
0.819267
0.871487
0.919263
0.942629
0.96402
0.9719
0.987342
0.996789
1.0042
1.00394
1.00257
0.99774
0.993644
0.994156
0.996503
0.999848
0.999906
0.99899
0.997149
0.997281
0.998319
0.999499
0.999369
0.998811
0.998228
0.998305
0.998572
0.998595
0.998618
0.998714
0.999054
0.99928
0.999256
0.999087
0.998914
0.998803
0.998844
0.998987
0.999172
0.999303
0.999194
0.999022
0.999031
0.999095
0.629118
0.629111
0.629105
0.629097
0.629088
0.629081
0.629074
0.629065
0.629057
0.629048
0.629038
0.629027
0.629014
0.628999
0.628982
0.628965
0.62895
0.628936
0.628925
0.628912
0.628897
0.628883
0.628869
0.62885
0.628829
0.628818
0.62881
0.628804
0.628799
0.628795
0.628793
0.628796
0.628802
0.628811
0.628823
0.628837
0.628855
0.628878
0.628907
0.628939
0.628972
0.629014
0.629065
0.629088
0.629092
0.629099
0.629102
0.629113
0.62912
0.629075
0.629093
0.629259
0.629832
0.631852
0.636826
0.650199
0.673191
0.716578
0.770781
0.832982
0.894985
0.941737
0.979114
0.989735
0.999127
0.998042
0.99235
0.990407
0.99311
0.997446
1.00089
1.00079
0.998933
0.996056
0.996185
0.997754
0.999504
0.999514
0.998748
0.997985
0.998121
0.998594
0.998729
0.998608
0.998615
0.998871
0.999299
0.999292
0.999181
0.998981
0.998856
0.998822
0.998873
0.998986
0.999075
0.999165
0.999112
0.999003
0.999029
0.999106
0.629119
0.629118
0.629114
0.629109
0.629104
0.629097
0.629089
0.629082
0.629073
0.629064
0.629054
0.629042
0.629028
0.629013
0.628996
0.62898
0.628966
0.628953
0.628941
0.628929
0.628917
0.628904
0.62889
0.628874
0.628858
0.628844
0.628833
0.628825
0.628822
0.628822
0.628826
0.628834
0.628846
0.628864
0.628887
0.628914
0.628947
0.628987
0.629031
0.629076
0.629123
0.629174
0.629225
0.629258
0.629265
0.629266
0.629259
0.629233
0.629185
0.62913
0.629072
0.629028
0.629019
0.629055
0.629207
0.629852
0.631853
0.638364
0.652321
0.684223
0.729757
0.793127
0.860775
0.905075
0.950107
0.96116
0.975958
0.987317
1.00105
1.00412
1.00315
0.998758
0.993772
0.994313
0.99698
1.00047
1.00022
0.998745
0.99723
0.997561
0.998713
0.998916
0.998675
0.998468
0.998686
0.999301
0.999486
0.999309
0.998917
0.998802
0.998836
0.998878
0.998974
0.999013
0.999002
0.998983
0.999016
0.999017
0.999095
0.999119
0.629105
0.629102
0.629099
0.629094
0.629086
0.629076
0.629068
0.629061
0.629053
0.629045
0.629036
0.629026
0.629016
0.629007
0.628995
0.628986
0.628977
0.628967
0.628957
0.628948
0.62894
0.628931
0.628921
0.628912
0.628904
0.628896
0.628886
0.628887
0.628896
0.628903
0.62891
0.62892
0.628938
0.628966
0.628999
0.629033
0.629069
0.629109
0.629148
0.62919
0.629234
0.629279
0.629324
0.629367
0.629396
0.629405
0.629402
0.629378
0.62932
0.629232
0.629124
0.629018
0.628973
0.628964
0.628963
0.628978
0.629047
0.629321
0.630174
0.633368
0.641254
0.663634
0.700151
0.76242
0.832919
0.895251
0.957105
0.979034
0.995164
0.997766
0.99364
0.989272
0.992171
0.997457
1.00159
1.00127
0.998489
0.996283
0.996658
0.998551
0.999407
0.998997
0.998218
0.998364
0.9992
0.999599
0.999427
0.998929
0.99874
0.99876
0.998838
0.998926
0.999033
0.999007
0.998917
0.998823
0.9989
0.999032
0.99917
0.999145
0.629038
0.629041
0.629043
0.629046
0.629048
0.629049
0.62905
0.629052
0.629056
0.629059
0.629062
0.629065
0.629067
0.629071
0.629074
0.629077
0.629078
0.629078
0.629077
0.629074
0.62907
0.629067
0.629063
0.62906
0.629057
0.62905
0.629044
0.629051
0.629064
0.629069
0.629066
0.629065
0.629075
0.629095
0.629114
0.629132
0.629154
0.62918
0.629208
0.629244
0.629286
0.62933
0.629371
0.629406
0.629441
0.629478
0.629496
0.629489
0.629455
0.629386
0.629284
0.629148
0.629009
0.628932
0.628921
0.628932
0.62896
0.629018
0.62914
0.629328
0.62969
0.631147
0.635643
0.651153
0.680133
0.738439
0.808547
0.871758
0.932003
0.951624
0.969513
0.982332
1.00016
1.00463
1.00361
0.998326
0.994036
0.994989
0.998223
1.00014
0.999329
0.997948
0.998031
0.999042
0.999985
0.999744
0.998915
0.998647
0.998689
0.998798
0.99889
0.999019
0.999062
0.998983
0.998778
0.998698
0.998808
0.999035
0.9992
0.999172
0.629023
0.629034
0.629045
0.629057
0.629069
0.629082
0.629094
0.629107
0.629121
0.629136
0.629152
0.62917
0.629187
0.629204
0.62922
0.629237
0.629253
0.629268
0.62928
0.629292
0.629304
0.629311
0.629314
0.629315
0.629314
0.62931
0.629303
0.629294
0.629286
0.629277
0.629258
0.629232
0.629213
0.6292
0.629186
0.629174
0.629171
0.629175
0.629186
0.629203
0.629229
0.629263
0.629308
0.629367
0.629431
0.629492
0.629536
0.629551
0.629543
0.629517
0.629465
0.629369
0.629225
0.629068
0.628961
0.628936
0.628935
0.62896
0.629028
0.62919
0.629315
0.629318
0.629396
0.630066
0.632717
0.643937
0.66793
0.722402
0.791926
0.865344
0.940518
0.972104
0.992779
0.997649
0.992637
0.989654
0.993784
0.999392
1.0011
0.999809
0.996752
0.996934
0.998723
1.00022
1.00001
0.998939
0.998464
0.998609
0.998794
0.998835
0.998899
0.999064
0.999064
0.998897
0.99865
0.998668
0.998785
0.999006
0.999195
0.999172
0.629034
0.629048
0.629064
0.629081
0.629096
0.629113
0.629131
0.629151
0.629173
0.629197
0.629219
0.629241
0.629265
0.629291
0.629316
0.629342
0.629368
0.629394
0.629419
0.629443
0.629465
0.629488
0.629507
0.629513
0.629514
0.629514
0.62951
0.629497
0.629478
0.629452
0.629419
0.629381
0.629339
0.629294
0.629246
0.6292
0.629162
0.629134
0.629117
0.629111
0.629116
0.629128
0.629149
0.629184
0.629239
0.629316
0.629411
0.629509
0.629572
0.629598
0.629591
0.629552
0.629461
0.629314
0.629137
0.629003
0.628942
0.628932
0.628942
0.629015
0.62918
0.629263
0.629297
0.629251
0.629153
0.629463
0.631266
0.640097
0.660959
0.712358
0.781834
0.854901
0.921731
0.948237
0.968162
0.984091
1.00343
1.00502
1.00223
0.995073
0.995219
0.997588
1.0011
1.00082
0.998899
0.998066
0.998362
0.998958
0.998935
0.998862
0.998953
0.999114
0.999015
0.998803
0.998593
0.998645
0.998793
0.998976
0.999154
0.999125
0.629064
0.629079
0.629091
0.629103
0.629119
0.629138
0.629156
0.629174
0.629193
0.629213
0.629233
0.629254
0.629277
0.629302
0.629328
0.629354
0.629381
0.629408
0.629434
0.629459
0.629484
0.62951
0.629535
0.629559
0.629579
0.629589
0.62959
0.629586
0.629576
0.629557
0.62953
0.629495
0.629448
0.629391
0.629324
0.629254
0.629183
0.629118
0.629067
0.629036
0.629025
0.629027
0.629036
0.629053
0.629084
0.62914
0.629226
0.629348
0.629489
0.629598
0.629641
0.629638
0.629607
0.629522
0.629366
0.629161
0.628979
0.628889
0.62887
0.628883
0.628967
0.629145
0.629277
0.629294
0.629282
0.629136
0.629009
0.629251
0.630758
0.638393
0.657699
0.708098
0.777115
0.85735
0.937991
0.973599
0.996432
0.997828
0.988477
0.990551
0.996782
1.0019
1.00164
0.999069
0.996909
0.997601
0.999032
0.999052
0.998867
0.998848
0.999119
0.999122
0.998901
0.998576
0.998578
0.998692
0.99882
0.998928
0.999095
0.999055
0.629098
0.629104
0.629112
0.629119
0.629126
0.629134
0.629144
0.629155
0.629167
0.629179
0.629193
0.629208
0.629225
0.629243
0.629264
0.629286
0.62931
0.629335
0.629359
0.629385
0.629413
0.629442
0.629473
0.629507
0.629538
0.629559
0.629571
0.629576
0.629575
0.629569
0.629557
0.629536
0.629505
0.629464
0.629413
0.62935
0.629275
0.629194
0.629113
0.629039
0.628982
0.628962
0.628963
0.628971
0.628986
0.629012
0.629061
0.629153
0.629299
0.629473
0.629603
0.629643
0.629637
0.629604
0.629512
0.62934
0.629104
0.62889
0.628808
0.628801
0.628825
0.628943
0.629173
0.629362
0.629404
0.629382
0.629255
0.629078
0.629071
0.629322
0.63076
0.637809
0.656814
0.70696
0.779744
0.858656
0.924676
0.954125
0.971234
0.994724
1.005
1.00415
0.998289
0.995098
0.996614
0.999587
0.999664
0.998974
0.998551
0.998927
0.999367
0.999133
0.998458
0.998463
0.998667
0.998823
0.998852
0.998893
0.998989
0.99896
0.629115
0.629113
0.629111
0.62911
0.629106
0.629099
0.629093
0.62909
0.629089
0.629088
0.629087
0.629086
0.629085
0.629086
0.629089
0.629095
0.629104
0.629118
0.629135
0.629157
0.629182
0.629212
0.629248
0.62929
0.629341
0.629398
0.629458
0.629509
0.629538
0.629551
0.629553
0.629546
0.629537
0.629529
0.629515
0.629489
0.629449
0.629394
0.629321
0.629228
0.62912
0.62902
0.628958
0.628938
0.628935
0.628936
0.628945
0.628981
0.629062
0.6292
0.629386
0.629547
0.629599
0.629587
0.629543
0.629446
0.629264
0.629005
0.628801
0.628754
0.628764
0.628835
0.629021
0.629309
0.629495
0.62952
0.629481
0.629316
0.629127
0.629112
0.629157
0.629486
0.63092
0.63781
0.658468
0.711518
0.786865
0.875484
0.950716
0.985591
0.999138
0.994197
0.987939
0.993454
1.00029
1.0007
0.999484
0.997561
0.998298
0.99959
0.999437
0.998439
0.998187
0.998544
0.998845
0.998832
0.998851
0.998879
0.998886
0.998811
0.62914
0.629123
0.629106
0.629091
0.629076
0.629063
0.629053
0.629043
0.629032
0.629022
0.629012
0.629001
0.628991
0.628983
0.628975
0.628966
0.628959
0.628959
0.628961
0.628969
0.628981
0.628996
0.629018
0.629049
0.629091
0.629147
0.629219
0.629308
0.629407
0.62949
0.629536
0.629557
0.629572
0.629593
0.629614
0.629625
0.629627
0.629622
0.629598
0.629548
0.629463
0.629342
0.629197
0.629054
0.628951
0.628902
0.628879
0.62887
0.628879
0.628921
0.62902
0.629185
0.629372
0.629495
0.629518
0.629501
0.629422
0.629248
0.628992
0.628793
0.62876
0.628799
0.628923
0.629159
0.629444
0.629558
0.629556
0.629471
0.629255
0.629124
0.629128
0.629203
0.629349
0.629654
0.631146
0.638596
0.662958
0.719412
0.803719
0.883852
0.938059
0.963886
0.982626
1.00407
1.0039
1.0008
0.995804
0.997037
1.00015
1.00008
0.998598
0.997766
0.9982
0.999011
0.998959
0.998812
0.998868
0.998879
0.998692
0.998668
0.629249
0.62922
0.629191
0.629161
0.629132
0.629105
0.629077
0.62905
0.629026
0.629006
0.628988
0.628973
0.628963
0.628955
0.628948
0.628939
0.628928
0.628926
0.62893
0.628939
0.628946
0.628955
0.628969
0.628986
0.629003
0.629025
0.62906
0.629111
0.629178
0.629259
0.629354
0.62946
0.629559
0.629626
0.62967
0.629703
0.629728
0.629741
0.629742
0.629735
0.6297
0.629623
0.629499
0.629331
0.62914
0.628973
0.628875
0.628825
0.628792
0.628781
0.628786
0.628835
0.628968
0.629191
0.62943
0.629555
0.62957
0.629519
0.629363
0.629112
0.628902
0.628856
0.628891
0.629005
0.629227
0.629468
0.629528
0.629496
0.62936
0.62918
0.629144
0.629191
0.629357
0.629487
0.629516
0.629743
0.631613
0.640546
0.671517
0.734433
0.821156
0.918575
0.970268
0.997649
0.996944
0.988793
0.993071
1.00057
1.00146
0.999573
0.996689
0.997406
0.999252
0.999182
0.998792
0.998756
0.998947
0.99885
0.99848
0.998551
0.629526
0.629503
0.629477
0.629448
0.629417
0.629384
0.62935
0.629315
0.629279
0.629241
0.629203
0.629164
0.629128
0.629096
0.629067
0.629039
0.629011
0.628985
0.628969
0.628964
0.628966
0.628969
0.628975
0.628986
0.628992
0.628989
0.628989
0.628996
0.629009
0.629032
0.629072
0.629136
0.629225
0.62934
0.62947
0.629594
0.629692
0.629754
0.629777
0.629772
0.629746
0.629693
0.629615
0.629515
0.629382
0.629218
0.629042
0.628888
0.628786
0.628748
0.628734
0.628733
0.628776
0.62893
0.629213
0.629526
0.629687
0.629696
0.629643
0.629502
0.629273
0.629033
0.628935
0.628939
0.629007
0.629194
0.629406
0.629459
0.629427
0.629314
0.629239
0.62926
0.629362
0.629513
0.629563
0.629509
0.629484
0.629782
0.632629
0.644244
0.683565
0.756264
0.845961
0.923724
0.955031
0.975274
1.00218
1.00461
1.0012
0.994912
0.996024
0.999464
1.00003
0.999048
0.998502
0.998875
0.99913
0.998766
0.998287
0.998568
0.629841
0.629832
0.629821
0.629808
0.629792
0.629776
0.629759
0.629739
0.629718
0.629696
0.629671
0.629642
0.629605
0.629566
0.629524
0.629475
0.62942
0.629364
0.629305
0.629245
0.62919
0.629141
0.629093
0.62904
0.628991
0.628958
0.628933
0.628902
0.628863
0.628826
0.62881
0.628808
0.628816
0.62886
0.628949
0.629076
0.629226
0.629366
0.62948
0.629572
0.629621
0.629609
0.629575
0.629552
0.629541
0.629507
0.629424
0.629286
0.629094
0.628897
0.628784
0.628753
0.628769
0.628869
0.629068
0.629344
0.629635
0.629751
0.629727
0.629661
0.629539
0.629315
0.629045
0.628934
0.628932
0.628999
0.629211
0.629438
0.629494
0.629483
0.629423
0.629402
0.629426
0.629498
0.629536
0.629499
0.629393
0.629317
0.629375
0.629999
0.634316
0.651374
0.702536
0.7836
0.884972
0.957652
0.994394
0.997181
0.987012
0.991131
0.999549
1.00146
0.99981
0.997468
0.99824
0.999359
0.9991
0.99807
0.998103
0.998815
0.629925
0.62991
0.629902
0.629899
0.629897
0.629896
0.629895
0.629898
0.629895
0.629888
0.629882
0.629873
0.629862
0.629852
0.629834
0.629798
0.629761
0.629728
0.629687
0.629626
0.629551
0.629466
0.629363
0.629245
0.629128
0.629019
0.628922
0.628842
0.628771
0.62871
0.628671
0.628642
0.628613
0.628607
0.628625
0.628666
0.628728
0.62882
0.628935
0.629061
0.629193
0.629321
0.629424
0.62953
0.629678
0.629779
0.629809
0.629803
0.629702
0.629492
0.629265
0.629073
0.628952
0.62895
0.62902
0.62914
0.629333
0.62957
0.629676
0.629659
0.6296
0.629488
0.629261
0.629011
0.628948
0.628975
0.629142
0.629431
0.629588
0.629603
0.629587
0.629517
0.629464
0.629432
0.629407
0.629365
0.629313
0.629277
0.629273
0.629296
0.629442
0.630642
0.63735
0.663654
0.727227
0.82039
0.903739
0.950093
0.970717
0.999984
1.00452
1.00123
0.995621
0.997017
0.999966
0.999821
0.998143
0.997681
0.998298
0.999267
0.62969
0.6297
0.629708
0.629712
0.629714
0.629717
0.629726
0.629752
0.629777
0.629778
0.629775
0.62978
0.629779
0.629772
0.629774
0.629768
0.629763
0.629775
0.629774
0.629745
0.629694
0.629633
0.629554
0.629456
0.629349
0.629234
0.629111
0.628974
0.628826
0.628704
0.628646
0.628632
0.628623
0.628598
0.628579
0.628585
0.628591
0.628609
0.628655
0.628713
0.628789
0.628931
0.629155
0.629448
0.629784
0.629991
0.630056
0.630061
0.630006
0.629843
0.629656
0.629509
0.629339
0.629127
0.629034
0.629037
0.629064
0.629162
0.629338
0.629504
0.629565
0.629561
0.629485
0.629301
0.629148
0.62914
0.629228
0.62945
0.629622
0.629647
0.629635
0.62956
0.629439
0.629332
0.629271
0.629252
0.629262
0.629278
0.629319
0.62938
0.629506
0.629564
0.629852
0.632006
0.643306
0.683304
0.759057
0.864626
0.947474
0.992512
0.997169
0.987199
0.992058
1.00023
1.00096
0.998928
0.996583
0.997445
0.999359
0.999516
0.628751
0.628775
0.628809
0.628857
0.628916
0.628989
0.62908
0.629174
0.629257
0.629331
0.629395
0.62945
0.629498
0.629547
0.629616
0.629684
0.6297
0.629696
0.629702
0.629716
0.629717
0.629704
0.629674
0.629633
0.629589
0.629531
0.629457
0.629386
0.629319
0.629249
0.629228
0.629234
0.629229
0.629199
0.629127
0.629008
0.628855
0.628717
0.628636
0.628606
0.628611
0.628706
0.628909
0.629244
0.629672
0.629963
0.630082
0.630089
0.630002
0.629795
0.629662
0.629623
0.629566
0.629368
0.629087
0.628996
0.62898
0.628978
0.62906
0.629265
0.629471
0.629604
0.629657
0.629626
0.629508
0.62945
0.629464
0.629524
0.629594
0.629602
0.629582
0.62951
0.629379
0.629271
0.629232
0.629235
0.629269
0.629363
0.629471
0.62952
0.62957
0.629581
0.62952
0.6295
0.630027
0.634277
0.654673
0.709883
0.804588
0.897529
0.946066
0.97011
1.00095
1.0036
1.00046
0.995109
0.996383
0.999614
1.00008
0.999488
0.628119
0.628135
0.62818
0.628248
0.628323
0.628428
0.628571
0.628658
0.628735
0.62883
0.628917
0.629021
0.629122
0.629212
0.629322
0.629432
0.629575
0.629667
0.629687
0.629707
0.629773
0.629843
0.629854
0.629858
0.629859
0.629842
0.629812
0.629827
0.629869
0.629881
0.629936
0.630058
0.630093
0.630081
0.630008
0.629861
0.62966
0.629428
0.629204
0.629
0.628824
0.628772
0.628846
0.629087
0.629363
0.62953
0.629637
0.629661
0.629563
0.629449
0.629477
0.629565
0.629592
0.629526
0.629312
0.629127
0.629073
0.629036
0.629045
0.62917
0.629416
0.629666
0.629771
0.62975
0.629665
0.629629
0.629598
0.629546
0.629443
0.629374
0.629336
0.629296
0.629278
0.629253
0.629262
0.629303
0.629413
0.629556
0.629599
0.629595
0.629586
0.62952
0.629361
0.629168
0.629145
0.629304
0.630897
0.639563
0.675778
0.748627
0.856439
0.946218
0.99275
0.996146
0.987182
0.991661
0.999589
1.00122
1.00008
0.998821
0.628081
0.628095
0.628147
0.628234
0.628332
0.628444
0.628557
0.628644
0.628744
0.6288
0.628829
0.628929
0.629038
0.629114
0.629207
0.629345
0.629503
0.629632
0.629748
0.629854
0.629951
0.630003
0.630019
0.630023
0.63002
0.630001
0.629997
0.630033
0.630041
0.630049
0.630141
0.630286
0.63033
0.630307
0.630225
0.630091
0.629909
0.629713
0.629535
0.629358
0.629143
0.62895
0.628955
0.629091
0.629225
0.629204
0.629111
0.629025
0.628938
0.628924
0.629051
0.629335
0.629546
0.629634
0.629639
0.62959
0.629576
0.629556
0.629499
0.629445
0.629484
0.629658
0.629759
0.629715
0.629645
0.62963
0.6296
0.629477
0.629314
0.629219
0.629206
0.629204
0.629228
0.629329
0.629455
0.629566
0.629671
0.629677
0.629656
0.629609
0.629494
0.6293
0.629168
0.629064
0.629071
0.62914
0.629302
0.629862
0.633514
0.651308
0.705916
0.80185
0.894344
0.947343
0.972074
1.00047
1.00349
1.00084
0.997663
0.998754
0.629164
0.629164
0.629185
0.629213
0.629244
0.629306
0.629349
0.629353
0.629355
0.629338
0.629289
0.629294
0.629323
0.629314
0.629306
0.629351
0.62948
0.629634
0.629757
0.629772
0.62972
0.629657
0.62959
0.629547
0.629537
0.629525
0.629527
0.629578
0.629607
0.629645
0.629739
0.629834
0.629901
0.629916
0.629878
0.629806
0.629738
0.629673
0.629557
0.629398
0.629287
0.629241
0.629293
0.629324
0.629307
0.629206
0.628973
0.628798
0.628735
0.628773
0.628977
0.629297
0.629561
0.629727
0.629812
0.629904
0.629992
0.629979
0.629889
0.62975
0.629671
0.629654
0.629589
0.629418
0.629342
0.629351
0.629383
0.629366
0.629289
0.629222
0.629223
0.629255
0.629352
0.629505
0.629654
0.629764
0.629766
0.629721
0.629561
0.629356
0.629199
0.629116
0.629096
0.629099
0.629179
0.629397
0.629559
0.62961
0.629736
0.630862
0.638975
0.673868
0.749158
0.863982
0.947494
0.996099
0.995161
0.990635
0.995365
1.00005
0.629675
0.629674
0.629638
0.629628
0.629623
0.629598
0.629576
0.62957
0.629574
0.62957
0.629509
0.629471
0.629455
0.629389
0.629328
0.629278
0.629159
0.629092
0.629116
0.629107
0.628964
0.628859
0.628788
0.628694
0.628614
0.628613
0.628619
0.628605
0.628661
0.628779
0.628735
0.628559
0.628498
0.628496
0.628581
0.628737
0.628828
0.628949
0.629102
0.629197
0.62934
0.62964
0.629885
0.629928
0.629927
0.629862
0.629656
0.629391
0.62919
0.62917
0.629292
0.62945
0.629578
0.629685
0.629796
0.629943
0.630054
0.630043
0.629979
0.629907
0.6298
0.629608
0.629325
0.629048
0.629005
0.62905
0.629198
0.629317
0.629424
0.629533
0.629597
0.629636
0.629637
0.629649
0.62974
0.629793
0.629752
0.629562
0.629227
0.629009
0.628978
0.629031
0.629116
0.629288
0.629499
0.62967
0.629677
0.629626
0.629421
0.629248
0.629629
0.633117
0.652701
0.709608
0.806468
0.915204
0.947304
0.978853
1.00133
1.00053
0.629739
0.629739
0.629739
0.629719
0.629682
0.629654
0.62961
0.629539
0.629431
0.629299
0.629118
0.628953
0.628883
0.628793
0.628706
0.628651
0.628579
0.628551
0.628568
0.628547
0.628391
0.628253
0.628167
0.628119
0.628099
0.628057
0.628003
0.628052
0.628188
0.628251
0.628169
0.627891
0.627779
0.627758
0.627776
0.627912
0.628177
0.628556
0.628964
0.629297
0.629638
0.629991
0.630127
0.630125
0.630118
0.630072
0.6299
0.629741
0.629716
0.629721
0.629705
0.629631
0.62961
0.629612
0.629652
0.62964
0.629494
0.629354
0.629356
0.629454
0.629505
0.629434
0.629158
0.629
0.629012
0.629114
0.629271
0.629458
0.629719
0.629961
0.629995
0.629965
0.629831
0.629697
0.629631
0.629581
0.629464
0.629239
0.62897
0.628907
0.628957
0.629137
0.629468
0.62968
0.629753
0.629754
0.629679
0.629454
0.629155
0.629043
0.629067
0.629254
0.630889
0.640002
0.680547
0.762791
0.875562
0.961437
0.993211
0.992722
0.628781
0.628886
0.628974
0.629004
0.629006
0.629003
0.628979
0.628979
0.628984
0.628978
0.628903
0.628605
0.628416
0.628404
0.628372
0.628372
0.628441
0.628503
0.62853
0.628584
0.628609
0.628619
0.628633
0.62867
0.628786
0.628939
0.629064
0.629212
0.629415
0.629591
0.629665
0.629569
0.629265
0.628872
0.628605
0.628593
0.628735
0.629024
0.629553
0.629954
0.629987
0.629961
0.629874
0.629773
0.629712
0.629709
0.629687
0.62958
0.629556
0.62957
0.629513
0.629402
0.629371
0.629341
0.629216
0.628885
0.628425
0.628238
0.628292
0.62858
0.628979
0.629188
0.629297
0.629319
0.629316
0.629387
0.62956
0.62971
0.629885
0.630064
0.630085
0.63003
0.629802
0.629419
0.629169
0.629105
0.629063
0.628998
0.628931
0.628982
0.629207
0.629601
0.629857
0.629848
0.629814
0.629664
0.629393
0.629104
0.629014
0.629034
0.629191
0.629539
0.629629
0.630069
0.634408
0.656375
0.727661
0.826517
0.913397
0.969805
0.62985
0.630013
0.630129
0.630206
0.630294
0.630403
0.630427
0.630394
0.630385
0.630401
0.630361
0.630126
0.629905
0.629897
0.63005
0.630104
0.630079
0.630255
0.630688
0.631123
0.631303
0.631364
0.631386
0.631418
0.63155
0.631774
0.63193
0.632004
0.632092
0.632256
0.632296
0.63213
0.631693
0.631144
0.630588
0.630393
0.630528
0.630606
0.630546
0.630453
0.630202
0.629628
0.628885
0.628524
0.628518
0.628577
0.628659
0.628788
0.629055
0.629248
0.629192
0.629045
0.629058
0.629121
0.628987
0.628501
0.628013
0.62793
0.628029
0.628391
0.628949
0.629472
0.62974
0.629892
0.630009
0.630096
0.630081
0.629948
0.629747
0.629622
0.629533
0.629375
0.629146
0.628886
0.628771
0.628788
0.628909
0.629027
0.629294
0.629595
0.629844
0.629961
0.629968
0.629891
0.629625
0.629286
0.629066
0.628981
0.629035
0.629279
0.62956
0.629788
0.629743
0.629487
0.629539
0.631288
0.644672
0.691069
0.785165
0.926064
0.635607
0.635183
0.63461
0.634158
0.633912
0.633884