/*--------------------------------*- C++ -*----------------------------------*\
  =========                 |
  \\      /  F ield         | OpenFOAM: The Open Source CFD Toolbox
   \\    /   O peration     | Website:  https://openfoam.org
    \\  /    A nd           | Version:  7
     \\/     M anipulation  |
\*---------------------------------------------------------------------------*/
FoamFile
{
    version     2.0;
    format      ascii;
    class       volVectorField;
    location    "7";
    object      U;
}
// * * * * * * * * * * * * * * * * * * * * * * * * * * * * * * * * * * * * * //

dimensions      [0 1 -1 0 0 0 0];

internalField   nonuniform List<vector> 
90000
(
(2.17166 -0.577865 0)
(2.13737 -0.510217 0)
(2.11881 -0.473659 0)
(2.09908 -0.423336 0)
(2.08413 -0.364894 0)
(2.07628 -0.320216 0)
(2.07411 -0.296517 0)
(2.06102 -0.242791 0)
(2.05989 -0.216014 0)
(2.05191 -0.176785 0)
(2.05044 -0.155474 0)
(2.04255 -0.118845 0)
(2.04175 -0.10379 0)
(2.03433 -0.0750642 0)
(2.03123 -0.0668388 0)
(2.025 -0.0488602 0)
(2.02157 -0.0467495 0)
(2.01825 -0.0396847 0)
(2.01785 -0.0421897 0)
(2.01463 -0.0376431 0)
(2.01282 -0.0338064 0)
(2.01245 -0.0332524 0)
(2.01224 -0.0326308 0)
(2.01137 -0.0323514 0)
(2.01095 -0.031552 0)
(2.01031 -0.0305715 0)
(2.00989 -0.0287984 0)
(2.00892 -0.0263662 0)
(2.00705 -0.0213846 0)
(2.00501 -0.0184235 0)
(2.00532 -0.0142347 0)
(2.00399 -0.0156611 0)
(2.00298 -0.0165307 0)
(2.00007 -0.0189859 0)
(1.99752 -0.0215931 0)
(1.99586 -0.0249679 0)
(1.99527 -0.027486 0)
(1.99482 -0.0286665 0)
(1.99522 -0.0300884 0)
(1.9959 -0.0297089 0)
(1.99765 -0.0282356 0)
(1.9997 -0.026202 0)
(2.00051 -0.0235933 0)
(2.00042 -0.0239603 0)
(1.99996 -0.0244032 0)
(1.99893 -0.0253521 0)
(1.99702 -0.0261377 0)
(1.99597 -0.028063 0)
(1.99615 -0.0280911 0)
(1.9969 -0.0276952 0)
(1.99782 -0.0260924 0)
(1.99922 -0.0246776 0)
(1.9978 -0.0238848 0)
(1.99709 -0.0244245 0)
(1.99606 -0.0257306 0)
(1.99489 -0.0275037 0)
(1.99513 -0.028878 0)
(1.9957 -0.0285109 0)
(1.99672 -0.0274121 0)
(1.99647 -0.0264266 0)
(1.99602 -0.0267938 0)
(1.99563 -0.0277898 0)
(1.99526 -0.0293526 0)
(1.99559 -0.029529 0)
(1.99661 -0.0283981 0)
(1.99677 -0.0283269 0)
(1.99649 -0.0285175 0)
(1.99606 -0.0288654 0)
(1.99615 -0.0295437 0)
(1.99633 -0.0296504 0)
(1.99685 -0.0298939 0)
(1.9968 -0.0301273 0)
(1.99697 -0.0307954 0)
(1.99717 -0.0311731 0)
(1.99755 -0.0312329 0)
(1.99797 -0.0314564 0)
(1.99811 -0.0316409 0)
(1.9983 -0.0321601 0)
(1.9985 -0.0324328 0)
(1.99876 -0.0326183 0)
(1.99918 -0.033007 0)
(1.99945 -0.0333072 0)
(1.99979 -0.0337291 0)
(1.99975 -0.034257 0)
(1.99999 -0.0348194 0)
(2.00013 -0.0354801 0)
(2.00032 -0.0357238 0)
(2.00029 -0.0358119 0)
(2.00017 -0.0357373 0)
(1.99985 -0.0359144 0)
(1.99895 -0.0362834 0)
(1.99685 -0.0368108 0)
(1.99448 -0.0374957 0)
(1.99246 -0.0388332 0)
(1.99161 -0.0396357 0)
(1.99144 -0.040696 0)
(1.99137 -0.0419006 0)
(1.99088 -0.0429235 0)
(1.99121 -0.0442033 0)
(1.9908 -0.04604 0)
(2.20277 -0.619572 0)
(2.20255 -0.619315 0)
(2.20202 -0.618677 0)
(2.20094 -0.617365 0)
(2.1992 -0.614771 0)
(2.19675 -0.610503 0)
(2.19325 -0.604681 0)
(2.18788 -0.594527 0)
(2.18172 -0.582185 0)
(2.17299 -0.562903 0)
(2.16349 -0.542127 0)
(2.15015 -0.508924 0)
(2.13814 -0.479556 0)
(2.11987 -0.43078 0)
(2.10671 -0.394803 0)
(2.084 -0.333525 0)
(2.07227 -0.296386 0)
(2.04707 -0.231148 0)
(2.04112 -0.199703 0)
(2.02159 -0.141896 0)
(2.02075 -0.11995 0)
(2.00583 -0.0773829 0)
(2.00618 -0.0636214 0)
(1.99568 -0.0365602 0)
(1.99622 -0.0274111 0)
(1.99053 -0.0117837 0)
(1.98974 -0.00619052 0)
(1.98944 0.00217377 0)
(1.98943 0.00189352 0)
(1.98945 0.00053777 0)
(1.98902 -0.00338957 0)
(1.98819 -0.0106593 0)
(1.98884 -0.018458 0)
(1.98931 -0.0245172 0)
(1.99077 -0.0263351 0)
(1.99121 -0.0288389 0)
(1.99196 -0.0291183 0)
(1.99248 -0.029345 0)
(1.99336 -0.0283536 0)
(1.99536 -0.025206 0)
(1.99586 -0.0211988 0)
(1.99502 -0.0195936 0)
(1.99406 -0.0197675 0)
(1.99291 -0.0212961 0)
(1.99129 -0.024683 0)
(1.98947 -0.0278164 0)
(1.98868 -0.0302865 0)
(1.98882 -0.030092 0)
(1.98939 -0.0290237 0)
(1.99075 -0.0260398 0)
(1.99079 -0.0251704 0)
(1.99202 -0.0241982 0)
(1.99178 -0.0244183 0)
(1.9904 -0.0265377 0)
(1.98904 -0.0288319 0)
(1.98893 -0.0296617 0)
(1.98938 -0.029332 0)
(1.99028 -0.0281429 0)
(1.99167 -0.026743 0)
(1.99172 -0.0267661 0)
(1.99121 -0.0280845 0)
(1.99056 -0.0300143 0)
(1.99065 -0.03031 0)
(1.99124 -0.0296844 0)
(1.99247 -0.0283008 0)
(1.99265 -0.0281282 0)
(1.99247 -0.0288125 0)
(1.99229 -0.0298343 0)
(1.99254 -0.030038 0)
(1.99299 -0.0296715 0)
(1.9938 -0.0298277 0)
(1.99393 -0.0304003 0)
(1.99409 -0.0312355 0)
(1.99445 -0.0313567 0)
(1.99498 -0.0311779 0)
(1.99579 -0.0314387 0)
(1.99599 -0.0318016 0)
(1.9962 -0.0322845 0)
(1.99655 -0.0324339 0)
(1.99692 -0.0326675 0)
(1.99739 -0.0330673 0)
(1.99769 -0.0333396 0)
(1.99802 -0.0337689 0)
(1.99792 -0.0343418 0)
(1.99808 -0.0348777 0)
(1.99823 -0.0354031 0)
(1.99856 -0.0355729 0)
(1.99871 -0.0357155 0)
(1.9986 -0.0356785 0)
(1.9982 -0.0358629 0)
(1.99713 -0.0362572 0)
(1.99492 -0.036864 0)
(1.99245 -0.0374866 0)
(1.99039 -0.0387699 0)
(1.98947 -0.0395739 0)
(1.98932 -0.0406627 0)
(1.9892 -0.0418455 0)
(1.98874 -0.0428735 0)
(1.98906 -0.0441403 0)
(1.98871 -0.0459532 0)
(2.20154 -0.61928 0)
(2.20146 -0.619256 0)
(2.2014 -0.619216 0)
(2.20134 -0.61917 0)
(2.20128 -0.619108 0)
(2.20121 -0.619035 0)
(2.20113 -0.618953 0)
(2.20103 -0.618842 0)
(2.20089 -0.618671 0)
(2.20065 -0.618431 0)
(2.20018 -0.618 0)
(2.19945 -0.617259 0)
(2.19841 -0.615814 0)
(2.19679 -0.613375 0)
(2.19434 -0.609018 0)
(2.1902 -0.601661 0)
(2.18428 -0.590092 0)
(2.17464 -0.571029 0)
(2.16301 -0.546615 0)
(2.14626 -0.508149 0)
(2.13084 -0.470469 0)
(2.10866 -0.411947 0)
(2.09409 -0.368743 0)
(2.06996 -0.299232 0)
(2.06028 -0.261521 0)
(2.03859 -0.195904 0)
(2.03324 -0.170669 0)
(2.01748 -0.120999 0)
(2.01477 -0.108728 0)
(2.00533 -0.0798239 0)
(2.00468 -0.076131 0)
(1.99656 -0.0624746 0)
(1.99554 -0.0536659 0)
(1.99178 -0.0461348 0)
(1.99243 -0.041975 0)
(1.99009 -0.0373448 0)
(1.98935 -0.0320314 0)
(1.98657 -0.0266582 0)
(1.98586 -0.0188471 0)
(1.98578 -0.0149146 0)
(1.98387 -0.0152191 0)
(1.98108 -0.0178786 0)
(1.97913 -0.0232173 0)
(1.97863 -0.0272635 0)
(1.9784 -0.0312662 0)
(1.97925 -0.0313716 0)
(1.98101 -0.0306072 0)
(1.98392 -0.0276698 0)
(1.98491 -0.0257396 0)
(1.98675 -0.022917 0)
(1.98708 -0.0224868 0)
(1.9863 -0.0241389 0)
(1.98493 -0.0274185 0)
(1.98348 -0.0312556 0)
(1.98387 -0.031094 0)
(1.98516 -0.029741 0)
(1.98607 -0.0275339 0)
(1.98798 -0.0251391 0)
(1.98807 -0.0258444 0)
(1.98759 -0.0280634 0)
(1.98724 -0.0310049 0)
(1.98686 -0.0307655 0)
(1.98773 -0.0298076 0)
(1.98904 -0.027804 0)
(1.99008 -0.0272553 0)
(1.98981 -0.0283556 0)
(1.98947 -0.0300759 0)
(1.98961 -0.0303625 0)
(1.99042 -0.0297556 0)
(1.99124 -0.0293046 0)
(1.99124 -0.029922 0)
(1.9914 -0.0310854 0)
(1.99159 -0.0313481 0)
(1.99234 -0.0310118 0)
(1.99296 -0.0310108 0)
(1.99352 -0.0315168 0)
(1.99377 -0.0321603 0)
(1.99406 -0.032301 0)
(1.99436 -0.0323654 0)
(1.99477 -0.0327297 0)
(1.99519 -0.0331439 0)
(1.99553 -0.0334226 0)
(1.9958 -0.0338923 0)
(1.99578 -0.0345394 0)
(1.99597 -0.0350692 0)
(1.99611 -0.0353749 0)
(1.99642 -0.0354273 0)
(1.99655 -0.0355673 0)
(1.99643 -0.0356112 0)
(1.996 -0.0357977 0)
(1.99483 -0.0362348 0)
(1.99258 -0.0369073 0)
(1.99015 -0.0374567 0)
(1.98819 -0.0386708 0)
(1.98735 -0.0395139 0)
(1.98737 -0.0406199 0)
(1.98733 -0.0418045 0)
(1.98701 -0.0428698 0)
(1.98751 -0.0441288 0)
(1.98737 -0.0459058 0)
(2.19947 -0.618718 0)
(2.19937 -0.618688 0)
(2.19928 -0.618665 0)
(2.19918 -0.618638 0)
(2.19908 -0.61862 0)
(2.19897 -0.618595 0)
(2.19886 -0.618578 0)
(2.19873 -0.618552 0)
(2.19862 -0.618541 0)
(2.19849 -0.618496 0)
(2.19838 -0.618439 0)
(2.19829 -0.618367 0)
(2.19821 -0.618289 0)
(2.19813 -0.618197 0)
(2.19804 -0.618104 0)
(2.19793 -0.617975 0)
(2.1978 -0.617834 0)
(2.19761 -0.617536 0)
(2.19721 -0.61709 0)
(2.19646 -0.616141 0)
(2.19523 -0.614123 0)
(2.19295 -0.610102 0)
(2.18922 -0.602701 0)
(2.18235 -0.588726 0)
(2.17294 -0.568279 0)
(2.15727 -0.532017 0)
(2.14141 -0.493248 0)
(2.11569 -0.426573 0)
(2.09876 -0.376157 0)
(2.06615 -0.287738 0)
(2.05606 -0.241108 0)
(2.02497 -0.157062 0)
(2.02268 -0.125581 0)
(1.99963 -0.0687696 0)
(1.99911 -0.050959 0)
(1.98593 -0.0207841 0)
(1.98187 -0.010534 0)
(1.97902 0.00118999 0)
(1.97668 0.000333594 0)
(1.97401 -0.00641625 0)
(1.97584 -0.0166404 0)
(1.97537 -0.023425 0)
(1.9751 -0.0266921 0)
(1.97503 -0.0284251 0)
(1.97684 -0.0282631 0)
(1.9798 -0.0274272 0)
(1.98262 -0.0248498 0)
(1.98446 -0.0222839 0)
(1.98465 -0.020896 0)
(1.98412 -0.0221 0)
(1.98255 -0.0249245 0)
(1.98052 -0.0285047 0)
(1.9797 -0.0313471 0)
(1.98076 -0.030821 0)
(1.98275 -0.0293359 0)
(1.98466 -0.0269202 0)
(1.98633 -0.0242283 0)
(1.98624 -0.0248534 0)
(1.98481 -0.027191 0)
(1.98359 -0.0303948 0)
(1.98398 -0.0307496 0)
(1.9854 -0.029802 0)
(1.98704 -0.0276582 0)
(1.98817 -0.0263645 0)
(1.98765 -0.0276294 0)
(1.98668 -0.0296837 0)
(1.98684 -0.0307748 0)
(1.98766 -0.030251 0)
(1.98873 -0.0291011 0)
(1.98883 -0.0293637 0)
(1.98852 -0.0302944 0)
(1.98868 -0.0313033 0)
(1.98918 -0.031159 0)
(1.98998 -0.0306447 0)
(1.99056 -0.0309476 0)
(1.9909 -0.0315745 0)
(1.99114 -0.0320702 0)
(1.99155 -0.0320616 0)
(1.99183 -0.0323316 0)
(1.99228 -0.0327686 0)
(1.99265 -0.0331079 0)
(1.99312 -0.0334602 0)
(1.99334 -0.0339786 0)
(1.99357 -0.0346039 0)
(1.99379 -0.0350588 0)
(1.99403 -0.0352841 0)
(1.99439 -0.0353259 0)
(1.99462 -0.0355 0)
(1.99452 -0.0356309 0)
(1.99418 -0.0358318 0)
(1.99308 -0.0363038 0)
(1.99094 -0.0369757 0)
(1.98856 -0.0375106 0)
(1.98695 -0.0386068 0)
(1.98627 -0.0394841 0)
(1.98644 -0.0406453 0)
(1.98644 -0.0417621 0)
(1.98629 -0.0428241 0)
(1.98697 -0.0440653 0)
(1.98707 -0.045829 0)
(2.19741 -0.61809 0)
(2.19734 -0.618071 0)
(2.19727 -0.618045 0)
(2.1972 -0.618024 0)
(2.19712 -0.617994 0)
(2.19705 -0.617972 0)
(2.19697 -0.617941 0)
(2.1969 -0.617919 0)
(2.19682 -0.617887 0)
(2.19675 -0.617866 0)
(2.19669 -0.617841 0)
(2.19663 -0.617837 0)
(2.19658 -0.617824 0)
(2.19653 -0.617832 0)
(2.19648 -0.617824 0)
(2.19642 -0.617846 0)
(2.19637 -0.617839 0)
(2.1963 -0.617891 0)
(2.19625 -0.617848 0)
(2.19624 -0.617785 0)
(2.19623 -0.617737 0)
(2.19623 -0.617675 0)
(2.19621 -0.617603 0)
(2.19616 -0.617479 0)
(2.19601 -0.617176 0)
(2.19569 -0.616529 0)
(2.19493 -0.614856 0)
(2.19305 -0.611147 0)
(2.18939 -0.603108 0)
(2.18156 -0.587004 0)
(2.17003 -0.560463 0)
(2.15051 -0.513933 0)
(2.13161 -0.462914 0)
(2.10246 -0.381201 0)
(2.08625 -0.324718 0)
(2.05695 -0.23491 0)
(2.048 -0.196601 0)
(2.02708 -0.130737 0)
(2.02252 -0.112498 0)
(2.00663 -0.0840613 0)
(2.00571 -0.0664026 0)
(1.99527 -0.0502305 0)
(1.9944 -0.0398941 0)
(1.98888 -0.0319204 0)
(1.98805 -0.0246562 0)
(1.98546 -0.0210524 0)
(1.98765 -0.0142108 0)
(1.98376 -0.0166477 0)
(1.98128 -0.0203278 0)
(1.97882 -0.0262477 0)
(1.97696 -0.0312096 0)
(1.97771 -0.035319 0)
(1.97916 -0.0341262 0)
(1.98262 -0.030138 0)
(1.9851 -0.0264002 0)
(1.98622 -0.0235797 0)
(1.98574 -0.0245151 0)
(1.98375 -0.027534 0)
(1.98182 -0.0318063 0)
(1.98221 -0.031956 0)
(1.98362 -0.0301309 0)
(1.98596 -0.0277499 0)
(1.9873 -0.0257339 0)
(1.98671 -0.0269302 0)
(1.98551 -0.0291294 0)
(1.98528 -0.0309866 0)
(1.98617 -0.0305002 0)
(1.98709 -0.0288001 0)
(1.98757 -0.0292168 0)
(1.98716 -0.0300558 0)
(1.98685 -0.0312259 0)
(1.98725 -0.0312435 0)
(1.98799 -0.0305385 0)
(1.9888 -0.030823 0)
(1.98904 -0.0312766 0)
(1.98942 -0.0320808 0)
(1.98976 -0.0322213 0)
(1.99019 -0.0321269 0)
(1.99055 -0.0323878 0)
(1.99096 -0.032823 0)
(1.99131 -0.0330394 0)
(1.99183 -0.0334263 0)
(1.99204 -0.0340729 0)
(1.99242 -0.0346808 0)
(1.99268 -0.0349067 0)
(1.99309 -0.0352366 0)
(1.99359 -0.0352175 0)
(1.99402 -0.0354268 0)
(1.99398 -0.0355941 0)
(1.99371 -0.0358434 0)
(1.99268 -0.0363618 0)
(1.99067 -0.0369669 0)
(1.98826 -0.0374625 0)
(1.98699 -0.0384999 0)
(1.98641 -0.0394301 0)
(1.98664 -0.0406787 0)
(1.98659 -0.041768 0)
(1.9865 -0.0429065 0)
(1.98724 -0.0441664 0)
(1.98744 -0.0458099 0)
(2.19619 -0.617731 0)
(2.19617 -0.617718 0)
(2.19614 -0.617719 0)
(2.19613 -0.617705 0)
(2.19611 -0.617707 0)
(2.1961 -0.617692 0)
(2.19609 -0.617697 0)
(2.19608 -0.617681 0)
(2.19607 -0.617686 0)
(2.19607 -0.617669 0)
(2.19607 -0.617678 0)
(2.19608 -0.617662 0)
(2.19609 -0.61768 0)
(2.19611 -0.617663 0)
(2.19612 -0.617682 0)
(2.19615 -0.617666 0)
(2.19618 -0.617688 0)
(2.19622 -0.617677 0)
(2.19625 -0.6177 0)
(2.19631 -0.617695 0)
(2.19635 -0.617738 0)
(2.19642 -0.617749 0)
(2.19646 -0.61782 0)
(2.19653 -0.617824 0)
(2.19655 -0.617928 0)
(2.19662 -0.617895 0)
(2.19669 -0.617896 0)
(2.19675 -0.617886 0)
(2.19679 -0.617876 0)
(2.19679 -0.617776 0)
(2.19667 -0.617396 0)
(2.19624 -0.616241 0)
(2.19495 -0.613157 0)
(2.19122 -0.60501 0)
(2.18423 -0.588889 0)
(2.16898 -0.552614 0)
(2.15192 -0.507532 0)
(2.11922 -0.418649 0)
(2.10206 -0.354463 0)
(2.0597 -0.234466 0)
(2.05422 -0.185546 0)
(2.02025 -0.0951718 0)
(2.01954 -0.0732499 0)
(2.0004 -0.0279727 0)
(1.99302 -0.0189131 0)
(1.9891 -0.00304994 0)
(1.98422 -0.006081 0)
(1.9801 -0.0164108 0)
(1.98077 -0.0225772 0)
(1.97879 -0.029883 0)
(1.97954 -0.0304657 0)
(1.98035 -0.0310722 0)
(1.98363 -0.0283751 0)
(1.98767 -0.0230523 0)
(1.98708 -0.0226451 0)
(1.98606 -0.0239304 0)
(1.9836 -0.0276503 0)
(1.98182 -0.0313932 0)
(1.98186 -0.03129 0)
(1.98319 -0.0300723 0)
(1.98618 -0.0268188 0)
(1.98733 -0.0248834 0)
(1.98679 -0.0263865 0)
(1.98538 -0.0290913 0)
(1.98479 -0.0312898 0)
(1.98538 -0.0305446 0)
(1.98714 -0.0289652 0)
(1.98763 -0.0285307 0)
(1.98727 -0.0294918 0)
(1.98683 -0.0306058 0)
(1.98696 -0.0309161 0)
(1.98775 -0.030595 0)
(1.98836 -0.030249 0)
(1.98895 -0.0307862 0)
(1.98915 -0.031461 0)
(1.98944 -0.0316916 0)
(1.98989 -0.0317402 0)
(1.99042 -0.0321494 0)
(1.9908 -0.0325155 0)
(1.99115 -0.0329521 0)
(1.99147 -0.033203 0)
(1.99199 -0.0336733 0)
(1.99229 -0.0343257 0)
(1.99256 -0.0350285 0)
(1.99299 -0.0350979 0)
(1.99353 -0.0351623 0)
(1.99408 -0.0351405 0)
(1.99469 -0.0353805 0)
(1.99472 -0.0356675 0)
(1.99448 -0.0359371 0)
(1.99343 -0.0365948 0)
(1.99145 -0.0371263 0)
(1.98902 -0.0375136 0)
(1.98782 -0.0384963 0)
(1.9872 -0.0394378 0)
(1.98742 -0.0406934 0)
(1.9873 -0.0416545 0)
(1.98715 -0.0428285 0)
(1.98784 -0.0441094 0)
(1.988 -0.0457377 0)
(2.19612 -0.617688 0)
(2.19614 -0.617693 0)
(2.19617 -0.617693 0)
(2.1962 -0.6177 0)
(2.19623 -0.617703 0)
(2.19626 -0.617713 0)
(2.1963 -0.617716 0)
(2.19633 -0.617729 0)
(2.19637 -0.61773 0)
(2.19642 -0.617741 0)
(2.19646 -0.617751 0)
(2.19651 -0.617764 0)
(2.19656 -0.61778 0)
(2.19662 -0.617798 0)
(2.19668 -0.617811 0)
(2.19674 -0.617831 0)
(2.1968 -0.617847 0)
(2.19687 -0.617867 0)
(2.19693 -0.617904 0)
(2.197 -0.617932 0)
(2.19708 -0.61796 0)
(2.19716 -0.617984 0)
(2.19723 -0.618026 0)
(2.19732 -0.618046 0)
(2.1974 -0.618088 0)
(2.19749 -0.618109 0)
(2.19756 -0.618177 0)
(2.19765 -0.618201 0)
(2.19772 -0.618277 0)
(2.19781 -0.618289 0)
(2.19785 -0.61837 0)
(2.19795 -0.618347 0)
(2.19803 -0.618356 0)
(2.19809 -0.618339 0)
(2.1981 -0.618221 0)
(2.19799 -0.617718 0)
(2.19737 -0.615982 0)
(2.195 -0.611012 0)
(2.18955 -0.597942 0)
(2.17628 -0.56792 0)
(2.1581 -0.51953 0)
(2.12676 -0.433031 0)
(2.10657 -0.361486 0)
(2.06879 -0.245689 0)
(2.05837 -0.199273 0)
(2.02971 -0.114859 0)
(2.02674 -0.101569 0)
(2.00616 -0.070641 0)
(2.00542 -0.0545317 0)
(1.99617 -0.041228 0)
(1.99398 -0.0315793 0)
(1.9918 -0.0227678 0)
(1.98927 -0.0145261 0)
(1.98753 -0.0157821 0)
(1.9837 -0.0211615 0)
(1.98148 -0.028219 0)
(1.9802 -0.036428 0)
(1.98115 -0.0357576 0)
(1.98379 -0.0323044 0)
(1.98721 -0.0269174 0)
(1.98889 -0.0236143 0)
(1.98836 -0.0245363 0)
(1.98605 -0.0278189 0)
(1.98473 -0.0320392 0)
(1.98525 -0.0314733 0)
(1.98719 -0.0292771 0)
(1.98803 -0.0275943 0)
(1.98792 -0.028488 0)
(1.98734 -0.0301901 0)
(1.9873 -0.0318904 0)
(1.98808 -0.0314319 0)
(1.9889 -0.0301021 0)
(1.98947 -0.0305257 0)
(1.98948 -0.0311507 0)
(1.98973 -0.0319757 0)
(1.99039 -0.031907 0)
(1.99088 -0.0315827 0)
(1.99137 -0.0319805 0)
(1.99174 -0.0325663 0)
(1.99212 -0.0327842 0)
(1.99241 -0.0329227 0)
(1.99289 -0.0336689 0)
(1.99326 -0.0343553 0)
(1.99358 -0.0346956 0)
(1.99414 -0.0348729 0)
(1.99473 -0.0351178 0)
(1.9953 -0.0350896 0)
(1.99592 -0.0354432 0)
(1.99596 -0.0357318 0)
(1.99569 -0.0360556 0)
(1.99458 -0.0366664 0)
(1.99254 -0.0370547 0)
(1.99016 -0.0373558 0)
(1.98872 -0.0384383 0)
(1.98801 -0.0394837 0)
(1.98821 -0.0407702 0)
(1.98799 -0.0416384 0)
(1.98782 -0.042862 0)
(1.98836 -0.0442268 0)
(1.98845 -0.0457179 0)
(2.19689 -0.617896 0)
(2.19693 -0.617905 0)
(2.19697 -0.617914 0)
(2.19701 -0.617924 0)
(2.19706 -0.617932 0)
(2.1971 -0.617945 0)
(2.19715 -0.617957 0)
(2.1972 -0.617972 0)
(2.19725 -0.617986 0)
(2.19731 -0.617996 0)
(2.19736 -0.61801 0)
(2.19742 -0.618026 0)
(2.19748 -0.61804 0)
(2.19753 -0.618065 0)
(2.19759 -0.618082 0)
(2.19765 -0.618104 0)
(2.19772 -0.618126 0)
(2.19778 -0.618144 0)
(2.19785 -0.618163 0)
(2.19791 -0.618195 0)
(2.19798 -0.618221 0)
(2.19804 -0.618249 0)
(2.19811 -0.618284 0)
(2.19818 -0.618318 0)
(2.19824 -0.618354 0)
(2.19831 -0.618388 0)
(2.19838 -0.618422 0)
(2.19845 -0.618448 0)
(2.19852 -0.618487 0)
(2.19859 -0.618518 0)
(2.19867 -0.61855 0)
(2.19874 -0.618561 0)
(2.1988 -0.618593 0)
(2.19887 -0.618592 0)
(2.19893 -0.618626 0)
(2.199 -0.618623 0)
(2.19906 -0.618619 0)
(2.19911 -0.618609 0)
(2.19914 -0.618517 0)
(2.19905 -0.618127 0)
(2.19847 -0.616635 0)
(2.19607 -0.611387 0)
(2.19022 -0.597294 0)
(2.17442 -0.559961 0)
(2.1547 -0.50407 0)
(2.11358 -0.392681 0)
(2.09642 -0.312363 0)
(2.04537 -0.170975 0)
(2.04288 -0.12493 0)
(2.01129 -0.0454545 0)
(2.00303 -0.0273888 0)
(1.99567 -0.000279257 0)
(1.9898 -0.00262719 0)
(1.98429 -0.016406 0)
(1.98381 -0.025403 0)
(1.98177 -0.0329103 0)
(1.98254 -0.0335119 0)
(1.98474 -0.0317408 0)
(1.9905 -0.0239469 0)
(1.99092 -0.0229659 0)
(1.98976 -0.0237197 0)
(1.98692 -0.0280392 0)
(1.98492 -0.0317142 0)
(1.98543 -0.0318713 0)
(1.98803 -0.0290255 0)
(1.98999 -0.0268023 0)
(1.98966 -0.0271271 0)
(1.98847 -0.0291307 0)
(1.98782 -0.0314339 0)
(1.98817 -0.0314461 0)
(1.98946 -0.030132 0)
(1.99008 -0.0298211 0)
(1.99008 -0.0305446 0)
(1.99008 -0.0317018 0)
(1.99059 -0.0319037 0)
(1.99135 -0.0316343 0)
(1.99199 -0.0319103 0)
(1.99222 -0.0322847 0)
(1.99253 -0.0328169 0)
(1.99302 -0.0329602 0)
(1.99339 -0.0332314 0)
(1.99384 -0.0338827 0)
(1.99417 -0.0348569 0)
(1.99474 -0.0349021 0)
(1.99535 -0.0349041 0)
(1.99592 -0.0350751 0)
(1.99648 -0.0351065 0)
(1.99703 -0.035422 0)
(1.99702 -0.0358194 0)
(1.9967 -0.0361783 0)
(1.99551 -0.0369427 0)
(1.99342 -0.0371559 0)
(1.9911 -0.0372931 0)
(1.98932 -0.0383275 0)
(1.98855 -0.0394621 0)
(1.98871 -0.040781 0)
(1.98837 -0.04151 0)
(1.9883 -0.042733 0)
(1.98866 -0.0441086 0)
(1.98869 -0.0456683 0)
(2.19789 -0.618205 0)
(2.19793 -0.618214 0)
(2.19796 -0.61822 0)
(2.198 -0.618231 0)
(2.19804 -0.618242 0)
(2.19808 -0.618255 0)
(2.19812 -0.618269 0)
(2.19816 -0.618284 0)
(2.1982 -0.618299 0)
(2.19824 -0.618315 0)
(2.19828 -0.618327 0)
(2.19832 -0.618344 0)
(2.19837 -0.618358 0)
(2.19841 -0.61838 0)
(2.19845 -0.618398 0)
(2.1985 -0.618419 0)
(2.19854 -0.618441 0)
(2.19858 -0.618472 0)
(2.19863 -0.618493 0)
(2.19867 -0.618525 0)
(2.19872 -0.618545 0)
(2.19876 -0.618565 0)
(2.19881 -0.618583 0)
(2.19885 -0.618609 0)
(2.1989 -0.618622 0)
(2.19895 -0.618652 0)
(2.19899 -0.618673 0)
(2.19904 -0.618694 0)
(2.19909 -0.618708 0)
(2.19914 -0.618724 0)
(2.19919 -0.618728 0)
(2.19924 -0.618747 0)
(2.19929 -0.618761 0)
(2.19935 -0.618766 0)
(2.1994 -0.618769 0)
(2.19945 -0.618767 0)
(2.19949 -0.618767 0)
(2.19953 -0.618761 0)
(2.1996 -0.618756 0)
(2.19964 -0.618741 0)
(2.19969 -0.618727 0)
(2.19971 -0.618695 0)
(2.19972 -0.618581 0)
(2.19951 -0.618046 0)
(2.19859 -0.615816 0)
(2.19474 -0.607843 0)
(2.18554 -0.584773 0)
(2.16288 -0.52953 0)
(2.13679 -0.450152 0)
(2.09557 -0.326156 0)
(2.07408 -0.244683 0)
(2.04225 -0.143198 0)
(2.02917 -0.108901 0)
(2.01439 -0.0775777 0)
(2.00803 -0.0572374 0)
(1.9994 -0.0413023 0)
(1.99644 -0.0281674 0)
(1.99116 -0.0133441 0)
(1.99198 -0.0163005 0)
(1.98867 -0.0204907 0)
(1.98494 -0.0286311 0)
(1.98355 -0.0369794 0)
(1.98439 -0.0358427 0)
(1.98833 -0.030666 0)
(1.99134 -0.026018 0)
(1.99113 -0.0263544 0)
(1.98974 -0.0290317 0)
(1.98824 -0.0320794 0)
(1.98849 -0.032048 0)
(1.98993 -0.0300105 0)
(1.99087 -0.0290948 0)
(1.99093 -0.0295325 0)
(1.99063 -0.0312073 0)
(1.99067 -0.0320795 0)
(1.99144 -0.031706 0)
(1.99212 -0.0312985 0)
(1.9926 -0.0317413 0)
(1.99277 -0.03246 0)
(1.99306 -0.0327092 0)
(1.99359 -0.032706 0)
(1.99415 -0.0332138 0)
(1.99459 -0.0339842 0)
(1.99493 -0.0347381 0)
(1.99564 -0.0347645 0)
(1.99624 -0.0348004 0)
(1.99675 -0.035035 0)
(1.9973 -0.0351323 0)
(1.99771 -0.0355247 0)
(1.9977 -0.0358444 0)
(1.9973 -0.0362825 0)
(1.99609 -0.0369534 0)
(1.99393 -0.0370601 0)
(1.99163 -0.0371964 0)
(1.9896 -0.038248 0)
(1.98881 -0.0394757 0)
(1.98885 -0.040758 0)
(1.98847 -0.0414531 0)
(1.98857 -0.0427535 0)
(1.98878 -0.0441019 0)
(1.98876 -0.0455689 0)
(2.19874 -0.61848 0)
(2.19876 -0.618489 0)
(2.19879 -0.618499 0)
(2.19881 -0.618508 0)
(2.19884 -0.61852 0)
(2.19886 -0.61853 0)
(2.19889 -0.618545 0)
(2.19891 -0.618555 0)
(2.19894 -0.618572 0)
(2.19896 -0.618582 0)
(2.19899 -0.6186 0)
(2.19901 -0.618611 0)
(2.19904 -0.618629 0)
(2.19906 -0.618645 0)
(2.19909 -0.618662 0)
(2.19912 -0.618675 0)
(2.19914 -0.618691 0)
(2.19917 -0.618703 0)
(2.1992 -0.618717 0)
(2.19922 -0.618732 0)
(2.19925 -0.618758 0)
(2.19927 -0.618772 0)
(2.1993 -0.61879 0)
(2.19933 -0.618804 0)
(2.19935 -0.618815 0)
(2.19938 -0.618823 0)
(2.19941 -0.61883 0)
(2.19944 -0.61883 0)
(2.19947 -0.618843 0)
(2.19951 -0.618855 0)
(2.19954 -0.618856 0)
(2.19957 -0.618845 0)
(2.19961 -0.618844 0)
(2.19965 -0.61884 0)
(2.19968 -0.618836 0)
(2.19972 -0.618842 0)
(2.19975 -0.618835 0)
(2.19979 -0.618833 0)
(2.19982 -0.618823 0)
(2.19985 -0.618813 0)
(2.19989 -0.618804 0)
(2.19992 -0.618805 0)
(2.19994 -0.618793 0)
(2.19996 -0.618791 0)
(2.19997 -0.618796 0)
(2.19996 -0.618774 0)
(2.19987 -0.618568 0)
(2.19926 -0.617253 0)
(2.19692 -0.611745 0)
(2.18798 -0.59168 0)
(2.17009 -0.54389 0)
(2.13289 -0.445587 0)
(2.09779 -0.331378 0)
(2.05359 -0.191066 0)
(2.03621 -0.113453 0)
(2.01208 -0.0357119 0)
(1.99753 -0.00872025 0)
(1.99765 0.00313906 0)
(1.99044 -0.013352 0)
(1.98698 -0.0242154 0)
(1.98509 -0.0323474 0)
(1.98568 -0.0338234 0)
(1.9909 -0.0292051 0)
(1.99403 -0.0240824 0)
(1.99333 -0.0244318 0)
(1.99029 -0.0278293 0)
(1.98818 -0.0326379 0)
(1.98822 -0.0328061 0)
(1.99006 -0.030407 0)
(1.99195 -0.0278665 0)
(1.99174 -0.0285771 0)
(1.99132 -0.0303806 0)
(1.99066 -0.0322007 0)
(1.99123 -0.0320305 0)
(1.99227 -0.0305986 0)
(1.99281 -0.0311456 0)
(1.99283 -0.0320475 0)
(1.99286 -0.0328429 0)
(1.99337 -0.0326573 0)
(1.99413 -0.0327464 0)
(1.99445 -0.0334406 0)
(1.99487 -0.0345141 0)
(1.99533 -0.0347703 0)
(1.99615 -0.0345365 0)
(1.99676 -0.0346928 0)
(1.99724 -0.0349524 0)
(1.99782 -0.0351208 0)
(1.99804 -0.0355874 0)
(1.99802 -0.0359857 0)
(1.9976 -0.0363741 0)
(1.99634 -0.0370908 0)
(1.9941 -0.0369663 0)
(1.99181 -0.0370386 0)
(1.98961 -0.0381641 0)
(1.98881 -0.0394552 0)
(1.98881 -0.0406142 0)
(1.98842 -0.0413355 0)
(1.98862 -0.0427158 0)
(1.98876 -0.0439443 0)
(1.98876 -0.0454287 0)
(2.19931 -0.618669 0)
(2.19932 -0.618677 0)
(2.19933 -0.618688 0)
(2.19934 -0.6187 0)
(2.19935 -0.618709 0)
(2.19936 -0.618724 0)
(2.19938 -0.618733 0)
(2.19939 -0.618749 0)
(2.1994 -0.618756 0)
(2.19941 -0.618767 0)
(2.19943 -0.618781 0)
(2.19944 -0.618795 0)
(2.19945 -0.618802 0)
(2.19946 -0.618818 0)
(2.19948 -0.618831 0)
(2.19949 -0.618841 0)
(2.19951 -0.618858 0)
(2.19952 -0.618866 0)
(2.19953 -0.618874 0)
(2.19955 -0.618886 0)
(2.19957 -0.618887 0)
(2.19958 -0.61889 0)
(2.1996 -0.618894 0)
(2.19962 -0.618897 0)
(2.19964 -0.6189 0)
(2.19966 -0.618905 0)
(2.19968 -0.618909 0)
(2.1997 -0.618903 0)
(2.19972 -0.618895 0)
(2.19975 -0.618894 0)
(2.19977 -0.618894 0)
(2.1998 -0.618891 0)
(2.19982 -0.618888 0)
(2.19985 -0.618882 0)
(2.19988 -0.618875 0)
(2.1999 -0.618865 0)
(2.19993 -0.618854 0)
(2.19995 -0.618852 0)
(2.19998 -0.618847 0)
(2.2 -0.618844 0)
(2.20003 -0.618846 0)
(2.20005 -0.618849 0)
(2.20007 -0.61886 0)
(2.20008 -0.618873 0)
(2.20009 -0.618897 0)
(2.20008 -0.618925 0)
(2.20009 -0.618932 0)
(2.20008 -0.618948 0)
(2.20007 -0.618942 0)
(2.19999 -0.618769 0)
(2.19953 -0.617721 0)
(2.19705 -0.612296 0)
(2.18871 -0.592719 0)
(2.1655 -0.53445 0)
(2.13517 -0.445388 0)
(2.08898 -0.301413 0)
(2.07051 -0.218698 0)
(2.0321 -0.11542 0)
(2.0303 -0.0885754 0)
(2.00853 -0.0581688 0)
(2.00242 -0.0417656 0)
(1.9999 -0.0282351 0)
(1.99517 -0.0169232 0)
(1.9932 -0.0182978 0)
(1.9878 -0.0253141 0)
(1.98484 -0.034799 0)
(1.98547 -0.0360805 0)
(1.98856 -0.0333006 0)
(1.99261 -0.0276837 0)
(1.99239 -0.027666 0)
(1.99098 -0.0297858 0)
(1.9898 -0.0327586 0)
(1.99037 -0.0325709 0)
(1.992 -0.0305677 0)
(1.99282 -0.0304483 0)
(1.99259 -0.0314916 0)
(1.99241 -0.0329756 0)
(1.99289 -0.0329538 0)
(1.99381 -0.03241 0)
(1.99433 -0.0328242 0)
(1.99465 -0.033865 0)
(1.99492 -0.0346708 0)
(1.9957 -0.0345626 0)
(1.99643 -0.0342663 0)
(1.99703 -0.0346488 0)
(1.9975 -0.0348776 0)
(1.99805 -0.0351483 0)
(1.99814 -0.0357022 0)
(1.99811 -0.0361669 0)
(1.99767 -0.0365672 0)
(1.99646 -0.0370575 0)
(1.99418 -0.036804 0)
(1.99178 -0.0369192 0)
(1.98945 -0.0380989 0)
(1.98873 -0.0394234 0)
(1.98865 -0.0404648 0)
(1.98827 -0.0412654 0)
(1.98852 -0.0427338 0)
(1.98863 -0.0438097 0)
(1.98865 -0.0453047 0)
(2.19961 -0.618808 0)
(2.19962 -0.618814 0)
(2.19962 -0.618819 0)
(2.19963 -0.618831 0)
(2.19963 -0.618838 0)
(2.19964 -0.618849 0)
(2.19964 -0.61886 0)
(2.19965 -0.618868 0)
(2.19965 -0.618872 0)
(2.19966 -0.618875 0)
(2.19967 -0.618887 0)
(2.19967 -0.618893 0)
(2.19968 -0.618896 0)
(2.19969 -0.618899 0)
(2.1997 -0.618902 0)
(2.19971 -0.61891 0)
(2.19972 -0.618917 0)
(2.19973 -0.618913 0)
(2.19975 -0.618908 0)
(2.19976 -0.618912 0)
(2.19977 -0.618917 0)
(2.19979 -0.618915 0)
(2.19979 -0.618915 0)
(2.19981 -0.618913 0)
(2.19983 -0.618909 0)
(2.19985 -0.618904 0)
(2.19986 -0.618899 0)
(2.19988 -0.6189 0)
(2.1999 -0.618894 0)
(2.19992 -0.618884 0)
(2.19994 -0.618882 0)
(2.19996 -0.618873 0)
(2.19998 -0.618863 0)
(2.2 -0.61886 0)
(2.20002 -0.618854 0)
(2.20004 -0.618846 0)
(2.20006 -0.618844 0)
(2.20008 -0.618841 0)
(2.20009 -0.61884 0)
(2.2001 -0.618848 0)
(2.20011 -0.61886 0)
(2.20012 -0.618883 0)
(2.20012 -0.618909 0)
(2.20012 -0.618938 0)
(2.20012 -0.618967 0)
(2.20011 -0.618998 0)
(2.20012 -0.619002 0)
(2.20011 -0.619022 0)
(2.20012 -0.619024 0)
(2.20013 -0.619017 0)
(2.20014 -0.619003 0)
(2.20015 -0.618952 0)
(2.2001 -0.618745 0)
(2.19952 -0.617376 0)
(2.19672 -0.610575 0)
(2.18427 -0.581141 0)
(2.16248 -0.517894 0)
(2.10587 -0.369276 0)
(2.08812 -0.260437 0)
(2.02987 -0.0967696 0)
(2.02082 -0.0598454 0)
(2.00784 -0.000178653 0)
(1.99412 -0.00542049 0)
(1.98691 -0.0202358 0)
(1.98461 -0.0293931 0)
(1.98623 -0.0341708 0)
(1.98796 -0.0335469 0)
(1.99478 -0.0247036 0)
(1.99422 -0.0255021 0)
(1.99115 -0.0282429 0)
(1.98898 -0.032734 0)
(1.98928 -0.0329659 0)
(1.99151 -0.0306646 0)
(1.99322 -0.0288304 0)
(1.9929 -0.0300846 0)
(1.99234 -0.0325825 0)
(1.99246 -0.033018 0)
(1.99354 -0.0322748 0)
(1.9943 -0.0324848 0)
(1.99427 -0.0333893 0)
(1.99434 -0.0346063 0)
(1.9949 -0.0347336 0)
(1.99603 -0.0340988 0)
(1.99654 -0.0341832 0)
(1.99713 -0.0347198 0)
(1.9976 -0.0348364 0)
(1.9981 -0.0351594 0)
(1.99807 -0.0358229 0)
(1.998 -0.0363594 0)
(1.99758 -0.036678 0)
(1.99645 -0.0369475 0)
(1.99413 -0.0366667 0)
(1.99172 -0.0368273 0)
(1.98919 -0.0380929 0)
(1.98865 -0.0393608 0)
(1.98841 -0.040249 0)
(1.98803 -0.0411851 0)
(1.98829 -0.0427046 0)
(1.98842 -0.0436174 0)
(1.98843 -0.0451361 0)
(2.19977 -0.618901 0)
(2.19977 -0.618904 0)
(2.19977 -0.618907 0)
(2.19978 -0.618908 0)
(2.19978 -0.618909 0)
(2.19979 -0.618908 0)
(2.19979 -0.618908 0)
(2.1998 -0.618914 0)
(2.1998 -0.61892 0)
(2.19981 -0.618922 0)
(2.19982 -0.618927 0)
(2.19983 -0.618932 0)
(2.19984 -0.618932 0)
(2.19984 -0.618928 0)
(2.19986 -0.618927 0)
(2.19987 -0.618925 0)
(2.19988 -0.618924 0)
(2.19989 -0.618924 0)
(2.1999 -0.618922 0)
(2.19992 -0.618918 0)
(2.19992 -0.618914 0)
(2.19994 -0.618907 0)
(2.19995 -0.618899 0)
(2.19996 -0.618898 0)
(2.19998 -0.618896 0)
(2.2 -0.618885 0)
(2.20001 -0.618878 0)
(2.20002 -0.618879 0)
(2.20004 -0.618869 0)
(2.20005 -0.618859 0)
(2.20006 -0.618857 0)
(2.20007 -0.618847 0)
(2.20009 -0.618835 0)
(2.2001 -0.618834 0)
(2.20011 -0.618827 0)
(2.20013 -0.618827 0)
(2.20013 -0.618827 0)
(2.20013 -0.618834 0)
(2.20014 -0.61884 0)
(2.20014 -0.618862 0)
(2.20014 -0.61888 0)
(2.20013 -0.618908 0)
(2.20013 -0.618941 0)
(2.20013 -0.618963 0)
(2.20013 -0.618987 0)
(2.20014 -0.61901 0)
(2.20015 -0.619025 0)
(2.20017 -0.619021 0)
(2.20018 -0.619015 0)
(2.2002 -0.61901 0)
(2.20022 -0.619005 0)
(2.20025 -0.618982 0)
(2.20026 -0.618972 0)
(2.20028 -0.618923 0)
(2.20028 -0.61887 0)
(2.20013 -0.618539 0)
(2.19921 -0.616278 0)
(2.19335 -0.603892 0)
(2.17692 -0.559904 0)
(2.13728 -0.451249 0)
(2.10638 -0.337294 0)
(2.0536 -0.173031 0)
(2.04777 -0.134138 0)
(2.01564 -0.0770802 0)
(2.00673 -0.0553334 0)
(2.00476 -0.0365777 0)
(1.99484 -0.0186518 0)
(1.99337 -0.0180329 0)
(1.98805 -0.0245479 0)
(1.9829 -0.035723 0)
(1.98654 -0.0366916 0)
(1.99014 -0.0331442 0)
(1.99355 -0.0285759 0)
(1.99349 -0.0289617 0)
(1.99215 -0.0318743 0)
(1.99177 -0.0340406 0)
(1.99276 -0.0331228 0)
(1.99433 -0.0317141 0)
(1.99426 -0.0323825 0)
(1.99393 -0.0341726 0)
(1.99402 -0.0348322 0)
(1.99499 -0.0342018 0)
(1.99569 -0.0340441 0)
(1.99626 -0.0343177 0)
(1.99682 -0.0347135 0)
(1.99726 -0.0347745 0)
(1.99778 -0.0352399 0)
(1.99766 -0.0359851 0)
(1.99767 -0.0364492 0)
(1.99735 -0.0366002 0)
(1.99622 -0.0368168 0)
(1.99384 -0.0366635 0)
(1.9914 -0.0368374 0)
(1.98883 -0.0380875 0)
(1.98847 -0.0392479 0)
(1.98801 -0.0400561 0)
(1.9877 -0.0410893 0)
(1.98794 -0.0426557 0)
(1.98803 -0.0434078 0)
(1.98811 -0.0449447 0)
(2.19988 -0.618951 0)
(2.19988 -0.618954 0)
(2.19989 -0.618955 0)
(2.19989 -0.618954 0)
(2.1999 -0.618954 0)
(2.19991 -0.618954 0)
(2.19991 -0.61895 0)
(2.19992 -0.618947 0)
(2.19993 -0.618947 0)
(2.19994 -0.618944 0)
(2.19995 -0.618941 0)
(2.19996 -0.618942 0)