/*--------------------------------*- C++ -*----------------------------------*\
  =========                 |
  \\      /  F ield         | OpenFOAM: The Open Source CFD Toolbox
   \\    /   O peration     | Website:  https://openfoam.org
    \\  /    A nd           | Version:  7
     \\/     M anipulation  |
\*---------------------------------------------------------------------------*/
FoamFile
{
    version     2.0;
    format      ascii;
    class       volScalarField;
    location    "7.5";
    object      p;
}
// * * * * * * * * * * * * * * * * * * * * * * * * * * * * * * * * * * * * * //

dimensions      [1 -1 -2 0 0 0 0];

internalField   nonuniform List<scalar> 
90000
(
0.752855
0.76295
0.774565
0.785236
0.795343
0.805407
0.815451
0.824026
0.833066
0.84192
0.851703
0.862134
0.873949
0.886349
0.89957
0.912634
0.925847
0.938721
0.950825
0.962738
0.973391
0.983458
0.992096
1.00034
1.00669
1.01102
1.01671
1.01807
1.0185
1.01806
1.01777
1.01682
1.01398
1.00923
1.00097
0.994024
0.989631
0.987821
0.988603
0.990627
0.993303
0.994605
0.996135
0.997885
0.999222
0.999393
0.998919
0.997437
0.995157
0.993449
0.992892
0.993173
0.993992
0.995438
0.9964
0.99739
0.997852
0.997625
0.997319
0.996665
0.996515
0.996838
0.997235
0.997851
0.998314
0.998738
0.99853
0.998131
0.997928
0.997785
0.998083
0.998463
0.99864
0.998356
0.997954
0.997923
0.998186
0.998419
0.998435
0.998217
0.9981
0.998241
0.998467
0.998485
0.998277
0.998187
0.99825
0.998407
0.998552
0.998696
0.998948
0.999245
0.999365
0.999284
0.999109
0.998894
0.998762
0.998719
0.998756
0.998739
0.744997
0.745871
0.747578
0.750244
0.75342
0.757431
0.762413
0.768002
0.774059
0.781001
0.788393
0.796294
0.804636
0.813807
0.823507
0.834083
0.845093
0.857001
0.869055
0.881878
0.894502
0.907451
0.9204
0.932227
0.944974
0.95528
0.965988
0.974816
0.983192
0.988454
0.993599
0.997082
0.999105
1.00119
1.00558
1.0077
1.00794
1.0066
1.00406
1.00122
0.99833
0.995631
0.993715
0.993478
0.993905
0.994859
0.995895
0.99717
0.998684
0.999142
0.998662
0.997295
0.995635
0.993921
0.99299
0.993341
0.994949
0.997107
0.999573
0.999493
0.998716
0.997284
0.995954
0.996157
0.99745
0.999142
0.999468
0.998895
0.997867
0.997085
0.997517
0.998591
0.999035
0.998691
0.997904
0.997708
0.998009
0.998607
0.998523
0.998329
0.998223
0.998275
0.998451
0.998371
0.998279
0.998264
0.99828
0.998369
0.998505
0.998679
0.998875
0.999084
0.999269
0.999311
0.999188
0.998989
0.998811
0.998746
0.998739
0.998739
0.744564
0.74457
0.744583
0.744608
0.744681
0.744819
0.74507
0.745495
0.746114
0.747013
0.748236
0.749844
0.751868
0.75446
0.757567
0.761479
0.766048
0.771804
0.778422
0.786525
0.795653
0.806536
0.818424
0.832216
0.846742
0.862985
0.879652
0.897149
0.914917
0.931974
0.948792
0.963365
0.978139
0.988251
0.996288
1.00095
1.00308
1.00323
1.00383
1.00342
1.00173
0.998863
0.994688
0.991838
0.992376
0.993608
0.995442
0.997323
0.999298
0.999646
0.998996
0.997475
0.99554
0.993336
0.992444
0.993176
0.994764
0.996797
0.998429
0.999251
0.998878
0.997559
0.996792
0.996964
0.997553
0.998551
0.998936
0.998665
0.998098
0.997709
0.997874
0.998325
0.998649
0.99853
0.998232
0.997915
0.997963
0.998218
0.998346
0.998372
0.998298
0.998267
0.99834
0.998441
0.998422
0.998339
0.99823
0.998282
0.998447
0.998666
0.998907
0.999141
0.99935
0.999272
0.999145
0.998995
0.99883
0.998775
0.998787
0.998776
0.744466
0.744449
0.744428
0.744408
0.744381
0.744357
0.744343
0.744344
0.744352
0.744365
0.744388
0.744423
0.744467
0.744586
0.744782
0.745093
0.745558
0.746217
0.74713
0.748416
0.750161
0.75264
0.755879
0.76039
0.766058
0.773742
0.782915
0.794954
0.808517
0.825279
0.843462
0.86365
0.885331
0.906067
0.926957
0.943809
0.959727
0.969701
0.979322
0.984035
0.987889
0.989025
0.992526
0.996184
0.99934
1.00064
1.00107
1.00063
1.00008
0.998936
0.997499
0.996186
0.995128
0.995154
0.995489
0.996194
0.996367
0.996487
0.9964
0.996676
0.997133
0.997867
0.99885
0.998666
0.998073
0.997383
0.99748
0.997829
0.998475
0.998622
0.998415
0.998071
0.998139
0.998349
0.998436
0.998195
0.997874
0.997914
0.998186
0.998439
0.998472
0.998341
0.998305
0.998354
0.998353
0.998299
0.998228
0.998286
0.998423
0.998635
0.998835
0.99899
0.999156
0.999169
0.999164
0.999091
0.998946
0.998818
0.998782
0.998756
0.744346
0.744344
0.744347
0.744341
0.744325
0.744306
0.744281
0.744247
0.744215
0.744187
0.744158
0.744136
0.744131
0.744099
0.744074
0.744064
0.74407
0.74408
0.744095
0.744124
0.744166
0.74425
0.74439
0.744714
0.745262
0.746149
0.747472
0.749586
0.752614
0.757325
0.763623
0.773031
0.784617
0.80078
0.819182
0.84209
0.866259
0.891605
0.916832
0.938007
0.958657
0.973358
0.986007
0.991302
0.994862
0.99625
0.996835
0.996512
0.995168
0.992514
0.992997
0.994382
0.996631
0.998852
0.999755
0.999271
0.997667
0.995911
0.994546
0.994628
0.995378
0.997158
0.998655
0.999389
0.999054
0.998002
0.9971
0.997457
0.998135
0.998735
0.998624
0.998138
0.997885
0.998089
0.998435
0.998459
0.998156
0.997958
0.998108
0.998426
0.998536
0.998429
0.998309
0.998372
0.998424
0.998411
0.998308
0.998321
0.998437
0.998639
0.998825
0.998972
0.999149
0.99918
0.999184
0.999141
0.999015
0.998858
0.998813
0.998782
0.744202
0.744201
0.744197
0.744193
0.744187
0.744176
0.744165
0.744159
0.744158
0.744148
0.744134
0.744119
0.744102
0.744084
0.744061
0.744029
0.743982
0.743937
0.743906
0.74389
0.743886
0.74389
0.743936
0.743913
0.743902
0.743906
0.743912
0.743943
0.744042
0.744257
0.744654
0.745558
0.747129
0.749994
0.754391
0.761908
0.772149
0.787874
0.806697
0.831333
0.857736
0.885819
0.913472
0.934594
0.954631
0.965099
0.97523
0.979948
0.983714
0.987605
0.993894
0.998331
1.00166
1.00198
1.00161
1.00016
0.997858
0.9959
0.994363
0.994862
0.99598
0.99727
0.99774
0.997657
0.997429
0.997507
0.997876
0.998475
0.998481
0.998484
0.998232
0.997917
0.997971
0.998122
0.998316
0.998262
0.998108
0.997967
0.998094
0.998296
0.998454
0.99842
0.998344
0.998322
0.998355
0.998367
0.998341
0.998336
0.998443
0.998599
0.998738
0.998836
0.998964
0.999074
0.99913
0.999159
0.9991
0.998946
0.998833
0.99878
0.744064
0.74406
0.744055
0.744048
0.744043
0.744038
0.744033
0.74403
0.744025
0.744019
0.744013
0.744007
0.743999
0.743995
0.74399
0.743979
0.743966
0.743946
0.743927
0.743912
0.743892
0.743863
0.743838
0.743816
0.743793
0.743777
0.743768
0.743762
0.743771
0.743815
0.743952
0.743934
0.743926
0.743977
0.744124
0.744496
0.745406
0.747446
0.751011
0.757891
0.768009
0.784704
0.805254
0.833053
0.862762
0.893253
0.922969
0.945616
0.967871
0.981175
0.989509
0.993427
0.997098
0.9979
0.996465
0.993272
0.993832
0.995421
0.997358
0.998949
0.998644
0.997315
0.996279
0.995734
0.995958
0.996875
0.998151
0.998989
0.998741
0.998092
0.997633
0.997766
0.998146
0.998379
0.998352
0.998223
0.998113
0.998166
0.998267
0.998298
0.99836
0.998418
0.998439
0.998396
0.99836
0.998382
0.998419
0.998463
0.998509
0.998584
0.99867
0.998748
0.998867
0.999021
0.999151
0.9992
0.999177
0.999023
0.998874
0.998794
0.743949
0.743942
0.743934
0.743928
0.743924
0.74392
0.743916
0.74391
0.743904
0.743901
0.743899
0.743888
0.743875
0.743868
0.743863
0.743858
0.74385
0.743844
0.743845
0.743833
0.743814
0.743803
0.743795
0.743789
0.743781
0.743774
0.743776
0.743768
0.743747
0.74373
0.743721
0.743733
0.743756
0.743793
0.743846
0.743994
0.743989
0.744018
0.744119
0.744414
0.745191
0.747167
0.750931
0.758795
0.770676
0.790811
0.815292
0.846689
0.879713
0.90941
0.937401
0.953223
0.968668
0.97574
0.981698
0.987439
0.995467
1.00063
1.0025
1.00205
1.00014
0.997145
0.99473
0.994737
0.995777
0.997343
0.998516
0.99836
0.998041
0.997428
0.997512
0.997988
0.998328
0.998217
0.998009
0.998032
0.998174
0.998417
0.998375
0.998226
0.998205
0.998305
0.998451
0.998419
0.998357
0.998372
0.998463
0.998592
0.998578
0.998579
0.998577
0.998601
0.99873
0.998911
0.999092
0.999199
0.999239
0.999126
0.99894
0.99882
0.743855
0.743851
0.743846
0.743842
0.74384
0.743836
0.74383
0.743827
0.743828
0.743822
0.74381
0.7438
0.743794
0.743794
0.743792
0.743781
0.743772
0.743768
0.74377
0.743762
0.743751
0.743744
0.74374
0.743738
0.743739
0.743742
0.743745
0.743745
0.743743
0.743736
0.743728
0.743727
0.743736
0.743754
0.743776
0.743812
0.743875
0.743948
0.744028
0.744195
0.744217
0.744263
0.744389
0.74476
0.745785
0.748543
0.75383
0.765012
0.781227
0.807609
0.83815
0.873591
0.908624
0.936453
0.964442
0.980239
0.990572
0.995065
0.998387
0.996959
0.993086
0.993466
0.994603
0.99646
0.998259
0.998052
0.997553
0.996459
0.996571
0.997017
0.99798
0.998586
0.99844
0.998072
0.997774
0.997952
0.998299
0.998551
0.998442
0.998257
0.998179
0.998277
0.998385
0.998418
0.998382
0.998431
0.998581
0.998672
0.998637
0.998576
0.998494
0.998491
0.998603
0.998821
0.999036
0.999187
0.999253
0.999194
0.999022
0.998851
0.74378
0.743778
0.743776
0.743773
0.743773
0.743771
0.743766
0.743763
0.743765
0.74376
0.743752
0.743748
0.743745
0.743738
0.743733
0.743731
0.743729
0.74373
0.74373
0.743726
0.743722
0.743721
0.743724
0.743732
0.743739
0.743748
0.743756
0.743762
0.743766
0.743772
0.743778
0.743788
0.743801
0.743822
0.743846
0.74387
0.743904
0.74395
0.744001
0.744062
0.74415
0.744241
0.744332
0.744493
0.744531
0.74461
0.744826
0.74559
0.747503
0.752549
0.761664
0.779988
0.804166
0.838328
0.875183
0.908469
0.940272
0.955847
0.97305
0.97893
0.987719
0.99419
1.0003
1.00107
1.00044
0.998483
0.994708
0.994832
0.995777
0.997544
0.998603
0.998278
0.997631
0.997548
0.997842
0.99844
0.99851
0.998391
0.998212
0.99823
0.998346
0.998377
0.998309
0.998324
0.998397
0.998552
0.998741
0.99873
0.998672
0.998557
0.998403
0.998404
0.998497
0.998706
0.99897
0.999176
0.999273
0.999247
0.999123
0.99891
0.743751
0.74375
0.74375
0.743751
0.743753
0.743754
0.743753
0.743752
0.743754
0.743753
0.74375
0.743749
0.743748
0.743749
0.74375
0.743754
0.743762
0.743769
0.743771
0.743775
0.743783
0.743796
0.743808
0.743818
0.743833
0.743853
0.743866
0.743877
0.743887
0.743897
0.743908
0.743922
0.743941
0.743964
0.743988
0.744014
0.744041
0.744067
0.744093
0.744117
0.744151
0.744193
0.744242
0.744297
0.744376
0.744459
0.744573
0.744653
0.744691
0.744849
0.745448
0.747479
0.752071
0.763215
0.780571
0.810512
0.845578
0.885053
0.923742
0.9523
0.979497
0.988869
0.996923
0.996945
0.994734
0.992067
0.993125
0.995477
0.998307
0.998457
0.997957
0.996467
0.99655
0.997267
0.99844
0.99884
0.998592
0.998055
0.997977
0.998256
0.998529
0.998445
0.998244
0.998259
0.998453
0.998715
0.998798
0.998753
0.998669
0.998525
0.998332
0.998344
0.998428
0.998609
0.998865
0.99916
0.999279
0.99927
0.999193
0.998976
0.743803
0.743806
0.743809
0.743814
0.743824
0.743828
0.743832
0.743839
0.743844
0.74385
0.743857
0.743864
0.743873
0.743887
0.743898
0.74391
0.743925
0.743937
0.74395
0.743965
0.743983
0.743996
0.744006
0.744022
0.744051
0.744065
0.744075
0.74409
0.744096
0.7441
0.744107
0.744118
0.744133
0.744144
0.744156
0.744167
0.744177
0.744186
0.744193
0.744201
0.744207
0.744216
0.744233
0.744252
0.74428
0.744314
0.744355
0.744391
0.744478
0.744516
0.744486
0.744486
0.744677
0.745464
0.747689
0.754039
0.765879
0.789937
0.820773
0.861326
0.90324
0.932606
0.96168
0.971099
0.979821
0.987259
0.996663
1.00071
1.00041
0.998646
0.994954
0.99506
0.996346
0.998259
0.998974
0.998636
0.997909
0.997735
0.998141
0.998628
0.998539
0.99831
0.9982
0.998359
0.998669
0.998847
0.998806
0.998742
0.998653
0.998481
0.998309
0.998327
0.998407
0.998547
0.998763
0.999078
0.999291
0.999291
0.999249
0.999053
0.743958
0.743968
0.743979
0.743991
0.743999
0.744009
0.744025
0.744041
0.744055
0.744071
0.744081
0.744091
0.744111
0.744131
0.744148
0.744164
0.744178
0.744198
0.744222
0.74423
0.744242
0.744256
0.744266
0.744284
0.744302
0.744307
0.744316
0.744324
0.744323
0.74432
0.744325
0.744327
0.744327
0.744327
0.744323
0.744316
0.744304
0.74429
0.744273
0.744257
0.744247
0.744241
0.744241
0.744243
0.74425
0.744259
0.744286
0.744313
0.744333
0.744346
0.744372
0.744397
0.744369
0.744334
0.744386
0.744694
0.745753
0.74939
0.757234
0.775717
0.802321
0.843239
0.887401
0.925902
0.96427
0.981184
0.991716
0.996347
0.994761
0.991108
0.992515
0.99577
0.998828
0.998969
0.998475
0.997084
0.997183
0.998001
0.998687
0.998646
0.998364
0.998107
0.998265
0.99863
0.998837
0.99881
0.99877
0.998724
0.998618
0.998428
0.998312
0.998336
0.9984
0.998491
0.998659
0.998933
0.999205
0.999276
0.999266
0.999118
0.744178
0.744186
0.744197
0.744213
0.744227
0.744244
0.744266
0.74428
0.744289
0.744301
0.744316
0.744334
0.744366
0.744381
0.744387
0.744397
0.744425
0.744443
0.744445
0.74445
0.744469
0.744482
0.744486
0.744494
0.744502
0.74451
0.744518
0.744518
0.744516
0.744514
0.744512
0.744508
0.7445
0.744491
0.74448
0.744463
0.744439
0.744409
0.744377
0.744345
0.744315
0.744296
0.744283
0.744272
0.744263
0.744261
0.744267
0.744275
0.744276
0.744278
0.744294
0.744313
0.744309
0.744303
0.744276
0.744233
0.744226
0.744352
0.744891
0.746975
0.752254
0.766537
0.789417
0.828655
0.873669
0.913151
0.948258
0.964329
0.976635
0.984896
0.996239
1.00084
1.00042
0.998613
0.99554
0.995846
0.997496
0.998995
0.998852
0.998145
0.997867
0.998196
0.998779
0.998906
0.998796
0.998733
0.998758
0.99872
0.998525
0.998372
0.998364
0.998411
0.998431
0.998471
0.998588
0.998794
0.999062
0.999245
0.999281
0.999184
0.74438
0.744387
0.744396
0.744409
0.744419
0.744431
0.744445
0.744448
0.744452
0.744462
0.74448
0.744498
0.744505
0.74451
0.744518
0.744534
0.744553
0.744554
0.744549
0.744553
0.744565
0.744576
0.744584
0.74459
0.744597
0.744607
0.744617
0.744626
0.744633
0.744639
0.744641
0.74464
0.744636
0.74463
0.744617
0.744599
0.744574
0.744542
0.744506
0.744468
0.744431
0.744398
0.74437
0.744344
0.744319
0.744297
0.744282
0.744271
0.74426
0.74425
0.744248
0.744258
0.744259
0.74425
0.744228
0.744197
0.744165
0.744128
0.744113
0.744164
0.744446
0.745745
0.749479
0.760829
0.781002
0.819104
0.864447
0.908271
0.953456
0.977187
0.991221
0.996405
0.994484
0.991559
0.993456
0.997083
0.999439
0.998981
0.997628
0.997321
0.997791
0.998749
0.999028
0.99887
0.998652
0.998729
0.998765
0.998645
0.998383
0.998371
0.998443
0.998462
0.998433
0.998451
0.99853
0.998662
0.998881
0.999154
0.999273
0.999227
0.744511
0.744509
0.744509
0.74451
0.744514
0.744523
0.744528
0.744528
0.744531
0.74454
0.744561
0.744568
0.744565
0.744567
0.744578
0.744586
0.744589
0.744593
0.744599
0.744606
0.744612
0.744619
0.744626
0.744631
0.744637
0.744646
0.744657
0.744668
0.744674
0.744679
0.744687
0.744699
0.744706
0.744706
0.744702
0.744694
0.74468
0.74466
0.744635
0.744607
0.744576
0.744542
0.744506
0.744467
0.744423
0.744372
0.744324
0.744287
0.744263
0.744244
0.744232
0.744227
0.744225
0.744217
0.744198
0.744169
0.744137
0.744092
0.744034
0.744016
0.744008
0.744045
0.74424
0.745139
0.747952
0.757547
0.775908
0.812665
0.858304
0.903258
0.944147
0.962802
0.976679
0.985921
0.998047
1.00085
0.99978
0.996125
0.996156
0.997049
0.998834
0.999349
0.99899
0.9985
0.998656
0.998879
0.998747
0.998438
0.998336
0.998454
0.998572
0.99852
0.998457
0.998476
0.998511
0.998567
0.998721
0.999011
0.999252
0.999256
0.744563
0.74456
0.744557
0.744553
0.744549
0.744549
0.744548
0.744547
0.744548
0.744552
0.744556
0.744555
0.744552
0.74455
0.744547
0.744543
0.74454
0.744539
0.744541
0.744543
0.744544
0.744544
0.744546
0.74455
0.744558
0.744569
0.744583
0.744598
0.744611
0.744626
0.744644
0.744665
0.744683
0.744694
0.744699
0.744699
0.744692
0.744682
0.744675
0.744668
0.744656
0.744638
0.744614
0.74458
0.744531
0.744464
0.744384
0.744316
0.744273
0.744245
0.74423
0.74422
0.744215
0.74421
0.744197
0.744175
0.744149
0.744115
0.744064
0.744002
0.743965
0.743966
0.743997
0.744078
0.744237
0.744911
0.747225
0.755802
0.77323
0.810543
0.857031
0.905292
0.954832
0.978504
0.992798
0.996205
0.991601
0.99208
0.995292
0.999064
0.999658
0.999065
0.997955
0.998237
0.998965
0.998903
0.998608
0.998262
0.998395
0.998581
0.998565
0.998502
0.99848
0.998519
0.998501
0.998496
0.9986
0.998852
0.99915
0.999258
0.744561
0.744554
0.744553
0.744557
0.744559
0.744556
0.74455
0.744546
0.744543
0.74454
0.744538
0.744533
0.744522
0.744513
0.744505
0.744495
0.744485
0.744475
0.744468
0.744463
0.744459
0.744456
0.744457
0.74446
0.744466
0.744477
0.74449
0.744503
0.744516
0.744533
0.744553
0.744578
0.744603
0.744623
0.744636
0.744643
0.744648
0.744654
0.744659
0.744663
0.744663
0.744657
0.744647
0.744624
0.744583
0.744523
0.744437
0.744348
0.744293
0.744258
0.744238
0.74423
0.744224
0.744216
0.74421
0.744208
0.744198
0.744176
0.744139
0.744088
0.744043
0.744024
0.744031
0.744065
0.744165
0.744198
0.744267
0.744777
0.746871
0.755198
0.772947
0.811049
0.859304
0.907308
0.948238
0.966391
0.978584
0.992119
1.00041
1.00026
0.998812
0.996695
0.997337
0.999145
0.999319
0.99882
0.998097
0.998253
0.998661
0.998684
0.99856
0.998489
0.998562
0.998578
0.998485
0.998457
0.998533
0.998714
0.998984
0.999226
0.744527
0.744525
0.744525
0.744528
0.744531
0.74453
0.744526
0.744522
0.744519
0.744517
0.744515
0.744511
0.744505
0.744497
0.744488
0.744479
0.744468
0.744455
0.744445
0.744438
0.744427
0.74442
0.744419
0.744417
0.744416
0.744421
0.744427
0.74443
0.744432
0.744436
0.744446
0.744461
0.744477
0.744495
0.744506
0.74451
0.744512
0.744515
0.74452
0.744529
0.744541
0.744548
0.744544
0.74453
0.744508
0.744475
0.744417
0.74435
0.744313
0.744281
0.744251
0.744239
0.74424
0.744238
0.744233
0.744235
0.744242
0.744234
0.74422
0.744209
0.744198
0.744182
0.744179
0.744171
0.74415
0.74414
0.744165
0.744181
0.744255
0.744773
0.746985
0.755656
0.774777
0.815478
0.865317
0.917196
0.964522
0.985535
0.996535
0.995087
0.991481
0.994322
0.99852
0.999909
0.999206
0.997568
0.997799
0.998762
0.998808
0.998568
0.9984
0.998537
0.998652
0.998583
0.998449
0.998463
0.99853
0.998626
0.998785
0.999126
0.744511
0.74451
0.74451
0.744512
0.744513
0.744512
0.744512
0.744512
0.744511
0.744511
0.74451
0.744507
0.744503
0.7445
0.744497
0.744491
0.744484
0.744476
0.744468
0.744457
0.744443
0.744435
0.74443
0.744424
0.744418
0.744409
0.744401
0.744393
0.744382
0.74437
0.744365
0.744359
0.744352
0.744349
0.744347
0.744336
0.74433
0.744327
0.744327
0.744333
0.744344
0.74436
0.744384
0.744401
0.744396
0.74438
0.744355
0.744326
0.744317
0.744314
0.744296
0.744273
0.744259
0.744249
0.744239
0.744236
0.744241
0.744248
0.744263
0.744289
0.744325
0.744349
0.744353
0.744331
0.744251
0.744154
0.744117
0.744131
0.744215
0.744294
0.7444
0.74496
0.747463
0.757011
0.778879
0.822071
0.875824
0.922886
0.958831
0.973363
0.985247
0.999447
1.00043
0.999278
0.996393
0.996855
0.998769
0.999494
0.998874
0.998112
0.99832
0.998717
0.998675
0.998504
0.998442
0.998516
0.998551
0.998572
0.998718
0.999016
0.744511
0.744512
0.744512
0.744512
0.744512
0.744513
0.744512
0.744512
0.744512
0.744513
0.744514
0.744516
0.744518
0.74452
0.744522
0.744521
0.744519
0.744515
0.744509
0.744499
0.744491
0.744484
0.744477
0.744472
0.744465
0.744453
0.744434
0.744408
0.744377
0.744352
0.744331
0.744306
0.74428
0.744254
0.744221
0.74419
0.744179
0.744173
0.744165
0.744161
0.744163
0.744173
0.744189
0.744203
0.744224
0.744247
0.744267
0.744289
0.744324
0.74438
0.744417
0.74442
0.744411
0.744383
0.744337
0.744275
0.744232
0.744223
0.74423
0.744261
0.744321
0.744398
0.744446
0.744444
0.744388
0.744267
0.744195
0.744201
0.744267
0.744383
0.744464
0.744459
0.744514
0.74513
0.748277
0.759464
0.786026
0.83334
0.888112
0.943436
0.977309
0.993909
0.995775
0.991004
0.993428
0.998241
1.00022
0.999343
0.997623
0.997861
0.99877
0.998774
0.998569
0.998394
0.998512
0.998608
0.998549
0.998552
0.998643
0.998899
0.74451
0.744512
0.744514
0.744515
0.744516
0.744517
0.744519
0.74452
0.74452
0.744521
0.744522
0.744526
0.744534
0.744536
0.744532
0.744528
0.744523
0.744515
0.744505
0.744493
0.744486
0.744485
0.744486
0.744486
0.744483
0.744475
0.744454
0.74442
0.744395
0.744376
0.744353
0.744322
0.744285
0.744241
0.744182
0.744137
0.744118
0.744108
0.744098
0.744089
0.744085
0.744089
0.744098
0.744103
0.744112
0.744138
0.744185
0.744251
0.744332
0.744432
0.744529
0.744567
0.744569
0.744555
0.744495
0.744377
0.744237
0.744171
0.744164
0.744171
0.744217
0.744329
0.744447
0.744489
0.744467
0.744392
0.744334
0.744349
0.744428
0.744527
0.744552
0.744538
0.744508
0.744468
0.744561
0.745428
0.74988
0.763626
0.796458
0.847733
0.904378
0.945505
0.969208
0.981042
0.997773
1.00112
0.999706
0.99645
0.996942
0.998868
0.999344
0.998786
0.998142
0.998373
0.998727
0.998675
0.998532
0.998548
0.998613
0.998779
0.744276
0.744267
0.744253
0.744246
0.744241
0.744238
0.744238
0.744241
0.744246
0.744251
0.744256
0.744263
0.744272
0.744283
0.744294
0.744302
0.74431
0.744325
0.744349
0.744382
0.744413
0.744433
0.744446
0.744453
0.74445
0.744443
0.744437
0.744434
0.74443
0.744432
0.744438
0.744441
0.744439
0.744425
0.744395
0.744364
0.744339
0.744311
0.744275
0.744226
0.744171
0.74413
0.744105
0.744089
0.74409
0.744115
0.744171
0.744249
0.744338
0.744432
0.744527
0.744606
0.744632
0.744619
0.744563
0.744449
0.744286
0.744139
0.744089
0.744087
0.74412
0.744218
0.744357
0.744468
0.744498
0.744481
0.744466
0.744492
0.744562
0.744627
0.744648
0.744633
0.744567
0.744474
0.744465
0.744499
0.74474
0.746192
0.752376
0.771048
0.811192
0.865087
0.926604
0.969122
0.992218
0.996454
0.99086
0.993268
0.99816
1.00005
0.999223
0.997618
0.997909
0.998772
0.99876
0.998633
0.998509
0.998621
0.998619
0.998647
0.74404
0.744024
0.744004
0.743998
0.743989
0.74398
0.74398
0.743985
0.743995
0.744003
0.744009
0.744014
0.744022
0.744034
0.744049
0.744061
0.744075
0.744091
0.744102
0.744117
0.744143
0.744174
0.744209
0.744245
0.744283
0.744333
0.744385
0.744417
0.744444
0.744479
0.744524
0.744574
0.744626
0.744667
0.744688
0.744691
0.744689
0.744678
0.744646
0.744596
0.744534
0.744454
0.744355
0.744258
0.744206
0.744205
0.744224
0.744272
0.744348
0.744432
0.744513
0.744591
0.744625
0.744606
0.744545
0.744453
0.744343
0.744205
0.744093
0.744066
0.744079
0.744156
0.744285
0.744404
0.744494
0.74453
0.744539
0.744571
0.744626
0.74466
0.744664
0.74465
0.744601
0.744529
0.744496
0.744519
0.744597
0.744722
0.745145
0.747496
0.756275
0.782297
0.828363
0.887812
0.938333
0.964841
0.978937
0.996971
1.0007
0.999423
0.996447
0.99706
0.998931
0.99921
0.998732
0.998408
0.998598
0.998801
0.998653
0.99852
0.743895
0.743877
0.743857
0.743859
0.743861
0.74385
0.743849
0.743857
0.743876
0.743899
0.743911
0.743914
0.743921
0.743935
0.743954
0.743977
0.744001
0.744022
0.744034
0.744059
0.744098
0.744128
0.744161
0.744203
0.744239
0.744272
0.744305
0.744347
0.744406
0.744482
0.744551
0.744608
0.744663
0.744717
0.744763
0.744801
0.744816
0.744811
0.744788
0.744774
0.744761
0.74472
0.744637
0.744522
0.744397
0.744304
0.744281
0.744293
0.744325
0.744357
0.744392
0.744432
0.744467
0.744485
0.74447
0.744456
0.744438
0.744394
0.744307
0.744234
0.744226
0.744255
0.744299
0.744347
0.744426
0.744507
0.74455
0.744582
0.744616
0.74463
0.744627
0.744612
0.74459
0.744559
0.744561
0.744604
0.744701
0.744808
0.744831
0.744918
0.745546
0.749465
0.762708
0.7984
0.850977
0.913947
0.965615
0.990299
0.996475
0.99052
0.993192
0.998229
0.999828
0.999105
0.997858
0.998264
0.998887
0.998831
0.998392
0.998434
0.744217
0.744214
0.744188
0.744158
0.744157
0.744166
0.744164
0.744155
0.744161
0.744186
0.7442
0.7442
0.744188
0.744186
0.744191
0.744181
0.744161
0.744152
0.744138
0.744141
0.744156
0.744166
0.744189
0.744231
0.744255
0.744286
0.744331
0.744373
0.744423
0.744497
0.74457
0.744608
0.744641
0.744678
0.74472
0.744751
0.744756
0.744742
0.744713
0.744697
0.7447
0.744709
0.744681
0.74461
0.744537
0.744447
0.744388
0.744372
0.744352
0.744335
0.744319
0.744294
0.74425
0.744251
0.74429
0.744391
0.744494
0.744583
0.744624
0.74462
0.744604
0.744543
0.744412
0.744356
0.744357
0.744416
0.744496
0.744559
0.744593
0.744602
0.744601
0.744587
0.744573
0.744576
0.744609
0.744682
0.744779
0.744831
0.744824
0.744777
0.744675
0.74482
0.746184
0.752964
0.774024
0.818721
0.880867
0.931134
0.964649
0.978687
0.997258
1.00042
0.999211
0.99676
0.997543
0.999202
0.99917
0.998536
0.998206
0.998469
0.744805
0.74482
0.744831
0.744825
0.74481
0.744806
0.744821
0.744836
0.744827
0.744821
0.744824
0.744811
0.744775
0.744769
0.744753
0.744685
0.744669
0.744669
0.744647
0.744615
0.744582
0.74455
0.744526
0.744502
0.744465
0.744453
0.744452
0.744433
0.744428
0.744452
0.744456
0.74442
0.744344
0.744315
0.744305
0.7443
0.744299
0.744298
0.744297
0.744311
0.744362
0.744426
0.744499
0.744558
0.744581
0.744599
0.744679
0.744742
0.74473
0.744648
0.744473
0.744273
0.744169
0.74417
0.744261
0.744404
0.744493
0.744592
0.744737
0.744808
0.744814
0.744747
0.744501
0.744335
0.744317
0.74435
0.74444
0.744546
0.744609
0.744633
0.744645
0.744655
0.744649
0.744654
0.74468
0.744713
0.744765
0.744758
0.744727
0.74466
0.744563
0.744527
0.744566
0.745058
0.748012
0.759795
0.791995
0.845181
0.911361
0.963233
0.991483
0.99566
0.990766
0.994149
0.99886
0.999759
0.999027
0.997816
0.998081
0.998823
0.744896
0.744907
0.74493
0.744953
0.744958
0.744958
0.744952
0.744941
0.744945
0.744965
0.744977
0.744959
0.744914
0.744888
0.744899
0.744919
0.744903
0.74485
0.744861
0.744938
0.744957
0.744948
0.744912
0.744867
0.744819
0.744757
0.744685
0.74461
0.744525
0.74443
0.744334
0.744221
0.744093
0.743983
0.743898
0.743846
0.74384
0.743848
0.743873
0.743901
0.743916
0.743981
0.744162
0.744386
0.74457
0.744799
0.7451
0.745302
0.745317
0.745238
0.744981
0.744641
0.744335
0.744204
0.744249
0.744347
0.744387
0.744451
0.744623
0.744825
0.744861
0.744783
0.744524
0.744326
0.744307
0.744345
0.744465
0.744631
0.744721
0.744767
0.744795
0.74479
0.744768
0.744734
0.744698
0.74469
0.744647
0.744611
0.744595
0.744572
0.744527
0.744537
0.744593
0.744653
0.744845
0.746007
0.751766
0.772083
0.815096
0.878317
0.934105
0.964121
0.980154
0.999096
1.00041
0.999213
0.997075
0.997595
0.99888
0.999086
0.744398
0.744413
0.744434
0.744466
0.744509
0.744569
0.744664
0.744787
0.744818
0.744817
0.744836
0.744847
0.74483
0.744825
0.744858
0.744941
0.744963
0.744939
0.744951
0.745082
0.745152
0.745153
0.745142
0.745152
0.745152
0.745094
0.744966
0.744856
0.744771
0.744672
0.744553
0.744401
0.744212
0.744055
0.743939
0.743834
0.743795
0.743822
0.743865
0.743859
0.74383
0.743891
0.744137
0.744429
0.744709
0.745031
0.745332
0.745529
0.745541
0.74542
0.745137
0.744893
0.744661
0.74442
0.744338
0.744303
0.744238
0.744227
0.744341
0.744552
0.744623
0.744589
0.744468
0.744365
0.74439
0.744486
0.744662
0.744839
0.744923
0.744924
0.744895
0.744853
0.744804
0.74475
0.744678
0.744568
0.744508
0.744508
0.744521
0.74454
0.744576
0.744624
0.744688
0.744737
0.744763
0.744777
0.745131
0.747838
0.758838
0.792144
0.84594
0.91525
0.966569
0.994376
0.994777
0.992161
0.995024
0.998586
0.999475
0.999037
0.743328
0.74334
0.743369
0.743404
0.74345
0.743515
0.743571
0.743636
0.743721
0.743766
0.743795
0.743841
0.743914
0.743994
0.74409
0.744252
0.744396
0.744485
0.744612
0.744816
0.744942
0.745025
0.745123
0.745164
0.745204
0.745223
0.745148
0.744986
0.744971
0.744972
0.744962
0.744949
0.744929
0.744929
0.744935
0.744904
0.7448
0.744679
0.744528
0.744256
0.744087
0.744116
0.744343
0.744647
0.744874
0.745086
0.745295
0.745451
0.745433
0.745231
0.744999
0.744909
0.744796
0.744611
0.744476
0.744343
0.744216
0.744182
0.744242
0.744386
0.744448
0.744432
0.744415
0.744438
0.744576
0.744765
0.744932
0.745039
0.745044
0.745005
0.744904
0.744781
0.744658
0.744557
0.744489
0.744471
0.744456
0.744479
0.744566
0.744692
0.744774
0.744776
0.744768
0.744742
0.744648
0.744541
0.744552
0.744749
0.74596
0.751932
0.773131
0.819671
0.884156
0.940043
0.966355
0.984194
0.998989
0.999836
0.998916
0.998247
0.742853
0.742884
0.742933
0.742985
0.743026
0.743073
0.743124
0.743172
0.743228
0.743299
0.743392
0.743507
0.743631
0.743754
0.743875
0.744038
0.744255
0.744498
0.744732
0.744913
0.745064
0.74518
0.745268
0.74526
0.745203
0.74521
0.745173
0.745026
0.744976
0.744927
0.744887
0.744914
0.745094
0.745382
0.745549
0.745582
0.745572
0.745468
0.74519
0.744797
0.744573
0.744571
0.744706
0.74485
0.744853
0.744877
0.74491
0.744863
0.744697
0.744353
0.744231
0.744313
0.744452
0.744515
0.744466
0.744441
0.744465
0.744476
0.744527
0.74459
0.744582
0.744574
0.744538
0.744547
0.744704
0.744889
0.745023
0.745075
0.745029
0.744875
0.744622
0.744412
0.74429
0.744304
0.744374
0.744451
0.744544
0.744656
0.744848
0.744935
0.744919
0.744879
0.744728
0.744519
0.744465
0.744442
0.744489
0.744586
0.744738
0.74525
0.748229
0.760856
0.796994
0.854424
0.926869
0.971787
0.995067
0.993888
0.994685
0.997409
0.744215
0.744196
0.744148
0.744111
0.744087
0.744062
0.74404
0.74403
0.74404
0.744076
0.744138
0.744222
0.744347
0.744567
0.744799
0.745131
0.745473
0.745557
0.745585
0.745584
0.745542
0.745459
0.745344
0.745143
0.744784
0.74456
0.744541
0.744466
0.744244
0.744062
0.744052
0.744193
0.744502
0.744828
0.745055
0.745191
0.745202
0.745035
0.744819
0.744789
0.744703
0.744593
0.7446
0.744653
0.744646
0.744528
0.744389
0.744268
0.744072
0.743828
0.743732
0.743768
0.744008
0.744304
0.744469
0.74468
0.744976
0.745186
0.745224
0.745168
0.745031
0.744843
0.744651
0.7446
0.744624
0.744712
0.744847
0.744886
0.744781
0.744591
0.744396
0.744233
0.744211
0.744253
0.7444
0.744632
0.744797
0.744942
0.745042
0.745043
0.744997
0.744793
0.744509
0.744349
0.744368
0.744441
0.744569
0.74474
0.744824
0.744876
0.745024
0.746346
0.75317
0.778509
0.830254
0.893004
0.952215
0.970482
0.989996
0.998757
0.746155
0.74611
0.746062
0.745994
0.745901
0.745803
0.745718
0.745635
0.745547
0.745531
0.74557
0.745641
0.745728
0.745859
0.746094
0.74622
0.746236
0.746234
0.746171
0.745966
0.74559
0.745066
0.744478
0.744148
0.743901
0.743507
0.743201
0.743073
0.742918
0.742784
0.742792
0.742884
0.742991
0.743101
0.743236
0.743442
0.743736
0.743829
0.74394
0.744188
0.744401
0.74441
0.744382
0.744411
0.74439
0.744197
0.744064
0.744064
0.744031
0.743868
0.743746
0.743763
0.744035
0.744449
0.744613
0.744847
0.745159
0.745369
0.745361
0.745232
0.745052
0.744863
0.744612
0.744282
0.744109
0.744119
0.744195
0.744297
0.74439
0.744431
0.744425
0.744402
0.744441
0.744542
0.744716
0.744871
0.744974
0.74508
0.745054
0.744943
0.744773
0.744503
0.74435
0.744369
0.74442
0.744577
0.744826
0.744924
0.744915
0.744864
0.744717
0.744727
0.745264
0.749261
0.765023
0.80772
0.87089
0.93949
0.979873
0.99488
0.745519
0.745463
0.745369
0.745251