/*--------------------------------*- C++ -*----------------------------------*\
  =========                 |
  \\      /  F ield         | OpenFOAM: The Open Source CFD Toolbox
   \\    /   O peration     | Website:  https://openfoam.org
    \\  /    A nd           | Version:  7
     \\/     M anipulation  |
\*---------------------------------------------------------------------------*/
FoamFile
{
    version     2.0;
    format      ascii;
    class       volVectorField;
    location    "3.1";
    object      U;
}
// * * * * * * * * * * * * * * * * * * * * * * * * * * * * * * * * * * * * * //

dimensions      [0 1 -1 0 0 0 0];

internalField   nonuniform List<vector> 
11200
(
(2.58332 -0.7176 0)
(2.55819 -0.258491 0)
(2.58132 -0.0745071 0)
(2.5958 0.0308509 0)
(2.5928 0.229286 0)
(2.6201 0.195312 0)
(2.63595 0.266481 0)
(2.65479 0.295675 0)
(2.6602 0.259232 0)
(2.69291 0.257745 0)
(2.71969 0.231079 0)
(2.73129 0.170027 0)
(2.74044 0.0909568 0)
(2.76911 0.0596663 0)
(2.79978 0.0365461 0)
(2.81574 0.0610175 0)
(2.84587 0.118752 0)
(2.85429 0.128948 0)
(2.84439 0.106979 0)
(2.84875 0.0655575 0)
(2.85763 0.0324785 0)
(2.87369 0.0370925 0)
(2.88381 0.0554821 0)
(2.89487 0.0581599 0)
(2.88976 0.042004 0)
(2.893 0.0234026 0)
(2.88721 -0.00672584 0)
(2.89129 -0.0108729 0)
(2.77814 -0.0712433 0)
(2.64228 -0.107365 0)
(2.68156 -1.42674 0)
(2.69808 -1.42912 0)
(2.68558 -1.30211 0)
(2.6648 -1.16417 0)
(2.61574 -0.85214 0)
(2.6 -0.68996 0)
(2.56941 -0.433073 0)
(2.56422 -0.245838 0)
(2.5886 -0.194225 0)
(2.57936 -0.072653 0)
(2.60154 0.004395 0)
(2.62373 0.0109469 0)
(2.66697 -0.00781178 0)
(2.67296 0.000685862 0)
(2.68099 0.0238392 0)
(2.67703 0.0601712 0)
(2.70384 0.0591483 0)
(2.70626 0.0503108 0)
(2.6942 0.0608019 0)
(2.71527 0.0569749 0)
(2.73417 0.0476328 0)
(2.75713 0.0351176 0)
(2.76396 0.0363529 0)
(2.76752 0.0399492 0)
(2.76628 0.0301967 0)
(2.77131 0.019986 0)
(2.76827 0.000893841 0)
(2.7625 -0.00939175 0)
(2.67172 -0.0663999 0)
(2.53436 -0.0911781 0)
(2.83369 -1.53738 0)
(2.87834 -1.54779 0)
(2.92634 -1.59446 0)
(2.94666 -1.61441 0)
(2.97486 -1.62113 0)
(2.99113 -1.64658 0)
(2.98257 -1.5993 0)
(2.94371 -1.43971 0)
(2.88612 -1.23985 0)
(2.78416 -0.942327 0)
(2.70721 -0.603835 0)
(2.65627 -0.308764 0)
(2.6754 -0.118948 0)
(2.59789 0.0831757 0)
(2.58201 0.179322 0)
(2.58242 0.15627 0)
(2.60533 0.10999 0)
(2.62624 0.0684474 0)
(2.64359 0.0472386 0)
(2.66931 0.0358752 0)
(2.69781 0.0430036 0)
(2.70812 0.0489255 0)
(2.7142 0.0404041 0)
(2.71441 0.0267048 0)
(2.71586 0.0104742 0)
(2.72403 -0.000585747 0)
(2.72164 -0.0161374 0)
(2.70775 -0.0193281 0)
(2.62595 -0.0644946 0)
(2.48832 -0.0859877 0)
(2.9661 -1.62211 0)
(2.98785 -1.63396 0)
(3.00507 -1.65129 0)
(3.02368 -1.65973 0)
(3.03559 -1.66938 0)
(3.05006 -1.66142 0)
(3.06015 -1.67221 0)
(3.07169 -1.66089 0)
(3.08078 -1.65681 0)
(3.08098 -1.65853 0)
(3.07699 -1.65411 0)
(3.0273 -1.54711 0)
(2.94909 -1.27871 0)
(2.84988 -0.885506 0)
(2.82285 -0.543954 0)
(2.73417 -0.225166 0)
(2.727 -0.0876987 0)
(2.69864 0.00888932 0)
(2.71051 0.035655 0)
(2.71348 0.025345 0)
(2.71542 0.0357821 0)
(2.71152 0.0426394 0)
(2.69886 0.0348728 0)
(2.69976 0.0170018 0)
(2.71203 -0.00670264 0)
(2.72125 -0.0107646 0)
(2.7173 -0.0127926 0)
(2.6956 -0.0170554 0)
(2.61337 -0.0463311 0)
(2.47659 -0.0630851 0)
(3.03992 -1.64298 0)
(3.04874 -1.6456 0)
(3.0568 -1.64444 0)
(3.06189 -1.64821 0)
(3.06807 -1.64479 0)
(3.07182 -1.64157 0)
(3.07644 -1.64637 0)
(3.07838 -1.64959 0)
(3.08405 -1.65101 0)
(3.08473 -1.65494 0)
(3.07643 -1.65737 0)
(3.06448 -1.65841 0)
(3.06184 -1.65355 0)
(3.0614 -1.64799 0)
(3.05253 -1.60236 0)
(2.9697 -1.26509 0)
(2.88691 -0.752866 0)
(2.85466 -0.401336 0)
(2.81854 -0.126147 0)
(2.83068 -0.0824725 0)
(2.75682 0.0338543 0)
(2.72054 0.0508911 0)
(2.69296 0.0288681 0)
(2.72175 0.0261671 0)
(2.73905 -0.00866008 0)
(2.74356 -0.0132447 0)
(2.73456 -0.0169094 0)
(2.70745 -0.0312775 0)
(2.62144 -0.0317469 0)
(2.48614 -0.0395842 0)
(3.0598 -1.62928 0)
(3.06456 -1.63141 0)
(3.06851 -1.63282 0)
(3.07186 -1.63251 0)
(3.07472 -1.63574 0)
(3.07541 -1.64276 0)
(3.07487 -1.64735 0)
(3.07623 -1.65495 0)
(3.07905 -1.66166 0)
(3.07623 -1.65882 0)
(3.06179 -1.65451 0)
(3.05636 -1.65249 0)
(3.05299 -1.64777 0)
(3.05515 -1.64403 0)
(3.0599 -1.64879 0)
(3.0651 -1.65415 0)
(3.07051 -1.65181 0)
(3.04555 -1.55013 0)
(3.00047 -1.25909 0)
(2.97131 -0.873673 0)
(2.88868 -0.453684 0)
(2.84549 -0.226678 0)
(2.80805 -0.0630875 0)
(2.78078 0.0188716 0)
(2.76504 0.00548424 0)
(2.7823 0.0127107 0)
(2.77919 0.00341351 0)
(2.75524 -0.0234006 0)
(2.65722 -0.0340103 0)
(2.52201 -0.04228 0)
(3.06115 -1.63092 0)
(3.06583 -1.63402 0)
(3.06957 -1.63743 0)
(3.06948 -1.64099 0)
(3.07091 -1.6489 0)
(3.06835 -1.65781 0)
(3.0649 -1.66528 0)
(3.0624 -1.67186 0)
(3.06835 -1.66973 0)
(3.06854 -1.66022 0)
(3.05407 -1.65067 0)
(3.04804 -1.649 0)
(3.04643 -1.64421 0)
(3.05095 -1.64247 0)
(3.06007 -1.64909 0)
(3.06197 -1.6523 0)
(3.06389 -1.64364 0)
(3.05877 -1.64137 0)
(3.05996 -1.6469 0)
(3.07397 -1.61262 0)
(3.06894 -1.46093 0)
(3.01903 -1.10818 0)
(2.98278 -0.672689 0)
(2.91225 -0.350515 0)
(2.9014 -0.148098 0)
(2.8307 -0.00668655 0)
(2.809 0.0250226 0)
(2.8558 0.00401581 0)
(2.70289 -0.0243882 0)
(2.57865 -0.0300166 0)
(3.06135 -1.64254 0)
(3.06178 -1.64371 0)
(3.06251 -1.64474 0)
(3.06142 -1.65058 0)
(3.05927 -1.65365 0)
(3.05874 -1.65981 0)
(3.0564 -1.66546 0)
(3.05628 -1.66828 0)
(3.05922 -1.66685 0)
(3.06284 -1.65373 0)
(3.05363 -1.63764 0)
(3.04717 -1.63506 0)
(3.04351 -1.63676 0)
(3.04958 -1.63777 0)
(3.06539 -1.63595 0)
(3.07233 -1.62995 0)
(3.06833 -1.62675 0)
(3.06265 -1.60747 0)
(3.06032 -1.61312 0)
(3.0784 -1.56167 0)
(3.08984 -1.54648 0)
(3.1015 -1.52452 0)
(3.11055 -1.51021 0)
(3.08921 -1.2794 0)
(3.05164 -0.851515 0)
(2.97142 -0.45887 0)
(2.93156 -0.199078 0)
(2.96828 -0.0874805 0)
(2.7449 0.0266729 0)
(2.62105 0.00437156 0)
(3.05759 -1.64993 0)
(3.06116 -1.65058 0)
(3.05913 -1.65369 0)
(3.05684 -1.65388 0)
(3.05489 -1.65426 0)
(3.04424 -1.66183 0)
(3.03933 -1.66341 0)
(3.04642 -1.65565 0)
(3.05083 -1.65098 0)
(3.05668 -1.6306 0)
(3.05306 -1.59686 0)
(3.04445 -1.58845 0)
(3.04201 -1.60377 0)
(3.053 -1.58216 0)
(3.08424 -1.54395 0)
(3.10078 -1.54462 0)
(3.11027 -1.52907 0)
(3.10251 -1.53599 0)
(3.10156 -1.53179 0)
(3.09876 -1.54355 0)
(3.1018 -1.48888 0)
(3.09984 -1.47196 0)
(3.10282 -1.44886 0)
(3.1253 -1.42193 0)
(3.13775 -1.39768 0)
(3.12897 -1.26177 0)
(3.09005 -0.921213 0)
(3.09049 -0.61464 0)
(2.91352 -0.103997 0)
(2.62185 -0.00533895 0)
(3.04175 -1.65695 0)
(3.04568 -1.64111 0)
(3.04522 -1.6269 0)
(3.04504 -1.62575 0)
(3.04389 -1.62689 0)
(3.0436 -1.62855 0)
(3.04697 -1.63307 0)
(3.05254 -1.63112 0)
(3.05603 -1.62568 0)
(3.05973 -1.60307 0)
(3.07348 -1.5568 0)
(3.0799 -1.54246 0)
(3.06569 -1.55803 0)
(3.06409 -1.54931 0)
(3.08089 -1.52027 0)
(3.10081 -1.50838 0)
(3.11437 -1.48714 0)
(3.12754 -1.46347 0)
(3.13493 -1.43315 0)
(3.1423 -1.40634 0)
(3.1348 -1.40927 0)
(3.12759 -1.40848 0)
(3.12351 -1.40789 0)
(3.11675 -1.40465 0)
(3.12205 -1.35133 0)
(3.15277 -1.34491 0)
(3.16665 -1.32182 0)
(3.16411 -1.27753 0)
(3.17424 -0.820058 0)
(2.67752 -0.0796729 0)
(3.04118 -1.57447 0)
(3.03969 -1.57636 0)
(3.03979 -1.58293 0)
(3.04335 -1.58229 0)
(3.04953 -1.58298 0)
(3.05902 -1.57934 0)
(3.07285 -1.56178 0)
(3.08222 -1.54942 0)
(3.08064 -1.53634 0)
(3.08083 -1.52899 0)
(3.08856 -1.5178 0)
(3.08572 -1.52053 0)
(3.07435 -1.54129 0)
(3.07269 -1.51349 0)
(3.08633 -1.47328 0)
(3.10107 -1.46313 0)
(3.10894 -1.44779 0)
(3.11453 -1.42725 0)
(3.12685 -1.39338 0)
(3.14416 -1.36402 0)
(3.15426 -1.34636 0)
(3.15769 -1.32262 0)
(3.16229 -1.29157 0)
(3.14921 -1.28234 0)
(3.13431 -1.3163 0)
(3.13637 -1.27787 0)
(3.15735 -1.2422 0)
(3.18056 -1.22708 0)
(3.18637 -1.25327 0)
(2.779 -0.280585 0)
(3.065 -1.50793 0)
(3.06939 -1.49083 0)
(3.07424 -1.47682 0)
(3.07686 -1.45062 0)
(3.08654 -1.42657 0)
(3.08993 -1.41811 0)
(3.09664 -1.40606 0)
(3.10504 -1.40069 0)
(3.1077 -1.41925 0)
(3.10887 -1.42373 0)
(3.11404 -1.41612 0)
(3.12215 -1.3962 0)
(3.1206 -1.39264 0)
(3.11368 -1.39146 0)
(3.11602 -1.3894 0)
(3.12529 -1.38092 0)
(3.12887 -1.3665 0)
(3.12182 -1.36204 0)
(3.12034 -1.35105 0)
(3.1309 -1.32385 0)
(3.14517 -1.3025 0)
(3.15313 -1.28298 0)
(3.16584 -1.26492 0)
(3.16948 -1.24111 0)
(3.16866 -1.21495 0)
(3.15203 -1.22357 0)
(3.15803 -1.20477 0)
(3.1748 -1.18768 0)
(3.1811 -1.16106 0)
(3.07348 -0.767965 0)
(3.08364 -1.42081 0)
(3.08097 -1.41461 0)
(3.07991 -1.40764 0)
(3.08088 -1.40481 0)
(3.08825 -1.39553 0)
(3.09248 -1.39933 0)
(3.08987 -1.42127 0)
(3.09457 -1.42553 0)
(3.10312 -1.40522 0)
(3.10463 -1.39775 0)
(3.11153 -1.3665 0)
(3.12986 -1.32125 0)
(3.13703 -1.30896 0)
(3.13698 -1.30059 0)
(3.14341 -1.2865 0)
(3.14842 -1.27649 0)
(3.15391 -1.26576 0)
(3.14816 -1.26521 0)
(3.14235 -1.26223 0)
(3.14291 -1.24911 0)
(3.14362 -1.24556 0)
(3.14591 -1.22943 0)
(3.15585 -1.21243 0)
(3.16527 -1.18902 0)
(3.17344 -1.18128 0)
(3.17404 -1.15925 0)
(3.17232 -1.14223 0)
(3.17601 -1.13371 0)
(3.18152 -1.13433 0)
(3.18296 -1.07556 0)
(3.10354 -1.32029 0)
(3.10205 -1.30976 0)
(3.10456 -1.29591 0)
(3.11496 -1.2788 0)
(3.11922 -1.25689 0)
(3.13647 -1.23298 0)
(3.1488 -1.22751 0)
(3.14517 -1.23511 0)
(3.13655 -1.24176 0)
(3.13311 -1.24357 0)
(3.13616 -1.24364 0)
(3.13886 -1.2433 0)
(3.14019 -1.24417 0)
(3.13951 -1.24478 0)
(3.13871 -1.21542 0)
(3.15161 -1.20078 0)
(3.15923 -1.17717 0)
(3.16101 -1.16781 0)
(3.16425 -1.15387 0)
(3.16645 -1.14715 0)
(3.16259 -1.14555 0)
(3.15528 -1.15427 0)
(3.15538 -1.15032 0)
(3.16173 -1.12822 0)
(3.17216 -1.10978 0)
(3.17909 -1.10429 0)
(3.17919 -1.10375 0)
(3.18086 -1.0744 0)
(3.18508 -1.07117 0)
(3.19539 -1.06307 0)
(3.11687 -1.21844 0)
(3.11325 -1.2128 0)
(3.11734 -1.19877 0)
(3.12129 -1.18806 0)
(3.12962 -1.17157 0)
(3.14537 -1.15876 0)
(3.15401 -1.16191 0)
(3.14988 -1.1769 0)
(3.14661 -1.179 0)
(3.14372 -1.17536 0)
(3.14298 -1.16881 0)
(3.15721 -1.13304 0)
(3.16485 -1.11435 0)
(3.15766 -1.11332 0)
(3.14772 -1.12649 0)
(3.15268 -1.13335 0)
(3.15503 -1.12666 0)
(3.15244 -1.10925 0)
(3.15869 -1.09259 0)
(3.16915 -1.07519 0)
(3.17409 -1.06301 0)
(3.17526 -1.05493 0)
(3.17174 -1.05354 0)
(3.16649 -1.05661 0)
(3.1714 -1.03693 0)
(3.18049 -1.02924 0)
(3.18443 -1.02557 0)
(3.18506 -1.02527 0)
(3.18708 -1.00723 0)
(3.19325 -1.00163 0)
(3.13789 -1.08889 0)
(3.13448 -1.08771 0)
(3.13201 -1.07798 0)
(3.13776 -1.05096 0)
(3.14078 -1.03983 0)
(3.15535 -1.02025 0)
(3.16674 -1.01328 0)
(3.16476 -1.01754 0)
(3.15933 -1.03953 0)
(3.15844 -1.05584 0)
(3.15605 -1.0442 0)
(3.15675 -1.02712 0)
(3.16093 -1.01763 0)
(3.16555 -1.01352 0)
(3.16401 -1.00731 0)
(3.16565 -0.993187 0)
(3.16483 -0.98983 0)
(3.16177 -0.998079 0)
(3.16174 -1.00591 0)
(3.16381 -1.00088 0)
(3.16947 -0.993619 0)
(3.17622 -0.980317 0)
(3.17826 -0.973271 0)
(3.17939 -0.96587 0)
(3.17863 -0.965548 0)
(3.18193 -0.96022 0)
(3.18659 -0.949625 0)
(3.19024 -0.945513 0)
(3.19021 -0.948815 0)
(3.19433 -0.943904 0)
(3.14832 -0.950683 0)
(3.14226 -0.953744 0)
(3.13777 -0.955939 0)
(3.1399 -0.945217 0)
(3.14922 -0.923528 0)
(3.15181 -0.909942 0)
(3.16146 -0.906133 0)
(3.16421 -0.909592 0)
(3.16031 -0.920484 0)
(3.15786 -0.934895 0)
(3.15875 -0.923547 0)
(3.16111 -0.917144 0)
(3.16394 -0.917668 0)
(3.16337 -0.920362 0)
(3.16077 -0.921468 0)
(3.16116 -0.914683 0)
(3.16409 -0.911861 0)
(3.17031 -0.905769 0)
(3.17343 -0.896573 0)
(3.17242 -0.894168 0)
(3.17159 -0.896507 0)
(3.17292 -0.900519 0)
(3.17635 -0.899356 0)
(3.18039 -0.893906 0)
(3.1846 -0.884221 0)
(3.18599 -0.882769 0)
(3.18673 -0.884879 0)
(3.19108 -0.882284 0)
(3.19382 -0.879788 0)
(3.20078 -0.874151 0)
(3.15334 -0.814847 0)
(3.14933 -0.819392 0)
(3.14476 -0.821757 0)
(3.1395 -0.815367 0)
(3.14657 -0.798802 0)
(3.1509 -0.774255 0)
(3.15534 -0.754648 0)
(3.162 -0.768694 0)
(3.15838 -0.793148 0)
(3.1598 -0.809433 0)
(3.15956 -0.805639 0)
(3.16195 -0.79417 0)
(3.16355 -0.785082 0)
(3.16529 -0.793322 0)
(3.16207 -0.797439 0)
(3.16128 -0.79473 0)
(3.16195 -0.794206 0)
(3.16621 -0.797901 0)
(3.16951 -0.800887 0)
(3.1738 -0.796768 0)
(3.1754 -0.791535 0)
(3.17443 -0.79514 0)
(3.17406 -0.797815 0)
(3.17535 -0.803448 0)
(3.17976 -0.807969 0)
(3.18386 -0.808016 0)
(3.18754 -0.808493 0)
(3.18948 -0.812251 0)
(3.1929 -0.815276 0)
(3.2032 -0.815478 0)
(3.14393 -0.648899 0)
(3.14391 -0.653135 0)
(3.13584 -0.662904 0)
(3.13184 -0.66934 0)
(3.13366 -0.668438 0)
(3.14165 -0.657647 0)
(3.15312 -0.645423 0)
(3.15953 -0.645919 0)
(3.15713 -0.64826 0)
(3.14934 -0.660296 0)
(3.14288 -0.67376 0)
(3.14828 -0.672333 0)
(3.15713 -0.674502 0)
(3.15831 -0.678287 0)
(3.15725 -0.679784 0)
(3.15684 -0.68173 0)
(3.15834 -0.689506 0)
(3.1609 -0.688505 0)
(3.16275 -0.690699 0)
(3.16542 -0.703182 0)
(3.16649 -0.708986 0)
(3.16804 -0.715376 0)
(3.17186 -0.71286 0)
(3.1746 -0.723669 0)
(3.17717 -0.724878 0)
(3.18007 -0.730961 0)
(3.18462 -0.732169 0)
(3.18577 -0.735159 0)
(3.19073 -0.743501 0)
(3.1991 -0.749863 0)
(3.13347 -0.498877 0)
(3.13687 -0.515902 0)
(3.12318 -0.531557 0)
(3.11777 -0.532476 0)
(3.11944 -0.526155 0)
(3.12923 -0.506905 0)
(3.13401 -0.488447 0)
(3.14356 -0.498859 0)
(3.14213 -0.509936 0)
(3.13688 -0.532383 0)
(3.12977 -0.545897 0)
(3.13607 -0.542601 0)
(3.14396 -0.54101 0)
(3.14603 -0.550191 0)
(3.14555 -0.553944 0)
(3.1474 -0.55866 0)
(3.15008 -0.567337 0)
(3.15175 -0.576699 0)
(3.15458 -0.579302 0)
(3.15775 -0.586891 0)
(3.15898 -0.5872 0)
(3.16034 -0.60517 0)
(3.16436 -0.604164 0)
(3.16809 -0.614259 0)
(3.17013 -0.615301 0)
(3.17202 -0.620312 0)
(3.17662 -0.632607 0)
(3.18003 -0.638597 0)
(3.18625 -0.65436 0)
(3.19518 -0.670376 0)
(3.10999 -0.338304 0)
(3.1103 -0.340934 0)
(3.10522 -0.362206 0)
(3.0944 -0.382403 0)
(3.08708 -0.386438 0)
(3.09809 -0.372409 0)
(3.11437 -0.355663 0)
(3.12738 -0.357826 0)
(3.12191 -0.372971 0)
(3.11795 -0.393613 0)
(3.11061 -0.405526 0)
(3.11428 -0.402571 0)
(3.12562 -0.40961 0)
(3.12717 -0.425502 0)
(3.12726 -0.424822 0)
(3.13122 -0.432755 0)
(3.13609 -0.448968 0)
(3.13752 -0.456573 0)
(3.13915 -0.460326 0)
(3.14386 -0.480238 0)
(3.1457 -0.484252 0)
(3.14931 -0.501921 0)
(3.15176 -0.505567 0)
(3.15588 -0.521145 0)
(3.15897 -0.534218 0)
(3.16337 -0.551433 0)
(3.16834 -0.563402 0)
(3.17367 -0.575737 0)
(3.18032 -0.580484 0)
(3.19174 -0.591113 0)
(3.07498 -0.185654 0)
(3.07499 -0.191523 0)
(3.07724 -0.205985 0)
(3.06703 -0.239018 0)
(3.06064 -0.250271 0)
(3.06976 -0.234642 0)
(3.0844 -0.205034 0)
(3.09277 -0.205698 0)
(3.09171 -0.225175 0)
(3.09016 -0.25603 0)
(3.08223 -0.27305 0)
(3.08919 -0.270538 0)
(3.10132 -0.274332 0)
(3.10462 -0.294149 0)
(3.10354 -0.297418 0)
(3.10718 -0.304131 0)
(3.11336 -0.322592 0)
(3.11542 -0.341632 0)
(3.11684 -0.339643 0)
(3.12471 -0.360744 0)
(3.12814 -0.37315 0)
(3.1313 -0.389298 0)
(3.13447 -0.395333 0)
(3.14064 -0.416284 0)
(3.14493 -0.429187 0)
(3.14905 -0.437812 0)
(3.15423 -0.44858 0)
(3.16187 -0.471388 0)
(3.16836 -0.488277 0)
(3.18006 -0.505321 0)
(3.02743 -0.0341782 0)
(3.03288 -0.0439086 0)
(3.03472 -0.0735427 0)
(3.02766 -0.0969832 0)
(3.01982 -0.104267 0)
(3.03401 -0.0819747 0)
(3.04426 -0.0579113 0)
(3.04984 -0.062777 0)
(3.05463 -0.0867752 0)
(3.05071 -0.124565 0)
(3.04509 -0.139516 0)
(3.05468 -0.134692 0)
(3.06678 -0.142573 0)
(3.07055 -0.163006 0)
(3.07029 -0.16549 0)
(3.07508 -0.175184 0)
(3.08176 -0.1966 0)
(3.08544 -0.219797 0)
(3.08816 -0.22148 0)
(3.09866 -0.244713 0)
(3.10332 -0.255122 0)
(3.10781 -0.275464 0)
(3.11284 -0.291255 0)
(3.11921 -0.306427 0)
(3.12549 -0.324685 0)
(3.13218 -0.346417 0)
(3.13975 -0.369655 0)
(3.1468 -0.378063 0)
(3.15434 -0.393441 0)
(3.16745 -0.425339 0)
(2.97737 0.103288 0)
(2.98166 0.0765503 0)
(2.97593 0.0584756 0)
(2.96829 0.0471673 0)
(2.97175 0.0534586 0)
(2.98258 0.0756919 0)
(2.99032 0.0893244 0)
(3.00124 0.0716013 0)
(3.00633 0.0340329 0)
(2.99608 0.00145602 0)
(2.99873 0.000959865 0)
(3.00763 0.00663013 0)
(3.02369 -0.0160269 0)
(3.02533 -0.0320724 0)
(3.02565 -0.030155 0)
(3.03747 -0.0553126 0)
(3.04354 -0.0764095 0)
(3.04826 -0.0941879 0)
(3.05372 -0.102054 0)
(3.06497 -0.125287 0)
(3.07134 -0.141788 0)
(3.07777 -0.163156 0)
(3.08372 -0.177416 0)
(3.09301 -0.200798 0)
(3.10177 -0.22227 0)
(3.10945 -0.240907 0)
(3.11644 -0.254943 0)
(3.12759 -0.285672 0)
(3.13625 -0.303359 0)
(3.15008 -0.32788 0)
(2.90946 0.237065 0)
(2.90886 0.227263 0)
(2.90862 0.218086 0)
(2.90853 0.206998 0)
(2.91153 0.206468 0)
(2.91857 0.218067 0)
(2.92754 0.219576 0)
(2.94485 0.194748 0)
(2.94377 0.158071 0)
(2.93942 0.150344 0)
(2.94068 0.15605 0)
(2.95916 0.133412 0)
(2.9673 0.116016 0)
(2.97372 0.0996397 0)
(2.97974 0.0910817 0)
(2.99022 0.0704288 0)
(2.99657 0.0530727 0)
(3.0047 0.032779 0)
(3.01344 0.0161293 0)
(3.02405 -0.00502795 0)
(3.03235 -0.0234211 0)
(3.04174 -0.0476601 0)
(3.04997 -0.065194 0)
(3.06235 -0.0943623 0)
(3.07078 -0.109759 0)
(3.08225 -0.137088 0)
(3.09326 -0.163572 0)
(3.10278 -0.180407 0)
(3.11345 -0.204099 0)
(3.13097 -0.242304 0)
(2.84542 0.355958 0)
(2.85021 0.347257 0)
(2.85213 0.339791 0)
(2.85369 0.339824 0)
(2.85681 0.340305 0)
(2.86525 0.332331 0)
(2.87143 0.326622 0)
(2.87738 0.317847 0)
(2.88372 0.300927 0)
(2.88706 0.29112 0)
(2.8919 0.285621 0)
(2.90196 0.270564 0)
(2.91099 0.253122 0)
(2.91844 0.240342 0)
(2.92823 0.223102 0)
(2.93659 0.207126 0)
(2.94716 0.183836 0)
(2.95609 0.165843 0)
(2.96703 0.144984 0)
(2.97954 0.118866 0)
(2.98865 0.100101 0)
(3.00171 0.0710998 0)
(3.01299 0.0479986 0)
(3.02506 0.024016 0)
(3.03816 -0.00412159 0)
(3.05056 -0.0305564 0)
(3.06183 -0.0529784 0)
(3.07618 -0.0842824 0)
(3.08873 -0.110142 0)
(3.1083 -0.147855 0)
(2.83321 0.375227 0)
(2.83425 0.374667 0)
(2.83575 0.37324 0)
(2.83731 0.371842 0)
(2.83952 0.372333 0)
(2.84267 0.372182 0)
(2.84536 0.371291 0)
(2.84758 0.369322 0)
(2.85098 0.363926 0)
(2.85377 0.361288 0)
(2.85715 0.36043 0)
(2.86311 0.355327 0)
(2.86897 0.347911 0)
(2.87419 0.342367 0)
(2.88164 0.333457 0)
(2.88928 0.322543 0)
(2.89775 0.30872 0)
(2.90739 0.292629 0)
(2.91826 0.274946 0)
(2.93013 0.254015 0)
(2.94187 0.231192 0)
(2.95549 0.204072 0)
(2.9682 0.179216 0)
(2.9841 0.146659 0)
(2.99742 0.119537 0)
(3.01258 0.08771 0)
(3.0286 0.0536669 0)
(3.04348 0.0251123 0)
(3.05836 -0.00408873 0)
(3.08165 -0.0507615 0)
(2.84435 0.34581 0)
(2.8432 0.344873 0)
(2.84305 0.348395 0)
(2.84523 0.351723 0)
(2.84664 0.352905 0)
(2.84958 0.359234 0)
(2.84832 0.362458 0)
(2.84776 0.361255 0)
(2.84989 0.357007 0)
(2.85239 0.35397 0)
(2.85588 0.354615 0)
(2.85914 0.35575 0)
(2.86271 0.354356 0)
(2.86562 0.352873 0)
(2.8687 0.351158 0)
(2.87242 0.348649 0)
(2.87706 0.345956 0)
(2.88307 0.341689 0)
(2.88906 0.337997 0)
(2.89592 0.331225 0)
(2.90383 0.321566 0)
(2.91349 0.308691 0)
(2.92483 0.292281 0)
(2.93771 0.271789 0)
(2.95191 0.24646 0)
(2.96833 0.217096 0)
(2.98547 0.185677 0)
(3.00371 0.150783 0)
(3.02132 0.116681 0)
(3.04796 0.0635762 0)
(2.90177 0.232143 0)
(2.89887 0.239152 0)
(2.89541 0.237694 0)
(2.89353 0.233261 0)
(2.88742 0.245449 0)
(2.88373 0.266668 0)
(2.88755 0.279053 0)
(2.88496 0.290328 0)
(2.88066 0.286885 0)
(2.87832 0.288151 0)
(2.87346 0.30461 0)
(2.87569 0.309339 0)
(2.87539 0.314218 0)
(2.87605 0.319038 0)
(2.8763 0.324181 0)
(2.87743 0.327197 0)
(2.87972 0.328757 0)
(2.88489 0.327717 0)
(2.88752 0.326768 0)
(2.89201 0.325417 0)
(2.89679 0.32326 0)
(2.90206 0.320118 0)
(2.908 0.316263 0)
(2.91523 0.311297 0)
(2.92407 0.304451 0)
(2.93464 0.294035 0)
(2.94707 0.280153 0)
(2.96242 0.259817 0)
(2.97851 0.236356 0)
(3.00707 0.190041 0)
(2.97863 0.0505524 0)
(2.97576 0.0568805 0)
(2.97229 0.0678982 0)
(2.96986 0.0687921 0)
(2.96649 0.0707228 0)
(2.95921 0.0861812 0)
(2.95857 0.0943696 0)
(2.95567 0.10584 0)
(2.95151 0.114959 0)
(2.94697 0.121959 0)
(2.93845 0.140007 0)
(2.93392 0.155227 0)
(2.92971 0.168503 0)
(2.92502 0.182935 0)
(2.91847 0.203278 0)
(2.9163 0.213198 0)
(2.90949 0.233303 0)
(2.90891 0.243258 0)
(2.90388 0.263099 0)
(2.90485 0.270174 0)
(2.90407 0.280032 0)
(2.90643 0.287675 0)
(2.90793 0.291229 0)
(2.91392 0.293279 0)
(2.9201 0.292156 0)
(2.92708 0.288353 0)
(2.93421 0.28434 0)
(2.94467 0.277101 0)
(2.9555 0.269674 0)
(2.97931 0.25059 0)
(2.99886 0.00254526 0)
(2.99871 0.00280319 0)
(2.99845 0.00339717 0)
(2.99817 0.00397639 0)
(2.99774 0.00457108 0)
(2.99699 0.00583942 0)
(2.99639 0.00726577 0)
(2.9958 0.00889434 0)
(2.99491 0.0110927 0)
(2.9938 0.0131008 0)
(2.99181 0.0168975 0)
(2.98984 0.0213991 0)
(2.98745 0.0271629 0)
(2.9847 0.0334548 0)
(2.98066 0.043224 0)
(2.97696 0.0528124 0)
(2.97138 0.0668666 0)
(2.96626 0.0810895 0)
(2.95993 0.0991316 0)
(2.95366 0.118953 0)
(2.94801 0.138102 0)
(2.94106 0.162835 0)
(2.93732 0.180679 0)
(2.93309 0.201792 0)
(2.93027 0.221643 0)
(2.93403 0.230243 0)
(2.93133 0.244574 0)
(2.9443 0.249224 0)
(2.94963 0.247375 0)
(2.96757 0.23741 0)
(2.99999 2.82059e-05 0)
(2.99998 3.28218e-05 0)
(2.99998 4.04781e-05 0)
(2.99997 5.04358e-05 0)
(2.99997 6.19754e-05 0)
(2.99996 8.24654e-05 0)
(2.99994 0.000110525 0)
(2.99992 0.000148938 0)
(2.9999 0.00020174 0)
(2.99986 0.000272865 0)
(2.9998 0.000384102 0)
(2.9997 0.000566851 0)
(2.99959 0.000806107 0)
(2.9994 0.00119489 0)
(2.99912 0.00176856 0)
(2.9987 0.00267963 0)
(2.99811 0.00397811 0)
(2.99721 0.00601083 0)
(2.99593 0.008994 0)
(2.99418 0.0132858 0)
(2.99168 0.0197241 0)
(2.98865 0.0277978 0)
(2.98432 0.0402491 0)
(2.98004 0.0534232 0)
(2.97383 0.0732056 0)
(2.96951 0.0915446 0)
(2.96305 0.115508 0)
(2.96152 0.135753 0)
(2.95946 0.154265 0)
(2.96612 0.172225 0)
(3 1.65167e-07 0)
(3 1.94573e-07 0)
(3 2.38855e-07 0)
(3 3.0103e-07 0)
(3 3.82016e-07 0)
(3 5.05889e-07 0)
(3 6.85414e-07 0)
(3 9.43632e-07 0)
(3 1.32968e-06 0)
(3 1.8786e-06 0)
(3 2.79486e-06 0)
(3 4.30415e-06 0)
(3 6.70637e-06 0)
(2.99999 1.06523e-05 0)
(2.99999 1.76802e-05 0)
(2.99998 2.96551e-05 0)
(2.99997 5.11889e-05 0)
(2.99996 8.95666e-05 0)
(2.99992 0.000160367 0)
(2.99986 0.000290169 0)
(2.99976 0.000526049 0)
(2.99957 0.000962064 0)
(2.99926 0.00173181 0)
(2.99872 0.00310425 0)
(2.99785 0.00542849 0)
(2.99656 0.0091711 0)
(2.99463 0.0150227 0)
(2.99221 0.0235055 0)
(2.98944 0.0337805 0)
(2.98723 0.0535756 0)
(3 7.4831e-10 0)
(3 8.93044e-10 0)
(3 1.10653e-09 0)
(3 1.40301e-09 0)
(3 1.80505e-09 0)
(3 2.38851e-09 0)
(3 3.22558e-09 0)
(3 4.45291e-09 0)
(3 6.29724e-09 0)
(3 9.05118e-09 0)
(3 1.35366e-08 0)
(3 2.10757e-08 0)
(3 3.33494e-08 0)
(3 5.45106e-08 0)
(3 9.2293e-08 0)
(3 1.61338e-07 0)
(3 2.90145e-07 0)
(3 5.39783e-07 0)
(3 1.03519e-06 0)
(3 2.04216e-06 0)
(3 4.13879e-06 0)
(3 8.55576e-06 0)
(2.99999 1.81686e-05 0)
(2.99998 3.88171e-05 0)
(2.99996 8.47151e-05 0)
(2.99993 0.000181471 0)
(2.99985 0.000388261 0)
(2.99971 0.000813562 0)
(2.99948 0.00152744 0)
(2.99899 0.00399034 0)
(3 2.60597e-12 0)
(3 3.13744e-12 0)
(3 3.92483e-12 0)
(3 5.02094e-12 0)
(3 6.52955e-12 0)
(3 8.6999e-12 0)
(3 1.1785e-11 0)
(3 1.63463e-11 0)
(3 2.32376e-11 0)
(3 3.36204e-11 0)
(3 5.05015e-11 0)
(3 7.85896e-11 0)
(3 1.25123e-10 0)
(3 2.05714e-10 0)
(3 3.51248e-10 0)
(3 6.19714e-10 0)
(3 1.1322e-09 0)
(3 2.14084e-09 0)
(3 4.19704e-09 0)
(3 8.49769e-09 0)
(3 1.77946e-08 0)
(3 3.83057e-08 0)
(3 8.53583e-08 0)
(3 1.94371e-07 0)
(3 4.58201e-07 0)
(3 1.08731e-06 0)
(3 2.63616e-06 0)
(3 6.47021e-06 0)
(2.99999 1.42938e-05 0)
(2.99998 5.62195e-05 0)
(2.59248 -1.40508 0)
(2.65433 -1.40274 0)
(2.78848 -1.50394 0)
(2.93871 -1.60277 0)
(3.02623 -1.6378 0)
(3.05397 -1.62763 0)
(3.05558 -1.62703 0)
(3.05663 -1.64016 0)
(3.05231 -1.65005 0)
(3.03567 -1.66367 0)
(3.04302 -1.5754 0)
(3.0547 -1.54611 0)
(3.0866 -1.42569 0)
(3.10552 -1.32726 0)
(3.12036 -1.22315 0)
(3.1412 -1.09297 0)
(3.15205 -0.948808 0)
(3.15589 -0.809561 0)
(3.14497 -0.628939 0)
(3.12903 -0.474157 0)
(3.09823 -0.302159 0)
(3.05818 -0.142649 0)
(3.01295 -0.000332502 0)
(2.95989 0.136497 0)
(2.89474 0.266973 0)
(2.84 0.363574 0)
(2.83084 0.376511 0)
(2.84472 0.349422 0)
(2.90568 0.221016 0)
(2.97981 0.0469024 0)
(2.99907 0.00207731 0)
(2.99999 2.47258e-05 0)
(3 1.43875e-07 0)
(3 6.45417e-10 0)
(3 2.23227e-12 0)
(2.59056 -1.39679 0)
(2.66167 -1.42025 0)
(2.80633 -1.51961 0)
(2.95291 -1.61142 0)
(3.0343 -1.63114 0)
(3.05209 -1.62497 0)
(3.04768 -1.63129 0)
(3.04687 -1.64358 0)
(3.04614 -1.65334 0)
(3.03101 -1.65989 0)
(3.06067 -1.55828 0)
(3.07012 -1.53955 0)
(3.10767 -1.41488 0)
(3.12223 -1.31913 0)
(3.14217 -1.19669 0)
(3.15834 -1.05062 0)
(3.1566 -0.867952 0)
(3.14659 -0.720463 0)
(3.12574 -0.554859 0)
(3.09961 -0.395108 0)
(3.07421 -0.262807 0)
(3.03805 -0.113241 0)
(2.98867 0.0378153 0)
(2.92827 0.184468 0)
(2.8701 0.304066 0)
(2.83125 0.374653 0)
(2.82747 0.377544 0)
(2.84485 0.347991 0)
(2.91456 0.193384 0)
(2.98502 0.0334305 0)
(2.99948 0.00110132 0)
(2.99999 1.0402e-05 0)
(3 6.15019e-08 0)
(3 3.03758e-10 0)
(3 1.10483e-12 0)
(2.5814 -1.39494 0)
(2.65102 -1.43413 0)
(2.80376 -1.52377 0)
(2.9543 -1.60746 0)
(3.03565 -1.62537 0)
(3.05017 -1.62632 0)
(3.04542 -1.64139 0)
(3.0411 -1.65477 0)
(3.03514 -1.66458 0)
(3.03225 -1.64255 0)
(3.06988 -1.5588 0)
(3.08882 -1.51493 0)
(3.1191 -1.39735 0)
(3.14248 -1.25618 0)
(3.14943 -1.11467 0)
(3.1506 -0.964005 0)
(3.14093 -0.835616 0)
(3.12839 -0.684851 0)
(3.11875 -0.585952 0)
(3.09743 -0.419102 0)
(3.06711 -0.290308 0)
(3.03146 -0.141062 0)
(2.98465 0.0133762 0)
(2.92314 0.173369 0)
(2.8587 0.312132 0)
(2.82496 0.380724 0)
(2.8247 0.3775 0)
(2.84653 0.325553 0)
(2.92824 0.157721 0)
(2.98973 0.0228619 0)
(2.9997 0.000630034 0)
(3 5.50147e-06 0)
(3 3.17798e-08 0)
(3 1.55249e-10 0)
(3 5.61646e-13 0)
(2.57291 -1.39356 0)
(2.64614 -1.44066 0)
(2.80184 -1.52811 0)
(2.95716 -1.6045 0)
(3.03856 -1.62862 0)
(3.05707 -1.63283 0)
(3.05323 -1.65083 0)
(3.04252 -1.66878 0)
(3.02736 -1.67389 0)
(3.04262 -1.60701 0)
(3.0736 -1.54066 0)
(3.09676 -1.46416 0)
(3.11811 -1.33594 0)
(3.13108 -1.19393 0)
(3.13988 -1.09772 0)
(3.14497 -0.961239 0)
(3.13494 -0.871609 0)
(3.13009 -0.72328 0)
(3.11373 -0.596433 0)
(3.09379 -0.442238 0)
(3.06821 -0.284347 0)
(3.03186 -0.13012 0)
(2.98079 0.0164842 0)
(2.91813 0.165786 0)
(2.85342 0.314572 0)
(2.82196 0.382495 0)
(2.82333 0.377994 0)
(2.86485 0.297397 0)
(2.94447 0.129052 0)
(2.99361 0.0151343 0)
(2.99984 0.000352498 0)
(3 2.85433e-06 0)
(3 1.61719e-08 0)
(3 7.82227e-11 0)
(3 2.80899e-13 0)
(2.56765 -1.39406 0)
(2.6419 -1.44088 0)
(2.80393 -1.52562 0)
(2.96133 -1.6048 0)
(3.04522 -1.62543 0)
(3.0618 -1.63502 0)
(3.05708 -1.65537 0)
(3.03722 -1.67252 0)
(3.02233 -1.66755 0)
(3.0424 -1.59983 0)
(3.05827 -1.55821 0)
(3.07618 -1.42386 0)
(3.10398 -1.33669 0)
(3.12217 -1.21471 0)
(3.13011 -1.12319 0)
(3.14066 -0.994036 0)
(3.13965 -0.86714 0)
(3.13153 -0.727961 0)
(3.1318 -0.550205 0)
(3.11013 -0.402511 0)
(3.07777 -0.210887 0)
(3.03447 -0.0562942 0)
(2.97987 0.082865 0)
(2.91343 0.21524 0)
(2.84578 0.339384 0)
(2.81884 0.385147 0)
(2.82263 0.376715 0)
(2.86679 0.29999 0)
(2.95099 0.119183 0)
(2.9954 0.0110104 0)
(2.99991 0.000204937 0)
(3 1.50535e-06 0)
(3 8.25967e-09 0)
(3 3.92805e-11 0)
(3 1.39255e-13 0)
(2.56525 -1.39322 0)
(2.64114 -1.43758 0)
(2.8068 -1.52326 0)
(2.9672 -1.60582 0)
(3.0576 -1.62492 0)
(3.07081 -1.64296 0)
(3.05818 -1.66925 0)
(3.03279 -1.67537 0)
(3.01773 -1.65959 0)
(3.03565 -1.59311 0)
(3.03009 -1.58032 0)
(3.07372 -1.4243 0)
(3.09199 -1.34894 0)
(3.11565 -1.22116 0)
(3.1354 -1.11384 0)
(3.14748 -0.991996 0)
(3.16279 -0.808556 0)
(3.15479 -0.661791 0)
(3.11848 -0.457553 0)
(3.09231 -0.301729 0)
(3.04079 -0.129793 0)
(2.99107 0.0194245 0)
(2.9362 0.158831 0)
(2.87661 0.283268 0)
(2.82851 0.369727 0)
(2.81456 0.388092 0)
(2.82363 0.376732 0)
(2.87056 0.298088 0)
(2.95754 0.0985703 0)
(2.99683 0.00699141 0)
(2.99995 0.000109171 0)
(3 7.61753e-07 0)
(3 4.11905e-09 0)
(3 1.939e-11 0)
(3 6.83664e-14 0)
(2.56117 -1.39071 0)
(2.63843 -1.42805 0)
(2.80854 -1.52257 0)
(2.97934 -1.60668 0)
(3.06944 -1.62616 0)
(3.07829 -1.65528 0)
(3.05801 -1.68255 0)
(3.03204 -1.6835 0)
(3.01637 -1.65006 0)
(3.03306 -1.5932 0)
(3.03226 -1.57344 0)
(3.06873 -1.43249 0)
(3.0954 -1.34418 0)
(3.1271 -1.20453 0)
(3.14757 -1.0782 0)
(3.17199 -0.92883 0)
(3.14146 -0.729239 0)
(3.1178 -0.563463 0)
(3.09394 -0.412034 0)
(3.05934 -0.256743 0)
(3.03142 -0.13152 0)
(2.98415 0.018383 0)
(2.92422 0.167042 0)
(2.85972 0.298423 0)
(2.81794 0.379959 0)
(2.81121 0.389284 0)
(2.82305 0.367626 0)
(2.88421 0.24597 0)
(2.97168 0.0633195 0)
(2.99824 0.00381739 0)
(2.99997 5.29789e-05 0)
(3 3.65373e-07 0)
(3 1.98026e-09 0)
(3 9.31164e-12 0)
(3 3.30989e-14 0)
(2.55289 -1.3844 0)
(2.63394 -1.41872 0)
(2.80706 -1.5217 0)
(2.98129 -1.60168 0)
(3.07217 -1.62125 0)
(3.08147 -1.66186 0)
(3.05842 -1.68478 0)
(3.03738 -1.68636 0)
(3.02562 -1.63554 0)
(3.03281 -1.60488 0)
(3.04686 -1.55422 0)
(3.07886 -1.42176 0)
(3.10591 -1.3172 0)
(3.13202 -1.16926 0)
(3.14374 -1.04133 0)
(3.13172 -0.835946 0)
(3.12861 -0.708874 0)
(3.11257 -0.568668 0)
(3.09329 -0.443376 0)
(3.06127 -0.288809 0)
(3.02327 -0.152276 0)
(2.97709 -0.00308644 0)
(2.91971 0.147746 0)
(2.85581 0.29041 0)
(2.81399 0.382241 0)
(2.81001 0.390505 0)
(2.82933 0.350323 0)
(2.91311 0.202585 0)
(2.98127 0.0465977 0)
(2.99908 0.00221671 0)
(2.99999 2.67438e-05 0)
(3 1.76414e-07 0)
(3 9.43924e-10 0)
(3 4.40649e-12 0)
(3 1.59121e-14 0)
(2.54344 -1.37717 0)
(2.62877 -1.41312 0)
(2.80379 -1.52078 0)
(2.979 -1.59551 0)
(3.07066 -1.61538 0)
(3.08253 -1.66284 0)
(3.06187 -1.68606 0)
(3.04567 -1.68425 0)
(3.03601 -1.62719 0)
(3.02421 -1.62854 0)
(3.0544 -1.52155 0)
(3.09524 -1.38556 0)
(3.11954 -1.27029 0)
(3.13153 -1.1168 0)
(3.1332 -0.989859 0)
(3.13505 -0.846292 0)
(3.12486 -0.73809 0)
(3.10962 -0.594852 0)
(3.09104 -0.450148 0)
(3.06141 -0.289971 0)
(3.02823 -0.124304 0)
(2.97892 0.0268935 0)
(2.91702 0.172436 0)
(2.85048 0.311849 0)
(2.81064 0.387897 0)
(2.80928 0.393085 0)
(2.83661 0.348754 0)
(2.91496 0.205775 0)
(2.98498 0.0392382 0)
(2.99942 0.00141565 0)
(2.99999 1.41983e-05 0)
(3 8.76521e-08 0)
(3 4.55035e-10 0)
(3 2.08523e-12 0)
(3 7.75181e-15 0)
(2.53226 -1.36981 0)
(2.6221 -1.40946 0)
(2.79941 -1.51993 0)
(2.97654 -1.58893 0)
(3.06901 -1.61248 0)
(3.08388 -1.6604 0)
(3.07214 -1.68577 0)
(3.05036 -1.68406 0)
(3.04039 -1.62704 0)
(3.02405 -1.63816 0)
(3.07509 -1.46104 0)
(3.09907 -1.3641 0)
(3.12124 -1.23715 0)
(3.12883 -1.11374 0)
(3.13131 -1.00305 0)
(3.13603 -0.874667 0)
(3.13302 -0.73335 0)
(3.12457 -0.568126 0)
(3.10933 -0.390502 0)
(3.07446 -0.21245 0)