/*--------------------------------*- C++ -*----------------------------------*\
  =========                 |
  \\      /  F ield         | OpenFOAM: The Open Source CFD Toolbox
   \\    /   O peration     | Website:  https://openfoam.org
    \\  /    A nd           | Version:  7
     \\/     M anipulation  |
\*---------------------------------------------------------------------------*/
FoamFile
{
    version     2.0;
    format      ascii;
    class       volScalarField;
    location    "3.5001";
    object      rho;
}
// * * * * * * * * * * * * * * * * * * * * * * * * * * * * * * * * * * * * * //

dimensions      [1 -3 0 0 0 0 0];

internalField   nonuniform List<scalar> 
60000
(
0.337656
0.382282
0.406025
0.446842
0.503672
0.540471
0.539321
0.580031
0.648338
0.676294
0.695529
0.761054
0.820119
0.857887
0.894645
0.93492
0.978965
1.03915
1.05484
1.05053
1.04863
1.05936
1.06154
1.05883
1.05808
1.05727
1.05277
1.0487
1.0479
1.04615
1.04133
1.03646
1.03165
1.02336
1.01382
1.01301
1.01768
1.02819
1.03892
1.04837
1.06263
1.07453
1.08116
1.07974
1.07429
1.06379
1.05066
1.04069
1.03404
1.03582
1.04157
1.05116
1.05893
1.0662
1.06893
1.06949
1.06629
1.05803
1.05111
1.04862
1.05107
1.05769
1.06575
1.07188
1.07479
1.07187
1.06345
1.05473
1.05392
1.0566
1.06307
1.06988
1.06957
1.06588
1.05665
1.05171
1.05072
1.05486
1.06253
1.06296
1.0596
1.04967
1.03873
1.03679
1.04012
1.04765
1.05093
1.04969
1.0482
1.05118
1.0594
1.06391
1.06269
1.05974
1.05849
1.06397
1.07891
1.10667
1.11034
1.11616
0.299089
0.299112
0.299149
0.299201
0.299226
0.299225
0.299222
0.299429
0.302484
0.303666
0.305769
0.319728
0.337428
0.354156
0.381203
0.419169
0.470801
0.535678
0.590706
0.643478
0.70568
0.774959
0.811869
0.84496
0.889171
0.919369
0.93081
0.950462
0.972341
0.991279
0.999791
1.00727
1.00759
1.00795
1.01195
1.02206
1.03538
1.0389
1.03624
1.03693
1.04388
1.04913
1.04781
1.04173
1.0275
1.01674
1.01137
1.01396
1.01794
1.02363
1.03092
1.0371
1.04214
1.04502
1.04304
1.03768
1.02787
1.02018
1.01984
1.02251
1.03123
1.03968
1.04701
1.04955
1.0471
1.0409
1.0324
1.02875
1.031
1.03568
1.0427
1.0476
1.04536
1.03923
1.03111
1.02833
1.03042
1.03622
1.0433
1.04224
1.03583
1.02517
1.02047
1.02086
1.02562
1.03188
1.03422
1.03381
1.03488
1.04028
1.04962
1.05407
1.05263
1.05011
1.05232
1.06087
1.08192
1.10912
1.11024
1.11678
0.299364
0.299509
0.299526
0.299563
0.299695
0.299722
0.299716
0.299889
0.300023
0.300005
0.299952
0.299922
0.299889
0.300068
0.300347
0.300369
0.300341
0.300335
0.300427
0.304465
0.316151
0.329817
0.352149
0.386076
0.43383
0.480092
0.534163
0.598275
0.669423
0.735989
0.799258
0.857224
0.904642
0.955138
0.994784
1.02662
1.04473
1.04496
1.03885
1.03779
1.0355
1.03008
1.01812
1.00144
0.979536
0.98196
0.989396
1.00004
1.01043
1.01943
1.02693
1.03077
1.03278
1.03133
1.02422
1.01163
1.00392
1.00479
1.00946
1.02063
1.02578
1.03111
1.03484
1.03327
1.02727
1.01817
1.01416
1.01555
1.0215
1.02948
1.03244
1.0316
1.02645
1.01658
1.01355
1.01483
1.02176
1.03037
1.03022
1.02707
1.01858
1.00803
1.00624
1.01127
1.01894
1.02277
1.02345
1.02193
1.02494
1.03533
1.04447
1.04783
1.04543
1.04454
1.04849
1.05912
1.08499
1.11036
1.10982
1.11703
0.299816
0.299976
0.300013
0.300037
0.300096
0.300152
0.300212
0.300351
0.300589
0.300636
0.300658
0.30066
0.300644
0.300635
0.300879
0.300947
0.300938
0.300949
0.301096
0.301118
0.301108
0.301083
0.301092
0.301176
0.301247
0.301302
0.301373
0.302237
0.308253
0.321126
0.34788
0.384861
0.438021
0.504647
0.589544
0.673641
0.751731
0.820217
0.867399
0.911296
0.935804
0.96078
0.967392
0.975875
0.982647
0.996975
1.00713
1.0204
1.02806
1.03459
1.03538
1.03439
1.03049
1.01934
1.00425
0.992973
0.994175
0.998814
1.00809
1.02028
1.03119
1.03275
1.03061
1.02268
1.01181
1.00616
1.00803
1.01125
1.01862
1.02538
1.02869
1.02426
1.0149
1.00658
1.00735
1.00921
1.01709
1.02621
1.02471
1.01765
1.00679
1.00256
1.0035
1.00727
1.01515
1.01715
1.01641
1.01727
1.02311
1.03317
1.04274
1.04473
1.04106
1.04164
1.04688
1.06333
1.08917
1.10942
1.10871
1.11702
0.300522
0.300528
0.300533
0.300559
0.300694
0.300772
0.300798
0.300824
0.300839
0.301023
0.301095
0.301101
0.301052
0.30104
0.301196
0.301251
0.301239
0.301246
0.30136
0.301459
0.301451
0.301434
0.301463
0.301556
0.301651
0.301728
0.301826
0.301891
0.301961
0.302017
0.302052
0.302105
0.302277
0.302464
0.303105
0.308668
0.327629
0.361571
0.418188
0.488348
0.579718
0.676406
0.772493
0.861722
0.930904
0.976571
0.99488
1.01035
1.01819
1.02561
1.02665
1.02494
1.01614
0.997898
0.991052
0.99622
1.00521
1.01798
1.02828
1.03273
1.03224
1.02962
1.02186
1.01008
1.003
1.00329
1.00732
1.01958
1.02842
1.0287
1.02571
1.01616
1.00552
1.00292
1.00526
1.01442
1.02479
1.02554
1.02102
1.00938
0.998856
0.999725
1.00253
1.01145
1.01618
1.01382
1.01133
1.01405
1.02261
1.03665
1.04328
1.04224
1.03782
1.04089
1.04912
1.06812
1.09186
1.10619
1.10817
1.11743
0.300987
0.300984
0.300954
0.300953
0.301154
0.30122
0.301208
0.301225
0.301342
0.301357
0.301372
0.301414
0.30143
0.301422
0.301482
0.301578
0.301575
0.301566
0.301775
0.30193
0.301921
0.301793
0.301768
0.301878
0.302101
0.3022
0.302236
0.302309
0.302475
0.302749
0.302868
0.302939
0.303069
0.303226
0.303333
0.303313
0.303249
0.303226
0.303235
0.303232
0.303156
0.30879
0.333794
0.380655
0.459576
0.554553
0.660644
0.757402
0.829829
0.894006
0.929247
0.967803
0.979197
0.992068
0.999285
1.02079
1.03548
1.04746
1.04684
1.03877
1.02973
1.02175
1.00701
1.00265
1.00341
1.00894
1.0219
1.0348
1.03468
1.03131
1.01927
1.0071
1.00314
1.00417
1.01355
1.02643
1.02978
1.02583
1.01407
1.00194
0.997993
0.999729
1.00836
1.01608
1.01563
1.01002
1.00901
1.01362
1.0273
1.03986
1.04333
1.03952
1.03726
1.04142
1.05389
1.07412
1.09382
1.10109
1.10424
1.11739
0.301472
0.301532
0.301588
0.301628
0.301681
0.301687
0.301675
0.301673
0.301745
0.301788
0.301824
0.301909
0.30202
0.302041
0.302071
0.302164
0.302241
0.302265
0.302301
0.302513
0.302661
0.302681
0.302679
0.30271
0.302872
0.302925
0.302949
0.303025
0.303175
0.303322
0.303438
0.30351
0.303546
0.303573
0.303599
0.303587
0.303498
0.30344
0.303424
0.30337
0.303235
0.303105
0.303057
0.303052
0.303065
0.303031
0.310912
0.333426
0.385711
0.457679
0.562922
0.679786
0.794192
0.900879
0.967532
1.00688
1.02368
1.03528
1.03678
1.03491
1.03106
1.01438
1.00157
1.00521
1.01537
1.03004
1.03789
1.03779
1.03537
1.02369
1.01086
1.00512
1.00698
1.01584
1.02794
1.03404
1.03174
1.02005
1.00543
1.00029
1.00062
1.00691
1.01643
1.0179
1.01348
1.00679
1.00846
1.01701
1.03398
1.04307
1.04243
1.03683
1.03792
1.04455
1.06004
1.07798
1.0924
1.09605
1.10114
1.11747
0.302121
0.302173
0.302229
0.302297
0.302353
0.302383
0.302393
0.3024
0.302459
0.302486
0.30252
0.302651
0.302777
0.302814
0.302868
0.302973
0.303048
0.303052
0.303048
0.303075
0.303228
0.303283
0.303302
0.303336
0.303405
0.303449
0.303471
0.303496
0.303551
0.303598
0.303636
0.303669
0.303691
0.303699
0.303692
0.303639
0.303509
0.303395
0.303311
0.303152
0.302976
0.302929
0.302933
0.302953
0.303002
0.303015
0.302983
0.302972
0.302983
0.303031
0.303136
0.309927
0.345007
0.411317
0.521715
0.646163
0.760809
0.855102
0.923837
0.965883
0.996082
1.00117
1.01182
1.02627
1.04361
1.05331
1.04742
1.03705
1.02623
1.00937
1.0067
1.00933
1.02065
1.03561
1.04147
1.03899
1.02706
1.00959
1.00185
1.0016
1.00796
1.0186
1.02261
1.01966
1.00917
1.0066
1.00947
1.02475
1.04097
1.04478
1.04083
1.03516
1.03872
1.04906
1.06688
1.08202
1.0884
1.091
1.09867
1.11798
0.302547
0.302631
0.30273
0.302833
0.302912
0.302935
0.302939
0.302939
0.302955
0.303011
0.303048
0.303164
0.303276
0.303352
0.30344
0.303506
0.303502
0.303457
0.303433
0.303432
0.303488
0.303589
0.303616
0.303617
0.303611
0.303607
0.303603
0.303609
0.303642
0.303679
0.303688
0.303679
0.303645
0.303617
0.303576
0.303426
0.303263
0.303186
0.303122
0.302981
0.30286
0.302852
0.30286
0.302903
0.302974
0.30299
0.303011
0.30309
0.303187
0.303323
0.303609
0.303892
0.304055
0.30413
0.304126
0.307935
0.337152
0.397938
0.498187
0.633678
0.778766
0.89484
0.981766
1.01666
1.03318
1.04174
1.04012
1.03503
1.01238
1.00285
1.0124
1.02677
1.03998
1.04509
1.04282
1.03403
1.01377
1.00104
1.00152
1.008
1.02073
1.02682
1.02508
1.01467
1.00532
1.00655
1.01556
1.03542
1.04551
1.04533
1.03732
1.03557
1.04077
1.0538
1.0695
1.08284
1.08266
1.08562
1.09626
1.11862
0.303054
0.30317
0.303237
0.303341
0.303372
0.30339
0.303401
0.303404
0.303415
0.303427
0.303462
0.303514
0.3035
0.30359
0.303791
0.303805
0.303766
0.303613
0.303582
0.303578
0.303584
0.303665
0.303688
0.30368
0.303621
0.30359
0.303577
0.303577
0.30357
0.303565
0.303564
0.303481
0.303379
0.303362
0.303339
0.303218
0.303105
0.303066
0.303027
0.302928
0.302835
0.302831
0.302842
0.302894
0.302971
0.30306
0.303253
0.303497
0.303656
0.303827
0.304114
0.304431
0.304537
0.304532
0.304485
0.304365
0.304293
0.304291
0.304292
0.307872
0.333885
0.413663
0.535369
0.681353
0.804102
0.89528
0.951888
0.987478
0.999515
1.00922
1.04074
1.05436
1.05665
1.04882
1.04168
1.01675
1.00023
1.00033
1.00842
1.02363
1.03308
1.03111
1.02138
1.00729
1.0052
1.0093
1.02738
1.04484
1.04795
1.04069
1.03259
1.03548
1.04481
1.05959
1.07046
1.07754
1.07651
1.08207
1.09462
1.11966
0.303581
0.303605
0.303634
0.303671
0.303688
0.303705
0.303715
0.30371
0.303724
0.303786
0.303819
0.303816
0.303773
0.303759
0.3038
0.303925
0.303913
0.303747
0.303696
0.303697
0.303699
0.303686
0.30368
0.30365
0.3036
0.303557
0.303531
0.303495
0.303453
0.303429
0.303415
0.30334
0.303224
0.303219
0.303213
0.303157
0.303067
0.303037
0.30301
0.302929
0.302886
0.302893
0.302943
0.30313
0.303384
0.303642
0.303945
0.304101
0.304167
0.304269
0.304515
0.304703
0.304715
0.304696
0.304611
0.304455
0.304272
0.304172
0.304176
0.304159
0.304005
0.303923
0.303935
0.315734
0.359918
0.451153
0.594588
0.755115
0.898087
0.982054
1.02785
1.04354
1.04403
1.04216
1.02245
0.995955
0.998106
1.00916
1.02648
1.0352
1.03397
1.02646
1.00959
1.00135
1.00571
1.01977
1.03812
1.04806
1.04382
1.03222
1.03206
1.03684
1.04861
1.06168
1.06774
1.06935
1.07141
1.0807
1.09586
1.12186
0.303989
0.303999
0.304008
0.304012
0.304009
0.304008
0.304005
0.303973
0.303964
0.304031
0.304106
0.304081
0.303972
0.303961
0.304035
0.304083
0.303988
0.303803
0.303787
0.303785
0.303773
0.303776
0.303784
0.303667
0.303541
0.303543
0.303548
0.303473
0.30335
0.303356
0.303359
0.303339
0.303233
0.303189
0.303181
0.303142
0.303108
0.303119
0.30315
0.303228
0.303307
0.303369
0.30352
0.303807
0.304044
0.304273
0.304413
0.304422
0.304429
0.304471
0.304618
0.304755
0.304767
0.304744
0.304636
0.304358
0.304064
0.303991
0.303996
0.303975
0.30387
0.303842
0.30388
0.303992
0.30405
0.30423
0.304593
0.327289
0.409287
0.551513
0.708414
0.828524
0.916941
0.97297
0.986179
1.00203
1.01253
1.03195
1.04467
1.04249
1.03376
1.00781
0.997553
1.00074
1.01701
1.03609
1.04585
1.04269
1.03338
1.02693
1.03144
1.04268
1.05371
1.06107
1.06013
1.06026
1.06757
1.08189
1.10113
1.12491
0.304256
0.304258
0.304216
0.304213
0.304226
0.30423
0.304191
0.30415
0.304157
0.30423
0.304257
0.304208
0.304115
0.304116
0.304154
0.304153
0.304002
0.303743
0.303678
0.303675
0.303689
0.303703
0.303699
0.303526
0.303348
0.303334
0.303353
0.303356
0.303333
0.30333
0.303331
0.303339
0.303324
0.303255
0.30324
0.30326
0.303328
0.303425
0.30357
0.303813
0.303907
0.303948
0.304061
0.304239
0.304394
0.304508
0.304541
0.304517
0.304498
0.304511
0.304608
0.304715
0.304714
0.304663
0.304476
0.304139
0.303904
0.303829
0.303821
0.30381
0.303773
0.303782
0.303854
0.304123
0.304407
0.305013
0.305834
0.30617
0.306627
0.306793
0.32008
0.384636
0.495832
0.660845
0.822075
0.953645
1.00116
1.02009
1.03265
1.02699
1.00769
0.98437
0.994429
1.01478
1.03281
1.04212
1.04224
1.02846
1.02083
1.02583
1.03907
1.04918
1.05639
1.05555
1.05152
1.05345
1.06586
1.08901
1.11034
1.12758
0.304298
0.304279
0.304278
0.304226
0.304098
0.30406
0.304055
0.304017
0.303976
0.303969
0.303953
0.303878
0.303777
0.303754
0.303747
0.303686
0.303458
0.303266
0.303192
0.303184
0.303218
0.303321
0.30339
0.303399
0.303361
0.303301
0.303297
0.303296
0.303295
0.303313
0.3034
0.303455
0.303457
0.303462
0.303505
0.303638
0.303784
0.303894
0.304109
0.304384
0.304419
0.304388
0.304373
0.304416
0.304485
0.304535
0.304545
0.304512
0.304462
0.304451
0.304465
0.30448
0.304454
0.304363
0.30417
0.303931
0.303781
0.303702
0.303685
0.303685
0.30369
0.303739
0.304083
0.304623
0.305063
0.305902
0.306698
0.306899
0.306878
0.306725
0.306437
0.305859
0.304667
0.310611
0.361654
0.476504
0.646439
0.781714
0.899373
0.943235
0.978523
0.987025
1.01771
1.04189
1.04771
1.04553
1.02427
1.00776
1.01519
1.0347
1.05118
1.05522
1.05386
1.04863
1.04509
1.05022
1.07209
1.10187
1.12176
1.12893
0.303585
0.303557
0.303525
0.303493
0.303439
0.303359
0.303352
0.303353
0.303356
0.303369
0.303373
0.303319
0.303249
0.303247
0.303256
0.303236
0.303091
0.303043
0.303027
0.303029
0.303101
0.303179
0.303204
0.303224
0.30328
0.30337
0.303406
0.303422
0.303455
0.303585
0.30384
0.303959
0.303976
0.303975
0.304026
0.304177
0.304269
0.304329
0.304438
0.304573
0.304592
0.304577
0.304491
0.304434
0.304441
0.304475
0.304473
0.304389
0.304158
0.304062
0.304066
0.304112
0.304116
0.304053
0.303936
0.303829
0.303739
0.303654
0.30363
0.303645
0.303732
0.30408
0.30494
0.305489
0.305912
0.306706
0.307204
0.307195
0.306901
0.306274
0.305667
0.304896
0.303974
0.30312
0.30249
0.302092
0.310279
0.354381
0.455424
0.627757
0.811187
0.93552
1.00222
1.02871
1.03358
1.02414
0.994275
1.00066
1.02965
1.05476
1.05687
1.05471
1.04855
1.04247
1.04128
1.05545
1.08978
1.11826
1.12661
1.12781
0.302994
0.302997
0.303006
0.303026
0.303048
0.303062
0.303085
0.303087
0.303088
0.303098
0.303101
0.303083
0.303051
0.303054
0.303057
0.302985
0.302944
0.302963
0.302981
0.302987
0.303129
0.303311
0.303334
0.30335
0.303593
0.303943
0.303955
0.303954
0.303987
0.30419
0.304587
0.304653
0.304634
0.30451
0.304434
0.30444
0.304492
0.304578
0.304587
0.304581
0.304588
0.30458
0.304509
0.304359
0.304273
0.304254
0.304236
0.304117
0.303816
0.303738
0.303744
0.303802
0.303868
0.303864
0.303846
0.303827
0.303774
0.303696
0.303733
0.303896
0.304223
0.305208
0.306311
0.306514
0.306685
0.307058
0.307235
0.307126
0.306344
0.305521
0.304956
0.3042
0.303395
0.302638
0.302212
0.30203
0.302426
0.303687
0.305478
0.310515
0.350035
0.472017
0.632346
0.771643
0.888135
0.948488
0.981079
1.00945
1.06686
1.07399
1.06226
1.05112
1.04023
1.03957
1.05035
1.08036
1.11556
1.13103
1.12898
1.12677
0.302948
0.302962
0.302991
0.30303
0.303063
0.303118
0.303149
0.303158
0.303163
0.303167
0.303196
0.30321
0.303176
0.30316
0.303221
0.303388
0.3035
0.303578
0.303658
0.303669
0.303731
0.303946
0.304019
0.304114
0.304416
0.304541
0.304512
0.304469
0.304471
0.304601
0.304929
0.304999
0.304994
0.304843
0.304567
0.304527
0.304543
0.304594
0.304602
0.304573
0.304528
0.304449
0.304248
0.303998
0.303948
0.303965
0.303968
0.303925
0.303687
0.303581
0.303579
0.303619
0.303704
0.303768
0.303824
0.30392
0.304023
0.30418
0.304476
0.304802
0.305441
0.30689
0.307483
0.307478
0.307179
0.307041
0.306945
0.306524
0.305431
0.304883
0.30445
0.303767
0.303001
0.302496
0.302195
0.302893
0.30492
0.308198
0.310087
0.310866
0.310418
0.308719
0.309912
0.353821
0.454483
0.635379
0.837676
0.963823
1.04969
1.05789
1.05477
1.04504
1.03353
1.05198
1.0803
1.11486
1.13018
1.12989
1.12758
1.12746
0.30342
0.303426
0.303454
0.303487
0.303502
0.303624
0.30374
0.303738
0.303731
0.30373
0.303907
0.303997
0.303909
0.303848
0.303939
0.304384
0.304618
0.304688
0.304689
0.30466
0.304458
0.304242
0.304226
0.304409
0.304667
0.304673
0.304539
0.304465
0.304464
0.304582
0.304898
0.304954
0.304955
0.304827
0.304477
0.304344
0.304306
0.304286
0.304217
0.304022
0.303972
0.303917
0.303727
0.303617
0.303625
0.303735
0.303802
0.303795
0.303666
0.303525
0.303515
0.30354
0.303634
0.303756
0.303989
0.304438
0.305067
0.305795
0.306162
0.306483
0.307244
0.30823
0.308318
0.308088
0.307271
0.306783
0.30668
0.30598
0.305
0.304626
0.304237
0.303637
0.30286
0.303176
0.304673
0.307171
0.309909
0.312298
0.312244
0.311599
0.310379
0.308434
0.307541
0.3081
0.309817
0.316355
0.378565
0.522006
0.727864
0.883644
0.975057
1.0085
1.03003
1.08248
1.11888
1.14625
1.13647
1.12749
1.12564
1.1323
0.304781
0.304895
0.304902
0.304869
0.304852
0.304818
0.304589
0.304448
0.304442
0.304538
0.30466
0.304673
0.304653
0.304588
0.304579
0.304669
0.304903
0.305078
0.305087
0.305053
0.304936
0.304424
0.304191
0.304217
0.304402
0.304427
0.304208
0.304029
0.304032
0.304124
0.304451
0.304591
0.304589
0.304513
0.304333
0.304181
0.304106
0.304081
0.304003
0.303777
0.303721
0.303681
0.303554
0.303481
0.3035
0.303628
0.303785
0.303832
0.303834
0.303829
0.303866
0.304004
0.304306
0.304756
0.305411
0.306373
0.307569
0.308143
0.308337
0.308562
0.309057
0.309109
0.308985
0.308161
0.306992
0.306893
0.306754
0.305728
0.305069
0.305095
0.304928
0.305093
0.305964
0.307742
0.310276
0.312703
0.314684
0.314577
0.313739
0.312458
0.310618
0.310334
0.312365
0.316364
0.32137
0.326234
0.327265
0.328191
0.345621
0.454378
0.664409
0.85766
0.987926
1.0693
1.1073
1.13714
1.1409
1.1407
1.14168
1.15182
0.305467
0.305499
0.305503
0.305485
0.305433
0.305387
0.305251
0.304734
0.304578
0.30462
0.30487
0.304928
0.304862
0.30461
0.304533
0.304529
0.304586
0.304712
0.304794
0.304856
0.304694
0.30402
0.303817
0.303843
0.30406
0.304133
0.303942
0.30377
0.303774
0.303857
0.304206
0.304416
0.304416
0.304367
0.304281
0.304131
0.304037
0.304044
0.304006
0.303802
0.303743
0.303688
0.303597
0.30357
0.303664
0.303886
0.304257
0.305044
0.305969
0.306569
0.306951
0.307358
0.307787
0.30822
0.308949
0.310041
0.310416
0.310403
0.310485
0.310546
0.310467
0.310274
0.309793
0.308368
0.307835
0.307803
0.307333
0.306608
0.306588
0.306783
0.307586
0.309263
0.311607
0.314163
0.316396
0.318039
0.318374
0.317842
0.316491
0.316861
0.318425
0.321839
0.325633
0.329304
0.332846
0.334997
0.337127
0.339973
0.341371
0.34243
0.349758
0.419603
0.57792
0.754763
0.90599
1.01723
1.08662
1.13436
1.14921
1.17135
0.306083
0.306107
0.306126
0.306116
0.306051
0.305966
0.305956
0.305539
0.305174
0.305166
0.305192
0.305383
0.305456
0.30542
0.305408
0.305466
0.305466
0.305403
0.305392
0.305389
0.30525
0.304784
0.304664
0.304744
0.305093
0.305206
0.305118
0.304819
0.304715
0.304744
0.304952
0.305226
0.305287
0.305325
0.305352
0.305405
0.305624
0.305995
0.306129
0.306141
0.306148
0.306306
0.306626
0.307158
0.307756
0.308251
0.308923
0.310323
0.311373
0.311754
0.311899
0.312225
0.312452
0.312516
0.312845
0.312954
0.312663
0.312348
0.31225
0.312015
0.311425
0.310891
0.310072
0.308748
0.308143
0.307857
0.307605
0.307951
0.308947
0.310992
0.31439
0.31857
0.322209
0.324568
0.32605
0.325799
0.325928
0.326646
0.327775
0.328883
0.331196
0.334209
0.337974
0.341639
0.34514
0.348721
0.351837
0.353812
0.354357
0.355067
0.356913
0.361938
0.373951
0.396203
0.462007
0.559515
0.714186
0.876611
1.01672
1.14905
0.305354
0.305529
0.305532
0.305528
0.305439
0.305418
0.305379
0.305036
0.304913
0.304938
0.305141
0.305387
0.305413
0.305418
0.305459
0.305498
0.305525
0.30554
0.305597
0.305784
0.305833
0.305954
0.305972
0.305935
0.306071
0.306364
0.306583
0.306646
0.306652
0.306707
0.306944
0.307437
0.30815
0.308504
0.308717
0.309018
0.310012
0.311474
0.312393
0.312567
0.312589
0.312796
0.313161
0.313869
0.314986
0.315338
0.31541
0.315534
0.315831
0.315953
0.315865
0.315828
0.315648
0.315357
0.315243
0.314836
0.313802
0.313084
0.312623
0.311988
0.31145
0.310869
0.310968
0.311381
0.312714
0.315055
0.31888
0.323462
0.327868
0.331741
0.334858
0.337047
0.337816
0.337724
0.338018
0.337616
0.336936
0.337478
0.339456
0.342339
0.346605
0.351044
0.356044
0.360535
0.36434
0.365632
0.365594
0.365688
0.366163
0.36752
0.371149
0.380275
0.39431
0.40903
0.42176
0.427075
0.427944
0.459486
0.539628
0.794885
0.308999
0.309278
0.309522
0.309562
0.309437
0.309457
0.309639
0.309739
0.310135
0.310995
0.312009
0.31282
0.312875
0.31287
0.312732
0.312616
0.313468
0.314233
0.314509
0.315102
0.316243
0.316901
0.316882
0.316618
0.316534
0.316851
0.317848
0.31841
0.318407
0.318254
0.318238
0.318731
0.319471
0.319493
0.319469
0.319562
0.320395
0.320874
0.320779
0.320785
0.321014
0.321081
0.321182
0.321267
0.321357
0.321431
0.321212
0.320905
0.320652
0.319848
0.319305
0.319202
0.318608
0.318387
0.318512
0.317946
0.317945
0.318676
0.319992
0.32184
0.32425
0.327589
0.331804
0.336348
0.340541
0.344309
0.347069
0.349082
0.350583
0.351125
0.351494
0.351711
0.350806
0.34971
0.35011
0.351586
0.353609
0.356397
0.360671
0.36644
0.371427
0.375555
0.377445
0.378985
0.379033
0.37814
0.376025
0.376354
0.379441
0.385084
0.391942
0.4009
0.409759
0.419803
0.433015
0.443019
0.448202
0.453206
0.454182
0.475193
0.327122
0.327609
0.327712
0.32763
0.327493
0.327369
0.32734
0.327435
0.327531
0.327436
0.327364
0.327708
0.328835
0.328982
0.328675
0.32819
0.328168
0.328524
0.328795
0.328906
0.328923
0.328766
0.328837
0.329205
0.329003
0.328835
0.328902
0.329171
0.329222
0.329283
0.329285
0.329232
0.329025
0.328702
0.328689
0.32894
0.328793
0.327879
0.327056
0.32703
0.32768
0.328378
0.32832
0.328115
0.328293
0.329158
0.32943
0.329754
0.330653
0.332074
0.333264
0.334412
0.336451
0.339622
0.343093
0.346387
0.349486
0.352395
0.355461
0.358508
0.36118
0.363634
0.365513
0.366939
0.367533
0.367994
0.368276
0.368574
0.368202
0.366636
0.366301
0.36703
0.367936
0.369136
0.371126
0.374631
0.379174
0.383763
0.387613
0.390582
0.392077
0.392597
0.392199
0.390935
0.389987
0.390739
0.393428
0.397966
0.403441
0.408056
0.413435
0.418838
0.425347
0.436042
0.448514
0.457499
0.464754
0.469682
0.47431
0.482518
0.344836
0.344809
0.345442
0.346079
0.346962
0.347247
0.346607
0.346059
0.345911
0.345378
0.345271
0.346256
0.347285
0.347029
0.347157
0.348138
0.348135
0.347527
0.347448
0.347462
0.347251
0.347549
0.348911
0.350149
0.350589
0.350602
0.350483
0.35056
0.351555
0.352921
0.353247
0.353139
0.353094
0.354144
0.356914
0.358685
0.358991
0.359429
0.360647
0.3624
0.364095
0.365707
0.36684
0.367817
0.369275
0.371222
0.3732
0.374927
0.376258
0.377595
0.37911
0.380796
0.382412
0.383558
0.384548
0.385535
0.386073
0.386231
0.386521
0.387002
0.386941
0.386873
0.386976
0.386627
0.385266
0.384468
0.384782
0.385041
0.384625
0.384885
0.386083
0.388556
0.392128
0.396021
0.400045
0.403674
0.406593
0.408823
0.410345
0.41127
0.411239
0.410471
0.410641
0.411992
0.414914
0.418151
0.421873
0.426256
0.429333
0.431482
0.434077
0.438213
0.445885
0.457472
0.46918
0.477582
0.481488
0.48455
0.488622
0.496339
0.385132
0.385032
0.385026
0.386244
0.387925
0.388007
0.388849
0.389528
0.389307
0.388688
0.388638
0.389012
0.38974
0.389756
0.389576
0.389696
0.390521
0.392215
0.393611
0.393582
0.392849
0.392606
0.393321
0.393839
0.393731
0.393742
0.394421
0.395123
0.395904
0.396806
0.397553
0.397852
0.397851
0.398006
0.398818
0.399858
0.400527
0.40063
0.400584
0.400771
0.401721
0.402057
0.402348
0.402681
0.403167
0.403336
0.403475
0.40356
0.403591
0.403617
0.403572
0.403705
0.403589
0.402824
0.402678
0.402797
0.402214
0.400896
0.400888
0.400805
0.400076
0.399997
0.400944
0.402009
0.402772
0.404188
0.406703
0.410249
0.41449
0.418706
0.422851
0.426585
0.430043
0.432833
0.434874
0.43632
0.436689
0.436886
0.436656
0.436465
0.43692
0.43772
0.438641
0.44029
0.44272
0.445514
0.44789
0.449712
0.451802
0.454264
0.457205
0.462067
0.47028
0.481645
0.494876
0.506877
0.512747
0.516143
0.517992
0.520748
0.426073
0.426317
0.426855
0.426728
0.427605
0.427309
0.42736
0.428324
0.428637
0.427838
0.427276
0.427852
0.428654
0.428391
0.427865
0.427934
0.428226
0.429272
0.430389
0.430436
0.429248
0.427551
0.427547
0.428296
0.429383
0.429539
0.429298
0.429056
0.429095
0.429605
0.429995
0.430277
0.430639
0.430282
0.429856
0.429898
0.430379
0.430535
0.429984
0.429823
0.430172
0.430957
0.431324
0.431191
0.430932
0.430949
0.431386
0.432154
0.43263
0.433077
0.433717
0.434564
0.435496
0.436626
0.43799
0.439488
0.44124
0.443268
0.445433
0.447804
0.450229
0.452521
0.454968
0.457457
0.459959
0.462497
0.464754
0.46625
0.467066
0.467812
0.468608
0.468767
0.468625
0.46791
0.467044
0.466377
0.465142
0.46436
0.46374
0.463517
0.463893
0.465273
0.467357
0.469842
0.472569
0.475676
0.478214
0.480506
0.482772
0.484206
0.485288
0.487863
0.493337
0.50382
0.518467
0.531064
0.536527
0.538044
0.539112
0.540824
0.478215
0.47889
0.479457
0.48037
0.479972
0.477543
0.477523
0.480454
0.480482
0.480368
0.480175
0.480265
0.48044
0.480101
0.478915
0.478907
0.479521
0.479621
0.479579
0.480672
0.481554
0.481303
0.481069
0.481099
0.48096
0.481489
0.482077
0.482319
0.482966
0.483137
0.483018
0.48283
0.483248
0.484566
0.485444
0.485526
0.485562
0.485846
0.486454
0.487204
0.487544
0.487848
0.488376
0.489021
0.489619
0.490227
0.491108
0.492008
0.49238
0.49272
0.49338
0.494279
0.495056
0.495775
0.496445
0.497071
0.497918
0.498205
0.498435
0.498872
0.498867
0.498838
0.498789
0.498534
0.498138
0.497623
0.49695
0.495858
0.494534
0.493306
0.49194
0.490607
0.489314
0.488151
0.487068
0.487233
0.488099
0.489899
0.49214
0.495151
0.498848
0.5027
0.506121
0.508799
0.511188
0.512246
0.512468
0.512345
0.511378
0.510027
0.509949
0.511011
0.514697
0.524172
0.539332
0.554289
0.56196
0.564499
0.564831
0.565351
0.538861
0.539203
0.539547
0.538882
0.537422
0.538362
0.540107
0.540597
0.54101
0.540583
0.53951
0.53912
0.539488
0.540486
0.540399
0.539254
0.538412
0.538724
0.538836
0.539253
0.539804
0.539749
0.539157
0.538377
0.538437
0.53951
0.540311
0.540299
0.53947
0.539058
0.53911
0.539562
0.539563
0.539489
0.5398
0.540102
0.540065
0.539643
0.539057
0.538985
0.539127
0.53939
0.539357
0.539063
0.538686
0.538626
0.538607
0.538402
0.537812
0.537429
0.537336
0.537151
0.536754
0.536357
0.536039
0.535614
0.534982
0.534458
0.534075
0.533655
0.533223
0.532742
0.531905
0.531668
0.531851
0.531969
0.532028
0.532266
0.532919
0.534124
0.535571
0.537197
0.53899
0.541199
0.543737
0.546134
0.548339
0.550303
0.551844
0.552958
0.553429
0.553199
0.552419
0.55112
0.549492
0.547284
0.545148
0.543147
0.54067
0.540505
0.541857
0.545505
0.552401
0.565341
0.585088
0.599474
0.602178
0.60204
0.601277
0.600156
0.611066
0.611221
0.610247
0.609053
0.609284
0.60934
0.609369
0.609847
0.607385
0.605748
0.606018
0.610177
0.613334
0.613043
0.610206
0.606309
0.605659
0.606025
0.608347
0.609772
0.609696
0.608251
0.606947
0.606537
0.607032
0.608542
0.609018
0.608469
0.606335
0.605747
0.606077
0.607548
0.607889
0.607529
0.606599
0.606318
0.606328
0.606302
0.60619
0.605916
0.605577
0.605471
0.605415
0.605314
0.60508
0.60478
0.604575
0.604396
0.60436
0.604324
0.604224
0.60404
0.603712
0.603574
0.603634
0.603666
0.603575
0.603292
0.603221
0.603417
0.603429
0.603411
0.60352
0.603439
0.603477
0.603447
0.603341
0.603283
0.603077
0.602909
0.602696
0.60226
0.601539
0.600602
0.599634
0.598401
0.596922
0.595131
0.593216
0.59096
0.588623
0.586377
0.584103
0.582127
0.580529
0.579371
0.579771
0.58021
0.581347
0.583561
0.586633
0.589968
0.595264
0.60666
0.627432
0.634633
0.634518
0.633246
0.629813
0.628925
0.669159
0.669613
0.669483
0.669477
0.670643
0.67071
0.669906
0.667761
0.667266
0.667429
0.667963
0.668192
0.669269
0.670194
0.669986
0.667652
0.667176
0.667299
0.667383
0.667694
0.668018
0.66789
0.667228
0.666738
0.66666
0.666713
0.666774
0.666765
0.666621
0.666273
0.665913
0.665855
0.665844
0.665689
0.665504
0.665346
0.66504
0.664556
0.664253
0.664079
0.663733
0.663272
0.663036
0.662891
0.66267
0.6623
0.661886
0.661533
0.661206
0.660834
0.660397
0.659973
0.659564
0.659099
0.658575
0.658055
0.657554
0.657004
0.656417
0.655846
0.655313
0.654707
0.653952
0.653128
0.652241
0.651335
0.65041
0.649504
0.648602
0.647587
0.646513
0.645373
0.644136
0.64294
0.641748
0.640611
0.639578
0.63856
0.637799
0.636983
0.636373
0.636055
0.635975
0.635754
0.635376
0.635539
0.635688
0.635176
0.634196
0.633757
0.63334
0.63288
0.634585
0.641713
0.656975
0.670392
0.673071
0.673359
0.673278
0.670674
0.697732
0.698058
0.698126
0.698123
0.698333
0.698522
0.698511
0.698449
0.698052
0.697911
0.697886
0.697902
0.697859
0.69799
0.69813
0.698036
0.697888
0.697856
0.697649
0.697482
0.697533
0.697646
0.697542
0.69737
0.697392
0.697351
0.697351
0.697418
0.697327
0.697046
0.697013
0.697089
0.697107
0.69706
0.696952
0.696826
0.696618
0.696374
0.696316
0.696296
0.696247
0.696115
0.695988
0.695888
0.695778
0.695654
0.69551
0.695317
0.695066
0.694855
0.69464
0.694435
0.69429
0.694136
0.693929
0.693651
0.693372
0.693094
0.692726
0.692384
0.692119
0.691809
0.691418
0.691004
0.690598
0.690149
0.689659
0.689163
0.688666
0.688114
0.687539
0.686984
0.686383
0.68571
0.684986
0.684243
0.683544
0.682832
0.682068
0.681297
0.68042
0.679489
0.678553
0.677537
0.676422
0.675183
0.673833
0.672416
0.670857
0.669446
0.668172
0.667769
0.669161
0.675236
0.688459
0.707064
0.71737
0.718559
0.718621
0.716689
0.705034
0.705029
0.705028
0.705106
0.705127
0.705095
0.705067
0.705121
0.705154
0.705153
0.705176
0.705155
0.705044
0.70502
0.705017
0.705145
0.705297
0.705306
0.705311
0.70532
0.705324
0.705314
0.705303
0.705312
0.705375
0.705409
0.705406
0.705403
0.705434
0.705503
0.7056
0.705699
0.705725
0.705695
0.705564
0.705512
0.705506
0.705543
0.705577
0.705584
0.705573
0.705524
0.705454
0.705393
0.705341
0.705298
0.705246
0.70513
0.705036
0.705021
0.705021
0.705077
0.705184
0.705201
0.705185
0.705122
0.704974
0.704758
0.704616
0.704589
0.704583
0.704555
0.704473
0.704374
0.704279
0.704159
0.703991
0.703806
0.703662
0.703544
0.703411
0.703257
0.70308
0.702846
0.702567
0.702292
0.702063
0.701857
0.701627
0.701406
0.701164
0.700923
0.700749
0.700552
0.700207
0.699769
0.699286
0.698712
0.698101
0.69737
0.696639
0.696681
0.697953
0.70279
0.715039
0.735374
0.754097
0.759368
0.759605
0.75748
0.706852
0.706806
0.706708
0.7067
0.706719
0.706686
0.706531
0.706515
0.706568
0.706567
0.706414
0.706282
0.706254
0.70627
0.706328
0.706325
0.706215
0.70617
0.706225
0.706421
0.706471
0.706425
0.706336
0.706341
0.706426
0.706498
0.70648
0.706301
0.706081
0.70605
0.706044
0.706058
0.706097
0.706092
0.706022
0.705853
0.705805
0.705804
0.705819
0.705817
0.705757
0.705708
0.705671
0.705622
0.705586
0.705554
0.705493
0.705442
0.705373
0.705252
0.705118
0.70503
0.705039
0.70507
0.705062
0.705064
0.705061
0.704928
0.704665
0.704605
0.704612
0.70462
0.704568
0.704533
0.704468
0.704354
0.704318
0.704279