/*--------------------------------*- C++ -*----------------------------------*\
  =========                 |
  \\      /  F ield         | OpenFOAM: The Open Source CFD Toolbox
   \\    /   O peration     | Website:  https://openfoam.org
    \\  /    A nd           | Version:  7
     \\/     M anipulation  |
\*---------------------------------------------------------------------------*/
FoamFile
{
    version     2.0;
    format      ascii;
    class       volScalarField;
    location    "5.5";
    object      rho;
}
// * * * * * * * * * * * * * * * * * * * * * * * * * * * * * * * * * * * * * //

dimensions      [1 -3 0 0 0 0 0];

internalField   nonuniform List<scalar> 
90000
(
0.723633
0.764166
0.803778
0.843509
0.880608
0.91502
0.950054
0.9864
1.01969
1.05413
1.08813
1.12038
1.15232
1.1812
1.20952
1.23319
1.25387
1.27165
1.28245
1.29144
1.29539
1.29525
1.2961
1.29647
1.2959
1.29432
1.29152
1.28685
1.28092
1.2747
1.26861
1.26696
1.26904
1.27355
1.27873
1.28339
1.28735
1.2896
1.29082
1.29025
1.28797
1.28347
1.28021
1.27793
1.27869
1.2809
1.28544
1.28906
1.29003
1.28873
1.28595
1.2823
1.28078
1.2817
1.28467
1.28834
1.29074
1.2905
1.28907
1.28896
1.29068
1.2949
1.29948
1.30097
1.30055
1.30005
1.30094
1.30282
1.3031
1.3025
1.30164
1.30174
1.30234
1.30228
1.30204
1.30199
1.30276
1.3032
1.30315
1.3032
1.3032
1.3031
1.30306
1.30315
1.30344
1.30374
1.30391
1.30374
1.30335
1.30282
1.30293
1.30286
1.30286
1.30295
1.30358
1.30463
1.3065
1.31254
1.3243
1.35535
0.688989
0.689179
0.689676
0.690767
0.692776
0.695883
0.700758
0.708017
0.718266
0.731611
0.750171
0.772437
0.801164
0.834729
0.873627
0.91885
0.964676
1.01744
1.06363
1.1071
1.14631
1.17686
1.20205
1.22639
1.23812
1.24919
1.25727
1.25974
1.26137
1.26309
1.26883
1.27532
1.28187
1.28845
1.29115
1.29395
1.29408
1.29341
1.29194
1.2859
1.28092
1.27687
1.27765
1.27926
1.28211
1.2861
1.28971
1.29098
1.2894
1.28566
1.28135
1.27944
1.28016
1.28304
1.28727
1.29187
1.29161
1.28924
1.28723
1.28839
1.2919
1.29736
1.30108
1.30093
1.30041
1.30078
1.30222
1.30418
1.30385
1.30308
1.3027
1.30328
1.30397
1.30379
1.30369
1.30381
1.30484
1.30522
1.30521
1.30536
1.30538
1.30526
1.30527
1.30551
1.30586
1.30611
1.30615
1.3058
1.30532
1.30483
1.30488
1.30467
1.30454
1.3045
1.30495
1.30564
1.30743
1.31334
1.32494
1.3558
0.689373
0.689401
0.689429
0.689459
0.689492
0.689531
0.689583
0.689656
0.689774
0.689989
0.690388
0.691056
0.692171
0.694062
0.697162
0.702512
0.710974
0.724011
0.744016
0.769636
0.804788
0.846228
0.895309
0.948049
1.00462
1.05907
1.11195
1.15825
1.20231
1.23297
1.26169
1.27705
1.28481
1.28959
1.29025
1.29308
1.29333
1.2913
1.28455
1.27304
1.27514
1.27974
1.2841
1.29004
1.2952
1.29503
1.29382
1.29033
1.28478
1.28114
1.28058
1.28167
1.28619
1.29238
1.29468
1.29381
1.29003
1.2877
1.28833
1.29159
1.29829
1.3024
1.30239
1.30155
1.30186
1.30362
1.30626
1.30631
1.30555
1.30492
1.30525
1.30649
1.30637
1.30605
1.30609
1.30653
1.30746
1.30755
1.3076
1.30786
1.30785
1.30767
1.30771
1.30797
1.30817
1.30826
1.30809
1.30756
1.30697
1.30638
1.30632
1.30598
1.3057
1.30551
1.30578
1.30626
1.30795
1.31375
1.32528
1.35593
0.690187
0.690225
0.690261
0.690299
0.69034
0.690383
0.690432
0.690485
0.690548
0.690592
0.690637
0.69068
0.690726
0.690777
0.690838
0.690916
0.691031
0.691215
0.691591
0.692345
0.693807
0.696454
0.701646
0.71032
0.725738
0.748595
0.782346
0.826789
0.882394
0.946627
1.0139
1.07814
1.13114
1.18087
1.20831
1.23736
1.24849
1.25961
1.26519
1.27368
1.28635
1.29615
1.30273
1.30738
1.30552
1.29981
1.29298
1.28587
1.2825
1.28261
1.28554
1.29244
1.29806
1.30022
1.29855
1.2922
1.28855
1.28878
1.2925
1.29987
1.30492
1.3044
1.30298
1.30301
1.3049
1.30904
1.30984
1.30846
1.30737
1.30757
1.30922
1.30977
1.30904
1.30859
1.30877
1.30965
1.30996
1.30987
1.31
1.31014
1.30997
1.30969
1.30973
1.30997
1.30996
1.30988
1.30951
1.30871
1.308
1.30737
1.30719
1.30675
1.30636
1.30609
1.30611
1.30657
1.30825
1.31395
1.32536
1.35592
0.691124
0.69116
0.691199
0.691239
0.69128
0.691322
0.691364
0.691408
0.691451
0.691496
0.691538
0.691575
0.691614
0.691658
0.691707
0.691762
0.691821
0.691894
0.691963
0.691996
0.692027
0.692066
0.692123
0.692222
0.692423
0.692867
0.693905
0.696236
0.70109
0.711518
0.729245
0.761061
0.804811
0.864885
0.935213
1.01102
1.08488
1.15125
1.20802
1.24935
1.27833
1.28574
1.29211
1.29659
1.29887
1.29738
1.28893
1.28364
1.2872
1.29267
1.30001
1.30497
1.30392
1.30112
1.29372
1.28915
1.28942
1.29351
1.3022
1.3071
1.30695
1.30445
1.30377
1.30582
1.31092
1.31351
1.31216
1.31001
1.30973
1.31075
1.31253
1.31212
1.31115
1.3109
1.31113
1.31181
1.31159
1.31144
1.31162
1.31157
1.31132
1.31107
1.31112
1.31125
1.31104
1.31075
1.31017
1.30923
1.30849
1.30791
1.30759
1.30712
1.30667
1.30638
1.30625
1.30661
1.30827
1.31398
1.32533
1.35583
0.691974
0.692001
0.69203
0.692059
0.692089
0.692119
0.69215
0.692181
0.692213
0.692246
0.692279
0.692312
0.692345
0.692378
0.69241
0.692442
0.692472
0.692502
0.692531
0.692553
0.692579
0.69261
0.692648
0.69269
0.692742
0.692848
0.692856
0.692872
0.692907
0.692994
0.693226
0.693877
0.695603
0.699971
0.710415
0.729779
0.767628
0.819151
0.894349
0.975151
1.06509
1.13213
1.18901
1.22481
1.25525
1.26795
1.27453
1.28766
1.30451
1.31016
1.31479
1.31179
1.30764
1.29469
1.28686
1.28847
1.29436
1.30326
1.31082
1.3103
1.30556
1.30231
1.30434
1.31079
1.31601
1.31556
1.31345
1.31124
1.31151
1.31381
1.31412
1.31318
1.31239
1.31244
1.31319
1.31302
1.31252
1.31233
1.31263
1.31236
1.3119
1.31182
1.31194
1.31192
1.31166
1.31122
1.31046
1.30939
1.30868
1.30819
1.30774
1.3073
1.30676
1.30644
1.30631
1.30658
1.30819
1.31392
1.32524
1.35571
0.692574
0.692589
0.692605
0.692622
0.692639
0.692656
0.692674
0.692691
0.692709
0.692727
0.692745
0.692764
0.692783
0.692802
0.692822
0.692843
0.692864
0.692885
0.692907
0.69293
0.692953
0.692976
0.692999
0.693021
0.693045
0.693059
0.693081
0.69311
0.693139
0.693171
0.693235
0.693233
0.693237
0.693258
0.693331
0.693551
0.694414
0.696829
0.704009
0.720662
0.753398
0.812147
0.886798
0.980305
1.07158
1.1587
1.22429
1.27046
1.29356
1.29828
1.30296
1.30466
1.29595
1.28544
1.28942
1.29842
1.30628
1.31043
1.30996
1.30363
1.29918
1.30148
1.30923
1.31683
1.31755
1.31479
1.31216
1.31204
1.31429
1.31592
1.31505
1.31364
1.3129
1.31379
1.31423
1.31332
1.31277
1.31281
1.31301
1.31269
1.31222
1.3122
1.31246
1.31224
1.31185
1.31131
1.31042
1.30932
1.30867
1.30833
1.30783
1.30741
1.30681
1.30645
1.30637
1.30643
1.30811
1.31391
1.32515
1.35547
0.692918
0.692925
0.692934
0.692943
0.692952
0.692962
0.692972
0.692982
0.692992
0.693003
0.693014
0.693026
0.693038
0.693051
0.693064
0.693079
0.693093
0.693108
0.693124
0.69314
0.693157
0.693174
0.693191
0.693208
0.693225
0.693242
0.693258
0.693273
0.693287
0.6933
0.693307
0.693318
0.69333
0.69334
0.693349
0.693373
0.693361
0.693359
0.693384
0.693528
0.69415
0.696566
0.703391
0.723044
0.76074
0.827563
0.922832
1.02451
1.12315
1.18307
1.23313
1.25953
1.27403
1.28733
1.30437
1.31826
1.31748
1.31475
1.30144
1.29277
1.29607
1.30646
1.31732
1.31969
1.31626
1.31202
1.31159
1.3142
1.31737
1.31686
1.3139
1.31274
1.31332
1.31541
1.3147
1.31315
1.31269
1.31328
1.31316
1.31264
1.31244
1.31252
1.31277
1.31245
1.31196
1.31134
1.31037
1.30932
1.30866
1.30839
1.30793
1.30749
1.30686
1.30629
1.30621
1.30634
1.30806
1.31389
1.32503
1.35527
0.693086
0.693092
0.693097
0.693104
0.69311
0.693117
0.693124
0.693131
0.693139
0.693147
0.693156
0.693165
0.693175
0.693186
0.693197
0.693209
0.693221
0.693234
0.693246
0.693259
0.693272
0.693285
0.693298
0.69331
0.693321
0.693332
0.693341
0.69335
0.693356
0.69336
0.693364
0.693365
0.693364
0.69336
0.693358
0.693351
0.693347
0.693344
0.693342
0.693334
0.693327
0.693331
0.693364
0.693571
0.694441
0.697882
0.709386
0.738336
0.797471
0.889492
0.99843
1.10705
1.20235
1.26552
1.29173
1.30458
1.3085
1.30009
1.28544
1.29151
1.30521
1.31646
1.31926
1.31681
1.30988
1.30952
1.31191
1.31842
1.31834
1.31499
1.31197
1.31233
1.31552
1.31594
1.31463
1.31292
1.31291
1.31375
1.31339
1.31274
1.31255
1.31298
1.31288
1.31247
1.31196
1.31116
1.31
1.30912
1.30875
1.30839
1.30787
1.30748
1.30676
1.30615
1.3061
1.30633
1.30806
1.31386
1.3249
1.35511
0.69318
0.693184
0.69319
0.693195
0.693201
0.693208
0.693215
0.693222
0.69323
0.693238
0.693246
0.693255
0.693264
0.693274
0.693285
0.693294
0.693304
0.693315
0.693324
0.693334
0.693342
0.69335
0.693357
0.693364
0.693369
0.693373
0.693376
0.693379
0.693378
0.693378
0.693376
0.693374
0.693368
0.69336
0.693356
0.693347
0.693338
0.693332
0.693322
0.693319
0.69332
0.693323
0.693335
0.693335
0.693343
0.693369
0.693469
0.693945
0.696108
0.704593
0.729159
0.787203
0.882545
1.00351
1.11525
1.1922
1.24348
1.26382
1.28205
1.30358
1.32469
1.32465
1.32095
1.30754
1.30553
1.30947
1.31821
1.32094
1.31668
1.31117
1.31129
1.31465
1.31732
1.31606
1.3129
1.31266
1.31383
1.31398
1.31296
1.31253
1.31271
1.31331
1.31299
1.31233
1.31184
1.31093
1.30974
1.30899
1.30885
1.30837
1.30783
1.30741
1.30666
1.30603
1.306
1.30623
1.308
1.31384
1.3248
1.35506
0.693272
0.693278
0.693283
0.693289
0.693295
0.693301
0.693307
0.693314
0.693322
0.69333
0.693337
0.693344
0.693351
0.693359
0.693365
0.693371
0.693378
0.693383
0.693387
0.69339
0.693393
0.693395
0.693398
0.693399
0.693399
0.693396
0.693394
0.693392
0.693388
0.693386
0.693381
0.693373
0.693366
0.693358
0.693351
0.69334
0.693331
0.693327
0.693321
0.69332
0.693322
0.693327
0.693336
0.693354
0.693379
0.693408
0.693447
0.69347
0.693498
0.693573
0.693922
0.695833
0.703767
0.732422
0.796188
0.903344
1.03132
1.15634
1.24955
1.29182
1.30965
1.31728
1.30371
1.29912
1.3082
1.32017
1.32365
1.31967
1.30962
1.30861
1.31205
1.31815
1.3177
1.31368
1.31153
1.31273
1.31471
1.31386
1.31254
1.31246
1.31347
1.3135
1.31278
1.31215
1.31169
1.31066
1.30955
1.3089
1.30892
1.30843
1.30784
1.30737
1.30654
1.30595
1.30601
1.30622
1.30802
1.31384
1.32465
1.35475
0.69337
0.693375
0.693381
0.693387
0.693392
0.693397
0.693401
0.693406
0.69341
0.693414
0.693418
0.693422
0.693425
0.693429
0.69343
0.69343
0.69343
0.693429
0.693429
0.693427
0.693426
0.693423
0.69342
0.693419
0.693416
0.693408
0.693404
0.693402
0.693398
0.693392
0.693386
0.69338
0.693372
0.693366
0.69336
0.693353
0.69335
0.693351
0.693355
0.693362
0.693372
0.693386
0.693402
0.693421
0.69344
0.693459
0.693477
0.693494
0.693511
0.69352
0.693531
0.693549
0.693617
0.69404
0.69645
0.70755
0.74377
0.827556
0.958045
1.0931
1.18746
1.25321
1.27594
1.30232
1.32672
1.33292
1.32834
1.30977
1.30453
1.30862
1.3185
1.32001
1.31545
1.31093
1.31145
1.31508
1.3153
1.31336
1.31206
1.31286
1.31418
1.31363
1.31256
1.31214
1.31154
1.31032
1.30944
1.30903
1.30901
1.3085
1.30793
1.30738
1.30644
1.3059
1.30597
1.30625
1.30809
1.31387
1.32451
1.35454
0.693454
0.693456
0.693458
0.69346
0.693461
0.693463
0.693464
0.693464
0.693465
0.693465
0.693464
0.693463
0.693462
0.693463
0.69346
0.693456
0.693452
0.693448
0.693446
0.693444
0.693439
0.693435
0.693432
0.693425
0.693415
0.693409
0.693408
0.693407
0.693401
0.693395
0.693393
0.693391
0.693389
0.693389
0.69339
0.693393
0.693399
0.693408
0.693422
0.693439
0.693457
0.693476
0.693492
0.693504
0.693512
0.693519
0.693523
0.693523
0.693522
0.69352
0.69352
0.693527
0.693551
0.693594
0.693672
0.693844
0.694643
0.698946
0.71969
0.779375
0.894297
1.04387
1.18557
1.28129
1.31366
1.32298
1.3125
1.29932
1.30762
1.3201
1.32362
1.31889
1.30923
1.30961
1.31448
1.31692
1.31481
1.3118
1.31211
1.31464
1.31467
1.31335
1.31235
1.31223
1.31144
1.31003
1.30932
1.30949
1.30921
1.30856
1.30803
1.3074
1.30636
1.30592
1.30601
1.30634
1.30823
1.3139
1.32438
1.35433
0.693496
0.693495
0.693493
0.693491
0.693489
0.693488
0.693486
0.693482
0.69348
0.693477
0.693474
0.693472
0.69347
0.693466
0.693462
0.693455
0.693446
0.693442
0.693438
0.693431
0.693422
0.693411
0.693401
0.693398
0.693398
0.693395
0.693392
0.693393
0.693393
0.693394
0.693394
0.693397
0.693402
0.693412
0.693424
0.693441
0.693458
0.693479
0.693501
0.693522
0.693543
0.693558
0.693567
0.693569
0.693568
0.693565
0.693558
0.693548
0.693537
0.693525
0.69352
0.693525
0.693547
0.693592
0.69367
0.693794
0.69398
0.694249
0.694798
0.696947
0.708639
0.74972
0.859193
1.01416
1.15184
1.24431
1.27647
1.29951
1.3255
1.33335
1.32785
1.309
1.30536
1.31158
1.3188
1.31759
1.31256
1.31112
1.31384
1.31615
1.31485
1.31284
1.31249
1.31236
1.31117
1.30988
1.30947
1.30991
1.30943
1.30869
1.30819
1.30743
1.30629
1.306
1.30611
1.30654
1.30842
1.31393
1.32421
1.35409
0.693518
0.693514
0.693508
0.693503
0.693499
0.693492
0.693486
0.693481
0.693474
0.693468
0.693463
0.693458
0.693452
0.693445
0.693439
0.693429
0.693419
0.693414
0.693409
0.693402
0.693396
0.693388
0.693384
0.693384
0.693383
0.693383
0.693383
0.693386
0.693391
0.693397
0.693405
0.693417
0.693435
0.693455
0.693478
0.693501
0.693523
0.693547
0.693566
0.693583
0.693598
0.693605
0.693604
0.693601
0.693595
0.693586
0.693573
0.693556
0.693539
0.693525
0.693522
0.69353
0.693558
0.693613
0.693711
0.693868
0.694079
0.694362
0.694724
0.695207
0.695904
0.697456
0.705437
0.739967
0.8373
0.992039
1.15762
1.27077
1.31228
1.32136
1.31049
1.30015
1.31004
1.32202
1.32051
1.31332
1.30933
1.31126
1.31751
1.31698
1.31367
1.3123
1.31305
1.31249
1.31067
1.30967
1.31018
1.31026
1.30957
1.30882
1.30835
1.30746
1.3063
1.30616
1.30631
1.30679
1.30861
1.31393
1.32399
1.35378
0.693527
0.693519
0.693514
0.69351
0.693503
0.693493
0.693488
0.693483
0.693475
0.693467
0.69346
0.693451
0.693444
0.693437
0.693429
0.693422
0.693416
0.693411
0.693406
0.693403
0.6934
0.693397
0.693396
0.693396
0.693396
0.693397
0.693401
0.693409
0.693421
0.693437
0.693456
0.693477
0.693497
0.693517
0.693534
0.693552
0.69357
0.693587
0.6936
0.69361
0.693619
0.693619
0.693615
0.693609
0.693602
0.69359
0.693574
0.693558
0.693546
0.693534
0.69353
0.693543
0.693588
0.693672
0.693795
0.693961
0.694163
0.694435
0.694802
0.695272
0.695947
0.696817
0.697944
0.699673
0.706219
0.736346
0.83028
0.988886
1.1413
1.23405
1.27661
1.29847
1.33075
1.3303
1.32217
1.30681
1.30864
1.31754
1.31989
1.31586
1.31213
1.31279
1.31369
1.31213
1.31003
1.30979
1.31106
1.31064
1.30966
1.30903
1.30845
1.30742
1.30634
1.30633
1.30658
1.30704
1.30874
1.31387
1.32369
1.35339
0.693509
0.693504
0.6935
0.693495
0.693488
0.693483
0.69348
0.693474
0.693468
0.693461
0.693455
0.693449
0.693443
0.693436
0.693431
0.693428
0.693426
0.693424
0.693422
0.693423
0.693423
0.693424
0.693428
0.693433
0.69344
0.69345
0.693462
0.693475
0.693491
0.693506
0.69352
0.693533
0.693546
0.693557
0.693568
0.693579
0.693592
0.693604
0.693613
0.69362
0.693626
0.693624
0.693617
0.693607
0.693594
0.693582
0.693574
0.69357
0.693567
0.693564
0.693573
0.693608
0.69368
0.693778
0.693896
0.694042
0.694223
0.694487
0.694844
0.695316
0.695999
0.696875
0.698016
0.699374
0.70129
0.703223
0.709049
0.738887
0.826678
0.981122
1.15873
1.266
1.31912
1.31858
1.30355
1.30459
1.3174
1.32407
1.32009
1.31113
1.3113
1.31506
1.31437
1.311
1.30935
1.31075
1.31163
1.31071
1.30953
1.30929
1.30851
1.30732
1.30642
1.30661
1.30687
1.30721
1.3088
1.31373
1.32329
1.35296
0.693494
0.69349
0.693485
0.69348
0.693475
0.693473
0.693472
0.693469
0.693467
0.693464
0.693461
0.69346
0.69346
0.69346
0.693461
0.693464
0.693469
0.693473
0.693479
0.693488
0.693493
0.6935
0.693511
0.693519
0.69353
0.693541
0.693546
0.693552
0.693557
0.693558
0.693559
0.693561
0.693564
0.693568
0.693573
0.693579
0.693582
0.693583
0.693582
0.693581
0.693581
0.693575
0.693567
0.693568
0.693575
0.693585
0.693591
0.693604
0.693621
0.693639
0.693673
0.693729
0.693805
0.693883
0.693979
0.6941
0.694261
0.694516
0.694862
0.695343
0.696035
0.696949
0.698082
0.699541
0.70133
0.70332
0.70503
0.706465
0.711264
0.739054
0.830089
0.99311
1.16266
1.23747
1.28058
1.30852
1.33348
1.32737
1.31239
1.30791
1.31316
1.31693
1.31297
1.30925
1.30952
1.31243
1.3121
1.31041
1.30938
1.30944
1.30845
1.30716
1.3066
1.30698
1.30715
1.30732
1.30879
1.31352
1.32282
1.35264
0.693494
0.693494
0.693494
0.693496
0.693497
0.693501
0.693505
0.693508
0.693512
0.693517
0.693522
0.693527
0.693535
0.693542
0.693548
0.693557
0.693568
0.693575
0.693581
0.693591
0.693598
0.6936
0.693605
0.693609
0.69361
0.693608
0.693603
0.693595
0.693587
0.693576
0.693567
0.693563
0.693559
0.693549
0.693538
0.693523
0.693506
0.693497
0.693494
0.693496
0.6935
0.693504
0.693513
0.693532
0.693559
0.693584
0.693617
0.693662
0.693706
0.69374
0.693776
0.693825
0.693882
0.693941
0.694016
0.694122
0.694265
0.694505
0.694857
0.695356
0.696084
0.69705
0.698205
0.699786
0.701672
0.703661
0.705343
0.706445
0.706885
0.707557
0.712012
0.744758
0.841998
1.017
1.19661
1.28324
1.31896
1.31717
1.30326
1.31129
1.32054
1.31722
1.30809
1.30799
1.31185
1.31351
1.31163
1.30974
1.30982
1.3095
1.30799
1.30693
1.30694
1.30727
1.30731
1.30739
1.30871
1.31298
1.3219
1.35159
0.693555
0.693561
0.69357
0.693579
0.693586
0.693596
0.693606
0.693612
0.693619
0.693628
0.693633
0.693642
0.69365
0.693656
0.693662
0.693667
0.693672
0.693674
0.693674
0.693674
0.693672
0.693669
0.693664
0.693658
0.69365
0.693638
0.693624
0.693609
0.693594
0.693576
0.693554
0.69353
0.693502
0.693477
0.693457
0.693436
0.693427
0.693427
0.69343
0.693438
0.693449
0.693465
0.693491
0.693517
0.693554
0.693612
0.693678
0.693745
0.693794
0.693815
0.693833
0.693863
0.693904
0.693952
0.694021
0.69411
0.694249
0.694497
0.694865
0.695372
0.696145
0.697186
0.698422
0.70006
0.701995
0.703873
0.705413
0.706415
0.706807
0.707012
0.707216
0.708006
0.713847
0.754378
0.871729
1.04667
1.20182
1.26036
1.29058
1.32837
1.32651
1.31668
1.3044
1.30835
1.31588
1.3142
1.30958
1.30928
1.31068
1.30977
1.30764
1.30692
1.3077
1.3075
1.30733
1.30741
1.30858
1.31233
1.321
1.35079
0.69365
0.693658
0.693665
0.69367
0.693677
0.693684
0.69369
0.693696
0.693701
0.693706
0.693711
0.693717
0.693723
0.693724
0.693724
0.693724
0.693722
0.693718
0.693713
0.693708
0.693701
0.693692
0.693682
0.693671
0.693658
0.693641
0.693619
0.693595
0.693571
0.693543
0.693512
0.693482
0.693457
0.693437
0.693421
0.693412
0.69341
0.693412
0.693419
0.693429
0.693442
0.693461
0.69349
0.69354
0.693612
0.693686
0.693756
0.693812
0.693839
0.693851
0.693855
0.693872
0.693903
0.693941
0.693996
0.69409
0.694242
0.694508
0.694886
0.695418
0.696284
0.697401
0.698692
0.700322
0.70224
0.704007
0.705402
0.706296
0.706753
0.706966
0.707161
0.707442
0.70798
0.709542
0.718831
0.77278
0.904235
1.09733
1.24305
1.31044
1.31601
1.2994
1.30466
1.31875
1.31796
1.31051
1.30789
1.3107
1.31121
1.30864
1.30688
1.30744
1.30817
1.3077
1.30742
1.30732
1.30801
1.31149
1.32005
1.34999
0.693686
0.693691
0.693696
0.6937
0.693704
0.693709
0.693713
0.693717
0.693721
0.693724
0.693728
0.693733
0.693737
0.693738
0.693737
0.693733
0.693729
0.693722
0.693712
0.693703
0.693692
0.693677
0.693659
0.69364
0.693623
0.693603
0.693584
0.693569
0.693552
0.693527
0.6935
0.693472
0.693449
0.693435
0.693428
0.693423
0.693428
0.693442
0.693464
0.693485
0.693514
0.693552
0.693598
0.69365
0.693706
0.693758
0.693805
0.693843
0.693849
0.693847
0.693847
0.693846
0.693857
0.693893
0.693966
0.69408
0.694249
0.694539
0.694955
0.695562
0.696506
0.697664
0.69894
0.700523
0.702397
0.704056
0.705337
0.706221
0.706734
0.706966
0.707148
0.707492
0.708022
0.708876
0.709954
0.712481
0.72668
0.79762
0.955632
1.13292
1.2365
1.27869
1.31489
1.3297
1.32042
1.30465
1.30768
1.31342
1.31159
1.30684
1.30695
1.30896
1.30857
1.30753
1.30765
1.30725
1.30742
1.31073
1.31927
1.34922
0.693682
0.693683
0.693682
0.693681
0.69368
0.69368
0.693678
0.693675
0.693672
0.693672
0.693671
0.693667
0.693664
0.693664
0.693662
0.693653
0.693643
0.693631
0.693621
0.693614
0.693608
0.693602
0.693595
0.693592
0.693589
0.693583
0.693576
0.693567
0.693553
0.693532
0.693508
0.693488
0.693481
0.69348
0.693486
0.693508
0.693545
0.693587
0.693623
0.693651
0.693675
0.693698
0.693718
0.693741
0.693759
0.693794
0.693803
0.693795
0.693785
0.693782
0.693784
0.693785
0.693799
0.693851
0.693947
0.694083
0.694291
0.694654
0.695148
0.695811
0.696776
0.697901
0.699117
0.700647
0.702464
0.704014
0.705252
0.706171
0.706732
0.70701
0.707266
0.707606
0.708076
0.708788
0.709641
0.7107
0.711958
0.715842
0.740792
0.831255
1.01253
1.20134
1.29178
1.31624
1.30027
1.30289
1.3164
1.31574
1.30814
1.30509
1.3088
1.31
1.30826
1.30728
1.30779
1.30708
1.30684
1.3102
1.31871
1.34846
0.693554
0.693549
0.693544
0.693542
0.693539
0.693532
0.693529
0.69353
0.693528
0.693523
0.69352
0.69352
0.693521
0.693523
0.693525
0.693528
0.693526
0.693525
0.693526
0.693532
0.693543
0.693556
0.693569
0.693578
0.693582
0.693582
0.693581
0.693581
0.693582
0.693585
0.693588
0.693598
0.693609
0.693623
0.693647
0.693685
0.693722
0.693753
0.693768
0.693768
0.693763
0.693762
0.693763
0.693767
0.693771
0.693759
0.693733
0.693713
0.693707
0.693721
0.693747
0.693755
0.69377
0.693835
0.693971
0.694167
0.694447
0.694889
0.695419
0.696077
0.697005
0.698059
0.699225
0.700702
0.702463
0.703981
0.705196
0.706147
0.706805
0.707196
0.707448
0.707709
0.70813
0.708644
0.709205
0.709917
0.710903
0.712488
0.714581
0.721092
0.761122
0.892258
1.0735
1.22114
1.27013
1.30758
1.32532
1.31731
1.30303
1.30558
1.31188
1.31055
1.30735
1.30766
1.30787
1.30632
1.3063
1.30988
1.31823
1.34756
0.693432
0.693431
0.69343
0.693429
0.693429
0.693427
0.693427
0.693427
0.693427
0.693427
0.693431
0.693436
0.693443
0.693452
0.693461
0.69347
0.693476
0.693483
0.693492
0.693506
0.693524
0.693544
0.693566
0.693591
0.693614
0.693637
0.693662
0.693692
0.693728
0.693746
0.693755
0.693763
0.693768
0.693783
0.693792
0.693805
0.693808
0.693806
0.693805
0.693788
0.693768
0.69376
0.693748
0.69373
0.693709
0.69368
0.693681
0.693677
0.693673
0.693705
0.693751
0.693757
0.693783
0.693894
0.694099
0.694347
0.69467
0.69514
0.695651
0.69627
0.69714
0.698141
0.699279
0.70072
0.702474
0.703984
0.705194
0.706271
0.707043
0.707438
0.70757
0.707762
0.708097
0.708346
0.708687
0.709223
0.710155
0.711568
0.713451
0.715857
0.718595
0.731252
0.797325
0.957092
1.15994
1.27931
1.31106
1.29861
1.30061
1.31399
1.31397
1.30785
1.30615
1.30886
1.30799
1.30504
1.30612
1.31044
1.31795
1.34645
0.693418
0.693416
0.693416
0.693419
0.693419
0.693417
0.693416
0.693419
0.693418
0.693418
0.693423
0.693432
0.693441
0.693452
0.693467
0.693479
0.693494
0.693517
0.693545
0.693578
0.693616
0.693655
0.693691
0.693724
0.693757
0.693791
0.693819
0.693855
0.693879
0.69388
0.693877
0.693868
0.693855
0.693845
0.693836
0.693813
0.693793
0.693778
0.693758
0.693727
0.6937
0.69368
0.69367
0.693663
0.693643
0.693643
0.693676
0.693676
0.69367
0.693708
0.693785
0.693849
0.693933
0.694083
0.694287
0.694519
0.694836
0.695286
0.695771
0.696357
0.697193
0.69817
0.699312
0.700743
0.702514
0.704041
0.705423
0.706554
0.707311
0.707545
0.707604
0.707744
0.707875
0.707995
0.708227
0.708709
0.709575
0.71091
0.712846
0.715163
0.717752
0.71928
0.722436
0.745944
0.854567
1.03941
1.20376
1.26781
1.30427
1.32366
1.31599
1.30334
1.30637
1.31002
1.30609
1.30361
1.30607
1.31085
1.31738
1.34497
0.693517
0.693526
0.693537
0.693554
0.69356
0.693565
0.693573
0.693588
0.693608
0.693618
0.69363
0.693649
0.693666
0.693688
0.693708
0.693722
0.693738
0.693755
0.693771
0.693786
0.693801
0.693817
0.693837
0.693848
0.693857
0.693883
0.6939
0.693908
0.693916
0.693918
0.693906
0.693869
0.693821
0.693765
0.693711
0.693673
0.693637
0.6936
0.693584
0.693572
0.693576
0.693593
0.693618
0.69363
0.693619
0.693644
0.693705
0.693725
0.693747
0.693827
0.693986
0.694072
0.694133
0.694251
0.694418
0.694621
0.69491
0.695335
0.695804
0.696376
0.697181
0.698172
0.699351
0.700802
0.702656
0.704452
0.705883
0.706907
0.707423
0.707522
0.707528
0.707518
0.707519
0.707607
0.707891
0.708421
0.709293
0.71057
0.712315
0.714515
0.716578
0.718392
0.719414
0.720188
0.727409
0.779407
0.931022
1.14545
1.27048
1.31269
1.29741
1.30027
1.31277
1.31131
1.30263
1.30337
1.30871
1.31124
1.31584
1.34296
0.693847
0.693871
0.693876
0.693878
0.693885
0.6939
0.693903
0.693898
0.693899
0.693907
0.693902
0.693902
0.693912
0.693905
0.693897
0.693897
0.693898
0.693898
0.693895
0.693897
0.693893
0.693884
0.693888
0.693879
0.693861
0.693859
0.693825
0.693778
0.69377
0.693751
0.693696
0.693634
0.693599
0.693568
0.693531
0.693489
0.693478
0.693478
0.693467
0.693469
0.693496
0.693557
0.693636
0.693667
0.693687
0.693748
0.693862
0.693936
0.693984
0.694072
0.694222
0.69425
0.694232
0.694298
0.69446
0.694651
0.694885
0.695257
0.695728
0.696334
0.697166
0.698219
0.699512
0.701119
0.703216
0.705036
0.706285
0.707119
0.707382
0.70731
0.707167
0.707069
0.707111
0.707317
0.707743
0.70835
0.709339
0.710474
0.711931
0.713662
0.715104
0.716771
0.718233
0.719124
0.719873
0.722214
0.741849
0.841981
1.02814
1.20816
1.2602
1.30366
1.31878
1.30756
1.29935
1.30628
1.31128
1.30975
1.31356
1.34109
0.694049
0.69404
0.694038
0.694042
0.694044
0.694032
0.694017
0.694015
0.694016
0.694004
0.693988
0.693988
0.693986
0.693974
0.693959
0.693941
0.693933
0.693924
0.693903
0.693877
0.693833
0.693797
0.693755
0.693665
0.693632
0.693642
0.693616
0.693559
0.693539
0.693531
0.693514
0.693486
0.693472
0.693477
0.693478
0.693447
0.693438
0.693468
0.693468
0.693469
0.693532
0.693652
0.693787
0.693915
0.693972
0.694018
0.694089
0.694129
0.694143
0.69418
0.694266
0.694291
0.694262
0.694291
0.694401
0.694561
0.694793
0.695188
0.695714
0.696342
0.697221
0.698516
0.700022
0.701795
0.703904
0.705417
0.706507
0.707067
0.70707
0.70688
0.70666
0.706663
0.706826
0.707211
0.707763
0.708653
0.709626
0.710696
0.711662
0.712598
0.713712
0.715077
0.716875
0.718498
0.719969
0.721123
0.721927
0.727895
0.777755
0.930091
1.14219
1.27529
1.30334
1.29267
1.30024
1.31387
1.31196
1.30701
1.31143
1.3391
0.693942
0.693938
0.693937
0.693927
0.693922
0.693922
0.693922
0.69391
0.693887
0.693872
0.693865
0.693852
0.693829
0.69381
0.693794
0.693764
0.693729
0.693703
0.693658
0.69358
0.693562
0.693557
0.693523
0.693467
0.693455
0.693489
0.693512
0.693504
0.693468
0.693451
0.693454
0.693455
0.693454
0.693471
0.693506
0.693518
0.693578
0.693637
0.693664
0.693749
0.693867
0.693982
0.694083
0.694123
0.694146
0.694179
0.694186
0.694172
0.694145
0.694138
0.694132
0.69411
0.694097
0.694146
0.694282
0.694494
0.694763
0.695183
0.695803
0.696564
0.697689
0.699236
0.700744
0.702541
0.704288
0.705546
0.706325
0.706502
0.70648
0.706349
0.706317
0.706428
0.706739
0.707256
0.708192
0.709164
0.709961
0.710639
0.711058
0.711538
0.712338
0.71362
0.715496
0.717699
0.719957
0.721148
0.721757
0.721894
0.723467
0.742426
0.850205
1.04249
1.20366
1.26868
1.31003
1.31994
1.3107
1.30428
1.31058
1.3379
0.693496
0.693492
0.693491
0.69349
0.693495
0.693503
0.693502
0.693502
0.693508
0.693505
0.69351
0.693527
0.693529
0.69353
0.693539
0.693543
0.693538
0.693515
0.693501
0.693491
0.693468
0.693462
0.69347
0.693455
0.693439
0.693464
0.693493
0.693505
0.693533
0.693588
0.693633
0.69366
0.69373
0.693808
0.693845
0.693947
0.694041
0.694044
0.694096
0.694127
0.694163
0.694216
0.69423
0.694192
0.694155
0.694153
0.694104
0.693999
0.693912
0.693841
0.693824
0.693847
0.693929
0.694071
0.694266
0.694518
0.694854
0.695414
0.696252
0.697226
0.698557
0.69992
0.701361
0.702963
0.704295
0.705305
0.705674
0.705794
0.705879
0.70598
0.706141
0.706394
0.706908
0.707806
0.708853
0.709578
0.710105
0.710285
0.710397
0.71069
0.711349
0.7126
0.714448
0.716982
0.719288
0.720935
0.721034
0.721029
0.721396
0.722346
0.730191
0.784788
0.949502
1.16588
1.28104
1.3076
1.29468
1.30409
1.31245
1.33671
0.693244
0.693259
0.693267
0.693275
0.69329
0.693308
0.693332
0.693364
0.69337
0.693377
0.693417
0.693448
0.693447
0.693455
0.693483
0.693498
0.6935
0.693496
0.693486
0.693488
0.693496
0.693519
0.693562
0.693622
0.693693
0.693769
0.693852
0.693933
0.693995
0.694064
0.694105
0.69411
0.694141
0.694176
0.694193
0.694235
0.694246
0.694246
0.694255
0.694244
0.694191
0.694156
0.694119
0.693991
0.693875
0.693847
0.693781
0.693677
0.693614
0.693611
0.693646
0.693733
0.693864
0.694029
0.694302
0.694775
0.695363
0.696121
0.697001
0.697996
0.699079
0.700273
0.701678
0.702933
0.703875
0.704651
0.705047
0.705307
0.705544
0.705826
0.706104
0.706656
0.707504
0.708552
0.709234
0.70975
0.70983
0.709722
0.709748
0.710024
0.710736
0.712008
0.713843
0.716281
0.718039
0.719554
0.719907
0.720324
0.721082
0.722493
0.723375
0.725766
0.750317
0.867906
1.06488
1.2241
1.27521
1.31394
1.31363
1.33182
0.693402
0.693418
0.693437
0.693465
0.693502
0.693546
0.693596
0.693655
0.693678
0.693683
0.693714
0.693794
0.693816
0.693828
0.69388
0.693939
0.693995
0.694041
0.694101
0.694167
0.694226
0.694286
0.694335
0.694384
0.694428
0.694436
0.694432
0.694431
0.694425
0.694406
0.694373
0.694328
0.694296
0.694271
0.694242
0.694221
0.694185
0.694101
0.693992
0.693904
0.693836
0.69381
0.693776
0.693673
0.693616
0.693657
0.693672
0.693622
0.693574
0.693583
0.693661
0.693816
0.694069
0.694413
0.694923
0.695598
0.696222
0.696815
0.697546
0.698347
0.699213
0.700217
0.701432
0.702436
0.703301
0.704054
0.704664
0.705144
0.705495
0.705888
0.706554
0.707406
0.708318
0.708884
0.709326
0.709296
0.709107
0.709055
0.709227
0.709697
0.710556
0.71184
0.713579
0.715164
0.716291
0.717418
0.718524
0.719708
0.721239
0.722667
0.723516
0.7239
0.724727
0.734235
0.802993
0.987219
1.19577
1.29498
1.29861
1.32684
0.694783
0.694802
0.694822
0.694849
0.694881
0.694928
0.695009
0.695071
0.695074
0.695074
0.695088
0.695087
0.695092
0.69513
0.695144
0.695125
0.695112
0.695131
0.695131
0.695093
0.695035
0.694979
0.6949
0.694814
0.694768
0.694713
0.69462
0.694531
0.694456
0.694359
0.694236
0.694114
0.694005
0.693916
0.693836
0.693781
0.693772
0.693728
0.693623
0.693605
0.69362
0.693654
0.693651
0.693616
0.693609
0.693652
0.693765
0.693855
0.693948
0.694163
0.694448
0.694791
0.695198
0.695565
0.695986
0.696502
0.696843
0.697175
0.697638
0.698119
0.698767
0.699708
0.700945
0.702109
0.703063
0.70385
0.704557
0.705138
0.705816
0.706614
0.707566
0.708201
0.708705
0.708834
0.708701
0.708447
0.708385
0.708534
0.708921
0.7096
0.710966
0.712342
0.713267
0.713795
0.714502
0.715581
0.71712
0.719149
0.721246
0.722427
0.722939
0.723264
0.723995
0.724929
0.72854
0.763197
0.908343
1.11372
1.24074
1.32554
0.696323
0.696287
0.696273
0.69628
0.696286
0.69627
0.696266
0.696272
0.696258
0.696191
0.696101
0.696045
0.695996
0.695974
0.695946
0.695875
0.695752
0.695634
0.695547
0.695482
0.695395
0.695282
0.695143
0.694912
0.694693
0.694579
0.694479