/*--------------------------------*- C++ -*----------------------------------*\
  =========                 |
  \\      /  F ield         | OpenFOAM: The Open Source CFD Toolbox
   \\    /   O peration     | Website:  https://openfoam.org
    \\  /    A nd           | Version:  7
     \\/     M anipulation  |
\*---------------------------------------------------------------------------*/
FoamFile
{
    version     2.0;
    format      ascii;
    class       volVectorField;
    location    "1";
    object      U;
}
// * * * * * * * * * * * * * * * * * * * * * * * * * * * * * * * * * * * * * //

dimensions      [0 1 -1 0 0 0 0];

internalField   nonuniform List<vector> 
90000
(
(2.52383 -1.12747 0)
(2.5248 -1.04332 0)
(2.52213 -0.935444 0)
(2.53145 -0.824084 0)
(2.55733 -0.780535 0)
(2.56045 -0.711214 0)
(2.56437 -0.631273 0)
(2.57993 -0.556513 0)
(2.59481 -0.528357 0)
(2.59436 -0.456667 0)
(2.60355 -0.408968 0)
(2.60637 -0.347179 0)
(2.61066 -0.311824 0)
(2.60932 -0.250771 0)
(2.61245 -0.208403 0)
(2.61318 -0.162361 0)
(2.61332 -0.116875 0)
(2.61705 -0.0851341 0)
(2.61736 -0.0413904 0)
(2.62435 -0.028074 0)
(2.62813 0.00881132 0)
(2.63029 0.00670735 0)
(2.63465 0.0124879 0)
(2.63789 0.013215 0)
(2.6438 0.00380646 0)
(2.64685 0.00260421 0)
(2.65015 -0.00116181 0)
(2.6559 -0.00279702 0)
(2.66171 -0.00223744 0)
(2.66734 -0.00601164 0)
(2.67512 0.00117211 0)
(2.68199 -0.00211124 0)
(2.68452 -0.0143178 0)
(2.68184 -0.0238054 0)
(2.67646 -0.0288216 0)
(2.6731 -0.0411244 0)
(2.67051 -0.0448769 0)
(2.66535 -0.0482283 0)
(2.66307 -0.049311 0)
(2.65579 -0.0531087 0)
(2.64704 -0.0612703 0)
(2.64019 -0.0668536 0)
(2.63412 -0.0791095 0)
(2.63872 -0.0759401 0)
(2.64308 -0.0734568 0)
(2.65026 -0.0684786 0)
(2.66199 -0.0627851 0)
(2.67778 -0.0594853 0)
(2.69366 -0.0467748 0)
(2.72256 -0.0353444 0)
(2.74726 -0.0240949 0)
(2.77364 -0.00669157 0)
(2.80616 0.00571327 0)
(2.84252 0.0252523 0)
(2.87683 0.0496764 0)
(2.88612 0.0626275 0)
(2.8978 0.0654466 0)
(2.902 0.0632502 0)
(2.90551 0.0601731 0)
(2.90906 0.0550019 0)
(2.91395 0.0535031 0)
(2.91943 0.0550695 0)
(2.92512 0.057454 0)
(2.93045 0.06037 0)
(2.93338 0.057234 0)
(2.93549 0.054685 0)
(2.9388 0.052868 0)
(2.94293 0.0507158 0)
(2.94702 0.0512758 0)
(2.95093 0.0500312 0)
(2.95485 0.0494913 0)
(2.95621 0.0474545 0)
(2.96387 0.0454423 0)
(2.97211 0.0487541 0)
(2.98334 0.0518355 0)
(2.99759 0.0601473 0)
(3.01949 0.0648844 0)
(3.03524 0.0716824 0)
(3.05218 0.0767166 0)
(3.06976 0.0806019 0)
(3.08654 0.0834304 0)
(3.10221 0.085154 0)
(3.11661 0.0855066 0)
(3.12986 0.0856501 0)
(3.13993 0.0885983 0)
(3.14326 0.085372 0)
(3.1483 0.0764203 0)
(3.15395 0.0802703 0)
(3.15888 0.080528 0)
(3.15769 0.0708541 0)
(3.14695 0.0575882 0)
(3.13306 0.0650603 0)
(3.13855 0.0866522 0)
(3.14741 0.116315 0)
(3.14033 0.158814 0)
(3.12499 0.201637 0)
(3.0757 0.20049 0)
(3.00854 0.162816 0)
(2.96096 0.124469 0)
(2.95226 0.081997 0)
(2.53718 -1.22194 0)
(2.53757 -1.22184 0)
(2.538 -1.22186 0)
(2.53852 -1.22181 0)
(2.53909 -1.22189 0)
(2.53977 -1.22196 0)
(2.54056 -1.22203 0)
(2.54143 -1.22223 0)
(2.54246 -1.22236 0)
(2.54348 -1.22282 0)
(2.54432 -1.22232 0)
(2.54378 -1.21855 0)
(2.54291 -1.20657 0)
(2.53965 -1.18638 0)
(2.53277 -1.15643 0)
(2.52063 -1.11231 0)
(2.50257 -1.04753 0)
(2.48191 -0.976415 0)
(2.45465 -0.871103 0)
(2.43108 -0.785264 0)
(2.39551 -0.644335 0)
(2.37123 -0.556116 0)
(2.34041 -0.427051 0)
(2.33384 -0.325878 0)
(2.34017 -0.255629 0)
(2.32233 -0.143514 0)
(2.33773 -0.113129 0)
(2.3224 -0.0338018 0)
(2.32157 -0.00367396 0)
(2.31582 0.0212563 0)
(2.31713 0.0489149 0)
(2.31736 0.0400175 0)
(2.32146 0.0478042 0)
(2.33585 0.0485736 0)
(2.34559 0.0488975 0)
(2.36053 0.0482629 0)
(2.37569 0.0429413 0)
(2.3784 0.028484 0)
(2.37622 0.0078193 0)
(2.36987 -0.0134177 0)
(2.37022 -0.03147 0)
(2.37227 -0.0486783 0)
(2.37359 -0.0489592 0)
(2.38122 -0.0437928 0)
(2.38315 -0.0280519 0)
(2.3763 -0.0223201 0)
(2.3783 -0.0296416 0)
(2.38475 -0.0401895 0)
(2.39144 -0.0488532 0)
(2.40118 -0.0488633 0)
(2.41389 -0.0406124 0)
(2.43688 -0.0329015 0)
(2.46451 -0.0235582 0)
(2.49178 -0.00147779 0)
(2.51887 0.0305175 0)
(2.54211 0.054711 0)
(2.55993 0.0641608 0)
(2.57136 0.0700659 0)
(2.5779 0.0698699 0)
(2.58789 0.0711612 0)
(2.59708 0.0663608 0)
(2.60808 0.0657106 0)
(2.61792 0.0661612 0)
(2.62645 0.0664768 0)
(2.6322 0.0666346 0)
(2.63919 0.0627087 0)
(2.64784 0.0610003 0)
(2.65776 0.0598113 0)
(2.6655 0.0588424 0)
(2.67265 0.0577207 0)
(2.67881 0.0540129 0)
(2.68602 0.0498946 0)
(2.69802 0.0485981 0)
(2.71635 0.0519997 0)
(2.73487 0.0606448 0)
(2.75913 0.0670482 0)
(2.78968 0.069353 0)
(2.81397 0.0712882 0)
(2.84111 0.073916 0)
(2.86975 0.0751409 0)
(2.89871 0.0786086 0)
(2.92681 0.0816191 0)
(2.95322 0.081282 0)
(2.97788 0.0836448 0)
(2.99974 0.0843512 0)
(3.01218 0.0752286 0)
(3.0209 0.0613923 0)
(3.03338 0.0552905 0)
(3.04756 0.0583046 0)
(3.05224 0.0606242 0)
(3.03789 0.0586246 0)
(3.01597 0.0624313 0)
(3.02478 0.0815243 0)
(3.06222 0.1119 0)
(3.09872 0.157477 0)
(3.10701 0.207297 0)
(3.07636 0.210654 0)
(3.00799 0.16882 0)
(2.95624 0.127477 0)
(2.94788 0.0825833 0)
(2.55314 -1.22462 0)
(2.55442 -1.22489 0)
(2.55561 -1.22566 0)
(2.55713 -1.22589 0)
(2.5584 -1.22684 0)
(2.56004 -1.2272 0)
(2.56145 -1.22832 0)
(2.56332 -1.22862 0)
(2.56481 -1.22997 0)
(2.56691 -1.23022 0)
(2.56848 -1.23176 0)
(2.57106 -1.23188 0)
(2.57231 -1.23402 0)
(2.57369 -1.23413 0)
(2.5748 -1.23472 0)
(2.57613 -1.23513 0)
(2.57739 -1.236 0)
(2.57892 -1.23649 0)
(2.58015 -1.23747 0)
(2.58172 -1.23799 0)
(2.5825 -1.23895 0)
(2.58207 -1.23757 0)
(2.57552 -1.22529 0)
(2.55971 -1.19435 0)
(2.5343 -1.14737 0)
(2.5 -1.068 0)
(2.46616 -0.986265 0)
(2.42317 -0.860441 0)
(2.38732 -0.74546 0)
(2.35038 -0.630873 0)
(2.30422 -0.478306 0)
(2.28766 -0.403706 0)
(2.24476 -0.271067 0)
(2.23986 -0.223389 0)
(2.21904 -0.141611 0)
(2.21355 -0.12006 0)
(2.2126 -0.1073 0)
(2.21588 -0.0958003 0)
(2.21636 -0.0935564 0)
(2.22198 -0.0859593 0)
(2.22057 -0.0827769 0)
(2.21521 -0.0771966 0)
(2.20633 -0.0621094 0)
(2.20499 -0.0392697 0)
(2.19989 -0.0454965 0)
(2.19752 -0.0555437 0)
(2.1948 -0.0691448 0)
(2.19469 -0.0707103 0)
(2.19692 -0.0663296 0)
(2.20036 -0.0560155 0)
(2.20267 -0.0439334 0)
(2.21306 -0.0314979 0)
(2.22901 -0.0179479 0)
(2.24473 0.00151731 0)
(2.2568 0.014706 0)
(2.26842 0.0262776 0)
(2.27249 0.0353533 0)
(2.27705 0.0423141 0)
(2.28228 0.0469156 0)
(2.28958 0.0506389 0)
(2.30071 0.0580025 0)
(2.30952 0.052867 0)
(2.31722 0.0476778 0)
(2.32591 0.0433109 0)
(2.33497 0.0425144 0)
(2.34664 0.0464473 0)
(2.35837 0.0525746 0)
(2.36975 0.0532946 0)
(2.37782 0.0509811 0)
(2.38377 0.0417652 0)
(2.3909 0.040734 0)
(2.40364 0.0421074 0)
(2.41894 0.0431761 0)
(2.43835 0.046615 0)
(2.46079 0.0495535 0)
(2.48866 0.0528681 0)
(2.51997 0.0582362 0)
(2.55041 0.0622445 0)
(2.58175 0.066972 0)
(2.61598 0.0725502 0)
(2.65139 0.0751532 0)
(2.68591 0.0748919 0)
(2.71881 0.0735615 0)
(2.75079 0.0712322 0)
(2.78224 0.0733811 0)
(2.80289 0.0688875 0)
(2.81557 0.0612974 0)
(2.82926 0.0629035 0)
(2.84724 0.0694208 0)
(2.85607 0.0658984 0)
(2.84388 0.0610351 0)
(2.82057 0.0659785 0)
(2.83758 0.0794838 0)
(2.9081 0.106889 0)
(2.99737 0.150019 0)
(3.05611 0.204409 0)
(3.06186 0.216915 0)
(3.00384 0.176211 0)
(2.94934 0.13085 0)
(2.94259 0.0826231 0)
(2.57208 -1.23334 0)
(2.57319 -1.23406 0)
(2.57453 -1.23445 0)
(2.57575 -1.23514 0)
(2.57713 -1.23548 0)
(2.57828 -1.23637 0)
(2.57975 -1.2366 0)
(2.58097 -1.23733 0)
(2.58238 -1.2377 0)
(2.58362 -1.23827 0)
(2.58501 -1.23862 0)
(2.58614 -1.23932 0)
(2.58745 -1.23984 0)
(2.5887 -1.24028 0)
(2.58979 -1.24084 0)
(2.59084 -1.24134 0)
(2.59167 -1.24185 0)
(2.59239 -1.24219 0)
(2.59305 -1.24256 0)
(2.5935 -1.243 0)
(2.59356 -1.2433 0)
(2.59369 -1.24346 0)
(2.59363 -1.24345 0)
(2.59337 -1.24325 0)
(2.59294 -1.24274 0)
(2.59219 -1.24229 0)
(2.59139 -1.24166 0)
(2.59063 -1.24099 0)
(2.58917 -1.23971 0)
(2.5881 -1.2379 0)
(2.57731 -1.21966 0)
(2.55327 -1.17583 0)
(2.50726 -1.0833 0)
(2.45726 -0.974758 0)
(2.39276 -0.807043 0)
(2.33912 -0.661763 0)
(2.27709 -0.489317 0)
(2.25498 -0.360407 0)
(2.20741 -0.198419 0)
(2.21028 -0.111523 0)
(2.16772 -0.0118657 0)
(2.14307 0.0724989 0)
(2.12384 0.0640393 0)
(2.10551 0.0393619 0)
(2.11186 0.00110905 0)
(2.13641 -0.0434468 0)
(2.13623 -0.0802204 0)
(2.13351 -0.0893875 0)
(2.13326 -0.0802425 0)
(2.13039 -0.0671216 0)
(2.12964 -0.0479429 0)
(2.12818 -0.0333782 0)
(2.13303 -0.0175281 0)
(2.13391 0.00083765 0)
(2.13122 0.011258 0)
(2.12628 0.0264506 0)
(2.11271 0.0405791 0)
(2.10407 0.0466495 0)
(2.10753 0.0480145 0)
(2.11081 0.0495209 0)
(2.11683 0.052744 0)
(2.12256 0.0589539 0)
(2.12796 0.0552913 0)
(2.13835 0.0524353 0)
(2.14629 0.0452682 0)
(2.1555 0.044417 0)
(2.16442 0.0473159 0)
(2.17191 0.0510846 0)
(2.17736 0.049642 0)
(2.18111 0.0466467 0)
(2.18757 0.0422356 0)
(2.1991 0.041986 0)
(2.21318 0.0434254 0)
(2.22805 0.0476928 0)
(2.24731 0.0544666 0)
(2.27192 0.0566166 0)
(2.29865 0.0555201 0)
(2.32421 0.0570274 0)
(2.35112 0.0563741 0)
(2.37996 0.0564765 0)
(2.40941 0.0593253 0)
(2.4383 0.062313 0)
(2.46715 0.0643956 0)
(2.49577 0.0695034 0)
(2.52688 0.0754983 0)
(2.54884 0.0709889 0)
(2.56391 0.067138 0)
(2.57744 0.0619156 0)
(2.59557 0.0567093 0)
(2.61102 0.061466 0)
(2.61742 0.0642614 0)
(2.61932 0.066484 0)
(2.658 0.0691931 0)
(2.75006 0.0914602 0)
(2.8577 0.13469 0)
(2.95717 0.191757 0)
(3.01143 0.21701 0)
(2.98567 0.184631 0)
(2.93805 0.134676 0)
(2.93655 0.0820827 0)
(2.58962 -1.23838 0)
(2.59042 -1.23864 0)
(2.59107 -1.23921 0)
(2.59183 -1.23946 0)
(2.59243 -1.23978 0)
(2.59298 -1.24021 0)
(2.59362 -1.24049 0)
(2.59419 -1.24073 0)
(2.59476 -1.24107 0)
(2.59519 -1.24138 0)
(2.59548 -1.24159 0)
(2.59585 -1.24185 0)
(2.59609 -1.24214 0)
(2.59614 -1.24225 0)
(2.59618 -1.2424 0)
(2.5961 -1.24259 0)
(2.59593 -1.24274 0)
(2.59579 -1.24297 0)
(2.59584 -1.24317 0)
(2.59582 -1.24324 0)
(2.59567 -1.24323 0)
(2.59549 -1.2431 0)
(2.5952 -1.24285 0)
(2.5946 -1.2423 0)
(2.59373 -1.24153 0)
(2.59279 -1.24039 0)
(2.59151 -1.23925 0)
(2.59017 -1.23759 0)
(2.58842 -1.23638 0)
(2.58707 -1.23467 0)
(2.58456 -1.2335 0)
(2.58222 -1.23202 0)
(2.57984 -1.2309 0)
(2.57784 -1.22944 0)
(2.57601 -1.22843 0)
(2.57393 -1.22659 0)
(2.56504 -1.21218 0)
(2.53953 -1.16103 0)
(2.49716 -1.06917 0)
(2.44955 -0.927185 0)
(2.39446 -0.75205 0)
(2.34775 -0.556807 0)
(2.30091 -0.377414 0)
(2.23652 -0.237621 0)
(2.20438 -0.154362 0)
(2.16623 -0.107384 0)
(2.15363 -0.101708 0)
(2.13777 -0.0952346 0)
(2.12727 -0.0832353 0)
(2.11948 -0.0642446 0)
(2.11032 -0.0362523 0)
(2.10165 -0.0303294 0)
(2.09243 -0.0174485 0)
(2.08659 -0.00641 0)
(2.07995 0.00530814 0)
(2.07223 0.0210749 0)
(2.0592 0.0342933 0)
(2.0492 0.0418218 0)
(2.051 0.0441384 0)
(2.05445 0.044629 0)
(2.0575 0.045467 0)
(2.06049 0.0463786 0)
(2.06147 0.0488172 0)
(2.07063 0.0452744 0)
(2.07436 0.0432004 0)
(2.08005 0.0431787 0)
(2.08602 0.043918 0)
(2.08695 0.0444632 0)
(2.08611 0.0451849 0)
(2.08822 0.0412249 0)
(2.09167 0.0395597 0)
(2.09959 0.0390333 0)
(2.10876 0.0416598 0)
(2.11987 0.0439805 0)
(2.13485 0.0453372 0)
(2.15256 0.0479618 0)
(2.17064 0.0509334 0)
(2.1875 0.0526282 0)
(2.2036 0.055945 0)
(2.21999 0.0575024 0)
(2.23628 0.0598722 0)
(2.25335 0.0620193 0)
(2.27093 0.060379 0)
(2.28634 0.055625 0)
(2.30392 0.0561452 0)
(2.32367 0.0623537 0)
(2.34436 0.0607333 0)
(2.36834 0.0589737 0)
(2.39649 0.0591293 0)
(2.42453 0.0604029 0)
(2.45537 0.064562 0)
(2.50335 0.0666815 0)
(2.56987 0.0597582 0)
(2.64856 0.078002 0)
(2.73059 0.119405 0)
(2.83537 0.182012 0)
(2.92415 0.211401 0)
(2.94515 0.188926 0)
(2.92054 0.136902 0)
(2.92998 0.0803517 0)
(2.59862 -1.24202 0)
(2.59864 -1.24229 0)
(2.5986 -1.2424 0)
(2.59861 -1.24252 0)
(2.59866 -1.24276 0)
(2.59869 -1.24307 0)
(2.59873 -1.24325 0)
(2.59879 -1.2434 0)
(2.59885 -1.24365 0)
(2.5989 -1.24385 0)
(2.59892 -1.24393 0)
(2.59889 -1.24406 0)
(2.59881 -1.24418 0)
(2.59867 -1.24423 0)
(2.59844 -1.24412 0)
(2.59806 -1.24396 0)
(2.5975 -1.24387 0)
(2.59688 -1.24367 0)
(2.59626 -1.24328 0)
(2.59553 -1.24263 0)
(2.59485 -1.24182 0)
(2.59423 -1.24104 0)
(2.59331 -1.2401 0)
(2.59204 -1.23886 0)
(2.59053 -1.23764 0)
(2.58904 -1.23633 0)
(2.58735 -1.23516 0)
(2.58577 -1.23373 0)
(2.58398 -1.23242 0)
(2.58216 -1.23111 0)
(2.58047 -1.2297 0)
(2.5789 -1.22847 0)
(2.57734 -1.2274 0)
(2.57596 -1.22599 0)
(2.57423 -1.22498 0)
(2.57251 -1.22334 0)
(2.57072 -1.22209 0)
(2.56888 -1.22075 0)
(2.56688 -1.21952 0)
(2.56502 -1.21844 0)
(2.56219 -1.2161 0)
(2.55586 -1.20266 0)
(2.52462 -1.12651 0)
(2.45732 -0.944645 0)
(2.36754 -0.666338 0)
(2.31209 -0.484992 0)
(2.23509 -0.274021 0)
(2.17032 -0.141535 0)
(2.14537 -0.0816009 0)
(2.11732 -0.0550044 0)
(2.10554 -0.0301295 0)
(2.09697 -0.0302495 0)
(2.09747 -0.0133623 0)
(2.09692 -0.00293784 0)
(2.09238 0.00910111 0)
(2.07959 0.0199461 0)
(2.06402 0.0294952 0)
(2.05083 0.0398629 0)
(2.04756 0.0407855 0)
(2.04788 0.0393547 0)
(2.04937 0.0365015 0)
(2.05277 0.0365657 0)
(2.05308 0.0407907 0)
(2.0562 0.0442297 0)
(2.05828 0.0456289 0)
(2.0633 0.0456397 0)
(2.06693 0.0427998 0)
(2.06546 0.0393085 0)
(2.06131 0.0383917 0)
(2.06274 0.0374581 0)
(2.06561 0.038582 0)
(2.0711 0.0401792 0)
(2.07735 0.0414326 0)
(2.08587 0.0416182 0)
(2.09506 0.0441148 0)
(2.10717 0.0459141 0)
(2.11849 0.0480241 0)
(2.12784 0.0497987 0)
(2.13529 0.0513158 0)
(2.14031 0.0517249 0)
(2.14467 0.0521361 0)
(2.15082 0.0519426 0)
(2.1593 0.0513257 0)
(2.16391 0.0547361 0)
(2.17237 0.059994 0)
(2.19104 0.0600294 0)
(2.21957 0.0600791 0)
(2.25771 0.0582596 0)
(2.30142 0.056626 0)
(2.34513 0.0592732 0)
(2.38738 0.0620576 0)
(2.4518 0.0495627 0)
(2.52577 0.0406958 0)
(2.58927 0.0617979 0)
(2.65628 0.106018 0)
(2.75034 0.166026 0)
(2.83712 0.198716 0)
(2.88981 0.186802 0)
(2.89668 0.137198 0)
(2.9228 0.0781274 0)
(2.60115 -1.24271 0)
(2.60107 -1.24289 0)
(2.60095 -1.24317 0)
(2.60086 -1.24326 0)
(2.60078 -1.24327 0)
(2.6007 -1.24342 0)
(2.6006 -1.24346 0)
(2.60047 -1.24351 0)
(2.60032 -1.24356 0)
(2.60016 -1.24354 0)
(2.59993 -1.24341 0)
(2.59961 -1.24331 0)
(2.59922 -1.24322 0)
(2.59877 -1.24298 0)
(2.59825 -1.24253 0)
(2.59762 -1.24179 0)
(2.5968 -1.24124 0)
(2.59566 -1.24053 0)
(2.59415 -1.23935 0)
(2.59278 -1.2383 0)
(2.59172 -1.23696 0)
(2.59056 -1.23591 0)
(2.58927 -1.23468 0)
(2.58773 -1.23347 0)
(2.58611 -1.23234 0)
(2.58462 -1.23107 0)
(2.58307 -1.22994 0)
(2.5816 -1.22877 0)
(2.58024 -1.22755 0)
(2.57875 -1.2266 0)
(2.57742 -1.2255 0)
(2.57605 -1.22443 0)
(2.5745 -1.22359 0)
(2.57304 -1.22241 0)
(2.5713 -1.22136 0)
(2.56954 -1.22015 0)
(2.56772 -1.21873 0)
(2.56595 -1.21723 0)
(2.56401 -1.2159 0)
(2.56199 -1.21457 0)
(2.55983 -1.21336 0)
(2.55822 -1.21215 0)
(2.55701 -1.21055 0)
(2.55541 -1.20969 0)
(2.55327 -1.20793 0)
(2.54129 -1.18308 0)
(2.48669 -1.0633 0)
(2.40419 -0.862799 0)
(2.31576 -0.595239 0)
(2.23314 -0.351317 0)
(2.19424 -0.197588 0)
(2.18179 -0.105063 0)
(2.16027 -0.035962 0)
(2.14686 0.000523478 0)
(2.12782 0.0158131 0)
(2.11038 0.0268084 0)
(2.09376 0.0389334 0)
(2.07405 0.0491959 0)
(2.05859 0.0420876 0)
(2.05438 0.0370407 0)
(2.05514 0.0330257 0)
(2.05796 0.0351221 0)
(2.05897 0.0386566 0)
(2.06188 0.0437142 0)
(2.06254 0.0472239 0)
(2.06394 0.0462826 0)
(2.06284 0.040431 0)
(2.06067 0.0314412 0)
(2.05914 0.0304384 0)
(2.06114 0.0326868 0)
(2.06439 0.0380112 0)
(2.06596 0.0380575 0)
(2.07019 0.0348996 0)
(2.07718 0.0345597 0)
(2.0869 0.0376496 0)
(2.09562 0.0429916 0)
(2.10239 0.0458416 0)
(2.10703 0.0466334 0)
(2.10986 0.0478132 0)
(2.10921 0.0471288 0)
(2.1077 0.0460899 0)
(2.11074 0.0480785 0)
(2.11513 0.049628 0)
(2.12044 0.0520929 0)
(2.12908 0.0546801 0)
(2.14806 0.0538859 0)
(2.18054 0.0501425 0)
(2.22189 0.0482975 0)
(2.26669 0.0506729 0)
(2.31259 0.0540597 0)
(2.35781 0.0504921 0)
(2.41243 0.0369144 0)
(2.47411 0.025471 0)
(2.53827 0.0468985 0)
(2.61542 0.0899159 0)
(2.69785 0.144583 0)
(2.77149 0.187522 0)
(2.83605 0.183766 0)
(2.87045 0.134329 0)
(2.91563 0.0748543 0)
(2.60096 -1.24196 0)
(2.60089 -1.24202 0)
(2.60084 -1.24207 0)
(2.60071 -1.24215 0)
(2.60056 -1.24211 0)
(2.60034 -1.24203 0)
(2.6 -1.24194 0)
(2.59962 -1.24169 0)
(2.59912 -1.2414 0)
(2.59851 -1.24101 0)
(2.59778 -1.24055 0)
(2.59695 -1.23996 0)
(2.596 -1.23934 0)
(2.59498 -1.23863 0)
(2.59382 -1.23781 0)
(2.59258 -1.23673 0)
(2.5919 -1.23598 0)
(2.5912 -1.23535 0)
(2.59024 -1.23423 0)
(2.58909 -1.23353 0)
(2.58797 -1.2326 0)
(2.58572 -1.23137 0)
(2.58377 -1.2304 0)
(2.58246 -1.22924 0)
(2.5812 -1.22847 0)
(2.58012 -1.22749 0)
(2.579 -1.2265 0)
(2.57776 -1.22578 0)
(2.57674 -1.22475 0)
(2.57547 -1.224 0)
(2.57418 -1.22313 0)
(2.57285 -1.22207 0)
(2.57125 -1.2212 0)
(2.56979 -1.21994 0)
(2.56826 -1.21853 0)
(2.56646 -1.21754 0)
(2.56501 -1.21595 0)
(2.56338 -1.21458 0)
(2.56167 -1.21327 0)
(2.5599 -1.21204 0)
(2.55778 -1.21159 0)
(2.55671 -1.20993 0)
(2.55526 -1.20872 0)
(2.55496 -1.20737 0)
(2.55486 -1.2071 0)
(2.55435 -1.20656 0)
(2.55327 -1.20601 0)
(2.55143 -1.20387 0)
(2.54417 -1.19039 0)
(2.49445 -1.09465 0)
(2.39685 -0.805858 0)
(2.351 -0.569167 0)
(2.26719 -0.295928 0)
(2.25919 -0.163971 0)
(2.18873 -0.0536663 0)
(2.16136 -0.00684849 0)
(2.12502 0.0273511 0)
(2.09347 0.045642 0)
(2.07971 0.044436 0)
(2.07392 0.0403884 0)
(2.07479 0.0402723 0)
(2.07601 0.0416111 0)
(2.07637 0.041799 0)
(2.07799 0.0450381 0)
(2.07614 0.0470744 0)
(2.07227 0.044669 0)
(2.06698 0.0387198 0)
(2.0652 0.0339115 0)
(2.06647 0.0345238 0)
(2.06699 0.0371578 0)
(2.06684 0.0374508 0)
(2.06599 0.0344705 0)
(2.06799 0.0307815 0)
(2.07402 0.0296265 0)
(2.08462 0.0351092 0)
(2.09214 0.0408412 0)
(2.09628 0.0432042 0)
(2.09874 0.0441421 0)
(2.09988 0.0465824 0)
(2.09833 0.0468448 0)
(2.09617 0.0460877 0)
(2.09957 0.047832 0)
(2.10119 0.0493887 0)
(2.10558 0.0500062 0)
(2.11715 0.0480457 0)
(2.14075 0.0410671 0)
(2.17479 0.0294421 0)
(2.21441 0.026883 0)
(2.25263 0.0390413 0)
(2.29238 0.0506207 0)
(2.34363 0.0447696 0)
(2.3996 0.0230276 0)
(2.45256 0.0131878 0)
(2.50564 0.0327425 0)
(2.56262 0.0730242 0)
(2.63879 0.132037 0)
(2.72759 0.173039 0)
(2.80553 0.173045 0)
(2.85216 0.127994 0)
(2.9095 0.0707002 0)
(2.59779 -1.23968 0)
(2.59744 -1.2395 0)
(2.59707 -1.23911 0)
(2.59655 -1.23891 0)
(2.59593 -1.23869 0)
(2.59536 -1.23824 0)
(2.59467 -1.2378 0)
(2.5939 -1.23752 0)
(2.59315 -1.23718 0)
(2.59245 -1.23641 0)
(2.59154 -1.23598 0)
(2.59064 -1.23542 0)
(2.58976 -1.23478 0)
(2.58889 -1.23397 0)
(2.58787 -1.23321 0)
(2.58679 -1.23239 0)
(2.58588 -1.23142 0)
(2.58511 -1.2307 0)
(2.58435 -1.22998 0)
(2.58347 -1.22934 0)
(2.58259 -1.22862 0)
(2.58177 -1.22763 0)
(2.58069 -1.2269 0)
(2.57986 -1.22586 0)
(2.5788 -1.2251 0)
(2.57765 -1.22434 0)
(2.57662 -1.2234 0)
(2.57545 -1.22274 0)
(2.57427 -1.22202 0)
(2.57306 -1.22107 0)
(2.57163 -1.22026 0)
(2.57024 -1.21913 0)
(2.56867 -1.21805 0)
(2.56701 -1.21703 0)
(2.56566 -1.21555 0)
(2.56419 -1.21445 0)
(2.56254 -1.21343 0)
(2.5614 -1.21196 0)
(2.56036 -1.21049 0)
(2.55996 -1.20945 0)
(2.55942 -1.20841 0)
(2.55889 -1.20796 0)
(2.55845 -1.20779 0)
(2.55795 -1.20746 0)
(2.55717 -1.2068 0)
(2.55629 -1.20566 0)
(2.5552 -1.20426 0)
(2.55432 -1.20258 0)
(2.55269 -1.20168 0)
(2.55147 -1.20001 0)
(2.54862 -1.19782 0)
(2.54261 -1.18453 0)
(2.49372 -1.06561 0)
(2.4339 -0.844673 0)
(2.31718 -0.487182 0)
(2.29998 -0.300006 0)
(2.18327 -0.0983786 0)
(2.13864 -0.0336156 0)
(2.10762 0.00385345 0)
(2.09683 0.0254723 0)
(2.09121 0.0420856 0)
(2.08706 0.0476437 0)
(2.08591 0.0491284 0)
(2.08756 0.0484622 0)
(2.08392 0.044842 0)
(2.07829 0.0378006 0)
(2.07153 0.0291095 0)
(2.07187 0.0301025 0)
(2.07494 0.0358452 0)
(2.07438 0.0366242 0)
(2.07123 0.0325188 0)
(2.06762 0.0267499 0)
(2.06927 0.0261912 0)
(2.07533 0.0307341 0)
(2.08491 0.0377976 0)
(2.08983 0.0424521 0)
(2.0914 0.0444653 0)
(2.09259 0.0458775 0)
(2.09357 0.0494934 0)
(2.09292 0.0505619 0)
(2.09227 0.0506165 0)
(2.09518 0.0520804 0)
(2.09698 0.0518069 0)
(2.10334 0.0500795 0)
(2.12233 0.0471466 0)
(2.15372 0.0356977 0)
(2.19282 0.0229045 0)
(2.23118 0.0210824 0)
(2.26606 0.0290554 0)
(2.30667 0.0351909 0)
(2.36063 0.0279009 0)
(2.41738 0.00998956 0)
(2.46325 0.00833019 0)
(2.49863 0.030156 0)
(2.53612 0.0664375 0)
(2.60316 0.119024 0)
(2.70149 0.154366 0)
(2.79457 0.159904 0)
(2.8471 0.115871 0)
(2.90542 0.0657748 0)
(2.59232 -1.23586 0)
(2.59179 -1.23569 0)
(2.59137 -1.23534 0)
(2.59092 -1.23479 0)
(2.59032 -1.23444 0)
(2.58975 -1.23411 0)
(2.58918 -1.23366 0)
(2.58865 -1.23313 0)
(2.58795 -1.23268 0)
(2.58737 -1.23203 0)
(2.58667 -1.23143 0)
(2.58586 -1.2309 0)
(2.58532 -1.23013 0)
(2.5847 -1.22935 0)
(2.58393 -1.22866 0)
(2.5829 -1.22816 0)
(2.58207 -1.22765 0)
(2.58139 -1.2272 0)
(2.58073 -1.22658 0)
(2.57985 -1.22598 0)
(2.57882 -1.22556 0)
(2.57804 -1.22482 0)
(2.57716 -1.2242 0)
(2.57624 -1.22342 0)
(2.57524 -1.2225 0)
(2.57405 -1.22155 0)
(2.57281 -1.22083 0)
(2.57172 -1.21988 0)
(2.57065 -1.21875 0)
(2.56935 -1.21777 0)
(2.56812 -1.21654 0)
(2.56686 -1.2154 0)
(2.56572 -1.21435 0)
(2.56467 -1.21318 0)
(2.56417 -1.21212 0)
(2.56336 -1.21124 0)
(2.56315 -1.21025 0)
(2.56298 -1.21007 0)
(2.56257 -1.20969 0)
(2.56239 -1.20944 0)
(2.56195 -1.20899 0)
(2.56134 -1.20831 0)
(2.56052 -1.20755 0)
(2.5598 -1.20624 0)
(2.55874 -1.20502 0)
(2.55778 -1.20349 0)
(2.55673 -1.20241 0)
(2.55572 -1.20143 0)
(2.55486 -1.20001 0)
(2.55365 -1.1987 0)
(2.55241 -1.19718 0)
(2.55011 -1.19617 0)
(2.54809 -1.19358 0)
(2.54125 -1.19185 0)
(2.52942 -1.16873 0)
(2.48283 -1.04477 0)
(2.37059 -0.760316 0)
(2.27689 -0.464754 0)
(2.17918 -0.195416 0)
(2.15188 -0.0803619 0)
(2.09614 0.0533831 0)
(2.07695 0.0543008 0)
(2.08402 0.0649317 0)
(2.08462 0.0534108 0)
(2.08528 0.0424137 0)
(2.07953 0.0326499 0)
(2.07749 0.0308768 0)
(2.07949 0.0370246 0)
(2.07653 0.0432139 0)
(2.07246 0.0387983 0)
(2.06606 0.0282984 0)
(2.06517 0.0253406 0)
(2.06905 0.0283174 0)
(2.07879 0.0373535 0)
(2.08568 0.0428819 0)
(2.0872 0.0457031 0)
(2.08651 0.0458928 0)
(2.08834 0.049473 0)
(2.0905 0.0533498 0)
(2.09218 0.0541475 0)
(2.09648 0.0545489 0)
(2.10113 0.0552754 0)
(2.10942 0.0526881 0)
(2.12494 0.0457944 0)
(2.15274 0.0344443 0)
(2.19144 0.0167063 0)
(2.23417 0.000173599 0)
(2.27208 0.00498767 0)
(2.30731 0.0183275 0)
(2.34787 0.0222683 0)
(2.3971 0.0133584 0)
(2.44633 0.000738189 0)
(2.48217 0.00273955 0)
(2.50663 0.0259116 0)
(2.5374 0.0584463 0)
(2.59171 0.104522 0)
(2.67378 0.133822 0)
(2.7733 0.14395 0)
(2.83565 0.106572 0)
(2.90008 0.0620085 0)
(2.58761 -1.23266 0)
(2.58725 -1.23228 0)
(2.5868 -1.23208 0)
(2.58623 -1.2319 0)
(2.58583 -1.23141 0)
(2.58545 -1.23093 0)
(2.58493 -1.23046 0)
(2.58439 -1.22995 0)
(2.58377 -1.2295 0)
(2.58322 -1.22893 0)
(2.58273 -1.22828 0)
(2.58209 -1.22772 0)
(2.5815 -1.22725 0)
(2.58095 -1.22675 0)
(2.5801 -1.22605 0)
(2.57908 -1.22524 0)
(2.5786 -1.22485 0)
(2.57786 -1.22434 0)
(2.5771 -1.2237 0)
(2.57612 -1.22261 0)
(2.57575 -1.22195 0)
(2.57494 -1.2213 0)
(2.57407 -1.2204 0)
(2.57314 -1.2195 0)
(2.57206 -1.21846 0)
(2.57141 -1.21733 0)
(2.57092 -1.21655 0)
(2.57006 -1.2158 0)
(2.56934 -1.2149 0)
(2.56873 -1.21399 0)
(2.56814 -1.21299 0)
(2.5681 -1.2124 0)
(2.56785 -1.21224 0)
(2.56759 -1.21194 0)
(2.56716 -1.21132 0)
(2.56671 -1.21078 0)
(2.56633 -1.21028 0)
(2.56582 -1.20978 0)
(2.56523 -1.20925 0)
(2.56456 -1.20864 0)
(2.56395 -1.20773 0)
(2.56307 -1.20667 0)
(2.56216 -1.20506 0)
(2.56098 -1.20401 0)
(2.56016 -1.20299 0)
(2.55929 -1.20242 0)
(2.55857 -1.20151 0)
(2.55775 -1.20037 0)
(2.55683 -1.19902 0)
(2.55572 -1.19765 0)
(2.55435 -1.19637 0)
(2.55286 -1.19458 0)
(2.55044 -1.19324 0)
(2.54704 -1.19193 0)
(2.54128 -1.18968 0)
(2.53208 -1.18455 0)
(2.5065 -1.19856 0)
(2.47472 -1.13854 0)
(2.40045 -1.00108 0)
(2.31415 -0.747814 0)
(2.2094 -0.393105 0)
(2.1975 -0.23184 0)
(2.11667 -0.0269634 0)
(2.10672 -0.0186759 0)
(2.09228 0.00618397 0)
(2.08687 0.0219176 0)
(2.08216 0.036404 0)
(2.07627 0.050897 0)
(2.06782 0.0473274 0)
(2.05584 0.0340075 0)
(2.05243 0.0222756 0)
(2.05712 0.0242756 0)
(2.06842 0.0356531 0)
(2.07609 0.0404812 0)
(2.08065 0.0456822 0)
(2.08178 0.0471733 0)
(2.08271 0.0481934 0)
(2.08557 0.0509402 0)
(2.0915 0.0538395 0)
(2.09724 0.054457 0)
(2.10693 0.0536917 0)
(2.12009 0.0510829 0)
(2.13953 0.0442931 0)
(2.16784 0.0376263 0)
(2.20487 0.024495 0)
(2.24637 -0.00123047 0)
(2.28768 -0.0139796 0)
(2.32109 -0.00554375 0)
(2.3523 0.0045251 0)
(2.38813 0.00607716 0)
(2.42882 -0.00670875 0)
(2.46658 -0.0147197 0)
(2.49386 -0.0058841 0)
(2.51764 0.0191465 0)
(2.54822 0.0511356 0)
(2.59697 0.0938384 0)
(2.67135 0.119066 0)
(2.76497 0.127512 0)
(2.82729 0.094224 0)
(2.89471 0.0557953 0)
(2.58453 -1.22929 0)
(2.58408 -1.2291 0)
(2.5835 -1.22868 0)
(2.58328 -1.22816 0)
(2.58278 -1.22783 0)
(2.5823 -1.22751 0)
(2.5818 -1.227 0)
(2.58128 -1.22648 0)
(2.58074 -1.226 0)
(2.58021 -1.22553 0)
(2.57967 -1.2251 0)
(2.57906 -1.2247 0)
(2.57842 -1.22435 0)
(2.57773 -1.22392 0)
(2.57673 -1.22317 0)
(2.57582 -1.22222 0)
(2.57552 -1.22166 0)
(2.57523 -1.22097 0)
(2.5746 -1.2202 0)
(2.57379 -1.2194 0)
(2.57336 -1.2186 0)
(2.57329 -1.21822 0)
(2.57297 -1.21729 0)
(2.5725 -1.21652 0)
(2.57196 -1.21573 0)
(2.57142 -1.21475 0)
(2.57133 -1.21445 0)
(2.57124 -1.21426 0)
(2.57086 -1.21376 0)
(2.57064 -1.2135 0)
(2.57051 -1.21306 0)
(2.57019 -1.21258 0)
(2.56995 -1.21209 0)
(2.56952 -1.21156 0)
(2.56922 -1.2108 0)
(2.5688 -1.20995 0)
(2.56825 -1.20918 0)
(2.56754 -1.20837 0)
(2.56695 -1.20767 0)
(2.56592 -1.20652 0)
(2.5652 -1.20512 0)
(2.56423 -1.2044 0)
(2.56342 -1.20415 0)
(2.56264 -1.20363 0)
(2.56187 -1.2029 0)
(2.56126 -1.20177 0)
(2.56059 -1.20047 0)
(2.55977 -1.1992 0)
(2.5589 -1.19792 0)
(2.55794 -1.19653 0)
(2.55666 -1.19522 0)
(2.55506 -1.19367 0)
(2.55259 -1.1926 0)
(2.54922 -1.19104 0)
(2.54402 -1.18891 0)
(2.53432 -1.187 0)
(2.51725 -1.18345 0)
(2.48835 -1.1798 0)
(2.45779 -1.17526 0)
(2.4405 -1.17297 0)
(2.42386 -1.1348 0)
(2.37581 -0.967009 0)
(2.26089 -0.60549 0)
(2.22855 -0.353983 0)
(2.11474 -0.0521595 0)
(2.09723 0.0117617 0)
(2.08371 0.084984 0)
(2.06671 0.0761212 0)
(2.05896 0.0463228 0)
(2.04903 0.0279852 0)
(2.04917 0.0249268 0)
(2.06267 0.040496 0)
(2.06652 0.052974 0)
(2.06659 0.0459956 0)
(2.06959 0.0452445 0)
(2.07478 0.045676 0)
(2.07965 0.0465911 0)
(2.08847 0.0484466 0)
(2.09656 0.0493574 0)
(2.10853 0.0469448 0)
(2.12759 0.0455195 0)
(2.15271 0.0400125 0)
(2.18212 0.028896 0)
(2.21911 0.0225476 0)
(2.25977 0.0116827 0)
(2.29993 -0.00620691 0)
(2.33433 -0.0173745 0)
(2.36067 -0.0135597 0)
(2.38637 -0.00805655 0)
(2.41741 -0.0122454 0)
(2.45313 -0.0207579 0)
(2.48177 -0.021684 0)
(2.5048 -0.010856 0)
(2.52729 0.0130596 0)
(2.55937 0.0444543 0)
(2.60798 0.0847406 0)
(2.67774 0.102852 0)
(2.76109 0.110436 0)
(2.82039 0.0833147 0)
(2.88894 0.0503006 0)
(2.58163 -1.22622 0)
(2.58118 -1.22583 0)
(2.58104 -1.22535 0)
(2.5806 -1.22501 0)
(2.58015 -1.22469 0)
(2.57991 -1.22416 0)
(2.57944 -1.22367 0)
(2.57897 -1.22335 0)
(2.57858 -1.22287 0)
(2.57818 -1.22239 0)
(2.57763 -1.22204 0)
(2.57709 -1.2216 0)
(2.57667 -1.22122 0)
(2.57617 -1.22088 0)
(2.57564 -1.22028 0)
(2.57517 -1.21955 0)
(2.57454 -1.21885 0)
(2.57407 -1.21793 0)
(2.57405 -1.21747 0)
(2.57404 -1.21707 0)
(2.57384 -1.21652 0)
(2.57345 -1.21579 0)
(2.57332 -1.21514 0)
(2.57331 -1.21496 0)
(2.57326 -1.21456 0)
(2.57317 -1.21433 0)
(2.57319 -1.21388 0)
(2.57309 -1.2133 0)
(2.57274 -1.21284 0)
(2.57249 -1.21213 0)
(2.57217 -1.21142 0)
(2.57195 -1.2107 0)
(2.57169 -1.20995 0)
(2.57119 -1.20936 0)
(2.57063 -1.20836 0)
(2.57055 -1.20758 0)
(2.56957 -1.20673 0)
(2.56865 -1.20577 0)
(2.56817 -1.20536 0)
(2.56726 -1.20504 0)
(2.56654 -1.20477 0)
(2.56608 -1.20449 0)
(2.56545 -1.20377 0)
(2.56472 -1.20274 0)
(2.56405 -1.20154 0)
(2.56331 -1.20048 0)
(2.5627 -1.19926 0)
(2.56193 -1.19812 0)
(2.56114 -1.19681 0)
(2.56029 -1.19523 0)
(2.55887 -1.19411 0)
(2.55724 -1.19255 0)
(2.55489 -1.19117 0)
(2.55137 -1.19016 0)
(2.54643 -1.18797 0)
(2.53722 -1.18591 0)
(2.52018 -1.18287 0)
(2.49187 -1.17986 0)
(2.46007 -1.17663 0)
(2.44284 -1.17406 0)
(2.43845 -1.17263 0)
(2.43767 -1.172 0)
(2.43664 -1.17189 0)
(2.41166 -1.09701 0)
(2.32391 -0.829424 0)
(2.25253 -0.515495 0)
(2.1681 -0.195206 0)
(2.12601 -0.0804073 0)
(2.09791 -0.0193471 0)
(2.07579 0.0196718 0)
(2.06535 0.0403928 0)
(2.05793 0.0577771 0)
(2.05137 0.0504366 0)
(2.05511 0.0398214 0)
(2.06256 0.0397801 0)
(2.07268 0.0398154 0)
(2.08278 0.0404923 0)
(2.09738 0.0433816 0)
(2.11174 0.0443732 0)
(2.13408 0.0415791 0)
(2.16277 0.0353381 0)
(2.19446 0.0224156 0)
(2.22986 0.0130429 0)
(2.2696 0.00937714 0)
(2.30657 -0.00395996 0)
(2.33903 -0.0265363 0)
(2.3662 -0.026923 0)
(2.38794 -0.0186644 0)
(2.4107 -0.0183017 0)
(2.43998 -0.0223345 0)
(2.46981 -0.0291188 0)
(2.49324 -0.0259566 0)
(2.51388 -0.0156761 0)
(2.53589 0.005609 0)
(2.5688 0.0342881 0)
(2.61708 0.0714665 0)
(2.68265 0.0873688 0)
(2.75998 0.0948167 0)
(2.81866 0.0704386 0)
(2.88607 0.0421732 0)
(2.57988 -1.22387 0)
(2.57953 -1.22345 0)
(2.57951 -1.22303 0)
(2.57935 -1.22267 0)
(2.57908 -1.22245 0)
(2.57881 -1.22197 0)
(2.5787 -1.22143 0)
(2.57841 -1.22115 0)
(2.57804 -1.2208 0)
(2.57796 -1.22025 0)
(2.57777 -1.21979 0)
(2.57746 -1.21956 0)
(2.57703 -1.21918 0)
(2.57647 -1.21874 0)
(2.57593 -1.21816 0)
(2.57574 -1.21743 0)
(2.57577 -1.21724 0)
(2.57572 -1.21687 0)
(2.57561 -1.21641 0)
(2.57565 -1.2159 0)
(2.57576 -1.21548 0)
(2.57563 -1.21499 0)
(2.57544 -1.21444 0)
(2.57557 -1.21373 0)
(2.57538 -1.21327 0)
(2.57522 -1.21271 0)
(2.57533 -1.21221 0)
(2.57503 -1.21125 0)
(2.57459 -1.21046 0)
(2.57395 -1.2096 0)
(2.5738 -1.20942 0)
(2.57341 -1.20905 0)
(2.57273 -1.2084 0)
(2.57228 -1.20791 0)
(2.57176 -1.20755 0)
(2.5713 -1.20694 0)
(2.57066 -1.20609 0)
(2.57011 -1.20565 0)
(2.56979 -1.20519 0)
(2.56931 -1.20472 0)
(2.56869 -1.20415 0)
(2.56813 -1.20322 0)
(2.56756 -1.20203 0)
(2.5668 -1.20115 0)
(2.5662 -1.20023 0)
(2.56565 -1.19914 0)
(2.56515 -1.19771 0)
(2.56434 -1.1965 0)
(2.56341 -1.19537 0)
(2.56256 -1.19385 0)
(2.56108 -1.19281 0)
(2.55937 -1.19137 0)
(2.55712 -1.18981 0)
(2.55372 -1.18886 0)
(2.54917 -1.18627 0)
(2.54002 -1.18476 0)
(2.52267 -1.18252 0)
(2.49425 -1.17905 0)
(2.4611 -1.17838 0)
(2.44333 -1.17433 0)
(2.43867 -1.17389 0)
(2.43777 -1.17281 0)
(2.43708 -1.17282 0)
(2.43647 -1.17206 0)
(2.43475 -1.17407 0)
(2.42915 -1.15993 0)
(2.36407 -0.977914 0)
(2.26034 -0.599772 0)
(2.17492 -0.247324 0)