/*--------------------------------*- C++ -*----------------------------------*\
  =========                 |
  \\      /  F ield         | OpenFOAM: The Open Source CFD Toolbox
   \\    /   O peration     | Website:  https://openfoam.org
    \\  /    A nd           | Version:  7
     \\/     M anipulation  |
\*---------------------------------------------------------------------------*/
FoamFile
{
    version     2.0;
    format      ascii;
    class       volScalarField;
    location    "3.7";
    object      p;
}
// * * * * * * * * * * * * * * * * * * * * * * * * * * * * * * * * * * * * * //

dimensions      [1 -1 -2 0 0 0 0];

internalField   nonuniform List<scalar> 
8400
(
0.144989
0.23387
0.329694
0.411993
0.488704
0.549725
0.600743
0.658991
0.681184
0.706401
0.724361
0.729167
0.747714
0.75886
0.776916
0.811071
0.819347
0.822646
0.826597
0.813342
0.790261
0.778387
0.775839
0.778325
0.777837
0.768819
0.77191
0.775537
0.769682
0.7705
0.0559508
0.0554892
0.0611819
0.0806878
0.112483
0.167813
0.237276
0.314059
0.412492
0.499952
0.592737
0.679349
0.758514
0.810886
0.851894
0.878568
0.878512
0.861526
0.829247
0.78817
0.748232
0.747587
0.755063
0.772182
0.790057
0.798366
0.7995
0.790574
0.779501
0.780806
0.0584454
0.0579052
0.0575905
0.0572781
0.0571263
0.0570188
0.0561441
0.0546962
0.0631026
0.0838911
0.122029
0.191478
0.273264
0.383489
0.48669
0.568866
0.657921
0.72086
0.766687
0.77264
0.790829
0.789876
0.780493
0.771284
0.77424
0.786193
0.788785
0.783937
0.780207
0.785856
0.0541586
0.0541509
0.0541049
0.0539604
0.0539174
0.0541008
0.0539927
0.0532251
0.0523219
0.0514266
0.0505059
0.0503359
0.050605
0.0533626
0.0704066
0.105185
0.171707
0.28067
0.424821
0.576522
0.700573
0.745387
0.77239
0.772219
0.789463
0.80073
0.788962
0.786068
0.797354
0.802156
0.0519752
0.0527095
0.0528622
0.0529058
0.0530072
0.0530406
0.0531375
0.0525422
0.0521481
0.0523511
0.0516163
0.0509512
0.0514807
0.0552222
0.0630334
0.065131
0.0655753
0.0661815
0.0729974
0.116086
0.199872
0.326949
0.471125
0.591727
0.669775
0.698459
0.726935
0.762767
0.798762
0.803613
0.0512193
0.0516641
0.0518708
0.0521571
0.0527604
0.0528643
0.0528996
0.0538798
0.0560342
0.059496
0.0626947
0.0643953
0.0666016
0.0695899
0.0740887
0.0794255
0.0806507
0.0803195
0.0808952
0.0826006
0.0843682
0.0860448
0.103807
0.162045
0.25075
0.371245
0.490906
0.588647
0.641071
0.707711
0.0551236
0.0569758
0.0592707
0.0615742
0.0630074
0.0636955
0.0643813
0.0654057
0.0677379
0.0720739
0.0778044
0.0824058
0.0845249
0.0843316
0.0845429
0.0876521
0.0893935
0.0894785
0.0910987
0.09652
0.104961
0.110973
0.113881
0.114529
0.115152
0.117369
0.136048
0.194915
0.275889
0.467091
0.0743713
0.0764425
0.0790406
0.0820504
0.0851487
0.0875739
0.0883731
0.0877862
0.0875038
0.0880458
0.0909912
0.0970266
0.0983457
0.0967988
0.097109
0.100472
0.107805
0.115269
0.119739
0.12379
0.129201
0.13052
0.128883
0.127598
0.127461
0.128567
0.131086
0.134563
0.136389
0.162546
0.0938046
0.0942565
0.0960246
0.0994856
0.104312
0.108983
0.111115
0.110892
0.109655
0.109837
0.112171
0.119325
0.125061
0.127957
0.130963
0.135283
0.140889
0.144973
0.14446
0.143924
0.143236
0.141896
0.138774
0.138922
0.141739
0.14897
0.156194
0.162275
0.161363
0.160743
0.12935
0.128995
0.129146
0.130324
0.133874
0.140985
0.146962
0.147777
0.146869
0.146809
0.148908
0.153885
0.159711
0.162166
0.162261
0.16284
0.16297
0.162392
0.160081
0.159182
0.160177
0.163163
0.168573
0.174968
0.180372
0.183168
0.184701
0.183515
0.180241
0.180561
0.179472
0.175942
0.173384
0.173319
0.174576
0.179125
0.186521
0.189691
0.188988
0.187318
0.187003
0.187856
0.190375
0.191138
0.190376
0.190569
0.192433
0.195368
0.198371
0.202005
0.206507
0.209883
0.211692
0.210873
0.208881
0.20608
0.203965
0.200723
0.201878
0.20691
0.239756
0.234763
0.226551
0.224642
0.225222
0.227685
0.233514
0.23863
0.239346
0.236578
0.233395
0.234071
0.238045
0.241059
0.241741
0.242125
0.243976
0.24612
0.245908
0.244634
0.242392
0.239402
0.235704
0.231244
0.227265
0.224863
0.225572
0.228363
0.231643
0.233614
0.31296
0.312254
0.303131
0.292415
0.289728
0.29054
0.2941
0.299663
0.302478
0.301527
0.295933
0.293311
0.294616
0.295322
0.294023
0.290694
0.288485
0.286996
0.284796
0.280698
0.276335
0.273426
0.27144
0.272061
0.27377
0.276432
0.27819
0.277691
0.275717
0.270396
0.402761
0.402749
0.398559
0.384336
0.373938
0.371127
0.372547
0.377031
0.378013
0.375393
0.368499
0.366567
0.367458
0.366595
0.359816
0.354328
0.353841
0.353138
0.350605
0.345632
0.340912
0.338289
0.335809
0.332705
0.328888
0.324033
0.319117
0.314109
0.309553
0.302737
0.513492
0.512809
0.511451
0.501318
0.480066
0.470793
0.472603
0.477946
0.477116
0.470027
0.457141
0.453449
0.454422
0.452981
0.443939
0.432248
0.42759
0.424397
0.419233
0.411261
0.402349
0.394711
0.387753
0.381744
0.376032
0.369533
0.363642
0.357636
0.353864
0.349136
0.650079
0.649408
0.648426
0.641491
0.618495
0.597064
0.594173
0.599527
0.599192
0.589242
0.568497
0.558335
0.558856
0.556828
0.545259
0.529206
0.519664
0.512781
0.504643
0.494681
0.483986
0.473463
0.464663
0.45715
0.449556
0.441719
0.433219
0.42516
0.41781
0.403924
0.822207
0.820205
0.814732
0.804141
0.781357
0.754328
0.740948
0.743082
0.744046
0.733842
0.706183
0.687151
0.686102
0.682242
0.665302
0.643974
0.630963
0.620276
0.607606
0.593838
0.578454
0.56312
0.551315
0.539738
0.527423
0.514133
0.50083
0.489055
0.478579
0.460138
1.02585
1.02358
1.01448
0.999023
0.974601
0.942174
0.916616
0.913307
0.914366
0.903112
0.86819
0.841872
0.838784
0.832594
0.808872
0.7792
0.761543
0.747199
0.72911
0.710003
0.690173
0.670296
0.653109
0.637095
0.61999
0.602447
0.586179
0.569251
0.554553
0.53127
1.26563
1.26004
1.24904
1.23084
1.20699
1.17215
1.12967
1.1192
1.1173
1.10218
1.05937
1.02302
1.01581
1.00548
0.978139
0.941919
0.913958
0.891036
0.868129
0.843302
0.81946
0.79468
0.770371
0.749648
0.727626
0.703867
0.682239
0.661264
0.642762
0.611664
1.55179
1.53757
1.52248
1.50528
1.474
1.44028
1.41214
1.38253
1.35786
1.33466
1.29539
1.2537
1.23053
1.20575
1.16959
1.13096
1.0952
1.06093
1.02954
0.998906
0.96684
0.936484
0.906456
0.876742
0.850375
0.8227
0.793887
0.766354
0.743132
0.704788
1.73138
1.72271
1.71634
1.71042
1.70112
1.68776
1.66905
1.64464
1.61847
1.59481
1.56685
1.52566
1.48762
1.4546
1.4137
1.3673
1.32013
1.27422
1.22939
1.18786
1.14652
1.10446
1.06604
1.02822
0.991698
0.957596
0.92354
0.888535
0.859297
0.811731
1.72851
1.72715
1.73025
1.73298
1.73375
1.7316
1.72562
1.72372
1.72201
1.71828
1.7114
1.69976
1.68361
1.66351
1.63786
1.60583
1.56865
1.52473
1.47606
1.42445
1.37337
1.32186
1.26894
1.2196
1.17132
1.12352
1.079
1.035
0.997181
0.936423
1.59984
1.60595
1.62068
1.63897
1.65936
1.67872
1.68804
1.68484
1.68631
1.69761
1.69915
1.6968
1.69424
1.69282
1.68891
1.68178
1.67054
1.65437
1.63685
1.61475
1.5844
1.54626
1.50124
1.45079
1.39724
1.34087
1.28336
1.22563
1.17529
1.09413
1.26931
1.29023
1.31377
1.33299
1.35414
1.39535
1.43314
1.4538
1.47674
1.50742
1.54877
1.57124
1.58564
1.60857
1.63356
1.64312
1.64616
1.64368
1.63954
1.6331
1.62323
1.61053
1.59515
1.57559
1.55399
1.52521
1.48698
1.43936
1.39035
1.29792
1.03571
1.04168
1.0486
1.05704
1.0663
1.07996
1.09865
1.11806
1.13986
1.16367
1.19439
1.23268
1.27084
1.30843
1.3553
1.40059
1.44339
1.48274
1.51514
1.5439
1.56049
1.56994
1.5725
1.56989
1.56171
1.55013
1.53593
1.51829
1.49931
1.45507
1.001
1.00126
1.00161
1.00208
1.0027
1.00356
1.00499
1.00694
1.00957
1.01301
1.01782
1.02513
1.03536
1.04849
1.06583
1.09034
1.11977
1.1574
1.19977
1.24804
1.29773
1.34728
1.39272
1.43059
1.46348
1.48301
1.49269
1.49572
1.49262
1.47362
1.00001
1.00001
1.00001
1.00002
1.00003
1.00004
1.00006
1.00009
1.00014
1.00021
1.00033
1.00054
1.00091
1.00153
1.00255
1.00437
1.00736
1.01236
1.02023
1.03233
1.05037
1.07466
1.10734
1.14669
1.19174
1.24125
1.28854
1.33244
1.36776
1.40121
1
1
1
1
1
1
1
1
1
1
1
1
1.00001
1.00001
1.00002
1.00005
1.00009
1.00019
1.00041
1.00085
1.00175
1.00349
1.00678
1.01257
1.0222
1.03732
1.05905
1.0888
1.12199
1.18544
1
1
1
1
1
1
1
1
1
1
1
1
1
1
1
1
1
1
1
1.00001
1.00001
1.00004
1.00009
1.00022
1.00053
1.00122
1.00266
1.00564
1.01031
1.02721
1
1
1
1
1
1
1
1
1
1
1
1
1
1
1
1
1
1
1
1
1
1
1
1
1
1.00001
1.00003
1.00008
1.00019
1.00095
0.0560819
0.0564314
0.0592951
0.0542388
0.0507117
0.051065
0.0535618
0.0728741
0.0939537
0.131894
0.180891
0.240249
0.311752
0.401093
0.512579
0.652203
0.821356
1.02636
1.28143
1.5842
1.74132
1.73436
1.59504
1.23793
1.0276
1.00076
1.00001
1
1
1
0.0562812
0.0571712
0.0594287
0.0530392
0.0493224
0.0512706
0.0550653
0.0773389
0.104619
0.142131
0.188908
0.24871
0.321656
0.412829
0.53297
0.684029
0.870631
1.09571
1.37076
1.65268
1.75325
1.736
1.54688
1.17421
1.01467
1.00028
1
1
1
1
0.0571327
0.0576679
0.0586909
0.0516606
0.0490325
0.051653
0.057608
0.0826922
0.109438
0.143426
0.189608
0.250208
0.325647
0.425014
0.563605
0.738586
0.945681
1.18385
1.45571
1.69594
1.75643
1.71527
1.461
1.12455
1.0085
1.00013
1
1
1
1
0.0577176
0.0579202
0.0581531
0.0508678
0.0489595
0.0535432
0.0629771
0.0866107
0.110904
0.143159
0.190041
0.255329
0.350302
0.47799
0.626832
0.801819
1.00217
1.24033
1.51242
1.72374
1.75715
1.67932
1.40076
1.09178
1.0049
1.00006
1
1
1
1
0.0580549
0.0578588
0.0580752
0.0506785
0.0492253
0.0566972
0.066821
0.0873106
0.112622
0.148633
0.210309
0.292491
0.395212
0.514436
0.656434
0.828975
1.03437
1.28322
1.56519
1.74767
1.75746
1.65749
1.35314
1.06385
1.00256
1.00003
1
1
1
1
0.0579275
0.0570513
0.0582214
0.05086
0.0496614
0.0583112
0.0682901
0.0874437
0.117029
0.170578
0.237848
0.318273
0.413583
0.530432
0.675346
0.854173
1.07272
1.34249
1.63483
1.76872
1.76292
1.64362
1.28612
1.03758
1.00113
1.00001
1
1
1
1
0.0574561
0.0562201
0.0584347
0.0511569
0.0496407
0.0584842
0.0683139
0.0908033
0.13114
0.185744
0.248493
0.326074
0.42235
0.542595
0.702916
0.913113
1.16757
1.44477
1.69901
1.77938
1.76386
1.58432
1.20468
1.02114
1.00051
1
1
1
1
1
0.0573701
0.0561915
0.0579752
0.0509439
0.0485535
0.0573024
0.0676575
0.100654
0.141404
0.189515
0.251028
0.328928
0.43385
0.583668
0.780473
1.00598
1.25358
1.5184
1.73309
1.78169
1.73945
1.4917
1.15054
1.01259
1.00024
1
1
1
1
1
0.0577913
0.0568911
0.0567217
0.0487695
0.0459336
0.0564871
0.0721362
0.109208
0.144519
0.189039
0.253106
0.348627
0.488632
0.65947
0.847623
1.05928
1.30539
1.57062
1.7579
1.7805
1.70403
1.43568
1.11125
1.00683
1.0001
1
1
1
1
1
0.0585234
0.0578577
0.0552746
0.0467904
0.0447002
0.0572214
0.0804456
0.112396
0.147241
0.196156
0.285064
0.405237
0.541322
0.698461
0.881636
1.09845
1.36126
1.63728
1.78197
1.77577
1.679
1.37862
1.07181
1.00323
1.00004
1
1
1
1
1
0.0592922
0.0583991
0.0541482
0.0464065
0.045266
0.0603821
0.0829856
0.113553
0.15464
0.232065
0.326724
0.435862
0.564619
0.723604
0.920268
1.16819
1.4571
1.71085
1.79392
1.78145
1.65682
1.29113
1.04114
1.00142
1.00002
1
1
1
1
1
0.0598258
0.0585182
0.0537374
0.0467515
0.047995
0.062904
0.0838684
0.118927
0.180958
0.257224
0.341869
0.448629
0.585019
0.766508
1.0104
1.282
1.55482
1.75535
1.79834
1.78165
1.5829
1.20766
1.02305
1.00061
1.00001
1
1
1
1
1
0.0600491
0.0587472
0.0537895
0.0468792
0.0493068
0.0646252
0.0885076
0.134848
0.198287
0.264416
0.34743
0.461078
0.634928
0.862574
1.10794
1.3618
1.61689
1.77903
1.79958
1.74829
1.48907
1.14938
1.01256
1.00025
1
1
1
1
1
1
0.0597316
0.0587771
0.0542497
0.0470087
0.0490238
0.0670506
0.0987592
0.148638
0.203538
0.265261
0.363339
0.525952
0.727971
0.938468
1.17077
1.42852
1.67592
1.79817
1.79968
1.707
1.42419
1.10298
1.0062
1.0001
1
1
1
1
1
1
0.0584001
0.0571936
0.0537055
0.0466932
0.0488269
0.0725112
0.108934
0.153082
0.206242
0.288801
0.433551
0.602515
0.782923
0.988264
1.23778
1.51834
1.73683
1.81222
1.79216
1.67453
1.35329
1.06227
1.00279
1.00004
1
1
1
1
1
1
0.0563838
0.0553812
0.0518965
0.0455553
0.0512772
0.0794272
0.112834
0.157473
0.223029
0.350024
0.487815
0.639723
0.821913
1.05766
1.34679
1.61665
1.78007
1.81707
1.78579
1.63391
1.25749
1.03423
1.00114
1.00001
1
1
1
1
1
1
0.0545231
0.0538831
0.0509108
0.0449731
0.0543821
0.0818841
0.113577
0.170298
0.27502
0.387501
0.511227
0.669423
0.891414
1.17623
1.45012
1.68833
1.80666
1.81787
1.78758
1.54385
1.17643
1.01751
1.00043
1
1
1
1
1
1
1
0.0538309
0.0521312
0.0498926
0.0463698
0.0565512
0.0810944
0.119848
0.20183
0.305562
0.402689
0.528963
0.735411
1.01353
1.27651
1.53007
1.74607
1.81977
1.81742
1.74057
1.44134
1.11551
1.00814
1.00015
1
1
1
1
1
1
1
0.0538251
0.0501951
0.0489862
0.0479875
0.0580504
0.0813887
0.141215
0.233075
0.318703
0.415667
0.601802
0.858055
1.10954
1.36018
1.61504
1.78808
1.82245
1.80696
1.66803
1.35411
1.06991
1.00354
1.00005
1
1
1
1
1
1
1
0.0543233
0.0486762
0.0480206
0.048009
0.0605576
0.0990465
0.172389
0.246606
0.328608
0.4902
0.714622
0.943751
1.18879
1.46465
1.69592
1.80914
1.82125
1.78337
1.61618
1.27051
1.03867
1.00144
1.00002
1
1
1
1
1
1
1
0.0576971
0.0474282
0.0461425
0.0468964
0.0664877
0.123894
0.186208
0.258755
0.386862
0.584609
0.786217
1.01289
1.29672
1.57545
1.75263
1.82153
1.81651
1.76135
1.55401
1.18497
1.01942
1.00052
1.00001
1
1
1
1
1
1
1
0.0613869
0.0462586
0.0427304
0.0475512
0.0806321
0.136022
0.190959
0.28665
0.471416
0.646565
0.845237
1.11955
1.42729
1.66507
1.79595
1.82921
1.82392
1.75102
1.44835
1.11268
1.00817
1.00016
1
1
1
1
1
1
1
1
0.0635897
0.0447793
0.0406344
0.0547734
0.0919701
0.13766
0.199975
0.360427
0.52713
0.696504
0.949622
1.26769
1.53907
1.73928
1.82709
1.83556
1.8263
1.69568
1.33146
1.06078
1.00301
1.00005
1
1
1
1
1
1
1
1
0.0643504
0.0439528
0.0406671
0.0631898
0.0949553
0.139779
0.252914
0.419138
0.574778
0.797402
1.10403
1.39326
1.6374
1.79408
1.84028
1.83983
1.7985
1.57718
1.23019
1.03059
1.00109
1.00001
1
1
1
1
1
1
1
1
0.0638309
0.0432387
0.0441281
0.0673076
0.0970939
0.16321
0.31858
0.468576
0.658052
0.94412
1.23218
1.5055
1.72273
1.82445
1.8431
1.83458
1.74202
1.48713
1.15193
1.01411
1.00036
1
1
1
1
1
1
1
1
1
0.0631918
0.0417594
0.0469876
0.0677748
0.110246
0.231905
0.36495
0.527883
0.798218
1.0697
1.35194
1.62131
1.78334
1.83913
1.83979
1.81363
1.69601
1.39822
1.08856
1.00575
1.00011
1
1
1
1
1
1
1
1
1
0.0604998
0.0393643
0.0471292
0.0722994
0.146173
0.275671
0.411022
0.645406
0.920916
1.19518
1.49605
1.71893
1.82074
1.84423
1.83304
1.79323
1.64288
1.27775
1.04281
1.00186
1.00003
1
1
1
1
1
1
1
1
1
0.0558499
0.0363135
0.0453128
0.0942256
0.194076
0.311271
0.488184
0.7757
1.05201
1.3608
1.62804
1.78591
1.83822
1.84389
1.8362
1.78469
1.52752
1.16487
1.01723
1.00051
1.00001
1
1
1
1
1
1
1
1
1
0.0501608
0.0370007
0.0478684
0.119399
0.222417
0.360214
0.629626
0.915638
1.22289
1.52031
1.72431
1.82345
1.84283
1.84185
1.83334
1.71628
1.38078
1.08818
1.00609
1.00013
1
1
1
1
1
1
1
1
1
1
0.0409413
0.0389502
0.0684108
0.145175
0.266836
0.482372
0.769195
1.07747
1.40511
1.64697
1.78835
1.83967
1.84339
1.83921
1.79528
1.59982
1.26856
1.04428
1.00202
1.00003
1
1
1
1
1
1
1
1
1
1
0.0351085
0.0381246
0.0878251
0.174923
0.340534
0.627868
0.931544
1.27507
1.56319
1.74137
1.82197
1.84639
1.84264
1.8293
1.75169
1.51556
1.17622
1.01865
1.00058
1.00001
1
1
1
1
1
1
1
1
1
1
0.0303016
0.0445795
0.102749
0.243339
0.489711
0.78592
1.13036
1.46018
1.6991
1.79651
1.83435
1.85023
1.8423
1.81436
1.7094
1.40793
1.08947
1.0061
1.00013
1
1
1
1
1
1
1
1
1
1
1
0.0228372
0.0557413
0.134502
0.341765
0.646814
0.982423
1.35429
1.62623
1.7915
1.81874
1.83936
1.85376
1.84975
1.81076
1.63184
1.24346
1.03443
1.00153
1.00003
1
1
1
1
1
1
1
1
1
1
1
0.0112345
0.0643767
0.22271
0.49885
0.84395
1.23662
1.55486
1.74895
1.83404
1.82563
1.84606
1.85568
1.8528
1.78235
1.4539
1.12153
1.01129
1.00032
1
1
1
1
1
1
1
1
1
1
1
1
0.003433
0.0793905
0.355897
0.709913
1.10706
1.47321
1.70852
1.81615
1.84516
1.82855
1.85311
1.85185
1.83131
1.64366
1.29666
1.05632
1.00314
1.00006
1
1
1
1
1
1
1
1
1
1
1
1
0.00485825
0.18426
0.527099
0.972295
1.39523
1.66604
1.79784
1.84309
1.84891
1.829
1.85561
1.83758
1.76002
1.51602
1.18198
1.0207
1.0007
1.00001
1
1
1
1
1
1
1
1
1
1
1
1
0.0253016
0.327289
0.806974
1.29842
1.62746
1.78474
1.83464
1.85205
1.85141
1.82852
1.8564
1.82047
1.68935
1.38537
1.08246
1.00538
1.00012
1
1
1
1
1
1
1
1
1
1
1
1
1
0.108413
0.534662
1.1818
1.59918
1.77544
1.83138
1.84586
1.85556
1.85338
1.82579
1.85219
1.80501
1.59579
1.20808
1.02453
1.00095
1.00001
1
1
1
1
1
1
1
1
1
1
1
1
1
0.380575
1.01866
1.5571
1.7734
1.83135
1.84278
1.85008
1.85809
1.8533
1.82042
1.83128
1.75812
1.39668
1.0764
1.00477
1.0001
1
1
1
1
1
1
1
1
1
1
1
1
1
1
0.999294
1.53751
1.78592
1.83764
1.84262
1.84561
1.85298
1.85926
1.84783
1.81522
1.80142
1.59859
1.20032
1.02013
1.00053
1.00001
1
1
1
1
1
1
1
1
1
1
1
1
1
1
1.84915
1.84966
1.84848
1.84734
1.84426
1.84719
1.85426
1.85953
1.8416
1.80377
1.75805
1.41589
1.07016
0.999719
0.999968
0.999999
1
1
1
1
1
1
1
1
1
1
1
1
1
1
1.84805
1.84858
1.84884
1.84885
1.84545
1.84363
1.84936
1.86001
1.85238
1.80607
1.74306
1.37451
1.06639
1.0027
1.00003
1
1
1
1
1
1
1
1
1
1
1
1
1
1
1
1.84638
1.8469
1.84992
1.85106
1.84733
1.84251
1.84389
1.85881
1.85575
1.80489
1.66335
1.23986
1.02048
1.00033
1
1
1
1
1
1
1
1
1
1
1
1
1
1
1
1
1.84573
1.84575
1.85055
1.85345
1.85017
1.84053
1.8389
1.85426
1.85604
1.7888
1.56314
1.16221
1.00995
1.00012
1
1
1
1
1
1
1
1
1
1
1
1
1
1
1
1
1.84546
1.84524
1.85029
1.85459
1.85225
1.83972
1.83318
1.84677
1.85396
1.77081
1.47306
1.09691
1.00371
1.00003
1
1
1
1
1
1
1
1
1
1
1
1
1
1
1
1
1.84574
1.84507
1.8492
1.8545
1.85264
1.84107
1.82973
1.84078
1.84768
1.73634
1.36724
1.04943
1.00124
1.00001
1
1
1
1
1
1
1
1
1
1
1
1
1
1
1
1
1.84665
1.84555
1.84765
1.85181
1.8524
1.84505
1.82977
1.84041
1.84336
1.67275
1.25403
1.02305
1.00039
1
1
1
1
1
1
1
1
1
1
1
1
1
1
1
1
1
1.84835
1.84703
1.84667
1.84799
1.85031
1.85109
1.83838
1.84327
1.83256
1.56556
1.16514
1.00989
1.00011
1
1
1
1
1
1
1
1
1
1
1
1
1
1
1
1
1
1.84969
1.84825
1.84474
1.84239
1.84701
1.85613
1.84986
1.83539
1.79812
1.46514
1.0915
1.00336
1.00003
1
1
1
1
1
1
1
1
1
1
1
1
1
1
1
1
1
1.85049
1.84873
1.84359
1.83783
1.8429
1.85823
1.86229
1.82377
1.72812
1.35361
1.04627
1.00113
1.00001
1
1
1
1
1
1
1
1
1
1
1
1
1
1
1
1
1
1.8507
1.84949
1.84425
1.83508
1.83735
1.86075
1.86863
1.8196
1.65839
1.24609
1.02031
1.00032
1
1
1
1
1
1
1
1
1
1
1
1
1
1
1
1
1
1
1.85036
1.84919
1.8446
1.83412
1.83315
1.8595
1.87012
1.81147
1.56863
1.15004
1.00808
1.00008
1
1
1
1
1
1
1
1
1
1
1
1
1
1
1
1
1
1
1.84945
1.84694
1.84451
1.83736
1.83169
1.8593
1.86829
1.76245
1.45258
1.07978
1.00264
1.00002
1
1
1
1
1
1
1
1
1
1
1
1
1
1
1
1
1
1
1.84865
1.84439
1.84478
1.84139
1.83329
1.86362
1.86984
1.7111
1.33218
1.03884
1.00081
1
1
1
1
1
1
1
1
1
1
1
1
1
1
1
1
1
1
1
1.84725
1.84175
1.84547
1.84563
1.84226
1.86502
1.86944
1.64892
1.21088
1.01491
1.0002
1
1
1
1
1
1
1
1
1
1
1
1
1
1
1
1
1
1
1
1.84559
1.83813
1.84065
1.8516
1.85271
1.85276
1.83223
1.5246
1.11702
1.00515
1.00005
1
1
1
1
1
1
1
1
1
1
1
1
1
1
1
1
1
1
1
1.84529
1.83527
1.83371
1.856
1.87658
1.84087
1.7664
1.40663
1.06119
1.00161
1.00001
1
1
1
1
1
1
1
1
1
1
1
1
1
1
1
1
1
1
1
1.84386
1.83402
1.82991
1.86879
1.88947
1.83951
1.70652
1.28041
1.02484
1.00042
1
1
1
1
1
1
1
1
1
1
1
1
1
1
1
1
1
1
1
1
1.84003
1.83414
1.82856
1.88039
1.89807
1.83386
1.60638
1.15804
1.00861
1.00009
1
1
1
1
1
1
1
1
1
1
1
1
1
1
1
1
1
1
1
1
1.83414
1.83404
1.83084
1.89074
1.9032
1.7852
1.4664
1.08397
1.00279
1.00002
1
1
1
1
1
1
1
1
1
1
1
1
1
1
1
1
1
1
1
1
1.82764
1.83732
1.84105
1.89552
1.90518
1.73793
1.33136
1.03552
1.00068
1
1
1
1
1
1
1
1
1
1
1
1
1
1
1
1
1
1
1
1
1
1.81784
1.84174
1.85149
1.89183
1.90364
1.65795
1.19095
1.01188
1.00015
1
1
1
1
1
1
1
1
1
1
1
1
1
1
1
1
1
1
1
1
1
1.81185
1.8474
1.87396
1.87402
1.84883
1.50716
1.10123
1.00377
1.00003
1
1
1
1
1
1
1
1
1
1
1
1
1
1
1
1
1
1
1
1
1
1.81056
1.86419
1.907
1.86308
1.77855
1.37586
1.04582
1.00097
1.00001
1
1
1
1
1
1
1
1
1
1
1
1
1
1
1
1
1
1
1
1
1
1.8124
1.88592
1.92613
1.86777
1.69489
1.21867
1.01462
1.0002
1
1
1
1
1
1
1
1
1
1
1
1
1
1
1
1
1
1
1
1
1
1
1.82656
1.90386
1.93591
1.84241
1.54043
1.10953
1.00438
1.00004
1
1
1
1
1
1
1
1
1
1
1
1
1
1
1
1
1
1
1
1
1
1
1.84651
1.91057
1.93909
1.7791
1.38397
1.04861
1.00109
1.00001
1
1
1
1
1
1
1
1
1
1
1
1
1
1
1
1
1
1
1
1
1
1
1.8642
1.91042
1.94274
1.70809
1.22482
1.01523
1.00021
1
1
1
1
1
1
1
1
1
1
1
1
1
1
1
1
1
1
1
1
1
1
1
1.89626
1.91489
1.91073
1.5379
1.10582
1.00414
1.00004
1
1
1
1
1
1
1
1
1
1
1
1
1
1
1
1
1
1
1
1
1
1
1
1.97438
1.88877
1.81489
1.36526
1.04648
1.00106
1.00001
1
1
1
1
1
1
1
1
1
1
1
1
1
1
1
1
1
1
1
1
1
1
1
2.06959
1.83664
1.70052
1.21137
1.01457
1.00021
1
1
1
1
1
1
1
1
1
1
1
1
1
1
1
1
1
1
1
1
1
1
1
1
2.1383
1.79081
1.50508
1.09572
1.00398
1.00004
1
1
1
1
1
1
1
1
1
1
1
1
1
1
1
1
1
1
1
1
1
1
1
1
2.17136
1.70159
1.33106
1.0412
1.00109
1.00001
1
1
1
1
1
1
1
1
1
1
1
1
1
1
1
1
1
1
1
1
1
1
1
1
2.18248
1.58958
1.19312
1.01436
1.00024
1
1
1
1
1
1
1
1
1
1
1
1
1
1
1
1
1
1
1
1
1
1
1
1
1
2.08315
1.45269
1.09827
1.00454
1.00005
1
1
1
1
1
1
1
1
1
1
1
1
1
1
1
1
1
1
1
1
1
1
1
1
1
1.93016
1.32981
1.04731
1.00133
1.00001
1
1
1
1
1
1
1
1
1
1
1
1
1
1
1
1
1
1
1
1
1
1
1
1
1
1.79689
1.20751
1.0165
1.00028
1
1
1
1
1
1
1
1
1
1
1
1
1
1
1
1
1
1
1
1
1
1
1
1
1
1
1.60005
1.10323
1.0046
1.00004
1
1
1
1
1
1
1
1
1
1
1
1
1
1
1
1
1
1
1
1
1
1
1
1
1
1
1.36436
1.04232
1.0009
1
1
1
1
1
1
1
1
1
1
1
1
1
1
1
1
1
1
1
1
1
1
1
1
1
1
1
1.1351
1.0089
1.00008
1
1
1
1
1
1
1
1
1
1
1
1
1
1
1
1
1
1
1
1
1
1
1
1
1
1
1
1
1
1
1
1
1
1
1
1
1
1
1
1
1
1
1
1
1
1
1
1
1
1
1
1
1
1
1
1
1
1
1
1
1
1
1
1
1
1
1
1
1
1
1
1
1
1
1
1
1
1
1
1
1
1
1
1
1
1
1
1
1
1
1
1
1
1
1
1
1
1
1
1
1
1
1
1
1
1
1
1
1
1
1
1
1
1
1
1
1
1
1
1
1
1
1
1
1
1
1
1
1
1
1
1
1
1
1
1
1
1
1
1
1
1
1
1
1
1
1
1
1
1
1
1
1
1
1
1
1
1
1
1
1
1
1
1
1
1
1
1
1
1
1
1
1
1
1
1
1
1
1
1
1
1
1
1
1
1
1
1
1
1
1
1
1
1
1
1
1
1
1
1
1
1
1
1
1
1
1
1
1
1
1
1
1
1
1
1
1
1
1
1
1
1
1
1
1
1
1
1
1
1
1
1
1
1
1
1
1
1
1
1
1
1
1
1
1
1
1
1
1
1
1
1
1
1
1
1
1
1
1
1
1
1
1
1
1
1
1
1
1
1
1
1
1
1
1
1
1
1
1
1
1
1
1
1
1
1
1
1
1
1
1
1
1
1
1
1
1
1
1
1
1
1
1
1
1
1
1
1
1
1
1
1
1
1
1
1
1
1
1
1
1
1
1
1
1
1
1
1
1
1
1
1
1
1
1
1
1
1
1
1
1
1
1
1
1
1
1
1
1
1
1
1
1
1
1
1
1
1
1
1
1
1
1
1
1
1
1
1
1
1
1
1
1
1
1
1
1
1
1
1
1
1
1
1
1
1
1
1
1
1
1
1
1
1
1
1
1
1
1
1
1
1
1
1
1
1
1
1
1
1
1
1
1
1
1
1
1
1
1
1
1
1
1
1
1
1
1
1
1
1
1
1
1
1
1
1
1
1
1
1
1
1
1
1
1
1
1
1
1
1
1
1
1
1
1
1
1
1
1
1
1
1
1
1
1
1
1
1
1
1
1
1
1
1
1
1
1
1
1
1
1
1
1
1
1
1
1
1
1
1
1
1
1
1
1
1
1
1
1
1
1
1
1
1
1
1
1
1
1
1
1
1
1
1
1
1
1
1
1
1
1
1
1
1
1
1
1
1
1
1
1
1
1
1
1
1
1
1
1
1
1
1
1
1
1
1
1
1
1
1
1
1
1
1
1
1
1
1
1
1
1
1
1
1
1
1
1
1
1
1
1
1
1
1
1
1
1
1
1
1
1
1
1
1
1
1
1
1
1
1
1
1
1
1
1
1
1
1
1
1
1
1
1
1
1
1
1
1
1
1
1
1
1
1
1
1
1
1
1
1
1
1
1
1
1
1
1
1
1
1
1
1
1
1
1
1
1
1
1
1
1
1
1
1
1
1
1
1
1
1
1
1
1
1
1
1
1
1
1
1
1
1
1
1
1
1
1
1
1
1
1
1
1
1
1
1
1
1
1
1
1
1
1
1
1
1
1
1
1
1
1
1
1
1
1
1
1
1
1
1
1
1
1
1
1
1
1
1
1
1
1
1
1
1
1
1
1
1
1
1
1
1
1
1
1
1
1
1
1
1
1
1
1
1
1
1
1
1
1
1
1
1
1
1
1
1
1
1
1
1
1
1
1
1
1
1
1
1
1
1
1
1
1
1
1
1
1
1
1
1
1
1
1
1
1
1
1
1
1
1
1
1
1
1
1
1
1
1
1
1
1
1
1
1
1
1
1
1
1
1
1
1
1
1
1
1
1
1
1
1
1
1
1
1
1
1
1
1
1
1
1
1
1
1
1
1
1
1
1
1
1
1
1
1
1
1
1
1
1
1
1
1
1
1
1
1
1
1
1
1
1
1
1
1
1
1
1
1
1
1
1
1
1
1
1
1
1
1
1
1
1
1
1
1
1
1
1
1
1
1
1
1
1
1
1
1
1
1
1
1
1
1
1
1
1
1
1
1
1
1
1
1
1
1
1
1
1
1
1
1
1
1
1
1
1
1
1
1
1
1
1
1
1
1
1
1
1
1
1
1
1
1
1
1
1
1
1
1
1
1
1
1
1
1
1
1
1
1
1
1
1
1
1
1
1
1
1
1
1
1
1
1
1
1
1
1
1
1
1
1
1
1
1
1
1
1
1
1
1
1
1
1
1
1
1
1
1
1
1
1
1
1
1
1
1
1
1
1
1
1
1
1
1
1
1
1
1
1
1
1
1
1
1
1
1
1
1
1
1
1
1
1
1
1
1
1
1
1
1
1
1
1
1
1
1
1
1
1
1
1
1
1
1
1
1
1
1
1
1
1
1
1
1
1
1
1
1
1
1
1
1
1
1
1
1
1
1
1
1
1
1
1
1
1
1
1
1
1
1
1
1
1
1
1
1
1
1
1
1
1
1
1
1
1
1
1
1
1
1
1
1
1
1
1
1
1
1
1
1
1
1
1
1
1
1
1
1
1
1
1
1
1
1
1
1
1
1
1
1
1
1
1
1
1
1
1
1
1
1
1
1
1
1
1
1
1
1
1
1
1
1
1
1
1
1
1
1
1
1
1
1
1
1
1
1
1
1
1
1
1
1
1
1
1
1
1
1
1
1
1
1
1
1
1
1
1
1
1
1
1
1
1
1
1
1
1
1
1
1
1
1
1
1
1
1
1
1
1
1
1
1
1
1
1
1
1
1
1
1
1
1
1
1
1
1
1
1
1
1
1
1
1
1
1
1
1
1
1
1
1
1
1
1
1
1
1
1
1
1
1
1
1
1
1
1
1
1
1
1
1
1
1
1
1
1
1
1
1
1
1
1
1
1
1
1
1
1
1
1
1
1
1
1
1
1
1
1
1
1
1
1
1
1
1
1
1
1
1
1
1
1
1
1
1
1
1
1
1
1
1
1
1
1
1
1
1
1
1
1
1
1
1
1
1
1
1
1
1
1
1
1
1
1
1
1
1
1
1
1
1
1
1
1
1
1
1
1
1
1
1
1
1
1
1
1
1
1
1
1
1
1
1
1
1
1
1
1
1
1
1
1
1
1
1
1
1
1
1
1
1
1
1
1
1
1
1
1
1
1
1
1
1
1
1
1
1
1
1
1
1
1
1
1
1
1
1
1
1
1
1
1
1
1
1
1
1
1
1
1
1
1
1
1
1
1
1
1
1
1
1
1
1
1
1
1
1
1
1
1
1
1
1
1
1
1
1
1
1
1
1
1
1
1
1
1
1
1
1
1
1
1
1
1
1
1
1
1
1
1
1
1
1
1
1
1
1
1
1
1
1
1
1
1
1
1
1
1
1
1
1
1
1
1
1
1
1
1
1
1
1
1
1
1
1
1
1
1
1
1
1
1
1
1
1
1
1
1
1
1
1
1
1
1
1
1
1
1
1
1
1
1
1
1
1
1
1
1
1
1
1
1
1
1
1
1
1
1
1
1
1
1
1
1
1
1
1
1
1
1
1
1
1
1
1
1
1
1
1
1
1
1
1
1
1
1
1
1
1
1
1
1
1
1
1
1
1
1
1
1
1
1
1
1
1
1
1
1
1
1
1
1
1
1
1
1
1
1
1
1
1
1
1
1
1
1
1
1
1
1
1
1
1
1
1
1
1
1
1
1
1
1
1
1
1
1
1
1
1
1
1
1
1
1
1
1
1
1
1
1
1
1
1
1
1
1
1
1
1
1
1
1
1
1
1
1
1
1
1
1
1
1
1
1
1
1
1
1
1
1
1
1
1
1
1
1
1
1
1
1
1
1
1
1
1
1
1
1
1
1
1
1
1
1
1
1
1
1
1
1
1
1
1
1
1
1
1
1
1
1
1
1
1
1
1
1
1
1
1
1
1
1
1
1
1
1
1
1
1
1
1
1
1
1
1
1
1
1
1
1
1
1
1
1
1
1
1
1
1
1
1
1
1
1
1
1
1
1
1
1
1
1
1
1
1
1
1
1
1
1
1
1
1
1
1
1
1
1
1
1
1
1
1
1
1
1
1
1
1
1
1
1
1
1
1
1
1
1
1
1
1
1
1
1
1
1
1
1
1
1
1
1
1
1
1
1
1
1
1.42125
1
1
1
1
1
1
1
1
1
1
1
1
1
1
1
1
1
1
1
1
1
1
1
1
1
1
1
1
1
2.36473
0.998517
1
1
1
1
1
1
1
1
1
1
1
1
1
1
1
1
1
1
1
1
1
1
1
1
1
1
1
1
3.6054
1.07667
1
1
1
1
1
1
1
1
1
1
1
1
1
1
1
1
1
1
1
1
1
1
1
1
1
1
1
1
5.22118
1.36417
1
1
1
1
1
1
1
1
1
1
1
1
1
1
1
1
1
1
1
1
1
1
1
1
1
1
1
1
6.88211
2.16665
0.998803
1
1
1
1
1
1
1
1
1
1
1
1
1
1
1
1
1
1
1
1
1
1
1
1
1
1
1
8.62164
3.85132
1.11451
0.999852
1
1
1
1
1
1
1
1
1
1
1
1
1
1
1
1
1
1
1
1
1
1
1
1
1
1
9.50787
6.3296
2.60076
1.00516
1
1
1
1
1
1
1
1
1
1
1
1
1
1
1
1
1
1
1
1
1
1
1
1
1
1
8.53073
6.6781
5.75528
1.78748
0.999251
1
1
1
1
1
1
1
1
1
1
1
1
1
1
1
1
1
1
1
1
1
1
1
1
1
7.05152
6.31274
6.89299
4.35372
1.23978
0.999689
1
1
1
1
1
1
1
1
1
1
1
1
1
1
1
1
1
1
1
1
1
1
1
1
6.15341
6.02898
6.68801
6.41537
2.70639
1.00909
1
1
1
1
1
1
1
1
1
1
1
1
1
1
1
1
1
1
1
1
1
1
1
1
5.80332
5.84567
6.39294
6.32345
4.92421
1.47722
0.99941
1
1
1
1
1
1
1
1
1
1
1
1
1
1
1
1
1
1
1
1
1
1
1
5.65516
5.78639
6.05139
5.95003
5.79913
2.85109
1.02599
1
1
1
1
1
1
1
1
1
1
1
1
1
1
1
1
1
1
1
1
1
1
1
5.57202
5.69843
5.74211
5.81737
6.06875
4.57142
1.40459
0.999462
1
1
1
1
1
1
1
1
1
1
1
1
1
1
1
1
1
1
1
1
1
1
5.56195
5.65732
5.66021
5.79636
6.03671
5.72974
2.67833
1.01729
1
1
1
1
1
1
1
1
1
1
1
1
1
1
1
1
1
1
1
1
1
1
5.59588
5.67857
5.69394
5.79214
5.9437
5.74246
4.16243
1.30526
0.99994
1
1
1
1
1
1
1
1
1
1
1
1
1
1
1
1
1
1
1
1
1
5.64821
5.72425
5.7461
5.77063
5.79235
5.70183
5.14391
2.1201
0.999792
1
1
1
1
1
1
1
1
1
1
1
1
1
1
1
1
1
1
1
1
1
5.7097
5.77673
5.78301
5.76387
5.70551
5.68206
5.71044
3.59688
1.12787
1
1
1
1
1
1
1
1
1
1
1
1
1
1
1
1
1
1
1
1
1
5.7761
5.82955
5.81237
5.77957
5.68688
5.69832
5.81426
4.85654
1.74029
0.999051
1
1
1
1
1
1
1
1
1
1
1
1
1
1
1
1
1
1
1
1
5.82943
5.86956
5.82767
5.79861
5.70426
5.71417
5.78284
5.29973
2.77695
1.03327
1
1
1
1
1
1
1
1
1
1
1
1
1
1
1
1
1
1
1
1
5.86829
5.88952
5.83373
5.81856
5.76365
5.74933
5.77934
5.63418
4.12545
1.29865
0.999596
1
1
1
1
1
1
1
1
1
1
1
1
1
1
1
1
1
1
1
5.89099
5.89376
5.83924
5.84056
5.82377
5.77943
5.79078
5.77988
5.2666
2.14912
1.00166
1
1
1
1
1
1
1
1
1
1
1
1
1
1
1
1
1
1
1
5.89991
5.8833
5.85312
5.85794
5.85382
5.81152
5.81511
5.82506
5.50279
3.33605
1.10087
1
1
1
1
1
1
1
1
1
1
1
1
1
1
1
1
1
1
1
5.89616
5.87451
5.86668
5.87119
5.87224
5.84027
5.8403
5.84302
5.67689
4.51002
1.5091
0.999279
1
1
1
1
1
1
1
1
1
1
1
1
1
1
1
1
1
1
5.8879
5.86939
5.87718
5.88253
5.88657
5.86433
5.85471
5.87005
5.80452
5.53951
2.55737
1.01679
1
1
1
1
1
1
1
1
1
1
1
1
1
1
1
1
1
1
5.8777
5.86479
5.88453
5.88668
5.89506
5.88157
5.87098
5.88599
5.87525
5.73748
3.85476
1.21178
1
1
1
1
1
1
1
1
1
1
1
1
1
1
1
1
1
1
5.86876
5.85898
5.88496
5.88342
5.8933
5.88665
5.87894
5.89529
5.90265
5.76924
4.90168
1.8082
0.999102
1
1
1
1
1
1
1
1
1
1
1
1
1
1
1
1
1
5.86244
5.85358
5.87832
5.8757
5.88229
5.88178
5.87657
5.89696
5.89161
5.80734
5.67263
2.95368
1.0473
1
1
1
1
1
1
1
1
1
1
1
1
1
1
1
1
1
5.85943
5.85066
5.86707
5.86849
5.86893
5.87234
5.8661
5.88894
5.87233
5.83043
5.90521
4.36825
1.35824
0.999473
1
1
1
1
1
1
1
1
1
1
1
1
1
1
1
1
5.85507
5.84974
5.85523
5.86209
5.85537
5.85826
5.84913
5.87126
5.86044
5.83042
5.8694
5.22286
2.18449
1.00537
1
1
1
1
1
1
1
1
1
1
1
1
1
1
1
1
5.84585
5.85215
5.84897
5.85589
5.84599
5.84204
5.83571
5.85376
5.85195
5.83835
5.80913
5.69212
3.33181
1.10135
1
1
1
1
1
1
1
1
1
1
1
1
1
1
1
1
5.83632
5.85352
5.84567
5.84819
5.83766
5.82916
5.82539
5.83855
5.84707
5.82955
5.79704
5.88457
4.62494
1.5092
0.999227
1
1
1
1
1
1
1
1
1
1
1
1
1
1
1
5.83323
5.85288
5.8434
5.83824
5.82837
5.81848
5.81507
5.82193
5.83866
5.81406
5.78252
5.87279
5.43545
2.4823
1.01728
0.999999
1
1
1
1
1
1
1
1
1
1
1
1
1
1
5.8334
5.84793
5.83963
5.82591
5.81784
5.80742
5.80404
5.80286
5.82436
5.79619
5.75066
5.79439
5.63452
3.6437
1.17117
1
1
1
1
1
1
1
1
1
1
1
1
1
1
1
5.83537
5.83724
5.83288
5.81495
5.80818
5.79695
5.7922
5.78074
5.79983
5.77262
5.70822
5.70373
5.71548
4.61306
1.61361
0.999864
1
1
1
1
1
1
1
1
1
1
1
1
1
1
5.83138
5.82288
5.82197
5.80373
5.7963
5.78418
5.77229
5.75371
5.76937
5.74616
5.68931
5.66902
5.72996
5.40872
2.52614
1.02201
1
1
1
1
1
1
1
1
1
1
1
1
1
1
5.81996
5.80449
5.80357
5.78349
5.77207
5.76407
5.7462
5.725
5.73356
5.71841
5.67738
5.6573
5.70336
5.51537
3.66703
1.18841
0.999822
0.999999
1
1
1
1
1
1
1
1
1
1
1
1
5.80048
5.78028
5.77935
5.75613
5.74181
5.73842
5.71935
5.69805
5.69242
5.68556
5.65239
5.62442
5.65375
5.5503
4.43003
1.59732
1.00043
0.999999
1
1
1
1
1
1
1
1
1
1
1
1
5.77404
5.75134
5.75061
5.72492
5.70982
5.70931
5.68965
5.66775
5.65033
5.64694
5.62344
5.59032
5.58635
5.55158
5.20171
2.38314
1.01617
0.999974
1
1
1
1
1
1
1
1
1
1
1
1
5.73763
5.71411
5.71689
5.68815
5.67195
5.67582
5.65552
5.63506
5.61099
5.60687
5.59402
5.56068
5.55084
5.54353
5.39318
3.4121
1.1731
1.00015
1
1
1
1
1
1
1
1
1
1
1
1
5.7022
5.68347
5.68946
5.65947
5.64616
5.6426
5.61983
5.60657
5.58187
5.57763
5.56481
5.53623
5.52222
5.51661
5.37517
3.98803
1.33206
0.987564
0.999855
1
1
1
1
1
1
1
1
1
1
1
2.71884
4.15599
4.8941
5.2522
5.44476
5.53331
5.56459
5.56791
5.55556
5.55071
5.55112
5.52301
5.4946
5.48801
5.39632
5.09623
2.5356
1.08538
1.00066
1
1
1
1
1
1
1
1
1
1
1
0.99364
2.56671
3.68475
4.37463
4.85002
5.14979
5.34833
5.44304
5.47944
5.49191
5.51718
5.50373
5.47469
5.45985
5.39702
5.37518
3.85046
1.52112
1.0149
1.00009
1
1
1
1
1
1
1
1
1
1
0.391728
1.55546
2.55645
3.43659
4.01126
4.54601
4.87417
5.14564
5.28934
5.3728
5.43526
5.46922
5.44404
5.42601
5.40763
5.37783
4.91423