/*--------------------------------*- C++ -*----------------------------------*\
  =========                 |
  \\      /  F ield         | OpenFOAM: The Open Source CFD Toolbox
   \\    /   O peration     | Website:  https://openfoam.org
    \\  /    A nd           | Version:  7
     \\/     M anipulation  |
\*---------------------------------------------------------------------------*/
FoamFile
{
    version     2.0;
    format      ascii;
    class       volScalarField;
    location    "14.5";
    object      T;
}
// * * * * * * * * * * * * * * * * * * * * * * * * * * * * * * * * * * * * * //

dimensions      [0 0 0 1 0 0 0];

internalField   nonuniform List<scalar> 
90000
(
2.42242
2.40143
2.37758
2.36588
2.3587
2.34548
2.31564
2.27111
2.22171
2.16953
2.11513
2.0604
2.00709
1.95612
1.90818
1.86252
1.82013
1.77904
1.74098
1.70608
1.67458
1.64521
1.61741
1.59073
1.56586
1.54313
1.52177
1.50156
1.48159
1.46234
1.44372
1.42632
1.40973
1.39444
1.38077
1.36855
1.35807
1.34868
1.33968
1.3307
1.3215
1.31246
1.30385
1.29578
1.28851
1.28119
1.27392
1.26719
1.26109
1.25632
1.25263
1.25316
1.2548
1.25639
1.25933
1.26319
1.26687
1.27018
1.27224
1.27361
1.27518
1.27507
1.27366
1.27195
1.27216
1.27265
1.2748
1.27847
1.28222
1.28499
1.28501
1.28405
1.28264
1.28193
1.2838
1.28783
1.29171
1.29484
1.29414
1.29412
1.29572
1.29883
1.30246
1.30391
1.30497
1.30481
1.30711
1.308
1.30959
1.30944
1.3098
1.31236
1.31179
1.31182
1.31256
1.31192
1.31248
1.31298
1.31272
1.31251
2.76773
2.74804
2.72727
2.71241
2.70115
2.69186
2.68026
2.66476
2.64526
2.62164
2.59272
2.55883
2.52269
2.48468
2.44496
2.40448
2.36318
2.32283
2.28295
2.24424
2.20599
2.16837
2.13098
2.09381
2.05658
2.01917
1.98103
1.94226
1.90224
1.86093
1.81836
1.77449
1.72993
1.68518
1.64131
1.60003
1.56191
1.52749
1.49635
1.46845
1.44266
1.4194
1.3978
1.37868
1.36125
1.34578
1.33152
1.31876
1.30694
1.2968
1.28884
1.28355
1.28111
1.27974
1.27852
1.27799
1.27794
1.27789
1.27707
1.27553
1.27401
1.27127
1.26913
1.26974
1.27209
1.27576
1.28093
1.28511
1.28729
1.28728
1.28653
1.28523
1.28524
1.28687
1.29118
1.29609
1.29803
1.29937
1.29834
1.29943
1.30227
1.30629
1.30713
1.30825
1.30802
1.30935
1.31192
1.3122
1.31351
1.31317
1.31406
1.31576
1.3149
1.31538
1.31546
1.31436
1.31452
1.31425
1.31424
1.31491
2.73159
2.7296
2.72735
2.72533
2.72659
2.72739
2.72675
2.72427
2.72005
2.71536
2.71137
2.70689
2.70016
2.69128
2.68001
2.66649
2.65045
2.63213
2.61171
2.58997
2.56668
2.54275
2.51754
2.49172
2.46469
2.43644
2.40673
2.37594
2.34389
2.31012
2.27336
2.23263
2.18795
2.13941
2.08755
2.03481
1.98127
1.92819
1.87565
1.82552
1.77739
1.73204
1.68871
1.64787
1.60917
1.57294
1.53886
1.50688
1.47667
1.44819
1.42204
1.39789
1.37628
1.35732
1.34009
1.32413
1.30999
1.298
1.28793
1.27961
1.27417
1.27271
1.27337
1.27642
1.28064
1.28402
1.2865
1.28796
1.28805
1.28759
1.28668
1.28702
1.2893
1.29282
1.29828
1.30081
1.30217
1.30246
1.30261
1.30566
1.30876
1.31231
1.31162
1.31231
1.31243
1.31477
1.31627
1.31637
1.31673
1.31685
1.31861
1.31895
1.31837
1.3192
1.31872
1.3173
1.31684
1.31603
1.31589
1.31692
2.64302
2.65257
2.67076
2.68096
2.68713
2.69345
2.69879
2.7019
2.7031
2.70313
2.70234
2.70058
2.69778
2.69435
2.69116
2.68897
2.68778
2.68701
2.68664
2.68584
2.68367
2.67972
2.674
2.66681
2.65824
2.64824
2.63632
2.62129
2.60365
2.58406
2.5623
2.53851
2.51215
2.48282
2.45034
2.41565
2.37901
2.34015
2.29714
2.25096
2.2017
2.14954
2.09654
2.04187
1.98435
1.92608
1.86718
1.80921
1.75182
1.69584
1.64132
1.58961
1.54061
1.49681
1.45695
1.42283
1.39284
1.36841
1.34772
1.33136
1.31733
1.3095
1.30573
1.30308
1.30131
1.29979
1.29749
1.29511
1.29212
1.2888
1.28891
1.29162
1.29589
1.29995
1.30277
1.30308
1.30411
1.30511
1.3073
1.31192
1.31468
1.31563
1.31516
1.31563
1.3172
1.32041
1.32027
1.32048
1.32101
1.32173
1.3229
1.3223
1.3226
1.32334
1.32233
1.32094
1.3199
1.31895
1.31847
1.3186
2.44593
2.52726
2.60557
2.62527
2.63466
2.63957
2.64791
2.65884
2.66831
2.67389
2.67911
2.68518
2.6896
2.69195
2.69225
2.69272
2.69375
2.69421
2.69386
2.69243
2.69062
2.68909
2.68837
2.68747
2.68677
2.68615
2.68629
2.68699
2.68656
2.68489
2.68113
2.67529
2.66738
2.65735
2.64518
2.6296
2.61027
2.58844
2.56488
2.53925
2.51093
2.47937
2.4446
2.40948
2.36951
2.3243
2.27303
2.2163
2.15696
2.09249
2.0229
1.9514
1.88038
1.81237
1.74691
1.68602
1.62885
1.57786
1.53113
1.49079
1.45358
1.42229
1.39366
1.37039
1.34931
1.33323
1.31876
1.31001
1.30392
1.3007
1.30276
1.30518
1.3063
1.3077
1.30761
1.30639
1.30693
1.30931
1.31372
1.31704
1.31781
1.31747
1.31786
1.31989
1.32265
1.32456
1.32395
1.32412
1.32495
1.32623
1.32633
1.32582
1.32703
1.32733
1.3263
1.32516
1.32384
1.32288
1.3218
1.32082
1.18194
1.41167
1.83402
2.13739
2.26501
2.38295
2.48646
2.57028
2.62215
2.63957
2.64469
2.65025
2.65788
2.66695
2.6719
2.67492
2.6802
2.68547
2.6898
2.69229
2.69435
2.69655
2.69852
2.7003
2.70144
2.70167
2.70136
2.70044
2.69931
2.69807
2.69765
2.69659
2.69501
2.69293
2.69097
2.68985
2.68895
2.68559
2.68001
2.67254
2.66328
2.65191
2.63709
2.6169
2.5944
2.56932
2.5404
2.50663
2.46801
2.42668
2.37859
2.32309
2.26054
2.1951
2.12323
2.04696
1.96866
1.8928
1.81879
1.74831
1.68158
1.61978
1.56404
1.51439
1.47215
1.43634
1.40754
1.38501
1.36841
1.35696
1.34802
1.33977
1.33136
1.32408
1.3164
1.31283
1.31468
1.31881
1.32244
1.32214
1.32101
1.31893
1.32052
1.3246
1.32745
1.32724
1.32727
1.32894
1.33012
1.32982
1.32903
1.32965
1.33153
1.33108
1.33035
1.32983
1.3295
1.32875
1.32668
1.32389
0.547349
0.545768
0.543672
0.605882
0.769519
1.03631
1.35111
1.65826
2.0624
2.23014
2.35415
2.46727
2.55687
2.62405
2.65721
2.66166
2.66483
2.6695
2.67704
2.68177
2.68361
2.68693
2.69042
2.69313
2.69473
2.69603
2.69759
2.69942
2.70146
2.70333
2.70483
2.70586
2.70636
2.70617
2.70532
2.70394
2.70221
2.70071
2.69967
2.6976
2.69525
2.69296
2.69137
2.69071
2.68662
2.67989
2.67043
2.65795
2.6417
2.61847
2.59156
2.56184
2.52731
2.48778
2.44545
2.39443
2.33443
2.26857
2.19811
2.12259
2.04279
1.96355
1.88425
1.80875
1.73844
1.67443
1.61715
1.56439
1.5176
1.4734
1.43442
1.40235
1.37806
1.36196
1.35074
1.34365
1.34327
1.34151
1.33843
1.33201
1.32425
1.32438
1.32859
1.33168
1.33159
1.32967
1.33075
1.3341
1.33373
1.33206
1.33218
1.33396
1.33549
1.33432
1.33418
1.33446
1.33451
1.33383
1.33153
1.32778
0.537035
0.536477
0.535961
0.535198
0.534366
0.533504
0.532739
0.531536
0.562926
0.698568
0.954236
1.29003
1.60736
1.92387
2.20437
2.34794
2.47046
2.56249
2.62765
2.662
2.66667
2.66854
2.67286
2.6794
2.68219
2.68362
2.68659
2.69
2.69291
2.69523
2.6968
2.69831
2.69958
2.70049
2.70118
2.7015
2.70292
2.70426
2.70536
2.70524
2.705
2.70429
2.70359
2.70143
2.70054
2.6986
2.69587
2.69191
2.6879
2.68532
2.67859
2.66899
2.65653
2.64099
2.61912
2.5933
2.56294
2.52548
2.4812
2.43257
2.37976
2.3209
2.2511
2.17041
2.08608
2.00445
1.92922
1.85659
1.78486
1.71401
1.64697
1.58645
1.53344
1.49123
1.45856
1.43266
1.40998
1.38608
1.36526
1.35331
1.34468
1.34604
1.34617
1.34381
1.33687
1.33537
1.33976
1.33983
1.33795
1.33524
1.33621
1.33984
1.33896
1.33702
1.33712
1.33813
1.33904
1.33835
1.33627
1.33222
0.531413
0.530919
0.530377
0.529824
0.529253
0.528685
0.528087
0.527535
0.526763
0.525888
0.524948
0.524117
0.522777
0.530703
0.669188
0.956368
1.31736
1.65001
1.9156
2.19753
2.36827
2.49
2.5782
2.62714
2.65055
2.65448
2.658
2.66732
2.67195
2.67187
2.67382
2.67754
2.68154
2.68491
2.6872
2.68911
2.6907
2.69179
2.69317
2.69442
2.6959
2.6976
2.69921
2.70119
2.70239
2.70278
2.7027
2.70162
2.69938
2.69529
2.69327
2.68991
2.68589
2.682
2.67933
2.67344
2.66615
2.65547
2.63974
2.61189
2.5784
2.54687
2.51784
2.48185
2.42695
2.35732
2.28362
2.21054
2.1394
2.06075
1.97326
1.88181
1.79328
1.71411
1.64494
1.586
1.53535
1.49552
1.46355
1.4374
1.41689
1.40157
1.38045
1.36319
1.3545
1.35619
1.35618
1.35153
1.34407
1.34294
1.34544
1.3455
1.34318
1.34107
1.3402
1.34059
1.34162
1.34147
1.34068
1.33753
0.525962
0.525483
0.524975
0.524441
0.523879
0.523295
0.522693
0.522069
0.521417
0.520737
0.520045
0.519323
0.518625
0.517796
0.51675
0.515616
0.514632
0.513107
0.52907
0.703233
1.06117
1.45778
1.78059
2.02444
2.26837
2.42237
2.53162
2.59106
2.61915
2.62909
2.6358
2.64627
2.65064
2.64922
2.65048
2.65426
2.65899
2.6635
2.66805
2.67222
2.67594
2.679
2.68156
2.68414
2.68652
2.68885
2.69095
2.69267
2.69384
2.69531
2.69525
2.69482
2.69368
2.69183
2.68942
2.68775
2.68557
2.68383
2.6847
2.68379
2.67316
2.65351
2.63377
2.61977
2.61083
2.59092
2.54939
2.49113
2.43088
2.37314
2.3073
2.22599
2.13305
2.0398
1.95269
1.87428
1.80333
1.73692
1.67363
1.61055
1.55397
1.49942
1.46236
1.4353
1.41847
1.40691
1.38718
1.37181
1.36252
1.36258
1.36049
1.35484
1.35152
1.34974
1.34595
1.34394
1.34326
1.34298
1.34366
1.34246
0.520331
0.519862
0.519364
0.518845
0.518301
0.517738
0.517157
0.51655
0.515914
0.515254
0.514574
0.513877
0.513166
0.512433
0.511689
0.510929
0.510148
0.509405
0.508531
0.50744
0.506267
0.505171
0.503514
0.580454
0.890075
1.32603
1.71345
1.99177
2.21881
2.38868
2.50499
2.56553
2.58978
2.6023
2.60804
2.61603
2.61736
2.61856
2.62271
2.62858
2.63442
2.63954
2.64381
2.64807
2.65301
2.65805
2.66359
2.66893
2.67349
2.67704
2.67913
2.68113
2.68296
2.685
2.6874
2.68806
2.68877
2.68935
2.69072
2.69293
2.69471
2.69037
2.68216
2.66974
2.66347
2.66479
2.66623
2.6529
2.61966
2.57177
2.52676
2.487
2.43933
2.37067
2.2889
2.20523
2.12532
2.04933
1.97141
1.88815
1.80284
1.72215
1.6547
1.59674
1.54632
1.49591
1.46327
1.43991
1.4206
1.40268
1.38333
1.37526
1.37237
1.36731
1.35914
1.3533
1.34944
1.34744
1.34662
1.34646
0.514691
0.514244
0.513765
0.51327
0.512758
0.512235
0.511691
0.511117
0.510508
0.509884
0.509241
0.50861
0.507954
0.507298
0.506614
0.50591
0.505178
0.504462
0.503699
0.502938
0.502133
0.501281
0.500458
0.499372
0.498241
0.497263
0.495944
0.566185
0.858258
1.31078
1.72046
2.01552
2.23946
2.3972
2.5002
2.54659
2.56365
2.57157
2.57752
2.58087
2.58379
2.58923
2.59397
2.60085
2.60701
2.61304
2.61891
2.6248
2.63082
2.63777
2.6449
2.65213
2.65846
2.66376
2.66786
2.67079
2.67356
2.67674
2.68137
2.68804
2.69419
2.69693
2.69603
2.69339
2.68742
2.68161
2.68199
2.69079
2.69293
2.67764
2.64387
2.60766
2.58328
2.56762
2.5428
2.49728
2.43489
2.36243
2.28824
2.20772
2.12153
2.02812
1.93516
1.85079
1.77295
1.70354
1.64446
1.59109
1.5378
1.48822
1.45597
1.43522
1.41562
1.3977
1.38561
1.37743
1.36825
1.3623
1.35589
1.35065
0.509353
0.508932
0.508479
0.508013
0.507544
0.507063
0.506565
0.506024
0.505463
0.504883
0.504304
0.50374
0.503174
0.502591
0.501997
0.501377
0.50075
0.500112
0.499467
0.498824
0.498132
0.497415
0.496666
0.495923
0.495172
0.494448
0.49378
0.492926
0.492058
0.491297
0.49015
0.599451
0.964237
1.44081
1.8263
2.11532
2.32694
2.44709
2.50778
2.52856
2.53919
2.54834
2.54929
2.55136
2.55704
2.56261
2.57029
2.57755
2.5842
2.59103
2.59799
2.60581
2.6139
2.62159
2.62963
2.63728
2.64439
2.65046
2.65686
2.66425
2.67472
2.68401
2.68987
2.69038
2.68743
2.68406
2.68408
2.6874
2.69215
2.69745
2.69583
2.68033
2.6576
2.64281
2.63833
2.63694
2.62323
2.58541
2.52744
2.45908
2.38813
2.31786
2.24805
2.17246
2.0913
2.0033
1.91493
1.83086
1.75016
1.67758
1.61331
1.55655
1.50911
1.47581
1.4478
1.42562
1.40784
1.39702
1.38214
1.36506
0.504227
0.503843
0.503435
0.503027
0.502618
0.50219
0.501737
0.50125
0.500744
0.500235
0.49974
0.499271
0.498805
0.498329
0.497838
0.497322
0.496799
0.496253
0.495706
0.495167
0.494601
0.493989
0.493364
0.492732
0.492085
0.491459
0.490796
0.490148
0.489478
0.488802
0.488157
0.487162
0.486136
0.484578
0.503741
0.74907
1.25269
1.70249
2.04512
2.30253
2.42974
2.48722
2.50356
2.51211
2.51916
2.52113
2.5256
2.53195
2.53842
2.54565
2.55239
2.55944
2.56669
2.57463
2.58411
2.59348
2.60246
2.60974
2.61634
2.62429
2.63737
2.65355
2.66743
2.67518
2.67815
2.67848
2.67897
2.68142
2.6874
2.69679
2.70169
2.70072
2.6943
2.68337
2.67254
2.66788
2.66983
2.67137
2.65947
2.62851
2.58111
2.52551
2.47281
2.42223
2.36599
2.30037
2.22529
2.14157
2.04874
1.95049
1.85401
1.76985
1.70135
1.6429
1.5858
1.5335
1.48863
1.45595
1.43345
1.40368
0.499608
0.499241
0.498861
0.498494
0.498131
0.497751
0.497356
0.496948
0.496535
0.496121
0.495724
0.495357
0.494986
0.494607
0.494227
0.493827
0.493396
0.492925
0.49246
0.492014
0.49153
0.490998
0.49044
0.489845
0.489241
0.488642
0.488023
0.487366
0.48665
0.485905
0.485112
0.484262
0.483355
0.482465
0.481277
0.479991
0.478933
0.477679
0.665561
1.19547
1.68425
2.05668
2.30692
2.42583
2.4668
2.4811
2.49084
2.49686
2.49922
2.50506
2.5105
2.51766
2.52468
2.53188
2.54001
2.54813
2.55824
2.56742
2.57579
2.5833
2.59229
2.60468
2.62031
2.63652
2.6491
2.65672
2.66006
2.66407
2.67093
2.68073
2.69174
2.69839
2.69883
2.69596
2.69148
2.68616
2.68042
2.67653
2.67924
2.68045
2.67258
2.65263
2.62279
2.58683
2.54234
2.49674
2.44861
2.39268
2.32089
2.23533
2.14323
2.05449
1.9697
1.88866
1.80896
1.7313
1.657
1.5912
1.54027
1.48283
0.495236
0.494936
0.494631
0.494329
0.494032
0.493729
0.493416
0.493126
0.492849
0.492565
0.49229
0.492027
0.491726
0.491392
0.491068
0.490733
0.490345
0.489906
0.489491
0.489074
0.488593
0.488096
0.48754
0.486921
0.486275
0.485646
0.485
0.484297
0.483563
0.482759
0.481917
0.481027
0.480158
0.479247
0.478253
0.477331
0.476534
0.475962
0.475398
0.474946
0.474151
0.690178
1.24464
1.73311
2.09272
2.31678
2.42114
2.45201
2.464
2.47314
2.47689
2.48013
2.48678
2.49464
2.50257
2.51002
2.519
2.52744
2.53732
2.54561
2.55286
2.5604
2.57076
2.58584
2.60285
2.61736
2.62775
2.63314
2.63968
2.6487
2.66097
2.67463
2.68527
2.68985
2.6885
2.68495
2.68228
2.68061
2.67845
2.67623
2.67932
2.68454
2.68242
2.6709
2.64969
2.62278
2.59205
2.55241
2.50367
2.44744
2.38434
2.31746
2.24704
2.17022
2.08215
1.98813
1.89748
1.81504
1.74064
1.63654
0.491581
0.49137
0.491157
0.490925
0.490706
0.490488
0.490241
0.490012
0.489809
0.48959
0.489386
0.489178
0.488891
0.488546
0.488215
0.487864
0.487468
0.487034
0.486616
0.486156
0.485637
0.485146
0.484608
0.483914
0.483183
0.482509
0.48184
0.481157
0.480502
0.479763
0.478993
0.47823
0.477486
0.476775
0.47606
0.475383
0.474727
0.474245
0.473834
0.473453
0.472987
0.4721
0.470489
0.475529
0.776938
1.36216
1.83134
2.16841
2.34424
2.41839
2.43774
2.44885
2.4555
2.45964
2.466
2.47301
2.48187
2.48986
2.50124
2.5108
2.51882
2.52488
2.53114
2.53998
2.55292
2.57013
2.5855
2.59654
2.60408
2.61168
2.62097
2.63534
2.65268
2.6665
2.67477
2.67888
2.6785
2.67641
2.67428
2.67419
2.67387
2.67523
2.67632
2.67791
2.67871
2.67391
2.66193
2.64377
2.61941
2.59164
2.55961
2.52292
2.47973
2.42301
2.34716
2.26125
2.17382
2.08703
2.00634
1.87235
0.488728
0.48856
0.488377
0.48817
0.487974
0.487772
0.487543
0.487314
0.487076
0.486821
0.48659
0.486337
0.486013
0.48564
0.485261
0.484855
0.484428
0.483988
0.483525
0.483022
0.482473
0.481959
0.481434
0.4808
0.480109
0.479449
0.4789
0.478403
0.47791
0.477401
0.47689
0.476361
0.475795
0.475213
0.474662
0.474082
0.473496
0.472884
0.472268
0.471625
0.470774
0.469714
0.468624
0.467429
0.466291
0.464772
0.518206
0.967622
1.54666
1.97278
2.24359
2.36751
2.40791
2.42188
2.43006
2.43703
2.44217
2.44874
2.46345
2.47463
2.48488
2.49169
2.49759
2.5036
2.51082
2.52504
2.53967
2.55275
2.56449
2.57266
2.57873
2.58896
2.60409
2.62168
2.63959
2.65338
2.66076
2.66381
2.66627
2.66791
2.66864
2.66942
2.66897
2.66723
2.66789
2.66709
2.66429
2.66145
2.65527
2.64403
2.63119
2.61481
2.58982
2.55505
2.51102
2.45802
2.3989
2.33142
2.26091
2.13115
0.486014
0.485817
0.485608
0.485396
0.485182
0.484954
0.484708
0.484441
0.484143
0.483822
0.48349
0.483157
0.482807
0.482443
0.482055
0.48165
0.481213
0.480775
0.480323
0.479846
0.479343
0.478889
0.478447
0.47797
0.477523
0.477098
0.476764
0.476528
0.476257
0.475907
0.475502
0.475065
0.474588
0.474084
0.473497
0.472821
0.472059
0.471193
0.470321
0.469345
0.468186
0.466945
0.465758
0.464803
0.46405
0.463486
0.462829
0.462272
0.461329
0.657967
1.23588
1.73893
2.08314
2.27248
2.35869
2.38386
2.40203
2.40916
2.42066
2.43126
2.44427
2.45297
2.4629
2.4694
2.47438
2.48617
2.49607
2.50688
2.52185
2.53244
2.54
2.54937
2.55911
2.57037
2.5873
2.60514
2.62014
2.63251
2.64222
2.64743
2.65033
2.65357
2.65639
2.65693
2.65862
2.65891
2.65645
2.65283
2.64824
2.64072
2.63539
2.62894
2.61864
2.60103
2.57749
2.55045
2.52081
2.48567
2.44135
2.35819
0.482972
0.482762
0.482536
0.482297
0.482052
0.481775
0.481477
0.481164
0.480821
0.480475
0.48012
0.479754
0.479412
0.479101
0.478806
0.478485
0.478125
0.477755
0.477424
0.477096
0.476771
0.476488
0.476191
0.47594
0.4758
0.475625
0.475433
0.475347
0.47514
0.474753
0.47424
0.473664
0.473075
0.472431
0.47169
0.470865
0.469923
0.46881
0.467628
0.466523
0.46533
0.464148
0.463292
0.462894
0.462735
0.462485
0.462005
0.461565
0.460802
0.459813
0.458327
0.488992
0.894345
1.46837
1.89471
2.15333
2.29639
2.34789
2.37098
2.38485
2.39839
2.40247
2.41668
2.42513
2.43323
2.44958
2.4549
2.46172
2.47779
2.48737
2.49709
2.51082
2.52088
2.52617
2.53748
2.55184
2.56555
2.58228
2.59937
2.61165
2.61896
2.62449
2.62851
2.63163
2.63598
2.64253
2.64537
2.64578
2.64383
2.64027
2.63499
2.63343
2.63066
2.62409
2.61487
2.60494
2.591
2.57139
2.54589
2.50114
0.479815
0.479592
0.479354
0.479113
0.478889
0.478605
0.478289
0.478004
0.477707
0.477392
0.477098
0.47683
0.476601
0.476408
0.476199
0.475972
0.475749
0.475543
0.475339
0.475105
0.474909
0.47477
0.47459
0.474408
0.474256
0.474084
0.473903
0.473704
0.473373
0.472834
0.472155
0.471415
0.470631
0.469823
0.469012
0.468155
0.467279
0.46622
0.465079
0.464201
0.463405
0.462648
0.462451
0.462454
0.462405
0.462143
0.461783
0.461088
0.460012
0.458664
0.457466
0.455994
0.454103
0.451521
0.638917
1.19003
1.70305
2.04243
2.21315
2.30228
2.349
2.35016
2.36891
2.3664
2.37624
2.40145
2.40569
2.41386
2.43491
2.43688
2.44383
2.46294
2.47421
2.47975
2.49147
2.50242
2.50957
2.52329
2.54205
2.55661
2.56864
2.58031
2.58822
2.59361
2.59978
2.60786
2.61472
2.62189
2.62713
2.62908
2.6293
2.62788
2.62719
2.62658
2.62405
2.61407
2.60127
2.58748
2.57259
2.54803
0.47691
0.476793
0.476671
0.476529
0.476377
0.476222
0.476046
0.475845
0.475635
0.475421
0.47522
0.475024
0.474807
0.474567
0.474305
0.474076
0.473912
0.473764
0.473596
0.473395
0.473168
0.472901
0.472632
0.472344
0.471988
0.471607
0.471209
0.470753
0.470189
0.46951
0.468805
0.468132
0.467469
0.466838
0.466286
0.465716
0.465076
0.464352
0.463641
0.463159
0.462728
0.462489
0.462476
0.462431
0.462226
0.461907
0.461183
0.459988
0.45847
0.45669
0.454999
0.453334
0.451548
0.449879
0.449031
0.448194
0.492327
0.931793
1.468
1.87748
2.11861
2.2273
2.30177
2.29984
2.31227
2.33645
2.3332
2.34673
2.37786
2.37441
2.38126
2.40387
2.41
2.41651
2.43388
2.4467
2.45052
2.46164
2.47764
2.48727
2.49943
2.51558
2.52654
2.53435
2.54448
2.55601
2.56631
2.57689
2.58623
2.59354
2.60005
2.60459
2.60725
2.61056
2.61186
2.60841
2.59843
2.58295
2.56711
2.55642
0.475413
0.475295
0.475184
0.475094
0.474996
0.474886
0.474749
0.474575
0.474405
0.47423
0.474013
0.473725
0.473376
0.472974
0.472525
0.472109
0.471817
0.471586
0.471352
0.471078
0.470693
0.47025
0.469771
0.469367
0.468928
0.468392
0.467818
0.467274
0.466778
0.466272
0.465793
0.46545
0.465203
0.464971
0.464743
0.464457
0.464078
0.46359
0.463238
0.463028
0.462784
0.462616
0.462451
0.462039
0.461286
0.460209
0.458677
0.457004
0.455288
0.45366
0.452245
0.451059
0.450115
0.449184
0.448404
0.4486
0.449679
0.450179
0.450086
0.689027
1.23475
1.67482
1.95331
2.0945
2.18414
2.24798
2.24094
2.26414
2.28706
2.27975
2.29205
2.32115
2.32407
2.33298
2.35629
2.36666
2.37132
2.38564
2.40344
2.4083
2.41819
2.43364
2.44201
2.45051
2.46376
2.47766
2.49013
2.50484
2.51804
2.52765
2.53717
2.54799
2.55774
2.5642
2.56661
2.5682
2.57012
2.56717
2.56
2.55359
0.474135
0.47406
0.473982
0.473883
0.473742
0.473548
0.473306
0.473018
0.472734
0.472472
0.4721
0.471687
0.471216
0.470692
0.470204
0.469744
0.469313
0.468926
0.468598
0.468363
0.467996
0.467554
0.467127
0.4668
0.466557
0.466149
0.465671
0.465329
0.465101
0.464842
0.464587
0.464556
0.464599
0.464575
0.464387
0.464118
0.463789
0.463443
0.463171
0.462885
0.462449
0.461805
0.460864
0.459554
0.458006
0.456595
0.454911
0.453129
0.452052
0.451319
0.450742
0.450089
0.450346
0.451383
0.453158
0.454818
0.455762
0.455577
0.455378
0.455135
0.45451
0.530647
0.931972
1.40445
1.71609
1.91476
2.03703
2.11925
2.17278
2.16315
2.17783
2.1962
2.19954
2.21356
2.24457
2.25625
2.26483
2.28346
2.30275
2.30468
2.31491
2.3331
2.34077
2.34827
2.35953
2.37126
2.38244
2.39985
2.41772
2.42925
2.43842
2.44797
2.45893
2.47141
2.48538
2.4955
2.50449
2.51252
2.51757
2.52402
0.473233
0.472941
0.472633
0.472332
0.471999
0.471568
0.47104
0.470604
0.470222
0.469699
0.469149
0.46868
0.468355
0.468062
0.467715
0.467394
0.467145
0.466943
0.466707
0.466513
0.4664
0.466268
0.466077
0.46589
0.465789
0.465693
0.465551
0.465348
0.465061
0.46474
0.464426
0.464318
0.464316
0.464086
0.463528
0.462886
0.462264
0.461691
0.461066
0.460417
0.459603
0.458587
0.457521
0.456213
0.455149
0.454255
0.452917
0.451427
0.451381
0.452037
0.453455
0.455631
0.457518
0.459254
0.460701
0.461211
0.461172
0.460572
0.459897
0.45898
0.459447
0.460525
0.461566
0.462095
0.662999
1.08255
1.46491
1.6859
1.83409
1.94676
2.02037
2.05765
2.06745
2.07984
2.09371
2.10064
2.1166
2.14303
2.16468
2.17351
2.18786
2.20513
2.21072
2.21886
2.23181
2.2439
2.2547
2.27033
2.28632
2.29684
2.3079
2.31952
2.33187
2.34639
2.36332
2.38046
2.39583
2.41061
2.4251
2.44656
0.4676
0.46727
0.466994
0.466755
0.466556
0.466389
0.466236
0.466103
0.465987
0.46585
0.465819
0.465859
0.465972
0.466111
0.466193
0.466246
0.466315
0.466323
0.466275
0.466244
0.466216
0.466175
0.466101
0.466015
0.465958
0.465832
0.465589
0.465217
0.464724
0.464243
0.463667
0.463081
0.462445
0.461566
0.460607
0.45968
0.459078
0.458732
0.458482
0.458045
0.457332
0.456514
0.455889
0.455158
0.455229
0.455839
0.457432
0.459484
0.461793
0.463435
0.464864
0.465512
0.465408
0.465093
0.464622
0.464271
0.463802
0.464062
0.464444
0.465371
0.467099
0.468363
0.469791
0.470502
0.470908
0.470777
0.510637
0.764963
1.12707
1.44919
1.63047
1.7487
1.84724
1.91587
1.94486
1.95171
1.96443
1.97467
1.9837
2.00054
2.02607
2.04723
2.05986
2.071
2.08152
2.08893
2.0992
2.11595
2.13424
2.14739
2.15893
2.16928
2.1795
2.19254
2.2099
2.23007
2.2502
2.26881
2.28356
2.30944
0.464737
0.464883
0.464956
0.46507
0.46525
0.465382
0.465418
0.465416
0.465461
0.465568
0.465681
0.465759
0.465894
0.466038
0.46601
0.465903
0.465806
0.465701
0.46555
0.465489
0.465397
0.465147
0.464737
0.464309
0.463942
0.463624
0.463264
0.462892
0.462552
0.462142
0.461514
0.46078
0.460106
0.459152
0.458364
0.458063
0.458137
0.458379
0.458738
0.459265
0.459996
0.461215
0.462663
0.464471
0.466269
0.468144
0.469369
0.470237
0.470915
0.470952
0.470816
0.470272
0.469575
0.468269
0.467783
0.467952
0.468771
0.47036
0.47223
0.474059
0.475073
0.476045
0.476582
0.476585
0.476133
0.475774
0.475883
0.476434
0.476743
0.555273
0.823975
1.14544
1.39244
1.55426
1.65554
1.73869
1.80401
1.82745
1.83258
1.83814
1.84955
1.86009
1.8801
1.89955
1.91459
1.92292
1.93383
1.94815
1.96324
1.97714
1.99024
2.0021
2.01356
2.02612
2.04049
2.0559
2.07193
2.08854
2.10597
2.1377
0.466097
0.466064
0.466043
0.46601
0.465945
0.465844
0.465743
0.465633
0.465508
0.465375
0.465232
0.46507
0.464907
0.464732
0.464559
0.464396
0.464229
0.464037
0.463841
0.463669
0.4634
0.463124
0.462884
0.462743
0.462632
0.462515
0.462536
0.462618
0.46274
0.463027
0.463573
0.464427
0.465572
0.466974
0.468458
0.469884
0.471213
0.472286
0.473265
0.473949
0.474573
0.475028
0.475346
0.47549
0.475438
0.475298
0.474991
0.474804
0.474467
0.474174
0.473767
0.473693
0.473812
0.474369
0.475469
0.476964
0.478773
0.480037
0.480914
0.481118
0.480932
0.480596
0.480592
0.480762
0.481102
0.481592
0.482428
0.483292
0.484969
0.487768
0.487548
0.486223
0.584219
0.85482
1.1252
1.34391
1.47916
1.56284
1.6409
1.68037
1.71407
1.71436
1.72328
1.72954
1.73507
1.74511
1.76183
1.77933
1.79607
1.81022
1.82002
1.82738
1.83611
1.84781
1.86199
1.87725
1.89097
1.90554
1.91975
1.94782
0.46983
0.469871
0.469938
0.470039
0.470175
0.47032
0.470457
0.470596
0.470751
0.470929
0.471116
0.471306
0.471533
0.471758
0.471995
0.472258
0.47257
0.472893
0.473216
0.473558
0.473929
0.474284
0.474683
0.475107
0.47554
0.475954
0.476404
0.47679
0.47719
0.477622
0.478076
0.478525
0.478989
0.479454
0.479755
0.480097
0.480423
0.480512
0.480461
0.480334
0.480141
0.47984
0.479499
0.479061
0.478779
0.478498
0.478639
0.478822
0.479185
0.479802
0.480804
0.481987
0.483195
0.484468
0.485591
0.486651
0.487272
0.487226
0.486899
0.486551
0.485983
0.485534
0.485575
0.486276
0.487763
0.489679
0.490861
0.491754
0.492837
0.492279
0.492195
0.493037
0.494128
0.495653
0.495989
0.617688
0.863793
1.10323
1.29614
1.41487
1.4804
1.53492
1.58831
1.60932
1.60782
1.60588
1.61144
1.61829
1.63391
1.65195
1.66553
1.67225
1.67823
1.68565
1.696
1.70906
1.72166
1.73498
1.74806
1.77194
0.481185
0.481312
0.481435
0.481574
0.481717
0.481882
0.482051
0.482189
0.482312
0.48245
0.482595
0.482737
0.482866
0.483002
0.483128
0.483249
0.483368
0.483486
0.483597
0.483693
0.483775
0.483864
0.48392
0.483963
0.484013
0.484011
0.483978
0.483914
0.483856
0.483789
0.483808
0.483856
0.483953
0.484097
0.484266
0.48426
0.484169
0.484097
0.484105
0.484212
0.484412
0.484856
0.485414
0.486181
0.48704
0.488077
0.489101
0.490043
0.491063
0.491926
0.492527
0.492756
0.492625
0.492473
0.492302
0.492117
0.4918
0.491554
0.49139
0.491491
0.491996
0.492601
0.493433
0.494476
0.495921
0.497399
0.498045
0.498909
0.498828
0.499169
0.499999
0.501479
0.503078
0.503997
0.504849
0.505551
0.506386
0.515449
0.643466
0.895508
1.079
1.24484
1.35141
1.41212
1.46021
1.49039
1.51827
1.51464
1.51828
1.52266
1.52724
1.53351
1.54201
1.5528
1.56369
1.5727
1.57936
1.5876
1.59821
1.61806
0.489297
0.489337
0.489381
0.489426
0.489472
0.489512
0.489565
0.489629
0.489689
0.489754
0.489823
0.489898
0.48998
0.49006
0.49013
0.490197
0.490272
0.490353
0.490437
0.490525
0.49062
0.49072
0.49083
0.490969
0.491105
0.491267
0.491457
0.491681
0.491971
0.492328
0.492689
0.493032
0.493374
0.493679
0.493939
0.494223
0.49464
0.49509
0.495661
0.496208
0.496832
0.497264
0.497564
0.497732
0.497872
0.497917
0.497983
0.498199
0.498353
0.498292
0.498178
0.497915
0.49751
0.497117
0.496702
0.496739
0.497002
0.497648
0.49856
0.500024
0.501446
0.502687
0.503473
0.504145
0.504888
0.505191
0.505558
0.505736
0.506335
0.507238
0.508316
0.509359
0.510417
0.511304
0.512734
0.514332
0.516029
0.515766
0.516324
0.51713
0.530906
0.67275
0.886904
1.0843
1.22488
1.31246
1.36555
1.39704
1.43439
1.44915
1.44439
1.43904
1.44074
1.44586
1.45557
1.4671
1.47359
1.47974
1.48464
1.4961
0.499551
0.499584
0.499641
0.499718
0.499791
0.499851
0.499905
0.499971
0.500056
0.500152
0.500246
0.500338
0.500432
0.500534
0.500639
0.500745
0.50086
0.500988
0.501129
0.501281
0.501447
0.501611
0.501765
0.501891
0.501991
0.502085
0.50215
0.502222
0.502314
0.502363
0.502397
0.502409
0.502387
0.502391
0.502431
0.502566
0.502743
0.502967
0.503198
0.503348
0.503328
0.503297
0.503258
0.503237
0.503221
0.503156
0.503048
0.503047
0.503105
0.503287
0.503669
0.504297
0.505163
0.505941
0.506895
0.507708
0.508604
0.509372
0.51032
0.511183
0.51169
0.511666
0.511551
0.511565
0.511631
0.511993
0.512545
0.5133
0.514221
0.515549
0.516832
0.517773
0.518773
0.520222
0.521168
0.521899
0.522449
0.523159
0.524299
0.525797
0.525849
0.526416
0.526722
0.561331
0.709092
0.92757
1.08511
1.21722
1.29669
1.33257
1.36036
1.3792
1.38678
1.3834
1.38552
1.38863
1.39273
1.39829
1.40461
1.41372
0.508611
0.508652
0.508669
0.50867
0.508663
0.50866
0.508685
0.508768
0.508812
0.508818
0.50883
0.50886
0.508914
0.508978
0.509039
0.509075
0.509106
0.509151
0.509205
0.509228
0.50924
0.509241
0.509243
0.509242
0.509242
0.50925
0.509276
0.50931
0.509365
0.509434
0.509487
0.50956
0.509637
0.509727
0.509877
0.510098
0.510367
0.510657
0.51095
0.511267
0.511591
0.511983
0.5124
0.512974
0.513517
0.513958
0.514231
0.514636
0.515079
0.515611
0.51621
0.516877
0.51732
0.517742
0.517853
0.517885
0.517906
0.517909
0.518064
0.518344
0.518555
0.518428
0.51845
0.518609
0.519282
0.52033
0.521505
0.522586
0.523835
0.524898
0.525493
0.526037
0.526638
0.527264
0.527663
0.528114
0.528724
0.529636
0.530506
0.530852
0.531092
0.531324
0.531888
0.532349
0.532426
0.532356
0.578914
0.778247
0.974227
1.12376
1.23877
1.28784
1.31719
1.32902
1.34951
1.3492
1.34613
1.34734
1.34978
1.35675
0.518984
0.51899
0.519014
0.519075
0.519158
0.519154
0.519117
0.519123
0.51917
0.519226
0.51924
0.51925
0.519266
0.519297
0.519366
0.519447
0.519524
0.519612
0.519715
0.519841
0.519999
0.52016
0.520324
0.520487
0.520647
0.520823
0.520981
0.521112
0.521256
0.521366
0.521445
0.521527
0.521595
0.521637
0.521766
0.52199
0.522249
0.522482
0.522776
0.523062
0.523299
0.523444
0.523631
0.523893
0.524058
0.524014
0.523932
0.523878
0.5239
0.52401
0.524124
0.524347
0.524617
0.524688
0.524593
0.524421
0.5244
0.524581
0.525085
0.526168
0.527192
0.527781
0.528146
0.528656
0.529369
0.530252
0.530707
0.531051
0.531478
0.531841
0.532116
0.53222
0.532349
0.532636
0.533231
0.53365
0.533886
0.53404
0.53402
0.534102
0.534163
0.534443
0.535011
0.535199
0.535284
0.535596
0.535672
0.535727
0.536495
0.65704
0.862512
1.03535
1.17302
1.25087
1.29282
1.30402
1.31621
1.32778
1.32566
1.32536
0.530119
0.530126
0.530128
0.530131
0.530118
0.53006
0.530023
0.530035
0.530057
0.53006
0.530049
0.53004
0.530039
0.530049
0.530098
0.530138
0.530152
0.530201
0.530261
0.530317
0.530385
0.530454
0.530463
0.530459
0.530468
0.530517
0.530548
0.530564
0.530627
0.530738
0.530839
0.530968
0.531027
0.531024
0.531047
0.531166
0.531272
0.531379
0.531518
0.5317
0.531826
0.531893
0.531924
0.532036
0.532173
0.532215
0.532285
0.532375
0.532486
0.532642
0.53294
0.533388
0.533968
0.534375
0.53465
0.534819
0.534857
0.53498
0.535452
0.536423
0.536869
0.536799
0.536598
0.536415
0.536511
0.536498
0.536423
0.536367
0.536439
0.536729
0.536973
0.53699
0.536995
0.537073
0.537215
0.537204
0.537088
0.536796
0.536813
0.536841
0.536909
0.536932
0.536961
0.537029
0.537116
0.53716
0.537102
0.537163
0.537354
0.537488
0.537413
0.573197
0.730684
0.962352
1.13312
1.22071
1.27526
1.29132
1.30019
1.30918
0.541054
0.541101
0.541163
0.541238
0.541285
0.541326
0.541356
0.541365
0.5414
0.541459
0.541458
0.541444
0.54141
0.54137
0.541384
0.541377
0.541342
0.541353