/*--------------------------------*- C++ -*----------------------------------*\
  =========                 |
  \\      /  F ield         | OpenFOAM: The Open Source CFD Toolbox
   \\    /   O peration     | Website:  https://openfoam.org
    \\  /    A nd           | Version:  7
     \\/     M anipulation  |
\*---------------------------------------------------------------------------*/
FoamFile
{
    version     2.0;
    format      ascii;
    class       volVectorField;
    location    "14.5";
    object      U;
}
// * * * * * * * * * * * * * * * * * * * * * * * * * * * * * * * * * * * * * //

dimensions      [0 1 -1 0 0 0 0];

internalField   nonuniform List<vector> 
90000
(
(0.917669 -0.348335 0)
(1.02172 -0.202467 0)
(1.11781 -0.092708 0)
(1.15812 0.02045 0)
(1.22904 0.121324 0)
(1.32267 0.202014 0)
(1.4092 0.270797 0)
(1.49913 0.331699 0)
(1.59391 0.387966 0)
(1.69119 0.418316 0)
(1.7795 0.451238 0)
(1.86639 0.472386 0)
(1.94705 0.490103 0)
(2.02424 0.496923 0)
(2.09322 0.50713 0)
(2.15957 0.51121 0)
(2.21933 0.507233 0)
(2.27229 0.503662 0)
(2.32039 0.503516 0)
(2.36434 0.492813 0)
(2.406 0.486273 0)
(2.44379 0.474705 0)
(2.4786 0.469387 0)
(2.51067 0.457905 0)
(2.54029 0.452338 0)
(2.56862 0.442364 0)
(2.59537 0.437721 0)
(2.62035 0.428956 0)
(2.64339 0.423571 0)
(2.66473 0.414888 0)
(2.68507 0.40802 0)
(2.70327 0.396705 0)
(2.71929 0.388813 0)
(2.73196 0.377383 0)
(2.74084 0.371755 0)
(2.74894 0.366134 0)
(2.75665 0.365879 0)
(2.76304 0.368535 0)
(2.76814 0.372629 0)
(2.77209 0.377726 0)
(2.77534 0.381784 0)
(2.77694 0.387293 0)
(2.77797 0.393217 0)
(2.77688 0.402146 0)
(2.7763 0.409924 0)
(2.77667 0.419402 0)
(2.77574 0.426951 0)
(2.77525 0.433545 0)
(2.77611 0.441445 0)
(2.77465 0.444225 0)
(2.7782 0.450405 0)
(2.77871 0.45155 0)
(2.77877 0.454913 0)
(2.77588 0.448504 0)
(2.77424 0.441395 0)
(2.77331 0.433732 0)
(2.77297 0.425664 0)
(2.77406 0.418122 0)
(2.77413 0.411513 0)
(2.77581 0.409386 0)
(2.77621 0.409755 0)
(2.77711 0.410963 0)
(2.77898 0.413965 0)
(2.78123 0.420475 0)
(2.77937 0.419716 0)
(2.77832 0.418329 0)
(2.77633 0.412628 0)
(2.77411 0.402324 0)
(2.77119 0.388637 0)
(2.7699 0.3806 0)
(2.76903 0.379021 0)
(2.77029 0.377291 0)
(2.77058 0.376644 0)
(2.7701 0.373905 0)
(2.76838 0.368709 0)
(2.76415 0.357704 0)
(2.76045 0.346815 0)
(2.75786 0.338294 0)
(2.75661 0.335365 0)
(2.75627 0.328455 0)
(2.756 0.322473 0)
(2.75426 0.311449 0)
(2.75221 0.300857 0)
(2.74967 0.299273 0)
(2.74711 0.2954 0)
(2.74617 0.288851 0)
(2.74418 0.279682 0)
(2.74423 0.272496 0)
(2.74571 0.271534 0)
(2.74539 0.264718 0)
(2.74406 0.261867 0)
(2.74107 0.254352 0)
(2.74053 0.247125 0)
(2.74135 0.243967 0)
(2.74272 0.237121 0)
(2.74437 0.2338 0)
(2.74477 0.232029 0)
(2.74322 0.226049 0)
(2.74243 0.221958 0)
(2.74369 0.215141 0)
(0.447408 -0.493809 0)
(0.433837 -0.477575 0)
(0.422822 -0.453304 0)
(0.412541 -0.414206 0)
(0.407266 -0.354576 0)
(0.415187 -0.275541 0)
(0.439897 -0.183846 0)
(0.480578 -0.0885388 0)
(0.53944 0.000757998 0)
(0.612461 0.0794622 0)
(0.699014 0.1396 0)
(0.792041 0.189244 0)
(0.889696 0.223814 0)
(0.986966 0.252121 0)
(1.08427 0.271555 0)
(1.17936 0.286082 0)
(1.27052 0.296799 0)
(1.3586 0.304812 0)
(1.44256 0.314015 0)
(1.52418 0.320253 0)
(1.6014 0.33117 0)
(1.67554 0.337383 0)
(1.7458 0.348702 0)
(1.81389 0.355604 0)
(1.87987 0.366462 0)
(1.9451 0.374389 0)
(2.00846 0.384893 0)
(2.0705 0.392841 0)
(2.13098 0.402624 0)
(2.19096 0.409698 0)
(2.25017 0.418567 0)
(2.30829 0.424825 0)
(2.36388 0.433265 0)
(2.41597 0.440343 0)
(2.46681 0.448048 0)
(2.51224 0.453647 0)
(2.55159 0.461014 0)
(2.58642 0.467998 0)
(2.61694 0.477196 0)
(2.64377 0.485801 0)
(2.66716 0.494595 0)
(2.68694 0.500868 0)
(2.70327 0.506474 0)
(2.71549 0.508767 0)
(2.72405 0.511647 0)
(2.7306 0.510224 0)
(2.73502 0.508104 0)
(2.73729 0.500413 0)
(2.73961 0.492781 0)
(2.73945 0.478934 0)
(2.74068 0.464883 0)
(2.74189 0.449155 0)
(2.74749 0.436047 0)
(2.75217 0.424492 0)
(2.75408 0.412918 0)
(2.75512 0.404973 0)
(2.75573 0.401203 0)
(2.75816 0.40005 0)
(2.76096 0.402582 0)
(2.76619 0.404649 0)
(2.77207 0.40961 0)
(2.77738 0.415702 0)
(2.77926 0.422472 0)
(2.77879 0.422519 0)
(2.77705 0.418992 0)
(2.77513 0.409975 0)
(2.77274 0.398751 0)
(2.7711 0.39056 0)
(2.76872 0.384098 0)
(2.76949 0.379125 0)
(2.76895 0.377546 0)
(2.7698 0.37647 0)
(2.7699 0.374334 0)
(2.76896 0.368787 0)
(2.76659 0.360772 0)
(2.7627 0.347105 0)
(2.76009 0.339966 0)
(2.75702 0.333186 0)
(2.75558 0.331359 0)
(2.7549 0.323047 0)
(2.75351 0.314322 0)
(2.75244 0.305767 0)
(2.75113 0.295605 0)
(2.74884 0.296875 0)
(2.74652 0.290922 0)
(2.74474 0.285745 0)
(2.74213 0.275515 0)
(2.74305 0.270909 0)
(2.74443 0.268392 0)
(2.74386 0.262591 0)
(2.74213 0.259883 0)
(2.74038 0.251255 0)
(2.73898 0.24642 0)
(2.73947 0.2418 0)
(2.7407 0.234712 0)
(2.74266 0.232286 0)
(2.74256 0.230088 0)
(2.74137 0.225346 0)
(2.74045 0.22161 0)
(2.74173 0.215697 0)
(0.413118 -0.391076 0)
(0.400906 -0.377388 0)
(0.382916 -0.361817 0)
(0.368426 -0.338713 0)
(0.360484 -0.312042 0)
(0.355421 -0.286055 0)
(0.352079 -0.260861 0)
(0.35078 -0.233883 0)
(0.351784 -0.202001 0)
(0.355497 -0.162621 0)
(0.361844 -0.115082 0)
(0.376184 -0.0635693 0)
(0.403542 -0.0162848 0)
(0.437712 0.0277172 0)
(0.480504 0.0639251 0)
(0.527368 0.0964335 0)
(0.580471 0.119184 0)
(0.63712 0.137234 0)
(0.697584 0.146935 0)
(0.759482 0.153007 0)
(0.822592 0.155753 0)
(0.886418 0.155454 0)
(0.950795 0.157434 0)
(1.01612 0.159264 0)
(1.08226 0.165272 0)
(1.15019 0.172618 0)
(1.21926 0.183736 0)
(1.29021 0.199026 0)
(1.36282 0.220432 0)
(1.43785 0.244797 0)
(1.51609 0.271988 0)
(1.59813 0.297135 0)
(1.68278 0.320571 0)
(1.76941 0.339508 0)
(1.85741 0.355211 0)
(1.94326 0.363912 0)
(2.02553 0.368564 0)
(2.10358 0.366764 0)
(2.17786 0.363001 0)
(2.24757 0.358224 0)
(2.31301 0.354844 0)
(2.37379 0.352381 0)
(2.42966 0.351429 0)
(2.48041 0.349469 0)
(2.52595 0.350358 0)
(2.56649 0.351183 0)
(2.60215 0.354983 0)
(2.63268 0.355932 0)
(2.65858 0.358157 0)
(2.67951 0.357164 0)
(2.69512 0.356318 0)
(2.70542 0.352825 0)
(2.71288 0.353473 0)
(2.72217 0.358087 0)
(2.73185 0.364706 0)
(2.73988 0.373563 0)
(2.74486 0.384987 0)
(2.75167 0.396424 0)
(2.75452 0.408279 0)
(2.75769 0.418462 0)
(2.76146 0.426717 0)
(2.76909 0.433188 0)
(2.76682 0.425397 0)
(2.76529 0.414623 0)
(2.76493 0.403553 0)
(2.76572 0.394624 0)
(2.76448 0.383663 0)
(2.7646 0.380024 0)
(2.76434 0.378379 0)
(2.76533 0.378444 0)
(2.7673 0.377121 0)
(2.76741 0.374561 0)
(2.76637 0.367434 0)
(2.7646 0.356065 0)
(2.76217 0.34411 0)
(2.76125 0.340916 0)
(2.75862 0.334496 0)
(2.75721 0.332053 0)
(2.75512 0.326518 0)
(2.75391 0.318465 0)
(2.75067 0.303536 0)
(2.75095 0.299433 0)
(2.7511 0.295217 0)
(2.74956 0.295004 0)
(2.74603 0.28746 0)
(2.74233 0.281369 0)
(2.74111 0.27293 0)
(2.74262 0.269229 0)
(2.74295 0.265247 0)
(2.74184 0.260192 0)
(2.74044 0.257031 0)
(2.73874 0.249035 0)
(2.73766 0.24545 0)
(2.73741 0.239352 0)
(2.73932 0.232178 0)
(2.74066 0.231043 0)
(2.74041 0.227585 0)
(2.73965 0.223462 0)
(2.73822 0.219446 0)
(2.73944 0.214572 0)
(0.473219 -0.334626 0)
(0.469926 -0.295406 0)
(0.441166 -0.276745 0)
(0.430961 -0.260423 0)
(0.423176 -0.251966 0)
(0.416177 -0.243 0)
(0.409337 -0.231954 0)
(0.402568 -0.219658 0)
(0.397931 -0.206658 0)
(0.397552 -0.192409 0)
(0.402825 -0.177523 0)
(0.409742 -0.162021 0)
(0.416109 -0.14357 0)
(0.4233 -0.123305 0)
(0.431775 -0.10258 0)
(0.441569 -0.0818409 0)
(0.452884 -0.0609431 0)
(0.465082 -0.0380008 0)
(0.479973 -0.0139347 0)
(0.497602 0.0107215 0)
(0.519189 0.0334039 0)
(0.543979 0.0536445 0)
(0.571399 0.0719463 0)
(0.6008 0.0885324 0)
(0.632344 0.103354 0)
(0.666356 0.116606 0)
(0.703912 0.127258 0)
(0.745739 0.131031 0)
(0.790524 0.133063 0)
(0.838827 0.132888 0)
(0.89182 0.134981 0)
(0.949893 0.140153 0)
(1.01384 0.14972 0)
(1.08437 0.161296 0)
(1.16058 0.17665 0)
(1.24157 0.192355 0)
(1.32419 0.216021 0)
(1.40951 0.240875 0)
(1.49775 0.266642 0)
(1.58798 0.286603 0)
(1.67903 0.306433 0)
(1.77136 0.320943 0)
(1.86164 0.337399 0)
(1.95094 0.349988 0)
(2.04022 0.358554 0)
(2.12667 0.366751 0)
(2.20951 0.375102 0)
(2.28701 0.387005 0)
(2.35874 0.399521 0)
(2.42445 0.411888 0)
(2.48323 0.424793 0)
(2.53315 0.437568 0)
(2.57363 0.447872 0)
(2.60623 0.456623 0)
(2.63478 0.464219 0)
(2.65877 0.464164 0)
(2.67868 0.463847 0)
(2.69453 0.459762 0)
(2.70617 0.451978 0)
(2.71455 0.440674 0)
(2.72238 0.428561 0)
(2.73164 0.409812 0)
(2.74249 0.391251 0)
(2.74601 0.380597 0)
(2.74662 0.372653 0)
(2.74797 0.371146 0)
(2.74882 0.368316 0)
(2.75686 0.371453 0)
(2.75908 0.37361 0)
(2.76275 0.377879 0)
(2.76193 0.375653 0)
(2.75931 0.367078 0)
(2.7577 0.356337 0)
(2.75797 0.347632 0)
(2.75759 0.339439 0)
(2.75677 0.335737 0)
(2.75554 0.33185 0)
(2.75454 0.328938 0)
(2.75224 0.320142 0)
(2.74832 0.305626 0)
(2.74906 0.29858 0)
(2.75158 0.294638 0)
(2.75162 0.294593 0)
(2.74919 0.293087 0)
(2.74467 0.283686 0)
(2.74035 0.27764 0)
(2.74056 0.270732 0)
(2.74178 0.267595 0)
(2.74194 0.261607 0)
(2.74088 0.258091 0)
(2.73885 0.254102 0)
(2.73689 0.24828 0)
(2.73601 0.244476 0)
(2.7355 0.236435 0)
(2.73703 0.230893 0)
(2.73894 0.229581 0)
(2.73842 0.225302 0)
(2.73717 0.2216 0)
(2.73596 0.216898 0)
(2.73776 0.212218 0)
(0.631313 -0.347661 0)
(0.592687 -0.215392 0)
(0.549145 -0.224808 0)
(0.548692 -0.254286 0)
(0.567526 -0.257804 0)
(0.569938 -0.244576 0)
(0.560486 -0.22149 0)
(0.542797 -0.197612 0)
(0.52842 -0.184445 0)
(0.520314 -0.175951 0)
(0.519026 -0.166733 0)
(0.513119 -0.158796 0)
(0.507401 -0.150696 0)
(0.503001 -0.142018 0)
(0.499897 -0.131856 0)
(0.500882 -0.11928 0)
(0.502394 -0.104337 0)
(0.507194 -0.0891183 0)
(0.512783 -0.0745795 0)
(0.519645 -0.0611712 0)
(0.527094 -0.047866 0)
(0.534807 -0.034758 0)
(0.542964 -0.0226788 0)
(0.552583 -0.011783 0)
(0.563223 -0.0017105 0)
(0.57419 0.0079689 0)
(0.585634 0.0181163 0)
(0.594854 0.0341283 0)
(0.607524 0.0513301 0)
(0.624399 0.0657227 0)
(0.644163 0.0794986 0)
(0.666378 0.0931964 0)
(0.691654 0.106743 0)
(0.720729 0.120281 0)
(0.755168 0.132003 0)
(0.795916 0.137784 0)
(0.84184 0.136968 0)
(0.892525 0.13407 0)
(0.94795 0.135405 0)
(1.00886 0.139536 0)
(1.07566 0.146086 0)
(1.14806 0.156522 0)
(1.22622 0.165056 0)
(1.30662 0.185273 0)
(1.393 0.21386 0)
(1.48598 0.23924 0)
(1.58374 0.265217 0)
(1.68661 0.28273 0)
(1.7884 0.304421 0)
(1.89343 0.315292 0)
(1.99964 0.323309 0)
(2.10332 0.322713 0)
(2.19949 0.329257 0)
(2.28583 0.326046 0)
(2.3634 0.330256 0)
(2.43265 0.328682 0)
(2.49405 0.333984 0)
(2.54675 0.332369 0)
(2.59026 0.338572 0)
(2.62552 0.334291 0)
(2.65274 0.341159 0)
(2.66997 0.335407 0)
(2.6898 0.346725 0)
(2.70998 0.35001 0)
(2.72136 0.364318 0)
(2.73118 0.370093 0)
(2.73477 0.384112 0)
(2.74016 0.388294 0)
(2.74385 0.393439 0)
(2.74521 0.382806 0)
(2.74664 0.364353 0)
(2.74913 0.350277 0)
(2.7499 0.338738 0)
(2.75043 0.334553 0)
(2.74964 0.333013 0)
(2.7521 0.33188 0)
(2.75139 0.329695 0)
(2.74831 0.323064 0)
(2.74502 0.311241 0)
(2.74258 0.298427 0)
(2.74764 0.294243 0)
(2.75058 0.292873 0)
(2.75035 0.29367 0)
(2.74741 0.289489 0)
(2.74157 0.27856 0)
(2.73879 0.27326 0)
(2.74009 0.269291 0)
(2.74054 0.265521 0)
(2.74049 0.258054 0)
(2.74019 0.255874 0)
(2.73789 0.251909 0)
(2.73581 0.247347 0)
(2.73423 0.242775 0)
(2.73373 0.234068 0)
(2.73531 0.229901 0)
(2.73729 0.227746 0)
(2.73723 0.222981 0)
(2.73565 0.219969 0)
(2.73369 0.213897 0)
(2.73522 0.208414 0)
(2.1619 -1.41997 0)
(2.0258 -1.198 0)
(1.41599 -1.00412 0)
(0.958756 -0.683732 0)
(0.889101 -0.4842 0)
(0.778767 -0.303209 0)
(0.720274 -0.168253 0)
(0.669187 -0.122062 0)
(0.647836 -0.147896 0)
(0.66674 -0.164589 0)
(0.675269 -0.153861 0)
(0.672635 -0.134775 0)
(0.657578 -0.114792 0)
(0.643176 -0.0992206 0)
(0.63151 -0.091446 0)
(0.629652 -0.0819464 0)
(0.622873 -0.0744532 0)
(0.616201 -0.0670875 0)
(0.608758 -0.0618053 0)
(0.602103 -0.0594688 0)
(0.598138 -0.0552498 0)
(0.5951 -0.0499955 0)
(0.594352 -0.0437204 0)
(0.595333 -0.0364439 0)
(0.597696 -0.0281091 0)
(0.601932 -0.0187506 0)
(0.606649 -0.00759134 0)
(0.613329 0.00143148 0)
(0.620939 0.0086586 0)
(0.62834 0.0164442 0)
(0.634149 0.024426 0)
(0.641697 0.0316143 0)
(0.650049 0.0388522 0)
(0.659392 0.0458984 0)
(0.669616 0.0529171 0)
(0.678886 0.0642821 0)
(0.689799 0.0787002 0)
(0.706719 0.0896447 0)
(0.726404 0.0998438 0)
(0.749194 0.10856 0)
(0.774665 0.118823 0)
(0.804386 0.128078 0)
(0.83982 0.138752 0)
(0.88311 0.135501 0)
(0.932393 0.134523 0)
(0.988073 0.137914 0)
(1.0523 0.144989 0)
(1.12511 0.157749 0)
(1.2068 0.167844 0)
(1.29331 0.196534 0)
(1.39068 0.23145 0)
(1.49796 0.263731 0)
(1.6128 0.285895 0)
(1.72669 0.307979 0)
(1.84337 0.321238 0)
(1.95871 0.328068 0)
(2.07012 0.337199 0)
(2.17287 0.347417 0)
(2.26733 0.356337 0)
(2.3521 0.366516 0)
(2.42697 0.3802 0)
(2.48712 0.393262 0)
(2.53648 0.400987 0)
(2.5814 0.405422 0)
(2.61831 0.401817 0)
(2.64843 0.39662 0)
(2.67005 0.387966 0)
(2.68653 0.369225 0)
(2.70312 0.351278 0)
(2.71687 0.325717 0)
(2.72428 0.313652 0)
(2.73362 0.31054 0)
(2.74002 0.314405 0)
(2.74321 0.321491 0)
(2.74342 0.330711 0)
(2.74427 0.332153 0)
(2.74056 0.327604 0)
(2.73537 0.310397 0)
(2.73696 0.300341 0)
(2.73708 0.289362 0)
(2.74432 0.290524 0)
(2.74994 0.293519 0)
(2.74798 0.29186 0)
(2.74265 0.283295 0)
(2.73795 0.275935 0)
(2.73769 0.270484 0)
(2.73845 0.267886 0)
(2.7387 0.261147 0)
(2.73929 0.254657 0)
(2.73968 0.253884 0)
(2.73789 0.250292 0)
(2.735 0.246592 0)
(2.7324 0.240509 0)
(2.7324 0.232648 0)
(2.73385 0.230467 0)
(2.73521 0.227656 0)
(2.73538 0.222615 0)
(2.73435 0.218092 0)
(2.73273 0.210581 0)
(2.7349 0.204539 0)
(2.69764 -1.91505 0)
(2.69902 -1.91524 0)
(2.69953 -1.91609 0)
(2.65263 -1.87728 0)
(2.51715 -1.78645 0)
(2.3123 -1.59552 0)
(2.04263 -1.35653 0)
(1.79893 -1.06588 0)
(1.19389 -0.703937 0)
(1.04665 -0.490907 0)
(0.936379 -0.288925 0)
(0.85589 -0.13936 0)
(0.795718 -0.0614731 0)
(0.770402 -0.0672206 0)
(0.770294 -0.0874434 0)
(0.781441 -0.082372 0)
(0.78226 -0.0695277 0)
(0.772129 -0.0563354 0)
(0.758843 -0.0456469 0)
(0.748499 -0.0415263 0)
(0.744832 -0.0346025 0)
(0.738058 -0.0270906 0)
(0.729113 -0.019572 0)
(0.719547 -0.0144899 0)
(0.711051 -0.00910634 0)
(0.704102 -0.00231143 0)
(0.697662 0.00326921 0)
(0.69184 0.00561299 0)
(0.687489 0.00769001 0)
(0.683657 0.0101356 0)
(0.682008 0.0138439 0)
(0.681648 0.0183036 0)
(0.682111 0.0234798 0)
(0.68438 0.0290466 0)
(0.687508 0.0358639 0)
(0.693256 0.0414551 0)
(0.699483 0.0466723 0)
(0.704209 0.051696 0)
(0.70896 0.0559695 0)
(0.715893 0.0584055 0)
(0.723803 0.0620293 0)
(0.732953 0.064954 0)
(0.741159 0.0740069 0)
(0.750883 0.08696 0)
(0.767033 0.0977174 0)
(0.786312 0.107919 0)
(0.809294 0.11974 0)
(0.837728 0.131297 0)
(0.873456 0.145571 0)
(0.918368 0.142057 0)
(0.971993 0.140337 0)
(1.03536 0.142118 0)
(1.10919 0.152192 0)
(1.19383 0.156654 0)
(1.28374 0.182701 0)
(1.38645 0.205666 0)
(1.49816 0.229769 0)
(1.61497 0.24466 0)
(1.7319 0.268572 0)
(1.85342 0.276278 0)
(1.97457 0.282406 0)
(2.08937 0.282316 0)
(2.19514 0.287919 0)
(2.29062 0.295493 0)
(2.37493 0.306082 0)
(2.44746 0.310955 0)
(2.50727 0.31121 0)
(2.55458 0.312524 0)
(2.59359 0.311918 0)
(2.62622 0.326338 0)
(2.65748 0.339898 0)
(2.6804 0.354314 0)
(2.69784 0.360021 0)
(2.70834 0.362081 0)
(2.71299 0.352074 0)
(2.71421 0.332838 0)
(2.71948 0.306417 0)
(2.71781 0.283242 0)
(2.72806 0.281121 0)
(2.7328 0.284313 0)
(2.73993 0.293338 0)
(2.74296 0.292615 0)
(2.74219 0.283688 0)
(2.7385 0.274978 0)
(2.73521 0.271111 0)
(2.73778 0.270415 0)
(2.73646 0.264649 0)
(2.7359 0.255269 0)
(2.73798 0.251536 0)
(2.73897 0.253792 0)
(2.7369 0.250172 0)
(2.73346 0.244053 0)
(2.73091 0.237316 0)
(2.73156 0.232371 0)
(2.73303 0.232004 0)
(2.73393 0.228652 0)
(2.73383 0.225194 0)
(2.73212 0.220099 0)
(2.7308 0.210831 0)
(2.73309 0.202054 0)
(2.70952 -1.93659 0)
(2.71178 -1.93737 0)
(2.71299 -1.9401 0)
(2.71496 -1.9403 0)
(2.71664 -1.94077 0)
(2.71833 -1.94127 0)
(2.72032 -1.94175 0)
(2.72172 -1.9424 0)
(2.69934 -1.91872 0)
(2.59668 -1.83101 0)
(2.40755 -1.64755 0)
(2.15906 -1.3931 0)
(1.88228 -1.06966 0)
(1.56905 -0.722943 0)
(1.19381 -0.438777 0)
(1.07491 -0.228008 0)
(0.975169 -0.0906293 0)
(0.918331 -0.0183463 0)
(0.895368 -0.0165787 0)
(0.887289 -0.0276344 0)
(0.894854 -0.0206056 0)
(0.892229 -0.0100515 0)
(0.883371 0.0011266 0)
(0.870789 0.00599203 0)
(0.863444 0.00878458 0)
(0.857571 0.0121699 0)
(0.84852 0.0174547 0)
(0.83731 0.0189834 0)
(0.826789 0.0232912 0)
(0.816036 0.0284468 0)
(0.805695 0.0341208 0)
(0.795251 0.0391657 0)
(0.785377 0.0429777 0)
(0.776443 0.0462222 0)
(0.768319 0.0469264 0)
(0.761112 0.0484379 0)
(0.754881 0.0461563 0)
(0.749857 0.0451116 0)
(0.746846 0.0462844 0)
(0.74572 0.0476213 0)
(0.745878 0.0494913 0)
(0.748235 0.052132 0)
(0.752713 0.0565251 0)
(0.757296 0.0621953 0)
(0.759945 0.0673547 0)
(0.765745 0.0708744 0)
(0.773152 0.0758791 0)
(0.782835 0.0803206 0)
(0.793834 0.0871529 0)
(0.803584 0.102181 0)
(0.821461 0.112781 0)
(0.843183 0.122644 0)
(0.870232 0.131736 0)
(0.904313 0.143114 0)
(0.947009 0.140523 0)
(0.999876 0.141065 0)
(1.06346 0.144675 0)
(1.13879 0.147247 0)
(1.22556 0.152201 0)
(1.31943 0.186044 0)
(1.42315 0.229229 0)
(1.54061 0.254855 0)
(1.66635 0.270056 0)
(1.79653 0.268834 0)
(1.92451 0.27508 0)
(2.04427 0.289805 0)
(2.15224 0.306289 0)
(2.24937 0.31369 0)
(2.33376 0.31426 0)
(2.40777 0.311475 0)
(2.47469 0.306333 0)
(2.53267 0.296681 0)
(2.58242 0.288074 0)
(2.6229 0.27729 0)
(2.65262 0.269897 0)
(2.66908 0.264418 0)
(2.68028 0.258312 0)
(2.69193 0.276128 0)
(2.70366 0.296495 0)
(2.71373 0.305267 0)
(2.72049 0.303712 0)
(2.72356 0.282519 0)
(2.72674 0.263243 0)
(2.73093 0.263415 0)
(2.73234 0.271178 0)
(2.73338 0.268322 0)
(2.73168 0.255794 0)
(2.73334 0.245642 0)
(2.73681 0.248626 0)
(2.73831 0.252453 0)
(2.73511 0.247524 0)
(2.73168 0.240626 0)
(2.73082 0.233912 0)
(2.7311 0.232045 0)
(2.7322 0.231222 0)
(2.73347 0.229202 0)
(2.73283 0.227698 0)
(2.7305 0.223939 0)
(2.72909 0.215888 0)
(2.73085 0.204056 0)
(2.73406 -1.94681 0)
(2.7361 -1.94764 0)
(2.73793 -1.94895 0)
(2.74027 -1.9496 0)
(2.74205 -1.9512 0)
(2.74451 -1.95187 0)
(2.74619 -1.95393 0)
(2.74835 -1.95417 0)
(2.75145 -1.95784 0)
(2.75357 -1.95785 0)
(2.75411 -1.95934 0)
(2.75597 -1.95914 0)
(2.75625 -1.96164 0)
(2.75333 -1.95311 0)
(2.65373 -1.85519 0)
(2.44604 -1.64536 0)
(2.20043 -1.35116 0)
(1.91484 -0.974994 0)
(1.7084 -0.641466 0)
(1.31386 -0.335425 0)
(1.16625 -0.126312 0)
(1.05273 -0.0144212 0)
(1.01309 0.0227623 0)
(0.999413 0.0199301 0)
(0.995756 0.0226458 0)
(0.99758 0.0331732 0)
(0.993525 0.0442582 0)
(0.980353 0.0517474 0)
(0.972566 0.0533269 0)
(0.966834 0.0517407 0)
(0.95772 0.0540204 0)
(0.944777 0.0538234 0)
(0.932208 0.0552304 0)
(0.919771 0.0570812 0)
(0.907596 0.0601822 0)
(0.89489 0.0603479 0)
(0.882255 0.0623772 0)
(0.869598 0.0635768 0)
(0.856538 0.0653201 0)
(0.843834 0.0660096 0)
(0.831709 0.0674336 0)
(0.820909 0.0673009 0)
(0.811324 0.0657054 0)
(0.804482 0.061165 0)
(0.800014 0.0605696 0)
(0.798403 0.0612675 0)
(0.798121 0.0637373 0)
(0.800101 0.0676395 0)
(0.803827 0.0747067 0)
(0.810171 0.080954 0)
(0.814763 0.0862514 0)
(0.820909 0.0889265 0)
(0.829132 0.0907299 0)
(0.839319 0.0932735 0)
(0.848011 0.105776 0)
(0.86423 0.111319 0)
(0.881625 0.121919 0)
(0.906286 0.129566 0)
(0.94314 0.136519 0)
(0.991584 0.114871 0)
(1.04944 0.113166 0)
(1.11227 0.139328 0)
(1.18664 0.173023 0)
(1.28133 0.191937 0)
(1.39432 0.189164 0)
(1.51725 0.180271 0)
(1.64274 0.191754 0)
(1.76634 0.223753 0)
(1.88663 0.247095 0)
(2.00412 0.259969 0)
(2.11634 0.256731 0)
(2.22108 0.258755 0)
(2.31681 0.272227 0)
(2.39935 0.290541 0)
(2.46955 0.311148 0)
(2.52626 0.319999 0)
(2.56773 0.332827 0)
(2.60038 0.324402 0)
(2.6252 0.299653 0)
(2.65293 0.269676 0)
(2.67894 0.254206 0)
(2.69539 0.23772 0)
(2.70507 0.258575 0)
(2.71242 0.279738 0)
(2.71542 0.281238 0)
(2.7142 0.259912 0)
(2.71841 0.236723 0)
(2.72662 0.239487 0)
(2.73408 0.252003 0)
(2.73358 0.250819 0)
(2.7321 0.241358 0)
(2.72932 0.234113 0)
(2.73006 0.231958 0)
(2.72977 0.228681 0)
(2.73122 0.22557 0)
(2.73289 0.225902 0)
(2.73218 0.227205 0)
(2.72954 0.224816 0)
(2.72783 0.219212 0)
(2.72926 0.209146 0)
(2.75091 -1.96152 0)
(2.75213 -1.96284 0)
(2.754 -1.96329 0)
(2.75523 -1.96476 0)
(2.75721 -1.96512 0)
(2.75841 -1.96663 0)
(2.76042 -1.96691 0)
(2.76156 -1.96852 0)
(2.76364 -1.96869 0)
(2.7647 -1.97043 0)
(2.767 -1.97038 0)
(2.76803 -1.97238 0)
(2.77053 -1.97197 0)
(2.77181 -1.97454 0)
(2.77344 -1.9738 0)
(2.77461 -1.97418 0)
(2.77648 -1.97357 0)
(2.77721 -1.97523 0)
(2.77161 -1.95339 0)
(2.65074 -1.81567 0)
(2.40408 -1.54454 0)
(2.12486 -1.17086 0)
(1.86928 -0.781626 0)
(1.63683 -0.440124 0)
(1.34043 -0.163471 0)
(1.18041 -0.00784461 0)
(1.11096 0.0554611 0)
(1.0886 0.0535989 0)
(1.08362 0.0608844 0)
(1.08275 0.0737571 0)
(1.08167 0.0852485 0)
(1.06973 0.089574 0)
(1.06513 0.0853745 0)
(1.06196 0.0809363 0)
(1.05221 0.0798054 0)
(1.03967 0.0819334 0)
(1.02576 0.0846406 0)
(1.01252 0.0877218 0)
(0.998385 0.0879521 0)
(0.983767 0.0862891 0)
(0.969308 0.0819707 0)
(0.954555 0.0778514 0)
(0.940084 0.0736704 0)
(0.925206 0.0734773 0)
(0.910543 0.0759408 0)
(0.896671 0.0792153 0)
(0.883895 0.0829709 0)
(0.872456 0.0840017 0)
(0.862155 0.0842144 0)
(0.854942 0.0797482 0)
(0.85026 0.0770492 0)
(0.848277 0.0776259 0)
(0.848012 0.0792234 0)
(0.850121 0.0829823 0)
(0.854025 0.087795 0)
(0.855624 0.0890335 0)
(0.857413 0.0922576 0)
(0.860587 0.0944382 0)
(0.865467 0.0987598 0)
(0.876159 0.105428 0)
(0.898162 0.0968859 0)
(0.921838 0.0864425 0)
(0.945053 0.102767 0)
(0.975606 0.139508 0)
(1.02411 0.169978 0)
(1.09664 0.176931 0)
(1.18518 0.157037 0)
(1.28551 0.137462 0)
(1.39228 0.154494 0)
(1.50198 0.19639 0)
(1.6195 0.230297 0)
(1.74481 0.236616 0)
(1.87251 0.226262 0)
(1.99487 0.214916 0)
(2.11153 0.222348 0)
(2.21828 0.240497 0)
(2.31345 0.242825 0)
(2.39401 0.241248 0)
(2.45909 0.230693 0)
(2.51497 0.240436 0)
(2.56759 0.250355 0)
(2.61011 0.283616 0)
(2.63762 0.296181 0)
(2.65399 0.2829 0)
(2.66747 0.247754 0)
(2.68353 0.218393 0)
(2.69785 0.235137 0)
(2.70905 0.25218 0)
(2.71883 0.256183 0)
(2.72192 0.236429 0)
(2.72357 0.228123 0)
(2.7257 0.233499 0)
(2.72602 0.22907 0)
(2.72783 0.221196 0)
(2.73128 0.218254 0)
(2.73208 0.219798 0)
(2.7311 0.222067 0)
(2.7278 0.219865 0)
(2.72656 0.217432 0)
(2.72821 0.213226 0)
(2.76822 -1.96827 0)
(2.76964 -1.96841 0)
(2.77045 -1.96954 0)
(2.77195 -1.96974 0)
(2.77273 -1.97106 0)
(2.77436 -1.97114 0)
(2.77502 -1.97261 0)
(2.77667 -1.97258 0)
(2.77727 -1.97404 0)
(2.77892 -1.97395 0)
(2.77958 -1.97538 0)
(2.78131 -1.9752 0)
(2.78201 -1.97669 0)
(2.78391 -1.97612 0)
(2.78454 -1.97767 0)
(2.78662 -1.97688 0)
(2.78721 -1.97865 0)
(2.7895 -1.97739 0)
(2.79026 -1.98058 0)
(2.79159 -1.97934 0)
(2.79197 -1.97998 0)
(2.79332 -1.9794 0)
(2.79345 -1.98074 0)
(2.75479 -1.90283 0)
(2.54674 -1.66128 0)
(2.24751 -1.27822 0)
(1.95621 -0.843585 0)
(1.70675 -0.464192 0)
(1.45544 -0.166137 0)
(1.27675 0.0108533 0)
(1.18458 0.0777212 0)
(1.16259 0.0786119 0)
(1.15886 0.091221 0)
(1.15712 0.108322 0)
(1.15338 0.118288 0)
(1.14854 0.11309 0)
(1.14638 0.104124 0)
(1.1388 0.0961542 0)
(1.1268 0.095286 0)
(1.11402 0.097158 0)
(1.10163 0.101945 0)
(1.08878 0.10476 0)
(1.07617 0.107026 0)
(1.06223 0.105984 0)
(1.04727 0.101981 0)
(1.03161 0.09774 0)
(1.01531 0.093016 0)
(0.998639 0.0907002 0)
(0.982247 0.0880416 0)
(0.966002 0.0890593 0)
(0.949902 0.0928164 0)
(0.933664 0.0967711 0)
(0.918227 0.0985332 0)
(0.903926 0.0970679 0)
(0.892655 0.0899586 0)
(0.885884 0.0837439 0)
(0.879843 0.0834606 0)
(0.874549 0.0858387 0)
(0.870695 0.091142 0)
(0.866586 0.0961685 0)
(0.867883 0.096943 0)
(0.875151 0.0933795 0)
(0.888284 0.0882342 0)
(0.899197 0.0823001 0)
(0.903647 0.0957145 0)
(0.912169 0.125417 0)
(0.93775 0.148003 0)
(0.987703 0.140152 0)
(1.04836 0.10553 0)
(1.1187 0.0814889 0)
(1.19466 0.107725 0)
(1.27777 0.161678 0)
(1.37783 0.203711 0)
(1.49606 0.212795 0)
(1.62254 0.196496 0)
(1.75257 0.184782 0)
(1.88386 0.200672 0)
(2.00901 0.23013 0)
(2.12264 0.253864 0)
(2.22578 0.25551 0)
(2.3196 0.253195 0)
(2.40282 0.238239 0)
(2.4742 0.223714 0)
(2.52575 0.225425 0)
(2.56479 0.221639 0)
(2.60133 0.259875 0)
(2.63264 0.267423 0)
(2.65601 0.255029 0)
(2.67843 0.235318 0)
(2.69342 0.224835 0)
(2.70259 0.245733 0)
(2.70845 0.243907 0)
(2.71052 0.22213 0)
(2.71876 0.207368 0)
(2.72676 0.206646 0)
(2.72846 0.209256 0)
(2.72928 0.213486 0)
(2.72598 0.21035 0)
(2.72532 0.209418 0)
(2.72653 0.210008 0)
(2.77802 -1.97828 0)
(2.77871 -1.97908 0)
(2.77992 -1.97898 0)
(2.7805 -1.97977 0)
(2.78169 -1.97951 0)
(2.78234 -1.98009 0)
(2.78344 -1.98004 0)
(2.784 -1.98088 0)
(2.78525 -1.98065 0)
(2.78565 -1.98168 0)
(2.78695 -1.98126 0)
(2.78743 -1.98221 0)
(2.78874 -1.98176 0)
(2.78943 -1.98229 0)
(2.79043 -1.98238 0)
(2.79126 -1.98275 0)
(2.79241 -1.98261 0)
(2.79338 -1.98269 0)
(2.79444 -1.98259 0)
(2.79578 -1.98184 0)
(2.79643 -1.98235 0)
(2.7979 -1.98126 0)
(2.79831 -1.98205 0)
(2.79924 -1.98133 0)
(2.79978 -1.98152 0)
(2.801 -1.98086 0)
(2.80075 -1.98232 0)
(2.76375 -1.90978 0)
(2.57651 -1.66841 0)
(2.26866 -1.25857 0)
(1.97007 -0.796368 0)
(1.69695 -0.395445 0)
(1.46798 -0.105119 0)
(1.30755 0.0570051 0)
(1.24061 0.0904648 0)
(1.22135 0.10483 0)
(1.21677 0.123004 0)
(1.20872 0.135237 0)
(1.20757 0.130537 0)
(1.20835 0.120467 0)
(1.20223 0.113065 0)
(1.19185 0.10965 0)
(1.18297 0.110322 0)
(1.17199 0.114638 0)
(1.16014 0.115606 0)
(1.14879 0.117612 0)
(1.13602 0.117735 0)
(1.12238 0.116395 0)
(1.10692 0.116331 0)
(1.09008 0.115916 0)
(1.07208 0.114099 0)
(1.05294 0.110217 0)
(1.03317 0.105729 0)
(1.01298 0.100311 0)
(0.992129 0.0986478 0)
(0.972105 0.100281 0)
(0.951826 0.102658 0)
(0.9324 0.103445 0)
(0.912519 0.10432 0)
(0.89541 0.099201 0)
(0.885263 0.0969842 0)
(0.884131 0.0936813 0)
(0.887127 0.0905986 0)
(0.888787 0.0854338 0)
(0.888854 0.0840176 0)
(0.886582 0.0887335 0)
(0.880399 0.107182 0)
(0.881778 0.126174 0)
(0.899084 0.129795 0)
(0.928857 0.114503 0)
(0.964842 0.0824767 0)
(1.00934 0.0596757 0)
(1.05722 0.0759519 0)
(1.1124 0.125066 0)
(1.1839 0.168789 0)
(1.28229 0.180051 0)
(1.3981 0.161849 0)
(1.52541 0.142482 0)
(1.65796 0.14466 0)
(1.78842 0.169597 0)
(1.91523 0.189855 0)
(2.03809 0.204832 0)
(2.15381 0.224653 0)
(2.25535 0.237666 0)
(2.33969 0.245074 0)
(2.41265 0.225973 0)
(2.48254 0.203172 0)
(2.54023 0.202546 0)
(2.58803 0.21517 0)
(2.62021 0.252265 0)
(2.64233 0.252093 0)
(2.66094 0.225001 0)
(2.67526 0.21611 0)
(2.69323 0.224591 0)
(2.70745 0.22155 0)
(2.7158 0.207679 0)
(2.72029 0.202299 0)
(2.71899 0.195331 0)
(2.72223 0.196074 0)
(2.72472 0.20176 0)
(2.78868 -1.9794 0)
(2.78947 -1.9796 0)
(2.79007 -1.98004 0)
(2.79077 -1.98021 0)
(2.79123 -1.9806 0)
(2.79201 -1.98038 0)
(2.79236 -1.98076 0)
(2.79291 -1.98093 0)
(2.79362 -1.98079 0)
(2.79411 -1.98095 0)
(2.79466 -1.98102 0)
(2.79528 -1.98103 0)
(2.79606 -1.98077 0)
(2.79669 -1.98074 0)
(2.7973 -1.98072 0)
(2.79779 -1.98092 0)
(2.79858 -1.98051 0)
(2.79907 -1.98062 0)
(2.79991 -1.97996 0)
(2.80031 -1.98001 0)
(2.80081 -1.97983 0)
(2.80121 -1.9797 0)
(2.80189 -1.97901 0)
(2.80178 -1.97952 0)
(2.80222 -1.97919 0)
(2.80276 -1.97873 0)
(2.80189 -1.98025 0)
(2.80282 -1.97896 0)
(2.80238 -1.97938 0)
(2.80278 -1.97866 0)
(2.80156 -1.98078 0)
(2.73838 -1.87578 0)
(2.50443 -1.57119 0)
(2.17755 -1.09303 0)
(1.89031 -0.622413 0)
(1.59859 -0.231022 0)
(1.39717 0.00859016 0)
(1.29385 0.100705 0)
(1.26519 0.114403 0)
(1.25399 0.126594 0)
(1.24656 0.139252 0)
(1.24623 0.136814 0)
(1.25045 0.1298 0)
(1.24642 0.126329 0)
(1.23568 0.123558 0)
(1.22809 0.126073 0)
(1.21724 0.128785 0)
(1.20664 0.131904 0)
(1.19591 0.131678 0)
(1.18452 0.129142 0)
(1.17222 0.126204 0)
(1.15744 0.124563 0)
(1.14085 0.125309 0)
(1.1223 0.128015 0)
(1.10153 0.128059 0)
(1.0798 0.123987 0)
(1.05708 0.116966 0)
(1.03335 0.110367 0)
(1.00678 0.105969 0)
(0.978526 0.107674 0)
(0.95199 0.112018 0)
(0.930922 0.111079 0)
(0.916499 0.103174 0)
(0.908062 0.0948167 0)
(0.903068 0.0878825 0)
(0.897079 0.084948 0)
(0.891456 0.0860458 0)
(0.881783 0.0939674 0)
(0.873671 0.10476 0)
(0.873078 0.109527 0)
(0.884868 0.102608 0)
(0.901974 0.0857654 0)
(0.918126 0.0682076 0)
(0.936642 0.0597321 0)
(0.958923 0.0821141 0)
(0.995208 0.122261 0)
(1.05246 0.150566 0)
(1.13374 0.147806 0)
(1.22975 0.121595 0)
(1.33473 0.0986147 0)
(1.45006 0.10989 0)
(1.57239 0.14931 0)
(1.70171 0.182695 0)
(1.83536 0.202713 0)
(1.96361 0.192129 0)
(2.08093 0.186412 0)
(2.19128 0.193465 0)
(2.29271 0.206769 0)
(2.38085 0.222858 0)
(2.45383 0.208819 0)
(2.51301 0.199509 0)
(2.55741 0.209113 0)
(2.59229 0.228265 0)
(2.62546 0.228503 0)
(2.65628 0.230881 0)
(2.67993 0.234114 0)
(2.69279 0.228148 0)
(2.69863 0.203122 0)
(2.7088 0.187065 0)
(2.71762 0.186789 0)
(2.79385 -1.98301 0)
(2.79434 -1.98303 0)
(2.79476 -1.98325 0)
(2.79513 -1.98354 0)
(2.79557 -1.9836 0)
(2.79595 -1.98357 0)
(2.79625 -1.98355 0)
(2.79638 -1.98378 0)
(2.79672 -1.98369 0)
(2.79717 -1.9834 0)
(2.79717 -1.98377 0)
(2.79753 -1.98361 0)
(2.79795 -1.98337 0)
(2.79835 -1.98311 0)
(2.79844 -1.98331 0)
(2.79888 -1.98283 0)
(2.799 -1.9828 0)
(2.79931 -1.98247 0)
(2.79983 -1.98179 0)
(2.79985 -1.98196 0)
(2.80023 -1.98147 0)
(2.80043 -1.98111 0)
(2.8006 -1.98057 0)
(2.80048 -1.98046 0)
(2.80069 -1.97972 0)
(2.80065 -1.97928 0)
(2.80042 -1.97916 0)
(2.80051 -1.97845 0)
(2.80043 -1.97797 0)
(2.80053 -1.97701 0)
(2.79988 -1.97787 0)
(2.79994 -1.97692 0)
(2.79996 -1.97573 0)
(2.79984 -1.97512 0)
(2.79009 -1.94939 0)
(2.63705 -1.74245 0)
(2.30313 -1.28416 0)
(1.98644 -0.758319 0)
(1.67285 -0.299965 0)
(1.41138 -0.0139308 0)
(1.31044 0.0935784 0)
(1.29156 0.115863 0)
(1.28178 0.131796 0)
(1.27632 0.143966 0)
(1.27358 0.142938 0)
(1.27602 0.137801 0)
(1.26873 0.134752 0)
(1.25903 0.1337 0)
(1.25044 0.137615 0)
(1.24098 0.139997 0)
(1.23287 0.143006 0)
(1.22361 0.142465 0)
(1.21367 0.141033 0)
(1.20159 0.140323 0)
(1.18634 0.139884 0)
(1.16926 0.140199 0)
(1.1502 0.139122 0)
(1.1304 0.136192 0)
(1.10742 0.133908 0)
(1.08108 0.130637 0)
(1.04999 0.129192 0)
(1.01972 0.125464 0)
(0.994581 0.117208 0)
(0.973657 0.107179 0)
(0.955478 0.0965704 0)
(0.938805 0.0865837 0)
(0.922014 0.0814385 0)
(0.905662 0.0846574 0)
(0.889754 0.0892451 0)
(0.87928 0.0964025 0)
(0.875248 0.0983511 0)
(0.873709 0.0932537 0)