/*--------------------------------*- C++ -*----------------------------------*\
  =========                 |
  \\      /  F ield         | OpenFOAM: The Open Source CFD Toolbox
   \\    /   O peration     | Website:  https://openfoam.org
    \\  /    A nd           | Version:  7
     \\/     M anipulation  |
\*---------------------------------------------------------------------------*/
FoamFile
{
    version     2.0;
    format      ascii;
    class       volScalarField;
    location    "5.0001";
    object      T;
}
// * * * * * * * * * * * * * * * * * * * * * * * * * * * * * * * * * * * * * //

dimensions      [0 0 0 1 0 0 0];

internalField   nonuniform List<scalar> 
60000
(
0.689756
0.783402
0.9115
0.939602
0.924518
0.957219
1.02664
1.03195
1.02777
1.07731
1.11073
1.1202
1.13398
1.16845
1.21572
1.22224
1.2246
1.23553
1.24516
1.24746
1.24597
1.24063
1.2362
1.23332
1.22781
1.22252
1.22005
1.21957
1.21843
1.21559
1.2114
1.20751
1.20359
1.19829
1.19284
1.18886
1.1905
1.19396
1.19713
1.20247
1.20801
1.20972
1.20759
1.20218
1.19472
1.18691
1.18101
1.17511
1.17454
1.17508
1.17668
1.17759
1.17826
1.17722
1.17455
1.17013
1.16458
1.16081
1.15805
1.15748
1.15712
1.15751
1.15649
1.15411
1.15076
1.14667
1.1432
1.14095
1.14115
1.14256
1.14215
1.14039
1.13682
1.13236
1.129
1.12721
1.12831
1.12896
1.12803
1.12534
1.12172
1.11944
1.11881
1.11921
1.11822
1.11557
1.11198
1.10954
1.10998
1.11208
1.11263
1.11116
1.10828
1.10628
1.10665
1.1086
1.11013
1.10988
1.11004
1.11201
0.555082
0.554946
0.554819
0.554638
0.554448
0.554241
0.556085
0.55745
0.557718
0.574282
0.61305
0.637444
0.680116
0.756028
0.851699
0.913475
0.951933
1.01386
1.09202
1.13796
1.15437
1.17231
1.20871
1.22427
1.22874
1.24114
1.25156
1.26023
1.26033
1.2598
1.2568
1.2536
1.25056
1.24946
1.25157
1.25568
1.25792
1.25699
1.25589
1.25625
1.2559
1.25285
1.24657
1.23865
1.23264
1.22942
1.22887
1.22714
1.22778
1.22808
1.22859
1.22861
1.22731
1.22414
1.21806
1.21226
1.20776
1.20564
1.20464
1.20501
1.20447
1.20271
1.20008
1.19571
1.19047
1.18599
1.18295
1.18289
1.18359
1.18289
1.18086
1.1771
1.17169
1.16721
1.16408
1.1642
1.165
1.16401
1.16113
1.15705
1.15363
1.15084
1.15067
1.14998
1.14796
1.14369
1.13987
1.13722
1.1384
1.13981
1.13953
1.1368
1.13358
1.13123
1.13216
1.13419
1.13473
1.13426
1.13443
1.1363
0.553739
0.553573
0.553469
0.553295
0.553083
0.552969
0.552745
0.552437
0.552161
0.55176
0.55137
0.551011
0.550707
0.550445
0.55004
0.549554
0.549076
0.551359
0.566187
0.596358
0.64254
0.701423
0.789733
0.870158
0.932494
0.992527
1.0569
1.10212
1.13855
1.17633
1.21248
1.24243
1.26114
1.28037
1.29434
1.29889
1.29692
1.29349
1.28954
1.28378
1.27558
1.26631
1.25588
1.24783
1.2489
1.25178
1.25582
1.25941
1.26155
1.26317
1.26287
1.26175
1.25816
1.25201
1.24558
1.24069
1.23944
1.24019
1.24053
1.24148
1.24111
1.2386
1.23411
1.22888
1.22471
1.22179
1.22158
1.22124
1.22159
1.2203
1.21695
1.21198
1.20737
1.20344
1.20133
1.20174
1.20149
1.19962
1.19556
1.19066
1.18687
1.18578
1.18539
1.18394
1.18024
1.1749
1.17072
1.16962
1.17136
1.17192
1.17001
1.16615
1.16266
1.16078
1.16193
1.16287
1.16257
1.16176
1.16183
1.16324
0.551528
0.551372
0.551151
0.550911
0.550753
0.550581
0.550381
0.55005
0.549649
0.549651
0.549597
0.549366
0.548942
0.548677
0.548412
0.548041
0.547773
0.547617
0.547471
0.547215
0.546843
0.546596
0.546468
0.546338
0.546041
0.54697
0.561288
0.591765
0.64826
0.718474
0.811138
0.902159
0.982379
1.04472
1.10363
1.15592
1.18837
1.21498
1.23113
1.24871
1.25263
1.25667
1.25687
1.26047
1.26456
1.27121
1.27544
1.27926
1.27908
1.27809
1.27594
1.27181
1.26492
1.25991
1.25759
1.25841
1.25973
1.26032
1.26201
1.26174
1.25997
1.25647
1.25197
1.2484
1.24601
1.24625
1.24844
1.24838
1.24728
1.24449
1.24019
1.23527
1.23123
1.23027
1.23152
1.2322
1.23104
1.2279
1.22335
1.21945
1.21667
1.21608
1.21561
1.21334
1.20852
1.20362
1.19973
1.2
1.20101
1.20024
1.19718
1.19321
1.18942
1.18912
1.1901
1.19007
1.18893
1.18737
1.18666
1.1878
0.549201
0.549044
0.548887
0.548698
0.548532
0.548423
0.548287
0.548108
0.547657
0.54759
0.547617
0.547577
0.547379
0.547125
0.546863
0.546537
0.546338
0.54631
0.546283
0.546224
0.545918
0.54574
0.545765
0.545741
0.54567
0.545519
0.5455
0.545529
0.545536
0.545507
0.545448
0.545376
0.546638
0.559228
0.605952
0.681187
0.782257
0.872379
0.963539
1.04454
1.11349
1.17302
1.21815
1.25361
1.26641
1.2751
1.27701
1.27958
1.27909
1.27718
1.27091
1.26171
1.25718
1.25907
1.26204
1.2661
1.26873
1.27057
1.27041
1.26859
1.26488
1.25962
1.25705
1.25626
1.25656
1.2586
1.26059
1.26106
1.25887
1.25466
1.25039
1.2476
1.24595
1.24606
1.24776
1.24878
1.24689
1.24318
1.239
1.23518
1.23576
1.23598
1.23495
1.2316
1.22606
1.22209
1.21968
1.22218
1.22302
1.22135
1.21731
1.21346
1.20999
1.21057
1.21116
1.21032
1.20887
1.20749
1.20622
1.20705
0.547323
0.547247
0.547163
0.547023
0.54687
0.546845
0.546756
0.54665
0.546473
0.546327
0.5463
0.546257
0.546183
0.546073
0.545939
0.545754
0.545608
0.545604
0.54559
0.545554
0.545472
0.545342
0.545372
0.545428
0.545411
0.545364
0.545368
0.54543
0.545479
0.545482
0.545439
0.545351
0.545327
0.545271
0.545241
0.545204
0.545106
0.54493
0.547007
0.566961
0.63456
0.733622
0.861381
0.967477
1.05472
1.11715
1.15969
1.19738
1.21689
1.23503
1.23954
1.24693
1.25365
1.26457
1.27153
1.27729
1.27676
1.27387
1.2705
1.26677
1.26116
1.25746
1.25739
1.25846
1.26277
1.26672
1.26621
1.26437
1.26011
1.25505
1.25178
1.25069
1.25185
1.25623
1.25663
1.25534
1.25218
1.24798
1.2454
1.24398
1.24444
1.24558
1.24375
1.23887
1.23483
1.23192
1.2326
1.23507
1.23456
1.23204
1.22747
1.22404
1.22309
1.22436
1.22483
1.22335
1.22116
1.21923
1.21818
1.21868
0.546244
0.546201
0.546175
0.546145
0.546001
0.54598
0.545979
0.545919
0.545874
0.54587
0.545785
0.545654
0.545524
0.54546
0.545458
0.545457
0.5454
0.545378
0.545391
0.54537
0.545328
0.545303
0.545327
0.545486
0.545539
0.545483
0.54544
0.545454
0.545496
0.545517
0.54551
0.545452
0.545363
0.545272
0.545183
0.545104
0.545019
0.544893
0.544723
0.544609
0.544558
0.544508
0.544386
0.544745
0.576068
0.644717
0.757502
0.866016
0.970428
1.05513
1.12874
1.19325
1.23128
1.25201
1.25948
1.26465
1.26584
1.26675
1.26518
1.25827
1.25333
1.25404
1.25749
1.26259
1.26512
1.26481
1.26358
1.2596
1.25453
1.25217
1.25124
1.25319
1.25751
1.25964
1.25822
1.25508
1.25047
1.24748
1.24608
1.24731
1.24932
1.24864
1.24522
1.23995
1.23634
1.23619
1.23884
1.24111
1.23962
1.23541
1.23149
1.22893
1.22925
1.23112
1.23072
1.2291
1.22706
1.22491
1.22463
1.22485
0.545869
0.54585
0.545818
0.545792
0.545737
0.54568
0.545695
0.545699
0.545645
0.545566
0.545585
0.545594
0.545475
0.545317
0.545333
0.545378
0.545374
0.545334
0.54536
0.545388
0.54536
0.545361
0.545415
0.545542
0.545614
0.545586
0.545544
0.545512
0.545489
0.545483
0.545464
0.545405
0.545293
0.54508
0.544914
0.544812
0.544714
0.544573
0.544423
0.544311
0.544257
0.544197
0.544126
0.544075
0.543973
0.543774
0.543585
0.543558
0.550132
0.586819
0.695424
0.823053
0.952721
1.04475
1.11121
1.16687
1.19881
1.22745
1.23257
1.23932
1.2453
1.25615
1.26461
1.26693
1.26399
1.26001
1.25588
1.2497
1.2469
1.24756
1.25126
1.25664
1.25974
1.25892
1.25623
1.25056
1.24686
1.24527
1.24678
1.25069
1.25034
1.24733
1.24158
1.23816
1.23642
1.23936
1.24402
1.24314
1.23998
1.23472
1.23118
1.23065
1.23308
1.2342
1.23275
1.23001
1.22809
1.22671
1.22722
1.22717
0.545601
0.54558
0.545572
0.545567
0.545548
0.545498
0.54549
0.545494
0.545467
0.545407
0.545396
0.545394
0.545338
0.545235
0.545269
0.545313
0.545303
0.54526
0.545242
0.545326
0.545373
0.545343
0.545336
0.54533
0.545365
0.545455
0.54544
0.545347
0.545268
0.545217
0.545154
0.54505
0.544942
0.544769
0.544592
0.544492
0.544399
0.544242
0.544123
0.544057
0.544006
0.543927
0.543872
0.543848
0.54378
0.543625
0.543504
0.543501
0.543576
0.543628
0.543666
0.543734
0.545971
0.576298
0.677163
0.797521
0.92599
1.03286
1.11476
1.18507
1.22671
1.24517
1.25324
1.2555
1.25615
1.25422
1.24649
1.24094
1.24244
1.24775
1.25394
1.25557
1.25532
1.25377
1.24795
1.24373
1.24265
1.24428
1.24796
1.2493
1.2479
1.24151
1.23603
1.23465
1.237
1.24213
1.24331
1.24185
1.23686
1.23232
1.22995
1.23185
1.23465
1.23401
1.23214
1.22958
1.2275
1.22757
1.22856
1.22791
0.545366
0.545317
0.545285
0.545297
0.545315
0.545313
0.545268
0.545248
0.545235
0.545228
0.54521
0.545107
0.545041
0.545037
0.545055
0.54505
0.545023
0.545
0.545001
0.545003
0.545001
0.545019
0.545058
0.54505
0.545011
0.544972
0.544958
0.544937
0.544909
0.544884
0.544848
0.54475
0.544613
0.54445
0.544232
0.544144
0.5441
0.544021
0.543935
0.543876
0.543829
0.543771
0.543758
0.543757
0.543725
0.543581
0.5435
0.543574
0.543819
0.543883
0.543924
0.544101
0.544194
0.544165
0.544106
0.544074
0.544117
0.572223
0.683942
0.826595
0.970674
1.06383
1.13246
1.1777
1.21297
1.22175
1.23211
1.23632
1.24752
1.25541
1.2574
1.25446
1.25155
1.24335
1.23847
1.23909
1.24218
1.24626
1.24884
1.24717
1.24068
1.2341
1.23127
1.23322
1.23941
1.24279
1.24174
1.23748
1.23167
1.2285
1.22923
1.23255
1.23409
1.23269
1.23004
1.22784
1.2264
1.22736
1.22817
1.22706
0.545027
0.545018
0.545007
0.544986
0.544971
0.545024
0.545033
0.545024
0.544961
0.544946
0.544952
0.544939
0.54487
0.544837
0.544813
0.544792
0.544763
0.544734
0.544723
0.544703
0.544715
0.544724
0.54471
0.544715
0.544729
0.54472
0.544685
0.54467
0.544643
0.544615
0.544564
0.544397
0.544217
0.544068
0.543916
0.543869
0.543855
0.543828
0.5438
0.543778
0.54375
0.543749
0.543774
0.543826
0.543854
0.543882
0.543923
0.544064
0.544238
0.544251
0.544243
0.544337
0.544392
0.544313
0.544144
0.544033
0.544059
0.544232
0.544365
0.544283
0.551149
0.603985
0.726255
0.876677
1.00122
1.0984
1.18485
1.22599
1.24419
1.24985
1.25151
1.25023
1.24132
1.23226
1.23509
1.24118
1.24487
1.24573
1.24537
1.23953
1.23115
1.22874
1.2303
1.23598
1.24086
1.24069
1.23791
1.23152
1.22642
1.22665
1.22947
1.23253
1.23206
1.23018
1.22714
1.22529
1.22549
1.22663
1.22664
1.22537
0.544889
0.544873
0.544859
0.544838
0.544831
0.54483
0.544847
0.544862
0.544833
0.54481
0.544821
0.544823
0.54476
0.544725
0.544719
0.544706
0.544678
0.544627
0.5446
0.544581
0.54458
0.5446
0.544596
0.544582
0.544568
0.544553
0.544524
0.544406
0.54425
0.544183
0.54414
0.54402
0.543815
0.543684
0.54368
0.543733
0.543767
0.543762
0.543751
0.543756
0.543786
0.543851
0.543983
0.544153
0.544262
0.544316
0.544316
0.544364
0.544439
0.544464
0.544456
0.544454
0.544486
0.544404
0.544084
0.543824
0.543732
0.54383
0.544109
0.544237
0.544171
0.543858
0.543432
0.543344
0.561479
0.665101
0.819162
0.980077
1.08152
1.14602
1.19773
1.21302
1.22288
1.22726
1.24134
1.24909
1.2484
1.24611
1.2384
1.2289
1.22611
1.22805
1.23482
1.24138
1.24099
1.23841
1.23087
1.22567
1.22361
1.22653
1.23128
1.23185
1.2301
1.22662
1.22413
1.22383
1.22489
1.22582
1.22521
1.22354
0.544963
0.544984
0.545004
0.54495
0.54489
0.54489
0.544899
0.544905
0.544874
0.544843
0.544836
0.54481
0.544736
0.544695
0.544683
0.54466
0.544626
0.544594
0.544566
0.544485
0.544404
0.544341
0.544293
0.544219
0.544149
0.544131
0.544101
0.544009
0.543871
0.54384
0.543833
0.543802
0.543665
0.543509
0.543494
0.543618
0.543796
0.543809
0.543824
0.543876
0.543955
0.544054
0.544192
0.544388
0.544554
0.544565
0.544458
0.544393
0.544458
0.544533
0.544565
0.544527
0.544498
0.544399
0.543954
0.543483
0.543314
0.543367
0.543732
0.544085
0.544083
0.543881
0.543498
0.543428
0.543601
0.544226
0.544635
0.555881
0.621046
0.7728
0.922139
1.04558
1.14733
1.20907
1.23739
1.2452
1.24442
1.23833
1.2255
1.22148
1.22623
1.23571
1.24076
1.24122
1.2395
1.23091
1.22415
1.22241
1.22481
1.22993
1.23138
1.23048
1.22705
1.22398
1.22276
1.22376
1.22502
1.22468
1.22366
1.22204
0.544825
0.544819
0.544858
0.544894
0.544794
0.544625
0.544599
0.544567
0.544521
0.544506
0.544453
0.544377
0.544362
0.544359
0.544322
0.544158
0.544112
0.544135
0.544156
0.544124
0.543943
0.543874
0.543883
0.543868
0.543805
0.543783
0.543791
0.543777
0.543697
0.543672
0.543691
0.543691
0.543642
0.543502
0.543448
0.543536
0.543868
0.543969
0.543958
0.543984
0.544082
0.544192
0.544278
0.544467
0.544633
0.544615
0.544414
0.544285
0.544345
0.544485
0.544489
0.544365
0.544314
0.544228
0.543776
0.543188
0.542958
0.54299
0.543381
0.543997
0.544099
0.543984
0.543776
0.543812
0.544237
0.544857
0.545158
0.545487
0.545792
0.545812
0.5456
0.597962
0.738513
0.922124
1.04582
1.12183
1.1826
1.19961
1.21312
1.22033
1.23762
1.24697
1.24573
1.24297
1.23198
1.22257
1.22109
1.22357
1.2299
1.23326
1.23201
1.22844
1.22482
1.22255
1.22288
1.22464
1.22505
1.22386
1.22209
1.22112
0.544396
0.54439
0.544375
0.544327
0.544281
0.544068
0.543783
0.543767
0.543779
0.543917
0.543939
0.543855
0.543883
0.543973
0.543967
0.543828
0.543748
0.54375
0.543821
0.543852
0.543777
0.543714
0.543741
0.543735
0.543663
0.543638
0.543653
0.543654
0.543617
0.543611
0.5437
0.543811
0.543813
0.543719
0.543591
0.543622
0.543899
0.544093
0.544095
0.544081
0.544142
0.544212
0.544274
0.544462
0.544634
0.544585
0.544267
0.54405
0.544066
0.54418
0.544213
0.544134
0.544112
0.544062
0.543632
0.54297
0.54272
0.542747
0.54316
0.544092
0.544571
0.544516
0.544349
0.544457
0.545113
0.545409
0.545328
0.545439
0.545595
0.545534
0.545312
0.544619
0.543525
0.54266
0.584773
0.73314
0.893852
1.03563
1.15161
1.21282
1.23867
1.24384
1.24297
1.23494
1.2199
1.21822
1.22247
1.23027
1.2334
1.2325
1.22996
1.22567
1.22306
1.2227
1.22409
1.22482
1.22405
1.2223
1.22024
1.22077
0.543727
0.543725
0.543722
0.543615
0.543276
0.543235
0.543243
0.54332
0.543365
0.543356
0.543351
0.543365
0.54353
0.543778
0.543794
0.543729
0.543669
0.54367
0.543723
0.543765
0.543768
0.543766
0.543837
0.543919
0.543903
0.54389
0.543923
0.543958
0.543961
0.543975
0.544103
0.544358
0.544395
0.544281
0.54414
0.544042
0.543993
0.54408
0.544144
0.544119
0.544199
0.544218
0.5442
0.544257
0.544432
0.544416
0.544118
0.543817
0.543681
0.543785
0.54391
0.543986
0.544035
0.544008
0.543599
0.542875
0.542632
0.542665
0.543139
0.544389
0.545255
0.545264
0.545147
0.54533
0.545873
0.545892
0.545526
0.545087
0.545001
0.544942
0.544706
0.543983
0.543081
0.542434
0.542245
0.542283
0.542444
0.596097
0.749061
0.943451
1.06184
1.12956
1.1885
1.19711
1.20951
1.21788
1.2316
1.23834
1.23514
1.22993
1.2249
1.22175
1.22178
1.2234
1.22477
1.22391
1.22159
1.2193
1.21834
1.22002
0.543394
0.543384
0.543385
0.54339
0.543178
0.543051
0.543072
0.543196
0.543209
0.543151
0.543137
0.543294
0.543578
0.543646
0.543669
0.543822
0.54404
0.544118
0.544118
0.544121
0.544228
0.544391
0.544415
0.544456
0.544538
0.544559
0.544561
0.544553
0.544579
0.544649
0.544765
0.544899
0.544872
0.544626
0.544509
0.544376
0.543998
0.543738
0.543742
0.543782
0.543848
0.543856
0.543806
0.543829
0.54397
0.544098
0.544001
0.543633
0.543267
0.543285
0.543642
0.543932
0.54407
0.544027
0.543577
0.542852
0.542634
0.542693
0.543324
0.545004
0.545873
0.545957
0.545926
0.546076
0.546239
0.546154
0.545527
0.544641
0.544442
0.544426
0.544255
0.543633
0.542873
0.542345
0.542321
0.542793
0.544119
0.546108
0.547134
0.550288
0.606123
0.763858
0.92317
1.05495
1.16411
1.20751
1.22886
1.22967
1.22966
1.22602
1.21747
1.21759
1.21989
1.22034
1.22017
1.2187
1.2163
1.21567
1.21706
1.21759
0.543417
0.543404
0.543478
0.543308
0.54308
0.543098
0.543202
0.543399
0.543515
0.543517
0.543459
0.54347
0.54368
0.543877
0.543858
0.544021
0.54442
0.544444
0.544447
0.544459
0.544526
0.544748
0.544768
0.544753
0.544805
0.544981
0.54506
0.545029
0.545006
0.545052
0.545215
0.545219
0.545087
0.544688
0.544569
0.54434
0.543476
0.542867
0.542886
0.543152
0.543393
0.54349
0.543463
0.54346
0.543572
0.543851
0.543896
0.54349
0.54295
0.542969
0.54351
0.543947
0.544096
0.544133
0.543909
0.543391
0.543234
0.543396
0.544196
0.545775
0.546401
0.546473
0.546502
0.546497
0.546416
0.546036
0.545169
0.544347
0.544158
0.544163
0.544073
0.543499
0.54279
0.542874
0.543892
0.545743
0.548063
0.549867
0.550134
0.549489
0.548409
0.547331
0.546448
0.627993
0.796937
0.969723
1.08639
1.13963
1.18744
1.19242
1.20583
1.21284
1.21878
1.21481
1.21114
1.20816
1.20787
1.20933
1.21188
1.21024
0.5441
0.544099
0.544077
0.543927
0.543928
0.544015
0.54403
0.544167
0.544229
0.544207
0.544097
0.543872
0.543791
0.543681
0.543621
0.543844
0.544429
0.544476
0.544385
0.544384
0.544584
0.544692
0.54475
0.544788
0.544843
0.544962
0.54512
0.545208
0.545182
0.545205
0.545273
0.545267
0.545093
0.54468
0.544361
0.543882
0.54259
0.542069
0.54216
0.542747
0.543253
0.543376
0.54335
0.543328
0.543425
0.543788
0.543914
0.543577
0.542919
0.542918
0.543596
0.544596
0.544839
0.545052
0.545509
0.545534
0.545455
0.545524
0.546072
0.546572
0.546569
0.546579
0.54678
0.546846
0.546583
0.545892
0.544931
0.544299
0.544142
0.54414
0.544173
0.544319
0.545034
0.54636
0.548548
0.55043
0.551999
0.551842
0.551118
0.549502
0.548277
0.547832
0.548867
0.551954
0.554344
0.572772
0.660055
0.827729
0.97729
1.0845
1.15988
1.18043
1.19307
1.1936
1.19762
1.19516
1.19707
1.19914
1.19816
1.19444
0.54457
0.544719
0.544696
0.544733
0.54507
0.545136
0.545264
0.545322
0.545272
0.544655
0.544097
0.543953
0.543724
0.543035
0.542778
0.542854
0.543436
0.543581
0.543557
0.54361
0.543813
0.544132
0.54458
0.544683
0.54463
0.54465
0.544867
0.545036
0.545041
0.545038
0.545139
0.545142
0.545038
0.544684
0.544287
0.543718
0.542302
0.541721
0.541841
0.542513
0.543292
0.543509
0.543479
0.543463
0.543743
0.544513
0.544603
0.54438
0.543658
0.543583
0.544299
0.546185
0.547037
0.547522
0.548191
0.548474
0.548478
0.548409
0.547954
0.547431
0.546955
0.546782
0.546817
0.547175
0.54699
0.545991
0.545472
0.545511
0.545592
0.545775
0.546268
0.547748
0.549989
0.552416
0.553946
0.554808
0.554419
0.553874
0.55263
0.552948
0.554171
0.556621
0.559746
0.562406
0.565159
0.566322
0.566456
0.566918
0.585726
0.712128
0.867135
0.992435
1.07952
1.12533
1.15261
1.16146
1.17718
1.18451
1.17891
1.17172
0.545449
0.545542
0.545571
0.54507
0.544905
0.544936
0.545895
0.546486
0.546445
0.545594
0.543769
0.543383
0.543422
0.543193
0.542829
0.542863
0.542921
0.543042
0.54325
0.543672
0.543983
0.544115
0.544415
0.544497
0.544538
0.544734
0.545258
0.545414
0.54527
0.545089
0.545134
0.545373
0.545388
0.545382
0.545313
0.54496
0.5435
0.542618
0.54267
0.543145
0.544587
0.545951
0.546164
0.54638
0.547277
0.548136
0.548121
0.547968
0.547356
0.547206
0.547303
0.547823
0.549017
0.550457
0.550886
0.550837
0.550853
0.550602
0.549097
0.547511
0.547394
0.547476
0.54767
0.547573
0.547101
0.546551
0.546545
0.547072
0.548596
0.550301
0.552247
0.554611
0.55699
0.55928
0.559785
0.559199
0.558245
0.558349
0.559635
0.56202
0.564842
0.567011
0.568937
0.570888
0.572781
0.574843
0.576699
0.578797
0.578391
0.578575
0.579094
0.628357
0.738344
0.894012
1.00755
1.08304
1.12291
1.13518
1.14166
1.14862
0.54489
0.545
0.545169
0.544103
0.542004
0.541912
0.544957
0.547312
0.547451
0.546479
0.544077
0.543859
0.544259
0.544189
0.542975
0.54275
0.542999
0.542933
0.542952
0.543211
0.543582
0.543614
0.543623
0.54381
0.544248
0.544411
0.544598
0.545549
0.546758
0.546791
0.546618
0.546808
0.547501
0.54857
0.549059
0.549078
0.548286
0.547584
0.547583
0.547821
0.54889
0.550288
0.550922
0.551667
0.552265
0.552301
0.552062
0.551892
0.551975
0.551703
0.550844
0.550711
0.55103
0.55211
0.552448
0.552444
0.55246
0.55186
0.549706
0.5482
0.548165
0.548401
0.549088
0.550016
0.551305
0.553204
0.555617
0.558851
0.561827
0.564154
0.565975
0.566386
0.566566
0.567011
0.567432
0.567057
0.567012
0.567433
0.568948
0.571427
0.574648
0.577317
0.579781
0.582201
0.583805
0.584534
0.584837
0.585636
0.586097
0.586829
0.588902
0.591888
0.594113
0.600539
0.659861
0.801345
0.916864
0.999969
1.06393
1.10344
0.549082
0.549331
0.549635
0.548783
0.544585
0.544132
0.548191
0.555443
0.555679
0.554559
0.552053
0.551713
0.551891
0.551203
0.550798
0.550789
0.550654
0.550088
0.54942
0.549497
0.549273
0.548283
0.548133
0.548938
0.550093
0.550175
0.550202
0.550627
0.551938
0.553518
0.554407
0.555018
0.55579
0.556427
0.556921
0.557088
0.556682
0.555848
0.555436
0.555337
0.555311
0.55549
0.556281
0.556842
0.556967
0.556767
0.555957
0.555801
0.556188
0.556407
0.55559
0.553998
0.553773
0.554081
0.554224
0.554327
0.554691
0.555399
0.556614
0.558197
0.560234
0.562673
0.564905
0.566946
0.568799
0.570602
0.572835
0.575203
0.575768
0.576055
0.57607
0.575794
0.575385
0.575677
0.576157
0.576693
0.577897
0.5799
0.582264
0.584912
0.587721
0.590062
0.592084
0.59292
0.59277
0.591714
0.590715
0.591146
0.593043
0.596501
0.600508
0.604174
0.606435
0.607434
0.607377
0.607711
0.621985
0.705559
0.814901
0.985751
0.561604
0.561731
0.560887
0.560083
0.560196
0.559997
0.559611
0.562248
0.565242
0.565817
0.56567
0.56564
0.565179
0.563832
0.563565
0.563462
0.562281
0.559503
0.559461
0.560521
0.560586
0.559024
0.558392
0.55947
0.560586
0.560128
0.55916
0.559184
0.559766
0.560789
0.56158
0.561849
0.56186
0.562056
0.562314
0.562163
0.562047
0.56211
0.562327
0.561985
0.561009
0.560778
0.56093
0.56175
0.56219
0.561656
0.561388
0.561754
0.563931
0.566369
0.566509
0.566243
0.566412
0.567651
0.570228
0.57289
0.574861
0.576416
0.578
0.579853
0.581754
0.583401
0.584809
0.585774
0.586241
0.586336
0.586475
0.586328
0.585938
0.586067
0.586227
0.58647
0.58703
0.587764
0.589008
0.591042
0.593838
0.597049
0.599531
0.601218
0.602032
0.602389
0.602052
0.602227
0.602074
0.602427
0.604009
0.606429
0.609221
0.612507
0.614206
0.614151
0.614294
0.614578
0.615228
0.616774
0.61769
0.619418
0.620464
0.707303
0.571107
0.571286
0.571227
0.572229
0.574045
0.574006
0.573727
0.574074
0.573889
0.573593
0.573676
0.573896
0.574353
0.575388
0.575988
0.575892
0.574581
0.573182
0.573132
0.57328
0.574083
0.574182
0.573516
0.57372
0.576836
0.579048
0.578154
0.576983
0.576949
0.57724
0.577906
0.577896
0.577701
0.577733
0.578455
0.579088
0.579048
0.579676
0.582003
0.58308
0.583582
0.583972
0.584456
0.585249
0.586697
0.588556
0.589637
0.590771
0.592255
0.592596
0.592676
0.592987
0.594114
0.596066
0.597125
0.597429
0.597792
0.597896
0.598084
0.598612
0.598701
0.598384
0.598176
0.598152
0.598196
0.598365
0.597814
0.597317
0.597553
0.598538
0.599811
0.601026
0.602634
0.604791
0.607116
0.609341
0.610907
0.612252
0.613359
0.613495
0.61367
0.613583
0.613629
0.614127
0.615384
0.617452
0.619871
0.622008
0.623257
0.624885
0.625549
0.626075
0.626795
0.628501
0.630231
0.63124
0.631814
0.632147
0.633152
0.635046
0.597197
0.597478
0.597795
0.598502
0.599203
0.599249
0.59915
0.599186
0.600089
0.600647
0.600598
0.599906
0.599966
0.600508
0.600534
0.600024
0.599543
0.599619
0.601044
0.602109
0.602015
0.601656
0.60162
0.602004
0.603218
0.60354
0.603539
0.603545
0.604045
0.60437
0.604024
0.603316
0.603226
0.603513
0.604326
0.60556
0.606593
0.607148
0.607881
0.608225
0.608204
0.608084
0.608119
0.608462
0.608509
0.608434
0.608523
0.608654
0.608589
0.608427
0.608546
0.609221
0.609854
0.609686
0.608895
0.608344
0.608035
0.607802
0.607804
0.608031
0.608274
0.607918
0.607612
0.607944
0.609036
0.610745
0.612448
0.613854
0.615507
0.617717
0.620232
0.622564
0.624248
0.625359
0.626335
0.627521
0.62756
0.627467
0.627895
0.627909
0.627911
0.628305
0.629316
0.630514
0.631789
0.633121
0.634463
0.635865
0.63689
0.637817
0.63917
0.640769
0.641413
0.641621
0.641731
0.641975
0.641999
0.642381
0.644019
0.647481
0.621707
0.621935
0.62232
0.623129
0.623254
0.623141
0.623031
0.624264
0.624715
0.624715
0.624669
0.624141
0.622128
0.621127
0.621813
0.623267
0.623383
0.6233
0.623599
0.624469
0.624897
0.624699
0.624422
0.62387
0.623317
0.623433
0.624457
0.624679
0.62459
0.624508
0.624356
0.624179
0.624661
0.624879
0.624794
0.624967
0.624955
0.624514
0.624533
0.624708
0.624704
0.624794
0.625524
0.625852
0.625596
0.625601
0.62621
0.626323
0.626167
0.626132
0.626858
0.627758
0.627933
0.628229
0.628885
0.629782
0.630715
0.631677
0.632669
0.633768
0.635351
0.637331
0.639026
0.640432
0.641446
0.64206
0.642787
0.643969
0.645448
0.646069
0.646297
0.646287
0.646026
0.645462
0.64532
0.645041
0.644313
0.644228
0.644305
0.644185
0.644264
0.644787
0.645774
0.647037
0.648267
0.649435
0.650654
0.651815
0.653033
0.653486
0.653226
0.653059
0.653244
0.65298
0.652978
0.653505
0.655104
0.657583
0.65978
0.661196
0.649596
0.65011
0.651008
0.651076
0.651093
0.650157
0.649765
0.651556
0.652926
0.653389
0.653277
0.651456
0.650368
0.650538
0.651332
0.652141
0.652183
0.652176
0.652957
0.654527
0.654545
0.653456
0.653147
0.653163
0.653665
0.654886
0.654938
0.654763
0.654809
0.654543
0.65397
0.653578
0.653472
0.653991
0.654859
0.654964
0.655173
0.655824
0.655875
0.655751
0.655747
0.656158
0.65689
0.65777
0.658202
0.658099
0.658136
0.658859
0.659789
0.659868
0.659779
0.659866
0.660573
0.661157
0.661052
0.661019
0.661541
0.661868
0.662009
0.662363
0.662832
0.662948
0.662927
0.662848
0.662513
0.661749
0.661408
0.661281
0.660906
0.659877
0.659182
0.658752
0.65793
0.657115
0.656608
0.65643
0.656663
0.657422
0.658597
0.660068
0.661806
0.663579
0.665289
0.666735
0.667796
0.668729
0.669202
0.669005
0.668785
0.668333
0.667545
0.666785
0.666872
0.667397
0.668549
0.670414
0.671846
0.673236
0.673043
0.6722
0.683649
0.683744
0.683371
0.683749
0.684146
0.684148
0.683814
0.683772
0.684105
0.684441
0.684075
0.683831
0.684351
0.684097
0.683643
0.683925
0.684434
0.68388
0.683614
0.684547
0.685419
0.685034
0.683353
0.68291
0.68303
0.683929
0.684246
0.684072
0.683718
0.68372
0.684086
0.684216
0.683957
0.684058
0.684299
0.68421
0.68436
0.684662
0.684679
0.684329
0.683808
0.683646
0.68353
0.683537
0.683687
0.68368
0.683425
0.683177
0.683182
0.683252
0.683288
0.683177
0.682716
0.682355
0.682415
0.682447
0.682071
0.681514
0.681228
0.680921
0.680665
0.680691
0.680805
0.680717
0.680238
0.679812
0.679841
0.680003
0.680373
0.680973
0.681602
0.682217
0.682955
0.683911
0.684978
0.686101
0.687414
0.688623
0.689342
0.689659
0.690021
0.689959
0.689768
0.689182
0.688463
0.687492
0.686411
0.685513
0.684729
0.683965
0.683925
0.684338
0.685177
0.686286
0.687276
0.688164
0.688024
0.687661
0.687167
0.687009
0.71911
0.719367
0.71938
0.718617
0.717325
0.717246
0.717392
0.718576
0.718735
0.718322
0.716825
0.716866
0.718481
0.719419
0.718817
0.717817
0.717342
0.717231
0.717398
0.717579
0.717544
0.717136
0.717051
0.717194
0.71741
0.717242
0.717213
0.717574
0.717668
0.717476
0.717012
0.716963
0.716965
0.716856
0.716587
0.716251
0.71619
0.716286
0.71642
0.716379
0.716141
0.715973
0.715952
0.715913
0.715866
0.715776
0.715661
0.715557
0.715461
0.715332
0.715138
0.714937
0.71479
0.714752
0.714801
0.714884
0.71486
0.714715
0.714679
0.714699
0.71464
0.714611
0.714662
0.714595
0.714496
0.714527
0.714517
0.714357
0.714264
0.714239
0.71412
0.713817
0.713362
0.712855
0.712332
0.711838
0.711353
0.710715
0.709822
0.708736
0.707536
0.706446
0.705458
0.704516
0.703691
0.702926
0.703025
0.703322
0.703784
0.704472
0.705345
0.706041
0.706781
0.706966
0.706813
0.706248
0.705375
0.704551
0.703815
0.702683
0.745195
0.745392
0.745461
0.745007
0.744961
0.745383
0.74541
0.745316
0.745584
0.745451
0.74471
0.744374
0.744543
0.744812
0.74476
0.744763
0.744962
0.744948
0.744451
0.744043
0.744045
0.744146
0.744192
0.744211
0.74421
0.744098
0.743958
0.743752
0.743571
0.74364
0.743833
0.743821
0.743411
0.743067
0.74306
0.743055
0.742933
0.742799
0.742796
0.74278
0.742654
0.742449
0.742409
0.742371
0.742268
0.742129
0.741881
0.741601
0.741369
0.741174
0.740874
0.740569
0.740422
0.740333
0.740211
0.740002
0.739733
0.739457
0.739215
0.738991
0.738728
0.738414
0.73807
0.737709
0.737324
0.736899
0.736447
0.736
0.735539
0.735085
0.734618
0.734049
0.733339
0.732587
0.732029
0.731711
0.731465
0.731188
0.730782
0.730386
0.729787
0.72957
0.729621
0.729641
0.729328
0.729251
0.729375
0.729297
0.728965
0.72854
0.727942
0.727067
0.725963
0.724827
0.723679
0.722508
0.721447
0.720382
0.719651
0.718681
0.757594
0.757561
0.757518
0.757532
0.757644
0.757652
0.757614
0.757612
0.75755
0.757399
0.757346
0.757363
0.757429
0.757447
0.757399
0.757304
0.757242
0.757256
0.757314
0.757306
0.757251
0.757221
0.757241
0.75725
0.757183
0.757138
0.757178
0.757204
0.757171
0.757139
0.757163
0.757171
0.757161
0.757106
0.75705
0.757019
0.756956
0.756896
0.756892
0.756921
0.756945
0.756948
0.756915
0.756856
0.756824
0.756785
0.756696
0.756555
0.756392
0.756225
0.756048
0.755917
0.755846
0.755787
0.755714
0.75563
0.755508
0.755304
0.755205
0.755184
0.755143
0.755039
0.754874
0.754664
0.754393
0.754087
0.753817
0.753612
0.753429
0.753219
0.752957
0.752607
0.752193
0.751756
0.751484
0.751329
0.751176
0.750934
0.750587
0.75018
0.749746
0.749281
0.748831
0.748378
0.747876
0.747281
0.746679
0.746092
0.745472
0.744751
0.743972
0.743123
0.742276
0.741496
0.74076
0.740043
0.739315
0.73853
0.737909
0.736786
0.760556
0.76056
0.760573
0.760575
0.760576
0.760582
0.760598
0.760611
0.760631
0.760645
0.760644
0.760632
0.76062
0.760611
0.760605
0.760604
0.760559
0.760507
0.76051
0.76053
0.760626
0.760639
0.760664
0.760738
0.760765
0.760749
0.760716
0.760714
0.760715
0.760729
0.760747
0.760747
0.760741
0.76071
0.760669
0.760673
0.760688
0.760708
0.760777
0.760796
0.760797
0.760813
0.760848
0.760887
0.760897
0.760877
0.760856
0.760858
0.760833
0.760757
0.760672
0.760608
0.760542
0.760439
0.760383
0.760402
0.760405
0.760401
0.760407
0.760435
0.760494
0.760539
0.760525
0.76044
0.76024
0.760044
0.759995
0.75999
0.759981
0.75993
0.759815
0.759642
0.759406
0.759224
0.759191
0.759184
0.759177
0.759157
0.759081
0.758931
0.758782
0.758656
0.758542
0.758448
0.75835
0.758167
0.757889
0.757671
0.757486
0.757213
0.756806
0.756268
0.755666
0.755068
0.754511
0.753928
0.753292
0.752588
0.751913
0.750824
0.761261
0.761245
0.761138
0.761073
0.761101
0.761123
0.761103
0.761124
0.761175
0.761225
0.761236
0.761235
0.761217
0.761174
0.761167
0.761169
0.761193
0.761207
0.761218
0.761235
0.761202
0.761155
0.761149
0.761162
0.761212
0.761207
0.761155
0.761102
0.761061
0.760971
0.76086
0.760818
0.760772
0.760773
0.760838
0.760879
0.760881
0.76089
0.760958
0.760969
0.760941
0.760881
0.760874
0.760847
0.760776
0.760759
0.76076
0.7608
0.760869
0.760872
0.760816
0.76069
0.760526
0.760365
0.760328
0.760356
0.760363
0.760342
0.760398
0.760408
0.760389
0.760429
0.760462
0.760352
0.760229
0.760149
0.760121
0.760148
0.760155
0.760097
0.760005
0.759959
0.759961
0.759975
0.760035
0.760135
0.760246
0.760343
0.760428
0.760554
0.760711
0.760813
0.760929
0.760959
0.760932
0.760797
0.760548
0.760446
0.760372
0.760241
0.760056