/*--------------------------------*- C++ -*----------------------------------*\
  =========                 |
  \\      /  F ield         | OpenFOAM: The Open Source CFD Toolbox
   \\    /   O peration     | Website:  https://openfoam.org
    \\  /    A nd           | Version:  7
     \\/     M anipulation  |
\*---------------------------------------------------------------------------*/
FoamFile
{
    version     2.0;
    format      ascii;
    class       volScalarField;
    location    "8.7";
    object      p;
}
// * * * * * * * * * * * * * * * * * * * * * * * * * * * * * * * * * * * * * //

dimensions      [1 -1 -2 0 0 0 0];

internalField   nonuniform List<scalar> 
1750
(
0.252599
0.501688
0.611103
0.586945
0.591925
0.67626
0.759553
0.816307
0.897994
0.965205
0.0203445
0.100173
0.407671
0.667325
0.800043
0.849048
0.873771
0.898352
0.950384
0.975745
0.0197795
0.0211417
0.0448938
0.204194
0.511967
0.723013
0.87346
0.953597
0.961937
0.962338
0.032231
0.0363889
0.0441438
0.0525565
0.0873769
0.208688
0.405635
0.642814
0.779475
0.91358
0.0710858
0.0779492
0.0831574
0.0907787
0.100638
0.114089
0.119156
0.176947
0.316441
0.612297
0.131541
0.14084
0.145351
0.147872
0.156209
0.163501
0.171966
0.185852
0.191096
0.257454
0.245097
0.250631
0.254624
0.256703
0.255529
0.257015
0.259344
0.26236
0.263178
0.263683
0.456482
0.440697
0.424571
0.41176
0.402358
0.391381
0.380791
0.367009
0.353381
0.340802
0.767506
0.731023
0.694092
0.6563
0.623406
0.590562
0.560684
0.533658
0.512264
0.480724
1.02468
0.999298
0.96933
0.93328
0.893391
0.852605
0.806629
0.75996
0.7199
0.655352
1.07737
1.07457
1.06993
1.06294
1.05244
1.03698
1.01464
0.983427
0.948755
0.879166
1.05819
1.06111
1.06335
1.06302
1.06252
1.06163
1.05983
1.05613
1.05041
1.02758
1.01531
1.01988
1.02512
1.03088
1.03656
1.0416
1.04574
1.04878
1.04966
1.04848
1.00088
1.00145
1.00238
1.00387
1.00606
1.0092
1.01316
1.01831
1.02389
1.03202
1.00001
1.00003
1.00005
1.00011
1.00022
1.00046
1.00091
1.0018
1.00322
1.00813
0.0245646
0.0170316
0.0177708
0.029825
0.0604358
0.121023
0.243329
0.476056
0.809313
1.04363
1.07911
1.0537
1.01186
1.0006
1.00001
0.0234651
0.0168833
0.0193142
0.0367555
0.0742812
0.152438
0.323311
0.599502
0.918599
1.07692
1.08129
1.0452
1.00689
1.00024
1
0.0214166
0.0162659
0.021513
0.0392816
0.0831215
0.190704
0.395367
0.68888
0.982935
1.08828
1.08202
1.03518
1.00381
1.00011
1
0.0199563
0.0145099
0.0233497
0.0440473
0.104994
0.254643
0.476666
0.786977
1.04087
1.0952
1.07601
1.02421
1.00198
1.00005
1
0.0193093
0.0135868
0.0232842
0.0583161
0.152137
0.312533
0.56773
0.896259
1.08305
1.09837
1.06592
1.01585
1.00094
1.00002
1
0.0169992
0.0132392
0.0272008
0.0773579
0.191257
0.38198
0.700909
0.996137
1.10271
1.09925
1.05301
1.009
1.00038
1.00001
1
0.0162805
0.0127339
0.0403681
0.106332
0.249324
0.509792
0.837656
1.06239
1.10995
1.09337
1.03774
1.0043
1.00015
1
1
0.0131012
0.0182203
0.0550885
0.144218
0.339849
0.662145
0.95577
1.10129
1.11207
1.08009
1.02347
1.00192
1.00005
1
1
0.0104957
0.0230059
0.0705611
0.223653
0.499298
0.812019
1.04943
1.11885
1.11254
1.06367
1.01268
1.00075
1.00002
1
1
0.00725855
0.0292591
0.119382
0.352941
0.671935
0.95592
1.10561
1.12394
1.10156
1.04227
1.00574
1.00024
1.00001
1
1
0.00285281
0.0446722
0.242661
0.534311
0.847545
1.0646
1.12873
1.12519
1.08451
1.02417
1.00227
1.00008
1
1
1
0.00317537
0.113126
0.399759
0.748694
1.01249
1.1216
1.13456
1.11721
1.05763
1.01067
1.00065
1.00002
1
1
1
0.0290889
0.266954
0.633672
0.952873
1.10903
1.14008
1.13541
1.09503
1.03134
1.00378
1.00017
1
1
1
1
0.146659
0.499113
0.908015
1.09311
1.14257
1.1425
1.12097
1.06192
1.01372
1.00106
1.00004
1
1
1
1
0.533723
0.894088
1.09358
1.14398
1.14755
1.13926
1.09472
1.03362
1.00445
1.00022
1.00001
1
1
1
1
1.14882
1.15185
1.15582
1.15094
1.14379
1.1165
1.05913
1.01141
1.00046
1.00001
1
1
1
1
1
1.14843
1.15078
1.15497
1.14898
1.14165
1.1111
1.05283
1.01084
1.00085
1.00003
1
1
1
1
1
1.14896
1.15098
1.15627
1.14815
1.13561
1.09093
1.03097
1.00366
1.00013
1
1
1
1
1
1
1.15042
1.15105
1.15502
1.14434
1.12322
1.07475
1.02036
1.00173
1.00005
1
1
1
1
1
1
1.15215
1.15191
1.1537
1.14211
1.11326
1.05537
1.00998
1.00059
1.00001
1
1
1
1
1
1
1.1535
1.15261
1.15043
1.13664
1.09524
1.03457
1.00464
1.0002
1
1
1
1
1
1
1
1.15485
1.15097
1.14153
1.12477
1.07599
1.02166
1.00199
1.00006
1
1
1
1
1
1
1
1.15684
1.15141
1.1366
1.11218
1.05698
1.01076
1.00065
1.00002
1
1
1
1
1
1
1
1.15828
1.15264
1.13217
1.09332
1.0333
1.00433
1.00019
1
1
1
1
1
1
1
1
1.1572
1.14617
1.12159
1.06981
1.01831
1.00163
1.00005
1
1
1
1
1
1
1
1
1.1579
1.13918
1.10802
1.04781
1.00827
1.00045
1.00001
1
1
1
1
1
1
1
1
1.15995
1.13088
1.08233
1.02564
1.00275
1.0001
1
1
1
1
1
1
1
1
1
1.14891
1.11231
1.05732
1.01171
1.00078
1.00002
1
1
1
1
1
1
1
1
1
1.14001
1.09215
1.03136
1.00377
1.00016
1
1
1
1
1
1
1
1
1
1
1.13276
1.059
1.01052
1.00069
1.00002
1
1
1
1
1
1
1
1
1
1
1.1107
1.02232
1.00233
1.00011
1
1
1
1
1
1
1
1
1
1
1
1
1
1
1
1
1
1
1
1
1
1
1
1
1
1
1
1
1
1
1
1
1
1
1
1
1
1
1
1
1
1
1
1
1
1
1
1
1
1
1
1
1
1
1
1
1
1
1
1
1
1
1
1
1
1
1
1
1
1
1
1
1
1
1
1
1
1
1
1
1
1
1
1
1
1
1
1
1
1
1
1
1
1
1
1
1
1
1
1
1
1
1
1
1
1
1
1
1
1
1
1
1
1
1
1
1
1
1
1
1
1
1
1
1
1
1
1
1
1
1
1
1
1
1
1
1
1
1
1
1
1
1
1
1
1
1.46479
1
1
1
1
1
1
1
1
1
1.10157
1
1
1
1
1
1
1
1
1
1.01827
1
1
1
1
1
1
1
1
1
1.00371
1
1
1
1
1
1
1
1
1
1.00066
1
1
1
1
1
1
1
1
1
1.00009
1
1
1
1
1
1
1
1
1
1.00001
1
1
1
1
1
1
1
1
1
1
1
1
1
1
1
1
1
1
1
1
1
1
1
1
1
1
1
1
1
1
1
1
1
1
1
1
1
1
1
1
1
1
1
1
1
1
1
1
1
1
1
1
1
1
1
1
1
1
1
1
1
1
1
1
1
1
1
1
1
1
1
1
1
1
1
1
1
1
1
1
1
1
1
1
1
1
1
1
1
1
1
1
1
1
1
1
1
1
1
1
1
1
1
1
1
1
1
1
1
1
1
1
1
1
1
1
1
1
1
1
1
1
1
1
1
1
1
1
1
1
1
1
1
1
1
1
1
1
1
8.59928
5.55828
1.90287
1.00187
1.00032
1.00006
1.00001
1
1
1
1
1
1
1
1
1
1
1
1
1
8.9773
8.38363
7.57578
4.28734
1.1717
1.00003
1
1
1
1
1
1
1
1
1
1
1
1
1
1
8.66878
8.36764
8.47235
8.05876
5.75306
1.61702
0.999958
1
1
1
1
1
1
1
1
1
1
1
1
1
8.45273
8.30734
8.35522
8.32205
8.25551
6.52398
2.00966
0.999034
1
1
1
1
1
1
1
1
1
1
1
1
8.36329
8.27295
8.3122
8.23459
8.21206
8.13894
6.79433
2.22056
0.99826
1
1
1
1
1
1
1
1
1
1
1
8.29436
8.22295
8.24313
8.17874
8.18308
8.1751
8.0924
6.73862
2.13205
0.997982
1
1
1
1
1
1
1
1
1
1
8.22368
8.15925
8.17725
8.11738
8.11817
8.10492
8.08899
8.01719
6.44384
1.90825
0.997773
1.00001
1
1
1
1
1
1
1
1
8.1545
8.09892
8.11243
8.05806
8.06012
8.03204
7.9767
7.92228
7.79068
5.51833
1.5053
0.998338
1.00001
1
1
1
1
1
1
1
8.09483
8.04789
8.05059
7.99805
7.99396
7.95228
7.91434
7.85519
7.88502
7.66033
4.3768
1.18211
0.999243
1
1
1
1
1
1
1
8.04118
7.99554
7.98945
7.94126
7.93355
7.89154
7.85281
7.80537
7.78915
7.77988
7.23036
3.04787
1.0313
0.999908
1
1
1
1
1
1
7.98591
7.9412
7.93213
7.88812
7.8824
7.84553
7.81535
7.79808
7.78253
7.77946
7.78316
6.71263
2.10765
1.00074
1
1
1
1
1
1
7.92244
7.88043
7.8713
7.83587
7.83462
7.79665
7.7807
7.76123
7.74821
7.74919
7.76181
7.6358
5.47234
1.47322
0.998696
0.99999
1
1
1
1
7.84432
7.81061
7.80751
7.77916
7.77014
7.73068
7.71582
7.68953
7.66447
7.65581
7.61569
7.56714
7.06468
3.42495
1.07786
0.999667
0.99998
1
1
1
7.72779
7.67958
7.65487
7.6002
7.56645
7.51256
7.48379
7.44688
7.41982
7.40817
7.35477
7.31355
7.25979
6.39568
2.1124
1.00718
1
1
1
1
7.32323
7.07479
7.00415
6.92846
6.89708
6.88278
6.88784
6.9036
6.93124
6.95973
6.98109
7.01323
7.05645
6.87917
4.29777
1.17175
0.995607
0.999768
0.999998
1
2.43003
3.64029
4.27521
4.79051
5.154
5.43
5.6737
5.87732
6.05165
6.21846
6.33155
6.47524
6.57899
6.62924
6.40727
3.18171
1.1522
1.00133
1
1
0.758199
1.88677
2.56072
3.1471
3.72086
4.14146
4.53624
4.84464
5.13869
5.39005
5.60022
5.83075
6.0285
6.23366
6.39163
5.58142
2.31608
1.06133
1.00053
1
0.792612
1.3492
1.70961
2.15263
2.6467
3.16272
3.59725
4.00472
4.36164
4.64089
4.95785
5.21139
5.50434
5.75245
6.07764
5.90471
4.35682
1.58466
1.01385
1.00008
0.870414
1.08304
1.23156
1.65072
2.03168
2.45284
2.86401
3.29567
3.67322
4.03309
4.32075
4.64101
4.96165
5.25741
5.528
5.69923
5.43469
2.98819
1.16943
1.0021
0.966323
0.986309
1.00798
1.24539
1.57064
1.94157
2.32022
2.70807
3.08623
3.49122
3.77772
4.13729
4.4741
4.80563
5.07874
5.32973
5.39499
4.46438
1.81912
1.02798
1.07261
1.01263
1.01583
1.14265
1.29917
1.56766
1.90787
2.26629
2.64966
3.0166
3.38667
3.6989
4.07493
4.3985
4.6616
4.90387
5.22464
4.99575
3.03108
1.21284
1.0864
1.03609
1.04953
1.07739
1.15292
1.36308
1.63433
1.93268
2.29389
2.62791
3.01186
3.30414
3.68927
4.01764
4.25616
4.50356
4.88115
4.97094
3.98135
1.77537
1.0779
1.05108
1.05077
1.02763
1.03591
1.18356
1.39665
1.66942
1.96704
2.29503
2.62874
2.95402
3.29518
3.66436
3.92315
4.20368
4.53777
4.84153
4.43851
2.85212
1.092
1.07278
1.05149
1.02004
1.00992
1.09239
1.21141
1.4411
1.7096
2.02676
2.34238
2.69934
2.99351
3.36338
3.63921
3.90995
4.21246
4.58376
4.52612
4.35679
1.10675
1.09372
1.06584
1.0258
1.02641
1.07532
1.13829
1.31386
1.53838
1.81515
2.11301
2.4648
2.76777
3.06846
3.36837
3.60947
3.88505
4.25721
4.70484
5.97839
1.09594
1.08348
1.06481
1.04952
1.04842
1.04669
1.07041
1.21062
1.40052
1.63358
1.91121
2.19529
2.53084
2.787
3.0952
3.36538
3.65866
3.95175
4.91636
7.76201
1.08001
1.07322
1.07345
1.06798
1.05219
1.02652
1.02285
1.09451
1.24742
1.45865
1.72572
1.97496
2.28561
2.58149
2.87429
3.15541
3.45207
3.77094
5.19131
9.65923
1.07454
1.07583
1.09029
1.08095
1.05327
1.02749
1.0201
1.06797
1.16288
1.34214
1.57973
1.85035
2.09903
2.39275
2.65816
2.95362
3.20431
3.65201
5.74356
11.1502
1.07342
1.07916
1.0881
1.08621
1.06152
1.03416
1.0263
1.06386
1.11932
1.26866
1.46154
1.71856
1.94275
2.22567
2.45357
2.7426
2.97457
3.58611
6.17374
11.6142
1.0718
1.08072
1.08144
1.08087
1.06071
1.0397
1.03575
1.04339
1.0624
1.18768
1.34752
1.57757
1.78086
2.03801
2.30148
2.51819
2.85043
3.67671
6.63417
11.6621
0.919678
1.04562
1.06503
1.07019
1.06223
1.04991
1.04321
1.03269
1.03426
1.11991
1.26005
1.45589
1.67191
1.85932
2.16489
2.37645
2.72494
4.03694
7.01014
11.2458
0.75442
0.930605
1.02137
1.05491
1.06992
1.06293
1.05155
1.03568
1.03339
1.10063
1.20122
1.35711
1.58386
1.75519
1.98666
2.255
2.7042
4.59651
7.03895
10.5004
0.63069
0.796967
0.937931
1.02179
1.06454
1.06944
1.05372
1.03481
1.03024
1.07449
1.14719
1.26671
1.44633
1.66204
1.83545
2.10216
2.86158
5.22887
7.0263
9.59037
0.55281
0.679131
0.832525
0.959429
1.0389
1.06378
1.0523
1.0374
1.0344
1.04953
1.08405
1.1971
1.32311
1.51763
1.71575
2.02068
3.25476
5.72578
6.81145
8.57938
0.536843
0.604214
0.726807
0.866789
0.981355
1.04355
1.0528
1.04613
1.04141
1.03593
1.04218
1.12881
1.235
1.38263
1.5928
2.13356
3.89333
6.00307
6.53854
7.49512
0.560122
0.560033
0.640447
0.772929
0.894022
0.996904
1.04507
1.04623
1.03606
1.01808
1.01652
1.06425
1.15832
1.29956
1.56488
2.50026
4.35514
5.86583
6.1704
6.5178
0.621953
0.567912
0.587193
0.678301
0.802451
0.924481
1.01125
1.03689
1.0284
1.01019
1.00904
1.0302
1.08371
1.22849
1.68443
3.00611
4.57352
5.65096
5.683
5.66165
0.688145
0.609579
0.584839
0.61191
0.708943
0.833998
0.94461
1.00735
1.01887
1.0076
1.00355
1.0105
1.03708
1.29195
2.09213
3.56337
4.45779
5.25112
5.11025
4.95533
0.775979
0.685799
0.600915
0.60767
0.642735
0.73326
0.85103
0.950573
0.997233
1.00233
0.99895
1.0037
1.07982
1.64115
2.81896
3.76402
4.21051
4.70875
4.60754
4.46117
0.916368
0.848115
0.745411
0.653344
0.63172
0.652353
0.72341
0.82508
0.914543
0.974288
1.0341
1.20808
1.67012
2.40324
3.04284
3.51105
3.65695
3.84943
3.84357
3.75956
)
;

boundaryField
{
    inlet
    {
        type            fixedValue;
        value           uniform 1;
    }
    outlet
    {
        type            zeroGradient;
    }
    airfoil
    {
        type            zeroGradient;
    }
    top
    {
        type            symmetryPlane;
    }
    bottom
    {
        type            symmetryPlane;
    }
    defaultFaces
    {
        type            empty;
    }
}


// ************************************************************************* //
