/*--------------------------------*- C++ -*----------------------------------*\
  =========                 |
  \\      /  F ield         | OpenFOAM: The Open Source CFD Toolbox
   \\    /   O peration     | Website:  https://openfoam.org
    \\  /    A nd           | Version:  7
     \\/     M anipulation  |
\*---------------------------------------------------------------------------*/
FoamFile
{
    version     2.0;
    format      ascii;
    class       volScalarField;
    location    "1";
    object      p;
}
// * * * * * * * * * * * * * * * * * * * * * * * * * * * * * * * * * * * * * //

dimensions      [1 -1 -2 0 0 0 0];

internalField   nonuniform List<scalar> 
90000
(
0.0641967
0.0874266
0.112135
0.139799
0.157689
0.174876
0.193539
0.209411
0.227718
0.243779
0.258499
0.278088
0.296388
0.313759
0.337269
0.362466
0.386618
0.415301
0.445773
0.478962
0.513756
0.548819
0.5867
0.623996
0.662698
0.699
0.736917
0.768513
0.799617
0.824078
0.838476
0.849249
0.84777
0.840215
0.83098
0.825774
0.814897
0.805181
0.79729
0.789278
0.779572
0.768423
0.754564
0.742915
0.732424
0.722056
0.709689
0.696829
0.694794
0.700195
0.711347
0.726004
0.740557
0.75476
0.77195
0.788906
0.805962
0.808834
0.800269
0.783753
0.758724
0.738652
0.726055
0.723723
0.731289
0.747549
0.763981
0.774502
0.781717
0.78222
0.775102
0.764719
0.759073
0.769398
0.779475
0.779286
0.802242
0.817048
0.820038
0.829667
0.843021
0.860198
0.907608
0.967765
0.957844
0.965142
0.969311
0.929725
0.894232
0.856146
0.809159
0.780546
0.817846
0.848189
0.848758
0.849167
0.852715
0.855229
0.858903
0.865631
0.0423361
0.0423115
0.0422823
0.0422539
0.0422425
0.0422509
0.042263
0.0422628
0.0422511
0.0422339
0.0422143
0.0421908
0.0421656
0.0421538
0.0421159
0.0423173
0.0431742
0.0454728
0.0498204
0.056434
0.0661387
0.0790235
0.0947556
0.117471
0.142332
0.176729
0.214997
0.264366
0.317769
0.382439
0.448396
0.514152
0.573284
0.629436
0.673051
0.716725
0.743108
0.762885
0.776771
0.787712
0.780729
0.773102
0.759519
0.752409
0.751488
0.750104
0.747973
0.749853
0.756561
0.76796
0.777
0.780798
0.781909
0.786682
0.779704
0.772392
0.761539
0.750952
0.744279
0.741464
0.742806
0.746964
0.749108
0.759166
0.768446
0.77305
0.771226
0.767128
0.758418
0.75668
0.759607
0.763296
0.767709
0.780081
0.791439
0.781994
0.776909
0.799752
0.823937
0.841588
0.86097
0.884145
0.916697
0.950265
0.959348
0.975148
0.989393
0.936151
0.902125
0.862042
0.816059
0.78694
0.818755
0.849536
0.849736
0.851397
0.858469
0.863405
0.868887
0.877812
0.0425946
0.042592
0.0425818
0.0425633
0.0425502
0.0425407
0.0425221
0.0424997
0.0424735
0.0424413
0.0424024
0.0423649
0.0423418
0.0423377
0.04234
0.0423391
0.0423509
0.0423355
0.0423072
0.0422676
0.0422332
0.0422186
0.0422216
0.0422271
0.0422222
0.0422367
0.0422691
0.0423149
0.0423349
0.0439662
0.0497923
0.0623034
0.0844171
0.114624
0.155212
0.199583
0.257903
0.31978
0.386531
0.457061
0.523568
0.588237
0.647054
0.698462
0.755115
0.790248
0.823562
0.853806
0.86397
0.866384
0.86027
0.843041
0.813251
0.776041
0.733894
0.693923
0.676683
0.680978
0.698772
0.723106
0.750106
0.772127
0.791617
0.800053
0.791785
0.774995
0.751227
0.726921
0.716598
0.724373
0.749146
0.773671
0.786743
0.793138
0.789207
0.775279
0.764435
0.78995
0.831902
0.85687
0.871212
0.880828
0.904927
0.935543
0.959961
0.977834
0.986147
0.942364
0.903282
0.865676
0.821253
0.803975
0.83617
0.86034
0.857831
0.858394
0.861672
0.871126
0.879291
0.880499
0.0424343
0.0424372
0.0424246
0.0423921
0.0423593
0.0423247
0.0422866
0.0422545
0.0422392
0.0422278
0.0422071
0.04219
0.0421935
0.0422209
0.0422411
0.0422527
0.042282
0.0423213
0.0423325
0.0423241
0.0423153
0.0423172
0.0423304
0.0423504
0.0423798
0.0424354
0.0425108
0.0425488
0.0425816
0.042582
0.0425779
0.0425733
0.0425624
0.0425475
0.0425413
0.0425152
0.0424135
0.0423535
0.045162
0.0537154
0.0756044
0.105591
0.153174
0.212942
0.277825
0.361583
0.445249
0.520158
0.586963
0.6338
0.682635
0.710978
0.724065
0.726768
0.720369
0.727218
0.734578
0.738652
0.743081
0.750097
0.758436
0.76506
0.776097
0.770296
0.762072
0.758587
0.755018
0.749238
0.743934
0.751448
0.763252
0.772712
0.777969
0.78068
0.784821
0.782303
0.768373
0.783405
0.826384
0.858851
0.86706
0.876823
0.901094
0.920742
0.948992
0.976099
0.971203
0.94677
0.906912
0.867525
0.82475
0.801696
0.829752
0.866401
0.869473
0.868703
0.86812
0.867976
0.867025
0.873504
0.0424232
0.0424336
0.0424203
0.0423645
0.0423187
0.0423016
0.0422922
0.0422947
0.042311
0.0423185
0.0423139
0.0423128
0.042325
0.0423447
0.0423557
0.0423614
0.0423895
0.0424182
0.042419
0.042414
0.0423996
0.0423849
0.0423876
0.0424096
0.042474
0.0425787
0.0426514
0.0426591
0.0426539
0.0426493
0.0426493
0.0426563
0.0426626
0.0426553
0.0426312
0.0425795
0.0424941
0.0425021
0.0425355
0.0425165
0.0423675
0.0421614
0.04214
0.0422239
0.0423251
0.0448547
0.053181
0.076315
0.113846
0.167108
0.234808
0.330078
0.437453
0.549304
0.655119
0.742536
0.768884
0.776659
0.777538
0.772108
0.762636
0.753661
0.735583
0.704102
0.700095
0.718967
0.738439
0.753019
0.777054
0.784997
0.779424
0.761773
0.747884
0.75096
0.765127
0.778516
0.78115
0.784927
0.820378
0.844024
0.853294
0.868253
0.900825
0.928607
0.963539
0.992122
0.984351
0.958565
0.917187
0.868826
0.833017
0.811471
0.823811
0.853471
0.863815
0.865272
0.86988
0.872933
0.87389
0.88062
0.0426097
0.0426029
0.0425786
0.0425212
0.0424689
0.0424471
0.0424418
0.0424465
0.0424607
0.0424616
0.04246
0.0424661
0.0424801
0.0424838
0.0424822
0.0424764
0.0424529
0.0424431
0.0424447
0.0424432
0.0424156
0.0423705
0.0423683
0.0424029
0.0425377
0.0426662
0.0426776
0.042671
0.0426515
0.0426096
0.0425653
0.042569
0.0426067
0.0426187
0.042601
0.0424809
0.0423955
0.0424638
0.0425452
0.0425257
0.0423471
0.0421121
0.0420822
0.0421455
0.0422395
0.0423302
0.0424614
0.0425412
0.0425355
0.0425573
0.0425625
0.0425906
0.0531191
0.0846927
0.155761
0.255301
0.366473
0.45904
0.553434
0.607649
0.6428
0.681631
0.682666
0.690885
0.706058
0.741686
0.763388
0.777795
0.796934
0.794273
0.772902
0.752955
0.754675
0.766458
0.775505
0.778677
0.782442
0.793431
0.820317
0.835182
0.855642
0.885347
0.902999
0.923756
0.973177
0.991985
0.98749
0.96256
0.92907
0.87129
0.830917
0.81243
0.83005
0.861848
0.874505
0.875649
0.876597
0.877153
0.874969
0.879405
0.0425961
0.0425919
0.0425743
0.0425607
0.042562
0.0425649
0.0425594
0.0425382
0.0425259
0.0425251
0.042531
0.0425336
0.0425321
0.0425293
0.0425286
0.0425264
0.0425005
0.0424485
0.0424332
0.042401
0.0422386
0.0421215
0.0421267
0.0422203
0.0424653
0.0425285
0.0425309
0.0425165
0.0424611
0.0423736
0.042352
0.0424314
0.0425402
0.0425474
0.0425015
0.0423323
0.0422927
0.0424034
0.0424647
0.0424159
0.0421721
0.041979
0.0419702
0.0420569
0.0421369
0.0421465
0.0422026
0.0422999
0.0423519
0.0424618
0.042602
0.0425966
0.042409
0.042059
0.0419006
0.0418897
0.0455047
0.0653353
0.10274
0.176188
0.26719
0.379159
0.497424
0.626197
0.689937
0.73247
0.759206
0.778755
0.784204
0.766844
0.733472
0.74272
0.767445
0.786343
0.793526
0.78676
0.776669
0.785
0.805397
0.829867
0.85711
0.881588
0.903672
0.949042
0.973004
0.976502
0.974204
0.956181
0.926861
0.878388
0.837417
0.824273
0.831907
0.856717
0.873183
0.872107
0.870064
0.869355
0.870657
0.876927
0.0425134
0.0425065
0.0425063
0.0425147
0.0425173
0.0425139
0.0425079
0.0425093
0.0425125
0.0425217
0.0425303
0.042532
0.0425247
0.0425109
0.0425069
0.0425011
0.0424724
0.0424374
0.0424094
0.0423009
0.0419997
0.0418673
0.0418806
0.0420024
0.0422941
0.0424191
0.042422
0.0423838
0.0422288
0.0421354
0.0421866
0.0424009
0.0425043
0.0424964
0.0424075
0.0422554
0.0422614
0.0423633
0.0423765
0.0423139
0.0420574
0.0418291
0.0418232
0.0419394
0.041985
0.0419843
0.0420282
0.0421276
0.0422593
0.0424419
0.0425928
0.0426067
0.0424697
0.0419655
0.0415609
0.0415513
0.0417118
0.0418629
0.0418459
0.041717
0.0412259
0.045703
0.0797209
0.149539
0.261802
0.370009
0.490588
0.592765
0.667653
0.692537
0.725549
0.762026
0.799924
0.808043
0.808545
0.794702
0.78139
0.786149
0.805349
0.828763
0.863052
0.903782
0.93529
0.962327
0.966638
0.96867
0.967555
0.954094
0.92827
0.889324
0.842422
0.828756
0.837572
0.863255
0.880421
0.88316
0.878453
0.873335
0.869676
0.872936
0.0424435
0.0424338
0.0424223
0.0424087
0.0423956
0.0423834
0.0423631
0.0423384
0.0423444
0.0423761
0.0423903
0.0424
0.0424182
0.0424288
0.0424216
0.0423343
0.0421124
0.042068
0.0421178
0.0421277
0.04198
0.0417377
0.0417082
0.0417599
0.0420034
0.0423072
0.0423379
0.0422684
0.0420459
0.042009
0.0421963
0.0425689
0.042602
0.0425492
0.0423634
0.042263
0.0422816
0.0423197
0.0423171
0.0422615
0.0420309
0.0417187
0.0416676
0.041767
0.0418408
0.0418505
0.0418954
0.0420174
0.0422399
0.042454
0.0425688
0.0425789
0.0424504
0.0419263
0.0413188
0.0411692
0.0412199
0.0412153
0.0411909
0.041091
0.0409044
0.0405855
0.0400229
0.0396178
0.0396
0.0430382
0.0818752
0.165861
0.307252
0.494403
0.679535
0.76078
0.799559
0.809854
0.810644
0.801627
0.793808
0.791803
0.803181
0.821185
0.85854
0.900541
0.942802
0.957848
0.957262
0.962149
0.963871
0.953473
0.930765
0.896405
0.852813
0.846883
0.858537
0.871996
0.882002
0.88018
0.87158
0.862967
0.857907
0.862303
0.0422961
0.0422521
0.0422093
0.0421889
0.0421801
0.0421764
0.0421661
0.0421411
0.0421411
0.0421556
0.0422021
0.0423265
0.0423968
0.0423971
0.0423048
0.0419769
0.0418834
0.0420022
0.0421978
0.0421755
0.0418687
0.0415643
0.0415344
0.0415739
0.0418226
0.0422285
0.0422761
0.0421597
0.0419357
0.0419356
0.042221
0.0426616
0.042699
0.0426426
0.0424261
0.0423261
0.0423471
0.0423468
0.0423185
0.0422568
0.0420965
0.0417658
0.0415461
0.0415615
0.0416732
0.0417315
0.0417949
0.0419565
0.0422952
0.0424387
0.0424698
0.0424801
0.0423652
0.0419149
0.0412566
0.0406231
0.0403512
0.0403579
0.0404706
0.0405924
0.0405856
0.0403866
0.0398308
0.0395097
0.0395377
0.0398847
0.0401968
0.0401312
0.0404847
0.0769701
0.189598
0.382215
0.586447
0.704477
0.767223
0.817575
0.823504
0.809929
0.803657
0.811155
0.845539
0.896656
0.935831
0.944696
0.950199
0.968378
0.971923
0.964152
0.940989
0.907048
0.866615
0.858028
0.867956
0.880738
0.882274
0.88207
0.876427
0.864526
0.857239
0.860723
0.0421529
0.0420957
0.0420684
0.0420624
0.0420588
0.0420621
0.0420743
0.0421011
0.0421719
0.042267
0.0422821
0.0422851
0.0422834
0.0422409
0.0420343
0.0419413
0.0419806
0.0422137
0.0422707
0.0421561
0.041686
0.0414542
0.0414511
0.0414924
0.0417287
0.0421666
0.0422271
0.042082
0.0418584
0.0418672
0.0421806
0.0426445
0.0426857
0.0426318
0.0424248
0.0423492
0.0423928
0.0424166
0.0423952
0.0423099
0.0421378
0.041817
0.0414173
0.0412799
0.0413269
0.0414652
0.0416379
0.0419323
0.0422582
0.0422845
0.0421059
0.0419299
0.0417562
0.0413294
0.0405074
0.0398302
0.0396769
0.0397134
0.0399197
0.0402762
0.0403418
0.0402485
0.039846
0.0396217
0.0396724
0.0399672
0.0402596
0.040597
0.0409126
0.0414035
0.0419291
0.0531969
0.118852
0.32522
0.596375
0.776175
0.805392
0.799518
0.804327
0.814779
0.848915
0.902117
0.931421
0.937889
0.970433
0.98118
0.974634
0.967584
0.947685
0.915796
0.881249
0.864875
0.868606
0.877478
0.879008
0.876184
0.871684
0.86272
0.855564
0.860243
0.0420656
0.0420941
0.0421323
0.0421509
0.0421527
0.0421553
0.042174
0.0422278
0.0422795
0.0422989
0.0422923
0.0422516
0.0422083
0.0421782
0.0421523
0.0421395
0.0421805
0.0422809
0.0422742
0.0420188
0.0415395
0.041437
0.0414422
0.0414832
0.0417251
0.0420867
0.0421075
0.0418811
0.0416878
0.0417259
0.0421058
0.0424977
0.0425232
0.0424753
0.0422922
0.0422447
0.0423357
0.0424341
0.0424299
0.0423391
0.0420899
0.0415326
0.0410049
0.0407002
0.0405688
0.0405877
0.0408039
0.0413363
0.0415224
0.0415325
0.0414035
0.0410886
0.0407326
0.0402504
0.0396898
0.0393275
0.0392666
0.0393295
0.0396074
0.0401487
0.0403268
0.0403758
0.0402134
0.0402336
0.040406
0.0408775
0.0418959
0.043441
0.0445811
0.0454447
0.0465942
0.0470011
0.0472491
0.05033
0.118194
0.338328
0.583896
0.73659
0.76139
0.776464
0.802265
0.881235
0.949483
0.983859
1.01477
1.00292
0.986477
0.970518
0.948217
0.914523
0.882783
0.871544
0.875741
0.886696
0.890292
0.885837
0.879199
0.872021
0.867384
0.865731
0.0422424
0.0422527
0.0422693
0.0422816
0.0422839
0.0422896
0.0423107
0.0423123
0.042307
0.0423163
0.0423195
0.0422955
0.0422782
0.0422758
0.0422532
0.0422153
0.0422191
0.0422333
0.0421592
0.0417413
0.0414083
0.0413849
0.0413905
0.0414299
0.0417053
0.0419119
0.0418235
0.0414186
0.0413427
0.0415142
0.0420645
0.0422434
0.042238
0.0421777
0.0419902
0.0418933
0.0419919
0.0421478
0.0421253
0.0419133
0.0413881
0.040865
0.0405143
0.0400372
0.0395121
0.0394007
0.03941
0.0394853
0.0397512
0.04021
0.0404921
0.0404982
0.0404123
0.0401108
0.0396281
0.0392671
0.0391807
0.0392291
0.0394798
0.0402544
0.0407492
0.0410038
0.0413053
0.0416278
0.0420823
0.0428953
0.0442501
0.0455101
0.0466135
0.0475943
0.0487498
0.0503276
0.0521573
0.0527219
0.0525111
0.0544937
0.151311
0.368372
0.544134
0.638112
0.671572
0.748542
0.871554
0.926669
0.954523
0.991574
1.00797
0.988014
0.95368
0.919589
0.897475
0.883818
0.884158
0.889804
0.888798
0.880037
0.872699
0.870654
0.873512
0.872725
0.0421711
0.042168
0.0421647
0.0421532
0.0421428
0.0421321
0.0421149
0.0421248
0.0422089
0.0422494
0.0422487
0.0422157
0.0421867
0.0421902
0.0421868
0.0421415
0.041979
0.0417028
0.0413185
0.0410757
0.0410428
0.0409992
0.0409764
0.0410027
0.0411806
0.0412348
0.0410597
0.0407032
0.0407014
0.040965
0.0415482
0.0417191
0.0416666
0.0414406
0.0411009
0.0409622
0.0410338
0.0411222
0.0411072
0.0410034
0.040766
0.0404999
0.0401647
0.0395022
0.0387838
0.0386431
0.0386495
0.0387193
0.0389855
0.0395293
0.0401646
0.0403127
0.0403228
0.040217
0.0400097
0.0397217
0.0395231
0.0395799
0.0400414
0.0412605
0.0430123
0.044197
0.0446666
0.0448133
0.0449842
0.0454546
0.0465176
0.0475014
0.0483635
0.0492198
0.0502131
0.0517525
0.053588
0.0551445
0.0566919
0.0574776
0.0578735
0.0623765
0.111155
0.17386
0.195009
0.224502
0.306725
0.445971
0.59569
0.785726
0.917621
0.943761
0.949106
0.926234
0.904449
0.889961
0.890471
0.897416
0.902131
0.89953
0.887739
0.874564
0.871334
0.869486
0.0415276
0.0414804
0.0414306
0.0413663
0.0412466
0.0411752
0.0411973
0.0413456
0.0416523
0.0417351
0.0417316
0.0416274
0.041561
0.0415425
0.0414513
0.0411417
0.0406961
0.0405592
0.0405542
0.0404964
0.0402266
0.0400442
0.0400411
0.040121
0.0403331
0.0403537
0.0401294
0.0399117
0.0399412
0.0401971
0.040305
0.0402851
0.0401575
0.039884
0.0397678
0.0398281
0.040178
0.0405176
0.0405545
0.0405391
0.0404734
0.0403128
0.0400145
0.0393601
0.0386663
0.038513
0.0385129
0.0385649
0.0387937
0.0393383
0.0399998
0.0403447
0.0406957
0.0412814
0.0419725
0.0424721
0.0426041
0.0426741
0.0430372
0.0441601
0.0459878
0.0472897
0.0478295
0.0479873
0.0482103
0.0488513
0.0502031
0.0521601
0.0534271
0.0536269
0.0533136
0.0533185
0.0542742
0.0563593
0.0588626
0.0607461
0.0623771
0.0641325
0.0656224
0.0675173
0.0712912
0.0761442
0.0828603
0.0890372
0.128225
0.23105
0.458827
0.759933
0.869801
0.904875
0.91192
0.89154
0.891117
0.89175
0.893729
0.891873
0.879825
0.872544
0.872915
0.873303
0.0401722
0.0402424
0.0402514
0.0402178
0.040134
0.0401412
0.0404166
0.0407686
0.0407957
0.04078
0.0407242
0.0405929
0.0404472
0.0402875
0.0400515
0.0399547
0.040014
0.0401564
0.0401596
0.0400064
0.0396818
0.0396108
0.039635
0.039731
0.039749
0.0396615
0.0393573
0.0390047
0.0389119
0.0389146
0.0389534
0.0390188
0.0390617
0.0391011
0.0391861
0.0394153
0.0399204
0.0403582
0.0404525
0.0404429
0.0403929
0.0402536
0.0399848
0.0398937
0.0398389
0.0395622
0.0392961
0.0391466
0.0391506
0.0394746
0.0403882
0.0422122
0.0445665
0.0456616
0.0458727
0.0460659
0.0464435
0.0467859
0.0468753
0.0470637
0.0477984
0.0489502
0.0501028
0.0510871
0.0520406
0.0530318
0.0542115
0.0559337
0.0574558
0.0580567
0.0585569
0.0592723
0.0601788
0.0612857
0.0625149
0.0634858
0.0645229
0.0660731
0.068528
0.0722667
0.0769847
0.0815525
0.0858726
0.0916601
0.0964462
0.0984136
0.106064
0.212638
0.490227
0.785725
0.882673
0.902065
0.920325
0.914545
0.903229
0.884673
0.86399
0.856713
0.862406
0.876742
0.0401
0.0400931
0.0400544
0.0399737
0.0399569
0.0399628
0.0400507
0.040162
0.0401769
0.0401761
0.0401574
0.0401192
0.0400423
0.039864
0.039742
0.0397531
0.0399244
0.0401401
0.0401453
0.0399764
0.0396718
0.039632
0.0396721
0.0397281
0.0397112
0.0395513
0.0390612
0.0386649
0.0386308
0.0386409
0.0386858
0.0387911
0.0389107
0.0390194
0.0391674
0.0394578
0.039889
0.0402649
0.0405804
0.0408078
0.0410041
0.0414134
0.0420891
0.0428864
0.0436157
0.0438172
0.0437577
0.0436799
0.0436787
0.0439304
0.0448955
0.0465999
0.0484447
0.0493357
0.0493812
0.0493714
0.0494708
0.0497159
0.0498185
0.0500487
0.0507003
0.0522433
0.0542826
0.0558519
0.0566723
0.0568891
0.057134
0.0580065
0.0594539
0.0609488
0.0625085
0.0643018
0.0665954
0.0678271
0.0676284
0.0667554
0.0663934
0.0669867
0.0692722
0.0733306
0.0779413
0.0825002
0.085971
0.0915867
0.0982395
0.102522
0.106196
0.110117
0.132967
0.313191
0.68516
0.84906
0.904537
0.896382
0.908824
0.896315
0.865501
0.855743
0.857722
0.87211
0.0394566
0.0394563
0.0394385
0.0393754
0.0393246
0.0393193
0.0393786
0.0396945
0.0398866
0.0398926
0.039899
0.0399028
0.0398396
0.039713
0.0397037
0.039744
0.039949
0.0401729
0.0402013
0.0400985
0.0398849
0.0398966
0.0401413
0.0403148
0.0402626
0.0399007
0.0397782
0.0398418
0.0400588
0.0401994
0.0402714
0.0403332
0.0405029
0.0408207
0.0411897
0.0415651
0.0420705
0.0428721
0.0438483
0.0448447
0.0459316
0.0472622
0.0480842
0.0482084
0.0482743
0.0484404
0.0486756
0.0489045
0.0491076
0.0493095
0.049314
0.0493256
0.0497024
0.0508181
0.0521471
0.0528298
0.0531353
0.053517
0.0541667
0.0550505
0.0561366
0.0576527
0.0594729
0.0607983
0.0608347
0.060478
0.0604243
0.0608397
0.0622915
0.0643727
0.066029
0.0672819
0.0693429
0.0709574
0.0711952
0.0709276
0.0710759
0.071975
0.073805
0.0753295
0.0781605
0.0834114
0.0902158
0.0958406
0.102614
0.11006
0.114065
0.118234
0.123019
0.126989
0.203303
0.474933
0.766735
0.841681
0.872354
0.863957
0.84461
0.860857
0.864535
0.87166
0.0397503
0.0398337
0.0399251
0.0400183
0.040124
0.0402673
0.0404357
0.0406338
0.0409258
0.0412043
0.0413832
0.0415159
0.0416722
0.0418874
0.0421247
0.0423539
0.0426536
0.043023
0.0433485
0.0436551
0.0439309
0.044296
0.044691
0.0448091
0.0448624
0.0449727
0.0451871
0.0455058
0.0459002
0.0463119
0.0464709
0.046412
0.0463633
0.0463689
0.0464773
0.0467563
0.0470903
0.0474222
0.0478646
0.0485747
0.0494238
0.0503329
0.051213
0.0515779
0.0517978
0.0519723
0.0520789
0.0522062
0.0524795
0.0526222
0.0522984
0.0519487
0.0521094
0.0532925
0.0558047
0.0581107
0.0590909
0.0594229
0.0597262
0.0601581
0.0606746
0.0614008
0.062596
0.0639141
0.0645521
0.0650208
0.0657594
0.0668174
0.0684302
0.0702072
0.0708467
0.0707661
0.0713828
0.0730245
0.0744751
0.0762799
0.0781098
0.0796116
0.081368
0.0828148
0.0849914
0.0904806
0.0987696
0.106245
0.111303
0.115861
0.12036
0.123968
0.130343
0.13373
0.133383
0.153681
0.251801
0.465356
0.667792
0.750924
0.811126
0.830161
0.838061
0.858312
0.0444765
0.0446395
0.0447929
0.0449247
0.0450453
0.0451896
0.0453661
0.0455879
0.0458613
0.0461172
0.0463427
0.0465566
0.0467611
0.0469558
0.0471583
0.0473888
0.0476565
0.0479985
0.048391
0.0487081
0.0489671
0.0493083
0.0495119
0.0496302
0.0498006
0.0500769
0.0503523
0.0507648
0.0511188
0.0511469
0.051023
0.0507122
0.0506487
0.0506792
0.0509364
0.0511607
0.0510564
0.0508821
0.0508845
0.0510518
0.0515394
0.0522577
0.0532116
0.0542587
0.0552206
0.0559609
0.0563781
0.0567147
0.0571426
0.0577513
0.0584789
0.0590327
0.0593962
0.059906
0.0610886
0.0629767
0.0642256
0.0644886
0.0644977
0.0644793
0.0645067
0.0647199
0.0655551
0.0672274
0.0691647
0.0708691
0.0719509
0.0728419
0.0743151
0.0755281
0.075421
0.075032
0.0750205
0.076082
0.0782724
0.0810211
0.0832931
0.0842861
0.0856871
0.0890715
0.0927649
0.0968643
0.102532
0.108656
0.114203
0.118128
0.122177
0.127211
0.134743
0.139192
0.140523
0.140187
0.139867
0.150536
0.200931
0.327906
0.523482
0.653787
0.747018
0.832478
0.04932
0.0493214
0.0493338
0.0493485
0.0493818
0.049468
0.0496814
0.0501106
0.0505279
0.0507313
0.0508725
0.0510258
0.0511863
0.0513372
0.051497
0.0516734
0.0518758
0.0521395
0.0524502
0.0527599
0.0530382
0.0533829
0.0537227
0.0541429
0.0548305
0.0552998
0.0553668
0.0554075
0.0555436
0.0557722
0.0559757
0.056047
0.0560948
0.0562894
0.0569032
0.0575324
0.0575301
0.0572739
0.0571903
0.0572247
0.0574245
0.0578697
0.0584615
0.059342
0.0605958
0.0619437
0.0629262
0.0635336
0.063748
0.0638009
0.0640217
0.064559
0.0650424
0.0653563
0.0657778
0.0667394
0.0679891
0.0688783
0.069454
0.0699159
0.0705099
0.07132
0.0723207
0.0736778
0.0752934
0.0764738
0.0766337
0.0768194
0.0776585
0.0789492
0.0796096
0.0804087
0.0814446
0.0830228
0.0853736
0.0868134
0.0876025
0.0881674
0.0897288
0.093368
0.0968342
0.0997739
0.103912
0.108663
0.1144
0.119493
0.123142
0.128365
0.136527
0.143693
0.147567
0.148971
0.149086
0.150434
0.15322
0.155212
0.173342
0.249898
0.392252
0.649715
0.0549036
0.055016
0.0550634
0.0551189
0.0551875
0.0552469
0.0552822
0.0553051
0.0553058
0.0552953
0.0553196
0.0554282
0.0556212
0.0558522
0.0560777
0.0563206
0.0565038
0.0567331
0.0570307
0.0573484
0.0576871
0.0580071
0.0583202
0.0586964
0.0592197
0.0598482
0.0603549
0.060722
0.0610564
0.0614842
0.0621227
0.0627753
0.0630056
0.0631647
0.0634618
0.0635203
0.0633284
0.063089
0.0630913
0.0632136
0.0636099
0.0642038
0.0648957
0.065524
0.0661345
0.0670136
0.0682964
0.0688828
0.0687755
0.068513
0.068509
0.0689316
0.0700077
0.0709881
0.0716154
0.0723255
0.073566
0.0750745
0.0761483
0.0767862
0.0774012
0.0782904
0.0791467
0.0796786
0.0803042
0.0806954
0.0806961
0.0808266
0.0814482
0.0830483
0.085577
0.0878234
0.0893996
0.0909165
0.0925439
0.092491
0.0924939
0.0929544
0.0940865
0.0966174
0.100221
0.103826
0.10893
0.115251
0.120181
0.126487
0.133509
0.136179
0.138955
0.147029
0.154593
0.156518
0.156553
0.156409
0.159456
0.164086
0.16889
0.174537
0.180916
0.297908
0.0611142
0.0611959
0.0612651
0.0613561
0.0614816
0.0616447
0.0618776
0.0620025
0.0619767
0.0617965
0.0617169
0.0617787
0.0620469
0.0622689
0.0624473
0.0626926
0.0629039
0.0629821
0.0630064
0.0630776
0.0633468
0.0638933
0.0646946
0.0657119
0.0660814
0.066103
0.066134
0.0662833
0.0666917
0.0674663
0.0685673
0.0696009
0.0698567
0.0697583
0.0696855
0.0697354
0.0698913
0.0700591
0.0702084
0.0704697
0.0710537
0.0720265
0.0729603
0.0731316
0.0730847
0.0732368
0.0741791
0.0755239
0.0759227
0.076022
0.076131
0.076466
0.0774447
0.0783702
0.0787114
0.0790959
0.0800868
0.0815502
0.0820887
0.0821067
0.0821907
0.082688
0.0836141
0.0843553
0.0851165
0.086235
0.0877638
0.0891745
0.0903199
0.0917628
0.0935802
0.0948769
0.0955788
0.0964771
0.0971404
0.0978299
0.0990622
0.100823
0.102002
0.102769
0.105951
0.112235
0.119809
0.128219
0.135095
0.139349
0.14509
0.15233
0.153501
0.155046
0.160708
0.162917
0.163139
0.163138
0.165395
0.17107
0.177171
0.184294
0.192304
0.211444
0.0702559
0.0700553
0.0696927
0.0695149
0.0695019
0.0696068
0.0701088
0.0702848
0.0701753
0.0699458
0.0699701
0.0702616
0.0703876
0.0703614
0.070387
0.0706655
0.070736
0.0707084
0.0707001
0.0707487
0.0710913
0.0716954
0.0723108
0.072631
0.0727287
0.072786
0.0729379
0.0730575
0.0732083
0.0736328
0.0741818
0.0747289
0.0752666
0.0755388
0.0757029
0.0759027
0.0762016
0.0765039
0.0766909
0.0769009
0.0772788
0.0778535
0.078594
0.078953
0.078896
0.0789435
0.0794092
0.0806211
0.0820316
0.0828202
0.0828269
0.0827427
0.0828583
0.0833066
0.0837633
0.0843896
0.0855686
0.0871686
0.0882191
0.0886533
0.089043
0.0896722
0.0908764
0.0927715
0.0947782
0.0961394
0.0970648
0.0977233
0.098202
0.0990251
0.0999158
0.100399
0.100558
0.100906
0.102255
0.104612
0.106909
0.109227
0.111488
0.113084
0.115265
0.118996
0.124562
0.132374
0.140518
0.145546
0.150207
0.158357
0.162639
0.163731
0.167101
0.169626
0.171814
0.172873
0.174475
0.178736
0.184527
0.192202
0.201233
0.222435
0.0758367
0.0758289
0.075916
0.0761563
0.0765266
0.076685
0.0766734
0.0764843
0.0763056
0.0762964
0.0766473
0.0777477
0.0779504
0.0777036
0.0772158
0.0771586
0.0772155
0.0774034
0.0778235
0.0784301
0.078549
0.0784785
0.0785132
0.0789002
0.0795509
0.0801029
0.0807103
0.0812119
0.0813383
0.081398
0.0815801
0.0818005
0.0819532
0.0821648
0.0826513
0.0835138
0.0839911
0.0839566
0.0838722
0.0839353
0.0844052
0.0849481
0.0853897
0.086399
0.0875409
0.0877812
0.0879691
0.0884903
0.0898655
0.0916904
0.0922298
0.0923274
0.0924495
0.0928141
0.093617
0.094576
0.095381
0.0963627
0.0977019
0.099024
0.099735
0.0999676
0.100199
0.100824
0.102035
0.103122
0.103234
0.103215
0.103282
0.103745
0.104915
0.106377
0.10806
0.109778
0.11197
0.114321
0.11579
0.116699
0.118025
0.119868
0.122714
0.126215
0.129244
0.13375
0.141571
0.148294
0.153153
0.159947
0.16717
0.169216
0.171096
0.175029
0.179786
0.184242
0.1866
0.190125
0.195208
0.202556
0.210833
0.23171
0.0854021
0.0854122
0.0854563
0.085608
0.0857901
0.0861661
0.0866762
0.0867687
0.0865849
0.0860948
0.0859276
0.0859092
0.0859491
0.0861306
0.086439
0.086898
0.0873148
0.0876747
0.0881625
0.0883687
0.088331
0.0882445
0.0883165
0.0889422
0.0893826
0.0894492
0.0896052
0.0901192
0.0907103
0.0914349
0.0922694
0.0924404
0.0924899
0.0927226
0.0932374
0.0940411
0.09474
0.095146
0.0955519
0.0960369
0.0963956
0.0964007
0.0962311
0.0960753
0.0961807
0.0965934
0.0971423
0.0975958
0.0981717
0.0992214
0.100416
0.101157
0.101428
0.101625
0.101923
0.102152
0.102378
0.102666
0.103283
0.104332
0.105127
0.105524
0.105802
0.105956
0.106404
0.107737
0.109545
0.111012
0.112299
0.113624
0.115536
0.117826
0.11951
0.120985
0.122801
0.123569
0.123354
0.123139
0.123548
0.125636
0.129621
0.134944
0.140597
0.143491
0.146236
0.15191
0.157117
0.162014
0.171229
0.177806
0.178734
0.181447
0.186135
0.192469
0.196849
0.200621
0.20658
0.214523
0.223415
0.244436
0.0950299
0.0950291
0.0950811
0.0953018
0.095856
0.0960934
0.0960691
0.0956682
0.095348
0.0953764
0.0955053
0.0957301
0.0961312
0.0965894
0.0967899
0.0967766
0.0967958
0.0972201
0.0976127
0.0975831
0.0975182
0.0975295
0.0978165
0.0983691
0.0983471
0.0982737
0.0987027
0.0997765
0.0999516
0.0997848
0.0997253
0.10013
0.101148
0.101312
0.101367
0.101859
0.102308
0.10268
0.103627
0.104378
0.104525
0.104777
0.10546
0.105848
0.105905
0.106003
0.106147
0.106088
0.10607
0.106338
0.107136
0.108009
0.108723
0.109609
0.110839
0.112016
0.112794
0.113317
0.113813
0.114446
0.115481
0.116942
0.118524
0.119793
0.120678
0.121642
0.123105
0.124701
0.125814
0.126548
0.127631
0.128423
0.12815
0.128159
0.1288
0.129854
0.130521
0.131479
0.133394
0.136206
0.139387
0.144145
0.151493
0.159486
0.166061
0.17141
0.177225
0.181587
0.184099
0.189569
0.195173
0.197908
0.199452
0.201538
0.206879
0.211849
0.217084
0.224981
0.234969
0.258488
0.107005
0.107388
0.107424
0.107316
0.106809
0.106494
0.106522
0.106902
0.107753
0.108047
0.108052
0.108085
0.10827
0.108595
0.108775
0.108763
0.108711
0.108714
0.10889
0.109285
0.109622
0.109879
0.110312
0.110873
0.111076
0.111165
0.11141
0.11175
0.111708
0.11164
0.11207
0.113019
0.113385
0.113742
0.114378
0.114518
0.114399
0.114533
0.115689
0.116752
0.116779
0.116639
0.116807
0.117353
0.117923
0.11869
0.119678
0.120471
0.121149
0.122071
0.122876
0.12296
0.122969
0.123137
0.12374
0.124573
0.12544
0.126526
0.127823
0.128683
0.128914
0.129041
0.129441
0.130373
0.131501
0.131888
0.132058
0.132446
0.132882
0.133351
0.134119
0.135221
0.135851
0.136607
0.137781
0.139972
0.143357
0.147359
0.149823
0.150563
0.151277
0.153556
0.158715
0.167056
0.175739
0.18193
0.187285
0.193747
0.197997
0.199924
0.202233
0.205207
0.209549
0.213431
0.218222
0.224147
0.230209
0.238265
0.247812
0.272692
0.120873
0.120896
0.120694
0.120255
0.120128
0.120144
0.120243
0.120413
0.120514
0.120584
0.120658
0.120799
0.120931
0.120952
0.120998
0.121161
0.121477
0.121866
0.122075
0.12214
0.122304
0.122608
0.122649
0.122695
0.122896
0.123197
0.123718
0.124327
0.124839
0.125556
0.126083
0.126135
0.126188
0.126464
0.12724
0.12816
0.128633
0.128697
0.12868
0.128802
0.128815
0.128577
0.128586
0.128847
0.129743
0.131293
0.131877
0.131999
0.131947
0.132009
0.132772
0.133861
0.134788
0.135665
0.135691
0.135211
0.134944
0.1352
0.13627
0.137918
0.139233
0.139692
0.139729
0.139887
0.140777
0.142224
0.143609
0.145008
0.146431
0.147872
0.149355
0.15092
0.152935
0.155066
0.156833
0.157667
0.158229
0.15921
0.160161
0.161066
0.162302
0.164866
0.168605
0.172696
0.178533
0.185234
0.190599
0.195888
0.202372
0.206404
0.209533
0.212683
0.217478
0.224502
0.230184
0.236523
0.244122
0.253665
0.263395
0.287091
0.135413
0.135494
0.135544
0.135496
0.135474
0.13552
0.135738
0.135892
0.135876
0.135814
0.135822
0.136019
0.136198
0.136201
0.136198
0.136284
0.136727
0.137161
0.137361
0.137438
0.1376
0.13796
0.138411
0.138817
0.139085
0.139284
0.139738
0.140249
0.140268
0.140224
0.14034
0.140733
0.141182
0.141716
0.142194
0.142256
0.142185
0.142245
0.142747
0.14364
0.144548
0.145324
0.145781
0.146078
0.146401
0.14673
0.146903
0.146759
0.146551
0.146846
0.148357
0.149205
0.149569
0.150563
0.15166
0.152038
0.152586
0.153614
0.153871
0.15401
0.154652
0.156139
0.157918
0.158454
0.158589
0.159114
0.160196
0.161314
0.162247
0.163141
0.164313
0.164719
0.164849
0.16508
0.165918
0.166987
0.167388
0.167166
0.167664
0.170048
0.173957
0.17829
0.183957
0.188636
0.191539
0.195852
0.200432
0.203426
0.207387
0.213131
0.220657
0.228567
0.234392
0.240191
0.246661
0.253001
0.26003
0.269538
0.280809
0.306472
0.153339
0.153354
0.153435
0.153458
0.153399
0.153318
0.153337
0.153435
0.153459
0.153448
0.153435
0.153499
0.153771
0.154096
0.1542
0.154252
0.15432
0.154509
0.154845
0.155008
0.155204
0.155577
0.156063
0.156325
0.156398
0.156527
0.156776
0.157149
0.157859
0.158524
0.158644
0.158671
0.158774
0.159144
0.159785
0.160292
0.160718
0.161154
0.161299
0.161201
0.16104
0.16104
0.161166
0.161432
0.161831
0.162548
0.163449
0.164363
0.165509
0.16645
0.166512
0.166025
0.165564
0.165676
0.166282
0.167369
0.168744
0.169662
0.169753
0.169761
0.169975
0.170567
0.171813
0.172758
0.173143
0.17345
0.174006
0.174574
0.175161
0.175705
0.176642
0.177871
0.178655
0.17915
0.179757
0.181411
0.184289
0.187546
0.190319
0.191462
0.192399
0.193927
0.19766
0.204658
0.212446
0.218359
0.223704
0.228616
0.232605
0.236537
0.239698
0.243661
0.248772
0.254309
0.260829
0.268221
0.276167
0.285235
0.295967
0.324111
0.1742
0.174149
0.174174
0.174224