/*--------------------------------*- C++ -*----------------------------------*\
  =========                 |
  \\      /  F ield         | OpenFOAM: The Open Source CFD Toolbox
   \\    /   O peration     | Website:  https://openfoam.org
    \\  /    A nd           | Version:  7
     \\/     M anipulation  |
\*---------------------------------------------------------------------------*/
FoamFile
{
    version     2.0;
    format      ascii;
    class       volVectorField;
    location    "9.2";
    object      U;
}
// * * * * * * * * * * * * * * * * * * * * * * * * * * * * * * * * * * * * * //

dimensions      [0 1 -1 0 0 0 0];

internalField   nonuniform List<vector> 
1750
(
(2.59348 -0.422749 0)
(2.57048 -0.185418 0)
(2.57941 -0.0978376 0)
(2.58479 -0.0999901 0)
(2.59193 -0.0743628 0)
(2.59545 0.0363999 0)
(2.62908 0.0864285 0)
(2.653 0.0893857 0)
(2.64292 0.0628865 0)
(2.65103 0.0415456 0)
(2.7535 -0.979421 0)
(2.76321 -0.869461 0)
(2.70762 -0.622983 0)
(2.79971 -0.59234 0)
(2.66311 -0.216574 0)
(2.68756 -0.046299 0)
(2.67203 0.124694 0)
(2.6551 0.103501 0)
(2.63393 0.0508304 0)
(2.68842 0.0276152 0)
(3.03193 -1.30494 0)
(3.0841 -1.32343 0)
(3.08969 -1.36933 0)
(3.0936 -1.34839 0)
(3.05787 -1.13015 0)
(3.01364 -0.811087 0)
(2.98062 -0.481237 0)
(2.91114 -0.248171 0)
(2.84938 -0.0845142 0)
(2.78817 0.017034 0)
(3.09332 -1.34663 0)
(3.11196 -1.33779 0)
(3.16296 -1.2762 0)
(3.18915 -1.20821 0)
(3.16261 -1.22115 0)
(3.1562 -1.20213 0)
(3.1656 -1.15525 0)
(3.11671 -0.892971 0)
(3.06661 -0.679137 0)
(2.95099 -0.269308 0)
(3.14836 -1.03075 0)
(3.16986 -0.979292 0)
(3.19048 -0.90943 0)
(3.1877 -0.897442 0)
(3.15183 -0.909539 0)
(3.12301 -0.967797 0)
(3.15289 -0.969934 0)
(3.15916 -0.99357 0)
(3.16056 -0.976132 0)
(3.1092 -0.766264 0)
(3.15998 -0.833008 0)
(3.14141 -0.809505 0)
(3.15174 -0.809079 0)
(3.17063 -0.832295 0)
(3.16685 -0.852789 0)
(3.14841 -0.851606 0)
(3.13833 -0.852638 0)
(3.14431 -0.844498 0)
(3.17259 -0.816477 0)
(3.14064 -0.810014 0)
(3.1414 -0.466971 0)
(3.13289 -0.568746 0)
(3.12669 -0.578132 0)
(3.12817 -0.570247 0)
(3.14669 -0.553364 0)
(3.14795 -0.563345 0)
(3.11276 -0.59396 0)
(3.10516 -0.608763 0)
(3.1068 -0.629266 0)
(3.11011 -0.662274 0)
(3.05566 -0.238966 0)
(3.05212 -0.19848 0)
(3.06495 -0.275955 0)
(3.05877 -0.37396 0)
(3.05438 -0.403574 0)
(3.0727 -0.393658 0)
(3.08747 -0.434808 0)
(3.07265 -0.496606 0)
(3.06167 -0.526365 0)
(3.07135 -0.555101 0)
(2.9299 -0.0384409 0)
(2.95149 -0.0713082 0)
(2.9656 -0.0451339 0)
(2.96975 -0.0891644 0)
(2.98723 -0.197001 0)
(2.99385 -0.238014 0)
(3.0112 -0.232387 0)
(3.02174 -0.268786 0)
(3.01958 -0.320481 0)
(3.02669 -0.356729 0)
(2.78578 0.299433 0)
(2.80855 0.244766 0)
(2.85147 0.160341 0)
(2.88027 0.107799 0)
(2.89056 0.0736864 0)
(2.91873 -0.0139105 0)
(2.93959 -0.0661924 0)
(2.95913 -0.0960869 0)
(2.97439 -0.147173 0)
(2.99094 -0.217847 0)
(2.69348 0.509242 0)
(2.70972 0.477389 0)
(2.72796 0.442354 0)
(2.76507 0.381549 0)
(2.80455 0.304046 0)
(2.82735 0.253407 0)
(2.86415 0.167489 0)
(2.89187 0.103361 0)
(2.91671 0.0415866 0)
(2.94572 -0.0422248 0)
(2.69758 0.519408 0)
(2.70056 0.504424 0)
(2.7026 0.498223 0)
(2.71069 0.495125 0)
(2.72627 0.479798 0)
(2.7439 0.455898 0)
(2.77144 0.410943 0)
(2.80061 0.355141 0)
(2.83443 0.281814 0)
(2.88089 0.173986 0)
(2.82472 0.333395 0)
(2.79207 0.371163 0)
(2.75258 0.445621 0)
(2.74592 0.452208 0)
(2.7431 0.463258 0)
(2.74365 0.466759 0)
(2.74633 0.465397 0)
(2.75276 0.456296 0)
(2.76315 0.43995 0)
(2.80334 0.38723 0)
(2.96614 0.069927 0)
(2.95056 0.0932723 0)
(2.91004 0.165403 0)
(2.88608 0.210431 0)
(2.84353 0.291647 0)
(2.82515 0.332906 0)
(2.80324 0.39296 0)
(2.78514 0.406977 0)
(2.79996 0.42876 0)
(2.794 0.414773 0)
(2.99895 0.00160944 0)
(2.9977 0.00316384 0)
(2.99358 0.00861218 0)
(2.98689 0.0167359 0)
(2.97072 0.0375615 0)
(2.94666 0.0624143 0)
(2.90729 0.111108 0)
(2.86048 0.145364 0)
(2.81207 0.202004 0)
(2.74845 0.227201 0)
(2.6376 -1.04196 0)
(2.69896 -1.02768 0)
(2.96457 -1.19808 0)
(3.08362 -1.4101 0)
(3.15842 -1.14082 0)
(3.18876 -0.802738 0)
(3.13349 -0.368907 0)
(3.03775 -0.254559 0)
(2.88629 0.113333 0)
(2.75196 0.369998 0)
(2.6794 0.523304 0)
(2.69853 0.52436 0)
(2.83076 0.334436 0)
(2.97989 0.0386186 0)
(2.9995 0.000781296 0)
(2.5589 -1.07728 0)
(2.69588 -1.09987 0)
(3.04436 -1.22375 0)
(3.13817 -1.35219 0)
(3.21405 -1.06033 0)
(3.17169 -0.514442 0)
(3.11167 -0.38063 0)
(3.00345 -0.106466 0)
(2.81741 0.253752 0)
(2.70589 0.441775 0)
(2.67062 0.531203 0)
(2.72737 0.473953 0)
(2.89312 0.19435 0)
(2.99089 0.0165653 0)
(2.99983 0.000237059 0)
(2.47932 -1.11462 0)
(2.70759 -1.14917 0)
(3.08829 -1.18141 0)
(3.16012 -1.29665 0)
(3.18805 -0.789583 0)
(3.11597 -0.436834 0)
(3.07571 -0.396301 0)
(2.88034 0.0890341 0)
(2.80177 0.276662 0)
(2.66675 0.514256 0)
(2.66674 0.533916 0)
(2.77109 0.388731 0)
(2.94182 0.112076 0)
(2.99717 0.00570494 0)
(2.99995 7.00641e-05 0)
(2.44526 -1.17857 0)
(2.72845 -1.2556 0)
(3.14422 -1.15861 0)
(3.12278 -1.1843 0)
(3.09188 -0.630627 0)
(3.09784 -0.548777 0)
(3.06112 -0.232309 0)
(2.88966 0.133898 0)
(2.75786 0.364039 0)
(2.64737 0.560655 0)
(2.65542 0.540756 0)
(2.79437 0.383522 0)
(2.96381 0.0791228 0)
(2.99891 0.00233728 0)
(2.99999 2.31169e-05 0)
(2.42055 -1.23405 0)
(2.77859 -1.4359 0)
(3.02864 -1.24277 0)
(3.044 -1.15411 0)
(3.09773 -0.73217 0)
(3.09712 -0.520978 0)
(2.93809 0.0625587 0)
(2.88072 0.13896 0)
(2.69391 0.483854 0)
(2.6314 0.591704 0)
(2.67054 0.573817 0)
(2.83781 0.315934 0)
(2.98436 0.0330819 0)
(2.99965 0.000742303 0)
(3 6.98393e-06 0)
(2.38349 -1.2452 0)
(2.715 -1.4715 0)
(2.98143 -1.26654 0)
(3.09999 -1.01744 0)
(3.13127 -0.709449 0)
(3.08271 -0.187313 0)
(2.94592 0.123085 0)
(2.79783 0.341309 0)
(2.65662 0.5384 0)
(2.61891 0.600289 0)
(2.69202 0.525898 0)
(2.91976 0.160524 0)
(2.99447 0.0120443 0)
(2.9999 0.000206947 0)
(3 1.8436e-06 0)
(2.28924 -1.21037 0)
(2.66712 -1.4848 0)
(2.9671 -1.1915 0)
(3.13868 -0.623243 0)
(3.16769 -0.449845 0)
(2.96574 0.0706913 0)
(2.90432 0.128209 0)
(2.69762 0.482235 0)
(2.61955 0.582737 0)
(2.62884 0.585233 0)
(2.79445 0.360454 0)
(2.95326 0.0921664 0)
(2.9982 0.00367476 0)
(2.99997 4.94072e-05 0)
(3 4.37587e-07 0)
(2.24202 -1.2137 0)
(2.57698 -1.49754 0)
(3.02905 -0.785053 0)
(3.10319 -0.44528 0)
(3.079 -0.273622 0)
(2.94548 0.0562496 0)
(2.81 0.316597 0)
(2.65329 0.535282 0)
(2.60443 0.599467 0)
(2.66571 0.518462 0)
(2.85093 0.273404 0)
(2.98464 0.0328568 0)
(2.99962 0.000772979 0)
(2.99999 1.03129e-05 0)
(3 8.93782e-08 0)
(2.18474 -1.02271 0)
(2.56177 -1.50115 0)
(3.01361 -0.568901 0)
(3.05752 -0.556703 0)
(3.00484 -0.15453 0)
(2.89894 0.160302 0)
(2.70693 0.481309 0)
(2.60259 0.607252 0)
(2.59471 0.614904 0)
(2.72004 0.464956 0)
(2.91573 0.171927 0)
(2.99591 0.00905586 0)
(2.99992 0.000175618 0)
(3 1.97963e-06 0)
(3 1.64612e-08 0)
(1.95712 -0.733699 0)
(2.62246 -1.18701 0)
(3.0195 -0.75387 0)
(3.03027 -0.345604 0)
(2.92408 0.130642 0)
(2.78161 0.429008 0)
(2.64898 0.563572 0)
(2.57907 0.641526 0)
(2.59636 0.642123 0)
(2.76715 0.421927 0)
(2.97385 0.0565221 0)
(2.99906 0.0023428 0)
(2.99999 3.34085e-05 0)
(3 3.61859e-07 0)
(3 2.90311e-09 0)
(1.69741 -0.347459 0)
(2.67027 -0.846256 0)
(3.03591 -0.608539 0)
(2.92553 0.136382 0)
(2.84286 0.3246 0)
(2.69088 0.547624 0)
(2.58903 0.638378 0)
(2.56768 0.657287 0)
(2.65867 0.542466 0)
(2.9063 0.185167 0)
(2.99208 0.0185784 0)
(2.99982 0.000417888 0)
(3 5.56204e-06 0)
(3 5.85072e-08 0)
(3 4.58996e-10 0)
(1.43167 0.441814 0)
(2.74354 -0.500494 0)
(2.98996 -0.0282928 0)
(2.85972 0.314703 0)
(2.7351 0.472824 0)
(2.62271 0.61472 0)
(2.57014 0.662995 0)
(2.5651 0.668699 0)
(2.79265 0.35715 0)
(2.96816 0.0710392 0)
(2.99882 0.0030821 0)
(2.99998 5.31782e-05 0)
(3 6.85293e-07 0)
(3 7.18787e-09 0)
(3 5.66456e-11 0)
(1.51199 0.806096 0)
(2.87892 -0.124808 0)
(2.88798 0.30186 0)
(2.76184 0.463543 0)
(2.63024 0.612988 0)
(2.57388 0.664939 0)
(2.56074 0.672223 0)
(2.6802 0.489349 0)
(2.88344 0.20981 0)
(2.99136 0.0187263 0)
(2.99981 0.000443108 0)
(3 6.74313e-06 0)
(3 7.67183e-08 0)
(3 7.41033e-10 0)
(3 5.49045e-12 0)
(2.06037 0.630709 0)
(2.9244 0.327746 0)
(2.78821 0.476227 0)
(2.63392 0.636009 0)
(2.57518 0.675587 0)
(2.56445 0.672549 0)
(2.57588 0.619919 0)
(2.79635 0.32694 0)
(2.97911 0.0441391 0)
(2.99936 0.00159999 0)
(2.99998 3.49488e-05 0)
(3 4.93876e-07 0)
(3 5.73741e-09 0)
(3 5.50671e-11 0)
(3 3.99142e-13 0)
(2.42336 0.644035 0)
(2.77149 0.567359 0)
(2.62476 0.659045 0)
(2.57139 0.696502 0)
(2.56272 0.688455 0)
(2.54947 0.685219 0)
(2.73442 0.398118 0)
(2.93716 0.116637 0)
(2.99759 0.00532649 0)
(2.99996 9.77786e-05 0)
(3 1.15623e-06 0)
(3 1.18779e-08 0)
(3 1.05355e-10 0)
(3 8.19974e-13 0)
(3 6.12357e-15 0)
(2.52791 0.693246 0)
(2.54404 0.696901 0)
(2.55983 0.705759 0)
(2.55561 0.708646 0)
(2.5691 0.684246 0)
(2.58641 0.665476 0)
(2.8976 0.15565 0)
(3.00603 -0.0107289 0)
(3.00048 -0.000731838 0)
(3.00001 -1.51758e-05 0)
(3 -1.09417e-07 0)
(3 -7.434e-10 0)
(3 -5.30708e-12 0)
(3 -4.00934e-14 0)
(3 4.30764e-16 0)
(2.52396 0.683401 0)
(2.5488 0.677383 0)
(2.56146 0.706932 0)
(2.54262 0.737488 0)
(2.58313 0.669353 0)
(2.68513 0.504034 0)
(2.92145 0.125567 0)
(2.99756 0.00384455 0)
(2.99998 4.20109e-05 0)
(3 2.84719e-07 0)
(3 1.90676e-09 0)
(3 1.35548e-11 0)
(3 9.486e-14 0)
(3 -4.28951e-16 0)
(3 5.83633e-16 0)
(2.53329 0.693437 0)
(2.55238 0.665088 0)
(2.55732 0.717874 0)
(2.52704 0.772529 0)
(2.60944 0.636854 0)
(2.82262 0.286304 0)
(2.99098 0.0132022 0)
(2.99995 7.55032e-05 0)
(3 1.32099e-07 0)
(3 6.23377e-10 0)
(3 6.42922e-12 0)
(3 1.07422e-13 0)
(3 -4.23427e-15 0)
(3 -1.37361e-15 0)
(3 7.9189e-16 0)
(2.53 0.704592 0)
(2.55357 0.666316 0)
(2.55479 0.716584 0)
(2.53346 0.777707 0)
(2.6076 0.634332 0)
(2.88043 0.172688 0)
(2.99707 0.00449476 0)
(2.99999 9.39623e-06 0)
(3 3.31018e-08 0)
(3 5.14942e-11 0)
(3 2.50655e-12 0)
(3 6.88314e-14 0)
(3 -2.99418e-15 0)
(3 9.43242e-17 0)
(3 1.82724e-15 0)
(2.52439 0.71637 0)
(2.5299 0.705843 0)
(2.55035 0.720312 0)
(2.56297 0.728692 0)
(2.74868 0.392311 0)
(2.97402 0.032966 0)
(2.99983 0.000178105 0)
(3 7.75635e-07 0)
(3 -1.17513e-09 0)
(3 2.18443e-11 0)
(3 2.22122e-12 0)
(3 5.78315e-14 0)
(3 -2.94514e-15 0)
(3 8.61572e-16 0)
(3 1.82817e-15 0)
(2.51338 0.740127 0)
(2.50718 0.753386 0)
(2.54349 0.726665 0)
(2.62336 0.624817 0)
(2.86847 0.200518 0)
(2.99589 0.00616483 0)
(2.99998 2.64344e-05 0)
(3 -6.79444e-08 0)
(3 1.6855e-10 0)
(3 1.85259e-11 0)
(3 2.26263e-12 0)
(3 6.05448e-15 0)
(3 -2.9301e-15 0)
(3 1.18037e-15 0)
(3 1.63492e-15 0)
(2.51518 0.728819 0)
(2.45441 0.807093 0)
(2.54957 0.732975 0)
(2.66339 0.560637 0)
(2.95563 0.0642679 0)
(2.99963 0.000466239 0)
(3 -6.4171e-07 0)
(3 3.43692e-09 0)
(3 1.33871e-10 0)
(3 8.02294e-12 0)
(3 6.18784e-15 0)
(3 -3.92353e-15 0)
(3 -2.81935e-15 0)
(3 1.12266e-15 0)
(3 1.28614e-15 0)
(2.47821 0.72573 0)
(2.41784 0.857006 0)
(2.6999 0.626958 0)
(2.88786 0.240528 0)
(2.99476 0.00759047 0)
(2.99998 2.69268e-05 0)
(3 2.49678e-07 0)
(3 8.27198e-10 0)
(3 -6.71175e-13 0)
(3 -4.94961e-14 0)
(3 -3.43618e-15 0)
(3 -3.28049e-15 0)
(3 -2.42513e-15 0)
(3 2.06517e-16 0)
(3 1.12621e-15 0)
(2.48518 0.67667 0)
(2.44533 0.926605 0)
(2.76751 0.486995 0)
(2.9592 0.0736389 0)
(2.99954 0.000676409 0)
(3 6.37479e-07 0)
(3 -4.45025e-09 0)
(3 -8.69776e-12 0)
(3 -9.61376e-13 0)
(3 -9.41337e-15 0)
(3 -3.16164e-15 0)
(3 -3.24843e-15 0)
(3 -1.63553e-15 0)
(3 1.64851e-16 0)
(3 9.22185e-16 0)
(2.53863 0.600238 0)
(2.50551 0.832069 0)
(2.87713 0.23631 0)
(2.99406 0.0102068 0)
(2.99998 2.0824e-05 0)
(3 3.19267e-08 0)
(3 3.49775e-10 0)
(3 1.33129e-12 0)
(3 -3.50814e-14 0)
(3 -4.88854e-15 0)
(3 -3.7006e-15 0)
(3 -3.13701e-15 0)
(3 -1.61023e-15 0)
(3 1.14376e-15 0)
(3 1.40739e-15 0)
(2.5767 0.481481 0)
(2.6529 0.615104 0)
(2.9563 0.0796802 0)
(2.99934 0.0010348 0)
(3 4.50858e-06 0)
(3 2.67765e-08 0)
(3 1.83858e-12 0)
(3 2.3832e-14 0)
(3 -1.63359e-14 0)
(3 -1.11914e-15 0)
(3 -3.34623e-15 0)
(3 -3.2042e-15 0)
(3 -2.3134e-15 0)
(3 1.37538e-15 0)
(3 1.56644e-15 0)
(2.6315 0.378874 0)
(2.7638 0.394052 0)
(2.98731 0.0211167 0)
(2.99991 0.000139943 0)
(3 -1.0761e-07 0)
(3 -8.51117e-10 0)
(3 -2.62986e-12 0)
(3 -1.90811e-14 0)
(3 4.86354e-15 0)
(3 -4.00571e-16 0)
(3 -3.34564e-15 0)
(3 -3.29781e-15 0)
(3 -2.34191e-15 0)
(3 5.60848e-16 0)
(3 1.46451e-15 0)
(2.72505 0.237979 0)
(2.88188 0.191495 0)
(2.99744 0.00394429 0)
(2.99999 9.26012e-06 0)
(3 6.58537e-08 0)
(3 1.46454e-10 0)
(3 -4.09841e-13 0)
(3 -7.62542e-14 0)
(3 1.87637e-15 0)
(3 -4.4091e-16 0)
(3 -3.46212e-15 0)
(3 -2.98485e-15 0)
(3 -2.22074e-15 0)
(3 7.58803e-16 0)
(3 1.39831e-15 0)
(2.81063 0.121111 0)
(2.95762 0.063608 0)
(2.99963 0.000524232 0)
(3 1.75998e-06 0)
(3 6.63196e-11 0)
(3 7.47466e-12 0)
(3 9.58322e-14 0)
(3 4.27534e-15 0)
(3 3.57185e-15 0)
(3 -8.35179e-16 0)
(3 -3.07336e-15 0)
(3 -2.66308e-15 0)
(3 -1.99168e-15 0)
(3 8.7441e-16 0)
(3 1.07756e-15 0)
(2.91519 0.0240806 0)
(2.99217 0.0108831 0)
(2.99997 3.27788e-05 0)
(3 -2.61917e-08 0)
(3 -7.90224e-11 0)
(3 -3.17126e-12 0)
(3 -7.96877e-15 0)
(3 5.11067e-15 0)
(3 3.37987e-15 0)
(3 -5.93978e-16 0)
(3 -2.35705e-15 0)
(3 -1.73954e-15 0)
(3 -1.15883e-15 0)
(3 4.27646e-16 0)
(3 4.98232e-16 0)
(3 -1.10642e-15 0)
(3 -1.33659e-16 0)
(3 -4.33384e-17 0)
(3 -7.73115e-16 0)
(3 -1.20345e-15 0)
(3 -2.93878e-16 0)
(3 3.39516e-15 0)
(3 4.41295e-15 0)
(3 3.31188e-15 0)
(3 8.97051e-17 0)
(3 -2.25047e-15 0)
(3 -1.4582e-15 0)
(3 -5.42286e-16 0)
(3 5.8205e-17 0)
(3 8.39855e-17 0)
(3 -1.66424e-15 0)
(3 1.55543e-15 0)
(3 1.4836e-15 0)
(3 -4.71757e-16 0)
(3 -2.72481e-15 0)
(3 -1.81564e-15 0)
(3 1.83828e-15 0)
(3 4.42889e-15 0)
(3 2.29559e-15 0)
(3 -2.35364e-16 0)
(3 -2.29242e-15 0)
(3 -1.89268e-15 0)
(3 1.37782e-16 0)
(3 4.24999e-16 0)
(3 3.73887e-17 0)
(3 -3.96125e-16 0)
(3 1.47685e-15 0)
(3 1.96275e-15 0)
(3 -6.54609e-16 0)
(3 -3.74717e-15 0)
(3 -1.50882e-15 0)
(3 2.29534e-15 0)
(3 3.95555e-15 0)
(3 1.91552e-15 0)
(3 -4.47777e-16 0)
(3 -2.32243e-15 0)
(3 -1.72135e-15 0)
(3 1.3702e-15 0)
(3 6.51844e-16 0)
(3 -7.76145e-17 0)
(3 1.23803e-15 0)
(3 1.51324e-15 0)
(3 9.18819e-16 0)
(3 -1.16151e-15 0)
(3 -3.7093e-15 0)
(3 -8.42984e-16 0)
(3 2.55237e-15 0)
(3 2.20651e-15 0)
(3 2.11958e-15 0)
(3 -4.12436e-17 0)
(3 -2.31314e-15 0)
(3 -1.5126e-15 0)
(3 1.45956e-15 0)
(3 8.72148e-16 0)
(3 -8.73113e-17 0)
(3 9.88706e-16 0)
(3 5.58672e-16 0)
(3 3.17443e-16 0)
(3 -2.37711e-16 0)
(3 -1.72311e-15 0)
(3 -1.538e-15 0)
(3 1.84144e-15 0)
(3 2.11961e-15 0)
(3 2.11061e-15 0)
(3 -1.26707e-17 0)
(3 -2.24433e-15 0)
(3 -1.26701e-15 0)
(3 5.53276e-16 0)
(3 1.08137e-15 0)
(3 1.39719e-16 0)
(3 -1.32206e-16 0)
(3 2.32242e-16 0)
(3 3.38964e-16 0)
(3 5.58133e-16 0)
(3 3.9496e-16 0)
(3 -8.75644e-16 0)
(3 5.33286e-16 0)
(3 2.0612e-15 0)
(3 1.86623e-15 0)
(3 -1.69159e-16 0)
(3 -1.52383e-15 0)
(3 -1.48853e-15 0)
(3 -2.82194e-16 0)
(3 1.11981e-15 0)
(3 6.62231e-16 0)
(3 -1.03775e-15 0)
(3 9.27229e-16 0)
(3 8.67332e-16 0)
(3 4.93025e-16 0)
(3 5.28748e-16 0)
(3 -1.05868e-15 0)
(3 5.09662e-17 0)
(3 1.82524e-15 0)
(3 1.51447e-15 0)
(3 2.05734e-16 0)
(3 -7.29681e-16 0)
(3 -1.85978e-15 0)
(3 -7.75901e-16 0)
(3 1.32894e-15 0)
(3 7.31954e-16 0)
(3 -1.23821e-15 0)
(3 8.52368e-16 0)
(3 1.44562e-15 0)
(3 1.27694e-15 0)
(3 -5.64794e-17 0)
(3 -1.9585e-15 0)
(3 6.03952e-16 0)
(3 1.49903e-15 0)
(3 1.03951e-15 0)
(3 9.56396e-16 0)
(3 -4.78937e-16 0)
(3 -1.96835e-15 0)
(3 -7.06306e-16 0)
(3 6.1947e-16 0)
(3 5.12432e-16 0)
(3 -1.23456e-15 0)
(3 -3.3276e-16 0)
(3 1.64454e-15 0)
(3 1.93635e-15 0)
(3 1.60716e-18 0)
(3 -2.25459e-15 0)
(3 4.3863e-16 0)
(3 1.45148e-15 0)
(3 8.99751e-16 0)
(3 9.68032e-16 0)
(3 -2.21809e-16 0)
(3 -1.26377e-15 0)
(3 -3.99073e-16 0)
(3 -1.33991e-16 0)
(3 -2.52802e-16 0)
(3 -8.34383e-16 0)
(3 -1.57088e-15 0)
(3 6.1096e-16 0)
(3 1.64419e-15 0)
(3 4.59371e-17 0)
(3 -1.17808e-15 0)
(3 -2.90766e-17 0)
(3 6.25283e-16 0)
(3 6.99914e-16 0)
(3 6.03704e-16 0)
(3 -1.13182e-16 0)
(3 -4.25064e-16 0)
(3 -8.73462e-17 0)
(3 -3.38397e-16 0)
(3 -2.05631e-16 0)
(3 -1.61186e-15 0)
(3 -2.18677e-15 0)
(3 -8.6883e-16 0)
(3 7.25165e-16 0)
(3 2.37217e-15 0)
(3 1.07009e-15 0)
(3 -1.63177e-16 0)
(3 3.38837e-16 0)
(3 -6.73544e-17 0)
(3 9.57618e-16 0)
(3 -7.84984e-16 0)
(3 -1.11461e-15 0)
(3 -8.58047e-16 0)
(3 -1.30758e-15 0)
(3 3.06587e-16 0)
(3 2.12635e-15 0)
(3 3.63904e-16 0)
(3 -9.74786e-17 0)
(3 6.66485e-16 0)
(3 1.0406e-16 0)
(3 -2.35551e-16 0)
(3 4.2116e-16 0)
(3 3.92719e-16 0)
(3 -1.04492e-15 0)
(3 -9.00216e-16 0)
(3 -5.07845e-16 0)
(3 -2.49917e-16 0)
(3 1.38285e-17 0)
(3 5.74704e-16 0)
(3 5.84376e-16 0)
(3 -1.00462e-16 0)
(3 1.30259e-17 0)
(3 4.71419e-17 0)
(3 -1.30341e-16 0)
(3 -8.56745e-16 0)
(3 -1.8494e-15 0)
(3 -8.23363e-16 0)
(3 -1.14704e-15 0)
(3 -1.54202e-15 0)
(3 -2.44345e-16 0)
(3 2.94379e-17 0)
(3 -2.97014e-16 0)
(3 -1.22164e-15 0)
(3 1.92064e-17 0)
(3 6.72096e-16 0)
(3 8.61717e-16 0)
(3 2.70465e-16 0)
(3 -6.62823e-16 0)
(3 -2.10776e-15 0)
(3 -2.73426e-15 0)
(3 4.11709e-16 0)
(3 4.53506e-16 0)
(3 4.8226e-17 0)
(3 1.12694e-16 0)
(3 3.57799e-16 0)
(3 1.67614e-15 0)
(3 1.96105e-15 0)
(3 1.85346e-15 0)
(3 1.40283e-15 0)
(3 -1.02789e-15 0)
(3 -3.20054e-16 0)
(3 -6.90296e-16 0)
(3 -1.56492e-15 0)
(3 -2.31106e-15 0)
(3 -2.30454e-15 0)
(3 -1.52129e-15 0)
(3 -1.61353e-15 0)
(3 -6.42491e-16 0)
(3 1.70018e-16 0)
(3 1.13428e-15 0)
(3 1.40962e-15 0)
(3 6.01131e-17 0)
(3 -8.28915e-16 0)
(3 -1.76757e-15 0)
(3 -2.51465e-15 0)
(3 -3.70047e-15 0)
(3 -3.82595e-15 0)
(3 -2.25981e-15 0)
(3 -9.03337e-17 0)
(3 1.59955e-15 0)
(3 1.14307e-15 0)
(3 1.42053e-15 0)
(3 1.03801e-15 0)
(3 7.32815e-16 0)
(3 -1.03815e-17 0)
(3 -5.03451e-16 0)
(3 -1.30935e-16 0)
(3 -3.5814e-16 0)
(3 -8.64632e-17 0)
(3 -1.94016e-16 0)
(3 2.06905e-15 0)
(3 1.78386e-15 0)
(3 1.59065e-15 0)
(3 1.76365e-15 0)
(3 1.77636e-15 0)
(3 1.68675e-15 0)
(3 1.41479e-15 0)
(3 1.62087e-16 0)
(3 -4.03577e-16 0)
(3 -1.0863e-15 0)
(3 6.73161e-16 0)
(3 4.01857e-16 0)
(3 9.35799e-16 0)
(3 6.05511e-16 0)
(3 6.2135e-16 0)
(3 7.05353e-16 0)
(3 1.47399e-15 0)
(3 1.43249e-15 0)
(3 7.20141e-16 0)
(3 3.18032e-17 0)
(3 -3.29955e-15 0)
(3 -2.81389e-15 0)
(3 -2.10328e-15 0)
(3 -1.69275e-15 0)
(3 -1.50489e-15 0)
(3 -4.45357e-17 0)
(3 1.57612e-15 0)
(3 2.26919e-15 0)
(3 1.66092e-15 0)
(3 8.3981e-16 0)
(3 -2.98314e-15 0)
(3 -2.35487e-15 0)
(3 -2.4486e-15 0)
(3 -1.68993e-15 0)
(3 -8.61742e-16 0)
(3 5.95974e-16 0)
(3 8.11719e-16 0)
(3 5.46276e-16 0)
(3 4.70161e-16 0)
(3 1.82045e-16 0)
(3 -1.79126e-15 0)
(3 -1.28922e-15 0)
(3 -7.73294e-16 0)
(3 -6.76346e-16 0)
(3 -2.60205e-16 0)
(3 -1.1693e-15 0)
(3 -1.75384e-15 0)
(3 -1.29736e-15 0)
(3 -6.16107e-16 0)
(3 -8.99655e-17 0)
(3 -1.02893e-15 0)
(3 -9.89687e-16 0)
(3 -7.39795e-16 0)
(3 -8.61618e-16 0)
(3 -1.27908e-15 0)
(3 -1.9753e-15 0)
(3 -2.64898e-15 0)
(3 -2.19581e-15 0)
(3 -1.27862e-15 0)
(3 -2.78603e-16 0)
(3 4.56723e-16 0)
(3 5.55321e-16 0)
(3 5.43773e-16 0)
(3 9.86793e-16 0)
(3 1.29926e-15 0)
(3 1.70621e-15 0)
(3 9.77923e-16 0)
(3 -2.61682e-16 0)
(3 -6.38788e-16 0)
(3 -1.86209e-16 0)
(3 2.31433e-15 0)
(3 2.40997e-15 0)
(3 2.12683e-15 0)
(3 2.01256e-15 0)
(3 2.02251e-15 0)
(3 1.54053e-15 0)
(3 1.22428e-15 0)
(3 9.15755e-16 0)
(3 5.03049e-16 0)
(3 1.97921e-16 0)
(3 3.54228e-15 0)
(3 3.12806e-15 0)
(3 2.4646e-15 0)
(3 1.69154e-15 0)
(3 1.23135e-15 0)
(3 2.91739e-16 0)
(3 1.35381e-16 0)
(3 3.06729e-16 0)
(3 7.32057e-16 0)
(3 5.24665e-17 0)
(3 2.36327e-15 0)
(3 1.8785e-15 0)
(3 1.85239e-15 0)
(3 1.96349e-15 0)
(3 1.91454e-15 0)
(3 1.69819e-15 0)
(3 1.09911e-15 0)
(3 6.91485e-16 0)
(3 2.94253e-16 0)
(3 -4.95262e-17 0)
(3 7.93704e-16 0)
(3 1.13321e-16 0)
(3 2.67145e-16 0)
(3 4.21942e-16 0)
(3 4.28147e-16 0)
(3 4.48665e-16 0)
(3 5.54127e-16 0)
(3 1.81395e-16 0)
(3 -4.94385e-17 0)
(3 -1.47025e-16 0)
(2.84817 -0.047789 0)
(2.99345 -0.00841567 0)
(3 2.60493e-09 0)
(3 7.76325e-15 0)
(3 2.81326e-16 0)
(3 -1.86886e-16 0)
(3 1.69791e-15 0)
(3 1.71618e-15 0)
(3 1.69716e-15 0)
(3 1.39059e-15 0)
(3 -3.71476e-16 0)
(3 -3.91573e-15 0)
(3 -3.60322e-15 0)
(3 -1.03432e-15 0)
(3 -1.04769e-15 0)
(3 -3.9727e-17 0)
(3 2.59575e-15 0)
(3 4.5767e-15 0)
(3 3.22992e-15 0)
(3 1.26116e-15 0)
(2.60635 -0.280721 0)
(2.8903 -0.135833 0)
(3.00029 0.000321375 0)
(3 -1.16178e-06 0)
(3 1.74158e-09 0)
(3 1.47374e-11 0)
(3 -1.58369e-14 0)
(3 5.39209e-16 0)
(3 1.80581e-15 0)
(3 1.38961e-16 0)
(3 -1.36375e-15 0)
(3 -5.06406e-15 0)
(3 -3.63793e-15 0)
(3 -3.32901e-16 0)
(3 -8.11697e-16 0)
(3 2.4057e-17 0)
(3 2.54555e-15 0)
(3 4.7001e-15 0)
(3 4.21061e-15 0)
(3 1.50654e-15 0)
(2.51613 -0.502573 0)
(2.71775 -0.444655 0)
(2.9953 -0.00638951 0)
(3.00002 2.74992e-05 0)
(3 -2.05074e-10 0)
(3 1.64346e-11 0)
(3 1.09143e-14 0)
(3 6.29376e-16 0)
(3 -3.69076e-16 0)
(3 1.16665e-15 0)
(3 -2.25498e-15 0)
(3 -5.41658e-15 0)
(3 -2.89461e-15 0)
(3 4.6831e-16 0)
(3 1.02778e-15 0)
(3 -2.47257e-16 0)
(3 1.63489e-15 0)
(3 4.4723e-15 0)
(3 4.34202e-15 0)
(3 1.35049e-15 0)
(2.29193 -0.739816 0)
(2.24629 -1.00127 0)
(2.87224 -0.20723 0)
(2.9997 -0.000528052 0)
(3 -1.46245e-10 0)
(3 1.17032e-11 0)
(3 2.77172e-13 0)
(3 8.04935e-16 0)
(3 -1.54134e-15 0)
(3 1.31198e-15 0)
(3 -2.17427e-15 0)
(3 -4.77192e-15 0)
(3 -1.36365e-15 0)
(3 9.82569e-16 0)
(3 2.01039e-15 0)
(3 -3.04791e-16 0)
(3 1.05403e-15 0)
(3 3.9471e-15 0)
(3 4.38945e-15 0)
(3 1.28727e-15 0)
(2.17868 -0.855791 0)
(2.09944 -1.0649 0)
(2.6173 -0.662363 0)
(2.94878 -0.106361 0)
(3.00001 0.000139672 0)
(3 3.5119e-07 0)
(3 3.44928e-10 0)
(3 5.07091e-13 0)
(3 -4.51886e-16 0)
(3 2.46865e-16 0)
(3 -1.65262e-15 0)
(3 -2.64419e-15 0)
(3 -3.80291e-16 0)
(3 1.61155e-15 0)
(3 1.90202e-15 0)
(3 1.19049e-15 0)
(3 9.28132e-16 0)
(3 3.05198e-15 0)
(3 3.96912e-15 0)
(3 9.50693e-16 0)
(2.20003 -0.900339 0)
(2.14017 -1.02281 0)
(2.3173 -0.956688 0)
(2.54607 -0.618942 0)
(2.96317 -0.0423177 0)
(3.00009 0.000137656 0)
(3 8.82044e-07 0)
(3 -1.01167e-09 0)
(3 -3.99339e-11 0)
(3 1.37685e-13 0)
(3 3.05898e-15 0)
(3 -8.48662e-16 0)
(3 5.24746e-16 0)
(3 1.48106e-15 0)
(3 1.72711e-15 0)
(3 2.35246e-15 0)
(3 1.49053e-15 0)
(3 2.36937e-15 0)
(3 2.11133e-15 0)
(3 4.76449e-16 0)
(2.23464 -0.916111 0)
(2.20244 -0.952743 0)
(2.23828 -0.923879 0)
(2.32445 -0.867642 0)
(2.67773 -0.398146 0)
(2.99105 -0.0106242 0)
(3.00002 3.44931e-05 0)
(3 1.0048e-06 0)
(3 3.25367e-09 0)
(3 -9.7461e-12 0)
(3 -4.56776e-13 0)
(3 -2.90358e-15 0)
(3 6.88538e-16 0)
(3 8.66285e-16 0)
(3 2.2119e-15 0)
(3 2.43094e-15 0)
(3 1.49605e-15 0)
(3 1.93278e-15 0)
(3 1.31729e-15 0)
(3 1.21386e-16 0)
(2.24774 -0.890568 0)
(2.24704 -0.883077 0)
(2.2553 -0.900709 0)
(2.25355 -0.923779 0)
(2.46362 -0.691371 0)
(2.88077 -0.152046 0)
(2.99947 -0.000655127 0)
(3 -1.17086e-07 0)
(3 2.62764e-09 0)
(3 1.23892e-10 0)
(3 1.9615e-13 0)
(3 -3.09419e-16 0)
(3 1.25039e-15 0)
(3 3.00639e-16 0)
(3 1.73578e-15 0)
(3 1.7498e-15 0)
(3 1.28937e-15 0)
(3 2.77025e-15 0)
(3 1.627e-15 0)
(3 2.17821e-16 0)
(2.2497 -0.880193 0)
(2.26809 -0.855941 0)
(2.27727 -0.888329 0)
(2.265 -0.928124 0)
(2.30191 -0.9004 0)
(2.50528 -0.592876 0)
(2.95032 -0.0527952 0)
(3.00004 6.8041e-05 0)
(3 1.32086e-06 0)
(3 -1.24951e-09 0)
(3 -1.88448e-11 0)
(3 -1.49764e-13 0)
(3 2.60921e-15 0)
(3 -8.1336e-16 0)
(3 9.64956e-16 0)
(3 5.99515e-17 0)
(3 1.3567e-15 0)
(3 3.04017e-15 0)
(3 2.58327e-15 0)
(3 1.05735e-15 0)
(2.2477 -0.875345 0)
(2.2711 -0.870441 0)
(2.2848 -0.890878 0)
(2.27633 -0.914366 0)
(2.24899 -0.901276 0)
(2.35873 -0.770687 0)
(2.74731 -0.302622 0)
(2.99494 -0.00679818 0)
(3.00001 5.63704e-06 0)
(3 5.53223e-07 0)
(3 8.88543e-10 0)
(3 -2.9772e-13 0)
(3 -5.49328e-14 0)
(3 -3.36129e-15 0)
(3 4.12997e-18 0)
(3 -6.9146e-16 0)
(3 1.59583e-15 0)
(3 2.93866e-15 0)
(3 2.92816e-15 0)
(3 1.34661e-15 0)
(2.25347 -0.882545 0)
(2.26845 -0.884028 0)
(2.27966 -0.888532 0)
(2.27288 -0.892513 0)
(2.2588 -0.890346 0)
(2.30165 -0.848915 0)
(2.51195 -0.611166 0)
(2.93247 -0.0798458 0)
(2.9999 -8.18958e-05 0)
(3 2.31824e-07 0)
(3 9.39909e-09 0)
(3 2.02151e-10 0)
(3 2.7059e-12 0)
(3 1.37405e-14 0)
(3 -1.28305e-15 0)
(3 -1.0395e-15 0)
(3 1.69739e-15 0)
(3 2.36476e-15 0)
(3 1.54175e-15 0)
(3 8.40181e-16 0)
(2.25664 -0.88517 0)
(2.26619 -0.885328 0)
(2.27322 -0.884525 0)
(2.27258 -0.88894 0)
(2.26549 -0.890674 0)
(2.27758 -0.891716 0)
(2.31008 -0.852256 0)
(2.66762 -0.393338 0)
(2.98639 -0.0170014 0)
(3 -3.55296e-05 0)
(3 -5.12779e-07 0)
(3 -1.90751e-08 0)
(3 -6.04444e-11 0)
(3 -3.52461e-13 0)
(3 -4.1831e-15 0)
(3 -1.55009e-15 0)
(3 1.40178e-15 0)
(3 1.75845e-15 0)
(3 3.72253e-16 0)
(3 3.76728e-16 0)
(2.25557 -0.882415 0)
(2.26115 -0.878659 0)
(2.26915 -0.880419 0)
(2.27446 -0.892764 0)
(2.27446 -0.894481 0)
(2.26972 -0.900407 0)
(2.29682 -0.860964 0)
(2.51327 -0.623446 0)
(2.92768 -0.0993713 0)
(2.99985 -0.000151069 0)
(3 -2.8169e-07 0)
(3 1.30048e-08 0)
(3 1.0226e-09 0)
(3 3.8443e-12 0)
(3 2.11568e-15 0)
(3 -1.56117e-15 0)
(3 9.7494e-16 0)
(3 1.08817e-15 0)
(3 -6.51781e-16 0)
(3 -1.40407e-16 0)
(2.2505 -0.879248 0)
(2.25691 -0.877097 0)
(2.26804 -0.880824 0)
(2.27507 -0.893916 0)
(2.27432 -0.89075 0)
(2.26967 -0.890853 0)
(2.28201 -0.874105 0)
(2.36174 -0.821797 0)
(2.60707 -0.503882 0)
(2.96817 -0.0646523 0)
(2.99975 -0.000472603 0)
(3 -1.78659e-06 0)
(3 -5.42019e-09 0)
(3 -2.26545e-11 0)
(3 -1.4565e-13 0)
(3 -3.82237e-15 0)
(3 3.4017e-16 0)
(3 1.26516e-15 0)
(3 -1.06813e-15 0)
(3 -8.05809e-16 0)
(2.24809 -0.878875 0)
(2.25433 -0.8793 0)
(2.26603 -0.884307 0)
(2.27223 -0.89109 0)
(2.2693 -0.886879 0)
(2.26809 -0.880451 0)
(2.26873 -0.879702 0)
(2.25793 -0.917694 0)
(2.55025 -0.636547 0)
(3.01187 0.00792709 0)
(3.00257 0.00821585 0)
(3.0003 0.000547018 0)
(3 5.74954e-06 0)
(3 3.14891e-08 0)
(3 1.69576e-10 0)
(3 9.66087e-13 0)
(3 6.3581e-15 0)
(3 1.91266e-15 0)
(3 -7.44629e-16 0)
(3 -1.20302e-15 0)
(2.25999 -0.827604 0)
(2.57893 -0.634307 0)
(2.41438 -0.765359 0)
(2.33884 -0.835752 0)
(2.29735 -0.867234 0)
(2.28157 -0.871758 0)
(2.26879 -0.876628 0)
(2.25226 -0.912649 0)
(2.3361 -0.781136 0)
(2.48415 -0.653527 0)
(2.8953 -0.154443 0)
(2.99497 -0.0112766 0)
(2.99991 -0.000244564 0)
(3 -3.49392e-06 0)
(3 -3.94428e-08 0)
(3 -3.80343e-10 0)
(3 -3.27316e-12 0)
(3 -2.20533e-14 0)
(3 6.83742e-16 0)
(3 2.41793e-16 0)
(1.92166 -1.03025 0)
(2.74926 -0.273317 0)
(2.64593 -0.482873 0)
(2.49227 -0.677012 0)
(2.41478 -0.763453 0)
(2.33748 -0.830359 0)
(2.2968 -0.856993 0)
(2.27056 -0.887287 0)
(2.29044 -0.840091 0)
(2.31659 -0.811332 0)
(2.57307 -0.552593 0)
(2.91969 -0.134021 0)
(2.99587 -0.00977721 0)
(2.99991 -0.000210426 0)
(3 -2.84646e-06 0)
(3 -3.17641e-08 0)
(3 -3.03585e-10 0)
(3 -2.59355e-12 0)
(3 -1.85061e-14 0)
(3 3.04056e-16 0)
(2.42049 -0.315381 0)
(2.80988 0.461627 0)
(2.79864 -0.15925 0)
(2.68295 -0.446379 0)
(2.56386 -0.600377 0)
(2.46658 -0.714267 0)
(2.39066 -0.780798 0)
(2.31088 -0.839862 0)
(2.28999 -0.845921 0)
(2.27709 -0.836117 0)
(2.32978 -0.786576 0)
(2.64585 -0.480172 0)
(2.95281 -0.0869383 0)
(2.99825 -0.00447767 0)
(2.99996 -8.3101e-05 0)
(3 -1.03318e-06 0)
(3 -1.0936e-08 0)
(3 -9.98031e-11 0)
(3 -7.92711e-13 0)
(3 -4.59494e-15 0)
(2.39219 0.517122 0)
(2.78411 0.885718 0)
(2.90087 0.413368 0)
(2.87171 -0.0300388 0)
(2.68237 -0.445572 0)
(2.63439 -0.506849 0)
(2.47996 -0.696336 0)
(2.41414 -0.741487 0)
(2.33411 -0.820158 0)
(2.28942 -0.831347 0)
(2.28186 -0.850349 0)
(2.39667 -0.745039 0)
(2.74038 -0.376656 0)
(2.97243 -0.0514533 0)
(2.99922 -0.00177546 0)
(2.99999 -2.50979e-05 0)
(3 -2.50121e-07 0)
(3 -2.21085e-09 0)
(3 -1.7538e-11 0)
(3 -1.0812e-13 0)
(2.51607 0.813461 0)
(2.76393 1.23023 0)
(2.96475 0.656906 0)
(2.95068 0.308805 0)
(2.89492 -0.024938 0)
(2.70429 -0.393111 0)
(2.63419 -0.490084 0)
(2.51139 -0.645407 0)
(2.43324 -0.735764 0)
(2.35241 -0.792807 0)
(2.29172 -0.846489 0)
(2.30615 -0.834823 0)
(2.48232 -0.671703 0)
(2.86157 -0.222532 0)
(2.99317 -0.0153535 0)
(2.99986 -0.000318083 0)
(3 -4.09117e-06 0)
(3 -3.89368e-08 0)
(3 -3.22762e-10 0)
(3 -2.03786e-12 0)
(2.46162 0.966985 0)
(2.77685 1.13417 0)
(3.00905 0.500928 0)
(3.02353 0.365916 0)
(2.98872 0.267085 0)
(2.8218 -0.165995 0)
(2.75758 -0.26365 0)
(2.6094 -0.523457 0)
(2.54962 -0.600204 0)
(2.42393 -0.741033 0)
(2.3429 -0.808026 0)
(2.31132 -0.83262 0)
(2.36556 -0.796443 0)
(2.6072 -0.550037 0)
(2.92499 -0.128441 0)
(2.99738 -0.00547678 0)
(2.99997 -6.69809e-05 0)
(3 -6.25861e-07 0)
(3 -4.86006e-09 0)
(3 -2.951e-11 0)
(2.50297 0.983806 0)
(2.74536 1.01846 0)
(3.00277 0.704618 0)
(3.13319 0.62685 0)
(3.0621 0.260763 0)
(2.98247 0.170386 0)
(2.79102 -0.239212 0)
(2.74273 -0.302098 0)
(2.59741 -0.539682 0)
(2.53877 -0.615619 0)
(2.42013 -0.73135 0)
(2.33493 -0.813127 0)
(2.33896 -0.810158 0)
(2.46676 -0.706662 0)
(2.82649 -0.291008 0)
(2.98823 -0.0276586 0)
(2.99973 -0.000657392 0)
(3 -6.72358e-06 0)
(3 -5.9077e-08 0)
(3 -3.86993e-10 0)
(2.69585 0.858768 0)
(2.79501 0.894402 0)
(3.00337 0.806526 0)
(3.07412 0.976207 0)
(3.05843 0.309013 0)
(3.05866 0.294253 0)
(2.88769 -0.0867612 0)
(2.82281 -0.154051 0)
(2.69694 -0.402449 0)
(2.6297 -0.492136 0)
(2.47515 -0.681893 0)
(2.3989 -0.75075 0)
(2.34794 -0.802484 0)
(2.37609 -0.783743 0)
(2.57865 -0.587549 0)
(2.91316 -0.144803 0)
(2.99663 -0.00660062 0)
(2.99996 -8.98351e-05 0)
(3 -7.39595e-07 0)
(3 -4.64518e-09 0)
(2.77427 0.796691 0)
(2.86093 0.773435 0)
(2.98982 0.903279 0)
(3.02074 1.02988 0)
(3.04611 0.668477 0)
(3.03771 0.3075 0)
(3.01986 0.208613 0)
(2.86242 -0.1433 0)
(2.83117 -0.176221 0)
(2.64397 -0.464544 0)
(2.58291 -0.540979 0)
(2.45644 -0.68788 0)
(2.3811 -0.767541 0)
(2.37629 -0.783061 0)
(2.45608 -0.733184 0)
(2.75934 -0.37333 0)
(2.98266 -0.0319987 0)
(2.9997 -0.000623614 0)
(3 -6.26896e-06 0)
(3 -4.1013e-08 0)
(2.83014 0.782101 0)
(2.88086 0.741207 0)
(2.99218 0.899239 0)
(3.01628 1.03592 0)
(3.01988 0.810875 0)
(3.04809 0.540591 0)
(3.06009 0.403311 0)
(2.89367 -0.055712 0)
(2.89425 -0.025897 0)
(2.70298 -0.369243 0)
(2.65921 -0.386618 0)
(2.54122 -0.574184 0)
(2.45302 -0.677059 0)
(2.38798 -0.767872 0)
(2.41034 -0.754182 0)
(2.65837 -0.497489 0)
(2.92164 -0.141023 0)
(2.99744 -0.0049306 0)
(2.99997 -5.20373e-05 0)
(3 -3.59518e-07 0)
(2.8481 0.760373 0)
(2.86045 0.725827 0)
(3.00135 0.861563 0)
(3.08713 1.03515 0)
(3.09256 0.765561 0)
(3.05833 0.669212 0)
(3.04276 0.441121 0)
(2.99726 0.198936 0)
(2.90939 -0.047881 0)
(2.83069 -0.177207 0)
(2.6938 -0.382882 0)
(2.63118 -0.440399 0)
(2.49004 -0.631947 0)
(2.4071 -0.744058 0)
(2.41109 -0.74857 0)
(2.50901 -0.659366 0)
(2.83894 -0.260589 0)
(2.98859 -0.0231057 0)