/*--------------------------------*- C++ -*----------------------------------*\
  =========                 |
  \\      /  F ield         | OpenFOAM: The Open Source CFD Toolbox
   \\    /   O peration     | Website:  https://openfoam.org
    \\  /    A nd           | Version:  7
     \\/     M anipulation  |
\*---------------------------------------------------------------------------*/
FoamFile
{
    version     2.0;
    format      ascii;
    class       volScalarField;
    location    "9";
    object      p;
}
// * * * * * * * * * * * * * * * * * * * * * * * * * * * * * * * * * * * * * //

dimensions      [1 -1 -2 0 0 0 0];

internalField   nonuniform List<scalar> 
90000
(
0.413505
0.458576
0.500298
0.54205
0.580841
0.613919
0.650786
0.686874
0.722188
0.756633
0.793621
0.82781
0.861722
0.893121
0.921631
0.945434
0.965275
0.979847
0.98855
0.992032
0.994829
0.994691
0.99415
0.99303
0.992382
0.990473
0.98762
0.983839
0.979332
0.97466
0.968871
0.969168
0.97122
0.975097
0.979351
0.98283
0.985042
0.98683
0.986655
0.984883
0.980861
0.977314
0.974825
0.974884
0.976171
0.978561
0.981491
0.982717
0.981906
0.979592
0.976287
0.974584
0.974595
0.97593
0.97849
0.979517
0.978927
0.977211
0.97492
0.974543
0.975377
0.976658
0.976349
0.975428
0.973994
0.973341
0.973557
0.973879
0.973418
0.972422
0.971504
0.970834
0.970742
0.970286
0.969669
0.969005
0.968373
0.967599
0.966754
0.966046
0.965333
0.964455
0.963567
0.96284
0.962083
0.961428
0.960823
0.959896
0.958618
0.957454
0.956471
0.955648
0.954896
0.953897
0.952645
0.951576
0.950458
0.949392
0.948496
0.946776
0.374343
0.374529
0.375037
0.376141
0.378313
0.381526
0.386684
0.39451
0.40525
0.420328
0.43968
0.465759
0.496339
0.535061
0.578525
0.627974
0.680697
0.733497
0.784008
0.826454
0.865208
0.894802
0.921369
0.936761
0.951083
0.956863
0.962545
0.963488
0.964716
0.96589
0.970196
0.977189
0.984235
0.989549
0.992762
0.993023
0.992205
0.990968
0.98563
0.979221
0.974914
0.973484
0.974257
0.976626
0.979931
0.983311
0.984419
0.983144
0.979835
0.976083
0.973021
0.973736
0.974972
0.977723
0.981376
0.980749
0.978525
0.975034
0.973211
0.973888
0.976176
0.978182
0.977201
0.974802
0.972896
0.973431
0.974724
0.974558
0.97327
0.971718
0.971325
0.97141
0.971228
0.970521
0.969699
0.969321
0.968744
0.967758
0.966849
0.966267
0.965515
0.964565
0.963733
0.963033
0.962277
0.961623
0.960941
0.959882
0.958566
0.957472
0.95655
0.955779
0.955004
0.953929
0.952673
0.951609
0.950481
0.949426
0.948529
0.946797
0.374278
0.374275
0.37427
0.374262
0.374252
0.374245
0.374249
0.374262
0.374342
0.37452
0.374871
0.375544
0.376691
0.378859
0.382529
0.389079
0.399424
0.41623
0.439483
0.47245
0.512164
0.56139
0.615093
0.673386
0.731136
0.785485
0.83689
0.878591
0.91735
0.943843
0.966653
0.977569
0.985004
0.986911
0.98859
0.98935
0.987634
0.981344
0.970608
0.968591
0.972251
0.976558
0.980864
0.984779
0.986774
0.985982
0.983345
0.978093
0.973701
0.972249
0.972923
0.974979
0.979701
0.982569
0.981772
0.979051
0.975249
0.973342
0.973758
0.976464
0.978587
0.977921
0.97579
0.974038
0.973146
0.973926
0.975103
0.974554
0.972941
0.971648
0.971449
0.971671
0.971344
0.970563
0.969787
0.969451
0.968886
0.967879
0.966969
0.96638
0.9656
0.964657
0.963869
0.963181
0.962433
0.961766
0.961014
0.959886
0.95858
0.957535
0.956641
0.955878
0.955071
0.953953
0.952708
0.951707
0.950539
0.949505
0.948623
0.946849
0.374291
0.374289
0.374284
0.374278
0.374272
0.374267
0.374263
0.374263
0.374259
0.374245
0.37423
0.374215
0.374199
0.374185
0.374176
0.374191
0.374238
0.374411
0.374849
0.375816
0.377708
0.381719
0.388801
0.402231
0.422492
0.454628
0.496046
0.551194
0.613412
0.682129
0.750596
0.808671
0.859332
0.896203
0.920266
0.939405
0.947196
0.952933
0.96131
0.969655
0.980844
0.990952
0.994938
0.993552
0.989566
0.98434
0.975895
0.970931
0.970635
0.972241
0.977873
0.983088
0.985431
0.983855
0.97849
0.974371
0.972284
0.973352
0.977553
0.980501
0.979223
0.975895
0.973762
0.973159
0.974832
0.976395
0.975819
0.973671
0.972103
0.971599
0.972325
0.972286
0.971293
0.970312
0.970034
0.969815
0.968917
0.967817
0.967106
0.966536
0.965583
0.964652
0.964054
0.963357
0.962632
0.961996
0.961081
0.959747
0.958498
0.957617
0.956813
0.956091
0.95519
0.953956
0.952763
0.951748
0.950561
0.949528
0.94865
0.946862
0.374276
0.374274
0.374272
0.37427
0.374267
0.374264
0.374261
0.374257
0.374252
0.374247
0.374236
0.374225
0.374215
0.374208
0.374204
0.374205
0.374208
0.374231
0.374215
0.374193
0.374173
0.374166
0.374177
0.374283
0.374556
0.375332
0.377086
0.381364
0.389676
0.406922
0.434223
0.478408
0.534569
0.606098
0.681092
0.758543
0.827165
0.885489
0.935967
0.955197
0.971342
0.978816
0.980887
0.983678
0.98338
0.976376
0.968856
0.970578
0.975428
0.98203
0.986494
0.985999
0.983927
0.976995
0.97263
0.970826
0.972864
0.978684
0.981937
0.980316
0.97642
0.972892
0.972722
0.974817
0.977579
0.977104
0.974777
0.971906
0.971921
0.972868
0.973201
0.972121
0.970745
0.970442
0.970524
0.96993
0.968806
0.967983
0.967409
0.966615
0.965661
0.964862
0.9643
0.963553
0.962827
0.962117
0.961101
0.959723
0.958591
0.957739
0.95692
0.956169
0.955204
0.953978
0.952832
0.951844
0.950634
0.949599
0.948719
0.946905
0.374268
0.374266
0.374264
0.374263
0.374262
0.37426
0.374259
0.374256
0.374254
0.374252
0.374251
0.374249
0.374247
0.374244
0.374241
0.374237
0.374232
0.374226
0.374215
0.374208
0.374203
0.374203
0.374207
0.374216
0.374263
0.374248
0.374235
0.374231
0.374277
0.374442
0.374923
0.376416
0.380117
0.38947
0.408312
0.44241
0.496748
0.567615
0.65677
0.73675
0.818576
0.871148
0.908757
0.934804
0.950156
0.957625
0.96839
0.982054
0.992648
0.995272
0.99117
0.987149
0.975809
0.968728
0.969332
0.973013
0.979438
0.985014
0.983415
0.97806
0.973137
0.971737
0.974112
0.977895
0.978214
0.976502
0.973111
0.971537
0.972748
0.974044
0.973348
0.97181
0.9708
0.971018
0.970763
0.969847
0.968832
0.968226
0.967612
0.966749
0.965739
0.964992
0.964493
0.963769
0.963082
0.962295
0.961149
0.959668
0.958615
0.957871
0.957086
0.956331
0.955299
0.954
0.952917
0.951917
0.950691
0.949657
0.948755
0.946913
0.374256
0.374255
0.374253
0.374251
0.374249
0.374248
0.374246
0.374245
0.374243
0.374242
0.37424
0.374239
0.374238
0.374237
0.374237
0.374237
0.374236
0.374237
0.374239
0.37424
0.374242
0.374244
0.374246
0.374249
0.374248
0.374251
0.374259
0.374269
0.37428
0.374314
0.374307
0.3743
0.374304
0.374354
0.374542
0.375248
0.377601
0.384089
0.400285
0.434716
0.488617
0.570227
0.662271
0.755974
0.840699
0.908487
0.953142
0.970244
0.981254
0.984643
0.984495
0.974659
0.966364
0.969351
0.976114
0.98349
0.985772
0.983827
0.976552
0.971062
0.971169
0.973685
0.978736
0.979315
0.97758
0.973378
0.971675
0.972508
0.974583
0.974249
0.972563
0.971524
0.971299
0.971455
0.970849
0.969624
0.968652
0.968473
0.967849
0.966766
0.965864
0.965343
0.964749
0.963964
0.963283
0.962376
0.961056
0.959605
0.958709
0.957994
0.957185
0.956363
0.955323
0.954076
0.953035
0.951986
0.950752
0.949744
0.948822
0.94695
0.37424
0.374239
0.374238
0.374237
0.374236
0.374235
0.374235
0.374235
0.374235
0.374235
0.374235
0.374236
0.374237
0.374238
0.374239
0.374242
0.374245
0.374248
0.374251
0.374255
0.374259
0.374264
0.374269
0.374275
0.37428
0.374285
0.37429
0.374295
0.374299
0.3743
0.374305
0.374311
0.374315
0.374319
0.374333
0.374321
0.374312
0.37433
0.374458
0.375081
0.37722
0.384947
0.403224
0.445916
0.512837
0.60931
0.714215
0.804814
0.880325
0.916147
0.944204
0.952982
0.967583
0.982671
0.994063
0.993983
0.990619
0.977391
0.96682
0.968229
0.974212
0.981285
0.982521
0.979797
0.973253
0.970488
0.971916
0.97578
0.975987
0.974407
0.971463
0.971268
0.972246
0.971977
0.970569
0.969531
0.968936
0.968712
0.96808
0.966962
0.965998
0.965681
0.965024
0.964234
0.963513
0.962507
0.961044
0.959658
0.958883
0.958175
0.957356
0.956451
0.955303
0.954131
0.953186
0.952088
0.950822
0.949827
0.948877
0.946962
0.374217
0.374218
0.374218
0.374218
0.374219
0.37422
0.374221
0.374223
0.374225
0.374227
0.374229
0.374232
0.374235
0.374238
0.374242
0.374246
0.374251
0.374256
0.374261
0.374265
0.37427
0.374275
0.37428
0.374285
0.37429
0.374294
0.374296
0.374298
0.3743
0.3743
0.374299
0.374296
0.374291
0.374286
0.374277
0.374272
0.374267
0.374263
0.374249
0.374235
0.374227
0.374254
0.374437
0.375412
0.378944
0.391509
0.422999
0.485963
0.580398
0.691706
0.804304
0.889864
0.953493
0.973733
0.984436
0.985626
0.976791
0.961789
0.966427
0.976542
0.983831
0.984203
0.98125
0.972826
0.968842
0.9699
0.975513
0.978036
0.976295
0.972004
0.970695
0.971957
0.973056
0.971972
0.970004
0.969217
0.969441
0.969021
0.967931
0.967093
0.966416
0.966029
0.965224
0.964448
0.963707
0.962496
0.960947
0.959735
0.959068
0.9583
0.95747
0.956563
0.955368
0.954212
0.953272
0.952154
0.950905
0.949915
0.948907
0.946963
0.374208
0.37421
0.374211
0.374213
0.374216
0.374218
0.374221
0.374224
0.374227
0.374231
0.374235
0.374239
0.374243
0.374248
0.374252
0.374257
0.374262
0.374267
0.374271
0.374275
0.374278
0.374281
0.374283
0.374283
0.374284
0.374284
0.374283
0.374281
0.374279
0.374275
0.374271
0.374265
0.374259
0.374252
0.374244
0.374235
0.374226
0.374217
0.374206
0.374199
0.374191
0.374188
0.374178
0.374172
0.374184
0.374281
0.374793
0.377349
0.386658
0.41647
0.476008
0.580426
0.704083
0.811256
0.885994
0.925657
0.943863
0.958938
0.978419
0.995054
0.993042
0.987234
0.971807
0.966029
0.968255
0.9755
0.980659
0.978608
0.972734
0.970161
0.971657
0.974429
0.973782
0.971417
0.969573
0.969486
0.969895
0.969308
0.968051
0.967084
0.967062
0.966492
0.965423
0.964663
0.96386
0.962591
0.960924
0.959868
0.959328
0.958483
0.957579
0.956598
0.95539
0.954344
0.953386
0.9522
0.950997
0.950037
0.948979
0.946983
0.374231
0.374234
0.374237
0.374241
0.374244
0.374248
0.374252
0.374255
0.374259
0.374262
0.374265
0.37427
0.374274
0.374277
0.374279
0.374282
0.374284
0.374286
0.374287
0.374287
0.374287
0.374285
0.374283
0.37428
0.374276
0.374272
0.374269
0.374262
0.374256
0.374251
0.374243
0.374237
0.374228
0.37422
0.374211
0.374201
0.374194
0.374187
0.374177
0.37417
0.374165
0.374163
0.374166
0.374174
0.374189
0.3742
0.374215
0.374236
0.374306
0.374747
0.376863
0.387347
0.418085
0.492289
0.603295
0.730259
0.853474
0.935571
0.970595
0.982931
0.985661
0.97138
0.962439
0.967996
0.977792
0.982888
0.980762
0.972456
0.968332
0.969707
0.975776
0.975617
0.972761
0.96947
0.9693
0.970657
0.970355
0.968988
0.96779
0.967479
0.96753
0.966854
0.96573
0.96495
0.964013
0.962359
0.961025
0.960174
0.959578
0.958648
0.957734
0.956683
0.955461
0.954474
0.953506
0.952259
0.951081
0.950156
0.949066
0.947024
0.374279
0.374282
0.374284
0.374286
0.374288
0.374292
0.374295
0.374298
0.3743
0.374302
0.374303
0.374304
0.374305
0.374305
0.374305
0.374304
0.374303
0.374301
0.374298
0.374295
0.37429
0.374285
0.374281
0.374273
0.374265
0.37426
0.374256
0.374247
0.374239
0.374232
0.374224
0.374218
0.374208
0.374201
0.374194
0.374187
0.374181
0.374177
0.374174
0.374174
0.374178
0.374184
0.374194
0.374205
0.374217
0.374231
0.374244
0.374253
0.37425
0.374243
0.374245
0.374305
0.374773
0.377934
0.391256
0.434927
0.526108
0.660062
0.792302
0.873363
0.929386
0.943786
0.965179
0.983146
0.99171
0.988601
0.974044
0.965141
0.967547
0.975119
0.978973
0.975794
0.969332
0.969011
0.970728
0.971833
0.97043
0.968379
0.967812
0.968488
0.968023
0.966802
0.965862
0.965176
0.963887
0.962192
0.961069
0.96058
0.95981
0.958778
0.957845
0.95672
0.95551
0.954572
0.953566
0.952281
0.951153
0.950221
0.949094
0.947047
0.374317
0.374318
0.374318
0.374319
0.37432
0.374321
0.374322
0.374322
0.374322
0.374321
0.374319
0.374317
0.374315
0.374314
0.37431
0.374306
0.374302
0.374297
0.37429
0.374284
0.374281
0.374277
0.37427
0.374259
0.374252
0.374248
0.374242
0.37423
0.374223
0.374217
0.37421
0.374206
0.374201
0.374197
0.374195
0.374194
0.374195
0.374199
0.374204
0.374213
0.374221
0.374231
0.374241
0.374247
0.374256
0.37426
0.374261
0.374257
0.374249
0.374233
0.374221
0.374213
0.374198
0.374201
0.374303
0.375244
0.380502
0.406548
0.472514
0.592212
0.738446
0.863916
0.951189
0.972003
0.983264
0.975244
0.960857
0.966792
0.977002
0.981494
0.978625
0.968993
0.966509
0.969355
0.973293
0.972413
0.968983
0.967798
0.968899
0.969187
0.968074
0.966577
0.966035
0.965333
0.96372
0.962174
0.961292
0.961005
0.960063
0.958926
0.957967
0.956774
0.95557
0.954655
0.953569
0.952304
0.951237
0.950268
0.949099
0.947061
0.374325
0.374324
0.374323
0.374321
0.37432
0.374318
0.374316
0.374313
0.374311
0.374309
0.374305
0.374302
0.374299
0.374294
0.37429
0.374287
0.374282
0.374276
0.374268
0.37426
0.374253
0.374245
0.374236
0.374229
0.374224
0.374217
0.374209
0.374201
0.374197
0.374194
0.374191
0.37419
0.37419
0.374194
0.374202
0.374212
0.374226
0.374238
0.374251
0.374262
0.37427
0.374278
0.374281
0.374282
0.374283
0.37428
0.374272
0.374262
0.374247
0.374231
0.374206
0.374189
0.37418
0.374173
0.374173
0.374182
0.374222
0.374567
0.376885
0.391142
0.436681
0.548179
0.700671
0.820214
0.912775
0.933979
0.956489
0.980055
0.990906
0.986833
0.970228
0.962865
0.966871
0.975311
0.974984
0.970713
0.967615
0.96849
0.970628
0.969875
0.967569
0.966431
0.966351
0.965566
0.963572
0.962229
0.961818
0.961328
0.96026
0.959112
0.958133
0.956838
0.95565
0.954718
0.953538
0.952312
0.951346
0.950301
0.949073
0.947056
0.374318
0.374316
0.374312
0.374309
0.374306
0.374302
0.374299
0.374295
0.374291
0.374287
0.374282
0.374278
0.374273
0.374266
0.374261
0.374254
0.374247
0.374241
0.374233
0.374225
0.374218
0.374211
0.374205
0.3742
0.374195
0.374187
0.374182
0.37418
0.374179
0.37418
0.374183
0.374189
0.3742
0.374215
0.374232
0.374251
0.374267
0.37428
0.374291
0.374296
0.3743
0.374301
0.374299
0.374295
0.37429
0.374282
0.374269
0.374251
0.37423
0.374206
0.374187
0.374178
0.374174
0.374173
0.37418
0.374205
0.374242
0.374274
0.3743
0.374436
0.375472
0.384026
0.418883
0.516548
0.662822
0.814604
0.929118
0.969044
0.980703
0.972191
0.958141
0.965649
0.978134
0.978372
0.97352
0.966276
0.966796
0.971948
0.971663
0.969084
0.966746
0.966718
0.96668
0.965151
0.963433
0.962514
0.962563
0.961679
0.960241
0.95927
0.958252
0.956871
0.955741
0.954774
0.953505
0.952346
0.951481
0.950308
0.949014
0.947033
0.374308
0.374303
0.374299
0.374296
0.374291
0.374284
0.374279
0.374274
0.374268
0.374261
0.374256
0.37425
0.374242
0.374237
0.374233
0.374227
0.374222
0.374216
0.37421
0.374205
0.3742
0.374194
0.37419
0.374187
0.374183
0.374182
0.374182
0.374184
0.374189
0.374198
0.374209
0.374223
0.374238
0.374254
0.374271
0.374285
0.374296
0.374303
0.374306
0.374308
0.374308
0.374304
0.374299
0.374293
0.374287
0.374271
0.374252
0.374235
0.374217
0.374195
0.37418
0.374177
0.37418
0.37419
0.374214
0.374245
0.374275
0.374308
0.374321
0.37432
0.374314
0.374354
0.374932
0.380568
0.407782
0.498469
0.647751
0.795566
0.893751
0.932728
0.953353
0.982528
0.99051
0.982562
0.964072
0.96441
0.970564
0.975041
0.971901
0.967042
0.966639
0.967952
0.967169
0.964496
0.963201
0.963503
0.963149
0.961781
0.960324
0.959483
0.958347
0.956926
0.955904
0.954871
0.953565
0.952556
0.951628
0.950297
0.948945
0.947019
0.374256
0.374251
0.374249
0.374248
0.374245
0.37424
0.374238
0.374236
0.374233
0.37423
0.374227
0.374223
0.374219
0.374216
0.374214
0.374211
0.374206
0.374202
0.3742
0.374198
0.374196
0.374194
0.374193
0.374194
0.374196
0.3742
0.374207
0.374216
0.374227
0.374236
0.374247
0.374258
0.37427
0.374282
0.374292
0.374301
0.374305
0.374307
0.374308
0.374309
0.374305
0.374298
0.374294
0.374287
0.37427
0.374253
0.37424
0.374228
0.374214
0.374201
0.374195
0.374199
0.374213
0.374233
0.374256
0.374275
0.374297
0.374319
0.374323
0.374318
0.374303
0.374273
0.374243
0.374267
0.374665
0.378944
0.404378
0.48756
0.634846
0.810013
0.923354
0.97282
0.979263
0.964414
0.959145
0.970185
0.978292
0.975745
0.966432
0.965333
0.968408
0.968817
0.966354
0.96343
0.963493
0.964562
0.963652
0.961949
0.960553
0.959727
0.958397
0.957032
0.956127
0.954993
0.953706
0.952779
0.951768
0.950242
0.948844
0.946997
0.374222
0.374221
0.37422
0.374219
0.374218
0.374217
0.374215
0.374215
0.374213
0.374211
0.37421
0.37421
0.374209
0.37421
0.37421
0.37421
0.374211
0.374212
0.374215
0.374217
0.374219
0.374222
0.374225
0.374229
0.374234
0.37424
0.374246
0.374252
0.374256
0.374259
0.374264
0.374271
0.374278
0.374286
0.374293
0.374294
0.374292
0.374287
0.374283
0.374274
0.374261
0.374254
0.374251
0.374244
0.374239
0.374239
0.374236
0.374233
0.374236
0.374237
0.374241
0.374254
0.374267
0.374277
0.374283
0.374289
0.374303
0.374314
0.374311
0.374303
0.374287
0.37426
0.37424
0.374239
0.37425
0.374291
0.374672
0.378273
0.402948
0.488441
0.647764
0.813029
0.894108
0.936411
0.96065
0.988367
0.983447
0.969606
0.962233
0.966196
0.971498
0.969268
0.964002
0.963035
0.965585
0.965391
0.963479
0.961632
0.961061
0.96002
0.958412
0.957125
0.95641
0.95517
0.953897
0.953028
0.951853
0.950224
0.948858
0.947057
0.374199
0.374201
0.374203
0.374204
0.374206
0.374208
0.374211
0.374213
0.374215
0.374219
0.374222
0.374226
0.37423
0.374234
0.374239
0.374244
0.374248
0.374253
0.374259
0.374261
0.374262
0.374266
0.374267
0.374266
0.374267
0.374266
0.374264
0.374261
0.374258
0.374256
0.374256
0.374262
0.374268
0.374267
0.374262
0.37425
0.374229
0.374217
0.374209
0.374198
0.374195
0.374196
0.374202
0.374209
0.374218
0.374228
0.374242
0.374264
0.374288
0.374294
0.374301
0.374305
0.3743
0.374291
0.374286
0.374282
0.374274
0.37427
0.37427
0.374272
0.374267
0.374256
0.374253
0.374262
0.374291
0.374336
0.374355
0.374382
0.374724
0.378351
0.407605
0.497642
0.661665
0.845654
0.940138
0.97629
0.97464
0.957905
0.965639
0.975438
0.972996
0.964945
0.961723
0.964516
0.967463
0.965646
0.962639
0.961556
0.961698
0.960281
0.958562
0.95734
0.956676
0.955296
0.954074
0.9532
0.951943
0.950037
0.948811
0.947131
0.374216
0.374221
0.374226
0.374231
0.374236
0.374242
0.374249
0.374253
0.374258
0.374264
0.374268
0.374274
0.37428
0.374284
0.37429
0.374294
0.374296
0.374299
0.374299
0.374298
0.374296
0.374293
0.374289
0.374283
0.374276
0.374269
0.374262
0.374255
0.374248
0.374242
0.374235
0.374227
0.374216
0.374205
0.374189
0.374166
0.374149
0.374141
0.37414
0.374142
0.374148
0.374158
0.374171
0.374185
0.374207
0.374241
0.374283
0.374324
0.374344
0.374345
0.374341
0.374328
0.374306
0.374282
0.37426
0.374234
0.374221
0.374221
0.374234
0.374251
0.374255
0.374264
0.374282
0.374307
0.374338
0.374363
0.374367
0.374368
0.374351
0.374356
0.37477
0.379304
0.41329
0.521599
0.694709
0.853035
0.913541
0.943216
0.981613
0.982767
0.974255
0.95957
0.961854
0.969313
0.968752
0.96385
0.961743
0.962857
0.962243
0.960342
0.958491
0.957967
0.956961
0.955405
0.954252
0.953294
0.951751
0.949982
0.948916
0.947305
0.374267
0.374272
0.374276
0.37428
0.374285
0.37429
0.374294
0.374297
0.3743
0.374304
0.374307
0.37431
0.374313
0.374316
0.374319
0.374319
0.374318
0.374317
0.374314
0.37431
0.374305
0.374299
0.374291
0.374281
0.374269
0.374253
0.374239
0.374226
0.374212
0.374201
0.37419
0.374177
0.374164
0.374153
0.374139
0.374122
0.374115
0.374115
0.374117
0.374124
0.374133
0.374146
0.374162
0.374192
0.374237
0.374288
0.374344
0.374372
0.374373
0.374369
0.374354
0.374329
0.374295
0.37425
0.374204
0.37418
0.37418
0.374188
0.374214
0.374239
0.374265
0.3743
0.374325
0.374346
0.374364
0.374361
0.374351
0.374335
0.374311
0.374295
0.374293
0.374327
0.374967
0.381592
0.428122
0.550832
0.74175
0.895592
0.966039
0.9731
0.954806
0.958511
0.971522
0.972828
0.967134
0.961122
0.962551
0.964297
0.962412
0.959474
0.958637
0.958556
0.957334
0.955358
0.954457
0.953227
0.951493
0.950011
0.949158
0.947551
0.374292
0.374293
0.374296
0.374298
0.374301
0.374303
0.374305
0.374307
0.374309
0.374312
0.374315
0.374317
0.374319
0.37432
0.374321
0.37432
0.374316
0.37431
0.374304
0.374293
0.37428
0.374267
0.374253
0.374235
0.374218
0.374208
0.3742
0.374191
0.374183
0.374176
0.374167
0.374157
0.374147
0.374136
0.374126
0.374117
0.374116
0.374122
0.374134
0.374151
0.374172
0.374192
0.374215
0.374245
0.374284
0.374331
0.37437
0.374381
0.37438
0.374371
0.374348
0.374309
0.374261
0.374206
0.374167
0.374159
0.374162
0.374177
0.374209
0.374257
0.374316
0.374352
0.374365
0.374367
0.374357
0.374333
0.374308
0.374286
0.374275
0.374278
0.374298
0.374365
0.374453
0.374563
0.375617
0.386275
0.448739
0.601756
0.782186
0.891221
0.930398
0.96682
0.985907
0.97689
0.958888
0.960011
0.966478
0.96563
0.960714
0.958838
0.959847
0.959232
0.957144
0.955574
0.954653
0.953042
0.951315
0.950182
0.949451
0.947805
0.374286
0.374286
0.374285
0.374284
0.374283
0.37428
0.374278
0.374277
0.374275
0.374271
0.374271
0.37427
0.374267
0.374264
0.374256
0.37425
0.374245
0.374236
0.37423
0.374224
0.374213
0.374205
0.3742
0.374193
0.374188
0.374186
0.374184
0.37418
0.374176
0.374171
0.374166
0.374159
0.374152
0.374148
0.37415
0.37416
0.374183
0.374215
0.37424
0.374256
0.374261
0.374263
0.374267
0.374279
0.374305
0.37434
0.374363
0.374363
0.374352
0.374331
0.374299
0.374262
0.374221
0.374181
0.374157
0.374156
0.374167
0.374207
0.374263
0.374328
0.374381
0.374389
0.374383
0.374367
0.374327
0.374284
0.37426
0.374252
0.374259
0.374282
0.374353
0.374474
0.374606
0.374651
0.374624
0.374671
0.376384
0.396351
0.479493
0.65584
0.849774
0.947946
0.973257
0.957259
0.955533
0.966885
0.970019
0.963862
0.95788
0.959299
0.961011
0.959213
0.956577
0.955895
0.954857
0.952769
0.951295
0.950471
0.949683
0.94797
0.374208
0.374201
0.374196
0.374191
0.374185
0.374181
0.374179
0.374174
0.37417
0.374168
0.374166
0.374166
0.374167
0.374165
0.374161
0.37416
0.37416
0.374161
0.374163
0.374166
0.374169
0.374173
0.374176
0.374179
0.374181
0.374182
0.374182
0.374186
0.374194
0.374202
0.374211
0.374221
0.374226
0.374234
0.374251
0.374279
0.374317
0.374341
0.37434
0.374328
0.374302
0.374288
0.374283
0.374281
0.374288
0.37429
0.374288
0.374275
0.374258
0.374244
0.374238
0.374222
0.374196
0.374171
0.374174
0.374192
0.374237
0.374298
0.374349
0.374394
0.374407
0.374401
0.374386
0.374333
0.37428
0.374242
0.374233
0.374238
0.37427
0.374349
0.374487
0.374612
0.374674
0.374666
0.374588
0.374408
0.374159
0.374348
0.378074
0.411922
0.537684
0.722176
0.870274
0.923527
0.957771
0.980507
0.973888
0.956137
0.957162
0.963299
0.962399
0.958231
0.956365
0.956532
0.955047
0.952739
0.951437
0.951146
0.950134
0.948204
0.37411
0.374104
0.3741
0.374097
0.374096
0.374095
0.374095
0.374095
0.374096
0.374098
0.374101
0.374103
0.374107
0.374109
0.374112
0.374116
0.374122
0.374129
0.374137
0.374145
0.374155
0.374167
0.374181
0.374195
0.374212
0.374231
0.37425
0.374274
0.374298
0.374321
0.374341
0.374345
0.374344
0.374353
0.374362
0.374377
0.374387
0.374386
0.374374
0.374345
0.374301
0.374276
0.374261
0.374228
0.374204
0.374199
0.374206
0.374201
0.374195
0.3742
0.374213
0.374207
0.374203
0.374219
0.374249
0.374295
0.374357
0.374384
0.374393
0.374403
0.374407
0.374394
0.374335
0.374273
0.374237
0.374225
0.374228
0.37427
0.374371
0.374506
0.374635
0.37469
0.374688
0.374634
0.37444
0.37418
0.373954
0.373923
0.373974
0.374721
0.38428
0.444354
0.600105
0.81018
0.934332
0.968495
0.956375
0.951494
0.963929
0.966602
0.960523
0.956352
0.95748
0.957175
0.954634
0.952506
0.952152
0.951679
0.9504
0.948354
0.374087
0.374084
0.37408
0.374079
0.374078
0.374077
0.374077
0.37408
0.374088
0.374091
0.374093
0.374097
0.374106
0.374115
0.374125
0.374136
0.374152
0.374172
0.374193
0.374214
0.374237
0.374264
0.374292
0.374319
0.374343
0.374364
0.374379
0.374395
0.374415
0.374424
0.374423
0.374421
0.374418
0.374414
0.374404
0.374393
0.37439
0.374382
0.374356
0.374305
0.37424
0.374213
0.374194
0.374161
0.37414
0.374144
0.374158
0.374174
0.374185
0.374206
0.374228
0.374249
0.374289
0.374334
0.374366
0.3744
0.374417
0.374413
0.374399
0.374379
0.374357
0.374319
0.374262
0.374226
0.37422
0.374233
0.374285
0.374413
0.374553
0.374664
0.374704
0.3747
0.374647
0.37446
0.374206
0.373987
0.3739
0.373916
0.374061
0.374315
0.374537
0.376419
0.396962
0.499491
0.686312
0.855528
0.916614
0.95157
0.977535
0.97023
0.954826
0.956172
0.960231
0.95802
0.953784
0.95236
0.953453
0.952315
0.95053
0.948507
0.374144
0.374149
0.374163
0.374174
0.374187
0.374194
0.3742
0.374216
0.374246
0.374252
0.374254
0.374267
0.374286
0.374311
0.374325
0.374328
0.374333
0.374341
0.374351
0.374361
0.374374
0.374391
0.374406
0.374417
0.374434
0.374439
0.374433
0.374435
0.374444
0.374445
0.374437
0.374424
0.37441
0.37439
0.374362
0.374344
0.374318
0.37428
0.374236
0.374178
0.374149
0.374145
0.374148
0.374137
0.37412
0.374128
0.374147
0.374173
0.374241
0.374312
0.374322
0.374329
0.374367
0.374408
0.374428
0.37444
0.374424
0.374392
0.374342
0.374281
0.374259
0.374254
0.374233
0.374224
0.374251
0.374331
0.374471
0.374618
0.374698
0.374723
0.374713
0.37463
0.374434
0.374168
0.373989
0.373897
0.373902
0.374027
0.3743
0.374566
0.374626
0.374584
0.374756
0.38008
0.427679
0.572934
0.789671
0.923875
0.965917
0.952223
0.95186
0.963168
0.962478
0.955094
0.952611
0.954264
0.954317
0.952362
0.95057
0.94886
0.3744
0.374405
0.374404
0.374406
0.374418
0.374431
0.374429
0.374426
0.374432
0.374443
0.374444
0.374441
0.374441
0.37445
0.374462
0.374461
0.374453
0.37445
0.374447
0.37444
0.37443
0.374432
0.374435
0.374423
0.37442
0.374413
0.374369
0.374346
0.374318
0.374287
0.374271
0.374256
0.374249
0.37424
0.374209
0.374194
0.374184
0.374145
0.374105
0.374094
0.374098
0.374126
0.374152
0.374156
0.37414
0.374148
0.374198
0.37429
0.374412
0.37444
0.374401
0.374388
0.374403
0.3744
0.374407
0.374403
0.374341
0.374253
0.374209
0.374195
0.374203
0.374219
0.374241
0.374302
0.374422
0.374552
0.374691
0.374742
0.374738
0.374715
0.374602
0.374376
0.374094
0.373936
0.373878
0.373895
0.374031
0.374291
0.374556
0.374675
0.374655
0.374475
0.374033
0.374045
0.375241
0.391515
0.485517
0.67285
0.855204
0.912316
0.952897
0.972803
0.964629
0.950786
0.952741
0.957527
0.955277
0.951176
0.950746
0.949489
0.374552
0.374546
0.374535
0.374522
0.374512
0.374513
0.374511
0.374509
0.374515
0.374512
0.37451
0.374505
0.374486
0.374482
0.374479
0.374468
0.374453
0.374446
0.374442
0.374422
0.374416
0.374408
0.37437
0.374342
0.37429
0.374222
0.374204
0.374181
0.374133
0.374114
0.374133
0.374143
0.374145
0.374152
0.374144
0.374125
0.374134
0.374121
0.374089
0.374093
0.374153
0.374255
0.374306
0.374328
0.374335
0.374329
0.374372
0.374455
0.374501
0.374489
0.374438
0.374407
0.374377
0.374323
0.37431
0.37432
0.374258
0.374167
0.374161
0.374172
0.374203
0.374267
0.374394
0.374557
0.374663
0.37474
0.374773
0.374766
0.374698
0.374533
0.374296
0.374015
0.373862
0.373846
0.373872
0.374042
0.37435
0.374583
0.374701
0.374688
0.374513
0.374157
0.373867
0.373874
0.373975
0.374367
0.379057
0.424196
0.568716
0.785154
0.926505
0.959699
0.947454
0.949434
0.961047
0.959752
0.95283
0.950136
0.951582
0.950334
0.374517
0.374508
0.374499
0.374485
0.374474
0.374476
0.374476
0.374464
0.374446
0.374428
0.374425
0.374421
0.374402
0.374378
0.374378
0.37438
0.374367
0.374343
0.374322
0.374275
0.374247
0.374238
0.374197
0.374175
0.37415
0.374103
0.374103
0.374114
0.374095
0.374084
0.374109
0.374135
0.374143
0.374154
0.374158
0.374142
0.374176
0.374232
0.374238
0.374273
0.374358
0.374465
0.374526
0.374521
0.374488
0.374448
0.374465
0.374487
0.374472
0.374446
0.374418
0.374338
0.374216
0.374147
0.374158
0.374225
0.374215
0.374179
0.374181
0.374228
0.37437
0.374545
0.37472
0.374794
0.374785
0.37479
0.374772
0.374658
0.374422
0.374183
0.373962
0.37381
0.373805
0.373849
0.374041
0.374426
0.374676
0.374751
0.374725
0.374539
0.374182
0.373861
0.373822
0.373888
0.37422
0.374529
0.374563
0.375519
0.390859
0.488397
0.679917
0.851509
0.918228
0.954016
0.969717
0.961549
0.948803
0.950399
0.952814
0.950624
0.374125
0.374128
0.374136
0.374143
0.374144
0.374139
0.374123
0.374116
0.374139
0.374147
0.374141
0.374151
0.37415
0.374145
0.374166
0.374195
0.374196
0.374187
0.374172
0.374153
0.374125
0.374111
0.374119
0.374116
0.374081
0.374075
0.37412
0.374157
0.374149
0.374154
0.374205
0.374263
0.374304
0.374361
0.374376
0.37438
0.374454
0.374543
0.374541
0.374482
0.374482
0.374554
0.374597
0.374572
0.374476
0.374471
0.374451
0.374338
0.374223
0.374192
0.374172
0.374103
0.374041
0.374043
0.374067
0.374126
0.374234
0.374371
0.374439
0.37454
0.374694
0.374867
0.37488
0.374866
0.374816
0.374697
0.374517
0.374249
0.374033
0.373898
0.373805
0.373802
0.373856
0.374087
0.374503
0.374779
0.374844
0.374817
0.374585
0.374194
0.37386
0.373785
0.373833
0.374158
0.37455
0.374606
0.374516
0.374182
0.374308
0.379367
0.426565
0.582088
0.807963
0.926755
0.96146
0.944422
0.947233
0.956074
0.954469
0.950005
0.373908
0.373919
0.373932
0.37394
0.373937
0.373935
0.373946
0.373955
0.37398
0.37403
0.374048
0.374038
0.374033
0.374061
0.374112
0.374123
0.3741
0.374087
0.374091
0.3741
0.374121
0.374149
0.374183
0.374242
0.374317
0.374356
0.374408
0.374482
0.374514
0.374542
0.374572
0.374606
0.374655
0.374686
0.374687
0.374652
0.374629
0.374663
0.374675
0.374599
0.374489
0.374451
0.374453
0.374437
0.374291
0.374237
0.374251
0.374175
0.374057
0.374046
0.374052
0.373996
0.373949
0.373991
0.374073
0.374211
0.374465
0.374786
0.374893
0.374913
0.374922
0.374913
0.37489
0.374768
0.374503
0.374238
0.373982
0.373819
0.373779
0.373788
0.373797
0.373873
0.374157
0.374599
0.37492
0.374926
0.374874
0.374634
0.374174
0.373872
0.373759
0.373794
0.374113
0.374567
0.374689
0.374617
0.374264
0.373977
0.373987
0.374145
0.375521
0.394889
0.502278
0.698194
0.880218
0.914049
0.952106
0.960817
0.953865
0.949389
0.374025
0.374048
0.374064
0.374065
0.374068
0.374106
0.374125
0.374124
0.37417
0.374234
0.374238
0.374286
0.374365
0.374355
0.374373
0.374519
0.374578
0.374575
0.374602
0.374636
0.37467
0.374699
0.374733
0.3748
0.374862
0.374865
0.374884
0.374886
0.374874
0.374883
0.374858
0.374798
0.374772
0.374768
0.374746
0.374687
0.374607
0.374577
0.374543
0.374436
0.374281
0.374183
0.374176
0.374183
0.374129
0.374088
0.374135
0.374129
0.374059
0.374047
0.37407
0.374056
0.374045
0.374192
0.374482
0.374745
0.374995
0.375118
0.375141
0.37512
0.374996
0.374772
0.374562
0.374309
0.37404
0.37383
0.37368
0.373667
0.373703
0.373784
0.374
0.374399
0.374774
0.375029
0.37504
0.374904
0.374566
0.374088
0.373794
0.37373
0.373782
0.374126
0.374605
0.374785
0.374701
0.374349
0.373964
0.373913
0.374063
0.374479
0.374551
0.374818
0.380984
0.441133
0.616739
0.820845
0.948422
0.947579
0.945547