/*--------------------------------*- C++ -*----------------------------------*\
  =========                 |
  \\      /  F ield         | OpenFOAM: The Open Source CFD Toolbox
   \\    /   O peration     | Website:  https://openfoam.org
    \\  /    A nd           | Version:  7
     \\/     M anipulation  |
\*---------------------------------------------------------------------------*/
FoamFile
{
    version     2.0;
    format      ascii;
    class       volScalarField;
    location    "10";
    object      T;
}
// * * * * * * * * * * * * * * * * * * * * * * * * * * * * * * * * * * * * * //

dimensions      [0 0 0 1 0 0 0];

internalField   nonuniform List<scalar> 
12750
(
100.029
100.23
100.313
100.36
100.388
100.417
100.438
100.454
100.453
100.438
100.417
100.406
100.417
100.423
100.415
100.401
100.392
100.386
100.374
100.358
100.342
100.33
100.323
100.322
100.322
100.323
100.326
100.328
100.332
100.342
99.2634
99.2554
99.2433
99.3535
99.5618
99.8195
100.095
100.292
100.428
100.531
100.596
100.612
100.606
100.591
100.575
100.552
100.533
100.507
100.475
100.446
100.427
100.409
100.395
100.387
100.38
100.374
100.369
100.364
100.364
100.366
99.2476
99.2394
99.2322
99.2279
99.2287
99.2305
99.2306
99.2281
99.2763
99.7396
100.178
100.421
100.537
100.592
100.665
100.669
100.662
100.639
100.618
100.598
100.581
100.558
100.535
100.516
100.498
100.482
100.47
100.458
100.445
100.432
99.2289
99.2243
99.2241
99.2252
99.2291
99.2312
99.231
99.2292
99.2232
99.217
99.2143
99.2114
99.3509
99.8539
100.218
100.492
100.643
100.706
100.756
100.743
100.721
100.696
100.676
100.654
100.639
100.626
100.612
100.598
100.573
100.541
99.2208
99.2212
99.2237
99.2289
99.2328
99.2329
99.2323
99.2294
99.2194
99.2088
99.206
99.2061
99.2069
99.2051
99.2048
99.2126
99.6111
100.221
100.483
100.623
100.717
100.73
100.735
100.72
100.724
100.718
100.707
100.686
100.663
100.636
99.2202
99.2233
99.2291
99.2329
99.2337
99.2333
99.2288
99.2146
99.1988
99.195
99.1965
99.2003
99.2068
99.207
99.2059
99.2091
99.2147
99.2197
99.225
99.7275
100.174
100.464
100.586
100.655
100.696
100.697
100.699
100.689
100.684
100.672
99.2215
99.2264
99.2311
99.2312
99.2279
99.2181
99.2038
99.1915
99.1884
99.1892
99.1929
99.2012
99.2106
99.2127
99.2123
99.2152
99.2271
99.2431
99.257
99.2629
99.2735
99.3747
99.7215
100.184
100.355
100.483
100.559
100.592
100.617
100.627
99.2166
99.2162
99.2139
99.2088
99.2023
99.1946
99.1883
99.1865
99.1871
99.1911
99.2013
99.2129
99.2173
99.2239
99.2331
99.2356
99.24
99.2581
99.2792
99.2856
99.3009
99.3126
99.321
99.3339
99.4358
99.8821
100.095
100.283
100.376
100.467
99.1952
99.1941
99.1927
99.1921
99.1914
99.188
99.1871
99.1888
99.1976
99.2133
99.2284
99.2346
99.2368
99.2412
99.2481
99.2514
99.2594
99.2792
99.3068
99.3159
99.3206
99.3375
99.353
99.3671
99.3787
99.387
99.3939
99.6886
99.9048
100.205
99.1886
99.1887
99.189
99.1902
99.1917
99.1965
99.2042
99.2155
99.2311
99.2448
99.2566
99.2582
99.2552
99.2549
99.2611
99.2799
99.3032
99.316
99.3329
99.3435
99.3457
99.3577
99.3808
99.3894
99.4009
99.4129
99.4278
99.4371
99.4445
99.7557
99.2021
99.2072
99.212
99.2192
99.2298
99.241
99.2501
99.2581
99.2638
99.2672
99.2733
99.2734
99.2727
99.2795
99.3
99.3278
99.348
99.3514
99.3539
99.3643
99.3766
99.3859
99.4065
99.4185
99.4229
99.4326
99.4495
99.4638
99.4717
99.4869
99.2558
99.2618
99.2673
99.2737
99.2772
99.2788
99.281
99.2849
99.2833
99.283
99.2888
99.3037
99.3238
99.3418
99.3578
99.3707
99.3794
99.3792
99.3796
99.3876
99.407
99.4194
99.4298
99.4447
99.4487
99.4552
99.4705
99.4895
99.4956
99.5091
99.2995
99.3032
99.3068
99.3099
99.3091
99.3088
99.3104
99.3165
99.3223
99.3318
99.347
99.3651
99.3814
99.3906
99.3945
99.3973
99.4004
99.4056
99.4131
99.4225
99.4391
99.4537
99.4563
99.4652
99.4776
99.4875
99.4982
99.5117
99.5198
99.5311
99.3425
99.3482
99.3534
99.359
99.3637
99.3674
99.3742
99.3826
99.3907
99.3978
99.4039
99.4105
99.4181
99.4194
99.4176
99.4196
99.4288
99.4425
99.4574
99.4687
99.4761
99.4872
99.4902
99.4925
99.5031
99.5181
99.527
99.5332
99.5421
99.5564
99.3952
99.4009
99.4089
99.4177
99.4232
99.425
99.428
99.4315
99.4378
99.4411
99.441
99.4427
99.4481
99.4529
99.4582
99.4665
99.4789
99.4898
99.4998
99.5085
99.51
99.5135
99.521
99.5271
99.536
99.5477
99.5555
99.5619
99.5686
99.5805
99.453
99.4558
99.4606
99.4689
99.4757
99.4752
99.474
99.476
99.4812
99.4887
99.4932
99.4963
99.5016
99.5106
99.5198
99.5263
99.5324
99.5364
99.5379
99.5416
99.5444
99.5476
99.5551
99.5669
99.5758
99.5824
99.5868
99.5902
99.595
99.605
99.5195
99.5195
99.5209
99.5257
99.5346
99.5411
99.5408
99.5408
99.5433
99.5474
99.5523
99.5561
99.5597
99.5642
99.5682
99.5693
99.5709
99.5739
99.5754
99.5777
99.5843
99.5927
99.6006
99.6088
99.6127
99.6157
99.6182
99.6214
99.6272
99.6358
99.5921
99.5899
99.5896
99.5902
99.5929
99.5986
99.6037
99.6051
99.6041
99.6038
99.6064
99.6091
99.6104
99.6126
99.6142
99.6155
99.6176
99.6219
99.628
99.6338
99.6389
99.6433
99.6467
99.6487
99.65
99.6504
99.6522
99.6565
99.6595
99.6615
99.6693
99.6678
99.6632
99.6612
99.6616
99.6639
99.6692
99.6723
99.6717
99.6698
99.6699
99.6718
99.6738
99.6754
99.6773
99.6794
99.681
99.6826
99.6843
99.6857
99.6859
99.686
99.6852
99.6833
99.6835
99.6847
99.6866
99.6896
99.6897
99.6899
99.7453
99.7461
99.7451
99.7399
99.7357
99.735
99.737
99.7412
99.7416
99.7391
99.7368
99.7368
99.7367
99.7361
99.7359
99.7354
99.7344
99.733
99.7322
99.7312
99.73
99.7287
99.7284
99.729
99.7298
99.7306
99.7304
99.7296
99.7284
99.7258
99.8228
99.8233
99.8233
99.8224
99.8163
99.8108
99.81
99.8115
99.8122
99.8106
99.807
99.8048
99.803
99.801
99.7992
99.7974
99.7951
99.7925
99.7902
99.788
99.7858
99.7833
99.7809
99.7783
99.7756
99.7723
99.7682
99.764
99.7607
99.7566
99.8934
99.8935
99.8934
99.8932
99.8903
99.8832
99.8815
99.8817
99.8808
99.8765
99.8723
99.8708
99.8689
99.865
99.8606
99.8573
99.854
99.8502
99.8458
99.8414
99.837
99.8326
99.8279
99.823
99.818
99.8129
99.8087
99.8042
99.8004
99.7952
99.9437
99.9426
99.9415
99.9411
99.9408
99.9381
99.9346
99.9337
99.933
99.9312
99.9269
99.924
99.9223
99.9196
99.9155
99.9116
99.908
99.9038
99.8991
99.8941
99.889
99.8838
99.8781
99.8727
99.8669
99.8612
99.8555
99.8496
99.8441
99.8344
99.9643
99.9638
99.9637
99.9637
99.9636
99.9633
99.9621
99.9606
99.9602
99.9597
99.9583
99.9562
99.955
99.9539
99.9518
99.9492
99.9467
99.9439
99.9406
99.9368
99.9326
99.928
99.923
99.9175
99.9116
99.9053
99.8985
99.8912
99.8846
99.8736
99.9715
99.9712
99.9713
99.9715
99.9718
99.9718
99.9714
99.9707
99.9703
99.97
99.9697
99.9689
99.9684
99.9681
99.9675
99.9664
99.9652
99.9641
99.9628
99.961
99.9588
99.9563
99.9534
99.9499
99.9459
99.9412
99.9359
99.9298
99.9237
99.9125
99.9776
99.977
99.9769
99.9771
99.9775
99.9775
99.9772
99.9765
99.976
99.9759
99.9758
99.9754
99.9748
99.9747
99.9745
99.9738
99.9732
99.9726
99.9721
99.9713
99.9703
99.9692
99.9679
99.9663
99.9644
99.962
99.9591
99.9554
99.9515
99.9433
99.9874
99.9865
99.9856
99.9855
99.9857
99.9858
99.9854
99.9847
99.9838
99.9836
99.9835
99.9831
99.9822
99.9817
99.9814
99.9809
99.9801
99.9794
99.9788
99.9781
99.9773
99.9765
99.9756
99.9746
99.9735
99.9722
99.9707
99.9688
99.9668
99.9622
99.9964
99.9963
99.9957
99.9952
99.9951
99.995
99.9947
99.9944
99.9938
99.9933
99.993
99.9927
99.992
99.9912
99.9906
99.9901
99.9893
99.9884
99.9875
99.9866
99.9856
99.9846
99.9835
99.9823
99.9812
99.9799
99.9786
99.9772
99.9758
99.9729
99.9997
99.9996
99.9996
99.9995
99.9994
99.9994
99.9993
99.9993
99.9991
99.999
99.9988
99.9987
99.9985
99.9982
99.9979
99.9975
99.9971
99.9966
99.996
99.9953
99.9946
99.9936
99.9926
99.9915
99.9902
99.9888
99.9873
99.9857
99.9842
99.9815
100
100
100
100
100
100
100
100
100
100
99.9999
99.9999
99.9999
99.9999
99.9999
99.9998
99.9997
99.9997
99.9995
99.9994
99.9992
99.9989
99.9985
99.998
99.9974
99.9966
99.9956
99.9943
99.993
99.9904
100
100
100
100
100
100
100
100
100
100
100
100
100
100
100
100
100
100
100
100
100
99.9999
99.9999
99.9998
99.9998
99.9996
99.9994
99.999
99.9986
99.9973
100
100
100
100
100
100
100
100
100
100
100
100
100
100
100
100
100
100
100
100
100
100
100
100
100
100
100
99.9999
99.9999
99.9997
100
100
100
100
100
100
100
100
100
100
100
100
100
100
100
100
100
100
100
100
100
100
100
100
100
100
100
100
100
100
100
100
100
100
100
100
100
100
100
100
100
100
100
100
100
100
100
100
100
100
100
100
100
100
100
100
100
100
100
100
100
100
100
100
100
100
100
100
100
100
100
100
100
100
100
100
100
100
100
100
100
100
100
100
100
100
100
100
100
100
99.2774
99.2719
99.2564
99.2355
99.2221
99.219
99.218
99.2104
99.1947
99.1911
99.1967
99.2473
99.2935
99.3361
99.3917
99.4519
99.5213
99.5954
99.6684
99.7441
99.8216
99.8949
99.9455
99.9658
99.9724
99.9785
99.9878
99.9965
99.9997
100
100
100
100
100
100
99.2784
99.2712
99.2539
99.2347
99.2241
99.2186
99.2149
99.1963
99.1892
99.195
99.2002
99.2514
99.2978
99.3418
99.4033
99.4704
99.54
99.6083
99.6798
99.7556
99.836
99.9091
99.9525
99.9681
99.9737
99.9796
99.9887
99.997
99.9998
100
100
100
100
100
100
99.2792
99.2731
99.2569
99.2404
99.2299
99.2207
99.2128
99.1894
99.1904
99.1964
99.2001
99.2477
99.2988
99.3486
99.4156
99.4811
99.5466
99.6138
99.6861
99.7653
99.8511
99.9198
99.9563
99.9689
99.9741
99.98
99.9893
99.9975
99.9998
100
100
100
100
100
100
99.2793
99.2742
99.2583
99.2425
99.2324
99.2231
99.2114
99.1857
99.1913
99.1965
99.1999
99.2466
99.3101
99.3656
99.4258
99.4867
99.5517
99.6208
99.6989
99.7874
99.867
99.927
99.9586
99.9694
99.9742
99.9801
99.9902
99.9981
99.9999
100
100
100
100
100
100
99.2788
99.2756
99.2595
99.243
99.2328
99.2238
99.2105
99.1848
99.1901
99.1967
99.2029
99.2584
99.3256
99.3768
99.4319
99.4924
99.5571
99.6364
99.722
99.8017
99.8755
99.9323
99.9607
99.9698
99.9742
99.981
99.992
99.9986
99.9999
100
100
100
100
100
100
99.2777
99.2757
99.2596
99.2429
99.2326
99.224
99.2108
99.1875
99.1911
99.1987
99.2154
99.2735
99.3333
99.3827
99.4375
99.4997
99.5772
99.6569
99.733
99.8101
99.884
99.9387
99.9634
99.9706
99.9751
99.9832
99.9932
99.9989
100
100
100
100
100
100
100
99.277
99.2755
99.2586
99.2402
99.2299
99.2233
99.2113
99.1917
99.1913
99.2048
99.2269
99.2795
99.3357
99.386
99.446
99.5205
99.5939
99.6653
99.7404
99.8191
99.8949
99.9465
99.9661
99.9718
99.9764
99.9842
99.9938
99.9991
100
100
100
100
100
100
100
99.2764
99.2744
99.2568
99.2364
99.2263
99.2209
99.2114
99.1938
99.1927
99.2125
99.2329
99.2801
99.3366
99.3918
99.4636
99.5327
99.6008
99.6721
99.7488
99.8344
99.9098
99.9524
99.9675
99.9722
99.9768
99.9847
99.9945
99.9993
100
100
100
100
100
100
100
99.2764
99.2736
99.2553
99.2345
99.2245
99.2199
99.2091
99.1939
99.1939
99.2162
99.2371
99.2784
99.3411
99.4079
99.4725
99.538
99.6065
99.6809
99.7691
99.8547
99.9196
99.9559
99.9684
99.9724
99.9769
99.9852
99.9954
99.9995
100
100
100
100
100
100
100
99.2784
99.2735
99.2542
99.2335
99.2237
99.2201
99.2033
99.1879
99.1881
99.2142
99.2434
99.287
99.3587
99.4158
99.4772
99.5428
99.6156
99.705
99.7905
99.8664
99.9267
99.959
99.9691
99.9726
99.9769
99.9866
99.9965
99.9997
100
100
100
100
100
100
100
99.2816
99.2738
99.2535
99.232
99.2215
99.2201
99.1954
99.1774
99.1782
99.205
99.2539
99.3076
99.3669
99.4206
99.4821
99.5535
99.6426
99.7243
99.8018
99.8764
99.9341
99.9621
99.9699
99.9731
99.9786
99.9889
99.9973
99.9998
100
100
100
100
100
100
100
99.2838
99.2739
99.2535
99.231
99.2184
99.2159
99.1877
99.1714
99.1726
99.2061
99.265
99.3175
99.3691
99.4282
99.4954
99.5815
99.6587
99.7341
99.8123
99.888
99.9426
99.965
99.9709
99.9743
99.9804
99.9901
99.9977
99.9998
100
100
100
100
100
100
100
99.2845
99.2729
99.254
99.2318
99.2178
99.2125
99.1839
99.1698
99.1712
99.2175
99.268
99.3193
99.3714
99.4417
99.5219
99.5953
99.6672
99.7437
99.8264
99.9035
99.9498
99.9671
99.9716
99.9751
99.9812
99.9909
99.9982
99.9999
100
100
100
100
100
100
100
99.2847
99.2727
99.2542
99.233
99.2175
99.2119
99.1833
99.1707
99.174
99.2272
99.2714
99.3188
99.3892
99.4621
99.5331
99.6027
99.6757
99.7596
99.8485
99.916
99.9547
99.9682
99.9719
99.9752
99.9818
99.9919
99.9987
99.9999
100
100
100
100
100
100
100
99.2849
99.2726
99.254
99.2338
99.2172
99.2116
99.1839
99.1788
99.1849
99.2383
99.2839
99.3334
99.4109
99.4723
99.5401
99.6095
99.6939
99.786
99.8642
99.9253
99.9587
99.9689
99.9719
99.9751
99.9823
99.9934
99.9991
100
100
100
100
100
100
100
100
99.2836
99.2703
99.2527
99.234
99.2178
99.2114
99.1887
99.1904
99.1963
99.2443
99.2943
99.3498
99.424
99.48
99.5473
99.6307
99.7218
99.8019
99.8764
99.9341
99.9621
99.9694
99.9719
99.9754
99.9845
99.9949
99.9994
100
100
100
100
100
100
100
100
99.283
99.2674
99.2477
99.2316
99.2175
99.2086
99.1917
99.1982
99.2003
99.2421
99.3029
99.362
99.4268
99.4904
99.5684
99.6578
99.7364
99.8148
99.8895
99.9432
99.965
99.9701
99.9723
99.9771
99.9865
99.9958
99.9995
100
100
100
100
100
100
100
100
99.2844
99.267
99.242
99.2252
99.2101
99.1996
99.1923
99.2013
99.2002
99.2343
99.3163
99.376
99.4264
99.5082
99.5944
99.6706
99.7482
99.8297
99.9053
99.9508
99.9672
99.971
99.9733
99.9784
99.9876
99.9965
99.9997
100
100
100
100
100
100
100
100
99.2875
99.2666
99.2378
99.2174
99.2003
99.1841
99.1902
99.2014
99.2034
99.244
99.3249
99.3842
99.4482
99.5308
99.6053
99.6809
99.7631
99.8515
99.9189
99.9563
99.9687
99.9716
99.974
99.9791
99.9886
99.9973
99.9998
100
100
100
100
100
100
100
100
99.2883
99.2664
99.236
99.2101
99.1924
99.1697
99.1794
99.1971
99.2131
99.2662
99.3325
99.3898
99.4711
99.5416
99.6152
99.6951
99.7898
99.8702
99.9296
99.9606
99.9696
99.9718
99.9741
99.9796
99.99
99.998
99.9999
100
100
100
100
100
100
100
100
99.2841
99.2665
99.2359
99.2069
99.1875
99.1615
99.1679
99.1963
99.2284
99.2772
99.3479
99.4112
99.4835
99.551
99.6289
99.7264
99.8115
99.8851
99.9391
99.964
99.9701
99.9718
99.9741
99.9807
99.9921
99.9987
99.9999
100
100
100
100
100
100
100
100
99.2771
99.2658
99.2412
99.2081
99.1867
99.1579
99.1633
99.2021
99.2448
99.2864
99.3585
99.4218
99.4926
99.5666
99.6628
99.7493
99.8283
99.8998
99.948
99.9665
99.9704
99.9718
99.9748
99.9834
99.9937
99.999
100
100
100
100
100
100
100
100
100
99.2696
99.2628
99.2472
99.216
99.1912
99.157
99.1628
99.2045
99.254
99.2959
99.364
99.4317
99.5028
99.5993
99.6866
99.7659
99.8458
99.9157
99.9552
99.9682
99.9708
99.9724
99.9766
99.9851
99.9948
99.9993
100
100
100
100
100
100
100
100
100
99.2633
99.261
99.2503
99.2217
99.2024
99.1647
99.1679
99.2025
99.2575
99.3052
99.3729
99.4544
99.5369
99.6238
99.7016
99.7833
99.8676
99.9292
99.9604
99.9694
99.9713
99.9731
99.9775
99.9864
99.9958
99.9996
100
100
100
100
100
100
100
100
100
99.2571
99.2579
99.2512
99.2243
99.2065
99.1714
99.1721
99.2021
99.2622
99.3195
99.3929
99.4762
99.5618
99.6375
99.7178
99.8086
99.8872
99.9401
99.9643
99.9701
99.9716
99.9735
99.9783
99.9877
99.9969
99.9997
100
100
100
100
100
100
100
100
100
99.2521
99.2517
99.2502
99.2246
99.207
99.1717
99.1717
99.206
99.2718
99.3378
99.42
99.499
99.574
99.652
99.7439
99.8335
99.9037
99.9492
99.967
99.9706
99.9716
99.9736
99.979
99.9897
99.9978
99.9998
100
100
100
100
100
100
100
100
100
99.2515
99.2491
99.2412
99.2167
99.2016
99.1709
99.171
99.2109
99.2843
99.3538
99.4449
99.5135
99.5882
99.6766
99.774
99.854
99.9188
99.9566
99.9687
99.9708
99.9716
99.9735
99.9805
99.9916
99.9985
99.9999
100
100
100
100
100
100
100
100
100
99.2526
99.2486
99.229
99.1976
99.1807
99.1744
99.1763
99.2232
99.2984
99.3716
99.4559
99.5299
99.6111
99.7128
99.7967
99.8737
99.9333
99.9621
99.9697
99.971
99.9718
99.9745
99.9829
99.9933
99.999
100
100
100
100
100
100
100
100
100
100
99.2561
99.2489
99.2179
99.1729
99.1488
99.1786
99.1929
99.2291
99.3098
99.3915
99.4652
99.5496
99.651
99.7366
99.8192
99.8954
99.945
99.9658
99.9703
99.9712
99.9723
99.9764
99.9849
99.9947
99.9993
100
100
100
100
100
100
100
100
100
100
99.2724
99.2515
99.2039
99.1487
99.1276
99.1791
99.2
99.2266
99.321
99.4097
99.4881
99.5836
99.6752
99.7602
99.8455
99.9143
99.9539
99.9681
99.9708
99.9715
99.9731
99.9776
99.9867
99.996
99.9996
100
100
100
100
100
100
100
100
100
100
99.2916
99.2545
99.1855
99.1273
99.1193
99.1744
99.2014
99.2465
99.3517
99.4261
99.5195
99.6132
99.6983
99.7871
99.8714
99.93
99.9605
99.9696
99.971
99.9718
99.9738
99.9788
99.9886
99.9971
99.9998
100
100
100
100
100
100
100
100
100
100
99.2998
99.2532
99.1757
99.118
99.1164
99.1708
99.2127
99.2862
99.3769
99.4496
99.5466
99.6353
99.7244
99.8195
99.8933
99.9429
99.965
99.9703
99.9711
99.9719
99.9741
99.9801
99.9905
99.998
99.9999
100
100
100
100
100
100
100
100
100
100
99.2952
99.24
99.1756
99.1214
99.1197
99.169
99.2349
99.3035
99.3913
99.4785
99.5725
99.6639
99.7618
99.8462
99.9128
99.9534
99.9679
99.9706
99.9711
99.9718
99.9742
99.9819
99.9925
99.9987
99.9999
100
100
100
100
100
100
100
100
100
100
99.2741
99.2305
99.1857
99.1512
99.1379
99.1731
99.2553
99.3095
99.4023
99.5059
99.6031
99.6996
99.7934
99.8716
99.9309
99.9609
99.9695
99.9707
99.9711
99.9717
99.975
99.9841
99.9944
99.9992
100
100
100
100
100
100
100
100
100
100
100
99.2473
99.2285
99.2221
99.1743
99.1456
99.1744
99.2652
99.3212
99.4202
99.5316
99.6377
99.7386
99.8237
99.8967
99.9451
99.9657
99.9703
99.9709
99.9711
99.9722
99.9772
99.9867
99.996
99.9996
100
100
100
100
100
100
100
100
100
100
100
99.2209
99.2293
99.2361
99.1805
99.1472
99.1765
99.2656
99.3557
99.4683
99.5722
99.6762
99.7703
99.8534
99.9188
99.9555
99.9685
99.9708
99.9711
99.9714
99.9734
99.979
99.9889
99.9971
99.9997
100
100
100
100
100
100
100
100
100
100
100
99.2094
99.232
99.2319
99.1743
99.1412
99.1812
99.2717
99.3965
99.4998
99.6099
99.712
99.8043
99.8835
99.9364
99.9626
99.97
99.971
99.9713
99.9721
99.9744
99.9807
99.9908
99.998
99.9999
100
100
100
100
100
100
100
100
100
100
100
99.2119
99.2374
99.1884
99.1323
99.1217
99.186
99.3245
99.4375
99.5418
99.6453
99.75
99.8401
99.9088
99.9501
99.9671
99.9707
99.9711
99.9714
99.9724
99.9752
99.9824
99.9927
99.9988
99.9999
100
100
100
100
100
100
100
100
100
100
100
99.2235
99.2281
99.1355
99.08
99.1081
99.2116
99.3722
99.4623
99.5776
99.6905
99.7906
99.8737
99.93
99.9598
99.9694
99.9709
99.9711
99.9714
99.9723
99.9758
99.9847
99.9949
99.9993
100
100
100
100
100
100
100
100
100
100
100
100
99.238
99.1849
99.0891
99.0657
99.1288
99.2514
99.3907
99.5037
99.625
99.7391
99.8322
99.9023
99.9466
99.9657
99.9704
99.971
99.9711
99.9713
99.9723
99.9774
99.9878
99.9967
99.9997
100
100
100
100
100
100
100
100
100
100
100
100
99.2597
99.1568
99.0537
99.0669
99.1999
99.2851
99.4029
99.5506
99.6784
99.7832
99.8683
99.9263
99.958
99.9689
99.9708
99.971
99.9711
99.9714
99.9738
99.9806
99.9907
99.9979
99.9998
100
100
100
100
100
100
100
100
100
100
100
100
99.2789
99.1448
99.0369
99.0713
99.2446
99.3365
99.4519
99.6123
99.7338
99.8284
99.9002
99.9451
99.9649
99.9703
99.9709
99.971
99.9711
99.972
99.9755
99.983
99.9927
99.9986
99.9999
100
100
100
100
100
100
100
100
100
100
100
100
99.2823
99.1317
99.0289
99.0889
99.2547
99.3821
99.5412
99.6719
99.7814
99.8695
99.9269
99.9576
99.9686
99.9708
99.971
99.971
99.9714
99.9727
99.9767
99.9849
99.9945
99.9992
100
100
100
100
100
100
100
100
100
100
100
100
100
99.2489
99.1037
99.0224
99.1183
99.2546
99.4189
99.5983
99.7332
99.8335
99.9038
99.9465
99.9654
99.9703
99.971
99.971
99.9711
99.9716
99.9732
99.9778
99.9874
99.9965
99.9996
100
100
100
100
100
100
100
100
100
100
100
100
100
99.1879
99.0818
99.0214
99.1378
99.325
99.5109
99.6685
99.7896
99.8779
99.9319
99.9593
99.9691
99.9708
99.971
99.9711
99.9711
99.9716
99.9734
99.9797
99.9907
99.998
99.9998
100
100
100
100
100
100
100
100
100
100
100
100
100
99.0928
99.0737
99.0878
99.1756
99.4107
99.5984
99.7455
99.8476
99.9136
99.951
99.9664
99.9706
99.9709
99.9711
99.9711
99.9711
99.9715
99.9744
99.9834
99.9937
99.9989
99.9999
100
100
100
100
100
100
100
100
100
100
100
100
100
99.0209
99.0034
99.1393
99.28
99.4877
99.6808
99.8093
99.8942
99.9409
99.9623
99.9696
99.9711
99.9709
99.9711
99.9711
99.9712
99.9724
99.9776
99.9868
99.9956
99.9994
100
100
100
100
100
100
100
100
100
100
100
100
100
100
99.0052
98.9484
99.1481
99.3917
99.6067
99.7689
99.872
99.9288
99.9572
99.9681
99.9708
99.9711
99.9709
99.9712
99.9712
99.9718
99.9743
99.9802
99.9895
99.9972
99.9997
100
100
100
100
100
100
100
100
100
100
100
100
100
100
99.0313
98.905
99.1544
99.4749
99.7204
99.8466
99.9165
99.9517
99.9659
99.9703
99.9711
99.9711
99.9708
99.9711
99.9714
99.9725
99.9757
99.9825
99.9922
99.9984
99.9999
100
100
100
100
100
100
100
100
100
100
100
100
100
100
99.0924
98.8829
99.3221
99.6352
99.8088
99.9014
99.9457
99.9641
99.9697
99.9711
99.9712
99.9711
99.9707
99.9711
99.9716
99.973
99.9769
99.9854
99.995
99.9993
100
100
100
100
100
100
100
100
100
100
100
100
100
100
100
98.756
99.1021
99.5074
99.7713
99.8875
99.94
99.962
99.969
99.9707
99.9712
99.9712
99.9711
99.9706
99.9711
99.9716
99.9734
99.979
99.9893
99.9972
99.9997
100
100
100
100
100
100
100
100
100
100
100
100
100
100
100
98.5302
99.2449
99.6896
99.8623
99.9345
99.9608
99.9687
99.9706
99.971
99.9712
99.9713
99.971
99.9705
99.9712
99.9716
99.9746
99.9829
99.9928
99.9985
99.9999
100
100
100
100
100
100
100
100
100
100
100
100
100
100
100
99.0369
99.5618
99.8276
99.9281
99.9595
99.9686
99.9707
99.971
99.9711
99.9713
99.9713
99.9709
99.9705
99.9712
99.9726
99.9778
99.9866
99.9953
99.9993
100
100
100
100
100
100
100
100
100
100
100
100
100
100
100
100
99.4565
99.7604
99.9155
99.9596
99.9691
99.9708
99.971
99.971
99.9711
99.9713
99.9712
99.9708
99.9706
99.9718
99.9744
99.9807
99.9899
99.9973
99.9997
100
100
100
100
100
100
100
100
100
100
100
100
100
100
100
100
99.7832
99.9137
99.9609
99.9695
99.9709
99.9711
99.971
99.971
99.9711
99.9713
99.9712
99.9707
99.9709
99.9731
99.9761
99.9837
99.9933
99.9987
99.9999
100
100
100
100
100
100
100
100
100
100
100
100
100
100
100
100
99.9712
99.9712
99.9712
99.9712
99.9711
99.9711
99.971
99.971
99.9711
99.9713
99.9711
99.9707
99.9714
99.9743
99.9783
99.9879
99.9963
99.9996
100
100
100
100
100
100
100
100
100
100
100
100
100
100
100
100
100
99.9712
99.9712
99.9712
99.9712
99.9711
99.9711
99.971
99.9709
99.9711
99.9713
99.9713
99.9709
99.9712
99.974
99.9787
99.9883
99.9962
99.9995
100
100
100
100
100
100
100
100
100
100
100
100
100
100
100
100
100
99.9711
99.9711
99.9711
99.9712
99.9711
99.9711
99.971
99.9709
99.971
99.9712
99.9713
99.9709
99.9711
99.9747
99.9811
99.9906
99.9976
99.9998
100
100
100
100
100
100
100
100
100
100
100
100
100
100
100
100
100
99.9711
99.9711
99.9711
99.9711
99.9711
99.9712
99.9712
99.971
99.971
99.9711
99.9713
99.9708
99.9711
99.9755
99.9826
99.992
99.9983
99.9999
100
100
100
100
100
100
100
100
100
100
100
100
100
100
100
100
100
99.9711
99.9711
99.9711
99.9711
99.9711
99.9712
99.9712
99.9711
99.9709
99.971
99.9713
99.971
99.9715
99.9768
99.9841
99.9936
99.9988
99.9999
100
100
100
100
100
100
100
100
100
100
100
100
100
100
100
100
100
99.9712
99.9712
99.9711
99.9711
99.9711
99.9712
99.9712
99.9711
99.9709
99.9708
99.9714
99.9715
99.972
99.9773
99.9858
99.9951
99.9992
100
100
100
100
100
100
100
100
100
100
100
100
100
100
100
100
100
100
99.9713
99.9712
99.9711
99.9711
99.9711
99.9712
99.9712
99.9711
99.9708
99.9706
99.9715
99.9721
99.9724
99.9781
99.988
99.9963
99.9995
100
100
100
100
100
100
100
100
100
100
100
100
100
100
100
100
100
100
99.9713
99.9712
99.9711
99.9711
99.971
99.9711
99.9712
99.9711
99.9708
99.9705
99.9712
99.9723
99.973
99.9802
99.9898
99.9972
99.9997
100
100
100
100
100
100
100
100
100
100
100
100
100
100
100
100
100
100
99.9713
99.9712
99.9711
99.971
99.971
99.9711
99.9712
99.9712
99.9708
99.9705
99.9708
99.9723
99.9744
99.9824
99.9914
99.9981
99.9998
100
100
100
100
100
100
100
100
100
100
100
100
100
100
100
100
100
100
99.9712
99.9712
99.9711
99.9711
99.971
99.971
99.9712
99.9712
99.9709
99.9704
99.9706
99.9725
99.9759
99.9838
99.9931
99.9987
99.9999
100
100
100
100
100
100
100
100
100
100
100
100
100
100
100
100
100
100
99.9711
99.9712
99.9712
99.9711
99.971
99.971
99.9712
99.9713
99.971
99.9704
99.9707
99.9733
99.977
99.9853
99.9948
99.9992
100
100
100
100
100
100
100
100
100
100
100
100
100
100
100
100
100
100
100
99.9711
99.9712
99.9712
99.9712
99.971
99.971
99.9712
99.9714
99.9711
99.9704
99.9708
99.9739
99.9779
99.9876
99.9962
99.9995
100
100
100
100
100
100
100
100
100
100
100
100
100
100
100
100
100
100
100
99.9711
99.9712
99.9713
99.9712
99.9711
99.971
99.9712
99.9714
99.9712
99.9705
99.9709
99.974
99.9794
99.9899
99.9972
99.9997
100
100
100
100
100
100
100
100
100
100
100
100
100
100
100
100
100
100
100
99.9711
99.9712
99.9713
99.9712
99.9711
99.971
99.9711
99.9713
99.9713
99.9708
99.9711
99.9744
99.9818
99.9917
99.9981
99.9998
100
100
100
100
100
100
100
100
100
100
100
100
100
100
100
100
100
100
100
99.9712
99.9713
99.9713
99.9712
99.9712
99.971
99.9709
99.971
99.9712
99.971
99.9712
99.9756
99.9839
99.9933
99.9988
99.9999
100
100
100
100
100
100
100
100
100
100
100
100
100
100
100
100
100
100
100
99.9713
99.9712
99.9712
99.9711
99.9712
99.971
99.9709
99.9706
99.971
99.9711
99.9716
99.9779
99.9859
99.9949
99.9992
100
100
100
100
100
100
100
100
100
100
100
100
100
100
100
100
100
100
100
100
99.9713
99.9712
99.9711
99.9711
99.9712
99.9711
99.9708
99.9705
99.9708
99.9714
99.9727
99.9793
99.9879
99.9964
99.9996
100
100
100
100
100
100
100
100
100
100
100
100
100
100
100
100
100
100
100
100
99.9713
99.9711
99.9711
99.9711
99.9712
99.9713
99.9709
99.9704
99.9707
99.972
99.9736
99.9802
99.9902
99.9976
99.9998
100
100
100
100
100
100
100
100
100
100
100
100
100
100
100
100
100
100
100
100
99.9712
99.9711
99.971
99.9711
99.9713
99.9714
99.971
99.9704
99.9707
99.9726
99.9744
99.9819
99.9924
99.9984
99.9999
100
100
100
100
100
100
100
100
100
100
100
100
100
100
100
100
100
100
100
100
99.9712
99.9711
99.971
99.9711
99.9714
99.9714
99.9711
99.9703
99.9707
99.9728
99.9754
99.9849
99.9943
99.999
99.9999
100
100
100
100
100
100
100
100
100
100
100
100
100
100
100
100
100
100
100
100
99.9712
99.9711
99.9711
99.9712
99.9714
99.9714
99.9712
99.9703
99.9706
99.9729
99.9771
99.9873
99.9958
99.9994
100
100
100
100
100
100
100
100
100
100
100
100
100
100
100
100
100
100
100
100
100
99.9713
99.9713
99.9712
99.9712
99.9713
99.9714
99.9711
99.9703
99.9705
99.9733
99.9797
99.9894
99.9971
99.9997
100
100
100
100
100
100
100
100
100
100
100
100
100
100
100
100
100
100
100
100
100
99.9713
99.9713
99.9712
99.9712
99.9712
99.9711
99.9708
99.9702
99.9704
99.9746
99.9819
99.9915
99.9982
99.9998
100
100
100
100
100
100
100
100
100
100
100
100
100
100
100
100
100
100
100
100
100
99.9713
99.9714
99.9713
99.9711
99.971
99.9707
99.9707
99.9703
99.9708
99.9766
99.9841
99.9937
99.9989
99.9999
100
100
100
100
100
100
100
100
100
100
100
100
100
100
100
100
100
100
100
100
100
99.9713
99.9714
99.9713
99.9712
99.9709
99.9704
99.9708
99.9709
99.9717
99.9779
99.9864
99.9956
99.9994
100
100
100
100
100
100
100
100
100
100
100
100
100
100
100
100
100
100
100
100
100
100
99.971
99.9713
99.9713
99.9712
99.9709
99.9703
99.9708
99.9717
99.9725
99.979
99.9891
99.9971
99.9997
100
100
100
100
100
100
100
100
100
100
100
100
100
100
100
100
100
100
100
100
100
100
99.9709
99.9712
99.9714
99.9714
99.971
99.9702
99.9706
99.9722
99.9734
99.981
99.9917
99.9981
99.9998
100
100
100
100
100
100
100
100
100
100
100
100
100
100
100
100
100
100
100
100
100
100
99.9708
99.9712
99.9715
99.9716
99.9711
99.9701
99.9703
99.9724
99.9747
99.9844
99.994
99.9989
99.9999
100
100
100
100
100
100
100
100
100
100
100
100
100
100
100
100
100
100
100
100
100
100
99.9709
99.9713
99.9717
99.9716
99.9711
99.9699
99.9701
99.9725
99.9769
99.9872
99.9958
99.9994
100
100
100
100
100
100
100
100
100
100
100
100
100
100
100
100
100
100
100
100
100
100
100
99.9712
99.9714
99.9718
99.9715
99.9709
99.9698
99.9699
99.973
99.9797
99.9897
99.9973
99.9997
100
100
100
100
100
100
100
100
100
100
100
100
100
100
100
100
100
100
100
100
100
100
100
99.9715
99.9714
99.9716
99.971
99.9707
99.9697
99.9699
99.9744
99.9823
99.9921
99.9984
99.9999
100
100
100
100
100
100
100
100
100
100
100
100
100
100
100
100
100
100
100
100
100
100
100
99.9716
99.9713
99.9712
99.9705
99.9706
99.9701
99.9705
99.9768
99.985
99.9946
99.9991
99.9999
100
100
100
100
100
100
100
100
100
100
100
100
100
100
100
100
100
100
100
100
100
100
100
99.9718
99.9713
99.9709
99.97
99.9704
99.9707
99.9716
99.9785
99.9879
99.9966
99.9996
100
100
100
100
100
100
100
100
100
100
100
100
100
100
100
100
100
100
100
100
100
100
100
100
99.9719
99.9713
99.9708
99.9697
99.9701
99.9715
99.9729
99.9805
99.9911
99.9979
99.9998
100
100
100
100
100
100
100
100
100
100
100
100
100
100
100
100
100
100
100
100
100
100
100
100
99.9721
99.9715
99.9707
99.9696
99.9698
99.9721
99.9745
99.9835
99.9937
99.9988
99.9999
100
100
100
100
100
100
100
100
100
100
100
100
100
100
100
100
100
100
100
100
100
100
100
100
99.9721
99.9715
99.9707
99.9694
99.9696
99.9725
99.9765
99.9871
99.9959
99.9994
100
100
100
100
100
100
100
100
100
100
100
100
100
100
100
100
100
100
100
100
100
100
100
100
100
99.9719
99.9714
99.9706
99.9692
99.9694
99.973
99.9794
99.9904
99.9976
99.9998
100
100
100
100
100
100
100
100
100
100
100
100
100
100
100
100
100
100
100
100
100
100
100
100
100
99.9717
99.9713
99.9708
99.9693
99.9694
99.9741
99.9831
99.9932
99.9987
99.9999
100
100
100
100
100
100
100
100
100
100
100
100
100
100
100
100
100
100
100
100
100
100
100
100
100
99.9717
99.9712
99.9708
99.9701
99.9703
99.9769
99.9864
99.9956
99.9994
100
100
100
100
100
100
100
100
100
100
100
100
100
100
100
100
100
100
100
100
100
100
100
100
100
100
99.9715
99.9708
99.9701
99.9707
99.9714
99.9794
99.9898
99.9975
99.9997
100
100
100
100
100
100
100
100
100
100
100
100
100
100
100
100
100
100
100
100
100
100
100
100
100
100
99.9709
99.9697
99.9694
99.9708
99.9729
99.9831
99.9934
99.9988
99.9999
100
100
100
100
100
100
100
100
100
100
100
100
100
100
100
100
100
100
100
100
100
100
100
100
100
100
99.9706
99.969
99.9691
99.971
99.9763
99.9872
99.996
99.9994
100
100
100
100
100
100
100
100
100
100
100
100
100
100
100
100
100
100
100
100
100
100
100
100
100
100
100
99.9708
99.9686
99.9691
99.9731
99.9798
99.9904
99.9977
99.9998
100
100
100
100
100
100
100
100
100
100
100
100
100
100
100
100
100
100
100
100
100
100
100
100
100
100
100
99.9709
99.9685
99.9694
99.9748
99.9832
99.994
99.999
99.9999
100
100
100
100
100
100
100
100
100
100
100
100
100
100
100
100
100
100
100
100
100
100
100
100
100
100
100
99.9705
99.9685
99.9693
99.9772
99.988
99.9967