/*--------------------------------*- C++ -*----------------------------------*\
  =========                 |
  \\      /  F ield         | OpenFOAM: The Open Source CFD Toolbox
   \\    /   O peration     | Website:  https://openfoam.org
    \\  /    A nd           | Version:  7
     \\/     M anipulation  |
\*---------------------------------------------------------------------------*/
FoamFile
{
    version     2.0;
    format      ascii;
    class       volScalarField;
    location    "4.5";
    object      T;
}
// * * * * * * * * * * * * * * * * * * * * * * * * * * * * * * * * * * * * * //

dimensions      [0 0 0 1 0 0 0];

internalField   nonuniform List<scalar> 
24000
(
0.679851
0.915407
0.994488
1.03189
1.12232
1.1465
1.16875
1.21085
1.25918
1.30366
1.34586
1.38038
1.41475
1.43418
1.45147
1.44657
1.43574
1.41864
1.40125
1.38979
1.38258
1.381
1.37403
1.35461
1.32965
1.30594
1.29792
1.30464
1.31148
1.30749
1.28845
1.26496
1.24761
1.24123
1.23775
1.2253
1.20803
1.19205
1.17994
1.17275
1.16664
1.16203
1.16213
1.16166
1.16207
1.16497
1.1681
1.17405
1.17965
1.197
0.427848
0.427293
0.426665
0.426006
0.425334
0.424658
0.423508
0.423679
0.443001
0.501118
0.602222
0.760506
0.921728
1.102
1.23991
1.35667
1.43595
1.49882
1.54046
1.56896
1.56765
1.55708
1.53304
1.52004
1.50609
1.49228
1.48866
1.48121
1.46827
1.44563
1.42562
1.40945
1.39935
1.38809
1.36901
1.34745
1.32513
1.30308
1.28413
1.26935
1.25848
1.24956
1.2438
1.23704
1.23348
1.23447
1.23511
1.23798
1.24319
1.27063
0.424081
0.42357
0.423001
0.422423
0.421828
0.421177
0.420488
0.419731
0.418848
0.417851
0.416785
0.41578
0.414955
0.414422
0.413814
0.464206
0.599365
0.837178
1.0556
1.23773
1.36642
1.46663
1.54077
1.60966
1.64764
1.64253
1.62967
1.59558
1.55958
1.5222
1.52798
1.54099
1.53967
1.52805
1.50314
1.47676
1.45841
1.44076
1.42193
1.40465
1.38966
1.37676
1.36409
1.35014
1.34194
1.33941
1.33898
1.34213
1.34816
1.3742
0.418879
0.418473
0.418058
0.417626
0.417159
0.416665
0.416156
0.415627
0.41507
0.414516
0.4139
0.413342
0.413022
0.41287
0.412817
0.412705
0.412563
0.412354
0.412193
0.412017
0.47039
0.660243
0.952372
1.18026
1.37855
1.50645
1.58901
1.62231
1.60891
1.59674
1.60836
1.62117
1.62
1.60883
1.5953
1.58074
1.56593
1.55318
1.54059
1.52761
1.51533
1.50276
1.49456
1.48225
1.47294
1.46853
1.46321
1.46348
1.4645
1.48153
0.414896
0.414659
0.414436
0.414195
0.413922
0.413626
0.413329
0.413011
0.41271
0.41244
0.412127
0.411935
0.411943
0.411992
0.412067
0.412086
0.412054
0.411977
0.411888
0.411805
0.41164
0.411378
0.410976
0.410353
0.495817
0.746608
1.08695
1.37824
1.54139
1.64677
1.66874
1.66251
1.65162
1.62716
1.62387
1.62583
1.62353
1.61648
1.61182
1.6066
1.60202
1.5967
1.58648
1.57628
1.57041
1.5629
1.55631
1.55166
1.55296
1.56032
0.412664
0.412572
0.412448
0.412348
0.412232
0.412068
0.411892
0.411729
0.411677
0.411631
0.411563
0.411566
0.411593
0.411646
0.411647
0.411625
0.411577
0.411565
0.411557
0.411316
0.41086
0.410388
0.409804
0.409364
0.409427
0.409419
0.408818
0.487988
0.839647
1.20971
1.44075
1.54061
1.60287
1.61386
1.63873
1.63616
1.63711
1.63664
1.63602
1.63381
1.63276
1.6332
1.62954
1.62367
1.62088
1.61545
1.60913
1.60096
1.59114
1.59336
0.411754
0.411711
0.41165
0.41161
0.411557
0.411466
0.411427
0.411441
0.411526
0.411531
0.411501
0.411516
0.411492
0.411401
0.411219
0.410965
0.410757
0.410696
0.41049
0.409655
0.40901
0.408718
0.408349
0.40832
0.408771
0.409139
0.409086
0.408794
0.409267
0.410044
0.600534
0.970353
1.26935
1.49104
1.61135
1.62567
1.63621
1.64316
1.64362
1.64063
1.64178
1.63703
1.63382
1.63159
1.62991
1.62591
1.61955
1.61288
1.60394
1.59972
0.411588
0.411562
0.411526
0.411478
0.411371
0.41124
0.411251
0.411436
0.411486
0.411442
0.411326
0.411107
0.410804
0.410489
0.410166
0.409745
0.409414
0.409239
0.408763
0.407722
0.407498
0.407556
0.407622
0.407838
0.408528
0.409396
0.409989
0.41067
0.411732
0.41195
0.411708
0.412077
0.452687
0.834791
1.19666
1.44144
1.56215
1.6018
1.62288
1.61723
1.62036
1.61796
1.62324
1.62339
1.6225
1.61808
1.61128
1.60544
1.59769
1.58983
0.41166
0.411561
0.411452
0.411334
0.411127
0.410949
0.410969
0.410944
0.41082
0.410543
0.41015
0.409745
0.409365
0.409072
0.408831
0.408477
0.408221
0.408076
0.407608
0.406946
0.406928
0.40704
0.407309
0.408044
0.409201
0.410824
0.412273
0.41354
0.413893
0.413124
0.411503
0.41153
0.413191
0.415751
0.423714
0.74638
1.10487
1.35446
1.48011
1.53117
1.56772
1.56398
1.57202
1.56867
1.57079
1.56773
1.56435
1.5597
1.55055
1.53915
0.410619
0.410441
0.410252
0.41002
0.409795
0.409619
0.409403
0.40912
0.408829
0.408613
0.408317
0.408197
0.408236
0.408228
0.408185
0.408007
0.407839
0.407763
0.407432
0.406948
0.406987
0.40732
0.40847
0.410125
0.411498
0.413169
0.415139
0.416761
0.417228
0.415985
0.41264
0.412252
0.414863
0.422933
0.432232
0.439568
0.444582
0.655216
0.994606
1.25958
1.37603
1.43858
1.48617
1.47757
1.48471
1.47878
1.48123
1.47781
1.4713
1.46129
0.408107
0.407969
0.40784
0.407742
0.407705
0.407643
0.407394
0.407319
0.407347
0.407506
0.407648
0.407803
0.408105
0.408161
0.4082
0.408279
0.40831
0.408516
0.409067
0.409793
0.410536
0.411562
0.412991
0.414138
0.415026
0.416349
0.418253
0.419753
0.420889
0.420863
0.421935
0.424819
0.430035
0.438562
0.44454
0.448489
0.455876
0.459273
0.461154
0.619467
0.912933
1.15802
1.26942
1.33278
1.38259
1.37579
1.37985
1.37023
1.36742
1.36289
0.406132
0.406221
0.406178
0.406158
0.406194
0.406438
0.406876
0.407213
0.407437
0.407742
0.408418
0.409276
0.410121
0.411054
0.412195
0.413223
0.414316
0.415919
0.417526
0.418573
0.419172
0.419663
0.420104
0.419929
0.419825
0.420112
0.421484
0.423261
0.425869
0.430549
0.438233
0.446417
0.453435
0.459281
0.459799
0.458411
0.459992
0.467768
0.478094
0.48288
0.485168
0.593678
0.835601
1.08145
1.18599
1.23384
1.27943
1.28824
1.28789
1.27405
0.409579
0.410283
0.410655
0.410812
0.411096
0.412324
0.414076
0.415148
0.415971
0.416703
0.417561
0.418892
0.420198
0.421293
0.422388
0.423496
0.424562
0.425489
0.42641
0.427117
0.427524
0.427914
0.428073
0.428466
0.428944
0.429492
0.431336
0.436135
0.443019
0.450305
0.457586
0.46302
0.467463
0.471
0.471978
0.471951
0.472733
0.47928
0.491115
0.497676
0.501693
0.503909
0.507359
0.591953
0.791885
1.00651
1.11513
1.16887
1.20957
1.21557
0.42425
0.424764
0.425113
0.425304
0.425543
0.425816
0.426151
0.426609
0.42693
0.427237
0.427801
0.4287
0.429439
0.430101
0.430684
0.431334
0.432164
0.433164
0.43434
0.435717
0.437652
0.440248
0.443322
0.446782
0.451142
0.45612
0.460998
0.465356
0.469018
0.471915
0.47431
0.475676
0.476752
0.478962
0.481972
0.486411
0.493358
0.499756
0.506358
0.511423
0.515021
0.51931
0.52716
0.53029
0.532793
0.590997
0.759931
0.974083
1.07176
1.13695
0.440387
0.440907
0.441554
0.441606
0.441387
0.441452
0.442402
0.443616
0.444304
0.44484
0.445518
0.446518
0.447621
0.44865
0.449876
0.451346
0.453257
0.455612
0.458149
0.460983
0.464176
0.467577
0.470916
0.474083
0.477008
0.479587
0.48192
0.483456
0.484915
0.485935
0.486786
0.486989
0.487806
0.491429
0.499152
0.508441
0.516964
0.521223
0.523282
0.526715
0.529918
0.534766
0.539728
0.544243
0.55124
0.552834
0.554962
0.611085
0.746268
1.01918
0.468862
0.469225
0.469677
0.47027
0.470993
0.471734
0.47256
0.473565
0.474403
0.474946
0.475559
0.476503
0.477583
0.478577
0.479681
0.481198
0.482794
0.484047
0.485359
0.486837
0.488203
0.489213
0.490219
0.491153
0.491924
0.492869
0.494008
0.495067
0.496967
0.500201
0.504824
0.510115
0.516132
0.522176
0.526757
0.531669
0.535328
0.537241
0.538031
0.540005
0.544438
0.550015
0.554209
0.560036
0.564785
0.567977
0.572356
0.573815
0.575691
0.718803
0.494389
0.494601
0.494601
0.494639
0.495246
0.496061
0.49636
0.496637
0.497026
0.497745
0.498601
0.499455
0.500289
0.5011
0.502031
0.503082
0.504079
0.504987
0.505976
0.507056
0.50821
0.509454
0.511088
0.513345
0.515756
0.518301
0.520751
0.524049
0.527899
0.532486
0.537031
0.541128
0.544293
0.546688
0.54751
0.548194
0.549382
0.551273
0.55424
0.558514
0.564063
0.568411
0.572276
0.575192
0.577236
0.580815
0.583946
0.585943
0.588281
0.591729
0.525357
0.52544
0.525596
0.525962
0.52667
0.527243
0.527601
0.528141
0.528972
0.529705
0.530312
0.530969
0.531687
0.53245
0.533332
0.534379
0.535528
0.536716
0.538107
0.53978
0.54156
0.543433
0.545339
0.547025
0.548641
0.550123
0.551716
0.553559
0.555506
0.557207
0.558187
0.559142
0.559775
0.560823
0.5625
0.564436
0.567322
0.57119
0.575359
0.579014
0.581524
0.583836
0.585782
0.587492
0.589713
0.591594
0.592944
0.594721
0.596418
0.599092
0.55787
0.558149
0.558519
0.558941
0.558996
0.55914
0.559707
0.560151
0.560488
0.560952
0.561537
0.56207
0.562586
0.563202
0.56393
0.564671
0.565381
0.566119
0.566875
0.567596
0.568291
0.568964
0.569656
0.570335
0.57115
0.57217
0.573296
0.574417
0.575704
0.576983
0.578416
0.579836
0.581426
0.583171
0.58536
0.587709
0.589519
0.591125
0.592471
0.593378
0.594227
0.595214
0.596407
0.597539
0.598178
0.598721
0.599423
0.600034
0.600993
0.60273
0.586724
0.586837
0.586948
0.587019
0.587127
0.587482
0.587717
0.587795
0.587946
0.588269
0.588581
0.588776
0.588967
0.589216
0.589509
0.589833
0.590215
0.590626
0.59101
0.591384
0.591769
0.592162
0.592521
0.592843
0.593169
0.593573
0.594068
0.594718
0.595452
0.596115
0.596662
0.597197
0.597716
0.598189
0.598564
0.598776
0.598986
0.599381
0.599963
0.600516
0.600993
0.601448
0.601903
0.602091
0.602191
0.602203
0.602244
0.602578
0.603708
0.604724
0.601629
0.601638
0.601652
0.601661
0.601663
0.601671
0.601681
0.601688
0.601686
0.601695
0.601755
0.601838
0.601906
0.601967
0.602032
0.602095
0.602219
0.602389
0.602423
0.602427
0.602436
0.602433
0.60236
0.602167
0.602125
0.602163
0.602305
0.602619
0.602742
0.602721
0.602743
0.602876
0.603119
0.603261
0.603274
0.603289
0.603337
0.603511
0.603856
0.604161
0.604205
0.604106
0.603935
0.603722
0.603385
0.603196
0.603282
0.604178
0.605552
0.605532
0.604797
0.604784
0.604727
0.60459
0.604495
0.60441
0.60417
0.604071
0.60404
0.603891
0.603846
0.603826
0.603831
0.603838
0.603822
0.603799
0.603825
0.603948
0.603988
0.603986
0.604007
0.604047
0.604032
0.603962
0.60395
0.604011
0.604112
0.604117
0.604025
0.603999
0.604105
0.604433
0.604844
0.605007
0.605006
0.604995
0.604983
0.605003
0.60498
0.604918
0.60474
0.604365
0.603852
0.603518
0.603311
0.603366
0.6046
0.606404
0.606956
0.605992
0.604615
0.604645
0.604627
0.604454
0.604153
0.604085
0.604104
0.604091
0.604
0.603986
0.604039
0.604049
0.604116
0.604235
0.604241
0.604199
0.604179
0.604223
0.604299
0.604314
0.604362
0.604426
0.604537
0.604911
0.605401
0.605513
0.605498
0.605276
0.604981
0.604995
0.605187
0.605588
0.606086
0.606219
0.6061
0.605925
0.605865
0.605775
0.605455
0.604979
0.604532
0.60415
0.603827
0.604006
0.60511
0.607116
0.609825
0.609917
0.609192
0.607913
0.606773
0.606865
0.606887
0.606783
0.606693
0.606756
0.606875
0.606914
0.606965
0.607098
0.607195
0.607176
0.607238
0.60752
0.607551
0.607382
0.607083
0.606891
0.606767
0.606743
0.606805
0.6068
0.606938
0.607634
0.608201
0.608266
0.608145
0.607854
0.607614
0.607451
0.607296
0.607253
0.607379
0.607349
0.606931
0.606616
0.606713
0.606714
0.60655
0.606614
0.607298
0.60849
0.610483
0.613033
0.615017
0.616943
0.61653
0.615716
0.614757
0.617559
0.612715
0.61337
0.613568
0.613543
0.613431
0.613194
0.61298
0.612947
0.612989
0.613157
0.613401
0.613409
0.613189
0.612888
0.612608
0.612147
0.612034
0.611962
0.611809
0.611888
0.612112
0.612143
0.612554
0.613406
0.613544
0.613144
0.612394
0.612338
0.612701
0.612994
0.613162
0.613575
0.614018
0.614329
0.615278
0.616719
0.617721
0.618446
0.619655
0.621748
0.623776
0.625483
0.626607
0.627547
0.627426
0.626914
0.62599
0.626158
0.628175
0.632846
0.629011
0.62915
0.629074
0.628958
0.629047
0.629034
0.628883
0.62877
0.62884
0.628992
0.628954
0.62894
0.629035
0.629103
0.629264
0.6296
0.629801
0.629969
0.630369
0.631181
0.631588
0.631721
0.631906
0.632213
0.632316
0.632345
0.632533
0.63329
0.634602
0.634865
0.634886
0.635563
0.636731
0.637681
0.638058
0.6384
0.638939
0.639605
0.639973
0.640214
0.640121
0.640038
0.639753
0.638894
0.638987
0.639779
0.6417
0.645036
0.648251
0.651131
0.655831
0.655993
0.656397
0.656382
0.656163
0.656054
0.656177
0.656623
0.656721
0.656722
0.656816
0.657099
0.657156
0.657162
0.657268
0.657474
0.657576
0.6576
0.657637
0.65768
0.65766
0.657537
0.657457
0.657545
0.657872
0.658346
0.658603
0.658796
0.65892
0.658803
0.658628
0.658822
0.659196
0.659249
0.659126
0.659095
0.659445
0.659854
0.659923
0.659971
0.660384
0.661189
0.662166
0.663535
0.665454
0.667724
0.66947
0.671325
0.671205
0.670515
0.691764
0.692269
0.692246
0.691999
0.691821
0.691911
0.691959
0.691848
0.691801
0.691819
0.691919
0.691933
0.691972
0.691996
0.691949
0.691889
0.691889
0.691891
0.691871
0.691873
0.691884
0.691957
0.692002
0.691996
0.691946
0.691782
0.691583
0.691557
0.691652
0.691992
0.692121
0.692063
0.692059
0.692214
0.692412
0.692418
0.692414
0.692507
0.692791
0.693106
0.693468
0.693884
0.694178
0.694172
0.693913
0.693407
0.692364
0.690922
0.689293
0.68812
0.731734
0.731271
0.731209
0.731387
0.731476
0.731443
0.731393
0.731243
0.731164
0.731128
0.730981
0.730935
0.730943
0.730864
0.73069
0.730491
0.730384
0.73026
0.730037
0.729735
0.729467
0.729413
0.72936
0.729146
0.728804
0.728509
0.728193
0.727932
0.727722
0.727412
0.727094
0.726689
0.726209
0.725762
0.725323
0.72484
0.724306
0.723758
0.723102
0.722408
0.721644
0.720713
0.719741
0.718707
0.717732
0.716915
0.716131
0.716045
0.716433
0.717325
0.77388
0.773898
0.773948
0.773777
0.773424
0.773441
0.773409
0.773116
0.773103
0.773073
0.772696
0.772507
0.772412
0.772336
0.772182
0.771815
0.77137
0.771127
0.770893
0.770529
0.770051
0.769592
0.769308
0.768966
0.76848
0.767939
0.767356
0.766827
0.766296
0.765657
0.764991
0.76431
0.763518
0.762626
0.76179
0.760925
0.759971
0.758936
0.757923
0.756857
0.75581
0.754726
0.753602
0.752493
0.751322
0.750194
0.749074
0.747785
0.746396
0.74332
0.82014
0.820184
0.819907
0.819538
0.819149
0.818963
0.818905
0.818687
0.818369
0.818042
0.817857
0.81754
0.817103
0.816977
0.816862
0.816599
0.816073
0.815464
0.814965
0.814483
0.813767
0.813201
0.812668
0.812054
0.811347
0.810618
0.809599
0.808644
0.807865
0.806976
0.805877
0.804663
0.803489
0.802229
0.80088
0.799437
0.79796
0.796382
0.794748
0.793019
0.791197
0.789297
0.787286
0.785173
0.783007
0.780681
0.778223
0.775587
0.772978
0.768803
0.871123
0.870688
0.870711
0.870599
0.869923
0.869596
0.869546
0.869299
0.868889
0.868648
0.868224
0.867722
0.867205
0.866738
0.866174
0.865633
0.86525
0.864769
0.864054
0.863223
0.862332
0.86151
0.860662
0.859646
0.858619
0.857575
0.856329
0.854961
0.853649
0.85228
0.850803
0.849176
0.847419
0.845589
0.843679
0.841672
0.839509
0.837282
0.834911
0.832464
0.829902
0.827203
0.824475
0.821536
0.818607
0.815515
0.812437
0.809154
0.806314
0.801486
0.925932
0.925549
0.924877
0.924739
0.924849
0.924645
0.924185
0.923396
0.922985
0.923042
0.922803
0.921743
0.92086
0.920629
0.920387
0.919786
0.918806
0.917821
0.917028
0.916165
0.915135
0.914054
0.912981
0.911822
0.910517
0.909104
0.907486
0.905768
0.904074
0.902266
0.900248
0.898136
0.895884
0.893473
0.890918
0.888237
0.885399
0.882398
0.879246
0.875943
0.872493
0.868918
0.865154
0.861315
0.857273
0.853147
0.848922
0.844456
0.84037
0.833281
0.972115
0.971849
0.971932
0.971977
0.971769
0.971274
0.970771
0.970723
0.970635
0.970187
0.969585
0.969266
0.96896
0.968511
0.967925
0.967336
0.966782
0.966144
0.9654
0.9646
0.963728
0.962794
0.961781
0.960689
0.959487
0.958171
0.956733
0.955164
0.953459
0.951629
0.949627
0.947455
0.945109
0.942555
0.939812
0.936844
0.933682
0.930251
0.926623
0.922725
0.918622
0.914278
0.909699
0.904912
0.899909
0.89471
0.889379
0.883748
0.878582
0.869861
0.995263
0.995119
0.99501
0.995022
0.995018
0.994935
0.994716
0.994634
0.994609
0.994515
0.994334
0.994179
0.99404
0.993878
0.993689
0.993473
0.993242
0.992992
0.992706
0.992386
0.992032
0.991637
0.991198
0.990705
0.990155
0.989535
0.988844
0.98806
0.987179
0.986185
0.985068
0.9838
0.982375
0.980761
0.978942
0.976893
0.97458
0.971993
0.96908
0.965848
0.96224
0.958265
0.953895
0.949112
0.94395
0.938367
0.932465
0.926055
0.920047
0.909602
0.999731
0.999725
0.99972
0.999713
0.999706
0.9997
0.99969
0.999679
0.99967
0.999659
0.999645
0.999631
0.999614
0.999596
0.999575
0.999551
0.999524
0.999494
0.999459
0.99942
0.999374
0.999321
0.99926
0.999188
0.999105
0.999007
0.998892
0.998755
0.998592
0.998398
0.998165
0.997885
0.997545
0.997134
0.996632
0.996023
0.995276
0.994368
0.993255
0.991901
0.990255
0.988261
0.985862
0.982997
0.979598
0.975623
0.971027
0.965649
0.960259
0.950004
0.999995
0.999995
0.999995
0.999995
0.999995
0.999994
0.999994
0.999994
0.999994
0.999993
0.999993
0.999993
0.999992
0.999992
0.999991
0.999991
0.99999
0.999989
0.999988
0.999986
0.999985
0.999983
0.999981
0.999978
0.999975
0.999971
0.999966
0.99996
0.999952
0.999942
0.999929
0.999912
0.99989
0.99986
0.99982
0.999767
0.999694
0.999594
0.999457
0.999266
0.999
0.998633
0.99812
0.997415
0.996444
0.995125
0.993364
0.990964
0.988242
0.981857
1
1
1
1
1
1
1
1
1
1
1
1
1
1
1
1
1
1
1
1
1
1
1
1
1
1
1
1
0.999999
0.999999
0.999999
0.999999
0.999998
0.999998
0.999997
0.999995
0.999993
0.99999
0.999986
0.999979
0.999967
0.999948
0.999917
0.999865
0.999781
0.99964
0.99941
0.999021
0.99849
0.996705
1
1
1
1
1
1
1
1
1
1
1
1
1
1
1
1
1
1
1
1
1
1
1
1
1
1
1
1
1
1
1
1
1
1
1
1
1
1
1
1
1
0.999999
0.999999
0.999998
0.999995
0.999991
0.999982
0.999964
0.999933
0.999766
1
1
1
1
1
1
1
1
1
1
1
1
1
1
1
1
1
1
1
1
1
1
1
1
1
1
1
1
1
1
1
1
1
1
1
1
1
1
1
1
1
1
1
1
1
1
1
0.999999
0.999999
0.999994
0.42867
0.428311
0.42458
0.419314
0.415154
0.412754
0.41178
0.411596
0.411725
0.410764
0.408302
0.406083
0.408977
0.423812
0.440015
0.4685
0.493715
0.525209
0.557707
0.58663
0.601617
0.604806
0.604529
0.606667
0.612517
0.62877
0.655923
0.691416
0.73194
0.774092
0.819659
0.871558
0.926083
0.972687
0.995322
0.999737
0.999995
1
1
1
0.428579
0.428228
0.424442
0.419177
0.415057
0.412701
0.411749
0.411605
0.411737
0.410735
0.408383
0.406134
0.409037
0.424459
0.440625
0.469302
0.494163
0.526009
0.558813
0.58733
0.601852
0.604812
0.604469
0.606687
0.61277
0.629111
0.656866
0.692277
0.732314
0.774838
0.819853
0.871894
0.92669
0.973154
0.995429
0.999748
0.999996
1
1
1
0.42842
0.428234
0.424514
0.419226
0.415064
0.412702
0.411708
0.411612
0.411746
0.410735
0.408525
0.406464
0.408974
0.42518
0.440919
0.469616
0.494582
0.526269
0.559477
0.587761
0.60198
0.604806
0.604434
0.606662
0.61293
0.62958
0.657233
0.693241
0.732667
0.775205
0.821119
0.871974
0.927243
0.973427
0.995519
0.999756
0.999996
1
1
1
0.428368
0.428148
0.424527
0.419223
0.415054
0.412726
0.411674
0.411545
0.411753
0.410732
0.408577
0.406637
0.409146
0.425801
0.441766
0.469911
0.496037
0.527135
0.560309
0.588215
0.602118
0.604807
0.604428
0.606609
0.612911
0.629938
0.657398
0.693653
0.733464
0.775745
0.822208
0.87296
0.92793
0.973803
0.995625
0.999766
0.999996
1
1
1
0.428342
0.428055
0.424527
0.419217
0.415046
0.412743
0.411693
0.411324
0.411745
0.410706
0.408636
0.406711
0.409599
0.426289
0.442649
0.470355
0.496798
0.527992
0.561213
0.588796
0.602229
0.604809
0.604427
0.606604
0.612669
0.630141
0.657828
0.694061
0.733963
0.776312
0.822658
0.874185
0.928721
0.974179
0.995774
0.999776
0.999996
1
1
1
0.428332
0.428054
0.424528
0.419218
0.415042
0.412742
0.411727
0.411283
0.411656
0.410659
0.408721
0.406839
0.409952
0.426924
0.443168
0.470919
0.497338
0.528725
0.561918
0.58936
0.602333
0.60481
0.604427
0.606635
0.612465
0.630435
0.658649
0.694706
0.73444
0.776943
0.823282
0.8748
0.92937
0.9747
0.995908
0.999786
0.999996
1
1
1
0.42833
0.428094
0.424552
0.419228
0.41504
0.412743
0.411755
0.411307
0.411653
0.410656
0.40883
0.406984
0.410117
0.427425
0.44364
0.471424
0.498021
0.529718
0.562764
0.589854
0.60243
0.604807
0.604419
0.606761
0.612541
0.6309
0.659163
0.695297
0.735094
0.777674
0.824125
0.875547
0.930039
0.975203
0.996026
0.999796
0.999997
1
1
1
0.42832
0.42813
0.424603
0.419256
0.41504
0.412762
0.411791
0.411348
0.411723
0.410715
0.4091
0.40709
0.410345
0.427892
0.444131
0.472045
0.498804
0.530604
0.56369
0.590378
0.602535
0.604804
0.604394
0.606832
0.613259
0.631456
0.659694
0.695904
0.73576
0.778376
0.824841
0.876332
0.93078
0.975658
0.996151
0.999806
0.999997
1
1
1
0.428249
0.428139
0.424642
0.419274
0.415041
0.412796
0.411834
0.411361
0.411743
0.410831
0.409453
0.407286
0.410703
0.428484
0.444725
0.472613
0.499689
0.531523
0.564658
0.590927
0.602669
0.604799
0.604362
0.606824
0.613718
0.631982
0.660293
0.696544
0.736447
0.7791
0.825544
0.876973
0.931628
0.976143
0.996288
0.999816
0.999997
1
1
1
0.428149
0.428055
0.424663
0.419279
0.415065
0.412835
0.411868
0.411366
0.411735
0.410866
0.409647
0.407659
0.410978
0.429184
0.445545
0.473215
0.500612
0.532552
0.565629
0.591504
0.602853
0.604783
0.604328
0.606761
0.613727
0.632433
0.660927
0.697208
0.73717
0.779861
0.82626
0.877662
0.932505
0.976669
0.996428
0.999826
0.999997
1
1
1
0.428083
0.427791
0.424656
0.419281
0.41513
0.412882
0.411889
0.411324
0.411611
0.410843
0.409694
0.407846
0.411192
0.429883
0.446483
0.473872
0.501577
0.533644
0.566648
0.592104
0.603028
0.604737
0.604291
0.606775
0.61342
0.632843
0.661632
0.697907
0.737919
0.780624
0.826965
0.878606
0.933346
0.977222
0.996567
0.999836
0.999997
1
1
1
0.428053
0.427693
0.424588
0.41928
0.415195
0.412946
0.411912
0.411164
0.411369
0.410698
0.409637
0.40788
0.411441
0.430509
0.447314
0.474623
0.502672
0.534737
0.56773
0.592729
0.603131
0.604642
0.604247
0.606972
0.6132
0.63324
0.662382
0.698651
0.738689
0.781377
0.827746
0.879729
0.934229
0.977789
0.996708
0.999846
0.999998
1
1
1
0.428031
0.427687
0.424549
0.419279
0.415245
0.413033
0.411955
0.4111
0.411254
0.410506
0.409515
0.407893
0.411813
0.431083
0.448056
0.475494
0.503869
0.535877
0.568853
0.593372
0.603207
0.604558
0.604196
0.607236
0.613228
0.63364
0.663117
0.699445
0.739485
0.782133
0.828734
0.8808
0.935221
0.978373
0.996852
0.999856
0.999998
1
1
1
0.428002
0.427701
0.424572
0.419312
0.415287
0.413125
0.41203
0.411056
0.41117
0.410384
0.40949
0.40793
0.412123
0.431698
0.448778
0.476349
0.505067
0.537116
0.570007
0.594022
0.603294
0.604492
0.604133
0.607341
0.613681
0.634045
0.663847
0.700268
0.740314
0.782969
0.829862
0.881886
0.93631
0.978975
0.996998
0.999866
0.999998
1
1
1
0.42797
0.42768
0.424636
0.419392
0.415333
0.413199
0.412123
0.410973
0.411052
0.410346
0.409569
0.40798
0.41233
0.432325
0.449583
0.477333
0.506259
0.538448
0.571203
0.594673
0.603385
0.604437
0.604055
0.607395
0.614778
0.634509
0.664604
0.701128
0.741194
0.783972
0.830952
0.883034
0.937392
0.979594
0.997145
0.999875
0.999998
1
1
1
0.427955
0.427374
0.424651
0.419433
0.415387
0.413267
0.412211
0.410883
0.410913
0.410337
0.409908
0.40822
0.412561
0.432907
0.45052
0.478416
0.507521
0.539844
0.572456
0.595326
0.603473
0.604411
0.603984
0.607473
0.615741
0.635089
0.665405
0.702044
0.742145
0.785127
0.83205
0.88423
0.938467
0.980232
0.997294
0.999884
0.999998
1
1
1
0.427983
0.42718
0.424626
0.419449
0.41545
0.413359
0.412304
0.410832
0.41077
0.410361
0.41008
0.408481
0.41283
0.433519
0.451583
0.479543
0.508867
0.541285
0.573763
0.595984
0.603573
0.604409
0.603947
0.6078
0.616287
0.635717
0.666258
0.70301
0.74317
0.786278
0.833208
0.885491
0.939598
0.980893
0.997443
0.999894
0.999998
1
1
1
0.428063
0.427095
0.424486
0.419448
0.415522
0.413496
0.412431
0.410816
0.41058
0.410237
0.410084
0.408501
0.413001
0.434162
0.452729
0.480746
0.510293
0.542798
0.575118
0.596649
0.603681
0.60445
0.603938
0.608029
0.616635
0.63635
0.667166
0.704033
0.744261
0.787381
0.834419
0.886832
0.940829
0.981574
0.997593
0.999903
0.999999
1
1
1
0.428132
0.427042
0.42438
0.419419
0.415591
0.413651
0.412594
0.41084
0.410386
0.410117
0.410028
0.408441
0.413077
0.434843
0.453914
0.482035
0.511774
0.544406
0.576517
0.597319
0.603787
0.604505
0.603942
0.608088
0.616953
0.637024
0.668129
0.705119
0.745396
0.788546
0.835707
0.888233
0.942146
0.982272
0.997742
0.999911
0.999999
1
1
1
0.428222
0.427031
0.424346
0.419408
0.415663
0.413798
0.41274
0.410964
0.410203
0.410033
0.410022
0.408172
0.413142
0.435679
0.455174
0.483462
0.513297
0.546115
0.577959
0.597988
0.603886
0.604519
0.603949
0.608126
0.617322
0.637752
0.669137
0.70626
0.746578
0.789788
0.83709
0.889688
0.943493
0.982984
0.997891
0.999919
0.999999
1
1
1
0.428323
0.427055
0.42434
0.419434
0.415754
0.413965
0.412866
0.411021
0.410024
0.40981
0.410107
0.407998
0.413258
0.436715
0.456547
0.48504
0.514885
0.547922
0.579443
0.598649
0.603981
0.604517
0.603947
0.60814
0.617722
0.63853
0.670187
0.707451
0.747823
0.791116
0.838557
0.891238
0.944872
0.983711
0.998038
0.999927
0.999999
1
1
1
0.428462
0.427029
0.424325
0.419467
0.415851
0.414147
0.413011
0.411056
0.409852
0.409314
0.410395
0.407975
0.413383
0.437815
0.458037
0.486717
0.51658
0.54982
0.58097
0.599298
0.604077
0.604506
0.603943
0.607985
0.618157
0.639364
0.671289
0.708693
0.749147
0.792539
0.840081
0.892909
0.946302
0.984455
0.998184
0.999935
0.999999
1
1
1
0.428671
0.426994
0.424217
0.41948
0.415953
0.414322
0.413199
0.411129
0.409728
0.408862
0.410677
0.408046
0.413508
0.438879
0.459625
0.488478
0.518395
0.551818
0.582536
0.599933
0.604177
0.604509
0.604009
0.607851
0.618639
0.640266
0.672454
0.710006
0.750558
0.794022
0.841662
0.89466
0.947785
0.985216
0.998329
0.999942
0.999999
1
1
1
0.428897
0.427026
0.4241
0.419483
0.416056
0.41447
0.413412
0.4112
0.409557
0.408582
0.410844
0.408619
0.413806
0.439955
0.461304
0.490325
0.520335
0.553924
0.584139
0.600549
0.604274
0.604822
0.604447
0.607872
0.619155
0.641239
0.67369
0.711409
0.752049
0.795558
0.843319
0.896442
0.949337
0.985992
0.99847
0.999949
0.999999
1
1
1
0.429102
0.427105
0.423964
0.419473
0.416134
0.414564
0.413521
0.411216
0.409339
0.408321
0.410914
0.409853
0.414558
0.441109
0.463078
0.492272
0.522423
0.55614
0.585773
0.601139
0.604351
0.605325
0.604878
0.608115
0.619706
0.642295
0.675008
0.712904
0.753611
0.797171
0.845083
0.898308
0.950982
0.986782
0.998608
0.999955
0.999999
1
1
1
0.42931
0.427176
0.423745
0.419402
0.416181
0.414634
0.41355
0.411192
0.409133
0.408071
0.410797
0.41092
0.41563
0.442355
0.464932
0.49431
0.524678
0.558478
0.587429
0.60169
0.604408
0.605514
0.605072
0.608534
0.620314
0.643464
0.676427
0.714482
0.755251
0.798884
0.846974
0.900313
0.952701
0.98758
0.998742
0.999961
1
1
1
1
0.42954
0.427278
0.423474
0.419231
0.416198
0.414699
0.413571
0.411142
0.408929
0.407875
0.410748
0.411855
0.416794
0.443666
0.466842
0.496402
0.527113
0.560946
0.589091
0.602187
0.604445
0.605559
0.605116
0.608872
0.620996
0.644781
0.677966
0.716146
0.756977
0.800703
0.848978
0.902455
0.954477
0.988385
0.998871
0.999966
1
1
1
1
0.429813
0.427438
0.423222
0.419012
0.416165
0.414755
0.413626
0.411119
0.408694
0.407632
0.410849
0.412842
0.41798
0.445098
0.468832
0.498554
0.529731
0.563548
0.590741
0.602616
0.604459
0.605559
0.60511
0.609109
0.621759
0.646256
0.679623
0.717901
0.758792
0.80262
0.851095
0.904722
0.956323
0.989192
0.998994
0.999971
1
1
1
1
0.430063
0.427594
0.423031
0.418864
0.416033
0.414781
0.413701
0.411113
0.408479
0.407221
0.411037
0.4139
0.419234
0.446733
0.470988
0.500834
0.532547
0.56627
0.592363
0.602967
0.604461
0.605559
0.605187
0.60946
0.622655
0.647857
0.681396
0.719756
0.760706
0.804654
0.853382
0.907138
0.958225
0.989997
0.999111
0.999976
1
1
1
1
0.430278
0.427706
0.422829
0.418752
0.415944
0.414778
0.413785
0.41119
0.408336
0.406883
0.41138
0.414906
0.420473
0.448548
0.473352
0.503325
0.5356
0.569101
0.59394
0.603245
0.604438
0.605561
0.605391
0.610214
0.623762
0.649536
0.683269
0.721716
0.762727
0.806848
0.855867
0.909669
0.960176
0.990799
0.999221
0.99998
1
1
1
1
0.430562
0.42782
0.4226
0.418556
0.415913
0.414727
0.413852
0.411399
0.408235
0.406642
0.41162
0.415816
0.421756
0.450573
0.475886
0.50604
0.538917
0.572031
0.595463
0.60347
0.604297
0.605461
0.60549
0.611222
0.625049
0.651263
0.685235
0.723777
0.764876
0.809232
0.858484
0.912278
0.96219
0.991593
0.999325
0.999983
1
1
1
1
0.430862
0.428018
0.422464
0.418241
0.415817
0.414703
0.413915
0.411682
0.408169
0.406421
0.411678
0.416543
0.423182
0.4528
0.478643
0.509037
0.542445
0.575049
0.596927
0.603667
0.603989
0.605282
0.605529
0.612192
0.62644
0.653017
0.6873
0.725942
0.767178
0.81176
0.86117
0.914994
0.96427
0.992377
0.999421
0.999986
1
1
1
1
0.431028
0.428255
0.422452
0.418035
0.415421
0.414638
0.414003
0.412064
0.408159
0.406248
0.411631
0.417149
0.424927
0.455234
0.481589
0.512364
0.54616
0.578126
0.598322
0.603825
0.603788
0.605235
0.605581
0.613074
0.627938
0.654838
0.689485
0.728238
0.769619
0.814364
0.863954
0.917845
0.966401
0.993144
0.999509
0.999989
1
1
1
1
0.431125
0.428416
0.422654
0.417977
0.415136
0.414436
0.414111
0.412492
0.408402
0.406164
0.410902
0.417785
0.427185
0.457882
0.484757
0.516024
0.550066
0.581232
0.599622
0.603914
0.603733
0.605266
0.605732
0.613805
0.629496
0.65677
0.69181
0.730675
0.772175
0.817075
0.866893
0.920863
0.968574
0.993891
0.999589
0.999991
1
1
1
1
0.431189
0.428632
0.422904
0.417931
0.41501
0.41431
0.41422
0.412797
0.409018
0.406261
0.40976
0.418655
0.430092
0.46072
0.488149
0.520037
0.554151
0.584331
0.6008
0.604009
0.603724
0.605321
0.605907
0.61431
0.631047
0.65886
0.694298
0.733268
0.77486
0.819938
0.870036
0.924071
0.970798
0.994612
0.999661
0.999993
1
1
1
1
0.431208
0.428918
0.423256
0.417921
0.414888
0.414239
0.414286
0.412901
0.409367
0.406777
0.409312
0.420027
0.433567
0.463741
0.491772
0.524425
0.558426
0.587363
0.601831
0.604154
0.603731
0.605361
0.606227
0.614654
0.632606
0.661148
0.696957
0.736015
0.777702
0.822991
0.873424
0.927473
0.973066
0.995302
0.999724
0.999995
1
1
1
1
0.431235
0.429173
0.423667
0.418096
0.414771
0.414071
0.41429
0.412906
0.409525
0.406871
0.409084
0.422086
0.437523
0.466956
0.495681
0.529118
0.56289
0.590277
0.602687
0.60434
0.603754
0.605536
0.606936
0.615032
0.634254
0.663673
0.699768
0.73893
0.780741
0.826295
0.877115
0.931059
0.975348
0.995953
0.999779
0.999996
1
1
1
1
0.431137
0.429449
0.424112
0.418308
0.414722
0.413754
0.41407
0.412795
0.40968
0.406709
0.408788
0.424763
0.441782
0.470429
0.499955
0.534058
0.567503
0.593014
0.603354
0.604491
0.603806
0.605814
0.607419
0.615701
0.636081
0.666426
0.702745
0.742039
0.784016
0.82989
0.881086
0.934767
0.977622
0.99656