/*--------------------------------*- C++ -*----------------------------------*\
  =========                 |
  \\      /  F ield         | OpenFOAM: The Open Source CFD Toolbox
   \\    /   O peration     | Website:  https://openfoam.org
    \\  /    A nd           | Version:  7
     \\/     M anipulation  |
\*---------------------------------------------------------------------------*/
FoamFile
{
    version     2.0;
    format      ascii;
    class       volVectorField;
    location    "9.5";
    object      U;
}
// * * * * * * * * * * * * * * * * * * * * * * * * * * * * * * * * * * * * * //

dimensions      [0 1 -1 0 0 0 0];

internalField   nonuniform List<vector> 
90000
(
(4.06245 -0.317556 0)
(4.05904 -0.301472 0)
(4.05434 -0.284592 0)
(4.04848 -0.265629 0)
(4.04347 -0.250657 0)
(4.04003 -0.2443 0)
(4.03424 -0.228953 0)
(4.03008 -0.21846 0)
(4.02647 -0.205893 0)
(4.02442 -0.199236 0)
(4.02154 -0.185012 0)
(4.02016 -0.178 0)
(4.01817 -0.164806 0)
(4.01711 -0.15764 0)
(4.01538 -0.146057 0)
(4.01407 -0.137915 0)
(4.0125 -0.128277 0)
(4.01109 -0.120305 0)
(4.0093 -0.109962 0)
(4.00833 -0.105281 0)
(4.00594 -0.0917946 0)
(4.00542 -0.0900463 0)
(4.0027 -0.0768086 0)
(4.00154 -0.0722745 0)
(4.00003 -0.0651892 0)
(3.9976 -0.0542123 0)
(3.99711 -0.0510332 0)
(3.99494 -0.0426082 0)
(3.9924 -0.0323121 0)
(3.9932 -0.0307182 0)
(3.99019 -0.0210003 0)
(3.98778 -0.0125237 0)
(3.9885 -0.010748 0)
(3.98628 -0.00611447 0)
(3.98614 -0.00150585 0)
(3.98538 0.00137422 0)
(3.9844 0.00233112 0)
(3.98321 0.0054814 0)
(3.98166 0.0068358 0)
(3.9817 0.00915915 0)
(3.98311 0.00272161 0)
(3.98272 0.00321704 0)
(3.98186 -0.00384133 0)
(3.98067 -0.00598483 0)
(3.9795 -0.00782591 0)
(3.97846 -0.00975982 0)
(3.97755 -0.00929035 0)
(3.97748 -0.0101184 0)
(3.97713 -0.00791192 0)
(3.97669 -0.00486433 0)
(3.97814 -0.00200985 0)
(3.97879 0.00061439 0)
(3.97926 0.00187165 0)
(3.97954 0.0028271 0)
(3.98033 0.00148175 0)
(3.98092 0.00206831 0)
(3.9816 -0.000100042 0)
(3.9815 -0.00116787 0)
(3.98148 -0.00279211 0)
(3.98125 -0.00386187 0)
(3.98084 -0.00634283 0)
(3.98067 -0.00456183 0)
(3.98043 -0.00253284 0)
(3.98099 0.000314101 0)
(3.98109 0.00143742 0)
(3.98152 0.00205303 0)
(3.98213 0.00230173 0)
(3.98191 0.000203458 0)
(3.98201 -0.00127056 0)
(3.98228 -0.00336072 0)
(3.98168 -0.00206865 0)
(3.98144 -0.000740471 0)
(3.98161 0.00115549 0)
(3.98178 0.00109282 0)
(3.98189 -0.000376488 0)
(3.98208 -0.00214621 0)
(3.9824 -0.00332927 0)
(3.98213 -0.00238768 0)
(3.98203 -0.00105563 0)
(3.98217 0.000227815 0)
(3.98188 -0.000299254 0)
(3.9819 -0.00124565 0)
(3.98248 -0.00175992 0)
(3.9821 -0.000868173 0)
(3.98203 -0.000295006 0)
(3.98224 -9.43918e-05 0)
(3.98233 -0.000382015 0)
(3.98241 -0.000919817 0)
(3.98252 -0.00104355 0)
(3.98262 -0.00106352 0)
(3.98266 -0.000889986 0)
(3.98267 -0.000934839 0)
(3.98266 -0.00113231 0)
(3.98262 -0.00132786 0)
(3.98273 -0.00157312 0)
(3.98252 -0.00099337 0)
(3.98253 -0.00062214 0)
(3.98257 -0.000473736 0)
(3.98257 -0.000309067 0)
(3.98275 -0.000668224 0)
(4.06424 -0.334863 0)
(4.06402 -0.334163 0)
(4.0635 -0.332986 0)
(4.0627 -0.331233 0)
(4.0617 -0.328555 0)
(4.06063 -0.325836 0)
(4.05921 -0.32234 0)
(4.05764 -0.317938 0)
(4.05558 -0.312783 0)
(4.05319 -0.308202 0)
(4.04992 -0.301828 0)
(4.04663 -0.296028 0)
(4.04279 -0.287428 0)
(4.03956 -0.280788 0)
(4.03551 -0.269412 0)
(4.03235 -0.261662 0)
(4.02813 -0.247785 0)
(4.0251 -0.238464 0)
(4.02087 -0.222433 0)
(4.01827 -0.212193 0)
(4.0138 -0.193358 0)
(4.01202 -0.183725 0)
(4.00713 -0.161435 0)
(4.00602 -0.152771 0)
(4.00136 -0.130262 0)
(3.99942 -0.117938 0)
(3.9967 -0.100908 0)
(3.9941 -0.084694 0)
(3.99096 -0.0659032 0)
(3.99265 -0.0606826 0)
(3.98656 -0.0328795 0)
(3.98664 -0.0284409 0)
(3.98622 -0.0189032 0)
(3.98069 0.00183083 0)
(3.98036 0.00762159 0)
(3.98292 0.00927292 0)
(3.97631 0.0210571 0)
(3.97463 0.0264395 0)
(3.97475 0.0260998 0)
(3.97567 0.0219054 0)
(3.97428 0.0141769 0)
(3.97697 0.0103105 0)
(3.97538 0.00535734 0)
(3.97885 0.000661675 0)
(3.97934 -0.00217944 0)
(3.9802 -0.00396236 0)
(3.98121 -0.0053916 0)
(3.98182 -0.00547877 0)
(3.98195 -0.00498154 0)
(3.98208 -0.00353429 0)
(3.98242 -0.000516509 0)
(3.98239 0.00185606 0)
(3.98202 0.00366261 0)
(3.98158 0.00584489 0)
(3.98095 0.00531633 0)
(3.98118 0.00392266 0)
(3.98018 0.000327756 0)
(3.98028 -0.00307844 0)
(3.98054 -0.00610079 0)
(3.98067 -0.00750878 0)
(3.98112 -0.00743577 0)
(3.9814 -0.00586958 0)
(3.98169 -0.00277115 0)
(3.98182 0.000212334 0)
(3.98149 0.00353 0)
(3.98104 0.0034233 0)
(3.98077 0.00225979 0)
(3.98018 -0.00142692 0)
(3.98008 -0.00345147 0)
(3.98065 -0.00345333 0)
(3.9808 -0.00281479 0)
(3.98144 -1.51833e-05 0)
(3.98115 0.000677418 0)
(3.98123 0.00126519 0)
(3.98021 -0.00154143 0)
(3.98043 -0.00236725 0)
(3.98071 -0.00233307 0)
(3.9813 -0.0010083 0)
(3.98125 -0.000505833 0)
(3.98128 -0.00016848 0)
(3.98077 -0.00109263 0)
(3.98079 -0.00127488 0)
(3.98111 -0.000676423 0)
(3.98119 -0.000440824 0)
(3.98109 -0.000342241 0)
(3.98107 -0.000345622 0)
(3.9811 -0.000908046 0)
(3.98123 -0.000931456 0)
(3.98139 -0.000638999 0)
(3.98143 -0.000570597 0)
(3.98147 -0.00072667 0)
(3.98151 -0.00106119 0)
(3.98157 -0.00128886 0)
(3.98161 -0.00124115 0)
(3.98159 -0.000927464 0)
(3.98156 -0.00099096 0)
(3.98155 -0.000702697 0)
(3.98159 -0.000540708 0)
(3.98157 -0.000511374 0)
(3.98176 -0.00094793 0)
(4.06095 -0.334494 0)
(4.06089 -0.334537 0)
(4.06082 -0.334494 0)
(4.06074 -0.33442 0)
(4.06067 -0.334374 0)
(4.06059 -0.33428 0)
(4.06049 -0.334165 0)
(4.06037 -0.333968 0)
(4.06024 -0.333808 0)
(4.06007 -0.33349 0)
(4.05988 -0.33315 0)
(4.05963 -0.332536 0)
(4.05928 -0.331909 0)
(4.05871 -0.33107 0)
(4.05798 -0.329886 0)
(4.05718 -0.328561 0)
(4.05617 -0.32643 0)
(4.05512 -0.324204 0)
(4.05379 -0.320783 0)
(4.0524 -0.317218 0)
(4.05067 -0.312317 0)
(4.04875 -0.306247 0)
(4.0466 -0.29953 0)
(4.04426 -0.291321 0)
(4.04138 -0.280048 0)
(4.03929 -0.272614 0)
(4.03514 -0.253562 0)
(4.03319 -0.246984 0)
(4.02824 -0.224479 0)
(4.02539 -0.211863 0)
(4.0209 -0.190949 0)
(4.01871 -0.178517 0)
(4.01289 -0.146126 0)
(4.01296 -0.145886 0)
(4.0064 -0.11305 0)
(4.00448 -0.104719 0)
(4.00064 -0.0823129 0)
(4.00193 -0.0810801 0)
(3.99772 -0.0597557 0)
(4.00132 -0.057041 0)
(3.99246 -0.0380564 0)
(3.99287 -0.0313587 0)
(3.98883 -0.0224497 0)
(3.98884 -0.0148751 0)
(3.98706 -0.0112546 0)
(3.98747 -0.00784031 0)
(3.98779 -0.00444412 0)
(3.98773 -0.00109889 0)
(3.98653 0.00108526 0)
(3.98575 0.00295437 0)
(3.98421 0.00415603 0)
(3.98327 0.00375511 0)
(3.98202 0.00186842 0)
(3.9812 0.000735921 0)
(3.98024 -0.00238829 0)
(3.97985 -0.00391988 0)
(3.97991 -0.00434676 0)
(3.98022 -0.004458 0)
(3.98102 -0.00410554 0)
(3.98182 -0.00311175 0)
(3.98249 -0.00150838 0)
(3.98244 -0.000382897 0)
(3.98249 0.00141765 0)
(3.98211 0.00109893 0)
(3.98124 0.0002734 0)
(3.97994 -0.00193148 0)
(3.97958 -0.00128385 0)
(3.97965 -0.000818422 0)
(3.98001 -0.000455058 0)
(3.98048 0.000443474 0)
(3.98074 0.000270723 0)
(3.98069 -0.000721544 0)
(3.98041 -0.00146417 0)
(3.98047 -0.00275982 0)
(3.97981 -0.00136655 0)
(3.98008 -0.00118765 0)
(3.97992 -0.000127524 0)
(3.98076 -0.00170864 0)
(3.9806 -0.00214133 0)
(3.98072 -0.00279278 0)
(3.98025 -0.00119138 0)
(3.9803 -0.000721587 0)
(3.98036 -0.000797269 0)
(3.9804 -0.00103038 0)
(3.9804 -0.00119664 0)
(3.98034 -0.000771716 0)
(3.98038 -0.000555058 0)
(3.98046 -0.000562409 0)
(3.98047 -0.000810599 0)
(3.98051 -0.00113831 0)
(3.98059 -0.00118453 0)
(3.98071 -0.00122471 0)
(3.98073 -0.00132426 0)
(3.98075 -0.00142642 0)
(3.98067 -0.00182681 0)
(3.98072 -0.00158793 0)
(3.98078 -0.00106666 0)
(3.98079 -0.000601586 0)
(3.98073 -0.000309896 0)
(3.98091 -0.000583574 0)
(4.05671 -0.334392 0)
(4.05665 -0.33444 0)
(4.05662 -0.334493 0)
(4.05661 -0.334483 0)
(4.05657 -0.334512 0)
(4.05652 -0.334579 0)
(4.05648 -0.334612 0)
(4.05645 -0.33458 0)
(4.05639 -0.334637 0)
(4.05632 -0.334718 0)
(4.05628 -0.334726 0)
(4.05622 -0.334796 0)
(4.05615 -0.334787 0)
(4.05605 -0.334663 0)
(4.05596 -0.334586 0)
(4.05589 -0.334559 0)
(4.05582 -0.334484 0)
(4.05574 -0.334339 0)
(4.05567 -0.334249 0)
(4.05558 -0.334095 0)
(4.05547 -0.333852 0)
(4.05533 -0.333477 0)
(4.05516 -0.333087 0)
(4.05493 -0.332393 0)
(4.05454 -0.331543 0)
(4.05404 -0.330165 0)
(4.05343 -0.328459 0)
(4.05265 -0.325565 0)
(4.05162 -0.321878 0)
(4.05041 -0.317219 0)
(4.04853 -0.309185 0)
(4.04673 -0.301829 0)
(4.0436 -0.288668 0)
(4.04107 -0.276454 0)
(4.03628 -0.254551 0)
(4.03382 -0.241998 0)
(4.02666 -0.206111 0)
(4.0256 -0.193669 0)
(4.01631 -0.1479 0)
(4.01737 -0.137709 0)
(4.00756 -0.0879124 0)
(4.00959 -0.0852074 0)
(3.99986 -0.0422857 0)
(4.00095 -0.0424153 0)
(3.99327 -0.013124 0)
(3.99351 -0.0136112 0)
(3.98834 0.00297326 0)
(3.98658 0.00400575 0)
(3.98502 0.0118379 0)
(3.98302 0.00906247 0)
(3.98196 0.00379297 0)
(3.98224 0.00060213 0)
(3.98147 -0.00275118 0)
(3.9815 -0.00389848 0)
(3.98065 -0.00422947 0)
(3.98061 -0.00358195 0)
(3.98091 -0.00201531 0)
(3.9812 0.000265564 0)
(3.98176 0.00378666 0)
(3.98235 0.00480085 0)
(3.9814 0.00597531 0)
(3.98241 0.00201606 0)
(3.98219 -0.000557785 0)
(3.98153 -0.00413778 0)
(3.98092 -0.00533999 0)
(3.9807 -0.00458925 0)
(3.98134 -0.00199721 0)
(3.98149 0.000216098 0)
(3.98123 0.00266202 0)
(3.9815 0.00232165 0)
(3.98138 0.000464249 0)
(3.98119 -0.00159929 0)
(3.98125 -0.00358297 0)
(3.9813 -0.00268056 0)
(3.98112 -0.0015764 0)
(3.9812 0.00025361 0)
(3.98146 -0.000102879 0)
(3.98145 -0.00115305 0)
(3.98134 -0.0022851 0)
(3.98126 -0.00197982 0)
(3.98121 -0.00132933 0)
(3.98113 -0.000447197 0)
(3.98115 -0.000600314 0)
(3.98097 -0.00089964 0)
(3.98089 -0.000771497 0)
(3.98086 -0.000231723 0)
(3.98089 -4.70641e-06 0)
(3.98092 -0.000349673 0)
(3.98094 -0.000844206 0)
(3.981 -0.00119918 0)
(3.98111 -0.000982513 0)
(3.98117 -0.00093596 0)
(3.98112 -0.0012204 0)
(3.98107 -0.00148201 0)
(3.98104 -0.00130009 0)
(3.981 -0.000996346 0)
(3.98099 -0.000390818 0)
(3.98098 -0.000232315 0)
(3.98094 -0.00026228 0)
(3.98102 -0.000595562 0)
(4.05423 -0.334209 0)
(4.05422 -0.334193 0)
(4.05421 -0.334193 0)
(4.0542 -0.334218 0)
(4.05419 -0.334186 0)
(4.05417 -0.334189 0)
(4.05416 -0.334235 0)
(4.05415 -0.334203 0)
(4.05415 -0.334177 0)
(4.05413 -0.334251 0)
(4.05413 -0.334278 0)
(4.05413 -0.334274 0)
(4.05412 -0.334276 0)
(4.05411 -0.334343 0)
(4.05408 -0.334445 0)
(4.05409 -0.334565 0)
(4.05412 -0.334623 0)
(4.05415 -0.334599 0)
(4.05417 -0.334601 0)
(4.05417 -0.334693 0)
(4.0542 -0.334767 0)
(4.05422 -0.334805 0)
(4.05423 -0.334881 0)
(4.05418 -0.334851 0)
(4.0542 -0.334822 0)
(4.05425 -0.334807 0)
(4.05431 -0.334802 0)
(4.05435 -0.334744 0)
(4.0544 -0.334646 0)
(4.05442 -0.334389 0)
(4.05443 -0.334084 0)
(4.05438 -0.333502 0)
(4.05428 -0.332761 0)
(4.05403 -0.331313 0)
(4.05358 -0.329189 0)
(4.05282 -0.325448 0)
(4.05164 -0.320397 0)
(4.04997 -0.312606 0)
(4.04714 -0.300989 0)
(4.04423 -0.287612 0)
(4.03932 -0.264344 0)
(4.03613 -0.246604 0)
(4.02875 -0.208247 0)
(4.02663 -0.192652 0)
(4.01746 -0.143403 0)
(4.01673 -0.136388 0)
(4.00777 -0.0890928 0)
(4.00718 -0.0902123 0)
(4.00138 -0.0568997 0)
(4.00491 -0.0623825 0)
(3.9954 -0.040696 0)
(3.99674 -0.0366027 0)
(3.99136 -0.0252855 0)
(3.99227 -0.0200972 0)
(3.98862 -0.0134595 0)
(3.98801 -0.00680656 0)
(3.9854 -0.000851173 0)
(3.98267 0.0053706 0)
(3.98235 0.00620573 0)
(3.98163 0.00562736 0)
(3.98014 0.000946982 0)
(3.98066 -0.000125681 0)
(3.98044 -0.0051643 0)
(3.98093 -0.00610931 0)
(3.98193 -0.00546109 0)
(3.98345 -0.00374351 0)
(3.98341 -0.00205999 0)
(3.98399 0.000872684 0)
(3.98363 0.00133147 0)
(3.98282 -5.96397e-05 0)
(3.98245 -0.00177498 0)
(3.98271 -0.00316369 0)
(3.98309 -0.00285179 0)
(3.98312 -0.00302546 0)
(3.98351 -0.000838335 0)
(3.98336 -0.000509317 0)
(3.98366 0.000110977 0)
(3.98292 -0.00161217 0)
(3.98312 -0.00195097 0)
(3.98299 -0.002651 0)
(3.98331 -0.00159098 0)
(3.98316 -0.00115718 0)
(3.9832 -0.000453811 0)
(3.98257 -0.000976475 0)
(3.98263 -0.001449 0)
(3.98267 -0.0014774 0)
(3.98275 -0.00119475 0)
(3.98283 -0.000487219 0)
(3.98285 -0.000341076 0)
(3.98291 -0.000628613 0)
(3.98289 -0.000985245 0)
(3.98292 -0.00163046 0)
(3.98279 -0.00167524 0)
(3.98272 -0.00166179 0)
(3.98262 -0.00166252 0)
(3.98263 -0.00133062 0)
(3.98249 -0.00110355 0)
(3.98245 -0.000862081 0)
(3.98244 -0.000794445 0)
(3.98243 -0.000919825 0)
(4.05436 -0.334261 0)
(4.05438 -0.334262 0)
(4.05442 -0.334258 0)
(4.05444 -0.334279 0)
(4.05446 -0.334325 0)
(4.05448 -0.334346 0)
(4.05452 -0.33434 0)
(4.05453 -0.334388 0)
(4.05455 -0.334418 0)
(4.05457 -0.334371 0)
(4.0546 -0.334373 0)
(4.05463 -0.33441 0)
(4.05466 -0.334379 0)
(4.05472 -0.334311 0)
(4.05474 -0.334323 0)
(4.05475 -0.334436 0)
(4.05479 -0.334545 0)
(4.05485 -0.33456 0)
(4.05494 -0.334601 0)
(4.05499 -0.334716 0)
(4.05501 -0.334793 0)
(4.05511 -0.334843 0)
(4.05518 -0.334935 0)
(4.05528 -0.33498 0)
(4.0554 -0.335071 0)
(4.0555 -0.335173 0)
(4.05561 -0.335228 0)
(4.05571 -0.335251 0)
(4.05583 -0.335297 0)
(4.05595 -0.335335 0)
(4.05603 -0.335374 0)
(4.05615 -0.335282 0)
(4.05622 -0.335242 0)
(4.05632 -0.335153 0)
(4.05641 -0.335041 0)
(4.05648 -0.334896 0)
(4.05653 -0.334727 0)
(4.05656 -0.33437 0)
(4.05663 -0.333738 0)
(4.05656 -0.33249 0)
(4.05621 -0.330379 0)
(4.0554 -0.326298 0)
(4.0538 -0.31959 0)
(4.0515 -0.309294 0)
(4.04746 -0.291767 0)
(4.04371 -0.272745 0)
(4.03599 -0.236441 0)
(4.03273 -0.213933 0)
(4.02111 -0.157605 0)
(4.02233 -0.140758 0)
(4.00937 -0.0781843 0)
(4.01246 -0.0715036 0)
(4.00143 -0.0260027 0)
(4.00399 -0.0221873 0)
(3.99602 0.00472952 0)
(3.99428 0.00875663 0)
(3.99055 0.0210784 0)
(3.98643 0.0155024 0)
(3.98364 0.0057372 0)
(3.98291 0.00105482 0)
(3.98141 -0.00343971 0)
(3.98144 -0.00477818 0)
(3.9818 -0.00486302 0)
(3.98271 -0.00271784 0)
(3.98411 -2.84292e-05 0)
(3.985 0.00256454 0)
(3.98517 0.00152378 0)
(3.98509 0.000500295 0)
(3.98459 -0.00170543 0)
(3.98462 -0.00363348 0)
(3.98397 -0.00284415 0)
(3.98417 -0.00235679 0)
(3.98471 -0.000950614 0)
(3.98474 0.00086456 0)
(3.9853 -0.000584366 0)
(3.98512 -0.00143143 0)
(3.9851 -0.00285857 0)
(3.98504 -0.00158039 0)
(3.98529 -0.00104868 0)
(3.98547 -0.000690029 0)
(3.98549 -0.00140013 0)
(3.98536 -0.00168861 0)
(3.98524 -0.00164563 0)
(3.98523 -0.000928952 0)
(3.98516 0.000107639 0)
(3.98511 0.000136204 0)
(3.98539 -0.000982381 0)
(3.98534 -0.00121113 0)
(3.9853 -0.00107415 0)
(3.98531 -0.000773357 0)
(3.98527 -0.000753873 0)
(3.98517 -0.00105026 0)
(3.98503 -0.00150646 0)
(3.985 -0.00140481 0)
(3.98497 -0.00116912 0)
(3.98502 -0.000975013 0)
(3.98486 -0.000555746 0)
(3.98482 -0.000461792 0)
(3.98478 -0.000362358 0)
(3.98467 -0.000461243 0)
(4.05631 -0.334061 0)
(4.05635 -0.334052 0)
(4.05641 -0.334052 0)
(4.05646 -0.334036 0)
(4.05651 -0.334005 0)
(4.05655 -0.333982 0)
(4.05659 -0.333952 0)
(4.05664 -0.33395 0)
(4.05669 -0.333961 0)
(4.05675 -0.333938 0)
(4.05681 -0.333947 0)
(4.05687 -0.333979 0)
(4.05695 -0.333978 0)
(4.05701 -0.334007 0)
(4.05705 -0.334088 0)
(4.05712 -0.334127 0)
(4.05718 -0.334119 0)
(4.05724 -0.334066 0)
(4.05735 -0.334001 0)
(4.05747 -0.333999 0)
(4.05758 -0.334067 0)
(4.0577 -0.334116 0)
(4.05783 -0.334145 0)
(4.05796 -0.334193 0)
(4.05813 -0.334306 0)
(4.05818 -0.334359 0)
(4.05825 -0.33443 0)
(4.05841 -0.334525 0)
(4.05853 -0.334548 0)
(4.05863 -0.334577 0)
(4.05869 -0.334607 0)
(4.05879 -0.334644 0)
(4.05887 -0.334699 0)
(4.05894 -0.334673 0)
(4.05899 -0.334744 0)
(4.05904 -0.334746 0)
(4.05909 -0.334762 0)
(4.05915 -0.334765 0)
(4.05921 -0.334764 0)
(4.0593 -0.334686 0)
(4.0593 -0.334675 0)
(4.0594 -0.334432 0)
(4.05945 -0.334131 0)
(4.05957 -0.333573 0)
(4.05955 -0.332523 0)
(4.05925 -0.330133 0)
(4.05835 -0.326283 0)
(4.05653 -0.317958 0)
(4.0535 -0.305824 0)
(4.04936 -0.285205 0)
(4.04348 -0.257567 0)
(4.0379 -0.225409 0)
(4.03004 -0.183054 0)
(4.0256 -0.153313 0)
(4.01848 -0.110088 0)
(4.01664 -0.0968062 0)
(4.01227 -0.0655696 0)
(4.0164 -0.0656174 0)
(4.00437 -0.0401421 0)
(4.0014 -0.0312252 0)
(3.99828 -0.0222264 0)
(3.99532 -0.0113888 0)
(3.99234 -0.00416523 0)
(3.98757 0.00475694 0)
(3.98756 0.00520261 0)
(3.98698 0.00400191 0)
(3.98578 -0.00147507 0)
(3.98604 -0.00414409 0)
(3.98607 -0.0077607 0)
(3.98617 -0.00708181 0)
(3.98661 -0.00383371 0)
(3.98671 -0.0019075 0)
(3.98744 0.00121449 0)
(3.98721 0.00134604 0)
(3.98681 2.75219e-05 0)
(3.98664 -0.00274665 0)
(3.98685 -0.00332579 0)
(3.98725 -0.00245764 0)
(3.98751 -0.000845795 0)
(3.9876 -0.000276827 0)
(3.98724 -0.000901579 0)
(3.98721 -0.00180185 0)
(3.98722 -0.0022594 0)
(3.98749 -0.00187378 0)
(3.98741 -0.00131844 0)
(3.9874 -0.000404366 0)
(3.98724 -0.000389624 0)
(3.98741 -0.000561157 0)
(3.98727 -0.000583776 0)
(3.98733 -0.000932827 0)
(3.98731 -0.00105843 0)
(3.98718 -0.00143448 0)
(3.98719 -0.00159236 0)
(3.98732 -0.00162306 0)
(3.98737 -0.00142678 0)
(3.98741 -0.00119691 0)
(3.98736 -0.00107673 0)
(3.98729 -0.000920076 0)
(3.98717 -0.00103464 0)
(3.98709 -0.000985099 0)
(4.05868 -0.334685 0)
(4.05871 -0.334686 0)
(4.05875 -0.334687 0)
(4.05879 -0.334694 0)
(4.05884 -0.334704 0)
(4.0589 -0.334706 0)
(4.05894 -0.33471 0)
(4.05899 -0.33472 0)
(4.05904 -0.334711 0)
(4.0591 -0.334713 0)
(4.05917 -0.334731 0)
(4.05923 -0.334727 0)
(4.05929 -0.334689 0)
(4.05936 -0.334668 0)
(4.05942 -0.334661 0)
(4.05946 -0.334668 0)
(4.05954 -0.334684 0)
(4.05962 -0.334719 0)
(4.05967 -0.334754 0)
(4.05974 -0.334773 0)
(4.05985 -0.334792 0)
(4.05994 -0.334826 0)
(4.06001 -0.334852 0)
(4.06008 -0.334853 0)
(4.06015 -0.334821 0)
(4.06017 -0.334756 0)
(4.06025 -0.334701 0)
(4.06036 -0.334649 0)
(4.0604 -0.334583 0)
(4.06049 -0.33455 0)
(4.06058 -0.334545 0)
(4.06063 -0.334541 0)
(4.06072 -0.334539 0)
(4.06082 -0.334506 0)
(4.06092 -0.334523 0)
(4.06101 -0.334529 0)
(4.06112 -0.334521 0)
(4.06121 -0.334519 0)
(4.06128 -0.334484 0)
(4.06134 -0.334401 0)
(4.06139 -0.334354 0)
(4.06141 -0.334294 0)
(4.06146 -0.334201 0)
(4.06152 -0.334121 0)
(4.06148 -0.334095 0)
(4.06161 -0.333807 0)
(4.06181 -0.333583 0)
(4.06196 -0.33329 0)
(4.062 -0.332666 0)
(4.06174 -0.331201 0)
(4.06095 -0.327902 0)
(4.05923 -0.32074 0)
(4.05623 -0.308013 0)
(4.05156 -0.286284 0)
(4.04484 -0.254543 0)
(4.03823 -0.217193 0)
(4.02749 -0.162889 0)
(4.02681 -0.127149 0)
(4.01484 -0.0640522 0)
(4.01656 -0.0461723 0)
(4.00675 -0.00522721 0)
(4.00681 0.00575304 0)
(4.00021 0.027475 0)
(3.99571 0.0229027 0)
(3.99136 0.00740345 0)
(3.98967 0.000320206 0)
(3.98817 -0.00615506 0)
(3.98835 -0.00647601 0)
(3.98887 -0.00587592 0)
(3.98969 -0.00201533 0)
(3.99102 0.00273349 0)
(3.99068 0.00217787 0)
(3.98981 0.000670245 0)
(3.98876 -0.00148839 0)
(3.98801 -0.00278942 0)
(3.98808 -0.00295457 0)
(3.98854 -0.00208751 0)
(3.98948 -0.000909055 0)
(3.98909 -0.000433487 0)
(3.98895 -0.00087062 0)
(3.98879 -0.00119905 0)
(3.98864 -0.00162177 0)
(3.98873 -0.00163802 0)
(3.98904 -0.00142746 0)
(3.98894 -0.00133387 0)
(3.98862 -0.00145444 0)
(3.9885 -0.00123604 0)
(3.98863 -0.000672896 0)
(3.98861 -0.000512453 0)
(3.98879 -0.000883492 0)
(3.98877 -0.00108256 0)
(3.98895 -0.00132377 0)
(3.98908 -0.00126664 0)
(3.98928 -0.00118368 0)
(3.98942 -0.000927303 0)
(3.98941 -0.000894209 0)
(3.98939 -0.000862066 0)
(3.98933 -0.000842974 0)
(3.98922 -0.000701641 0)
(3.98916 -0.000682807 0)
(4.06088 -0.334652 0)
(4.06091 -0.334648 0)
(4.06094 -0.334642 0)
(4.06098 -0.334636 0)
(4.06101 -0.334637 0)
(4.06104 -0.334641 0)
(4.06107 -0.334666 0)
(4.06109 -0.334685 0)
(4.06111 -0.334689 0)
(4.06113 -0.33469 0)
(4.06119 -0.334687 0)
(4.06124 -0.334685 0)
(4.06127 -0.334668 0)
(4.06129 -0.334659 0)
(4.06133 -0.334639 0)
(4.06139 -0.3346 0)
(4.06143 -0.334585 0)
(4.06148 -0.334583 0)
(4.06154 -0.334569 0)
(4.06158 -0.334554 0)
(4.06157 -0.334552 0)
(4.06157 -0.33455 0)
(4.06155 -0.334542 0)
(4.06155 -0.334514 0)
(4.06155 -0.334423 0)
(4.06153 -0.334363 0)
(4.0615 -0.334356 0)
(4.06152 -0.334316 0)
(4.06157 -0.334285 0)
(4.0617 -0.334233 0)
(4.06179 -0.334212 0)
(4.06185 -0.334193 0)
(4.06194 -0.334202 0)
(4.06205 -0.334182 0)
(4.06218 -0.334108 0)
(4.06227 -0.33409 0)
(4.06237 -0.334072 0)
(4.06247 -0.334053 0)
(4.06258 -0.334008 0)
(4.06267 -0.333948 0)
(4.06276 -0.333907 0)
(4.06283 -0.333851 0)
(4.06286 -0.333754 0)
(4.06287 -0.333716 0)
(4.0629 -0.333592 0)
(4.06293 -0.333449 0)
(4.06297 -0.333416 0)
(4.06297 -0.333407 0)
(4.06296 -0.333396 0)
(4.06297 -0.3334 0)
(4.063 -0.333419 0)
(4.06308 -0.333252 0)
(4.06307 -0.332743 0)
(4.06275 -0.331111 0)
(4.06191 -0.327704 0)
(4.05985 -0.318475 0)
(4.05672 -0.305839 0)
(4.05043 -0.274328 0)
(4.04558 -0.249591 0)
(4.03533 -0.190969 0)
(4.0311 -0.162679 0)
(4.02282 -0.112061 0)
(4.02107 -0.0874371 0)
(4.01927 -0.070417 0)
(4.01311 -0.0485697 0)
(4.00912 -0.032616 0)
(4.00382 -0.0186089 0)
(4.00116 -0.0106932 0)
(3.99381 -0.000828708 0)
(3.9927 0.0049169 0)
(3.99215 0.00326779 0)
(3.99097 -0.00126 0)
(3.99006 -0.0051861 0)
(3.99021 -0.00679786 0)
(3.99024 -0.00545622 0)
(3.99037 -0.00286293 0)
(3.99102 0.000271843 0)
(3.99083 4.41174e-05 0)
(3.99047 -0.000585182 0)
(3.99012 -0.00267999 0)
(3.99008 -0.00251809 0)
(3.9902 -0.0018884 0)
(3.99044 -0.00101114 0)
(3.99036 -0.000861017 0)
(3.99022 -0.00124661 0)
(3.99024 -0.00186244 0)
(3.99009 -0.00148644 0)
(3.98989 -0.000876061 0)
(3.99003 -0.000517144 0)
(3.99007 -0.000900377 0)
(3.99022 -0.00152228 0)
(3.99046 -0.00157714 0)
(3.99074 -0.00135026 0)
(3.99084 -0.00116186 0)
(3.99091 -0.000971437 0)
(3.99087 -0.00104078 0)
(3.99082 -0.00109278 0)
(3.99075 -0.00120683 0)
(3.99067 -0.00123385 0)
(3.99065 -0.000972501 0)
(4.0624 -0.334941 0)
(4.06241 -0.334937 0)
(4.06244 -0.334896 0)
(4.06245 -0.33487 0)
(4.06246 -0.33487 0)
(4.06247 -0.334851 0)
(4.06247 -0.334815 0)
(4.06247 -0.3348 0)
(4.06246 -0.334804 0)
(4.06246 -0.334811 0)
(4.06247 -0.334787 0)
(4.06248 -0.334744 0)
(4.06247 -0.334706 0)
(4.06245 -0.334682 0)
(4.06246 -0.334609 0)
(4.06245 -0.334519 0)
(4.06241 -0.334482 0)
(4.06239 -0.334477 0)
(4.06241 -0.334434 0)
(4.06244 -0.334358 0)
(4.06245 -0.33435 0)
(4.06246 -0.334364 0)
(4.06252 -0.334289 0)
(4.06262 -0.334165 0)
(4.06266 -0.334076 0)
(4.06271 -0.333992 0)
(4.06277 -0.333929 0)
(4.06283 -0.333916 0)
(4.06289 -0.33386 0)
(4.063 -0.333716 0)
(4.06308 -0.33363 0)
(4.06311 -0.333602 0)
(4.06315 -0.333601 0)
(4.06321 -0.333601 0)
(4.06329 -0.333621 0)
(4.06336 -0.333653 0)
(4.0634 -0.333662 0)
(4.06343 -0.333664 0)
(4.06346 -0.333662 0)
(4.06349 -0.333656 0)
(4.06354 -0.333614 0)
(4.0636 -0.333548 0)
(4.06365 -0.333548 0)
(4.06373 -0.333507 0)
(4.06385 -0.33334 0)
(4.06389 -0.333257 0)
(4.06388 -0.333272 0)
(4.06378 -0.333243 0)
(4.06365 -0.333215 0)
(4.06358 -0.333265 0)
(4.06359 -0.333274 0)
(4.0636 -0.333306 0)
(4.06362 -0.333346 0)
(4.06366 -0.333368 0)
(4.06373 -0.333455 0)
(4.06378 -0.33336 0)
(4.06366 -0.332639 0)
(4.06307 -0.330461 0)
(4.06166 -0.324664 0)
(4.05819 -0.310921 0)
(4.05373 -0.290311 0)
(4.04379 -0.24446 0)
(4.03832 -0.208757 0)
(4.02467 -0.129735 0)
(4.02377 -0.0948454 0)
(4.01331 -0.0296339 0)
(4.01466 -0.0158987 0)
(4.00452 0.0170242 0)
(4.00081 0.025241 0)
(3.99577 0.0119272 0)
(3.99364 0.000576147 0)
(3.99233 -0.00651783 0)
(3.99232 -0.00679975 0)
(3.99252 -0.00503175 0)
(3.99314 -0.00175599 0)
(3.99376 0.00328128 0)
(3.99348 0.00268142 0)
(3.99226 0.000138618 0)
(3.9916 -0.00296303 0)
(3.99154 -0.00320567 0)
(3.99177 -0.00227707 0)
(3.9923 -0.00054186 0)
(3.99212 -0.000529611 0)
(3.99177 -0.00112626 0)
(3.99174 -0.0017289 0)
(3.9917 -0.00189922 0)
(3.99177 -0.00137559 0)
(3.99178 -0.000924536 0)
(3.99165 -0.000864571 0)
(3.99151 -0.00120271 0)
(3.9915 -0.00135353 0)
(3.99158 -0.00131539 0)
(3.9918 -0.000951779 0)
(3.99174 -0.000707951 0)
(3.99181 -0.000801222 0)
(3.99182 -0.000924984 0)
(3.99178 -0.00105004 0)
(3.99171 -0.00120739 0)
(3.99163 -0.00118116 0)
(3.99153 -0.00090398 0)
(4.06329 -0.334777 0)
(4.0633 -0.334755 0)
(4.0633 -0.334741 0)
(4.0633 -0.33471 0)
(4.06331 -0.334683 0)
(4.06331 -0.334645 0)
(4.0633 -0.334628 0)
(4.06329 -0.334628 0)
(4.0633 -0.334599 0)
(4.06331 -0.334565 0)
(4.06331 -0.334572 0)
(4.0633 -0.334558 0)
(4.06336 -0.334478 0)
(4.06339 -0.334386 0)
(4.06338 -0.334309 0)
(4.06336 -0.334282 0)
(4.06337 -0.334285 0)
(4.06342 -0.334209 0)
(4.06342 -0.334083 0)
(4.06338 -0.334062 0)
(4.06337 -0.334064 0)
(4.06341 -0.334014 0)
(4.06345 -0.333977 0)
(4.06348 -0.333968 0)
(4.06352 -0.333903 0)
(4.06357 -0.333792 0)
(4.0636 -0.33375 0)
(4.0636 -0.333769 0)
(4.06363 -0.333713 0)
(4.06369 -0.333558 0)
(4.06372 -0.33342 0)
(4.06374 -0.333337 0)
(4.06377 -0.33331 0)
(4.06381 -0.3333 0)
(4.06383 -0.333324 0)
(4.06384 -0.333349 0)
(4.06385 -0.333352 0)
(4.06387 -0.33337 0)
(4.06388 -0.333399 0)
(4.06391 -0.333402 0)
(4.06395 -0.333394 0)
(4.06404 -0.333458 0)
(4.06409 -0.333487 0)
(4.06425 -0.333509 0)
(4.06434 -0.333482 0)
(4.06436 -0.33338 0)
(4.06433 -0.333333 0)
(4.06425 -0.333284 0)
(4.06413 -0.333213 0)
(4.064 -0.333151 0)
(4.06389 -0.333163 0)
(4.06384 -0.333194 0)
(4.06376 -0.333299 0)
(4.06373 -0.333386 0)
(4.06374 -0.333571 0)
(4.06381 -0.333672 0)
(4.06391 -0.333766 0)
(4.06398 -0.333894 0)
(4.06398 -0.333867 0)
(4.06375 -0.333413 0)
(4.06317 -0.331582 0)
(4.06175 -0.32699 0)
(4.05876 -0.314452 0)
(4.05328 -0.291728 0)
(4.04612 -0.254888 0)
(4.03652 -0.202323 0)
(4.02968 -0.155471 0)
(4.02169 -0.10544 0)
(4.02225 -0.0825357 0)
(4.01735 -0.0580464 0)
(4.01107 -0.03849 0)
(4.00499 -0.0209209 0)
(4.00238 -0.011158 0)
(3.99395 0.00177708 0)
(3.99445 0.00299035 0)
(3.99371 0.00094117 0)
(3.99226 -0.00309225 0)
(3.99214 -0.00512923 0)
(3.99227 -0.00485193 0)
(3.99282 -0.00309461 0)
(3.99369 -0.000371076 0)
(3.99365 -0.000234449 0)
(3.99321 -0.000900079 0)
(3.99277 -0.00256713 0)
(3.99284 -0.00255251 0)
(3.99294 -0.00178546 0)
(3.99301 -0.00110909 0)
(3.99289 -0.00112802 0)
(3.99269 -0.00184719 0)
(3.99238 -0.00168999 0)
(3.99241 -0.00140541 0)
(3.99236 -0.000892996 0)
(3.99228 -0.00063266 0)
(3.99237 -0.000733462 0)
(3.99238 -0.000927437 0)
(3.99238 -0.00108804 0)
(3.99232 -0.00123968 0)
(3.99227 -0.00141659 0)
(3.99216 -0.00131321 0)
(3.99196 -0.0010852 0)
(4.06393 -0.334493 0)
(4.06393 -0.334485 0)
(4.06394 -0.334465 0)
(4.06394 -0.334447 0)
(4.06394 -0.334448 0)
(4.06393 -0.334458 0)
(4.06395 -0.334438 0)
(4.06398 -0.334382 0)
(4.06396 -0.334325 0)
(4.06395 -0.33432 0)
(4.06396 -0.334359 0)
(4.06397 -0.334386 0)
(4.06399 -0.334339 0)
(4.064 -0.334265 0)
(4.06397 -0.334193 0)
(4.06396 -0.334201 0)
(4.06396 -0.334244 0)
(4.06404 -0.334172 0)
(4.06402 -0.334081 0)
(4.06399 -0.334092 0)
(4.06396 -0.334082 0)
(4.064 -0.333908 0)
(4.064 -0.333828 0)
(4.064 -0.33378 0)
(4.06402 -0.333684 0)
(4.06403 -0.333597 0)
(4.06403 -0.333518 0)
(4.06403 -0.333441 0)
(4.06402 -0.333354 0)
(4.064 -0.333244 0)
(4.06397 -0.333147 0)
(4.06394 -0.333074 0)
(4.06393 -0.333053 0)
(4.06392 -0.333052 0)
(4.06391 -0.333059 0)
(4.0639 -0.333096 0)
(4.06389 -0.33319 0)
(4.06389 -0.333278 0)
(4.06391 -0.333319 0)
(4.06395 -0.33331 0)
(4.06402 -0.333305 0)
(4.0641 -0.333363 0)
(4.06417 -0.333477 0)
(4.06424 -0.333593 0)
(4.06431 -0.333641 0)
(4.06435 -0.333613 0)
(4.06433 -0.333587 0)
(4.06431 -0.33358 0)
(4.06425 -0.333542 0)
(4.06414 -0.333436 0)
(4.06398 -0.333319 0)
(4.06381 -0.333304 0)
(4.06372 -0.333356 0)
(4.06361 -0.333424 0)
(4.06353 -0.333551 0)
(4.06354 -0.333646 0)
(4.06361 -0.333726 0)
(4.06368 -0.333883 0)
(4.06373 -0.334058 0)
(4.06376 -0.334255 0)
(4.06375 -0.33437 0)
(4.06363 -0.334168 0)
(4.06341 -0.333619 0)
(4.06284 -0.331789 0)
(4.06133 -0.32631 0)
(4.05797 -0.31335 0)
(4.05152 -0.284257 0)
(4.04244 -0.240105 0)
(4.0312 -0.174238 0)
(4.02433 -0.110614 0)
(4.01431 -0.0466741 0)
(4.01236 -0.0157346 0)
(4.00382 0.0183315 0)
(4.00041 0.0245571 0)
(3.99574 0.00614309 0)
(3.9936 -0.00400448 0)
(3.9927 -0.00704791 0)
(3.99311 -0.00667813 0)
(3.99479 -0.00295491 0)
(3.99546 0.00322687 0)
(3.99527 0.00256275 0)
(3.99421 7.71855e-05 0)
(3.99337 -0.00249295 0)
(3.99331 -0.00268179 0)
(3.9935 -0.00197691 0)
(3.99366 -0.000553595 0)
(3.99353 -0.00074948 0)
(3.99313 -0.00156472 0)
(3.99281 -0.00225819 0)
(3.99277 -0.00188159 0)
(3.99294 -0.00107675 0)
(3.99277 -0.000255774 0)
(3.99266 -0.000421233 0)
(3.99263 -0.000627002 0)
(3.99254 -0.000834741 0)
(3.99248 -0.0010921 0)
(3.99245 -0.00125593 0)
(3.99235 -0.00134794 0)
(3.99231 -0.00124212 0)
(3.99222 -0.00105927 0)
(4.06412 -0.334331 0)
(4.06412 -0.334333 0)
(4.06412 -0.334332 0)
(4.06413 -0.334339 0)
(4.06413 -0.334344 0)
(4.06413 -0.33432 0)
(4.0641 -0.334283 0)
(4.0641 -0.334273 0)
(4.0641 -0.334275 0)
(4.06409 -0.334289 0)
(4.06409 -0.334299 0)
(4.06407 -0.334281 0)
(4.06406 -0.334264 0)
(4.06404 -0.334227 0)
(4.06403 -0.334217 0)
(4.06403 -0.334245 0)
(4.06403 -0.334291 0)
(4.06402 -0.334252 0)
(4.064 -0.334222 0)
(4.06397 -0.334239 0)
(4.06397 -0.334208 0)
(4.06405 -0.334085 0)
(4.06404 -0.334012 0)
(4.06401 -0.333967 0)
(4.06401 -0.333859 0)
(4.06401 -0.333788 0)
(4.06399 -0.333788 0)
(4.06398 -0.333679 0)
(4.064 -0.333467 0)
(4.06395 -0.333357 0)
(4.06387 -0.333298 0)
(4.06384 -0.333183 0)
(4.06384 -0.333136 0)
(4.06381 -0.333138 0)
(4.06377 -0.333182 0)
(4.06375 -0.333181 0)
(4.06375 -0.333148 0)
(4.06375 -0.333188 0)
(4.06374 -0.333316 0)
(4.06377 -0.333416 0)
(4.06382 -0.333468 0)
(4.06387 -0.333539 0)
(4.06393 -0.333674 0)
(4.06397 -0.333795 0)
(4.064 -0.333838 0)
(4.06404 -0.333827 0)
(4.06409 -0.333838 0)
(4.06413 -0.333873 0)
(4.06413 -0.333861 0)
(4.0641 -0.333808 0)
(4.064 -0.333696 0)
(4.06382 -0.333612 0)
(4.06359 -0.333597 0)
(4.06341 -0.333631 0)
(4.06333 -0.333678 0)
(4.06326 -0.333755 0)
(4.06328 -0.333808 0)
(4.06336 -0.333871 0)
(4.06345 -0.333971 0)
(4.0635 -0.334218 0)
(4.06354 -0.334498 0)
(4.06352 -0.334507 0)
(4.06351 -0.334461 0)
(4.06342 -0.334327 0)
(4.06316 -0.333722 0)
(4.06291 -0.333142 0)
(4.06224 -0.3312 0)
(4.06034 -0.32359 0)
(4.05661 -0.30798 0)
(4.0483 -0.266933 0)
(4.04148 -0.228335 0)
(4.02825 -0.153345 0)
(4.02308 -0.116475 0)
(4.01815 -0.0750967 0)
(4.02052 -0.0577512 0)
(4.00886 -0.0322262 0)
(4.00214 -0.0154892 0)
(3.99974 -0.00617437 0)
(3.99691 0.000977144 0)
(3.99534 0.000366808 0)
(3.99276 -0.00313973 0)
(3.99216 -0.00500046 0)
(3.99231 -0.00466003 0)
(3.99283 -0.00272202 0)
(3.99328 -0.000398462 0)
(3.99319 -0.000480782 0)
(3.9928 -0.00180077 0)
(3.99223 -0.00317206 0)
(3.99227 -0.00266816 0)
(3.99257 -0.00157625 0)