/*--------------------------------*- C++ -*----------------------------------*\
  =========                 |
  \\      /  F ield         | OpenFOAM: The Open Source CFD Toolbox
   \\    /   O peration     | Website:  https://openfoam.org
    \\  /    A nd           | Version:  7
     \\/     M anipulation  |
\*---------------------------------------------------------------------------*/
FoamFile
{
    version     2.0;
    format      ascii;
    class       volScalarField;
    location    "6.5";
    object      rho;
}
// * * * * * * * * * * * * * * * * * * * * * * * * * * * * * * * * * * * * * //

dimensions      [1 -3 0 0 0 0 0];

internalField   nonuniform List<scalar> 
90000
(
1.00852
1.02611
1.04559
1.06523
1.08473
1.10382
1.12273
1.14109
1.15931
1.17687
1.19433
1.211
1.22761
1.24326
1.25887
1.27328
1.28778
1.30067
1.31385
1.32491
1.33634
1.34567
1.35397
1.36238
1.36792
1.37155
1.37708
1.3782
1.3782
1.37752
1.37608
1.37351
1.36665
1.36145
1.35798
1.35773
1.35842
1.36012
1.36298
1.36577
1.36776
1.36962
1.37165
1.37343
1.37266
1.3711
1.36841
1.36629
1.36475
1.36371
1.36399
1.36501
1.36747
1.37041
1.37277
1.37261
1.37182
1.37055
1.36943
1.36902
1.36935
1.37017
1.37136
1.37287
1.37277
1.37218
1.37159
1.37177
1.37236
1.3733
1.37398
1.37363
1.37304
1.37303
1.37336
1.37386
1.374
1.37411
1.37408
1.37415
1.37424
1.37433
1.37447
1.37475
1.3751
1.37502
1.37497
1.37504
1.37522
1.37554
1.37585
1.37643
1.37681
1.37675
1.3766
1.37661
1.37669
1.3769
1.37704
1.37704
0.995275
0.99642
0.998569
1.00186
1.00627
1.01194
1.01871
1.02681
1.03591
1.04645
1.0579
1.0708
1.08444
1.09941
1.11494
1.13152
1.14845
1.16607
1.18361
1.20159
1.21894
1.2363
1.25319
1.26845
1.28451
1.29732
1.31066
1.321
1.33112
1.33798
1.34464
1.3481
1.35307
1.35918
1.36674
1.37135
1.37414
1.37649
1.37762
1.37715
1.37555
1.37459
1.37357
1.37113
1.3682
1.36761
1.36741
1.36719
1.3676
1.36889
1.37068
1.37204
1.37272
1.37244
1.37207
1.37139
1.37106
1.37071
1.37085
1.37164
1.37274
1.37315
1.37308
1.37295
1.37272
1.37251
1.37305
1.37387
1.37437
1.37442
1.37425
1.37382
1.3739
1.3742
1.37465
1.37456
1.37442
1.37464
1.37485
1.37499
1.37495
1.37499
1.37516
1.37547
1.37554
1.37546
1.37551
1.37562
1.37579
1.37599
1.37645
1.37705
1.37718
1.37711
1.37698
1.377
1.37708
1.37729
1.37743
1.37741
0.995674
0.995701
0.995737
0.995789
0.995871
0.996024
0.996275
0.99668
0.997293
0.998177
0.999381
1.00105
1.00327
1.00626
1.01007
1.0151
1.02122
1.02911
1.03837
1.05005
1.0633
1.07938
1.09705
1.11765
1.13952
1.16396
1.18901
1.21529
1.24205
1.26741
1.29328
1.31621
1.3375
1.35072
1.36147
1.36704
1.37148
1.37343
1.37429
1.3741
1.3736
1.37172
1.36857
1.36602
1.36717
1.3691
1.37211
1.37599
1.37911
1.38069
1.38018
1.37832
1.37583
1.3728
1.37144
1.37126
1.37183
1.37424
1.377
1.37807
1.37764
1.37607
1.3747
1.37356
1.3743
1.37627
1.37784
1.37776
1.37687
1.37593
1.37547
1.37624
1.37723
1.37728
1.37696
1.37662
1.37676
1.37706
1.37714
1.37703
1.37693
1.37704
1.37719
1.37723
1.37729
1.37733
1.37736
1.37738
1.37745
1.37769
1.37805
1.37832
1.37854
1.37848
1.37837
1.37834
1.37839
1.37847
1.37852
1.37846
0.996985
0.996986
0.996988
0.997003
0.997034
0.997048
0.997065
0.997096
0.997146
0.9972
0.997256
0.99732
0.9974
0.997502
0.997641
0.997839
0.998197
0.998771
0.999592
1.00078
1.00243
1.00486
1.00818
1.01302
1.01936
1.02836
1.03951
1.05478
1.07261
1.09551
1.12072
1.15089
1.18253
1.2146
1.24634
1.27324
1.29982
1.31694
1.33366
1.34268
1.35256
1.35689
1.36172
1.36747
1.37587
1.3816
1.38625
1.38871
1.38853
1.38778
1.38588
1.38212
1.37943
1.3761
1.37526
1.37684
1.37959
1.3823
1.38327
1.3827
1.38091
1.37901
1.37793
1.3789
1.38044
1.38192
1.38202
1.38123
1.38006
1.37927
1.37991
1.38083
1.38138
1.38105
1.38044
1.38021
1.38032
1.38038
1.38031
1.38023
1.38031
1.38045
1.38042
1.38034
1.38023
1.38019
1.38018
1.38019
1.38028
1.38052
1.38065
1.38078
1.38096
1.3809
1.38082
1.38072
1.38068
1.38067
1.38065
1.38056
0.998488
0.998506
0.998525
0.998547
0.998569
0.998593
0.998611
0.998626
0.99862
0.99862
0.998625
0.998636
0.998657
0.998689
0.998731
0.998801
0.99882
0.998859
0.998908
0.998962
0.999023
0.999102
0.999217
0.999392
0.999666
1.00023
1.00115
1.00267
1.005
1.00888
1.01448
1.0235
1.03562
1.05394
1.07622
1.10628
1.13947
1.17784
1.21638
1.25331
1.28908
1.31735
1.34504
1.36148
1.37206
1.37702
1.38187
1.38453
1.38529
1.38291
1.37782
1.37716
1.3789
1.38242
1.38565
1.38812
1.38793
1.38631
1.38433
1.38284
1.38198
1.38247
1.38418
1.38598
1.38577
1.38485
1.38379
1.38301
1.38323
1.38388
1.38456
1.38447
1.38422
1.38403
1.38414
1.38416
1.38411
1.38384
1.38369
1.38375
1.3839
1.38387
1.38372
1.38343
1.38335
1.38339
1.38346
1.38346
1.38354
1.38364
1.38369
1.38367
1.38367
1.38366
1.38363
1.38353
1.3834
1.3833
1.38322
1.38309
0.999764
0.999775
0.999788
0.999802
0.999817
0.999832
0.999847
0.999862
0.999876
0.999889
0.999902
0.999914
0.999925
0.999933
0.99994
0.999946
0.99995
0.999938
0.999923
0.999911
0.999914
0.999925
0.999951
0.999992
1.0001
1.0001
1.00011
1.00014
1.00018
1.00026
1.00043
1.00078
1.00151
1.00302
1.0057
1.01085
1.01888
1.03292
1.05172
1.08012
1.11311
1.15421
1.19686
1.23806
1.27707
1.30333
1.32865
1.34108
1.35489
1.36079
1.36974
1.37851
1.38765
1.39344
1.39505
1.39443
1.39216
1.38771
1.38229
1.38184
1.38315
1.3861
1.38979
1.38966
1.38867
1.38685
1.38457
1.38468
1.38588
1.38719
1.38768
1.38713
1.3864
1.38614
1.38652
1.38679
1.38667
1.38625
1.38601
1.38623
1.38657
1.38655
1.38631
1.38597
1.38587
1.3859
1.38592
1.38602
1.38627
1.38627
1.38621
1.38605
1.38594
1.38599
1.38607
1.38604
1.38593
1.38573
1.38556
1.38544
1.00057
1.00057
1.00058
1.00058
1.00059
1.0006
1.0006
1.00061
1.00062
1.00062
1.00063
1.00064
1.00065
1.00065
1.00066
1.00066
1.00067
1.00067
1.00067
1.00067
1.00066
1.00066
1.00066
1.00064
1.00063
1.00061
1.00059
1.00058
1.00058
1.00059
1.00062
1.00073
1.00071
1.0007
1.00072
1.0008
1.00104
1.00171
1.00318
1.00658
1.01263
1.0246
1.04199
1.07076
1.10583
1.15153
1.19875
1.24526
1.28958
1.32371
1.35573
1.37076
1.38081
1.38619
1.38954
1.38731
1.38109
1.37956
1.38151
1.38541
1.38905
1.39125
1.39103
1.38913
1.38591
1.38499
1.38525
1.38706
1.38878
1.38861
1.38805
1.38725
1.38736
1.38792
1.38831
1.38812
1.38771
1.38747
1.3876
1.38785
1.38786
1.38775
1.38755
1.38746
1.38739
1.38744
1.38756
1.38768
1.38793
1.38791
1.38782
1.38756
1.38754
1.3876
1.38775
1.38771
1.38762
1.38743
1.38727
1.38716
1.00099
1.00099
1.001
1.001
1.001
1.001
1.001
1.001
1.001
1.00101
1.00101
1.00101
1.00101
1.00101
1.00101
1.00101
1.001
1.001
1.001
1.00099
1.00099
1.00099
1.00099
1.00097
1.00096
1.00096
1.00095
1.00092
1.0009
1.00088
1.00087
1.00084
1.00084
1.00084
1.00084
1.00085
1.00091
1.00089
1.00089
1.00093
1.00107
1.00151
1.00265
1.00562
1.01148
1.02417
1.04349
1.07654
1.1161
1.16697
1.21851
1.26337
1.3055
1.32664
1.34969
1.35781
1.36858
1.37893
1.38959
1.39593
1.39554
1.39414
1.38851
1.38324
1.38331
1.38442
1.38734
1.39071
1.39055
1.38939
1.38718
1.38687
1.38749
1.38853
1.38892
1.38862
1.38797
1.388
1.38836
1.38869
1.3885
1.38819
1.38807
1.38813
1.38813
1.38812
1.38825
1.38862
1.38882
1.38876
1.38854
1.38825
1.38827
1.38841
1.38863
1.38869
1.38859
1.38838
1.38829
1.3882
1.00119
1.00118
1.00118
1.00118
1.00118
1.00118
1.00118
1.00118
1.00118
1.00117
1.00117
1.00117
1.00116
1.00116
1.00116
1.00115
1.00115
1.00114
1.00114
1.00113
1.00113
1.00113
1.00112
1.00111
1.0011
1.0011
1.00108
1.00106
1.00105
1.00103
1.00101
1.00099
1.00097
1.00095
1.00093
1.00092
1.00091
1.00092
1.00093
1.00096
1.001
1.00104
1.0011
1.0012
1.00138
1.00192
1.00331
1.00716
1.01481
1.03171
1.05693
1.09938
1.14903
1.20656
1.26292
1.30785
1.35135
1.37065
1.38263
1.38899
1.38951
1.38411
1.37872
1.3805
1.38517
1.38926
1.39091
1.39067
1.38888
1.38648
1.38626
1.38731
1.38878
1.38882
1.38854
1.38791
1.388
1.38862
1.38892
1.38871
1.38846
1.38829
1.38835
1.38843
1.38849
1.38849
1.38864
1.38899
1.38912
1.38905
1.38883
1.38859
1.3886
1.38874
1.38897
1.38906
1.389
1.38879
1.38877
1.38877
1.0013
1.0013
1.0013
1.0013
1.00129
1.00129
1.00129
1.00128
1.00127
1.00127
1.00126
1.00126
1.00125
1.00125
1.00124
1.00123
1.00123
1.00123
1.00123
1.00122
1.00121
1.0012
1.0012
1.00119
1.00118
1.00117
1.00116
1.00114
1.00113
1.00111
1.0011
1.00108
1.00106
1.00103
1.00101
1.001
1.00099
1.00098
1.00099
1.00099
1.00101
1.00105
1.00111
1.00119
1.00133
1.00142
1.00149
1.00161
1.00191
1.00283
1.00517
1.01173
1.02449
1.05193
1.08968
1.14575
1.20576
1.25961
1.30852
1.33253
1.35434
1.36251
1.37782
1.38702
1.39404
1.39371
1.39223
1.3874
1.38346
1.38414
1.38668
1.39002
1.38991
1.38885
1.38702
1.3872
1.38828
1.3895
1.38937
1.38876
1.38817
1.38826
1.38853
1.38853
1.38854
1.38865
1.389
1.38925
1.38922
1.38904
1.38883
1.38873
1.38876
1.3889
1.3891
1.38926
1.38914
1.38899
1.38898
1.38904
1.00139
1.00139
1.00138
1.00138
1.00138
1.00138
1.00138
1.00137
1.00137
1.00136
1.00136
1.00135
1.00135
1.00134
1.00134
1.00133
1.00133
1.00133
1.00132
1.00131
1.00131
1.0013
1.0013
1.0013
1.00129
1.00128
1.00127
1.00127
1.00126
1.00124
1.00123
1.00121
1.00119
1.00117
1.00115
1.00114
1.00113
1.00113
1.00113
1.00114
1.00116
1.00119
1.00123
1.00129
1.00137
1.00147
1.00157
1.00167
1.00181
1.00193
1.002
1.00217
1.00276
1.00491
1.01032
1.02498
1.05013
1.09707
1.15492
1.22028
1.28433
1.33173
1.3692
1.37977
1.38888
1.38777
1.38192
1.38001
1.38276
1.38731
1.39099
1.39095
1.38902
1.38602
1.38607
1.38762
1.38947
1.38952
1.38877
1.38798
1.38811
1.38858
1.38874
1.38861
1.3886
1.38885
1.38932
1.38931
1.3892
1.389
1.38886
1.38883
1.38888
1.38899
1.38909
1.38921
1.38917
1.3891
1.38912
1.38918
1.0014
1.00139
1.00139
1.00139
1.00139
1.00139
1.0014
1.0014
1.0014
1.0014
1.0014
1.0014
1.0014
1.00141
1.00141
1.00141
1.00141
1.00142
1.00142
1.00143
1.00143
1.00144
1.00145
1.00145
1.00146
1.00146
1.00146
1.00147
1.00147
1.00148
1.00148
1.00147
1.00146
1.00145
1.00144
1.00143
1.00142
1.0014
1.00139
1.00139
1.0014
1.00142
1.00144
1.00148
1.00152
1.00158
1.00165
1.00172
1.0018
1.00189
1.00199
1.00203
1.00203
1.00201
1.0021
1.0027
1.00474
1.0118
1.02716
1.06211
1.11168
1.17876
1.24983
1.29558
1.34114
1.35185
1.36621
1.37715
1.39074
1.39401
1.39324
1.38904
1.38401
1.38442
1.38689
1.39037
1.3902
1.38881
1.3873
1.38762
1.38874
1.38897
1.38874
1.38854
1.38874
1.38935
1.38954
1.38937
1.38899
1.38888
1.38893
1.38897
1.38906
1.38911
1.3891
1.38911
1.38915
1.38919
1.3893
1.3893
1.00144
1.00144
1.00144
1.00144
1.00144
1.00145
1.00145
1.00146
1.00146
1.00147
1.00148
1.00148
1.00149
1.0015
1.00151
1.00152
1.00153
1.00154
1.00155
1.00156
1.00157
1.00159
1.00161
1.00163
1.00165
1.00168
1.00171
1.00174
1.00177
1.0018
1.00182
1.00184
1.00185
1.00185
1.00185
1.00185
1.00183
1.0018
1.00177
1.00174
1.00171
1.00169
1.00169
1.00169
1.00171
1.00173
1.00177
1.0018
1.00185
1.00192
1.002
1.00208
1.00211
1.00212
1.00211
1.00201
1.00187
1.00199
1.00271
1.00613
1.015
1.03997
1.08027
1.14735
1.22185
1.28574
1.34763
1.36887
1.38477
1.38774
1.38386
1.37981
1.38272
1.38779
1.39167
1.39131
1.3886
1.38646
1.38685
1.38872
1.38952
1.38912
1.38837
1.38852
1.38933
1.38975
1.38956
1.38907
1.3889
1.38894
1.38902
1.38911
1.38921
1.38919
1.38911
1.38903
1.38912
1.38928
1.38945
1.38943
1.00145
1.00145
1.00146
1.00146
1.00146
1.00147
1.00147
1.00148
1.00148
1.00149
1.0015
1.00151
1.00152
1.00153
1.00155
1.00157
1.00159
1.00161
1.00164
1.00166
1.00169
1.00172
1.00175
1.00179
1.00183
1.00187
1.00192
1.00196
1.00201
1.00206
1.00211
1.00216
1.00221
1.00224
1.00225
1.00225
1.00225
1.00223
1.00218
1.00213
1.00207
1.00201
1.00196
1.00191
1.00188
1.00188
1.00188
1.00189
1.00192
1.00196
1.00204
1.00213
1.00221
1.00225
1.00225
1.00221
1.00213
1.00194
1.00177
1.00179
1.00208
1.00377
1.00911
1.02688
1.05916
1.12195
1.19621
1.26131
1.32215
1.34192
1.36022
1.37319
1.39085
1.39504
1.39387
1.38844
1.38426
1.38528
1.38854
1.39039
1.38956
1.3882
1.38829
1.38929
1.39022
1.38998
1.38915
1.38893
1.38898
1.38909
1.38918
1.38931
1.38935
1.38927
1.38907
1.389
1.38913
1.38938
1.38957
1.38955
1.00151
1.00151
1.00151
1.00152
1.00152
1.00153
1.00153
1.00154
1.00155
1.00156
1.00157
1.00159
1.0016
1.00163
1.00165
1.00167
1.00169
1.00172
1.00175
1.00177
1.0018
1.00183
1.00187
1.0019
1.00194
1.00199
1.00203
1.00208
1.00213
1.00218
1.00224
1.0023
1.00235
1.00241
1.00246
1.00249
1.0025
1.00249
1.00247
1.00243
1.00237
1.0023
1.00222
1.00213
1.00204
1.00198
1.00195
1.00194
1.00195
1.00197
1.00202
1.00214
1.00229
1.00241
1.00246
1.00245
1.0024
1.00226
1.00203
1.00183
1.00178
1.0018
1.00196
1.003
1.00647
1.01937
1.04588
1.10462
1.17831
1.25445
1.33053
1.36257
1.3833
1.3881
1.38294
1.37999
1.38416
1.38978
1.39152
1.39022
1.38717
1.38733
1.38909
1.39062
1.3904
1.3893
1.38887
1.38902
1.38922
1.38926
1.38932
1.38948
1.38947
1.3893
1.38906
1.38908
1.38921
1.38947
1.38967
1.38965
1.0017
1.00169
1.00169
1.00169
1.0017
1.0017
1.00171
1.00171
1.00172
1.00173
1.00174
1.00175
1.00177
1.00179
1.0018
1.00181
1.00183
1.00185
1.00186
1.00188
1.0019
1.00193
1.00195
1.00198
1.00201
1.00204
1.00208
1.00212
1.00217
1.00222
1.00227
1.00233
1.00238
1.00244
1.00249
1.00255
1.00258
1.0026
1.0026
1.00259
1.00256
1.00251
1.00243
1.00234
1.00223
1.00211
1.00202
1.002
1.002
1.00201
1.00204
1.0021
1.00222
1.00242
1.00258
1.00262
1.0026
1.00253
1.00236
1.00208
1.00184
1.0018
1.00182
1.0019
1.00217
1.00294
1.00529
1.01509
1.03782
1.09336
1.16731
1.2435
1.31254
1.33965
1.35933
1.37498
1.394
1.39548
1.39272
1.38565
1.38578
1.38812
1.39163
1.39136
1.38945
1.38862
1.38892
1.38949
1.38947
1.3894
1.3895
1.38966
1.38955
1.38933
1.38913
1.38919
1.38936
1.38957
1.38976
1.38973
1.00212
1.00211
1.00211
1.0021
1.00209
1.00209
1.00208
1.00206
1.00205
1.00204
1.00203
1.00202
1.00202
1.00201
1.00201
1.00201
1.00201
1.002
1.002
1.002
1.002
1.00201
1.00201
1.00202
1.00204
1.00205
1.00207
1.00209
1.00212
1.00215
1.00219
1.00223
1.00228
1.00234
1.00241
1.00248
1.00255
1.00261
1.00265
1.00267
1.00267
1.00265
1.00261
1.00255
1.00246
1.00234
1.0022
1.00209
1.00205
1.00205
1.00206
1.00209
1.00215
1.00229
1.00249
1.00266
1.00268
1.00266
1.00258
1.00238
1.00209
1.00189
1.00186
1.00191
1.00206
1.00235
1.00259
1.00301
1.0046
1.01272
1.03378
1.08866
1.16301
1.24707
1.32911
1.36439
1.38675
1.38837
1.37912
1.38126
1.38749
1.39259
1.39232
1.38975
1.38761
1.38829
1.38973
1.3897
1.38952
1.38951
1.38979
1.38978
1.38956
1.38924
1.38924
1.38935
1.3895
1.38964
1.38981
1.38977
1.00253
1.00253
1.00252
1.00251
1.0025
1.00249
1.00247
1.00245
1.00243
1.00241
1.00238
1.00236
1.00233
1.0023
1.00227
1.00224
1.00221
1.00219
1.00216
1.00213
1.00211
1.00209
1.00207
1.00205
1.00205
1.00205
1.00205
1.00204
1.00205
1.00205
1.00206
1.00208
1.00211
1.00215
1.0022
1.00228
1.00238
1.0025
1.00261
1.00269
1.00273
1.00276
1.00276
1.00275
1.00271
1.00264
1.00252
1.00237
1.00221
1.00211
1.00207
1.00206
1.00206
1.00211
1.00224
1.00244
1.00262
1.00267
1.00265
1.00257
1.00239
1.00211
1.00198
1.00199
1.00209
1.00231
1.00262
1.00274
1.00271
1.00287
1.00414
1.01171
1.03299
1.088
1.1662
1.24847
1.31568
1.34526
1.36241
1.38567
1.39579
1.39492
1.38904
1.3859
1.3874
1.39037
1.39041
1.38972
1.38933
1.38971
1.39014
1.3899
1.38925
1.38923
1.38942
1.38959
1.38964
1.38969
1.3898
1.38976
1.00275
1.00275
1.00274
1.00274
1.00273
1.00272
1.00271
1.00269
1.00268
1.00267
1.00265
1.00262
1.00259
1.00256
1.00253
1.00249
1.00246
1.00241
1.00237
1.00232
1.00227
1.00223
1.00218
1.00214
1.0021
1.00207
1.00205
1.00204
1.00204
1.00204
1.00204
1.00205
1.00206
1.00208
1.0021
1.00214
1.00221
1.00232
1.00246
1.00262
1.00275
1.00283
1.00288
1.0029
1.0029
1.00288
1.00282
1.0027
1.00252
1.00231
1.00214
1.00203
1.00198
1.00198
1.002
1.00209
1.0023
1.00254
1.00266
1.00267
1.00262
1.00245
1.00223
1.00215
1.00219
1.00232
1.00256
1.00277
1.00279
1.00272
1.00254
1.00269
1.00413
1.01198
1.03529
1.09328
1.17371
1.26567
1.34154
1.37627
1.38986
1.38501
1.37884
1.38435
1.39114
1.39159
1.39034
1.38843
1.38917
1.39046
1.3903
1.3893
1.38905
1.38939
1.38968
1.38969
1.38972
1.38976
1.38977
1.38967
1.00283
1.00283
1.00283
1.00282
1.00282
1.00282
1.00282
1.00281
1.00281
1.0028
1.0028
1.00278
1.00277
1.00275
1.00273
1.00271
1.00269
1.00266
1.00263
1.0026
1.00255
1.0025
1.00244
1.00238
1.00232
1.00225
1.00219
1.00214
1.0021
1.00207
1.00207
1.00207
1.00208
1.0021
1.00211
1.00214
1.00216
1.00221
1.0023
1.00244
1.00261
1.00277
1.00291
1.00298
1.00299
1.00298
1.00296
1.0029
1.00278
1.00259
1.00236
1.00212
1.00196
1.00192
1.00191
1.00193
1.00203
1.00226
1.00255
1.00273
1.00276
1.00273
1.00262
1.00243
1.00234
1.00236
1.00246
1.00266
1.00281
1.00279
1.00268
1.00252
1.00251
1.00279
1.00463
1.01321
1.0403
1.10169
1.19092
1.27413
1.32944
1.35535
1.37393
1.39504
1.39484
1.39172
1.38675
1.38797
1.39106
1.39099
1.38951
1.3887
1.38912
1.38992
1.38986
1.38974
1.3898
1.38981
1.38962
1.38957
1.00275
1.00278
1.0028
1.00283
1.00285
1.00286
1.00286
1.00287
1.00288
1.00288
1.00288
1.00289
1.00289
1.0029
1.00291
1.00291
1.00292
1.00292
1.00292
1.00291
1.00289
1.00287
1.00284
1.0028
1.00276
1.0027
1.00263
1.00255
1.00247
1.00239
1.00232
1.00226
1.0022
1.00217
1.00216
1.00217
1.00217
1.00218
1.0022
1.00225
1.00234
1.00247
1.00263
1.00281
1.00294
1.003
1.00299
1.00295
1.00288
1.00279
1.00264
1.0024
1.00211
1.00194
1.00191
1.00192
1.00199
1.00214
1.00238
1.00266
1.00284
1.00288
1.00287
1.00275
1.00253
1.00241
1.00241
1.00249
1.00267
1.00279
1.00277
1.0027
1.00263
1.00263
1.00271
1.00312
1.00539
1.01539
1.04953
1.11783
1.20962
1.30941
1.3611
1.3884
1.38775
1.37976
1.38404
1.39152
1.3924
1.39051
1.38765
1.38837
1.3902
1.39012
1.38972
1.38971
1.38991
1.38981
1.38943
1.38948
1.00249
1.00253
1.00257
1.00261
1.00265
1.00269
1.00273
1.00278
1.00282
1.00286
1.0029
1.00294
1.00297
1.00299
1.00301
1.00302
1.00304
1.00306
1.00308
1.0031
1.00312
1.00313
1.00314
1.00314
1.00314
1.00312
1.00309
1.00305
1.00299
1.00291
1.00282
1.00271
1.00258
1.00246
1.00234
1.00225
1.0022
1.00217
1.00214
1.00213
1.00213
1.00216
1.00222
1.00232
1.00246
1.0026
1.00274
1.00284
1.0029
1.00291
1.0029
1.0028
1.00258
1.00229
1.00208
1.00203
1.00207
1.00216
1.00229
1.00247
1.00275
1.00292
1.00293
1.00291
1.00273
1.00248
1.0024
1.00243
1.00255
1.00276
1.00286
1.00286
1.00282
1.00279
1.00279
1.00282
1.00289
1.00331
1.00649
1.01941
1.06273
1.14108
1.23506
1.31481
1.34641
1.36661
1.39323
1.39554
1.39212
1.38588
1.387
1.39043
1.39098
1.39
1.38945
1.38983
1.3901
1.38974
1.38927
1.38951
1.00234
1.00237
1.00239
1.00242
1.00246
1.0025
1.00254
1.00258
1.00263
1.00268
1.00273
1.00279
1.00284
1.00289
1.00295
1.00299
1.00304
1.00307
1.00309
1.00312
1.00314
1.00316
1.00317
1.00319
1.00321
1.00322
1.00323
1.00323
1.00321
1.00319
1.00313
1.00305
1.00293
1.00279
1.00263
1.00246
1.00231
1.00219
1.00212
1.00207
1.00204
1.00203
1.00203
1.00203
1.00206
1.00214
1.00228
1.00249
1.00276
1.00301
1.00311
1.00312
1.00306
1.0029
1.00269
1.00251
1.00238
1.00231
1.00229
1.0023
1.00245
1.00275
1.00292
1.00292
1.00285
1.00265
1.00247
1.00246
1.00254
1.00274
1.00292
1.00296
1.00295
1.00287
1.00282
1.0028
1.00277
1.00275
1.00283
1.00353
1.00836
1.02739
1.0834
1.17021
1.27537
1.34867
1.38495
1.3881
1.37801
1.38215
1.39054
1.39243
1.39078
1.38844
1.38922
1.39034
1.39009
1.38907
1.3891
1.38977
1.00231
1.00232
1.00233
1.00233
1.00234
1.00235
1.00235
1.00236
1.00236
1.00237
1.00237
1.00239
1.00241
1.00244
1.00248
1.00254
1.0026
1.00267
1.00274
1.0028
1.00285
1.00289
1.00292
1.00296
1.00301
1.00307
1.00313
1.00316
1.00317
1.00316
1.00312
1.00307
1.00301
1.00292
1.00281
1.00269
1.00256
1.0024
1.00226
1.00216
1.00209
1.00204
1.00199
1.00196
1.00195
1.00197
1.00206
1.00224
1.00254
1.00293
1.00321
1.00328
1.00325
1.00317
1.00308
1.00299
1.00285
1.00255
1.00229
1.00225
1.00226
1.00243
1.00274
1.00292
1.00293
1.00287
1.00275
1.00267
1.0027
1.00281
1.00295
1.00299
1.00297
1.00289
1.0028
1.00271
1.00268
1.00269
1.00272
1.00276
1.00292
1.00424
1.01175
1.041
1.11009
1.20858
1.29464
1.34157
1.36217
1.39108
1.39548
1.39219
1.38661
1.388
1.39096
1.39083
1.38917
1.3887
1.38932
1.39024
1.00232
1.0023
1.00229
1.00228
1.00226
1.00223
1.00221
1.00218
1.00214
1.0021
1.00206
1.00202
1.00198
1.00193
1.00191
1.0019
1.0019
1.0019
1.00193
1.00198
1.00204
1.0021
1.00216
1.00224
1.00234
1.00245
1.00256
1.00267
1.00278
1.00288
1.00296
1.00299
1.00297
1.00294
1.00292
1.00289
1.00285
1.00281
1.00276
1.00271
1.00265
1.00259
1.00249
1.00235
1.00219
1.00208
1.00206
1.00215
1.00239
1.00268
1.00298
1.00321
1.00323
1.00317
1.00313
1.00312
1.00306
1.00281
1.00238
1.00222
1.00223
1.00233
1.00259
1.00289
1.00305
1.00308
1.00306
1.00301
1.00297
1.00296
1.00298
1.00297
1.00292
1.00284
1.00272
1.00266
1.00267
1.00268
1.00275
1.00286
1.003
1.00305
1.00334
1.00577
1.01845
1.06259
1.14441
1.25474
1.33854
1.38308
1.38807
1.3782
1.38308
1.39124
1.39198
1.38997
1.38764
1.3885
1.39038
1.39049
1.00248
1.00244
1.00239
1.00234
1.00228
1.00223
1.00218
1.00213
1.00208
1.00204
1.00199
1.00192
1.00186
1.0018
1.00172
1.00162
1.00155
1.00154
1.00154
1.00154
1.00156
1.0016
1.00167
1.00176
1.00186
1.00197
1.0021
1.00227
1.00244
1.00259
1.00273
1.00286
1.00296
1.00301
1.00303
1.00307
1.0031
1.00314
1.0032
1.00325
1.00329
1.00329
1.00323
1.0031
1.00288
1.0026
1.00235
1.00228
1.00233
1.00243
1.00255
1.00272
1.00283
1.0029
1.00299
1.00306
1.00306
1.00293
1.0026
1.00236
1.00234
1.0024
1.00261
1.0029
1.00311
1.00318
1.00319
1.00319
1.00315
1.00306
1.00291
1.00279
1.00273
1.00268
1.00267
1.00267
1.0027
1.00278
1.00292
1.00302
1.00305
1.00306
1.00299
1.00299
1.0036
1.00842
1.03119
1.09161
1.19209
1.28822
1.33751
1.36156
1.39208
1.39463
1.39149
1.38617
1.38745
1.39068
1.39109
1.3905
1.00291
1.00288
1.00285
1.00281
1.00276
1.0027
1.00263
1.00256
1.00249
1.00242
1.00234
1.00226
1.00218
1.00211
1.00204
1.00195
1.00183
1.00172
1.00166
1.00165
1.00166
1.00169
1.00175
1.00181
1.00187
1.00196
1.00207
1.00222
1.0024
1.00259
1.00278
1.00291
1.00297
1.003
1.00306
1.00314
1.0032
1.00328
1.00334
1.00339
1.00345
1.00347
1.00345
1.00337
1.0032
1.00296
1.00269
1.00242
1.00233
1.00235
1.00238
1.00239
1.00242
1.00251
1.0027
1.00292
1.00301
1.003
1.00287
1.00275
1.00276
1.00283
1.00295
1.00305
1.00311
1.00316
1.00318
1.00318
1.00315
1.00301
1.0028
1.00267
1.00266
1.00267
1.0027
1.00281
1.00295
1.00305
1.00312
1.00311
1.00308
1.003
1.00284
1.00263
1.00261
1.0028
1.00461
1.01434
1.05438
1.13334
1.24635
1.33733
1.38331
1.38715
1.37827
1.38277
1.39068
1.39228
1.39112
1.38982
1.00348
1.00349
1.00351
1.00352
1.00352
1.00349
1.00346
1.00343
1.00338
1.00332
1.00328
1.00324
1.00319
1.00314
1.00308
1.00302
1.00297
1.00292
1.00289
1.00285
1.00282
1.00281
1.00281
1.0028
1.00281
1.00279
1.00277
1.00281
1.00283
1.00285
1.0029
1.00298
1.00298
1.0029
1.00285
1.00284
1.00289
1.00301
1.00304
1.00308
1.00317
1.00329
1.00331
1.00327
1.00315
1.00299
1.00286
1.00267
1.00245
1.00239
1.00242
1.00243
1.0024
1.00244
1.00263
1.00283
1.00297
1.00307
1.0031
1.0031
1.00316
1.00323
1.00324
1.00319
1.00306
1.00291
1.00289
1.00289
1.00288
1.00281
1.00273
1.00268
1.00269
1.00275
1.00288
1.00305
1.00319
1.00322
1.0032
1.00312
1.00295
1.00273
1.00262
1.00253
1.00255
1.00263
1.0028
1.00341
1.00752
1.02745
1.08732
1.18936
1.28512
1.33889
1.36358
1.3917
1.39455
1.39188
1.38867
1.38973
1.00364
1.00364
1.00366
1.00367
1.00368
1.0037
1.00374
1.00375
1.00371
1.00359
1.00352
1.0035
1.00346
1.00339
1.00338
1.0034
1.00341
1.00341
1.00343
1.00344
1.00344
1.00345
1.00345
1.00343
1.00342
1.00336
1.0033
1.00328
1.00315
1.00306
1.00302
1.00292
1.00275
1.00258
1.00245
1.00236
1.00223
1.0022
1.00221
1.00221
1.00229
1.0025
1.00267
1.00279
1.00291
1.00297
1.00302
1.00301
1.0029
1.00286
1.00292
1.00298
1.0031
1.00314
1.00311
1.003
1.00298
1.00307
1.00325
1.00329
1.0033
1.00331
1.00331
1.00318
1.00286
1.00259
1.00256
1.0026
1.00266
1.00269
1.00275
1.00288
1.00299
1.00309
1.00315
1.0032
1.00327
1.00326
1.00316
1.00292
1.00265
1.00249
1.00252
1.00257
1.00269
1.00292
1.00309
1.00312
1.00326
1.00457
1.01374
1.05241
1.13397
1.2541
1.33856
1.38697
1.38606
1.38162
1.38632
1.39097
1.00301
1.00303
1.00307
1.00303
1.00298
1.00298
1.00296
1.00293
1.00293
1.00296
1.00292
1.00289
1.00292
1.00298
1.00296
1.00295
1.00295
1.00292
1.00291
1.00291
1.00292
1.00299
1.00299
1.00295
1.003
1.00304
1.00301
1.00287
1.00285
1.00283
1.00265
1.00256
1.00258
1.00252
1.00239
1.00228
1.0021
1.00186
1.00167
1.00159
1.00168
1.00192
1.00218
1.00247
1.00275
1.00303
1.00323
1.00325
1.00323
1.00324
1.00331
1.00365
1.00385
1.00384
1.00366
1.00323
1.00306
1.00306
1.00309
1.00314
1.00313
1.00315
1.00312
1.00295
1.00265
1.0025
1.00252
1.00262
1.00274
1.00285
1.00302
1.00323
1.00337
1.00337
1.00329
1.00324
1.00316
1.00303
1.00284
1.00261
1.00244
1.00244
1.00253
1.00276
1.00305
1.00321
1.00321
1.00314
1.0029
1.00277
1.00322
1.00719
1.0291
1.0914
1.19424
1.30632
1.33869
1.37008
1.39224
1.39145
1.00111
1.00109
1.00109
1.00109
1.00109
1.00112
1.00119
1.00124
1.00122
1.0012
1.00123
1.00144
1.00164
1.00166
1.00168
1.00172
1.00176
1.00178
1.00174
1.0017
1.00176
1.00187
1.00188
1.00194
1.00214
1.00239
1.00247
1.00249
1.00244
1.00228
1.00226
1.00233
1.00255
1.00277
1.00283
1.0028
1.00264
1.0023
1.00199
1.00179
1.00176
1.00186
1.00212
1.00249
1.00283
1.00315
1.00337
1.00337
1.00324
1.00321
1.0033
1.00368
1.00386
1.00383
1.00361
1.00313
1.00283
1.00274
1.00265
1.00254
1.00251
1.00256
1.0026
1.00257
1.00258
1.00263
1.00283
1.0032
1.00336
1.00335
1.00337
1.00348
1.00354
1.0035
1.00331
1.00301
1.00272
1.00258
1.00254
1.0025
1.0025
1.0026
1.00289
1.00318
1.00332
1.00331
1.0032
1.00291
1.00264
1.00257
1.00262
1.00285
1.00471
1.01492
1.05974
1.14855
1.26593
1.3524
1.38411
1.3837
1.00072
1.00074
1.00076
1.0008
1.00085
1.00093
1.00104
1.00108
1.00108
1.00111
1.00125
1.00155
1.00172
1.00172
1.00165
1.00165
1.00169
1.00173
1.00176
1.00174
1.00172
1.00177
1.00181
1.00187
1.00209
1.00241
1.00249
1.00257
1.00279
1.00291
1.00298
1.00307
1.00323
1.00352
1.00364
1.00356
1.00347
1.00348
1.00359
1.00359
1.00349
1.00343
1.00348
1.00348
1.00339
1.00332
1.00324
1.00296
1.00252
1.00228
1.00232
1.00249
1.00264
1.00265
1.00248
1.00233
1.00237
1.0024
1.00237
1.00219
1.00217
1.00221
1.00221
1.00225
1.00254
1.00297
1.00348
1.0038
1.00379
1.00363
1.00351
1.00344
1.00337
1.0032
1.0029
1.00255
1.00236
1.00237
1.00245
1.00262
1.00287
1.00319
1.00337
1.00341
1.00339
1.00321
1.00284
1.00252
1.00252
1.00258
1.00282
1.00322
1.00331
1.00379
1.00863
1.03312
1.1107
1.21524
1.30499
1.36117
1.00523
1.00517
1.00508
1.00495
1.00479
1.00461
1.00443
1.00425
1.00406
1.00389
1.00384
1.00378
1.00375
1.00378
1.00368
1.00355
1.00356
1.00359
1.00365
1.00366
1.00359
1.00357
1.0038
1.00393
1.00394
1.00417
1.00466
1.00476
1.00461
1.00459
1.00455
1.00408
1.00392
1.0039
1.0038
1.00357
1.00355
1.00381
1.00429
1.00453
1.00457
1.00461
1.00455
1.00425
1.0039
1.00355
1.00306
1.00232
1.00164
1.00134
1.00137
1.00155
1.00176
1.00189
1.0019
1.00192
1.00211
1.00228
1.00236
1.00242
1.00254
1.00261
1.00267
1.0028
1.00295
1.00323
1.00364
1.00383
1.00379
1.00357
1.00312
1.0027
1.00248
1.00234
1.00225
1.00229
1.00237
1.00247
1.00278
1.00324
1.00355
1.00362
1.0036
1.00346
1.00315
1.00276
1.00245
1.00245
1.00252
1.00288
1.00329
1.00352
1.00344
1.00307
1.00312
1.00509
1.02011
1.07132
1.17274
1.3156
1.01399
1.0137
1.0134
1.01319
1.01299
1.01269
1.01246
1.01224
1.01159
1.01115
1.01107
1.0108
1.01019
1.00925
1.00855
1.00815
1.00791
1.00775
1.00748
1.0069
1.00668
1.00671
1.00671
1.0065
1.00618
1.00629
1.00652
1.00655
1.00641
1.00595
1.00525
1.00448
1.00412
1.00389
1.00343
1.00321
1.00322
1.00316
1.00283
1.00256
1.00256
1.00265
1.00289
1.00323
1.00334
1.00333
1.00316
1.00267
1.00201
1.00166
1.00165
1.00178
1.00206
1.00231
1.00245
1.0026
1.00275
1.00302
1.00346
1.00403
1.00445
1.00449
1.00441
1.00398
1.00325
1.00288
1.00283
1.00285
1.00282
1.00265
1.00236
1.00196
1.00176
1.00175
1.00183
1.00206
1.00246
1.003
1.00349
1.00365
1.00369
1.00359
1.00334
1.00292
1.00254
1.00236
1.00237
1.00255
1.00304
1.00356
1.00362
1.00357
1.00317
1.00268
1.00256
1.00265
1.00376
1.01173
1.04294
1.17551
1.01734
1.01752
1.01783
1.01829
1.01863
1.0186
1.01857
1.01854
1.01829
1.01783
1.01779
1.01784
1.01753
1.01667
1.01619
1.01564
1.01506
1.01502
1.01509
1.01493
1.01442
1.01385
1.01369
1.0137
1.01387
1.01431
1.01451
1.01446
1.01415
1.01355
1.0123
1.01084
1.01066
1.01076
1.01047
1.00972
1.00884
1.00788
1.00673
1.00576
1.00551
1.00556
1.00578
1.00607
1.00626
1.00656
1.00742
1.00847
1.00858
1.0083
1.00796
1.00755
1.00704
1.00632
1.00565
1.00526
1.00499
1.00489
1.00502
1.00545
1.00611
1.00627
1.00603
1.00496
1.00319
1.00217
1.00203
1.00202
1.00209
1.0022
1.00221
1.00199
1.00184
1.00196
1.00244
1.00312
1.00375
1.00397
1.00384
1.00354
1.00312
1.00271
1.0024
1.00221
1.00221
1.00225
1.00263
1.00328
1.00378
1.00385
1.00373
1.00325
1.0027
1.00249
1.00253
1.00295
1.00316
1.00362
1.00645
1.0626
1.04485
1.04492
1.04488
1.04469
1.0441
1.04321
1.0425
1.04205
1.04144
1.04043
1.04018
1.04039
1.04022
1.03871
1.03757
1.03771
1.03757
1.03727
1.03759
1.03737
1.03676
1.03656
1.03595
1.03572
1.03589
1.03618
1.03614
1.03557
1.03458
1.0345
1.03462
1.03405
1.03297
1.03234
1.032
1.03149
1.03052
1.02824
1.02546
1.02333
1.02167
1.02103
1.02031
1.01917
1.01821
1.01785
1.01771
1.01775
1.0179
1.01771
1.01669
1.01497
1.01365
1.01244
1.01091
1.00951
1.00844
1.00678
1.00496
1.0048
1.00501
1.00518
1.00508
1.00443
1.00313
1.0023
1.00225
1.00239
1.00266
1.00295
1.00344
1.00384
1.00406
1.00445
1.00463
1.0045
1.00434
1.00408
1.00348
1.00256
1.00185
1.00175
1.00183
1.00189
1.00206
1.00274
1.00354
1.00391
1.00383
1.00358
1.00306
1.00252
1.00241
1.0025
1.00302
1.00359
1.00356
1.00342
1.00319
1.01467
1.08157
1.08159
1.0817
1.08181
1.08173
1.08133
1.08068
1.07999
1.07866
1.07721
1.07708
1.07721
1.07662
1.07453
1.0722
1.07199
1.0721
1.07108
1.06919
1.06907
1.06901
1.06821
1.06617
1.06394
1.0626
1.06152
1.05919
1.05746
1.05651
1.05435
1.05311
1.05319
1.05261
1.05067
1.05018
1.05041
1.04971
1.04741
1.0464
1.04644
1.04605
1.04437
1.04235
1.03994
1.03759
1.03569
1.03306
1.03007
1.0293
1.02831
1.02612
1.0233
1.02207
1.02213
1.02204
1.02133
1.02031
1.01887
1.01667
1.01371
1.01126
1.01079
1.01096
1.0112
1.0106
1.01045
1.01029
1.00977
1.00898
1.00842
1.00834
1.00851
1.00831
1.00766
1.00667
1.00525
1.00406
1.00334
1.00261
1.00207
1.00167
1.00175
1.00199
1.00263
1.00349
1.00427
1.00422
1.00387
1.00316
1.00253
1.0022
1.00218
1.0024
1.00311
1.0038
1.00379
1.00361
1.00301
1.00261
1.00432
1.12541
1.1258
1.12581
1.12544
1.12449
1.12286
1.12139