/*--------------------------------*- C++ -*----------------------------------*\
  =========                 |
  \\      /  F ield         | OpenFOAM: The Open Source CFD Toolbox
   \\    /   O peration     | Website:  https://openfoam.org
    \\  /    A nd           | Version:  7
     \\/     M anipulation  |
\*---------------------------------------------------------------------------*/
FoamFile
{
    version     2.0;
    format      ascii;
    class       volScalarField;
    location    "6.5";
    object      T;
}
// * * * * * * * * * * * * * * * * * * * * * * * * * * * * * * * * * * * * * //

dimensions      [0 0 0 1 0 0 0];

internalField   nonuniform List<scalar> 
90000
(
0.893752
0.903008
0.912507
0.921376
0.929679
0.937354
0.944662
0.951465
0.958058
0.964204
0.970231
0.975835
0.981361
0.986461
0.99151
0.996084
1.00064
1.00464
1.00868
1.01201
1.01543
1.01814
1.02051
1.02293
1.02435
1.02525
1.0267
1.02673
1.0265
1.026
1.02535
1.02443
1.02224
1.02045
1.01937
1.01874
1.01867
1.01888
1.0194
1.01994
1.02031
1.02066
1.02118
1.0216
1.02137
1.0209
1.02003
1.01926
1.01866
1.01822
1.01813
1.01827
1.01876
1.01949
1.02003
1.01993
1.01959
1.01905
1.01861
1.01827
1.01827
1.01837
1.01863
1.01888
1.01876
1.01844
1.01813
1.01802
1.01809
1.0183
1.01829
1.01809
1.01784
1.01762
1.01764
1.01768
1.0176
1.01751
1.01739
1.01729
1.0172
1.0171
1.01701
1.01699
1.01695
1.01684
1.0167
1.0166
1.01652
1.01651
1.0165
1.01655
1.01651
1.0164
1.01624
1.01611
1.016
1.01596
1.01588
1.0157
0.885829
0.88632
0.887264
0.888717
0.890662
0.893141
0.896074
0.899536
0.903375
0.907734
0.912368
0.917481
0.922755
0.928425
0.934154
0.940157
0.946121
0.952238
0.958167
0.964192
0.96986
0.97551
0.980894
0.985751
0.990799
0.994848
0.999006
1.00228
1.00548
1.00772
1.00992
1.01126
1.01312
1.01533
1.01799
1.01965
1.02067
1.02149
1.02175
1.02157
1.02107
1.02071
1.02028
1.01944
1.0184
1.01799
1.01771
1.01742
1.01747
1.01776
1.01819
1.01855
1.01862
1.01847
1.01828
1.01795
1.0177
1.01748
1.0175
1.01765
1.01791
1.01789
1.01779
1.01763
1.01747
1.01732
1.01742
1.0176
1.01761
1.01756
1.0174
1.0172
1.01712
1.01713
1.01715
1.01705
1.0169
1.0169
1.01688
1.01682
1.01671
1.01663
1.01658
1.01656
1.01648
1.01637
1.01629
1.01622
1.01616
1.01612
1.01615
1.01622
1.01614
1.01604
1.01592
1.01581
1.01572
1.01568
1.01562
1.01546
0.88491
0.884885
0.884857
0.884833
0.884811
0.884824
0.884866
0.884962
0.88513
0.885403
0.885804
0.88639
0.887188
0.88829
0.889709
0.891596
0.893897
0.89687
0.900328
0.904662
0.909502
0.915322
0.921588
0.928799
0.936291
0.944573
0.952856
0.961489
0.970121
0.978274
0.986489
0.993826
1.0006
1.00491
1.00845
1.01062
1.01236
1.01338
1.01401
1.01428
1.01447
1.01413
1.01327
1.01253
1.01281
1.01328
1.01406
1.01511
1.016
1.01659
1.01652
1.01613
1.0155
1.01462
1.01417
1.01392
1.01408
1.01479
1.01561
1.01585
1.01575
1.01533
1.0149
1.01452
1.01474
1.0153
1.01574
1.01573
1.01547
1.01518
1.01502
1.01524
1.01549
1.01548
1.01536
1.01522
1.01524
1.0153
1.01529
1.01523
1.01516
1.01516
1.01516
1.01513
1.0151
1.01507
1.01503
1.01499
1.01496
1.01498
1.01503
1.01505
1.01504
1.01498
1.0149
1.01484
1.0148
1.01476
1.01471
1.0146
0.883659
0.883629
0.883594
0.88356
0.883526
0.883484
0.883439
0.883395
0.883355
0.883313
0.883269
0.883226
0.883185
0.883152
0.883119
0.883125
0.883174
0.883291
0.883497
0.88384
0.884361
0.885176
0.886324
0.888044
0.890322
0.893592
0.897627
0.903151
0.909498
0.91759
0.926242
0.936491
0.946847
0.957148
0.966972
0.975247
0.983272
0.988545
0.99371
0.9967
0.999931
1.00165
1.0036
1.0058
1.00889
1.01113
1.01298
1.01388
1.01407
1.01396
1.01344
1.01243
1.0114
1.01021
1.01018
1.01066
1.01156
1.01236
1.01278
1.01264
1.01214
1.01157
1.0113
1.01163
1.01218
1.01261
1.01278
1.01258
1.01227
1.01211
1.01234
1.01264
1.01284
1.01278
1.01262
1.01261
1.01266
1.01272
1.01273
1.01274
1.01278
1.01285
1.01288
1.01288
1.01287
1.01288
1.0129
1.01292
1.01296
1.01305
1.0131
1.01315
1.0132
1.01319
1.01318
1.01316
1.01315
1.01315
1.01315
1.01312
0.882253
0.882232
0.882209
0.882185
0.882161
0.882136
0.882108
0.882077
0.88204
0.882003
0.881965
0.881927
0.881889
0.881852
0.881815
0.881782
0.881732
0.881684
0.881636
0.881589
0.881541
0.881501
0.881459
0.881461
0.88149
0.881612
0.881864
0.882344
0.883128
0.88449
0.886492
0.889773
0.894162
0.900802
0.908705
0.919242
0.93044
0.943151
0.955412
0.967027
0.97798
0.98664
0.995109
1.00018
1.00347
1.00522
1.00704
1.00808
1.00867
1.00803
1.00644
1.00646
1.00693
1.00789
1.00891
1.00967
1.00983
1.00954
1.00908
1.00865
1.00842
1.00861
1.00918
1.00975
1.00987
1.0097
1.00948
1.0093
1.00938
1.00964
1.00991
1.00994
1.00994
1.00996
1.01003
1.0101
1.01016
1.01014
1.01016
1.01024
1.01033
1.0104
1.01042
1.01041
1.01045
1.01052
1.0106
1.01067
1.01075
1.01084
1.01092
1.01097
1.01103
1.01108
1.01113
1.01115
1.01117
1.0112
1.01122
1.01126
0.881094
0.881079
0.881064
0.881048
0.881032
0.881015
0.880998
0.88098
0.880961
0.880941
0.88092
0.880899
0.880876
0.880852
0.880826
0.880798
0.88077
0.880738
0.880703
0.880668
0.880635
0.880603
0.880574
0.880547
0.880534
0.880497
0.880455
0.880416
0.88038
0.880362
0.88038
0.880457
0.880674
0.881184
0.88213
0.884001
0.88694
0.892115
0.898946
0.909196
0.92066
0.934658
0.948455
0.96147
0.973236
0.981023
0.988432
0.992077
0.996145
0.998
1.00089
1.0037
1.00693
1.00883
1.00956
1.00945
1.00887
1.00767
1.00596
1.00604
1.00652
1.00747
1.00845
1.00867
1.00842
1.0079
1.00723
1.00731
1.00771
1.00811
1.00838
1.00825
1.00804
1.00804
1.00819
1.00832
1.00834
1.00827
1.00827
1.00837
1.00852
1.0086
1.00858
1.00856
1.0086
1.00867
1.00873
1.00883
1.00896
1.00905
1.00909
1.00911
1.00915
1.00923
1.00932
1.00939
1.00944
1.00944
1.00946
1.00953
0.880332
0.880323
0.880314
0.880305
0.880296
0.880287
0.880277
0.880267
0.880257
0.880247
0.880236
0.880224
0.880213
0.8802
0.880187
0.880173
0.880158
0.880143
0.880126
0.880109
0.880091
0.880074
0.880054
0.880031
0.880008
0.879986
0.879962
0.879939
0.879917
0.879899
0.879881
0.879886
0.879863
0.879833
0.879805
0.879817
0.87988
0.8801
0.88062
0.88186
0.884085
0.888519
0.894889
0.905355
0.917643
0.933266
0.948567
0.963345
0.976931
0.987317
0.997062
1.00146
1.00453
1.0062
1.00733
1.0067
1.00491
1.00429
1.00485
1.00611
1.00727
1.00792
1.00788
1.00736
1.00644
1.00614
1.00625
1.00682
1.00736
1.00735
1.00722
1.00703
1.00706
1.00723
1.00743
1.00741
1.00732
1.00728
1.00734
1.00743
1.0075
1.0075
1.00749
1.00751
1.00753
1.00758
1.00765
1.00773
1.00784
1.0079
1.00792
1.00791
1.00794
1.00801
1.0081
1.00817
1.0082
1.0082
1.00821
1.00827
0.879914
0.87991
0.879905
0.8799
0.879895
0.87989
0.879885
0.879879
0.879874
0.879868
0.879862
0.879855
0.879848
0.879841
0.879834
0.879826
0.879817
0.879808
0.879799
0.879787
0.879776
0.87977
0.879764
0.879747
0.879732
0.879724
0.879709
0.879689
0.879672
0.879656
0.87964
0.879623
0.87961
0.879597
0.879583
0.87957
0.879574
0.879559
0.879536
0.87954
0.879576
0.879724
0.880127
0.881211
0.883368
0.888081
0.89518
0.907242
0.921065
0.938449
0.955094
0.969247
0.981977
0.988247
0.995015
0.997383
1.00064
1.00373
1.007
1.00878
1.00869
1.00834
1.00676
1.0052
1.00523
1.00559
1.00649
1.00747
1.00744
1.00714
1.00646
1.00645
1.00664
1.00694
1.00712
1.00704
1.00686
1.00689
1.00702
1.00714
1.0071
1.00702
1.00701
1.00703
1.00705
1.00706
1.00712
1.00724
1.00734
1.00734
1.0073
1.00726
1.00728
1.00735
1.00744
1.00751
1.00751
1.00748
1.00749
1.00753
0.879693
0.87969
0.879687
0.879684
0.87968
0.879677
0.879673
0.879669
0.879665
0.879661
0.879657
0.879652
0.879647
0.879642
0.879637
0.879631
0.879626
0.87962
0.879614
0.879606
0.879599
0.879597
0.879589
0.879578
0.87957
0.879564
0.87955
0.879536
0.879525
0.879514
0.8795
0.879488
0.879474
0.879458
0.879443
0.879432
0.879421
0.879415
0.879409
0.879409
0.879411
0.879414
0.879423
0.879441
0.87949
0.879673
0.880172
0.881588
0.884406
0.890681
0.899867
0.915122
0.932076
0.951142
0.968907
0.982854
0.996135
1.00194
1.00541
1.00727
1.00724
1.00563
1.00396
1.00448
1.00583
1.00704
1.00749
1.00743
1.00695
1.00625
1.00615
1.00648
1.00692
1.00695
1.00686
1.00666
1.0067
1.0069
1.00699
1.00695
1.00688
1.00682
1.00684
1.00687
1.00689
1.00689
1.00695
1.00706
1.00711
1.0071
1.00705
1.007
1.007
1.00705
1.00713
1.00718
1.00717
1.00713
1.00714
1.00717
0.879567
0.879564
0.879562
0.879559
0.879556
0.879552
0.879548
0.879544
0.879539
0.879535
0.879531
0.879528
0.879524
0.87952
0.879514
0.879509
0.879504
0.879502
0.879499
0.879492
0.879484
0.879478
0.879471
0.879464
0.879457
0.879449
0.879439
0.87943
0.87942
0.87941
0.879398
0.879387
0.879374
0.879359
0.879344
0.879332
0.879323
0.879313
0.879304
0.879301
0.879303
0.879309
0.87932
0.879337
0.879373
0.87939
0.879403
0.879435
0.87953
0.879853
0.880701
0.883115
0.88781
0.897946
0.911425
0.931022
0.950764
0.968012
0.982932
0.990169
0.996632
0.999052
1.00369
1.00642
1.00848
1.00838
1.00797
1.00658
1.00541
1.0056
1.00632
1.00726
1.00723
1.00693
1.00638
1.00643
1.00676
1.00709
1.00706
1.00688
1.0067
1.00673
1.0068
1.0068
1.00681
1.00684
1.00695
1.00702
1.00702
1.00697
1.00691
1.00688
1.00689
1.00693
1.00699
1.00705
1.00701
1.00697
1.00698
1.007
0.879475
0.879474
0.879472
0.87947
0.879468
0.879464
0.879461
0.879458
0.879454
0.87945
0.879445
0.879441
0.879437
0.879431
0.879426
0.879421
0.879417
0.879413
0.879406
0.8794
0.879394
0.879389
0.879385
0.87938
0.879374
0.879366
0.879358
0.87935
0.879341
0.879332
0.879322
0.879311
0.879298
0.879285
0.879273
0.879263
0.879253
0.87924
0.879234
0.879233
0.879235
0.879238
0.879245
0.879255
0.879273
0.879296
0.879319
0.879342
0.87938
0.879409
0.879421
0.879469
0.879668
0.880438
0.882407
0.887818
0.896987
0.913886
0.933632
0.955182
0.975304
0.990001
1.00143
1.00457
1.00713
1.00677
1.00502
1.00441
1.00518
1.00648
1.00755
1.00753
1.00698
1.00609
1.0061
1.00656
1.00708
1.00709
1.00687
1.00661
1.00664
1.00679
1.00683
1.00678
1.00677
1.00685
1.00697
1.00697
1.00694
1.00688
1.00684
1.00683
1.00684
1.00687
1.0069
1.00693
1.00692
1.00689
1.0069
1.00692
0.879357
0.879356
0.879354
0.879352
0.87935
0.879348
0.879347
0.879346
0.879344
0.879341
0.879337
0.879334
0.879331
0.879328
0.879325
0.879322
0.879318
0.879315
0.879313
0.879311
0.879309
0.879309
0.879309
0.879308
0.879305
0.8793
0.879296
0.879292
0.879288
0.879284
0.879278
0.87927
0.879262
0.879253
0.879245
0.879237
0.879226
0.879212
0.8792
0.879195
0.879192
0.879191
0.879192
0.879194
0.879199
0.879207
0.87922
0.879234
0.879252
0.87927
0.879294
0.879299
0.879292
0.879267
0.879285
0.879479
0.880193
0.882777
0.888418
0.901248
0.918688
0.941651
0.964422
0.978679
0.992401
0.99562
0.999984
1.00328
1.00734
1.00835
1.00813
1.00694
1.00546
1.00557
1.00628
1.00727
1.00723
1.00683
1.00637
1.00646
1.00678
1.00683
1.00677
1.0067
1.00675
1.00692
1.00698
1.00693
1.00681
1.00677
1.00679
1.0068
1.00682
1.00683
1.00682
1.00682
1.00683
1.00684
1.00687
1.00686
0.879234
0.879233
0.879231
0.87923
0.879229
0.879229
0.879229
0.879229
0.879229
0.879228
0.879227
0.879227
0.879227
0.879227
0.879227
0.879227
0.879226
0.879226
0.879226
0.879227
0.879228
0.879231
0.879234
0.879236
0.879239
0.879243
0.879246
0.879251
0.879256
0.87926
0.879261
0.879261
0.87926
0.879258
0.879255
0.879248
0.879236
0.879221
0.879203
0.879185
0.87917
0.879157
0.879148
0.879143
0.879138
0.879137
0.879138
0.879142
0.879149
0.879162
0.879181
0.879197
0.879201
0.879199
0.879188
0.879141
0.879068
0.879094
0.879334
0.880576
0.88382
0.893012
0.907442
0.930847
0.955185
0.975463
0.994579
1.00102
1.00577
1.0065
1.00536
1.0041
1.00492
1.00639
1.00752
1.00742
1.00667
1.00604
1.00615
1.00668
1.00693
1.00681
1.00656
1.00661
1.00685
1.00694
1.00691
1.00676
1.0067
1.0067
1.00672
1.00675
1.00677
1.00677
1.00674
1.00671
1.00673
1.00678
1.00682
1.00681
0.879092
0.879091
0.879091
0.879091
0.87909
0.87909
0.87909
0.87909
0.87909
0.879091
0.879092
0.879094
0.879095
0.879098
0.879102
0.879106
0.879111
0.879117
0.879122
0.879128
0.879134
0.879142
0.879151
0.879161
0.87917
0.87918
0.879191
0.879203
0.879214
0.879225
0.879236
0.879248
0.879259
0.879263
0.879263
0.87926
0.879253
0.879238
0.879217
0.879194
0.87917
0.879146
0.879121
0.879097
0.879079
0.879074
0.879073
0.879072
0.879072
0.879078
0.879091
0.879109
0.879123
0.87913
0.879126
0.879108
0.879074
0.879001
0.878917
0.878909
0.879001
0.879596
0.881526
0.888064
0.899753
0.922162
0.946901
0.967813
0.986417
0.99234
0.997835
1.00175
1.00705
1.00835
1.00803
1.00651
1.00527
1.00555
1.0065
1.00706
1.00682
1.00641
1.00644
1.00674
1.007
1.00693
1.00669
1.00659
1.0066
1.00663
1.00666
1.0067
1.00671
1.00668
1.00662
1.0066
1.00663
1.00671
1.00676
1.00675
0.878972
0.878972
0.878973
0.878973
0.878973
0.878973
0.878973
0.878974
0.878975
0.878977
0.87898
0.878984
0.878988
0.878995
0.879001
0.879008
0.879016
0.879026
0.879034
0.879041
0.879049
0.879057
0.879067
0.879077
0.879089
0.879101
0.879113
0.879126
0.879141
0.879156
0.879173
0.879189
0.879204
0.879217
0.879226
0.87923
0.879229
0.879224
0.87921
0.879188
0.879162
0.879132
0.879097
0.879058
0.879021
0.878995
0.878985
0.878982
0.878981
0.878983
0.878991
0.879019
0.879062
0.879088
0.879094
0.879087
0.879062
0.879013
0.878929
0.878841
0.878804
0.878804
0.87885
0.879208
0.880456
0.885192
0.894832
0.915921
0.940695
0.965365
0.989104
0.998886
1.00505
1.00633
1.00482
1.00388
1.00505
1.00669
1.00719
1.00684
1.00595
1.00601
1.00655
1.00697
1.00691
1.00661
1.00645
1.00648
1.00654
1.00655
1.00657
1.00662
1.00662
1.00658
1.0065
1.00651
1.00655
1.00662
1.00667
1.00667
0.878932
0.878928
0.878925
0.878925
0.878927
0.878929
0.878929
0.878929
0.878929
0.87893
0.878932
0.878933
0.878936
0.878939
0.878941
0.878944
0.878949
0.878954
0.878959
0.878965
0.878971
0.878977
0.878983
0.87899
0.878997
0.879007
0.879019
0.879034
0.87905
0.879067
0.879085
0.879102
0.879117
0.87913
0.879144
0.879155
0.879161
0.879162
0.879158
0.879147
0.879129
0.879104
0.879073
0.879034
0.878991
0.878945
0.878908
0.878893
0.878893
0.878896
0.878901
0.878914
0.878949
0.879009
0.879056
0.879061
0.879049
0.879013
0.878946
0.878845
0.878752
0.878726
0.878729
0.878746
0.878827
0.879092
0.879925
0.883506
0.891785
0.911896
0.937087
0.96202
0.983245
0.991361
0.997283
1.00201
1.00767
1.00822
1.00744
1.00537
1.00541
1.0061
1.0071
1.00703
1.00649
1.00623
1.00631
1.0065
1.0065
1.00648
1.0065
1.00655
1.00652
1.00646
1.0064
1.00641
1.00646
1.00652
1.00658
1.00657
0.878985
0.878982
0.878979
0.878976
0.878972
0.878968
0.878963
0.878957
0.87895
0.878943
0.878938
0.878933
0.878929
0.878925
0.878921
0.878917
0.878913
0.878907
0.878903
0.878903
0.878903
0.878901
0.8789
0.878901
0.878905
0.87891
0.878917
0.878926
0.878934
0.878945
0.878956
0.878969
0.878982
0.878998
0.879016
0.879036
0.879058
0.879075
0.879083
0.879084
0.879079
0.879068
0.879049
0.879024
0.878991
0.878946
0.878892
0.878844
0.878819
0.878814
0.878815
0.87882
0.878839
0.87888
0.878948
0.879005
0.87901
0.878992
0.878948
0.878869
0.878763
0.878685
0.878672
0.878684
0.878727
0.878819
0.878894
0.879031
0.879591
0.88256
0.890235
0.910092
0.935368
0.962723
0.988483
0.999127
1.00593
1.0061
1.00339
1.00397
1.00577
1.00723
1.00716
1.00645
1.00582
1.00601
1.00642
1.00646
1.00641
1.00639
1.00647
1.00647
1.00641
1.0063
1.0063
1.00634
1.00638
1.00642
1.00648
1.00647
0.879028
0.879025
0.879022
0.879018
0.879013
0.879007
0.879001
0.878994
0.878986
0.878977
0.878968
0.878958
0.878947
0.878936
0.878924
0.878911
0.878898
0.878886
0.878873
0.87886
0.878848
0.878838
0.878829
0.878821
0.878817
0.878817
0.878817
0.878817
0.878818
0.87882
0.878822
0.878825
0.878831
0.878841
0.878858
0.878881
0.878913
0.87895
0.878986
0.879009
0.879019
0.879022
0.879021
0.879016
0.879002
0.878976
0.878933
0.878872
0.878808
0.878761
0.878737
0.87873
0.878731
0.878745
0.878786
0.878856
0.87892
0.878934
0.878918
0.878876
0.8788
0.878699
0.878649
0.878651
0.878679
0.878748
0.878851
0.878879
0.878863
0.878915
0.87936
0.882118
0.889856
0.909733
0.93655
0.963301
0.983962
0.992783
0.997937
1.005
1.00803
1.00781
1.00618
1.00523
1.00567
1.00651
1.00656
1.00637
1.00623
1.00634
1.00647
1.0064
1.0062
1.0062
1.00626
1.00631
1.00632
1.00634
1.00638
1.00637
0.879011
0.879011
0.87901
0.879006
0.879003
0.879
0.878996
0.878991
0.878986
0.878981
0.878974
0.878965
0.878955
0.878942
0.878929
0.878915
0.878901
0.878884
0.878866
0.878847
0.878829
0.878813
0.878799
0.878784
0.878769
0.878755
0.878744
0.878737
0.878732
0.878729
0.878729
0.87873
0.878732
0.878736
0.878743
0.878757
0.878779
0.878813
0.878858
0.87891
0.878952
0.878977
0.87899
0.878995
0.878995
0.878989
0.878966
0.878922
0.878855
0.878774
0.878704
0.878658
0.878636
0.878633
0.878639
0.87867
0.87874
0.878822
0.87886
0.878858
0.878829
0.878763
0.878682
0.878653
0.878662
0.878701
0.878777
0.878848
0.878852
0.87882
0.878744
0.878787
0.879293
0.882151
0.89063
0.911474
0.938742
0.968363
0.992067
1.00258
1.00642
1.00498
1.0031
1.00469
1.00665
1.00678
1.00644
1.00588
1.00609
1.00647
1.00643
1.00614
1.00607
1.00618
1.00625
1.00626
1.00627
1.00629
1.00629
1.00626
0.878978
0.878976
0.878973
0.878968
0.878965
0.878963
0.878961
0.878958
0.878955
0.878954
0.878952
0.878948
0.878943
0.878936
0.878929
0.878922
0.878912
0.878901
0.878888
0.878874
0.878858
0.878839
0.87882
0.8788
0.878779
0.878757
0.878734
0.878713
0.878695
0.87868
0.878675
0.878675
0.878674
0.878674
0.878679
0.878687
0.878697
0.878713
0.878741
0.878786
0.878842
0.878897
0.87894
0.878962
0.878965
0.878962
0.878951
0.878926
0.878881
0.878814
0.878731
0.878645
0.87858
0.878555
0.878549
0.878553
0.878588
0.878669
0.878769
0.878825
0.878831
0.878819
0.878774
0.878704
0.878669
0.878671
0.878701
0.878767
0.878816
0.878805
0.878759
0.878693
0.878686
0.878777
0.879428
0.882548
0.8924
0.914303
0.944763
0.971125
0.987838
0.995645
1.00127
1.00764
1.0076
1.00676
1.00533
1.00568
1.00659
1.00658
1.00615
1.00591
1.00604
1.00627
1.00626
1.00623
1.00625
1.00626
1.0062
1.00618
0.878891
0.878899
0.878907
0.878914
0.878919
0.878922
0.878925
0.878927
0.878928
0.878927
0.878926
0.878926
0.878926
0.878928
0.878929
0.878931
0.878931
0.87893
0.878928
0.878924
0.878917
0.878908
0.878896
0.878882
0.878866
0.878846
0.878822
0.878794
0.878764
0.878733
0.878706
0.878683
0.878663
0.878649
0.878644
0.878643
0.878643
0.878646
0.878655
0.878673
0.878702
0.878744
0.878797
0.878854
0.878899
0.878917
0.878913
0.878896
0.878867
0.878832
0.878781
0.8787
0.878597
0.878526
0.878509
0.878511
0.87853
0.878579
0.878661
0.87876
0.878819
0.878827
0.878822
0.878781
0.878698
0.878649
0.878647
0.878673
0.878733
0.878768
0.878759
0.878727
0.8787
0.8787
0.878722
0.878861
0.879672
0.883309
0.89575
0.91977
0.950394
0.982118
0.997996
1.00598
1.00573
1.00331
1.00453
1.00669
1.00696
1.00642
1.00559
1.0058
1.00633
1.00631
1.0062
1.0062
1.00626
1.00623
1.00612
1.00613
0.878742
0.878756
0.87877
0.878784
0.878799
0.878814
0.878829
0.878844
0.878859
0.878873
0.878887
0.878899
0.878909
0.878915
0.878919
0.878923
0.878927
0.878931
0.878937
0.878942
0.878946
0.878948
0.878947
0.878946
0.878943
0.878935
0.878924
0.878908
0.878886
0.878859
0.878827
0.878789
0.878746
0.878701
0.878659
0.878625
0.878604
0.878593
0.878585
0.878583
0.878584
0.878593
0.878613
0.878646
0.878689
0.878737
0.878781
0.878814
0.878833
0.878836
0.878831
0.878797
0.878721
0.87862
0.878538
0.878517
0.878527
0.878556
0.878594
0.878659
0.878756
0.878811
0.878814
0.878802
0.878738
0.878646
0.878613
0.878619
0.87866
0.878728
0.878759
0.878757
0.878742
0.878728
0.878731
0.878734
0.878756
0.878899
0.88004
0.884727
0.900432
0.927826
0.958925
0.983484
0.993023
0.999103
1.00708
1.00784
1.00688
1.00507
1.00539
1.00638
1.00654
1.00626
1.0061
1.00621
1.0063
1.00619
1.00605
1.00612
0.878642
0.878652
0.878662
0.878672
0.878685
0.878699
0.878713
0.878728
0.878744
0.878762
0.87878
0.878798
0.878817
0.878835
0.878854
0.878872
0.878887
0.878898
0.878906
0.878912
0.878918
0.878922
0.878926
0.878929
0.878933
0.878936
0.878937
0.878934
0.878927
0.878915
0.878896
0.878865
0.878824
0.878774
0.878718
0.878661
0.878607
0.878563
0.878537
0.878521
0.878511
0.878506
0.878504
0.878505
0.878514
0.87854
0.878588
0.878657
0.878751
0.878837
0.878871
0.878872
0.878852
0.878798
0.878724
0.878657
0.878609
0.878578
0.878566
0.87857
0.878624
0.878728
0.878786
0.878783
0.878752
0.878679
0.878616
0.87861
0.878634
0.878699
0.878757
0.878767
0.87876
0.878734
0.878715
0.878704
0.878694
0.878681
0.878703
0.878944
0.880683
0.887589
0.907771
0.937383
0.971413
0.99408
1.00527
1.00574
1.00277
1.00395
1.00637
1.00693
1.00647
1.00579
1.00602
1.00635
1.00628
1.00598
1.00598
1.00618
0.878592
0.878595
0.878598
0.8786
0.878604
0.878609
0.878609
0.87861
0.878612
0.878613
0.878615
0.878619
0.878627
0.878638
0.878654
0.878675
0.878699
0.878723
0.878746
0.878767
0.878783
0.878796
0.878808
0.878822
0.878837
0.878855
0.878872
0.878882
0.878883
0.878877
0.878864
0.878844
0.87882
0.878789
0.878752
0.878711
0.878663
0.878609
0.878558
0.878522
0.8785
0.878483
0.878466
0.878453
0.878448
0.878452
0.878479
0.878538
0.878646
0.878782
0.878878
0.878901
0.878893
0.878866
0.878832
0.878799
0.878745
0.878638
0.87854
0.878525
0.878532
0.878592
0.878697
0.878758
0.878759
0.878736
0.878689
0.878662
0.87867
0.878702
0.878744
0.878758
0.878748
0.87872
0.878684
0.87865
0.878637
0.878639
0.878645
0.878656
0.878709
0.879177
0.881894
0.892494
0.917103
0.950315
0.97735
0.991488
0.997677
1.00639
1.00777
1.00686
1.00525
1.00565
1.00651
1.00647
1.006
1.00586
1.00603
1.0063
0.878568
0.878562
0.878557
0.878551
0.878543
0.878534
0.878525
0.878515
0.878502
0.878488
0.878473
0.878459
0.878445
0.878431
0.878423
0.878421
0.87842
0.878421
0.878431
0.87845
0.87847
0.878491
0.878513
0.87854
0.878574
0.87861
0.878649
0.878686
0.878721
0.878753
0.878779
0.878787
0.87878
0.878768
0.87876
0.878752
0.878739
0.878723
0.878707
0.878691
0.878674
0.878652
0.878619
0.878569
0.87851
0.878466
0.87846
0.878488
0.878566
0.878668
0.878776
0.878857
0.878865
0.878844
0.878829
0.878821
0.878797
0.878705
0.878554
0.878495
0.878496
0.878529
0.878618
0.878723
0.878779
0.878785
0.878778
0.878758
0.878742
0.878734
0.878737
0.878732
0.878716
0.878685
0.878638
0.878613
0.878613
0.878619
0.87864
0.878677
0.878724
0.878734
0.878832
0.879695
0.884295
0.900295
0.928633
0.96474
0.990993
1.00463
1.00573
1.00282
1.0042
1.00655
1.00679
1.00622
1.00554
1.00579
1.00632
1.00636
0.878602
0.878586
0.878569
0.87855
0.878531
0.878512
0.878494
0.878477
0.87846
0.878445
0.878426
0.878405
0.878382
0.87836
0.878334
0.8783
0.878273
0.878266
0.878265
0.878266
0.878272
0.878287
0.87831
0.878341
0.878375
0.878411
0.878458
0.878516
0.878574
0.878627
0.878675
0.878719
0.878754
0.878768
0.878775
0.878787
0.878798
0.878813
0.878835
0.878856
0.878869
0.878869
0.878851
0.878803
0.878726
0.878629
0.878538
0.878512
0.878527
0.878561
0.878605
0.878666
0.878705
0.878728
0.878756
0.878779
0.878778
0.87873
0.878611
0.878525
0.878518
0.878538
0.878607
0.878706
0.878779
0.878801
0.878802
0.878799
0.878781
0.878748
0.878696
0.87865
0.878626
0.878607
0.878602
0.878601
0.87861
0.878637
0.878681
0.878709
0.878718
0.878716
0.878687
0.878684
0.878896
0.880626
0.888868
0.910468
0.944918
0.975336
0.990255
0.997496
1.00666
1.00752
1.00665
1.0051
1.00547
1.0064
1.00651
1.00633
0.878727
0.878718
0.878707
0.878694
0.878677
0.878656
0.878631
0.878605
0.87858
0.878556
0.878529
0.878501
0.878474
0.878449
0.878424
0.878392
0.878352
0.878311
0.878287
0.878282
0.878285
0.878297
0.878316
0.878336
0.878356
0.878384
0.878422
0.878474
0.878538
0.878607
0.878673
0.878714
0.878731
0.878741
0.878765
0.878795
0.878818
0.878847
0.878869
0.878887
0.878907
0.878914
0.878907
0.878874
0.878808
0.878723
0.87863
0.878538
0.878508
0.878515
0.878525
0.878529
0.878538
0.878567
0.878627
0.878697
0.878731
0.87873
0.878688
0.878646
0.878649
0.878669
0.878706
0.878736
0.878759
0.878777
0.878779
0.878778
0.878764
0.878711
0.878633
0.878584
0.878577
0.878581
0.878593
0.878629
0.878676
0.878711
0.878725
0.878721
0.87871
0.878678
0.878618
0.878546
0.878522
0.878586
0.879227
0.88274
0.897285
0.924768
0.962045
0.990583
1.00474
1.00543
1.0028
1.00406
1.00635
1.00683
1.0065
1.00613
0.878906
0.878913
0.878919
0.878921
0.878919
0.87891
0.878901
0.878888
0.87887
0.878851
0.878836
0.878822
0.878806
0.878787
0.878766
0.878745
0.878724
0.878706
0.878692
0.878676
0.878662
0.878656
0.878654
0.878651
0.87865
0.878643
0.878635
0.878648
0.878657
0.878665
0.878685
0.878719
0.878718
0.878692
0.87868
0.878679
0.878695
0.878737
0.878748
0.87876
0.878791
0.878827
0.878831
0.878815
0.878764
0.878704
0.878662
0.878603
0.878533
0.878516
0.878525
0.878527
0.878515
0.878523
0.878582
0.878642
0.878689
0.878731
0.878747
0.878746
0.878764
0.878781
0.87878
0.878762
0.878718
0.87867
0.878656
0.878656
0.878648
0.878618
0.878588
0.878568
0.878572
0.878592
0.878635
0.878692
0.878738
0.878741
0.878737
0.878707
0.878648
0.878567
0.878526
0.878488
0.878491
0.87852
0.878577
0.878789
0.880262
0.887457
0.908943
0.943913
0.974307
0.990606
0.998072
1.00646
1.00746
1.00672
1.00581
1.00613
0.878954
0.878954
0.878958
0.878961
0.878963
0.878968
0.878982
0.878986
0.878971
0.878928
0.878903
0.878897
0.878881
0.878855
0.878849
0.878857
0.878856
0.878856
0.878859
0.878859
0.878854
0.878856
0.878852
0.878842
0.878837
0.878816
0.878796
0.878786
0.878742
0.878712
0.878701
0.878667
0.878612
0.878555
0.87852
0.878492
0.87845
0.878435
0.878439
0.878437
0.87846
0.878525
0.878578
0.878614
0.878652
0.878674
0.878696
0.878695
0.878668
0.878662
0.878682
0.878707
0.878744
0.878741
0.878721
0.878671
0.878667
0.878711
0.878784
0.878797
0.878791
0.878789
0.878785
0.878735
0.878626
0.878534
0.87852
0.87853
0.878549
0.87856
0.87858
0.878623
0.878663
0.878693
0.878709
0.878722
0.878745
0.878742
0.878706
0.878622
0.878524
0.878465
0.878472
0.878485
0.878523
0.878602
0.878658
0.878667
0.878711
0.879173
0.882484
0.896504
0.924928
0.964473
0.990995
1.00552
1.00522
1.00383
1.00518
1.00651
0.878719
0.878728
0.878739
0.878728
0.87871
0.878704
0.878696
0.878679
0.878679
0.878688
0.878672
0.878659
0.878667
0.878686
0.878679
0.878672
0.878668
0.878655
0.878645
0.878635
0.878638
0.878661
0.878661
0.878646
0.878661
0.878676
0.878666
0.878615
0.878609
0.878601
0.878535
0.87851
0.878522
0.878508
0.878477
0.878446
0.878388
0.878301
0.878226
0.878194
0.878221
0.878298
0.878382
0.878474
0.878568
0.878662
0.878741
0.878758
0.878761
0.87877
0.878806
0.878934
0.878973
0.878963
0.878883
0.878724
0.878684
0.878687
0.878716
0.878727
0.878721
0.878716
0.878696
0.878628
0.878528
0.878485
0.878492
0.878524
0.878559
0.878598
0.878655
0.878732
0.878771
0.878768
0.878741
0.878718
0.878691
0.878644
0.878577
0.878497
0.878436
0.878434
0.878459
0.878539
0.878637
0.878683
0.878682
0.878654
0.878567
0.878516
0.878675
0.880097
0.888
0.91026
0.94539
0.980922
0.99072
1.00023
1.00685
1.00664
0.878026
0.878018
0.878014
0.878013
0.878014
0.878024
0.878047
0.87806
0.878051
0.878042
0.878052
0.87812
0.878186
0.87819
0.878198
0.878209
0.878218
0.878224
0.878205
0.87819
0.878207
0.878247
0.878249
0.878267
0.878337
0.878425
0.878452
0.878455
0.878439
0.878384
0.87838
0.87841
0.878497
0.878587
0.878615
0.878607
0.878558
0.878443
0.878328
0.878248
0.878235
0.878266
0.878348
0.878468
0.878575
0.878681
0.878773
0.878779
0.87875
0.87875
0.878789
0.878925
0.878959
0.878943
0.878845
0.878662
0.878578
0.878559
0.878537
0.878496
0.878475
0.878482
0.878485
0.878478
0.878485
0.87851
0.878584
0.878708
0.878756
0.878753
0.878758
0.878799
0.878814
0.878799
0.87873
0.878624
0.878519
0.87847
0.878452
0.878442
0.878442
0.878474
0.878573
0.878668
0.878706
0.878703
0.878661
0.878557
0.878457
0.878432
0.878451
0.878535
0.879191
0.882866
0.899058
0.929821
0.968314
0.995287
1.00458
1.00436
0.877865
0.87787
0.877877
0.877888
0.877904
0.87793
0.877968
0.877977
0.877977
0.877987
0.878036
0.878142
0.878196
0.878193
0.878165
0.878166
0.878178
0.878188
0.878199
0.878191
0.878183
0.878202
0.878216
0.878234
0.878311
0.878421
0.878447
0.878475
0.878547
0.878593
0.878623
0.878663
0.878731
0.878847
0.878889
0.878859
0.878821
0.878821
0.878853
0.878851
0.878815
0.878792
0.878806
0.8788
0.878751
0.878722
0.878695
0.878612
0.878478
0.878406
0.87842
0.878478
0.87851
0.878505
0.878429
0.878374
0.878395
0.878421
0.878414
0.878354
0.878337
0.87834
0.878334
0.878352
0.878462
0.878621
0.878799
0.878893
0.878888
0.878834
0.878797
0.878771
0.878743
0.878679
0.87857
0.878441
0.878372
0.87838
0.87841
0.878469
0.878557
0.878662
0.878725
0.878725
0.878719
0.878654
0.878522
0.8784
0.878398
0.878419
0.878505
0.87865
0.878677
0.878842
0.880578
0.889403
0.917167
0.952147
0.979874
0.997434
0.879463
0.879434
0.879389
0.879329
0.87926
0.879186
0.879111
0.879043
0.878971
0.878912
0.878897
0.878878
0.878868
0.87888
0.878843
0.878797
0.878799
0.878812
0.878841
0.878849
0.878824
0.878815
0.878888
0.878929
0.87893
0.879008
0.879177
0.879218
0.879171
0.879172
0.879161
0.879012
0.878978
0.878975
0.87894
0.878845
0.878821
0.878897
0.879053
0.879142
0.879165
0.879186
0.879162
0.879048
0.878909
0.878778
0.878612
0.878372
0.878159
0.878058
0.878067
0.878124
0.878187
0.878213
0.878212
0.87822
0.878294
0.87837
0.878403
0.878424
0.878456
0.87847
0.878483
0.878529
0.878591
0.878698
0.87884
0.878891
0.878874
0.878797
0.878643
0.878495
0.87841
0.878353
0.878317
0.878328
0.878357
0.878395
0.878508
0.878668
0.878774
0.878797
0.878787
0.878736
0.878626
0.878483
0.878366
0.878362
0.878386
0.878509
0.87865
0.878727
0.878702
0.878576
0.878584
0.879275
0.88471
0.903076
0.937328
0.985478
0.882463
0.882349
0.882229
0.882137
0.882052
0.881934
0.881844
0.881757
0.881515
0.881363
0.88134
0.881253
0.881045
0.880722
0.880486
0.880357
0.880288
0.880247
0.880174
0.880005
0.879914
0.879912
0.879893
0.879779
0.879642
0.87968
0.879772
0.879793
0.879749
0.879602
0.879376
0.879139
0.879033
0.878963
0.878814
0.8787
0.878671
0.878625
0.878491
0.878441
0.87845
0.878489
0.87857
0.878675
0.878686
0.878678
0.878626
0.878481
0.878276
0.878151
0.878145
0.878188
0.87828
0.878351
0.878388
0.878436
0.878497
0.878609
0.878774
0.878982
0.879105
0.879106
0.879076
0.878924
0.878681
0.87855
0.878523
0.878524
0.878511
0.87845
0.878352
0.878213
0.878135
0.87813
0.878156
0.878235
0.878377
0.878572
0.87874
0.878797
0.878808
0.878773
0.878682
0.878531
0.878395
0.878318
0.878319
0.878379
0.878549
0.878728
0.878747
0.878729
0.878595
0.878427
0.878363
0.878391
0.878778
0.88163
0.892763
0.942028
0.88357
0.883623
0.883719
0.883863
0.883972