/*--------------------------------*- C++ -*----------------------------------*\
  =========                 |
  \\      /  F ield         | OpenFOAM: The Open Source CFD Toolbox
   \\    /   O peration     | Website:  https://openfoam.org
    \\  /    A nd           | Version:  7
     \\/     M anipulation  |
\*---------------------------------------------------------------------------*/
FoamFile
{
    version     2.0;
    format      ascii;
    class       volScalarField;
    location    "1.5";
    object      T;
}
// * * * * * * * * * * * * * * * * * * * * * * * * * * * * * * * * * * * * * //

dimensions      [0 0 0 1 0 0 0];

internalField   nonuniform List<scalar> 
90000
(
0.835619
0.847902
0.860459
0.872203
0.883088
0.893119
0.902568
0.911316
0.91965
0.92743
0.935045
0.942305
0.949436
0.956113
0.962772
0.968992
0.975192
0.981044
0.98698
0.992545
0.998212
1.00337
1.00851
1.01324
1.01811
1.02259
1.02696
1.03087
1.03474
1.03801
1.04144
1.04393
1.04639
1.04859
1.05028
1.05124
1.05249
1.05272
1.05243
1.05134
1.05028
1.04909
1.04709
1.04508
1.04135
1.03869
1.03682
1.03688
1.03715
1.0376
1.03802
1.03936
1.04085
1.04199
1.04211
1.04178
1.04122
1.0405
1.03944
1.03814
1.03685
1.03567
1.03483
1.0341
1.03418
1.03454
1.03527
1.03664
1.03759
1.03711
1.03554
1.03378
1.03217
1.03111
1.03063
1.03081
1.03154
1.03197
1.03132
1.02974
1.02824
1.02714
1.02723
1.02811
1.02893
1.02868
1.02829
1.02774
1.02762
1.02807
1.02847
1.02821
1.0276
1.02769
1.02859
1.02921
1.02943
1.02958
1.03018
1.03399
0.824218
0.824335
0.82466
0.825237
0.826143
0.827429
0.829054
0.831084
0.833534
0.836433
0.839697
0.843436
0.847524
0.851988
0.856833
0.862096
0.867625
0.873569
0.879746
0.886304
0.892927
0.899999
0.906792
0.914099
0.921151
0.928572
0.935723
0.942983
0.950122
0.957123
0.964077
0.970768
0.977359
0.983548
0.989602
0.995487
1.00063
1.00505
1.01011
1.01333
1.01652
1.01926
1.02131
1.02355
1.02931
1.03335
1.03733
1.03905
1.04046
1.04098
1.04074
1.04036
1.03938
1.03805
1.03687
1.03601
1.03515
1.03439
1.0337
1.03279
1.03185
1.03195
1.03247
1.03325
1.0341
1.03465
1.03433
1.03371
1.03294
1.03168
1.03075
1.02977
1.02929
1.02964
1.03019
1.03007
1.0296
1.02861
1.02775
1.02678
1.02612
1.02615
1.02643
1.02671
1.02645
1.02617
1.02598
1.02625
1.0266
1.02666
1.02652
1.0263
1.0264
1.02693
1.02737
1.02763
1.0281
1.02864
1.02944
1.03323
0.821136
0.820957
0.8208
0.820691
0.820528
0.820239
0.819913
0.819685
0.819573
0.819438
0.819217
0.819026
0.81883
0.818608
0.818422
0.818393
0.818426
0.818518
0.81878
0.819256
0.819925
0.820863
0.822085
0.823779
0.825908
0.828678
0.831937
0.836012
0.840755
0.846399
0.852882
0.860674
0.868663
0.878441
0.888353
0.899395
0.911203
0.923016
0.935177
0.948024
0.960428
0.971697
0.984335
0.995124
1.00291
1.00771
1.01267
1.01551
1.01803
1.01975
1.02111
1.02188
1.02279
1.02272
1.02247
1.02186
1.02087
1.02109
1.02209
1.02362
1.02548
1.02714
1.02837
1.02856
1.02834
1.0272
1.02562
1.02349
1.02228
1.02134
1.02159
1.02309
1.02495
1.02573
1.02531
1.02395
1.02204
1.02042
1.02025
1.02128
1.02224
1.02214
1.02166
1.02113
1.02068
1.02106
1.02206
1.02272
1.02267
1.02225
1.02221
1.02266
1.02334
1.02364
1.02373
1.02444
1.02536
1.02595
1.02661
1.03034
0.817137
0.817033
0.81692
0.816751
0.816519
0.816292
0.816091
0.81595
0.815835
0.815653
0.815425
0.81525
0.815048
0.814758
0.814504
0.814333
0.814183
0.814007
0.813705
0.813384
0.813123
0.812883
0.812623
0.812342
0.812068
0.811762
0.811497
0.81131
0.811241
0.811283
0.81144
0.811801
0.81243
0.813535
0.81519
0.817814
0.821104
0.826122
0.8322
0.840835
0.850529
0.863148
0.876329
0.892484
0.907607
0.923195
0.93775
0.950407
0.962819
0.971575
0.981554
0.986863
0.993356
0.996545
1.00035
1.00196
1.00581
1.00984
1.0148
1.01746
1.01969
1.02105
1.02127
1.02101
1.0199
1.01745
1.01509
1.01192
1.01201
1.01311
1.01516
1.0169
1.01853
1.0183
1.01734
1.01581
1.01315
1.01316
1.0142
1.01543
1.01666
1.01636
1.01526
1.01397
1.01414
1.01502
1.01601
1.01661
1.01652
1.0163
1.01641
1.01704
1.01805
1.01841
1.0187
1.01945
1.02045
1.0212
1.02194
1.02593
0.814478
0.814383
0.814271
0.814102
0.813819
0.813584
0.813499
0.813503
0.813508
0.813465
0.813299
0.813055
0.812774
0.812473
0.812243
0.812178
0.812156
0.812071
0.811846
0.811447
0.811174
0.811008
0.810856
0.810661
0.810417
0.810175
0.809888
0.809612
0.809461
0.809332
0.809121
0.808976
0.808897
0.808829
0.808737
0.808566
0.808415
0.808428
0.808558
0.808924
0.809582
0.810834
0.812677
0.816007
0.820461
0.828264
0.837508
0.851875
0.866639
0.885999
0.904085
0.923746
0.941786
0.95762
0.973592
0.9848
0.995846
1.0004
1.0047
1.00716
1.00923
1.01056
1.01066
1.00918
1.00524
1.00364
1.00453
1.00664
1.00919
1.01038
1.01135
1.01123
1.01045
1.00914
1.00734
1.00736
1.00822
1.00936
1.01038
1.01018
1.0099
1.00942
1.00914
1.00931
1.01014
1.01086
1.01089
1.01093
1.01102
1.01121
1.0116
1.01218
1.0129
1.01355
1.01409
1.01488
1.01569
1.01648
1.01749
1.02173
0.812511
0.812416
0.81231
0.812222
0.812133
0.812022
0.811928
0.811848
0.811758
0.811658
0.811547
0.811388
0.811231
0.811113
0.810988
0.810922
0.810829
0.810617
0.810461
0.810311
0.810142
0.809985
0.809815
0.809688
0.80957
0.809396
0.809198
0.809013
0.808877
0.808714
0.808464
0.808325
0.808314
0.80832
0.808318
0.808249
0.808115
0.808074
0.808063
0.808084
0.808145
0.808236
0.808293
0.808333
0.808416
0.808616
0.808992
0.809876
0.811404
0.81469
0.819424
0.828732
0.839946
0.85825
0.876558
0.900583
0.921382
0.940507
0.957078
0.967535
0.979075
0.983337
0.989729
0.991377
0.99552
1.00001
1.00607
1.00994
1.01103
1.01072
1.00991
1.00633
1.00207
1.00219
1.00254
1.0047
1.00748
1.00933
1.00901
1.0079
1.00611
1.00481
1.00521
1.0066
1.00818
1.00852
1.00826
1.00768
1.00773
1.00814
1.00899
1.01009
1.01007
1.0103
1.01098
1.01218
1.01287
1.01327
1.01422
1.01867
0.811861
0.811795
0.811747
0.811659
0.811569
0.8115
0.811442
0.811362
0.811261
0.811145
0.811028
0.810898
0.810821
0.81074
0.810681
0.810628
0.810465
0.810297
0.810207
0.810086
0.809892
0.809674
0.809603
0.809589
0.809533
0.809285
0.808951
0.80887
0.808825
0.808692
0.808421
0.808269
0.808264
0.808276
0.808298
0.808285
0.808172
0.80802
0.807977
0.807954
0.807954
0.807959
0.807984
0.808069
0.808161
0.808234
0.808242
0.808189
0.808064
0.807908
0.807764
0.807829
0.80811
0.809216
0.811461
0.817221
0.825563
0.841858
0.859662
0.885154
0.908489
0.933305
0.956321
0.973946
0.994184
1.00161
1.00699
1.01053
1.01097
1.00969
1.00474
0.997662
0.998178
1.00035
1.00435
1.00713
1.00819
1.00819
1.00707
1.00467
1.00328
1.00338
1.00483
1.00641
1.00702
1.00687
1.00618
1.00616
1.00644
1.00733
1.00788
1.00838
1.00864
1.00899
1.00973
1.01061
1.01122
1.01195
1.0129
1.01724
0.811972
0.811926
0.811853
0.81177
0.811764
0.81175
0.811698
0.811606
0.811482
0.811359
0.811253
0.811148
0.811076
0.811011
0.810882
0.810838
0.810853
0.810833
0.810642
0.810328
0.810048
0.809979
0.809987
0.810011
0.809992
0.80985
0.809441
0.809132
0.809041
0.808939
0.808852
0.808856
0.80886
0.808849
0.808814
0.808776
0.808689
0.808472
0.808326
0.808319
0.808314
0.808292
0.808231
0.808149
0.808134
0.808135
0.808139
0.808126
0.808071
0.807941
0.807732
0.807464
0.807149
0.806778
0.806467
0.806337
0.806381
0.806791
0.808045
0.812122
0.818951
0.834392
0.852424
0.881167
0.907227
0.934215
0.957852
0.970132
0.984915
0.988575
0.992243
0.996824
1.00605
1.00851
1.00996
1.00959
1.00863
1.00538
1.00295
1.00254
1.00356
1.00559
1.0069
1.00673
1.00603
1.00502
1.00514
1.00559
1.00698
1.00751
1.0078
1.00762
1.00794
1.00866
1.00964
1.01014
1.01059
1.01137
1.01265
1.01699
0.812437
0.812364
0.812334
0.812304
0.812246
0.812241
0.812228
0.812162
0.812025
0.811875
0.811763
0.811697
0.811637
0.811501
0.811426
0.81143
0.811426
0.811344
0.811028
0.810848
0.810791
0.810682
0.810532
0.810495
0.810465
0.810398
0.810149
0.809619
0.809485
0.809485
0.80952
0.809527
0.809501
0.809437
0.809338
0.809257
0.809185
0.809041
0.808799
0.808644
0.808575
0.808514
0.808401
0.808235
0.808196
0.808191
0.808181
0.808147
0.808053
0.807857
0.807559
0.807277
0.807013
0.806738
0.806476
0.806198
0.805799
0.805382
0.804907
0.804629
0.804684
0.805174
0.806463
0.810647
0.817661
0.835374
0.856619
0.888774
0.920007
0.948535
0.980018
0.99665
1.00771
1.00926
1.01057
1.00861
1.00294
0.99904
1.00048
1.00455
1.00761
1.00825
1.00774
1.00606
1.00367
1.00394
1.00475
1.00685
1.00783
1.0079
1.0075
1.0074
1.00787
1.0091
1.01001
1.00994
1.01032
1.01128
1.01267
1.01692
0.813105
0.813047
0.812847
0.812724
0.812718
0.81274
0.812764
0.812734
0.81251
0.812231
0.812202
0.81221
0.812193
0.812049
0.811951
0.811932
0.811891
0.811741
0.811409
0.811215
0.811201
0.811172
0.811058
0.810865
0.810764
0.810698
0.810461
0.810089
0.810049
0.810069
0.810085
0.810053
0.809953
0.80985
0.809774
0.809693
0.80958
0.809386
0.809109
0.808845
0.808674
0.808556
0.808425
0.808246
0.808117
0.808051
0.807998
0.807929
0.807747
0.807401
0.806988
0.806651
0.806481
0.806355
0.806217
0.805988
0.805621
0.805187
0.804644
0.804256
0.804156
0.804162
0.804151
0.803976
0.803766
0.804165
0.805673
0.81165
0.822117
0.846716
0.87543
0.912181
0.944615
0.963324
0.98416
0.987025
0.993061
0.998603
1.00673
1.00997
1.00957
1.00868
1.00504
1.003
1.00324
1.00447
1.00692
1.00838
1.00832
1.00744
1.00732
1.00772
1.00872
1.00951
1.00982
1.01002
1.01059
1.01204
1.01296
1.01666
0.813407
0.813363
0.813299
0.813229
0.813198
0.813157
0.813051
0.81283
0.812592
0.812541
0.812542
0.812556
0.812542
0.812396
0.812248
0.812182
0.812068
0.81181
0.811497
0.811397
0.811391
0.811375
0.811278
0.811067
0.810978
0.810913
0.810705
0.810434
0.810405
0.810423
0.810404
0.810273
0.810045
0.809938
0.809898
0.809846
0.809723
0.809466
0.809138
0.808876
0.808713
0.808587
0.808461
0.80832
0.808122
0.807897
0.807727
0.807516
0.807142
0.806755
0.806382
0.806069
0.805985
0.806003
0.805954
0.805732
0.805365
0.804989
0.804564
0.804144
0.803998
0.803997
0.803978
0.803867
0.803575
0.803083
0.802853
0.802895
0.803141
0.804408
0.807571
0.819751
0.83857
0.874836
0.911809
0.946632
0.984669
0.997951
1.00696
1.00891
1.00829
1.0024
0.999114
1.00066
1.0044
1.00756
1.00913
1.00871
1.00737
1.00667
1.00715
1.00867
1.00967
1.00935
1.00941
1.00994
1.0114
1.01259
1.01313
1.01636
0.813504
0.8135
0.813501
0.813546
0.813564
0.813495
0.813133
0.81286
0.812844
0.812865
0.812889
0.812867
0.812683
0.812474
0.812416
0.812328
0.812078
0.811798
0.811658
0.811534
0.811476
0.81146
0.811374
0.811087
0.810942
0.810918
0.810872
0.810659
0.810459
0.810417
0.810363
0.81017
0.809854
0.809796
0.809794
0.809772
0.809683
0.809462
0.809105
0.808735
0.808435
0.808262
0.808148
0.808006
0.807789
0.807564
0.807341
0.807009
0.806635
0.806259
0.805831
0.805648
0.805635
0.805693
0.805687
0.805534
0.805219
0.804859
0.804442
0.804072
0.803937
0.803937
0.803965
0.80392
0.803704
0.803223
0.80297
0.802934
0.802831
0.80264
0.802049
0.801807
0.802404
0.806828
0.816648
0.844819
0.878028
0.920295
0.95381
0.970405
0.985743
0.988172
1.0005
1.00425
1.00848
1.00969
1.00853
1.00591
1.00605
1.00675
1.00847
1.00956
1.00936
1.00894
1.0092
1.01041
1.01217
1.0128
1.01281
1.01594
0.81384
0.813825
0.813834
0.813863
0.813844
0.813616
0.813236
0.81316
0.813158
0.813182
0.813213
0.813201
0.813011
0.812661
0.812529
0.812353
0.812043
0.811883
0.81184
0.811768
0.811618
0.811477
0.811362
0.811174
0.81087
0.810732
0.810707
0.810655
0.810514
0.810293
0.810121
0.810001
0.809856
0.809654
0.809491
0.809387
0.80926
0.809011
0.808671
0.808381
0.8082
0.808091
0.807995
0.807852
0.807644
0.807394
0.807087
0.806656
0.806342
0.806057
0.805667
0.805479
0.805458
0.80552
0.80554
0.805442
0.805209
0.804916
0.804551
0.804209
0.804135
0.804144
0.804131
0.804032
0.803784
0.803329
0.803011
0.802904
0.802818
0.802654
0.802214
0.801474
0.800881
0.800672
0.80082
0.802245
0.806478
0.823837
0.850684
0.893655
0.93525
0.970181
0.997273
1.00207
1.00743
1.00651
1.00167
1.00227
1.00487
1.00841
1.00974
1.00936
1.008
1.00819
1.0094
1.01124
1.01215
1.01192
1.01232
1.01587
0.813771
0.813745
0.813746
0.813764
0.813755
0.813608
0.813261
0.813172
0.81317
0.813186
0.813243
0.813258
0.813152
0.812831
0.81257
0.812251
0.812013
0.81198
0.811971
0.81193
0.81181
0.811621
0.811406
0.8112
0.811
0.810793
0.810625
0.810563
0.810499
0.810372
0.810163
0.809878
0.809556
0.809231
0.808957
0.808706
0.808492
0.808301
0.808178
0.808136
0.808131
0.808116
0.808028
0.807864
0.807674
0.807408
0.806987
0.806513
0.806227
0.806023
0.805694
0.805432
0.805399
0.80545
0.805523
0.805481
0.805312
0.805098
0.804851
0.804565
0.804447
0.804429
0.804387
0.804247
0.803928
0.80345
0.803079
0.802936
0.802825
0.802618
0.802168
0.801484
0.800849
0.800568
0.800393
0.800175
0.799761
0.799995
0.80174
0.810669
0.830538
0.872248
0.914536
0.946972
0.980453
0.984752
0.995843
1.00174
1.00923
1.01006
1.00927
1.00677
1.00713
1.00824
1.01068
1.01187
1.01073
1.01086
1.01192
1.01637
0.813587
0.813506
0.813419
0.81333
0.813233
0.813159
0.813126
0.813075
0.813008
0.812933
0.812717
0.812541
0.812419
0.812223
0.811964
0.811642
0.811422
0.811399
0.811403
0.81139
0.811298
0.811119
0.810888
0.810686
0.810525
0.810394
0.810245
0.810075
0.809925
0.809805
0.809664
0.809466
0.809185
0.808871
0.808594
0.808269
0.808058
0.808024
0.808024
0.808036
0.808026
0.807988
0.807925
0.807847
0.807729
0.807488
0.807105
0.806722
0.80645
0.806196
0.805881
0.805661
0.805639
0.805666
0.805667
0.805588
0.805336
0.805165
0.805048
0.80489
0.804721
0.804636
0.80459
0.804467
0.804122
0.803621
0.803304
0.803158
0.803009
0.802708
0.802189
0.801586
0.801024
0.800646
0.800369
0.800068
0.799715
0.79938
0.799012
0.798617
0.799126
0.804369
0.81755
0.855248
0.900213
0.944465
0.990345
1.0007
1.00877
1.00821
1.0015
1.00312
1.00658
1.01019
1.01166
1.01053
1.00878
1.01003
1.01272
1.01687
0.812572
0.812525
0.812471
0.812412
0.812296
0.812162
0.812024
0.811906
0.811859
0.811781
0.811532
0.811354
0.811258
0.811163
0.811087
0.811014
0.810975
0.810975
0.810973
0.810932
0.810701
0.810598
0.810571
0.810512
0.810382
0.81021
0.810057
0.809926
0.809793
0.809652
0.809502
0.809328
0.809093
0.808746
0.808314
0.80807
0.808007
0.807989
0.807991
0.808006
0.80799
0.80794
0.80793
0.807892
0.807745
0.807463
0.807187
0.806972
0.806737
0.806437
0.806147
0.805921
0.805773
0.805734
0.805725
0.805643
0.805362
0.805161
0.80505
0.804921
0.804719
0.804647
0.804659
0.804581
0.80418
0.803646
0.803337
0.803171
0.802962
0.802595
0.802117
0.801645
0.80112
0.800584
0.800223
0.80001
0.799753
0.799469
0.799122
0.79871
0.798024
0.797394
0.797622
0.800715
0.810297
0.845517
0.889255
0.934131
0.975882
0.983701
0.990673
1.00495
1.01061
1.01168
1.00969
1.00712
1.00807
1.01214
1.01407
1.01694
0.811495
0.811489
0.811501
0.811525
0.811508
0.811258
0.810957
0.81093
0.810923
0.810836
0.810622
0.810537
0.810534
0.810539
0.810591
0.810718
0.810725
0.810726
0.810749
0.810747
0.810646
0.810592
0.810589
0.810566
0.810489
0.810375
0.810269
0.810145
0.809976
0.809773
0.809597
0.809435
0.809178
0.808872
0.808541
0.808277
0.8082
0.808192
0.808219
0.808218
0.808194
0.808095
0.808014
0.80793
0.807756
0.807498
0.807301
0.807137
0.806917
0.806597
0.806319
0.806152
0.80594
0.805753
0.805732
0.805683
0.805402
0.805173
0.805088
0.805014
0.804807
0.804649
0.804622
0.804491
0.804039
0.803608
0.803367
0.803149
0.802809
0.802294
0.801885
0.801577
0.801135
0.800492
0.80017
0.800031
0.799808
0.799507
0.799129
0.798611
0.79798
0.797406
0.796959
0.79695
0.797192
0.799459
0.807152
0.838626
0.881924
0.935107
0.982037
1.00271
1.00932
1.00643
1.00181
1.0035
1.00978
1.01401
1.01431
1.0157
0.811155
0.811071
0.810989
0.810936
0.810844
0.810605
0.810385
0.810314
0.810296
0.810277
0.810267
0.810266
0.810271
0.810275
0.810299
0.810472
0.810553
0.810572
0.810644
0.810738
0.810741
0.8107
0.810579
0.810504
0.810505
0.810525
0.810516
0.810414
0.81018
0.809982
0.809887
0.809789
0.809607
0.809309
0.80897
0.808712
0.808609
0.808559
0.808519
0.808489
0.808407
0.808213
0.808045
0.807933
0.80773
0.807533
0.807434
0.807234
0.8068
0.806372
0.806224
0.806178
0.806044
0.805755
0.805709
0.805771
0.805699
0.805321
0.805069
0.804966
0.804719
0.804483
0.804432
0.804232
0.803786
0.803524
0.803298
0.802894
0.802298
0.801779
0.801671
0.801592
0.801315
0.800707
0.800197
0.799975
0.799761
0.799457
0.799025
0.798466
0.797837
0.797246
0.796878
0.796723
0.796518
0.796603
0.796936
0.798817
0.80597
0.834701
0.88406
0.931499
0.969748
0.982005
0.999391
1.00496
1.01338
1.0148
1.01223
1.01455
0.811538
0.811457
0.811373
0.811207
0.811063
0.810986
0.81091
0.810817
0.810732
0.810688
0.810685
0.810686
0.810671
0.810622
0.810612
0.81063
0.810673
0.810717
0.81076
0.810806
0.810814
0.810792
0.810623
0.810451
0.81045
0.810484
0.810512
0.810416
0.810122
0.809994
0.809991
0.809991
0.809887
0.809555
0.80924
0.80909
0.808956
0.808839
0.808802
0.808798
0.808738
0.808439
0.808204
0.808164
0.808018
0.807773
0.807643
0.807366
0.806854
0.80647
0.806413
0.806397
0.806283
0.805861
0.805765
0.805849
0.805812
0.805393
0.80505
0.804944
0.804678
0.804294
0.804115
0.803847
0.803555
0.803439
0.803269
0.802739
0.801846
0.801594
0.801597
0.801593
0.801397
0.800858
0.800286
0.799941
0.79969
0.799366
0.798905
0.798319
0.797664
0.797019
0.796566
0.796137
0.796137
0.7963
0.796696
0.797231
0.797617
0.799154
0.807645
0.833472
0.883807
0.943461
0.994854
1.00414
1.01264
1.00808
1.00738
1.01426
0.811213
0.811091
0.81098
0.810947
0.810936
0.810906
0.810881
0.810875
0.810865
0.810847
0.810817
0.810761
0.810666
0.810551
0.810431
0.810258
0.810127
0.810068
0.809991
0.809961
0.809978
0.81002
0.809987
0.809906
0.809895
0.809965
0.810102
0.810059
0.809854
0.809691
0.809669
0.809681
0.809562
0.809135
0.808995
0.808979
0.808891
0.808868
0.808951
0.809033
0.80903
0.808898
0.808585
0.808086
0.807675
0.807643
0.807681
0.807472
0.806723
0.806201
0.8062
0.806333
0.806319
0.805943
0.805632
0.805667
0.805617
0.805218
0.804919
0.804597
0.803944
0.80356
0.803452
0.803319
0.803312
0.803349
0.803271
0.802755
0.801935
0.801681
0.801622
0.801568
0.801375
0.800899
0.800341
0.799923
0.799602
0.799231
0.798686
0.797953
0.797111
0.796295
0.79572
0.795665
0.795807
0.796164
0.796915
0.797435
0.79771
0.797768
0.797914
0.799294
0.808261
0.84182
0.892196
0.944659
0.983809
0.990251
1.00536
1.01696
0.809691
0.809688
0.809763
0.809822
0.809799
0.809558
0.809482
0.809549
0.809534
0.809455
0.809468
0.809467
0.809386
0.809245
0.8091
0.808985
0.808985
0.809009
0.809001
0.809007
0.809087
0.809108
0.809024
0.808918
0.808933
0.809108
0.809178
0.809034
0.808837
0.808777
0.808846
0.808921
0.808757
0.808503
0.808502
0.808481
0.808395
0.808517
0.80883
0.80897
0.809017
0.809012
0.808914
0.808375
0.807455
0.807205
0.807217
0.807029
0.806204
0.805346
0.805242
0.805417
0.805441
0.80519
0.805045
0.805121
0.805079
0.80493
0.804781
0.804404
0.803609
0.80313
0.802959
0.80289
0.803007
0.803279
0.803268
0.802916
0.802288
0.801911
0.801706
0.801543
0.801328
0.80089
0.800343
0.799881
0.799231
0.798501
0.797707
0.796913
0.796101
0.795436
0.795371
0.79546
0.795762
0.796325
0.797092
0.797492
0.797664
0.797471
0.79734
0.79747
0.797971
0.800386
0.811116
0.85233
0.904348
0.963403
1.00082
1.01609
0.807645
0.807632
0.807629
0.807825
0.80823
0.808306
0.808157
0.807448
0.807062
0.807108
0.807338
0.807542
0.807558
0.807539
0.807465
0.807328
0.807252
0.807253
0.807216
0.807176
0.807165
0.807038
0.806696
0.806563
0.806588
0.80666
0.806643
0.806529
0.806449
0.806439
0.806507
0.806601
0.80664
0.806664
0.806641
0.806502
0.80639
0.80647
0.806892
0.807458
0.807933
0.808091
0.807927
0.807439
0.806795
0.806274
0.805798
0.805161
0.804463
0.803982
0.803706
0.803612
0.803477
0.803335
0.803375
0.803468
0.803485
0.803584
0.803846
0.803957
0.803722
0.8031
0.802657
0.802586
0.802798
0.803242
0.803234
0.802861
0.802246
0.801918
0.801737
0.801361
0.800671
0.800004
0.799437
0.798745
0.797909
0.797136
0.796489
0.795915
0.795345
0.795092
0.795177
0.795351
0.795814
0.796472
0.797071
0.797422
0.797266
0.796956
0.797058
0.797433
0.798187
0.798897
0.799669
0.802999
0.817248
0.866304
0.915468
0.98032
0.80834
0.808337
0.808366
0.808595
0.808702
0.808598
0.807835
0.807547
0.807544
0.807574
0.807664
0.807641
0.807519
0.807296
0.80712
0.807083
0.807098
0.807212
0.807352
0.807351
0.80711
0.806125
0.805282
0.805107
0.80504
0.80503
0.805183
0.805471
0.805493
0.805498
0.80561
0.805763
0.805762
0.805696
0.805551
0.80545
0.805237
0.804621
0.804383
0.804377
0.804349
0.804269
0.80395
0.803736
0.803834
0.804187
0.804219
0.803963
0.803594
0.803225
0.802289
0.801793
0.801785
0.801882
0.802034
0.801984
0.801873
0.801948
0.802258
0.802662
0.802868
0.80276
0.80253
0.802327
0.802078
0.801678
0.801279
0.800899
0.800526
0.800226
0.799838
0.799128
0.798062
0.797399
0.797218
0.796987
0.796719
0.796338
0.796024
0.795562
0.795486
0.795445
0.795519
0.795679
0.795893
0.796566
0.796566
0.796439
0.796262
0.796386
0.796968
0.797665
0.798448
0.799047
0.799679
0.800163
0.800824
0.806192
0.824754
0.916623
0.807998
0.808029
0.807974
0.807959
0.808001
0.808031
0.808085
0.808423
0.808515
0.808133
0.80713
0.806502
0.805905
0.805317
0.805193
0.805147
0.805167
0.805379
0.805478
0.805269
0.804335
0.802499
0.801605
0.801573
0.801718
0.80209
0.802554
0.803142
0.803798
0.804224
0.80453
0.804967
0.80542
0.805616
0.805604
0.80555
0.805318
0.804395
0.802971
0.802686
0.802541
0.80202
0.801324
0.801144
0.801203
0.801631
0.802922
0.803833
0.803938
0.803654
0.802319
0.800899
0.800509
0.80051
0.80059
0.800702
0.800975
0.80146
0.801628
0.801489
0.801122
0.800876
0.800702
0.800462
0.799996
0.7992
0.798283
0.797626
0.797254
0.797114
0.796974
0.796604
0.795616
0.795082
0.794987
0.794875
0.794881
0.794914
0.79495
0.794942
0.794961
0.795076
0.795159
0.795498
0.795449
0.795114
0.794828
0.794932
0.795357
0.796142
0.797129
0.797825
0.798398
0.798936
0.799472
0.799409
0.799816
0.800988
0.80299
0.83374
0.809271
0.809304
0.809175
0.808482
0.808333
0.808319
0.808532
0.808923
0.808925
0.808788
0.808149
0.806745
0.805673
0.805379
0.805364
0.80534
0.805371
0.805821
0.806043
0.805685
0.804462
0.804242
0.804314
0.80407
0.803915
0.803953
0.804162
0.804684
0.805471
0.806306
0.806897
0.807372
0.808161
0.809312
0.809811
0.809787
0.809237
0.807551
0.805783
0.805242
0.805133
0.804849
0.804156
0.803547
0.803401
0.803471
0.804018
0.805265
0.806462
0.80659
0.806246
0.805451
0.804621
0.803974
0.80334
0.803078
0.803001
0.802876
0.802544
0.801494
0.800444
0.800301
0.800267
0.800037
0.799533
0.798734
0.797718
0.797025
0.796652
0.796391
0.796159
0.795826
0.795277
0.794393
0.793932
0.793721
0.793568
0.793541
0.793373
0.793114
0.792816
0.792409
0.792218
0.79204
0.791906
0.792063
0.792463
0.793239
0.794333
0.795829
0.796792
0.797555
0.797638
0.797661
0.79785
0.798313
0.799385
0.801579
0.803053
0.808729
0.818364
0.818408
0.818395
0.818344
0.81837
0.818587
0.818642
0.818617
0.81874
0.818976
0.819281
0.819713
0.819758
0.81929
0.817895
0.817205
0.817278
0.818334
0.818999
0.818874
0.818021
0.817326
0.816657
0.815402
0.814127
0.813681
0.813566
0.81341
0.81343
0.813803
0.814046
0.813831
0.813606
0.813666
0.814433
0.815264
0.815365
0.815087
0.814697
0.814767
0.814764
0.814379
0.813073
0.811281
0.809927
0.808986
0.808216
0.808066
0.808183
0.808375
0.808451
0.808202
0.807388
0.806238
0.805026
0.804254
0.803794
0.80342
0.802917
0.801602
0.800345
0.800089
0.799746
0.799553
0.799363
0.798821
0.797781
0.797088
0.79684
0.79657
0.796539
0.796844
0.797059
0.796776
0.796323
0.795871
0.79516
0.794677
0.794224
0.793559
0.792312
0.791348
0.790696
0.790103
0.790222
0.790497
0.790899
0.791677
0.79286
0.7939
0.794186
0.794437
0.794832
0.795425
0.796316
0.797726
0.799495
0.801769
0.803189
0.805678
0.827992
0.827194
0.827055
0.826958
0.826951
0.827476
0.828592
0.828791
0.828806
0.829199
0.831413
0.833158
0.832949
0.831167
0.829847
0.829781
0.830288
0.831272
0.831871
0.832145
0.831911
0.831162
0.831239
0.83125
0.830345
0.8279
0.825665
0.824369
0.82373
0.823664
0.823608
0.823255
0.821749
0.819507
0.819108
0.819253
0.82022
0.820611
0.820217
0.820025
0.820223
0.820126
0.819464
0.819417
0.819636
0.818855
0.815875
0.814055
0.813877
0.813863
0.813651
0.812899
0.811311
0.810292
0.810076
0.809443
0.808896
0.809132
0.810027
0.810233
0.80956
0.80737
0.805468
0.805417
0.806095
0.806852
0.806783
0.806346
0.805451
0.804203
0.803516
0.803349
0.803015
0.802208
0.800932
0.799275
0.79742
0.795694
0.794461
0.793241
0.791922
0.79112
0.790556
0.790164
0.790351
0.791002
0.792174
0.793454
0.794199
0.793992
0.793301
0.793187
0.793445
0.794026
0.795053
0.796629
0.798792
0.800646
0.801937
0.804143
0.848164
0.847605
0.847557
0.847554
0.848022
0.848929
0.849119
0.848921
0.848055
0.847541
0.847462
0.84741
0.847282
0.847184
0.847452
0.847717
0.847625
0.847228
0.847204
0.847766
0.848233
0.848241
0.848132
0.847247
0.845267
0.844544
0.844676
0.845115
0.845109
0.844638
0.843814
0.843735
0.843672
0.843079
0.841235
0.840033
0.839951
0.839681
0.839313
0.839162
0.838675
0.837235
0.836473
0.836748
0.836924
0.83637
0.834658
0.832473
0.83167
0.831719
0.832166
0.832271
0.831207
0.829488
0.828917
0.828125
0.826144
0.824365
0.824081
0.823994
0.82359
0.822425
0.820888
0.819374
0.817864
0.816214
0.814981
0.813919
0.812543
0.810764
0.808905
0.807307
0.806153
0.804832
0.802794
0.800702
0.799196
0.797699
0.796247
0.79588
0.795604
0.794952
0.795031
0.795344
0.796063
0.796274
0.796214
0.795729
0.794623
0.793578
0.79301
0.793127
0.793567
0.794962
0.79702
0.798802
0.799644
0.799875
0.800497
0.802518
0.871297
0.871476
0.871718
0.872195
0.872725
0.872801
0.87217
0.86985
0.868855
0.868878
0.869198
0.87002
0.870494
0.870594
0.870586
0.870197
0.869936
0.869644
0.868957
0.867964
0.866939
0.866737
0.867111
0.867213
0.865993
0.863988
0.863317
0.862966
0.862232
0.861035
0.859922
0.858838
0.858261
0.858284
0.858422
0.858073
0.856966
0.856768
0.857332
0.857657
0.857075
0.855714
0.855642
0.855681
0.855164
0.853593
0.8515
0.849213
0.846398
0.844708
0.844741
0.845025
0.844587
0.843502
0.843438
0.843629
0.84265
0.838836
0.835773
0.83433
0.833362
0.833204
0.833056
0.832602
0.83146
0.82914
0.825653
0.823526
0.823452
0.823296
0.822521
0.820692
0.818544
0.817981
0.817247
0.816464
0.815625
0.814169
0.812309
0.810983
0.810039
0.808666
0.806868
0.805177
0.803203
0.801256
0.799276
0.797248
0.795678
0.795007
0.795743
0.796996
0.798744
0.799745
0.800182
0.800395
0.799396
0.7995
0.800316
0.802392
0.893279
0.893431
0.893796
0.894342
0.894504
0.894182
0.893089
0.892274
0.890817
0.889522
0.889052
0.888967
0.889154
0.889573
0.889623
0.889299
0.888749
0.888395
0.88799
0.887493
0.887342
0.887468
0.887562
0.887255
0.886689
0.886652
0.886532
0.886056
0.885616
0.885244
0.884613
0.883887
0.883343
0.882915
0.882344
0.880781
0.878779
0.87827
0.87792
0.877315
0.876712
0.876074
0.874548
0.873152
0.873028
0.873208
0.873077
0.872295
0.870151
0.868213
0.867484
0.866947
0.866138
0.864037
0.862762
0.862664
0.861892
0.859189
0.85773
0.85738
0.856318
0.854637
0.853478
0.852567
0.851627
0.850212
0.847835
0.84511
0.843346
0.842408
0.841305
0.839396
0.836581
0.834164
0.832321
0.830058
0.827575
0.824653
0.821939
0.819468
0.817288
0.815379
0.812858
0.810611
0.808612
0.806668
0.806765
0.80747
0.808718
0.808353
0.807676
0.806357
0.805151
0.803491
0.80181
0.800401
0.799801
0.800144
0.801501
0.804301
0.915532
0.915396
0.915485
0.915689
0.915666
0.91505
0.91431
0.914284
0.914396
0.914263
0.913327
0.912306
0.911775
0.91165
0.911608
0.911174
0.910803
0.910837
0.910582
0.909823
0.909572
0.90931
0.908629
0.907669
0.907165
0.90669
0.905636
0.905168
0.905172
0.90505
0.904362
0.903303
0.902763
0.902478
0.902076
0.901318
0.900581
0.89993
0.899167
0.898487
0.897995
0.897475
0.896489
0.895097
0.893575
0.89209
0.890834
0.889648
0.887487
0.885892
0.885763
0.885639
0.885056
0.883555
0.88217
0.880995
0.878666
0.875929
0.875327
0.8748
0.873045
0.871202
0.870232
0.868667
0.86622
0.863896
0.862515
0.861537
0.859685
0.856865
0.854415
0.852766
0.851314
0.849308
0.847051
0.84476
0.842403
0.839825
0.837514
0.835909
0.834202
0.832615
0.831168
0.829444
0.828217
0.826439
0.824735
0.823034
0.821148
0.818583
0.815223
0.811727
0.808872
0.806756
0.805594
0.806221
0.807675
0.809856
0.810939
0.810435
0.937948
0.937954
0.93792
0.937223
0.935874
0.935571
0.935662
0.936122
0.936205
0.935784
0.93534
0.934917
0.933874
0.933343
0.933129
0.933007
0.93282
0.932049
0.931593
0.931664
0.931529
0.930902
0.929742
0.929127
0.929131
0.929115
0.928858
0.927842
0.926582
0.926235
0.926044
0.925484
0.924292
0.923579
0.923109
0.922349
0.921328
0.920281
0.919408
0.918066
0.916723
0.916495
0.916338
0.915899
0.914846
0.913401
0.912145
0.911253
0.910256
0.908702
0.907276
0.905997
0.903529
0.901819
0.90143
0.900858
0.899704
0.897984
0.896593
0.894833
0.891999
0.89113
0.890766
0.889692
0.887722
0.884494
0.881904
0.881002
0.880391
0.878878
0.875999
0.873301
0.871583
0.869904
0.867435
0.864626
0.86232
0.859848
0.856885
0.854358
0.851594
0.848887
0.84628
0.843199
0.84039
0.837319
0.83387
0.831568
0.828848
0.827208
0.824472
0.82427
0.824571
0.824406
0.82328
0.822795
0.821437
0.82004
0.817418
0.813652
0.960751
0.96065
0.960649
0.96041
0.959666
0.95935
0.959366
0.959306
0.958694
0.95797
0.957953
0.957872
0.957255
0.956856
0.956472
0.955454
0.954953
0.954812
0.954701
0.954269
0.953151
0.952846
0.952744
0.952444
0.951464
0.950406
0.950246
0.950186
0.949842
0.949048
0.948116
0.947288
0.946422
0.945845
0.945411
0.944894
0.944048
0.94298
0.941915
0.940894
0.939932
0.938978
0.937844
0.936527
0.935378
0.934309
0.933106
0.931873
0.930725
0.929435
0.928032
0.926993
0.925904
0.924536
0.922912
0.921421
0.919211
0.916908
0.915751
0.914825
0.913301
0.911143
0.909427
0.907418
0.905492
0.903697
0.901778
0.899012
0.896336
0.894752
0.893267
0.890838
0.887504
0.884479
0.882197
0.879435
0.876602
0.874005
0.871069
0.868476
0.866175
0.86333
0.860741
0.858116
0.855607
0.85401
0.85193
0.850618
0.848932
0.847622
0.846036
0.843629
0.841364
0.838715
0.835023
0.831669
0.828683
0.825031
0.822447
0.820939
0.984672
0.98455
0.984562
0.984379
0.983301
0.982507
0.982522
0.982641
0.982555
0.982243
0.981502
0.980762
0.980773
0.980816
0.980308
0.979504
0.978925
0.978131
0.97783
0.977685
0.977386
0.976714
0.97596
0.975435
0.974991
0.974239
0.973323
0.972808
0.972446
0.971814
0.970848
0.969871
0.969015
0.968283
0.967675
0.967007
0.966178
0.965224
0.964094
0.962796
0.961781
0.960927
0.960186
0.958579
0.956793
0.955887
0.955152
0.953973
0.952436
0.950935
0.949404
0.947653
0.94604
0.944623