/*--------------------------------*- C++ -*----------------------------------*\
  =========                 |
  \\      /  F ield         | OpenFOAM: The Open Source CFD Toolbox
   \\    /   O peration     | Website:  https://openfoam.org
    \\  /    A nd           | Version:  7
     \\/     M anipulation  |
\*---------------------------------------------------------------------------*/
FoamFile
{
    version     2.0;
    format      ascii;
    class       volScalarField;
    location    "9.5";
    object      rho;
}
// * * * * * * * * * * * * * * * * * * * * * * * * * * * * * * * * * * * * * //

dimensions      [1 -3 0 0 0 0 0];

internalField   nonuniform List<scalar> 
90000
(
0.407931
0.452901
0.497145
0.537368
0.569514
0.607309
0.652203
0.69443
0.740248
0.78957
0.838694
0.883869
0.928891
0.966629
0.998908
1.02198
1.0401
1.04797
1.05594
1.05456
1.05166
1.04624
1.04193
1.03928
1.0398
1.0421
1.04394
1.04588
1.04914
1.0519
1.05251
1.05069
1.04919
1.04999
1.05187
1.05465
1.05757
1.06052
1.06414
1.06728
1.07001
1.07207
1.07266
1.07209
1.07095
1.07087
1.07231
1.07417
1.07545
1.07646
1.07776
1.07982
1.08196
1.08191
1.0813
1.08035
1.08071
1.08161
1.08264
1.08326
1.08392
1.08477
1.08514
1.08486
1.08407
1.08413
1.08503
1.08673
1.088
1.08822
1.08802
1.08829
1.08825
1.08764
1.08645
1.08649
1.08683
1.08803
1.08887
1.08845
1.08844
1.08887
1.08883
1.08832
1.08811
1.08859
1.08935
1.08969
1.08983
1.08999
1.09097
1.09218
1.09203
1.09138
1.09073
1.09048
1.09107
1.09202
1.09255
1.09216
0.360979
0.361017
0.361061
0.361112
0.361253
0.361947
0.364149
0.368613
0.376266
0.389396
0.408777
0.436634
0.472283
0.519184
0.573256
0.635098
0.699777
0.763302
0.822496
0.873933
0.917869
0.950361
0.978957
1.00013
1.0198
1.03291
1.04552
1.04907
1.04948
1.04729
1.04009
1.03591
1.03355
1.0343
1.03528
1.03556
1.03711
1.04099
1.04582
1.05002
1.05378
1.05575
1.05628
1.05694
1.05836
1.06065
1.06285
1.06321
1.06314
1.0635
1.06479
1.06576
1.06686
1.06742
1.06829
1.06955
1.07107
1.0726
1.07345
1.07389
1.07428
1.07508
1.07585
1.0763
1.07667
1.07745
1.079
1.08105
1.08243
1.08278
1.08279
1.08323
1.08405
1.08446
1.08425
1.08553
1.08679
1.089
1.0884
1.08694
1.08644
1.08699
1.08718
1.08697
1.08708
1.0877
1.08853
1.08895
1.08927
1.08991
1.09114
1.09285
1.0948
1.09502
1.09496
1.09492
1.09467
1.0939
1.09403
1.09525
0.36222
0.36234
0.362475
0.362629
0.362784
0.362998
0.363079
0.363159
0.363254
0.363375
0.363529
0.363726
0.363972
0.364216
0.365085
0.368535
0.376428
0.392339
0.416724
0.453821
0.500781
0.560891
0.62671
0.698405
0.769421
0.836089
0.897252
0.949067
0.98713
1.01866
1.03206
1.0443
1.04428
1.04395
1.03929
1.03924
1.04216
1.0435
1.04418
1.0464
1.04834
1.04726
1.04698
1.04839
1.05209
1.05633
1.0589
1.05973
1.06034
1.06166
1.06345
1.06419
1.06358
1.06311
1.06368
1.06537
1.06754
1.06957
1.07079
1.07147
1.07208
1.0728
1.07315
1.07351
1.0743
1.07592
1.07832
1.08052
1.08115
1.08099
1.08116
1.08178
1.08289
1.08411
1.08485
1.08661
1.08963
1.09059
1.08875
1.08723
1.08688
1.08746
1.08764
1.08768
1.08804
1.08927
1.09006
1.09004
1.09051
1.09228
1.0943
1.09639
1.09764
1.09859
1.09936
1.0999
1.10029
1.09995
1.09939
1.10048
0.364027
0.364205
0.364406
0.364616
0.364856
0.365098
0.365372
0.36567
0.36601
0.366373
0.366782
0.3672
0.367658
0.368121
0.368587
0.369178
0.369384
0.369582
0.369858
0.370197
0.370622
0.371379
0.374465
0.383905
0.402215
0.435162
0.481944
0.549039
0.628583
0.720948
0.808741
0.8888
0.949998
0.994785
1.02803
1.04192
1.05393
1.05286
1.05175
1.05391
1.05386
1.05246
1.0528
1.06043
1.0659
1.06696
1.06465
1.06494
1.06684
1.06988
1.0706
1.06936
1.06726
1.06745
1.06925
1.07183
1.07357
1.07493
1.07576
1.07608
1.07661
1.07722
1.07732
1.07787
1.07952
1.08242
1.08524
1.08647
1.08527
1.08337
1.08314
1.08409
1.08647
1.08948
1.09221
1.09551
1.09698
1.09644
1.09392
1.09257
1.09274
1.09357
1.09385
1.09432
1.09507
1.09578
1.09613
1.09652
1.09728
1.09843
1.09993
1.10142
1.10335
1.10535
1.10694
1.10776
1.10801
1.10817
1.10766
1.10871
0.367231
0.367493
0.367773
0.368072
0.368382
0.368711
0.369054
0.369415
0.369788
0.370177
0.370579
0.370994
0.371428
0.371867
0.37234
0.372808
0.373306
0.373882
0.374497
0.375164
0.375858
0.376527
0.37739
0.377698
0.378057
0.378439
0.379021
0.379483
0.382048
0.391869
0.41833
0.462791
0.535612
0.623841
0.731626
0.825403
0.912376
0.973083
1.01484
1.03847
1.05339
1.06014
1.06667
1.08372
1.08531
1.08056
1.07364
1.07881
1.08351
1.084
1.07936
1.07745
1.07887
1.08257
1.08516
1.08595
1.08582
1.08639
1.08714
1.08745
1.08833
1.08911
1.08969
1.09071
1.09226
1.09461
1.09596
1.09521
1.09328
1.09305
1.0944
1.09603
1.09731
1.09855
1.10049
1.1033
1.10361
1.10247
1.10088
1.10162
1.103
1.10393
1.10416
1.10486
1.1059
1.10622
1.1059
1.10605
1.10728
1.10934
1.11126
1.1127
1.11409
1.11601
1.11797
1.1189
1.11868
1.11799
1.11755
1.11851
0.371286
0.37157
0.371873
0.372192
0.372521
0.372866
0.373221
0.373592
0.373972
0.374374
0.374781
0.375215
0.37565
0.376118
0.376586
0.377091
0.377592
0.378133
0.378653
0.379224
0.379753
0.380354
0.38089
0.3815
0.382148
0.382863
0.383597
0.38433
0.385165
0.385546
0.385921
0.386468
0.386968
0.388614
0.39877
0.428402
0.481383
0.567931
0.673242
0.784799
0.886414
0.968263
1.0254
1.05615
1.07334
1.08523
1.09205
1.1091
1.11605
1.11064
1.10113
1.10413
1.10753
1.1072
1.10332
1.10336
1.10496
1.10754
1.10847
1.10885
1.10982
1.11013
1.1093
1.10924
1.11013
1.1122
1.11299
1.11198
1.11074
1.11132
1.11317
1.11498
1.11469
1.11398
1.11465
1.11632
1.117
1.11572
1.11495
1.11641
1.11789
1.11829
1.11842
1.1192
1.12038
1.12038
1.11954
1.11928
1.12004
1.12153
1.1228
1.12371
1.12481
1.12658
1.12863
1.12968
1.12913
1.12779
1.12686
1.12742
0.37562
0.375891
0.376187
0.376488
0.376808
0.377132
0.377476
0.377822
0.37819
0.37856
0.378955
0.379347
0.379767
0.380184
0.380632
0.381077
0.381552
0.382022
0.382523
0.383024
0.383558
0.384094
0.38465
0.38522
0.385797
0.386384
0.386959
0.387554
0.388128
0.388733
0.389426
0.390122
0.390849
0.391586
0.391971
0.392295
0.392834
0.393177
0.396814
0.414831
0.458767
0.536668
0.646348
0.764831
0.878886
0.976188
1.04789
1.08509
1.10187
1.11203
1.11818
1.13335
1.13982
1.13463
1.12534
1.12472
1.12488
1.12379
1.12248
1.12346
1.12661
1.12941
1.12971
1.12942
1.12982
1.12951
1.12813
1.12656
1.12676
1.12893
1.13177
1.1324
1.13093
1.12968
1.12991
1.13052
1.13035
1.12869
1.12873
1.13128
1.13309
1.13316
1.13332
1.13412
1.13473
1.13393
1.13275
1.13252
1.13292
1.13368
1.1337
1.13355
1.13378
1.13492
1.13696
1.13808
1.13705
1.13522
1.1341
1.13429
0.379883
0.380142
0.380413
0.3807
0.380991
0.381296
0.381605
0.381928
0.382255
0.382598
0.382944
0.383306
0.383672
0.384055
0.384445
0.384852
0.385265
0.38569
0.386124
0.386571
0.387027
0.387495
0.387972
0.388454
0.388944
0.38944
0.389947
0.390464
0.390992
0.391541
0.392091
0.392645
0.393194
0.393714
0.394234
0.3948
0.395344
0.395828
0.396342
0.396493
0.396769
0.397006
0.398467
0.41107
0.452305
0.529236
0.65022
0.782713
0.906661
1.01149
1.0821
1.12064
1.13072
1.13745
1.14008
1.14908
1.14948
1.14592
1.14051
1.13807
1.13869
1.1402
1.14081
1.14186
1.14422
1.14356
1.14109
1.13957
1.14125
1.14534
1.14749
1.14641
1.14387
1.14162
1.14061
1.13965
1.13863
1.13783
1.13906
1.14239
1.1437
1.14336
1.14371
1.14492
1.14498
1.14383
1.14184
1.14139
1.14157
1.14176
1.14111
1.14044
1.14025
1.14079
1.14221
1.14281
1.14196
1.14064
1.13976
1.13962
0.384012
0.384235
0.384474
0.384721
0.384977
0.385238
0.385508
0.385786
0.386074
0.386369
0.386674
0.386987
0.387309
0.387641
0.387984
0.388336
0.388699
0.38907
0.389451
0.389841
0.390239
0.390646
0.391059
0.391477
0.3919
0.392328
0.392761
0.393201
0.393645
0.394096
0.394542
0.395004
0.39545
0.395905
0.396321
0.396746
0.397083
0.397454
0.397722
0.398049
0.398412
0.398765
0.399183
0.399332
0.399562
0.399735
0.400985
0.415183
0.465362
0.559019
0.701142
0.851671
0.970772
1.06928
1.12061
1.14887
1.14829
1.15134
1.1507
1.15291
1.15271
1.15064
1.14796
1.14798
1.14943
1.14779
1.14657
1.14759
1.15201
1.15515
1.15433
1.15179
1.14938
1.14753
1.14563
1.14301
1.14168
1.14207
1.14572
1.14893
1.14893
1.14798
1.14805
1.14867
1.1483
1.14693
1.14572
1.14561
1.14523
1.14462
1.14373
1.14299
1.14285
1.14318
1.14398
1.14457
1.14371
1.14267
1.14216
1.14223
0.38764
0.387833
0.388039
0.388253
0.388472
0.388696
0.388925
0.389161
0.389406
0.389659
0.389922
0.390192
0.390471
0.390759
0.391056
0.391362
0.391674
0.391994
0.392322
0.392657
0.392999
0.393345
0.393694
0.394044
0.394399
0.394752
0.395113
0.395465
0.395832
0.396183
0.396557
0.396908
0.397277
0.397605
0.397937
0.398222
0.398497
0.398742
0.398983
0.39924
0.399481
0.399754
0.399984
0.400252
0.400557
0.400856
0.401232
0.401399
0.401635
0.401799
0.406404
0.433631
0.514152
0.646802
0.810737
0.968506
1.05519
1.12779
1.14323
1.15604
1.15531
1.15476
1.15272
1.15331
1.15339
1.15049
1.15011
1.15408
1.15947
1.15922
1.15687
1.15364
1.15255
1.15209
1.15054
1.14704
1.14482
1.14617
1.15074
1.15269
1.15141
1.15045
1.15068
1.15057
1.14949
1.14821
1.14811
1.14869
1.14811
1.14658
1.14486
1.14394
1.14385
1.14414
1.1447
1.14457
1.14418
1.14342
1.14343
1.14354
0.391
0.391162
0.391334
0.391511
0.391693
0.39188
0.392073
0.392274
0.392481
0.392695
0.392918
0.39315
0.393389
0.393635
0.393887
0.394147
0.394414
0.394687
0.394963
0.395247
0.395527
0.395814
0.396092
0.396374
0.39665
0.396934
0.397208
0.397489
0.397761
0.398037
0.398304
0.398576
0.398834
0.399083
0.399305
0.399514
0.399702
0.39987
0.400048
0.400226
0.400438
0.400661
0.400898
0.401156
0.401407
0.401677
0.401958
0.402227
0.402519
0.402704
0.402796
0.402883
0.403018
0.403074
0.424852
0.492585
0.638097
0.815228
0.965084
1.08475
1.1262
1.14586
1.14924
1.1546
1.15413
1.15062
1.15388
1.16197
1.16215
1.15853
1.15219
1.1513
1.15343
1.15599
1.15518
1.15217
1.15067
1.1536
1.15578
1.154
1.15156
1.15142
1.1523
1.15189
1.15058
1.14917
1.14914
1.14945
1.14872
1.14706
1.14558
1.14482
1.14457
1.1444
1.14431
1.14406
1.14394
1.14416
1.14482
1.14438
0.393769
0.393902
0.394044
0.39419
0.394342
0.394499
0.394662
0.39483
0.395005
0.395183
0.395371
0.395562
0.395763
0.395966
0.396178
0.396391
0.396612
0.396832
0.397057
0.397278
0.397502
0.397717
0.397933
0.39814
0.398348
0.39855
0.398751
0.398947
0.399144
0.399336
0.399527
0.399718
0.399903
0.400079
0.400234
0.400381
0.400511
0.400642
0.400782
0.400948
0.401139
0.401354
0.401574
0.4018
0.402032
0.402271
0.40252
0.402759
0.402933
0.403035
0.403132
0.403197
0.403279
0.403348
0.403332
0.403348
0.403597
0.422251
0.505656
0.658052
0.845119
1.00411
1.09948
1.15211
1.1495
1.15284
1.16098
1.16826
1.1641
1.14921
1.1488
1.15115
1.15528
1.15827
1.15765
1.15679
1.1582
1.16074
1.15866
1.15378
1.15123
1.1519
1.15288
1.15155
1.14952
1.14885
1.14935
1.14919
1.14805
1.14647
1.14599
1.14617
1.14593
1.14511
1.14427
1.14386
1.14401
1.14488
1.14599
1.14471
0.396137
0.396247
0.396363
0.396484
0.396609
0.39674
0.396873
0.397013
0.397155
0.397302
0.397454
0.397612
0.397772
0.397937
0.398104
0.398277
0.398448
0.398622
0.398792
0.398959
0.39912
0.399279
0.39943
0.399576
0.399717
0.399857
0.399991
0.400124
0.400257
0.400388
0.400521
0.400654
0.40079
0.400915
0.401034
0.401144
0.401255
0.401371
0.401506
0.401666
0.401855
0.402058
0.402259
0.402456
0.402656
0.402853
0.403054
0.403235
0.403335
0.403411
0.40346
0.403478
0.403497
0.403551
0.403627
0.403725
0.403849
0.403975
0.404074
0.404692
0.438128
0.53815
0.71974
0.924214
1.04254
1.1317
1.15095
1.16049
1.14975
1.13915
1.14985
1.15454
1.15599
1.15708
1.15629
1.1574
1.16143
1.16171
1.15807
1.1513
1.15125
1.15315
1.15299
1.15035
1.14843
1.14883
1.14951
1.14866
1.14687
1.1461
1.1469
1.14812
1.14792
1.14682
1.14553
1.14484
1.14502
1.14574
1.14623
1.14451
0.39804
0.398129
0.398223
0.39832
0.398421
0.398525
0.398633
0.398744
0.398857
0.39897
0.39909
0.39921
0.399333
0.399458
0.399585
0.399711
0.399835
0.399955
0.400074
0.400189
0.400297
0.4004
0.400498
0.400591
0.400682
0.40077
0.400854
0.400941
0.40103
0.401122
0.401219
0.40132
0.401426
0.401534
0.401638
0.401743
0.401857
0.401986
0.402133
0.402299
0.402482
0.402664
0.402831
0.40298
0.403123
0.403266
0.403414
0.403525
0.403584
0.403616
0.40363
0.403633
0.403643
0.403706
0.40382
0.403974
0.404149
0.404307
0.404477
0.404592
0.404583
0.404571
0.411812
0.46742
0.62554
0.836198
0.98486
1.09524
1.11478
1.14039
1.1664
1.16284
1.15673
1.15344
1.15184
1.1548
1.16152
1.16099
1.1534
1.14911
1.15161
1.15383
1.15253
1.14882
1.14818
1.1496
1.14938
1.14772
1.14583
1.14604
1.14787
1.14957
1.14934
1.14825
1.14705
1.14639
1.14636
1.14634
1.14575
1.14395
0.399634
0.399703
0.399775
0.399848
0.399923
0.4
0.400079
0.400162
0.400245
0.400328
0.400416
0.400503
0.400586
0.400671
0.40076
0.400848
0.40093
0.401007
0.401082
0.401156
0.401224
0.401285
0.401344
0.401402
0.401462
0.40152
0.401577
0.401636
0.401702
0.401774
0.401853
0.401942
0.402038
0.402142
0.402251
0.402367
0.402493
0.402638
0.402796
0.402958
0.403121
0.403266
0.403381
0.403474
0.403558
0.403644
0.403738
0.403797
0.403813
0.403819
0.403823
0.403831
0.403864
0.403947
0.404089
0.40431
0.404521
0.404672
0.404802
0.404809
0.404764
0.404696
0.404651
0.404562
0.404523
0.43107
0.548046
0.745249
0.950732
1.09903
1.14944
1.15235
1.15338
1.14344
1.13973
1.1472
1.15774
1.153
1.14664
1.14847
1.15396
1.15414
1.15024
1.14752
1.14873
1.15098
1.14947
1.14665
1.14559
1.1466
1.14891
1.15019
1.1499
1.14894
1.14796
1.14749
1.14734
1.14665
1.14536
1.14322
0.400837
0.400887
0.400938
0.40099
0.401042
0.401094
0.401148
0.401202
0.401256
0.40131
0.401366
0.401419
0.40147
0.401523
0.401575
0.401626
0.401676
0.401726
0.401773
0.401817
0.401857
0.401896
0.401937
0.401982
0.40203
0.402079
0.402129
0.402182
0.402244
0.402315
0.402397
0.402491
0.402593
0.402704
0.402831
0.402961
0.40309
0.403238
0.403393
0.403529
0.403646
0.40373
0.403783
0.403816
0.403836
0.403853
0.403895
0.403909
0.40391
0.403923
0.403943
0.403983
0.404058
0.404172
0.404353
0.4046
0.404803
0.404941
0.404969
0.404926
0.404793
0.404687
0.404627
0.404584
0.404605
0.404725
0.404921
0.414382
0.499133
0.688476
0.90727
1.0522
1.11256
1.13612
1.13424
1.14699
1.1471
1.14086
1.14319
1.15071
1.15612
1.15387
1.14709
1.14745
1.15115
1.15185
1.14934
1.14621
1.14613
1.14797
1.14983
1.1505
1.15012
1.1492
1.14833
1.14803
1.14756
1.14663
1.14483
1.14284
0.401753
0.401781
0.401812
0.401843
0.401873
0.401905
0.401939
0.401971
0.402002
0.402035
0.402068
0.402096
0.402124
0.402155
0.402185
0.402213
0.40224
0.402271
0.402304
0.402336
0.402367
0.402401
0.402439
0.402486
0.402538
0.402594
0.402652
0.402713
0.402785
0.402867
0.402956
0.403057
0.403163
0.403271
0.403396
0.403518
0.403628
0.403753
0.403883
0.403989
0.404064
0.404094
0.404101
0.404105
0.404084
0.404061
0.404067
0.404065
0.40406
0.404075
0.404124
0.404219
0.404342
0.404476
0.40467
0.404895
0.405055
0.40513
0.405138
0.405059
0.404878
0.404757
0.404719
0.40476
0.404891
0.405171
0.405554
0.405753
0.405752
0.409065
0.469279
0.652894
0.881384
1.07907
1.12317
1.15043
1.1397
1.13862
1.14767
1.15811
1.15719
1.14857
1.14499
1.14902
1.15365
1.15209
1.14775
1.14628
1.14792
1.14969
1.15011
1.1497
1.14919
1.14862
1.14825
1.14805
1.14747
1.14613
1.14459
1.1428
0.402323
0.402343
0.402364
0.402383
0.402401
0.402422
0.402444
0.402464
0.402482
0.402499
0.402514
0.402527
0.402541
0.402558
0.402576
0.402593
0.402611
0.402635
0.402665
0.402702
0.402744
0.402793
0.40285
0.402916
0.402989
0.403067
0.40315
0.403231
0.40332
0.403414
0.403503
0.403597
0.40369
0.403774
0.403862
0.403947
0.404022
0.404108
0.404198
0.404274
0.404308
0.404311
0.404314
0.404317
0.404282
0.404233
0.404215
0.404211
0.404226
0.404282
0.404405
0.404593
0.40475
0.404861
0.40498
0.405095
0.40517
0.405222
0.405224
0.40511
0.404875
0.404806
0.404845
0.404987
0.405237
0.405559
0.405827
0.405887
0.405828
0.405538
0.405243
0.405588
0.454857
0.630078
0.874688
1.07504
1.11363
1.1454
1.16326
1.16399
1.15718
1.14155
1.14454
1.15416
1.15493
1.15015
1.14698
1.14806
1.1509
1.15096
1.14949
1.14855
1.14806
1.14785
1.14787
1.14768
1.14672
1.14546
1.14462
1.14328
0.402806
0.402817
0.402829
0.402842
0.402855
0.40287
0.402884
0.402899
0.402913
0.402926
0.402935
0.402944
0.402956
0.402969
0.402983
0.402999
0.403019
0.403047
0.403088
0.403139
0.403197
0.403263
0.40334
0.403428
0.403516
0.403607
0.403701
0.403788
0.403874
0.403959
0.404034
0.404103
0.404157
0.404204
0.404248
0.404283
0.404316
0.40436
0.404417
0.404456
0.404475
0.404494
0.404521
0.404535
0.404519
0.404475
0.404463
0.404474
0.40452
0.404618
0.404793
0.40503
0.405169
0.40522
0.405229
0.405242
0.405267
0.405301
0.405291
0.405175
0.405011
0.405007
0.405113
0.405386
0.405709
0.405939
0.406021
0.405957
0.405688
0.405357
0.405242
0.405301
0.405634
0.405903
0.457267
0.625629
0.868813
1.07466
1.14282
1.1589
1.15368
1.13728
1.15253
1.15847
1.15447
1.14695
1.14751
1.15194
1.15307
1.15174
1.14907
1.14805
1.14767
1.14767
1.1476
1.14695
1.14604
1.14516
1.14493
1.14454
0.403201
0.403216
0.403233
0.40325
0.403269
0.403287
0.403306
0.403327
0.403352
0.403376
0.403401
0.403425
0.403445
0.403466
0.403486
0.403511
0.403546
0.403582
0.403621
0.403672
0.403737
0.403805
0.403878
0.403955
0.404027
0.404094
0.404164
0.404237
0.404308
0.404366
0.404406
0.404439
0.404455
0.404456
0.40446
0.404458
0.404458
0.404469
0.404491
0.404516
0.404541
0.404572
0.404617
0.404676
0.404712
0.40474
0.404768
0.404813
0.404883
0.405005
0.405206
0.405442
0.405498
0.405467
0.405362
0.405262
0.405236
0.405249
0.405261
0.405179
0.405193
0.405307
0.405599
0.405923
0.406125
0.406171
0.406088
0.405795
0.40547
0.40531
0.405369
0.405659
0.406269
0.406584
0.406499
0.406102
0.458722
0.637621
0.880816
1.06938
1.11689
1.13807
1.16774
1.16033
1.14859
1.1448
1.15052
1.1556
1.15438
1.15113
1.14901
1.14812
1.14802
1.14809
1.14763
1.14679
1.146
1.14536
1.1456
1.14635
0.403677
0.4037
0.403727
0.403755
0.403784
0.403814
0.403846
0.40388
0.403914
0.403945
0.403976
0.404014
0.404048
0.404079
0.404106
0.404136
0.404174
0.404201
0.404222
0.404255
0.404294
0.404334
0.40438
0.404426
0.404461
0.404488
0.40452
0.404568
0.404628
0.404668
0.404677
0.404684
0.404688
0.40466
0.404639
0.404622
0.404603
0.404601
0.404603
0.404612
0.404629
0.404657
0.404722
0.404824
0.404941
0.405088
0.405212
0.405286
0.405352
0.40544
0.405577
0.405673
0.405673
0.405618
0.405461
0.40534
0.405314
0.40531
0.405303
0.405361
0.405533
0.40588
0.406229
0.406403
0.406392
0.406306
0.405995
0.405595
0.405406
0.40544
0.405684
0.406265
0.406801
0.406794
0.406505
0.405996
0.405718
0.405736
0.466407
0.666978
0.932193
1.10329
1.1576
1.15361
1.14361
1.14814
1.15798
1.15745
1.1529
1.15024
1.14922
1.14881
1.14916
1.14899
1.14781
1.14688
1.14617
1.14629
1.14786
1.1484
0.404288
0.404317
0.404351
0.404384
0.404415
0.404453
0.404487
0.404521
0.404557
0.40459
0.40462
0.40465
0.404685
0.40472
0.404745
0.404774
0.404796
0.404798
0.404799
0.404805
0.404808
0.404809
0.404806
0.404803
0.404791
0.404782
0.404783
0.404801
0.404835
0.404858
0.404867
0.404855
0.404842
0.404827
0.404786
0.404749
0.404731
0.404731
0.404737
0.404749
0.404772
0.404825
0.404959
0.405151
0.405358
0.405618
0.405786
0.405799
0.40577
0.405748
0.405773
0.405755
0.405668
0.40563
0.405516
0.405325
0.405261
0.405269
0.405386
0.405651
0.406089
0.406502
0.406711
0.406669
0.406515
0.406245
0.405822
0.405524
0.405541
0.405753
0.406325
0.406959
0.407135
0.406941
0.406441
0.405932
0.405952
0.406277
0.406481
0.407928
0.487943
0.720791
0.975422
1.07845
1.13686
1.15725
1.16407
1.15903
1.14945
1.14998
1.15051
1.15033
1.15065
1.15013
1.14833
1.14753
1.14798
1.14965
1.15134
1.14981
0.404832
0.404859
0.404883
0.404907
0.404931
0.404958
0.40499
0.405021
0.40505
0.405077
0.4051
0.405124
0.405154
0.405183
0.405198
0.405203
0.405201
0.405197
0.405201
0.40519
0.405166
0.40514
0.405108
0.405066
0.405
0.404965
0.404962
0.404961
0.404971
0.404995
0.405008
0.405004
0.40498
0.404973
0.404949
0.404934
0.404938
0.404964
0.405033
0.405094
0.405149
0.405241
0.405402
0.405602
0.405847
0.406102
0.406181
0.406164
0.406098
0.405991
0.405901
0.4058
0.405633
0.405615
0.405603
0.405461
0.405462
0.405644
0.406013
0.406509
0.406855
0.407013
0.406966
0.406786
0.406538
0.406192
0.405773
0.405757
0.405961
0.406511
0.407139
0.407499
0.407407
0.406971
0.406391
0.406288
0.406565
0.407066
0.407367
0.407258
0.407039
0.416814
0.520668
0.786882
1.04423
1.13017
1.15893
1.14929
1.14678
1.15221
1.15212
1.15106
1.15109
1.15066
1.14939
1.14995
1.15228
1.15405
1.1537
1.15057
0.405202
0.405208
0.405215
0.405221
0.405229
0.405242
0.405261
0.405284
0.405309
0.405331
0.405349
0.405373
0.405401
0.405421
0.40543
0.405434
0.405434
0.40543
0.405434
0.405436
0.405406
0.405362
0.405323
0.405267
0.405159
0.405088
0.405082
0.405087
0.405107
0.405142
0.405195
0.405246
0.405277
0.405307
0.405355
0.405415
0.405492
0.405645
0.405786
0.405811
0.405844
0.405916
0.406003
0.406122
0.406288
0.406411
0.406442
0.406402
0.406295
0.406156
0.405983
0.405809
0.405702
0.405706
0.405768
0.405976
0.406289
0.406663
0.407001
0.407314
0.407335
0.407269
0.40701
0.406684
0.406456
0.406149
0.406132
0.406332
0.406922
0.407463
0.407847
0.407818
0.407477
0.4069
0.406681
0.406968
0.40754
0.407845
0.40788
0.407706
0.407746
0.408041
0.408285
0.432882
0.5878
0.856798
1.07973
1.11349
1.15014
1.15676
1.15302
1.15031
1.15038
1.15035
1.1506
1.15316
1.15633
1.15652
1.15455
1.15048
0.405532
0.405508
0.405503
0.4055
0.405496
0.405494
0.405495
0.405506
0.405528
0.405552
0.405576
0.405603
0.405631
0.405659
0.405683
0.405702
0.405716
0.405727
0.405744
0.405754
0.405735
0.405712
0.405693
0.405661
0.405601
0.405576
0.405579
0.405601
0.405648
0.405723
0.405822
0.405922
0.406025
0.406137
0.406226
0.406288
0.406383
0.40656
0.406605
0.406573
0.406561
0.406572
0.406564
0.406561
0.406572
0.406575
0.406595
0.406578
0.406493
0.406348
0.40616
0.406148
0.406233
0.406437
0.406756
0.407091
0.407411
0.407649
0.407805
0.407725
0.407585
0.407337
0.406919
0.406697
0.406525
0.406593
0.406868
0.407502
0.408091
0.408337
0.408272
0.408011
0.407448
0.407127
0.407401
0.408187
0.408625
0.408693
0.408503
0.408464
0.408709
0.40938
0.409863
0.409852
0.409963
0.463729
0.679119
0.951158
1.12822
1.14152
1.15066
1.15002
1.15132
1.15103
1.15277
1.15576
1.15812
1.15715
1.15438
1.1502
0.405773
0.405738
0.405681
0.405648
0.405644
0.405644
0.405644
0.405647
0.405656
0.405679
0.405715
0.405753
0.40579
0.405831
0.405877
0.405919
0.405972
0.406017
0.406039
0.406061
0.406088
0.40612
0.406157
0.406192
0.406235
0.406279
0.406313
0.406348
0.406404
0.406493
0.406609
0.406741
0.406896
0.407003
0.407051
0.407092
0.40716
0.407189
0.407173
0.407136
0.40707
0.406998
0.40694
0.406797
0.406628
0.406597
0.4066
0.406647
0.406643
0.4066
0.406662
0.406852
0.407172
0.407597
0.408032
0.408263
0.408411
0.408382
0.40825
0.407913
0.40763
0.407233
0.407037
0.407026
0.40719
0.407591
0.408266
0.408899
0.409073
0.40892
0.408627
0.408115
0.407722
0.407976
0.408876
0.409591
0.409709
0.409527
0.40927
0.409358
0.40977
0.410569
0.411064
0.411191
0.411631
0.411731
0.414254
0.517804
0.801008
1.0043
1.13522
1.13601
1.15287
1.15404
1.15732
1.15779
1.15794
1.15685
1.15385
1.15095
0.406305
0.406281
0.406229
0.406207
0.406203
0.406203
0.406209
0.406223
0.406242
0.406265
0.406301
0.40633
0.406356
0.406408
0.406486
0.406543
0.406622
0.406737
0.406843
0.406925
0.407011
0.407109
0.407207
0.407288
0.407368
0.407449
0.407469
0.407471
0.40747
0.407477
0.407503
0.407578
0.40767
0.407697
0.407697
0.407695
0.407672
0.407588
0.407548
0.407545
0.407504
0.407439
0.407389
0.407272
0.407174
0.407175
0.407218
0.407336
0.407564
0.407862
0.408162
0.408435
0.408695
0.40895
0.409166
0.40916
0.409042
0.408857
0.408519
0.408088
0.407811
0.407611
0.407698
0.408068
0.408769
0.409449
0.410054
0.410044
0.409906
0.409481
0.408931
0.408689
0.409057
0.410014
0.410827
0.41085
0.410803
0.41059
0.410688
0.411089
0.411588
0.412081
0.412845
0.412778
0.412787
0.413386
0.414047
0.414535
0.437511
0.624108
0.92194
1.0819
1.16185
1.15537
1.16125
1.158
1.15802
1.15699
1.15451
1.15429
0.407584
0.407582
0.40757
0.407559
0.407538
0.40751
0.407496
0.407493
0.407492
0.407497
0.40751
0.407533
0.407578
0.407643
0.407705
0.407777
0.407884
0.407995
0.408067
0.408138
0.408204
0.408283
0.408329
0.408347
0.408373
0.40835
0.408298
0.408288
0.408235
0.408174
0.408167
0.408179
0.40817
0.408154
0.408159
0.408148
0.408085
0.407966
0.407948
0.407972
0.407974
0.408019
0.408093
0.408175
0.40824
0.408341
0.408582
0.408967
0.409393
0.409687
0.409849
0.40993
0.409927
0.409882
0.409855
0.409724
0.409468
0.409187
0.408822
0.408571
0.408638
0.409003
0.409574
0.41038
0.411044
0.411436
0.411309
0.411216
0.410884
0.410241
0.410285
0.410792
0.41168
0.412642
0.412564
0.412281
0.412065
0.412207
0.412578
0.413288
0.413858
0.413918
0.414432
0.41512
0.415318
0.416022
0.416759
0.417356
0.418112
0.418486
0.48577
0.744954
1.03258
1.11476
1.16311
1.15602
1.16132
1.16001
1.1586
1.16052
0.409184
0.40921
0.409204
0.409185
0.409177
0.409182
0.409184
0.409167
0.409125
0.409099
0.40909
0.409094
0.409085
0.409048
0.409057
0.409113
0.409183
0.409262
0.409316
0.40937
0.409445
0.409458
0.409444
0.409432
0.409436
0.409396
0.40934
0.40933
0.409289
0.409167
0.409116
0.409115
0.40911
0.409094
0.40911
0.409193
0.40928
0.409357
0.409452
0.409503
0.409591
0.409776
0.410095
0.410322
0.41034
0.410404
0.410631
0.41094
0.411253
0.411278
0.411244
0.411202
0.411028
0.410832
0.41066
0.410342
0.410114
0.410105
0.410218
0.410562
0.41115
0.411871
0.412508
0.413156
0.413188
0.412942
0.412671
0.412588
0.412302
0.412483
0.412995
0.413815
0.414617
0.414609
0.414546
0.414198
0.414267
0.414679
0.415387
0.416076
0.416878
0.417092
0.417219
0.418044
0.418816
0.419414
0.420673
0.421281
0.421954
0.423607
0.424283
0.438548
0.581358
0.877809
1.10868
1.1392
1.17022
1.1667
1.16475
1.16796
0.410768
0.410761
0.410734
0.410702
0.410683
0.410676
0.410672
0.410674
0.410674
0.410663
0.410613
0.410586
0.410542
0.410459
0.410445
0.410437
0.410392
0.410378
0.410388
0.410423
0.41049
0.410556
0.410566
0.410527
0.410518
0.410539
0.410565
0.41057
0.410595
0.410615
0.410608
0.410617
0.410618
0.410612
0.41067
0.410871
0.411094
0.411263
0.411413
0.411572
0.41178
0.412076
0.412363
0.412477
0.412479
0.412482
0.412532
0.412635
0.412667
0.412551
0.412417
0.412411
0.412335
0.412165
0.411934
0.411912
0.412055
0.41239
0.412891
0.413551
0.414353
0.414927
0.415348
0.415325
0.415165
0.414613
0.414438
0.414547
0.415051
0.415711
0.41639
0.417214
0.41719
0.417106
0.417082
0.417311
0.417813
0.418737
0.419828
0.420166
0.420776
0.421646
0.421798
0.422294
0.423776
0.424815
0.425937
0.42744
0.428034
0.429216
0.430804
0.431739
0.432473
0.492649
0.725912
0.999517
1.1527
1.15867
1.17063
1.17723
0.412975
0.412886
0.4128
0.412802
0.412784
0.412746
0.412749
0.412744
0.412737
0.412767
0.412804
0.412802
0.412777
0.41278
0.412813
0.412803
0.412734
0.412729
0.412739
0.412698
0.412707
0.412758
0.412826
0.412873
0.412892
0.412951
0.413028
0.413079
0.413215
0.413409
0.413455
0.413537
0.413717
0.413763
0.413788
0.413898
0.414101
0.414343
0.41453
0.414612
0.414703
0.414873
0.415019
0.415039
0.415006
0.414988
0.41496
0.414984
0.414966
0.414792
0.414766
0.41481
0.414927
0.415061
0.415259
0.415659
0.416151
0.416644
0.417149
0.417579
0.417914
0.418041
0.417899
0.417793
0.417819
0.41776
0.417837
0.418213
0.419027
0.419978
0.420718
0.420823
0.42091
0.421003
0.421347
0.422203
0.423451
0.424522
0.425748
0.426491
0.426835
0.427855
0.429316
0.430174
0.431439
0.432819
0.433269
0.434454
0.435727
0.436968
0.438132
0.439528
0.441567
0.442396
0.451065
0.590589
0.89197
1.0802
1.17083
1.1808
0.414949
0.414789
0.414719
0.414721
0.414797
0.414838
0.414847
0.414896
0.415008
0.415099
0.415232
0.415373
0.415429
0.415529
0.415702
0.415762
0.415731
0.415577
0.41551
0.415516
0.415556
0.415645
0.415798
0.416036
0.416162
0.416286
0.416406
0.416539
0.416872
0.417238
0.417241
0.417227
0.417342
0.417414
0.417358
0.417262
0.417343
0.417607
0.417821
0.417852
0.417834
0.4178
0.417763
0.417642
0.417445
0.417424
0.417529
0.41773
0.417815
0.417885
0.418122
0.418503
0.418989
0.419486
0.420017
0.420641
0.421204
0.421696
0.422105
0.422093
0.422098
0.422082
0.422003
0.422103
0.422437
0.423153
0.424044
0.424888
0.425382
0.426101
0.426441
0.426509
0.426857
0.42794
0.429255
0.430442
0.431834
0.432631
0.43321
0.434531
0.435469
0.43601
0.437355
0.438967
0.439922
0.441383
0.442553
0.443509
0.445598
0.44738
0.448764
0.449884
0.450829
0.451888
0.453152
0.454417
0.505448
0.751989
1.03894
1.16436
0.420193
0.420206
0.420195
0.420207
0.420326
0.420568
0.420607
0.420686
0.420893
0.421075
0.421103
0.421106
0.421121
0.421175
0.421321
0.421547
0.421622
0.42152
0.421418
0.421456
0.421752
0.422033
0.422141
0.422259
0.422462
0.422547
0.422565
0.422652
0.422885
0.423077
0.423091
0.423051
0.423065
0.423229
0.423318
0.423275
0.423168
0.423176
0.423283
0.423377
0.423432
0.423504
0.423608
0.42364
0.423716
0.423961
0.424347
0.424757
0.425158
0.425677
0.426285
0.426877
0.427466
0.428009
0.428464
0.428702
0.428937
0.429175
0.429207
0.429249
0.429507
0.429883
0.43018
0.430612
0.431353
0.432396
0.433531
0.434831
0.435289
0.435382
0.435857
0.436802
0.437765
0.438761
0.440218
0.441193
0.44195
0.442918
0.443458
0.444142
0.445719
0.446927
0.448016
0.449872
0.451079
0.452116
0.453739
0.454929
0.455886
0.457022
0.458609
0.460096
0.461705
0.463545
0.464643
0.465995
0.466515
0.479915
0.610492
0.979032
0.42952
0.429657
0.429718
0.429612
0.429489
0.429526
0.429503
0.429334
0.429299
0.429355
0.429268
0.429138
0.429133
0.429172
0.429262
0.429312
0.429309
0.429297
0.429323
0.429392
0.429454
0.429525
0.429579
0.42961
0.429634
0.429682
0.429771
0.42977
0.429823
0.429753
0.429548
0.429636
0.430118
0.430651
0.430809
0.430932
0.431194
0.4314
0.431389
0.431496
0.43203
0.432767
0.433317
0.433798
0.434246
0.434705
0.435232
0.43578
0.436272
0.436685
0.436994
0.437258
0.437507
0.438032
0.43822
0.438268
0.4385
0.438928
0.43945
0.440047
0.440917
0.44209
0.443263
0.444303
0.445293
0.44621
0.446797
0.447404
0.448464
0.448973
0.449333
0.450132
0.451383
0.452213
0.453112
0.454136
0.454634
0.455399
0.456727
0.457505
0.458328
0.459874
0.461159
0.462113
0.463147
0.463659
0.464759
0.466534
0.467881
0.469582
0.470837
0.471716
0.472807
0.474479
0.476051
0.476719
0.477904
0.479494
0.480088
0.658314
0.441366
0.441738
0.441901
0.441959
0.442068
0.442201
0.442388
0.442651
0.442734
0.442757
0.442799
0.442911
0.443169