/*--------------------------------*- C++ -*----------------------------------*\
  =========                 |
  \\      /  F ield         | OpenFOAM: The Open Source CFD Toolbox
   \\    /   O peration     | Website:  https://openfoam.org
    \\  /    A nd           | Version:  7
     \\/     M anipulation  |
\*---------------------------------------------------------------------------*/
FoamFile
{
    version     2.0;
    format      ascii;
    class       volVectorField;
    location    "3";
    object      U;
}
// * * * * * * * * * * * * * * * * * * * * * * * * * * * * * * * * * * * * * //

dimensions      [0 1 -1 0 0 0 0];

internalField   nonuniform List<vector> 
90000
(
(5.05763 -0.482897 0)
(5.05436 -0.455851 0)
(5.05144 -0.43007 0)
(5.04856 -0.404512 0)
(5.04628 -0.383767 0)
(5.04381 -0.362253 0)
(5.04182 -0.34542 0)
(5.03954 -0.326683 0)
(5.03774 -0.31307 0)
(5.03548 -0.295617 0)
(5.03384 -0.284841 0)
(5.03161 -0.26846 0)
(5.03004 -0.2593 0)
(5.0278 -0.243724 0)
(5.02627 -0.236006 0)
(5.02395 -0.220674 0)
(5.02249 -0.214583 0)
(5.02003 -0.198689 0)
(5.01873 -0.194273 0)
(5.01619 -0.17827 0)
(5.01504 -0.17484 0)
(5.01243 -0.158378 0)
(5.01156 -0.156238 0)
(5.00881 -0.138776 0)
(5.00827 -0.138368 0)
(5.00528 -0.12039 0)
(5.00511 -0.12028 0)
(5.00202 -0.101906 0)
(5.00229 -0.102445 0)
(4.99885 -0.0843326 0)
(4.99942 -0.0842945 0)
(4.99574 -0.0671739 0)
(4.99598 -0.0649348 0)
(4.99285 -0.0509036 0)
(4.99379 -0.0473156 0)
(4.98945 -0.0330976 0)
(4.99197 -0.0300257 0)
(4.98849 -0.0214378 0)
(4.98668 -0.01375 0)
(4.98542 -0.0105315 0)
(4.98554 -0.00562224 0)
(4.98416 -0.000579144 0)
(4.97903 0.00221975 0)
(4.9755 0.00925301 0)
(4.9749 0.0120162 0)
(4.97384 0.00898074 0)
(4.97281 0.00716403 0)
(4.97144 0.00345537 0)
(4.97007 0.00020346 0)
(4.9691 -0.00116064 0)
(4.96768 -0.00620186 0)
(4.96655 -0.00482388 0)
(4.96429 -0.0064357 0)
(4.96438 -0.00988313 0)
(4.96414 -0.00712348 0)
(4.96677 -0.0026956 0)
(4.96756 -0.000472395 0)
(4.9688 0.00129429 0)
(4.97009 0.00133099 0)
(4.97062 0.00175857 0)
(4.97066 0.00219514 0)
(4.96969 0.00319377 0)
(4.9711 0.00134397 0)
(4.971 0.000307591 0)
(4.97064 -0.000723081 0)
(4.97023 -0.0035342 0)
(4.96906 -0.00390124 0)
(4.96932 -0.00376047 0)
(4.96914 -0.000580052 0)
(4.96948 0.000511403 0)
(4.97095 0.00216772 0)
(4.97211 0.00154214 0)
(4.9719 0.00378606 0)
(4.97309 0.00133535 0)
(4.9729 0.000316115 0)
(4.97254 -0.000654006 0)
(4.97175 -0.00279107 0)
(4.97248 -0.00105429 0)
(4.97305 -7.87492e-06 0)
(4.97346 0.00102035 0)
(4.97408 0.00115357 0)
(4.97411 0.000339826 0)
(4.97393 -0.00043831 0)
(4.97366 -0.00233009 0)
(4.97372 -0.00102967 0)
(4.97382 0.000168867 0)
(4.97409 0.000523217 0)
(4.97417 0.000135346 0)
(4.97406 -0.000470921 0)
(4.97384 -0.00144773 0)
(4.97424 -0.000319018 0)
(4.9743 0.000261986 0)
(4.97465 0.000443091 0)
(4.9747 0.00019323 0)
(4.97466 -0.000677943 0)
(4.97484 -8.337e-05 0)
(4.97494 0.000119636 0)
(4.97506 0.00010207 0)
(4.97517 0.000120016 0)
(4.9754 0.000114077 0)
(5.0597 -0.503775 0)
(5.05904 -0.503306 0)
(5.05798 -0.502532 0)
(5.05651 -0.500921 0)
(5.05483 -0.498981 0)
(5.05291 -0.496141 0)
(5.05089 -0.492829 0)
(5.04867 -0.488185 0)
(5.04645 -0.48345 0)
(5.04402 -0.476854 0)
(5.0417 -0.470475 0)
(5.03914 -0.461848 0)
(5.03676 -0.453762 0)
(5.03405 -0.442557 0)
(5.03169 -0.433042 0)
(5.02885 -0.41916 0)
(5.02654 -0.408113 0)
(5.02355 -0.391425 0)
(5.02134 -0.379216 0)
(5.01815 -0.359768 0)
(5.01621 -0.346952 0)
(5.01277 -0.323801 0)
(5.01131 -0.311158 0)
(5.00752 -0.284102 0)
(5.00662 -0.272415 0)
(5.00242 -0.242593 0)
(5.00213 -0.231309 0)
(4.9976 -0.198076 0)
(4.99822 -0.188204 0)
(4.99333 -0.153252 0)
(4.99478 -0.145472 0)
(4.98915 -0.107264 0)
(4.99178 -0.103711 0)
(4.98559 -0.0646434 0)
(4.98856 -0.0633059 0)
(4.98191 -0.0279282 0)
(4.98447 -0.024841 0)
(4.97841 0.00551988 0)
(4.98025 0.00754511 0)
(4.97429 0.0309467 0)
(4.97467 0.0340166 0)
(4.96959 0.0491133 0)
(4.96841 0.0512495 0)
(4.96615 0.0431239 0)
(4.96843 0.0367716 0)
(4.96571 0.0166009 0)
(4.96933 0.0121484 0)
(4.96751 0.000331882 0)
(4.96918 -0.00181334 0)
(4.96843 -0.00533954 0)
(4.96904 -0.00843287 0)
(4.96925 -0.00857308 0)
(4.9697 -0.00769968 0)
(4.97114 -0.00623881 0)
(4.97271 -0.00319853 0)
(4.9741 -0.000329431 0)
(4.97459 0.00207568 0)
(4.97461 0.00478848 0)
(4.97421 0.00656304 0)
(4.97369 0.00826297 0)
(4.97345 0.00770504 0)
(4.97291 0.00554983 0)
(4.97275 0.00247337 0)
(4.97205 -0.00370612 0)
(4.97225 -0.00651838 0)
(4.97246 -0.0102371 0)
(4.97215 -0.00998345 0)
(4.97319 -0.00682558 0)
(4.97381 -0.00189738 0)
(4.97417 0.00262509 0)
(4.97408 0.00697969 0)
(4.97399 0.00875524 0)
(4.97428 0.00698677 0)
(4.97377 0.00212279 0)
(4.97378 -0.00173203 0)
(4.97401 -0.00435725 0)
(4.97416 -0.0033205 0)
(4.97448 -0.000284372 0)
(4.97468 0.00308673 0)
(4.97499 0.00525879 0)
(4.97498 0.00331889 0)
(4.97478 0.000127339 0)
(4.97473 -0.00254265 0)
(4.97485 -0.00187299 0)
(4.9749 -0.000319578 0)
(4.97506 0.00185169 0)
(4.97509 0.00155204 0)
(4.97483 -0.000436803 0)
(4.97467 -0.00160327 0)
(4.97468 -0.000406331 0)
(4.97475 0.00108776 0)
(4.97507 0.00222177 0)
(4.97511 0.00136958 0)
(4.97508 -0.00032885 0)
(4.97499 -7.74452e-05 0)
(4.9752 0.000572848 0)
(4.97523 0.00055721 0)
(4.97529 0.000212241 0)
(4.97539 0.000271764 0)
(4.97559 0.000290667 0)
(5.05837 -0.504564 0)
(5.05836 -0.504577 0)
(5.05834 -0.504486 0)
(5.0583 -0.504506 0)
(5.05828 -0.504301 0)
(5.05831 -0.504293 0)
(5.05833 -0.504205 0)
(5.05824 -0.503909 0)
(5.0582 -0.503716 0)
(5.05817 -0.503611 0)
(5.05811 -0.503495 0)
(5.058 -0.503262 0)
(5.05785 -0.502903 0)
(5.05767 -0.502428 0)
(5.05746 -0.501952 0)
(5.05718 -0.501126 0)
(5.05688 -0.500231 0)
(5.05647 -0.498737 0)
(5.05604 -0.497273 0)
(5.0555 -0.495479 0)
(5.05487 -0.493054 0)
(5.0541 -0.489904 0)
(5.05322 -0.485979 0)
(5.05212 -0.481196 0)
(5.05086 -0.475401 0)
(5.04927 -0.468313 0)
(5.04757 -0.460137 0)
(5.04544 -0.449004 0)
(5.04348 -0.4383 0)
(5.04082 -0.422171 0)
(5.03852 -0.409488 0)
(5.03499 -0.387153 0)
(5.03266 -0.372689 0)
(5.02867 -0.344185 0)
(5.02681 -0.330231 0)
(5.02204 -0.293016 0)
(5.02097 -0.282558 0)
(5.0159 -0.239259 0)
(5.01575 -0.232409 0)
(5.01108 -0.187945 0)
(5.01179 -0.185953 0)
(5.00821 -0.147031 0)
(5.01274 -0.146419 0)
(5.00612 -0.113729 0)
(5.01291 -0.103899 0)
(4.99994 -0.0692058 0)
(5.00266 -0.0593321 0)
(4.99343 -0.0405962 0)
(4.99458 -0.0333722 0)
(4.98895 -0.023839 0)
(4.98817 -0.0165672 0)
(4.98452 -0.0104801 0)
(4.98574 -0.00447393 0)
(4.98481 8.68171e-06 0)
(4.98384 0.00388214 0)
(4.98384 0.00564355 0)
(4.98075 0.00951835 0)
(4.98011 0.0097361 0)
(4.97865 0.00679966 0)
(4.97806 0.00381353 0)
(4.977 -0.00335336 0)
(4.97724 -0.00537846 0)
(4.97645 -0.011021 0)
(4.97655 -0.0123946 0)
(4.97725 -0.0116894 0)
(4.97827 -0.00991683 0)
(4.98042 -0.00431444 0)
(4.9795 -0.000894155 0)
(4.97965 0.00265847 0)
(4.97984 0.00697755 0)
(4.97885 0.00737578 0)
(4.9779 0.00566662 0)
(4.97607 -0.000874785 0)
(4.97626 -0.00283388 0)
(4.97654 -0.00317408 0)
(4.97764 -0.00171958 0)
(4.97785 0.00032314 0)
(4.97795 0.00550105 0)
(4.97754 0.00509567 0)
(4.9778 0.00376533 0)
(4.97673 -0.00256278 0)
(4.97673 -0.00388245 0)
(4.97722 -0.00302603 0)
(4.97716 -0.00217803 0)
(4.97763 0.000416956 0)
(4.97734 -3.57295e-05 0)
(4.97707 -0.00105444 0)
(4.97661 -0.00256418 0)
(4.97664 -0.00180154 0)
(4.97664 -0.00022251 0)
(4.97652 1.18981e-06 0)
(4.97655 -0.000362685 0)
(4.97622 -0.0015597 0)
(4.97627 -0.0011815 0)
(4.97617 -0.000373188 0)
(4.97613 -0.00018628 0)
(4.9761 -6.533e-06 0)
(4.97612 0.00011692 0)
(4.97618 0.000534392 0)
(4.97636 0.000324143 0)
(5.05809 -0.503562 0)
(5.0581 -0.503546 0)
(5.05812 -0.503446 0)
(5.05814 -0.503535 0)
(5.05816 -0.503574 0)
(5.0582 -0.503503 0)
(5.05826 -0.503447 0)
(5.05828 -0.503572 0)
(5.05833 -0.50361 0)
(5.05839 -0.503556 0)
(5.05844 -0.503557 0)
(5.05846 -0.503772 0)
(5.0585 -0.503698 0)
(5.05849 -0.503755 0)
(5.05847 -0.503677 0)
(5.05845 -0.503802 0)
(5.05846 -0.503717 0)
(5.05843 -0.503777 0)
(5.05842 -0.503393 0)
(5.05849 -0.503316 0)
(5.05856 -0.50314 0)
(5.05856 -0.502793 0)
(5.0586 -0.502562 0)
(5.05865 -0.50237 0)
(5.05869 -0.502129 0)
(5.0587 -0.50187 0)
(5.05868 -0.501542 0)
(5.0586 -0.500934 0)
(5.05851 -0.500241 0)
(5.05838 -0.499141 0)
(5.0583 -0.497976 0)
(5.05813 -0.49626 0)
(5.05783 -0.493993 0)
(5.05729 -0.490416 0)
(5.05655 -0.4859 0)
(5.05524 -0.478306 0)
(5.05378 -0.469998 0)
(5.05134 -0.454833 0)
(5.0493 -0.441801 0)
(5.04527 -0.413834 0)
(5.04323 -0.396621 0)
(5.03694 -0.350109 0)
(5.0368 -0.331985 0)
(5.02811 -0.261853 0)
(5.03137 -0.249705 0)
(5.02123 -0.169063 0)
(5.02577 -0.170084 0)
(5.01396 -0.0939829 0)
(5.0183 -0.102532 0)
(5.00771 -0.0431604 0)
(5.0099 -0.0516912 0)
(5.00085 -0.0117624 0)
(5.00018 -0.0159952 0)
(4.99416 0.00529682 0)
(4.99009 0.0046108 0)
(4.98866 0.0104911 0)
(4.98686 0.0044663 0)
(4.98588 0.00141233 0)
(4.98552 -0.00403749 0)
(4.98346 -0.00517942 0)
(4.98386 -0.0103403 0)
(4.98103 -0.00778623 0)
(4.98091 -0.00652455 0)
(4.98098 -0.00478291 0)
(4.98177 7.1277e-06 0)
(4.98212 0.00564839 0)
(4.98381 0.0075044 0)
(4.98331 0.00719284 0)
(4.9824 0.00510265 0)
(4.98099 0.00126198 0)
(4.98037 -4.61398e-05 0)
(4.98072 -0.00448532 0)
(4.97862 -0.000705334 0)
(4.97831 0.00271554 0)
(4.97965 0.00361347 0)
(4.98054 0.00779593 0)
(4.98084 0.00551927 0)
(4.98049 0.00223576 0)
(4.97985 -0.000193922 0)
(4.98079 -0.00360589 0)
(4.97909 0.000600443 0)
(4.97933 0.0015832 0)
(4.97978 0.00278876 0)
(4.97995 0.00119614 0)
(4.97978 -0.000178327 0)
(4.97935 -0.00273499 0)
(4.97895 -0.00216195 0)
(4.97896 -0.00113531 0)
(4.97896 6.39832e-05 0)
(4.97883 0.000567507 0)
(4.97855 0.000486026 0)
(4.97846 0.000650572 0)
(4.97779 0.00124755 0)
(4.97781 0.00127151 0)
(4.97781 0.000985593 0)
(4.97784 0.000150619 0)
(4.97777 0.000223936 0)
(4.97778 0.000383587 0)
(4.97776 0.000777886 0)
(4.97801 0.000265027 0)
(5.05977 -0.502225 0)
(5.05984 -0.502205 0)
(5.05991 -0.502191 0)
(5.05998 -0.502159 0)
(5.06004 -0.502161 0)
(5.06009 -0.502158 0)
(5.06014 -0.502096 0)
(5.06016 -0.502105 0)
(5.06017 -0.502143 0)
(5.06018 -0.502097 0)
(5.06019 -0.502074 0)
(5.06021 -0.502166 0)
(5.0603 -0.502211 0)
(5.06044 -0.502222 0)
(5.06052 -0.502247 0)
(5.06061 -0.502287 0)
(5.06072 -0.502358 0)
(5.06075 -0.502431 0)
(5.06072 -0.502439 0)
(5.06067 -0.502404 0)
(5.06056 -0.502446 0)
(5.06051 -0.502615 0)
(5.0605 -0.502675 0)
(5.06052 -0.502783 0)
(5.06053 -0.502802 0)
(5.06054 -0.502748 0)
(5.06056 -0.502672 0)
(5.06058 -0.502669 0)
(5.06059 -0.502685 0)
(5.06064 -0.502693 0)
(5.06071 -0.50267 0)
(5.06086 -0.502658 0)
(5.06094 -0.502656 0)
(5.06106 -0.502594 0)
(5.06116 -0.50243 0)
(5.06116 -0.502245 0)
(5.06108 -0.50212 0)
(5.06097 -0.502002 0)
(5.06094 -0.501428 0)
(5.06085 -0.500622 0)
(5.06062 -0.498693 0)
(5.06012 -0.495792 0)
(5.05937 -0.490577 0)
(5.05801 -0.482381 0)
(5.05631 -0.470717 0)
(5.05318 -0.449996 0)
(5.05045 -0.4301 0)
(5.04446 -0.386956 0)
(5.04217 -0.363685 0)
(5.03369 -0.294935 0)
(5.03402 -0.281143 0)
(5.02366 -0.196796 0)
(5.02573 -0.199169 0)
(5.01541 -0.12111 0)
(5.01575 -0.132022 0)
(5.00626 -0.08008 0)
(5.01146 -0.0906008 0)
(5.001 -0.0578618 0)
(5.0028 -0.0574544 0)
(4.9952 -0.0391684 0)
(4.99482 -0.0317479 0)
(4.99297 -0.0210579 0)
(4.99116 -0.0101935 0)
(4.98714 -0.000389762 0)
(4.98367 0.00931028 0)
(4.98307 0.0104133 0)
(4.98129 0.00943934 0)
(4.97988 0.00268577 0)
(4.97983 -0.0025924 0)
(4.97959 -0.0101363 0)
(4.97936 -0.0111172 0)
(4.97993 -0.00871251 0)
(4.98085 -0.00192642 0)
(4.97999 0.00272645 0)
(4.98166 0.00913958 0)
(4.98168 0.00982459 0)
(4.98089 0.00542005 0)
(4.9807 -0.000637646 0)
(4.98042 -0.00471903 0)
(4.98095 -0.00479877 0)
(4.9806 -0.00345765 0)
(4.98145 0.00108536 0)
(4.98178 0.00225939 0)
(4.981 0.000659898 0)
(4.98073 -0.000968617 0)
(4.98038 -0.0028937 0)
(4.98074 -0.00228476 0)
(4.98092 -0.00153141 0)
(4.98088 7.36518e-05 0)
(4.98067 0.000115862 0)
(4.98013 -0.00095518 0)
(4.97992 -0.00154219 0)
(4.9799 -0.00126895 0)
(4.98007 -0.000380125 0)
(4.98019 0.000545371 0)
(4.98023 0.000584088 0)
(4.98025 0.000785846 0)
(4.98034 0.00080222 0)
(4.98027 0.0012161 0)
(4.98048 0.000468928 0)
(5.06172 -0.504031 0)
(5.06175 -0.503993 0)
(5.06178 -0.503957 0)
(5.06181 -0.503961 0)
(5.06184 -0.503942 0)
(5.06187 -0.5039 0)
(5.06191 -0.503841 0)
(5.06193 -0.503825 0)
(5.06195 -0.503851 0)
(5.06197 -0.503809 0)
(5.06201 -0.50383 0)
(5.06199 -0.504032 0)
(5.062 -0.504147 0)
(5.06199 -0.504147 0)
(5.06193 -0.504149 0)
(5.06188 -0.504117 0)
(5.06188 -0.504091 0)
(5.06185 -0.504204 0)
(5.06184 -0.504328 0)
(5.06181 -0.504343 0)
(5.06176 -0.504262 0)
(5.06176 -0.504202 0)
(5.06171 -0.504408 0)
(5.06174 -0.504635 0)
(5.06181 -0.504735 0)
(5.06183 -0.50457 0)
(5.06189 -0.504276 0)
(5.06198 -0.504225 0)
(5.06208 -0.504267 0)
(5.0622 -0.504353 0)
(5.06232 -0.504306 0)
(5.06248 -0.504183 0)
(5.06257 -0.504347 0)
(5.06264 -0.504452 0)
(5.06269 -0.504258 0)
(5.06258 -0.504429 0)
(5.06247 -0.504772 0)
(5.06252 -0.504527 0)
(5.06262 -0.5046 0)
(5.06256 -0.504972 0)
(5.06261 -0.505259 0)
(5.06277 -0.505384 0)
(5.06297 -0.505454 0)
(5.06311 -0.505323 0)
(5.0632 -0.504913 0)
(5.06325 -0.504351 0)
(5.0631 -0.503405 0)
(5.06263 -0.501235 0)
(5.06185 -0.496496 0)
(5.06019 -0.487408 0)
(5.0581 -0.473432 0)
(5.05363 -0.445714 0)
(5.05039 -0.4193 0)
(5.04131 -0.357098 0)
(5.04006 -0.329029 0)
(5.02488 -0.227315 0)
(5.03098 -0.215157 0)
(5.01389 -0.106668 0)
(5.02284 -0.111577 0)
(5.00641 -0.0287458 0)
(5.01117 -0.0322945 0)
(4.99959 0.0174628 0)
(4.9976 0.0195057 0)
(4.99247 0.0431621 0)
(4.98614 0.0311013 0)
(4.98143 0.01225 0)
(4.9804 0.00297724 0)
(4.97818 -0.00292323 0)
(4.9792 -0.00822937 0)
(4.97992 -0.0086086 0)
(4.9805 -0.00581178 0)
(4.98222 0.000523426 0)
(4.98327 0.00881278 0)
(4.98295 0.00822671 0)
(4.98209 0.00755261 0)
(4.98083 0.00264354 0)
(4.98014 0.00030664 0)
(4.9802 -7.97817e-05 0)
(4.98046 -0.000669505 0)
(4.98121 0.00165949 0)
(4.98165 0.00300527 0)
(4.98194 0.00217797 0)
(4.98147 0.000713212 0)
(4.98083 -0.0007832 0)
(4.98119 -0.0031814 0)
(4.98159 -0.00380189 0)
(4.98225 -0.00130922 0)
(4.98238 0.000365197 0)
(4.98229 0.000437615 0)
(4.98207 -0.000454053 0)
(4.98207 -0.000211762 0)
(4.98236 0.000247142 0)
(4.98271 0.000889166 0)
(4.98288 0.000325428 0)
(4.98287 -4.60252e-05 0)
(4.98288 -0.000222206 0)
(4.98304 0.000147506 0)
(4.98316 0.000832539 0)
(4.98316 0.000976796 0)
(4.98312 0.0002784 0)
(5.06273 -0.504847 0)
(5.06272 -0.504819 0)
(5.06271 -0.504764 0)
(5.0627 -0.504778 0)
(5.06272 -0.504827 0)
(5.06272 -0.504805 0)
(5.06269 -0.50471 0)
(5.06271 -0.504648 0)
(5.06271 -0.504672 0)
(5.06271 -0.504701 0)
(5.06271 -0.504806 0)
(5.06269 -0.504988 0)
(5.06267 -0.504944 0)
(5.06262 -0.504876 0)
(5.06249 -0.505082 0)
(5.06251 -0.50516 0)
(5.06255 -0.505216 0)
(5.06257 -0.50536 0)
(5.06265 -0.505486 0)
(5.0628 -0.505455 0)
(5.06296 -0.505502 0)
(5.06302 -0.505665 0)
(5.06307 -0.505623 0)
(5.06315 -0.50556 0)
(5.0632 -0.505677 0)
(5.06324 -0.50581 0)
(5.0633 -0.50575 0)
(5.06341 -0.505656 0)
(5.06347 -0.505807 0)
(5.06353 -0.506021 0)
(5.06361 -0.50611 0)
(5.06358 -0.506355 0)
(5.06353 -0.50663 0)
(5.06349 -0.50663 0)
(5.06345 -0.506532 0)
(5.06337 -0.506742 0)
(5.06329 -0.506932 0)
(5.06325 -0.506918 0)
(5.06325 -0.506819 0)
(5.06326 -0.506728 0)
(5.06325 -0.506761 0)
(5.06342 -0.506992 0)
(5.06367 -0.507201 0)
(5.06378 -0.507366 0)
(5.06395 -0.507397 0)
(5.06421 -0.507289 0)
(5.06447 -0.507564 0)
(5.06477 -0.507668 0)
(5.06513 -0.507732 0)
(5.06537 -0.507506 0)
(5.06543 -0.506987 0)
(5.06539 -0.506258 0)
(5.06514 -0.504126 0)
(5.06437 -0.500525 0)
(5.06298 -0.491582 0)
(5.06002 -0.475911 0)
(5.05663 -0.450735 0)
(5.04997 -0.405879 0)
(5.04637 -0.367791 0)
(5.03626 -0.285737 0)
(5.03639 -0.262472 0)
(5.02538 -0.166027 0)
(5.0267 -0.168767 0)
(5.0197 -0.102242 0)
(5.03171 -0.112442 0)
(5.00968 -0.0588006 0)
(5.00585 -0.0509976 0)
(5.00183 -0.0361189 0)
(4.99649 -0.0198518 0)
(4.99411 -0.00833958 0)
(4.98303 0.000587041 0)
(4.98521 0.0106951 0)
(4.98438 0.00898232 0)
(4.98238 -3.66143e-06 0)
(4.98149 -0.00196687 0)
(4.98246 -0.0105673 0)
(4.9805 -0.00706049 0)
(4.98119 -0.00330678 0)
(4.98204 0.00197236 0)
(4.98317 0.00532017 0)
(4.98296 0.0047272 0)
(4.9824 0.0017593 0)
(4.98141 -0.00109475 0)
(4.9822 -0.00370238 0)
(4.9825 -0.00322812 0)
(4.98303 -0.000863405 0)
(4.98386 0.000282363 0)
(4.98388 6.33922e-05 0)
(4.98369 -0.000783293 0)
(4.98405 -0.00196828 0)
(4.98428 -0.00174915 0)
(4.98463 -0.000675461 0)
(4.98489 0.000533771 0)
(4.98524 0.000809286 0)
(4.98511 0.000780292 0)
(4.98513 0.000841549 0)
(4.98542 0.00103008 0)
(4.98537 0.000976185 0)
(4.98537 0.000966415 0)
(4.9854 0.000384983 0)
(5.06391 -0.505077 0)
(5.06391 -0.505047 0)
(5.06394 -0.504998 0)
(5.06389 -0.505144 0)
(5.06389 -0.50536 0)
(5.06388 -0.505319 0)
(5.06391 -0.505185 0)
(5.06388 -0.505263 0)
(5.06382 -0.505435 0)
(5.06384 -0.50537 0)
(5.0638 -0.505518 0)
(5.06372 -0.505799 0)
(5.06371 -0.505801 0)
(5.06371 -0.505882 0)
(5.06368 -0.506128 0)
(5.06374 -0.506245 0)
(5.06385 -0.506214 0)
(5.06393 -0.506293 0)
(5.06402 -0.506533 0)
(5.06416 -0.506588 0)
(5.06431 -0.506321 0)
(5.0644 -0.5063 0)
(5.06443 -0.506538 0)
(5.06457 -0.506555 0)
(5.06468 -0.506676 0)
(5.06477 -0.506795 0)
(5.06489 -0.506738 0)
(5.06497 -0.506802 0)
(5.06499 -0.507171 0)
(5.06511 -0.507163 0)
(5.06525 -0.507081 0)
(5.06523 -0.507326 0)
(5.06516 -0.507525 0)
(5.0651 -0.507449 0)
(5.065 -0.507646 0)
(5.06494 -0.508041 0)
(5.06492 -0.508129 0)
(5.06496 -0.508134 0)
(5.06503 -0.508061 0)
(5.06509 -0.507996 0)
(5.06518 -0.508014 0)
(5.06538 -0.508161 0)
(5.06552 -0.508294 0)
(5.06555 -0.508417 0)
(5.06562 -0.50848 0)
(5.0657 -0.508459 0)
(5.0658 -0.508382 0)
(5.06594 -0.508327 0)
(5.06617 -0.508267 0)
(5.06642 -0.508237 0)
(5.06649 -0.508218 0)
(5.06663 -0.508209 0)
(5.06688 -0.507781 0)
(5.06701 -0.507924 0)
(5.06731 -0.507473 0)
(5.06729 -0.506883 0)
(5.06721 -0.50577 0)
(5.06679 -0.502887 0)
(5.06593 -0.496476 0)
(5.06363 -0.482897 0)
(5.0605 -0.460884 0)
(5.05309 -0.412843 0)
(5.04963 -0.37235 0)
(5.03424 -0.267524 0)
(5.04313 -0.234187 0)
(5.02368 -0.0961346 0)
(5.03532 -0.0968734 0)
(5.0142 0.00435217 0)
(5.0169 0.00434774 0)
(5.00517 0.0567873 0)
(4.99534 0.0477731 0)
(4.98744 0.0189026 0)
(4.98662 0.00564003 0)
(4.98397 -0.00850393 0)
(4.98362 -0.00935179 0)
(4.98437 -0.00932982 0)
(4.98526 -0.00365113 0)
(4.98696 0.0100083 0)
(4.98707 0.0127548 0)
(4.98649 0.0106029 0)
(4.98453 0.00468328 0)
(4.98393 -0.00339289 0)
(4.98433 -0.00442408 0)
(4.98493 -0.00354736 0)
(4.98559 -0.00120773 0)
(4.98613 0.00318701 0)
(4.98655 0.00169433 0)
(4.98622 0.000335578 0)
(4.98615 -0.0019395 0)
(4.9861 -0.002001 0)
(4.98634 -0.00105808 0)
(4.98668 3.94366e-05 0)
(4.98647 4.30034e-05 0)
(4.98674 -0.000601989 0)
(4.98629 0.000120911 0)
(4.98646 0.000624757 0)
(4.98665 0.00147399 0)
(4.98674 0.00108526 0)
(4.9869 0.000500235 0)
(4.98691 -0.000190357 0)
(5.06539 -0.506226 0)
(5.06539 -0.50621 0)
(5.06545 -0.50607 0)
(5.06543 -0.506145 0)
(5.06541 -0.506391 0)
(5.06539 -0.506336 0)
(5.0654 -0.506235 0)
(5.06524 -0.506543 0)
(5.06514 -0.506811 0)
(5.06512 -0.506679 0)
(5.06507 -0.506741 0)
(5.06507 -0.506873 0)
(5.06508 -0.50681 0)
(5.06513 -0.506716 0)
(5.06516 -0.506723 0)
(5.06521 -0.506776 0)
(5.06527 -0.506897 0)
(5.06535 -0.50706 0)
(5.06546 -0.507123 0)
(5.06559 -0.507133 0)
(5.0657 -0.507115 0)
(5.06581 -0.507092 0)
(5.06593 -0.507163 0)
(5.06595 -0.507278 0)
(5.06599 -0.507395 0)
(5.06606 -0.507417 0)
(5.06618 -0.507327 0)
(5.06618 -0.507489 0)
(5.06614 -0.507911 0)
(5.06622 -0.508113 0)
(5.06631 -0.507924 0)
(5.06644 -0.507806 0)
(5.0664 -0.508001 0)
(5.06631 -0.508309 0)
(5.06635 -0.508491 0)
(5.06639 -0.508506 0)
(5.06642 -0.508488 0)
(5.06648 -0.508434 0)
(5.06656 -0.508447 0)
(5.06665 -0.508497 0)
(5.06687 -0.508441 0)
(5.06699 -0.508386 0)
(5.06699 -0.508395 0)
(5.06697 -0.508417 0)
(5.06685 -0.508365 0)
(5.06665 -0.508386 0)
(5.0667 -0.508406 0)
(5.06682 -0.508289 0)
(5.06695 -0.508228 0)
(5.06713 -0.50806 0)
(5.06733 -0.508039 0)
(5.06764 -0.507777 0)
(5.06801 -0.507017 0)
(5.06817 -0.50693 0)
(5.06831 -0.50672 0)
(5.06833 -0.506531 0)
(5.0682 -0.506687 0)
(5.06791 -0.506574 0)
(5.06813 -0.505271 0)
(5.06813 -0.504742 0)
(5.06806 -0.503957 0)
(5.06775 -0.502116 0)
(5.06688 -0.496465 0)
(5.06448 -0.484978 0)
(5.0607 -0.457431 0)
(5.05455 -0.414916 0)
(5.04908 -0.353919 0)
(5.03995 -0.271039 0)
(5.0369 -0.222975 0)
(5.02909 -0.137919 0)
(5.03574 -0.132354 0)
(5.02198 -0.0830675 0)
(5.01452 -0.0536983 0)
(5.00881 -0.0367053 0)
(5.00331 -0.0189695 0)
(4.99747 -0.00646412 0)
(4.99053 0.00747049 0)
(4.98933 0.00758887 0)
(4.98896 0.00412377 0)
(4.98672 -0.0045823 0)
(4.98678 -0.00608225 0)
(4.98698 -0.00594156 0)
(4.98822 -0.00306174 0)
(4.9885 1.33764e-05 0)
(4.9897 0.00321735 0)
(4.98959 0.00292731 0)
(4.98883 0.000664362 0)
(4.98837 -0.00329158 0)
(4.9884 -0.00306537 0)
(4.98862 -0.00135826 0)
(4.98889 0.000287562 0)
(4.98881 0.000176454 0)
(4.98855 -0.00052904 0)
(4.98793 -0.000895217 0)
(4.98791 -0.000134312 0)
(4.98778 0.000873224 0)
(4.98776 0.00173612 0)
(4.98781 0.00121018 0)
(4.98797 0.000437169 0)
(4.98752 -0.000236174 0)
(5.06665 -0.507551 0)
(5.06666 -0.507591 0)
(5.06666 -0.507679 0)
(5.06673 -0.507798 0)
(5.06673 -0.507752 0)
(5.06666 -0.507507 0)
(5.06659 -0.50733 0)
(5.06642 -0.50745 0)
(5.06635 -0.507654 0)
(5.06635 -0.507679 0)
(5.06637 -0.507688 0)
(5.06639 -0.507701 0)
(5.06643 -0.507716 0)
(5.06645 -0.507723 0)
(5.06645 -0.507739 0)
(5.06652 -0.507814 0)
(5.0666 -0.507897 0)
(5.06663 -0.507949 0)
(5.06667 -0.508005 0)
(5.06678 -0.508079 0)
(5.06682 -0.508147 0)
(5.06685 -0.508165 0)
(5.0669 -0.508153 0)
(5.06693 -0.508064 0)
(5.06698 -0.507991 0)
(5.06691 -0.5082 0)
(5.06686 -0.508266 0)
(5.06695 -0.508094 0)
(5.06693 -0.508269 0)
(5.06689 -0.508682 0)
(5.06694 -0.508705 0)
(5.06708 -0.508598 0)
(5.06701 -0.508826 0)
(5.06694 -0.509211 0)
(5.067 -0.509343 0)
(5.06712 -0.509223 0)
(5.06723 -0.509077 0)
(5.06731 -0.509017 0)
(5.06747 -0.508974 0)
(5.06769 -0.508904 0)
(5.06785 -0.508771 0)
(5.06785 -0.508597 0)
(5.0678 -0.508593 0)
(5.06756 -0.508542 0)
(5.06747 -0.508487 0)
(5.06739 -0.508338 0)
(5.06734 -0.508164 0)
(5.0673 -0.508068 0)
(5.06736 -0.507681 0)
(5.06744 -0.507515 0)
(5.06753 -0.507595 0)
(5.06808 -0.506861 0)
(5.06837 -0.506343 0)
(5.06865 -0.506205 0)
(5.0687 -0.50611 0)
(5.0686 -0.506026 0)
(5.06849 -0.506066 0)
(5.06817 -0.506126 0)
(5.068 -0.50577 0)
(5.06818 -0.505318 0)
(5.06827 -0.505178 0)
(5.06836 -0.505141 0)
(5.06842 -0.505316 0)
(5.06832 -0.505324 0)
(5.06802 -0.504717 0)
(5.06737 -0.502093 0)
(5.06595 -0.494111 0)
(5.06278 -0.475467 0)
(5.05673 -0.433021 0)
(5.04732 -0.371646 0)
(5.03981 -0.272242 0)
(5.03084 -0.168983 0)
(5.02852 -0.0960421 0)
(5.01491 -0.014349 0)
(5.02067 0.00585706 0)
(5.00817 0.0573702 0)
(4.99772 0.0416498 0)
(4.99734 0.0137548 0)
(4.99354 -0.00370587 0)
(4.99062 -0.0105938 0)
(4.99111 -0.0101687 0)
(4.99329 -0.00284813 0)
(4.99387 0.00820192 0)
(4.9939 0.0104605 0)
(4.99286 0.00679426 0)
(4.99145 0.00229659 0)
(4.9903 -0.00345262 0)
(4.99022 -0.00347841 0)
(4.99105 -0.000936257 0)
(4.99104 0.00158526 0)
(4.99079 0.00119191 0)
(4.9901 -0.000123138 0)
(4.98931 -0.00154303 0)
(4.9892 -0.00105479 0)
(4.98976 0.000449767 0)
(4.98903 0.00227015 0)
(4.98871 0.00152581 0)
(4.98834 0.000648682 0)
(4.98802 -0.000339902 0)
(4.98794 -0.000209225 0)
(5.06775 -0.507819 0)
(5.06777 -0.507822 0)
(5.06776 -0.507781 0)
(5.06776 -0.507732 0)
(5.06774 -0.507716 0)
(5.06763 -0.507789 0)
(5.06754 -0.507819 0)
(5.06753 -0.507846 0)
(5.0675 -0.507899 0)
(5.06743 -0.507916 0)
(5.0676 -0.50776 0)
(5.06764 -0.507544 0)
(5.06759 -0.50744 0)
(5.06758 -0.507564 0)
(5.0677 -0.507866 0)
(5.06775 -0.507992 0)
(5.06774 -0.50808 0)
(5.06774 -0.508124 0)
(5.06779 -0.508111 0)
(5.06782 -0.508103 0)
(5.06781 -0.508109 0)
(5.06778 -0.508043 0)
(5.06776 -0.507994 0)
(5.06771 -0.507994 0)
(5.06752 -0.508215 0)
(5.06734 -0.508243 0)
(5.06726 -0.508096 0)
(5.06719 -0.508158 0)
(5.06712 -0.508451 0)
(5.06712 -0.508546 0)
(5.06711 -0.508485 0)
(5.06715 -0.508372 0)
(5.06709 -0.508501 0)
(5.06709 -0.508804 0)
(5.06722 -0.50897 0)
(5.06734 -0.508891 0)
(5.06742 -0.508568 0)
(5.06749 -0.50848 0)
(5.06765 -0.50845 0)
(5.0679 -0.508424 0)
(5.06813 -0.508332 0)
(5.06824 -0.508055 0)
(5.06824 -0.507811 0)
(5.06817 -0.507707 0)
(5.06816 -0.507383 0)
(5.06813 -0.506953 0)
(5.06791 -0.507013 0)
(5.06774 -0.506758 0)
(5.06763 -0.506488 0)
(5.06753 -0.506618 0)
(5.0675 -0.506476 0)
(5.06829 -0.505638 0)
(5.06858 -0.505454 0)
(5.06868 -0.505439 0)
(5.06878 -0.505441 0)
(5.06845 -0.505464 0)
(5.0683 -0.505464 0)
(5.06807 -0.505464 0)
(5.06787 -0.505338 0)
(5.0681 -0.505224 0)
(5.06815 -0.505206 0)
(5.06825 -0.505113 0)
(5.06834 -0.505166 0)
(5.06829 -0.505423 0)
(5.06811 -0.50571 0)
(5.06794 -0.506117 0)
(5.06796 -0.506233 0)
(5.06797 -0.505763 0)
(5.06763 -0.50418 0)
(5.06648 -0.499159 0)
(5.06322 -0.480498 0)
(5.05897 -0.453835 0)
(5.04783 -0.363103 0)
(5.04726 -0.327922 0)
(5.03043 -0.185918 0)
(5.03879 -0.173024 0)
(5.02193 -0.102616 0)
(5.03319 -0.0811402 0)
(5.01324 -0.0446096 0)
(5.00491 -0.0232515 0)
(5.00187 -0.00981033 0)
(4.99825 0.0044568 0)
(4.9964 0.00520004 0)
(4.99377 0.00334294 0)
(4.99117 -0.00379806 0)
(4.9907 -0.00425871 0)
(4.99071 -0.00399411 0)
(4.99125 -0.000340388 0)
(4.99087 0.00181293 0)
(4.99059 0.00182297 0)
(4.98982 9.26481e-05 0)
(4.98851 -0.0026586 0)
(4.98846 -0.00212089 0)
(4.98906 -0.000105699 0)
(4.98888 0.00119509 0)
(4.98867 0.00127018 0)
(4.98806 1.0056e-05 0)
(4.98771 -0.000478862 0)
(4.98766 -0.00028486 0)
(4.98762 0.000122143 0)
(5.06804 -0.509323 0)
(5.06803 -0.509223 0)
(5.06798 -0.50916 0)
(5.06797 -0.509092 0)
(5.068 -0.509049 0)
(5.06799 -0.5089 0)
(5.06797 -0.508719 0)
(5.06795 -0.508673 0)
(5.06789 -0.508679 0)
(5.06792 -0.508605 0)
(5.06798 -0.50851 0)
(5.06798 -0.50847 0)
(5.06799 -0.508462 0)
(5.06802 -0.50842 0)
(5.06807 -0.50839 0)
(5.06815 -0.508464 0)
(5.06818 -0.508539 0)
(5.06827 -0.508514 0)
(5.06835 -0.50835 0)
(5.06828 -0.508306 0)
(5.06817 -0.508239 0)
(5.06813 -0.508056 0)
(5.06811 -0.507981 0)
(5.06804 -0.507944 0)
(5.06762 -0.507887 0)
(5.06745 -0.507892 0)
(5.06732 -0.507943 0)
(5.06716 -0.50799 0)
(5.06707 -0.508086 0)
(5.06698 -0.508101 0)
(5.06683 -0.508224 0)
(5.06693 -0.508464 0)
(5.06694 -0.508582 0)
(5.06698 -0.508723 0)
(5.06707 -0.508743 0)
(5.06716 -0.508681 0)
(5.06724 -0.508579 0)
(5.06739 -0.508424 0)
(5.06764 -0.508249 0)
(5.0679 -0.508322 0)
(5.06829 -0.507886 0)
(5.0687 -0.506916 0)
(5.06865 -0.506694 0)
(5.06857 -0.506517 0)
(5.06859 -0.506064 0)
(5.06842 -0.505737 0)
(5.06814 -0.505613 0)
(5.06788 -0.50573 0)
(5.06765 -0.506007 0)
(5.06744 -0.506328 0)
(5.06749 -0.506165 0)
(5.06822 -0.505622 0)
(5.0684 -0.505548 0)
(5.06849 -0.505529 0)
(5.06855 -0.505315 0)
(5.0683 -0.504941 0)
(5.06809 -0.504846 0)
(5.06793 -0.504827 0)
(5.06796 -0.50533 0)
(5.06801 -0.505659 0)
(5.06809 -0.505927 0)
(5.06803 -0.5058 0)
(5.0681 -0.505581 0)
(5.06814 -0.505536 0)
(5.06803 -0.505748 0)
(5.0678 -0.506294 0)
(5.06773 -0.506839 0)
(5.06775 -0.506861 0)
(5.06778 -0.506855 0)
(5.06776 -0.506585 0)
(5.06762 -0.506252 0)
(5.0672 -0.504803 0)
(5.06581 -0.499183 0)
(5.06338 -0.482449 0)
(5.05419 -0.429629 0)
(5.05244 -0.379932 0)
(5.02828 -0.199752 0)
(5.04591 -0.180756 0)
(5.01739 -0.0122577 0)
(5.01637 -0.011372 0)
(5.00887 0.0588568 0)
(4.99616 0.0364835 0)
(4.9901 0.00585831 0)
(4.99201 -0.0019205 0)
(4.99055 -0.00742177 0)
(4.99029 -0.00643766 0)
(4.98936 -0.000320377 0)
(4.9882 0.00784565 0)
(4.98753 0.00659028 0)
(4.98657 0.00194035 0)
(4.9858 -0.0025167 0)
(4.98594 -0.00238925 0)
(4.98685 0.000343987 0)
(4.98714 0.00310636 0)
(4.98682 0.0021857 0)
(4.98669 -2.94513e-05 0)
(4.98612 -0.0014331 0)
(4.98621 -0.000899753 0)
(4.98628 -0.000234414 0)
(4.98606 0.000391281 0)
(5.06759 -0.508311 0)
(5.06773 -0.508215 0)
(5.06779 -0.508162 0)
(5.06783 -0.508027 0)
(5.06782 -0.507987 0)
(5.06783 -0.507877 0)
(5.06786 -0.50768 0)
(5.06785 -0.507591 0)
(5.06787 -0.507596 0)
(5.06787 -0.507618 0)
(5.06791 -0.507643 0)
(5.06791 -0.507452 0)
(5.06793 -0.507238 0)
(5.06794 -0.507133 0)
(5.06811 -0.507316 0)
(5.06825 -0.507662 0)
(5.06831 -0.507816 0)
(5.06842 -0.507716 0)
(5.06847 -0.507379 0)
(5.06847 -0.507249 0)
(5.06842 -0.507103 0)
(5.06834 -0.507033 0)
(5.06824 -0.507047 0)
(5.06813 -0.507024 0)
(5.06804 -0.506886 0)
(5.06788 -0.506679 0)
(5.06759 -0.506554 0)
(5.06743 -0.506639 0)
(5.06714 -0.506843 0)
(5.06704 -0.506913 0)
(5.06695 -0.507032 0)
(5.06693 -0.507119 0)
(5.06694 -0.507089 0)
(5.067 -0.507078 0)
(5.06707 -0.50716 0)
(5.06717 -0.507113 0)
(5.06741 -0.506643 0)
(5.06758 -0.50646 0)
(5.06775 -0.506848 0)
(5.06816 -0.506594 0)
(5.06873 -0.505617 0)
(5.06885 -0.505396 0)
(5.06892 -0.505255 0)
(5.06868 -0.504993 0)
(5.06844 -0.504645 0)
(5.06814 -0.504497 0)
(5.06798 -0.504543 0)
(5.06786 -0.504733 0)
(5.06774 -0.50493 0)
(5.06763 -0.505219 0)
(5.06775 -0.505319 0)
(5.06809 -0.505154 0)
(5.06819 -0.505102 0)
(5.06822 -0.505106 0)
(5.06825 -0.504872 0)
(5.0682 -0.504231 0)
(5.06817 -0.504133 0)
(5.06788 -0.504536 0)
(5.06776 -0.505296 0)
(5.06801 -0.505973 0)
(5.06819 -0.506541 0)
(5.06786 -0.506488 0)
(5.06773 -0.506225 0)
(5.06778 -0.50601 0)
(5.06775 -0.506051 0)
(5.06764 -0.506447 0)
(5.06757 -0.506903 0)
(5.06746 -0.507095 0)
(5.06744 -0.507071 0)
(5.06746 -0.506991 0)
(5.0675 -0.506689 0)
(5.06728 -0.506551 0)
(5.06713 -0.506555 0)
(5.06687 -0.506329 0)
(5.06634 -0.504634 0)
(5.0652 -0.496941 0)
(5.06117 -0.474188 0)
(5.05538 -0.422076 0)
(5.04291 -0.319449 0)
(5.04009 -0.262496 0)
(5.02589 -0.129325 0)
(5.0444 -0.132983 0)
(5.01116 -0.0544449 0)
(5.00368 -0.0360447 0)
(5.00246 -0.0213334 0)
(4.98797 -0.00631392 0)
(4.98199 0.00958509 0)
(4.98087 0.00613996 0)
(4.98076 -0.000660493 0)
(4.98181 -0.00482357 0)
(4.9824 -0.00398003 0)
(4.98384 2.02237e-05 0)
(4.98506 0.00285568 0)
(4.98486 0.00250068 0)
(4.98423 -0.000938745 0)
(4.98382 -0.00386421 0)
(4.98409 -0.00267371 0)
(4.98438 -0.000647162 0)
(4.98459 0.00057484 0)
(4.98461 0.000289961 0)
(5.06703 -0.508574 0)
(5.06732 -0.508463 0)
(5.06739 -0.508431 0)
(5.06746 -0.508303 0)
(5.06745 -0.508241 0)
(5.06749 -0.508068 0)
(5.06759 -0.507931 0)