/*--------------------------------*- C++ -*----------------------------------*\
  =========                 |
  \\      /  F ield         | OpenFOAM: The Open Source CFD Toolbox
   \\    /   O peration     | Website:  https://openfoam.org
    \\  /    A nd           | Version:  7
     \\/     M anipulation  |
\*---------------------------------------------------------------------------*/
FoamFile
{
    version     2.0;
    format      ascii;
    class       volVectorField;
    location    "9.5";
    object      U;
}
// * * * * * * * * * * * * * * * * * * * * * * * * * * * * * * * * * * * * * //

dimensions      [0 1 -1 0 0 0 0];

internalField   nonuniform List<vector> 
90000
(
(5.02483 -0.226928 0)
(5.02394 -0.214793 0)
(5.02349 -0.204863 0)
(5.02167 -0.193245 0)
(5.02069 -0.18639 0)
(5.01874 -0.177525 0)
(5.01737 -0.172328 0)
(5.01519 -0.164902 0)
(5.01352 -0.160645 0)
(5.01134 -0.154664 0)
(5.00954 -0.151011 0)
(5.00732 -0.145695 0)
(5.00559 -0.143352 0)
(5.0033 -0.137983 0)
(5.00162 -0.1365 0)
(4.99937 -0.132107 0)
(4.99761 -0.129484 0)
(4.99543 -0.124726 0)
(4.99376 -0.122769 0)
(4.99169 -0.115581 0)
(4.99099 -0.112593 0)
(4.98995 -0.103697 0)
(4.98995 -0.101372 0)
(4.98878 -0.0892809 0)
(4.98892 -0.0865512 0)
(4.98767 -0.0731922 0)
(4.98787 -0.0715839 0)
(4.98621 -0.0578027 0)
(4.9862 -0.0567091 0)
(4.9842 -0.0431063 0)
(4.98405 -0.0423736 0)
(4.98195 -0.0304805 0)
(4.98106 -0.0265652 0)
(4.98023 -0.0210906 0)
(4.97796 -0.00992786 0)
(4.97905 -0.0109224 0)
(4.97506 0.000874467 0)
(4.97519 0.00211155 0)
(4.97336 0.00704091 0)
(4.97292 0.0100643 0)
(4.97141 0.0143852 0)
(4.97145 0.0170283 0)
(4.97188 0.0174634 0)
(4.97074 0.0148514 0)
(4.97005 0.0119139 0)
(4.97026 0.00330264 0)
(4.96978 -0.00279574 0)
(4.97083 -0.0164655 0)
(4.96916 -0.0210456 0)
(4.96855 -0.0300835 0)
(4.96779 -0.0310557 0)
(4.96627 -0.0305395 0)
(4.96444 -0.029166 0)
(4.96201 -0.0260296 0)
(4.95946 -0.0210209 0)
(4.95712 -0.017146 0)
(4.9561 -0.0129994 0)
(4.9549 -0.00694827 0)
(4.9559 -0.00451104 0)
(4.95616 -0.00316622 0)
(4.95634 -0.00367435 0)
(4.95676 -0.00737537 0)
(4.95721 -0.0114716 0)
(4.95862 -0.0149441 0)
(4.95976 -0.0183723 0)
(4.96015 -0.0190838 0)
(4.96025 -0.0185407 0)
(4.96027 -0.0190138 0)
(4.95933 -0.0139925 0)
(4.95875 -0.00781642 0)
(4.9588 -0.00642861 0)
(4.95883 -0.00263536 0)
(4.95894 -0.00368554 0)
(4.95963 -0.00820432 0)
(4.96041 -0.00973852 0)
(4.96228 -0.0122332 0)
(4.96259 -0.0126855 0)
(4.96254 -0.0106516 0)
(4.96351 -0.0100166 0)
(4.96216 -0.00602385 0)
(4.96239 -0.00666684 0)
(4.96228 -0.00760767 0)
(4.96388 -0.0107565 0)
(4.9643 -0.0110016 0)
(4.96438 -0.0100119 0)
(4.96461 -0.00836725 0)
(4.96437 -0.00607802 0)
(4.96411 -0.00664632 0)
(4.96414 -0.00744599 0)
(4.96548 -0.00820935 0)
(4.96582 -0.00818446 0)
(4.96588 -0.0080126 0)
(4.96591 -0.00817592 0)
(4.96619 -0.00902161 0)
(4.96633 -0.00959766 0)
(4.96668 -0.00957877 0)
(4.96692 -0.00896944 0)
(4.96672 -0.00770692 0)
(4.96647 -0.00767997 0)
(4.96723 -0.00916603 0)
(5.02455 -0.233816 0)
(5.02447 -0.233532 0)
(5.02432 -0.232927 0)
(5.02411 -0.232139 0)
(5.02385 -0.230929 0)
(5.02341 -0.229534 0)
(5.02291 -0.22797 0)
(5.02235 -0.226083 0)
(5.02176 -0.224058 0)
(5.02112 -0.221719 0)
(5.02042 -0.218994 0)
(5.01968 -0.216056 0)
(5.01897 -0.213483 0)
(5.01808 -0.209714 0)
(5.01728 -0.206742 0)
(5.01638 -0.20302 0)
(5.01554 -0.199525 0)
(5.01466 -0.194696 0)
(5.01419 -0.192632 0)
(5.01284 -0.187833 0)
(5.01119 -0.184871 0)
(5.00884 -0.18031 0)
(5.00652 -0.17743 0)
(5.00336 -0.171163 0)
(5.00075 -0.166711 0)
(4.9973 -0.15694 0)
(4.99525 -0.152143 0)
(4.99166 -0.138988 0)
(4.9901 -0.134189 0)
(4.98642 -0.11853 0)
(4.98529 -0.11339 0)
(4.982 -0.0979856 0)
(4.98064 -0.0890648 0)
(4.97863 -0.0770257 0)
(4.97663 -0.0634069 0)
(4.97623 -0.0562024 0)
(4.97372 -0.038431 0)
(4.97483 -0.0386646 0)
(4.97177 -0.0204365 0)
(4.97154 -0.017677 0)
(4.97172 -0.0135917 0)
(4.96993 -0.00376066 0)
(4.97296 -0.00248859 0)
(4.96943 0.00330131 0)
(4.9696 0.00630362 0)
(4.96911 0.0106194 0)
(4.97018 0.0125158 0)
(4.97005 0.00890954 0)
(4.97075 0.00655614 0)
(4.9719 0.00188121 0)
(4.97301 -0.00261053 0)
(4.97384 -0.00896499 0)
(4.97361 -0.0115173 0)
(4.97284 -0.0163421 0)
(4.97231 -0.0167507 0)
(4.97155 -0.0156702 0)
(4.97099 -0.0146249 0)
(4.97034 -0.0125579 0)
(4.96971 -0.00876392 0)
(4.96917 -0.00662162 0)
(4.96846 -0.00597072 0)
(4.96743 -0.00316533 0)
(4.96724 -0.00375486 0)
(4.96716 -0.00511337 0)
(4.96797 -0.0104226 0)
(4.96769 -0.0108576 0)
(4.96828 -0.0169248 0)
(4.9687 -0.0157757 0)
(4.96813 -0.0154007 0)
(4.96724 -0.0138019 0)
(4.96622 -0.00871212 0)
(4.96575 -0.005671 0)
(4.9652 -0.00186445 0)
(4.96503 -0.00210447 0)
(4.96547 -0.00639874 0)
(4.96617 -0.0094918 0)
(4.96607 -0.0141874 0)
(4.96698 -0.0118164 0)
(4.96674 -0.00949776 0)
(4.96616 -0.00689491 0)
(4.96564 -0.0055014 0)
(4.96554 -0.00705485 0)
(4.96568 -0.00855765 0)
(4.96616 -0.0101022 0)
(4.96628 -0.00992448 0)
(4.9663 -0.00788763 0)
(4.96641 -0.00576022 0)
(4.96581 -0.00753175 0)
(4.96562 -0.00836417 0)
(4.9657 -0.00990503 0)
(4.96684 -0.008973 0)
(4.96684 -0.00839305 0)
(4.96688 -0.00777103 0)
(4.96691 -0.00788922 0)
(4.96697 -0.00868573 0)
(4.96711 -0.00883378 0)
(4.96721 -0.00777245 0)
(4.96723 -0.00754601 0)
(4.96693 -0.00877082 0)
(4.9674 -0.00920486 0)
(5.02228 -0.234123 0)
(5.02228 -0.234158 0)
(5.02228 -0.234191 0)
(5.02225 -0.234199 0)
(5.02225 -0.234334 0)
(5.02213 -0.23411 0)
(5.02213 -0.233972 0)
(5.02213 -0.233952 0)
(5.02213 -0.233968 0)
(5.02214 -0.233902 0)
(5.02205 -0.233466 0)
(5.02199 -0.233087 0)
(5.0219 -0.232666 0)
(5.0218 -0.232286 0)
(5.02162 -0.231547 0)
(5.02149 -0.231014 0)
(5.02127 -0.2297 0)
(5.02101 -0.228509 0)
(5.02074 -0.22721 0)
(5.02042 -0.225931 0)
(5.01989 -0.223687 0)
(5.0193 -0.221327 0)
(5.01868 -0.218834 0)
(5.01793 -0.216035 0)
(5.01706 -0.212803 0)
(5.016 -0.208694 0)
(5.01495 -0.204316 0)
(5.01368 -0.199394 0)
(5.01225 -0.193675 0)
(5.01061 -0.188013 0)
(5.00878 -0.180568 0)
(5.00685 -0.173588 0)
(5.00437 -0.163038 0)
(5.00244 -0.155998 0)
(4.99887 -0.139117 0)
(4.99777 -0.135704 0)
(4.99306 -0.112018 0)
(4.99227 -0.110113 0)
(4.98731 -0.0863905 0)
(4.98569 -0.0804393 0)
(4.98206 -0.0639797 0)
(4.97847 -0.0463137 0)
(4.97896 -0.0465922 0)
(4.97511 -0.0242639 0)
(4.97466 -0.025417 0)
(4.97255 -0.0163503 0)
(4.97371 -0.0141125 0)
(4.97192 -0.00846296 0)
(4.97311 -0.0056156 0)
(4.97205 -0.0015898 0)
(4.9714 -0.000961558 0)
(4.97088 -0.000475814 0)
(4.97317 -0.00375451 0)
(4.9742 -0.0056715 0)
(4.97552 -0.00761083 0)
(4.97742 -0.0121217 0)
(4.97789 -0.0129428 0)
(4.97884 -0.0153576 0)
(4.97874 -0.0156193 0)
(4.97839 -0.0155211 0)
(4.97756 -0.0147161 0)
(4.97644 -0.013626 0)
(4.97538 -0.0113096 0)
(4.97451 -0.00831838 0)
(4.97445 -0.00799236 0)
(4.97423 -0.00875346 0)
(4.9744 -0.0110405 0)
(4.97465 -0.0112403 0)
(4.97574 -0.0166643 0)
(4.97604 -0.0151744 0)
(4.97541 -0.0135875 0)
(4.97442 -0.0100948 0)
(4.97349 -0.00747367 0)
(4.97248 -0.00213998 0)
(4.97201 -0.00168644 0)
(4.97225 -0.00309809 0)
(4.97273 -0.00775067 0)
(4.97233 -0.00882738 0)
(4.97253 -0.0128857 0)
(4.97203 -0.0120394 0)
(4.97142 -0.0105 0)
(4.97098 -0.00625889 0)
(4.97086 -0.00632987 0)
(4.97069 -0.0077394 0)
(4.9707 -0.0107677 0)
(4.97048 -0.0107801 0)
(4.97027 -0.00987395 0)
(4.9698 -0.00604154 0)
(4.96969 -0.00584226 0)
(4.96942 -0.00635532 0)
(4.96986 -0.0085565 0)
(4.96992 -0.00875143 0)
(4.96999 -0.00875053 0)
(4.96995 -0.00885653 0)
(4.96985 -0.00907453 0)
(4.96976 -0.00936719 0)
(4.96965 -0.00946745 0)
(4.96956 -0.00863659 0)
(4.96952 -0.00832053 0)
(4.96966 -0.00885697 0)
(5.02005 -0.232323 0)
(5.02006 -0.232386 0)
(5.02008 -0.23242 0)
(5.02008 -0.232409 0)
(5.02011 -0.232362 0)
(5.02012 -0.232466 0)
(5.02014 -0.232674 0)
(5.02014 -0.232717 0)
(5.02021 -0.232831 0)
(5.02023 -0.232866 0)
(5.02026 -0.232858 0)
(5.02029 -0.232853 0)
(5.0203 -0.232905 0)
(5.02032 -0.232978 0)
(5.02034 -0.232897 0)
(5.02025 -0.23317 0)
(5.02015 -0.233181 0)
(5.02015 -0.233244 0)
(5.02012 -0.233452 0)
(5.02011 -0.233558 0)
(5.02003 -0.233599 0)
(5.01989 -0.233474 0)
(5.01981 -0.233401 0)
(5.01982 -0.233152 0)
(5.01984 -0.232877 0)
(5.0198 -0.232368 0)
(5.01972 -0.231709 0)
(5.01962 -0.230845 0)
(5.0195 -0.230116 0)
(5.01928 -0.229178 0)
(5.01875 -0.228073 0)
(5.01808 -0.226548 0)
(5.01726 -0.223976 0)
(5.01637 -0.221105 0)
(5.01519 -0.216658 0)
(5.01397 -0.211544 0)
(5.01241 -0.20495 0)
(5.01082 -0.197067 0)
(5.00865 -0.187166 0)
(5.00626 -0.175148 0)
(5.00396 -0.164715 0)
(4.99972 -0.141812 0)
(4.99903 -0.137928 0)
(4.99302 -0.103095 0)
(4.99298 -0.104191 0)
(4.98628 -0.0734451 0)
(4.98329 -0.0598054 0)
(4.98305 -0.0567903 0)
(4.97951 -0.0322359 0)
(4.97906 -0.0351474 0)
(4.97647 -0.0273083 0)
(4.97723 -0.0232611 0)
(4.97707 -0.0176207 0)
(4.97627 -0.0153395 0)
(4.97654 -0.0128262 0)
(4.97631 -0.0106332 0)
(4.9761 -0.00925154 0)
(4.97648 -0.00865377 0)
(4.97694 -0.00853206 0)
(4.97794 -0.0091546 0)
(4.97796 -0.00967859 0)
(4.97798 -0.0101046 0)
(4.97777 -0.0106865 0)
(4.97716 -0.0100622 0)
(4.97721 -0.01047 0)
(4.97613 -0.00787228 0)
(4.97629 -0.00649685 0)
(4.97655 -0.00539991 0)
(4.97744 -0.00750632 0)
(4.97802 -0.00930879 0)
(4.97864 -0.0124334 0)
(4.97852 -0.0131123 0)
(4.97793 -0.0127361 0)
(4.97665 -0.0108458 0)
(4.97615 -0.00697719 0)
(4.97575 -0.00379763 0)
(4.97578 -0.00197943 0)
(4.97584 -0.00322691 0)
(4.97627 -0.00733606 0)
(4.97616 -0.0100165 0)
(4.97619 -0.0122891 0)
(4.97569 -0.011335 0)
(4.9752 -0.00916674 0)
(4.97465 -0.0065778 0)
(4.97466 -0.00784526 0)
(4.97467 -0.00983476 0)
(4.97449 -0.0105781 0)
(4.97417 -0.00970991 0)
(4.97382 -0.00759979 0)
(4.97353 -0.00600784 0)
(4.97371 -0.00648687 0)
(4.97389 -0.00804251 0)
(4.97392 -0.00759596 0)
(4.97377 -0.0076869 0)
(4.97358 -0.00828699 0)
(4.97334 -0.00907322 0)
(4.97321 -0.00879029 0)
(4.97304 -0.00808447 0)
(4.97287 -0.00757856 0)
(4.97288 -0.00799423 0)
(5.01918 -0.232286 0)
(5.01919 -0.2323 0)
(5.01921 -0.232334 0)
(5.01925 -0.232486 0)
(5.01926 -0.23268 0)
(5.01933 -0.232785 0)
(5.01936 -0.232921 0)
(5.01934 -0.233046 0)
(5.01932 -0.233094 0)
(5.01932 -0.23312 0)
(5.01937 -0.233208 0)
(5.0194 -0.233293 0)
(5.01938 -0.233434 0)
(5.01941 -0.233578 0)
(5.01944 -0.233613 0)
(5.01945 -0.233818 0)
(5.01937 -0.234269 0)
(5.01928 -0.234601 0)
(5.01935 -0.234914 0)
(5.01939 -0.235003 0)
(5.01933 -0.234835 0)
(5.01919 -0.23494 0)
(5.019 -0.235628 0)
(5.01905 -0.235961 0)
(5.01911 -0.236048 0)
(5.01914 -0.236163 0)
(5.01919 -0.236059 0)
(5.01922 -0.236123 0)
(5.01921 -0.236227 0)
(5.01905 -0.236176 0)
(5.01902 -0.236132 0)
(5.01898 -0.236219 0)
(5.01889 -0.236197 0)
(5.01872 -0.236003 0)
(5.01852 -0.235675 0)
(5.01832 -0.235237 0)
(5.01812 -0.234754 0)
(5.01782 -0.233676 0)
(5.01737 -0.232374 0)
(5.01666 -0.229696 0)
(5.0159 -0.22629 0)
(5.01478 -0.220626 0)
(5.01364 -0.2137 0)
(5.01162 -0.203621 0)
(5.00969 -0.192078 0)
(5.00652 -0.176122 0)
(5.00281 -0.156448 0)
(5.0009 -0.14423 0)
(4.99426 -0.104438 0)
(4.99582 -0.106911 0)
(4.98778 -0.0676045 0)
(4.98522 -0.0516606 0)
(4.98752 -0.0525666 0)
(4.98194 -0.0225041 0)
(4.98106 -0.0280103 0)
(4.97884 -0.0187749 0)
(4.9781 -0.0147113 0)
(4.97711 -0.0136982 0)
(4.9769 -0.0125067 0)
(4.97706 -0.0110478 0)
(4.97723 -0.0115269 0)
(4.97709 -0.0121975 0)
(4.97697 -0.0128341 0)
(4.97685 -0.0120249 0)
(4.97707 -0.0110181 0)
(4.97685 -0.0102385 0)
(4.97662 -0.00747444 0)
(4.97674 -0.00339573 0)
(4.9768 -0.00355336 0)
(4.97675 -0.00540441 0)
(4.9772 -0.00770817 0)
(4.97755 -0.00942974 0)
(4.97814 -0.0128517 0)
(4.97778 -0.0124338 0)
(4.9774 -0.0106262 0)
(4.97725 -0.00853078 0)
(4.97741 -0.00710379 0)
(4.97724 -0.00449083 0)
(4.977 -0.00524036 0)
(4.97724 -0.00634321 0)
(4.97767 -0.00827787 0)
(4.97769 -0.0107298 0)
(4.97748 -0.0106727 0)
(4.97707 -0.00984638 0)
(4.97697 -0.00833693 0)
(4.97687 -0.00721323 0)
(4.97707 -0.00765899 0)
(4.97697 -0.00845339 0)
(4.97679 -0.00849038 0)
(4.97649 -0.00764885 0)
(4.97684 -0.00771414 0)
(4.97687 -0.00788674 0)
(4.97687 -0.00897639 0)
(4.97678 -0.00872388 0)
(4.97659 -0.00828648 0)
(4.97641 -0.00857286 0)
(4.97629 -0.00947797 0)
(4.97619 -0.00938644 0)
(4.976 -0.00858772 0)
(4.97597 -0.00859915 0)
(5.0197 -0.231972 0)
(5.01971 -0.232054 0)
(5.01969 -0.232043 0)
(5.01967 -0.231869 0)
(5.01978 -0.231695 0)
(5.0196 -0.231988 0)
(5.01954 -0.232322 0)
(5.01961 -0.232321 0)
(5.01966 -0.232401 0)
(5.01959 -0.232647 0)
(5.01962 -0.232822 0)
(5.01961 -0.232818 0)
(5.01953 -0.232589 0)
(5.01945 -0.232583 0)
(5.01936 -0.23298 0)
(5.01941 -0.233462 0)
(5.01955 -0.233677 0)
(5.0197 -0.233634 0)
(5.01986 -0.233722 0)
(5.01945 -0.234141 0)
(5.01924 -0.234708 0)
(5.01932 -0.235349 0)
(5.01943 -0.235554 0)
(5.01949 -0.235388 0)
(5.01932 -0.235652 0)
(5.01938 -0.236085 0)
(5.01953 -0.236171 0)
(5.01975 -0.236049 0)
(5.02003 -0.23602 0)
(5.01976 -0.236754 0)
(5.01968 -0.237275 0)
(5.01974 -0.237402 0)
(5.01981 -0.237577 0)
(5.0198 -0.237886 0)
(5.0195 -0.238249 0)
(5.01933 -0.238268 0)
(5.01922 -0.238326 0)
(5.019 -0.238165 0)
(5.01902 -0.238059 0)
(5.01892 -0.238023 0)
(5.01917 -0.237588 0)
(5.0192 -0.237314 0)
(5.01917 -0.236884 0)
(5.01909 -0.236083 0)
(5.01883 -0.234416 0)
(5.01823 -0.231991 0)
(5.01715 -0.227555 0)
(5.01555 -0.219926 0)
(5.01365 -0.211361 0)
(5.01101 -0.194787 0)
(5.00783 -0.177381 0)
(5.00452 -0.156378 0)
(5.0017 -0.135532 0)
(4.9955 -0.0967327 0)
(4.99721 -0.0977516 0)
(4.98934 -0.0603502 0)
(4.98569 -0.0408564 0)
(4.98855 -0.0490147 0)
(4.98208 -0.0264265 0)
(4.98069 -0.0210511 0)
(4.98216 -0.0248038 0)
(4.97891 -0.0198514 0)
(4.97873 -0.0177249 0)
(4.97974 -0.0149328 0)
(4.97953 -0.0124547 0)
(4.97707 -0.0118151 0)
(4.97651 -0.00710544 0)
(4.97638 -0.00576331 0)
(4.97586 -0.00653945 0)
(4.97634 -0.00765506 0)
(4.97633 -0.00834592 0)
(4.97644 -0.00844446 0)
(4.9767 -0.00865541 0)
(4.97777 -0.00901574 0)
(4.97836 -0.0099924 0)
(4.97822 -0.0100356 0)
(4.9779 -0.00982413 0)
(4.97744 -0.00940112 0)
(4.97713 -0.00839997 0)
(4.97727 -0.00685336 0)
(4.97738 -0.00668937 0)
(4.97786 -0.00790926 0)
(4.97819 -0.00998771 0)
(4.9784 -0.0113502 0)
(4.97824 -0.0107184 0)
(4.9781 -0.009477 0)
(4.9782 -0.00856883 0)
(4.97831 -0.00774202 0)
(4.97855 -0.0076493 0)
(4.97853 -0.0072131 0)
(4.97839 -0.00652006 0)
(4.9785 -0.0065975 0)
(4.97847 -0.00723944 0)
(4.97867 -0.00836657 0)
(4.97858 -0.00885467 0)
(4.97862 -0.00837123 0)
(4.97859 -0.00839544 0)
(4.97855 -0.00856725 0)
(4.9785 -0.00832572 0)
(4.97846 -0.00802929 0)
(5.02051 -0.233969 0)
(5.02052 -0.233723 0)
(5.02054 -0.23367 0)
(5.02036 -0.234061 0)
(5.02031 -0.234181 0)
(5.02031 -0.234205 0)
(5.02023 -0.23442 0)
(5.02029 -0.234709 0)
(5.0204 -0.234804 0)
(5.02017 -0.234409 0)
(5.02012 -0.234126 0)
(5.02012 -0.23397 0)
(5.01992 -0.234278 0)
(5.01993 -0.234822 0)
(5.02013 -0.235114 0)
(5.02034 -0.235103 0)
(5.02047 -0.235218 0)
(5.02061 -0.235376 0)
(5.02059 -0.235097 0)
(5.02065 -0.234677 0)
(5.02059 -0.23485 0)
(5.02052 -0.235084 0)
(5.02055 -0.235337 0)
(5.02067 -0.235516 0)
(5.02077 -0.235717 0)
(5.02083 -0.235699 0)
(5.02092 -0.235464 0)
(5.0211 -0.235252 0)
(5.02094 -0.235684 0)
(5.02097 -0.236219 0)
(5.02112 -0.236397 0)
(5.02118 -0.236562 0)
(5.02105 -0.236923 0)
(5.02101 -0.237168 0)
(5.02102 -0.237179 0)
(5.0211 -0.237249 0)
(5.02123 -0.237511 0)
(5.02124 -0.237578 0)
(5.02118 -0.237606 0)
(5.02113 -0.237564 0)
(5.02111 -0.237587 0)
(5.02112 -0.23773 0)
(5.02105 -0.237763 0)
(5.0211 -0.237673 0)
(5.02114 -0.237527 0)
(5.02109 -0.237426 0)
(5.02101 -0.237287 0)
(5.02094 -0.236857 0)
(5.02089 -0.236011 0)
(5.02073 -0.234253 0)
(5.02032 -0.231614 0)
(5.01923 -0.225212 0)
(5.01758 -0.215924 0)
(5.01527 -0.203711 0)
(5.01177 -0.181058 0)
(5.00718 -0.155593 0)
(5.00579 -0.141558 0)
(4.99881 -0.0978419 0)
(4.99368 -0.0706739 0)
(4.99309 -0.06379 0)
(4.99093 -0.04456 0)
(4.98442 -0.0160917 0)
(4.98252 -0.00392945 0)
(4.98551 -0.00849477 0)
(4.98444 -0.00203963 0)
(4.97998 -0.00463802 0)
(4.97814 -0.00763628 0)
(4.97754 -0.00840332 0)
(4.97769 -0.00989578 0)
(4.97804 -0.0101726 0)
(4.97789 -0.00945634 0)
(4.97747 -0.00767101 0)
(4.9777 -0.00528308 0)
(4.97886 -0.00612647 0)
(4.9791 -0.00753107 0)
(4.97897 -0.00986475 0)
(4.9795 -0.0117976 0)
(4.97886 -0.0114252 0)
(4.97846 -0.00949564 0)
(4.97887 -0.00770764 0)
(4.97898 -0.00705143 0)
(4.97892 -0.00742078 0)
(4.97918 -0.00828988 0)
(4.97955 -0.00944612 0)
(4.97993 -0.0102682 0)
(4.97957 -0.00952636 0)
(4.97941 -0.00905847 0)
(4.97964 -0.00859099 0)
(4.97979 -0.00859278 0)
(4.9797 -0.00816298 0)
(4.97951 -0.00758012 0)
(4.97935 -0.00674952 0)
(4.97979 -0.00708727 0)
(4.97999 -0.00759127 0)
(4.98008 -0.00834503 0)
(4.98011 -0.00852221 0)
(4.98021 -0.00886739 0)
(4.98027 -0.00898975 0)
(4.98028 -0.00891991 0)
(4.98031 -0.00872765 0)
(5.02148 -0.237015 0)
(5.02145 -0.236972 0)
(5.02143 -0.237031 0)
(5.02144 -0.236941 0)
(5.02153 -0.236869 0)
(5.02145 -0.236985 0)
(5.02137 -0.237149 0)
(5.02144 -0.237429 0)
(5.02149 -0.237481 0)
(5.02128 -0.237072 0)
(5.02132 -0.236702 0)
(5.0215 -0.236555 0)
(5.02166 -0.236687 0)
(5.02168 -0.236887 0)
(5.02182 -0.237094 0)
(5.02196 -0.237132 0)
(5.02199 -0.23695 0)
(5.02216 -0.236774 0)
(5.02217 -0.236894 0)
(5.02203 -0.237323 0)
(5.02199 -0.237506 0)
(5.02186 -0.237415 0)
(5.02184 -0.237284 0)
(5.02183 -0.237365 0)
(5.02192 -0.237462 0)
(5.02205 -0.23744 0)
(5.02217 -0.237505 0)
(5.02221 -0.23771 0)
(5.02219 -0.237663 0)
(5.02226 -0.237472 0)
(5.02225 -0.237599 0)
(5.0221 -0.2381 0)
(5.02211 -0.238533 0)
(5.02216 -0.238492 0)
(5.02221 -0.23827 0)
(5.02222 -0.238221 0)
(5.02225 -0.238229 0)
(5.02227 -0.238234 0)
(5.02229 -0.238184 0)
(5.02229 -0.238083 0)
(5.02226 -0.237987 0)
(5.0222 -0.237961 0)
(5.02215 -0.237995 0)
(5.02212 -0.237869 0)
(5.02213 -0.237689 0)
(5.02225 -0.237498 0)
(5.02244 -0.237368 0)
(5.02265 -0.237233 0)
(5.02298 -0.236814 0)
(5.02342 -0.236344 0)
(5.0235 -0.236224 0)
(5.02366 -0.236088 0)
(5.02376 -0.235385 0)
(5.02364 -0.233606 0)
(5.02328 -0.230776 0)
(5.02229 -0.22472 0)
(5.02081 -0.21522 0)
(5.0176 -0.196526 0)
(5.01541 -0.182228 0)
(5.0104 -0.151886 0)
(5.0038 -0.110744 0)
(5.0019 -0.103965 0)
(5.00322 -0.0940604 0)
(4.99399 -0.037816 0)
(4.99112 -0.0368035 0)
(4.99432 -0.046333 0)
(4.98898 -0.0305552 0)
(4.98771 -0.0220435 0)
(4.98725 -0.0179373 0)
(4.98579 -0.013855 0)
(4.98066 -0.010071 0)
(4.98084 -0.0055009 0)
(4.98096 -0.00635516 0)
(4.98093 -0.00798734 0)
(4.981 -0.0110455 0)
(4.98112 -0.0116558 0)
(4.98124 -0.0115041 0)
(4.9815 -0.010726 0)
(4.98177 -0.00897146 0)
(4.98143 -0.00847306 0)
(4.98099 -0.0086002 0)
(4.9803 -0.00891534 0)
(4.98047 -0.00899142 0)
(4.98061 -0.0088768 0)
(4.98116 -0.00885829 0)
(4.98108 -0.00901941 0)
(4.981 -0.00910266 0)
(4.98088 -0.00924392 0)
(4.98076 -0.0090155 0)
(4.98083 -0.0086235 0)
(4.9809 -0.00797202 0)
(4.9807 -0.00737074 0)
(4.98093 -0.00740764 0)
(4.98101 -0.00750521 0)
(4.98129 -0.00772768 0)
(4.98129 -0.00798454 0)
(4.98141 -0.00847042 0)
(4.98154 -0.00856111 0)
(4.98163 -0.00864132 0)
(4.98166 -0.00856667 0)
(5.02346 -0.238856 0)
(5.0235 -0.2389 0)
(5.0235 -0.238955 0)
(5.02349 -0.238969 0)
(5.02346 -0.238982 0)
(5.02348 -0.238961 0)
(5.02349 -0.23893 0)
(5.0235 -0.238923 0)
(5.02343 -0.238956 0)
(5.02341 -0.238973 0)
(5.02339 -0.239003 0)
(5.02341 -0.238995 0)
(5.02346 -0.239006 0)
(5.0236 -0.2392 0)
(5.0237 -0.239328 0)
(5.02369 -0.239304 0)
(5.0235 -0.239084 0)
(5.02349 -0.238798 0)
(5.02357 -0.238677 0)
(5.02369 -0.238664 0)
(5.02367 -0.238539 0)
(5.02365 -0.238391 0)
(5.0236 -0.238379 0)
(5.02344 -0.238538 0)
(5.02347 -0.238738 0)
(5.02353 -0.238757 0)
(5.02359 -0.238727 0)
(5.02357 -0.238744 0)
(5.02349 -0.238684 0)
(5.02343 -0.238627 0)
(5.02339 -0.238823 0)
(5.02342 -0.239112 0)
(5.0235 -0.239286 0)
(5.02357 -0.239326 0)
(5.02363 -0.239136 0)
(5.02375 -0.238939 0)
(5.02381 -0.238905 0)
(5.02393 -0.238842 0)
(5.02406 -0.238723 0)
(5.02412 -0.238586 0)
(5.02414 -0.238431 0)
(5.02413 -0.238275 0)
(5.0241 -0.238112 0)
(5.02411 -0.237864 0)
(5.02417 -0.237499 0)
(5.0243 -0.237081 0)
(5.02449 -0.23671 0)
(5.02469 -0.236497 0)
(5.02496 -0.236034 0)
(5.02522 -0.235347 0)
(5.02544 -0.234911 0)
(5.02556 -0.234791 0)
(5.02564 -0.234804 0)
(5.02582 -0.234816 0)
(5.02608 -0.23497 0)
(5.02627 -0.234749 0)
(5.02633 -0.233786 0)
(5.02629 -0.232054 0)
(5.02577 -0.227846 0)
(5.02425 -0.219953 0)
(5.02249 -0.212207 0)
(5.01751 -0.184411 0)
(5.01344 -0.160772 0)
(5.0088 -0.138505 0)
(5.00469 -0.106093 0)
(4.99943 -0.0569265 0)
(5.00045 -0.049599 0)
(4.99439 -0.013481 0)
(4.99667 -0.0143482 0)
(4.99079 0.0071693 0)
(4.98631 0.0033097 0)
(4.98509 -0.00372423 0)
(4.98452 -0.00905878 0)
(4.98383 -0.011608 0)
(4.9837 -0.0118444 0)
(4.98378 -0.0108557 0)
(4.98399 -0.00809476 0)
(4.98422 -0.00707077 0)
(4.98406 -0.00770903 0)
(4.98329 -0.00907476 0)
(4.98295 -0.0109256 0)
(4.98232 -0.00988003 0)
(4.98233 -0.00915912 0)
(4.98253 -0.00768346 0)
(4.98222 -0.00769897 0)
(4.98249 -0.00868148 0)
(4.98266 -0.00919795 0)
(4.9826 -0.00956887 0)
(4.98264 -0.00916646 0)
(4.9827 -0.00876293 0)
(4.98276 -0.0083111 0)
(4.98281 -0.00804979 0)
(4.98239 -0.00768141 0)
(4.9823 -0.00752281 0)
(4.98236 -0.00747947 0)
(4.98243 -0.00776635 0)
(4.98259 -0.00846034 0)
(4.98271 -0.00874638 0)
(4.98269 -0.00883349 0)
(4.98263 -0.00896028 0)
(5.02507 -0.24041 0)
(5.02505 -0.2403 0)
(5.02503 -0.240286 0)
(5.02499 -0.240248 0)
(5.02505 -0.240152 0)
(5.02509 -0.240104 0)
(5.02514 -0.239988 0)
(5.02512 -0.239869 0)
(5.02509 -0.239837 0)
(5.0251 -0.239709 0)
(5.02511 -0.239583 0)
(5.0252 -0.239682 0)
(5.02524 -0.23984 0)
(5.02527 -0.239905 0)
(5.02535 -0.239761 0)
(5.02537 -0.239692 0)
(5.02537 -0.239695 0)
(5.02536 -0.239738 0)
(5.02533 -0.239779 0)
(5.0252 -0.239592 0)
(5.0252 -0.23943 0)
(5.02523 -0.239403 0)
(5.02522 -0.239391 0)
(5.0252 -0.239396 0)
(5.02519 -0.239506 0)
(5.02517 -0.23962 0)
(5.02515 -0.239675 0)
(5.02507 -0.239617 0)
(5.02503 -0.239331 0)
(5.02505 -0.239218 0)
(5.02511 -0.2392 0)
(5.02516 -0.239219 0)
(5.02525 -0.239183 0)
(5.02536 -0.239061 0)
(5.02541 -0.238885 0)
(5.02551 -0.238718 0)
(5.0257 -0.238525 0)
(5.02594 -0.238302 0)
(5.02605 -0.238165 0)
(5.0261 -0.238044 0)
(5.02616 -0.237858 0)
(5.02616 -0.237664 0)
(5.02613 -0.237553 0)
(5.0261 -0.237402 0)
(5.02614 -0.23694 0)
(5.02619 -0.236393 0)
(5.02626 -0.236233 0)
(5.02637 -0.236191 0)
(5.02663 -0.235608 0)
(5.0268 -0.234827 0)
(5.0268 -0.234333 0)
(5.02682 -0.234009 0)
(5.02687 -0.233868 0)
(5.02701 -0.233763 0)
(5.02716 -0.234046 0)
(5.02723 -0.234518 0)
(5.02752 -0.234705 0)
(5.02769 -0.234606 0)
(5.02767 -0.234079 0)
(5.0275 -0.233196 0)
(5.02709 -0.23142 0)
(5.02641 -0.229486 0)
(5.02482 -0.222727 0)
(5.02265 -0.21354 0)
(5.0186 -0.190404 0)
(5.01648 -0.175277 0)
(5.01079 -0.138089 0)
(5.00642 -0.108832 0)
(5.00218 -0.0767103 0)
(5.00084 -0.063361 0)
(5.00139 -0.0569798 0)
(4.99756 -0.0385482 0)
(4.99593 -0.0305335 0)
(4.99216 -0.0203957 0)
(4.99043 -0.0149407 0)
(4.98604 -0.00731535 0)
(4.98596 -0.00681368 0)
(4.98533 -0.00863499 0)
(4.98439 -0.0109789 0)
(4.98427 -0.012312 0)
(4.98428 -0.0121257 0)
(4.98449 -0.0106308 0)
(4.98487 -0.00816115 0)
(4.98471 -0.00776542 0)
(4.98428 -0.00809705 0)
(4.98407 -0.00952338 0)
(4.98412 -0.00981527 0)
(4.98412 -0.00944264 0)
(4.98421 -0.00895694 0)
(4.9841 -0.00884794 0)
(4.98402 -0.00887829 0)
(4.98402 -0.00876233 0)
(4.9841 -0.00834109 0)
(4.98377 -0.00749723 0)
(4.98344 -0.00731745 0)
(4.98355 -0.00764358 0)
(4.98362 -0.00796588 0)
(4.98365 -0.00824042 0)
(4.9836 -0.00858346 0)
(4.98368 -0.00885881 0)
(5.02626 -0.240996 0)
(5.02625 -0.240997 0)
(5.02624 -0.241 0)
(5.02625 -0.240971 0)
(5.02626 -0.240936 0)
(5.02625 -0.240928 0)
(5.02631 -0.24084 0)
(5.0264 -0.240747 0)
(5.02641 -0.240635 0)
(5.02639 -0.24049 0)
(5.02639 -0.240291 0)
(5.02642 -0.240222 0)
(5.02647 -0.240283 0)
(5.0265 -0.240364 0)
(5.02651 -0.240422 0)
(5.02654 -0.240378 0)
(5.02657 -0.240308 0)
(5.0266 -0.240198 0)
(5.02654 -0.240001 0)
(5.02644 -0.239953 0)
(5.02634 -0.239881 0)
(5.02641 -0.239597 0)
(5.02644 -0.239432 0)
(5.02647 -0.239498 0)
(5.02644 -0.23959 0)
(5.02633 -0.239609 0)
(5.0263 -0.239408 0)
(5.02625 -0.239168 0)
(5.02615 -0.239041 0)
(5.02616 -0.23882 0)
(5.02625 -0.23864 0)
(5.02632 -0.238521 0)
(5.02641 -0.23839 0)
(5.02651 -0.238214 0)
(5.02659 -0.237971 0)
(5.02669 -0.237642 0)
(5.02675 -0.237436 0)
(5.02679 -0.23732 0)
(5.02689 -0.237228 0)
(5.02696 -0.237222 0)
(5.02699 -0.237268 0)
(5.02699 -0.237197 0)
(5.02696 -0.237043 0)
(5.02696 -0.236842 0)
(5.02693 -0.236559 0)
(5.02689 -0.236458 0)
(5.02698 -0.236431 0)
(5.02727 -0.236154 0)
(5.02751 -0.235614 0)
(5.02748 -0.235268 0)
(5.02733 -0.235009 0)
(5.02723 -0.234618 0)
(5.02721 -0.234392 0)
(5.02722 -0.234285 0)
(5.02727 -0.234145 0)
(5.0274 -0.234299 0)
(5.02763 -0.234643 0)
(5.0279 -0.234761 0)
(5.02785 -0.234377 0)
(5.02781 -0.23417 0)
(5.02762 -0.233971 0)
(5.02714 -0.233626 0)
(5.02689 -0.233388 0)
(5.02648 -0.232701 0)
(5.0258 -0.230812 0)
(5.0248 -0.225592 0)
(5.02252 -0.213089 0)
(5.01972 -0.196928 0)
(5.01371 -0.163098 0)
(5.00989 -0.13575 0)
(5.00222 -0.0843079 0)
(5.00307 -0.0674877 0)
(4.99575 -0.0228039 0)
(4.99931 -0.0171782 0)
(4.99349 0.00971707 0)
(4.98957 0.0057749 0)
(4.9869 -0.00567928 0)
(4.9853 -0.0122499 0)
(4.98504 -0.0133245 0)
(4.98524 -0.0128013 0)
(4.98556 -0.0106252 0)
(4.98641 -0.00646273 0)
(4.98622 -0.00676229 0)
(4.98556 -0.00826803 0)
(4.98533 -0.00944493 0)
(4.98522 -0.00953324 0)
(4.98511 -0.00919496 0)
(4.98496 -0.00827281 0)
(4.98494 -0.00849946 0)
(4.9848 -0.00878651 0)
(4.98477 -0.00929737 0)
(4.98451 -0.00904299 0)
(4.98474 -0.00843337 0)
(4.98476 -0.00789098 0)
(4.98463 -0.00751 0)
(4.98436 -0.00765549 0)
(4.98431 -0.00777586 0)
(4.98435 -0.00825971 0)
(4.98435 -0.00874331 0)
(4.98452 -0.0092431 0)
(5.02677 -0.240666 0)
(5.02676 -0.240651 0)
(5.02677 -0.240655 0)
(5.02679 -0.240722 0)
(5.02678 -0.240806 0)
(5.02688 -0.240609 0)
(5.02704 -0.2404 0)
(5.02711 -0.240327 0)
(5.02713 -0.239993 0)
(5.02709 -0.239815 0)
(5.02712 -0.23988 0)
(5.02716 -0.239938 0)
(5.0272 -0.239842 0)
(5.02725 -0.239869 0)
(5.02723 -0.240007 0)
(5.02714 -0.240091 0)
(5.0271 -0.23999 0)
(5.02702 -0.239925 0)
(5.02695 -0.239856 0)
(5.0269 -0.23971 0)
(5.02687 -0.239636 0)
(5.02693 -0.239374 0)
(5.02697 -0.239212 0)
(5.02694 -0.239266 0)
(5.02689 -0.23918 0)
(5.02682 -0.238949 0)
(5.02668 -0.238693 0)
(5.02654 -0.238602 0)
(5.02645 -0.238655 0)
(5.02652 -0.23848 0)
(5.02664 -0.238126 0)
(5.02669 -0.238074 0)
(5.02674 -0.238166 0)
(5.02681 -0.238043 0)
(5.02691 -0.237441 0)
(5.02686 -0.236802 0)
(5.02681 -0.236516 0)
(5.02681 -0.236469 0)
(5.02684 -0.236415 0)
(5.02689 -0.236265 0)
(5.02697 -0.236205 0)
(5.02697 -0.236446 0)
(5.02698 -0.236568 0)
(5.02697 -0.236571 0)
(5.02698 -0.236725 0)
(5.02699 -0.236876 0)
(5.02706 -0.236916 0)
(5.02749 -0.236546 0)
(5.02768 -0.236115 0)
(5.02758 -0.235605 0)
(5.02731 -0.235281 0)
(5.02713 -0.234678 0)
(5.02713 -0.234113 0)
(5.02715 -0.233938 0)
(5.02713 -0.233891 0)
(5.02711 -0.234254 0)
(5.02726 -0.234932 0)
(5.02767 -0.235444 0)
(5.02782 -0.235013 0)
(5.0277 -0.23454 0)
(5.02759 -0.234369 0)
(5.02724 -0.234165 0)
(5.0268 -0.2342 0)
(5.02665 -0.234251 0)
(5.02634 -0.234329 0)
(5.02618 -0.234357 0)
(5.02632 -0.234051 0)
(5.026 -0.230926 0)
(5.02505 -0.226486 0)
(5.02182 -0.210135 0)
(5.01912 -0.197914 0)
(5.01126 -0.151333 0)
(5.00934 -0.136004 0)
(5.00328 -0.0877802 0)
(5.00332 -0.0729428 0)
(5.0028 -0.0575751 0)
(4.99971 -0.0433614 0)
(4.99602 -0.0295822 0)
(4.99296 -0.0179654 0)
(4.98798 -0.0121734 0)
(4.98717 -0.00620236 0)
(4.98633 -0.00765195 0)
(4.98505 -0.0104446 0)
(4.98499 -0.011713 0)
(4.98516 -0.0114286 0)
(4.98546 -0.0100137 0)
(4.98556 -0.00817539 0)
(4.98542 -0.00799014 0)
(4.98508 -0.00867309 0)
(4.98499 -0.00985836 0)
(4.98506 -0.00990598 0)
(4.98515 -0.00925092 0)
(4.98516 -0.00844965 0)
(4.98513 -0.00818346 0)
(4.9851 -0.00805991 0)
(4.98472 -0.00791764 0)
(4.98452 -0.00758426 0)
(4.98462 -0.00786612 0)
(4.98468 -0.0083664 0)
(4.98476 -0.00926606 0)
(5.02623 -0.239558 0)
(5.02625 -0.239575 0)
(5.02627 -0.239594 0)
(5.02632 -0.239508 0)
(5.02644 -0.239429 0)
(5.02648 -0.239399 0)
(5.02656 -0.239325 0)
(5.02659 -0.239243 0)
(5.02663 -0.239121 0)
(5.02673 -0.238982 0)
(5.0269 -0.239078 0)
(5.02702 -0.239133 0)
(5.02711 -0.239108 0)
(5.02713 -0.239097 0)
(5.02713 -0.239012 0)
(5.02707 -0.238849 0)
(5.02698 -0.238779 0)
(5.02693 -0.238792 0)
(5.02693 -0.238742 0)
(5.0269 -0.238768 0)
(5.02687 -0.23866 0)
(5.02693 -0.238151 0)
(5.02686 -0.237869 0)
(5.02681 -0.238022 0)
(5.0268 -0.237964 0)
(5.02674 -0.237723 0)
(5.02669 -0.237788 0)
(5.02665 -0.238045 0)
(5.02663 -0.238046 0)
(5.02663 -0.237922 0)
(5.02664 -0.23811 0)
(5.02657 -0.238337 0)
(5.02658 -0.238086 0)
(5.02663 -0.23751 0)
(5.0266 -0.237138 0)
(5.02654 -0.237041 0)
(5.02642 -0.237024 0)
(5.02634 -0.236959 0)
(5.02633 -0.236923 0)
(5.02632 -0.236925 0)
(5.02633 -0.237036 0)
(5.0264 -0.236963 0)
(5.02651 -0.236747 0)
(5.02664 -0.23667 0)
(5.02678 -0.23682 0)
(5.02696 -0.236945 0)
(5.02717 -0.236946 0)
(5.02737 -0.236818 0)
(5.02756 -0.236464 0)
(5.02751 -0.236187 0)
(5.02738 -0.236015 0)
(5.02721 -0.235738 0)
(5.02682 -0.235305 0)
(5.02673 -0.235211 0)
(5.02671 -0.235183 0)
(5.02671 -0.235362 0)
(5.02684 -0.235749 0)
(5.0271 -0.236073 0)
(5.02741 -0.235957 0)
(5.02737 -0.235618 0)
(5.02725 -0.235338 0)
(5.02722 -0.235204 0)
(5.027 -0.235004 0)
(5.0267 -0.234962 0)
(5.02638 -0.235246 0)
(5.02609 -0.235623 0)
(5.02626 -0.235665 0)
(5.02662 -0.235681 0)
(5.0265 -0.23496 0)
(5.02604 -0.233937 0)
(5.02504 -0.230339 0)
(5.02291 -0.222067 0)
(5.02037 -0.207235 0)
(5.01398 -0.170536 0)
(5.01284 -0.151012 0)
(5.00284 -0.0808042 0)
(5.00499 -0.0653822 0)
(4.99659 -0.0159921 0)
(4.99666 -0.00825403 0)
(4.99207 0.0106564 0)
(4.98686 -0.00121482 0)
(4.98435 -0.0107832 0)
(4.98419 -0.0134189 0)
(4.98461 -0.0129726 0)
(4.98579 -0.0107385 0)
(4.98648 -0.00585479 0)
(4.98619 -0.00644077 0)
(4.9853 -0.00801306 0)
(4.98471 -0.00957769 0)
(4.98478 -0.00967809 0)
(4.98497 -0.00896929 0)
(4.98549 -0.00878112 0)
(4.98533 -0.00829559 0)
(4.98515 -0.00857614 0)
(4.98499 -0.00863481 0)
(4.98461 -0.00804189 0)
(4.98451 -0.00763853 0)
(4.98461 -0.00778498 0)
(4.98449 -0.00884865 0)
(4.9846 -0.00913759 0)
(5.0263 -0.23673 0)
(5.02633 -0.236716 0)
(5.02635 -0.236688 0)