/*--------------------------------*- C++ -*----------------------------------*\
  =========                 |
  \\      /  F ield         | OpenFOAM: The Open Source CFD Toolbox
   \\    /   O peration     | Website:  https://openfoam.org
    \\  /    A nd           | Version:  7
     \\/     M anipulation  |
\*---------------------------------------------------------------------------*/
FoamFile
{
    version     2.0;
    format      ascii;
    class       volScalarField;
    location    "4.5";
    object      p;
}
// * * * * * * * * * * * * * * * * * * * * * * * * * * * * * * * * * * * * * //

dimensions      [1 -1 -2 0 0 0 0];

internalField   nonuniform List<scalar> 
90000
(
0.54532
0.577949
0.613171
0.647689
0.681179
0.713232
0.743637
0.772392
0.798896
0.823584
0.845576
0.865667
0.883189
0.898361
0.912137
0.922748
0.932991
0.940017
0.946602
0.951873
0.955252
0.958552
0.95971
0.958551
0.955198
0.949117
0.941666
0.935183
0.928706
0.92904
0.930816
0.933427
0.936683
0.939721
0.941786
0.943753
0.944901
0.944412
0.942859
0.940187
0.938008
0.935974
0.936344
0.937874
0.940393
0.9424
0.943289
0.942594
0.940961
0.938741
0.936767
0.937012
0.938219
0.93964
0.939889
0.93927
0.937584
0.936183
0.93632
0.937013
0.93758
0.937444
0.936633
0.935803
0.93565
0.936072
0.936088
0.935649
0.935047
0.934707
0.934706
0.934462
0.933916
0.933315
0.932976
0.932607
0.932105
0.931536
0.930812
0.930083
0.929528
0.929373
0.929331
0.928997
0.928334
0.927957
0.9278
0.928129
0.929683
0.93479
0.946949
0.967754
0.992652
1.01324
1.026
1.0336
1.03952
1.04536
1.04954
1.05611
0.518935
0.519303
0.520406
0.522632
0.526633
0.532651
0.541539
0.553118
0.568407
0.586574
0.608676
0.632984
0.660781
0.689116
0.719908
0.748996
0.77795
0.804494
0.82775
0.847746
0.865266
0.878123
0.889955
0.89819
0.905322
0.909498
0.914844
0.920657
0.929211
0.936253
0.939922
0.94304
0.94599
0.946659
0.946135
0.945199
0.944187
0.941391
0.938745
0.936626
0.936509
0.937246
0.938835
0.940404
0.943108
0.943319
0.942311
0.940282
0.937736
0.936528
0.936463
0.937832
0.939268
0.940423
0.93967
0.937597
0.936143
0.935852
0.936552
0.937507
0.937707
0.936829
0.935966
0.935479
0.935882
0.936266
0.935943
0.935302
0.934973
0.934827
0.934865
0.93448
0.933902
0.933345
0.933104
0.932689
0.93214
0.931549
0.930808
0.93011
0.929647
0.929533
0.929417
0.929004
0.928314
0.927953
0.927832
0.928169
0.929746
0.934856
0.946911
0.967557
0.99249
1.01335
1.02611
1.03362
1.03956
1.04542
1.04964
1.05627
0.518864
0.518861
0.518857
0.518856
0.518866
0.518903
0.519026
0.519299
0.51984
0.520777
0.522396
0.524979
0.529057
0.535156
0.543812
0.556092
0.57164
0.592337
0.616231
0.645115
0.676241
0.710511
0.745464
0.780578
0.815781
0.847707
0.876632
0.897878
0.915132
0.925187
0.931836
0.935276
0.937503
0.938664
0.939409
0.938078
0.935146
0.932162
0.933624
0.936652
0.94003
0.943937
0.946952
0.946647
0.945645
0.942183
0.938039
0.935951
0.935456
0.936058
0.939073
0.942242
0.941654
0.940247
0.937645
0.935775
0.935578
0.937052
0.938579
0.93841
0.93739
0.93605
0.935357
0.935978
0.936861
0.936569
0.935674
0.934964
0.934907
0.935259
0.934946
0.934353
0.933764
0.933332
0.933032
0.932583
0.932052
0.93147
0.930767
0.930073
0.929663
0.929615
0.929381
0.928915
0.928216
0.927884
0.927814
0.928283
0.929839
0.934824
0.946789
0.967328
0.992353
1.01342
1.02613
1.03359
1.03957
1.04543
1.04973
1.05643
0.518894
0.518883
0.518871
0.518859
0.518848
0.518845
0.518832
0.518821
0.518815
0.51881
0.518807
0.518816
0.518838
0.518931
0.519156
0.519629
0.520462
0.521987
0.524496
0.52885
0.535425
0.545903
0.560326
0.581052
0.607026
0.64076
0.678848
0.720668
0.762775
0.800764
0.836721
0.861921
0.884397
0.896791
0.908484
0.914363
0.92028
0.927416
0.936571
0.944507
0.949849
0.951502
0.950689
0.948648
0.942194
0.935852
0.934029
0.934441
0.937051
0.940783
0.944304
0.943555
0.941216
0.937265
0.934995
0.935326
0.937493
0.939551
0.939245
0.937878
0.936032
0.935101
0.935803
0.937057
0.937081
0.936157
0.934978
0.934881
0.935409
0.935463
0.934935
0.934188
0.933864
0.933645
0.933172
0.932593
0.932092
0.931509
0.930813
0.9302
0.929897
0.929888
0.929496
0.928883
0.92819
0.927947
0.92797
0.928339
0.929823
0.934752
0.946589
0.967081
0.992287
1.01357
1.02611
1.03351
1.03957
1.04543
1.04983
1.05662
0.518909
0.518905
0.518901
0.518896
0.518889
0.518882
0.518873
0.51886
0.518837
0.518815
0.518796
0.518782
0.518773
0.518782
0.518763
0.518748
0.518735
0.518726
0.518733
0.518769
0.518892
0.519183
0.51985
0.521251
0.523798
0.5287
0.536717
0.550677
0.570531
0.600068
0.636272
0.681268
0.72861
0.77644
0.821635
0.858796
0.891462
0.913753
0.926674
0.933041
0.938757
0.9417
0.941339
0.937697
0.932675
0.934151
0.93651
0.941179
0.944854
0.945074
0.944054
0.939492
0.935595
0.934277
0.934967
0.938112
0.94049
0.939755
0.938406
0.936277
0.935048
0.935769
0.93741
0.937553
0.936663
0.935356
0.93488
0.935303
0.935736
0.935358
0.934608
0.934019
0.933935
0.933686
0.933091
0.932494
0.932053
0.931483
0.930851
0.930301
0.930085
0.929923
0.929488
0.92884
0.928146
0.927995
0.928044
0.928382
0.929826
0.934644
0.946404
0.9669
0.992288
1.01364
1.026
1.03338
1.03955
1.04542
1.04993
1.05682
0.518914
0.51891
0.518905
0.518901
0.518896
0.518891
0.518886
0.51888
0.518873
0.518865
0.518856
0.518845
0.518833
0.518817
0.518804
0.518776
0.518753
0.518732
0.518717
0.51871
0.518716
0.518766
0.518739
0.518724
0.518711
0.518757
0.518912
0.519374
0.520468
0.523025
0.527949
0.537979
0.554012
0.580958
0.616428
0.663751
0.715955
0.768705
0.817104
0.851691
0.881974
0.896907
0.911718
0.918052
0.927668
0.939605
0.947085
0.952015
0.951073
0.94811
0.939933
0.932321
0.932533
0.934375
0.938362
0.94251
0.941849
0.939287
0.935711
0.934633
0.935457
0.937492
0.938445
0.937673
0.935702
0.934735
0.935116
0.936003
0.935939
0.935239
0.93448
0.934107
0.93401
0.933647
0.933009
0.932491
0.932022
0.931422
0.930872
0.930442
0.930383
0.930052
0.92941
0.928736
0.928145
0.928065
0.928129
0.928399
0.929772
0.934542
0.946214
0.966697
0.992304
1.01366
1.0259
1.03325
1.03955
1.04546
1.05005
1.05706
0.518909
0.518904
0.518899
0.518894
0.518889
0.518884
0.518878
0.518872
0.518865
0.518858
0.518851
0.518844
0.518836
0.518828
0.518819
0.518809
0.518798
0.518785
0.518771
0.518756
0.518738
0.518717
0.518702
0.518692
0.518686
0.518684
0.518718
0.518697
0.518678
0.518679
0.518737
0.518947
0.519571
0.52134
0.525248
0.534105
0.549726
0.577664
0.616809
0.669116
0.727257
0.784551
0.838686
0.880315
0.913047
0.930401
0.937243
0.9429
0.942519
0.937138
0.930897
0.932432
0.936469
0.941332
0.943574
0.942524
0.938565
0.934729
0.933954
0.934933
0.937985
0.939003
0.938301
0.935879
0.934539
0.934821
0.936203
0.93628
0.935501
0.934639
0.934391
0.934431
0.934126
0.933533
0.932988
0.932609
0.932121
0.931435
0.930899
0.930604
0.930458
0.9301
0.929403
0.928647
0.928186
0.928137
0.928199
0.92844
0.929746
0.934402
0.945934
0.966448
0.992355
1.0136
1.02574
1.0331
1.03955
1.04551
1.05014
1.05729
0.518898
0.518894
0.518889
0.518884
0.518878
0.518872
0.518867
0.518861
0.518855
0.518847
0.51884
0.518832
0.518825
0.518818
0.518811
0.518803
0.518795
0.518787
0.518779
0.51877
0.518761
0.518751
0.518742
0.518733
0.518722
0.518713
0.518699
0.518696
0.518697
0.5187
0.51871
0.51875
0.518732
0.518728
0.518766
0.51893
0.519501
0.521257
0.52561
0.536001
0.555154
0.590129
0.636846
0.699564
0.763224
0.821658
0.860565
0.892014
0.907151
0.917065
0.928619
0.940114
0.949399
0.949746
0.947667
0.940009
0.931746
0.93228
0.934456
0.938118
0.940562
0.939372
0.935882
0.933967
0.93447
0.936385
0.937519
0.936611
0.93496
0.934215
0.934494
0.934599
0.934092
0.933343
0.932883
0.932583
0.932042
0.93148
0.931023
0.930967
0.930627
0.929961
0.929232
0.928575
0.928213
0.928244
0.928256
0.928422
0.929657
0.934307
0.945654
0.9662
0.992426
1.01342
1.0255
1.03293
1.03957
1.04566
1.05034
1.05757
0.518863
0.51886
0.518855
0.51885
0.518845
0.51884
0.518835
0.518831
0.518826
0.51882
0.518814
0.518808
0.518802
0.518797
0.518791
0.518786
0.518781
0.518775
0.51877
0.518765
0.518761
0.518756
0.518752
0.518747
0.518744
0.518741
0.518737
0.518734
0.518732
0.51873
0.518729
0.518727
0.518734
0.518745
0.518756
0.518786
0.518774
0.518778
0.518824
0.519071
0.519913
0.522672
0.529293
0.545703
0.574689
0.623803
0.686589
0.756122
0.821341
0.87724
0.915478
0.931726
0.940116
0.942614
0.937382
0.928772
0.931287
0.936858
0.941427
0.941638
0.939893
0.935186
0.932623
0.933265
0.936677
0.938179
0.937367
0.935025
0.933947
0.934406
0.935089
0.934675
0.933885
0.933167
0.932912
0.932594
0.931971
0.931439
0.931175
0.931178
0.930773
0.929922
0.929105
0.928541
0.928266
0.928355
0.928312
0.928413
0.929584
0.934038
0.945226
0.965955
0.992537
1.01287
1.02506
1.03279
1.03965
1.04587
1.05066
1.05792
0.518826
0.518821
0.518817
0.518812
0.518808
0.518803
0.518798
0.518793
0.518789
0.518784
0.518779
0.518774
0.518768
0.518764
0.518759
0.518755
0.518752
0.518749
0.518745
0.518742
0.51874
0.518739
0.518737
0.518737
0.518736
0.518735
0.518736
0.518736
0.518735
0.518735
0.518735
0.518734
0.518734
0.518734
0.518733
0.518732
0.518734
0.518735
0.518737
0.518727
0.518721
0.518742
0.51887
0.519425
0.521318
0.527176
0.541692
0.571198
0.622095
0.69047
0.765187
0.8295
0.871417
0.901143
0.912532
0.924644
0.938877
0.94956
0.948347
0.944157
0.934159
0.930647
0.932069
0.936552
0.939944
0.938706
0.935016
0.933277
0.933864
0.935769
0.935585
0.934623
0.933582
0.933213
0.933089
0.932661
0.931971
0.931432
0.931541
0.931331
0.930717
0.929702
0.929063
0.928605
0.928354
0.928441
0.928357
0.928318
0.92937
0.933783
0.944881
0.965808
0.992436
1.01273
1.02462
1.03275
1.03982
1.04612
1.05084
1.05813
0.518831
0.518826
0.518821
0.518817
0.518812
0.518807
0.518803
0.518798
0.518793
0.518788
0.518784
0.51878
0.518775
0.518771
0.518767
0.518765
0.518762
0.518758
0.518755
0.518753
0.518751
0.51875
0.518749
0.518747
0.518746
0.518745
0.518744
0.518743
0.518741
0.518737
0.518735
0.518732
0.518728
0.518724
0.518718
0.51871
0.518702
0.518692
0.518682
0.51867
0.518653
0.518639
0.518623
0.518608
0.518618
0.518712
0.519185
0.521015
0.527132
0.542896
0.577755
0.635175
0.711208
0.788947
0.859759
0.9085
0.930615
0.941042
0.941234
0.932075
0.927994
0.932076
0.938674
0.941523
0.940016
0.934715
0.931761
0.932569
0.936257
0.936651
0.935477
0.933658
0.93316
0.933522
0.933269
0.932475
0.931818
0.931694
0.931847
0.931389
0.930415
0.929547
0.929153
0.928748
0.928472
0.928499
0.928354
0.928215
0.929188
0.93351
0.944536
0.965707
0.992303
1.01165
1.02403
1.0331
1.0404
1.04647
1.05104
1.05836
0.518858
0.518854
0.51885
0.518847
0.518843
0.51884
0.518838
0.518834
0.51883
0.518828
0.518826
0.518822
0.518819
0.518815
0.518812
0.51881
0.518808
0.518806
0.518804
0.518798
0.518796
0.518794
0.518789
0.518785
0.518782
0.518777
0.518773
0.518767
0.51876
0.518752
0.518745
0.518736
0.518727
0.518717
0.518706
0.518694
0.518681
0.518666
0.518651
0.518634
0.518615
0.518596
0.518577
0.518557
0.518538
0.518522
0.5185
0.518511
0.518616
0.519172
0.521518
0.529499
0.550974
0.594345
0.665788
0.749007
0.823681
0.872581
0.90017
0.913149
0.928698
0.943434
0.947563
0.944907
0.935108
0.929646
0.931195
0.935868
0.938419
0.936689
0.933333
0.933056
0.933592
0.933952
0.933214
0.932119
0.931839
0.932395
0.932118
0.931169
0.930132
0.929458
0.929251
0.928906
0.928675
0.928535
0.928247
0.928072
0.929019
0.933248
0.944239
0.965623
0.991481
1.01089
1.02374
1.03282
1.04036
1.04639
1.05114
1.05852
0.518888
0.518886
0.518885
0.518883
0.518881
0.51888
0.518878
0.518875
0.518872
0.518871
0.518871
0.518868
0.518867
0.518865
0.518861
0.518858
0.518856
0.518852
0.51885
0.518845
0.518841
0.518837
0.518832
0.518826
0.518818
0.518811
0.518804
0.518796
0.518786
0.518776
0.518765
0.518753
0.518739
0.518725
0.51871
0.518694
0.518676
0.518658
0.518638
0.518618
0.518599
0.51858
0.518561
0.518542
0.518521
0.5185
0.518489
0.518486
0.51848
0.518479
0.518506
0.518684
0.519602
0.523504
0.536209
0.569277
0.629384
0.712513
0.800082
0.87362
0.91838
0.934714
0.93993
0.933325
0.926736
0.931162
0.937998
0.940235
0.938192
0.932422
0.93153
0.932961
0.934892
0.934226
0.932266
0.93166
0.932576
0.932898
0.932215
0.930748
0.929851
0.929586
0.92937
0.929025
0.928862
0.928555
0.928037
0.927881
0.928846
0.932996
0.943938
0.965235
0.990653
1.01025
1.02349
1.03292
1.04052
1.04639
1.05108
1.05867
0.518912
0.51891
0.518908
0.518906
0.518905
0.518904
0.518902
0.518898
0.518894
0.518891
0.51889
0.518888
0.518887
0.518883
0.518877
0.518873
0.518871
0.518868
0.518863
0.518857
0.518852
0.518846
0.51884
0.518833
0.518826
0.518819
0.518811
0.518802
0.518794
0.518784
0.518774
0.518763
0.518751
0.518738
0.518725
0.51871
0.518693
0.518674
0.518654
0.518633
0.518612
0.51859
0.518568
0.518548
0.518528
0.518506
0.518495
0.518489
0.518485
0.51848
0.518479
0.518484
0.518487
0.518535
0.518897
0.520906
0.528664
0.552909
0.60341
0.687239
0.778184
0.846906
0.89113
0.90819
0.924347
0.942015
0.946959
0.943488
0.932621
0.928945
0.931648
0.935902
0.935488
0.932932
0.931327
0.932
0.93364
0.9332
0.931539
0.930368
0.9299
0.929731
0.929468
0.929175
0.928962
0.928492
0.927786
0.927739
0.928738
0.932776
0.943625
0.964744
0.989684
1.00968
1.02345
1.03317
1.04114
1.04652
1.0511
1.0588
0.518928
0.518925
0.518921
0.518917
0.518914
0.518912
0.518908
0.518904
0.518899
0.518894
0.51889
0.518886
0.518881
0.518876
0.51887
0.518864
0.518859
0.518854
0.518847
0.518841
0.518835
0.518829
0.518822
0.518813
0.518807
0.518801
0.518793
0.518786
0.518778
0.51877
0.518762
0.518752
0.518743
0.518734
0.518725
0.518714
0.518702
0.518689
0.518673
0.518655
0.518636
0.518616
0.518595
0.518575
0.518554
0.518529
0.518516
0.518507
0.518497
0.518486
0.51848
0.518482
0.518479
0.518464
0.51844
0.518441
0.518591
0.519697
0.524767
0.543313
0.588355
0.667352
0.762002
0.851986
0.909406
0.932802
0.938529
0.930965
0.926203
0.931467
0.938352
0.937567
0.933847
0.93028
0.930731
0.934287
0.934144
0.932542
0.9306
0.930341
0.930284
0.929888
0.929501
0.929321
0.929015
0.928306
0.927532
0.927604
0.92864
0.932547
0.943279
0.963984
0.988578
1.00925
1.02363
1.03349
1.04083
1.04619
1.05111
1.05896
0.518946
0.518941
0.518936
0.518931
0.518925
0.51892
0.518914
0.518908
0.518901
0.518894
0.518888
0.518881
0.518874
0.518867
0.518859
0.518852
0.518845
0.518837
0.518828
0.51882
0.518812
0.518805
0.518797
0.518789
0.518782
0.518776
0.518769
0.518762
0.518755
0.518749
0.518743
0.518737
0.518733
0.518729
0.518725
0.518722
0.518717
0.518709
0.518699
0.518687
0.518674
0.518658
0.518639
0.518615
0.518589
0.518561
0.51854
0.518525
0.51851
0.518497
0.518488
0.518484
0.518474
0.518457
0.518433
0.518415
0.518392
0.518364
0.518439
0.519101
0.52288
0.537775
0.578624
0.658188
0.755631
0.838307
0.885743
0.907206
0.923812
0.944667
0.944277
0.939112
0.929139
0.929548
0.933394
0.936235
0.934287
0.930923
0.93021
0.930984
0.930627
0.929935
0.929463
0.929411
0.929053
0.928046
0.92741
0.92753
0.928562
0.932291
0.942828
0.962976
0.987421
1.00902
1.02401
1.03391
1.04077
1.04603
1.05116
1.05913
0.518961
0.518955
0.518948
0.518941
0.518934
0.518927
0.51892
0.518913
0.518905
0.518897
0.518889
0.51888
0.518871
0.518862
0.518853
0.518845
0.518836
0.518827
0.518817
0.518809
0.518801
0.518793
0.518786
0.518779
0.518773
0.518768
0.518761
0.518754
0.518749
0.518746
0.518743
0.518741
0.518741
0.518741
0.518739
0.518741
0.518743
0.518738
0.51873
0.518723
0.518713
0.518698
0.518676
0.51865
0.518619
0.518588
0.51856
0.518535
0.518512
0.518489
0.518471
0.51846
0.51845
0.518437
0.518424
0.518412
0.518403
0.518395
0.518368
0.518329
0.518362
0.518832
0.521915
0.535275
0.576103
0.653675
0.754279
0.853872
0.909071
0.935779
0.936537
0.92599
0.927483
0.934411
0.938319
0.936155
0.930564
0.929551
0.931358
0.931633
0.930674
0.929549
0.929435
0.929506
0.928873
0.927796
0.927356
0.927592
0.9285
0.932001
0.942243
0.961702
0.986259
1.00895
1.02454
1.03414
1.04072
1.04598
1.05144
1.0595
0.518961
0.518955
0.518948
0.518941
0.518933
0.518926
0.518919
0.518912
0.518904
0.518897
0.518889
0.51888
0.518872
0.518864
0.518856
0.518848
0.51884
0.518832
0.518823
0.518816
0.51881
0.518803
0.518797
0.518789
0.518784
0.51878
0.518775
0.518773
0.518772
0.518771
0.51877
0.518768
0.518771
0.518773
0.51877
0.518769
0.518773
0.51877
0.518762
0.51875
0.518736
0.518717
0.518694
0.518667
0.518638
0.518608
0.518577
0.518545
0.518515
0.518489
0.518465
0.518446
0.518435
0.518425
0.518414
0.518408
0.518412
0.518422
0.518411
0.518389
0.518364
0.518291
0.518304
0.51869
0.521657
0.534738
0.576367
0.659802
0.76254
0.848399
0.890337
0.910067
0.931793
0.945296
0.942202
0.931336
0.927944
0.930608
0.933418
0.931865
0.929411
0.929341
0.929927
0.929675
0.928558
0.927554
0.927615
0.927653
0.928324
0.931631
0.941508
0.960208
0.985061
1.00897
1.02476
1.03433
1.04072
1.046
1.05195
1.0604
0.518951
0.518946
0.518939
0.518933
0.518928
0.518922
0.518915
0.518908
0.518901
0.518895
0.518887
0.51888
0.518874
0.518867
0.51886
0.518854
0.518847
0.51884
0.518834
0.518828
0.518823
0.518818
0.518812
0.518805
0.518802
0.5188
0.518799
0.5188
0.518802
0.518803
0.518801
0.5188
0.518803
0.518804
0.518797
0.518792
0.518792
0.518789
0.518778
0.518763
0.518746
0.518725
0.518701
0.518677
0.518652
0.518625
0.518596
0.518565
0.518534
0.518503
0.518472
0.518446
0.51843
0.518419
0.518413
0.518412
0.518419
0.518435
0.518432
0.518412
0.518379
0.51833
0.518261
0.5182
0.518231
0.51865
0.521782
0.53629
0.583003
0.668933
0.778814
0.874128
0.920104
0.935812
0.929701
0.924848
0.930775
0.936008
0.934263
0.929246
0.928148
0.929294
0.930547
0.929572
0.928141
0.927947
0.928
0.927677
0.928041
0.931254
0.940622
0.958577
0.98391
1.00887
1.02486
1.03446
1.04075
1.04634
1.05253
1.0602
0.518941
0.518937
0.518933
0.518929
0.518925
0.518921
0.518917
0.518912
0.518908
0.518903
0.518898
0.518894
0.518889
0.518884
0.518878
0.518873
0.518869
0.518866
0.518861
0.518859
0.518858
0.518857
0.518854
0.51885
0.518848
0.518848
0.518848
0.518847
0.518844
0.518843
0.518838
0.518826
0.518819
0.518813
0.518804
0.518794
0.518788
0.518784
0.518774
0.518757
0.518738
0.518718
0.518699
0.518679
0.518658
0.518635
0.518614
0.518593
0.518572
0.518546
0.518512
0.518474
0.518449
0.51844
0.518434
0.518429
0.518427
0.51844
0.518441
0.518419
0.518385
0.518339
0.518279
0.51821
0.518172
0.518151
0.518199
0.518718
0.522476
0.539947
0.592441
0.691718
0.79494
0.869852
0.899087
0.921132
0.94307
0.94069
0.933887
0.926517
0.928236
0.931441
0.930786
0.928842
0.928111
0.928697
0.928195
0.927197
0.927651
0.930931
0.939602
0.956881
0.982809
1.00865
1.0248
1.03451
1.04098
1.04713
1.05329
1.0606
0.518951
0.518951
0.518951
0.518952
0.518952
0.518952
0.518952
0.518953
0.518953
0.518952
0.51895
0.51895
0.518948
0.518947
0.518947
0.518946
0.518945
0.518946
0.518944
0.518942
0.518941
0.518939
0.518936
0.518931
0.518925
0.518919
0.518911
0.518902
0.51889
0.518876
0.518861
0.518843
0.518825
0.518808
0.518789
0.518768
0.51875
0.518734
0.518713
0.518692
0.518672
0.518654
0.51864
0.518631
0.518626
0.518625
0.518623
0.518625
0.518625
0.518617
0.518597
0.518565
0.518529
0.518496
0.518469
0.518447
0.518435
0.518433
0.518433
0.51841
0.518376
0.518338
0.518292
0.518233
0.518191
0.518179
0.518176
0.518167
0.518223
0.518919
0.523801
0.547179
0.610524
0.713815
0.828612
0.902808
0.931519
0.932967
0.923274
0.926662
0.933914
0.933127
0.929281
0.927901
0.928962
0.929225
0.927908
0.926587
0.92735
0.93061
0.938409
0.955234
0.981719
1.00783
1.02445
1.03463
1.04157
1.04821
1.05423
1.06116
0.519
0.519002
0.519004
0.519009
0.519012
0.519015
0.519019
0.519022
0.519024
0.519026
0.519028
0.519029
0.51903
0.519031
0.519032
0.519033
0.519033
0.519032
0.51903
0.519026
0.519023
0.519017
0.519011
0.519002
0.518991
0.518978
0.518963
0.518946
0.518926
0.518904
0.518879
0.518851
0.518823
0.518795
0.518765
0.518736
0.518709
0.518683
0.518654
0.518624
0.518607
0.518595
0.518589
0.51859
0.518596
0.51861
0.518632
0.518663
0.51869
0.518695
0.518689
0.518665
0.518625
0.518573
0.518515
0.518458
0.518423
0.518407
0.518393
0.51837
0.518345
0.518327
0.518309
0.518282
0.51825
0.518237
0.518225
0.518198
0.518158
0.518129
0.518215
0.519327
0.526576
0.557659
0.636886
0.74919
0.840089
0.891833
0.910793
0.935526
0.940268
0.934975
0.926457
0.928115
0.930583
0.929492
0.926147
0.926078
0.927668
0.930482
0.93714
0.953567
0.980323
1.00632
1.02373
1.03514
1.04267
1.0495
1.05463
1.06117
0.519047
0.519049
0.519051
0.519054
0.519056
0.519058
0.51906
0.519062
0.519065
0.519066
0.519067
0.519067
0.519067
0.519067
0.519066
0.519067
0.519068
0.519065
0.519061
0.519057
0.519053
0.519046
0.519038
0.519028
0.519017
0.519003
0.518987
0.518967
0.518945
0.51892
0.51889
0.518859
0.518826
0.518791
0.518756
0.518724
0.518695
0.518667
0.518635
0.518599
0.518584
0.518577
0.518575
0.518576
0.518589
0.518618
0.518653
0.518692
0.518728
0.518742
0.518737
0.518715
0.518676
0.518623
0.518553
0.518473
0.518403
0.518372
0.518352
0.518333
0.518321
0.518326
0.518345
0.518345
0.518327
0.518296
0.518261
0.518212
0.51816
0.518126
0.518093
0.518077
0.518252
0.520142
0.532031
0.576064
0.668412
0.792425
0.879583
0.930816
0.930147
0.922799
0.926424
0.933142
0.931959
0.92711
0.924973
0.926308
0.928402
0.93021
0.935915
0.952249
0.978334
1.00454
1.02344
1.03567
1.04415
1.05108
1.05535
1.06163
0.519063
0.519065
0.519066
0.519067
0.519067
0.519068
0.519068
0.519068
0.519068
0.519068
0.519068
0.519067
0.519067
0.519065
0.519062
0.519062
0.519062
0.519059
0.519054
0.51905
0.519045
0.519039
0.519032
0.519023
0.519012
0.518999
0.518983
0.518964
0.518944
0.518923
0.518899
0.518871
0.518841
0.518807
0.518772
0.518737
0.518703
0.518673
0.518642
0.51861
0.518591
0.518587
0.518586
0.518594
0.518617
0.518646
0.518678
0.518711
0.518742
0.518757
0.518749
0.518724
0.518686
0.518634
0.518569
0.51849
0.518405
0.518355
0.518335
0.518322
0.518318
0.518349
0.518397
0.518401
0.518385
0.51834
0.518278
0.518207
0.518148
0.518116
0.51809
0.518063
0.518046
0.518078
0.518512
0.521987
0.541918
0.602253
0.712299
0.833814
0.875535
0.906312
0.933267
0.938019
0.932837
0.92374
0.924857
0.928741
0.928705
0.929112
0.934492
0.950558
0.975423
1.00272
1.0237
1.03696
1.04408
1.05019
1.05486
1.06186
0.519034
0.519032
0.51903
0.519027
0.519023
0.519019
0.519015
0.519012
0.519009
0.519007
0.519004
0.518999
0.518994
0.518991
0.518987
0.518984
0.518981
0.518979
0.518978
0.518977
0.518976
0.518978
0.518978
0.518973
0.518968
0.518965
0.51896
0.518951
0.518939
0.518923
0.518906
0.51889
0.518875
0.518859
0.51884
0.518816
0.518787
0.518755
0.518723
0.518694
0.518673
0.518661
0.518658
0.518661
0.518665
0.518672
0.518686
0.518698
0.518708
0.518721
0.518713
0.518687
0.518656
0.518619
0.518572
0.518509
0.518427
0.51836
0.518341
0.518336
0.518346
0.518391
0.518432
0.518432
0.518409
0.518357
0.518278
0.518187
0.518133
0.518109
0.518095
0.518107
0.518137
0.518192
0.518187
0.518242
0.519129
0.525595
0.559746
0.642394
0.764862
0.872041
0.916988
0.929947
0.920242
0.923006
0.929864
0.930428
0.927585
0.927601
0.933749
0.948773
0.971926
1.00112
1.02413
1.03676
1.04391
1.04979
1.05502
1.06216
0.518969
0.518964
0.518959
0.518953
0.518948
0.518942
0.518936
0.518931
0.518926
0.518921
0.518915
0.518911
0.518908
0.518905
0.518903
0.518903
0.518903
0.518903
0.518903
0.518905
0.518909
0.518914
0.518919
0.518925
0.51893
0.518932
0.51893
0.518929
0.518931
0.518935
0.51894
0.518946
0.518954
0.518958
0.518954
0.518942
0.518924
0.518899
0.51887
0.51884
0.518812
0.518784
0.518756
0.518728
0.518706
0.518687
0.518663
0.518642
0.518628
0.518622
0.518617
0.518602
0.51859
0.51858
0.518565
0.51854
0.51849
0.518434
0.518409
0.518403
0.518406
0.518422
0.518441
0.518434
0.518404
0.518346
0.518258
0.518166
0.518124
0.518126
0.518149
0.518209
0.518254
0.518279
0.518255
0.518206
0.518082
0.518178
0.52025
0.533587
0.590248
0.695424
0.801031
0.882893
0.903808
0.929021
0.935419
0.931546
0.924063
0.926508
0.933516
0.945804
0.968354
0.99984
1.0245
1.0367
1.04355
1.04976
1.05572
1.06263
0.518951
0.518945
0.518939
0.518933
0.518927
0.51892
0.518914
0.518909
0.518904
0.518899
0.518893
0.518889
0.518887
0.518885
0.518885
0.518884
0.518884
0.518885
0.51889
0.518891
0.518893
0.518895
0.518902
0.518911
0.518923
0.518935
0.518947
0.518959
0.518973
0.518986
0.518998
0.519006
0.519014
0.519026
0.519026
0.519014
0.518996
0.518978
0.518957
0.518932
0.518902
0.518869
0.518827
0.518779
0.518734
0.51869
0.518637
0.518589
0.518571
0.518558
0.518548
0.518544
0.518551
0.518568
0.518594
0.518605
0.518595
0.518562
0.518512
0.51847
0.518447
0.518432
0.518432
0.518415
0.518376
0.518321
0.518241
0.518162
0.518157
0.518185
0.518256
0.518339
0.518348
0.518327
0.518276
0.518153
0.517971
0.517742
0.517688
0.518189
0.523814
0.550748
0.630052
0.754655
0.859545
0.925598
0.924294
0.922046
0.923071
0.927922
0.933236
0.941822
0.964563
0.99853
1.02293
1.03633
1.04424
1.05084
1.05697
1.06334
0.518973
0.518968
0.518963
0.518958
0.518954
0.518951
0.518947
0.518943
0.51894
0.518939
0.518936
0.518937
0.518938
0.518936
0.518936
0.518939
0.51894
0.518941
0.518948
0.518957
0.518968
0.518978
0.518983
0.518987
0.51899
0.518995
0.518999
0.519003
0.519008
0.519014
0.519022
0.519025
0.519025
0.51903
0.519028
0.519013
0.518997
0.518983
0.518966
0.518945
0.51892
0.518888
0.518848
0.518805
0.518758
0.518703
0.518635
0.518576
0.518553
0.518542
0.518534
0.518534
0.518552
0.518601
0.518667
0.518696
0.518686
0.518645
0.51858
0.518503
0.518447
0.518417
0.518395
0.518374
0.518346
0.518308
0.518245
0.518226
0.518247
0.518296
0.51838
0.518405
0.518384
0.518338
0.518211
0.518004
0.517794
0.517651
0.517573
0.517588
0.517763
0.519445
0.531896
0.578953
0.687075
0.822563
0.866322
0.906677
0.925615
0.933397
0.930457
0.937198
0.963565
0.996171
1.01994
1.0365
1.04589
1.05259
1.0582
1.06469
0.519169
0.519166
0.519162
0.519158
0.519155
0.519151
0.519149
0.519148
0.519146
0.519146
0.519146
0.519147
0.519148
0.519149
0.51915
0.519148
0.519144
0.51914
0.519134
0.519124
0.519114
0.519104
0.519091
0.519073
0.519052
0.519037
0.519032
0.519023
0.519011
0.518999
0.518982
0.518958
0.518939
0.51892
0.518897
0.518878
0.518865
0.518858
0.518853
0.51885
0.518846
0.518838
0.518827
0.518812
0.518789
0.518752
0.518695
0.518626
0.5186
0.518598
0.518601
0.518615
0.518642
0.518683
0.518723
0.518733
0.518713
0.518659
0.518581
0.518504
0.518422
0.51837
0.518353
0.518341
0.518342
0.518347
0.518358
0.518375
0.518391
0.518417
0.518437
0.518426
0.518384
0.518254
0.518038
0.517828
0.517692
0.517597
0.517605
0.517698
0.517897
0.517939
0.518399
0.522516
0.550176
0.629329
0.756694
0.871263
0.908858
0.926318
0.922181
0.934326
0.962965
0.991499
1.01767
1.03811
1.04875
1.05508
1.05938
1.06462
0.519385
0.519383
0.519383
0.519384
0.519384
0.519383
0.519381
0.519378
0.519375
0.519371
0.519366
0.51936
0.519353
0.519345
0.519337
0.519327
0.519312
0.519293
0.51927
0.519241
0.519208
0.519179
0.519151
0.519116
0.51908
0.519046
0.519013
0.518987
0.518958
0.518923
0.518883
0.518839
0.5188
0.51877
0.518745
0.518732
0.518728
0.518727
0.51873
0.518741
0.51876
0.518786
0.51881
0.518837
0.518855
0.518856
0.518845
0.518813
0.518782
0.518765
0.51876
0.518754
0.518745
0.518739
0.518744
0.518735
0.518691
0.518612
0.518532
0.518468
0.518392
0.518343
0.518337
0.518352
0.51841
0.518487
0.51855
0.51855
0.51852
0.518481
0.51845
0.518378
0.518233
0.518033
0.517838
0.517732
0.517637
0.517649
0.517743
0.517904
0.517993
0.517976
0.517885
0.517906
0.519356
0.530909
0.588786
0.69754
0.804598
0.888862
0.907431
0.939756
0.965388
0.985505
1.01514
1.04002
1.05094
1.05469
1.05978
1.06521
0.519417
0.51942
0.519424
0.519431
0.519438
0.519439
0.519436
0.519432
0.519429
0.519424
0.519415
0.519405
0.519394
0.51938
0.519364
0.519354
0.519343
0.519323
0.519293
0.519257
0.519219
0.519183
0.519151
0.519118
0.51908
0.519041
0.518999
0.518957
0.518916
0.518875
0.518833
0.518795
0.518766
0.518738
0.518711
0.518701
0.518698
0.518695
0.518697
0.518717
0.518756
0.518809
0.518869
0.51893
0.518974
0.518984
0.518976
0.518954
0.518923
0.51888
0.518837
0.518802
0.518783
0.51875
0.518688
0.518642
0.518592
0.518525
0.518488
0.518442
0.518389
0.518388
0.51842
0.51849
0.518574
0.518653
0.518661
0.518634
0.518575
0.518496
0.518365
0.518184
0.517988
0.517818
0.517746
0.51768
0.517719
0.517835
0.517985
0.51806
0.518036
0.517986
0.517825
0.517525
0.517396
0.517823
0.523875
0.552349
0.644295
0.772725
0.870122
0.926796
0.946186
0.977606
1.01674
1.04046
1.04706
1.05283
1.0599
1.06566
0.51921
0.519206
0.519205
0.519205
0.519205
0.519208
0.519211
0.519218
0.519227
0.519237
0.519248
0.519262
0.519268
0.519259
0.519246
0.519231
0.519213
0.519195
0.519186
0.519178
0.519165
0.519146
0.519129
0.519114
0.519098
0.519079
0.519053
0.519021
0.51898
0.518928
0.518879
0.518843
0.518833
0.518833
0.518829
0.518838
0.518848
0.518841
0.518845
0.518873
0.518921
0.518969
0.519002
0.519023
0.519039
0.519033
0.519
0.518966
0.518943
0.518897
0.518819
0.518773
0.518735
0.518669
0.518564
0.51851
0.518492
0.518481
0.518477
0.518505
0.518544
0.518602
0.518661
0.518696
0.518717
0.518712
0.518696
0.518642
0.518521
0.518344
0.518136
0.517953
0.517812
0.517736
0.517719
0.517792
0.517958
0.518098
0.518146
0.518111
0.518045
0.517861
0.517584
0.517375
0.517296
0.517309
0.517519
0.519485
0.536388
0.592018
0.713606
0.842658
0.901942
0.968357
1.02275
1.03658
1.04191
1.05304
1.06073
1.06617
0.518985
0.518985
0.518985
0.518986
0.518988
0.51899
0.518995
0.519001
0.51901
0.51902
0.519032
0.519045
0.519059
0.519073
0.519088
0.519102
0.519113
0.519123
0.519131
0.519137
0.519147
0.519158
0.519167
0.519187
0.51921
0.519216
0.519212
0.519194
0.51917
0.519146
0.519124
0.51913
0.51916
0.519173
0.519172
0.519172
0.519158
0.51912
0.519078
0.519066
0.519065
0.519063
0.519059
0.519064
0.519069
0.519028
0.518941
0.518896
0.51886
0.518784
0.51869
0.518667
0.518661
0.518626
0.518541
0.518485
0.518477
0.518521
0.518634
0.51877
0.51888
0.518907
0.518893
0.518827
0.518755
0.518696
0.518609
0.518451
0.518243
0.518061
0.517922
0.517851
0.517748
0.51776
0.517871
0.518087
0.518233
0.518232
0.518201
0.518111
0.517887
0.517577
0.51738
0.517339
0.517344
0.517487
0.517658
0.5177
0.518412
0.524426
0.564472
0.658769
0.806487
0.940396
1.02166
1.02125
1.04003
1.05657
1.06223
1.06701
0.518995
0.519012
0.519023
0.519031
0.519038
0.519047
0.519057
0.519067
0.519077
0.519088
0.519098
0.519112
0.519129
0.519142
0.519167
0.519194
0.519197
0.519216
0.519257
0.519302