/*--------------------------------*- C++ -*----------------------------------*\
  =========                 |
  \\      /  F ield         | OpenFOAM: The Open Source CFD Toolbox
   \\    /   O peration     | Website:  https://openfoam.org
    \\  /    A nd           | Version:  7
     \\/     M anipulation  |
\*---------------------------------------------------------------------------*/
FoamFile
{
    version     2.0;
    format      ascii;
    class       volVectorField;
    location    "4.5";
    object      U;
}
// * * * * * * * * * * * * * * * * * * * * * * * * * * * * * * * * * * * * * //

dimensions      [0 1 -1 0 0 0 0];

internalField   nonuniform List<vector> 
90000
(
(2.15265 -0.380798 0)
(2.13693 -0.351335 0)
(2.11892 -0.310531 0)
(2.10789 -0.284213 0)
(2.09391 -0.246512 0)
(2.087 -0.225802 0)
(2.07597 -0.192826 0)
(2.07159 -0.17726 0)
(2.06289 -0.149834 0)
(2.05988 -0.138767 0)
(2.05324 -0.117656 0)
(2.05079 -0.110016 0)
(2.04629 -0.0959897 0)
(2.04395 -0.0897649 0)
(2.04181 -0.0839659 0)
(2.0397 -0.0767744 0)
(2.03932 -0.0768375 0)
(2.03733 -0.0705507 0)
(2.03731 -0.0703466 0)
(2.03512 -0.0665337 0)
(2.03421 -0.0640069 0)
(2.0331 -0.0605838 0)
(2.03125 -0.0567005 0)
(2.02976 -0.0527327 0)
(2.02745 -0.0479826 0)
(2.02558 -0.0408726 0)
(2.02418 -0.0353821 0)
(2.02484 -0.0285982 0)
(2.02575 -0.0256695 0)
(2.02549 -0.0257048 0)
(2.02456 -0.0262818 0)
(2.02345 -0.0269274 0)
(2.02192 -0.0283602 0)
(2.02111 -0.0295969 0)
(2.021 -0.0311147 0)
(2.0208 -0.0316755 0)
(2.02163 -0.0315628 0)
(2.02229 -0.0315808 0)
(2.02351 -0.0315149 0)
(2.02496 -0.0307642 0)
(2.02554 -0.029979 0)
(2.02631 -0.029789 0)
(2.0263 -0.0299393 0)
(2.02585 -0.0301361 0)
(2.02502 -0.0313165 0)
(2.02411 -0.032969 0)
(2.02441 -0.0338166 0)
(2.02474 -0.0338951 0)
(2.02531 -0.0332335 0)
(2.02601 -0.032343 0)
(2.02657 -0.0315563 0)
(2.02658 -0.0315699 0)
(2.02621 -0.032126 0)
(2.02585 -0.0331035 0)
(2.0259 -0.0343683 0)
(2.02598 -0.0342784 0)
(2.02629 -0.0338246 0)
(2.02668 -0.0329464 0)
(2.0266 -0.0329515 0)
(2.02641 -0.033427 0)
(2.02643 -0.034386 0)
(2.02636 -0.034637 0)
(2.02648 -0.0344843 0)
(2.0269 -0.0339988 0)
(2.02696 -0.0342176 0)
(2.02705 -0.0347015 0)
(2.02696 -0.0352065 0)
(2.02708 -0.0351557 0)
(2.02731 -0.0350299 0)
(2.02762 -0.0352275 0)
(2.02784 -0.035482 0)
(2.02798 -0.0357299 0)
(2.02825 -0.0357825 0)
(2.02851 -0.0359095 0)
(2.02892 -0.0360961 0)
(2.02922 -0.0364013 0)
(2.02947 -0.0365988 0)
(2.02974 -0.0367671 0)
(2.03008 -0.0369482 0)
(2.03034 -0.036998 0)
(2.03079 -0.0373233 0)
(2.03083 -0.0376648 0)
(2.03097 -0.0381486 0)
(2.03098 -0.0383819 0)
(2.03114 -0.0385638 0)
(2.03109 -0.0387288 0)
(2.03091 -0.0389745 0)
(2.03044 -0.0395485 0)
(2.02902 -0.0400533 0)
(2.02472 -0.0403677 0)
(2.01474 -0.04094 0)
(1.99778 -0.0408891 0)
(1.97755 -0.0394773 0)
(1.96124 -0.0386523 0)
(1.95104 -0.0382276 0)
(1.94355 -0.0373979 0)
(1.93714 -0.0364067 0)
(1.93131 -0.0359237 0)
(1.92643 -0.0366839 0)
(1.91795 -0.0369133 0)
(2.16872 -0.410169 0)
(2.16838 -0.409818 0)
(2.16744 -0.408761 0)
(2.1657 -0.406586 0)
(2.16271 -0.402518 0)
(2.15859 -0.39654 0)
(2.15265 -0.387011 0)
(2.14584 -0.375561 0)
(2.13676 -0.35861 0)
(2.1277 -0.341101 0)
(2.11606 -0.316777 0)
(2.10548 -0.293233 0)
(2.09341 -0.26554 0)
(2.08101 -0.234447 0)
(2.07243 -0.211029 0)
(2.05752 -0.172402 0)
(2.05384 -0.155254 0)
(2.03873 -0.118699 0)
(2.03724 -0.102373 0)
(2.02647 -0.0743333 0)
(2.0256 -0.0598121 0)
(2.01802 -0.0383211 0)
(2.01691 -0.0271492 0)
(2.01244 -0.0136737 0)
(2.00992 -0.00733231 0)
(2.0099 -0.00345137 0)
(2.00892 -0.00536799 0)
(2.00833 -0.00851323 0)
(2.00776 -0.0151067 0)
(2.00849 -0.0215656 0)
(2.0104 -0.028459 0)
(2.01297 -0.0314792 0)
(2.01396 -0.0336916 0)
(2.01612 -0.0341598 0)
(2.01679 -0.0340757 0)
(2.01764 -0.0340818 0)
(2.01821 -0.0335676 0)
(2.01945 -0.0315544 0)
(2.01962 -0.0293447 0)
(2.01992 -0.0275913 0)
(2.01985 -0.0274805 0)
(2.01937 -0.0284579 0)
(2.01864 -0.0307577 0)
(2.01841 -0.0331392 0)
(2.01699 -0.0355041 0)
(2.0177 -0.0355619 0)
(2.01817 -0.0350785 0)
(2.01914 -0.0329891 0)
(2.01918 -0.0318348 0)
(2.02079 -0.0304617 0)
(2.02085 -0.0307652 0)
(2.02055 -0.0322291 0)
(2.0201 -0.034138 0)
(2.01973 -0.03486 0)
(2.0201 -0.0343659 0)
(2.02044 -0.0336188 0)
(2.02177 -0.0322004 0)
(2.02192 -0.0324075 0)
(2.02185 -0.0333009 0)
(2.02155 -0.0343945 0)
(2.02161 -0.0346627 0)
(2.02192 -0.03441 0)
(2.02259 -0.0336507 0)
(2.02315 -0.0337646 0)
(2.02306 -0.0344084 0)
(2.02294 -0.0351507 0)
(2.02308 -0.0352007 0)
(2.02348 -0.0348918 0)
(2.02393 -0.0349267 0)
(2.02398 -0.0353065 0)
(2.0242 -0.0356578 0)
(2.02439 -0.0357164 0)
(2.02467 -0.035656 0)
(2.02514 -0.0359029 0)
(2.02547 -0.0362059 0)
(2.02573 -0.0364166 0)
(2.02605 -0.0365511 0)
(2.02641 -0.036719 0)
(2.02682 -0.0368772 0)
(2.02717 -0.0369604 0)
(2.02753 -0.0372966 0)
(2.02765 -0.0376894 0)
(2.02769 -0.0382062 0)
(2.02771 -0.0383592 0)
(2.02791 -0.0384895 0)
(2.02798 -0.0386817 0)
(2.0279 -0.0389749 0)
(2.02741 -0.0395833 0)
(2.02599 -0.0400422 0)
(2.02179 -0.040246 0)
(2.01191 -0.0406595 0)
(1.99506 -0.0403859 0)
(1.97494 -0.0389404 0)
(1.95872 -0.0383799 0)
(1.94858 -0.0378895 0)
(1.94109 -0.0369052 0)
(1.93471 -0.0358552 0)
(1.92888 -0.0354248 0)
(1.92408 -0.0361988 0)
(1.9156 -0.0364728 0)
(2.16789 -0.410033 0)
(2.16786 -0.410016 0)
(2.16783 -0.409989 0)
(2.16779 -0.409944 0)
(2.16774 -0.409888 0)
(2.16767 -0.409785 0)
(2.16753 -0.409625 0)
(2.16725 -0.409338 0)
(2.16674 -0.408846 0)
(2.16594 -0.407859 0)
(2.16473 -0.406259 0)
(2.1629 -0.403433 0)
(2.16027 -0.399281 0)
(2.15649 -0.39263 0)
(2.15157 -0.383753 0)
(2.14481 -0.370485 0)
(2.13741 -0.355325 0)
(2.12695 -0.332507 0)
(2.11821 -0.312249 0)
(2.10511 -0.279838 0)
(2.09681 -0.257056 0)
(2.08366 -0.22052 0)
(2.07707 -0.198465 0)
(2.0659 -0.163677 0)
(2.06179 -0.146313 0)
(2.05286 -0.115896 0)
(2.05081 -0.105823 0)
(2.04192 -0.0866047 0)
(2.04032 -0.0765587 0)
(2.0305 -0.061768 0)
(2.0286 -0.0546756 0)
(2.02502 -0.0483427 0)
(2.02403 -0.0433451 0)
(2.02155 -0.0392253 0)
(2.02107 -0.0350513 0)
(2.01977 -0.0313572 0)
(2.01825 -0.0276198 0)
(2.01773 -0.024544 0)
(2.01636 -0.0245582 0)
(2.01405 -0.0262305 0)
(2.01262 -0.0292894 0)
(2.01134 -0.0329077 0)
(2.01115 -0.0354225 0)
(2.01148 -0.0373536 0)
(2.01232 -0.0367146 0)
(2.01465 -0.0347793 0)
(2.01582 -0.0327567 0)
(2.01694 -0.0306783 0)
(2.01734 -0.0297223 0)
(2.01709 -0.030735 0)
(2.01619 -0.0326599 0)
(2.01508 -0.0355193 0)
(2.01537 -0.035726 0)
(2.01638 -0.0347355 0)
(2.01726 -0.0334645 0)
(2.01848 -0.0318255 0)
(2.01872 -0.0322446 0)
(2.01836 -0.033319 0)
(2.01784 -0.0349375 0)
(2.01791 -0.0350596 0)
(2.01856 -0.0345884 0)
(2.01948 -0.033677 0)
(2.02012 -0.0336513 0)
(2.01991 -0.0342172 0)
(2.01954 -0.0351988 0)
(2.01967 -0.0353113 0)
(2.02025 -0.0349834 0)
(2.02074 -0.0348073 0)
(2.0207 -0.0350873 0)
(2.02068 -0.0356641 0)
(2.02086 -0.0358201 0)
(2.02123 -0.035695 0)
(2.02149 -0.0357323 0)
(2.02185 -0.0360737 0)
(2.02214 -0.0364119 0)
(2.02244 -0.0364999 0)
(2.02281 -0.0365966 0)
(2.02323 -0.0367529 0)
(2.02368 -0.0368529 0)
(2.02411 -0.0370066 0)
(2.02435 -0.0374068 0)
(2.02448 -0.0378491 0)
(2.02454 -0.0382994 0)
(2.02468 -0.0383527 0)
(2.02502 -0.0384974 0)
(2.02511 -0.0387178 0)
(2.02502 -0.0390865 0)
(2.02468 -0.0396657 0)
(2.02339 -0.0400569 0)
(2.01926 -0.0401172 0)
(2.00957 -0.0403301 0)
(1.99299 -0.0398332 0)
(1.97301 -0.0383664 0)
(1.95677 -0.0381751 0)
(1.94682 -0.0376033 0)
(1.93938 -0.0364206 0)
(1.93307 -0.0353371 0)
(1.92722 -0.0349413 0)
(1.92243 -0.0357286 0)
(1.91391 -0.0360296 0)
(2.16642 -0.409759 0)
(2.16638 -0.409758 0)
(2.16635 -0.409761 0)
(2.16632 -0.409763 0)
(2.16627 -0.409775 0)
(2.16623 -0.409772 0)
(2.16619 -0.409783 0)
(2.16613 -0.409763 0)
(2.16608 -0.409725 0)
(2.16603 -0.409672 0)
(2.16599 -0.409613 0)
(2.16593 -0.409525 0)
(2.16585 -0.409426 0)
(2.16574 -0.409239 0)
(2.16553 -0.408974 0)
(2.16511 -0.408513 0)
(2.16446 -0.407637 0)
(2.16342 -0.406005 0)
(2.16185 -0.403234 0)
(2.15927 -0.398467 0)
(2.15574 -0.391391 0)
(2.15006 -0.379477 0)
(2.14351 -0.365063 0)
(2.133 -0.340552 0)
(2.12374 -0.317288 0)
(2.1075 -0.27617 0)
(2.09827 -0.247081 0)
(2.07813 -0.193934 0)
(2.07264 -0.167543 0)
(2.05337 -0.116793 0)
(2.05072 -0.0998879 0)
(2.03518 -0.0637707 0)
(2.03367 -0.0540181 0)
(2.0246 -0.0343789 0)
(2.02242 -0.0289221 0)
(2.01798 -0.0199407 0)
(2.0162 -0.0190881 0)
(2.01327 -0.0227321 0)
(2.01254 -0.0276144 0)
(2.01081 -0.0319629 0)
(2.01087 -0.0327018 0)
(2.00969 -0.0349347 0)
(2.01019 -0.0347028 0)
(2.01107 -0.0339822 0)
(2.01392 -0.0316862 0)
(2.01598 -0.0289429 0)
(2.01593 -0.0283703 0)
(2.01538 -0.0293764 0)
(2.01418 -0.0314659 0)
(2.01297 -0.0336993 0)
(2.01214 -0.0359827 0)
(2.01266 -0.0355095 0)
(2.01391 -0.0339901 0)
(2.01552 -0.0326815 0)
(2.01669 -0.0313203 0)
(2.0166 -0.0319023 0)
(2.01575 -0.0334407 0)
(2.01524 -0.0347855 0)
(2.01544 -0.0347761 0)
(2.01605 -0.0342896 0)
(2.01684 -0.0335231 0)
(2.01748 -0.033331 0)
(2.01719 -0.0340811 0)
(2.01687 -0.0349288 0)
(2.01698 -0.0351924 0)
(2.01735 -0.0348767 0)
(2.01798 -0.0345366 0)
(2.01802 -0.0348271 0)
(2.01787 -0.0352956 0)
(2.01807 -0.0357159 0)
(2.01832 -0.0356715 0)
(2.01873 -0.0356052 0)
(2.01904 -0.0358196 0)
(2.01931 -0.0362238 0)
(2.01961 -0.0364868 0)
(2.02002 -0.0365341 0)
(2.02042 -0.0366632 0)
(2.02086 -0.0368281 0)
(2.02128 -0.0368815 0)
(2.02172 -0.037111 0)
(2.02193 -0.0375556 0)
(2.02215 -0.0380076 0)
(2.0223 -0.0383182 0)
(2.02255 -0.0383601 0)
(2.02302 -0.0385738 0)
(2.02313 -0.0387829 0)
(2.0231 -0.039192 0)
(2.02289 -0.0397583 0)
(2.02173 -0.0400303 0)
(2.01771 -0.0400044 0)
(2.00829 -0.0401167 0)
(1.99199 -0.0393889 0)
(1.97216 -0.0379947 0)
(1.95597 -0.038088 0)
(1.94617 -0.0373605 0)
(1.93872 -0.0360121 0)
(1.93243 -0.0349357 0)
(1.92652 -0.034579 0)
(1.92173 -0.0353501 0)
(1.91312 -0.0356885 0)
(2.16494 -0.409483 0)
(2.16491 -0.409477 0)
(2.16488 -0.409474 0)
(2.16485 -0.409467 0)
(2.16482 -0.409465 0)
(2.16479 -0.409457 0)
(2.16476 -0.409455 0)
(2.16474 -0.409452 0)
(2.16472 -0.409461 0)
(2.16472 -0.409472 0)
(2.1647 -0.409485 0)
(2.16469 -0.409502 0)
(2.16467 -0.409517 0)
(2.16464 -0.40954 0)
(2.16462 -0.409536 0)
(2.16459 -0.409495 0)
(2.16457 -0.409442 0)
(2.16456 -0.409381 0)
(2.16453 -0.409294 0)
(2.16448 -0.409184 0)
(2.16439 -0.40898 0)
(2.16418 -0.408616 0)
(2.16375 -0.40788 0)
(2.16293 -0.406454 0)
(2.16146 -0.403517 0)
(2.1588 -0.398429 0)
(2.15462 -0.389471 0)
(2.14761 -0.374822 0)
(2.1389 -0.354638 0)
(2.12543 -0.322225 0)
(2.11404 -0.291948 0)
(2.09478 -0.241415 0)
(2.08485 -0.210844 0)
(2.06604 -0.159577 0)
(2.05915 -0.138163 0)
(2.04611 -0.101151 0)
(2.0428 -0.0906362 0)
(2.03315 -0.0741254 0)
(2.03227 -0.0641877 0)
(2.025 -0.053266 0)
(2.0236 -0.0461587 0)
(2.01926 -0.0391886 0)
(2.01842 -0.0327314 0)
(2.01617 -0.0266825 0)
(2.01499 -0.0231508 0)
(2.01364 -0.0241814 0)
(2.01199 -0.0275395 0)
(2.0104 -0.0321157 0)
(2.00958 -0.0358603 0)
(2.01043 -0.038838 0)
(2.01114 -0.037701 0)
(2.01388 -0.0345581 0)
(2.01544 -0.0316777 0)
(2.01594 -0.0305396 0)
(2.0156 -0.0315745 0)
(2.0145 -0.0336795 0)
(2.01376 -0.0361806 0)
(2.01421 -0.0360236 0)
(2.01508 -0.0347519 0)
(2.01621 -0.0332591 0)
(2.01658 -0.0330523 0)
(2.01621 -0.0338434 0)
(2.01559 -0.034897 0)
(2.01587 -0.0357329 0)
(2.01639 -0.035347 0)
(2.01691 -0.0343484 0)
(2.01708 -0.0346283 0)
(2.01685 -0.0350784 0)
(2.01676 -0.0358368 0)
(2.01701 -0.0359515 0)
(2.01745 -0.0356987 0)
(2.01793 -0.0358826 0)
(2.01816 -0.0360552 0)
(2.01838 -0.0363464 0)
(2.01877 -0.0364604 0)
(2.01922 -0.036588 0)
(2.01963 -0.0366947 0)
(2.02009 -0.0367579 0)
(2.02045 -0.0368019 0)
(2.02087 -0.0370961 0)
(2.02112 -0.0376054 0)
(2.02137 -0.0381682 0)
(2.02164 -0.0382826 0)
(2.02193 -0.0382151 0)
(2.0225 -0.0385017 0)
(2.02264 -0.0387704 0)
(2.02268 -0.0392442 0)
(2.02252 -0.0397777 0)
(2.02141 -0.0399818 0)
(2.01754 -0.0399163 0)
(2.00832 -0.0399459 0)
(1.99219 -0.0390629 0)
(1.97234 -0.0376197 0)
(1.95622 -0.0378493 0)
(1.94644 -0.0369842 0)
(1.93888 -0.0354848 0)
(1.93255 -0.0344516 0)
(1.92657 -0.0341848 0)
(1.92177 -0.0349085 0)
(1.91309 -0.0352881 0)
(2.16413 -0.409335 0)
(2.16412 -0.409335 0)
(2.16412 -0.409332 0)
(2.16412 -0.409334 0)
(2.16412 -0.40933 0)
(2.16412 -0.409334 0)
(2.16413 -0.409331 0)
(2.16413 -0.409335 0)
(2.16414 -0.409334 0)
(2.16415 -0.409338 0)
(2.16416 -0.409338 0)
(2.16417 -0.409344 0)
(2.16419 -0.409343 0)
(2.16421 -0.409351 0)
(2.16422 -0.409348 0)
(2.16426 -0.409368 0)
(2.1643 -0.409388 0)
(2.16434 -0.409411 0)
(2.16437 -0.409434 0)
(2.16441 -0.409455 0)
(2.16443 -0.40947 0)
(2.1644 -0.409479 0)
(2.16448 -0.409432 0)
(2.16453 -0.409377 0)
(2.16457 -0.409321 0)
(2.16457 -0.409225 0)
(2.16449 -0.409023 0)
(2.1643 -0.40849 0)
(2.16376 -0.407252 0)
(2.1624 -0.404467 0)
(2.15982 -0.399015 0)
(2.15453 -0.388006 0)
(2.14713 -0.371443 0)
(2.13365 -0.340523 0)
(2.12127 -0.308896 0)
(2.09884 -0.252777 0)
(2.08736 -0.214737 0)
(2.06203 -0.14927 0)
(2.05604 -0.119069 0)
(2.03826 -0.0726534 0)
(2.03585 -0.0572829 0)
(2.02538 -0.0310802 0)
(2.02033 -0.0250506 0)
(2.01859 -0.0168183 0)
(2.01497 -0.0204081 0)
(2.01176 -0.0278614 0)
(2.01113 -0.0308442 0)
(2.00999 -0.0351375 0)
(2.01047 -0.0355637 0)
(2.01148 -0.0357674 0)
(2.01531 -0.0319477 0)
(2.01697 -0.0297594 0)
(2.01657 -0.0299833 0)
(2.01547 -0.0310669 0)
(2.01406 -0.0336556 0)
(2.01342 -0.0359561 0)
(2.0138 -0.0359083 0)
(2.01507 -0.0345315 0)
(2.01635 -0.0332717 0)
(2.01687 -0.0323895 0)
(2.01651 -0.0333194 0)
(2.01582 -0.0347226 0)
(2.01582 -0.0356748 0)
(2.01619 -0.0353163 0)
(2.01723 -0.0345468 0)
(2.01742 -0.0341784 0)
(2.0171 -0.0347509 0)
(2.0169 -0.0352958 0)
(2.01724 -0.0354896 0)
(2.01763 -0.0353074 0)
(2.01793 -0.0352308 0)
(2.01833 -0.0356625 0)
(2.01856 -0.0362212 0)
(2.01879 -0.0363688 0)
(2.01919 -0.0363976 0)
(2.0196 -0.0365835 0)
(2.02 -0.0368442 0)
(2.02047 -0.0369175 0)
(2.02079 -0.0369158 0)
(2.0212 -0.0372739 0)
(2.02153 -0.0376492 0)
(2.02173 -0.0380721 0)
(2.02214 -0.0383496 0)
(2.02247 -0.0383252 0)
(2.02307 -0.0386435 0)
(2.0232 -0.0389437 0)
(2.02324 -0.0393915 0)
(2.02308 -0.0399346 0)
(2.02204 -0.0400306 0)
(2.01831 -0.0397495 0)
(2.00919 -0.0397724 0)
(1.99305 -0.0386942 0)
(1.97297 -0.0372741 0)
(1.95695 -0.0376429 0)
(1.94716 -0.0365633 0)
(1.9395 -0.0349512 0)
(1.93303 -0.0339991 0)
(1.92699 -0.0338056 0)
(1.92222 -0.0344782 0)
(1.9135 -0.0348893 0)
(2.16424 -0.40936 0)
(2.16426 -0.409363 0)
(2.16428 -0.409366 0)
(2.1643 -0.409371 0)
(2.16433 -0.40937 0)
(2.16436 -0.409374 0)
(2.16439 -0.409375 0)
(2.16442 -0.409376 0)
(2.16445 -0.409382 0)
(2.16449 -0.409385 0)
(2.16453 -0.409391 0)
(2.16457 -0.409399 0)
(2.16461 -0.409399 0)
(2.16465 -0.409404 0)
(2.1647 -0.40941 0)
(2.16475 -0.409412 0)
(2.16481 -0.409421 0)
(2.16486 -0.409434 0)
(2.16492 -0.40945 0)
(2.16499 -0.409452 0)
(2.16505 -0.409468 0)
(2.16512 -0.409476 0)
(2.16518 -0.409496 0)
(2.16525 -0.409509 0)
(2.16531 -0.40954 0)
(2.16536 -0.409551 0)
(2.1654 -0.409586 0)
(2.16549 -0.409566 0)
(2.16556 -0.409549 0)
(2.16562 -0.409529 0)
(2.16565 -0.409461 0)
(2.16558 -0.409229 0)
(2.16531 -0.4085 0)
(2.16442 -0.406691 0)
(2.16234 -0.402159 0)
(2.15778 -0.393089 0)
(2.15016 -0.375846 0)
(2.13724 -0.346756 0)
(2.12251 -0.309288 0)
(2.10121 -0.253629 0)
(2.08825 -0.213821 0)
(2.06584 -0.149892 0)
(2.05956 -0.129739 0)
(2.04435 -0.0887514 0)
(2.0425 -0.0793939 0)
(2.03196 -0.0626439 0)
(2.02662 -0.0506781 0)
(2.02321 -0.0426134 0)
(2.02162 -0.0346667 0)
(2.01774 -0.026437 0)
(2.01701 -0.0242394 0)
(2.01559 -0.0257812 0)
(2.01347 -0.0303356 0)
(2.01255 -0.0348362 0)
(2.01289 -0.0394049 0)
(2.01365 -0.0385097 0)
(2.01604 -0.035638 0)
(2.01765 -0.0318841 0)
(2.0178 -0.0321013 0)
(2.01736 -0.0328349 0)
(2.01631 -0.0346472 0)
(2.01614 -0.0362648 0)
(2.01655 -0.0358639 0)
(2.01766 -0.0343908 0)
(2.01793 -0.033787 0)
(2.01781 -0.0342995 0)
(2.01719 -0.0353324 0)
(2.01765 -0.0362695 0)
(2.01814 -0.0359931 0)
(2.01864 -0.0354783 0)
(2.01896 -0.0356048 0)
(2.01912 -0.0360324 0)
(2.01931 -0.0362989 0)
(2.01974 -0.0363616 0)
(2.02003 -0.0363097 0)
(2.02036 -0.0365666 0)
(2.02073 -0.0366852 0)
(2.02115 -0.0368104 0)
(2.0215 -0.0369786 0)
(2.02188 -0.037429 0)
(2.02225 -0.0380011 0)
(2.02257 -0.0381139 0)
(2.02306 -0.0381636 0)
(2.02341 -0.0382569 0)
(2.02392 -0.0385952 0)
(2.02403 -0.0390064 0)
(2.02401 -0.0394654 0)
(2.02388 -0.0398493 0)
(2.02287 -0.0398999 0)
(2.01919 -0.0397402 0)
(2.01001 -0.0396514 0)
(1.99378 -0.0383867 0)
(1.97352 -0.0369019 0)
(1.95782 -0.037277 0)
(1.94792 -0.0360681 0)
(1.94008 -0.0343746 0)
(1.93345 -0.0334558 0)
(1.92733 -0.0334029 0)
(1.92266 -0.0340503 0)
(1.91401 -0.0344802 0)
(2.16502 -0.409487 0)
(2.16505 -0.409493 0)
(2.16508 -0.409494 0)
(2.16512 -0.409502 0)
(2.16515 -0.409505 0)
(2.16519 -0.409511 0)
(2.16523 -0.409516 0)
(2.16527 -0.409518 0)
(2.16531 -0.409523 0)
(2.16535 -0.409527 0)
(2.1654 -0.409527 0)
(2.16544 -0.409539 0)
(2.16549 -0.409543 0)
(2.16554 -0.409554 0)
(2.16559 -0.409565 0)
(2.16565 -0.409571 0)
(2.1657 -0.409568 0)
(2.16576 -0.409578 0)
(2.16582 -0.409583 0)
(2.16588 -0.409597 0)
(2.16594 -0.409594 0)
(2.166 -0.409608 0)
(2.16607 -0.409615 0)
(2.16613 -0.409638 0)
(2.1662 -0.40965 0)
(2.16626 -0.40968 0)
(2.16634 -0.409695 0)
(2.16638 -0.409722 0)
(2.16643 -0.409736 0)
(2.16648 -0.409763 0)
(2.16652 -0.409775 0)
(2.16656 -0.409806 0)
(2.16664 -0.409791 0)
(2.16668 -0.409786 0)
(2.16671 -0.409757 0)
(2.16667 -0.409573 0)
(2.16641 -0.408943 0)
(2.16549 -0.407043 0)
(2.16318 -0.402242 0)
(2.15775 -0.390818 0)
(2.14893 -0.370801 0)
(2.13192 -0.330941 0)
(2.11753 -0.290195 0)
(2.08747 -0.215564 0)
(2.07571 -0.169126 0)
(2.05324 -0.106978 0)
(2.03934 -0.0634873 0)
(2.03713 -0.0452038 0)
(2.02474 -0.0211246 0)
(2.02231 -0.0147564 0)
(2.01711 -0.0220066 0)
(2.01574 -0.0294187 0)
(2.01312 -0.0336928 0)
(2.01432 -0.0365016 0)
(2.01512 -0.0368745 0)
(2.01878 -0.0331258 0)
(2.0201 -0.0309227 0)
(2.01946 -0.0311239 0)
(2.01803 -0.0324099 0)
(2.01698 -0.0348452 0)
(2.01633 -0.0362847 0)
(2.01695 -0.0359883 0)
(2.01844 -0.0341124 0)
(2.01937 -0.0330429 0)
(2.01903 -0.0334841 0)
(2.0183 -0.0349638 0)
(2.0181 -0.0359152 0)
(2.01848 -0.0359352 0)
(2.01922 -0.0352072 0)
(2.01955 -0.0353827 0)
(2.01962 -0.0356843 0)
(2.01979 -0.0362449 0)
(2.02006 -0.0363554 0)
(2.02046 -0.0363573 0)
(2.02066 -0.0364592 0)
(2.02094 -0.0367302 0)
(2.02132 -0.0368654 0)
(2.02165 -0.0367918 0)
(2.02212 -0.0370804 0)
(2.02249 -0.037464 0)
(2.0228 -0.037958 0)
(2.02329 -0.0382388 0)
(2.02377 -0.0382413 0)
(2.02413 -0.0383667 0)
(2.0245 -0.0387656 0)
(2.02466 -0.0391343 0)
(2.02456 -0.0395583 0)
(2.02447 -0.0399404 0)
(2.02341 -0.0399221 0)
(2.01962 -0.0396262 0)
(2.01051 -0.0393592 0)
(1.99426 -0.0379792 0)
(1.974 -0.0366521 0)
(1.95868 -0.0369642 0)
(1.94853 -0.0353709 0)
(1.9404 -0.0336552 0)
(1.93355 -0.0328065 0)
(1.92733 -0.0328717 0)
(1.92289 -0.0335529 0)
(1.91438 -0.034044 0)
(2.16598 -0.4097 0)
(2.16601 -0.409701 0)
(2.16604 -0.4097 0)
(2.16607 -0.409701 0)
(2.1661 -0.409703 0)
(2.16614 -0.409703 0)
(2.16617 -0.409708 0)
(2.1662 -0.40971 0)
(2.16624 -0.409715 0)
(2.16628 -0.409714 0)
(2.16631 -0.409713 0)
(2.16635 -0.409711 0)
(2.16639 -0.409712 0)
(2.16643 -0.409712 0)
(2.16647 -0.409725 0)
(2.16651 -0.409733 0)
(2.16656 -0.409733 0)
(2.1666 -0.409735 0)
(2.16664 -0.409746 0)
(2.16669 -0.40975 0)
(2.16673 -0.409757 0)
(2.16678 -0.409755 0)
(2.16682 -0.409764 0)
(2.16687 -0.409771 0)
(2.16692 -0.409777 0)
(2.16697 -0.409787 0)
(2.16701 -0.409805 0)
(2.16706 -0.40982 0)
(2.1671 -0.409838 0)
(2.16715 -0.409856 0)
(2.16719 -0.409874 0)
(2.16724 -0.40989 0)
(2.16727 -0.409904 0)
(2.16729 -0.409923 0)
(2.16731 -0.409937 0)
(2.16733 -0.409939 0)
(2.16739 -0.409942 0)
(2.16743 -0.409937 0)
(2.16744 -0.409876 0)
(2.16734 -0.409611 0)
(2.16689 -0.408643 0)
(2.16541 -0.405785 0)
(2.1619 -0.397955 0)
(2.15388 -0.381531 0)
(2.14085 -0.349668 0)
(2.12066 -0.300102 0)
(2.10018 -0.242867 0)
(2.08062 -0.184768 0)
(2.0609 -0.128504 0)
(2.05123 -0.0974026 0)
(2.0424 -0.0791315 0)
(2.03553 -0.0619893 0)
(2.02826 -0.0486005 0)
(2.02607 -0.0386136 0)
(2.02339 -0.0295483 0)
(2.02144 -0.0246989 0)
(2.01909 -0.0262945 0)
(2.01612 -0.0320199 0)
(2.01514 -0.0373302 0)
(2.01619 -0.0394417 0)
(2.0172 -0.03774 0)
(2.01938 -0.0340696 0)
(2.02031 -0.0326231 0)
(2.02006 -0.0331211 0)
(2.01887 -0.0352807 0)
(2.01859 -0.0369691 0)
(2.01903 -0.0366014 0)
(2.01992 -0.0349878 0)
(2.02028 -0.0348439 0)
(2.0202 -0.0353485 0)
(2.02007 -0.0364326 0)
(2.02029 -0.0365968 0)
(2.0207 -0.0362285 0)
(2.02078 -0.0361965 0)
(2.0211 -0.0364693 0)
(2.02136 -0.0367771 0)
(2.02174 -0.0367695 0)
(2.02206 -0.0369136 0)
(2.02248 -0.0372692 0)
(2.02281 -0.0378033 0)
(2.02312 -0.0380089 0)
(2.02365 -0.038144 0)
(2.02412 -0.0381899 0)
(2.02452 -0.0384065 0)
(2.02479 -0.0388288 0)
(2.02496 -0.0392159 0)
(2.02488 -0.039578 0)
(2.02475 -0.0399118 0)
(2.02367 -0.0397986 0)
(2.0199 -0.0394713 0)
(2.01093 -0.0391237 0)
(1.99474 -0.0377143 0)
(1.97448 -0.0364894 0)
(1.95933 -0.0363535 0)
(1.94908 -0.0345403 0)
(1.94087 -0.0329715 0)
(1.93387 -0.032254 0)
(1.92753 -0.0325497 0)
(1.9231 -0.0332542 0)
(1.91454 -0.0336517 0)
(2.16677 -0.409886 0)
(2.16679 -0.409888 0)
(2.16681 -0.40989 0)
(2.16683 -0.40989 0)
(2.16686 -0.409891 0)
(2.16688 -0.409892 0)
(2.1669 -0.409893 0)
(2.16693 -0.409895 0)
(2.16695 -0.409899 0)
(2.16698 -0.409905 0)
(2.167 -0.409907 0)
(2.16703 -0.409912 0)
(2.16705 -0.409913 0)
(2.16708 -0.409916 0)
(2.16711 -0.409919 0)
(2.16713 -0.409926 0)
(2.16716 -0.409929 0)
(2.16719 -0.40993 0)
(2.16722 -0.409934 0)
(2.16725 -0.409944 0)
(2.16727 -0.409945 0)
(2.1673 -0.409953 0)
(2.16733 -0.409956 0)
(2.16736 -0.409964 0)
(2.16738 -0.409976 0)
(2.16741 -0.409989 0)
(2.16744 -0.409994 0)
(2.16747 -0.410013 0)
(2.1675 -0.41002 0)
(2.16753 -0.410033 0)
(2.16755 -0.410045 0)
(2.16758 -0.410062 0)
(2.16761 -0.410067 0)
(2.16764 -0.410078 0)
(2.16766 -0.410084 0)
(2.16769 -0.410086 0)
(2.16771 -0.410088 0)
(2.16773 -0.410081 0)
(2.16776 -0.410078 0)
(2.16779 -0.410066 0)
(2.16782 -0.410045 0)
(2.16784 -0.409995 0)
(2.16779 -0.409837 0)
(2.1675 -0.4092 0)
(2.16647 -0.40705 0)
(2.16341 -0.400823 0)
(2.15604 -0.384116 0)
(2.14291 -0.353972 0)
(2.12023 -0.298354 0)
(2.09824 -0.236397 0)
(2.06897 -0.154882 0)
(2.05415 -0.101595 0)
(2.0383 -0.0530634 0)
(2.03078 -0.0324795 0)
(2.02779 -0.0138545 0)
(2.02116 -0.0187965 0)
(2.01816 -0.0281894 0)
(2.01592 -0.0366097 0)
(2.01642 -0.0374697 0)
(2.01761 -0.0369607 0)
(2.02179 -0.0311434 0)
(2.02193 -0.0310893 0)
(2.02103 -0.0320187 0)
(2.01938 -0.0351341 0)
(2.0187 -0.0372448 0)
(2.01935 -0.037006 0)
(2.02099 -0.034935 0)
(2.02149 -0.0337631 0)
(2.02101 -0.0345248 0)
(2.02041 -0.0362345 0)
(2.02046 -0.0365829 0)
(2.02089 -0.0363598 0)
(2.02131 -0.0358171 0)
(2.02129 -0.0361352 0)
(2.02145 -0.0366355 0)
(2.02165 -0.036772 0)
(2.02197 -0.036657 0)
(2.02247 -0.0370188 0)
(2.02274 -0.0374619 0)
(2.02295 -0.0379905 0)
(2.02336 -0.0380348 0)
(2.02387 -0.0379587 0)
(2.02425 -0.0381381 0)
(2.02467 -0.0385073 0)
(2.02487 -0.0389872 0)
(2.02506 -0.039357 0)
(2.02505 -0.0396367 0)
(2.02484 -0.0398232 0)
(2.02388 -0.0396968 0)
(2.02026 -0.0393534 0)
(2.0114 -0.0389243 0)
(1.99505 -0.0374701 0)
(1.97491 -0.0364065 0)
(1.96014 -0.035776 0)
(1.94974 -0.0335661 0)
(1.94129 -0.0321883 0)
(1.93418 -0.0316629 0)
(1.92757 -0.0320152 0)
(1.92291 -0.0327135 0)
(1.91427 -0.0330742 0)
(2.16728 -0.409947 0)
(2.16729 -0.40995 0)
(2.16731 -0.409953 0)
(2.16732 -0.409957 0)
(2.16734 -0.40996 0)
(2.16735 -0.409964 0)
(2.16736 -0.409965 0)
(2.16738 -0.409966 0)
(2.16739 -0.409969 0)
(2.16741 -0.409971 0)
(2.16743 -0.409974 0)
(2.16744 -0.40998 0)
(2.16746 -0.409986 0)
(2.16747 -0.409992 0)
(2.16749 -0.409997 0)
(2.16751 -0.410002 0)
(2.16752 -0.410012 0)
(2.16754 -0.410027 0)
(2.16756 -0.410034 0)
(2.16758 -0.410037 0)
(2.16759 -0.410047 0)
(2.16761 -0.410053 0)
(2.16763 -0.410059 0)
(2.16764 -0.410073 0)
(2.16766 -0.410076 0)
(2.16768 -0.410085 0)
(2.16769 -0.410096 0)
(2.16771 -0.410105 0)
(2.16773 -0.410121 0)
(2.16774 -0.410128 0)
(2.16776 -0.410135 0)
(2.16778 -0.410142 0)
(2.16779 -0.410147 0)
(2.16781 -0.410152 0)
(2.16783 -0.410158 0)
(2.16784 -0.41016 0)
(2.16786 -0.41016 0)
(2.16788 -0.410158 0)
(2.1679 -0.410152 0)
(2.16793 -0.410148 0)
(2.16795 -0.410145 0)
(2.16798 -0.410135 0)
(2.168 -0.410127 0)
(2.16804 -0.410113 0)
(2.16804 -0.410081 0)
(2.16801 -0.409954 0)
(2.16777 -0.40943 0)
(2.16675 -0.407314 0)
(2.16358 -0.400866 0)
(2.15564 -0.383047 0)
(2.14015 -0.347723 0)
(2.11778 -0.29041 0)
(2.09255 -0.220068 0)
(2.07075 -0.157498 0)
(2.05486 -0.105922 0)
(2.04521 -0.0826426 0)
(2.0385 -0.0631033 0)
(2.02968 -0.0499306 0)
(2.02757 -0.0385607 0)
(2.02197 -0.0260335 0)
(2.02197 -0.026668 0)
(2.01946 -0.0298958 0)
(2.01762 -0.0354718 0)
(2.01742 -0.0403533 0)
(2.01845 -0.0393677 0)
(2.02137 -0.0354326 0)
(2.02221 -0.0335388 0)
(2.02175 -0.0340386 0)
(2.02018 -0.0362227 0)
(2.02028 -0.0371537 0)
(2.02085 -0.036661 0)
(2.02149 -0.0355247 0)
(2.02168 -0.0358471 0)
(2.02154 -0.0363937 0)
(2.02159 -0.0366869 0)
(2.02191 -0.0365088 0)
(2.02221 -0.0366758 0)
(2.02252 -0.0372165 0)
(2.02275 -0.0379564 0)
(2.02302 -0.0381139 0)
(2.02354 -0.0379277 0)
(2.02393 -0.0378765 0)
(2.02434 -0.0381979 0)
(2.02467 -0.0385859 0)
(2.02487 -0.0391066 0)
(2.02506 -0.0394995 0)
(2.02511 -0.0396563 0)
(2.02492 -0.0397176 0)
(2.02404 -0.0395966 0)
(2.02051 -0.039302 0)
(2.01177 -0.0387708 0)
(1.99535 -0.037319 0)
(1.97534 -0.0362126 0)
(1.9606 -0.0349253 0)
(1.94996 -0.0327249 0)
(1.94165 -0.0315526 0)
(1.93451 -0.0310702 0)
(1.92783 -0.0315991 0)
(1.92311 -0.0322645 0)
(1.91441 -0.0326139 0)
(2.16753 -0.409987 0)
(2.16754 -0.40999 0)
(2.16754 -0.409993 0)
(2.16755 -0.409996 0)
(2.16756 -0.409998 0)
(2.16757 -0.410001 0)
(2.16758 -0.410004 0)
(2.16759 -0.410008 0)
(2.1676 -0.410012 0)
(2.16761 -0.410017 0)
(2.16762 -0.410024 0)
(2.16763 -0.410032 0)
(2.16764 -0.41004 0)
(2.16765 -0.410051 0)
(2.16766 -0.41006 0)
(2.16767 -0.410067 0)
(2.16768 -0.410073 0)
(2.16769 -0.41008 0)
(2.1677 -0.410089 0)
(2.16771 -0.4101 0)
(2.16772 -0.410107 0)
(2.16773 -0.410119 0)
(2.16774 -0.410129 0)
(2.16776 -0.410136 0)
(2.16776 -0.410144 0)
(2.16778 -0.410152 0)
(2.16779 -0.410162 0)
(2.1678 -0.41017 0)
(2.16781 -0.410176 0)
(2.16783 -0.410185 0)
(2.16784 -0.410194 0)
(2.16785 -0.410199 0)
(2.16786 -0.410201 0)
(2.16788 -0.410202 0)
(2.16789 -0.410202 0)
(2.16791 -0.410201 0)
(2.16792 -0.410199 0)
(2.16794 -0.410195 0)
(2.16795 -0.410185 0)
(2.16797 -0.410182 0)
(2.16799 -0.410171 0)
(2.16801 -0.410164 0)
(2.16804 -0.410154 0)
(2.16806 -0.410157 0)
(2.16809 -0.410159 0)
(2.16811 -0.410159 0)
(2.16815 -0.41017 0)
(2.16815 -0.410159 0)
(2.1681 -0.41005 0)
(2.1678 -0.409456 0)
(2.16654 -0.406871 0)
(2.16233 -0.397823 0)
(2.15226 -0.375407 0)
(2.13228 -0.326808 0)
(2.10636 -0.261025 0)
(2.07422 -0.170315 0)
(2.05588 -0.106154 0)
(2.04193 -0.0555056 0)
(2.02793 -0.0241901 0)
(2.0268 -0.0138053 0)
(2.02023 -0.0255463 0)
(2.01799 -0.0332569 0)
(2.01763 -0.0380822 0)
(2.0186 -0.0383529 0)
(2.02306 -0.033096 0)
(2.02345 -0.0321056 0)
(2.02218 -0.0330003 0)
(2.02041 -0.0359793 0)
(2.01933 -0.0378981 0)
(2.02015 -0.0374359 0)
(2.02194 -0.0349255 0)
(2.02168 -0.035104 0)
(2.02144 -0.0358507 0)
(2.02127 -0.0368038 0)
(2.02161 -0.0366792 0)
(2.0221 -0.0363027 0)
(2.02241 -0.0366653 0)
(2.02254 -0.0375474 0)
(2.02263 -0.0380896 0)
(2.02305 -0.0380269 0)
(2.02359 -0.0376304 0)
(2.02395 -0.0379482 0)
(2.02432 -0.0383011 0)
(2.02454 -0.0386775 0)
(2.0248 -0.0391732 0)
(2.02499 -0.0395912 0)
(2.02517 -0.0396401 0)
(2.02496 -0.0395886 0)
(2.02411 -0.0394782 0)
(2.02069 -0.0392018 0)
(2.01202 -0.0386515 0)
(1.99555 -0.0371621 0)
(1.97578 -0.0357314 0)
(1.96138 -0.0339219 0)
(1.95051 -0.0318227 0)
(1.94155 -0.030845 0)
(1.93434 -0.0304558 0)
(1.92779 -0.0310968 0)
(1.9234 -0.0317242 0)
(1.9144 -0.0319926 0)
(2.16763 -0.410018 0)
(2.16763 -0.41002 0)
(2.16764 -0.410023 0)
(2.16764 -0.410028 0)
(2.16765 -0.410032 0)
(2.16765 -0.410039 0)
(2.16766 -0.410042 0)
(2.16766 -0.410046 0)
(2.16767 -0.41005 0)
(2.16768 -0.410052 0)
(2.16768 -0.410056 0)
(2.16769 -0.410061 0)
(2.16769 -0.410068 0)
(2.1677 -0.410075 0)
(2.16771 -0.410082 0)
(2.16772 -0.410089 0)
(2.16772 -0.410098 0)
(2.16773 -0.410106 0)
(2.16774 -0.410113 0)
(2.16774 -0.410117 0)
(2.16775 -0.410121 0)
(2.16776 -0.410126 0)
(2.16777 -0.410132 0)
(2.16778 -0.410136 0)
(2.16779 -0.410142 0)
(2.1678 -0.41015 0)
(2.16781 -0.410153 0)
(2.16783 -0.410155 0)
(2.16784 -0.410161 0)
(2.16785 -0.410166 0)
(2.16787 -0.410171 0)
(2.16788 -0.410174 0)
(2.16789 -0.410177 0)
(2.16791 -0.41018 0)
(2.16792 -0.410179 0)
(2.16794 -0.410179 0)
(2.16795 -0.410179 0)
(2.16797 -0.410175 0)
(2.16799 -0.410171 0)
(2.168 -0.410164 0)
(2.16802 -0.410157 0)
(2.16803 -0.410153 0)
(2.16805 -0.410157 0)
(2.16807 -0.410157 0)
(2.16809 -0.410163 0)
(2.16811 -0.410181 0)
(2.16814 -0.410198 0)
(2.16816 -0.41021 0)
(2.16818 -0.410229 0)
(2.1682 -0.410247 0)
(2.16821 -0.410238 0)
(2.16813 -0.410065 0)
(2.16764 -0.409027 0)
(2.16557 -0.404746 0)
(2.15915 -0.390838 0)
(2.14366 -0.355318 0)
(2.12127 -0.297805 0)
(2.09133 -0.214962 0)
(2.07088 -0.153337 0)
(2.05263 -0.0991676 0)
(2.04505 -0.0777032 0)
(2.03409 -0.0568605 0)
(2.02962 -0.0417732 0)
(2.02585 -0.030819 0)
(2.02352 -0.0268543 0)
(2.02007 -0.0301115 0)
(2.0175 -0.0362826 0)
(2.01746 -0.0407301 0)
(2.01889 -0.0392545 0)
(2.02159 -0.0354028 0)
(2.02193 -0.0345619 0)
(2.02136 -0.0353563 0)
(2.02068 -0.0368725 0)
(2.021 -0.0369842 0)
(2.02181 -0.0360034 0)
(2.02233 -0.0363598 0)
(2.02222 -0.0371318 0)
(2.02203 -0.0381804 0)
(2.0224 -0.0381886 0)
(2.02308 -0.0376012 0)
(2.02354 -0.0377618 0)
(2.02393 -0.0380647 0)
(2.0242 -0.0384268 0)
(2.02433 -0.038799 0)
(2.02469 -0.0392725 0)
(2.02488 -0.0395971 0)
(2.02521 -0.0395495 0)
(2.02496 -0.0395001 0)
(2.02413 -0.0394427 0)
(2.02081 -0.039197 0)
(2.01222 -0.0386089 0)
(1.99574 -0.0368928 0)
(1.97641 -0.0352028 0)
(1.96157 -0.0332916 0)
(1.9505 -0.0310874 0)
(1.94166 -0.030065 0)
(1.9345 -0.0298897 0)
(1.928 -0.030583 0)
(1.9234 -0.031116 0)
(1.91452 -0.0313476 0)
(2.16764 -0.410076 0)
(2.16765 -0.410079 0)
(2.16765 -0.410082 0)
(2.16765 -0.410086 0)
(2.16766 -0.410089 0)
(2.16766 -0.410093 0)
(2.16766 -0.410094 0)
(2.16767 -0.410096 0)