/*--------------------------------*- C++ -*----------------------------------*\
  =========                 |
  \\      /  F ield         | OpenFOAM: The Open Source CFD Toolbox
   \\    /   O peration     | Website:  https://openfoam.org
    \\  /    A nd           | Version:  7
     \\/     M anipulation  |
\*---------------------------------------------------------------------------*/
FoamFile
{
    version     2.0;
    format      ascii;
    class       volScalarField;
    location    "5.3";
    object      rho;
}
// * * * * * * * * * * * * * * * * * * * * * * * * * * * * * * * * * * * * * //

dimensions      [1 -3 0 0 0 0 0];

internalField   nonuniform List<scalar> 
1750
(
0.214062
0.400865
0.516161
0.555704
0.578326
0.627602
0.708929
0.754098
0.782512
0.807924
0.0678735
0.109087
0.273229
0.44039
0.5584
0.635128
0.69249
0.686233
0.712859
0.754342
0.0813262
0.0848228
0.097013
0.182504
0.348804
0.49829
0.63325
0.701808
0.766021
0.793426
0.113437
0.129231
0.149896
0.193799
0.201512
0.235668
0.340324
0.534613
0.673984
0.772573
0.207111
0.227561
0.239161
0.254716
0.269866
0.282184
0.290703
0.30992
0.362295
0.57113
0.329523
0.348602
0.349709
0.353135
0.366313
0.388829
0.405365
0.417731
0.43107
0.437071
0.510191
0.516739
0.525335
0.527303
0.527774
0.531169
0.533649
0.537626
0.535917
0.530494
0.792025
0.774194
0.756195
0.737936
0.723504
0.706272
0.690373
0.676622
0.666398
0.650784
1.15343
1.11498
1.07651
1.03341
0.993586
0.957857
0.923409
0.886081
0.85999
0.825686
1.42202
1.39742
1.36812
1.33282
1.29034
1.24467
1.1977
1.14845
1.10296
1.0302
1.46986
1.46786
1.46446
1.45868
1.44883
1.43329
1.41079
1.38026
1.34532
1.27222
1.45015
1.45357
1.45739
1.45812
1.45777
1.45727
1.45618
1.45323
1.44784
1.42493
1.41205
1.41623
1.42119
1.42723
1.43305
1.43829
1.44309
1.44656
1.44775
1.44682
1.40062
1.40109
1.40185
1.40318
1.40527
1.40827
1.41227
1.4175
1.42318
1.43136
1.40001
1.40002
1.40004
1.40009
1.40019
1.40041
1.40085
1.40173
1.40316
1.4081
0.0724066
0.0633306
0.0719172
0.0979751
0.185899
0.308953
0.507023
0.81739
1.20064
1.43986
1.47062
1.4456
1.40863
1.4004
1.40001
0.0729574
0.0585572
0.075618
0.117537
0.220717
0.365318
0.621883
0.967211
1.31712
1.47065
1.47143
1.43542
1.40461
1.40015
1.40001
0.0677545
0.0538031
0.0780539
0.12717
0.240536
0.429083
0.713695
1.06713
1.38164
1.4798
1.46983
1.42657
1.40254
1.40007
1.40001
0.0641546
0.0517968
0.0829924
0.14559
0.275447
0.517255
0.812602
1.17739
1.43895
1.48459
1.46348
1.4179
1.40116
1.40003
1.40001
0.0614503
0.0508774
0.084118
0.183182
0.345914
0.595721
0.928949
1.298
1.47698
1.48653
1.45465
1.41037
1.4005
1.40001
1.40001
0.0537123
0.0534823
0.0879169
0.217836
0.419224
0.693557
1.08378
1.39821
1.4934
1.48733
1.43989
1.40529
1.4002
1.40001
1.40001
0.0408833
0.0593071
0.124032
0.256081
0.510629
0.860083
1.22988
1.46144
1.49931
1.47932
1.42577
1.40239
1.40007
1.40001
1.40001
0.0245074
0.0623703
0.169115
0.339405
0.636738
1.02926
1.35437
1.49733
1.50082
1.46373
1.41437
1.40087
1.40003
1.40001
1.40001
0.0182677
0.0629976
0.20907
0.468683
0.827103
1.19598
1.45211
1.51152
1.5008
1.44503
1.40658
1.40029
1.40001
1.40001
1.40001
0.0158897
0.097052
0.279251
0.624759
1.03404
1.36059
1.50513
1.51462
1.48287
1.42576
1.40239
1.40009
1.40001
1.40001
1.40001
0.0188014
0.159241
0.454085
0.854535
1.23315
1.47008
1.52293
1.51418
1.46078
1.41199
1.40074
1.40002
1.40001
1.40001
1.40001
0.0395975
0.267009
0.697631
1.1215
1.40887
1.52101
1.5261
1.49533
1.43445
1.4042
1.40019
1.40001
1.40001
1.40001
1.40001
0.185096
0.523928
0.997436
1.34316
1.50975
1.53612
1.52385
1.46805
1.415
1.40116
1.40004
1.40001
1.40001
1.40001
1.40001
0.433396
0.887991
1.29414
1.48719
1.54473
1.5384
1.49913
1.43444
1.4045
1.40024
1.40001
1.40001
1.40001
1.40001
1.40001
0.915064
1.28234
1.48795
1.54278
1.55089
1.52461
1.46113
1.41228
1.40095
1.40004
1.40001
1.40001
1.40001
1.40001
1.40001
1.54612
1.54949
1.5517
1.54968
1.54562
1.48789
1.42196
1.40147
1.40003
1.40001
1.40001
1.40001
1.40001
1.40001
1.40001
1.54559
1.55032
1.55306
1.54555
1.5345
1.47484
1.42066
1.40233
1.40011
1.40001
1.40001
1.40001
1.40001
1.40001
1.40001
1.54599
1.55422
1.55638
1.54555
1.5189
1.44978
1.40773
1.40036
1.40001
1.40001
1.40001
1.40001
1.40001
1.40001
1.40001
1.54738
1.55697
1.55745
1.54117
1.49703
1.43035
1.40321
1.40013
1.40001
1.40001
1.40001
1.40001
1.40001
1.40001
1.40001
1.54754
1.55792
1.55772
1.53339
1.46997
1.4153
1.40114
1.40004
1.40001
1.40001
1.40001
1.40001
1.40001
1.40001
1.40001
1.54738
1.55772
1.55456
1.5103
1.44628
1.40714
1.40037
1.40001
1.40001
1.40001
1.40001
1.40001
1.40001
1.40001
1.40001
1.55547
1.55519
1.54726
1.48852
1.42547
1.40249
1.4001
1.40001
1.40001
1.40001
1.40001
1.40001
1.40001
1.40001
1.40001
1.57227
1.54851
1.53154
1.45838
1.41158
1.40084
1.40003
1.40001
1.40001
1.40001
1.40001
1.40001
1.40001
1.40001
1.40001
1.58429
1.53744
1.50108
1.43401
1.40455
1.40022
1.40001
1.40001
1.40001
1.40001
1.40001
1.40001
1.40001
1.40001
1.40001
1.59095
1.52309
1.46925
1.41662
1.40151
1.40006
1.40001
1.40001
1.40001
1.40001
1.40001
1.40001
1.40001
1.40001
1.40001
1.59205
1.50055
1.4409
1.40636
1.40038
1.40002
1.40001
1.40001
1.40001
1.40001
1.40001
1.40001
1.40001
1.40001
1.40001
1.56862
1.47238
1.42031
1.40209
1.40009
1.40001
1.40001
1.40001
1.40001
1.40001
1.40001
1.40001
1.40001
1.40001
1.40001
1.53715
1.44637
1.4081
1.40049
1.40002
1.40001
1.40001
1.40001
1.40001
1.40001
1.40001
1.40001
1.40001
1.40001
1.40001
1.49581
1.42143
1.40203
1.40008
1.40001
1.40001
1.40001
1.40001
1.40001
1.40001
1.40001
1.40001
1.40001
1.40001
1.40001
1.44323
1.40585
1.40029
1.40001
1.40001
1.40001
1.40001
1.40001
1.40001
1.40001
1.40001
1.40001
1.40001
1.40001
1.40001
1.40001
1.40001
1.40001
1.40001
1.40001
1.40001
1.40001
1.40001
1.40001
1.40001
1.40001
1.40001
1.40001
1.40001
1.40001
1.40001
1.40001
1.40001
1.40001
1.40001
1.40001
1.40001
1.40001
1.40001
1.40001
1.40001
1.40001
1.40001
1.40001
1.40001
1.40001
1.40001
1.40001
1.40001
1.40001
1.40001
1.40001
1.40001
1.40001
1.40001
1.40001
1.40001
1.40001
1.40001
1.40001
1.40001
1.40001
1.40001
1.40001
1.40001
1.40001
1.40001
1.40001
1.40001
1.40001
1.40001
1.40001
1.40001
1.40001
1.40001
1.40001
1.40001
1.40001
1.40001
1.40001
1.40001
1.40001
1.40001
1.40001
1.40001
1.40001
1.40001
1.40001
1.40001
1.40001
1.40001
1.40001
1.40001
1.40001
1.40001
1.40001
1.40001
1.40001
1.40001
1.40001
1.40001
1.40001
1.40001
1.40001
1.40001
1.40001
1.40001
1.40001
1.40001
1.40001
1.40001
1.40001
1.40001
1.40001
1.40001
1.40001
1.40001
1.40001
1.40001
1.40001
1.40001
1.40001
1.40001
1.40001
1.40001
1.40001
1.40001
1.40001
1.40001
1.40001
1.40001
1.40001
1.40001
1.40001
1.40001
1.40001
1.40001
1.40001
1.40001
1.40001
1.40001
1.40001
1.40001
1.40001
1.40001
1.40001
1.40001
1.40001
1.40001
1.40001
1.40001
1.40001
1.40001
1.40001
1.40001
1.40001
1.40001
1.40001
1.40001
1.40001
1.40001
1.40001
1.40001
1.40001
1.40001
1.40001
1.40001
1.40001
1.40001
1.40001
1.40001
1.40001
1.40001
1.40001
1.40001
1.40001
1.40001
1.40001
1.40001
1.40001
1.40001
1.40001
1.40001
1.40001
1.40001
1.40001
1.40001
1.40001
1.40001
1.40001
1.40001
1.40001
1.40001
1.40001
1.40001
1.40001
1.40001
1.40001
1.40001
1.40001
1.40001
1.40001
1.40001
1.40001
1.40001
1.40001
1.40001
1.40001
1.40001
1.40001
1.40001
1.40001
1.40001
1.40001
1.40001
1.40001
1.40001
1.40001
1.40001
1.40001
1.40001
1.40001
1.40001
1.40001
1.40001
1.40001
1.40001
1.40001
1.40001
1.40001
1.40001
1.40001
1.40001
1.40001
1.40001
1.40001
1.40001
1.40001
1.40001
1.40001
1.40001
1.40001
1.40001
1.40001
1.40001
1.40001
1.40001
1.40001
1.40001
1.40001
1.40001
1.40001
1.40001
1.40001
1.40001
1.40001
1.40001
1.40001
1.40001
1.40001
1.40001
1.40001
1.40001
1.40001
1.40001
1.40001
1.40001
1.40001
1.40001
1.40001
1.40001
1.40001
1.40001
1.40001
1.40001
1.40001
1.40001
1.40001
1.40001
1.40001
1.40001
1.40001
1.40001
1.40001
1.40001
1.40001
1.40001
1.40001
1.40001
1.40001
1.40001
1.40001
1.40001
1.40001
1.40001
1.40001
1.40001
1.40001
1.40001
1.40001
1.40001
1.40001
1.40001
1.40001
1.40001
1.40001
1.40001
1.40001
1.40001
1.40001
1.40001
1.40001
1.40001
1.40001
1.40001
1.40001
1.40001
1.40001
1.40001
1.40001
1.40001
1.40001
1.40001
1.40001
1.40001
1.40001
1.40001
1.40001
1.40001
1.40001
1.40001
1.40001
1.40001
1.40001
1.40001
1.40001
1.40001
1.40001
1.40001
1.40001
1.40001
1.40001
1.40001
1.40001
1.40001
1.40001
1.40001
1.40001
1.40001
1.40001
1.40001
1.40001
1.40001
1.40001
1.40001
1.40001
1.40001
1.40001
1.40001
1.40001
1.40001
1.40001
1.40001
1.40001
1.40001
4.55107
3.07262
1.55423
1.4
1.40001
1.40001
1.40001
1.40001
1.40001
1.40001
1.40001
1.40001
1.40001
1.40001
1.40001
1.40001
1.40001
1.40001
1.40001
1.40001
5.26913
4.86143
4.22659
2.24058
1.39992
1.40001
1.40001
1.40001
1.40001
1.40001
1.40001
1.40001
1.40001
1.40001
1.40001
1.40001
1.40001
1.40001
1.40001
1.40001
4.92232
4.74127
4.92022
4.6092
2.78108
1.41406
1.4
1.40001
1.40001
1.40001
1.40001
1.40001
1.40001
1.40001
1.40001
1.40001
1.40001
1.40001
1.40001
1.40001
4.77863
4.71729
4.80254
4.88163
4.76297
3.08988
1.46872
1.39986
1.40001
1.40001
1.40001
1.40001
1.40001
1.40001
1.40001
1.40001
1.40001
1.40001
1.40001
1.40001
4.7615
4.74219
4.78477
4.78121
4.83283
4.80439
3.07085
1.45942
1.39981
1.40001
1.40001
1.40001
1.40001
1.40001
1.40001
1.40001
1.40001
1.40001
1.40001
1.40001
4.74482
4.7308
4.74216
4.74668
4.78375
4.81581
4.64518
2.71039
1.41655
1.39995
1.40001
1.40001
1.40001
1.40001
1.40001
1.40001
1.40001
1.40001
1.40001
1.40001
4.71774
4.70113
4.70623
4.71444
4.77228
4.79974
4.87588
4.62276
2.47619
1.40187
1.40001
1.40001
1.40001
1.40001
1.40001
1.40001
1.40001
1.40001
1.40001
1.40001
4.6812
4.66155
4.67122
4.68837
4.74301
4.77712
4.81089
4.79483
4.2809
2.09568
1.39738
1.40001
1.40001
1.40001
1.40001
1.40001
1.40001
1.40001
1.40001
1.40001
4.64094
4.62253
4.64064
4.66616
4.70731
4.71808
4.73924
4.70573
4.61057
3.56911
1.63772
1.39902
1.40001
1.40001
1.40001
1.40001
1.40001
1.40001
1.40001
1.40001
4.60432
4.58773
4.6095
4.63202
4.65445
4.66736
4.67283
4.66548
4.71403
4.5577
2.80465
1.43576
1.4
1.40001
1.40001
1.40001
1.40001
1.40001
1.40001
1.40001
4.56992
4.55459
4.57552
4.59207
4.60863
4.61679
4.6292
4.62953
4.63099
4.64317
4.13191
2.03341
1.39819
1.40001
1.40001
1.40001
1.40001
1.40001
1.40001
1.40001
4.53194
4.51855
4.53865
4.55415
4.57168
4.58663
4.6048
4.60791
4.61084
4.62071
4.57386
3.2982
1.53809
1.39939
1.40001
1.40001
1.40001
1.40001
1.40001
1.40001
4.48997
4.47873
4.50034
4.51955
4.54098
4.56251
4.58245
4.58746
4.59471
4.58426
4.60689
4.34405
2.31677
1.40798
1.39997
1.4
1.40001
1.40001
1.40001
1.40001
4.44935
4.4414
4.46232
4.48057
4.50351
4.53051
4.55396
4.56751
4.57767
4.57277
4.59343
4.50864
3.52982
1.64728
1.40062
1.40001
1.40001
1.40001
1.40001
1.40001
4.36331
4.32285
4.3413
4.35985
4.39049
4.43147
4.47253
4.50803
4.54173
4.55336
4.56226
4.5194
4.35397
2.38896
1.37302
1.39886
1.4
1.40001
1.40001
1.40001
1.95706
2.67501
3.03569
3.32062
3.55477
3.72742
3.89093
4.02457
4.1526
4.2544
4.34482
4.40943
4.41012
3.91163
2.05859
1.42778
1.40025
1.40001
1.40001
1.40001
0.783771
1.6602
2.10907
2.43594
2.73874
3.02422
3.25677
3.47813
3.65687
3.83715
3.98786
4.12485
4.25167
4.27855
3.43858
1.82381
1.41356
1.4001
1.40001
1.40001
0.691256
1.18637
1.5469
1.89972
2.17504
2.47104
2.72945
2.98984
3.21049
3.42174
3.62504
3.8135
3.99361
4.15557
3.98362
2.8367
1.58744
1.40361
1.40002
1.40001
0.753553
0.988237
1.14913
1.48356
1.79649
2.05476
2.33046
2.56052
2.82648
3.01984
3.27801
3.49689
3.71306
3.92197
3.91363
3.60689
2.17644
1.44637
1.40047
1.40001
0.880266
0.930361
0.974841
1.18961
1.45157
1.70455
1.99041
2.22487
2.47521
2.69455
2.93422
3.19184
3.40166
3.60424
3.78343
3.74973
3.00671
1.6864
1.40677
1.40005
0.964563
0.938233
0.967591
1.10698
1.26034
1.46669
1.69899
1.96702
2.17918
2.44355
2.65363
2.9462
3.13172
3.35054
3.56557
3.69401
3.50347
2.27051
1.46113
1.40061
0.961443
0.937827
0.972152
1.03381
1.12361
1.32522
1.50584
1.75057
1.95621
2.21203
2.44636
2.70916
2.9396
3.11471
3.33538
3.58707
3.54723
2.8322
1.65737
1.40628
0.958396
0.95249
0.974307
1.00172
1.01599
1.15098
1.33095
1.53548
1.75998
1.96279
2.234
2.45279
2.73002
2.86304
3.07994
3.37384
3.509
3.28073
2.0662
1.43826
0.97899
0.990425
1.00575
1.00405
1.00848
1.09705
1.21792
1.36484
1.59164
1.79357
2.0399
2.2601
2.51233
2.69766
2.88801
3.15234
3.42085
3.40055
2.64505
1.58064
1.01166
1.01774
1.02623
1.016
1.01602
1.06952
1.14888
1.27679
1.4683
1.68701
1.89625
2.11915
2.33373
2.55794
2.74648
2.9747
3.27818
3.36381
2.92281
1.86267
1.0148
1.01701
1.02399
1.01869
1.02449
1.04118
1.07738
1.19602
1.34845
1.56938
1.75746
1.97481
2.16189
2.39366
2.5823
2.77576
3.07919
3.27659
3.12364
2.28459
1.00452
1.00559
1.01792
1.02642
1.02613
1.02285
1.02637
1.10008
1.20812
1.42148
1.61275
1.80379
1.98783
2.21021
2.42075
2.62133
2.89905
3.18828
3.16466
2.83388
0.983271
0.988935
1.0194
1.03959
1.03446
1.02423
1.02318
1.08486
1.16937
1.31273
1.51104
1.6829
1.87924
2.0761
2.31362
2.51217
2.75289
3.06121
3.16302
3.37407
0.960941
0.975861
1.01546
1.04327
1.04163
1.02779
1.02643
1.07843
1.14549
1.25202
1.42828
1.59919
1.79407
1.98194
2.19693
2.39457
2.58487
2.90302
3.17948
3.84342
0.955408
0.973122
1.01013
1.04044
1.0391
1.02209
1.01935
1.04767
1.09735
1.18674
1.33274
1.50251
1.67678
1.88331
2.06338
2.26315
2.44875
2.73311
3.19209
4.25897
0.832014
0.958866
1.00549
1.03498
1.03335
1.02078
1.01955
1.02767
1.04643
1.12249
1.20985
1.39191
1.55087
1.77256
1.97274
2.15521
2.35933
2.61523
3.17476
4.62283
0.735848
0.902335
0.988115
1.02967
1.034
1.02825
1.025
1.0244
1.03334
1.09995
1.15887
1.31077
1.48177
1.66121
1.89119
2.06215
2.24311
2.50528
3.19505
4.92711
0.650386
0.817651
0.944723
1.01486
1.03252
1.03082
1.02344
1.01438
1.01865
1.07525
1.13322
1.24313
1.42042
1.57707
1.77618
1.96455
2.11965
2.39351
3.23858
5.13952
0.601861
0.74575
0.881388
0.976774
1.02338
1.02554
1.01567
0.995891
0.996283
1.02609
1.0944
1.19334
1.33446
1.49653
1.66354
1.84964
2.03267
2.32731
3.23632
5.24962
0.616088
0.707849
0.807109
0.9124
0.995086
1.01737
1.01159
0.994322
0.99077
0.997717
1.0478
1.15013
1.26105
1.41098
1.57947
1.73976
1.92792
2.29465
3.33799
5.30896
0.643118
0.667506
0.733354
0.848443
0.944668
0.999327
1.00695
0.997918
0.989813
0.988008
1.00461
1.09
1.2002
1.33362
1.4903
1.65415
1.83342
2.24823
3.36249
5.20985
0.696101
0.675698
0.699161
0.781197
0.873778
0.957933
0.994913
0.993463
0.984845
0.978747
0.985847
1.03912
1.12613
1.25666
1.39616
1.5528
1.75102
2.27432
3.36673
4.98977
0.776657
0.738889
0.708692
0.732453
0.795839
0.89672
0.961358
0.979522
0.975117
0.968894
0.971942
1.00913
1.06681
1.18275
1.31665
1.45922
1.68377
2.35282
3.3811
4.79321
0.843582
0.81366
0.739418
0.718048
0.735255
0.822739
0.902197
0.952388
0.962753
0.961018
0.970243
0.994323
1.03258
1.12621
1.24245
1.38801
1.65971
2.44586
3.3301
4.51487
0.891955
0.888827
0.849469
0.767424
0.737575
0.760508
0.807112
0.879186
0.923605
0.94157
0.957885
0.967941
0.987062
1.05222
1.13813
1.31978
1.72182
2.54997
3.14854
3.97771
)
;

boundaryField
{
    inlet
    {
        type            calculated;
        value           uniform 1.40001;
    }
    outlet
    {
        type            calculated;
        value           nonuniform List<scalar> 
35
(
0.891929
0.888914
0.849616
0.767602
0.73771
0.760617
0.807171
0.879312
0.923875
0.941927
0.958242
0.968266
0.9873
1.05246
1.13846
1.32048
1.72363
2.55199
3.1498
3.97793
0.807915
0.754399
0.793611
0.773028
0.571659
0.437116
0.530514
0.650811
0.825639
1.03021
1.27223
1.42493
1.44682
1.43136
1.4081
)
;
    }
    airfoil
    {
        type            calculated;
        value           nonuniform List<scalar> 
60
(
0.0724066
0.0729574
0.0677545
0.0641546
0.0614503
0.0537123
0.0408833
0.0245074
0.0182677
0.0158897
0.0188014
0.0395975
0.185096
0.433396
0.915064
1.54612
1.54559
1.54599
1.54738
1.54754
1.54738
1.55547
1.57227
1.58429
1.59095
1.59205
1.56862
1.53715
1.49581
1.44323
4.55107
5.26913
4.92232
4.77863
4.7615
4.74482
4.71774
4.6812
4.64094
4.60432
4.56992
4.53194
4.48997
4.44935
4.36331
1.95706
0.783771
0.691256
0.753553
0.880266
0.964563
0.961443
0.958396
0.97899
1.01166
1.0148
1.00452
0.983271
0.960941
0.955408
)
;
    }
    top
    {
        type            symmetryPlane;
    }
    bottom
    {
        type            symmetryPlane;
    }
    defaultFaces
    {
        type            empty;
    }
}


// ************************************************************************* //
