/*--------------------------------*- C++ -*----------------------------------*\
  =========                 |
  \\      /  F ield         | OpenFOAM: The Open Source CFD Toolbox
   \\    /   O peration     | Website:  https://openfoam.org
    \\  /    A nd           | Version:  7
     \\/     M anipulation  |
\*---------------------------------------------------------------------------*/
FoamFile
{
    version     2.0;
    format      ascii;
    class       volVectorField;
    location    "6.5";
    object      U;
}
// * * * * * * * * * * * * * * * * * * * * * * * * * * * * * * * * * * * * * //

dimensions      [0 1 -1 0 0 0 0];

internalField   nonuniform List<vector> 
60000
(
(2.26088 -1.2784 0)
(2.07602 -0.591671 0)
(1.11292 -0.216577 0)
(1.06978 -0.0233123 0)
(1.18986 0.11237 0)
(1.32774 0.250868 0)
(1.51394 0.336185 0)
(1.67014 0.397498 0)
(1.8089 0.452532 0)
(1.92163 0.484044 0)
(2.01963 0.510917 0)
(2.11404 0.524492 0)
(2.20251 0.52969 0)
(2.27525 0.537241 0)
(2.33981 0.541072 0)
(2.39963 0.528028 0)
(2.45582 0.52182 0)
(2.50633 0.518813 0)
(2.55127 0.513601 0)
(2.59263 0.506275 0)
(2.62861 0.505051 0)
(2.66099 0.49945 0)
(2.69062 0.496195 0)
(2.71918 0.492251 0)
(2.7467 0.487134 0)
(2.77355 0.481137 0)
(2.79822 0.469699 0)
(2.82178 0.463138 0)
(2.84054 0.448472 0)
(2.8529 0.435732 0)
(2.86149 0.427174 0)
(2.86762 0.418634 0)
(2.87235 0.417158 0)
(2.87761 0.417537 0)
(2.883 0.419167 0)
(2.8878 0.422046 0)
(2.89241 0.424285 0)
(2.89648 0.427834 0)
(2.89946 0.430202 0)
(2.9003 0.434482 0)
(2.90076 0.437668 0)
(2.89922 0.442637 0)
(2.89858 0.447139 0)
(2.89699 0.452021 0)
(2.89647 0.456283 0)
(2.89563 0.458438 0)
(2.89543 0.458149 0)
(2.89518 0.460551 0)
(2.89487 0.461049 0)
(2.89216 0.459982 0)
(2.89013 0.455868 0)
(2.88848 0.446077 0)
(2.88788 0.43703 0)
(2.88639 0.428318 0)
(2.88576 0.424075 0)
(2.88501 0.417535 0)
(2.88721 0.410227 0)
(2.88598 0.404293 0)
(2.88714 0.402102 0)
(2.88728 0.402828 0)
(2.88892 0.401542 0)
(2.89 0.399013 0)
(2.89035 0.394541 0)
(2.88941 0.389656 0)
(2.88774 0.383008 0)
(2.8852 0.369239 0)
(2.88457 0.358195 0)
(2.88435 0.352618 0)
(2.88344 0.354282 0)
(2.88405 0.355065 0)
(2.88602 0.353597 0)
(2.88617 0.351461 0)
(2.88525 0.345857 0)
(2.8829 0.333928 0)
(2.8796 0.319446 0)
(2.87771 0.307754 0)
(2.87814 0.305279 0)
(2.87759 0.303438 0)
(2.87735 0.301079 0)
(2.87695 0.297189 0)
(2.87538 0.288297 0)
(2.87269 0.2764 0)
(2.86938 0.259767 0)
(2.8665 0.241137 0)
(2.86492 0.233109 0)
(2.86293 0.218859 0)
(2.86211 0.2176 0)
(2.86065 0.206255 0)
(2.86085 0.201381 0)
(2.85849 0.190398 0)
(2.85705 0.17574 0)
(2.85732 0.169617 0)
(2.85936 0.158349 0)
(2.86012 0.1563 0)
(2.85875 0.148941 0)
(2.85691 0.138929 0)
(2.85987 0.135577 0)
(2.86162 0.132199 0)
(2.86155 0.125309 0)
(2.86454 0.117634 0)
(2.64109 -1.90401 0)
(2.64156 -1.90397 0)
(1.07761 -1.81925 0)
(0.34112 -0.881616 0)
(0.335937 -0.381813 0)
(0.345495 -0.126926 0)
(0.489571 0.0213838 0)
(0.598028 0.165463 0)
(0.720019 0.234882 0)
(0.855438 0.26782 0)
(0.999016 0.297833 0)
(1.13512 0.330883 0)
(1.25794 0.345901 0)
(1.35546 0.369362 0)
(1.45672 0.381012 0)
(1.56028 0.385668 0)
(1.66076 0.392583 0)
(1.7522 0.388852 0)
(1.83753 0.384427 0)
(1.91866 0.375037 0)
(1.99639 0.37182 0)
(2.07042 0.374343 0)
(2.139 0.383766 0)
(2.20302 0.396684 0)
(2.26374 0.410484 0)
(2.32251 0.424718 0)
(2.37986 0.43811 0)
(2.43639 0.450381 0)
(2.48924 0.462611 0)
(2.5479 0.471887 0)
(2.60497 0.477108 0)
(2.65346 0.48022 0)
(2.69249 0.483054 0)
(2.72462 0.486813 0)
(2.75212 0.491003 0)
(2.776 0.496407 0)
(2.79711 0.500593 0)
(2.81518 0.505801 0)
(2.83163 0.507082 0)
(2.84479 0.509372 0)
(2.85569 0.509714 0)
(2.86297 0.509808 0)
(2.86766 0.508399 0)
(2.86958 0.507492 0)
(2.86992 0.503422 0)
(2.86963 0.497728 0)
(2.86922 0.485542 0)
(2.86882 0.469905 0)
(2.86954 0.455074 0)
(2.87154 0.442606 0)
(2.87344 0.433452 0)
(2.87428 0.424092 0)
(2.8751 0.417317 0)
(2.87558 0.411607 0)
(2.87598 0.408679 0)
(2.87582 0.40751 0)
(2.87786 0.404874 0)
(2.87943 0.403345 0)
(2.8826 0.401363 0)
(2.88344 0.401106 0)
(2.88496 0.400221 0)
(2.88608 0.396272 0)
(2.88647 0.387763 0)
(2.88596 0.376701 0)
(2.88433 0.368507 0)
(2.88223 0.364249 0)
(2.88386 0.356507 0)
(2.88271 0.353014 0)
(2.88403 0.35456 0)
(2.88471 0.356283 0)
(2.88489 0.354099 0)
(2.88483 0.347868 0)
(2.88329 0.337104 0)
(2.88154 0.326247 0)
(2.87861 0.312806 0)
(2.87808 0.305487 0)
(2.87843 0.303073 0)
(2.87843 0.303405 0)
(2.87727 0.300192 0)
(2.87604 0.293559 0)
(2.87302 0.279694 0)
(2.86904 0.265956 0)
(2.86641 0.252095 0)
(2.86356 0.233153 0)
(2.86391 0.229446 0)
(2.86192 0.215159 0)
(2.85961 0.214311 0)
(2.8585 0.203857 0)
(2.85864 0.197484 0)
(2.85699 0.185506 0)
(2.85525 0.172578 0)
(2.85555 0.167234 0)
(2.85746 0.15674 0)
(2.85837 0.154372 0)
(2.85613 0.145713 0)
(2.85474 0.137938 0)
(2.85878 0.135988 0)
(2.86031 0.131499 0)
(2.86014 0.124285 0)
(2.86259 0.116053 0)
(2.63856 -1.90549 0)
(2.63798 -1.90609 0)
(2.63815 -1.90556 0)
(2.63347 -1.90121 0)
(1.9146 -1.85721 0)
(0.646289 -0.955889 0)
(0.470294 -0.504879 0)
(0.435892 -0.185209 0)
(0.446932 -0.167208 0)
(0.530456 -0.129682 0)
(0.585865 -0.0262866 0)
(0.612154 0.0787404 0)
(0.660226 0.137695 0)
(0.726774 0.160066 0)
(0.799557 0.181898 0)
(0.875146 0.203015 0)
(0.945664 0.226326 0)
(1.00454 0.255196 0)
(1.06859 0.279281 0)
(1.13963 0.293509 0)
(1.22114 0.291453 0)
(1.30536 0.284656 0)
(1.38328 0.274879 0)
(1.45853 0.267549 0)
(1.5331 0.263041 0)
(1.60656 0.266991 0)
(1.68278 0.275218 0)
(1.76116 0.286378 0)
(1.8429 0.300869 0)
(1.93224 0.319064 0)
(2.02399 0.342502 0)
(2.11368 0.363534 0)
(2.19703 0.381234 0)
(2.27397 0.392542 0)
(2.34468 0.400462 0)
(2.41019 0.402743 0)
(2.47102 0.403196 0)
(2.52693 0.402782 0)
(2.57912 0.398915 0)
(2.62791 0.393 0)
(2.67235 0.388559 0)
(2.71154 0.382234 0)
(2.745 0.37915 0)
(2.77301 0.375364 0)
(2.79569 0.374445 0)
(2.8145 0.371745 0)
(2.8299 0.371875 0)
(2.84092 0.367894 0)
(2.84774 0.366819 0)
(2.8537 0.365792 0)
(2.85833 0.370157 0)
(2.86272 0.373426 0)
(2.86544 0.379728 0)
(2.86813 0.382585 0)
(2.86885 0.387699 0)
(2.86932 0.392303 0)
(2.87075 0.395906 0)
(2.87284 0.397767 0)
(2.87495 0.396885 0)
(2.87727 0.395763 0)
(2.87769 0.392945 0)
(2.87655 0.386814 0)
(2.87638 0.377189 0)
(2.87679 0.36713 0)
(2.8767 0.358263 0)
(2.87686 0.356652 0)
(2.87795 0.355291 0)
(2.88149 0.354891 0)
(2.88385 0.357475 0)
(2.88368 0.356491 0)
(2.88244 0.34965 0)
(2.88027 0.3364 0)
(2.87841 0.320464 0)
(2.87614 0.312582 0)
(2.87608 0.308075 0)
(2.87747 0.304423 0)
(2.87857 0.302652 0)
(2.87816 0.302699 0)
(2.8768 0.298245 0)
(2.87437 0.287468 0)
(2.87058 0.269934 0)
(2.86623 0.255285 0)
(2.86423 0.245633 0)
(2.8626 0.228578 0)
(2.86266 0.224689 0)
(2.86129 0.212645 0)
(2.85899 0.20998 0)
(2.85802 0.201661 0)
(2.8576 0.194311 0)
(2.85437 0.179663 0)
(2.85348 0.170364 0)
(2.85425 0.164612 0)
(2.85583 0.1555 0)
(2.85622 0.152283 0)
(2.85444 0.142121 0)
(2.85295 0.138388 0)
(2.85694 0.136396 0)
(2.85829 0.130732 0)
(2.85867 0.122826 0)
(2.86118 0.113565 0)
(2.63579 -1.90757 0)
(2.63589 -1.90771 0)
(2.63611 -1.90752 0)
(2.63675 -1.90831 0)
(2.63753 -1.90863 0)
(2.63863 -1.90766 0)
(2.42401 -1.76193 0)
(2.06013 -1.50086 0)
(0.980918 -0.869986 0)
(0.766202 -0.48763 0)
(0.63404 -0.197323 0)
(0.623458 -0.0823494 0)
(0.638848 -0.0922949 0)
(0.695822 -0.0759347 0)
(0.733508 -0.0205339 0)
(0.753853 0.028767 0)
(0.768817 0.0607331 0)
(0.796043 0.0731389 0)
(0.825658 0.0773367 0)
(0.852443 0.0880268 0)
(0.875897 0.11754 0)
(0.911445 0.144634 0)
(0.947065 0.167001 0)
(0.98735 0.184385 0)
(1.02925 0.197202 0)
(1.07145 0.208968 0)
(1.11469 0.223989 0)
(1.16013 0.239906 0)
(1.21451 0.254706 0)
(1.2851 0.25537 0)
(1.36354 0.250585 0)
(1.44267 0.249875 0)
(1.52385 0.249257 0)
(1.60506 0.257381 0)
(1.6885 0.265762 0)
(1.77233 0.277362 0)
(1.86041 0.28623 0)
(1.95143 0.299073 0)
(2.04246 0.324298 0)
(2.12909 0.353438 0)
(2.21334 0.373404 0)
(2.29307 0.390238 0)
(2.36988 0.399574 0)
(2.44146 0.410928 0)
(2.50776 0.423598 0)
(2.5682 0.434245 0)
(2.62341 0.443915 0)
(2.67109 0.450635 0)
(2.7112 0.453932 0)
(2.74393 0.453828 0)
(2.76987 0.455095 0)
(2.79044 0.455233 0)
(2.80582 0.455503 0)
(2.81771 0.453342 0)
(2.82587 0.449241 0)
(2.831 0.443569 0)
(2.83517 0.435441 0)
(2.83863 0.423577 0)
(2.84264 0.409355 0)
(2.84823 0.393352 0)
(2.85408 0.37804 0)
(2.85716 0.363397 0)
(2.85878 0.353839 0)
(2.85968 0.351142 0)
(2.86431 0.347088 0)
(2.86973 0.350732 0)
(2.87431 0.354398 0)
(2.87983 0.35977 0)
(2.87939 0.358686 0)
(2.87766 0.350603 0)
(2.87447 0.338404 0)
(2.87272 0.326495 0)
(2.87273 0.315992 0)
(2.87204 0.30849 0)
(2.87347 0.304913 0)
(2.87595 0.304826 0)
(2.87725 0.303151 0)
(2.8768 0.300329 0)
(2.87461 0.292197 0)
(2.87073 0.27533 0)
(2.86723 0.258408 0)
(2.86394 0.245178 0)
(2.86019 0.23542 0)
(2.86141 0.225684 0)
(2.85994 0.219432 0)
(2.85887 0.210197 0)
(2.85703 0.206262 0)
(2.85531 0.197356 0)
(2.85515 0.189999 0)
(2.85236 0.174402 0)
(2.85147 0.16886 0)
(2.85225 0.162121 0)
(2.85431 0.154633 0)
(2.85417 0.149901 0)
(2.85216 0.140459 0)
(2.85233 0.13879 0)
(2.85494 0.136447 0)
(2.85666 0.129019 0)
(2.8569 0.120387 0)
(2.85873 0.110035 0)
(2.64209 -1.90453 0)
(2.64291 -1.90528 0)
(2.64433 -1.90549 0)
(2.64525 -1.90647 0)
(2.64668 -1.90686 0)
(2.64817 -1.90786 0)
(2.64924 -1.90852 0)
(2.65032 -1.9099 0)
(2.65065 -1.90907 0)
(2.48565 -1.79317 0)
(2.15987 -1.51505 0)
(1.8315 -1.16495 0)
(1.25112 -0.667692 0)
(1.00808 -0.338482 0)
(0.880484 -0.116869 0)
(0.828395 -0.0296199 0)
(0.824548 -0.0365746 0)
(0.847357 -0.0312095 0)
(0.880567 -0.0110473 0)
(0.898297 0.0212682 0)
(0.905723 0.0446006 0)
(0.912381 0.0583753 0)
(0.921256 0.0650606 0)
(0.936198 0.0711832 0)
(0.94646 0.0834206 0)
(0.959642 0.0929523 0)
(0.974521 0.103498 0)
(0.989064 0.111903 0)
(1.00393 0.126777 0)
(1.02005 0.152362 0)
(1.05068 0.170448 0)
(1.08436 0.185329 0)
(1.12108 0.197064 0)
(1.15975 0.204563 0)
(1.19954 0.21552 0)
(1.24371 0.227021 0)
(1.29627 0.244958 0)
(1.36625 0.245925 0)
(1.44843 0.235534 0)
(1.52525 0.23225 0)
(1.60253 0.241384 0)
(1.68635 0.246397 0)
(1.77427 0.262952 0)
(1.87147 0.264041 0)
(1.96839 0.279624 0)
(2.06236 0.300288 0)
(2.15191 0.325128 0)
(2.24119 0.333555 0)
(2.32721 0.345926 0)
(2.41022 0.345141 0)
(2.4843 0.34885 0)
(2.54851 0.344542 0)
(2.60435 0.340545 0)
(2.65271 0.330889 0)
(2.6944 0.325318 0)
(2.72928 0.319171 0)
(2.75674 0.318426 0)
(2.7783 0.312355 0)
(2.79563 0.314687 0)
(2.80879 0.3105 0)
(2.81966 0.318452 0)
(2.83234 0.319849 0)
(2.83997 0.334868 0)
(2.8487 0.343756 0)
(2.85187 0.357279 0)
(2.85686 0.363246 0)
(2.86176 0.372348 0)
(2.86447 0.367167 0)
(2.86425 0.349922 0)
(2.86512 0.332881 0)
(2.86559 0.32102 0)
(2.86651 0.313102 0)
(2.86507 0.30734 0)
(2.86769 0.303412 0)
(2.87038 0.304699 0)
(2.87464 0.307019 0)
(2.87393 0.30308 0)
(2.87245 0.293202 0)
(2.86949 0.280694 0)
(2.86676 0.266471 0)
(2.86315 0.249077 0)
(2.86174 0.240232 0)
(2.859 0.227264 0)
(2.85975 0.224367 0)
(2.85707 0.21473 0)
(2.85668 0.208689 0)
(2.85567 0.2022 0)
(2.85366 0.192026 0)
(2.85239 0.185096 0)
(2.84909 0.170155 0)
(2.84823 0.166987 0)
(2.84981 0.15967 0)
(2.85332 0.153683 0)
(2.85207 0.147696 0)
(2.85053 0.139444 0)
(2.85214 0.139243 0)
(2.85315 0.136074 0)
(2.85517 0.126983 0)
(2.85415 0.117839 0)
(2.85769 0.107294 0)
(2.64803 -1.91657 0)
(2.65015 -1.91668 0)
(2.65174 -1.91799 0)
(2.65429 -1.91777 0)
(2.65625 -1.91881 0)
(2.65899 -1.91885 0)
(2.66135 -1.92015 0)
(2.66458 -1.92043 0)
(2.66769 -1.922 0)
(2.67025 -1.92238 0)
(2.67331 -1.92183 0)
(2.6752 -1.92263 0)
(2.65485 -1.89401 0)
(2.48754 -1.74519 0)
(2.1954 -1.44783 0)
(1.85406 -1.04209 0)
(1.55024 -0.624535 0)
(1.23623 -0.291323 0)
(1.1109 -0.069601 0)
(1.01935 0.0359025 0)
(0.99795 0.0442231 0)
(0.991294 0.0420026 0)
(1.00484 0.0446882 0)
(1.00927 0.0576524 0)
(1.0073 0.0678107 0)
(1.00514 0.0712711 0)
(1.01048 0.0691236 0)
(1.02136 0.0725206 0)
(1.03264 0.0830942 0)
(1.04161 0.0930029 0)
(1.04744 0.101048 0)
(1.05689 0.107199 0)
(1.06732 0.112894 0)
(1.07626 0.120573 0)
(1.0882 0.124005 0)
(1.10315 0.125778 0)
(1.12032 0.134418 0)
(1.13624 0.160886 0)
(1.16547 0.178697 0)
(1.19803 0.186465 0)
(1.23191 0.193364 0)
(1.27059 0.205777 0)
(1.31702 0.22021 0)
(1.37113 0.2469 0)
(1.43887 0.240682 0)
(1.5134 0.232062 0)
(1.5856 0.234233 0)
(1.66862 0.243337 0)
(1.7621 0.254312 0)
(1.8594 0.272349 0)
(1.96116 0.27488 0)
(2.06028 0.295274 0)
(2.15569 0.324652 0)
(2.2476 0.346532 0)
(2.3354 0.364041 0)
(2.41744 0.370276 0)
(2.48811 0.385015 0)
(2.5525 0.387352 0)
(2.61024 0.394826 0)
(2.65958 0.39458 0)
(2.69677 0.400111 0)
(2.72944 0.400644 0)
(2.7543 0.395859 0)
(2.77622 0.389202 0)
(2.79208 0.380188 0)
(2.80487 0.360764 0)
(2.81805 0.344352 0)
(2.83135 0.316221 0)
(2.83834 0.298679 0)
(2.84271 0.290625 0)
(2.85032 0.287292 0)
(2.85593 0.289556 0)
(2.85841 0.29694 0)
(2.86097 0.303748 0)
(2.86243 0.306174 0)
(2.866 0.306609 0)
(2.86585 0.295203 0)
(2.86416 0.280008 0)
(2.862 0.267115 0)
(2.86002 0.256179 0)
(2.85732 0.241478 0)
(2.85703 0.234096 0)
(2.85717 0.220329 0)
(2.8578 0.219981 0)
(2.85576 0.210994 0)
(2.85528 0.206491 0)
(2.85353 0.197936 0)
(2.85204 0.187945 0)
(2.85072 0.180748 0)
(2.84745 0.167792 0)
(2.84736 0.164803 0)
(2.85004 0.155436 0)
(2.8535 0.152208 0)
(2.85194 0.145013 0)
(2.8508 0.140239 0)
(2.85186 0.138781 0)
(2.85187 0.132919 0)
(2.85163 0.12378 0)
(2.8527 0.116648 0)
(2.85701 0.105568 0)
(2.67172 -1.91316 0)
(2.67376 -1.91415 0)
(2.67629 -1.91473 0)
(2.67864 -1.91591 0)
(2.68152 -1.91644 0)
(2.68414 -1.91765 0)
(2.6872 -1.9185 0)
(2.69013 -1.92002 0)
(2.69374 -1.92073 0)
(2.69693 -1.92235 0)
(2.70111 -1.92306 0)
(2.7033 -1.92584 0)
(2.71066 -1.92796 0)
(2.71214 -1.93064 0)
(2.71543 -1.92992 0)
(2.71602 -1.93384 0)
(2.70628 -1.90767 0)
(2.5709 -1.76484 0)
(2.31435 -1.46273 0)
(2.02268 -1.04592 0)
(1.78887 -0.657153 0)
(1.56351 -0.332116 0)
(1.33327 -0.0790267 0)
(1.17134 0.0470807 0)
(1.12599 0.0711485 0)
(1.12738 0.0691046 0)
(1.13686 0.084285 0)
(1.14506 0.104846 0)
(1.13854 0.114855 0)
(1.12268 0.105268 0)
(1.12146 0.0915209 0)
(1.12818 0.0788814 0)
(1.13468 0.0797556 0)
(1.12802 0.0839174 0)
(1.12401 0.0838114 0)
(1.12984 0.0864368 0)
(1.14343 0.0957148 0)
(1.16 0.107544 0)
(1.15657 0.120877 0)
(1.15857 0.128379 0)
(1.16636 0.132571 0)
(1.18052 0.134708 0)
(1.19827 0.139658 0)
(1.2163 0.146848 0)
(1.225 0.173953 0)
(1.25214 0.177385 0)
(1.27894 0.185409 0)
(1.3152 0.196653 0)
(1.35911 0.213631 0)
(1.40639 0.229496 0)
(1.46596 0.248643 0)
(1.54642 0.227688 0)
(1.63318 0.221581 0)
(1.72285 0.224068 0)
(1.81431 0.238345 0)
(1.90952 0.244727 0)
(2.01022 0.24246 0)
(2.10779 0.269075 0)
(2.20463 0.293987 0)
(2.29498 0.310173 0)
(2.38099 0.306201 0)
(2.45634 0.306045 0)
(2.52332 0.298437 0)
(2.58273 0.293107 0)
(2.63387 0.286405 0)
(2.67418 0.287912 0)
(2.7057 0.283705 0)
(2.7309 0.291009 0)
(2.76129 0.304631 0)
(2.78317 0.3199 0)
(2.79881 0.330067 0)
(2.81162 0.336712 0)
(2.82114 0.340144 0)
(2.8272 0.328811 0)
(2.83255 0.313491 0)
(2.83995 0.288479 0)
(2.84553 0.268418 0)
(2.84784 0.254267 0)
(2.84874 0.24495 0)
(2.84802 0.236565 0)
(2.84803 0.228826 0)
(2.84874 0.222036 0)
(2.85095 0.210312 0)
(2.8527 0.210627 0)
(2.85264 0.204854 0)
(2.85259 0.201256 0)
(2.85101 0.19127 0)
(2.84953 0.182173 0)
(2.84903 0.173407 0)
(2.84654 0.164528 0)
(2.84638 0.161593 0)
(2.84926 0.153089 0)
(2.85273 0.149229 0)
(2.85149 0.143396 0)
(2.85188 0.142516 0)
(2.85092 0.137605 0)
(2.85008 0.128224 0)
(2.85093 0.121302 0)
(2.85232 0.114811 0)
(2.85684 0.104337 0)
(2.69048 -1.92824 0)
(2.69326 -1.92864 0)
(2.69538 -1.93039 0)
(2.69846 -1.93064 0)
(2.70089 -1.93219 0)
(2.70421 -1.93253 0)
(2.70657 -1.93484 0)
(2.71023 -1.93528 0)
(2.71277 -1.93778 0)
(2.71675 -1.93793 0)
(2.71913 -1.94076 0)
(2.72342 -1.9407 0)
(2.72563 -1.944 0)
(2.73017 -1.94378 0)
(2.73271 -1.94713 0)
(2.73728 -1.94705 0)
(2.74138 -1.95266 0)
(2.74412 -1.95293 0)
(2.74735 -1.952 0)
(2.74879 -1.95452 0)
(2.74675 -1.94307 0)
(2.68224 -1.82775 0)
(2.46388 -1.5493 0)
(2.16975 -1.14642 0)
(1.92086 -0.737374 0)
(1.72689 -0.405311 0)
(1.59725 -0.153899 0)
(1.42409 0.0284075 0)
(1.28326 0.0947488 0)
(1.24854 0.0897781 0)
(1.2586 0.0987167 0)
(1.28071 0.112788 0)
(1.2898 0.139155 0)
(1.27077 0.148626 0)
(1.24552 0.13577 0)
(1.2465 0.121703 0)
(1.25499 0.109766 0)
(1.25794 0.11201 0)
(1.23741 0.117916 0)
(1.21609 0.111124 0)
(1.21102 0.0982699 0)
(1.22218 0.0954257 0)
(1.23576 0.105017 0)
(1.24053 0.119839 0)
(1.23855 0.134298 0)
(1.23288 0.139849 0)
(1.23761 0.139351 0)
(1.24997 0.140542 0)
(1.26277 0.148726 0)
(1.27639 0.15105 0)
(1.29229 0.159748 0)
(1.31534 0.184949 0)
(1.35828 0.197593 0)
(1.40273 0.206173 0)
(1.44749 0.212042 0)
(1.49459 0.227859 0)
(1.56055 0.236043 0)
(1.64517 0.216672 0)
(1.72722 0.223908 0)
(1.81266 0.231666 0)
(1.90428 0.255041 0)
(2.00513 0.245086 0)
(2.1008 0.278838 0)
(2.19491 0.300609 0)
(2.28113 0.320178 0)
(2.36288 0.312614 0)
(2.43129 0.321186 0)
(2.4909 0.318275 0)
(2.54865 0.305221 0)
(2.60233 0.282332 0)
(2.64999 0.271753 0)
(2.69063 0.25974 0)
(2.72532 0.250667 0)
(2.75345 0.245642 0)
(2.77585 0.245359 0)
(2.78734 0.243702 0)
(2.80158 0.248809 0)
(2.81183 0.249946 0)
(2.81713 0.243474 0)
(2.82103 0.234944 0)
(2.82678 0.228622 0)
(2.8313 0.220532 0)
(2.83608 0.213862 0)
(2.83891 0.214305 0)
(2.84133 0.210986 0)
(2.84223 0.202804 0)
(2.84098 0.180031 0)
(2.84198 0.170285 0)
(2.84296 0.163895 0)
(2.84271 0.162016 0)
(2.84272 0.158916 0)
(2.84476 0.151736 0)
(2.84869 0.143394 0)
(2.85027 0.146228 0)
(2.85016 0.144033 0)
(2.84794 0.133398 0)
(2.84825 0.120662 0)
(2.85041 0.11637 0)
(2.85252 0.116531 0)
(2.85643 0.108436 0)
(2.71983 -1.93326 0)
(2.72165 -1.93496 0)
(2.72433 -1.93516 0)
(2.7261 -1.9369 0)
(2.72894 -1.93715 0)
(2.73081 -1.93925 0)
(2.73378 -1.93994 0)
(2.73608 -1.94201 0)
(2.73927 -1.94273 0)
(2.74164 -1.94485 0)
(2.74472 -1.94587 0)
(2.74721 -1.94789 0)
(2.75009 -1.94937 0)
(2.75309 -1.95093 0)
(2.7556 -1.95342 0)
(2.75925 -1.9548 0)
(2.76096 -1.95884 0)
(2.76537 -1.95938 0)
(2.76626 -1.96459 0)
(2.77138 -1.96384 0)
(2.77149 -1.97094 0)
(2.77507 -1.97012 0)
(2.77481 -1.97422 0)
(2.77904 -1.97283 0)
(2.77778 -1.98013 0)
(2.73305 -1.89066 0)
(2.60473 -1.67375 0)
(2.38145 -1.32391 0)
(2.09689 -0.901851 0)
(1.89715 -0.535129 0)
(1.75368 -0.250844 0)
(1.66709 -0.0473984 0)
(1.55028 0.0909687 0)
(1.42081 0.134997 0)
(1.37891 0.12418 0)
(1.39367 0.134229 0)
(1.42674 0.14736 0)
(1.44799 0.164536 0)
(1.42052 0.173967 0)
(1.37009 0.154953 0)
(1.36156 0.124979 0)
(1.37831 0.118674 0)
(1.39519 0.135474 0)
(1.36823 0.160552 0)
(1.31859 0.152015 0)
(1.29368 0.129999 0)
(1.29671 0.115022 0)
(1.30476 0.117843 0)
(1.30365 0.119852 0)
(1.30193 0.12095 0)
(1.30574 0.132444 0)
(1.32195 0.137223 0)
(1.33244 0.143319 0)
(1.34462 0.148233 0)
(1.35632 0.15311 0)
(1.37502 0.151186 0)
(1.39406 0.176878 0)
(1.42814 0.193854 0)
(1.46482 0.195158 0)
(1.50193 0.199394 0)
(1.5436 0.216077 0)
(1.60285 0.233613 0)
(1.68296 0.204329 0)
(1.76082 0.204907 0)
(1.83851 0.206285 0)
(1.92233 0.224909 0)
(2.01269 0.205121 0)
(2.09389 0.224043 0)
(2.17585 0.242753 0)
(2.25842 0.264841 0)
(2.34328 0.266913 0)
(2.41698 0.284614 0)
(2.48469 0.289279 0)
(2.54759 0.293845 0)
(2.6019 0.291273 0)
(2.63857 0.289509 0)
(2.66722 0.267953 0)
(2.69308 0.237958 0)
(2.71822 0.217711 0)
(2.74153 0.208171 0)
(2.75985 0.20965 0)
(2.775 0.203614 0)
(2.78865 0.198076 0)
(2.79944 0.194914 0)
(2.80812 0.188074 0)
(2.81315 0.175864 0)
(2.81491 0.164531 0)
(2.81929 0.172956 0)
(2.82299 0.175064 0)
(2.82549 0.175198 0)
(2.82536 0.16109 0)
(2.83132 0.134241 0)
(2.83692 0.142655 0)
(2.84142 0.148303 0)
(2.84104 0.140631 0)
(2.83928 0.120992 0)
(2.84277 0.109998 0)
(2.84653 0.12035 0)
(2.84945 0.1252 0)
(2.85187 0.116281 0)
(2.73712 -1.95589 0)
(2.73926 -1.95672 0)
(2.74137 -1.95763 0)
(2.74346 -1.95829 0)
(2.74535 -1.95927 0)
(2.74724 -1.96066 0)
(2.74957 -1.96173 0)
(2.75174 -1.96337 0)
(2.75454 -1.96437 0)
(2.75645 -1.96677 0)
(2.75935 -1.96777 0)
(2.76096 -1.97046 0)
(2.76394 -1.97106 0)
(2.76537 -1.97378 0)
(2.76887 -1.97378 0)
(2.76983 -1.97724 0)
(2.77334 -1.97776 0)
(2.77462 -1.98116 0)
(2.77701 -1.98331 0)
(2.77927 -1.9852 0)
(2.78147 -1.98705 0)
(2.78358 -1.98883 0)
(2.78575 -1.99097 0)
(2.78839 -1.99222 0)
(2.79022 -1.99601 0)
(2.79347 -1.99399 0)
(2.79509 -1.9953 0)
(2.79909 -1.99308 0)
(2.79957 -1.99844 0)
(2.78103 -1.94331 0)
(2.68817 -1.77022 0)
(2.54165 -1.47893 0)
(2.36302 -1.12112 0)
(2.13737 -0.735568 0)
(1.97705 -0.405773 0)
(1.83278 -0.147265 0)
(1.76307 0.0214804 0)
(1.66303 0.138862 0)
(1.58736 0.151718 0)
(1.49618 0.156972 0)
(1.50272 0.163918 0)
(1.54472 0.175695 0)
(1.60092 0.198259 0)
(1.5661 0.190095 0)
(1.49625 0.171201 0)
(1.46214 0.132862 0)
(1.47116 0.116522 0)
(1.48176 0.12937 0)
(1.4583 0.148473 0)
(1.41944 0.157511 0)
(1.40006 0.147268 0)
(1.39528 0.132527 0)
(1.39635 0.13189 0)
(1.39258 0.129051 0)
(1.38752 0.120633 0)
(1.39755 0.121395 0)
(1.4171 0.135502 0)
(1.42113 0.147049 0)
(1.42461 0.154045 0)
(1.43366 0.15699 0)
(1.44922 0.158529 0)
(1.46787 0.176894 0)
(1.49385 0.20133 0)
(1.52985 0.196457 0)
(1.56346 0.195724 0)
(1.60475 0.201934 0)
(1.65619 0.224377 0)
(1.71595 0.195153 0)
(1.78614 0.189012 0)
(1.86361 0.190916 0)
(1.9444 0.211083 0)
(2.0298 0.192 0)
(2.1084 0.211566 0)
(2.18895 0.230564 0)
(2.26446 0.230871 0)
(2.33139 0.203509 0)
(2.39025 0.197013 0)
(2.44768 0.194252 0)
(2.5043 0.201059 0)
(2.5522 0.205639 0)
(2.59011 0.208155 0)
(2.62489 0.199201 0)
(2.65833 0.19264 0)
(2.68713 0.196719 0)
(2.7091 0.197524 0)
(2.72454 0.193247 0)
(2.73673 0.187283 0)
(2.75003 0.172693 0)
(2.76334 0.156373 0)
(2.77467 0.144059 0)
(2.7815 0.122411 0)
(2.79287 0.122252 0)
(2.80321 0.133695 0)
(2.81233 0.135687 0)
(2.81364 0.120459 0)
(2.81686 0.115344 0)
(2.82289 0.12512 0)
(2.82688 0.130454 0)
(2.83001 0.12546 0)
(2.83426 0.110662 0)
(2.76405 -1.9614 0)
(2.76605 -1.96197 0)
(2.76737 -1.96373 0)
(2.76968 -1.96413 0)
(2.77097 -1.9661 0)
(2.7734 -1.96626 0)
(2.77464 -1.96808 0)
(2.77711 -1.968 0)
(2.77823 -1.96996 0)
(2.78089 -1.97001 0)
(2.78177 -1.97273 0)
(2.78455 -1.97289 0)
(2.78527 -1.97583 0)
(2.78771 -1.97611 0)
(2.78917 -1.97767 0)
(2.79093 -1.97897 0)
(2.79352 -1.97943 0)
(2.79474 -1.98201 0)
(2.79757 -1.98251 0)
(2.79831 -1.98582 0)
(2.80164 -1.98522 0)
(2.80199 -1.98847 0)
(2.80494 -1.98827 0)
(2.80518 -1.99212 0)
(2.80881 -1.9912 0)
(2.80887 -1.99553 0)
(2.81332 -1.99367 0)
(2.81308 -1.9989 0)
(2.81804 -1.99561 0)
(2.81972 -2.00606 0)
(2.82251 -2.00305 0)
(2.82319 -2.00409 0)
(2.82581 -2.00237 0)
(2.8265 -2.00536 0)
(2.79264 -1.90527 0)
(2.67022 -1.65163 0)
(2.51953 -1.31118 0)
(2.33582 -0.917736 0)
(2.19108 -0.598045 0)
(2.02088 -0.284631 0)
(1.89437 -0.0460042 0)
(1.79878 0.105804 0)
(1.74845 0.158149 0)
(1.69617 0.16646 0)
(1.62651 0.18206 0)
(1.59374 0.193361 0)
(1.63378 0.206223 0)
(1.66238 0.198267 0)
(1.64579 0.179788 0)
(1.5976 0.157158 0)
(1.57694 0.128806 0)
(1.5709 0.117382 0)
(1.56837 0.128733 0)
(1.54108 0.139929 0)
(1.51378 0.149368 0)
(1.50148 0.157879 0)
(1.49844 0.153111 0)
(1.48284 0.148333 0)
(1.46999 0.140677 0)
(1.4663 0.130139 0)
(1.47518 0.129403 0)
(1.48838 0.146824 0)
(1.49263 0.158311 0)
(1.49452 0.156687 0)
(1.50305 0.151723 0)
(1.51883 0.153619 0)
(1.54045 0.149836 0)
(1.55124 0.173474 0)
(1.58694 0.181129 0)
(1.62712 0.190133 0)
(1.66726 0.193297 0)
(1.71485 0.205296 0)
(1.77356 0.174712 0)
(1.83066 0.171115 0)
(1.88267 0.168814 0)
(1.94106 0.174203 0)
(2.01349 0.156137 0)
(2.0855 0.184471 0)
(2.15976 0.208436 0)
(2.22485 0.202259 0)
(2.28564 0.186503 0)
(2.3452 0.186074 0)
(2.40336 0.188776 0)
(2.45575 0.17416 0)
(2.49759 0.156987 0)
(2.532 0.146003 0)
(2.56752 0.131198 0)
(2.60044 0.141183 0)
(2.62655 0.143185 0)
(2.6465 0.147833 0)
(2.66787 0.145883 0)
(2.6914 0.156963 0)
(2.71296 0.155455 0)
(2.72935 0.145977 0)
(2.74046 0.133758 0)
(2.75186 0.141009 0)
(2.76172 0.127434 0)
(2.77257 0.114828 0)
(2.77965 0.0974879 0)
(2.79141 0.0824204 0)
(2.77951 -1.97932 0)
(2.78038 -1.98045 0)
(2.78193 -1.98071 0)
(2.78281 -1.98196 0)
(2.78428 -1.98253 0)
(2.78516 -1.98403 0)
(2.78699 -1.98426 0)
(2.78774 -1.98596 0)
(2.78944 -1.98633 0)
(2.79053 -1.98752 0)
(2.79192 -1.98845 0)
(2.79366 -1.98895 0)
(2.79474 -1.99046 0)
(2.7963 -1.99127 0)
(2.79709 -1.9933 0)
(2.7992 -1.99357 0)
(2.80009 -1.99592 0)
(2.80327 -1.99501 0)
(2.80381 -1.99791 0)
(2.8069 -1.99716 0)
(2.80761 -1.99976 0)
(2.81062 -1.999 0)
(2.811 -2.00196 0)
(2.81439 -2.00069 0)
(2.81448 -2.00429 0)
(2.81808 -2.00282 0)
(2.81868 -2.006 0)
(2.82228 -2.00466 0)
(2.82378 -2.00688 0)
(2.82689 -2.00662 0)
(2.82989 -2.00672 0)
(2.83349 -2.00572 0)
(2.83642 -2.00567 0)
(2.83937 -2.00734 0)
(2.84213 -2.00543 0)
(2.84466 -2.00463 0)
(2.84759 -2.00352 0)
(2.84864 -2.00549 0)
(2.84101 -1.97215 0)
(2.77613 -1.80302 0)
(2.63229 -1.47355 0)
(2.4517 -1.06068 0)
(2.27933 -0.695541 0)
(2.15782 -0.398944 0)
(2.02623 -0.142674 0)
(1.90557 0.0557632 0)
(1.80968 0.17207 0)
(1.76871 0.178614 0)
(1.73979 0.186822 0)
(1.71151 0.195233 0)
(1.7046 0.209579 0)
(1.72369 0.206984 0)
(1.73608 0.192841 0)
(1.71169 0.169264 0)
(1.6859 0.149205 0)
(1.6709 0.13502 0)
(1.66674 0.129609 0)
(1.64069 0.135767 0)
(1.60818 0.148375 0)
(1.58945 0.156556 0)
(1.57753 0.170871 0)
(1.5671 0.164495 0)
(1.54486 0.150428 0)
(1.53244 0.133405 0)
(1.53313 0.121402 0)
(1.53979 0.118808 0)
(1.54575 0.126188 0)
(1.55336 0.13722 0)
(1.56161 0.145538 0)
(1.57722 0.151484 0)
(1.59063 0.154029 0)
(1.60729 0.15596 0)
(1.62889 0.173177 0)
(1.64716 0.164299 0)
(1.65686 0.148197 0)
(1.68043 0.145141 0)
(1.72355 0.168221 0)
(1.78033 0.150381 0)
(1.83659 0.141506 0)
(1.8881 0.13179 0)
(1.94623 0.141079 0)
(2.00975 0.130898 0)
(2.06926 0.14548 0)
(2.12586 0.164699 0)
(2.17754 0.16725 0)
(2.23018 0.161039 0)
(2.28668 0.173272 0)
(2.33879 0.16866 0)
(2.37899 0.16455 0)
(2.41321 0.140964 0)
(2.45294 0.121178 0)
(2.49306 0.109341 0)
(2.5316 0.108156 0)
(2.56312 0.104325 0)
(2.58824 0.111786 0)
(2.61266 0.104866 0)
(2.63619 0.101651 0)
(2.65643 0.101736 0)
(2.66874 0.103832 0)
(2.69103 0.102546 0)
(2.8016 -1.97979 0)
(2.80232 -1.98058 0)
(2.80313 -1.98142 0)
(2.80414 -1.98204 0)
(2.80518 -1.9827 0)
(2.80594 -1.98382 0)
(2.80736 -1.984 0)
(2.80771 -1.98556 0)
(2.80896 -1.98583 0)
(2.80956 -1.98707 0)
(2.81085 -1.98765 0)
(2.81168 -1.98912 0)
(2.81349 -1.98923 0)
(2.81368 -1.99137 0)
(2.81538 -1.99138 0)
(2.81579 -1.99343 0)
(2.81788 -1.99338 0)
(2.81867 -1.99539 0)
(2.82097 -1.99524 0)
(2.82187 -1.99726 0)
(2.82448 -1.9967 0)
(2.82529 -1.99877 0)
(2.8276 -1.99854 0)
(2.82881 -2.00009 0)
(2.8311 -1.99994 0)
(2.83257 -2.00135 0)
(2.83508 -2.00104 0)
(2.83697 -2.00212 0)
(2.83952 -2.00209 0)
(2.84188 -2.00254 0)
(2.84394 -2.00353 0)
(2.84677 -2.00253 0)
(2.84876 -2.00311 0)
(2.85144 -2.00211 0)
(2.85325 -2.00319 0)
(2.85666 -2.00158 0)
(2.85736 -2.00401 0)
(2.86074 -2.00138 0)
(2.86112 -2.00844 0)
(2.86226 -2.00667 0)
(2.86061 -2.00823 0)
(2.86167 -2.0067 0)
(2.85934 -2.00861 0)
(2.81423 -1.88724 0)
(2.69554 -1.60099 0)
(2.54058 -1.19588 0)
(2.34309 -0.766759 0)
(2.21003 -0.442399 0)
(2.06595 -0.170054 0)
(1.99329 0.014495 0)
(1.87633 0.157895 0)
(1.83753 0.174381 0)
(1.81383 0.198362 0)
(1.80386 0.202092 0)
(1.79908 0.210193 0)
(1.80663 0.213637 0)
(1.81398 0.197234 0)
(1.8044 0.177434 0)
(1.7709 0.156204 0)
(1.755 0.160737 0)
(1.73705 0.156048 0)
(1.71542 0.140675 0)
(1.6824 0.140251 0)
(1.65914 0.148489 0)
(1.64443 0.150877 0)
(1.63108 0.157144 0)
(1.61117 0.150971 0)
(1.6019 0.138775 0)
(1.60123 0.135479 0)
(1.60347 0.131955 0)
(1.6039 0.123251 0)
(1.61645 0.130588 0)
(1.62216 0.138955 0)
(1.61476 0.136548 0)
(1.60322 0.121749 0)
(1.61165 0.114205 0)
(1.63715 0.117004 0)
(1.65702 0.144718 0)
(1.67806 0.141684 0)
(1.69868 0.137104 0)
(1.73472 0.138045 0)
(1.77206 0.152995 0)
(1.80843 0.128841 0)
(1.84719 0.1122 0)
(1.88603 0.108459 0)
(1.93393 0.10918 0)
(1.98736 0.109916 0)
(2.03727 0.111875 0)
(2.08278 0.09416 0)
(2.12348 0.112014 0)
(2.16974 0.12999 0)
(2.21774 0.137915 0)
(2.26516 0.138737 0)
(2.3098 0.141255 0)
(2.35045 0.131297 0)
(2.39068 0.128793 0)
(2.42613 0.129809 0)
(2.45815 0.120889 0)
(2.47874 0.10223 0)
(2.51527 0.0889793 0)
(2.81022 -1.99647 0)
(2.81105 -1.99672 0)
(2.81136 -1.99791 0)
(2.81262 -1.99789 0)
(2.81288 -1.99924 0)
(2.81397 -1.99938 0)
(2.81448 -2.00024 0)
(2.81542 -2.00041 0)
(2.81603 -2.00107 0)
(2.81744 -2.00072 0)
(2.81774 -2.00225 0)
(2.81936 -2.00212 0)
(2.81981 -2.0036 0)
(2.82115 -2.00369 0)
(2.82192 -2.0047 0)
(2.8237 -2.00434 0)
(2.82484 -2.00525 0)
(2.82686 -2.00491 0)
(2.82781 -2.00636 0)
(2.82982 -2.00622 0)
(2.83135 -2.00696 0)
(2.83319 -2.00724 0)
(2.83492 -2.00769 0)
(2.83675 -2.00802 0)
(2.83888 -2.00775 0)
(2.84071 -2.0081 0)
(2.84282 -2.00777 0)
(2.84463 -2.00829 0)
(2.84703 -2.00749 0)
(2.84881 -2.00815 0)
(2.85129 -2.00679 0)
(2.8527 -2.00756 0)
(2.85545 -2.00542 0)
(2.85625 -2.00664 0)
(2.85899 -2.00498 0)
(2.85905 -2.00733 0)
(2.86165 -2.00575 0)
(2.86125 -2.00792 0)
(2.8626 -2.00674 0)
(2.86205 -2.00755 0)
(2.86193 -2.00764 0)
(2.86295 -2.00576 0)
(2.86052 -2.00984 0)
(2.86296 -2.00576 0)
(2.86276 -2.00689 0)
(2.8658 -2.00366 0)
(2.86483 -2.00977 0)
(2.83291 -1.91034 0)
(2.70626 -1.63104 0)
(2.55271 -1.21222 0)
(2.37575 -0.758198 0)
(2.26486 -0.442693 0)
(2.09714 -0.143121 0)
(2.04644 0.026983 0)
(1.94444 0.15311 0)
(1.91333 0.184272 0)
(1.88599 0.197553 0)
(1.87748 0.206459 0)
(1.87403 0.207997 0)
(1.87951 0.208446 0)
(1.87042 0.199201 0)
(1.85243 0.169044 0)
(1.83313 0.14872 0)
(1.81538 0.152858 0)
(1.79703 0.145862 0)
(1.77621 0.140093 0)
(1.75202 0.137213 0)
(1.73572 0.14297 0)
(1.71992 0.154378 0)
(1.70241 0.150166 0)
(1.6845 0.150202 0)
(1.67209 0.139868 0)
(1.66085 0.128386 0)
(1.63709 0.107651 0)
(1.62413 0.0869981 0)
(1.63119 0.0877662 0)
(1.64467 0.10095 0)
(1.65553 0.115032 0)
(1.6533 0.113597 0)
(1.65834 0.106909 0)
(1.68004 0.109228 0)
(1.69972 0.111381 0)
(1.70954 0.1221 0)
(1.72285 0.113715 0)
(1.74246 0.110643 0)
(1.77143 0.11663 0)
(1.80309 0.123795 0)
(1.83009 0.122913 0)
(1.86209 0.123008 0)
(1.90165 0.102421 0)
(1.94112 0.0866576 0)
(1.97926 0.0794416 0)
(2.01745 0.0775583 0)
(2.05924 0.0802359 0)
(2.10289 0.0851378 0)
(2.14476 0.0918165 0)
(2.18206 0.0774465 0)
(2.21795 0.0902667 0)
(2.24445 0.109709 0)
(2.2932 0.10741 0)
(2.82698 -1.99729 0)