/*--------------------------------*- C++ -*----------------------------------*\
  =========                 |
  \\      /  F ield         | OpenFOAM: The Open Source CFD Toolbox
   \\    /   O peration     | Website:  https://openfoam.org
    \\  /    A nd           | Version:  7
     \\/     M anipulation  |
\*---------------------------------------------------------------------------*/
FoamFile
{
    version     2.0;
    format      ascii;
    class       volScalarField;
    location    "7";
    object      p;
}
// * * * * * * * * * * * * * * * * * * * * * * * * * * * * * * * * * * * * * //

dimensions      [1 -1 -2 0 0 0 0];

internalField   nonuniform List<scalar> 
90000
(
0.300521
0.34465
0.380694
0.416847
0.452204
0.479868
0.511556
0.548761
0.584057
0.621782
0.663807
0.706466
0.749439
0.790984
0.828351
0.86068
0.888504
0.907432
0.924385
0.932573
0.937195
0.939203
0.940936
0.941641
0.942294
0.941576
0.938489
0.933394
0.925268
0.915353
0.905318
0.89497
0.894478
0.898618
0.905456
0.91288
0.919812
0.925271
0.929553
0.930141
0.929157
0.925546
0.918357
0.912462
0.909996
0.911207
0.914395
0.919843
0.925398
0.926162
0.924847
0.921534
0.916437
0.913821
0.913901
0.916424
0.920504
0.923024
0.922319
0.919782
0.915512
0.915126
0.916953
0.920043
0.921392
0.920117
0.916636
0.915264
0.916118
0.918057
0.917949
0.916485
0.915133
0.915405
0.915992
0.915563
0.914354
0.913746
0.913877
0.913691
0.913023
0.912424
0.912258
0.911897
0.911018
0.909902
0.908533
0.906942
0.90573
0.904234
0.902675
0.901828
0.902283
0.904166
0.909144
0.916426
0.922147
0.924727
0.926058
0.927654
0.261014
0.261001
0.261038
0.261207
0.261728
0.262631
0.264337
0.267449
0.2726
0.280174
0.292226
0.308743
0.332134
0.362175
0.400964
0.446711
0.499282
0.556288
0.610881
0.663351
0.708734
0.74945
0.786899
0.814753
0.83806
0.859852
0.868659
0.879779
0.884759
0.89198
0.895593
0.902004
0.910174
0.920043
0.927582
0.932555
0.936509
0.936192
0.935773
0.933822
0.926504
0.916212
0.909004
0.90696
0.908672
0.913752
0.92062
0.926308
0.92892
0.926677
0.921964
0.916123
0.911384
0.912274
0.914228
0.91898
0.925363
0.92487
0.921781
0.915742
0.912177
0.91336
0.917706
0.923001
0.922357
0.918661
0.914416
0.914415
0.916522
0.919096
0.918061
0.915706
0.914985
0.915511
0.916147
0.915315
0.914138
0.913727
0.914035
0.913716
0.912942
0.912385
0.912222
0.911812
0.910873
0.909812
0.908549
0.907037
0.905748
0.904156
0.902668
0.901791
0.902269
0.904376
0.909559
0.916585
0.922155
0.924638
0.926033
0.927945
0.261
0.260998
0.260997
0.260987
0.260967
0.26094
0.260916
0.260888
0.260855
0.260828
0.260809
0.260801
0.260796
0.260909
0.261296
0.2624
0.264886
0.270535
0.280017
0.296615
0.319448
0.351512
0.39086
0.43963
0.493227
0.553471
0.614443
0.676949
0.736178
0.794675
0.841702
0.880995
0.905187
0.917802
0.923149
0.925517
0.928935
0.929601
0.927998
0.919862
0.90696
0.901924
0.905971
0.912348
0.920496
0.927056
0.929596
0.928017
0.924581
0.919289
0.913599
0.910931
0.910845
0.913456
0.92125
0.926895
0.926209
0.9226
0.915809
0.912066
0.912105
0.916469
0.922648
0.923463
0.920473
0.915306
0.913539
0.915876
0.919236
0.919215
0.917061
0.915112
0.915064
0.916561
0.916179
0.914803
0.913807
0.914224
0.914605
0.91376
0.912743
0.9125
0.91236
0.911704
0.91061
0.909838
0.908748
0.907297
0.905975
0.904197
0.902553
0.90175
0.902293
0.904551
0.909888
0.916754
0.922156
0.924624
0.926095
0.92822
0.260928
0.260926
0.260924
0.260923
0.260923
0.260925
0.26093
0.260937
0.260946
0.260955
0.260966
0.260978
0.26099
0.261008
0.261005
0.26097
0.26093
0.260893
0.260864
0.260848
0.260831
0.260944
0.261332
0.262665
0.266019
0.273339
0.287829
0.310584
0.348082
0.396356
0.462058
0.534768
0.61119
0.682017
0.74202
0.789993
0.831073
0.851489
0.873
0.880349
0.892585
0.904981
0.916534
0.932246
0.942026
0.940035
0.933089
0.924855
0.916856
0.910275
0.90795
0.909619
0.915559
0.924169
0.930462
0.928867
0.923794
0.915338
0.91037
0.910543
0.915967
0.923422
0.924506
0.922063
0.915632
0.912423
0.914517
0.919602
0.920067
0.918126
0.915229
0.914858
0.9166
0.917058
0.915595
0.91378
0.913909
0.914931
0.914625
0.913464
0.912688
0.912681
0.912309
0.911393
0.91048
0.909873
0.908837
0.907414
0.905991
0.904098
0.902409
0.901715
0.902322
0.904779
0.910265
0.916859
0.9221
0.924601
0.92621
0.928517
0.260907
0.260908
0.260909
0.260912
0.260914
0.260917
0.260919
0.260921
0.260924
0.260926
0.260929
0.260931
0.260932
0.260934
0.260935
0.260941
0.26095
0.260964
0.260979
0.260996
0.261012
0.261024
0.261062
0.261033
0.261002
0.260975
0.260959
0.260941
0.261055
0.261556
0.263953
0.270394
0.286749
0.315287
0.362512
0.42478
0.502726
0.587502
0.675193
0.755203
0.826614
0.880016
0.897629
0.91386
0.920249
0.925471
0.925469
0.922188
0.912303
0.904945
0.909917
0.920822
0.928098
0.930465
0.929594
0.924851
0.914117
0.908444
0.909255
0.915367
0.924433
0.926515
0.923776
0.915081
0.910969
0.912933
0.91902
0.921923
0.91961
0.91568
0.914232
0.915815
0.91797
0.917018
0.914492
0.913652
0.914518
0.915308
0.914627
0.913369
0.912848
0.912837
0.912221
0.911113
0.910351
0.910013
0.909022
0.907595
0.906092
0.904118
0.902329
0.901776
0.902434
0.905073
0.910571
0.916937
0.92204
0.924644
0.926442
0.928828
0.260922
0.260923
0.260925
0.260927
0.260929
0.260932
0.260935
0.260939
0.260944
0.260948
0.260954
0.26096
0.260966
0.260973
0.26098
0.260988
0.260994
0.261001
0.261005
0.261011
0.261011
0.261016
0.261011
0.261011
0.261013
0.261017
0.261022
0.261022
0.261026
0.261033
0.261003
0.260974
0.260952
0.260947
0.261148
0.262435
0.267421
0.282563
0.311831
0.368486
0.443712
0.542662
0.632229
0.725146
0.784756
0.840633
0.872216
0.886909
0.896612
0.906784
0.925115
0.941442
0.939889
0.932769
0.925626
0.911275
0.904628
0.906744
0.915104
0.925662
0.930672
0.927318
0.916277
0.909044
0.910095
0.916996
0.922781
0.92169
0.918265
0.913939
0.914613
0.917748
0.918393
0.916044
0.913712
0.913877
0.915434
0.915472
0.914364
0.913218
0.913243
0.912941
0.91195
0.91076
0.91031
0.910114
0.909157
0.907699
0.905985
0.903904
0.902177
0.901809
0.90258
0.905395
0.910861
0.916977
0.921939
0.924698
0.926713
0.929126
0.260957
0.26096
0.260964
0.260968
0.260972
0.260977
0.260983
0.260989
0.260994
0.261
0.261006
0.261012
0.261018
0.261024
0.26103
0.261034
0.261039
0.261042
0.261046
0.261048
0.261049
0.261049
0.261048
0.261048
0.261044
0.261041
0.261034
0.261029
0.26102
0.261006
0.260995
0.260988
0.26098
0.26097
0.260968
0.260949
0.260932
0.260916
0.260922
0.26123
0.263199
0.27273
0.2983
0.346268
0.427207
0.524757
0.638452
0.742588
0.834906
0.888298
0.912074
0.927924
0.927749
0.925393
0.912878
0.900648
0.905722
0.917842
0.927857
0.930623
0.928143
0.916003
0.907537
0.907981
0.914371
0.923443
0.923281
0.920123
0.913804
0.913267
0.916786
0.919404
0.91822
0.914889
0.913172
0.914745
0.916239
0.915282
0.913803
0.913297
0.913622
0.913029
0.911545
0.910575
0.910487
0.910168
0.90925
0.907935
0.906073
0.903794
0.902211
0.90192
0.902745
0.905637
0.910978
0.91707
0.92198
0.924844
0.927113
0.929441
0.261011
0.261016
0.261021
0.261025
0.26103
0.261035
0.261041
0.261046
0.261051
0.261056
0.26106
0.261063
0.261067
0.26107
0.261073
0.261075
0.261077
0.261078
0.261078
0.261077
0.261075
0.261071
0.261067
0.261061
0.261055
0.261047
0.261041
0.261032
0.261022
0.261013
0.261002
0.260993
0.260981
0.26097
0.260958
0.260949
0.260945
0.260948
0.260954
0.260962
0.260972
0.260991
0.261003
0.261142
0.262904
0.270733
0.298861
0.35703
0.453759
0.574743
0.681655
0.789207
0.832431
0.871231
0.884175
0.902376
0.92088
0.939823
0.939002
0.934768
0.916184
0.901835
0.903571
0.912646
0.924669
0.926909
0.922603
0.912856
0.911267
0.914561
0.920541
0.920142
0.915736
0.912648
0.913431
0.916668
0.916563
0.914944
0.913362
0.913808
0.913905
0.91299
0.91106
0.910529
0.910784
0.910226
0.909167
0.907926
0.906025
0.903614
0.902147
0.902083
0.903004
0.905895
0.910991
0.917054
0.92201
0.925084
0.927614
0.929724
0.261047
0.261052
0.261057
0.26106
0.261063
0.261066
0.261069
0.261072
0.261075
0.261078
0.26108
0.261082
0.261083
0.261083
0.261082
0.261081
0.261079
0.261077
0.261074
0.261071
0.261065
0.261059
0.261052
0.261046
0.261038
0.26103
0.261022
0.261014
0.261005
0.260995
0.260987
0.260979
0.260973
0.260966
0.260961
0.26096
0.260964
0.260973
0.260985
0.261001
0.261018
0.261037
0.261049
0.261066
0.261067
0.261066
0.261059
0.261282
0.264096
0.280256
0.322884
0.40693
0.530538
0.661329
0.781374
0.876711
0.910441
0.928784
0.929015
0.919231
0.895934
0.901348
0.912196
0.924652
0.928631
0.924813
0.911754
0.907633
0.910822
0.921135
0.922409
0.919045
0.912004
0.912085
0.915965
0.918137
0.916705
0.913341
0.913071
0.914546
0.914154
0.912276
0.910627
0.910705
0.910996
0.910309
0.909171
0.907957
0.905919
0.903459
0.902066
0.902225
0.903264
0.906135
0.911158
0.917086
0.922104
0.925429
0.928152
0.929977
0.261056
0.261059
0.261062
0.261065
0.261066
0.261067
0.261068
0.261068
0.261068
0.261068
0.261067
0.261066
0.261064
0.261061
0.261058
0.261055
0.261051
0.261047
0.261042
0.261036
0.261029
0.261022
0.261015
0.261008
0.261001
0.260995
0.260988
0.260981
0.260973
0.260967
0.260964
0.260963
0.260964
0.260965
0.260969
0.260977
0.260988
0.261002
0.261017
0.261031
0.261044
0.261052
0.261057
0.261054
0.26105
0.261044
0.261034
0.261015
0.260999
0.260987
0.261031
0.262199
0.27291
0.307787
0.394983
0.526738
0.660146
0.77348
0.838235
0.873818
0.887768
0.91355
0.934452
0.937329
0.933393
0.912294
0.90233
0.906362
0.919246
0.92602
0.922584
0.913062
0.909556
0.913415
0.919293
0.918629
0.914426
0.912334
0.913793
0.915261
0.914198
0.911414
0.910596
0.911343
0.911023
0.91013
0.90919
0.90805
0.905888
0.903386
0.902144
0.902452
0.903445
0.906265
0.911005
0.91705
0.922271
0.925844
0.928596
0.930178
0.261049
0.261048
0.261048
0.261047
0.261047
0.261046
0.261044
0.261042
0.26104
0.261038
0.261036
0.261033
0.26103
0.261025
0.261021
0.261016
0.261011
0.261005
0.260999
0.260993
0.260987
0.26098
0.260974
0.260968
0.260964
0.260961
0.260958
0.260955
0.260953
0.260954
0.26096
0.260968
0.260976
0.260987
0.261
0.261013
0.261027
0.26104
0.26105
0.261057
0.26106
0.261059
0.261051
0.261039
0.261025
0.261012
0.260991
0.260969
0.260959
0.260955
0.260956
0.260964
0.260984
0.261018
0.261974
0.271614
0.312703
0.401927
0.539142
0.698971
0.827224
0.899303
0.920977
0.928593
0.91631
0.896215
0.903109
0.919339
0.927773
0.925753
0.913271
0.907651
0.910109
0.919786
0.920722
0.916924
0.911444
0.912024
0.915986
0.915627
0.912789
0.910575
0.911043
0.91191
0.911058
0.909866
0.909214
0.908108
0.905625
0.903234
0.90234
0.90265
0.903509
0.906136
0.910933
0.917106
0.922544
0.926277
0.92895
0.930469
0.261031
0.261029
0.261026
0.261024
0.261021
0.261018
0.261015
0.261012
0.261008
0.261005
0.261002
0.260998
0.260995
0.260991
0.260986
0.260982
0.260977
0.260972
0.260966
0.260961
0.260956
0.260952
0.260948
0.260946
0.260946
0.260948
0.260953
0.260959
0.260967
0.260977
0.26099
0.261004
0.261019
0.261034
0.261048
0.261061
0.261072
0.261079
0.261081
0.261078
0.261074
0.261064
0.261047
0.261026
0.261008
0.26099
0.260965
0.260947
0.26094
0.26094
0.260947
0.260972
0.26102
0.261064
0.261105
0.261129
0.261164
0.262297
0.275577
0.326043
0.450227
0.606994
0.732983
0.839016
0.864484
0.895324
0.915514
0.937953
0.932616
0.917753
0.902964
0.905754
0.917926
0.924755
0.921117
0.911409
0.910039
0.914385
0.917738
0.915665
0.911043
0.910312
0.912356
0.912108
0.910688
0.909629
0.90935
0.908167
0.905421
0.903172
0.902685
0.902799
0.903399
0.905956
0.910903
0.917268
0.922957
0.926742
0.929252
0.93043
0.261006
0.261003
0.261
0.260997
0.260992
0.260988
0.260985
0.260982
0.260978
0.260975
0.260971
0.260968
0.260965
0.260962
0.260959
0.260956
0.260953
0.260949
0.260946
0.260943
0.260942
0.260942
0.260944
0.260948
0.260955
0.260964
0.260976
0.26099
0.261005
0.261021
0.261037
0.261051
0.261064
0.261076
0.261086
0.261092
0.261097
0.261099
0.261095
0.261086
0.261075
0.261061
0.26104
0.261021
0.261003
0.260981
0.260957
0.260946
0.260944
0.260951
0.260976
0.261026
0.261073
0.261106
0.261138
0.26116
0.261158
0.26114
0.261073
0.261101
0.264843
0.289333
0.373761
0.516369
0.686729
0.84382
0.900985
0.925278
0.923334
0.901601
0.902338
0.91681
0.927134
0.92502
0.912609
0.906771
0.909796
0.918942
0.918171
0.912468
0.909525
0.911508
0.913552
0.912228
0.909999
0.909557
0.909534
0.90794
0.905167
0.903325
0.903109
0.902742
0.903147
0.905794
0.910973
0.91755
0.923489
0.927189
0.929266
0.930495
0.260976
0.260973
0.26097
0.260968
0.260965
0.260961
0.260958
0.260956
0.260953
0.26095
0.260947
0.260945
0.260943
0.260941
0.26094
0.260939
0.260938
0.260938
0.260938
0.260941
0.260946
0.260953
0.260963
0.260975
0.260988
0.260999
0.261013
0.26103
0.261044
0.261058
0.261071
0.261079
0.261084
0.261088
0.261091
0.261092
0.261091
0.261091
0.261085
0.261075
0.261062
0.26104
0.261018
0.260998
0.260984
0.260969
0.260958
0.260958
0.260967
0.260994
0.261038
0.261084
0.261109
0.261127
0.261142
0.261158
0.26115
0.261109
0.261053
0.261003
0.260969
0.260968
0.26163
0.271014
0.32955
0.46026
0.628355
0.779513
0.842962
0.881452
0.905626
0.937029
0.932943
0.918488
0.903044
0.905775
0.917657
0.921903
0.915779
0.908847
0.909532
0.914356
0.914075
0.910995
0.909445
0.910272
0.909756
0.907216
0.904814
0.90372
0.903343
0.902434
0.902879
0.905739
0.911107
0.917855
0.924065
0.927585
0.929283
0.930565
0.260955
0.260953
0.260952
0.26095
0.260949
0.260948
0.260947
0.260946
0.260946
0.260946
0.260945
0.260945
0.260945
0.260947
0.260949
0.260952
0.260956
0.260962
0.26097
0.26098
0.260994
0.261006
0.261017
0.261031
0.261042
0.261049
0.26106
0.261069
0.261075
0.261083
0.261088
0.261088
0.261087
0.261085
0.261082
0.261082
0.261076
0.261064
0.261055
0.261041
0.261029
0.261017
0.261002
0.260993
0.26099
0.260995
0.261006
0.26102
0.261045
0.261077
0.261107
0.261125
0.261127
0.26113
0.261137
0.261122
0.261092
0.261058
0.261028
0.260999
0.260982
0.261003
0.261067
0.261113
0.261235
0.265376
0.304632
0.409541
0.587789
0.778923
0.880608
0.921564
0.922727
0.90367
0.901564
0.916839
0.925206
0.921364
0.907549
0.907284
0.913044
0.916737
0.913775
0.909298
0.909527
0.911091
0.909732
0.906212
0.904581
0.904559
0.903439
0.901999
0.90268
0.90582
0.911284
0.918129
0.924546
0.927956
0.929279
0.930624
0.260963
0.260964
0.260965
0.260967
0.260969
0.260971
0.260974
0.260978
0.260982
0.260987
0.260992
0.260998
0.261004
0.261011
0.261019
0.261027
0.261034
0.261044
0.261053
0.261059
0.261068
0.261074
0.261077
0.261081
0.261084
0.261086
0.26109
0.26109
0.26109
0.261091
0.261088
0.261081
0.261066
0.26105
0.261042
0.261033
0.26102
0.261015
0.261013
0.261008
0.261008
0.261006
0.26101
0.261025
0.261048
0.26108
0.261107
0.261123
0.261141
0.26115
0.261151
0.261143
0.261134
0.261114
0.261082
0.261048
0.261032
0.261027
0.261022
0.261029
0.261048
0.261105
0.261176
0.2612
0.261204
0.261195
0.261158
0.2628
0.289126
0.387688
0.563716
0.741083
0.831606
0.879093
0.904161
0.936031
0.92917
0.912039
0.900946
0.907142
0.91916
0.917966
0.910506
0.908211
0.91142
0.911523
0.908264
0.905379
0.905006
0.90494
0.902974
0.901617
0.902602
0.906059
0.911433
0.918335
0.924935
0.928325
0.929308
0.930689
0.261021
0.261026
0.261033
0.26104
0.261046
0.261055
0.261063
0.261071
0.261079
0.261085
0.261092
0.261099
0.261104
0.261109
0.261116
0.261119
0.261119
0.26112
0.26112
0.261118
0.261114
0.261111
0.261106
0.261102
0.261099
0.261096
0.261091
0.261085
0.261074
0.261056
0.261036
0.26101
0.260988
0.260974
0.260966
0.260965
0.260968
0.260976
0.260985
0.260995
0.261006
0.261023
0.261058
0.2611
0.261147
0.261187
0.261202
0.261203
0.261198
0.261187
0.261172
0.261142
0.261096
0.261043
0.261002
0.260987
0.260993
0.261012
0.261051
0.261096
0.261148
0.261216
0.26123
0.261222
0.261212
0.26117
0.261088
0.261021
0.260984
0.26194
0.284148
0.369692
0.547383
0.759542
0.877601
0.921522
0.918841
0.898641
0.903437
0.919471
0.922121
0.914241
0.906644
0.908392
0.914068
0.911927
0.905872
0.904836
0.906913
0.905567
0.902156
0.901412
0.903188
0.906471
0.911452
0.918503
0.925214
0.92869
0.929374
0.930786
0.261125
0.261132
0.261138
0.261147
0.261156
0.26116
0.261164
0.261171
0.261173
0.261175
0.261177
0.261177
0.261176
0.261174
0.26117
0.261164
0.261158
0.261149
0.26114
0.261132
0.261124
0.261114
0.261102
0.26109
0.261073
0.261055
0.261038
0.261017
0.260995
0.260971
0.260949
0.260928
0.260916
0.260914
0.260918
0.260926
0.26094
0.260954
0.260969
0.260992
0.261026
0.261075
0.261133
0.261184
0.261229
0.261243
0.261239
0.261229
0.261214
0.26119
0.261145
0.261086
0.261019
0.260958
0.260945
0.260951
0.260974
0.261021
0.26111
0.261177
0.261239
0.261262
0.261252
0.261227
0.261169
0.261092
0.261026
0.260982
0.260983
0.261039
0.26114
0.261867
0.280133
0.371824
0.555045
0.747829
0.832476
0.880111
0.913311
0.933177
0.923058
0.903597
0.904834
0.914563
0.915864
0.908555
0.904032
0.906614
0.908126
0.905114
0.901291
0.901515
0.903994
0.906469
0.911227
0.918602
0.925528
0.928888
0.929532
0.930963
0.261191
0.261195
0.2612
0.261203
0.261205
0.261207
0.261206
0.261205
0.261203
0.2612
0.261196
0.261191
0.261186
0.261179
0.261171
0.261162
0.26115
0.261136
0.261119
0.261101
0.261082
0.261064
0.261046
0.261027
0.261009
0.260994
0.260974
0.260951
0.260935
0.260919
0.260903
0.260892
0.260889
0.260892
0.260901
0.260915
0.260934
0.260962
0.261
0.26104
0.261087
0.261139
0.261184
0.261225
0.261248
0.261249
0.261241
0.261221
0.261187
0.261133
0.261073
0.261015
0.260943
0.260915
0.260916
0.260933
0.260978
0.261076
0.26118
0.261242
0.261274
0.261269
0.261245
0.26118
0.261067
0.261013
0.260984
0.260982
0.261034
0.261196
0.261375
0.26144
0.261446
0.262017
0.283362
0.375012
0.572017
0.786942
0.888153
0.919154
0.915324
0.896604
0.911468
0.920973
0.915443
0.902607
0.90326
0.910065
0.908764
0.902915
0.900532
0.902614
0.904401
0.906029
0.910964
0.918787
0.925882
0.928854
0.929657
0.931231
0.261195
0.261197
0.261198
0.261199
0.261199
0.261199
0.261198
0.261195
0.261189
0.261182
0.261174
0.261163
0.261149
0.261133
0.261111
0.26109
0.261071
0.261053
0.261038
0.261024
0.261011
0.261003
0.260996
0.260985
0.260973
0.260958
0.260941
0.260925
0.260909
0.260896
0.260889
0.260884
0.260887
0.260903
0.260931
0.260965
0.261004
0.261041
0.261068
0.261096
0.261128
0.261161
0.261194
0.261222
0.261236
0.261227
0.261191
0.261141
0.261089
0.261041
0.261007
0.26096
0.260914
0.260902
0.260911
0.260955
0.261038
0.261172
0.261234
0.261268
0.261269
0.261243
0.261179
0.261075
0.260978
0.260969
0.260973
0.261027
0.261164
0.261366
0.261463
0.261475
0.261436
0.261282
0.260958
0.261646
0.287111
0.401172
0.598253
0.785508
0.85783
0.888661
0.931467
0.926327
0.906941
0.899084
0.907989
0.913001
0.907201
0.900742
0.901206
0.904477
0.904414
0.905475
0.910997
0.918827
0.926154
0.929278
0.930215
0.93189
0.261153
0.261151
0.261146
0.261142
0.26114
0.261131
0.261117
0.261107
0.261089
0.261076
0.261066
0.261049
0.261033
0.261022
0.261009
0.260995
0.260992
0.260993
0.260991
0.260989
0.260989
0.260987
0.260983
0.260975
0.260963
0.260952
0.260939
0.260927
0.260925
0.260928
0.260938
0.260957
0.260992
0.261038
0.261072
0.261102
0.261116
0.261113
0.261114
0.261123
0.261138
0.261159
0.261181
0.261186
0.261174
0.261129
0.261076
0.261034
0.261006
0.26099
0.260978
0.260947
0.260941
0.260961
0.261009
0.261067
0.261155
0.261248
0.261269
0.261265
0.261237
0.261162
0.261085
0.260997
0.26096
0.260963
0.261029
0.261182
0.261371
0.261489
0.261503
0.261482
0.261316
0.261021
0.260746
0.260702
0.260725
0.262444
0.297926
0.426085
0.654398
0.838779
0.915853
0.915884
0.893825
0.904037
0.917519
0.913437
0.901568
0.898939
0.904368
0.905586
0.903128
0.904302
0.911298
0.919086
0.92567
0.928972
0.929949
0.931854
0.261008
0.261005
0.261
0.260994
0.260988
0.260978
0.260963
0.260957
0.260951
0.260946
0.260944
0.260944
0.260946
0.260949
0.260954
0.26096
0.26097
0.260978
0.260981
0.260984
0.260986
0.26099
0.260995
0.261001
0.261009
0.261018
0.261027
0.261042
0.261057
0.26108
0.261112
0.261139
0.261175
0.261202
0.261202
0.261193
0.261177
0.261152
0.261131
0.261127
0.261121
0.261098
0.261085
0.261078
0.261048
0.260999
0.260983
0.260979
0.260977
0.260978
0.260979
0.260998
0.261044
0.261107
0.26115
0.261186
0.261236
0.261265
0.261253
0.261219
0.261126
0.26105
0.261007
0.260969
0.260967
0.261022
0.261189
0.261398
0.261516
0.261528
0.26151
0.261373
0.261075
0.260784
0.260675
0.260692
0.260819
0.261104
0.2612
0.264394
0.315631
0.484883
0.701528
0.824086
0.873139
0.922067
0.924905
0.913275
0.896845
0.901237
0.908147
0.905424
0.900943
0.903583
0.91173
0.918483
0.925432
0.929205
0.930247
0.932373
0.260894
0.260892
0.26089
0.260889
0.260887
0.260887
0.260888
0.260892
0.260896
0.2609
0.260906
0.260914
0.260922
0.260932
0.260948
0.260971
0.260997
0.261021
0.261044
0.261064
0.261084
0.261112
0.261136
0.261155
0.261176
0.26119
0.261204
0.261221
0.261232
0.261241
0.261261
0.261275
0.261275
0.261269
0.261257
0.261236
0.261203
0.261159
0.261111
0.261072
0.26102
0.260965
0.260957
0.260951
0.260942
0.260942
0.260954
0.260971
0.260987
0.261008
0.261054
0.261134
0.261196
0.261215
0.261226
0.261237
0.261251
0.261219
0.261157
0.261087
0.260996
0.260972
0.260973
0.260988
0.26106
0.261212
0.261423
0.261549
0.261555
0.261535
0.261404
0.261115
0.260808
0.260669
0.260675
0.260774
0.261039
0.261282
0.261354
0.261288
0.261085
0.270504
0.343923
0.547055
0.781069
0.899565
0.913452
0.89172
0.896384
0.912487
0.91003
0.899731
0.899201
0.90526
0.912071
0.917724
0.925594
0.929391
0.930495
0.932876
0.260863
0.260863
0.260865
0.260864
0.260864
0.260866
0.260873
0.260884
0.260902
0.260924
0.260947
0.260974
0.261004
0.261042
0.261083
0.26112
0.261155
0.261189
0.261219
0.261243
0.261257
0.261267
0.261275
0.261282
0.261287
0.261289
0.261289
0.261291
0.261295
0.261296
0.261296
0.261294
0.261286
0.261265
0.261221
0.261163
0.261104
0.261051
0.261006
0.260969
0.260922
0.26089
0.260887
0.26089
0.260902
0.260929
0.260962
0.261019
0.261085
0.261134
0.261205
0.261286
0.261283
0.261251
0.261236
0.261224
0.261189
0.261107
0.261028
0.260968
0.26095
0.260951
0.260985
0.261113
0.26129
0.261482
0.261597
0.261581
0.261553
0.261403
0.261131
0.2608
0.260663
0.260663
0.260728
0.260966
0.261265
0.261395
0.261372
0.261118
0.260836
0.260738
0.261066
0.281503
0.406164
0.621786
0.801363
0.862501
0.905044
0.924299
0.912667
0.893016
0.898299
0.908862
0.910877
0.9162
0.926065
0.929478
0.930699
0.933407
0.260942
0.260949
0.260964
0.260976
0.260994
0.261023
0.261039
0.261056
0.261083
0.26112
0.261147
0.261159
0.261173
0.261196
0.261226
0.261247
0.261265
0.261287
0.261308
0.261314
0.261315
0.261315
0.261312
0.261309
0.261308
0.261299
0.261283
0.261277
0.261267
0.261233
0.261199
0.26117
0.261126
0.261077
0.261033
0.261007
0.260991
0.260975
0.260955
0.260932
0.260899
0.260874
0.260876
0.260904
0.260967
0.261045
0.261122
0.2612
0.261237
0.26127
0.261307
0.261324
0.261311
0.261254
0.261166
0.261087
0.261039
0.26101
0.26096
0.260945
0.260946
0.261006
0.261159
0.261392
0.261556
0.261651
0.261642
0.261586
0.261377
0.261077
0.260787
0.260631
0.260638
0.260687
0.260923
0.261248
0.261422
0.261413
0.261239
0.260889
0.260724
0.260735
0.26092
0.261057
0.263289
0.306937
0.474097
0.726999
0.877723
0.910702
0.892886
0.890324
0.90679
0.911512
0.908162
0.914453
0.926764
0.929229
0.930999
0.934061
0.261201
0.261206
0.261216
0.261228
0.261238
0.261246
0.261256
0.261262
0.261262
0.261255
0.261242
0.261238
0.261239
0.261248
0.261262
0.26127
0.261279
0.261291
0.261296
0.261294
0.261289
0.261282
0.261268
0.261253
0.261238
0.261207
0.261159
0.261119
0.261058
0.260988
0.260967
0.260936
0.260913
0.260924
0.260938
0.26095
0.260961
0.260963
0.260959
0.260936
0.260939
0.260953
0.261006
0.261106
0.261213
0.261282
0.261344
0.261356
0.26134
0.261318
0.261307
0.261269
0.261193
0.261103
0.260996
0.260917
0.260917
0.260953
0.260949
0.260961
0.261061
0.26124
0.261474
0.261639
0.261692
0.26168
0.261593
0.261357
0.261013
0.260718
0.260614
0.260617
0.260651
0.260882
0.261232
0.261442
0.261449
0.261304
0.260974
0.260711
0.260706
0.260838
0.261184
0.261296
0.261226
0.260999
0.269031
0.361478
0.571279
0.778877
0.856294
0.892502
0.918574
0.912349
0.903788
0.916476
0.927905
0.928393
0.931445
0.934877
0.261368
0.261365
0.261361
0.261358
0.261356
0.261352
0.261344
0.261329
0.261308
0.261285
0.261262
0.261232
0.2612
0.261176
0.261155
0.261134
0.26112
0.261108
0.261094
0.261081
0.26108
0.261075
0.261057
0.261035
0.261003
0.260968
0.260944
0.260913
0.260862
0.260841
0.26085
0.260859
0.260862
0.260885
0.260933
0.260972
0.260995
0.261022
0.261049
0.261108
0.261187
0.261236
0.261307
0.261358
0.261426
0.261449
0.261456
0.261441
0.261387
0.261301
0.261178
0.261051
0.260979
0.260934
0.260886
0.26088
0.260891
0.260935
0.261037
0.261221
0.261426
0.261581
0.261702
0.261739
0.261721
0.261587
0.261309
0.260981
0.260697
0.260594
0.260612
0.260655
0.260875
0.261259
0.26148
0.261492
0.261362
0.261018
0.260735
0.260685
0.260763
0.261119
0.261374
0.26134
0.261131
0.260854
0.260853
0.2615
0.291187
0.43347
0.689526
0.856904
0.908357
0.892479
0.901128
0.923519
0.926545
0.926781
0.932177
0.935777
0.26129
0.261269
0.261235
0.261206
0.261206
0.261198
0.261168
0.26113
0.261085
0.261038
0.260995
0.260951
0.260922
0.260914
0.260908
0.260899
0.260888
0.260881
0.260873
0.260867
0.260871
0.260882
0.26089
0.26089
0.260877
0.260856
0.260843
0.260831
0.260818
0.260816
0.260833
0.260852
0.26088
0.260929
0.261003
0.26111
0.261206
0.261279
0.261338
0.261416
0.261469
0.261444
0.261428
0.261472
0.261481
0.261466
0.26144
0.261378
0.261255
0.261096
0.260918
0.260835
0.260831
0.260855
0.26087
0.260887
0.260968
0.261139
0.261419
0.261669
0.261748
0.26177
0.261751
0.261685
0.261502
0.261201
0.260896
0.260654
0.260581
0.260593
0.260653
0.260899
0.261302
0.261555
0.261549
0.261398
0.261036
0.260696
0.260629
0.260694
0.261048
0.26144
0.261438
0.2613
0.260945
0.2608
0.260856
0.261158
0.261226
0.265327
0.338826
0.541121
0.775987
0.847414
0.904086
0.930413
0.92073
0.925621
0.934195
0.935945
0.260961
0.260938
0.260923
0.260916
0.260899
0.260878
0.260875
0.260887
0.260898
0.26088
0.260835
0.260806
0.260796
0.260792
0.260801
0.260807
0.260806
0.260817
0.260815
0.260824
0.260834
0.260831
0.260856
0.260882
0.26089
0.26091
0.260945
0.260976
0.26101
0.261062
0.261094
0.261109
0.261154
0.261243
0.261346
0.261442
0.261464
0.261467
0.261492
0.26153
0.26149
0.261458
0.261431
0.261356
0.261276
0.261231
0.261163
0.261065
0.260955
0.260818
0.260773
0.26077
0.260774
0.260815
0.260957
0.261174
0.261384
0.261629
0.261861
0.261877
0.261857
0.261785
0.261611
0.261336
0.26104
0.2608
0.260606
0.260561
0.260578
0.260692
0.260999
0.261413
0.261669
0.261636
0.261427
0.261033
0.260672
0.260558
0.260598
0.260937
0.26147
0.261584
0.261461
0.261031
0.260788
0.260797
0.261094
0.261362
0.261314
0.26106
0.261236
0.284229
0.415727
0.67122
0.862494
0.917643
0.908446
0.928677
0.937035
0.935646
0.260798
0.260812
0.260827
0.260827
0.260809
0.260802
0.260812
0.260814
0.260821
0.260832
0.260822
0.260796
0.260795
0.260796
0.260812
0.260854
0.260859
0.260892
0.260922
0.260921
0.260969
0.261082
0.261131
0.261188
0.261295
0.261397
0.261428
0.261437
0.261461
0.261505
0.26151
0.2615
0.261498
0.261526
0.261538
0.261523
0.26147
0.261438
0.26143
0.261423
0.261358
0.26125
0.261113
0.260998
0.261002
0.261021
0.260948
0.260835
0.260729
0.260682
0.260698
0.26077
0.260888
0.26112
0.261563
0.261869
0.261953
0.262013
0.261982
0.261892
0.261668
0.261382
0.261088
0.260885
0.260724
0.260554
0.260526
0.260555
0.260727
0.261131
0.261589
0.261815
0.261752
0.261468
0.261046
0.26064
0.260497
0.260531
0.260862
0.261506
0.261761
0.261607
0.261174
0.260767
0.260745
0.260969
0.26143
0.261453
0.261256
0.260965
0.260958
0.261035
0.26394
0.335912
0.538988
0.780929
0.876383
0.938457
0.938333
0.934854
0.260941
0.26095
0.260967
0.260992
0.261033
0.261073
0.261098
0.261123
0.261154
0.261214
0.26128
0.261331
0.26138
0.261408
0.261466
0.261583
0.261604
0.261628
0.26169
0.261685
0.261712
0.261785
0.261848
0.261901
0.261946
0.261958
0.261956
0.261933
0.261885
0.261862
0.261762
0.261696
0.261668
0.261592
0.261499
0.261361
0.261282
0.26126
0.261251
0.261235
0.261194
0.261095
0.260951
0.26091
0.260984
0.26102
0.260946
0.260835
0.26081
0.260869
0.261068
0.261405
0.261749
0.262144
0.262458
0.262481
0.262409
0.262187
0.261895
0.261578
0.26125
0.261022
0.260883
0.26076
0.260688
0.260668
0.260722
0.261001
0.261511
0.262034
0.262119
0.261983
0.261541
0.261114
0.260769
0.260527
0.260577
0.261027
0.261702
0.262103
0.261937
0.261397
0.260953
0.260748
0.26099
0.261542
0.261786
0.261608
0.261227
0.260998
0.261258
0.26153
0.261424
0.261623
0.282669
0.432678
0.721433
0.90938
0.926271
0.934942
0.262173
0.262217
0.262257
0.262294
0.262326
0.262355
0.262395
0.262436
0.262477
0.262517
0.26254
0.262541
0.262521
0.262495
0.262481
0.262479
0.262471
0.262443
0.262373
0.262326
0.262288
0.262221
0.262192
0.262183
0.26215
0.262105
0.26205
0.261937
0.261865
0.261784
0.261569
0.261467
0.261462
0.261368
0.261266
0.261174
0.261094
0.26107
0.261064
0.261105
0.261148
0.261136
0.26113
0.261177
0.261323
0.261438
0.261497
0.26161
0.261849
0.262165
0.26242
0.262666
0.262913
0.262914
0.262783
0.262558
0.262217
0.26185
0.261547
0.261319
0.261093
0.260965
0.260907
0.260836
0.260906
0.261169
0.261682
0.262241
0.262687
0.262597
0.262277
0.261747
0.261251
0.260961
0.260687
0.260874
0.261632
0.262389
0.262624
0.262407
0.261762
0.261277
0.260963
0.261322
0.261968
0.26231
0.262112
0.261648
0.261268
0.261639
0.262083
0.261959
0.261686
0.261679
0.261744
0.266295
0.363252
0.632568
0.835365
0.926329
0.263541
0.26353
0.263497
0.263475
0.263452
0.263408
0.263359
0.263349
0.263338
0.263302
0.263247
0.263189
0.263108
0.262981
0.262858
0.26281
0.26276
0.262672
0.262554
0.262427
0.262289
0.262179
0.262096
0.26202
0.261949
0.261884
0.261867
0.261875
0.261878
0.261886
0.261891
0.261843
0.261739
0.261734
0.261743
0.261753
0.261772
0.261814
0.26195
0.262258
0.262423
0.262496
0.26265
0.262946
0.263253
0.2634
0.263511
0.263714
0.263783
0.263722
0.263647
0.263598
0.263463
0.263102
0.262755
0.262405
0.262
0.261669
0.261459
0.261404
0.261434
0.261534
0.261736
0.262109
0.262649
0.263141
0.263538
0.263583
0.263385
0.262826
0.262172
0.261695
0.261283
0.261342
0.261957
0.262833
0.263651
0.26359
0.263174
0.262449
0.261839
0.261745
0.26228
0.263004
0.263267
0.262957
0.262517
0.262063
0.262446
0.26302
0.262895
0.262525
0.26263
0.262918
0.262945
0.262759