/*--------------------------------*- C++ -*----------------------------------*\
  =========                 |
  \\      /  F ield         | OpenFOAM: The Open Source CFD Toolbox
   \\    /   O peration     | Website:  https://openfoam.org
    \\  /    A nd           | Version:  7
     \\/     M anipulation  |
\*---------------------------------------------------------------------------*/
FoamFile
{
    version     2.0;
    format      ascii;
    class       volVectorField;
    location    "7";
    object      U;
}
// * * * * * * * * * * * * * * * * * * * * * * * * * * * * * * * * * * * * * //

dimensions      [0 1 -1 0 0 0 0];

internalField   nonuniform List<vector> 
90000
(
(2.16982 -0.778588 0)
(2.1254 -0.68738 0)
(2.10286 -0.634447 0)
(2.09143 -0.591736 0)
(2.07085 -0.492819 0)
(2.07283 -0.450909 0)
(2.07062 -0.415097 0)
(2.06495 -0.364091 0)
(2.05928 -0.302109 0)
(2.06273 -0.277922 0)
(2.05297 -0.222029 0)
(2.05309 -0.193313 0)
(2.0429 -0.146636 0)
(2.03761 -0.12574 0)
(2.02719 -0.0955512 0)
(2.01959 -0.0824659 0)
(2.01347 -0.0746892 0)
(2.00949 -0.0626717 0)
(2.00776 -0.0691632 0)
(2.00252 -0.0630375 0)
(2.00179 -0.0611015 0)
(2.00054 -0.0586309 0)
(1.99981 -0.0590257 0)
(1.99819 -0.0580677 0)
(1.99593 -0.0563104 0)
(1.99491 -0.0533651 0)
(1.99258 -0.0496473 0)
(1.99129 -0.0432095 0)
(1.98926 -0.0366188 0)
(1.98611 -0.0279741 0)
(1.9842 -0.0222442 0)
(1.98511 -0.0175076 0)
(1.98272 -0.0210736 0)
(1.98033 -0.0229333 0)
(1.97614 -0.0264807 0)
(1.9718 -0.0314572 0)
(1.96925 -0.0347955 0)
(1.96746 -0.0391296 0)
(1.96656 -0.0404742 0)
(1.96755 -0.0438967 0)
(1.96835 -0.0440273 0)
(1.97076 -0.0424061 0)
(1.97532 -0.0385684 0)
(1.97836 -0.0350469 0)
(1.97744 -0.0314716 0)
(1.9761 -0.0321236 0)
(1.97442 -0.0333317 0)
(1.97135 -0.0359417 0)
(1.96876 -0.0381338 0)
(1.96797 -0.0409254 0)
(1.9685 -0.0405441 0)
(1.96992 -0.0384298 0)
(1.97196 -0.0352411 0)
(1.97238 -0.032242 0)
(1.97147 -0.0327296 0)
(1.96953 -0.0341736 0)
(1.96759 -0.0371053 0)
(1.96607 -0.0409551 0)
(1.96655 -0.0411207 0)
(1.96786 -0.0392881 0)
(1.97 -0.0368482 0)
(1.96914 -0.034235 0)
(1.96787 -0.0351925 0)
(1.96649 -0.0380967 0)
(1.96586 -0.0406284 0)
(1.96646 -0.0399119 0)
(1.96799 -0.0379525 0)
(1.96788 -0.0364603 0)
(1.96729 -0.0371539 0)
(1.96672 -0.0387496 0)
(1.96661 -0.0399419 0)
(1.96705 -0.0393957 0)
(1.96734 -0.0397332 0)
(1.96696 -0.0399957 0)
(1.96656 -0.0406521 0)
(1.96656 -0.0409142 0)
(1.96684 -0.0407931 0)
(1.96713 -0.0407893 0)
(1.96718 -0.0410769 0)
(1.9673 -0.041785 0)
(1.96747 -0.0419155 0)
(1.96782 -0.0421042 0)
(1.96789 -0.0422317 0)
(1.96801 -0.0423184 0)
(1.96846 -0.0422347 0)
(1.96901 -0.0420861 0)
(1.97023 -0.0426174 0)
(1.97132 -0.0432789 0)
(1.97263 -0.0441572 0)
(1.97386 -0.0447617 0)
(1.97496 -0.0453742 0)
(1.97484 -0.045998 0)
(1.97436 -0.046136 0)
(1.97245 -0.0471521 0)
(1.96795 -0.0491463 0)
(1.9615 -0.050847 0)
(1.95633 -0.0514702 0)
(1.9523 -0.052529 0)
(1.94967 -0.0536031 0)
(1.9461 -0.0566672 0)
(2.21743 -0.838222 0)
(2.21739 -0.838158 0)
(2.2173 -0.83801 0)
(2.21697 -0.837672 0)
(2.21613 -0.836652 0)
(2.21498 -0.834803 0)
(2.21298 -0.831782 0)
(2.20963 -0.826025 0)
(2.20478 -0.815951 0)
(2.19836 -0.802427 0)
(2.18839 -0.780013 0)
(2.17651 -0.751223 0)
(2.16053 -0.70982 0)
(2.1422 -0.660783 0)
(2.12083 -0.602672 0)
(2.09515 -0.527083 0)
(2.07693 -0.472802 0)
(2.0438 -0.376483 0)
(2.03686 -0.33341 0)
(2.01067 -0.250146 0)
(2.00848 -0.208478 0)
(1.99206 -0.149745 0)
(1.99114 -0.119703 0)
(1.97564 -0.074145 0)
(1.97335 -0.0520832 0)
(1.96797 -0.0293522 0)
(1.96005 -0.00405924 0)
(1.95874 0.00229392 0)
(1.9575 0.0151307 0)
(1.95544 0.0133981 0)
(1.95457 0.00897304 0)
(1.95339 0.000382364 0)
(1.95503 -0.0104509 0)
(1.9571 -0.0255796 0)
(1.96042 -0.0325188 0)
(1.96166 -0.0388077 0)
(1.96257 -0.0405052 0)
(1.96424 -0.042496 0)
(1.96468 -0.0424534 0)
(1.96532 -0.0421101 0)
(1.96858 -0.0386606 0)
(1.97092 -0.0325463 0)
(1.97141 -0.0280797 0)
(1.9687 -0.0280701 0)
(1.96754 -0.0291155 0)
(1.96445 -0.0322338 0)
(1.96122 -0.036973 0)
(1.95809 -0.0419085 0)
(1.95657 -0.0426762 0)
(1.95749 -0.042147 0)
(1.95944 -0.0395472 0)
(1.96162 -0.0365107 0)
(1.96346 -0.0340407 0)
(1.96332 -0.0334953 0)
(1.96271 -0.0343186 0)
(1.9602 -0.0385014 0)
(1.95832 -0.041881 0)
(1.95848 -0.0423364 0)
(1.9596 -0.0409993 0)
(1.96138 -0.0387646 0)
(1.96354 -0.0361995 0)
(1.96334 -0.0359478 0)
(1.96156 -0.0383095 0)
(1.96018 -0.0413538 0)
(1.96042 -0.0415648 0)
(1.96146 -0.0398193 0)
(1.96332 -0.0374739 0)
(1.9635 -0.0372362 0)
(1.96283 -0.0387908 0)
(1.96207 -0.040646 0)
(1.96227 -0.0407887 0)
(1.96325 -0.0397458 0)
(1.96369 -0.0396633 0)
(1.96352 -0.0404126 0)
(1.96344 -0.0412171 0)
(1.9637 -0.0410029 0)
(1.96441 -0.0403741 0)
(1.96465 -0.0406497 0)
(1.9648 -0.041385 0)
(1.96504 -0.0419987 0)
(1.96552 -0.0419261 0)
(1.96595 -0.0420665 0)
(1.96611 -0.0423121 0)
(1.96631 -0.0423033 0)
(1.9669 -0.0421085 0)
(1.96744 -0.0421088 0)
(1.9685 -0.0427068 0)
(1.96936 -0.0433394 0)
(1.97059 -0.0442499 0)
(1.97177 -0.044777 0)
(1.97291 -0.0452309 0)
(1.9728 -0.045822 0)
(1.97227 -0.0460879 0)
(1.97017 -0.0471486 0)
(1.96543 -0.0491694 0)
(1.95893 -0.0506946 0)
(1.95387 -0.0510382 0)
(1.94997 -0.0521389 0)
(1.94746 -0.0533694 0)
(1.94424 -0.0565947 0)
(2.21564 -0.837606 0)
(2.21549 -0.837545 0)
(2.21532 -0.837473 0)
(2.21515 -0.837394 0)
(2.21504 -0.837312 0)
(2.21493 -0.837212 0)
(2.21483 -0.837116 0)
(2.21468 -0.836985 0)
(2.21455 -0.836846 0)
(2.21439 -0.836761 0)
(2.2142 -0.836644 0)
(2.214 -0.836506 0)
(2.21374 -0.836373 0)
(2.21339 -0.836035 0)
(2.2126 -0.835281 0)
(2.21077 -0.833178 0)
(2.20755 -0.828463 0)
(2.20122 -0.817962 0)
(2.19205 -0.800306 0)
(2.17717 -0.770036 0)
(2.16058 -0.731474 0)
(2.13897 -0.674903 0)
(2.11875 -0.616549 0)
(2.09558 -0.543057 0)
(2.07605 -0.470754 0)
(2.05897 -0.40338 0)
(2.03899 -0.322142 0)
(2.03351 -0.281651 0)
(2.01157 -0.202913 0)
(2.00837 -0.17995 0)
(1.99126 -0.1307 0)
(1.98579 -0.117685 0)
(1.97443 -0.0976276 0)
(1.97301 -0.083197 0)
(1.96747 -0.0704148 0)
(1.96775 -0.0626653 0)
(1.96583 -0.0558472 0)
(1.96472 -0.048759 0)
(1.96299 -0.0417129 0)
(1.95951 -0.0321948 0)
(1.95983 -0.0232779 0)
(1.9575 -0.0198753 0)
(1.95389 -0.0205145 0)
(1.94813 -0.0265724 0)
(1.94617 -0.0354191 0)
(1.94466 -0.0440999 0)
(1.94629 -0.0463568 0)
(1.94792 -0.0454754 0)
(1.95047 -0.0430105 0)
(1.95414 -0.0377925 0)
(1.95523 -0.034876 0)
(1.95825 -0.0314295 0)
(1.95831 -0.031752 0)
(1.95674 -0.0350091 0)
(1.95417 -0.0397777 0)
(1.95189 -0.0451563 0)
(1.95248 -0.0442972 0)
(1.95433 -0.0416801 0)
(1.95615 -0.0379311 0)
(1.95943 -0.0342113 0)
(1.95944 -0.0349746 0)
(1.95769 -0.0385327 0)
(1.95643 -0.0435639 0)
(1.95587 -0.0425642 0)
(1.95729 -0.0406382 0)
(1.95884 -0.0370868 0)
(1.96077 -0.0362187 0)
(1.95981 -0.0383569 0)
(1.95911 -0.0414013 0)
(1.95892 -0.0410812 0)
(1.95984 -0.0397633 0)
(1.96114 -0.0388109 0)
(1.96103 -0.0396874 0)
(1.96076 -0.0413858 0)
(1.96096 -0.0413509 0)
(1.96187 -0.0405389 0)
(1.96256 -0.0401924 0)
(1.96237 -0.0409431 0)
(1.96237 -0.0419612 0)
(1.96279 -0.0420384 0)
(1.96349 -0.0418678 0)
(1.96361 -0.0421907 0)
(1.96389 -0.0425355 0)
(1.96424 -0.0423642 0)
(1.96471 -0.0419983 0)
(1.96533 -0.0421976 0)
(1.96624 -0.0428389 0)
(1.96704 -0.0434458 0)
(1.96826 -0.0444226 0)
(1.96948 -0.0448095 0)
(1.97058 -0.0450766 0)
(1.97043 -0.0456835 0)
(1.96992 -0.0460463 0)
(1.96784 -0.0471584 0)
(1.96319 -0.0491087 0)
(1.95684 -0.0505842 0)
(1.95196 -0.050753 0)
(1.94835 -0.051914 0)
(1.94617 -0.0532549 0)
(1.94347 -0.0565596 0)
(2.21262 -0.836453 0)
(2.21242 -0.836378 0)
(2.21221 -0.836292 0)
(2.21199 -0.836211 0)
(2.21177 -0.836118 0)
(2.21152 -0.836037 0)
(2.21128 -0.835942 0)
(2.21101 -0.835878 0)
(2.21075 -0.835783 0)
(2.21047 -0.835726 0)
(2.2102 -0.835628 0)
(2.20991 -0.835568 0)
(2.20965 -0.835458 0)
(2.20936 -0.835433 0)
(2.20907 -0.835297 0)
(2.20894 -0.835145 0)
(2.20884 -0.835032 0)
(2.20873 -0.834886 0)
(2.20861 -0.8348 0)
(2.20849 -0.834677 0)
(2.20832 -0.834621 0)
(2.20806 -0.834386 0)
(2.20751 -0.833491 0)
(2.20594 -0.831058 0)
(2.20261 -0.824445 0)
(2.19604 -0.811059 0)
(2.18411 -0.782692 0)
(2.16858 -0.744297 0)
(2.14267 -0.67304 0)
(2.12113 -0.607109 0)
(2.08291 -0.491119 0)
(2.06565 -0.416277 0)
(2.02566 -0.294766 0)
(2.01909 -0.233369 0)
(1.98878 -0.144255 0)
(1.98321 -0.102484 0)
(1.96866 -0.0603715 0)
(1.95778 -0.023268 0)
(1.95091 -0.0108283 0)
(1.95003 0.00394482 0)
(1.94416 0.000260969 0)
(1.94138 -0.0127301 0)
(1.94194 -0.0247449 0)
(1.9426 -0.032567 0)
(1.94042 -0.0402211 0)
(1.94194 -0.0415683 0)
(1.94665 -0.0406926 0)
(1.95093 -0.0394048 0)
(1.9538 -0.0362564 0)
(1.9554 -0.0328011 0)
(1.9562 -0.0295009 0)
(1.95523 -0.0310376 0)
(1.95281 -0.0347536 0)
(1.94889 -0.0407763 0)
(1.9469 -0.0452299 0)
(1.94827 -0.0445007 0)
(1.95167 -0.0418106 0)
(1.95504 -0.0370045 0)
(1.95761 -0.0327622 0)
(1.95761 -0.0333524 0)
(1.95499 -0.0372595 0)
(1.95203 -0.0417503 0)
(1.95288 -0.0440005 0)
(1.95442 -0.041719 0)
(1.95675 -0.0376205 0)
(1.95842 -0.0348079 0)
(1.95754 -0.0367535 0)
(1.9551 -0.0406953 0)
(1.95582 -0.0416397 0)
(1.95689 -0.0405885 0)
(1.9586 -0.038361 0)
(1.95866 -0.038734 0)
(1.95797 -0.0404551 0)
(1.95793 -0.041724 0)
(1.9586 -0.0411328 0)
(1.95982 -0.0399169 0)
(1.95986 -0.0403289 0)
(1.95975 -0.0412754 0)
(1.95988 -0.0417168 0)
(1.96032 -0.0416014 0)
(1.96108 -0.0418377 0)
(1.96121 -0.0422834 0)
(1.96154 -0.0424227 0)
(1.96209 -0.0421015 0)
(1.9625 -0.0420014 0)
(1.96319 -0.0423099 0)
(1.96411 -0.0429264 0)
(1.96507 -0.0434964 0)
(1.96637 -0.0444376 0)
(1.96771 -0.0447323 0)
(1.96897 -0.0451139 0)
(1.9689 -0.045745 0)
(1.96848 -0.0461408 0)
(1.96646 -0.0472294 0)
(1.96197 -0.0490848 0)
(1.95598 -0.050286 0)
(1.95124 -0.0504235 0)
(1.94795 -0.0516263 0)
(1.94612 -0.0531107 0)
(1.94371 -0.0565578 0)
(2.20942 -0.835321 0)
(2.20928 -0.835257 0)
(2.20912 -0.835212 0)
(2.20897 -0.835145 0)
(2.2088 -0.835105 0)
(2.20865 -0.835039 0)
(2.20849 -0.835004 0)
(2.20835 -0.834937 0)
(2.20819 -0.834905 0)
(2.20805 -0.834832 0)
(2.20791 -0.834805 0)
(2.20778 -0.83474 0)
(2.20764 -0.834717 0)
(2.20753 -0.834646 0)
(2.20741 -0.834633 0)
(2.20733 -0.834574 0)
(2.20722 -0.834596 0)
(2.20715 -0.834546 0)
(2.20705 -0.83461 0)
(2.20702 -0.834557 0)
(2.20694 -0.83466 0)
(2.20696 -0.834599 0)
(2.20687 -0.834766 0)
(2.20691 -0.834649 0)
(2.20697 -0.834599 0)
(2.20704 -0.834564 0)
(2.20712 -0.834545 0)
(2.20717 -0.834569 0)
(2.20712 -0.834402 0)
(2.20685 -0.833318 0)
(2.20475 -0.828973 0)
(2.19934 -0.816396 0)
(2.18587 -0.787212 0)
(2.16631 -0.73563 0)
(2.13871 -0.660215 0)
(2.10875 -0.560265 0)
(2.08423 -0.470392 0)
(2.05189 -0.349175 0)
(2.04268 -0.289894 0)
(2.01311 -0.186749 0)
(2.0031 -0.156402 0)
(1.98747 -0.121217 0)
(1.97537 -0.0894241 0)
(1.97567 -0.0721683 0)
(1.96444 -0.0543876 0)
(1.96257 -0.0434776 0)
(1.96171 -0.0348267 0)
(1.95773 -0.0311401 0)
(1.95734 -0.0240392 0)
(1.95655 -0.0240633 0)
(1.95261 -0.0281714 0)
(1.94672 -0.038454 0)
(1.94648 -0.0448285 0)
(1.94495 -0.0484963 0)
(1.94572 -0.0474152 0)
(1.94954 -0.0435323 0)
(1.95515 -0.03758 0)
(1.95807 -0.0319866 0)
(1.95754 -0.0328764 0)
(1.95456 -0.0369252 0)
(1.94989 -0.043644 0)
(1.95015 -0.0460314 0)
(1.95205 -0.0432796 0)
(1.95564 -0.0387113 0)
(1.95796 -0.0342738 0)
(1.95707 -0.0356559 0)
(1.9544 -0.039567 0)
(1.95324 -0.0420325 0)
(1.95474 -0.0414985 0)
(1.95671 -0.0392072 0)
(1.95761 -0.03834 0)
(1.95686 -0.0395418 0)
(1.95624 -0.041469 0)
(1.9568 -0.0412824 0)
(1.95786 -0.0400716 0)
(1.95868 -0.0402111 0)
(1.95836 -0.0410216 0)
(1.95834 -0.0418542 0)
(1.95867 -0.0418409 0)
(1.95925 -0.0416632 0)
(1.95979 -0.0420909 0)
(1.96003 -0.042569 0)
(1.96039 -0.0425618 0)
(1.96106 -0.0421104 0)
(1.96157 -0.0420383 0)
(1.96215 -0.0424648 0)
(1.96299 -0.0429934 0)
(1.96415 -0.043557 0)
(1.96556 -0.0444206 0)
(1.96705 -0.0444725 0)
(1.96858 -0.0448318 0)
(1.96861 -0.0454823 0)
(1.96829 -0.0460461 0)
(1.96629 -0.0473091 0)
(1.96186 -0.0491364 0)
(1.95612 -0.0501167 0)
(1.95157 -0.0501566 0)
(1.94851 -0.0514477 0)
(1.94689 -0.0530296 0)
(1.9445 -0.0565599 0)
(2.20743 -0.834586 0)
(2.20737 -0.834576 0)
(2.20732 -0.834544 0)
(2.20726 -0.834543 0)
(2.20721 -0.834514 0)
(2.20716 -0.834519 0)
(2.20712 -0.834492 0)
(2.20707 -0.834508 0)
(2.20705 -0.834485 0)
(2.20701 -0.834509 0)
(2.207 -0.834488 0)
(2.20698 -0.834517 0)
(2.20698 -0.834503 0)
(2.20697 -0.834542 0)
(2.20699 -0.834536 0)
(2.207 -0.834587 0)
(2.20705 -0.834592 0)
(2.20708 -0.834641 0)
(2.20714 -0.834665 0)
(2.2072 -0.834701 0)
(2.20728 -0.834745 0)
(2.20737 -0.83477 0)
(2.20747 -0.834829 0)
(2.2076 -0.834838 0)
(2.20771 -0.834933 0)
(2.20786 -0.834945 0)
(2.20798 -0.835049 0)
(2.20814 -0.835093 0)
(2.20831 -0.835136 0)
(2.20842 -0.835267 0)
(2.20854 -0.835212 0)
(2.20867 -0.835188 0)
(2.20881 -0.835198 0)
(2.20892 -0.83522 0)
(2.20889 -0.834801 0)
(2.20798 -0.832222 0)
(2.20399 -0.822825 0)
(2.19193 -0.793266 0)
(2.17346 -0.742952 0)
(2.13687 -0.637764 0)
(2.10847 -0.53459 0)
(2.06537 -0.391082 0)
(2.03252 -0.260636 0)
(2.03061 -0.200228 0)
(1.98917 -0.088744 0)
(1.98582 -0.0666303 0)
(1.96753 -0.0272903 0)
(1.95542 -0.00528296 0)
(1.95166 -0.00781853 0)
(1.94966 -0.0195949 0)
(1.94998 -0.0313431 0)
(1.94915 -0.0427876 0)
(1.94913 -0.0437712 0)
(1.95098 -0.0420299 0)
(1.95207 -0.0424351 0)
(1.959 -0.0344843 0)
(1.96047 -0.03112 0)
(1.95907 -0.0319274 0)
(1.95485 -0.0362869 0)
(1.95102 -0.0423034 0)
(1.94938 -0.0451744 0)
(1.95112 -0.0436143 0)
(1.95602 -0.0378449 0)
(1.95861 -0.0340149 0)
(1.95809 -0.0349571 0)
(1.95499 -0.0393168 0)
(1.95294 -0.0424919 0)
(1.95384 -0.0419836 0)
(1.95571 -0.0393434 0)
(1.95764 -0.037767 0)
(1.95732 -0.0388252 0)
(1.9561 -0.0409348 0)
(1.95634 -0.0420102 0)
(1.95765 -0.0410869 0)
(1.9588 -0.0397644 0)
(1.95875 -0.0401648 0)
(1.95816 -0.0413147 0)
(1.95844 -0.0418379 0)
(1.95892 -0.0413395 0)
(1.95964 -0.0414513 0)
(1.95983 -0.0420336 0)
(1.95996 -0.0425995 0)
(1.96062 -0.04233 0)
(1.9612 -0.0419281 0)
(1.96168 -0.0421897 0)
(1.96221 -0.0427526 0)
(1.96299 -0.0431564 0)
(1.96425 -0.0438324 0)
(1.96574 -0.0448015 0)
(1.96732 -0.0446833 0)
(1.96905 -0.0451252 0)
(1.96916 -0.0457391 0)
(1.96883 -0.0462865 0)
(1.96678 -0.0473796 0)
(1.96239 -0.048974 0)
(1.95677 -0.0497954 0)
(1.95241 -0.0499798 0)
(1.94941 -0.0513407 0)
(1.94793 -0.0530281 0)
(1.94537 -0.0565535 0)
(2.20699 -0.834418 0)
(2.20701 -0.834419 0)
(2.20702 -0.834447 0)
(2.20705 -0.83445 0)
(2.20707 -0.834484 0)
(2.2071 -0.834489 0)
(2.20713 -0.834529 0)
(2.20717 -0.834535 0)
(2.20721 -0.83458 0)
(2.20726 -0.834592 0)
(2.20731 -0.834645 0)
(2.20737 -0.834655 0)
(2.20743 -0.834714 0)
(2.20751 -0.834731 0)
(2.20758 -0.834788 0)
(2.20767 -0.834817 0)
(2.20776 -0.83487 0)
(2.20786 -0.834914 0)
(2.20796 -0.834954 0)
(2.20807 -0.835017 0)
(2.20819 -0.835045 0)
(2.2083 -0.835125 0)
(2.20844 -0.835139 0)
(2.20856 -0.835211 0)
(2.2087 -0.835243 0)
(2.20884 -0.835299 0)
(2.20898 -0.835341 0)
(2.20913 -0.835363 0)
(2.20928 -0.835429 0)
(2.20945 -0.835425 0)
(2.20959 -0.835494 0)
(2.20975 -0.835501 0)
(2.20989 -0.83558 0)
(2.21005 -0.835571 0)
(2.21021 -0.835681 0)
(2.21029 -0.835645 0)
(2.21037 -0.835634 0)
(2.21046 -0.835631 0)
(2.21051 -0.835661 0)
(2.21037 -0.835084 0)
(2.2088 -0.831113 0)
(2.20074 -0.814218 0)
(2.18222 -0.765892 0)
(2.15553 -0.687535 0)
(2.11409 -0.553661 0)
(2.09006 -0.445203 0)
(2.04623 -0.299015 0)
(2.02332 -0.207023 0)
(2.00524 -0.149135 0)
(1.98527 -0.106832 0)
(1.98126 -0.0832937 0)
(1.97414 -0.0625555 0)
(1.9655 -0.0483549 0)
(1.96308 -0.0363458 0)
(1.96115 -0.0254474 0)
(1.96181 -0.0238603 0)
(1.95732 -0.0276517 0)
(1.95133 -0.0373218 0)
(1.94544 -0.0487847 0)
(1.94732 -0.0522409 0)
(1.94971 -0.0488737 0)
(1.95636 -0.0399733 0)
(1.96054 -0.0317673 0)
(1.96 -0.0327136 0)
(1.95747 -0.0369503 0)
(1.95302 -0.0440836 0)
(1.95351 -0.043687 0)
(1.95546 -0.0411574 0)
(1.9575 -0.0368586 0)
(1.9586 -0.0373261 0)
(1.95719 -0.0397902 0)
(1.95616 -0.0426317 0)
(1.95684 -0.0419494 0)
(1.95862 -0.0396192 0)
(1.95954 -0.0395191 0)
(1.95893 -0.0409469 0)
(1.95846 -0.0422303 0)
(1.95906 -0.0421025 0)
(1.95973 -0.0411994 0)
(1.96019 -0.0417015 0)
(1.96015 -0.0424241 0)
(1.96042 -0.0426793 0)
(1.96117 -0.0421734 0)
(1.96186 -0.0419632 0)
(1.96215 -0.042364 0)
(1.96271 -0.0430218 0)
(1.96361 -0.0431212 0)
(1.96493 -0.0436353 0)
(1.96651 -0.0444706 0)
(1.96815 -0.0443643 0)
(1.96986 -0.0447748 0)
(1.96996 -0.045579 0)
(1.96955 -0.0464071 0)
(1.96739 -0.0475602 0)
(1.96312 -0.0490347 0)
(1.95759 -0.0494081 0)
(1.95332 -0.0496472 0)
(1.95014 -0.0512205 0)
(1.94882 -0.0529448 0)
(1.94603 -0.0564609 0)
(2.20767 -0.834657 0)
(2.20771 -0.834695 0)
(2.20776 -0.83471 0)
(2.20781 -0.834754 0)
(2.20787 -0.834776 0)
(2.20793 -0.83482 0)
(2.208 -0.834843 0)
(2.20805 -0.834893 0)
(2.20813 -0.834907 0)
(2.20819 -0.834963 0)
(2.20827 -0.83499 0)
(2.20835 -0.835042 0)
(2.20843 -0.835067 0)
(2.20851 -0.835122 0)
(2.20861 -0.835147 0)
(2.2087 -0.835205 0)
(2.2088 -0.83523 0)
(2.20889 -0.83528 0)
(2.209 -0.835313 0)
(2.2091 -0.835349 0)
(2.20921 -0.835383 0)
(2.20932 -0.835421 0)
(2.20943 -0.835455 0)
(2.20954 -0.835492 0)
(2.20966 -0.835511 0)
(2.20978 -0.835557 0)
(2.2099 -0.835567 0)
(2.21001 -0.835614 0)
(2.21013 -0.83562 0)
(2.21024 -0.835666 0)
(2.21036 -0.835659 0)
(2.21047 -0.835703 0)
(2.21058 -0.835688 0)
(2.21067 -0.835728 0)
(2.21077 -0.835721 0)
(2.21087 -0.83574 0)
(2.21095 -0.835772 0)
(2.21104 -0.83579 0)
(2.2111 -0.835871 0)
(2.21115 -0.835865 0)
(2.21116 -0.835933 0)
(2.2112 -0.835936 0)
(2.2112 -0.836057 0)
(2.21113 -0.835828 0)
(2.20968 -0.832522 0)
(2.20367 -0.817035 0)
(2.18283 -0.767059 0)
(2.14794 -0.660249 0)
(2.1081 -0.525526 0)
(2.05136 -0.337958 0)
(2.02724 -0.218518 0)
(2.01372 -0.13573 0)
(1.97551 -0.031161 0)
(1.96159 -0.0160585 0)
(1.96405 -0.00122856 0)
(1.95776 -0.0140746 0)
(1.95296 -0.0301121 0)
(1.94925 -0.0395949 0)
(1.95044 -0.0458444 0)
(1.95106 -0.0479316 0)
(1.96111 -0.0369103 0)
(1.96308 -0.0314337 0)
(1.96191 -0.0316586 0)
(1.95707 -0.0367821 0)
(1.95512 -0.0429149 0)
(1.95203 -0.0456947 0)
(1.95468 -0.0433171 0)
(1.95856 -0.0374581 0)
(1.95987 -0.0354402 0)
(1.95847 -0.0379503 0)
(1.95636 -0.0425504 0)
(1.95652 -0.04278 0)
(1.95869 -0.0404223 0)
(1.96004 -0.0385499 0)
(1.9598 -0.0394731 0)
(1.95888 -0.041773 0)
(1.95888 -0.0425078 0)
(1.95972 -0.0416471 0)
(1.96035 -0.0411209 0)
(1.96021 -0.0417019 0)
(1.96017 -0.0426511 0)
(1.96068 -0.0424848 0)
(1.96156 -0.0418434 0)
(1.96233 -0.0420813 0)
(1.96274 -0.0426266 0)
(1.9634 -0.0432752 0)
(1.96429 -0.0434552 0)
(1.96567 -0.044079 0)
(1.96736 -0.0447154 0)
(1.96905 -0.0445874 0)
(1.97062 -0.0450599 0)
(1.97066 -0.0457469 0)
(1.97017 -0.0465442 0)
(1.96796 -0.0475061 0)
(1.96379 -0.0489868 0)
(1.95832 -0.0491521 0)
(1.95402 -0.0494438 0)
(1.95057 -0.0511448 0)
(1.94942 -0.053027 0)
(1.9464 -0.0563967 0)
(2.20873 -0.835138 0)
(2.20878 -0.835156 0)
(2.20883 -0.835196 0)
(2.20889 -0.835214 0)
(2.20894 -0.83526 0)
(2.209 -0.835281 0)
(2.20905 -0.835319 0)
(2.20911 -0.835344 0)
(2.20917 -0.835383 0)
(2.20924 -0.8354 0)
(2.2093 -0.835438 0)
(2.20938 -0.835444 0)
(2.20944 -0.835484 0)
(2.20952 -0.835498 0)
(2.20959 -0.835538 0)
(2.20967 -0.835563 0)
(2.20974 -0.8356 0)
(2.20982 -0.835612 0)
(2.2099 -0.835648 0)
(2.20999 -0.83566 0)
(2.21007 -0.835693 0)
(2.21016 -0.835705 0)
(2.21024 -0.835729 0)
(2.21033 -0.835738 0)
(2.21042 -0.835766 0)
(2.21051 -0.835769 0)
(2.21059 -0.835798 0)
(2.21067 -0.835795 0)
(2.21076 -0.835818 0)
(2.21084 -0.835821 0)
(2.21092 -0.835837 0)
(2.21099 -0.835841 0)
(2.21107 -0.835847 0)
(2.21113 -0.835865 0)
(2.2112 -0.83588 0)
(2.21125 -0.835915 0)
(2.21131 -0.835931 0)
(2.21135 -0.835988 0)
(2.2114 -0.836012 0)
(2.21141 -0.836086 0)
(2.21145 -0.836121 0)
(2.21146 -0.836192 0)
(2.2115 -0.836219 0)
(2.21153 -0.836273 0)
(2.21154 -0.836287 0)
(2.21159 -0.836278 0)
(2.21163 -0.836308 0)
(2.21151 -0.835857 0)
(2.20917 -0.830274 0)
(2.19648 -0.801867 0)
(2.16861 -0.722401 0)
(2.12822 -0.594903 0)
(2.08027 -0.416969 0)
(2.06084 -0.305833 0)
(2.01753 -0.167443 0)
(1.99921 -0.129647 0)
(1.98387 -0.0889822 0)
(1.97385 -0.0657934 0)
(1.97358 -0.0486467 0)
(1.96773 -0.0337287 0)
(1.96472 -0.0213064 0)
(1.95954 -0.0240731 0)
(1.95486 -0.034165 0)
(1.94853 -0.0486962 0)
(1.9507 -0.0510323 0)
(1.95393 -0.0468878 0)
(1.96054 -0.0382656 0)
(1.96289 -0.0335736 0)
(1.96132 -0.0353881 0)
(1.95695 -0.0416588 0)
(1.95625 -0.0442208 0)
(1.95793 -0.0422261 0)
(1.96125 -0.0378481 0)
(1.96111 -0.038201 0)
(1.9595 -0.0408968 0)
(1.95859 -0.0430712 0)
(1.95927 -0.0426162 0)
(1.96035 -0.0405894 0)
(1.96045 -0.041044 0)
(1.95991 -0.0423316 0)
(1.96012 -0.0427967 0)
(1.96108 -0.0420134 0)
(1.96225 -0.0417111 0)
(1.96246 -0.0423803 0)
(1.9633 -0.0430207 0)
(1.964 -0.0432775 0)
(1.96498 -0.043399 0)
(1.9664 -0.0440673 0)
(1.96814 -0.0446315 0)
(1.9698 -0.0443799 0)
(1.97121 -0.0451056 0)
(1.97126 -0.0458454 0)
(1.9707 -0.0466716 0)
(1.96849 -0.0474949 0)
(1.96418 -0.0488023 0)
(1.95873 -0.0488181 0)
(1.95439 -0.0491516 0)
(1.95075 -0.0511076 0)
(1.94973 -0.0530587 0)
(1.94649 -0.0562517 0)
(2.20972 -0.835605 0)
(2.20975 -0.835624 0)
(2.20979 -0.835632 0)
(2.20983 -0.835647 0)
(2.20987 -0.835656 0)
(2.20991 -0.835676 0)
(2.20996 -0.835686 0)
(2.21 -0.835719 0)
(2.21005 -0.835735 0)
(2.21009 -0.835766 0)
(2.21014 -0.835784 0)
(2.21019 -0.835803 0)
(2.21024 -0.835809 0)
(2.21029 -0.835826 0)
(2.21035 -0.835823 0)
(2.2104 -0.83585 0)
(2.21046 -0.835861 0)
(2.21052 -0.835873 0)
(2.21058 -0.835881 0)
(2.21064 -0.835901 0)
(2.21071 -0.835905 0)
(2.21077 -0.835912 0)
(2.21084 -0.835922 0)
(2.2109 -0.835947 0)
(2.21096 -0.835945 0)
(2.21103 -0.83594 0)
(2.21109 -0.835955 0)
(2.21115 -0.835976 0)
(2.2112 -0.835977 0)
(2.21126 -0.83598 0)
(2.21132 -0.835981 0)
(2.21137 -0.835997 0)
(2.21142 -0.836014 0)
(2.21146 -0.836039 0)
(2.2115 -0.836068 0)
(2.21154 -0.836095 0)
(2.21156 -0.836148 0)
(2.21159 -0.836183 0)
(2.2116 -0.836249 0)
(2.21162 -0.836266 0)
(2.21163 -0.836314 0)
(2.21164 -0.836346 0)
(2.21166 -0.836366 0)
(2.2117 -0.836385 0)
(2.21174 -0.836384 0)
(2.21179 -0.83639 0)
(2.21183 -0.83638 0)
(2.21191 -0.836375 0)
(2.212 -0.836381 0)
(2.21206 -0.836356 0)
(2.21207 -0.836255 0)
(2.21111 -0.833927 0)
(2.20273 -0.813865 0)
(2.18077 -0.74759 0)
(2.13065 -0.604453 0)
(2.07931 -0.421527 0)
(2.03001 -0.23364 0)
(2.00901 -0.124166 0)
(1.98517 -0.0400085 0)
(1.9687 0.00166216 0)
(1.96128 -0.00345433 0)
(1.9565 -0.0269149 0)
(1.95454 -0.0379282 0)
(1.95384 -0.0469288 0)
(1.95429 -0.0481821 0)
(1.96736 -0.0358342 0)
(1.96728 -0.0321258 0)
(1.96421 -0.0338695 0)
(1.95907 -0.0408832 0)
(1.95485 -0.0456221 0)
(1.95664 -0.0442977 0)
(1.96111 -0.037945 0)
(1.96202 -0.0370016 0)
(1.96013 -0.0395025 0)
(1.95817 -0.0434137 0)
(1.95845 -0.043454 0)
(1.96025 -0.0407958 0)
(1.96089 -0.0396859 0)
(1.96015 -0.0413012 0)
(1.95985 -0.0429625 0)
(1.96045 -0.0427541 0)
(1.9618 -0.0414728 0)
(1.96288 -0.0418048 0)
(1.96304 -0.042743 0)
(1.96373 -0.0435629 0)
(1.96457 -0.0433958 0)
(1.96563 -0.0436185 0)
(1.96691 -0.0443162 0)
(1.96869 -0.0445911 0)
(1.97042 -0.0443709 0)
(1.97167 -0.0452689 0)
(1.97171 -0.0460762 0)
(1.97106 -0.0468573 0)
(1.96882 -0.0474649 0)
(1.96444 -0.0485177 0)
(1.95885 -0.0484939 0)
(1.95469 -0.0490237 0)
(1.95084 -0.0511625 0)
(1.94979 -0.0531273 0)
(1.94631 -0.0559912 0)
(2.21045 -0.835913 0)
(2.21048 -0.83592 0)
(2.2105 -0.835937 0)
(2.21053 -0.835945 0)
(2.21055 -0.835957 0)
(2.21058 -0.835962 0)
(2.21061 -0.835964 0)
(2.21064 -0.835966 0)
(2.21068 -0.83597 0)
(2.21071 -0.83597 0)
(2.21075 -0.835982 0)
(2.21078 -0.835986 0)
(2.21082 -0.835998 0)
(2.21086 -0.836005 0)
(2.2109 -0.83601 0)
(2.21094 -0.836018 0)
(2.21098 -0.836032 0)
(2.21103 -0.836029 0)
(2.21107 -0.836037 0)
(2.21112 -0.836053 0)
(2.21117 -0.836057 0)
(2.21122 -0.836048 0)
(2.21127 -0.836048 0)
(2.21132 -0.836061 0)
(2.21136 -0.836077 0)
(2.21141 -0.836078 0)
(2.21146 -0.836077 0)
(2.2115 -0.836088 0)
(2.21154 -0.836101 0)
(2.21158 -0.836115 0)
(2.21161 -0.836129 0)
(2.21165 -0.836157 0)
(2.21167 -0.836199 0)
(2.2117 -0.836232 0)
(2.21172 -0.836276 0)
(2.21173 -0.83632 0)
(2.21175 -0.836346 0)
(2.21175 -0.836398 0)
(2.21177 -0.836417 0)
(2.21177 -0.836461 0)
(2.21179 -0.836448 0)
(2.2118 -0.836465 0)
(2.21183 -0.836461 0)
(2.21186 -0.836457 0)
(2.21191 -0.836441 0)
(2.21196 -0.836422 0)
(2.212 -0.836415 0)
(2.21206 -0.836396 0)
(2.2121 -0.836375 0)
(2.21214 -0.836363 0)
(2.21217 -0.836364 0)
(2.21219 -0.836382 0)
(2.21221 -0.836408 0)
(2.21218 -0.83651 0)
(2.21137 -0.834734 0)
(2.20365 -0.816917 0)
(2.17535 -0.742208 0)
(2.13597 -0.607442 0)
(2.0787 -0.40419 0)
(2.05786 -0.27276 0)
(2.00494 -0.144543 0)
(2.00419 -0.110495 0)
(1.98134 -0.0720807 0)
(1.97578 -0.0519714 0)
(1.97335 -0.0333978 0)
(1.97106 -0.0254898 0)
(1.96424 -0.0283845 0)
(1.95464 -0.0415155 0)
(1.95171 -0.0503021 0)
(1.95395 -0.0478003 0)
(1.9606 -0.0397298 0)
(1.96326 -0.0339885 0)
(1.96165 -0.0363004 0)
(1.95752 -0.0428095 0)
(1.95727 -0.0451401 0)
(1.95884 -0.0427055 0)
(1.96115 -0.039218 0)
(1.96085 -0.0398764 0)
(1.95954 -0.0427832 0)
(1.95975 -0.0434263 0)
(1.96129 -0.0421014 0)
(1.96303 -0.0411846 0)
(1.96311 -0.0422846 0)
(1.96363 -0.0434173 0)
(1.96431 -0.043581 0)
(1.96518 -0.0434507 0)
(1.96615 -0.043807 0)
(1.96721 -0.0444378 0)
(1.96902 -0.0443707 0)
(1.97085 -0.0444331 0)
(1.97192 -0.0453703 0)
(1.97196 -0.0463352 0)
(1.9713 -0.0469289 0)
(1.96902 -0.0473053 0)
(1.96472 -0.0482332 0)
(1.95908 -0.048306 0)
(1.95492 -0.0489714 0)
(1.95087 -0.0511777 0)
(1.94967 -0.0530662 0)
(1.94621 -0.0556755 0)
(2.21097 -0.83605 0)
(2.21099 -0.836054 0)
(2.21101 -0.836052 0)
(2.21103 -0.836055 0)
(2.21106 -0.836054 0)
(2.21108 -0.836058 0)
(2.2111 -0.836062 0)
(2.21112 -0.836066 0)
(2.21115 -0.836066 0)
(2.21117 -0.83607 0)
(2.2112 -0.836069 0)
(2.21123 -0.836069 0)
(2.21126 -0.836074 0)
(2.21128 -0.836072 0)
(2.21132 -0.836069 0)
(2.21135 -0.836078 0)
(2.21138 -0.836083 0)
(2.21142 -0.836081 0)
(2.21145 -0.836088 0)
(2.21149 -0.836096 0)
(2.21153 -0.836104 0)
(2.21156 -0.83611 0)
(2.2116 -0.836108 0)
(2.21164 -0.83611 0)
(2.21167 -0.836123 0)
(2.2117 -0.836141 0)
(2.21172 -0.836161 0)
(2.21175 -0.836169 0)
(2.21177 -0.836194 0)
(2.21179 -0.836214 0)
(2.21181 -0.836258 0)
(2.21183 -0.836294 0)
(2.21186 -0.836324 0)
(2.21186 -0.836389 0)
(2.21189 -0.836403 0)
(2.21189 -0.836452 0)
(2.2119 -0.836468 0)
(2.21191 -0.836493 0)
(2.21191 -0.83651 0)
(2.21194 -0.836508 0)
(2.21195 -0.836498 0)
(2.21197 -0.836491 0)
(2.212 -0.836482 0)
(2.21204 -0.83646 0)
(2.21209 -0.836425 0)
(2.21212 -0.836398 0)
(2.21212 -0.836376 0)
(2.21216 -0.836343 0)
(2.21218 -0.836328 0)
(2.2122 -0.836331 0)
(2.21223 -0.836347 0)
(2.21222 -0.836411 0)
(2.2122 -0.836494 0)
(2.21217 -0.836617 0)
(2.21218 -0.836631 0)
(2.21217 -0.836701 0)
(2.21215 -0.836628 0)
(2.21126 -0.834287 0)
(2.20097 -0.808836 0)
(2.17308 -0.722185 0)
(2.09734 -0.500813 0)
(2.07793 -0.338559 0)
(2.0086 -0.120146 0)
(1.98788 -0.0650109 0)
(1.98529 0.00279467 0)
(1.9603 -0.0118363 0)
(1.95485 -0.0314087 0)
(1.9533 -0.0457031 0)
(1.95529 -0.0474326 0)
(1.96249 -0.0391895 0)
(1.96542 -0.0335041 0)
(1.96331 -0.0344685 0)
(1.95804 -0.0413578 0)
(1.95487 -0.0463454 0)
(1.95676 -0.0451514 0)
(1.96049 -0.039181 0)
(1.96196 -0.03805 0)
(1.96005 -0.0412913 0)
(1.95925 -0.0439068 0)
(1.96036 -0.0432922 0)
(1.96291 -0.0406378 0)
(1.96367 -0.0411692 0)
(1.96334 -0.0428727 0)
(1.96382 -0.0439723 0)
(1.96482 -0.0434359 0)
(1.9656 -0.0435877 0)
(1.96626 -0.0441604 0)
(1.96725 -0.0445404 0)
(1.96907 -0.0440895 0)
(1.97105 -0.0446483 0)
(1.97179 -0.0456614 0)
(1.9719 -0.0466608 0)
(1.9714 -0.0468287 0)
(1.96916 -0.0471202 0)
(1.96466 -0.0480559 0)
(1.95896 -0.0481453 0)
(1.95489 -0.0489614 0)
(1.95072 -0.0511893 0)
(1.94945 -0.0529423 0)
(1.94599 -0.0553227 0)
(2.21138 -0.836112 0)
(2.2114 -0.836112 0)
(2.21141 -0.836116 0)
(2.21143 -0.836112 0)
(2.21145 -0.836109 0)
(2.21147 -0.836113 0)
(2.21149 -0.836114 0)
(2.2115 -0.83611 0)
(2.21153 -0.836105 0)
(2.21155 -0.836107 0)
(2.21157 -0.836109 0)
(2.21159 -0.83611 0)
(2.2116 -0.836114 0)
(2.21163 -0.836115 0)
(2.21165 -0.836116 0)
(2.21167 -0.836116 0)
(2.21169 -0.836119 0)
(2.21172 -0.836117 0)
(2.21174 -0.836117 0)
(2.21177 -0.83612 0)
(2.21179 -0.836123 0)
(2.21182 -0.836131 0)
(2.21184 -0.836146 0)
(2.21186 -0.836157 0)
(2.21188 -0.836187 0)
(2.2119 -0.8362 0)
(2.21191 -0.83623 0)
(2.21192 -0.836274 0)
(2.21193 -0.836306 0)
(2.21194 -0.836347 0)
(2.21195 -0.836383 0)
(2.21196 -0.836444 0)
(2.21198 -0.836461 0)
(2.212 -0.836495 0)
(2.21201 -0.836524 0)
(2.21203 -0.836528 0)
(2.21204 -0.836536 0)
(2.21206 -0.836534 0)
(2.21207 -0.836532 0)
(2.21209 -0.836524 0)
(2.21212 -0.836504 0)
(2.21214 -0.836486 0)
(2.21216 -0.836459 0)
(2.21219 -0.836419 0)
(2.21222 -0.836381 0)
(2.21222 -0.836355 0)
(2.21222 -0.836326 0)
(2.21223 -0.836308 0)
(2.21223 -0.836308 0)
(2.21223 -0.83633 0)
(2.21222 -0.836377 0)
(2.21217 -0.836452 0)
(2.21213 -0.836568 0)
(2.21215 -0.836628 0)
(2.21218 -0.836674 0)
(2.21223 -0.836685 0)
(2.21225 -0.836675 0)
(2.21229 -0.836648 0)
(2.21238 -0.836584 0)
(2.21239 -0.836305 0)
(2.20927 -0.829375 0)
(2.19289 -0.783357 0)
(2.14617 -0.639184 0)
(2.10397 -0.466146 0)
(2.04047 -0.235972 0)
(2.02506 -0.167981 0)
(1.98742 -0.0976786 0)
(1.98071 -0.0673735 0)
(1.97663 -0.0441308 0)
(1.96614 -0.025142 0)
(1.96417 -0.0267864 0)
(1.95528 -0.0387558 0)
(1.95083 -0.0503129 0)
(1.95308 -0.0486877 0)
(1.9602 -0.0408984 0)
(1.96315 -0.0366426 0)
(1.96187 -0.0385433 0)
(1.95838 -0.0448331 0)
(1.95902 -0.0447338 0)
(1.96218 -0.0410795 0)
(1.96371 -0.0403624 0)
(1.96316 -0.0422318 0)
(1.96271 -0.0441698 0)
(1.96351 -0.0441311 0)
(1.96492 -0.0431532 0)
(1.96546 -0.0436199 0)
(1.96594 -0.0445947 0)
(1.96703 -0.0445155 0)
(1.96864 -0.0437903 0)
(1.97065 -0.0447853 0)
(1.97131 -0.0459542 0)
(1.97158 -0.0467492 0)
(1.97117 -0.0466727 0)
(1.96893 -0.0470391 0)
(1.96438 -0.0478126 0)
(1.95865 -0.0480461 0)
(1.95452 -0.0489652 0)
(1.95034 -0.0511559 0)
(1.94911 -0.0527924 0)
(1.94567 -0.054985 0)
(2.21173 -0.836169 0)
(2.21174 -0.836165 0)
(2.21175 -0.836164 0)
(2.21177 -0.836164 0)
(2.21178 -0.836162 0)
(2.21179 -0.836163 0)
(2.21181 -0.836166 0)
(2.21182 -0.836162 0)
(2.21184 -0.836161 0)
(2.21185 -0.836164 0)
(2.21186 -0.836163 0)
(2.21188 -0.836163 0)
(2.21189 -0.836165 0)