/*--------------------------------*- C++ -*----------------------------------*\
  =========                 |
  \\      /  F ield         | OpenFOAM: The Open Source CFD Toolbox
   \\    /   O peration     | Website:  https://openfoam.org
    \\  /    A nd           | Version:  7
     \\/     M anipulation  |
\*---------------------------------------------------------------------------*/
FoamFile
{
    version     2.0;
    format      ascii;
    class       volScalarField;
    location    "6";
    object      T;
}
// * * * * * * * * * * * * * * * * * * * * * * * * * * * * * * * * * * * * * //

dimensions      [0 0 0 1 0 0 0];

internalField   nonuniform List<scalar> 
90000
(
0.663559
0.72649
0.783554
0.823457
0.853901
0.882721
0.9054
0.921581
0.93657
0.952086
0.965454
0.976061
0.988296
0.999921
1.01131
1.02337
1.03539
1.04726
1.06051
1.07383
1.08705
1.10124
1.11513
1.12938
1.14275
1.15564
1.16562
1.17406
1.17626
1.17792
1.17729
1.17601
1.17398
1.17183
1.16886
1.16585
1.16224
1.15875
1.15493
1.15252
1.14994
1.14778
1.14528
1.14228
1.139
1.13614
1.1368
1.13852
1.14073
1.14316
1.14591
1.14926
1.15235
1.15537
1.15573
1.15384
1.14971
1.14439
1.13957
1.13661
1.13395
1.13502
1.13704
1.14021
1.1429
1.1428
1.14069
1.13767
1.13411
1.13084
1.13044
1.13078
1.1321
1.1336
1.13291
1.1312
1.12843
1.12663
1.12562
1.1263
1.12625
1.12551
1.12351
1.12123
1.11955
1.11989
1.1203
1.11969
1.1181
1.11597
1.11427
1.11309
1.1117
1.11017
1.10869
1.10754
1.10633
1.1049
1.10377
1.10227
0.600485
0.600336
0.60017
0.599997
0.599818
0.599632
0.599441
0.599239
0.599053
0.598735
0.599105
0.600187
0.602828
0.607093
0.614089
0.623463
0.636937
0.65321
0.675232
0.69973
0.730401
0.763202
0.802019
0.839098
0.880297
0.918245
0.957637
0.992213
1.02358
1.04992
1.0719
1.0918
1.10806
1.12326
1.13396
1.14486
1.15024
1.15612
1.15821
1.1617
1.16189
1.16269
1.16226
1.16091
1.16156
1.16661
1.1703
1.17366
1.17565
1.177
1.17745
1.17758
1.17726
1.17562
1.17117
1.16553
1.16198
1.16017
1.1604
1.16101
1.16146
1.16201
1.1628
1.16357
1.16329
1.16165
1.15818
1.15476
1.15206
1.15214
1.15331
1.15604
1.15655
1.15572
1.15374
1.15045
1.14775
1.14733
1.14751
1.1486
1.14818
1.1466
1.14381
1.1417
1.14114
1.14196
1.1416
1.14011
1.13755
1.13543
1.13404
1.13263
1.1309
1.12911
1.12756
1.12649
1.12512
1.12328
1.12195
1.11998
0.5981
0.597961
0.597811
0.597652
0.59749
0.59732
0.597145
0.596964
0.596779
0.596589
0.596388
0.596186
0.595937
0.595666
0.595388
0.595107
0.594833
0.594566
0.594309
0.594057
0.593822
0.593596
0.593392
0.593194
0.593035
0.592785
0.594838
0.600538
0.615124
0.636404
0.670553
0.708797
0.757395
0.80361
0.854693
0.899681
0.945139
0.983975
1.0212
1.05378
1.0831
1.11058
1.13317
1.15567
1.1718
1.18292
1.18675
1.18924
1.19025
1.19009
1.18913
1.1865
1.18135
1.17324
1.16151
1.1602
1.16206
1.16569
1.16964
1.17346
1.17684
1.17828
1.17805
1.17652
1.17315
1.16866
1.16618
1.1645
1.16453
1.16602
1.16846
1.17123
1.17054
1.16857
1.16525
1.16226
1.16197
1.16338
1.16467
1.16421
1.16252
1.15957
1.15707
1.15752
1.15893
1.15893
1.15807
1.15597
1.15382
1.15226
1.15134
1.15005
1.14845
1.14688
1.14559
1.14419
1.14265
1.14108
1.13993
1.13813
0.595078
0.594955
0.594826
0.594693
0.594558
0.594421
0.594282
0.594142
0.593998
0.593851
0.593703
0.593557
0.593414
0.593276
0.593139
0.593004
0.592875
0.592753
0.592631
0.592513
0.592405
0.592306
0.592219
0.59214
0.592064
0.591989
0.591912
0.591833
0.59176
0.59169
0.591628
0.591571
0.591515
0.591456
0.591403
0.591334
0.595429
0.605972
0.631766
0.666512
0.719332
0.773923
0.837811
0.8964
0.954184
0.998917
1.03789
1.07029
1.0946
1.11674
1.12963
1.14049
1.1451
1.14898
1.15332
1.16605
1.17175
1.17818
1.18104
1.18391
1.18418
1.18389
1.18229
1.17677
1.1715
1.16781
1.168
1.16906
1.17292
1.17689
1.17797
1.17666
1.17403
1.17006
1.16767
1.16773
1.1695
1.17136
1.17299
1.1716
1.16851
1.16591
1.16595
1.16672
1.16917
1.16864
1.16713
1.16468
1.16315
1.16282
1.16217
1.16096
1.15963
1.15845
1.15831
1.15756
1.15623
1.15478
1.1542
1.1528
0.592795
0.592723
0.59265
0.592579
0.592505
0.592433
0.592364
0.592296
0.592223
0.592147
0.592071
0.592003
0.591938
0.591878
0.59182
0.591764
0.591713
0.591665
0.591614
0.591568
0.591539
0.591518
0.591508
0.591494
0.591469
0.591439
0.591413
0.591388
0.591366
0.591348
0.591329
0.591307
0.591286
0.591259
0.591224
0.591194
0.591174
0.591176
0.591194
0.591241
0.591247
0.59124
0.591226
0.591208
0.599175
0.618647
0.664279
0.719308
0.791442
0.857284
0.923574
0.981306
1.0336
1.08536
1.12656
1.1527
1.16261
1.17051
1.1732
1.17589
1.17649
1.17525
1.1703
1.16362
1.16428
1.16641
1.17032
1.17517
1.17802
1.17796
1.17727
1.17291
1.16877
1.16726
1.16779
1.17119
1.17542
1.17528
1.17424
1.17081
1.16773
1.16777
1.16932
1.17296
1.17294
1.17175
1.16911
1.16801
1.16745
1.16763
1.16705
1.16597
1.16506
1.16488
1.16434
1.16365
1.16303
1.16251
1.16231
1.16183
0.59156
0.591538
0.591516
0.591492
0.59147
0.591451
0.591432
0.591411
0.591387
0.591362
0.591337
0.591314
0.591295
0.591281
0.591268
0.591252
0.591239
0.591227
0.591211
0.591204
0.591208
0.591233
0.591248
0.591245
0.591238
0.591232
0.591227
0.591221
0.591215
0.591209
0.591205
0.591198
0.591186
0.591163
0.591124
0.591107
0.59111
0.591126
0.591185
0.59122
0.591214
0.591204
0.591187
0.591149
0.591082
0.590994
0.590888
0.590869
0.590904
0.590925
0.596593
0.617565
0.671352
0.747589
0.844903
0.921677
0.988443
1.03872
1.07365
1.10747
1.12201
1.13657
1.1398
1.15122
1.16057
1.17257
1.17773
1.17996
1.17788
1.17617
1.16937
1.16266
1.16287
1.16431
1.16922
1.1752
1.17552
1.17422
1.16969
1.166
1.16624
1.16858
1.17309
1.17472
1.17329
1.16998
1.16789
1.16799
1.16888
1.16871
1.16768
1.16657
1.16645
1.16675
1.16662
1.16598
1.16537
1.16552
1.16589
1.16563
0.591244
0.591239
0.591233
0.591226
0.591224
0.591223
0.591219
0.591214
0.591205
0.591193
0.591182
0.59117
0.591168
0.591167
0.591166
0.591163
0.591158
0.591149
0.591144
0.591147
0.591165
0.591219
0.591236
0.591231
0.591222
0.591225
0.591239
0.591239
0.591235
0.591227
0.59121
0.591195
0.591185
0.591174
0.591155
0.591148
0.59115
0.591163
0.591219
0.591243
0.591237
0.591224
0.591197
0.591129
0.591031
0.590918
0.59081
0.590803
0.590836
0.590852
0.590823
0.590769
0.590711
0.590627
0.590509
0.593991
0.627833
0.682844
0.776489
0.860568
0.945326
1.01708
1.07611
1.12878
1.14961
1.16342
1.16839
1.17098
1.17035
1.16395
1.15447
1.15638
1.16099
1.16752
1.17084
1.17183
1.17098
1.16592
1.16144
1.16212
1.16561
1.1706
1.17248
1.17195
1.1685
1.16595
1.16593
1.16745
1.16848
1.16781
1.16649
1.16598
1.16654
1.167
1.16662
1.16589
1.16579
1.16621
1.1667
1.16668
0.591292
0.591289
0.591289
0.591292
0.591291
0.591286
0.591277
0.591266
0.591253
0.591243
0.591238
0.591235
0.591232
0.591229
0.591227
0.591228
0.591228
0.591224
0.591221
0.591232
0.591281
0.591339
0.591338
0.591334
0.591322
0.591301
0.591298
0.591299
0.591298
0.591287
0.591245
0.591168
0.591114
0.591069
0.591049
0.591054
0.591078
0.591141
0.591158
0.591142
0.591108
0.591066
0.591007
0.590935
0.59085
0.590736
0.590693
0.590711
0.590732
0.590723
0.590697
0.590662
0.590617
0.590528
0.59043
0.590401
0.590417
0.590421
0.590411
0.590397
0.607814
0.653759
0.76141
0.86375
0.962248
1.0295
1.07303
1.11228
1.12806
1.13679
1.14295
1.1619
1.16943
1.17307
1.17234
1.1689
1.15918
1.15523
1.15647
1.16232
1.16889
1.17165
1.17043
1.16524
1.16179
1.16227
1.16473
1.16669
1.16642
1.16462
1.16391
1.1646
1.16607
1.16592
1.16536
1.16496
1.16554
1.16649
1.16652
1.16648
0.591321
0.591321
0.591319
0.591315
0.591303
0.591272
0.591252
0.591253
0.591261
0.591263
0.591262
0.591252
0.591233
0.59123
0.59123
0.591232
0.59123
0.591223
0.591226
0.59125
0.591312
0.591321
0.591318
0.591309
0.59129
0.591261
0.591218
0.591181
0.591162
0.591142
0.591099
0.591031
0.590951
0.590855
0.590809
0.590815
0.590855
0.590922
0.590929
0.590911
0.590864
0.590817
0.590764
0.5907
0.590623
0.590571
0.590575
0.590615
0.590636
0.590631
0.59062
0.590602
0.590548
0.590425
0.59034
0.590334
0.590351
0.590354
0.590344
0.590341
0.590352
0.590404
0.590499
0.590521
0.615693
0.674216
0.788487
0.893496
0.988525
1.07531
1.13066
1.15812
1.16538
1.1684
1.16508
1.1536
1.14751
1.15143
1.16092
1.16651
1.16868
1.1679
1.16256
1.15804
1.15846
1.16188
1.16451
1.16439
1.16227
1.16101
1.16183
1.1636
1.16442
1.16383
1.16305
1.1635
1.16483
1.16551
1.16532
1.16563
0.591295
0.591294
0.59129
0.591279
0.591249
0.591207
0.59117
0.59115
0.591148
0.591151
0.591165
0.591166
0.591157
0.591147
0.59115
0.591154
0.59115
0.591149
0.591156
0.591187
0.591186
0.591173
0.591147
0.591112
0.591066
0.591024
0.59099
0.59096
0.590936
0.590896
0.590817
0.590739
0.590671
0.590608
0.5906
0.590626
0.590727
0.590769
0.590755
0.590718
0.590665
0.59063
0.590598
0.590541
0.590467
0.590446
0.590454
0.590482
0.590529
0.590565
0.590568
0.590557
0.590493
0.590369
0.590316
0.590317
0.590331
0.590329
0.59032
0.59032
0.590335
0.59041
0.590576
0.590665
0.590649
0.590599
0.590573
0.592278
0.637916
0.738944
0.886561
0.984205
1.04814
1.10773
1.12275
1.13519
1.14415
1.16372
1.17196
1.17107
1.16895
1.15916
1.15388
1.15478
1.15924
1.16433
1.16401
1.16069
1.15839
1.15892
1.16163
1.16345
1.16274
1.16097
1.16122
1.16268
1.16381
1.16378
1.16381
1.16454
0.591123
0.591109
0.59108
0.591025
0.590981
0.590956
0.59094
0.59093
0.590927
0.590923
0.590918
0.590918
0.590922
0.590933
0.590967
0.590983
0.590978
0.59098
0.590987
0.590981
0.590969
0.590938
0.590899
0.590869
0.59084
0.590805
0.590765
0.59073
0.590694
0.590632
0.590568
0.590527
0.590489
0.590468
0.590476
0.59052
0.590604
0.59063
0.590618
0.590597
0.590575
0.590542
0.590477
0.590415
0.590376
0.590373
0.59038
0.590402
0.590445
0.590501
0.590523
0.590509
0.590421
0.590338
0.590338
0.590363
0.590371
0.590363
0.590338
0.590336
0.590355
0.590431
0.590623
0.590753
0.590752
0.59069
0.590606
0.590559
0.590538
0.590441
0.5924
0.62095
0.732945
0.859974
0.982233
1.09102
1.14362
1.16759
1.17144
1.17002
1.1585
1.15012
1.15257
1.15872
1.16315
1.1641
1.16099
1.15622
1.15671
1.16021
1.16262
1.16242
1.16003
1.1596
1.16066
1.1628
1.16318
1.16275
1.1628
1.16391
0.590785
0.590749
0.590727
0.590715
0.590709
0.5907
0.59069
0.590682
0.590676
0.590676
0.590682
0.590698
0.590723
0.59075
0.59077
0.590774
0.590774
0.590781
0.590805
0.590807
0.5908
0.590787
0.590766
0.590747
0.590722
0.590682
0.590634
0.590583
0.590533
0.590492
0.590466
0.590447
0.590432
0.590433
0.590455
0.590519
0.590544
0.590542
0.590535
0.590523
0.590517
0.590491
0.590414
0.590357
0.590344
0.590347
0.590362
0.59039
0.590439
0.590497
0.590513
0.590488
0.590392
0.590358
0.590367
0.590446
0.59051
0.590506
0.590467
0.590433
0.590438
0.590473
0.590638
0.590791
0.590791
0.590723
0.590546
0.590422
0.590369
0.590269
0.59017
0.590133
0.590164
0.590267
0.635328
0.75461
0.91938
1.01851
1.07657
1.12415
1.12934
1.1515
1.15977
1.1685
1.16759
1.16188
1.15542
1.15571
1.15925
1.16394
1.16357
1.16021
1.15864
1.15962
1.16251
1.16355
1.16293
1.16222
1.1626
1.16425
0.590529
0.590513
0.5905
0.590489
0.590488
0.590491
0.590495
0.590502
0.590513
0.590533
0.59056
0.590584
0.590608
0.590635
0.590645
0.590648
0.590654
0.590665
0.59068
0.590692
0.590697
0.590698
0.5907
0.590696
0.590676
0.590611
0.590546
0.59052
0.590512
0.5905
0.59048
0.590451
0.590445
0.590455
0.5905
0.590577
0.590599
0.590599
0.590594
0.590579
0.590548
0.590482
0.590379
0.590331
0.590327
0.59033
0.590343
0.590379
0.590442
0.590504
0.590524
0.590498
0.590423
0.590392
0.590399
0.590489
0.590656
0.590666
0.59065
0.590541
0.590481
0.590493
0.59062
0.590789
0.590792
0.590673
0.590393
0.590206
0.590123
0.590079
0.590073
0.59009
0.590222
0.590497
0.59073
0.590765
0.599579
0.656074
0.798608
0.942583
1.06006
1.14545
1.16058
1.17011
1.1669
1.15268
1.15316
1.15972
1.16554
1.16568
1.16217
1.15776
1.15873
1.16309
1.16523
1.16456
1.1623
1.16262
1.16396
1.1653
0.590399
0.590395
0.590387
0.590375
0.590371
0.590372
0.590375
0.590385
0.590413
0.590468
0.590532
0.590561
0.590564
0.590572
0.590582
0.590578
0.590577
0.590589
0.590617
0.590636
0.590644
0.590649
0.590657
0.590656
0.590637
0.590569
0.590501
0.590474
0.590463
0.590455
0.590449
0.590448
0.590451
0.590468
0.590513
0.590594
0.590651
0.590656
0.590655
0.590649
0.590612
0.590493
0.590343
0.590276
0.590257
0.590251
0.590261
0.590312
0.59038
0.590409
0.590427
0.590417
0.590409
0.590417
0.590433
0.59052
0.590747
0.590794
0.590788
0.590672
0.590466
0.590436
0.590531
0.590683
0.590667
0.590483
0.590187
0.590017
0.589967
0.590007
0.590056
0.59019
0.590386
0.590664
0.590827
0.590847
0.590759
0.590519
0.58989
0.604768
0.733153
0.89293
1.01387
1.11257
1.12626
1.14504
1.15585
1.17149
1.17098
1.16562
1.15885
1.1592
1.16371
1.16782
1.16725
1.16414
1.16305
1.16435
1.16675
1.16691
0.590397
0.590378
0.590378
0.590378
0.59037
0.590354
0.590353
0.590368
0.590437
0.590544
0.59057
0.59057
0.590563
0.59054
0.590517
0.590512
0.590519
0.590535
0.590534
0.590529
0.590531
0.59054
0.590556
0.590556
0.590532
0.590454
0.590401
0.590398
0.590399
0.590399
0.590399
0.590401
0.590416
0.590442
0.590483
0.590563
0.590646
0.590661
0.59066
0.590651
0.59059
0.590374
0.590224
0.590202
0.590182
0.590181
0.590217
0.590337
0.590383
0.590384
0.590378
0.590368
0.590368
0.590394
0.590436
0.590524
0.590747
0.590824
0.590817
0.590714
0.59044
0.590281
0.590266
0.590298
0.590271
0.590077
0.589902
0.589887
0.589924
0.590028
0.590208
0.590371
0.590521
0.590724
0.590838
0.590712
0.590339
0.589692
0.58913
0.588952
0.588983
0.589508
0.675149
0.831564
0.987357
1.12094
1.15834
1.17477
1.17208
1.1573
1.15759
1.16519
1.1707
1.17029
1.16587
1.16299
1.16435
1.16858
1.1689
1.1679
0.590422
0.590411
0.590407
0.590403
0.590398
0.590398
0.590416
0.59049
0.590522
0.590522
0.590513
0.590492
0.590473
0.590462
0.590451
0.590437
0.590419
0.590414
0.590415
0.590411
0.590412
0.590426
0.590438
0.590418
0.590326
0.59025
0.590247
0.590257
0.590273
0.59029
0.5903
0.590312
0.590334
0.590365
0.59041
0.590496
0.590596
0.590618
0.590618
0.590611
0.59056
0.590381
0.590187
0.590147
0.590122
0.590103
0.590145
0.590347
0.590438
0.590452
0.590414
0.590301
0.590265
0.590306
0.590405
0.590496
0.590698
0.590794
0.590789
0.590683
0.590339
0.59001
0.589891
0.589836
0.589763
0.589636
0.589652
0.589787
0.589959
0.590141
0.590304
0.590423
0.590578
0.590448
0.590053
0.589517
0.589017
0.588651
0.588471
0.588255
0.588308
0.588498
0.58852
0.588335
0.644818
0.800746
0.966953
1.0913
1.11925
1.14486
1.15806
1.17558
1.17473
1.16821
1.16323
1.16414
1.16917
1.17103
1.16948
1.16836
0.590393
0.590392
0.590394
0.590405
0.59045
0.590478
0.590482
0.590476
0.590468
0.590458
0.590455
0.590451
0.590439
0.590441
0.590443
0.590439
0.590417
0.590359
0.59034
0.59034
0.590346
0.590342
0.590313
0.590193
0.59005
0.590018
0.590026
0.590046
0.590043
0.590022
0.590012
0.59002
0.590067
0.590153
0.590258
0.59037
0.590462
0.590517
0.59055
0.590556
0.590514
0.590318
0.590223
0.590215
0.5902
0.590144
0.59017
0.590357
0.590557
0.590597
0.590587
0.590397
0.590263
0.590252
0.590358
0.590347
0.590345
0.590443
0.590483
0.590394
0.589991
0.589611
0.589505
0.589427
0.589324
0.589346
0.589461
0.589626
0.589788
0.589941
0.589933
0.589833
0.589575
0.589159
0.58871
0.588225
0.587934
0.587879
0.587727
0.587746
0.588051
0.588331
0.588273
0.587888
0.587436
0.587208
0.627168
0.763888
0.947339
1.10571
1.15465
1.17419
1.17089
1.15944
1.16135
1.16863
1.1719
1.17049
1.16741
1.16796
0.590339
0.590344
0.590361
0.590397
0.590416
0.590415
0.590403
0.590411
0.590422
0.590423
0.590454
0.590511
0.590523
0.590523
0.590512
0.590484
0.590447
0.590367
0.590332
0.590336
0.590371
0.590362
0.59023
0.58995
0.58985
0.589845
0.589856
0.589844
0.5898
0.589737
0.589708
0.589703
0.589704
0.589736
0.589826
0.58996
0.590111
0.59024
0.590347
0.590446
0.590428
0.590241
0.590158
0.590162
0.590183
0.590157
0.590181
0.590388
0.590567
0.590591
0.590589
0.59037
0.590137
0.590049
0.589954
0.589715
0.589404
0.589336
0.58933
0.589204
0.588873
0.588828
0.588848
0.588844
0.588792
0.588804
0.588849
0.588861
0.588841
0.588872
0.588904
0.58887
0.588705
0.58836
0.58789
0.587482
0.587363
0.587369
0.587396
0.587805
0.588324
0.588227
0.587847
0.587372
0.587208
0.587239
0.587717
0.587965
0.617802
0.765955
0.950887
1.08792
1.11633
1.14652
1.16273
1.17424
1.17278
1.16562
1.1631
1.16766
0.590384
0.590395
0.590396
0.590396
0.590403
0.590405
0.590363
0.590266
0.590263
0.590345
0.590535
0.590614
0.590619
0.590608
0.590564
0.590516
0.590478
0.590362
0.590276
0.590275
0.590305
0.59029
0.590137
0.589854
0.589768
0.589779
0.589805
0.589752
0.589523
0.589409
0.589384
0.589355
0.589276
0.589322
0.589509
0.589588
0.58969
0.58982
0.589795
0.589718
0.589759
0.58989
0.589919
0.589939
0.589962
0.589962
0.589938
0.589851
0.589765
0.589778
0.589883
0.589822
0.589464
0.588968
0.588652
0.588375
0.588064
0.587944
0.587916
0.587905
0.587939
0.588
0.587979
0.587863
0.587892
0.588123
0.588343
0.588442
0.588529
0.588505
0.588379
0.588199
0.587909
0.587611
0.587283
0.58716
0.587165
0.587267
0.587752
0.588521
0.58844
0.588206
0.587594
0.587328
0.587515
0.588815
0.590319
0.590519
0.59063
0.591003
0.623624
0.759052
0.951289
1.10504
1.14578
1.16305
1.16021
1.15469
1.15996
1.16454
0.589502
0.589519
0.589519
0.589506
0.589466
0.589445
0.589446
0.589481
0.589583
0.589637
0.589665
0.58967
0.589642
0.589622
0.58961
0.589616
0.58967
0.589642
0.589535
0.589509
0.589487
0.589426
0.589299
0.589177
0.589187
0.589225
0.589236
0.589154
0.588934
0.588783
0.588619
0.588434
0.588405
0.588544
0.588805
0.588813
0.588804
0.588918
0.5891
0.589086
0.588933
0.588716
0.588587
0.588573
0.588577
0.58848
0.588078
0.5878
0.587753
0.587821
0.587893
0.587826
0.587653
0.58766
0.587692
0.587585
0.587262
0.587097
0.587092
0.587254
0.587551
0.587652
0.587579
0.58749
0.587619
0.588202
0.588789
0.588881
0.58868
0.588256
0.587859
0.587573
0.587302
0.587274
0.587151
0.587153
0.587557
0.588487
0.589522
0.589591
0.589269
0.588317
0.588051
0.58949
0.591742
0.593927
0.594136
0.594316
0.595223
0.596632
0.598102
0.599096
0.635479
0.788207
0.960235
1.08673
1.11385
1.13585
1.16198
1.15944
0.587079
0.587116
0.587175
0.587249
0.587269
0.587248
0.587239
0.587256
0.587388
0.587518
0.587559
0.587598
0.587697
0.587864
0.588005
0.588044
0.588017
0.587967
0.587973
0.588071
0.588137
0.58813
0.58808
0.588002
0.588015
0.588148
0.588247
0.588254
0.588247
0.588199
0.588036
0.587881
0.587888
0.588042
0.588198
0.588152
0.588077
0.588109
0.588376
0.588494
0.588487
0.588282
0.587978
0.587943
0.587942
0.587804
0.587249
0.58679
0.586729
0.586813
0.587035
0.587092
0.587097
0.587163
0.587311
0.587291
0.587078
0.586855
0.586846
0.587067
0.587749
0.587989
0.588043
0.588121
0.588449
0.589091
0.58925
0.589091
0.588477
0.58797
0.587669
0.587411
0.587154
0.587331
0.587972
0.589467
0.590935
0.592274
0.592214
0.592023
0.59199
0.592453
0.594697
0.597012
0.598579
0.598223
0.598452
0.599789
0.601876
0.603485
0.604725
0.606447
0.607402
0.607845
0.655785
0.807538
0.988935
1.09971
1.13023
1.14023
0.585627
0.585698
0.585897
0.586046
0.586052
0.586042
0.586068
0.586207
0.586395
0.586556
0.586693
0.5869
0.58714
0.587169
0.587171
0.587165
0.587109
0.587075
0.587104
0.587219
0.587503
0.587784
0.587816
0.587792
0.587829
0.588078
0.588517
0.58868
0.588695
0.588626
0.588216
0.587619
0.587484
0.587446
0.587376
0.587179
0.587001
0.586986
0.587169
0.587585
0.587672
0.587617
0.587544
0.58758
0.587637
0.587561
0.587108
0.586595
0.586482
0.586544
0.586876
0.587066
0.587105
0.587197
0.587423
0.587676
0.587817
0.58784
0.587925
0.588403
0.589508
0.590069
0.589994
0.589782
0.589641
0.589377
0.589145
0.588787
0.588104
0.588031
0.588664
0.589604
0.59107
0.593078
0.595267
0.596901
0.596862
0.59654
0.595964
0.596108
0.5972
0.599789
0.602138
0.602862
0.60311
0.603755
0.605835
0.607856
0.608698
0.610052
0.611416
0.612524
0.614233
0.616044
0.616754
0.617351
0.688163
0.861071
0.99547
1.0933
0.587999
0.587814
0.587695
0.58768
0.58769
0.587775
0.588355
0.588753
0.588752
0.588718
0.588633
0.588534
0.588406
0.588291
0.588214
0.588153
0.588157
0.588216
0.58836
0.588653
0.588779
0.588712
0.588652
0.588723
0.588688
0.588687
0.588791
0.588885
0.58892
0.588856
0.588519
0.587973
0.587487
0.587274
0.587149
0.586957
0.586842
0.586828
0.587011
0.587439
0.587581
0.587584
0.587635
0.587739
0.587837
0.58801
0.587961
0.587424
0.587127
0.587135
0.587508
0.588138
0.588663
0.589304
0.590192
0.590986
0.591672
0.592219
0.59255
0.592767
0.592893
0.592994
0.593132
0.593199
0.593138
0.593068
0.593217
0.593794
0.594995
0.596756
0.59879
0.600467
0.601261
0.601367
0.601675
0.601493
0.600464
0.600601
0.601801
0.604177
0.606702
0.609475
0.609991
0.610205
0.610786
0.612224
0.613847
0.615245
0.616117
0.617582
0.619494
0.620006
0.620629
0.622273
0.623911
0.625417
0.626322
0.632761
0.709154
0.986765
0.590258
0.589951
0.589358
0.588937
0.588869
0.588838
0.588758
0.588621
0.588396
0.587985
0.58744
0.587238
0.587203
0.587222
0.587397
0.587777
0.587915
0.587977
0.588141
0.588309
0.588313
0.588139
0.587998
0.588104
0.588556
0.588668
0.588495
0.588294
0.588333
0.588381
0.588361
0.588255
0.587977
0.587709
0.587631
0.587667
0.587674
0.587706
0.588005
0.588409
0.589032
0.589765
0.590366
0.591026
0.592193
0.593913
0.594918
0.594901
0.594783
0.594812
0.595182
0.596104
0.597155
0.597801
0.598141
0.59846
0.598811
0.599172
0.599243
0.599217
0.599246
0.599476
0.599925
0.600324
0.600747
0.60128
0.602135
0.603455
0.604911
0.605941
0.606587
0.607586
0.607769
0.607269
0.607337
0.608067
0.609918
0.612374
0.614811
0.616438
0.617392
0.617276
0.617522
0.618169
0.619428
0.620695
0.621198
0.622399
0.624372
0.625716
0.627143
0.62818
0.628818
0.629901
0.631495
0.632604
0.634226
0.634401
0.634852
0.722976
0.593285
0.593253
0.592942
0.59246
0.592366
0.592377
0.592499
0.59278
0.592831
0.592734
0.592561
0.592568
0.592831
0.593551
0.593963
0.594053
0.594125
0.594393
0.59505
0.595507
0.595922
0.596736
0.597149
0.597119
0.59698
0.596979
0.597099
0.597344
0.597655
0.598023
0.598499
0.599248
0.600245
0.6012
0.601797
0.601868
0.601866
0.601976
0.602198
0.602644
0.60364
0.604033
0.603973
0.604076
0.60465
0.605523
0.605981
0.606087
0.606144
0.606265
0.606366
0.606476
0.606517
0.606369
0.606214
0.60635
0.606528
0.606473
0.606447
0.606496
0.606769
0.607405
0.608596
0.610369
0.611882
0.612853
0.613691
0.614466
0.615516
0.616667
0.616994
0.617159
0.617666
0.618741
0.619967
0.621083
0.622322
0.62318
0.623994
0.624419
0.624223
0.624556
0.625368
0.626982
0.628904
0.630316
0.631632
0.632845
0.633837
0.633911
0.634145
0.635453
0.63697
0.638054
0.639095
0.640143
0.640663
0.641374
0.642711
0.644014
0.608157
0.608412
0.608733
0.60885
0.608854
0.608874
0.608935
0.60894
0.608856
0.608769
0.608799
0.608995
0.609048
0.608836
0.608482
0.608497
0.608927
0.609394
0.609486
0.609484
0.609518
0.609908
0.610383
0.610342
0.610332
0.610468
0.610754
0.611028
0.611425
0.61169
0.611769
0.611912
0.612235
0.61275
0.612978
0.612898
0.612608
0.612468
0.612432
0.612323
0.611895
0.611426
0.611295
0.611368
0.611551
0.611549
0.611591
0.611961
0.612518
0.612676
0.612623
0.612679
0.612961
0.613572
0.614491
0.615486
0.616481
0.617562
0.618791
0.620113
0.621345
0.622472
0.623638
0.624835
0.625764
0.626276
0.62668
0.626906
0.626867
0.627007
0.627489
0.627698
0.628012
0.628696
0.629864
0.630872
0.631464
0.632086
0.632813
0.633688
0.635033
0.636342
0.637612
0.638748
0.639049
0.639493
0.640053
0.640649
0.641244
0.642145
0.642881
0.643634
0.64451
0.645381
0.646834
0.647798
0.648114
0.649058
0.650132
0.65158
0.62181
0.621592
0.621364
0.621329
0.621209
0.621155
0.621346
0.621473
0.621289
0.621187
0.621227
0.621664
0.6224
0.622435
0.621568
0.620979
0.621071
0.621214
0.621259
0.621332
0.621347
0.62127
0.620868
0.620686
0.620696
0.620695
0.620642
0.620754
0.621389
0.622144
0.622398
0.622398
0.622413
0.62264
0.623297
0.624044
0.624624
0.625173
0.625853
0.626577
0.627014
0.627216
0.627296
0.627347
0.627493
0.627875
0.628484
0.629284
0.630315
0.631466
0.632601
0.63363
0.634459
0.635169
0.635819
0.636185
0.63638
0.636594
0.636874
0.637371
0.637595
0.637541
0.637503
0.637412
0.637182
0.636758
0.636666
0.636858
0.637231
0.637441
0.637966
0.638995
0.640286
0.641462
0.642426
0.643238
0.643842
0.644505
0.644941
0.64505
0.645143
0.64519
0.645472
0.645918
0.646854
0.647785
0.648657
0.649395
0.650328
0.651372
0.652249
0.65298
0.653557
0.654151
0.655015
0.655436
0.655997
0.656647
0.657231
0.658301
0.637677
0.637683
0.637793
0.638062
0.638555
0.639095
0.639567
0.640017
0.640408
0.640547
0.640546
0.640543
0.64054
0.640437
0.640348
0.640342
0.640433
0.640591
0.640638
0.640698
0.641027
0.641375
0.641372
0.641196
0.64116
0.641198
0.641396
0.641709
0.641755
0.641746
0.641891
0.642211
0.64256
0.643116
0.643291
0.643305
0.643409
0.643554
0.643768
0.644158
0.644355
0.644443
0.644594
0.644814
0.645156
0.64557
0.645647
0.645637
0.645662
0.645669
0.645573
0.645368
0.645068
0.644824
0.644763
0.644817
0.644877
0.644703
0.644307
0.643964
0.643534
0.643514
0.64377
0.644204
0.644631
0.645327
0.646375
0.647656
0.649119
0.65058
0.651667
0.652459
0.652967
0.653514
0.653524
0.653235
0.652999
0.652826
0.652743
0.653048
0.653629
0.654759
0.65602
0.657356
0.658544
0.659268
0.66001
0.659993
0.659901
0.659916
0.66023
0.661225
0.662409
0.663449
0.663356
0.663591
0.664093
0.664964
0.665725
0.66657
0.654617
0.654565
0.654428
0.65436
0.654319
0.654324
0.654364
0.654359
0.654347
0.654367
0.654501
0.654563
0.654512
0.654402
0.654381
0.654383
0.654367
0.654366
0.654521
0.654721
0.654839
0.654973
0.655066
0.655208
0.655544
0.655896
0.655964
0.655903
0.655632
0.655566
0.655726
0.656019
0.656036
0.655936
0.655701
0.655146
0.654814
0.654895
0.65491
0.654558
0.654108
0.654084
0.654239
0.654427
0.654482
0.654563
0.654808
0.655202
0.65546
0.655726
0.65616
0.656386
0.656378
0.656344
0.656437
0.656832
0.657604
0.65862
0.659771
0.660839
0.661879
0.662861
0.663497
0.664022
0.664654
0.665272
0.665764
0.666098
0.666005
0.665819
0.665598
0.665378
0.664938
0.66454
0.664156
0.664052
0.664372
0.66504
0.666169
0.667425
0.668637
0.66941
0.66997
0.66993
0.669512
0.668912
0.668397
0.668119
0.668593
0.669652
0.670947
0.671631
0.672117
0.671879
0.671797
0.671972
0.672685
0.67351
0.673544
0.673538
0.671912
0.671893
0.671786
0.6717
0.671713
0.671841
0.671834
0.671637
0.67157
0.671573
0.671626
0.671737
0.671937
0.672089
0.672108
0.672107
0.672107
0.672111
0.672068
0.672033
0.672044
0.672077
0.672088
0.672029
0.671902
0.671919
0.672234
0.672521
0.672511
0.67253
0.672554
0.67252
0.672496
0.67263
0.673285
0.67361
0.673666
0.673911
0.674349
0.674593
0.674738
0.674865
0.674893
0.674863
0.674789
0.674772
0.67482
0.675036
0.675374
0.675747
0.676125
0.676401
0.676599
0.676811
0.677031
0.677119
0.677081
0.676962
0.676864
0.676776
0.676719
0.676653
0.676435
0.676047
0.675607
0.675185
0.674798
0.674347
0.673685
0.673108
0.672765
0.67289
0.673251
0.67402
0.674984
0.67619
0.67737
0.678206
0.678978
0.678927
0.678618
0.677907
0.677141
0.676555
0.676032
0.676445
0.677478
0.679042
0.680392
0.681323
0.681238
0.680635
0.679797
0.678994
0.679319
0.680246
0.681276
0.681545
0.681414
0.681603
0.68852
0.688734
0.68929
0.689604
0.689621
0.689518
0.689162
0.688956
0.688921
0.688983
0.689144
0.689105
0.688842
0.688746
0.688808
0.688921
0.689063
0.689126
0.689108
0.689064
0.689086
0.689176
0.689208
0.689139
0.68895
0.688868
0.688866
0.689021
0.689141
0.689137
0.689076
0.688903
0.68875
0.68871
0.688673
0.688608
0.688488
0.688348
0.688275
0.688281
0.688343
0.688488
0.688618
0.688612
0.688577
0.688594
0.688581
0.688402
0.688019
0.687622
0.68729
0.686959
0.686603
0.686452
0.686442
0.686364
0.686132
0.686093
0.686128
0.686016
0.68566
0.685308
0.68531
0.685476
0.68594
0.68671
0.687448
0.688033
0.688674
0.689451
0.690346
0.691119
0.691689
0.692088
0.692196
0.6921
0.691793
0.691309
0.690697
0.689992
0.689397
0.688923
0.689086
0.689625
0.690547
0.691529
0.692324
0.692256
0.691765
0.690913
0.689913
0.688994
0.689238
0.690247
0.691256
0.691946
0.691587
0.691031
0.690455
0.690551
0.707292
0.707195
0.706879
0.706662
0.706622
0.706692
0.70711
0.707419
0.707439
0.707336
0.706995
0.706892
0.706949
0.706992
0.706894
0.70677
0.706696
0.706686
0.706801
0.706884
0.706854
0.70672
0.706681
0.706711
0.706684
0.706549
0.706505
0.706517
0.706616
0.706673
0.706674
0.706651
0.706619
0.706561
0.70651
0.70651
0.706491
0.706354
0.706195
0.706141
0.706129
0.706095
0.706022
0.706006
0.705998
0.705938
0.705889
0.705924
0.706074
0.706291
0.706459
0.706479
0.706415
0.706301
0.706235
0.706245
0.706322
0.706435
0.706592
0.70676
0.706833
0.706843
0.706819
0.706705
0.706636
0.706549
0.706359
0.706079
0.70569
0.705201
0.704707
0.704143
0.703452
0.702614
0.701662
0.700709
0.700074
0.699481
0.699426
0.699758
0.700456
0.701465
0.702262
0.702994
0.70284
0.702403
0.701381
0.700192
0.699202
0.698576
0.69903
0.700076
0.70114
0.701522
0.701141
0.700214
0.699303
0.698263
0.698571
0.699156
0.726326
0.726336
0.726438
0.726471
0.726211
0.725839
0.725749
0.725766
0.725982
0.726194
0.726212
0.726144
0.725876
0.725776
0.72579
0.725764
0.725598
0.725523
0.725541
0.725534
0.725349
0.725188
0.725185
0.725275
0.725336
0.72528
0.724951
0.724657
0.724633
0.724668
0.724693
0.724665
0.724566
0.724429
0.724321
0.724239
0.724111
0.723968
0.723918
0.723846
0.723726
0.723578
0.723451
0.723347
0.723235
0.723083
0.722813
0.722531
0.722337
0.722167
0.722016
0.721834
0.721593
0.721316
0.721122
0.720971
0.720768
0.720433
0.71997
0.719434
0.7189
0.718527
0.718259
0.718025
0.717695
0.717223
0.716604
0.715917
0.715662
0.715599
0.715446
0.71545
0.715656
0.716037
0.716475
0.71693
0.717461
0.717852
0.718245
0.718258
0.718072
0.71763
0.71693
0.71594
0.714905
0.713859
0.713151
0.712781
0.713008
0.71342
0.713641
0.713375
0.712703
0.711387
0.71026
0.709041
0.709175
0.709814
0.710183
0.709576
0.746385
0.746403
0.74628
0.746091
0.746074
0.746093
0.746048
0.745908
0.745856
0.745883
0.7459
0.745791
0.745675
0.745693
0.745646
0.745375
0.745206
0.745216
0.745208
0.745116
0.745059
0.744982
0.744723
0.744477
0.744461
0.744514
0.744505
0.74431
0.743984
0.743919
0.74392
0.743829
0.743635
0.743503
0.743358
0.743169
0.742871
0.742587
0.742502
0.742441
0.742331
0.742104
0.7417
0.741422
0.741408
0.741395
0.741281
0.740973
0.740643
0.740381
0.740155
0.739957
0.739753
0.739339
0.738848
0.738739
0.738675
0.738527
0.738301
0.738095
0.737753
0.737266
0.73711
0.737054
0.736922
0.736731
0.736504
0.736075
0.735757
0.735602
0.735329