/*--------------------------------*- C++ -*----------------------------------*\
  =========                 |
  \\      /  F ield         | OpenFOAM: The Open Source CFD Toolbox
   \\    /   O peration     | Website:  https://openfoam.org
    \\  /    A nd           | Version:  7
     \\/     M anipulation  |
\*---------------------------------------------------------------------------*/
FoamFile
{
    version     2.0;
    format      ascii;
    class       volScalarField;
    location    "13.5";
    object      p;
}
// * * * * * * * * * * * * * * * * * * * * * * * * * * * * * * * * * * * * * //

dimensions      [1 -1 -2 0 0 0 0];

internalField   nonuniform List<scalar> 
90000
(
0.0965964
0.162548
0.202565
0.23532
0.283858
0.318634
0.342529
0.389284
0.439875
0.482789
0.536875
0.594243
0.646366
0.7038
0.75054
0.798767
0.835711
0.863714
0.881836
0.889863
0.890555
0.88033
0.87115
0.861743
0.846064
0.842372
0.843117
0.835978
0.834992
0.840693
0.847292
0.849559
0.849958
0.84413
0.841627
0.844078
0.844742
0.843803
0.84342
0.843344
0.843533
0.844245
0.845
0.846283
0.848081
0.850687
0.855455
0.861695
0.870007
0.879353
0.888305
0.892732
0.895279
0.892658
0.88634
0.878701
0.871897
0.865574
0.860297
0.858824
0.859599
0.863438
0.868853
0.871898
0.874274
0.874849
0.873231
0.869141
0.863546
0.858916
0.859387
0.86255
0.866028
0.867516
0.86708
0.863794
0.861487
0.862655
0.867028
0.870519
0.872114
0.874411
0.880915
0.891368
0.900716
0.90669
0.912875
0.92185
0.930656
0.937276
0.943053
0.950532
0.958481
0.965444
0.971844
0.977484
0.982856
0.989141
0.995232
1.00425
0.0438225
0.0438023
0.043782
0.0437618
0.0437439
0.0437303
0.0437053
0.0436983
0.0451205
0.0489529
0.0574265
0.0724302
0.093584
0.123375
0.164959
0.215681
0.283202
0.360468
0.446981
0.537248
0.628276
0.712799
0.790341
0.844481
0.890473
0.908746
0.923811
0.910709
0.894478
0.881643
0.869151
0.863314
0.852382
0.845091
0.841562
0.838559
0.83346
0.827532
0.826554
0.831692
0.843745
0.85747
0.869387
0.877641
0.882801
0.885527
0.886706
0.884728
0.879947
0.87653
0.872203
0.868955
0.863764
0.860644
0.857924
0.857928
0.861657
0.865761
0.868917
0.870505
0.871744
0.875068
0.876919
0.875431
0.869747
0.864875
0.860782
0.859659
0.860167
0.861715
0.864972
0.869169
0.870431
0.868346
0.864484
0.860835
0.861624
0.866048
0.869867
0.871659
0.873517
0.878584
0.888388
0.898681
0.905074
0.909785
0.9176
0.927196
0.934583
0.940159
0.946451
0.95463
0.961988
0.968137
0.974288
0.979726
0.985014
0.991503
0.99749
1.00586
0.0438349
0.043835
0.0438355
0.0438373
0.043839
0.0438408
0.0438439
0.0438469
0.0438518
0.0438223
0.0437862
0.0437528
0.0437274
0.0437103
0.0436948
0.0436878
0.0436587
0.0438433
0.0484245
0.0612593
0.08762
0.128218
0.188232
0.264257
0.358432
0.457868
0.558867
0.646918
0.724453
0.797392
0.849128
0.903026
0.918509
0.932985
0.920806
0.905524
0.891958
0.869072
0.848169
0.829141
0.819209
0.81478
0.818818
0.833512
0.855201
0.872814
0.884209
0.885854
0.881128
0.87409
0.868219
0.863864
0.864214
0.86884
0.8737
0.877914
0.881223
0.881681
0.87957
0.875465
0.871022
0.867281
0.865327
0.864319
0.86349
0.863541
0.864503
0.867589
0.871513
0.875104
0.875707
0.869224
0.861788
0.858851
0.860114
0.864451
0.868453
0.871555
0.872879
0.872566
0.875608
0.885805
0.897239
0.903688
0.907861
0.913509
0.923655
0.932635
0.937941
0.942552
0.949954
0.958309
0.964868
0.970757
0.976741
0.982062
0.987471
0.994127
0.999799
1.00737
0.0438498
0.043849
0.0438483
0.0438473
0.0438449
0.0438438
0.0438394
0.0438378
0.0438331
0.0438274
0.0438219
0.0438163
0.0438134
0.0438111
0.0438103
0.0438111
0.0438123
0.0438163
0.0438025
0.0437869
0.0437742
0.0437706
0.0437656
0.0437677
0.0437541
0.0496658
0.0666725
0.104677
0.159512
0.239601
0.338152
0.454595
0.570898
0.68597
0.779479
0.84873
0.910544
0.920976
0.917375
0.895834
0.870938
0.857383
0.843044
0.831301
0.826283
0.824917
0.839142
0.859192
0.876878
0.888214
0.890949
0.883378
0.875393
0.87183
0.871919
0.873381
0.871854
0.867313
0.863343
0.862242
0.864726
0.8678
0.869123
0.869714
0.870368
0.870546
0.870256
0.868671
0.866022
0.863658
0.862272
0.860209
0.860676
0.863973
0.869789
0.877671
0.879265
0.87322
0.86805
0.871123
0.88169
0.895707
0.904288
0.907794
0.910751
0.918411
0.929962
0.936097
0.940228
0.946099
0.954845
0.962229
0.967786
0.973386
0.979033
0.984211
0.989585
0.995946
1.00121
1.00847
0.0438346
0.0438296
0.0438252
0.0438197
0.0438135
0.0438078
0.0438034
0.0437987
0.0437942
0.0437895
0.043784
0.0437789
0.0437746
0.0437734
0.0437743
0.0437774
0.0437808
0.0437858
0.0437923
0.0438
0.0438091
0.0438187
0.0438227
0.0438272
0.043834
0.0438253
0.0438144
0.0438055
0.0437947
0.043789
0.0437721
0.0493903
0.074325
0.121471
0.211915
0.326178
0.4766
0.613306
0.746469
0.834048
0.884042
0.906811
0.890685
0.876032
0.85546
0.836499
0.82507
0.823871
0.830512
0.848605
0.874361
0.890207
0.894624
0.880872
0.863605
0.852996
0.850163
0.856912
0.867183
0.873806
0.873821
0.870697
0.870625
0.871689
0.871291
0.868616
0.86472
0.864153
0.864552
0.865455
0.869526
0.873958
0.875841
0.875153
0.870832
0.865257
0.865061
0.868853
0.875284
0.886681
0.899958
0.909058
0.906934
0.906342
0.913587
0.927245
0.936926
0.940011
0.943269
0.950186
0.959341
0.965064
0.970277
0.976079
0.981394
0.986527
0.991795
0.997668
1.00224
1.00953
0.0437771
0.0437748
0.0437725
0.0437701
0.0437675
0.0437654
0.043765
0.0437643
0.0437632
0.0437623
0.0437623
0.0437631
0.0437655
0.0437689
0.0437756
0.0437837
0.0437921
0.0438022
0.0438117
0.0438208
0.0438288
0.0438346
0.0438372
0.0438376
0.0438383
0.0438398
0.0438395
0.0438353
0.0438275
0.0438189
0.043811
0.043792
0.0437769
0.0437679
0.0437665
0.0437564
0.0521048
0.09002
0.16464
0.305836
0.458599
0.629058
0.73118
0.813908
0.85169
0.855884
0.850236
0.837622
0.835611
0.837864
0.851874
0.879051
0.89645
0.893825
0.880842
0.864474
0.851016
0.848342
0.857999
0.870492
0.875504
0.872978
0.863925
0.857864
0.862609
0.869011
0.871063
0.86569
0.865295
0.867972
0.87012
0.870924
0.869842
0.866873
0.8649
0.866425
0.874646
0.885405
0.894486
0.901028
0.898858
0.896007
0.902705
0.91313
0.928005
0.940064
0.936104
0.937017
0.94605
0.958384
0.965602
0.968703
0.973946
0.979516
0.984067
0.988825
0.993825
0.999197
1.00327
1.01089
0.0437596
0.0437595
0.0437602
0.043761
0.0437617
0.0437626
0.0437643
0.0437664
0.0437697
0.0437739
0.0437776
0.0437831
0.0437893
0.0437959
0.0438047
0.0438131
0.043823
0.0438323
0.0438385
0.043843
0.0438474
0.0438481
0.0438446
0.0438396
0.0438359
0.0438318
0.0438254
0.0438163
0.0438051
0.0437932
0.0437814
0.0437725
0.0437691
0.0437697
0.0437714
0.0437714
0.0437644
0.0437579
0.0437527
0.0437466
0.0523313
0.0917617
0.18952
0.32062
0.500365
0.642349
0.748726
0.82068
0.853634
0.850032
0.853813
0.861606
0.86562
0.867128
0.872867
0.873372
0.868574
0.860613
0.858111
0.85792
0.86542
0.873076
0.874584
0.870896
0.865254
0.864319
0.867489
0.867485
0.862991
0.864433
0.868497
0.869907
0.870293
0.871865
0.873083
0.876847
0.881819
0.886395
0.889396
0.894635
0.901402
0.910618
0.921678
0.931323
0.934737
0.930553
0.935056
0.946714
0.96031
0.963655
0.961669
0.96771
0.976112
0.981801
0.986551
0.991935
0.996462
1.00067
1.00448
1.01312
0.0437671
0.0437692
0.0437718
0.0437746
0.0437769
0.0437795
0.0437833
0.0437874
0.0437939
0.0438009
0.0438057
0.043811
0.0438168
0.043823
0.04383
0.0438361
0.0438418
0.0438464
0.0438474
0.0438467
0.0438441
0.0438389
0.0438313
0.0438241
0.0438189
0.0438112
0.0438028
0.0437954
0.043786
0.0437762
0.0437687
0.0437666
0.0437694
0.0437743
0.0437772
0.0437773
0.043776
0.0437724
0.0437667
0.0437625
0.0437643
0.0437644
0.0437567
0.0437407
0.0613669
0.123754
0.240983
0.404189
0.58529
0.694445
0.783635
0.809505
0.821266
0.845919
0.864965
0.880124
0.882341
0.875987
0.867639
0.859676
0.857533
0.86019
0.86622
0.870978
0.868178
0.863441
0.861955
0.866191
0.86998
0.866075
0.866024
0.86956
0.870313
0.87096
0.875632
0.880659
0.886901
0.891947
0.897689
0.904126
0.911046
0.916513
0.919947
0.924767
0.929871
0.939438
0.948967
0.955437
0.954625
0.958416
0.968415
0.978256
0.983913
0.986229
0.99109
0.995026
0.998195
1.00313
1.00907
1.01763
0.0437901
0.0437949
0.0437985
0.0438009
0.043803
0.0438068
0.043811
0.0438157
0.0438225
0.0438279
0.0438301
0.0438311
0.0438337
0.0438372
0.0438403
0.0438423
0.043843
0.0438432
0.0438415
0.0438371
0.0438306
0.043822
0.0438136
0.0438065
0.0438007
0.0437939
0.0437873
0.043782
0.0437768
0.0437726
0.043772
0.0437779
0.0437872
0.0437928
0.0437932
0.0437926
0.0437881
0.0437805
0.0437728
0.0437682
0.0437628
0.0437497
0.0437292
0.0437198
0.0437219
0.0437231
0.0437228
0.0496956
0.0890937
0.18757
0.332541
0.505289
0.652844
0.778456
0.832284
0.868017
0.883621
0.882288
0.871409
0.860038
0.854741
0.856734
0.862943
0.869017
0.87097
0.869935
0.867116
0.866455
0.869712
0.871579
0.866691
0.86514
0.869451
0.873245
0.876348
0.881992
0.886092
0.892526
0.899906
0.90848
0.915194
0.917873
0.923286
0.930061
0.938836
0.94623
0.94934
0.952914
0.961136
0.971168
0.977114
0.976601
0.978246
0.984386
0.990468
0.996201
1.00443
1.01246
1.01855
1.02213
0.0438223
0.0438247
0.0438272
0.0438296
0.0438325
0.0438355
0.0438369
0.0438377
0.0438398
0.0438409
0.0438395
0.0438372
0.0438357
0.043837
0.0438388
0.0438379
0.043835
0.0438308
0.0438258
0.0438209
0.0438143
0.0438055
0.0437979
0.0437915
0.0437857
0.0437808
0.0437768
0.0437743
0.0437735
0.0437754
0.0437837
0.0437985
0.0438084
0.0438103
0.043809
0.0438053
0.0437935
0.0437835
0.0437794
0.0437735
0.0437585
0.043733
0.0437154
0.043713
0.0437181
0.0437235
0.0437271
0.0437452
0.0437969
0.0438766
0.0439016
0.0695386
0.150833
0.306963
0.49608
0.672827
0.823027
0.839456
0.857446
0.864668
0.861585
0.856999
0.857932
0.862701
0.866227
0.868568
0.870021
0.871594
0.870356
0.869063
0.866865
0.865605
0.866985
0.875746
0.882819
0.888038
0.893136
0.896878
0.902055
0.906129
0.914325
0.922844
0.928141
0.936132
0.94085
0.94409
0.950456
0.956754
0.96504
0.970416
0.973266
0.980024
0.987735
0.993907
0.998789
1.00384
1.006
1.00742
1.01032
1.01654
0.0438409
0.0438415
0.043842
0.0438429
0.0438442
0.043844
0.0438419
0.0438389
0.043836
0.0438334
0.0438304
0.043827
0.0438241
0.0438226
0.0438219
0.0438197
0.0438154
0.0438104
0.0438046
0.0437985
0.0437911
0.0437833
0.0437787
0.0437754
0.0437719
0.0437685
0.0437672
0.0437692
0.0437753
0.0437844
0.0437997
0.0438162
0.0438226
0.0438223
0.0438196
0.0438098
0.0437879
0.0437801
0.0437783
0.0437703
0.0437474
0.043723
0.043713
0.0437134
0.0437214
0.0437356
0.0437577
0.0438145
0.0439185
0.0439824
0.0439854
0.0439773
0.0439677
0.043936
0.0682062
0.153049
0.347027
0.554112
0.73714
0.836229
0.862378
0.856309
0.855029
0.857724
0.859023
0.864355
0.871582
0.873049
0.870375
0.867603
0.866721
0.868089
0.872029
0.877817
0.883984
0.888573
0.892858
0.900513
0.907357
0.913101
0.917215
0.921986
0.928604
0.932811
0.941685
0.949415
0.955437
0.963106
0.966781
0.971392
0.978226
0.981878
0.986266
0.991439
0.995923
1.003
1.00836
1.01134
1.01553
1.02368
0.0438241
0.0438225
0.0438213
0.0438203
0.0438188
0.0438166
0.0438138
0.0438112
0.043809
0.0438071
0.0438048
0.0438021
0.0437992
0.0437972
0.0437961
0.0437935
0.0437903
0.043786
0.0437807
0.0437758
0.0437704
0.0437677
0.0437671
0.0437687
0.0437669
0.0437646
0.0437661
0.043773
0.0437857
0.0438019
0.0438156
0.0438242
0.0438282
0.0438279
0.0438232
0.0438075
0.0437751
0.0437637
0.0437631
0.0437584
0.0437404
0.0437235
0.0437196
0.0437257
0.0437531
0.0437929
0.0438328
0.0439054
0.0439958
0.0440097
0.0440035
0.0439858
0.0439492
0.0438896
0.0438445
0.0437835
0.0438095
0.0879
0.211136
0.431591
0.664422
0.785117
0.849531
0.848663
0.855581
0.865591
0.875108
0.872737
0.867972
0.864054
0.867035
0.874173
0.881234
0.88526
0.889236
0.892776
0.897002
0.901614
0.907484
0.912958
0.920411
0.926528
0.932955
0.938536
0.941561
0.947274
0.954705
0.959769
0.967989
0.973397
0.979492
0.986677
0.989621
0.994453
1.00088
1.00374
1.00813
1.01564
1.01759
1.02226
0.0437829
0.0437819
0.0437815
0.0437813
0.0437809
0.0437801
0.0437791
0.0437789
0.043779
0.0437788
0.0437784
0.0437778
0.0437769
0.0437768
0.0437777
0.0437772
0.0437756
0.0437733
0.0437721
0.0437722
0.0437738
0.0437785
0.0437867
0.0437915
0.0437902
0.0437882
0.0437885
0.0437936
0.0438064
0.0438176
0.0438244
0.0438248
0.0438217
0.0438141
0.0438005
0.0437761
0.0437503
0.0437466
0.0437513
0.0437517
0.0437445
0.0437484
0.043761
0.0437908
0.0438423
0.0438783
0.0439096
0.0439667
0.0440126
0.0440143
0.0440071
0.0439774
0.0438825
0.0437866
0.043753
0.0437332
0.0437027
0.0436766
0.0436706
0.0563705
0.13852
0.330742
0.580868
0.743889
0.849417
0.861832
0.8722
0.870738
0.859718
0.86264
0.873019
0.881884
0.886528
0.888071
0.89078
0.89496
0.900832
0.906709
0.912285
0.916769
0.920653
0.926846
0.93316
0.93865
0.944222
0.950019
0.958431
0.965345
0.968724
0.972759
0.977106
0.98164
0.989985
0.995834
1.00237
1.01057
1.01084
1.00933
1.01764
1.02644
0.0437751
0.0437727
0.0437713
0.0437705
0.0437709
0.0437723
0.0437744
0.0437776
0.043782
0.0437848
0.0437865
0.0437877
0.0437894
0.0437929
0.0437972
0.0437995
0.0437997
0.0438002
0.0438019
0.0438052
0.0438134
0.0438283
0.0438371
0.043837
0.0438341
0.0438252
0.0438136
0.0438088
0.0438061
0.0438019
0.0437936
0.0437833
0.0437736
0.0437677
0.0437598
0.0437465
0.0437436
0.043745
0.0437519
0.0437682
0.0438015
0.0438378
0.0438668
0.0439016
0.0439274
0.0439384
0.0439522
0.0439833
0.0439842
0.0439789
0.0439656
0.0439098
0.0437769
0.04369
0.0436913
0.0436941
0.0436883
0.0436807
0.043683
0.043712
0.0438849
0.0440669
0.088894
0.248149
0.510377
0.691884
0.834168
0.838585
0.853568
0.870901
0.886546
0.886245
0.888775
0.890641
0.893686
0.899719
0.906208
0.910365
0.914421
0.918614
0.924713
0.931729
0.937297
0.941648
0.945123
0.950797
0.958128
0.964985
0.970876
0.975755
0.981047
0.986249
0.988505
0.992734
0.996762
1.00295
1.01506
1.01771
1.01611
1.0246
0.0437715
0.0437749
0.0437789
0.0437839
0.0437903
0.0437992
0.0438098
0.0438181
0.0438251
0.0438304
0.0438327
0.043834
0.0438361
0.04384
0.0438404
0.0438379
0.0438321
0.0438289
0.0438292
0.0438325
0.0438454
0.0438584
0.0438592
0.0438569
0.0438477
0.0438282
0.0437958
0.0437619
0.0437447
0.0437375
0.0437315
0.0437304
0.0437345
0.0437416
0.0437433
0.0437426
0.0437468
0.0437702
0.0438095
0.043863
0.0439218
0.04395
0.0439664
0.0439694
0.0439592
0.0439577
0.0439606
0.0439479
0.0439195
0.0438941
0.0438719
0.0438106
0.0436919
0.0436561
0.0436622
0.0436763
0.0436929
0.0437257
0.0438
0.0439427
0.0441844
0.0444714
0.044492
0.0443657
0.0684775
0.196148
0.446622
0.667254
0.837447
0.863118
0.886186
0.882127
0.892798
0.893477
0.899515
0.90519
0.909948
0.913181
0.916807
0.922445
0.928036
0.933607
0.938401
0.942772
0.948926
0.955599
0.962079
0.967415
0.970455
0.975174
0.98089
0.986364
0.992659
0.998568
1.00385
1.00433
1.00874
1.01941
1.02409
1.02528
0.0438124
0.0438184
0.043825
0.043834
0.0438459
0.0438576
0.0438656
0.0438701
0.0438721
0.0438729
0.0438724
0.04387
0.0438664
0.0438635
0.0438598
0.0438507
0.0438408
0.0438388
0.0438397
0.0438437
0.0438538
0.0438549
0.0438496
0.0438326
0.0438076
0.0437754
0.0437302
0.0437026
0.0436964
0.0436971
0.0437007
0.043712
0.0437278
0.0437417
0.0437538
0.0437685
0.0438047
0.0438657
0.0439303
0.0439868
0.044011
0.0440078
0.0439999
0.043985
0.0439574
0.0439408
0.0439233
0.0438909
0.0438541
0.0438233
0.0437986
0.0437492
0.0436644
0.0436487
0.0436572
0.0436892
0.0437566
0.0439162
0.0441822
0.044495
0.0445645
0.0446317
0.0446574
0.0447172
0.0448345
0.0450099
0.0562635
0.168042
0.418518
0.646834
0.82679
0.855744
0.895279
0.892981
0.907327
0.906357
0.91141
0.915826
0.91981
0.926683
0.930681
0.935837
0.940964
0.946305
0.951723
0.956887
0.962221
0.967264
0.973118
0.978575
0.983576
0.988452
0.992431
0.998188
1.00398
1.00803
1.00971
1.01436
1.02295
1.02985
0.0438615
0.0438662
0.0438711
0.0438758
0.0438803
0.0438859
0.0438899
0.0438904
0.0438898
0.0438881
0.0438844
0.0438772
0.0438702
0.0438642
0.0438538
0.043835
0.0438166
0.0438112
0.0438083
0.0438018
0.0437945
0.0437873
0.0437725
0.0437523
0.0437367
0.0437199
0.0436998
0.0436842
0.0436835
0.043686
0.0436942
0.043717
0.0437576
0.0438061
0.0438374
0.0438697
0.0439211
0.0439763
0.0440245
0.0440335
0.0440306
0.0440141
0.0439924
0.0439645
0.0439097
0.0438872
0.043876
0.0438497
0.0438153
0.0437884
0.0437651
0.0437309
0.0436724
0.0436668
0.0437042
0.0438431
0.0440928
0.0444087
0.0447417
0.0451006
0.0451329
0.0450021
0.0450344
0.045354
0.0458737
0.0466602
0.0474333
0.0480082
0.0547041
0.153356
0.378477
0.64032
0.819364
0.866167
0.918619
0.906775
0.918304
0.917366
0.92402
0.931175
0.934564
0.939394
0.942494
0.947291
0.953354
0.960396
0.966318
0.970649
0.974522
0.977872
0.98195
0.988021
0.995795
1.00173
1.00602
1.01059
1.01356
1.01676
1.02075
1.02742
0.0438848
0.0438845
0.043885
0.043885
0.0438837
0.0438808
0.0438769
0.0438702
0.0438612
0.043846
0.0438242
0.0438045
0.043788
0.0437694
0.0437362
0.0437076
0.0437027
0.0437055
0.0437094
0.0437109
0.0437102
0.043708
0.043706
0.043698
0.0436966
0.043695
0.0436952
0.0437039
0.043718
0.0437293
0.0437538
0.0438079
0.0438922
0.043953
0.0439711
0.0439885
0.0440105
0.0440403
0.044041
0.0440331
0.0440103
0.0439659
0.0439346
0.0439072
0.043872
0.0438612
0.043858
0.0438361
0.043801
0.0437787
0.0437543
0.0437779
0.0438593
0.0439532
0.0441284
0.0444567
0.0449143
0.0452367
0.0453513
0.0456171
0.0458797
0.0457629
0.0458305
0.0463068
0.0473578
0.0487528
0.0498929
0.051061
0.0517069
0.0520014
0.054313
0.14016
0.354315
0.627121
0.810611
0.871182
0.931063
0.918113
0.931369
0.930754
0.933968
0.940867
0.94564
0.952597
0.957928
0.962451
0.965884
0.969489
0.974779
0.981378
0.98705
0.992963
0.997144
0.999812
1.00278
1.00896
1.01544
1.01841
1.02125
1.02816
0.0437694
0.0437602
0.0437517
0.043743
0.0437319
0.0437215
0.0437141
0.0437084
0.0436994
0.0436816
0.0436618
0.0436477
0.0436349
0.0436185
0.043609
0.0436109
0.0436155
0.0436264
0.0436431
0.0436585
0.0436708
0.0436824
0.0436944
0.0437151
0.0437414
0.0437694
0.0438132
0.0438723
0.0439024
0.0439163
0.0439403
0.0439971
0.0440525
0.0440868
0.0440881
0.0440765
0.0440638
0.0440572
0.0440352
0.0440049
0.0439742
0.0439325
0.04391
0.0438876
0.0438865
0.0438977
0.0438947
0.0438457
0.043816
0.0438409
0.0439361
0.0441769
0.0445501
0.0449456
0.0452926
0.0455594
0.045971
0.0462043
0.0462016
0.0462852
0.0467335
0.0473701
0.0481036
0.0489699
0.0503276
0.0515431
0.0524232
0.0533305
0.0539372
0.0550174
0.056506
0.0581867
0.058794
0.131851
0.330132
0.61134
0.804107
0.875533
0.947982
0.935434
0.943575
0.942233
0.944463
0.954876
0.961718
0.966123
0.967611
0.972087
0.978372
0.983941
0.987748
0.990699
0.99555
1.00215
1.00796
1.01322
1.01792
1.01944
1.01873
1.02614
0.0435498
0.0435573
0.0435687
0.0435744
0.0435742
0.0435736
0.0435768
0.0435865
0.0435892
0.0435883
0.0435853
0.043578
0.0435764
0.0435786
0.0435894
0.0436067
0.0436363
0.0436802
0.0437171
0.0437544
0.0438068
0.0438578
0.0439065
0.0439452
0.0439738
0.0440109
0.0440581
0.0440986
0.0441166
0.0441293
0.0441504
0.0441771
0.0441961
0.0441976
0.0441843
0.0441333
0.0441056
0.0440992
0.0440632
0.0439977
0.043996
0.043991
0.0439889
0.0440007
0.0440499
0.0440916
0.0441124
0.0441297
0.0442072
0.0444172
0.0447385
0.0451752
0.045652
0.0461816
0.0466602
0.0468815
0.0470538
0.0474322
0.0476887
0.0479766
0.0485863
0.0498486
0.0513123
0.0527113
0.0536482
0.0545057
0.0552535
0.0560222
0.057364
0.0588067
0.0603597
0.0617614
0.0626919
0.0631756
0.0637313
0.125847
0.312471
0.599547
0.807431
0.87952
0.953404
0.951111
0.957858
0.95685
0.956329
0.964161
0.971815
0.97749
0.97923
0.983006
0.988772
0.995725
1.00187
1.00456
1.00681
1.00951
1.01549
1.02333
1.02783
1.03286
0.0435672
0.0435829
0.0436
0.0436153
0.0436314
0.0436577
0.0436992
0.0437417
0.0437818
0.0438155
0.0438466
0.0438721
0.0438934
0.0439258
0.0439646
0.0440004
0.0440412
0.0440748
0.0440952
0.0441176
0.0441477
0.044166
0.0441903
0.0442128
0.0442231
0.0442332
0.0442457
0.0442656
0.0442818
0.0442955
0.0443157
0.0443232
0.0443138
0.0442915
0.0442455
0.0441724
0.0441354
0.0441337
0.0441227
0.0441027
0.0441054
0.0441228
0.04412
0.0441427
0.0442467
0.0444587
0.0448476
0.045372
0.0458997
0.0463456
0.046748
0.0471099
0.0474172
0.0477272
0.0482591
0.0485679
0.0487331
0.0491077
0.0499695
0.0510969
0.0524189
0.0536143
0.0549611
0.056079
0.0568417
0.0576341
0.0583532
0.0593894
0.0607028
0.0621817
0.0633238
0.0644958
0.0659569
0.0670849
0.0681118
0.0691379
0.0701335
0.124208
0.300264
0.585179
0.810414
0.88516
0.965006
0.97146
0.971382
0.965695
0.965979
0.974427
0.984173
0.990339
0.993107
0.995726
0.999514
1.00457
1.01005
1.01481
1.01903
1.02415
1.02731
1.03044
0.0440535
0.0440923
0.0441264
0.0441584
0.0441994
0.0442585
0.0443376
0.044392
0.0444115
0.0444218
0.0444196
0.044413
0.0444104
0.0444074
0.0444049
0.0443988
0.0443846
0.0443765
0.0443758
0.0443759
0.0443732
0.0443664
0.044366
0.0443773
0.0443821
0.0443664
0.0443541
0.0443627
0.044385
0.0443829
0.0443908
0.0443852
0.0443544
0.0443001
0.0442395
0.0442154
0.0442163
0.0442534
0.0443406
0.0444713
0.0446248
0.0448651
0.0452375
0.0457033
0.0462125
0.0467452
0.0472942
0.0477931
0.048271
0.0486967
0.0490775
0.0494323
0.0496537
0.0498028
0.0501736
0.0509168
0.0517425
0.0527771
0.0539673
0.0555058
0.0567399
0.0577417
0.0585401
0.0591177
0.0597785
0.0604734
0.0616219
0.0629061
0.0643469
0.0661321
0.0672
0.0679624
0.0690042
0.0702338
0.0715756
0.0730796
0.0751739
0.0760624
0.0764876
0.124021
0.29582
0.581378
0.822019
0.894219
0.971356
0.981306
0.982853
0.976467
0.97763
0.987051
0.996595
1.00136
1.00305
1.00638
1.01131
1.01623
1.01875
1.02212
1.02749
1.03431
0.0448839
0.0448701
0.044859
0.0448484
0.0448293
0.044809
0.0447881
0.044771
0.0447621
0.0447487
0.0447244
0.0446927
0.0446549
0.044619
0.0446019
0.0445802
0.0445449
0.0445214
0.0445207
0.0445203
0.044509
0.0444756
0.0444593
0.0444663
0.0444848
0.0444735
0.044437
0.0444463
0.0445042
0.0445675
0.0446186
0.0447204
0.044854
0.0449678
0.0451174
0.0453402
0.0456692
0.0460633
0.0465039
0.0469609
0.0474334
0.0479425
0.0484375
0.0489295
0.0493593
0.0497089
0.0499851
0.0502398
0.0505265
0.0508814
0.0512442
0.0517382
0.0523379
0.0530008
0.0539749
0.0552214
0.056814
0.0581026
0.0591807
0.0600061
0.0605365
0.0610414
0.0614356
0.0620687
0.0629213
0.0641453
0.0656644
0.0673402
0.0685279
0.0697223
0.0707732
0.0711124
0.0716516
0.0732939
0.0757605
0.0778321
0.0789891
0.0797368
0.0806219
0.0819422
0.0831485
0.127884
0.29713
0.580112
0.83213
0.903552
0.981172
0.994174
0.994167
0.988415
0.989609
0.999013
1.00722
1.01135
1.01278
1.01599
1.02001
1.02547
1.02994
1.03528
0.0446536
0.0446335
0.0446258
0.0446106
0.0445635
0.0445148
0.0445014
0.044502
0.0445146
0.0445524
0.0445742
0.0445777
0.0445889
0.0446126
0.0446364
0.0446671
0.0446673
0.0446725
0.0447047
0.0448057
0.0448956
0.0449653
0.0450466
0.0451728
0.0453561
0.0455785
0.0458426
0.0461348
0.0464424
0.0467644
0.047103
0.0474767
0.0478698
0.0482796
0.0486756
0.0490632
0.0494618
0.0498477
0.0501926
0.0504875
0.0507913
0.0511086
0.051415
0.0517438
0.0520471
0.0523535
0.0527469
0.0531876
0.0536819
0.0543759
0.055284
0.0564393
0.0576333
0.0588924
0.0599015
0.0608045
0.0616229
0.0621575
0.0626244
0.0629735
0.063386
0.0638752
0.0648052
0.0660619
0.0677496
0.0693992
0.0706958
0.071962
0.0725726
0.072944
0.0738372
0.0751918
0.0768963
0.0785391
0.0803067
0.0816678
0.0820367
0.082842
0.0846032
0.0871994
0.0891957
0.0900109
0.0906835
0.134159
0.305386
0.593003
0.849265
0.918242
0.994699
1.00409
1.00376
0.998808
1.00032
1.0089
1.01729
1.02152
1.0232
1.02599
1.0294
1.03543
0.0454547
0.0455381
0.0456331
0.0457411
0.0458568
0.0459861
0.0461248
0.0462667
0.0464175
0.0465804
0.0467495
0.0469258
0.0471152
0.0472971
0.0474811
0.0476837
0.0478903
0.0480912
0.0482969
0.0485006
0.0487127
0.0489544
0.0492
0.0494468
0.0497047
0.0499711
0.0502235
0.0504667
0.0507166
0.0509756
0.0512515
0.0515292
0.0518054
0.052097
0.0523959
0.0526955
0.0529781
0.0532321
0.0534819
0.0537799
0.0541286
0.054518
0.0549731
0.0555401
0.0562608
0.057042
0.0578956
0.0587805
0.0597136
0.060632
0.0615413
0.0622699
0.0629684
0.0637149
0.064144
0.0644717
0.0648105
0.0651717
0.065582
0.0663595
0.0674112
0.0688634
0.0703982
0.0720146
0.0732046
0.0743158
0.0751033
0.0755698
0.0761589
0.0768256
0.0779785
0.080003
0.0822452
0.0835625
0.0840949
0.0847591
0.0860443
0.0878423
0.0904883
0.092331
0.093184
0.0944117
0.0960941
0.0972385
0.0981343
0.145743
0.325139
0.615203
0.872532
0.933125
1.0059
1.01265
1.01329
1.00902
1.01147
1.01785
1.02557
1.03025
1.03205
1.03664
0.0502846
0.0503675
0.0504622
0.0505652
0.0506675
0.0507675
0.0508674
0.0509632
0.0510612
0.0511776
0.0513043
0.0514286
0.0515526
0.0516853
0.0518229
0.0519664
0.0521162
0.0522724
0.0524354
0.0526047
0.0527827
0.0529617
0.0531526
0.0533494
0.0535506
0.0537537
0.0539715
0.0542125
0.0544715
0.0547487
0.0550396
0.055352
0.0557123
0.0561055
0.0565232
0.0569621
0.0574484
0.0579897
0.0585906
0.0592322
0.0598543
0.0605078
0.0612051
0.0619166
0.0625722
0.0632449
0.0638927
0.0645228
0.0650919
0.0655614
0.0659204
0.0661974
0.0665587
0.0671586
0.0676093
0.0680186
0.0687255
0.0697395
0.0711082
0.0724061
0.0738694
0.0750926
0.0760244
0.0769671
0.077423
0.0778605
0.078423
0.0790875
0.0802975
0.081996
0.0839485
0.0854396
0.0869357
0.0881204
0.0887176
0.0897368
0.0913716
0.0936082
0.0954338
0.0963547
0.0975466
0.0991955
0.100826
0.102371
0.104622
0.106295
0.107185
0.160797
0.354552
0.648515
0.898082
0.950117
1.01743
1.02212
1.02296
1.01729
1.02301
1.02965
1.03345
1.03786
0.0545605
0.0546547
0.0547564
0.0548627
0.0549805
0.0551192
0.0552645
0.0554063
0.0555475
0.0556982
0.0558683
0.0560498
0.0562413
0.0564486
0.0566693
0.0568946
0.0571324
0.0573884
0.0576543
0.0579309
0.0582183
0.0585257
0.0588424
0.0591659
0.059504
0.059854
0.060221
0.0605909
0.0609801
0.0613714
0.0617693
0.0621796
0.0626029
0.0630145
0.0634323
0.0638713
0.0643179
0.0647606
0.0651894
0.0655811
0.0659874
0.0663887
0.066763
0.0670964
0.067429
0.0677878
0.0681441
0.0685468
0.0689508
0.0694049
0.0699116
0.0704349
0.071047
0.0719402
0.0730666
0.0743648
0.0754458
0.0765418
0.0775626
0.0784426
0.0792742
0.0799164
0.0803579
0.0808546
0.0814866
0.0821069
0.0831171
0.0849588
0.0869418
0.0887218
0.0900905
0.0908729
0.091435
0.092331
0.0937913
0.0951924
0.0971226
0.0989856
0.100224
0.101752
0.103313
0.104726
0.106074
0.107962
0.110464
0.112348
0.11389
0.115064
0.116059
0.18279
0.398578
0.6952
0.925074
0.969622
1.0295
1.02757
1.0322
1.02782
1.03261
1.03971
0.0615583
0.0616714
0.0617933
0.0619224
0.0620516
0.0621872
0.0623303
0.0624803
0.0626446
0.0628046
0.0629532
0.0631056
0.0632772
0.0634604
0.0636344
0.0638084
0.0639893
0.0641764
0.0643682
0.0645652
0.0647702
0.064986
0.0652077
0.0654358
0.0656628
0.0658955
0.0661346
0.0663794
0.0666225
0.0668684
0.0671183
0.0673722
0.0676292
0.0679001
0.0681847
0.0684786
0.0687797
0.0690903
0.0694158
0.0697704
0.0701702
0.0705602
0.070992
0.0714539
0.0719828
0.0725333
0.0731563
0.0738413
0.0746565
0.0755403
0.0765122
0.0775042
0.0785259
0.0793545
0.0802002
0.0810146
0.0816613
0.0822543
0.0827469
0.0832187
0.0835874
0.0842125
0.0850498
0.0860249
0.0874466
0.0890765
0.0908384
0.0921983
0.0934705
0.0945416
0.0952618
0.0959311
0.0965099
0.0978223
0.0996409
0.10196
0.103894
0.105047
0.106271
0.107361
0.108629
0.110068
0.111953
0.114762
0.11668
0.11793
0.11948
0.121441
0.12369
0.125067
0.125938
0.212143
0.453264
0.753035
0.951673
0.991038
1.04397
1.03169
1.03703
1.03807
0.0674277
0.0675035
0.0675914
0.0676977
0.0678204
0.0679458
0.0680628
0.0681733
0.0682849
0.0684128
0.0685519
0.0686918
0.068832
0.0689768
0.0691272
0.0692838
0.0694513
0.069624
0.0698009
0.0699909
0.0701972
0.0704148
0.0706426
0.0708792
0.0711272
0.071389
0.0716653
0.0719539
0.0722608
0.0725839
0.0729245
0.0732832
0.0736619
0.074066
0.0744831
0.0749383
0.0754156
0.0759259
0.0764645
0.0770338
0.0776144
0.07823
0.0788512
0.0795064
0.080143
0.0807741
0.0814029
0.0820002
0.0825535
0.0830889
0.0835968
0.0841779
0.08479
0.0851953
0.0855744
0.0860345
0.0865283
0.0870301
0.0877118
0.0885893
0.0895481
0.0907901
0.0922629
0.0939714
0.0954088
0.0967153
0.097878
0.0984768
0.0989445
0.0995393
0.100526
0.101753
0.103656
0.105428
0.107242
0.108975
0.109896
0.111008
0.111951
0.113131
0.115005
0.117222
0.1199
0.121866
0.122785
0.124109
0.126124
0.128081
0.129838
0.131572
0.133809
0.134818
0.140867
0.253372
0.520417
0.821222
0.97722
1.00831
1.05332
1.04344
0.0746207
0.0747381
0.074883
0.0750278
0.0751636
0.0752879
0.0754078
0.0755435
0.0757009
0.0758689
0.0760459
0.0762317
0.0764125
0.0765909
0.0767799
0.0769869
0.0772016
0.0774149
0.0776313
0.0778537
0.0780922
0.078334
0.0785794
0.0788298
0.0790927
0.0793701
0.0796584
0.0799612
0.0802769
0.0806068
0.0809449
0.0812886
0.0816474
0.0820097
0.082389
0.0827596
0.0831341
0.0835106
0.0838851
0.0842584
0.0846278
0.0849974
0.0853723
0.085752
0.0861484
0.0865649
0.0870059
0.087416
0.0878304
0.0882629
0.0887182
0.0892802
0.0900953
0.0907903
0.0914726
0.0923761
0.0936024
0.0948609
0.0961519
0.0973985
0.0987671
0.0999496
0.100958
0.101815
0.102467
0.103065
0.103691
0.104503
0.105114
0.106203
0.107693
0.109838
0.111798
0.113423
0.11488
0.115625
0.116681
0.117881
0.119436
0.121545
0.12352
0.125478
0.127095
0.127776
0.12909
0.131038
0.13299
0.134798
0.136582
0.138532
0.140501
0.142538
0.144181
0.145041
0.162014
0.309878
0.602623
0.887554
0.996577
1.03577
0.0825186
0.0826171
0.0827139
0.0828058
0.0828995
0.0830104
0.0831538
0.0832997
0.0834296
0.0835569
0.0836924
0.0838391
0.0839991
0.084165
0.0843303
0.0844965
0.084668
0.0848526
0.0850446
0.0852424
0.0854425
0.0856486
0.0858614
0.0860813
0.0863117
0.0865516
0.0867982
0.0870517
0.0873148
0.0875925
0.0878776
0.0881764
0.08848
0.088796
0.0891245
0.0894605
0.0898222
0.0902056
0.0906194
0.0910788
0.0915638
0.0920821
0.0926248
0.0931827
0.093772
0.0943801
0.095039
0.0958129
0.0966576
0.0975559
0.0984583
0.099328
0.100119
0.101074
0.102112
0.103012
0.103753
0.104523
0.105231
0.105863
0.106507
0.107072
0.107653
0.10809
0.108722
0.109443
0.110681
0.112189
0.114221
0.115976
0.117642
0.119122
0.12027
0.121484
0.122168
0.123122
0.124403
0.125879
0.127859
0.129621
0.131233
0.132649
0.133638
0.135244
0.137342
0.139332
0.140954
0.142586
0.14436
0.146054
0.147688
0.149254
0.15074
0.152601
0.153831
0.154629
0.190676
0.394556
0.701589
0.976449
0.0914576
0.0915567
0.09168
0.0918093
0.0919317
0.0920513
0.0921735
0.0922951
0.0924315
0.0926044