/*--------------------------------*- C++ -*----------------------------------*\
  =========                 |
  \\      /  F ield         | OpenFOAM: The Open Source CFD Toolbox
   \\    /   O peration     | Website:  https://openfoam.org
    \\  /    A nd           | Version:  7
     \\/     M anipulation  |
\*---------------------------------------------------------------------------*/
FoamFile
{
    version     2.0;
    format      ascii;
    class       volScalarField;
    location    "3.4";
    object      T;
}
// * * * * * * * * * * * * * * * * * * * * * * * * * * * * * * * * * * * * * //

dimensions      [0 0 0 1 0 0 0];

internalField   nonuniform List<scalar> 
1750
(
1.36209
1.50979
1.47476
1.43262
1.39135
1.39748
1.43476
1.451
1.49613
1.5801
0.384143
0.728607
1.36539
1.61954
1.73471
1.73333
1.70616
1.64345
1.63884
1.64276
0.348171
0.358441
0.361233
0.603927
0.990837
1.21831
1.27162
1.37944
1.43605
1.5154
0.398286
0.40229
0.415028
0.439243
0.470328
0.474203
0.526058
0.729136
0.889726
1.17497
0.467871
0.493655
0.503042
0.516014
0.525744
0.526667
0.523871
0.544418
0.557059
0.754953
0.561055
0.579226
0.581821
0.578569
0.584132
0.601053
0.618359
0.621843
0.627062
0.633327
0.678349
0.680615
0.683493
0.688983
0.690659
0.691646
0.69042
0.690611
0.688707
0.68339
0.815943
0.807534
0.796296
0.786422
0.779811
0.771317
0.761591
0.753885
0.748299
0.741338
0.942901
0.929156
0.914836
0.897848
0.882538
0.8692
0.85476
0.839188
0.827578
0.811647
1.01077
1.00458
0.996607
0.986427
0.9739
0.960074
0.944272
0.926957
0.911206
0.887112
1.02067
1.02022
1.01936
1.01783
1.01513
1.01062
1.00396
0.994513
0.983564
0.96229
1.01459
1.01568
1.01655
1.01687
1.01672
1.01627
1.01527
1.01334
1.0109
1.00319
1.00345
1.00467
1.00614
1.00784
1.00948
1.01092
1.01189
1.01181
1.01113
1.00891
1.00017
1.00031
1.00053
1.00092
1.00152
1.0024
1.00349
1.00463
1.00587
1.00606
1
1.00001
1.00001
1.00002
1.00005
1.00012
1.00024
1.00046
1.00083
1.00149
0.462954
0.391632
0.33796
0.384866
0.451042
0.549308
0.67682
0.825511
0.955635
1.01477
1.02091
1.01321
1.00254
1.00011
1
0.478592
0.388988
0.336656
0.391343
0.477662
0.590562
0.732015
0.877703
0.98567
1.02179
1.02109
1.01055
1.00137
1.00004
1
0.502629
0.394163
0.357803
0.384343
0.494021
0.635238
0.778129
0.914574
1.00223
1.02383
1.02051
1.00785
1.00072
1.00002
1
0.505937
0.392395
0.364435
0.420317
0.550776
0.684629
0.822595
0.949221
1.01548
1.02492
1.01869
1.00507
1.00033
1.00001
1
0.507245
0.379848
0.36054
0.481326
0.599828
0.727483
0.86737
0.981482
1.02397
1.02527
1.01539
1.00295
1.00014
1
1
0.496243
0.373566
0.374099
0.516396
0.633414
0.774329
0.919712
1.00642
1.02739
1.02513
1.01148
1.00153
1.00005
1
1
0.475107
0.384051
0.428287
0.545767
0.689171
0.846492
0.963398
1.02087
1.0286
1.0224
1.00766
1.00069
1.00002
1
1
0.457393
0.401562
0.470014
0.60511
0.766753
0.905661
0.995631
1.02886
1.02888
1.01896
1.00439
1.00026
1.00001
1
1
0.390341
0.3983
0.499143
0.685205
0.842571
0.955315
1.01888
1.03214
1.02891
1.01351
1.00191
1.00008
1
1
1
0.33594
0.409872
0.578803
0.772667
0.907928
0.997765
1.03135
1.03297
1.02449
1.00747
1.00069
1.00002
1
1
1
0.424463
0.492806
0.704388
0.859472
0.966824
1.02423
1.03543
1.03303
1.01764
1.00345
1.00021
1.00001
1
1
1
0.0956307
0.57198
0.795559
0.935157
1.01131
1.03598
1.03619
1.02754
1.00998
1.00124
1.00005
1
1
1
1
0.217589
0.670706
0.894413
0.99525
1.03368
1.03884
1.03542
1.01961
1.00443
1.00033
1.00001
1
1
1
1
0.475341
0.8217
0.980746
1.02911
1.04097
1.0391
1.0279
1.00999
1.00131
1.00007
1
1
1
1
1
0.811727
0.973895
1.02954
1.04063
1.04211
1.03444
1.01749
1.00356
1.00027
1.00001
1
1
1
1
1
1.04122
1.04208
1.0425
1.04189
1.04033
1.0249
1.00641
1.00038
1.00001
1
1
1
1
1
1
1.04102
1.04221
1.04275
1.04073
1.03805
1.02216
1.00579
1.00064
1.00003
1
1
1
1
1
1
1.04099
1.04306
1.04352
1.04031
1.03324
1.0142
1.00226
1.0001
1
1
1
1
1
1
1
1.0413
1.04406
1.04391
1.03914
1.02774
1.00889
1.00094
1.00004
1
1
1
1
1
1
1
1.0418
1.04455
1.04415
1.03764
1.02017
1.00437
1.00032
1.00001
1
1
1
1
1
1
1
1.0423
1.04452
1.04372
1.03148
1.01306
1.00205
1.0001
1
1
1
1
1
1
1
1
1.04376
1.04337
1.04105
1.02489
1.00741
1.00073
1.00003
1
1
1
1
1
1
1
1
1.04817
1.04106
1.03684
1.01703
1.00339
1.00024
1.00001
1
1
1
1
1
1
1
1
1.05172
1.03842
1.0286
1.00965
1.00128
1.00006
1
1
1
1
1
1
1
1
1
1.05322
1.03435
1.01962
1.00481
1.00044
1.00002
1
1
1
1
1
1
1
1
1
1.05319
1.02825
1.01185
1.00187
1.00011
1
1
1
1
1
1
1
1
1
1
1.04758
1.02063
1.00576
1.00059
1.00002
1
1
1
1
1
1
1
1
1
1
1.03859
1.01316
1.00233
1.00014
1
1
1
1
1
1
1
1
1
1
1
1.02688
1.0063
1.00059
1.00002
1
1
1
1
1
1
1
1
1
1
1
1.01238
1.00169
1.00008
1
1
1
1
1
1
1
1
1
1
1
1
1
1
1
1
1
1
1
1
1
1
1
1
1
1
1
1
1
1
1
1
1
1
1
1
1
1
1
1
1
1
1
1
1
1
1
1
1
1
1
1
1
1
1
1
1
1
1
1
1
1
1
1
1
1
1
1
1
1
1
1
1
1
1
1
1
1
1
1
1
1
1
1
1
1
1
1
1
1
1
1
1
1
1
1
1
1
1
1
1
1
1
1
1
1
1
1
1
1
1
1
1
1
1
1
1
1
1
1
1
1
1
1
1
1
1
1
1
1
1
1
1
1
1
1
1
1
1
1
1
1
1
1
1
1
1
1
1
1
1
1
1
1
1
1
1
1
1
1
1
1
1
1
1
1
1
1
1
1
1
1
1
1
1
1
1
1
1
1
1
1
1
1
1
1
1
1
1
1
1
1
1
1
1
1
1
1
1
1
1
1
1
1
1
1
1
1
1
1
1
1
1
1
1
1
1
1
1
1
1
1
1
1
1
1
1
1
1
1
1
1
1
1
1
1
1
1
1
1
1
1
1
1
1
1
1
1
1
1
1
1
1
1
1
1
1
1
1
1
1
1
1
1
1
1
1
1
1
1
1
1
1
1
1
1
1
1
1
1
1
1
1
1
1
1
1
1
1
1
1
1
1
1
1
1
1
1
1
1
1
1
1
1
1
1
1
1
1
1
1
1
1
1
1
1
1
1
1
1
1
1
1
1
1
1
1
1
1
1
1
1
1
1
1
1
1
1
1
1
1
1
1
1
1
1
1
1
1
1
1
1
1
1
1
1
1
1
1
1
1
1
1.96751
1.41748
0.999997
1
1
1
1
1
1
1
1
1
1
1
1
1
1
1
1
1
2.60466
2.3362
1.87518
1.09699
0.999999
1
1
1
1
1
1
1
1
1
1
1
1
1
1
1
2.45754
2.35651
2.36377
2.18497
1.3501
0.999711
1
1
1
1
1
1
1
1
1
1
1
1
1
1
2.37051
2.33878
2.352
2.36204
2.18313
1.43233
0.999188
1
1
1
1
1
1
1
1
1
1
1
1
1
2.3243
2.31696
2.33004
2.33659
2.31603
2.11534
1.35926
0.999071
1
1
1
1
1
1
1
1
1
1
1
1
2.29192
2.29084
2.30435
2.31237
2.29968
2.25332
1.98826
1.21571
0.999212
1
1
1
1
1
1
1
1
1
1
1
2.26478
2.2647
2.27849
2.28809
2.28011
2.24393
2.1437
1.72119
1.04342
1
1
1
1
1
1
1
1
1
1
1
2.24507
2.24494
2.25825
2.26743
2.26553
2.23952
2.19815
2.06332
1.45406
0.998493
1.00001
1
1
1
1
1
1
1
1
1
2.23307
2.23192
2.24327
2.25084
2.2509
2.23329
2.20207
2.16133
1.94463
1.22166
0.999091
1
1
1
1
1
1
1
1
1
2.2251
2.22299
2.2314
2.23718
2.23806
2.22427
2.19661
2.15664
2.06477
1.61866
1.01658
1
1
1
1
1
1
1
1
1
2.2191
2.21616
2.22188
2.22539
2.22698
2.21545
2.19166
2.15461
2.10368
1.93785
1.25776
0.998863
1
1
1
1
1
1
1
1
2.21378
2.20983
2.21425
2.21705
2.21705
2.20728
2.18579
2.15191
2.11817
2.05658
1.65121
1.02911
1
1
1
1
1
1
1
1
2.20735
2.20316
2.20737
2.2111
2.20871
2.20101
2.18199
2.1503
2.11692
2.06699
1.884
1.23403
0.998935
1
1
1
1
1
1
1
2.19398
2.19145
2.19765
2.2034
2.20137
2.19573
2.17827
2.14843
2.116
2.08226
2.04257
1.60507
1.02191
1
1
1
1
1
1
1
2.1832
2.18327
2.19139
2.19622
2.19444
2.18608
2.16774
2.14178
2.10971
2.07959
2.0444
1.82373
1.12507
0.994138
0.999986
1
1
1
1
1
1.61791
1.83826
1.92955
1.99383
2.04382
2.08161
2.09722
2.09598
2.08298
2.06431
2.0385
2.01578
1.66183
1.10164
1.0014
1.00001
1
1
1
1
1.16966
1.54482
1.67724
1.78568
1.86448
1.92705
1.9775
2.00736
2.01805
2.01319
2.01747
2.01809
1.97692
1.53636
1.05241
1.00056
1
1
1
1
1.16831
1.34138
1.45408
1.57486
1.69465
1.7751
1.84886
1.89513
1.93161
1.94628
1.96348
1.99285
1.97355
1.87422
1.35034
1.01642
1.00011
1
1
1
1.24952
1.28369
1.32019
1.41446
1.53476
1.64087
1.72256
1.78827
1.83088
1.867
1.89339
1.92896
1.94393
1.93733
1.70693
1.15994
1.00307
1.00001
1
1
1.32133
1.24717
1.23511
1.33372
1.42446
1.53108
1.61315
1.69544
1.74439
1.79043
1.81841
1.85113
1.88975
1.91345
1.83641
1.42887
1.03293
1.00027
1
1
1.35546
1.25292
1.19786
1.24397
1.32265
1.43278
1.51904
1.60243
1.67291
1.72377
1.75661
1.78508
1.82389
1.87809
1.86632
1.645
1.15653
1.00328
1.00002
1
1.3518
1.26931
1.2107
1.2115
1.23653
1.31773
1.42639
1.50515
1.59527
1.65648
1.69729
1.72295
1.7655
1.83236
1.85399
1.7766
1.37329
1.02663
1.0002
1
1.34415
1.28906
1.24005
1.20819
1.20748
1.26367
1.35245
1.43322
1.51356
1.58492
1.63037
1.65987
1.70276
1.77426
1.82538
1.80031
1.57192
1.11728
1.00211
1.00001
1.33462
1.29558
1.24069
1.19489
1.18643
1.23582
1.30733
1.38893
1.45521
1.52442
1.5671
1.60885
1.64549
1.71003
1.78304
1.784
1.6786
1.27656
1.01332
1.00008
1.32268
1.29388
1.23742
1.18685
1.17161
1.20341
1.25429
1.3443
1.40715
1.4722
1.51635
1.56269
1.60624
1.65688
1.73212
1.75482
1.69668
1.42429
1.05129
1.00057
1.31871
1.29271
1.24002
1.19078
1.17552
1.18586
1.19815
1.27315
1.34758
1.40816
1.4595
1.50811
1.56413
1.61432
1.68456
1.7323
1.69547
1.5082
1.13116
1.00301
1.31565
1.29047
1.24429
1.20271
1.18884
1.18818
1.18951
1.2328
1.29994
1.35025
1.40043
1.44846
1.5066
1.56396
1.63179
1.70295
1.69225
1.56817
1.22771
1.01198
1.31063
1.28622
1.24724
1.21189
1.19362
1.18702
1.18835
1.22056
1.27091
1.32391
1.36769
1.41718
1.47052
1.52556
1.58552
1.6612
1.67809
1.61101
1.33626
1.03602
1.30285
1.27905
1.24536
1.211
1.19036
1.17643
1.17405
1.19646
1.23708
1.29423
1.33934
1.39262
1.44495
1.49636
1.55179
1.62091
1.6549
1.6079
1.41107
1.08783
1.29217
1.27611
1.24379
1.20796
1.18185
1.16335
1.15994
1.17126
1.18444
1.24564
1.29237
1.35396
1.4061
1.4568
1.50902
1.57463
1.62646
1.59733
1.45011
1.15327
1.28203
1.26215
1.23519
1.20087
1.17304
1.15463
1.15207
1.15621
1.15462
1.1991
1.25168
1.30398
1.36476
1.41514
1.47016
1.52989
1.59354
1.58365
1.47709
1.22221
1.2606
1.22928
1.21768
1.19267
1.16594
1.15024
1.14489
1.14708
1.14692
1.18215
1.22986
1.27619
1.33703
1.38963
1.44452
1.50084
1.56518
1.56622
1.48634
1.29337
1.20269
1.17516
1.18384
1.17889
1.15663
1.13972
1.12947
1.12996
1.13465
1.1653
1.20789
1.24959
1.30292
1.35925
1.41148
1.46297
1.52674
1.54238
1.47997
1.35638
1.1568
1.12508
1.13815
1.15309
1.14142
1.12459
1.11199
1.1111
1.11774
1.14224
1.17233
1.21922
1.26849
1.32351
1.37688
1.42441
1.4817
1.51419
1.47109
1.40982
1.12485
1.08333
1.08766
1.11551
1.12467
1.11469
1.1039
1.09638
1.0996
1.11955
1.14183
1.18199
1.23376
1.29095
1.34585
1.393
1.44485
1.48855
1.46303
1.4462
1.12021
1.05155
1.03942
1.07598
1.10228
1.10394
1.09791
1.08478
1.07819
1.0881
1.11265
1.15005
1.19856
1.25695
1.30883
1.35377
1.39965
1.45164
1.4479
1.46645
1.14363
1.03805
1.01227
1.03215
1.0637
1.08703
1.08429
1.07309
1.06989
1.07145
1.08869
1.12235
1.16134
1.22087
1.27052
1.31224
1.35421
1.40822
1.4317
1.47377
1.1845
1.05461
1.00841
1.00338
1.01424
1.05587
1.07156
1.07024
1.06512
1.05962
1.06375
1.10303
1.13996
1.19162
1.24033
1.27817
1.31449
1.37057
1.41399
1.47018
1.29493
1.13225
1.04731
1.00818
1.00426
1.02666
1.05309
1.06564
1.06148
1.055
1.05582
1.07891
1.11716
1.16678
1.2169
1.25192
1.28239
1.33621
1.39329
1.4587
1.4539
1.30266
1.17428
1.10195
1.05321
1.03921
1.05092
1.06378
1.06698
1.06395
1.06681
1.08302
1.10488
1.14145
1.18032
1.20762
1.22946
1.27758
1.34923
1.42513
)
;

boundaryField
{
    inlet
    {
        type            fixedValue;
        value           uniform 1;
    }
    outlet
    {
        type            inletOutlet;
        inletValue      uniform 1;
        value           nonuniform List<scalar> 
35
(
1.45599
1.30438
1.17541
1.10287
1.05386
1.03954
1.05115
1.06401
1.06734
1.06438
1.06734
1.08353
1.10544
1.14187
1.18044
1.20746
1.22926
1.27733
1.34769
1.4221
1.58188
1.6435
1.51601
1.1764
0.757326
0.633418
0.683269
0.741362
0.811661
0.887116
0.962274
1.00314
1.00887
1.00603
1.00148
)
;
    }
    airfoil
    {
        type            zeroGradient;
    }
    top
    {
        type            symmetryPlane;
    }
    bottom
    {
        type            symmetryPlane;
    }
    defaultFaces
    {
        type            empty;
    }
}


// ************************************************************************* //
